/*--------------------------------*- C++ -*----------------------------------*\
| =========                 |                                                 |
| \\      /  F ield         | OpenFOAM: The Open Source CFD Toolbox           |
|  \\    /   O peration     | Version:  2.4.0                                 |
|   \\  /    A nd           | Web:      www.OpenFOAM.org                      |
|    \\/     M anipulation  |                                                 |
\*---------------------------------------------------------------------------*/
FoamFile
{
    version     2.0;
    format      ascii;
    class       surfaceScalarField;
    location    "0.4";
    object      phi;
}
// * * * * * * * * * * * * * * * * * * * * * * * * * * * * * * * * * * * * * //

dimensions      [0 3 -1 0 0 0 0];

internalField   nonuniform List<scalar> 
5952
(
6.01227e-08
-6.01227e-08
1.45223e-07
-8.51e-08
2.09336e-07
-6.41133e-08
2.24623e-07
-1.52866e-08
1.85664e-07
3.89581e-08
8.33604e-08
1.02304e-07
-9.0409e-08
1.73769e-07
-3.40128e-07
2.49719e-07
-6.64893e-07
3.24765e-07
-1.05576e-06
3.90863e-07
-1.49317e-06
4.37415e-07
4.52472e-07
-1.94564e-06
4.09706e-08
-1.01093e-07
8.02141e-08
-1.24343e-07
5.81763e-08
-4.20755e-08
-5.82849e-08
1.01175e-07
-2.93375e-07
2.74048e-07
-6.53486e-07
4.62415e-07
-1.13168e-06
6.51964e-07
-1.70751e-06
8.25546e-07
-2.34919e-06
9.6645e-07
-3.02583e-06
1.0675e-06
-3.72679e-06
1.13837e-06
1.04729e-06
-4.32161e-06
6.38914e-09
-1.07483e-07
-5.32609e-08
-6.46934e-08
-2.16453e-07
1.21116e-07
-5.01897e-07
3.86619e-07
-9.1659e-07
6.88741e-07
-1.44568e-06
9.91501e-07
-2.05399e-06
1.26028e-06
-2.69648e-06
1.46803e-06
-3.33778e-06
1.60775e-06
-3.93352e-06
1.66324e-06
-4.33824e-06
1.5431e-06
1.32769e-06
-4.61864e-06
-3.84527e-08
-6.90298e-08
-1.86196e-07
8.30498e-08
-4.553e-07
3.9022e-07
-8.4455e-07
7.7587e-07
-1.33941e-06
1.1836e-06
-1.90284e-06
1.55494e-06
-2.48315e-06
1.84059e-06
-3.04411e-06
2.02899e-06
-3.57714e-06
2.14078e-06
-4.10046e-06
2.18657e-06
-4.61302e-06
2.05566e-06
1.69888e-06
-4.98421e-06
-6.58459e-08
-3.18399e-09
-2.58623e-07
2.75827e-07
-5.64675e-07
6.96272e-07
-9.62216e-07
1.17341e-06
-1.42269e-06
1.64407e-06
-1.90403e-06
2.03627e-06
-2.37108e-06
2.30764e-06
-2.8342e-06
2.49211e-06
-3.25709e-06
2.56367e-06
-3.62032e-06
2.54979e-06
-3.88484e-06
2.32018e-06
1.86998e-06
-4.05594e-06
-7.62374e-08
7.30534e-08
-2.69933e-07
4.69522e-07
-5.54931e-07
9.81271e-07
-8.99497e-07
1.51798e-06
-1.27764e-06
2.02221e-06
-1.66564e-06
2.42427e-06
-2.07322e-06
2.71523e-06
-2.50866e-06
2.92754e-06
-2.81655e-06
2.87155e-06
-2.95835e-06
2.6916e-06
-2.97351e-06
2.33533e-06
1.8509e-06
-2.95442e-06
-7.98402e-08
1.52894e-07
-2.42227e-07
6.31908e-07
-4.63614e-07
1.20266e-06
-7.14031e-07
1.76839e-06
-9.78012e-07
2.28619e-06
-1.24479e-06
2.69105e-06
-1.53244e-06
3.00288e-06
-1.81975e-06
3.21485e-06
-1.97809e-06
3.02989e-06
-2.00445e-06
2.71796e-06
-1.92122e-06
2.25211e-06
1.71735e-06
-1.78767e-06
-9.45015e-08
2.47395e-07
-2.07099e-07
7.44506e-07
-3.28668e-07
1.32423e-06
-4.45903e-07
1.88563e-06
-5.561e-07
2.39639e-06
-6.36616e-07
2.77157e-06
-6.66772e-07
3.03304e-06
-7.34549e-07
3.28263e-06
-8.75297e-07
3.17063e-06
-8.87713e-07
2.73038e-06
-7.79746e-07
2.14414e-06
1.55372e-06
-6.16117e-07
-1.45883e-07
3.93278e-07
-2.05212e-07
8.03835e-07
-1.9574e-07
1.31476e-06
-1.5491e-07
1.8448e-06
-1.14869e-07
2.35635e-06
-6.98487e-08
2.72655e-06
2.40124e-08
2.93917e-06
1.48053e-07
3.15859e-06
2.04126e-07
3.11456e-06
2.44555e-07
2.68995e-06
3.64458e-07
2.02424e-06
1.39698e-06
5.21199e-07
-2.59204e-07
6.52482e-07
-2.66201e-07
8.10831e-07
-8.95991e-08
1.13815e-06
1.35961e-07
1.61924e-06
3.37226e-07
2.15509e-06
4.84753e-07
2.57902e-06
6.27602e-07
2.79633e-06
8.71692e-07
2.9145e-06
1.11417e-06
2.87209e-06
1.21917e-06
2.58494e-06
1.36737e-06
1.87604e-06
1.24216e-06
1.52219e-06
-3.78574e-07
1.03106e-06
-2.99997e-07
7.32255e-07
4.86245e-08
7.89532e-07
4.43304e-07
1.22456e-06
8.0338e-07
1.79501e-06
1.06881e-06
2.31359e-06
1.26389e-06
2.60125e-06
1.50064e-06
2.67775e-06
1.74034e-06
2.63239e-06
1.90922e-06
2.41605e-06
2.07388e-06
1.71138e-06
9.96134e-07
2.31991e-06
1.7034e-07
8.60716e-07
2.64647e-07
6.37948e-07
5.61796e-07
4.92383e-07
9.25474e-07
8.60881e-07
1.32332e-06
1.39716e-06
1.6588e-06
1.97811e-06
1.90321e-06
2.35683e-06
2.09298e-06
2.48798e-06
2.29808e-06
2.42729e-06
2.50558e-06
2.20855e-06
2.69547e-06
1.52149e-06
3.03131e-06
6.60292e-07
-2.35459e-06
4.08951e-07
-2.68137e-06
3.26772e-07
-2.88016e-06
1.98798e-07
-2.93192e-06
5.1756e-08
-2.78649e-06
-1.45426e-07
-2.47534e-06
-3.11155e-07
-2.0424e-06
-4.32934e-07
-1.51868e-06
-5.23725e-07
-9.59073e-07
-5.59607e-07
-4.54695e-07
-5.04378e-07
-1.11182e-07
-3.43513e-07
-1.11182e-07
-4.76176e-06
8.49101e-07
-5.01762e-06
5.82639e-07
-5.07547e-06
2.56638e-07
-4.89059e-06
-1.33115e-07
-4.49189e-06
-5.44133e-07
-3.94766e-06
-8.55386e-07
-3.30232e-06
-1.07827e-06
-2.54844e-06
-1.2776e-06
-1.70442e-06
-1.40363e-06
-8.72102e-07
-1.33669e-06
-2.38645e-07
-9.7697e-07
-3.49827e-07
-4.77261e-06
1.00307e-06
-4.84288e-06
6.52915e-07
-4.82104e-06
2.34792e-07
-4.67306e-06
-2.81095e-07
-4.40771e-06
-8.09483e-07
-4.12937e-06
-1.13372e-06
-3.7696e-06
-1.43805e-06
-3.16372e-06
-1.88347e-06
-2.31777e-06
-2.24958e-06
-1.32303e-06
-2.33144e-06
-4.25353e-07
-1.87464e-06
-7.75179e-07
-5.20536e-06
1.22422e-06
-5.28945e-06
7.37009e-07
-5.21076e-06
1.56101e-07
-4.95746e-06
-5.34394e-07
-4.49258e-06
-1.27437e-06
-3.99653e-06
-1.62977e-06
-3.71702e-06
-1.71756e-06
-3.38136e-06
-2.21913e-06
-2.71072e-06
-2.92022e-06
-1.73917e-06
-3.30299e-06
-6.65046e-07
-2.94876e-06
-1.44023e-06
-4.19437e-06
1.36264e-06
-4.23431e-06
7.76952e-07
-4.16823e-06
9.00181e-08
-4.04627e-06
-6.56352e-07
-3.6082e-06
-1.71243e-06
-3.14783e-06
-2.09014e-06
-2.8095e-06
-2.05589e-06
-2.63788e-06
-2.39075e-06
-2.36944e-06
-3.18867e-06
-1.76418e-06
-3.90825e-06
-8.55669e-07
-3.85728e-06
-2.29589e-06
-2.90673e-06
1.31495e-06
-2.85303e-06
7.23252e-07
-2.78902e-06
2.60033e-08
-2.58395e-06
-8.61414e-07
-2.56553e-06
-1.73085e-06
-2.40621e-06
-2.24946e-06
-1.96416e-06
-2.49794e-06
-1.69535e-06
-2.65956e-06
-1.47054e-06
-3.41348e-06
-1.24002e-06
-4.13877e-06
-8.04647e-07
-4.29265e-06
-3.10054e-06
-1.63561e-06
1.16289e-06
-1.504e-06
5.91635e-07
-1.40076e-06
-7.72311e-08
-1.26551e-06
-9.96663e-07
-1.20086e-06
-1.7955e-06
-1.30245e-06
-2.14787e-06
-1.15982e-06
-2.64058e-06
-8.33953e-07
-2.98542e-06
-6.00149e-07
-3.64728e-06
-5.19485e-07
-4.21943e-06
-3.56375e-07
-4.45576e-06
-3.45692e-06
-4.35504e-07
9.82278e-07
-2.68986e-07
4.25117e-07
-1.26131e-07
-2.20086e-07
5.9503e-08
-1.1823e-06
1.21417e-07
-1.85742e-06
4.46401e-08
-2.0711e-06
2.60713e-08
-2.62201e-06
1.9518e-07
-3.15453e-06
2.77004e-07
-3.72911e-06
2.08623e-07
-4.15105e-06
1.11837e-07
-4.35898e-06
-3.34508e-06
6.84255e-07
8.19223e-07
8.78658e-07
2.30714e-07
1.1316e-06
-4.73026e-07
1.32292e-06
-1.37361e-06
1.4256e-06
-1.9601e-06
1.48576e-06
-2.13125e-06
1.50478e-06
-2.64103e-06
1.55771e-06
-3.20746e-06
1.50331e-06
-3.6747e-06
1.17964e-06
-3.82739e-06
7.04743e-07
-3.88408e-06
-2.64034e-06
1.66108e-06
6.80333e-07
1.89456e-06
-2.77175e-09
2.28726e-06
-8.65725e-07
2.61489e-06
-1.70125e-06
2.86384e-06
-2.20904e-06
3.08526e-06
-2.35268e-06
3.20996e-06
-2.76573e-06
3.2405e-06
-3.238e-06
3.05714e-06
-3.49135e-06
2.39139e-06
-3.16163e-06
1.33427e-06
-2.82696e-06
-1.30607e-06
2.63231e-06
3.67929e-07
3.0047e-06
-3.75157e-07
3.42987e-06
-1.29089e-06
3.81897e-06
-2.09035e-06
4.18457e-06
-2.57464e-06
4.54018e-06
-2.70829e-06
4.78792e-06
-3.01347e-06
4.81573e-06
-3.26582e-06
4.48802e-06
-3.16363e-06
3.67055e-06
-2.34416e-06
2.23203e-06
-1.38844e-06
9.2596e-07
3.49114e-06
-9.18974e-08
4.0024e-06
-8.86414e-07
4.50897e-06
-1.79747e-06
4.98344e-06
-2.56482e-06
5.43934e-06
-3.03053e-06
5.84827e-06
-3.11722e-06
6.14323e-06
-3.30843e-06
6.161e-06
-3.28359e-06
5.76022e-06
-2.76285e-06
4.89515e-06
-1.47909e-06
3.2834e-06
2.23306e-07
4.20936e-06
4.18917e-08
-4.18917e-08
8.96496e-08
-4.7758e-08
1.09421e-07
-1.97717e-08
8.98889e-08
1.95324e-08
2.48585e-08
6.50305e-08
-9.56131e-08
1.20472e-07
-2.78461e-07
1.82848e-07
-5.27297e-07
2.48836e-07
-8.39386e-07
3.12089e-07
-1.20574e-06
3.66353e-07
-1.61885e-06
4.13106e-07
4.37013e-07
-2.05586e-06
8.15088e-09
-5.00425e-08
-9.60579e-09
-3.00013e-08
-8.84352e-08
5.90578e-08
-2.52956e-07
1.84054e-07
-5.19113e-07
3.31186e-07
-8.91679e-07
4.93038e-07
-1.36644e-06
6.57611e-07
-1.92385e-06
8.06241e-07
-2.52513e-06
9.13368e-07
-3.11691e-06
9.58138e-07
-3.63334e-06
9.29539e-07
7.8318e-07
-3.97951e-06
-2.86039e-08
-2.14387e-08
-1.43026e-07
8.44212e-08
-3.53857e-07
2.69888e-07
-6.7015e-07
5.00347e-07
-1.09674e-06
7.57781e-07
-1.62654e-06
1.02283e-06
-2.23632e-06
1.26739e-06
-2.8867e-06
1.45662e-06
-3.53221e-06
1.55888e-06
-4.1278e-06
1.55372e-06
-4.63065e-06
1.43239e-06
1.19992e-06
-5.04739e-06
-6.707e-08
4.56313e-08
-2.55596e-07
2.72947e-07
-5.53964e-07
5.68257e-07
-9.53751e-07
9.00134e-07
-1.44636e-06
1.25039e-06
-2.01286e-06
1.58933e-06
-2.61995e-06
1.87448e-06
-3.22319e-06
2.05987e-06
-3.77508e-06
2.11077e-06
-4.23026e-06
2.0089e-06
-4.53341e-06
1.73554e-06
1.35995e-06
-4.69344e-06
-8.77981e-08
1.33429e-07
-3.099e-07
4.95049e-07
-6.36808e-07
8.95164e-07
-1.04577e-06
1.3091e-06
-1.51977e-06
1.72439e-06
-2.0358e-06
2.10536e-06
-2.56266e-06
2.40134e-06
-3.06504e-06
2.56225e-06
-3.51096e-06
2.55668e-06
-3.87941e-06
2.37736e-06
-4.17905e-06
2.03518e-06
1.57126e-06
-4.39036e-06
-9.10443e-08
2.24474e-07
-3.05126e-07
7.09131e-07
-6.06897e-07
1.19694e-06
-9.65133e-07
1.66733e-06
-1.36091e-06
2.12016e-06
-1.77375e-06
2.51821e-06
-2.18082e-06
2.80841e-06
-2.55875e-06
2.94018e-06
-2.88847e-06
2.8864e-06
-3.15706e-06
2.64594e-06
-3.35897e-06
2.23709e-06
1.69571e-06
-3.48342e-06
-8.6453e-08
3.10927e-07
-2.61181e-07
8.83859e-07
-4.95993e-07
1.43175e-06
-7.59478e-07
1.93082e-06
-1.03813e-06
2.39881e-06
-1.31795e-06
2.79803e-06
-1.58608e-06
3.07655e-06
-1.82921e-06
3.1833e-06
-2.03612e-06
3.09331e-06
-2.19714e-06
2.80696e-06
-2.30386e-06
2.34382e-06
1.73717e-06
-2.34532e-06
-9.11335e-08
4.0206e-07
-2.08498e-07
1.00122e-06
-3.43865e-07
1.56711e-06
-4.79311e-07
2.06627e-06
-6.15283e-07
2.53478e-06
-7.458e-07
2.92855e-06
-8.66243e-07
3.19699e-06
-9.69701e-07
3.28676e-06
-1.04874e-06
3.17235e-06
-1.09411e-06
2.85233e-06
-1.09702e-06
2.34673e-06
1.68722e-06
-1.04708e-06
-1.28715e-07
5.30775e-07
-1.8268e-07
1.05519e-06
-1.88701e-07
1.57313e-06
-1.67912e-07
2.04548e-06
-1.4416e-07
2.51103e-06
-1.18977e-07
2.90336e-06
-9.12367e-08
3.16925e-06
-5.60466e-08
3.25157e-06
-7.00929e-09
3.12331e-06
6.58003e-08
2.77952e-06
1.69719e-07
2.24282e-06
1.54339e-06
3.13547e-07
-2.26662e-07
7.57436e-07
-2.16976e-07
1.0455e-06
-5.95902e-08
1.41575e-06
1.41811e-07
1.84408e-06
3.35344e-07
2.3175e-06
5.13712e-07
2.72499e-06
6.81237e-07
3.00173e-06
8.45616e-07
3.08719e-06
1.01434e-06
2.95459e-06
1.1983e-06
2.59556e-06
1.40161e-06
2.0395e-06
1.31363e-06
1.63138e-06
-3.60966e-07
1.1184e-06
-2.51751e-07
9.36288e-07
8.25899e-08
1.08141e-06
4.52595e-07
1.47407e-06
8.0125e-07
1.96884e-06
1.11565e-06
2.4106e-06
1.40436e-06
2.71301e-06
1.67933e-06
2.81222e-06
1.95016e-06
2.68376e-06
2.22902e-06
2.3167e-06
2.51549e-06
1.75303e-06
1.01249e-06
2.81663e-06
-1.05474e-07
1.22388e-06
1.2423e-07
7.06583e-07
4.9204e-07
7.13599e-07
8.79994e-07
1.08612e-06
1.28439e-06
1.56445e-06
1.67548e-06
2.0195e-06
2.04696e-06
2.34153e-06
2.40334e-06
2.45584e-06
2.75154e-06
2.33557e-06
3.10377e-06
1.96446e-06
3.45435e-06
1.40245e-06
3.81618e-06
6.50663e-07
-2.4344e-06
3.78544e-07
-2.70176e-06
2.67359e-07
-2.82572e-06
1.23962e-07
-2.79111e-06
-3.46101e-08
-2.56999e-06
-2.21122e-07
-2.211e-06
-3.5899e-07
-1.77357e-06
-4.3743e-07
-1.28199e-06
-4.91582e-07
-7.89794e-07
-4.92195e-07
-3.67823e-07
-4.21971e-07
-8.89679e-08
-2.78855e-07
-8.89679e-08
-4.20386e-06
6.02896e-07
-4.30263e-06
3.6612e-07
-4.27341e-06
9.47445e-08
-4.11346e-06
-1.94561e-07
-3.84342e-06
-4.91163e-07
-3.42322e-06
-7.79189e-07
-2.81843e-06
-1.04222e-06
-2.10549e-06
-1.20452e-06
-1.3578e-06
-1.23988e-06
-6.74161e-07
-1.10561e-06
-1.8022e-07
-7.72795e-07
-2.69188e-07
-5.29388e-06
8.49383e-07
-5.35453e-06
4.26776e-07
-5.22334e-06
-3.64532e-08
-4.91506e-06
-5.02838e-07
-4.46731e-06
-9.38912e-07
-3.91815e-06
-1.32835e-06
-3.27045e-06
-1.68992e-06
-2.53302e-06
-1.94195e-06
-1.72895e-06
-2.04396e-06
-9.30987e-07
-1.90358e-06
-2.82261e-07
-1.42152e-06
-5.51449e-07
-4.76605e-06
9.21993e-07
-4.76559e-06
4.26318e-07
-4.69777e-06
-1.04272e-07
-4.55045e-06
-6.50165e-07
-4.27857e-06
-1.21079e-06
-3.8472e-06
-1.75972e-06
-3.31118e-06
-2.22594e-06
-2.67206e-06
-2.58107e-06
-1.93605e-06
-2.77996e-06
-1.13484e-06
-2.70479e-06
-3.87796e-07
-2.16856e-06
-9.39246e-07
-4.48597e-06
1.01761e-06
-4.46206e-06
4.02412e-07
-4.3208e-06
-2.45533e-07
-4.06933e-06
-9.01642e-07
-3.73436e-06
-1.54576e-06
-3.35042e-06
-2.14365e-06
-2.913e-06
-2.66336e-06
-2.42066e-06
-3.07341e-06
-1.85219e-06
-3.34843e-06
-1.18719e-06
-3.36978e-06
-4.63836e-07
-2.89192e-06
-1.40308e-06
-3.51932e-06
1.05351e-06
-3.46106e-06
3.4415e-07
-3.31198e-06
-3.94612e-07
-3.08113e-06
-1.1325e-06
-2.78833e-06
-1.83856e-06
-2.46101e-06
-2.47097e-06
-2.11695e-06
-3.00743e-06
-1.77607e-06
-3.41429e-06
-1.42023e-06
-3.70427e-06
-1.00205e-06
-3.78797e-06
-4.55832e-07
-3.43813e-06
-1.85891e-06
-2.31532e-06
1.02351e-06
-2.21249e-06
2.41319e-07
-2.04381e-06
-5.63286e-07
-1.81973e-06
-1.35659e-06
-1.55695e-06
-2.10133e-06
-1.28307e-06
-2.74485e-06
-1.02452e-06
-3.26597e-06
-8.22444e-07
-3.61637e-06
-6.78279e-07
-3.84843e-06
-5.58317e-07
-3.90793e-06
-3.2072e-07
-3.67573e-06
-2.17963e-06
-9.4304e-07
9.19468e-07
-7.877e-07
8.59791e-08
-5.91154e-07
-7.59832e-07
-3.63806e-07
-1.58393e-06
-1.21794e-07
-2.34334e-06
1.05062e-07
-2.97171e-06
2.83782e-07
-3.44469e-06
3.56514e-07
-3.6891e-06
3.04287e-07
-3.79621e-06
1.18236e-07
-3.72188e-06
-3.65406e-08
-3.52096e-06
-2.21617e-06
4.9272e-07
7.40295e-07
7.03359e-07
-1.2466e-07
9.34492e-07
-9.90965e-07
1.17951e-06
-1.82895e-06
1.42034e-06
-2.58417e-06
1.62213e-06
-3.1735e-06
1.73856e-06
-3.56113e-06
1.69684e-06
-3.64738e-06
1.46812e-06
-3.56748e-06
9.91919e-07
-3.24568e-06
4.04667e-07
-2.9337e-06
-1.81151e-06
1.87778e-06
4.93893e-07
2.14194e-06
-3.88823e-07
2.41621e-06
-1.26524e-06
2.70104e-06
-2.11378e-06
2.97001e-06
-2.85314e-06
3.1808e-06
-3.38429e-06
3.26403e-06
-3.64435e-06
3.13777e-06
-3.52112e-06
2.76377e-06
-3.19348e-06
2.03734e-06
-2.51925e-06
1.01541e-06
-1.91178e-06
-7.96092e-07
3.12177e-06
1.88755e-07
3.44221e-06
-7.09265e-07
3.78008e-06
-1.6031e-06
4.13574e-06
-2.46945e-06
4.46301e-06
-3.1804e-06
4.71075e-06
-3.63203e-06
4.78295e-06
-3.71655e-06
4.61271e-06
-3.35089e-06
4.13936e-06
-2.72013e-06
3.24382e-06
-1.62371e-06
1.84228e-06
-5.1024e-07
1.04619e-06
4.18809e-06
-1.83152e-07
4.58947e-06
-1.11064e-06
5.02925e-06
-2.04289e-06
5.48375e-06
-2.92395e-06
5.87914e-06
-3.5758e-06
6.15659e-06
-3.90948e-06
6.20904e-06
-3.76899e-06
6.02896e-06
-3.17081e-06
5.50776e-06
-2.19893e-06
4.62739e-06
-7.43339e-07
3.04702e-06
1.07014e-06
4.09321e-06
4.20036e-08
-4.20036e-08
8.95965e-08
-4.75929e-08
1.08692e-07
-1.90956e-08
8.74931e-08
2.1199e-08
2.0099e-08
6.73941e-08
-1.04038e-07
1.24137e-07
-2.92325e-07
1.88288e-07
-5.48914e-07
2.56589e-07
-8.71441e-07
3.22526e-07
-1.24832e-06
3.76883e-07
-1.65838e-06
4.1006e-07
4.05298e-07
-2.06368e-06
7.82685e-09
-4.98304e-08
-1.11718e-08
-2.85942e-08
-9.24441e-08
6.21767e-08
-2.60274e-07
1.89029e-07
-5.31238e-07
3.38358e-07
-9.09952e-07
5.02851e-07
-1.3924e-06
6.7074e-07
-1.95997e-06
8.24158e-07
-2.57889e-06
9.41442e-07
-3.21734e-06
1.01533e-06
-3.84056e-06
1.03328e-06
9.0682e-07
-4.34208e-06
-2.94136e-08
-2.04169e-08
-1.46333e-07
8.83248e-08
-3.61066e-07
2.7691e-07
-6.82549e-07
5.10513e-07
-1.11525e-06
7.71057e-07
-1.65103e-06
1.03864e-06
-2.26439e-06
1.2841e-06
-2.91114e-06
1.47091e-06
-3.53251e-06
1.56281e-06
-4.04147e-06
1.52429e-06
-4.35727e-06
1.34908e-06
1.11183e-06
-4.56228e-06
-6.80807e-08
4.76639e-08
-2.59964e-07
2.80208e-07
-5.63433e-07
5.80379e-07
-9.69739e-07
9.16818e-07
-1.4698e-06
1.27111e-06
-2.04386e-06
1.6127e-06
-2.65779e-06
1.89802e-06
-3.26732e-06
2.08044e-06
-3.83036e-06
2.12585e-06
-4.32612e-06
2.02006e-06
-4.73244e-06
1.75539e-06
1.38802e-06
-5.00862e-06
-8.85087e-08
1.36173e-07
-3.14181e-07
5.05881e-07
-6.46758e-07
9.12956e-07
-1.06294e-06
1.333e-06
-1.54499e-06
1.75317e-06
-2.06906e-06
2.13676e-06
-2.6032e-06
2.43217e-06
-3.11196e-06
2.5892e-06
-3.56388e-06
2.57777e-06
-3.93674e-06
2.39292e-06
-4.228e-06
2.04665e-06
1.57826e-06
-4.41824e-06
-9.05677e-08
2.2674e-07
-3.07726e-07
7.23039e-07
-6.15315e-07
1.22054e-06
-9.81163e-07
1.69885e-06
-1.38517e-06
2.15718e-06
-1.80581e-06
2.5574e-06
-2.21939e-06
2.84575e-06
-2.60208e-06
2.97189e-06
-2.93439e-06
2.91009e-06
-3.2024e-06
2.66093e-06
-3.39953e-06
2.24378e-06
1.69411e-06
-3.51538e-06
-8.34327e-08
3.10173e-07
-2.60103e-07
8.99709e-07
-5.00933e-07
1.46137e-06
-7.7271e-07
1.97063e-06
-1.05994e-06
2.4444e-06
-1.34735e-06
2.84481e-06
-1.62131e-06
3.1197e-06
-1.86815e-06
3.21873e-06
-2.07655e-06
3.11849e-06
-2.23657e-06
2.82094e-06
-2.33966e-06
2.34687e-06
1.73004e-06
-2.37559e-06
-8.34286e-08
3.93602e-07
-2.01038e-07
1.01732e-06
-3.43399e-07
1.60373e-06
-4.88775e-07
2.116e-06
-6.34247e-07
2.58987e-06
-7.7234e-07
2.98291e-06
-8.97972e-07
3.24534e-06
-1.00421e-06
3.32497e-06
-1.0838e-06
3.19809e-06
-1.12765e-06
2.86478e-06
-1.1273e-06
2.34653e-06
1.67542e-06
-1.07268e-06
-1.12949e-07
5.0655e-07
-1.65081e-07
1.06945e-06
-1.80947e-07
1.6196e-06
-1.73407e-07
2.10846e-06
-1.60894e-07
2.57736e-06
-1.4338e-07
2.96539e-06
-1.19989e-07
3.22195e-06
-8.63522e-08
3.29133e-06
-3.66764e-08
3.14841e-06
3.86207e-08
2.78949e-06
1.46145e-07
2.239e-06
1.52691e-06
2.94652e-07
-1.98799e-07
7.05349e-07
-1.85692e-07
1.05634e-06
-4.40946e-08
1.478e-06
1.39034e-07
1.92533e-06
3.19094e-07
2.3973e-06
4.89908e-07
2.79458e-06
6.54347e-07
3.05751e-06
8.18861e-07
3.12682e-06
9.89809e-07
2.97746e-06
1.1776e-06
2.60169e-06
1.38528e-06
2.03133e-06
1.29203e-06
1.62016e-06
-3.2625e-07
1.0316e-06
-2.18434e-07
9.48528e-07
9.41841e-08
1.16539e-06
4.44494e-07
1.57502e-06
7.80721e-07
2.06108e-06
1.08967e-06
2.48563e-06
1.37761e-06
2.76957e-06
1.65499e-06
2.84943e-06
1.93e-06
2.70246e-06
2.21427e-06
2.31742e-06
2.50608e-06
1.73952e-06
9.85158e-07
2.81296e-06
-1.34246e-07
1.16585e-06
8.28112e-08
7.3147e-07
4.43912e-07
8.04285e-07
8.34663e-07
1.18427e-06
1.24374e-06
1.652e-06
1.63987e-06
2.08949e-06
2.0166e-06
2.39284e-06
2.37917e-06
2.48687e-06
2.73403e-06
2.3476e-06
3.09337e-06
1.95808e-06
3.45033e-06
1.38256e-06
3.81872e-06
6.16761e-07
-2.4112e-06
3.47521e-07
-2.65911e-06
2.47909e-07
-2.78051e-06
1.21402e-07
-2.76969e-06
-1.08217e-08
-2.57779e-06
-1.91899e-07
-2.24144e-06
-3.36349e-07
-1.80348e-06
-4.37967e-07
-1.30411e-06
-4.99371e-07
-8.03983e-07
-5.00122e-07
-3.75646e-07
-4.28338e-07
-9.20951e-08
-2.83551e-07
-9.20951e-08
-4.68474e-06
6.90183e-07
-4.83695e-06
4.00115e-07
-4.78725e-06
7.17061e-08
-4.51941e-06
-2.78663e-07
-4.09101e-06
-6.20297e-07
-3.52602e-06
-9.01344e-07
-2.86137e-06
-1.10261e-06
-2.12574e-06
-1.23501e-06
-1.36818e-06
-1.25768e-06
-6.7925e-07
-1.11726e-06
-1.82093e-07
-7.80708e-07
-2.74188e-07
-4.66927e-06
7.97171e-07
-4.68682e-06
4.17671e-07
-4.62051e-06
5.38805e-09
-4.46304e-06
-4.36132e-07
-4.21735e-06
-8.65987e-07
-3.83386e-06
-1.28483e-06
-3.24769e-06
-1.68878e-06
-2.52882e-06
-1.95388e-06
-1.7292e-06
-2.05731e-06
-9.31611e-07
-1.91485e-06
-2.82496e-07
-1.42982e-06
-5.56684e-07
-5.14487e-06
9.33419e-07
-5.14261e-06
4.15416e-07
-5.00035e-06
-1.36879e-07
-4.73982e-06
-6.96661e-07
-4.3569e-06
-1.24891e-06
-3.86419e-06
-1.77754e-06
-3.31287e-06
-2.24011e-06
-2.67113e-06
-2.59561e-06
-1.93511e-06
-2.79333e-06
-1.13402e-06
-2.71594e-06
-3.87358e-07
-2.17648e-06
-9.44042e-07
-4.49874e-06
1.01391e-06
-4.46918e-06
3.85862e-07
-4.33219e-06
-2.73872e-07
-4.09206e-06
-9.36795e-07
-3.76178e-06
-1.57919e-06
-3.36718e-06
-2.17214e-06
-2.92051e-06
-2.68677e-06
-2.42261e-06
-3.09351e-06
-1.85176e-06
-3.36418e-06
-1.18595e-06
-3.38175e-06
-4.63097e-07
-2.89934e-06
-1.40714e-06
-3.54342e-06
1.04195e-06
-3.48015e-06
3.22592e-07
-3.33009e-06
-4.23937e-07
-3.09979e-06
-1.1671e-06
-2.80565e-06
-1.87332e-06
-2.47329e-06
-2.5045e-06
-2.12393e-06
-3.03614e-06
-1.77838e-06
-3.43907e-06
-1.42003e-06
-3.72252e-06
-1.0006e-06
-3.80118e-06
-4.54877e-07
-3.44506e-06
-1.86202e-06
-2.34035e-06
1.00671e-06
-2.23315e-06
2.15395e-07
-2.06219e-06
-5.94899e-07
-1.83594e-06
-1.39334e-06
-1.57093e-06
-2.13833e-06
-1.293e-06
-2.78243e-06
-1.03092e-06
-3.29821e-06
-8.25018e-07
-3.64497e-06
-6.78959e-07
-3.86858e-06
-5.57492e-07
-3.92265e-06
-3.20033e-07
-3.68252e-06
-2.18205e-06
-9.64399e-07
8.98428e-07
-8.05094e-07
5.60898e-08
-6.06196e-07
-7.93797e-07
-3.75967e-07
-1.62357e-06
-1.32021e-07
-2.38227e-06
9.82451e-08
-3.0127e-06
2.78799e-07
-3.47876e-06
3.54172e-07
-3.72034e-06
3.02194e-07
-3.81661e-06
1.17329e-07
-3.73778e-06
-3.71701e-08
-3.52802e-06
-2.21922e-06
4.77639e-07
7.15441e-07
6.92058e-07
-1.58328e-07
9.2529e-07
-1.02703e-06
1.17332e-06
-1.87161e-06
1.41558e-06
-2.62453e-06
1.62012e-06
-3.21724e-06
1.73645e-06
-3.59509e-06
1.6958e-06
-3.6797e-06
1.4644e-06
-3.58521e-06
9.882e-07
-3.26158e-06
4.01079e-07
-2.9409e-06
-1.81814e-06
1.86994e-06
4.65659e-07
2.13798e-06
-4.2637e-07
2.41423e-06
-1.30328e-06
2.70232e-06
-2.15969e-06
2.97266e-06
-2.89487e-06
3.1854e-06
-3.42998e-06
3.26627e-06
-3.67596e-06
3.13902e-06
-3.55245e-06
2.75803e-06
-3.20421e-06
2.02968e-06
-2.53323e-06
1.00661e-06
-1.91783e-06
-8.11531e-07
3.12118e-06
1.57432e-07
3.44585e-06
-7.51034e-07
3.78648e-06
-1.64392e-06
4.14569e-06
-2.5189e-06
4.47477e-06
-3.22395e-06
4.72323e-06
-3.67844e-06
4.7908e-06
-3.74353e-06
4.61647e-06
-3.37813e-06
4.1303e-06
-2.71804e-06
3.23029e-06
-1.63322e-06
1.82415e-06
-5.11694e-07
1.01262e-06
4.1945e-06
-2.18343e-07
4.60114e-06
-1.15768e-06
5.04577e-06
-2.08854e-06
5.5037e-06
-2.97684e-06
5.90084e-06
-3.62109e-06
6.17644e-06
-3.95404e-06
6.22303e-06
-3.79012e-06
6.03416e-06
-3.18926e-06
5.49392e-06
-2.17779e-06
4.6027e-06
-7.41998e-07
2.99754e-06
1.09347e-06
4.01016e-06
6.63934e-09
-6.63934e-09
-1.21976e-08
1.88369e-08
-6.07364e-08
4.85388e-08
-1.41982e-07
8.12458e-08
-2.56066e-07
1.14084e-07
-4.01024e-07
1.44958e-07
-5.7159e-07
1.70566e-07
-7.58387e-07
1.86797e-07
-9.48692e-07
1.90306e-07
-1.12861e-06
1.79922e-07
-1.28493e-06
1.56316e-07
1.21607e-07
-1.40654e-06
-4.15764e-08
3.49371e-08
-1.52275e-07
1.29536e-07
-3.31217e-07
2.2748e-07
-5.71965e-07
3.21995e-07
-8.67115e-07
4.09233e-07
-1.20404e-06
4.81883e-07
-1.56219e-06
5.28721e-07
-1.91419e-06
5.38796e-07
-2.23146e-06
5.07575e-07
-2.49117e-06
4.39627e-07
-2.67885e-06
3.44001e-07
2.30829e-07
-2.78807e-06
-8.17765e-08
1.16714e-07
-2.8361e-07
3.3137e-07
-5.74532e-07
5.18401e-07
-9.34282e-07
6.81745e-07
-1.34488e-06
8.19833e-07
-1.78212e-06
9.19122e-07
-2.21285e-06
9.59449e-07
-2.59893e-06
9.24879e-07
-2.90793e-06
8.16569e-07
-3.12358e-06
6.55284e-07
-3.24452e-06
4.64934e-07
2.69852e-07
-3.28354e-06
-1.10872e-07
2.27585e-07
-3.67438e-07
5.87936e-07
-7.22246e-07
8.7321e-07
-1.14396e-06
1.10346e-06
-1.60727e-06
1.28315e-06
-2.08234e-06
1.39419e-06
-2.53159e-06
1.4087e-06
-2.91177e-06
1.30506e-06
-3.18496e-06
1.08976e-06
-3.34211e-06
8.12434e-07
-3.38473e-06
5.0756e-07
2.50322e-07
-3.3652e-06
-1.16589e-07
3.44174e-07
-3.85851e-07
8.57198e-07
-7.55504e-07
1.24286e-06
-1.19049e-06
1.53845e-06
-1.66662e-06
1.75927e-06
-2.15751e-06
1.88507e-06
-2.62603e-06
1.87723e-06
-3.01431e-06
1.69334e-06
-3.25121e-06
1.32665e-06
-3.36279e-06
9.24019e-07
-3.37476e-06
5.19528e-07
1.96925e-07
-3.32136e-06
-1.01293e-07
4.45467e-07
-3.42703e-07
1.09861e-06
-6.8283e-07
1.58299e-06
-1.09121e-06
1.94683e-06
-1.55214e-06
2.2202e-06
-2.04586e-06
2.3788e-06
-2.52528e-06
2.35665e-06
-2.88011e-06
2.04817e-06
-2.92728e-06
1.37382e-06
-2.8955e-06
8.92243e-07
-3.00564e-06
6.29661e-07
3.1429e-07
-3.123e-06
-7.09359e-08
5.16403e-07
-2.47213e-07
1.27489e-06
-5.10325e-07
1.8461e-06
-8.38103e-07
2.27461e-06
-1.22398e-06
2.60607e-06
-1.65402e-06
2.80884e-06
-2.08393e-06
2.78656e-06
-2.38068e-06
2.34492e-06
-2.3701e-06
1.36323e-06
-2.29562e-06
8.17761e-07
-2.31328e-06
6.47329e-07
4.18765e-07
-2.41776e-06
-3.92279e-08
5.55631e-07
-1.24339e-07
1.36e-06
-2.70395e-07
1.99216e-06
-4.70941e-07
2.47515e-06
-7.32478e-07
2.86761e-06
-1.05018e-06
3.12654e-06
-1.3933e-06
3.12969e-06
-1.51992e-06
2.47154e-06
-1.34783e-06
1.19114e-06
-1.24118e-06
7.11105e-07
-1.22296e-06
6.2911e-07
4.60932e-07
-1.26512e-06
-2.44136e-08
5.80044e-07
-4.7377e-09
1.34032e-06
2.58253e-09
1.98484e-06
-2.03819e-08
2.49812e-06
-8.12166e-08
2.92845e-06
-1.66244e-07
3.21157e-06
-1.8328e-07
3.14672e-06
9.50224e-08
2.19323e-06
1.28905e-07
1.15726e-06
1.32279e-07
7.07731e-07
1.59684e-07
6.01706e-07
4.60918e-07
1.59698e-07
-4.81941e-08
6.28238e-07
7.51459e-08
1.21698e-06
2.57814e-07
1.80217e-06
4.32419e-07
2.32351e-06
5.83105e-07
2.77776e-06
7.26027e-07
3.06865e-06
9.17669e-07
2.95508e-06
1.17113e-06
1.93978e-06
1.32303e-06
1.00535e-06
1.45461e-06
5.76151e-07
1.54614e-06
5.10183e-07
4.21651e-07
1.5854e-06
-9.99438e-08
7.28182e-07
1.31373e-07
9.85664e-07
4.85549e-07
1.44799e-06
8.35902e-07
1.97316e-06
1.1551e-06
2.45856e-06
1.45984e-06
2.76391e-06
1.70773e-06
2.70719e-06
1.7918e-06
1.85571e-06
2.02198e-06
7.75166e-07
2.4497e-06
1.48431e-07
2.69084e-06
2.69047e-07
3.73686e-07
2.7388e-06
7.98608e-08
6.48321e-07
3.7983e-07
6.85694e-07
8.12339e-07
1.01548e-06
1.23076e-06
1.55474e-06
1.6316e-06
2.05771e-06
2.02474e-06
2.37078e-06
2.31395e-06
2.41798e-06
2.41119e-06
1.75847e-06
2.69018e-06
4.96182e-07
3.1718e-06
-3.3319e-07
3.41018e-06
3.06584e-08
3.41926e-06
3.64613e-07
-1.48443e-06
7.78941e-08
-1.51359e-06
2.91595e-08
-1.48154e-06
-3.20555e-08
-1.38128e-06
-1.00256e-07
-1.22462e-06
-1.56657e-07
-1.02383e-06
-2.00794e-07
-7.95064e-07
-2.28766e-07
-5.58513e-07
-2.3655e-07
-3.36807e-07
-2.21707e-07
-1.55274e-07
-1.81532e-07
-3.77612e-08
-1.17513e-07
-3.77612e-08
-2.81472e-06
1.04541e-07
-2.74933e-06
-3.62296e-08
-2.59779e-06
-1.83598e-07
-2.37172e-06
-3.26327e-07
-2.07833e-06
-4.50041e-07
-1.73309e-06
-5.46035e-07
-1.35631e-06
-6.05548e-07
-9.72867e-07
-6.19995e-07
-6.08853e-07
-5.85721e-07
-2.97655e-07
-4.9273e-07
-8.03933e-08
-3.34774e-07
-1.18154e-07
-3.25222e-06
7.3226e-08
-3.13505e-06
-1.53405e-07
-2.931e-06
-3.87646e-07
-2.65317e-06
-6.0416e-07
-2.31444e-06
-7.88775e-07
-1.93068e-06
-9.29794e-07
-1.52189e-06
-1.01434e-06
-1.11342e-06
-1.02847e-06
-7.22302e-07
-9.76835e-07
-3.73533e-07
-8.41499e-07
-1.10974e-07
-5.97334e-07
-2.29129e-07
-3.31277e-06
2.07869e-08
-3.18606e-06
-2.80107e-07
-2.97674e-06
-5.96967e-07
-2.6924e-06
-8.88507e-07
-2.34444e-06
-1.13673e-06
-1.94963e-06
-1.3246e-06
-1.53177e-06
-1.43221e-06
-1.13167e-06
-1.42856e-06
-7.58217e-07
-1.35029e-06
-4.14802e-07
-1.18491e-06
-1.33163e-07
-8.78972e-07
-3.62292e-07
-3.2721e-06
-2.84718e-08
-3.20528e-06
-3.46934e-07
-3.04456e-06
-7.57679e-07
-2.76543e-06
-1.16764e-06
-2.4104e-06
-1.49176e-06
-1.99441e-06
-1.74059e-06
-1.53022e-06
-1.8964e-06
-1.11065e-06
-1.84813e-06
-7.55257e-07
-1.70568e-06
-4.38384e-07
-1.50179e-06
-1.55851e-07
-1.16151e-06
-5.18143e-07
-3.17352e-06
2.20485e-08
-3.19556e-06
-3.24898e-07
-3.15193e-06
-8.01307e-07
-3.00348e-06
-1.31609e-06
-2.6994e-06
-1.79585e-06
-2.23526e-06
-2.20473e-06
-1.68719e-06
-2.44446e-06
-1.15593e-06
-2.37939e-06
-7.67334e-07
-2.09428e-06
-4.64693e-07
-1.80443e-06
-1.83436e-07
-1.44276e-06
-7.0158e-07
-2.52192e-06
1.26206e-07
-2.60558e-06
-2.41229e-07
-2.64736e-06
-7.59535e-07
-2.61278e-06
-1.35066e-06
-2.48425e-06
-1.92439e-06
-2.24656e-06
-2.44242e-06
-1.85708e-06
-2.83394e-06
-1.32437e-06
-2.9121e-06
-8.71477e-07
-2.54717e-06
-5.2839e-07
-2.14751e-06
-2.23782e-07
-1.74737e-06
-9.25361e-07
-1.32271e-06
1.83794e-07
-1.41409e-06
-1.49857e-07
-1.48815e-06
-6.8547e-07
-1.50663e-06
-1.33218e-06
-1.51654e-06
-1.91448e-06
-1.56653e-06
-2.39244e-06
-1.67198e-06
-2.72848e-06
-1.67995e-06
-2.90413e-06
-1.14351e-06
-3.08361e-06
-6.28249e-07
-2.66277e-06
-2.62802e-07
-2.11282e-06
-1.18816e-06
1.78635e-07
1.64858e-07
1.06853e-07
-7.80746e-08
3.60604e-08
-6.14677e-07
5.77134e-08
-1.35383e-06
7.96573e-08
-1.93642e-06
4.25796e-08
-2.35536e-06
-1.79487e-07
-2.50641e-06
-7.18481e-07
-2.36514e-06
-8.79126e-07
-2.92297e-06
-4.89118e-07
-3.05278e-06
-1.84807e-07
-2.41713e-06
-1.37297e-06
1.71099e-06
3.92664e-08
1.68736e-06
-5.44361e-08
1.6496e-06
-5.76921e-07
1.7799e-06
-1.48412e-06
1.90732e-06
-2.06384e-06
2.06157e-06
-2.50962e-06
2.27625e-06
-2.72109e-06
2.12799e-06
-2.21687e-06
1.20002e-06
-1.995e-06
4.79852e-07
-2.33261e-06
2.59088e-07
-2.19636e-06
-1.11388e-06
2.9829e-06
-2.04836e-07
3.08189e-06
-1.53426e-07
3.16691e-06
-6.61934e-07
3.51305e-06
-1.83026e-06
3.79296e-06
-2.34376e-06
3.90233e-06
-2.61899e-06
3.9418e-06
-2.76055e-06
3.99796e-06
-2.27303e-06
3.56391e-06
-1.56096e-06
2.44802e-06
-1.21673e-06
1.16794e-06
-9.16278e-07
5.40551e-08
3.71899e-06
-5.04571e-07
4.06849e-06
-5.02921e-07
4.47266e-06
-1.06611e-06
5.03579e-06
-2.3934e-06
5.50591e-06
-2.81388e-06
5.69374e-06
-2.80681e-06
5.59981e-06
-2.66662e-06
5.38471e-06
-2.05794e-06
5.03493e-06
-1.21117e-06
4.13409e-06
-3.15892e-07
2.47407e-06
7.43745e-07
2.52812e-06
3.74521e-06
1.97815e-06
-4.86265e-06
2.88273e-06
1.50043e-06
2.31458e-06
1.06053e-06
2.06097e-06
1.1145e-06
2.13325e-06
1.32488e-06
2.34018e-06
1.77118e-06
2.56225e-06
2.13476e-06
2.75179e-06
2.29844e-06
2.92384e-06
2.25524e-06
3.09958e-06
2.03281e-06
3.36572e-06
1.25535e-06
1.48044e-07
3.87797e-06
5.68222e-06
2.58323e-06
-6.2873e-06
4.98567e-06
2.19698e-06
4.28054e-06
1.76566e-06
3.76324e-06
1.6318e-06
3.47632e-06
1.6118e-06
3.33485e-06
1.91265e-06
3.33639e-06
2.13322e-06
3.4357e-06
2.19914e-06
3.54979e-06
2.14115e-06
3.73571e-06
1.84689e-06
4.1829e-06
8.0816e-07
-6.06056e-07
4.937e-06
6.65632e-06
2.85104e-06
-6.92413e-06
6.23114e-06
2.62217e-06
5.70947e-06
2.28733e-06
5.24817e-06
2.09309e-06
4.86165e-06
1.99832e-06
4.53588e-06
2.23842e-06
4.21222e-06
2.45687e-06
4.05421e-06
2.35715e-06
4.08417e-06
2.11118e-06
4.48885e-06
1.44221e-06
5.32956e-06
-3.25505e-08
-1.69027e-06
6.41377e-06
7.01356e-06
-7.0523e-06
2.88979e-06
6.87017e-06
2.76555e-06
6.59222e-06
2.56529e-06
6.12586e-06
2.55945e-06
5.36494e-06
2.75924e-06
4.39313e-06