/*--------------------------------*- C++ -*----------------------------------*\
| =========                 |                                                 |
| \\      /  F ield         | OpenFOAM: The Open Source CFD Toolbox           |
|  \\    /   O peration     | Version:  v1606+                                |
|   \\  /    A nd           | Web:      www.OpenFOAM.com                      |
|    \\/     M anipulation  |                                                 |
\*---------------------------------------------------------------------------*/
FoamFile
{
    version     2.0;
    format      ascii;
    class       volScalarField;
    location    "4.4";
    object      epsilon_0;
}
// * * * * * * * * * * * * * * * * * * * * * * * * * * * * * * * * * * * * * //

dimensions      [0 2 -3 0 0 0 0];

internalField   nonuniform List<scalar> 
11640
(
0.000238327254001
0.000310889638653
0.000361392415003
0.000391290196973
0.000406187198613
0.000410390914103
0.000407811038387
0.000401881030686
0.000394214562478
0.000385945922571
0.000377305583471
0.000369941314785
0.000366367847456
0.000366622325477
0.000366426407337
0.000361530846088
0.000348551203112
0.000322929199626
0.000279405420681
0.000218505340504
0.000312724077773
0.000650310193346
0.000867912640798
0.000997960106367
0.0010691415219
0.0010993204818
0.00110049537318
0.00108333595275
0.00106004943501
0.00103697632369
0.00101628850645
0.0010142701764
0.00103277408659
0.00105070026256
0.00105105582894
0.00101788159613
0.000944034310988
0.000817454946475
0.00060738270454
0.000284351882848
0.000363892344611
0.000868409126517
0.00120863221462
0.00142821378868
0.00155368322452
0.00160080277423
0.0015880524165
0.00154254641477
0.00148833191139
0.00143421616441
0.00138979430932
0.00142173439539
0.0014751553853
0.00152928745587
0.00155383039331
0.00151153105568
0.0013800310539
0.00115548422042
0.000819511767213
0.000329262687817
0.000393626151672
0.00100347189111
0.00143852035904
0.00172252292313
0.00186903331588
0.00190025143343
0.00185054293459
0.00176210982966
0.00166951125938
0.00157934047699
0.00152525592894
0.00159523538304
0.0016958181817
0.00180917400098
0.00188760363871
0.00186623376491
0.00170503456967
0.00139854659388
0.000955116671378
0.000355731480519
0.000410515833804
0.00108857652629
0.00158286370069
0.00188905511415
0.00201872663561
0.00200414812966
0.00189395223179
0.001750327744
0.00161706089871
0.00149574324229
0.00144928296499
0.00154692483446
0.00169583879221
0.00188869487268
0.00205543706477
0.00209180755714
0.00193434740515
0.00157771229127
0.00105018172608
0.000372900125229
0.000420156872808
0.00113412735885
0.00164897181449
0.00193992721419
0.00202065801253
0.00192730215395
0.00171813254363
0.00149886504426
0.00133153491848
0.00119467322133
0.00115998886008
0.00126265434535
0.00144627776653
0.00174169438346
0.00204193148345
0.00217960588411
0.00206327035492
0.00169081591639
0.0011134250434
0.000386193769772
0.000422241033016
0.00114402559965
0.00165181784439
0.00190901133695
0.00192223128977
0.00171666858103
0.0013574883942
0.00103113309409
0.000852490568255
0.000740212826473
0.000750922394163
0.000830473277108
0.00101351713355
0.00140409600848
0.00187252705816
0.00214180283535
0.00209472442899
0.00173649667161
0.00114251676868
0.000393928858646
0.000417788150914
0.00113161334438
0.00162195036796
0.00184375017715
0.00179636434926
0.00149517633232
0.0010072733085
0.000654586884367
0.000510934547467
0.000452109177717
0.000447875194665
0.000506053013091
0.000667337042422
0.00106989123504
0.00166418233183
0.00204383332861
0.00206324334704
0.0017324159008
0.00114423478353
0.000395283851413
0.000411060634993
0.00111619664207
0.00159327051218
0.00179386463978
0.00171386150744
0.00136625846952
0.000841548877591
0.000500734203736
0.000368115196856
0.000326805175754
0.00032919985828
0.00037884046061
0.000529240594654
0.00091952250691
0.00155543296521
0.0019859673719
0.00204061235396
0.00172539216897
0.00114206114534
0.000394951971513
0.00040534674309
0.00111031469572
0.00158752695403
0.00178528338076
0.00169962157347
0.00134392513324
0.000807482497477
0.000461467117362
0.000334087780266
0.000301244585492
0.000307101154262
0.000356852263381
0.000511292844304
0.000914184833242
0.00157111898444
0.00201114358506
0.00206519050976
0.00174239976605
0.00114992330628
0.000395623733379
0.000401482002692
0.00111832514427
0.00160866788896
0.00182486083677
0.0017641076868
0.00143775667549
0.000914302195313
0.000543926531527
0.000414671113353
0.000374898589065
0.000379681269711
0.000440199839707
0.000613964453869
0.00106054585264
0.0017194725062
0.00212844896146
0.00214408861186
0.0017881286675
0.00117041615125
0.000397824542047
0.000397737109863
0.00113311478786
0.00165036328207
0.00190496075756
0.00190694766367
0.0016817864214
0.00128537161017
0.000936183234981
0.000788903884606
0.000723586840641
0.000677457031542
0.000784723978948
0.00101913501515
0.00149220175455
0.00203428232634
0.00232819572276
0.00225884568183
0.0018478607309
0.00119538867261
0.000399404510104
0.000390767669869
0.00113976462892
0.00168715853558
0.00199256836092
0.00206999059067
0.00196053267537
0.00172043838171
0.00147256207963
0.00132780276699
0.00122617596144
0.00124504282583
0.00141310009819
0.00166869686442
0.00203708308709
0.00238684107933
0.00251997262883
0.00234610718851
0.00188174165893
0.0012063331297
0.000396771993326
0.000380903610565
0.00112572170635
0.00168898244543
0.00204270228564
0.00219393923612
0.00218577950352
0.00207458443374
0.0019386990302
0.00182977925528
0.00173986889604
0.00179649358043
0.00196937006673
0.00218565240458
0.00243189616306
0.00261331039136
0.0026047933671
0.00234855292319
0.00185972628588
0.00119283555213
0.000390160170993
0.000373062239983
0.0010919860546
0.00163967509581
0.00201600817275
0.0022251973881
0.00229482228101
0.00226919710447
0.00220146967573
0.00213187305117
0.00207480173945
0.00216574560926
0.00230316247238
0.00245195591345
0.00259059469952
0.00264902224449
0.00254783592674
0.00225448331237
0.00178252971684
0.00116075541188
0.000383471729615
0.000365712623004
0.00104833237545
0.00154102083487
0.00189442276125
0.00212249450492
0.00223794189409
0.00226880643032
0.00225322206161
0.00222699390859
0.00222653185962
0.00229796312155
0.00238072304252
0.00246039668458
0.00251587062027
0.00249733156912
0.00235656856457
0.00207601063729
0.00166469154444
0.00111363800525
0.000375450009835
0.000350673508965
0.000976618559831
0.00141283933698
0.001695527269
0.00189087741251
0.00200911245014
0.0020642146269
0.00208038550947
0.00209437151543
0.00212672469584
0.00216617393529
0.00220296774376
0.00223284566537
0.00223916667634
0.00219012840452
0.0020586528936
0.00183516786631
0.00150845670307
0.00103158359323
0.000359395059264
0.000323015932407
0.000839303512508
0.00119842783071
0.0014333341374
0.00158061806669
0.00166766538667
0.00171874079503
0.00175004574177
0.00177111114608
0.00178737770036
0.00180087600324
0.00181174416725
0.0018171309306
0.00180724273938
0.00176504801677
0.00167399452672
0.00151769352362
0.00126783135518
0.00088230584452
0.000329623331868
0.0002784012623
0.000615210374076
0.000845247476252
0.000995082914647
0.00109006489481
0.00114763700884
0.00118049215896
0.00119803398782
0.00120736160239
0.00121260216722
0.00121644525543
0.00121934937403
0.00121943665894
0.00121224777466
0.00118882463126
0.00113731416789
0.00104257513041
0.000885082752645
0.000638565531401
0.000281110924911
0.000217825515337
0.000284613666923
0.000332569422229
0.000362963347767
0.000381515335367
0.000392101684014
0.000397736567816
0.000400010968503
0.000400586045774
0.000400312978099
0.000399821929321
0.000399081341594
0.000398068108823
0.000395684533306
0.000390705138477
0.000380669375404
0.000362307887718
0.000331408649053
0.000282305218593
0.00021582428165
0.000323922161029
0.00050142816578
0.000627690054632
0.000701662126508
0.000736720866453
0.000747141185884
0.000747360446836
0.00074545984976
0.00074360777036
0.000742185802009
0.000740162200948
0.000735122937505
0.000729999733798
0.000726207193147
0.000721247229812
0.000707890344953
0.000672601686233
0.000600487670264
0.000478157861947
0.000309620198377
0.000504593800583
0.000663724748407
0.000810483218241
0.000902717623923
0.00095083363539
0.000969307582573
0.000970685956026
0.000962950599788
0.000952651267021
0.000944221416459
0.000939052033933
0.000939835483465
0.000947297170604
0.000955478191714
0.000954506807188
0.000933053532978
0.000882403974026
0.000790011154731
0.000642792414488
0.000488543076013
0.000632519179998
0.000813068255933
0.000994069625987
0.00111452559301
0.00118111407758
0.00120749247447
0.00120226226753
0.00118047872252
0.00115597594759
0.00113548575495
0.00112421149154
0.00113565816041
0.00115978623489
0.00118659277641
0.00120020779344
0.00117899130775
0.00110681563846
0.000979551049798
0.000793468873271
0.000613056586045
0.000705382885567
0.000909401405006
0.00112148922087
0.00126465059107
0.00134042817138
0.00135507430203
0.00132845563779
0.00128481833331
0.00124142967502
0.00120715760369
0.00119329144857
0.00121951503505
0.00126665015876
0.00132349233046
0.00136604125365
0.00135906666143
0.00127756941067
0.00111736186001
0.000891799215739
0.000683465634256
0.000737994144595
0.000963928878882
0.00119796227318
0.00135125986551
0.00141729969199
0.00140759409322
0.00134919744884
0.00127720997177
0.00121068981562
0.00116194744169
0.00114821936498
0.00118531394587
0.00125659278173
0.00135210432134
0.0014405425649
0.00146646699232
0.001391058148
0.00121031451004
0.000950645698742
0.000714375850612
0.000746173119847
0.000987206495588
0.00123098073587
0.00137989609809
0.00142349352817
0.00137583834484
0.00127017568935
0.00116107478259
0.00106453866007
0.00100270776353
0.000988007409137
0.00102666204644
0.0011204076675
0.00126374636432
0.00141832209888
0.00149839392429
0.00144766418757
0.00126238574673
0.000980874108002
0.000722000801056
0.000741716766941
0.000988482624334
0.00123116710534
0.00136603945414
0.00137949114353
0.0012818170715
0.00110885593062
0.000932460637696
0.00079320605397
0.000735666827214
0.000731592230772
0.00076611375052
0.000881713659774
0.00108130430205
0.00131947575961
0.00146698026177
0.00145411868475
0.0012788807627
0.000990511618145
0.000720055170808
0.00073291896807
0.000978796554002
0.00121511912806
0.00133377469605
0.0013178416212
0.0011741853215
0.000945002651954
0.000681042874513
0.00053190770036
0.000494362803622
0.000489886464893
0.000518751324269
0.000641681820114
0.000883247862782
0.00120031673375
0.00140886249276
0.0014328265634
0.00127341022955
0.00098835713563
0.000715745742415
0.000725757621448
0.000969806397542
0.00120145839438
0.00130956351435
0.00127427675934
0.00109545167986
0.000805869037477
0.000525591504293
0.00038073371725
0.000348386696323
0.000347656253839
0.000373234772869
0.000493873691196
0.000761005448137
0.00112870611766
0.00137407953913
0.00141931616748
0.00126923060018
0.00098667755988
0.000713950056919
0.000723666847006
0.000968593964012
0.00120158186371
0.00130979623838
0.00127286747722
0.00109009520609
0.000795276591329
0.000514066712825
0.000368799665265
0.000337158605823
0.000334910303104
0.000356915050387
0.000479575413494
0.00076078277171
0.00114074285804
0.00139066215212
0.00143477430292
0.00128030528747
0.000992704020033
0.000716386451974
0.000728328585905
0.000977201894922
0.00121835226384
0.00133849503958
0.00131851874559
0.001162597599
0.000918175863788
0.00066098917778
0.000506826303443
0.000466980292121
0.000458091374414
0.000478151914646
0.000605692965117
0.000891117741122
0.00124423454104
0.00146482647969
0.00148379255742
0.00130977118549
0.00100836198701
0.000724549086532
0.000739099798888
0.000992478493807
0.00124659542589
0.00138777538975
0.00139995296601
0.00129150207306
0.00110311592689
0.00094879488007
0.000811041271835
0.00075612660427
0.000735502754596
0.000766509310936
0.000906837550838
0.00115576870925
0.00142748697554
0.00158236532433
0.00155393519501
0.00134920696138
0.00102987798155
0.000738514943246
0.000753030701042
0.00100685211587
0.0012732994793
0.00143882558759
0.00148944582806
0.00143860616873
0.00132179232813
0.0012017562243
0.00111356678579
0.001070482621
0.00107951736009
0.00115218249154
0.00128286107843
0.00145967623119
0.00162991562191
0.00169909007564
0.00161329109449
0.00137872435282
0.00104833738591
0.000756204748117
0.000764784368693
0.0010123530691
0.00128421505966
0.00146978273574
0.00155718605708
0.00155885757138
0.00150480196308
0.00143661459961
0.00138168013891
0.00135219985935
0.0013770276758
0.00145245627194
0.00155810093519
0.00167696018028
0.00176555149671
0.00176161704905
0.00163059213792
0.00138137116795
0.00105513988057
0.000771176664792
0.000766611752031
0.00100335504578
0.00126991230737
0.00146341493495
0.001577222885
0.00161973120314
0.00161207993757
0.00158332702722
0.00155557810918
0.00154254968079
0.00157591084117
0.00163682476841
0.00170876381743
0.00177516235657
0.00180176747964
0.00174794248442
0.00159482230471
0.00135218682831
0.00104512183672
0.000773643949022
0.000749183221891
0.000975534250167
0.00122576788711
0.0014116674636
0.00153272321534
0.00159773469685
0.00162103929215
0.00162130003688
0.00161587171121
0.00162045779925
0.00164811352083
0.00168576345839
0.00172358927
0.00174823693705
0.00173461063095
0.0016580401197
0.001509030929
0.00129182971166
0.00101224290778
0.00075558813833
0.000702027187691
0.000917585619926
0.00114812066558
0.0013133939891
0.00142409750096
0.00149098012559
0.00152524631095
0.00154008049629
0.00154971872193
0.00156246063811
0.00157944079543
0.00159698670717
0.00161055850357
0.00161046259184
0.00158066855358
0.00150665620495
0.00138073097847
0.00119613210304
0.000945879124187
0.000707491412738
0.000617246867081
0.000813604185657
0.00101694789406
0.0011621585283
0.00125697041578
0.00131433699408
0.00134726068374
0.00136589429193
0.00137729057392
0.00138574494214
0.00139305957538
0.00139876634041
0.00140020072419
0.00139130452179
0.00136248025165
0.00130308651792
0.00120252960627
0.00104850876434
0.00083229655294
0.000619726891958
0.000485278930254
0.00065560561868
0.000819876374059
0.000934780259733
0.00100922712076
0.00105447707745
0.00108030363009
0.00109415946716
0.00110139834476
0.00110546969968
0.00110809646818
0.00110935096131
0.00110749378524
0.00109863271266
0.00107632045837
0.00103209821237
0.000955759280918
0.000835730646447
0.000663069102223
0.000482434790344
0.0003114849569
0.000497572264036
0.000635814283362
0.000726722202488
0.000783664199536
0.000817389382413
0.000835866166665
0.000844625327603
0.00084734123584
0.000847167918349
0.000845682561876
0.000842554466192
0.000837405153422
0.00082755536725
0.00080833770007
0.000773792522666
0.000715983161578
0.000623796069417
0.000484569995078
0.000303316408677
0.000401834219504
0.000682510107982
0.000885583354727
0.00100698650917
0.00106710872507
0.00108743018953
0.001089034356
0.00108441982944
0.00107926422982
0.00107553615568
0.00107296342583
0.00107006997068
0.00106868731121
0.00106770783355
0.00105991081035
0.00103412866789
0.000972308208826
0.000852302627624
0.000652815718903
0.000381726150023
0.000686852275708
0.000796895481398
0.000945718379429
0.00104477987761
0.00109772908413
0.00111787057469
0.00111910639523
0.00111064104184
0.00109985546641
0.00109142582408
0.00108690256968
0.00108677243132
0.00109066883704
0.00109510738675
0.00109188218679
0.00106918115749
0.00101518907233
0.000916818512072
0.000768046326956
0.000668043496816
0.000892405819957
0.000948895421849
0.00109814245074
0.00120522358579
0.00126521369121
0.00128815970244
0.00128253375308
0.00126303226199
0.0012415050015
0.0012246498338
0.00121595128761
0.00121830103455
0.00123036182015
0.00124518902762
0.0012521461534
0.00123488637958
0.0011772650894
0.00107114594165
0.000919883293886
0.000871418241487
0.00101283711914
0.00105123913587
0.00121079583123
0.00132783379304
0.00139069355662
0.00140207458893
0.001379401712
0.00134339187467
0.00130696222563
0.00128005362354
0.00126816408125
0.00127668073242
0.00130192260987
0.0013332768894
0.00135814628849
0.00135321845061
0.00129798402748
0.00118347765898
0.00102187196037
0.000990314543682
0.00106979728746
0.00110808109554
0.00127793073496
0.00139924726353
0.00145253647479
0.0014445499153
0.00139895393458
0.00134558992672
0.00128841551495
0.00124944020154
0.00123537507216
0.00125175048647
0.00129651481448
0.00134739329728
0.00139832544374
0.00141517870841
0.00136889749003
0.0012507986289
0.00107886096392
0.00104699587947
0.00108652499941
0.00113042589242
0.00130539392018
0.00142229113563
0.00145831561946
0.00142343319553
0.00135216173771
0.00129383399727
0.00119580805375
0.00113964314721
0.00112393218261
0.00114942570821
0.00123156496161
0.00129532912115
0.00137729624989
0.00142571240171
0.00139725679616
0.00128185913147
0.00110349293858
0.00106521007719
0.00108194433404
0.00112994677456
0.00130384847914
0.0014100982897
0.00142473464154
0.00136064489523
0.00127541694376
0.00122720861235
0.00099336107056
0.000923761778132
0.000915755833595
0.000950208060071
0.00112032325372
0.00120228471795
0.00131423965294
0.00139883593379
0.00139448888784
0.00128813970321
0.00110888682395
0.00106561006573
0.00107027986764
0.00111919468167
0.00128849019256
0.00138227444012
0.00137606655032
0.00128959313323
0.00126356266255
0.0011568741967
0.000768284442514
0.000723980793842
0.000731722162572
0.000788579320172
0.00110346560641
0.00109460036192
0.00124335220663
0.00135997001136
0.00137865605933
0.00128311430841
0.00110639032038
0.00106034821317
0.00106156977645
0.00110996329559
0.00127595081057
0.00136113217469
0.0013374796857
0.0012112799393
0.00104967548662
0.000815281444788
0.000455782765677
0.000402641450929
0.000412022840803
0.000468579906956
0.000755557683435
0.000909779603205
0.00117365908485
0.00133381965863
0.00137031402587
0.00128150792298
0.00110596895426
0.00105902968988
0.0010616247669
0.00110938747716
0.00127677510809
0.00136296568808
0.00133962476628
0.00121318751932
0.0010530963784
0.000837618193917
0.000475667332812
0.00041985279784
0.00042021795717
0.000462953476874
0.000746057817248
0.000915396108564
0.00118860220875
0.0013509177365
0.00138578148894
0.00129330623821
0.00111362939312
0.00106552831314
0.00107290792615
0.00111949412284
0.00129350954938
0.00139092870643
0.00138569684148
0.00129720536701
0.00127673997443
0.00133456430716
0.000918802508496
0.000866096561209
0.000865972936241
0.000879921379865
0.00117287329023
0.00111789136031
0.0012933376816
0.00141592650521
0.0014285983736
0.0013210895524
0.00113129850878
0.0010815611216
0.00109413497845
0.00113745645773
0.00132115835884
0.00143571607037
0.00145529340181
0.00139184513828
0.00130351827283
0.0013761084469
0.00115853405939
0.00107918164329
0.00103657059846
0.00101933402432
0.00118101534314
0.00129607181735
0.00142611235853
0.00150849914991
0.00148883683195
0.00135936048582
0.00115648536179
0.00110643174174
0.00111970242067
0.00115615130156
0.00134880111691
0.00148249771971
0.00153162471213
0.00150580055188
0.00143968306482
0.00138793196695
0.00130839204721
0.00127084176844
0.00127036085636
0.00131203884034
0.00140442970022
0.00148788534366
0.00157120033734
0.00160436872656
0.00154727787679
0.0013956900311
0.00118237537762
0.00113558118481
0.00113884404175
0.0011664892055
0.00136329659469
0.00151271407912
0.00158986104532
0.00160127771439
0.00157126379547
0.00153156423086
0.00149120655579
0.00147153852756
0.00148198786372
0.00152166657455
0.00158215474884
0.00164063434211
0.00168207818949
0.0016715340033
0.00158335703054
0.00141654746967
0.00119921552934
0.00115716642913
0.00113841729621
0.00116007041269
0.0013545326387
0.00151072140132
0.00160832280661
0.00164988329696
0.00165168502015
0.00163632356489
0.00161892265889
0.00161265557082
0.00162680687975
0.00165729182384
0.00169499922335
0.00172582937189
0.00173209430726
0.00168949144757
0.00158210818228
0.00141057345416
0.00119617597858
0.00115635285956
0.00110546351752
0.00112913570429
0.00131596970234
0.00146888039537
0.00157295569726
0.00163199781498
0.00165676075315
0.00166213455081
0.00166165014087
0.00166590256046
0.00167934738291
0.00169880926141
0.00171764627148
0.00172555266097
0.00170765056491
0.00164752875331
0.00153510095031
0.00136895751869
0.00116271782794
0.0011208347302
0.00102527230597
0.00106277163412
0.00124162584433
0.00138501912047
0.00148413362316
0.00154581084459
0.0015793348155
0.00159613138417
0.00160539459061
0.00161392164437
0.00162422773094
0.00163472384175
0.0016411822932
0.00163583924872
0.00160757606524
0.00154485407776
0.00143883890681
0.00128401264091
0.00108894272112
0.00103638986746
0.000884287636976
0.000949759665976
0.00112069508257
0.00125431141615
0.00134564887356
0.00140300946829
0.00143638826272
0.00145500049643
0.00146582134663
0.00147336366074
0.00147964386676
0.00148418685295
0.00148409375214
0.00147366208566
0.00144458468544
0.00138705259778
0.00129122352286
0.00114927033262
0.000965813659625
0.000888556576198
0.000666960907836
0.000788569353371
0.000956085393803
0.00108013100688
0.00116287732592
0.0012142661864
0.00124411001452
0.00126043192116
0.00126914159177
0.00127414406281
0.00127730127949
0.00127854986314
0.00127571107671
0.0012643046799
0.00123739796313
0.0011860905631
0.00110021260797
0.000969815035526
0.000792890209422
0.000662669955848
0.000384085102285
0.000684207475486
0.000910956109842
0.00106282580056
0.00116036705113
0.00121952655326
0.00125296187863
0.00127004485485
0.00127702577923
0.00127880718689
0.00127753236663
0.00127340170866
0.00126406712452
0.00124593262353
0.00121099530555
0.00114984040519
0.00104967649646
0.000894352287987
0.000665175657156
0.000374318477158
0.000453198650482
0.000816201633759
0.00108286833785
0.00124514249954
0.00132781640552
0.00135693192867
0.00135845436593
0.0013494919158
0.00133922036337
0.00133148547185
0.00132752960886
0.0013266260671
0.00132927716056
0.00133212809987
0.00132368404981
0.0012876271499
0.00120236372334
0.00104145926997
0.000778622533067
0.000425791791927
0.000821365117895
0.000914522758023
0.00107462101765
0.00118473120591
0.00124476970113
0.00126757457784
0.00126825863462
0.00125821512632
0.00124584099723
0.00123640163479
0.00123189222371
0.00123227309102
0.00123645893854
0.00124045830575
0.00123578651347
0.00120961254313
0.00114832896332
0.00103889405601
0.000879053875904
0.000798025481161
0.00109114654099
0.00107818454429
0.00121553056687
0.00131982067732
0.00137893529776
0.00140101136542
0.00139555673574
0.00137681675712
0.00135603124703
0.00134041091203
0.00133298730924
0.0013343161329
0.00134365282658
0.00135466454676
0.00135830814691
0.0013398789262
0.00128368291572
0.00118141500639
0.00104204564701
0.00106693985865
0.00125287117834
0.00119115897162
0.00132458303876
0.00142994886631
0.0014873884255
0.00149835962844
0.00147879189433
0.0014474761723
0.00141392154252
0.00139023093283
0.0013804121761
0.001385949801
0.00140624241866
0.00142744636469
0.00144353163051
0.00143652644948
0.00138804612072
0.00128875136907
0.00115455760048
0.00122843338955
0.00133237991207
0.00125402033821
0.00138955214871
0.00149455863296
0.00154242320383
0.00153772787764
0.00150323190574
0.00146693602241
0.00141281205231
0.00137833434857
0.00136684548131
0.00138131617988
0.00142315433835
0.0014481302272
0.00147691234076
0.00148528527259
0.00144696361936
0.00135162711379
0.00121791627643
0.00130960826411
0.00135816741831
0.0012784903715
0.0014155830105
0.00151553191605
0.00154964509662
0.00152780632622
0.00149355898927
0.00151905850475
0.00139993039988
0.00134430932573
0.00133224389319
0.00136372997625
0.00147072971862
0.00144604796668
0.00146864575885
0.00149329245261
0.00146861131686
0.00137909887621
0.00124539022935
0.00133963966978
0.00135478270168
0.00127811708953
0.00141376281956
0.00150507698491
0.00152505200939
0.00149545063165
0.00155282583434
0.00230002672778
0.00174537231671
0.00161865878019
0.00160356514039
0.00165982684507
0.0020240262805
0.00150740999525
0.00144293772617
0.0014753464852
0.0014659787194
0.00138457062315
0.00125217077792
0.00134442967687
0.00134132232814
0.00126693237325
0.00139885160816
0.00147990347682
0.00148573461009
0.00146251085077
0.0020528900261
0.00203028175136
0.00143769848304
0.00145226283983
0.00145549795104
0.00138189364011
0.00125129944985
0.00134031816373
0.00133159278713
0.00125761922931
0.00138693564538
0.00146040848418
0.00144934955194
0.00137756700201
0.00162794239058
0.00162529638317
0.00136220257343
0.00143214490471
0.00145162625253
0.00138322869716
0.00125296980581
0.00134096756377
0.00133379652118
0.0012578696293
0.00138849942244
0.00146345618599
0.0014539545837
0.00138539365869
0.00166010383341
0.00168192559135
0.00138683649514
0.00145323453418
0.00146986311162
0.00139764072912
0.00126344188713
0.00135230206564
0.00135090716042
0.00126985431453
0.00140600660098
0.00149161597135
0.00150124237435
0.00148602453754
0.00226046009541
0.00234363169043
0.00151603050273
0.00151862772505
0.00151304004919
0.00142742192432
0.00128473270766
0.00137624550456
0.0013808511025
0.00129066171321
0.00143440727516
0.00153434698708
0.00156209987187
0.00153881054568
0.00156945116725
0.00242164696416
0.00198656196919
0.00192910082562
0.00195184228514
0.0020617255684
0.0025388946768
0.00166019232391
0.00157907749295
0.00159851496792
0.00157115961373
0.00146766125791
0.00131429345885
0.0014116295585
0.00141543532328
0.00131291370701
0.00146383527962
0.00157990843199
0.00163036663485
0.00162571795481
0.00160511256799
0.00162610717714
0.00154346736198
0.00151161041309
0.0015187435354
0.00156116771866
0.00165772127894
0.00165618227293
0.00167686778709
0.00168187273775
0.00162912746187
0.00150760032257
0.00134490299317
0.00144990481821
0.0014394359579
0.00132614372881
0.00148114593305
0.00161112364888
0.00168412710991
0.00170495255377
0.00169520248653
0.00168077455938
0.00165080008404
0.00163796330591
0.00164863450586
0.00167983516091
0.0017259046735
0.00175285746744
0.00176702770946
0.00174689016215
0.00167091478325
0.00153459538505
0.00136557772687
0.00147564576359
0.00143476066854
0.0013196956755
0.00147500048309
0.00161243564478
0.00170307737078
0.00174703903031
0.00175812105766
0.001754657293
0.00174581660321
0.00174514481509
0.00175658681864
0.00177881055538
0.00180490089895
0.00182024269169
0.00181503978907
0.00177276873354
0.00167976035321
0.00153468799288
0.00136295070331
0.00146933361376
0.0013862240424
0.00128374508779
0.00143732957732
0.00157518297617
0.00167311078528
0.00173186921773
0.00176049578844
0.00177175371015
0.00177683558938
0.00178328489568
0.00179446080618
0.00180907032382
0.00182166590633
0.0018227512962
0.00180138172935
0.00174473458748
0.00164341019225
0.00149610016966
0.00132445409358
0.0014159807077
0.00127647788942
0.00120724411779
0.0013614148163
0.00149655141452
0.00159363016078
0.00165609675756
0.00169244321687
0.00171215535617
0.00172365941495
0.00173297077724
0.00174260630829
0.00175163078406
0.00175595729962
0.00174821822975
0.00171886424318
0.00165754062233
0.00155585900585
0.00141060120357
0.00123978938703
0.00129832008385
0.00108759413544
0.00108075217365
0.00124088153901
0.00137453495328
0.00146920815877
0.00153051624683
0.00156738963804
0.00158865341276
0.00160135402688
0.00161017573722
0.00161727233907
0.00162216939411
0.00162167955323
0.00160984447443
0.00157844770403
0.00151783421099
0.00141872271421
0.00127582027143
0.00110138891943
0.00109743215545
0.000799396356064
0.000906523661454
0.00108743020194
0.00122584597613
0.00132037392809
0.00138040888332
0.00141615216412
0.00143636198143
0.00144766357847
0.00145446107492
0.00145888082465
0.00146075761244
0.0014574265744
0.00144360869615
0.00141153901111
0.00135144019637
0.00125265681133
0.00110594227519
0.000913014003783
0.000796076023103
0.000428671243696
0.000820623332469
0.00112101854754
0.00132501175502
0.00145812243424
0.0015403705335
0.00158796427289
0.00161318679208
0.00162503758743
0.00162936887675
0.00162915379719
0.00162421580665
0.00161244349469
0.00158658680302
0.00153804845655
0.0014527215699
0.00131467404125
0.00110411124008
0.000798502666441
0.000417703167416
0.000492684607867
0.00092053388838
0.00123912827273
0.00143573652632
0.00153750677912
0.00157364922975
0.00157373056692
0.00155957134452
0.00154357547533
0.00153157507068
0.00152587967866
0.00152653537386
0.00153261612859
0.00153931365703
0.00153156184372
0.00148783062462
0.00138299518232
0.00118810808253
0.000874122529801
0.000457444143236
0.000926346692519
0.00101247817453
0.00118608132731
0.00130793345972
0.00137528414718
0.00140068251722
0.00140030413981
0.00138787071894
0.0013730449256
0.00136193707755
0.00135703655858
0.00135831059896
0.00136392717281
0.00136879146294
0.00136343470102
0.00133373968369
0.00126480546039
0.00114366436822
0.000970422988818
0.000897699982822
0.00124856312039
0.00119006972295
0.00132445265283
0.00143068281553
0.00149146952867
0.00151371010616
0.0015079639332
0.00148831726351
0.00146635858174
0.0014502629993
0.00144333173919
0.00144568685876
0.0014556072692
0.00146594269438
0.00146797147344
0.00144733757239
0.00138866144536
0.00128428983395
0.00114730388382
0.00122056104092
0.00144492998893
0.00131489927477
0.0014354085072
0.00153659994757
0.00159260875497
0.00160408093997
0.00158572966577
0.00155516031839
0.00152082331107
0.00149713639778
0.00148850323733
0.00149543315208
0.00151677551138
0.00153506881034
0.00154680935427
0.00153718334259
0.00148907648805
0.00139402416439
0.00127205936275
0.00141848832591
0.00154352675928
0.00138513174686
0.00150226437744
0.00159998523205
0.0016464481511
0.00164444439424
0.00161549909043
0.00158380517515
0.00152654929545
0.00149074162228
0.00148108713439
0.00149937854307
0.00154708115004
0.00156492678299
0.00158221766874
0.00158434266744
0.00154683122233
0.00145950675557
0.00134401398132
0.00152148757904
0.00157690518487
0.0014131057185
0.00152965762518
0.00162196912063
0.00165694747243
0.0016438010688
0.00162594314519
0.00166328613999
0.00152152769532
0.00145635574172
0.00144613717194
0.00149084186817
0.00162732911275
0.00159251668304
0.00158611294317
0.00159606542329
0.00156952628476
0.00148928173503
0.0013768256643
0.00156269433781
0.00157456346877
0.00141384962585
0.00152896770984
0.00161408272978
0.00163980106924