/*--------------------------------*- C++ -*----------------------------------*\
| =========                 |                                                 |
| \\      /  F ield         | OpenFOAM: The Open Source CFD Toolbox           |
|  \\    /   O peration     | Version:  v1606+                                |
|   \\  /    A nd           | Web:      www.OpenFOAM.com                      |
|    \\/     M anipulation  |                                                 |
\*---------------------------------------------------------------------------*/
FoamFile
{
    version     2.0;
    format      ascii;
    class       volScalarField;
    location    "4.4";
    object      k;
}
// * * * * * * * * * * * * * * * * * * * * * * * * * * * * * * * * * * * * * //

dimensions      [0 2 -2 0 0 0 0];

internalField   nonuniform List<scalar> 
11640
(
0.000454565223418
0.000542847322749
0.000600291271061
0.000633122336697
0.000649462248802
0.000654399247498
0.000651774471285
0.000645223141492
0.000636613527842
0.000627314043377
0.000617543072883
0.000609041784303
0.000604551709512
0.000604398561933
0.000604380137799
0.000599673625162
0.000585567655828
0.000556380166416
0.000505025459337
0.00042846044562
0.000544970542841
0.000888368604688
0.00107763438819
0.0011850746411
0.00124463660291
0.00127083852412
0.00127142083717
0.00125519946136
0.00123333334768
0.00121159074186
0.00119149461502
0.00118479100987
0.00119402595254
0.0012046735831
0.00120529723198
0.00118427555115
0.00113225185152
0.0010324960913
0.000847826189512
0.000511106962168
0.000603019176779
0.00107810868505
0.00134903960989
0.00151969151421
0.00162025203553
0.00165879617947
0.00164649232554
0.00160505271187
0.00155572270848
0.00150628684326
0.00146277736653
0.0014703051357
0.00149395178222
0.00151959225608
0.00153289588908
0.00151311339429
0.00143973185264
0.00129317920365
0.00103455047998
0.000563850948264
0.000635538420353
0.00119056035494
0.00153037822978
0.00175166383347
0.00187041799463
0.00189728197514
0.00185471132349
0.00177643210491
0.00169281281679
0.00161057631831
0.00155016621158
0.00157308458044
0.00161477229973
0.00166488611059
0.00170290940754
0.00169857014829
0.001623640901
0.00145070934875
0.00114138618314
0.000593783060605
0.000654096691077
0.00126458088529
0.00165405727711
0.0018983468507
0.00200937489304
0.00200357408516
0.00191384202003
0.0017897912255
0.00167008272713
0.00155817076136
0.0014946301167
0.00152972254528
0.00159429715308
0.00168277345442
0.00176239420034
0.00178859650831
0.00172701296893
0.00154693694022
0.00120743829756
0.000612079644806
0.000665465346937
0.00130891114632
0.00172150373866
0.00196254299883
0.00204268928812
0.0019797403894
0.00181404084472
0.00162798471222
0.00147613197432
0.00134567372735
0.00128786578264
0.00133090340684
0.00142324250122
0.0015764317967
0.00172783286287
0.00180519041137
0.0017710338575
0.00159737758568
0.0012459180945
0.000625452254845
0.000668628330287
0.00132285023111
0.00173672596487
0.00195916018032
0.00199338481932
0.00184675992315
0.0015591190874
0.00127277334105
0.00109809500555
0.000977642817454
0.000963486983681
0.00100519881405
0.00111992009539
0.00135986913214
0.00162004142551
0.00176889314838
0.00177292983042
0.00161392103775
0.00126194176698
0.00063313019725
0.000664208924775
0.00131503024536
0.00171938783635
0.00191919698989
0.0019106478755
0.00168937838837
0.00128100276918
0.000941535761269
0.000781086280181
0.000704687657532
0.000683926292636
0.000724321615373
0.000849686233934
0.00113449092703
0.00149596573329
0.00171186026033
0.00175199848488
0.00160894195772
0.00126212052498
0.000634564876797
0.000656999754668
0.00130278055165
0.0016986791752
0.00188411731799
0.00185166828657
0.0015913744671
0.00113728407037
0.00078789604616
0.000627614070755
0.000567365896765
0.000557730814312
0.000598352054357
0.000729254653595
0.00102643247059
0.0014302324837
0.00167954682441
0.00173940077009
0.00160490169585
0.00126083235076
0.000634404186543
0.000650842988495
0.00129791707038
0.00169420599156
0.00187775257767
0.0018412335623
0.00157412898783
0.0011070359198
0.000746358078175
0.000588259962921
0.000537375748415
0.000532702609505
0.000575301342179
0.00071292355542
0.00102238017537
0.00143966756123
0.0016936991042
0.00175340889537
0.00161559977069
0.00126682588929
0.000635290893493
0.00064669397117
0.00130397509942
0.00170892743851
0.00190508836516
0.00188725549785
0.00164642255565
0.00120321507104
0.000832895150346
0.000679977558868
0.000622216551719
0.000614110704774
0.000661827030551
0.000805282548293
0.0011282044
0.00152852353539
0.00175872113178
0.00179776328274
0.00164387274013
0.00128203239688
0.000637830267968
0.000642494358672
0.00131406718728
0.00173566685696
0.00195717353633
0.00198474498351
0.00182518570033
0.00150876726568
0.00120254526973
0.00105203526293
0.000971980598128
0.000907265179022
0.000973327423987
0.00112840027555
0.00141857861374
0.00171479712428
0.0018735385544
0.00186786589376
0.00168521176596
0.00130270733591
0.000640067964959
0.000634202092411
0.00131385308779
0.00175027989817
0.00200224359323
0.00208189498329
0.00200965242154
0.00182346558952
0.00161727613223
0.00148055356025
0.00137504484199
0.00135870659474
0.00144275267881
0.0015737236171
0.00175838883913
0.00192691259039
0.00199878037061
0.0019385777635
0.00172232210787
0.00131833834817
0.000638503131582
0.000622340406442
0.00129413952829
0.00173091854659
0.00200698535109
0.0021338551383
0.00213451164883
0.00204621330112
0.00192918011814
0.00182605158521
0.00173492928286
0.00174014894609
0.00181282197673
0.00190455246004
0.00200844170613
0.0020854518431
0.00208641386591
0.00197896304863
0.00173553197231
0.00131945674089
0.000632743008382
0.000612994028088
0.00126002479725
0.00167356450831
0.00195311986413
0.0021124976416
0.00216557589836
0.00213999292934
0.00207601867055
0.0020071968819
0.00194770553597
0.00197694403563
0.00203001584679
0.00208620506954
0.00213701825898
0.00215587630303
0.00210936404123
0.0019708694447
0.00171502645845
0.00130457880656
0.000625987124355
0.000604693075333
0.00122164866146
0.00158810526011
0.00184063515538
0.0020048329248
0.00208686924808
0.00210294872236
0.00208104697809
0.00204960387806
0.00203597859201
0.00206249098407
0.00209411327654
0.0021227616485
0.00213948739888
0.00212385111207
0.00205196167042
0.00190311947757
0.00165714900941
0.00127267853842
0.000617151199315
0.000587867290449
0.00116409963181
0.0014908310186
0.00168979401941
0.00182617471849
0.00190838943678
0.00194396246041
0.00194992563048
0.00195425801374
0.00196842437975
0.00198621793226
0.00200198529305
0.00201328606949
0.00201179201204
0.00198177017749
0.00190645768357
0.00177180009703
0.00155770823991
0.00120981949783
0.000599285981719
0.00055640348117
0.0010522187156
0.0013349333142
0.00150488019849
0.0016081298116
0.00166934774147
0.00170473353201
0.00172522314803
0.00173829220431
0.00174808419801
0.00175591081675
0.00176187238869
0.00176416312994
0.00175678910961
0.00172928557984
0.00167004478672
0.00156479559649
0.00138793508629
0.00109006969941
0.000565507939219
0.000503748048081
0.000855359608275
0.00105777528612
0.00117993469473
0.00125442523102
0.00129871889385
0.0013238479263
0.00133731928571
0.00134456580534
0.00134868415121
0.00135164780114
0.00135380440497
0.00135376664382
0.00134823164401
0.0013305533545
0.00129157979966
0.00121861124328
0.00109246541626
0.000878767215297
0.000508199910347
0.00042750707771
0.000511405702159
0.000567684126929
0.000602048521804
0.000622679053961
0.000634413130663
0.000640710003532
0.000643364219081
0.000644166081072
0.000644037512518
0.000643647466279
0.000642979029415
0.000641967652275
0.000639448888285
0.000634076179664
0.00062310799773
0.000602762285166
0.000567725641405
0.000509743530511
0.000425302956816
0.000730969873299
0.000978397187889
0.0011368073975
0.00122458720535
0.00126375409471
0.00127292941122
0.00127098977318
0.00126795517593
0.00126550319657
0.0012635623074
0.00126096140484
0.00125495242008
0.00124878470323
0.00124487903917
0.00124140985288
0.00122913168604
0.00118965540329
0.00110325241304
0.000947634214071
0.000708841432278
0.000982370224592
0.00185955640921
0.00228701595526
0.00251059913829
0.00261414234053
0.0026525114369
0.00266030525929
0.0026538853936
0.0026451824573
0.00264153822141
0.00263900317798
0.00262827276589
0.00261768101414
0.00261265817593
0.00260418565704
0.00257005523951
0.00247615075375
0.00226202654585
0.00184051463978
0.000961406111433
0.00114239165874
0.00228972621902
0.00284196997876
0.00313813242813
0.00328150234673
0.00333302883392
0.00332519114935
0.00329428127979
0.00326638163083
0.00324618195498
0.00322446246049
0.00318378379543
0.0031588761595
0.00315298639861
0.00315744549552
0.00314046571823
0.00304554725959
0.00279422743923
0.00226707022154
0.00111891192004
0.00122878926418
0.00251647324584
0.00314060940778
0.00347521962071
0.00362498423488
0.00364304921842
0.00358747731073
0.00351442023777
0.00345880416462
0.00342022751794
0.00337713299968
0.00331737564084
0.00328823950982
0.00329903602363
0.0033335981174
0.00334881490278
0.00328292780237
0.00304229092638
0.00248306586027
0.00120319386227
0.0012662736918
0.002620102558
0.00327693057529
0.00361565588755
0.00373141146116
0.00368660842994
0.00354837207866
0.00340487033624
0.00330956361205
0.00324994432381
0.00318807437742
0.00311938661542
0.00310838834005
0.00317792842987
0.00328241148746
0.00335317146028
0.00332814938819
0.00311749289864
0.00256714240481
0.00123891746269
0.00127567949642
0.00264670939952
0.00330485817661
0.00361732421565
0.00367151100537
0.00351917510892
0.00322977258256
0.00296232612195
0.00281428317409
0.0027388751451
0.00266553378752
0.00259679381869
0.00263332439641
0.0028381853664
0.00308334054291
0.00324829174979
0.00328004110436
0.00310498484165
0.00257750619831
0.00124775968336
0.00127082185904
0.00263136359041
0.00327057700922
0.0035399365189
0.00351024192266
0.00320064405572
0.00264536229052
0.00213959896459
0.00194137440823
0.0018974332763
0.00182940386861
0.00177346501396
0.00188218895931
0.00231330565334
0.00279516158805
0.00309879958008
0.00320359532781
0.00306645146436
0.00256115248546
0.00124600324747
0.0012607929862
0.00260354732143
0.00321882672552
0.0034448649399
0.00333646576291
0.0028798770594
0.00202721021277
0.00139454773076
0.00120804273106
0.0012123563096
0.00120778257105
0.00118489797965
0.00132567551859
0.00181388070414
0.00252402331452
0.00296656609511
0.00313957578425
0.00303447848347
0.00254479765449
0.00124137383363
0.00125235525445
0.00258550774318
0.00318567140835
0.00338595688812
0.00323476845308
0.00270783800034
0.0017654810926
0.00113076860457
0.000920430926351
0.000917864699002
0.000916117931415
0.000905565889164
0.00106616291663
0.00158395301251
0.00239274053855
0.00290550413447
0.00311581866525
0.00302630405957
0.00254131441485
0.00123940205698
0.00124975168857
0.00258897504052
0.00318988127924
0.00338965748314
0.00323725372774
0.00270741718872
0.00175989841784
0.0011141202762
0.000898684505511
0.000896329447397
0.000898235293859
0.000883802378229
0.00105083619516
0.0015919414184
0.00242237676391
0.00294168594498
0.00314945439809
0.00305249515716
0.00255695812335
0.00124228295355
0.00125496731401
0.00261807656968
0.00323740473959
0.0034640888477
0.00335406147047
0.00289105603727
0.00203705742556
0.00138847553867
0.00118350652323
0.00118640752856
0.00118870257112
0.0011564273348
0.00130942409123
0.00186223082447
0.00262677568003
0.00308445995022
0.00324802125496
0.00311849223409
0.00259583703193
0.00125175037431
0.00126747052388
0.00266947323047
0.00332297296644
0.00360025158639
0.00357804925324
0.00327739806973
0.00272596444163
0.00215890716738
0.00196534822514
0.00196140704852
0.00198165166469
0.00195090471146
0.0020917530769
0.0025354530904
0.00303695826467
0.00333656904761
0.00341180212961
0.00322619373198
0.00265960120991
0.00126805394837
0.00128368688393
0.00273102597526
0.00342632711087
0.00376483261813
0.00383920513088
0.00370678912246
0.00343009001755
0.00315407337659
0.00303527168595
0.00301387390864
0.00299414957035
0.00298862728309
0.0030704371953
0.00327548385185
0.00351022349495
0.0036444062628
0.00362084969028
0.00336744183835
0.00274315618363
0.00128858758353
0.00129696197618
0.00278194941602
0.00351459892142
0.0039121483923
0.00407297299568
0.0040713618103
0.00397476006922
0.0038706634953
0.00382107304964
0.00381238577292
0.00379348658059
0.00377834728971
0.00379804200805
0.00386140581664
0.00393391552913
0.00394638168763
0.00383663570865
0.00351299003022
0.00282428725254
0.00130561292889
0.00129857742839
0.00279736273822
0.0035501028194
0.00398860926091
0.00421931162793
0.00430627294022
0.00431302686303
0.00429616440343
0.0042915380793
0.0043020909931
0.00429024082906
0.00427256592455
0.00426129510945
0.00425730891297
0.00424401008857
0.00417878396293
0.00399922952281
0.00361109198031
0.00286530358545
0.00130812447428
0.00127880243929
0.00275229950052
0.00349782162939
0.00394749803162
0.00421183908043
0.00435312451019
0.00441867806173
0.00444904660512
0.00447172362248
0.00449418929616
0.00449284157799
0.0044810086823
0.00446266849759
0.00443269455871
0.00437756421798
0.00426366786409
0.00403350678382
0.00359915681401
0.00282751800279
0.00128762006942
0.0012246408597
0.002615659763
0.00332370025161
0.00375459404224
0.00401421585217
0.00416722888309
0.00425246575373
0.0043026482396
0.00433712058485
0.00435529896947
0.00436263660087
0.0043619023983
0.00435077669035
0.00432003994605
0.00425299611564
0.00411867447117
0.00386656650605
0.0034246174563
0.00268283982783
0.00123222678551
0.00112389846251
0.00234944210338
0.00297448687219
0.00335576712497
0.00358942014185
0.00372993887273
0.00380995127542
0.00385425194076
0.00388030859416
0.00389617940648
0.00390560561741
0.00390942897743
0.00390366082937
0.00387788273305
0.00381427863845
0.00368485514615
0.00344906308813
0.00305184038039
0.00239862639424
0.00112789111701
0.000957124761753
0.00188662901152
0.00236449821181
0.00265563998882
0.00283389255407
0.00293981668155
0.00299977779016
0.00303188788694
0.0030490514653
0.00305833133633
0.00306369165343
0.00306547449432
0.00306012676703
0.00303929021038
0.00298846787561
0.00288730286033
0.00270691059996
0.0024056994491
0.00190959759824
0.000954118588213
0.000711669088964
0.000973567225229
0.00114710597362
0.00125460230963
0.00131986636587
0.00135795356869
0.00137873700762
0.00138863515754
0.00139180125913
0.00139167993953
0.00139001740594
0.00138646520774
0.0013805972436
0.00136947847547
0.00134788625423
0.001308894387
0.00124259643632
0.00113323408047
0.000957212492283
0.000698923094146
0.000843736449275
0.00120131471672
0.00142965349462
0.00155747362656
0.00161662057312
0.0016329216484
0.0016313897377
0.00162565327647
0.00162016669326
0.00161612080367
0.00161326894633
0.00161013013102
0.00160845163267
0.00160819106128
0.00160359876252
0.00158203050389
0.00152099103365
0.00139358377632
0.00116645179562
0.00081508563091
0.0012061559603
0.00237253886779
0.00293068280048
0.00322870073791
0.00337122875094
0.00342508135689
0.00343459177305
0.00342135389285
0.00340403804831
0.00339423344854
0.00339127927642
0.0033909058517
0.00339436901869
0.00339982064461
0.00339176315323
0.00333818675745
0.00319922698308
0.00290767643205
0.00235694724793
0.00118449557031
0.00143659326702
0.00293528102428
0.00363912926559
0.00402113844822
0.00420811843403
0.0042736481755
0.00425847158602
0.00421177532562
0.0041679689203
0.00413771644312
0.00411748106593
0.00409942704696
0.00409900566793
0.00411634376396
0.00413111419295
0.00409759351672
0.00394713495328
0.00359760455777
0.00291642861377
0.00141460442591
0.00156340710361
0.00323971844261
0.00402784472883
0.00445278981802
0.00464371009309
0.00466451700937
0.00458765794803
0.00448531863184
0.00440409357777
0.00435120507609
0.00431453365304
0.00428685301076
0.00429768415498
0.00435028851474
0.00441266621985
0.00442311679824
0.0043035929118
0.00395111241123
0.00321512327498
0.00154077469205
0.00162132444868
0.00338597589416
0.00421382957931
0.00464240275441
0.00478923184055
0.0047278907115
0.00454248325023
0.00434756412725
0.00421212668699
0.00413225925657
0.00407742601115
0.00404705313692
0.00409049591315
0.00423181358086
0.00439413651834
0.00448327925538
0.0044175610799
0.00409424008797
0.00335095082641
0.00159877116374
0.00163839551348
0.00343137281751
0.00426275857694
0.0046597145289
0.00472839806182
0.00452770264777
0.00413927126943
0.00377072294583
0.00355679576375
0.0034487501787
0.00337220603586
0.00333446252957
0.00344251986379
0.00379903789873
0.00416083408774
0.00438138732819
0.00439409993812
0.00411537864465
0.00338918136653
0.00161746525922
0.00163425493581
0.00342042962525
0.00423135310546
0.0045764140307
0.00454087144065
0.00413706546616
0.0033530091212
0.00256288703319
0.00223542877193
0.00212774495745
0.00204057696681
0.0020006285309
0.00221362832048
0.00305760346682
0.00378655297646
0.00420167410752
0.00431373994607
0.00408559408105
0.00338342875825
0.00161856916124
0.00162264166669
0.00339124352086
0.0041751692064
0.00446843017475
0.00433596023621
0.00373444439813
0.00240102228474
0.00130149405604
0.000984191416985
0.000942892760337
0.000948269482388
0.0009956624914
0.00124259793204
0.00222104463295
0.0034053198518
0.0040337020341
0.0042394120566
0.00405342061988
0.00336949856197
0.00161376534591
0.00161359533976
0.00337338276233
0.00414115019555
0.00440526550955
0.00422197554623
0.0035339593984
0.00207729763097
0.00103635248469
0.000700141571614
0.000643194672255
0.000652954141497
0.000710293747614
0.000970876491176
0.00189735100551
0.00323165483085
0.00396017565476
0.00421498627373
0.00404869540977
0.003369502994
0.00161259850567
0.0016134358702
0.00338316347385
0.00415436242951
0.00442131587143
0.00424075374297
0.00355563248298
0.00210388774881
0.00106161467998
0.000727114813984
0.000668557398492
0.000668773374647
0.000711105669234
0.000967905204182
0.00192243545467
0.00328210569357
0.00401685218894
0.00426633252908
0.00408888001617
0.00339497044195
0.00161930385832
0.00162469583291
0.00342578093242
0.00422219635874
0.00452640588085
0.00440467934733
0.00381878536175
0.00253531227718
0.00145742056418
0.00113627272952
0.00109160794716
0.00109041799211
0.001098862496
0.00131681363364
0.00236224851094
0.00358761418006
0.00421914108481
0.00440353357481
0.00418087437866
0.00345067831243
0.0016356003276
0.00164632469865
0.00349536462389
0.00433534628339
0.00470589708139
0.00469766444393
0.00433092649986
0.00361145628528
0.00268036200412
0.00239103276796
0.00238003244975
0.00243263971603
0.00249283044647
0.00274452476904
0.00346915555385
0.00417242450167
0.00455824559292
0.00461890383351
0.00432054770339
0.00353431209497
0.00166102342614
0.00167237935971
0.00357404956731
0.00446464499952
0.00491289342892
0.00503068752152
0.0048833312054
0.00455071545002
0.0042122187182
0.00404934417796
0.00401496998388
0.00401718855532
0.00405016172662
0.00419397274442
0.00448603440145
0.00479212364323
0.00494727699976
0.00487343727846
0.00448654197739
0.00363251926798
0.0016906724494
0.00169145173032
0.00363372974805
0.00456682875643
0.00508676413255
0.00531374970635
0.00533118500573
0.005222590164
0.00509742714393
0.00502915626263
0.00501590162057
0.00502097458756
0.00504263594974
0.00510482091961
0.00520840571221
0.00530361344837
0.00529872113786
0.0051108276146
0.00463746695206
0.00371594730535
0.00171225113335
0.00169055564401
0.00364409364441
0.00459702424394
0.00516285750834
0.00547218950354
0.00559937348843
0.00561854231579
0.00560129884253
0.00559277093373
0.00560354212655
0.00561139559862
0.00562168567688
0.00563905528756
0.00565439782216
0.00563831817525
0.00553109979521
0.00525597250002
0.00471334206633
0.00374269166006
0.00171107672821
0.0016577938993
0.00357363306981
0.00451470188299
0.00509055701005
0.00543771027797
0.00562868091878
0.00571972177696
0.00576150330294
0.00578944144547
0.00581359290422
0.00582677635108
0.00583298704858
0.00582989123442
0.00580419030249
0.00573014834789
0.00556127894029
0.00523228609953
0.00465242965676
0.00367121753856
0.00167578898892
0.00157678009594
0.00338561181213
0.00427837420253
0.00483055440525
0.00517182654834
0.00537624229315
0.00549220835978
0.00555980813337
0.00559851095794
0.00562425841966
0.00564044599093
0.00564774302652
0.00564012692435
0.00560191720469
0.00550735879341
0.00531698474678
0.00497496824957
0.00440277218689
0.00346704070269
0.00159052377139
0.00142869936173
0.00303254915248
0.00382741840768
0.00431976197813
0.00462778013397
0.00481549885164
0.00492474301378
0.00498696850825
0.00502319820892
0.00504593095264
0.00506015061579
0.00506597755187
0.0050568645444
0.00501795170534
0.00492561344097
0.00474566194705
0.00443135840264
0.00391778934446
0.00308790699421
0.00143545097299
0.00118354332492
0.00242806058491
0.00305314816949
0.0034394288179
0.00368035682449
0.00382622674508
0.00391091713699
0.00395805234524
0.00398390424276
0.00399844508365
0.00400632691508
0.00400763503682
0.00399700613933
0.00396296389515
0.0038871528493
0.0037436535967
0.00349721522563
0.00309671718233
0.00244937972981
0.00118043675447
0.000818531048371
0.001204184963
0.00145818641725
0.00161682426858
0.00171502717655
0.00177350418954
0.0018063474596
0.00182316648587
0.00183016320507
0.00183202863837
0.00183083366623
0.00182677417275
0.00181761294573
0.00179988436022
0.00176574661466
0.00170550650779
0.00160479048141
0.00144223171868
0.00118379095398
0.000805392272838
0.000914180027812
0.00135328627124
0.00163456796253
0.00179393574704
0.00186969976395
0.00189189258047
0.00188955416268
0.00187993403484
0.00187005409095
0.00186254224108
0.00185859972759
0.00185757075442
0.00185984773528
0.00186346280378
0.00185945812956
0.00183096768905
0.00175246281006
0.00159302560732
0.00131207707904
0.000876772954328
0.00135864066676
0.00272500424855
0.00338084868765
0.00373711847303
0.00391110656138
0.00397670870186
0.00398440860318
0.00396266349808
0.00393534292465
0.00391801412317
0.00391415654643
0.00392112934628
0.00393680382061
0.00395320883182
0.00394781517387
0.00388109910508
0.00370848323934
0.00335800497429
0.00271149905612
0.00133364750598
0.00164235375878
0.00338663128809
0.00420227387946
0.00464976618205
0.00487048062213
0.00494564768206
0.00492338703339
0.00486095584211
0.0048011170774
0.00476066689648
0.0047406251861
0.00473689349311
0.00475573340989
0.00479209863309
0.00481644148891
0.00477167292731
0.00458174809567
0.00416220507241
0.0033701760507
0.00161910144802
0.00180124191715
0.0037520475641
0.00466090973113
0.00515404320881
0.00537710738639
0.00540051644162
0.0053053517924
0.00517609476664
0.00507087402551
0.0050050770673
0.00497158151703
0.00496526049761
0.005006989768
0.00509136305432
0.00517596466292
0.00518277170542
0.00502348189825
0.00459272353734
0.00373268189654
0.00177894125603
0.00187665746255
0.00393521829652
0.00488997120098
0.00538701406396
0.00556027840582
0.00548841657459
0.0052658566836
0.00502564225643
0.00485614850375
0.00476344460368
0.00471738053747
0.00471827849381
0.00480620142892
0.00499091005468
0.00519496571933
0.00529495189818
0.00519479718996
0.00478936860242
0.00391061800686
0.00185615661065
0.00190142747055
0.00400035987843
0.00496174089834
0.00542489489358
0.00551004047703
0.00527793683923
0.00481102226605
0.00432969486324
0.00405681215191
0.00394589409963
0.00389509146386
0.003908545629
0.00408465595586
0.00451986562114
0.00495972699433
0.00521353350502
0.00520250687255
0.00484290041823
0.00397434430368
0.00188449898769
0.00189913822721
0.00399718796465
0.00493861987298
0.00534548117955
0.00531520137142
0.00484851350551
0.00385726120347
0.00270551484727
0.00224355987855
0.00212906537964
0.00211251385399
0.00215789987697
0.00245919825052
0.00362709566801
0.00455548829053
0.00503229843181
0.00513270901911
0.00482806280183
0.00398136006542
0.00188966654962
0.0018868726128
0.00396951213827
0.00488306720655
0.00523318949977
0.00509417245044
0.00438863999802
0.00250649864446
0.00246128035771
0.0041377545737
0.0048580305719
0.00506117302045
0.0048024129065
0.00397338758591
0.00188644180578
0.00187752103672
0.00395302694984
0.00485057459912
0.00516967122317
0.00497452160693
0.00417208942239
0.00215426253273
0.00212885141063
0.00396049928474
0.00478746529126
0.00504287553402
0.00480488999253
0.00397936633651
0.00188729005004
0.00187938279983
0.0039687057752
0.00487164878011
0.00519567397525
0.0050052633195
0.00420837716557
0.00218957939711
0.00218417389368
0.00403428031502
0.00486355296448
0.00511102289984
0.00485881495804
0.00401495176383
0.00189808196801
0.00189529380732
0.00402242512649
0.0049548738114
0.00532240694971
0.00520077678591
0.00452315201597
0.00269919918336
0.00273050907443
0.00439952001746
0.00510570157435
0.00527708606889
0.00497174940573
0.00408531093844
0.00192057471173
0.00192350009432
0.0041052657562
0.0050871767301
0.00553069584883
0.00553851894048
0.00512431098988
0.00424014670402
0.00282236955275
0.0024733641427
0.00242158622565
0.00243727589497
0.00252248549592
0.00288539469576
0.00414095055378
0.00505639462606
0.0054935454301
0.00552612486023
0.00513418346732
0.00418447664157
0.00195399735865
0.00195589888608
0.004194307691
0.00523227068026
0.00576463589431
0.00591882468811
0.00576575364922
0.00539611091757
0.00499818697142
0.00479544164922
0.00474883649647
0.00476581232398
0.00482881398706
0.00503325830324
0.0054133555175
0.00576793263626
0.00592738077131
0.00580454522822
0.00531360251715
0.00429203358603
0.00199012816623
0.00197775467445
0.00425643814753
0.00533907901543
0.00595097588265
0.00623038560769
0.0062666230047
0.00615411889049
0.00601877884686
0.00593733192916
0.00591965880289
0.00593815304009
0.00598321870904
0.00607794677105
0.00621254812671
0.00632092719195
0.00629626962684
0.00604506265195
0.00546214774681
0.00437433829337
0.00201420976632
0.00197281632028
0.00425797452647
0.00535818532032
0.00601858411492
0.00638892661894
0.00654948854557
0.00658132004888
0.00656656979572
0.00655570173047
0.00656626486968
0.00658387656966
0.00661113253964
0.00664785449768
0.00667621559643
0.00665507358225
0.0065135121375
0.00616790906985
0.00551720714161
0.00438741827683
0.00200821857144
0.00192810230533
0.00416382719546
0.00524686531944
0.00591537129317
0.00632595153627
0.00655654482649
0.00666907550237
0.00672078672114
0.0067535772521
0.00677871473279
0.00679934745462
0.00681616384591
0.00682225252322
0.00679761390628
0.00670759624376
0.00649780892696
0.00609884346426
0.00541781601204
0.00428733758215
0.00195933129338
0.00182514956879
0.00393369006441
0.00496003115932
0.0056004753142
0.00600470653746
0.00625023765921
0.00639196010814
0.00647042784659
0.00651620566617
0.00654721440441
0.00656926189036
0.00658186086289
0.00657594020308
0.00653096918199
0.00641504434483
0.00618305308263
0.00577586752929
0.00511054504186
0.00403519781008
0.00184942369039
0.00164037979493
0.00351372147131
0.00443265816086
0.00500732755158
0.00537280606661
0.0055988344209
0.00573262208534
0.00580952125393
0.00585477074739
0.00588347562222
0.0059020228891
0.00590988955122
0.00589835775475
0.00584911786133
0.00573424883259
0.00551519508285
0.00514123642094
0.0045413684001
0.00358199680184
0.00165360199536
0.00133575500986
0.00280369461139
0.00353848801501
0.00399752717049
0.00428805229023
0.00446675762574
0.00457245126473
0.0046326334035
0.00466661419363
0.00468624195857
0.00469709339051
0.00469884923039
0.00468455238449
0.00464020897083
0.00454425483086
0.00436683682196
0.00406817229049
0.00359115411426
0.00282965563644
0.00133518374372
0.000880868154193
0.00135956312548
0.0016747431236
0.00187307868306
0.0019973717924
0.0020725945337
0.00211578723657
0.00213870357658
0.00214960382383
0.0021536901784
0.00215359954911
0.00214919611849
0.00213860539034
0.00211541077968
0.00207176864057
0.00199423046911
0.0018657738256
0.00166096509524
0.00133838777524
0.000867413917296
0.000966611739406
0.00146616738175
0.00178810022675
0.0019724600261
0.0020615762744
0.00208818867191
0.00208408316336
0.00207010269786
0.00205556078923
0.0020445609204
0.0020392431489
0.00203967187701
0.00204498999934
0.00205206629174
0.00204943021543
0.00201623463827
0.00192402784035
0.00173946831289
0.00141746798204
0.000919798360609
0.00147188232618
0.00298484967246
0.00371868633586
0.00412285462588
0.00432294958147
0.00439736600251
0.00440114035886
0.00437011386345
0.004332688403
0.00430844491307
0.00430358802589
0.00431670749367
0.00434354965451
0.00437084647914
0.00436913583452
0.00429316062523
0.00409409714561
0.00369605305911
0.00297326068839
0.0014426114189
0.00179648615327
0.00372533869617
0.00463199052438
0.00513380884197
0.00538219681257
0.00546428666142
0.0054353909829
0.00535805724131
0.00528312736936
0.00523324082504
0.00521303475314
0.00522048413621
0.00525605415521
0.00530845001136
0.00534144489345
0.00528869401296
0.00506827664703
0.00459304737262
0.00371186476444
0.00177113497622
0.00198071438636
0.0041410196497
0.00514927169709
0.00569923394793
0.00594905129114
0.00597481222327
0.00586334735264
0.00570902061397
0.00558124427473
0.00550297432488
0.00547133940541
0.00548296036017
0.00554987161963
0.00565937614337
0.00576203368525
0.00576692434482
0.00557750568379
0.00508607057993
0.00412707660204
0.00195811753256
0.00207017543547
0.00435604403621
0.00541617748918
0.00597068487849
0.00616711865717
0.00608763811765
0.00583463921685
0.005553544397
0.00535056819122
0.00524142448624
0.00520108215143
0.00522740032836
0.00535420309198
0.00557396639898
0.00581208904732
0.00592097574948
0.00579480546173
0.00532642218469
0.00434056593054
0.00205123533736
0.0021011936964
0.00443953580692
0.00550967503842
0.00602913477979
0.00613028097004
0.0058761727005
0.00535224848246
0.00478664420673
0.00445461565519
0.00431762265342
0.00427572954335
0.00432787197538
0.00457000619993
0.00506887062722
0.00557964507966
0.00585961229875
0.0058296757978
0.00540778649348
0.0044268572051
0.00208782869789
0.00210051146668
0.00444470437659
0.0054961005793
0.00595637672003
0.00593445440947
0.00542426144915
0.00429955814084
0.00292302476238
0.00235893587214
0.00221173469731
0.00219330636118
0.00227158246159
0.00268627309905
0.00403367691615
0.00516080488098
0.00568448239209
0.00577313245117
0.00540818685595
0.00444667194559
0.00209709626107