/*--------------------------------*- C++ -*----------------------------------*\
| =========                 |                                                 |
| \\      /  F ield         | OpenFOAM: The Open Source CFD Toolbox           |
|  \\    /   O peration     | Version:  v1606+                                |
|   \\  /    A nd           | Web:      www.OpenFOAM.com                      |
|    \\/     M anipulation  |                                                 |
\*---------------------------------------------------------------------------*/
FoamFile
{
    version     2.0;
    format      ascii;
    class       volScalarField;
    location    "4.4";
    object      k_0;
}
// * * * * * * * * * * * * * * * * * * * * * * * * * * * * * * * * * * * * * //

dimensions      [0 2 -2 0 0 0 0];

internalField   nonuniform List<scalar> 
11640
(
0.000458016419362
0.000546901573458
0.000604712123551
0.00063771801975
0.000654077480388
0.000658931106793
0.000656211049167
0.000649590244938
0.000640944998838
0.00063159959302
0.000621783386445
0.000613279131198
0.000608873982758
0.000608856683038
0.000608899851757
0.000604147556271
0.000589956388751
0.00056062964684
0.000508965867394
0.000431916085131
0.000549046381189
0.000894753009297
0.00108518140049
0.00119304115186
0.0012525147203
0.00127847943228
0.00127895766002
0.00126279866283
0.00124108011141
0.0012194793763
0.00119961951977
0.00119382204549
0.00120424096575
0.00121543983988
0.00121621040135
0.00119474692268
0.00114169026336
0.00104051045941
0.000854261792069
0.000515036213416
0.000607478734349
0.00108566064301
0.00135785009245
0.00152851248761
0.00162854523665
0.00166664335758
0.00165430834499
0.00161319066712
0.00156428491246
0.0015153433894
0.00147278394225
0.00148299899722
0.00150842010881
0.00153554627396
0.00154947498848
0.00152891332729
0.0014533967041
0.00130409312157
0.00104239242235
0.00056805933553
0.000640208669771
0.00119858829551
0.00153925280691
0.00175996069627
0.00187783446644
0.00190428147861
0.00186188149685
0.00178420605195
0.00170127997684
0.00161990367145
0.0015618832274
0.00158821760166
0.00163289152024
0.0016856873603
0.00172520617233
0.00172018742256
0.00164214508891
0.0014645310551
0.00115054327536
0.000598135820166
0.000658871345918
0.00127264547361
0.00166242455834
0.00190570010892
0.00201572137847
0.00200956500054
0.00192024389431
0.0017970292595
0.00167812737533
0.00156728858234
0.00150717528543
0.00154611269307
0.00161457600759
0.00170685166998
0.00178912647652
0.0018152657484
0.00175018690625
0.00156397358817
0.00121782992877
0.000616627958129
0.00067027664671
0.0013168389131
0.00172936351361
0.00196911269902
0.0020481531727
0.00198490911266
0.00181972518271
0.00163443243736
0.00148314708732
0.00135358064432
0.00129928875691
0.00134613436187
0.0014427133078
0.00160084804372
0.0017564905136
0.00183494559475
0.00179752902732
0.00161697339074
0.00125746338322
0.000630142149186
0.000673438939006
0.0013306912421
0.0017443360523
0.00196533343808
0.00199830820401
0.00185115629929
0.00156391922078
0.00127843750368
0.00110425362443
0.000984569986888
0.000972615081816
0.00101719995388
0.00113580971451
0.00138154319229
0.00164794334124
0.00179936311345
0.00180079769994
0.00163473609106
0.00127406803669
0.000637841037998
0.000668990064851
0.00132287062083
0.00172696598694
0.00192519722279
0.00191505678936
0.00169247261687
0.00128417322198
0.00094536377868
0.000785429169225
0.000709402827715
0.000689879997579
0.000732155479746
0.000860700553305
0.00115225223691
0.00152176972445
0.0017414595212
0.00177969725205
0.00162979507624
0.00127422931447
0.000639201320108
0.000661750431446
0.00131067367585
0.00170634062224
0.00189014206211
0.00185593307871
0.00159399159291
0.00113959777536
0.000790892136993
0.000631141399545
0.00057125921781
0.000562249067732
0.000604214692781
0.000738047957249
0.00104204667205
0.0014547988555
0.00170850115428
0.00176677738496
0.00162554423352
0.00127277092597
0.000638938901378
0.000655566707612
0.0013059058988
0.00170202416348
0.00188391709471
0.00184554602949
0.00157664305815
0.0011089675228
0.000749099262757
0.000591599538587
0.000541075841287
0.000536919828687
0.000580789911251
0.000721412169536
0.00103798956429
0.00146449408388
0.00172291299102
0.00178097640607
0.00163629707718
0.00127871355597
0.000639745405246
0.000651380508196
0.00131207463511
0.00171694273642
0.00191149020633
0.00189180510277
0.00164913854531
0.00120506416688
0.000835967507805
0.000683647179059
0.000626287737959
0.00061874523201
0.000668097113765
0.000814962897323
0.00114575211115
0.00155512269463
0.00178918854101
0.00182605256173
0.00166487298246
0.00129396295054
0.000642207339316
0.00064713486498
0.00132234104618
0.00174404938503
0.00196408086853
0.00198993841037
0.00182883463736
0.0015114694508
0.00120385446694
0.00105377351944
0.000974880437014
0.000912370730056
0.000982784089356
0.00114285760101
0.00144084753854
0.00174428823299
0.00190567762238
0.00189687361417
0.00170634468651
0.00131453549586
0.000644328380894
0.000638791151608
0.00132238712402
0.00175933588412
0.00201019378778
0.00208846829587
0.00201522022105
0.00182867794339
0.00162246077227
0.00148680019875
0.00138289680124
0.00136914183407
0.00145817116391
0.00159456662201
0.00178541481696
0.00195882676919
0.00203151436243
0.00196700756596
0.00174251106254
0.00132951265072
0.00064255986808
0.000626877008597
0.00130291499531
0.00174081364267
0.00201630708954
0.00214220520934
0.00214218030382
0.00205381416025
0.00193713789798
0.00183509443862
0.00174565204853
0.00175357416192
0.00183127958301
0.00192812203248
0.00203693040824
0.00211692748703
0.00211706564737
0.002004551879
0.00175327982987
0.00132942266476
0.000636587124848
0.000617530380477
0.00126887580934
0.001684150927
0.00196382441998
0.00212271290591
0.00217550405209
0.00215012869807
0.00208681068202
0.00201909489361
0.00196005739527
0.00199224448156
0.00204922818848
0.00210928598167
0.00216342690539
0.00218362772041
0.00213523868808
0.00199179251153
0.00172951701583
0.00131338045636
0.000629745167577
0.000609243521292
0.00123054665645
0.00159884435279
0.00185213835835
0.00201641307108
0.0020984368323
0.00211478710497
0.00209345903372
0.00206286063949
0.00204917555654
0.00207768712977
0.00211161677282
0.00214253804363
0.00216102122348
0.00214555382967
0.00207160969942
0.00191895241794
0.00166886198237
0.00128086399196
0.000620907384519
0.000592356454206
0.00117279157056
0.00150151701408
0.00170108606302
0.00183789246237
0.00192033513879
0.00195615552694
0.00196239915411
0.00196640626318
0.00198112855256
0.00199976056739
0.00201642593913
0.00202862603262
0.00202770165764
0.00199733468721
0.00192059140251
0.00178396962928
0.00156794602456
0.00121760512516
0.000603002225434
0.000560725087158
0.00106009402583
0.00134457839299
0.00151542473716
0.00161899647397
0.00168020412889
0.00171555041664
0.0017360618853
0.00174916872376
0.00175902213345
0.00176696007186
0.00177308545724
0.00177556728822
0.00176829194508
0.00174060067831
0.00168087707
0.00157493957252
0.00139695677703
0.00109709086155
0.000569115831398
0.000507744940551
0.000861790307723
0.00106539852126
0.00118814834478
0.00126288151709
0.00130722064537
0.00133228373726
0.00134564498698
0.00135277769786
0.00135680375018
0.00135972459803
0.00136188774762
0.00136189688507
0.00135642818056
0.00133876379497
0.00129967144201
0.0012263438169
0.00109944564705
0.000884393683682
0.00051162241439
0.000431008677403
0.000515371893744
0.000571922271646
0.000606407852535
0.000627045552411
0.00063872687169
0.000644947775761
0.00064750975748
0.00064822101692
0.000648006267094
0.000647541658939
0.000646802407002
0.000645742392914
0.000643181642589
0.000637772290716
0.000626768277975
0.000606372088082
0.000571253045858
0.000513119937329
0.000428570055651
0.000736432851285
0.000985593597595
0.00114498459512
0.00123323653378
0.00127245513369
0.00128143182799
0.00127935831875
0.00127636184473
0.00127402563954
0.00127219107011
0.00126967948412
0.00126372420491
0.0012576335785
0.00125381587117
0.00125042098651
0.00123812075647
0.00119835570478
0.00111132420444
0.000954656991328
0.00071431590026
0.000989669842526
0.00187299050531
0.00230300047256
0.00252733675563
0.00263044418268
0.00266813360566
0.00267566169059
0.00266978375851
0.00266184343183
0.00265896754062
0.00265711309608
0.00264671422693
0.00263661499719
0.00263248322673
0.00262448938825
0.00258993897501
0.00249481738494
0.00227887613368
0.00185406065012
0.00096851712997
0.00115073147077
0.0023057389249
0.00286046562304
0.00315619281318
0.00329781099809
0.00334811814914
0.00334065344408
0.00331103878532
0.00328479042568
0.00326623811605
0.0032459768872
0.00320653324821
0.00318320519136
0.00317857215696
0.00318366420106
0.00316648819968
0.00306978531553
0.0028152579018
0.00228346688988
0.00112698425552
0.00123760815768
0.00253328104114
0.00315862373696
0.00349112833201
0.00363839095732
0.00365556840789
0.00360114656128
0.003530552205
0.00347773685723
0.00344193034337
0.00340089931313
0.00334383211767
0.00331719280585
0.00333013501186
0.00336586606484
0.00338038649115
0.00331179995122
0.00306657686641
0.00250127201821
0.00121173375672
0.00127517718964
0.00263648571517
0.00329285500496
0.0036282022348
0.0037412515361
0.00369619623034
0.00356035671617
0.00342038951206
0.00332878709031
0.00327277927961
0.00321398032775
0.00314847830211
0.003140895031
0.00321327573134
0.00331958683482
0.00338985881123
0.00336133048795
0.00314470318133
0.00258665087737
0.00124764726489
0.00128449367926
0.00266220393277
0.0033186006672
0.00362697150457
0.00367840163428
0.00352647767584
0.00324067005829
0.00297746910169
0.00283326281911
0.00276142418337
0.00269111020174
0.00262572437004
0.00266637454924
0.00287482963698
0.00312294977538
0.00328817827983
0.00331643786055
0.00313446276032
0.00259803373363
0.00125660756099
0.00127956368573
0.0026462386603
0.00328300938538
0.00354779197863
0.00351511270417
0.00320557772849
0.00265455597664
0.00215365590383
0.00195887895885
0.00191734206369
0.00185082034728
0.00179678018336
0.00190958095306
0.00234701019316
0.00283435427975
0.00313959173296
0.0032414285008
0.00309714934688
0.0025822187012
0.00125484482952
0.00126952689537
0.00261827101932
0.00323089758726
0.00345196774494
0.00333981594225
0.0028816333555
0.00203292871894
0.00140359971013
0.00121960465122
0.00122557505261
0.00122112434449
0.00119892332812
0.00134318349538
0.00184080458259
0.00256086955395
0.00300662082552
0.00317743819034
0.00306538996253
0.00256599104515
0.00125015112056
0.00126112395165
0.00260035884329
0.00319784292294
0.0033929272019
0.00323744003606
0.00270777421387
0.00176797031861
0.00113599112337
0.000927412159545
0.000925993188801
0.000924704373641
0.000914779087763
0.00107892573853
0.00160669802686
0.00242778263748
0.00294494516973
0.00315363664519
0.00305729322171
0.00256259528829
0.00124811240982
0.0012585863561
0.00260406665861
0.00320227517546
0.00339665652423
0.00323953750432
0.00270626978354
0.00176008996417
0.00111672255489
0.000902791097082
0.000901500735489
0.000903977660466
0.000890356188086
0.00106143879056
0.00161345533889
0.00245726832973
0.00298143126587
0.00318774955357
0.00308388920116
0.00257850615353
0.00125098195049
0.00126389652351
0.00263348745226
0.00325012221892
0.00347127583927
0.0033562140779
0.00288917301571
0.00203465904212
0.00138776237872
0.00118469662708
0.00118923287672
0.00119261371676
0.00116176996704
0.00131990625414
0.00188509046681
0.00266311179051
0.00312556640502
0.0032873744439
0.00315064370568
0.00261784366201
0.00126049180253
0.00127653950607
0.00268546129354
0.00333648670481
0.00360831091626
0.00358120064194
0.00327711348099
0.00272361602362
0.00215609102997
0.00196518811116
0.00196458149142
0.00198800259379
0.00196085175195
0.00210879074433
0.00256405869369
0.00307589562373
0.00337941566099
0.00345223256806
0.003259027298
0.0026820415276
0.00127686518183
0.00129294739648
0.00274812204318
0.00344184137961
0.00377556291712
0.00384534189575
0.00371030841627
0.00343275584534
0.00315716014999
0.00304215962406
0.00302559694663
0.00301100027423
0.00301034532419
0.0030983877908
0.00331121806384
0.00355253602433
0.00368867651662
0.00366144360929
0.00340021268048
0.00276568527273
0.00129743685414
0.00130640308641
0.00280051261799
0.0035332788023
0.00392727117389
0.00408434613244
0.004080761071
0.00398446299885
0.00388241285015
0.00383663894636
0.00383253828428
0.00381837733135
0.00380768247347
0.00383249660417
0.00390129985741
0.00397761678204
0.00399000080303
0.00387577816941
0.00354457056494
0.00284641413136
0.00131441306329
0.00130804465842
0.00281701719974
0.00357203576479
0.0040090009256
0.00423727593055
0.00432293581552
0.0043304568838
0.00431597771404
0.00431469539202
0.00432926684055
0.00432094606304
0.00430653427142
0.00429872523434
0.00429797804563
0.00428617133216
0.00421947841488
0.00403554772226
0.00364065368549
0.0028866817178
0.00131682207202
0.00128807684214
0.00277212255771
0.00352159170674
0.00397193562527
0.00423547558134
0.00437626650116
0.00444251728026
0.00447460465649
0.00449933685628
0.00452472235444
0.00452546719864
0.00451560959488
0.00449925566452
0.004470886095
0.00441601105642
0.00430022137746
0.00406606884111
0.00362631570783
0.00284782138017
0.00129618318359
0.00123348630541
0.00263453711454
0.00334703746251
0.00378013127864
0.00404025768226
0.00419346759185
0.00427920225396
0.00432990095618
0.00436608704713
0.00438533367337
0.00439371284207
0.00439399902371
0.00438384858555
0.00435370050577
0.00428623676288
0.00415016148438
0.00389511632693
0.00344913387136
0.00270166246461
0.00124049263997
0.00113203879494
0.00236635189972
0.00299533708291
0.00337885284698
0.0036136843597
0.00375481430156
0.00383521305274
0.00387981280639
0.00390618042047
0.00392244346084
0.00393230527472
0.00393659060619
0.00393124898936
0.00390565632198
0.00384167042785
0.00371109469048
0.00347335766352
0.00307316579508
0.00241525536098
0.00113555188126
0.000964181888843
0.00190013938029
0.00238089848292
0.00267366458196
0.00285280204907
0.00295916068209
0.00301933896078
0.00305157166703
0.00306886186485
0.00307830451522
0.00308388039393
0.00308590862461
0.00308078138497
0.00306003560297
0.00300901587454
0.00290721487999
0.00272557394438
0.0024222683392
0.00192273757326
0.000960768407785
0.000717179877705
0.000980593368866
0.0011550507047
0.00126298189189
0.00132840019937
0.00136648631849
0.00138719759481
0.00139700994431
0.00140009425697
0.00139993247869
0.00139827309394
0.00139475610688
0.00138895516517
0.00137790037292
0.00135632424551
0.00131723879729
0.001250648482
0.00114071015517
0.00096373302662
0.00070444956673
0.000850135054786
0.0012103129229
0.00144010634065
0.00156865097686
0.00162794029296
0.00164403369066
0.00164232540469
0.0016365934671
0.00163120528339
0.00162725706416
0.00162449045635
0.00162141638597
0.00161983729119
0.00161968902162
0.00161514426023
0.00159349690454
0.00153203148631
0.00140368874938
0.00117500094727
0.000821352943287
0.00121532059901
0.00239024968832
0.00295189176608
0.003251159492
0.00339346035273
0.00344652064645
0.0034556353019
0.00344279975319
0.0034261081032
0.00341694739535
0.00341457184169
0.00341465857403
0.0034184310982
0.00342437777949
0.00341698116056
0.0033632461517
0.00322307710839
0.002929230006
0.00237422251523
0.00119323901162
0.0014472986815
0.00295651464435
0.00366405813705
0.00404648047657
0.004232094863
0.0042966305105
0.0042816008264
0.00423577637503
0.00419314895944
0.00416408517524
0.0041449611421
0.00412761823611
0.00412877356794
0.00414714813232
0.00416253780377
0.00412903767185
0.00397709879388
0.00362403434943
0.00293738008841
0.00142479192373
0.00157483490144
0.00326233393393
0.00405334519889
0.00447750808715
0.00466682387099
0.00468685834248
0.00461076198296
0.00451014751828
0.00443093027056
0.0043799994936
0.00434511638546
0.0043194062985
0.00433230957492
0.00438658155321
0.00444987565144
0.00445974277333
0.00433793348163
0.00398102399038
0.00323814047741
0.00155165034295
0.00163293274873
0.00340861163573
0.0042382138978
0.00466518913965
0.00481025717788
0.00474871441901
0.00456515291317
0.0043727487602
0.00423998802943
0.00416265698106
0.00411012776271
0.00408260800889
0.00412898804251
0.00427244803968
0.00443603541055
0.00452456259083
0.00445568115702
0.00412680577673
0.00337538844334
0.00160988596733
0.00164994352495
0.00345341833469
0.00428561893597
0.00468043291715
0.00474715031352
0.00454655754288
0.00416100340535
0.00379570812139
0.00358479977774
0.00347907296119
0.00340491191886
0.0033702784698
0.00348218334663
0.00384137252593
0.00420523792259
0.00442565020315
0.00443507458158
0.00414990357413
0.00341452006672
0.0016286594107
0.00164572581553
0.00344196351921
0.00425312941167
0.00459547454972
0.00455735486262
0.00415255682536
0.00337144281738
0.00258337785755
0.00225862541779
0.00215218808579
0.00206517104036
0.00202626730551
0.00224378463811
0.00309651685549
0.00383055142188
0.00424679825397
0.00435604914103
0.00412120305435
0.00340923393616
0.0016297092814
0.00163409380375
0.00341259793589
0.00419651567136
0.00448648267259
0.00435031307741
0.00374555773429
0.0024133073044
0.00131277045769
0.000995499982504
0.000955151726489
0.000961255066641
0.00100987528508
0.00126183157675
0.00225054743085
0.00344729369405
0.00407839623457
0.00428186362488
0.00408927394695
0.00339540450705
0.00162478484451
0.0016250840196
0.00339483744146
0.00416251699968
0.00442296987578
0.00423515216188
0.00354215977168
0.00208427151939
0.00104260838522
0.000705603370292
0.000648835409385
0.0006587874949
0.000717220007889
0.000983200901381
0.0019206366212
0.00327139117796
0.00400431398912
0.00425753653803
0.00408474815448
0.00339554579143
0.00162352336424
0.00162501325905
0.00340488820998
0.00417598521681
0.00443906466916
0.00425349085137
0.00356248959169
0.00210780513596
0.0010648433577
0.000729506275891
0.000670953057764
0.000671270372739
0.000714891565708
0.000977702347497
0.00194393220427
0.00332151197565
0.00406136645686
0.00430952047572
0.004125495053
0.00342137825187
0.00163021617157
0.00163641113124
0.00344790137818
0.00424429075109
0.00454461673071
0.00441772583261
0.00382557198399
0.00253647760026
0.00145740582352
0.00113612043157
0.00109175359691
0.00109104079746
0.00110101227057
0.00132619050971
0.00238482640715
0.00362819254233
0.00426500467246
0.00444794432401
0.00421843429115
0.0034776789456
0.00164657524895
0.00165822680405
0.00351812284118
0.00435839433981
0.00472541523237
0.0047126094967
0.00434106844943
0.00361632907514
0.00268125500516
0.00239297541429
0.00238452378212
0.00243982509452
0.00250238889982
0.00276216618523
0.0035013298092
0.00421593035422
0.00460596434597
0.00466461764693
0.00435899289789
0.00356188474189
0.00167209733546
0.00168450161348
0.00359785893361
0.0044896379255
0.0049352634312
0.00504932616005
0.00489862422243
0.00456306427979
0.00422299789018
0.00406252563091
0.00403204666999
0.00403874723751
0.00407635875332
0.00422651475621
0.00452647670096
0.00483940201984
0.00499680553221
0.00491968733044
0.00452525156368
0.0036603320476
0.00170183251752
0.00170372159304
0.00365875605421
0.00459450005064
0.00511323138026
0.00533771035471
0.00535317969936
0.00524387347313
0.00511943463785
0.00505371592348
0.00504397202229
0.00505307279291
0.00507883806957
0.00514577196223
0.00525439661106
0.00535325983262
0.00534843375728
0.00515624457646
0.00467533223374
0.0037433995629
0.00172335162067
0.0017027539804
0.00366986719994
0.00462710754757
0.00519341602841
0.00550180631447
0.00562817523449
0.00564767268972
0.00563190873625
0.00562572942193
0.00563959104741
0.0056503962533
0.00566368060123
0.00568419288659
0.00570238843964
0.0056875603933
0.00557877242106
0.00529917689399
0.00474930221313
0.00376924578546
0.00172199440564
0.00166965207991
0.00359920868833
0.00454573404016
0.00512369655192
0.0054712838591
0.00566241725598
0.00575412151931
0.00579715532361
0.00582653609283
0.00585300495417
0.00586805594419
0.00587609793161
0.00587479850481
0.00585044102196
0.00577639069617
0.00560530432249
0.00527178803709
0.00468568478423
0.00369633907464
0.00168642114577
0.00158798083637
0.00340981086398
0.0043082366556
0.00486354882771
0.00520610097406
0.00541121158719
0.00552781130705
0.00559641287117
0.0056359432347
0.00566264935203
0.00567981095269
0.00568807799061
0.0056813335588
0.00564351273062
0.00554818817462
0.00535553435324
0.00500986785998
0.00443276526047
0.00349014121091
0.0016006053035
0.00143884865149
0.00305415871738
0.00385403063178
0.00434926778663
0.00465889732326
0.0048474962958
0.0049572469212
0.00501980547154
0.0050563510798
0.0050794528594
0.00509408166785
0.00510032812387
0.00509154260089
0.00505261820018
0.00495956182474
0.00477796983204
0.00446108932351
0.00394377014497
0.00310810268485
0.00144453091597
0.00119208101352
0.0024452357004
0.00307412415272
0.00346257663177
0.00370469422485
0.00385115835193
0.00393613212268
0.00398340354165
0.00400936925432
0.00402405848666
0.00403213314221
0.00403364506578
0.00402314913391
0.00398903743227
0.00391277979989
0.00376827170593
0.00352007568818
0.00311681379021
0.00246512488891
0.00118792559578
0.000824784582655
0.00121273239422
0.0014681192198
0.00162745081473
0.00172592816077
0.0017844364937
0.00181718854173
0.00183388237316
0.0018407513109
0.00184253766886
0.00184131666861
0.00183728165618
0.00182817031041
0.00181048183669
0.00177629942089
0.00171583184123
0.00161458614493
0.00145106153774
0.00119109723464
0.000811119950913
0.000921121186704
0.00136351238741
0.00164662335166
0.0018069257499
0.00188292417502
0.00190490961963
0.00190235725945
0.00189270934416
0.00188290882407
0.00187547771902
0.00187161213887
0.00187064674061
0.00187301440228
0.00187673839199
0.00187277246053
0.00184415304162
0.00176509479744
0.00160448052221
0.00132159806861
0.000883465381181
0.00136908826749
0.00274561426236
0.00340564026826
0.00376352325979
0.00393742005357
0.00400216901717
0.0040093015037
0.00398786169635
0.0039610854716
0.00394433143581
0.00394103780284
0.00394850417964
0.00396452575576
0.00398126524388
0.0039764938913
0.00390972334167
0.00373585272721
0.00338271692289
0.00273123071826
0.00134345330256
0.0016547404432
0.00341143563205
0.00423160678326
0.00468005840392
0.0048996467712
0.00497384416858
0.00495161312116
0.00488975690816
0.00483079868678
0.00479127539484
0.00477214445505
0.00476911069539
0.00478903630874
0.00482644130748
0.00485140155827
0.00480682592053
0.00461556608755
0.00419233464582
0.00339417707318
0.00163071838748
0.0018145562726
0.00377863083236
0.0046914631542
0.00518463335353
0.005406560942
0.00542926480957
0.00533454127917
0.00520645891102
0.00510272348002
0.0050384053084
0.00500633540063
0.00500148519327
0.00504512743218
0.00513102304656
0.00521645654354
0.00522282089612
0.00506155661326
0.00462644147964
0.00375903171026
0.00179142012918
0.00189022699862
0.00396208766066
0.00491997786967
0.00541647903072
0.0055886197074
0.0055165416467
0.00529532068039
0.00505678095175
0.00488928713742
0.00479835859692
0.00475375386442
0.0047572509658
0.00484771396689
0.00503457894638
0.00523978087652
0.00533929812037
0.00523632107353
0.00482563134384
0.00393844064738
0.00186891096765
0.00191493530907
0.00402681068305
0.00499063480063
0.00545292051861
0.00553669402791
0.00530449809492
0.00483968456233
0.00435946081049
0.00408902622929
0.00397970335203
0.00393050822873
0.00394721839334
0.00412697275259
0.00456497968189
0.00500660288723
0.00526051736189
0.005246631227
0.00488095578263
0.00400304492411
0.00189730926464
0.00191253875294
0.00402319312908
0.00496661437361
0.0053720878848
0.00533980479406
0.00487174761127
0.00388182894475
0.0027238686246
0.00226204891762
0.00214871665152
0.00213361319985
0.00218123744932
0.00248742796838
0.00366717518019
0.00460114686738
0.00507978687822
0.00517800483243
0.00486711633692
0.00401050088592
0.00190239631929
0.00190022213872
0.00399532935924
0.00491063916867
0.0052587692833
0.0051166659687
0.00440747781607
0.00252403090544
0.00249100099085
0.00418153270308
0.00490505141
0.00510663627083
0.00484172354839
0.00400261220174
0.00189900843643
0.00189089536701
0.00397893437918
0.00487815723099
0.00519486982127
0.00499575553394
0.00418786977267
0.00216597721407
0.0021512870142
0.00400200473676
0.00483398500392
0.00508852746343
0.00484448057023
0.00400876798224
0.00189974090078
0.00189285441619
0.00399492292662
0.0048995378069
0.00522097982555
0.00502608651687
0.00422274579873
0.00219798066489
0.00220433523869
0.00407534482286
0.00491058573175
0.00515747193047
0.00489909380035
0.00404479671452
0.00191051659583
0.00190892194441
0.00404910716483
0.00498334149768
0.0053483466925
0.0052221317726
0.00453772352147
0.0027050177592
0.00275320600087
0.00444220440568
0.0051543480409
0.00532494505484
0.00501311920962
0.00411584640162
0.00193307717443
0.00193734283437
0.00413263062553
0.0051166755123
0.00555812551265
0.00556204469132
0.0051427910241
0.0042510609892
0.0028301189625
0.00248007849738
0.00243000424496
0.0024473618203
0.00253565878246
0.00290666266701
0.00417554524039
0.00510309327684
0.00554468097142
0.00557554896319
0.00517659276428
0.00421566512515
0.00196661227077
0.00196998690362
0.00422269267967
0.00526364337399
0.0057949098503
0.00594612882144
0.00578957625739
0.00541594509905
0.00501584225865
0.00481451594774
0.00477110132561
0.00479173233985
0.00485858965759
0.00506939211178
0.00545786567287
0.00581895906337
0.00598071503795
0.00585477851701
0.00535646772747
0.00432354264552
0.00200284875276
0.00199199100962
0.00428589994252
0.00537281176704
0.00598498818594
0.00626282149426
0.00629725471046
0.00618351084763
0.00604847903705
0.00596891111505
0.0059540972942
0.00597609534445
0.00602482592571
0.00612395587175
0.00626313798707
0.0063748974307
0.00635024434211
0.006094878693
0.00550433721821
0.00440549443407
0.00202685320333
0.00198690865774
0.00428798394609
0.00539381663993
0.00605595463252
0.00642632210523
0.00658645762047
0.00661841540092
0.00660472594495
0.00659569565957
0.00660881727968
0.00662895930969
0.00665892087245
0.00669851526717
0.006729384551
0.00670922185999
0.00656599398978
0.00621579421732
0.00555754701542
0.0044175793819
0.00202059670603
0.0019417363156
0.00419337171539
0.00528290176604
0.00595443561675
0.00636624707453
0.00659743736803
0.00671067163197
0.00676343327158
0.00679774539584
0.00682452677124
0.0068468089956
0.00686530368592
0.00687300252823
0.00684946097528
0.00675916668804
0.0065468707126
0.00614304586734
0.00545527926899
0.00431580382378
0.00197127495018
0.00183795460556
0.00396153295984
0.00499435837983
0.00563854600401
0.00604471058878
0.00629126277274
0.00643380323952
0.00651309119933
0.00655961783518
0.00659149373043
0.00661445632144
0.00662796879198
0.00662281120847
0.00657804078634
0.0064610787592
0.00622644098879
0.00581513978198
0.00514431595526
0.00406121443758
0.00186058682926
0.00165187132897
0.00353850814697
0.00446319263974
0.00504123544328
0.00540865986026
0.00563578020635
0.00577018143685
0.00584744915838
0.00589302301439
0.00592209301107
0.0059410479648
0.00594931584138
0.00593804154936
0.00588864111692
0.00577279845116
0.00555173395675
0.00517471621265
0.00457049931643
0.00360453503274
0.00166344994199
0.00134524000631
0.00282329729393
0.00356255362803
0.00402418121992
0.0043161415182
0.00449557269038
0.0046016066809
0.004661941646
0.00469603990566
0.00471581423729
0.0047268550688
0.00472879873545
0.00471457768699
0.0046700490415
0.00457344331645
0.00439470969704
0.00409386559757
0.00361354642689
0.00284697545731
0.00134303565258
0.000887524529097
0.0013691105108
0.0016860432214
0.00188527558988
0.00200994390327
0.00208523243789
0.00212832159239
0.00215107870199
0.00216181284057
0.00216577783369
0.00216562655804
0.00216121151716
0.00215064647227
0.00212744298425
0.00208367751802
0.00200577513708
0.00187657917985
0.00167050331441
0.00134599739284
0.000873104780984
0.000973923422091
0.00147730716653
0.00180136708721
0.0019868323039
0.00207625477207
0.0021026595837
0.00209830421384
0.00208426952253
0.00206979069673
0.00205885918205
0.00205360347418
0.00205408822086
0.00205946586003
0.00206663403293
0.00206403931609
0.0020306804633
0.00193780730546
0.00175187974422
0.00142766594852
0.000926774247815
0.00148329939469
0.00300761332866
0.00374615019218
0.00415219654073
0.00435229454274
0.00442586247213
0.0044288586603
0.00439806329072
0.00436112520024
0.00433743000517
0.00433314479184
0.00434679989566
0.00437404452218
0.00440167655431
0.00440059578375
0.00432452553208
0.00412407329212
0.00372306133213
0.00299472660135
0.00145317520318
0.00181016265576
0.0037527980641
0.00466457919703
0.00516772270004
0.00541516142698
0.00549616461828
0.00546728532682
0.00539032112008
0.00531607354392
0.00526695749457
0.00524754807217
0.00525571765666
0.00529202126637
0.00534549261745
0.00537914806975
0.00532675647877
0.00510498459813
0.00462592411512
0.00373807122169
0.00178379112082
0.00199548073255
0.00417052020197
0.00518348176043
0.00573402163904
0.00598291913876
0.00600805945649
0.00589678303961
0.0057432370379
0.00561658997321
0.00553951623553
0.00550910079999
0.00552178367147
0.00559061182441
0.0057016030022
0.00580507287377
0.00580968063405
0.00561854763285
0.00512270953783
0.00415589504283
0.00197177977113
0.00208523428853
0.00438596786917
0.00545016521855
0.00600478450832
0.00620054976545
0.00612084158328
0.00586873719891
0.00558873289012
0.00538724755399
0.00527947303954
0.00524048033332
0.00526887411895
0.00539794992886
0.00561990262184
0.00585906864334
0.00596772843703
0.00583907609839
0.00536561660481
0.00437095422635
0.00206521839999
0.00211615151109
0.00446911822327
0.00554279526952
0.00606224190067
0.00616248330193
0.00590821839156
0.00538561339485
0.0048201217267
0.0044898468631
0.00435391060433
0.00431311839809
0.00436814491611
0.00461355702703
0.00511600013746
0.0056281533345
0.00590863326151
0.00587634218886
0.00544870671716
0.00445816642988
0.00210184483885
0.00211530896912
0.00447387657667
0.00552846729419
0.00598831867719
0.00596498133008
0.00545342798855
0.00432818657546
0.00294182226731
0.00237711001114
0.0022307971192
0.00221352225304
0.00229381481958
0.00271287370793
0.00407410596368
0.00520768337499
0.00573363835267
0.00582079541722
0.00545005062194
0.0044784387718
0.00211102459517
0.0021024577218