/*--------------------------------*- C++ -*----------------------------------*\
| =========                 |                                                 |
| \\      /  F ield         | OpenFOAM: The Open Source CFD Toolbox           |
|  \\    /   O peration     | Version:  v1606+                                |
|   \\  /    A nd           | Web:      www.OpenFOAM.com                      |
|    \\/     M anipulation  |                                                 |
\*---------------------------------------------------------------------------*/
FoamFile
{
    version     2.0;
    format      ascii;
    class       surfaceScalarField;
    location    "4.4";
    object      meshPhiCN_0;
}
// * * * * * * * * * * * * * * * * * * * * * * * * * * * * * * * * * * * * * //

dimensions      [0 3 -1 0 0 0 0];

internalField   nonuniform List<scalar> 
33146
(
0
0
0
0
0
0
0
0
0
-6.58254955678e-09
2.5465004858e-08
3.85144346171e-08
-7.25379895565e-08
3.09083618022e-07
3.92796838596e-07
-1.48391158541e-07
8.72018895337e-07
9.3277140348e-07
-1.80028912641e-07
1.30405626181e-06
1.10330142809e-06
-1.80132712731e-07
1.42865523317e-06
8.7236270707e-07
-1.80236403232e-07
1.42345230531e-06
5.17949257496e-07
-1.8033998429e-07
1.41824937745e-06
1.63535807927e-07
-1.80443455724e-07
1.4130464496e-06
-1.90877641644e-07
-1.80546817711e-07
1.40784352174e-06
-5.45291091217e-07
-1.80650070137e-07
1.40264059388e-06
-8.99704540783e-07
-1.48951221945e-07
1.27540405451e-06
-1.12833068027e-06
-7.27030534895e-08
8.56537309358e-07
-9.49768497469e-07
-6.58416096612e-09
3.0656633399e-07
-3.98975259566e-07
0
2.54425528184e-08
-3.9042162755e-08
0
0
0
0
0
0
0
0
0
0
0
0
0
0
-5.34114593315e-08
2.08477264375e-07
3.65950049677e-07
-2.58618830931e-07
1.23143570788e-06
1.89506993459e-06
-5.60358171508e-07
3.10172543413e-06
4.28960273317e-06
-8.15331048202e-07
4.98807524061e-06
5.97699094279e-06
-9.14129769536e-07
6.1021178255e-06
5.91018827691e-06
-9.16122171383e-07
6.33469831425e-06
4.48207140685e-06
-9.18104589865e-07
6.23824264914e-06
2.66532204625e-06
-9.20077024956e-07
6.14178698403e-06
8.48572685656e-07
-9.22039476712e-07
6.04533131892e-06
-9.68176674936e-07
-9.23991945146e-07
5.94887565382e-06
-2.78492603553e-06
-9.25934430114e-07
5.8524199887e-06
-4.60167539612e-06
-8.28131603593e-07
5.50614688875e-06
-6.02396861041e-06
-5.68510043787e-07
4.49525256428e-06
-6.06915528362e-06
-2.61093435835e-07
2.86810141528e-06
-4.34652546514e-06
-5.35363877892e-08
1.18495714077e-06
-1.91791918525e-06
0
2.06685314919e-07
-3.70139448147e-07
0
0
0
0
0
0
0
0
-5.34025151482e-08
2.0862641946e-07
4.18528764413e-07
-3.90111720276e-07
1.604026087e-06
3.12405002703e-06
-9.83862357509e-07
4.70159369162e-06
8.59266145167e-06
-1.59189067919e-06
8.60022063384e-06
1.39068199787e-05
-2.02972862026e-06
1.19687719924e-05
1.62351414362e-05
-2.1942312376e-06
1.36982155275e-05
1.48617730641e-05
-2.20454140119e-06
1.38360192963e-05
1.10544643699e-05
-2.21473771554e-06
1.34118896441e-05
6.58687967963e-06
-2.22482018079e-06
1.29877599918e-05
2.11929498937e-06
-2.23478879675e-06
1.25636303396e-05
-2.34828970088e-06
-2.24464356354e-06
1.21395006873e-05
-6.81587439114e-06
-2.25438448114e-06
1.1715371035e-05
-1.12834590814e-05
-2.09855869427e-06
1.09811686995e-05
-1.50847803348e-05
-1.64460432509e-06
9.41438777346e-06
-1.64341337357e-05
-1.00856533193e-06
6.97356562558e-06
-1.4059082636e-05
-3.95415782811e-07
4.09256168545e-06
-8.68114761918e-06
-5.35452905907e-08
1.51090628381e-06
-3.15541654577e-06
0
2.06536204886e-07
-4.22716277883e-07
0
0
-6.58214659777e-09
2.54717317351e-08
5.7903624897e-08
-3.05341085025e-07
1.05117547145e-06
2.4749281613e-06
-1.07190966567e-06
4.35210387604e-06
9.95267879628e-06
-2.01002454918e-06
9.7502958462e-06
1.99049119731e-05
-2.84261971187e-06
1.57348610014e-05
2.72363336201e-05
-3.40535020916e-06
2.04075744512e-05
2.92485682321e-05
-3.6217872874e-06
2.24476419191e-05
2.58189601506e-05
-3.65131788689e-06
2.22056331298e-05
1.90375061823e-05
-3.6803375321e-06
2.11986323509e-05
1.1370467328e-05
-3.7088462231e-06
2.0191631572e-05
3.70342847363e-06
-3.7368439598e-06
1.9184630793e-05
-3.96361038072e-06
-3.76433074221e-06
1.81776300141e-05
-1.16306492351e-05
-3.79130657045e-06
1.71706292352e-05
-1.92976880894e-05
-3.60520744019e-06
1.58702355406e-05
-2.60774385785e-05
-3.01116215775e-06
1.38049238002e-05
-2.94984944155e-05
-2.10604772152e-06
1.09132198955e-05
-2.74611372168e-05
-1.10293762183e-06
7.4100216679e-06
-2.00725903482e-05
-3.08722777291e-07
3.74396952847e-06
-1.00391595963e-05
-6.58456372618e-09
1.00101651288e-06
-2.49742237667e-06
2.54358262049e-08
-5.84312669318e-08
-7.90597759274e-08
2.84582266284e-07
6.98170737214e-07
-7.434223785e-07
2.38184563588e-06
6.64365736522e-06
-1.85353021471e-06
7.56166712226e-06
1.92790190797e-05
-3.0256202122e-06
1.50472855577e-05
3.2658285092e-05
-3.98514566084e-06
2.27004816624e-05
4.11248255313e-05
-4.60761567417e-06
2.810239242e-05
4.223525178e-05
-4.85770890956e-06
2.99900326701e-05
3.65075851594e-05
-4.91520459153e-06
2.91892547248e-05
2.67806970607e-05
-4.97141474148e-06
2.75535545475e-05
1.60299656867e-05
-5.02633935944e-06
2.59178543701e-05
5.27923431281e-06
-5.07997844542e-06
2.42821541928e-05
-5.47149706112e-06
-5.13233199934e-06
2.26464540155e-05
-1.62222284351e-05
-5.18340002133e-06
2.10107538382e-05
-2.6972959809e-05
-5.00008218082e-06
1.91452059029e-05
-3.67045772364e-05
-4.33773008271e-06
1.67069097005e-05
-4.24489038372e-05
-3.25037682735e-06
1.36593849267e-05
-4.13565158688e-05
-1.94294960345e-06
1.00203848545e-05
-3.28722295317e-05
-7.59155686423e-07
5.88890794919e-06
-1.94222440323e-05
-7.93565121934e-08
2.15194744865e-06
-6.69787618112e-06
2.80162242731e-07
-7.04324256607e-07
-2.21087893692e-07
5.91317226263e-07
1.95948721681e-06
-1.16994164804e-06
3.58376525839e-06
1.14309067886e-05
-2.50676651114e-06
1.0116861228e-05
2.79686978601e-05
-3.81065031843e-06
1.90210017942e-05
4.371368504e-05
-4.81735494789e-06
2.75972499197e-05
5.26737898285e-05
-5.44010613127e-06
3.30326049236e-05
5.26010302741e-05
-5.69602498462e-06
3.43598755277e-05
4.47443138371e-05
-5.77965659237e-06
3.30282039111e-05
3.26671564108e-05
-5.86115798853e-06
3.09998461492e-05
1.95827433304e-05
-5.9405291731e-06
2.89714883872e-05
6.49833025e-06
-6.01777014606e-06
2.69431306253e-05
-6.58608283038e-06
-6.09288090739e-06
2.49147728634e-05
-1.96704959108e-05
-6.16586145712e-06
2.28864151015e-05
-3.27549089912e-05
-6.01863342714e-06
2.07021861233e-05
-4.48412283478e-05
-5.36381424238e-06
1.81154287395e-05
-5.273429363e-05
-4.18432800879e-06
1.5085498996e-05
-5.28650971228e-05
-2.67298537187e-06
1.15278637253e-05
-4.39345325009e-05
-1.20686875089e-06
7.30803744696e-06
-2.81477366942e-05
-2.22584643259e-07
3.0959698362e-06
-1.1516084285e-05
5.72538848109e-07
-1.97615127708e-06
-3.29829762215e-07
7.21755251089e-07
2.93145239424e-06
-1.43044054861e-06
4.06216451309e-06
1.46273894221e-05
-2.88631741757e-06
1.10881843775e-05
3.33964705067e-05
-4.25384387494e-06
2.04843614777e-05
5.0546602455e-05
-5.2677361515e-06
2.93144304334e-05
5.9680384254e-05
-5.85513174724e-06
3.45857610745e-05
5.85512998577e-05
-6.0868313413e-06
3.55071892184e-05
4.91171144241e-05
-6.18440771283e-06
3.39187526386e-05
3.56659851361e-05
-6.27937640402e-06
3.1794948814e-05
2.13949093116e-05
-6.37173741483e-06
2.96711449894e-05
7.1238334871e-06
-6.46149074529e-06
2.75473411647e-05
-7.14724233742e-06
-6.5486363953e-06
2.54235373401e-05
-2.14183181619e-05
-6.63317436503e-06
2.32997335155e-05
-3.56893939865e-05
-6.54169694913e-06
2.10626217356e-05
-4.91500188332e-05
-5.94019930449e-06
1.84876978904e-05
-5.86263606246e-05
-4.73138995597e-06
1.55003442936e-05
-5.98335145858e-05
-3.10959311813e-06
1.2000982409e-05
-5.07598658679e-05
-1.48505704623e-06
7.790006292e-06
-3.35906876026e-05
-3.32815205591e-07
3.44873794516e-06
-1.47307081736e-05
6.93966313603e-07
-2.95569132442e-06
-3.62313816407e-07
7.21755251087e-07
3.22334403923e-06
-1.50419131724e-06
4.06216451308e-06
1.55692632369e-05
-2.99488888275e-06
1.10881843775e-05
3.50160362028e-05
-4.38225502021e-06
2.04843614777e-05
5.26419643893e-05
-5.39553455776e-06
2.93144304334e-05
6.18309918045e-05
-5.95906919422e-06
3.45857610745e-05
6.02561985791e-05
-6.16861143959e-06
3.55071892184e-05
5.01916866265e-05
-6.26916446825e-06
3.39187526386e-05
3.63246992013e-05
-6.36700738463e-06
3.1794948814e-05
2.17930111917e-05
-6.46214018877e-06
2.96711449894e-05
7.2613231821e-06
-6.55456288055e-06
2.75473411648e-05
-7.2703648275e-06
-6.64427546003e-06
2.54235373401e-05
-2.18020528371e-05
-6.7312779273e-06
2.32997335155e-05
-3.63337408467e-05
-6.67321627966e-06
2.10626217356e-05
-5.02092594826e-05
-6.10498738716e-06
1.84876978904e-05
-6.03150814249e-05
-4.89179806124e-06
1.55003442936e-05
-6.1972006878e-05
-3.23612853792e-06
1.2000982409e-05
-5.28518451433e-05
-1.56460031174e-06
7.790006292e-06
-3.52137931205e-05
-3.65882552804e-07
3.44873794514e-06
-1.56774821827e-05
6.93966313606e-07
-3.2497395685e-06
-3.62313816407e-07
7.2175525109e-07
3.22334403922e-06
-1.50419131725e-06
4.0621645131e-06
1.55692632369e-05
-2.99488888276e-06
1.10881843775e-05
3.50160362028e-05
-4.38225502022e-06
2.04843614777e-05
5.26419643893e-05
-5.39553455775e-06
2.93144304334e-05
6.18309918045e-05
-5.95906919421e-06
3.45857610745e-05
6.02561985791e-05
-6.16861143959e-06
3.55071892184e-05
5.01916866265e-05
-6.26916446826e-06
3.39187526386e-05
3.63246992013e-05
-6.3670073846e-06
3.1794948814e-05
2.17930111917e-05
-6.46214018875e-06
2.96711449894e-05
7.2613231821e-06
-6.55456288054e-06
2.75473411648e-05
-7.2703648275e-06
-6.64427546006e-06
2.54235373401e-05
-2.18020528371e-05
-6.73127792726e-06
2.32997335155e-05
-3.63337408467e-05
-6.67321627967e-06
2.10626217356e-05
-5.02092594826e-05
-6.10498738718e-06
1.84876978904e-05
-6.03150814249e-05
-4.89179806125e-06
1.55003442936e-05
-6.1972006878e-05
-3.23612853793e-06
1.2000982409e-05
-5.28518451432e-05
-1.56460031168e-06
7.79000629201e-06
-3.52137931205e-05
-3.65882552781e-07
3.44873794515e-06
-1.56774821827e-05
6.93966313593e-07
-3.2497395685e-06
-3.62313816409e-07
7.21755251116e-07
3.22334403922e-06
-1.50419131724e-06
4.0621645131e-06
1.55692632369e-05
-2.99488888275e-06
1.10881843775e-05
3.50160362028e-05
-4.38225502021e-06
2.04843614777e-05
5.26419643893e-05
-5.39553455774e-06
2.93144304334e-05
6.18309918045e-05
-5.9590691942e-06
3.45857610746e-05
6.02561985791e-05
-6.16861143958e-06
3.55071892184e-05
5.01916866265e-05
-6.26916446824e-06
3.39187526387e-05
3.63246992013e-05
-6.36700738462e-06
3.1794948814e-05
2.17930111917e-05
-6.46214018876e-06
2.96711449894e-05
7.2613231821e-06
-6.55456288052e-06
2.75473411648e-05
-7.27036482749e-06
-6.64427546004e-06
2.54235373402e-05
-2.18020528371e-05
-6.73127792729e-06
2.32997335156e-05
-3.63337408467e-05
-6.67321627965e-06
2.10626217356e-05
-5.02092594826e-05
-6.10498738717e-06
1.84876978904e-05
-6.03150814249e-05
-4.89179806125e-06
1.55003442936e-05
-6.1972006878e-05
-3.23612853793e-06
1.2000982409e-05
-5.28518451432e-05
-1.56460031169e-06
7.79000629201e-06
-3.52137931205e-05
-3.65882552765e-07
3.44873794518e-06
-1.56774821827e-05
6.93966313621e-07
-3.2497395685e-06
-3.62313816406e-07
7.21755251158e-07
3.22334403923e-06
-1.50419131724e-06
4.06216451314e-06
1.55692632369e-05
-2.99488888276e-06
1.10881843775e-05
3.50160362028e-05
-4.3822550202e-06
2.04843614777e-05
5.26419643893e-05
-5.39553455775e-06
2.93144304334e-05
6.18309918045e-05
-5.95906919421e-06
3.45857610745e-05
6.02561985791e-05
-6.16861143959e-06
3.55071892184e-05
5.01916866265e-05
-6.26916446827e-06
3.39187526386e-05
3.63246992013e-05
-6.36700738463e-06
3.1794948814e-05
2.17930111917e-05
-6.46214018875e-06
2.96711449894e-05
7.2613231821e-06
-6.55456288055e-06
2.75473411648e-05
-7.2703648275e-06
-6.64427546003e-06
2.54235373402e-05
-2.18020528371e-05
-6.7312779273e-06
2.32997335155e-05
-3.63337408467e-05
-6.67321627963e-06
2.10626217356e-05
-5.02092594826e-05
-6.10498738714e-06
1.84876978904e-05
-6.03150814249e-05
-4.89179806119e-06
1.55003442936e-05
-6.1972006878e-05
-3.23612853792e-06
1.2000982409e-05
-5.28518451432e-05
-1.56460031175e-06
7.79000629202e-06
-3.52137931205e-05
-3.65882552787e-07
3.44873794519e-06
-1.56774821827e-05
6.93966313643e-07
-3.2497395685e-06
-3.30934427178e-07
5.91317226293e-07
2.94153877787e-06
-1.44144531627e-06
3.58376525838e-06
1.47626239574e-05
-2.91969987278e-06
1.0116861228e-05
3.39079252136e-05
-4.31340544857e-06
1.90210017942e-05
5.15634407761e-05
-5.34179546448e-06
2.75972499197e-05
6.09975425495e-05
-5.92099229475e-06
3.30326049236e-05
5.97223889393e-05
-6.13898320738e-06
3.43598755277e-05
4.98887328832e-05
-6.23754737477e-06
3.30282039111e-05
3.61446785145e-05
-6.33348055291e-06
3.09998461492e-05
2.16826872559e-05
-6.42678274183e-06
2.89714883873e-05
7.22069599731e-06
-6.51745394149e-06
2.69431306253e-05
-7.24129526129e-06
-6.60549415188e-06
2.49147728634e-05
-2.17032865199e-05
-6.69090337303e-06
2.28864151015e-05
-3.61652777785e-05
-6.61678710215e-06
2.07021861233e-05
-4.99187094446e-05
-6.02558632303e-06
1.81154287395e-05
-5.97953808324e-05
-4.79897272475e-06
1.5085498996e-05
-6.11512048446e-05
-3.14607352823e-06
1.15278637253e-05
-5.17793586e-05
-1.49656550328e-06
7.30803744698e-06
-3.4104424068e-05
-3.33931811182e-07
3.09596983619e-06
-1.48667141287e-05
5.72538848103e-07
-2.96584464924e-06
-2.22854395601e-07
2.84582266285e-07
1.97556267199e-06
-1.19416218292e-06
2.38184563588e-06
1.17105351154e-05
-2.58830859764e-06
7.56166712228e-06
2.91608523414e-05
-3.96647153668e-06
1.50472855577e-05
4.62540918626e-05
-5.02794913479e-06
2.27004816625e-05
5.61995636354e-05
-5.66312115056e-06
2.810239242e-05
5.6133358378e-05
-5.91345858496e-06
2.99900326701e-05
4.75499162035e-05
-6.0008639869e-06
2.91892547248e-05
3.46345390437e-05
-6.08605502535e-06
2.75535545475e-05
2.07647266428e-05
-6.1690317003e-06
2.59178543702e-05
6.89491424184e-06
-6.24979401168e-06
2.42821541928e-05
-6.97489815908e-06
-6.32834195959e-06
2.26464540155e-05
-2.084471056e-05
-6.40467554395e-06
2.10107538382e-05
-3.47145229609e-05
-6.26998923908e-06
1.91452059029e-05
-4.76400380352e-05
-5.60299137146e-06
1.67069097005e-05
-5.62643423986e-05
-4.35842300908e-06
1.36593849268e-05
-5.63957337114e-05
-2.76097675872e-06
1.00203848545e-05
-4.6483484119e-05
-1.23199448503e-06
5.88890794918e-06
-2.93458141501e-05
-2.24364717216e-07
2.15194744862e-06
-1.17973948186e-05
2.80162242682e-07
-1.99233656281e-06
-7.96016476646e-08
2.54717317456e-08
7.03080241876e-07
-7.63096540538e-07
1.05117547143e-06
6.84190973506e-06
-1.93849409785e-06
4.35210387607e-06
2.04067231997e-05
-3.21147382948e-06
9.75029584624e-06
3.54430028268e-05
-4.26680892522e-06
1.57348610014e-05
4.54371442635e-05
-4.94705237926e-06
2.04075744512e-05
4.70814835395e-05
-5.21652267013e-06
2.24476419191e-05
4.07887327545e-05
-5.27900905239e-06
2.22056331299e-05
2.99236057743e-05
-5.34011496931e-06
2.1198632351e-05
1.79153806707e-05
-5.39984042095e-06
2.0191631572e-05
5.90715556706e-06
-5.45818540725e-06
1.9184630793e-05
-6.10106953655e-06
-5.51514992822e-06
1.81776300141e-05
-1.81092946402e-05
-5.57073398397e-06
1.71706292352e-05
-3.01175197438e-05
-5.37383616939e-06
1.58702355406e-05
-4.09891026702e-05
-4.64894367111e-06
1.38049238002e-05
-4.73039412878e-05
-3.45253866744e-06
1.09132198955e-05
-4.56830430527e-05
-2.03271070612e-06
7.41002166795e-06
-3.56701858106e-05
-7.79303760116e-07
3.74396952846e-06
-2.05565704596e-05
-7.99003383565e-08
1.00101651287e-06
-6.89743397896e-06
2.54358261894e-08
-7.09268590459e-07
-6.58660078978e-09
0
5.79438383716e-08
-3.11849680519e-07
2.08626419448e-07
2.52933057485e-06
-1.12134264669e-06
1.604026087e-06
1.05088712233e-05
-2.14691756017e-06
4.70159369164e-06
2.17192812127e-05
-3.08173156307e-06
8.60022063384e-06
3.05265446218e-05
-3.72223134615e-06
1.19687719924e-05
3.33646350388e-05
-3.96888395525e-06
1.36982155276e-05
2.96968044533e-05
-4.00168007965e-06
1.38360192964e-05
2.19415280522e-05
-4.03392043456e-06
1.34118896441e-05
1.31087021293e-05
-4.06560502005e-06
1.29877599918e-05
4.27587620647e-06
-4.09673383601e-06
1.25636303396e-05
-4.55694971639e-06
-4.12730688246e-06
1.21395006874e-05
-1.33897756392e-05
-4.15732415949e-06
1.17153710351e-05
-2.22226015621e-05
-3.94373936043e-06
1.09811686995e-05
-2.99766874026e-05
-3.26670573721e-06
9.41438777345e-06
-3.36364820476e-05
-2.25043718154e-06
6.97356562556e-06
-3.07706184935e-05
-1.1539666562e-06
4.09256168551e-06
-2.18987710019e-05
-3.15304769691e-07
1.5109062838e-06
-1.05992322281e-05
-6.58901944825e-09
2.0653620487e-07
-2.5522238836e-06
0
-5.84717744072e-08
0
0
0
-5.36980609898e-08
0
4.20905321705e-07
-4.02154510397e-07
2.08477264365e-07
3.2267563331e-06
-1.03891480877e-06
1.23143570784e-06
9.19587123289e-06
-1.71288944101e-06
3.10172543413e-06
1.5360163676e-05
-2.20962426221e-06
4.9880752406e-06
1.83463073053e-05
-2.39810655567e-06
6.10211782552e-06
1.69947513068e-05
-2.4094781126e-06
6.33469831427e-06
1.26809850687e-05
-2.42072802325e-06
6.23824264914e-06
7.55804460716e-06
-2.43185628771e-06
6.14178698403e-06
2.43510414559e-06
-2.44286290594e-06
6.04533131892e-06
-2.68783631599e-06
-2.45374787792e-06
5.94887565382e-06
-7.81077677757e-06
-2.46451120368e-06
5.85241998869e-06
-1.29337172391e-05
-2.28525581142e-06
5.50614688881e-06
-1.7240654556e-05
-1.77001390337e-06
4.49525256434e-06
-1.85645458397e-05
-1.06509307647e-06
2.8681014153e-06
-1.55247977919e-05
-4.07620260371e-07
1.18495714075e-06
-9.28933492399e-06
-5.38415574094e-08
2.06685314953e-07
-3.25895604471e-06
0
0
-4.25111962458e-07
0
0
0
0
0
0
0
0
-5.37070502189e-08
0
3.6802834185e-07
-2.65422123192e-07
2.54650048752e-08
1.94780516998e-06
-5.86350648425e-07
3.09083618003e-07
4.53856891402e-06
-8.63987458233e-07
8.72018895317e-07
6.47389318682e-06
-9.72915422896e-07
1.3040562618e-06
6.48317468817e-06
-9.75037343188e-07
1.42865523314e-06
4.93361658707e-06
-9.77149039576e-07
1.42345230535e-06
2.93436151148e-06
-9.79250512159e-07
1.4182493775e-06
9.35106435884e-07
-9.81341760873e-07
1.41304644962e-06
-1.06414863971e-06
-9.83422785737e-07
1.40784352178e-06
-3.0634037153e-06
-9.85493586744e-07
1.40264059392e-06
-5.0626587909e-06
-8.77558986845e-07
1.27540405454e-06
-6.60565236218e-06
-5.94871804953e-07
8.56537309368e-07
-6.57217950985e-06
-2.67956556218e-07
3.06566333988e-07
-4.59816154456e-06
-5.38326096275e-08
2.54425528364e-08
-1.97117000325e-06
0
0
-3.72236867604e-07
0
0
0
0
0
0
0
0
0
0
0
0
0
0
-6.58700400286e-09
0
3.85411945931e-08
-7.30846788382e-08
0
3.95837653721e-07
-1.50706481073e-07
0
9.49899609152e-07
-1.83452174899e-07
0
1.13279425879e-06
-1.83557762166e-07
0
8.98054246258e-07
-1.83663239912e-07
0
5.33234940977e-07
-1.83768608106e-07
0
1.68415635695e-07
-1.83873866743e-07
0
-1.96403669592e-07
-1.83979015916e-07
0
-5.61222974878e-07
-1.84084055538e-07
0
-9.26042280159e-07
-1.51274488077e-07
0
-1.15836360757e-06
-7.32508771397e-08
0
-9.67150085973e-07
-6.58861643154e-09
0
-4.02054711047e-07
0
0
-3.90692167403e-08
0
0
0
0
0
0
0
0
0
0
0
0
0
0
0
0
0
0
0
0
0
0
0
0
0
0
0
0
0
0
0
0
0
0
0
0
0
0
0
0
0
0
0
0
0
0
0
0
0
0
0
0
0
0
0
0
0
0
0
0
0
0
0
0
0
0
0
0
0
0
0
0
0
0
0
0
0
0
0
0
0
0
0
0
0
0
0
0
0
0
0
0
0
0
0
0
0
0
0
0
0
0
0
0
0
0
0
0
0
0
0
0
0
0
0
-1.61913870147e-08
9.15497103878e-08
9.98642162174e-08
-1.30104996996e-07
7.76178195381e-07
6.02285175517e-07
-2.54712636172e-07
2.02270562609e-06
1.24805001841e-06
-3.05870214406e-07
2.94758935961e-06
1.40822940866e-06
-3.05968029627e-07
3.21749526991e-06
1.10116069341e-06
-3.0606584211e-07
3.21434528948e-06
6.53860463879e-07
-3.06163651753e-07
3.21119530905e-06
2.06560234362e-07
-3.06261458633e-07
3.20804532862e-06
-2.4073999516e-07
-3.06359262706e-07
3.2048953482e-06
-6.88040224695e-07
-3.06457064066e-07
3.20174536777e-06
-1.13534045421e-06
-2.55258220162e-07
2.9316414919e-06
-1.43983190058e-06
-1.30292069886e-07
2.01431359857e-06
-1.27052633705e-06
-1.61980142014e-08
7.74207342831e-07
-6.11617719038e-07
0
9.14255120163e-08
-1.01227288219e-07
0
0
0
0
0
0
0
0
0
0
0
0
0
0
-9.80560441357e-08
5.18399818727e-07
5.45813888093e-07
-4.38002791977e-07
2.7521181646e-06
2.46525792079e-06
-9.23935709621e-07
6.5486063861e-06
5.20713438474e-06
-1.32542343454e-06
1.02547830122e-05
7.02722050512e-06
-1.47782183273e-06
1.24889623807e-05
6.84911625841e-06
-1.47868121583e-06
1.30837842241e-05
5.17481187368e-06
-1.47954007985e-06
1.3055984397e-05
3.07765258791e-06
-1.48039842479e-06
1.30281845699e-05
9.80493302142e-07
-1.48125625071e-06
1.30003847429e-05
-1.11666598363e-06
-1.48211355752e-06
1.29725849158e-05
-3.21382526941e-06
-1.48297034535e-06
1.29447850887e-05
-5.31098455518e-06
-1.33142602055e-06
1.23377003452e-05
-6.97917419376e-06
-9.28697613436e-07
1.01489509029e-05
-7.13444478689e-06
-4.40056760523e-07
6.4984508514e-06
-5.2758414808e-06
-9.82106571839e-08
2.73882049585e-06
-2.49486602553e-06
0
5.16832983934e-07
-5.52019439406e-07
0
0
0
0
0
0
0
0
-9.80449979169e-08
5.18583381871e-07
6.24232562607e-07
-6.55701480392e-07
3.49293416092e-06
3.95707380161e-06
-1.60227129054e-06
9.51656271961e-06
1.01191006725e-05
-2.55104703085e-06
1.66200332446e-05
1.5780263225e-05
-3.21866718833e-06
2.26830364327e-05
1.80910886533e-05
-3.45675535323e-06
2.61204943636e-05
1.64325432708e-05
-3.45829488328e-06
2.69886062447e-05
1.21993932776e-05
-3.45983246217e-06
2.69042942928e-05
7.27120053138e-06
-3.46136808996e-06
2.68199823409e-05
2.34300778513e-06
-3.4629017666e-06
2.67356703891e-05
-2.58518496113e-06
-3.46443349208e-06
2.66513584372e-05
-7.51337770737e-06
-3.46596326644e-06
2.65670464853e-05
-1.24415704536e-05
-3.23002013877e-06
2.56469360385e-05
-1.66691948416e-05
-2.56197442454e-06
2.23138309657e-05
-1.83056459248e-05
-1.6099460256e-06
1.64015801191e-05
-1.59498407739e-05
-6.58791064656e-07
9.42856666509e-06
-1.02228302833e-05
-9.82216984894e-08
3.47308728362e-06
-3.99680400421e-06
0
5.16649491587e-07
-6.30433939337e-07
0
0
-1.61897297698e-08
9.15882576921e-08
1.50137373219e-07
-5.21067263593e-07
2.32560860263e-06
3.21843700114e-06
-1.75310949987e-06
8.77385113987e-06
1.17331272559e-05
-3.23391728804e-06
1.82628198621e-05
2.23984438946e-05
-4.52444120613e-06
2.81330708379e-05
2.99568082483e-05
-5.36662494289e-06
3.5966343655e-05
3.17899405522e-05
-5.65598125281e-06
4.02003351775e-05
2.79115288389e-05
-5.6572689291e-06
4.12124997466e-05
2.0553645213e-05
-5.65855358824e-06
4.10601034876e-05
1.2281363434e-05
-5.65983523035e-06
4.09077072286e-05
4.00908165497e-06
-5.66111385526e-06
4.07553109696e-05
-4.26320012406e-06
-5.66238946299e-06
4.06029147107e-05
-1.25354819031e-05
-5.66366205366e-06
4.04505184517e-05
-2.08077636821e-05
-5.37655025678e-06
3.9321332886e-05
-2.81653377919e-05
-4.5353282539e-06
3.52244580941e-05
-3.20412581223e-05
-3.24342874202e-06
2.7631990896e-05
-3.01924236994e-05
-1.75894145818e-06
1.80160388769e-05
-2.25834699984e-05
-5.2280105154e-07
8.69635720509e-06
-1.18350651592e-05
-1.61996705006e-08
2.31311594382e-06
-3.24765152808e-06
9.13869676055e-08
-1.51499867304e-07
-1.46294280377e-07
6.85361300882e-07
1.05888755428e-06
-1.23496251748e-06
4.997224824e-06
8.08914420911e-06
-3.01476418944e-06
1.43828523947e-05
2.19244993307e-05
-4.87900015201e-06
2.64762239585e-05
3.59589125097e-05
-6.3769169162e-06
3.81420635504e-05
4.4505845834e-05
-7.29811926877e-06
4.67556952889e-05
4.52450624686e-05
-7.60270236723e-06
5.10777788305e-05
3.89047260888e-05
-7.60293788706e-06
5.2026064156e-05
2.8498770311e-05
-7.60317043719e-06
5.18437943768e-05
1.70668092836e-05
-7.60340001768e-06
5.16615245977e-05
5.63484825622e-06
-7.60362662852e-06
5.14792548185e-05
-5.79711277119e-06
-7.60385026961e-06
5.12969850393e-05
-1.72290737986e-05
-7.60407094112e-06
5.11147152602e-05
-2.8661034826e-05
-7.30033623618e-06
4.99825792798e-05
-3.90734376291e-05
-6.38061339268e-06
4.57315517428e-05
-4.54386846157e-05
-4.88374189221e-06
3.73559459324e-05
-4.47330022516e-05
-3.01897459555e-06
2.60320039741e-05
-3.61843830065e-05
-1.23714518696e-06
1.42161961867e-05
-2.20859881603e-05
-1.4655426743e-07
4.96172805117e-06
-8.15535774793e-06
6.82054182634e-07
-1.0681675895e-06
-3.86797106744e-07
1.33853971453e-06
2.61487145229e-06
-1.93107801072e-06
7.27145734392e-06
1.34995396012e-05
-4.09322462998e-06
1.85254074031e-05
3.12703765052e-05
-6.19951979602e-06
3.21389105227e-05
4.7603815702e-05
-7.78902237482e-06
4.45631351893e-05
5.64530147048e-05
-8.69646268835e-06
5.29087049687e-05
5.57155376856e-05
-8.97446797954e-06
5.64203843281e-05
4.70114209963e-05
-8.97391669391e-06
5.69906366914e-05
3.42167338378e-05
-8.97336298845e-06
5.68745567724e-05
2.05199136668e-05
-8.97280686318e-06
5.67584768535e-05
6.82309349577e-06
-8.97224831806e-06
5.66423969345e-05
-6.87372667525e-06
-8.9716873531e-06
5.65263170155e-05
-2.05705468463e-05
-8.97112396828e-06
5.64102370965e-05
-3.42673670173e-05
-8.69178552707e-06
5.55837210983e-05
-4.70709210796e-05
-7.78426106419e-06
5.18848162802e-05
-5.58145739403e-05
-6.19659223518e-06
4.36168767807e-05
-5.66245398492e-05
-4.09262082605e-06
3.15411489361e-05
-4.78271645301e-05
-1.93163499685e-06
1.82771736071e-05
-3.14667349731e-05
-3.87086169306e-07
7.21087202975e-06
-1.36005452225e-05
1.33110399689e-06
-2.63693270807e-06
-5.67919732563e-07
1.60937659853e-06
3.74874564675e-06
-2.36436013274e-06
8.14791268574e-06
1.70515923849e-05
-4.74553083945e-06
2.00368505539e-05
3.70918904158e-05
-6.98747425188e-06
3.41312527978e-05
5.47840838302e-05
-8.59752872847e-06
4.66909457128e-05
6.36018588941e-05
-9.41664326879e-06
5.45836461247e-05
6.13770927528e-05
-9.61457388758e-06
5.72984482658e-05
5.06872816396e-05
-9.61414162448e-06
5.75120661584e-05
3.65252552272e-05
-9.61370954352e-06
5.74794273856e-05
2.19147808425e-05
-9.61327764472e-06
5.74467886127e-05
7.30430645774e-06
-9.61284592799e-06
5.74141498399e-05
-7.306167927e-06
-9.61241439341e-06
5.73815110671e-05
-2.19166423117e-05
-9.61198304103e-06
5.73488722943e-05
-3.65271166965e-05
-9.41060652631e-06
5.68324018711e-05
-5.0693889939e-05
-8.58841443752e-06
5.36869474278e-05
-6.14172313989e-05
-6.97939694063e-06
4.57107756147e-05
-6.37268943869e-05
-4.74101614529e-06
3.3478376441e-05
-5.4993491764e-05
-2.3631031897e-06
1.97559243938e-05
-3.7301879945e-05
-5.6792014713e-07
8.0763967847e-06
-1.71724098368e-05
1.60029168919e-06
-3.77947518948e-06
-6.22169937103e-07
1.60937659851e-06
4.08427559797e-06
-2.49046526659e-06
8.14791268575e-06
1.80966449047e-05
-4.94130305106e-06
2.00368505539e-05
3.88368885398e-05
-7.22972763172e-06
3.41312527977e-05
5.69923785918e-05
-8.83913686203e-06
4.66909457128e-05
6.57662281724e-05
-9.58997486346e-06
5.45836461247e-05
6.28025244876e-05
-9.72034363473e-06
5.72984482658e-05
5.11679549613e-05
-9.72013764451e-06
5.75120661584e-05
3.66072931176e-05
-9.71993195052e-06
5.74794273855e-05
2.19643758705e-05
-9.7197265528e-06
5.74467886127e-05
7.32145862351e-06
-9.71952145122e-06
5.74141498399e-05
-7.32145862351e-06
-9.7193166459e-06
5.73815110671e-05
-2.19643758705e-05
-9.71911213671e-06
5.73488722943e-05
-3.66072931176e-05
-9.58455229335e-06
5.68324018711e-05
-5.11690789226e-05
-8.82951799718e-06
5.36869474278e-05
-6.28293954027e-05
-7.22081066362e-06
4.57107756147e-05
-6.58772576575e-05
-4.93608787053e-06
3.3478376441e-05
-5.71966224325e-05
-2.48885716807e-06
1.97559243938e-05
-3.90499662194e-05
-6.22102057667e-07
8.07639678468e-06
-1.82227896182e-05
1.60029168917e-06
-4.11743665275e-06
-6.22169937102e-07
1.60937659852e-06
4.08427559797e-06
-2.49046526659e-06
8.14791268576e-06
1.80966449047e-05
-4.94130305108e-06
2.00368505539e-05
3.88368885398e-05
-7.22972763172e-06
3.41312527978e-05
5.69923785918e-05
-8.83913686203e-06
4.66909457128e-05
6.57662281724e-05
-9.58997486346e-06
5.45836461247e-05
6.28025244876e-05
-9.72034363472e-06
5.72984482658e-05
5.11679549613e-05
-9.72013764452e-06
5.75120661584e-05
3.66072931176e-05
-9.7199319505e-06
5.74794273856e-05
2.19643758705e-05
-9.71972655281e-06
5.74467886127e-05
7.32145862352e-06
-9.71952145124e-06
5.74141498399e-05
-7.32145862351e-06
-9.71931664591e-06
5.73815110671e-05
-2.19643758705e-05
-9.71911213671e-06
5.73488722943e-05
-3.66072931176e-05
-9.58455229331e-06
5.68324018711e-05
-5.11690789226e-05
-8.82951799715e-06
5.36869474278e-05
-6.28293954027e-05
-7.22081066365e-06
4.57107756147e-05
-6.58772576575e-05
-4.93608787055e-06
3.3478376441e-05
-5.71966224325e-05
-2.48885716807e-06
1.97559243939e-05
-3.90499662194e-05
-6.22102057671e-07
8.07639678469e-06
-1.82227896182e-05
1.60029168918e-06
-4.11743665275e-06
-6.22169937101e-07
1.60937659856e-06
4.08427559798e-06
-2.49046526659e-06
8.14791268576e-06
1.80966449047e-05
-4.94130305107e-06
2.00368505539e-05
3.88368885398e-05
-7.22972763172e-06
3.41312527977e-05
5.69923785918e-05
-8.83913686203e-06
4.66909457128e-05
6.57662281724e-05
-9.58997486348e-06
5.45836461247e-05
6.28025244876e-05
-9.72034363474e-06
5.72984482658e-05
5.11679549613e-05
-9.72013764449e-06
5.75120661584e-05
3.66072931176e-05
-9.71993195055e-06
5.74794273856e-05
2.19643758705e-05
-9.71972655279e-06
5.74467886128e-05
7.32145862351e-06
-9.71952145123e-06
5.74141498399e-05
-7.32145862351e-06
-9.7193166459e-06
5.73815110671e-05
-2.19643758705e-05
-9.71911213672e-06
5.73488722943e-05
-3.66072931176e-05
-9.58455229332e-06
5.68324018711e-05
-5.11690789226e-05
-8.82951799718e-06
5.36869474278e-05
-6.28293954027e-05
-7.22081066366e-06
4.57107756147e-05
-6.58772576575e-05
-4.93608787055e-06
3.3478376441e-05
-5.71966224325e-05
-2.48885716814e-06
1.97559243939e-05
-3.90499662194e-05
-6.22102057702e-07
8.07639678472e-06
-1.82227896182e-05
1.60029168919e-06
-4.11743665275e-06
-6.221699371e-07
1.60937659858e-06
4.08427559797e-06
-2.49046526659e-06
8.14791268579e-06
1.80966449047e-05
-4.94130305107e-06
2.00368505539e-05
3.88368885398e-05
-7.22972763172e-06
3.41312527977e-05
5.69923785918e-05
-8.83913686203e-06
4.66909457128e-05
6.57662281724e-05
-9.58997486347e-06
5.45836461247e-05
6.28025244876e-05
-9.72034363473e-06
5.72984482658e-05
5.11679549613e-05
-9.72013764453e-06
5.75120661583e-05
3.66072931176e-05
-9.71993195053e-06
5.74794273856e-05
2.19643758705e-05
-9.71972655277e-06
5.74467886127e-05
7.32145862351e-06
-9.71952145124e-06
5.74141498399e-05
-7.32145862352e-06
-9.71931664588e-06
5.73815110671e-05