/*--------------------------------*- C++ -*----------------------------------*\
| =========                 |                                                 |
| \\      /  F ield         | OpenFOAM: The Open Source CFD Toolbox           |
|  \\    /   O peration     | Version:  v1606+                                |
|   \\  /    A nd           | Web:      www.OpenFOAM.com                      |
|    \\/     M anipulation  |                                                 |
\*---------------------------------------------------------------------------*/
FoamFile
{
    version     2.0;
    format      ascii;
    class       surfaceScalarField;
    location    "4.4";
    object      phi;
}
// * * * * * * * * * * * * * * * * * * * * * * * * * * * * * * * * * * * * * //

dimensions      [0 3 -1 0 0 0 0];

internalField   nonuniform List<scalar> 
33146
(
3.20417696705e-06
3.79548790507e-06
-6.99968519342e-06
6.3892854132e-06
3.59004530907e-06
-6.77516737886e-06
9.42128019963e-06
3.43768269189e-06
-6.4696789177e-06
1.2293804564e-05
3.40810519284e-06
-6.33111673851e-06
1.4896049596e-05
3.36110611934e-06
-6.52538228978e-06
1.69921014154e-05
3.22253311913e-06
-6.8504801409e-06
1.83759605164e-05
3.27825383166e-06
-6.77753240492e-06
1.9018591946e-05
3.60704332572e-06
-6.31450116922e-06
1.89741249623e-05
3.79607080398e-06
-5.51454757543e-06
1.84210531584e-05
3.91350074676e-06
-4.82148986857e-06
1.7533211148e-05
3.86430284583e-06
-4.13563526493e-06
1.6350516695e-05
3.78861648039e-06
-3.46320443204e-06
1.49347512259e-05
3.65877684744e-06
-2.79839682314e-06
1.33499156855e-05
3.64244257289e-06
-2.32944318934e-06
1.1594088195e-05
3.90093373418e-06
-2.21306196035e-06
9.65900707194e-06
4.27455725979e-06
-2.34712680304e-06
7.57230652345e-06
4.3969891846e-06
-2.30685367995e-06
5.24899640482e-06
4.28625427834e-06
-1.96294158015e-06
2.75356614755e-06
4.28503738912e-06
-1.78962061737e-06
4.39877337119e-06
-1.64522456796e-06
2.85281489679e-06
7.82304801455e-06
-6.88038903731e-06
6.05281103677e-06
7.72175165707e-06
-7.33170670948e-06
9.30744961938e-06
7.43859288386e-06
-7.71183985096e-06
1.2566033728e-05
6.71164396864e-06
-9.10227170293e-06
1.55890969145e-05
5.6353950661e-06
-1.12383129391e-05
1.79159525137e-05
4.89970494397e-06
-1.2624817567e-05
1.92781554254e-05
4.84238358487e-06
-1.22555356486e-05
1.97061728102e-05
5.36227216895e-06
-1.05015319561e-05
1.94365791422e-05
5.60654157413e-06
-8.25745339007e-06
1.87047933951e-05
5.60155967053e-06
-6.071138377e-06
1.76796626838e-05
5.2249675445e-06
-3.84868295472e-06
1.64376513432e-05
4.8143430498e-06
-1.69514130159e-06
1.50568489075e-05
4.39507106891e-06
3.34810635517e-07
1.34774191135e-05
4.3432417595e-06
1.87728272841e-06
1.16961020422e-05
4.98808434069e-06
2.14956116198e-06
9.66345174303e-06
6.28799595173e-06
1.00434318166e-06
7.43601433947e-06
7.66870160411e-06
-6.95613789475e-07
5.04011928245e-06
8.4010678899e-06
-1.64681747137e-06
2.53070889017e-06
8.55922978435e-06
-1.76480214132e-06
8.70869494309e-06
-1.77923401888e-06
2.6095924925e-06
1.16344829592e-05
-6.42103031204e-06
5.92137179241e-06
1.14211446022e-05
-7.51173693821e-06
9.69249922028e-06
1.03474654948e-05
-1.03147756575e-05
1.37102265882e-05
8.29166784077e-06
-1.55197063827e-05
1.72350812885e-05
6.36502572434e-06
-2.0480037707e-05
1.98084447342e-05
5.1572800597e-06
-2.25067040207e-05
2.10875610493e-05
5.12737254517e-06
-2.08881564157e-05
2.10639661981e-05
6.059029689e-06
-1.68647967126e-05
2.02464978491e-05
6.45824115494e-06
-1.22004704566e-05
1.9157358266e-05
6.01366715996e-06
-7.46380929193e-06
1.7922454449e-05
5.04166120408e-06
-2.69722748291e-06
1.66285035075e-05
4.07151928736e-06
1.94674770242e-06
1.53341648334e-05
3.29999920488e-06
6.32480002873e-06
1.3831217211e-05
3.34448620847e-06
9.82716145634e-06
1.20592283827e-05
4.32030747473e-06
1.11657132487e-05
9.93508429088e-06
6.36556858234e-06
9.41296884551e-06
7.52987240819e-06
8.92577803937e-06
5.17436581643e-06
4.91745036597e-06
1.12972046913e-05
8.52486012273e-07
2.37417322946e-06
1.25209626507e-05
-1.30212105942e-06
1.27870599565e-05
-1.70421640949e-06
2.49498689642e-06
1.49685829318e-05
-5.89585991506e-06
6.09182913451e-06
1.42067897038e-05
-8.99012819561e-06
1.06450398e-05
1.19108751762e-05
-1.63613234153e-05
1.53057215233e-05
8.90027550049e-06
-2.58157384084e-05
1.92809090783e-05
6.41188570344e-06
-3.2692932998e-05
2.20098341151e-05
5.13326612036e-06
-3.44690854671e-05
2.31409846766e-05
5.48106983933e-06
-3.09564392421e-05
2.24266500002e-05
7.20206534266e-06
-2.40525741587e-05
2.09345529288e-05
7.79711528207e-06
-1.65455574727e-05
1.935987464e-05
6.66008087939e-06
-8.84541911002e-06
1.78921516825e-05
4.82735654281e-06
-1.16655343542e-06
1.65511265819e-05
3.15387629493e-06
6.33519582288e-06
1.53698327324e-05
2.02161701117e-06
1.34613178059e-05
1.41297927497e-05
2.12755408757e-06
1.94541153208e-05
1.25259640747e-05
3.45469688001e-06
2.24489095338e-05
1.04624960944e-05
5.93469001323e-06
2.09581897212e-05
7.95028800424e-06
9.22175677501e-06
1.5040130685e-05
5.11002880797e-06
1.28612303288e-05
6.92087953714e-06
2.34678075812e-06
1.55882279404e-05
7.91604030183e-07
1.65761998467e-05
-1.42268729638e-06
2.41890605117e-06
1.75712897305e-05
-5.78206314237e-06
6.4216746786e-06
1.61834297933e-05
-1.22248306691e-05
1.15127474963e-05
1.29147349193e-05
-2.4283807432e-05
1.64958324503e-05
9.50070699014e-06
-3.683049849e-05
2.06045726122e-05
7.04017316481e-06
-4.47613051286e-05
2.36033660314e-05
6.02280858305e-06
-4.57796234083e-05
2.49103376949e-05
6.98886656476e-06
-4.00854293135e-05
2.29415035163e-05
1.06167280381e-05
-3.02402571985e-05
2.03610564417e-05
1.11299580331e-05
-1.99953615436e-05
1.84622246553e-05
8.4484593243e-06
-9.58104523133e-06
1.72451974861e-05
5.0857896781e-06
8.18568035244e-07
1.64433449562e-05
2.48337369369e-06
1.08838063575e-05
1.60051682222e-05
1.01703639923e-06
2.04056894547e-05
1.50416960536e-05
1.75286985152e-06
2.8748014462e-05
1.34938361598e-05
3.53338650429e-06
3.36201054384e-05
1.13159626683e-05
6.23655731304e-06
3.29207169069e-05
8.70166604668e-06
9.64707179132e-06
2.6119325722e-05
5.61712932555e-06
1.3980799815e-05
1.52149101606e-05
2.55254583859e-06
1.7896807535e-05
4.71857023239e-06
1.98776420249e-05
-4.63184080432e-07
2.39777011672e-06
1.95707988875e-05
-6.13929263916e-06
6.74882378489e-06
1.76974073556e-05
-1.57634751719e-05
1.19833735738e-05
1.4169008875e-05
-3.11692676048e-05
1.70860228908e-05
1.0773136681e-05
-4.55741225737e-05
2.13156235642e-05
8.76390690429e-06
-5.37452025444e-05
2.49623017976e-05
8.06418963115e-06
-5.37643890142e-05
2.70992126188e-05
9.63609595353e-06
-4.60720054649e-05
2.37499393325e-05
1.68400190672e-05
-3.37080477713e-05
1.98742388127e-05
1.74210792901e-05
-2.19379254685e-05
1.71831277912e-05
1.28367373547e-05
-9.90814159833e-06
1.57691552068e-05
7.78728796873e-06
1.81303447256e-06
1.58947566785e-05
3.51524499136e-06
1.32546249923e-05
1.64452672964e-05
1.57804279464e-06
2.46121195143e-05
1.55745940224e-05
3.16843144641e-06
3.53973666229e-05
1.41017780772e-05
4.9556881609e-06
4.22968208811e-05
1.20499356694e-05
7.4216500123e-06
4.2764914273e-05
9.40862734315e-06
1.0798817245e-05
3.55773842641e-05
6.25259558812e-06
1.53425283168e-05
2.28069691889e-05
2.8525314861e-06
2.00344806967e-05
9.20201116895e-06
2.2791865815e-05
1.13462263304e-06
2.30011647457e-06
2.11033260026e-05
-6.13329610101e-06
6.53909424478e-06
1.91808719152e-05
-1.75060527574e-05
1.16400300796e-05
1.59369574561e-05
-3.45591528366e-05
1.66512523876e-05
1.30505786029e-05
-4.99010232341e-05
2.10247266563e-05
1.15556895699e-05
-5.79714981677e-05
2.57766961538e-05
1.03880692908e-05
-5.71360070014e-05
2.96398929366e-05
1.07905452573e-05
-4.70833078987e-05
2.28298793956e-05
1.92547945471e-05
-2.62622282882e-05
1.80800447571e-05
1.68136763789e-05
-1.32425085011e-05
1.60575205629e-05
9.71652590958e-06
-1.39928443939e-06
1.56759410578e-05
4.19289635501e-06
9.49168138707e-06
1.57590469326e-05
2.16739463093e-07
2.07888412264e-05
1.62616354174e-05
-8.30769694885e-07
3.15373950282e-05
1.59870801185e-05
3.43039159743e-06
4.08305960576e-05
1.51815933415e-05
6.21449238383e-06
4.78620301992e-05
1.31799561432e-05
9.17546692272e-06
4.90188239182e-05
1.04147686158e-05
1.28326940112e-05
4.14931750521e-05
6.96501468646e-06
1.74622333379e-05
2.76856440966e-05
3.25841330429e-06
2.247734895e-05
1.23191069317e-05
2.5625906843e-05
2.5095636964e-06
2.19971773144e-06
2.20986724831e-05
-5.59158633373e-06
6.13872289115e-06
2.03666783443e-05
-1.72232365039e-05
1.08173326173e-05
1.76712000743e-05
-3.45500212507e-05
1.52504946416e-05
1.57101544929e-05
-5.01290976716e-05
1.91940346098e-05
1.51788776445e-05
-5.86381711927e-05
2.53521987212e-05
1.4072467275e-05
-5.99596684111e-05
3.1808520119e-05
1.33842957744e-05
-5.10020566577e-05
2.2423002734e-05
1.75631061959e-05
-1.93218300951e-05
1.67800782261e-05
1.5435675121e-05
-1.11818351659e-05
1.47882957612e-05
1.15240417761e-05
-5.82221210681e-06
1.52071706604e-05
8.53577309206e-06
1.42805665719e-06
1.56261476625e-05
6.35525058075e-06
1.18286066225e-05
1.78153919437e-05
5.97299524726e-06
2.15893666566e-05
1.59982739612e-05
7.94428328776e-06
3.94122490973e-05
1.54881901259e-05
9.0793734453e-06
4.78098585438e-05
1.36390889255e-05
1.15366029064e-05
5.04998852563e-05
1.09563712864e-05
1.50094924937e-05
4.34847439618e-05
7.44124769712e-06
1.96634207215e-05
2.94663911165e-05
3.54472780087e-06
2.47970655978e-05
1.37234773881e-05
2.81134644422e-05
3.47508888783e-06
2.17497112478e-06
2.24197219114e-05
-4.89255282069e-06
5.84543795044e-06
2.08167154161e-05
-1.62189408432e-05
1.00707229105e-05
1.85133865673e-05
-3.32046519765e-05
1.41282571017e-05
1.71769525237e-05
-4.85607018871e-05
1.80659619619e-05
1.71828407237e-05
-5.70131189778e-05
2.40527562899e-05
1.63821654742e-05
-5.84136048011e-05
3.08218485168e-05
1.48359910948e-05
-5.01727767783e-05
2.12893448268e-05
1.45944962521e-05
-1.78979244448e-05
1.64407889403e-05
1.16860945807e-05
-9.60462311266e-06
1.51749593073e-05
9.56685999899e-06
-2.78346108193e-06
1.61427619492e-05
8.14531586013e-06
5.61247417519e-06
1.6147125872e-05
7.89393114766e-06
1.68430654689e-05
1.84504505232e-05
8.50060842886e-06
2.57514549589e-05
1.6962708171e-05
1.00845021985e-05
4.14565609367e-05
1.69018822979e-05
1.08428272969e-05
4.84620397126e-05
1.49837920168e-05
1.34488268646e-05
5.10177948213e-05
1.20552273449e-05
1.68219916844e-05
4.40948952975e-05
8.21521279269e-06
2.14648377087e-05
3.01910545507e-05
3.95280380474e-06
2.66468997312e-05
1.4559249059e-05
3.01062520959e-05
4.37793436365e-06
2.17447061373e-06
2.21979352041e-05
-4.3492270011e-06
5.4929328283e-06
2.06817725758e-05
-1.52819682113e-05
9.44483671017e-06
1.84482757737e-05
-3.20239844922e-05
1.32192540003e-05
1.74731870381e-05
-4.71070306761e-05
1.70012747605e-05
1.76204997332e-05
-5.52911384739e-05
2.31920796415e-05
1.65671987103e-05
-5.6492956997e-05
2.94021294629e-05
1.44545378702e-05
-4.77805909098e-05
2.12186178249e-05
8.83357613249e-06
-1.64546098002e-05
1.76280515775e-05
5.5939038234e-06
-8.52000320022e-06
1.65216382272e-05
6.99150511956e-06
-2.32470202262e-06
1.70419876255e-05
8.64952770868e-06
5.1652631882e-06
1.70752334381e-05
1.07021334897e-05
1.5544668828e-05
1.98150089432e-05
1.23409744784e-05
2.40022592168e-05
1.81323233204e-05
1.2468786439e-05
4.14074462399e-05
1.78067602756e-05
1.25293678994e-05
4.88036962457e-05
1.58879301585e-05
1.48545532961e-05
5.15250364579e-05
1.28815815346e-05
1.80260097009e-05
4.47811628155e-05
8.90877789157e-06
2.2598645643e-05
3.09914535256e-05
4.34972179071e-06
2.78339680756e-05
1.55186619009e-05
3.14530106557e-05
5.42088149862e-06
2.11523227259e-06
2.16722346971e-05
-3.98608395243e-06
5.20206514831e-06
2.00738393928e-05
-1.45773578574e-05
8.63797490012e-06
1.78398355381e-05
-3.09646687291e-05
1.20947148209e-05
1.67577993667e-05
-4.57777369796e-05
1.5411753938e-05
1.69763525616e-05
-5.37443546715e-05
2.09343054729e-05
1.54361330191e-05
-5.4508606454e-05
2.68721509969e-05
1.21630292205e-05
-4.55983301978e-05
2.07135393349e-05
1.38437175695e-06
-1.67912212014e-05
1.79450663977e-05
-5.03012877214e-07
-9.33736342456e-06
1.77064189206e-05
3.60464030679e-06
-2.38094988239e-06
1.87486283999e-05
8.20329136591e-06
5.5938589e-06
1.95513031729e-05
1.23157131639e-05
1.59698690085e-05
2.24790141629e-05
1.51591191073e-05
2.48365505634e-05
2.02966754057e-05
1.35300839783e-05
4.32300901491e-05
1.91638410676e-05
1.36359435469e-05
5.01909356715e-05
1.68979651026e-05
1.5521398821e-05
5.26109652795e-05
1.37467965039e-05
1.85022065908e-05
4.56538051554e-05
9.61961623041e-06
2.29723541376e-05
3.19059305741e-05
4.80166732785e-06
2.82506637046e-05
1.65479288384e-05
3.20919032185e-05
6.58069499579e-06
2.07382386399e-06
2.09859256792e-05
-3.45279552525e-06
4.83808029743e-06
1.94625128148e-05
-1.31596191659e-05
8.04788593791e-06
1.72329138298e-05
-2.89350547979e-05
1.12448616523e-05
1.60804345306e-05
-4.33233274562e-05
1.4270448601e-05
1.64252605141e-05
-5.12897705255e-05
1.67094642367e-05
1.67470211531e-05
-5.20108587495e-05
1.7305180407e-05
1.62865146346e-05
-4.53757233351e-05
1.91840276976e-05
1.3056037891e-05
-4.29904450859e-05
2.12043290982e-05
1.31069774257e-05
-3.30124877755e-05
2.25893662469e-05
1.57532577243e-05
-1.88581119976e-05
2.29016714022e-05
1.75432691173e-05
-2.91900080029e-06
2.26566181445e-05
1.82550264741e-05
1.30967583801e-05
2.36003329381e-05
1.76840424318e-05
2.73801090281e-05
2.17865206185e-05
1.54512291607e-05
4.21191207917e-05
2.01366873689e-05
1.48792567166e-05
5.05201442021e-05
1.770670584e-05
1.60790760943e-05
5.26336681319e-05
1.44516917656e-05
1.88072784e-05
4.552003754e-05
1.02066082915e-05
2.31279856615e-05
3.18028981037e-05
5.18969171851e-06
2.8266833033e-05
1.68329825225e-05
3.20448623253e-05
7.55734349735e-06
2.04797169272e-06
2.01147847412e-05
-2.35892850627e-06
4.5850023144e-06
1.8993547381e-05
-9.96054078844e-06
7.70126423995e-06
1.70613183557e-05
-2.39104624712e-05
1.10946007677e-05
1.58287382727e-05
-3.72197100086e-05
1.45956228212e-05
1.57524056614e-05
-4.47140610356e-05
1.80583921925e-05
1.59130834333e-05
-4.47833054041e-05
2.09956701281e-05
1.53738453771e-05
-3.77751252181e-05
2.18938569967e-05
1.41215379839e-05
-2.74595524415e-05
2.24601394719e-05
1.44214489776e-05
-1.60650738533e-05
2.32748128133e-05
1.55604958865e-05
-3.49468587732e-06
2.39031881063e-05
1.60665234902e-05
9.28714037705e-06
2.42825269806e-05
1.62325003113e-05
2.13934984188e-05
2.44944836836e-05
1.58589922055e-05
3.26749393918e-05
2.29114202499e-05
1.48208733235e-05
4.36920848179e-05
2.09354583535e-05
1.4873720871e-05
5.01479820873e-05
1.8267261163e-05
1.63608950853e-05
5.01891021112e-05
1.48595373243e-05
1.92343486072e-05
4.21883817079e-05
1.05093930034e-05
2.34469576071e-05
2.87578387901e-05
5.42317351617e-06
2.80487529093e-05
1.52497228554e-05
3.12535053238e-05
7.97082339017e-06
2.2792454253e-06
1.87380287482e-05
-1.18274760844e-06
4.75625206621e-06
1.81956726021e-05
-5.60490024689e-06
7.79410104299e-06
1.6962684394e-05
-1.61226061832e-05
1.14334811287e-05
1.58401679256e-05
-2.75068784319e-05
1.54282509412e-05
1.53564302869e-05
-3.45468389867e-05
1.9261137985e-05
1.5228019701e-05
-3.51353244329e-05
2.20064158917e-05
1.51517273374e-05
-2.96824752663e-05
2.36081357543e-05
1.53423958436e-05
-2.14992190595e-05
2.47666414352e-05
1.5857123396e-05
-1.17193347933e-05
2.55685003029e-05
1.6462406504e-05
-1.27744001127e-06
2.5826348919e-05
1.6489427953e-05
9.29705815721e-06
2.57316498825e-05
1.63659782256e-05
1.94905108445e-05
2.52396954947e-05
1.59371169731e-05
2.94945928492e-05
2.3617812087e-05
1.52060985583e-05
3.87572594288e-05
2.1367210425e-05
1.54991976873e-05
4.36784635637e-05
1.84617025346e-05
1.70959000838e-05
4.2289996876e-05
1.48921533348e-05
1.9934259118e-05
3.41897341121e-05
1.04845625229e-05
2.36932040803e-05
2.24161378065e-05
5.49469290075e-06
2.71539354276e-05
1.21668483394e-05
2.94463764373e-05
8.06780261602e-06
2.70068735614e-06
1.66317062714e-05
-6.13598166967e-07
5.28312347009e-06
1.65366097839e-05
-2.00097382721e-06
8.36369388275e-06
1.62555661583e-05
-7.96167121917e-06
1.19614038693e-05
1.57051977854e-05
-1.61873986625e-05
1.59715814035e-05
1.52153525689e-05
-2.21855224895e-05
1.97897695945e-05
1.50274172205e-05
-2.33848438207e-05
2.26738436081e-05
1.50938503772e-05
-1.95419481772e-05
2.46846411093e-05
1.54775966062e-05
-1.28387290275e-05
2.60598828635e-05
1.59287437635e-05
-5.21447464172e-06
2.68664178539e-05
1.63235542429e-05
2.48981922496e-06
2.69545829159e-05
1.65203714857e-05
9.9635045341e-06
2.64920905639e-05
1.65727965223e-05
1.726339518e-05
2.55529354677e-05
1.63379972127e-05
2.44711004286e-05
2.37412244202e-05
1.60206800843e-05
3.07497795341e-05
2.12637476675e-05
1.6525858983e-05
3.34263232101e-05
1.81676559699e-05
1.80765131204e-05
3.09327773264e-05
1.44573253838e-05
2.05016482233e-05
2.37878665404e-05
1.01681705825e-05
2.31426194665e-05
1.51405942507e-05
5.5059449839e-06
2.498603455e-05
9.45588541986e-06
2.64781275498e-05
8.54149493128e-06
3.17875677058e-06
1.39390771246e-05
-4.86159070568e-07
5.98073963699e-06
1.39473128015e-05
-3.25281865626e-07
9.05625405935e-06
1.42344383343e-05
-2.16573848017e-06
1.26019231129e-05
1.44562039324e-05
-6.25631070322e-06
1.64019698195e-05
1.44519509775e-05
-1.02820471811e-05
2.00312356465e-05
1.44864636802e-05
-1.16350196191e-05
2.28972562529e-05
1.47318510146e-05
-9.60159017073e-06
2.49091762489e-05
1.5226461048e-05
-5.45098320527e-06
2.61639761884e-05
1.58329790767e-05
-8.23814760294e-07
2.67569834789e-05
1.62892042876e-05
3.80197833032e-06
2.67339471211e-05
1.66181795107e-05
8.31127569175e-06
2.61654350764e-05
1.68241789818e-05
1.27285861348e-05
2.49989281072e-05
1.68751765592e-05
1.70661916952e-05
2.31287072936e-05
1.6762904457e-05
2.06798044165e-05
2.05861068264e-05
1.72509767745e-05
2.16720941157e-05
1.74337069435e-05
1.83988192206e-05
1.91762149767e-05
1.37879708628e-05
1.98062268565e-05
1.4329498097e-05
9.8082765992e-06
2.08409294914e-05
9.94109913358e-06
5.50088707216e-06
2.1492363911e-05
8.30548934558e-06
2.27325759065e-05
9.24649251539e-06
3.47215052056e-06
1.07972793365e-05
-3.30388310791e-07
6.60614858649e-06
1.07320964631e-05
8.11780705901e-08
9.78909224523e-06
1.09288864075e-05
5.42790281391e-08
1.31366136246e-05
1.14545821251e-05
-6.75161314516e-07
1.65963497086e-05
1.20555557599e-05
-1.99932202408e-06
1.98445425415e-05
1.25489605978e-05
-2.68137162754e-06
2.25335803754e-05
1.2994753666e-05
-1.8390011772e-06
2.44790287756e-05
1.35656241617e-05
1.45321107721e-07
2.57821279741e-05
1.41693577799e-05
2.39218414467e-06
2.63976456826e-05
1.47100416794e-05
4.59703331527e-06
2.63457868024e-05
1.51687176545e-05
6.7364333602e-06
2.56559319446e-05
1.55524602564e-05
8.79840978535e-06
2.44037171713e-05
1.57595221267e-05
1.08064297753e-05
2.24465189909e-05
1.58524005304e-05
1.23084988442e-05
1.98806959268e-05
1.61239108411e-05
1.23983477873e-05
1.67931506907e-05
1.65145185087e-05
1.09619744386e-05
1.33172527034e-05
1.67046232135e-05
9.13716079519e-06
9.60397213233e-06
1.68473157298e-05
8.16708855465e-06
5.48080129942e-06
1.72783717552e-05
8.33726118249e-06
1.83254079224e-05
9.88805825952e-06
3.61799606598e-06
7.31869156791e-06
-1.39446833539e-07
7.01338647308e-06
7.1556014155e-06
1.8106046402e-07
1.03567797764e-05
7.17992293219e-06
4.05523104618e-07
1.36342063832e-05
7.38761392546e-06
7.86569698589e-07
1.68236433657e-05
7.81326171601e-06
1.06614302563e-06
1.98548768561e-05
8.30595479843e-06
1.29538650046e-06
2.23913234945e-05
8.82982535106e-06
1.92394927724e-06
2.43410237673e-05
9.31384588904e-06
2.88356286619e-06
2.56739200806e-05
9.79817910523e-06
3.92166309418e-06
2.63292327289e-05
1.02762033463e-05
4.96380163655e-06
2.62938655586e-05
1.07306360393e-05
5.96062063603e-06
2.55931335011e-05
1.11631786522e-05
6.87908383015e-06
2.42555451051e-05
1.1494428292e-05
7.69365444086e-06
2.22662409438e-05
1.1723139434e-05
8.25768220545e-06
1.96954737623e-05
1.18781246567e-05
8.36419087286e-06
1.66807893198e-05
1.19566880976e-05
8.1402835759e-06
1.33292844446e-05
1.20144389713e-05
8.09276653049e-06
9.62936724887e-06
1.21732699699e-05
8.37407729975e-06
5.47616911412e-06
1.24848997755e-05
8.94681488114e-06
1.31785808418e-05
1.06231241278e-05
3.69967220195e-06
3.66625053468e-06
-4.72721915394e-08
7.24520713076e-06
3.45362255672e-06
1.56396752439e-07
1.07189087078e-05
3.38278345586e-06
3.23385656045e-07
1.41029418051e-05
3.3684727977e-06
6.35050887655e-07
1.72722397948e-05
3.50784933851e-06
1.13605320107e-06
2.01853961091e-05
3.6909465109e-06
1.7017883193e-06
2.27233088477e-05
3.89723168769e-06
2.39461649638e-06
2.47380179606e-05
4.12075271271e-06
3.17832028569e-06
2.61550003549e-05
4.38710795824e-06
3.99402704568e-06
2.68816415847e-05
4.68738295459e-06
4.86212179306e-06
2.69018978203e-05
5.01875389055e-06
5.69157681451e-06
2.62061401555e-05
5.39863259063e-06
6.46026837513e-06
2.48216149416e-05
5.75052199726e-06
7.12841604863e-06
2.28241203026e-05
6.06821067293e-06
7.65243352786e-06
2.02474945044e-05
6.39036246083e-06
8.0644284169e-06
1.71927294316e-05
6.63282578864e-06
8.37870221163e-06
1.3727643914e-05
6.77280033959e-06
8.70683688185e-06
9.89920266711e-06
6.82961419887e-06
9.17224931856e-06
5.53174987477e-06
6.92750354037e-06
9.92503907035e-06
7.11953862968e-06
1.15909477344e-05
3.7805134371e-06
-1.14295699094e-07
7.39294952269e-06
-1.58850817811e-07
1.09286310329e-05
-1.5294027232e-07
1.43222044024e-05
-2.51482127629e-08
1.75196087964e-05
3.10392095571e-07
2.04945525206e-05
7.15945714898e-07
2.31103626268e-05
1.2813617517e-06
2.52725588014e-05
1.95849571658e-06
2.68483786181e-05
2.81122858674e-06
2.77605250223e-05
3.7751814933e-06
2.79585751166e-05
4.82065773627e-06
2.74142679413e-05
5.94290804682e-06
2.61361829172e-05
7.02859496087e-06
2.41576866702e-05
8.04671901596e-06
2.1549842811e-05
8.99824605498e-06
1.83838668588e-05
9.79887197572e-06
1.47309443519e-05
1.04258255672e-05
1.05629899759e-05
1.09977047585e-05
5.75108272581e-06
1.17395691717e-05
1.28707316393e-05
3.25798983977e-06
3.99519779119e-06
-1.42528839399e-05
6.44537618623e-06
4.1107241285e-06
-1.40732764157e-05
9.5487698225e-06
4.08684472791e-06
-1.3659901998e-05
1.24559573751e-05
4.09460402836e-06
-1.34560235152e-05
1.5043263305e-05
3.71379327489e-06
-1.363007518e-05
1.7082181537e-05
2.88234856131e-06
-1.38196493421e-05
1.84376078756e-05
2.34902224037e-06
-1.3447915432e-05
1.90264586243e-05
2.3946388122e-06
-1.24958607116e-05
1.90183447127e-05
2.57032917382e-06
-1.11940226215e-05
1.85101849122e-05
2.58134157557e-06
-9.93132036388e-06
1.76436464247e-05
2.46697945208e-06
-8.69210957644e-06
1.64804946133e-05
2.30173761046e-06
-7.47720220775e-06
1.51037441205e-05
2.12006326939e-06
-6.33649504136e-06
1.3509302637e-05
2.17492545145e-06
-5.43241920698e-06
1.16946457648e-05
2.84792602345e-06
-4.96647384366e-06
9.68175224602e-06
3.87975606273e-06
-4.85650065953e-06
7.53314064172e-06
4.4089746869e-06
-4.6142840082e-06
5.19953907442e-06
4.39656371673e-06
-4.02590319264e-06
2.65999396689e-06
4.33672273697e-06
-3.58681239142e-06
4.29278367416e-06
-3.27803062147e-06
3.12895334117e-06
8.10069592236e-06
-1.4114839573e-05
6.40842731219e-06
8.25226554488e-06
-1.47527074085e-05
9.69698867512e-06
7.85026910819e-06
-1.5315241879e-05
1.29115083243e-05
6.03291543207e-06
-1.69289964407e-05
1.58162758333e-05
2.93426039706e-06
-1.91112429746e-05
1.80656857149e-05
3.63049068315e-08
-2.0255962607e-05
1.94551594898e-05
-1.49819578308e-06
-1.93661684928e-05
1.99549793186e-05
-1.45248837135e-06
-1.69491185014e-05
1.98223712532e-05
-1.09444275527e-06
-1.39988901808e-05
1.92095659895e-05
-1.1120358094e-06
-1.10476931558e-05
1.82767196821e-05
-1.3722623296e-06
-8.10324738935e-06
1.7127239818e-05
-1.77118439561e-06
-5.24330012175e-06
1.581036717e-05
-2.17728864706e-06
-2.56542780638e-06
1.42228642805e-05
-2.00598480301e-06
-4.77747647241e-07
1.22417458808e-05
-3.14189412656e-07
2.37555099278e-07
9.96318556505e-06
2.89950363832e-06
-7.25150979035e-07
7.5598997133e-06
6.29625412114e-06
-2.46182792567e-06
5.14451677526e-06
8.26711547495e-06
-3.51631250178e-06
2.63826517293e-06
8.66500654665e-06
-3.58685419487e-06
8.62648893037e-06
-3.47469381706e-06
3.04232303061e-06
1.19968085822e-05
-1.33594522495e-05
6.50019681415e-06
1.16715815656e-05
-1.49622006614e-05
1.03003484654e-05
9.12367023181e-06
-1.83901368697e-05
1.41453791636e-05
3.91638458965e-06
-2.40408087293e-05
1.7503480571e-05
-2.13408420608e-06
-2.89404378136e-05
2.00195037781e-05
-7.05740084796e-06
-3.05236961648e-05
2.14396793519e-05
-9.43015878441e-06
-2.82174864872e-05
2.17202736497e-05
-9.19480703832e-06
-2.33438943211e-05
2.12909430522e-05
-8.59082215111e-06
-1.77814877324e-05
2.04657108153e-05
-8.67959328993e-06
-1.21436487326e-05
1.94265451633e-05
-9.17095984259e-06
-6.49788946902e-06
1.82768588633e-05
-9.85888877633e-06
-1.02027601448e-06
1.70610655301e-05
-1.05259300062e-05
4.11893693592e-06
1.55568181761e-05
-1.02470932824e-05
8.25006394064e-06
1.34276900673e-05
-7.56232364412e-06
1.01675476196e-05
1.07687263873e-05
-2.23900448759e-06
8.72643882553e-06
7.88174595808e-06
4.11292188812e-06
4.47328096009e-06
5.08213199464e-06
9.65009463166e-06
-2.667321668e-07
2.52839913349e-06
1.23484676114e-05
-2.82436040801e-06
1.27681670734e-05
-3.31751853765e-06
3.10717997871e-06
1.53447968126e-05
-1.2500106708e-05
6.99784050631e-06
1.34506965091e-05
-1.65407015468e-05
1.15057118876e-05
7.73618611325e-06
-2.48584816462e-05
1.59409535688e-05
-6.71439255715e-07
-3.46660629359e-05
1.97010755586e-05
-9.2133095271e-06
-4.13151746445e-05
2.24927259193e-05
-1.56724890486e-05
-4.24691465732e-05
2.40042903503e-05
-1.85020974954e-05
-3.80504267695e-05
2.39299306425e-05
-1.75905650566e-05
-3.01315763822e-05
2.30583479109e-05
-1.66898946591e-05
-2.15587946693e-05
2.18894244101e-05
-1.6875844995e-05
-1.28989047318e-05
2.06855032662e-05
-1.77228519437e-05
-4.26416394427e-06
1.9507660798e-05
-1.87669580414e-05
4.13292648929e-06
1.83695468209e-05
-1.97164235471e-05
1.20669919654e-05
1.70202599378e-05
-1.93447827156e-05
1.86144637814e-05
1.49173534967e-05
-1.59844489645e-05
2.23191960889e-05
1.20590334099e-05
-9.025687378e-06
2.12977500489e-05
8.73006511627e-06
-1.37054506287e-07
1.54350449201e-05
5.35557959063e-06
8.58779764006e-06
6.92811238996e-06
2.46381299175e-06
1.46106457784e-05
-6.10643167016e-08
1.66000681977e-05
-2.81192746485e-06
3.29321384422e-06
1.76194903036e-05
-1.20822604441e-05
7.75034718092e-06
1.38134941963e-05
-1.98243603414e-05
1.28268382752e-05
5.37338187803e-06
-3.29432503362e-05
1.76531593395e-05
-5.45660030848e-06
-4.57360709386e-05
2.17021331989e-05
-1.56640824967e-05
-5.3285657165e-05
2.48652113236e-05
-2.2965586117e-05
-5.34822056289e-05
2.67364833717e-05
-2.57593232055e-05
-4.66167625205e-05
2.58445235283e-05
-2.31391588529e-05
-3.53424023004e-05
2.4240116461e-05
-2.21598704354e-05
-2.38667339486e-05
2.27570519263e-05
-2.30754017595e-05
-1.22472312564e-05
2.14539542172e-05
-2.45358900427e-05
-8.17150900013e-07
2.04169818668e-05
-2.61415555772e-05
1.01404780394e-05
1.95478333599e-05
-2.73576783228e-05
2.03581544393e-05
1.86354274271e-05
-2.65473705503e-05
2.86247167935e-05
1.65828732676e-05
-2.26161223449e-05
3.4216115949e-05
1.35905351412e-05
-1.47471619406e-05
3.4115271179e-05
9.95793363107e-06
-4.16201758501e-06
2.74839488123e-05
6.11243772478e-06
6.94185676322e-06
1.62665746024e-05
2.63864028906e-06
1.57446938817e-05
4.8752093531e-06
1.96789413301e-05
-1.27538452573e-06
3.52021080359e-06
1.91418176076e-05
-1.20113375154e-05
8.34097850738e-06
1.38428039886e-05
-2.31575678474e-05
1.37363012488e-05
3.63408660181e-06
-3.96325089611e-05
1.88188580034e-05
-8.58748151073e-06
-5.43084188475e-05
2.31093064363e-05
-1.9490764028e-05
-6.20551708294e-05
2.68342885042e-05
-2.69411832395e-05
-6.11320263268e-05
2.94638634434e-05
-2.91952004984e-05
-5.1947277767e-05
2.74181179127e-05
-2.29800413116e-05
-3.77802332863e-05
2.49120222188e-05
-2.20953214568e-05
-2.49966620444e-05
2.29623585973e-05
-2.42164303407e-05
-1.18591975448e-05
2.15678597713e-05
-2.66701255924e-05
7.58559920264e-07
2.12794564646e-05
-2.95033320959e-05
1.27801373111e-05
2.13894889056e-05
-3.12104552661e-05
2.46887389472e-05
2.03531317069e-05
-2.88963526945e-05
3.51999303344e-05
1.80211399642e-05
-2.52637962582e-05
4.33611430433e-05
1.49586755051e-05
-1.75509223654e-05
4.46079874381e-05
1.11612752512e-05
-6.27252233885e-06
3.78314008081e-05
6.90911175577e-06
6.30605539489e-06
2.48526407939e-05
2.96177001998e-06
1.69045849314e-05
1.0320635349e-05
2.2408965486e-05
9.83639404774e-07
3.59958883438e-06
2.0349851933e-05
-1.13944294088e-05
8.52147000678e-06
1.45135722928e-05
-2.44220898284e-05
1.39829677383e-05
3.73759072385e-06
-4.26236547001e-05
1.91179325769e-05
-8.87596648193e-06
-5.82879773893e-05
2.36667531533e-05
-2.01181270671e-05
-6.58402967416e-05
2.82919469442e-05
-2.82444636219e-05
-6.37299107819e-05
3.25881089369e-05
-3.20410892172e-05
-5.05283809765e-05
2.85444044164e-05
-2.65716072225e-05
-1.98569714096e-05
2.5597283166e-05
-2.7792809438e-05
-5.61304356722e-06
2.36141118122e-05
-3.09878281727e-05
6.55501617159e-06
2.22548401595e-05
-3.31568457604e-05
1.67522845767e-05
2.13608390006e-05
-3.48289985244e-05
2.66380006197e-05
1.99435530773e-05
-3.56914934883e-05
3.72800891844e-05
2.04673482284e-05
-3.02074849854e-05
4.15971150509e-05
1.89423564599e-05
-2.57776377632e-05
4.98874183658e-05
1.62915967191e-05
-1.75377732279e-05
5.16326760765e-05
1.23520244308e-05
-5.58780601117e-06
4.46156226744e-05
7.76524697786e-06
7.68837744093e-06
3.0612842338e-05
3.38096231805e-06
1.89858161825e-05
1.4335114028e-05
2.51659872049e-05
3.08840886221e-06
3.47831422868e-06
2.11752114318e-05
-1.00860720916e-05
8.18100734555e-06
1.54650181551e-05
-2.3408141374e-05
1.33300268083e-05
4.87685708612e-06
-4.19744099057e-05
1.8013397132e-05
-7.31122134466e-06
-5.81157085478e-05
2.20055126482e-05
-1.82700101596e-05
-6.64521035556e-05
2.66700732617e-05
-2.63372426261e-05
-6.80542508442e-05
3.1341064503e-05
-3.05247159894e-05
-5.79027509238e-05
2.52296961699e-05
-2.8197091703e-05
-1.18228767626e-05
2.2117622299e-05
-2.84378161685e-05
-7.56927566938e-06
2.04919310958e-05
-3.09360652754e-05
-4.29941848778e-06
2.11908306481e-05
-3.18574030457e-05
-5.28029461162e-07
2.32828105746e-05