/*--------------------------------*- C++ -*----------------------------------*\
| =========                 |                                                 |
| \\      /  F ield         | OpenFOAM: The Open Source CFD Toolbox           |
|  \\    /   O peration     | Version:  v1606+                                |
|   \\  /    A nd           | Web:      www.OpenFOAM.com                      |
|    \\/     M anipulation  |                                                 |
\*---------------------------------------------------------------------------*/
FoamFile
{
    version     2.0;
    format      ascii;
    class       volVectorField;
    location    "5";
    object      ddt0(U);
}
// * * * * * * * * * * * * * * * * * * * * * * * * * * * * * * * * * * * * * //

dimensions      [0 1 -2 0 0 0 0];

internalField   nonuniform List<vector> 
11640
(
(0.0086797166255 0.00639266699226 -0.00999337132283)
(0.0256988182357 0.00658608128067 -0.0098458273379)
(0.0420363918761 0.00653588095482 -0.00952517433167)
(0.0574214368624 0.00637403282089 -0.00898489487801)
(0.0714209196745 0.00610833210635 -0.00825511457834)
(0.0835861877386 0.0057358199143 -0.00734430880208)
(0.0936000547776 0.00530625449654 -0.00624586591496)
(0.10124697899 0.00476361934257 -0.00504998340921)
(0.106339450286 0.00410822548306 -0.00378025132581)
(0.108785238335 0.0033645855494 -0.00243219305912)
(0.108568818613 0.00254173137361 -0.00102790780938)
(0.105770096043 0.00169623006018 0.000370917643356)
(0.100518890394 0.000864061140499 0.00171066293883)
(0.092936252897 9.33201454361e-05 0.00296489628021)
(0.0831627564897 -0.000577955722687 0.00411075661732)
(0.0713485543175 -0.00112982579601 0.00512447155591)
(0.0576849927649 -0.00158619169624 0.00599242742197)
(0.0424547044081 -0.00196216171916 0.00669289515809)
(0.0260606456048 -0.00226844642135 0.00723855655744)
(0.00875151218727 -0.00244183078685 0.00757265684241)
(0.00887175560072 0.0188765612191 -0.00982633346996)
(0.0258381794699 0.0190804211754 -0.00966823672671)
(0.0418116509045 0.0187736075768 -0.00931048891417)
(0.0569758485947 0.018200851373 -0.0086686526079)
(0.0707657527889 0.0173589232321 -0.00779973098268)
(0.0827601340989 0.0163436315947 -0.00670277913527)
(0.0926136360663 0.0151285108549 -0.00558860431884)
(0.100040748401 0.0135668686665 -0.00443319885397)
(0.104939664778 0.0116995260114 -0.00318360526642)
(0.107229629186 0.00949771184705 -0.00179903437596)
(0.106927145407 0.0070611853805 -0.000376191435384)
(0.104119482257 0.00453213190563 0.00101461519993)
(0.0989448546578 0.0020443554845 0.00232914008127)
(0.0915174866135 -0.000239887296862 0.00355520837085)
(0.0819554687107 -0.00221329160668 0.00466866018102)
(0.0703539070372 -0.00384433987293 0.00563916893197)
(0.056861533822 -0.00513974580078 0.00646014969437)
(0.0417640087168 -0.00617594381152 0.00708958531565)
(0.025526956743 -0.00695000778034 0.00748839221252)
(0.00854349795886 -0.00734648855932 0.00742560684661)
(0.00887860351382 0.0306932820325 -0.00947076750389)
(0.0255886416449 0.0305288852006 -0.00930898874431)
(0.0411504855701 0.0298269597387 -0.0088054246978)
(0.0560318172124 0.0286971048039 -0.00807921137642)
(0.0696024134757 0.0273135357473 -0.00701175079857)
(0.0813919493432 0.0257964842881 -0.00597344353371)
(0.0908714245024 0.0239079426592 -0.00493893778757)
(0.0978833062125 0.0213759817743 -0.00391112317042)
(0.102404871271 0.0182738751268 -0.00272308428451)
(0.104336351397 0.0145559813047 -0.00140174485052)
(0.103815319252 0.0104129853755 -3.08059445836e-05)
(0.100962940115 0.00617215545316 0.00130891481767)
(0.095943161607 0.00208766362011 0.00258177387482)
(0.0888459765688 -0.00157877306374 0.00377036711116)
(0.0796930148451 -0.00467714451224 0.00481202011331)
(0.0685320806867 -0.00718872648126 0.00571879340942)
(0.0554563588549 -0.00916098342797 0.00640424509902)
(0.0407196028013 -0.0106578185274 0.00692207393118)
(0.0248575300499 -0.0116666158055 0.00724417714337)
(0.00830232807774 -0.0121090921479 0.00707342431263)
(0.00871153097531 0.0415259391082 -0.00893926896547)
(0.0250062643261 0.0410344365097 -0.00869038004008)
(0.0400690757805 0.0400037262296 -0.00809897736452)
(0.0546062262927 0.0384607034835 -0.00711763685735)
(0.0680209121495 0.0365978806491 -0.00601130281039)
(0.0795877458281 0.0350274471221 -0.00501359011834)
(0.0885158915763 0.0326645556986 -0.00415186036791)
(0.0948306126283 0.029164335587 -0.00343750955563)
(0.0986212282141 0.0246540457258 -0.00235957563855)
(0.099946503017 0.0190875779069 -0.00107222822445)
(0.0991583280124 0.0129348094503 0.000266687315495)
(0.0963875073574 0.00681430695661 0.00151761522675)
(0.0917164181738 0.0013763043458 0.00270912545696)
(0.0851688408955 -0.0033046179642 0.00383268382342)
(0.0766435905903 -0.00721778810147 0.00480215341782)
(0.0660919483182 -0.0102887569944 0.00562481440921)
(0.0535946253319 -0.0126749807151 0.00618512215859)
(0.0394600909541 -0.0144724081188 0.00654814236534)
(0.024151401824 -0.0156402477919 0.00676027628212)
(0.00806446990807 -0.0160839595275 0.0065707889592)
(0.00839851550665 0.0509450519393 -0.00821333130956)
(0.0241401572382 0.0501990645533 -0.0078407696057)
(0.0387003480156 0.0489078970127 -0.00715678689423)
(0.0525931832233 0.0473198689955 -0.00605271479989)
(0.0662265390152 0.0452284709005 -0.00414767466556)
(0.0778237733535 0.0435846309511 -0.00412468471416)
(0.0856684260544 0.0417316998017 -0.00343275602127)
(0.0909022162799 0.0373497604238 -0.00316633073942)
(0.0934246502758 0.0318314959445 -0.00211743897406)
(0.0937371910263 0.0241202965367 -0.000789756075103)
(0.0926067136751 0.0156745546222 0.000575580604857)
(0.0903324963565 0.0072927615658 0.00190708955985)
(0.0865701476891 0.000347441819643 0.00293307130964)
(0.080804212748 -0.00537079565135 0.00381297583017)
(0.0730266717268 -0.0096937374586 0.00462238543534)
(0.0632185683256 -0.0128981892095 0.00535543883173)
(0.0514007657085 -0.0153886902507 0.00580599676214)
(0.0379680907531 -0.0172459333913 0.00606844676502)
(0.0233790533008 -0.018470399958 0.0061617657394)
(0.0078467075866 -0.0189442671094 0.00594574655952)
(0.00798101192075 0.0586810265801 -0.00732582936696)
(0.0230185042083 0.0577696258013 -0.00682590138536)
(0.0369510875621 0.0564149272309 -0.00610161829872)
(0.0504921066803 0.0547818289256 -0.00485097121949)
(0.064168230498 0.0525333783037 -0.00316223786235)
(0.0763309004675 0.0498552998525 -0.00358692872116)
(0.0829836038951 0.0474905851831 -0.00344395721567)
(0.0864204298009 0.0428702251773 -0.00226013952085)
(0.086999089087 0.0359657869578 -0.000904217551574)
(0.0854533008391 0.0251891721334 0.000434694149589)
(0.0838080480421 0.0136336049788 0.0012623651535)
(0.0822737224476 0.00278184508932 0.00259736549631)
(0.0799922935645 -0.00465357848651 0.00325855557161)
(0.0757618147446 -0.00898761186128 0.00387737338965)
(0.0693036589347 -0.0122821572964 0.00430148754461)
(0.0602997969658 -0.0148065738247 0.00490028551304)
(0.0491318070464 -0.0170553399843 0.0052537580433)
(0.0364187502085 -0.0187642079465 0.00542800163129)
(0.0225198827735 -0.0199111035037 0.00546884040247)
(0.00759730263333 -0.0203182520614 0.00527678399209)
(0.00750465005117 0.0645438811465 -0.00635923942317)
(0.0217051883913 0.0635669405218 -0.00585135453537)
(0.0348974059509 0.0622374736037 -0.0052130575094)
(0.0478240497962 0.06047238271 -0.00401528681098)
(0.0605458641903 0.0586584892868 -0.0030488642497)
(0.0726839893567 0.0551254154041 -0.00254842693515)
(0.0798384544497 0.0535192130723 -0.00266874367106)
(0.0815598417124 0.0513228586083 -0.00231042284841)
(0.0780342492686 0.0418692575267 -0.000883724741229)
(0.0740628452477 0.0254861831425 0.000179496047849)
(0.0723084766558 0.00829310905687 0.00062905933464)
(0.0733073427728 -0.00666174050157 0.000796544899172)
(0.0747407919234 -0.0133080295441 0.000798707378822)
(0.0724745480606 -0.013117706769 0.00276195507867)
(0.0666584035396 -0.0136952009417 0.00321450831838)
(0.0578861105206 -0.0156222752094 0.00409982211551)
(0.0469858354186 -0.0174639702901 0.0044787545529)
(0.0348840022019 -0.0189203921924 0.00467476830299)
(0.0216973033821 -0.0199149448355 0.00471677777958)
(0.00737648954669 -0.0201331141929 0.00458705224702)
(0.00698119574389 0.0684035583897 -0.00534470322425)
(0.0202060082657 0.0673595999822 -0.00484895745282)
(0.0325575826574 0.0659111928028 -0.00432136066868)
(0.0449247115024 0.0639396493509 -0.00342242647029)
(0.0569999120474 0.0619858898518 -0.00312259361133)
(0.0707887397185 0.0585369935467 -0.00198174848179)
(0.0791875544496 0.0550315887655 -0.00145371385374)
(0.0764806866102 0.0500586599145 0.0049981829778)
(0.0642414031535 0.0389035048338 0.00545945692608)
(0.0546257280482 0.0230662353338 0.00246222634073)
(0.0531806433262 0.00701057646673 -0.000761208335677)
(0.0606867586223 -0.00690819070485 -0.00511000807636)
(0.0724544474893 -0.01342513819 -0.00668037326545)
(0.0752269537404 -0.0132717405516 0.000217012671104)
(0.0665557940073 -0.012962018113 0.00233831196547)
(0.055909502384 -0.0146458081809 0.00346028351416)
(0.0451803654526 -0.0161529337324 0.00381787200872)
(0.0335165600751 -0.0173578573118 0.00402378956258)
(0.0209776907218 -0.0182136824709 0.00414260884674)
(0.00720818908305 -0.0184690327992 0.00395052486591)
(0.00638234665505 0.0702642107795 -0.00433131395794)
(0.0184516599792 0.0691196194718 -0.00384738285079)
(0.0297285108302 0.0675221532865 -0.00346963171893)
(0.0410360620426 0.0651172913686 -0.00279849254509)
(0.0522634908461 0.0622949234564 -0.00284815846755)
(0.0654939808431 0.0580674295926 -0.00219518507767)
(0.0736106563208 0.0498607860795 -0.00109925811496)
(0.0685114672929 0.0408798370251 0.00632848143956)
(0.0539987877747 0.0307282505396 0.0037904913437)
(0.0435274069414 0.0203847082991 0.00110514728102)
(0.0427287399835 0.0107066961247 -0.00232921695564)
(0.0526649238488 0.00255243098903 -0.00725872520939)
(0.0682659710157 -0.003283622314 -0.0097975532172)
(0.0738428215466 -0.00724660297848 -0.00165186034499)
(0.0649192151758 -0.0093020536473 0.00113530609403)
(0.0539226823744 -0.011369653605 0.00234189111319)
(0.0434662698003 -0.0130019307677 0.00277935513532)
(0.0322187572219 -0.0141987626761 0.0030112253984)
(0.0201133478567 -0.0150055352952 0.00323440252949)
(0.00687466548062 -0.0152680379476 0.00346669496741)
(0.00570986146182 0.0702821136631 -0.00335078076874)
(0.016474033223 0.0690678666151 -0.0028932500337)
(0.0264707746171 0.0673597591428 -0.00263362195991)
(0.0364462004527 0.0645623654266 -0.00210019634529)
(0.0464985838016 0.0609319773373 -0.00223299731286)
(0.058233060504 0.0549695693621 -0.00178994020079)
(0.0659408516303 0.0436051624375 -0.000371868387403)
(0.0605141613076 0.0322296191299 0.00530916276343)
(0.045604547069 0.023208767601 0.00269807746954)
(0.036229748903 0.0168906824388 0.00134278143713)
(0.0365709918654 0.0131849431699 -0.00273267115402)
(0.0472001046091 0.0103378634806 -0.00762485956595)
(0.0633054372048 0.00612558369626 -0.00997533248643)
(0.0697382325594 -0.000178675699931 -0.00260471193452)
(0.0618811650146 -0.0039391147042 0.000154362428222)
(0.0514214397904 -0.00673493310937 0.00141868696353)
(0.0415262398601 -0.00870906348467 0.00189990572794)
(0.0308695817356 -0.010035024251 0.00220197161191)
(0.0193837834291 -0.0108560971967 0.00250308935977)
(0.00667963276045 -0.010958374198 0.00287363968002)
(0.00499029900406 0.0686499543307 -0.00241085723928)
(0.0143639285572 0.0674239532903 -0.00195895050183)
(0.0229473963036 0.0656749977274 -0.00183099895827)
(0.0313142836216 0.0628989513827 -0.00146804456745)
(0.0396813749378 0.0592067287884 -0.00153666713114)
(0.04867311064 0.0520777619897 -0.0013620680104)
(0.0545921502842 0.0377763281163 -0.000663507636107)
(0.05091233668 0.0235139169136 0.00470804996496)
(0.0405921529056 0.016620531739 0.0038701484386)
(0.0343340143976 0.0160602438789 0.000558676401791)
(0.0360844659893 0.0175221652711 -0.00291938034362)
(0.0452539874234 0.0185737934445 -0.00688622379178)
(0.0584448982078 0.0155613283834 -0.00861868037151)
(0.0639879627742 0.00769500151389 -0.00295674716247)
(0.0577623744449 0.00200528576415 -0.000505998299812)
(0.0484459392966 -0.00134846959585 0.000675133131082)
(0.039353484457 -0.00368143287452 0.00122189546356)
(0.0294030970212 -0.00521160022629 0.00158890172574)
(0.018630371978 -0.00607612308793 0.00201293008884)
(0.00648303317958 -0.00614136392894 0.00263079387375)
(0.00429859555495 0.0655803075771 -0.00150592553683)
(0.0122781139698 0.0643808688714 -0.0011097730547)
(0.01950142537 0.0626154750464 -0.00106182642988)
(0.0265692583037 0.0602130584603 -0.00104913848087)
(0.0330645182743 0.0563182787199 -0.00130212725642)
(0.0384559694267 0.0494437556519 -0.00117435525328)
(0.0423457119653 0.0376127110758 -0.00105297309665)
(0.0416671497258 0.0250177677435 -0.000462896632148)
(0.0377161265158 0.0192316761099 -0.00137416525276)
(0.0363525045157 0.0196139831719 -0.00228244542028)
(0.0389593586223 0.0213357428632 -0.0030208723003)
(0.0456702213722 0.0226362008301 -0.0037794093234)
(0.0534181181266 0.0200395683168 -0.00363845339652)
(0.0565638202663 0.0132148749769 -0.00201172380482)
(0.0525606250439 0.00739597186186 -0.000448207944523)
(0.0452271428949 0.00383627983078 0.000328788821391)
(0.0370077258234 0.00131176967116 0.000824412943052)
(0.0278371421338 -0.000344794338151 0.00121333475636)
(0.0178028110107 -0.00126264650634 0.00168340715235)
(0.00624364565908 -0.00129202201375 0.00241731521426)
(0.00363768634315 0.0612474768029 -0.000710778087274)
(0.0103381416432 0.060113352812 -0.000307080526779)
(0.016230223235 0.0583580307323 -0.000332160479793)
(0.0217330913483 0.0562205511589 -0.000537474006653)
(0.0267214322669 0.0522605605667 -0.000711724175052)
(0.0306104069197 0.0474660139786 -0.000871148473284)
(0.0330572140578 0.0408916664674 -0.00116232064551)
(0.0350001560392 0.0329424974859 -0.00160930332878)
(0.0361468927441 0.0287141773067 -0.00233631284133)
(0.0374748295096 0.0269374798411 -0.00277919466131)
(0.0406017826546 0.0263311783707 -0.00318633400211)
(0.0452878641855 0.0256206623434 -0.00375751522872)
(0.0495005679977 0.0222562333547 -0.00270727706202)
(0.0507660831879 0.0170434513207 -0.00156603997617)
(0.0477939875681 0.0119479738455 -0.000554991091469)
(0.0418697230022 0.00838465077725 9.8958332105e-05)
(0.034593058594 0.00583005913276 0.000586554539501)
(0.026248950746 0.00417905318332 0.000994346533534)
(0.0169532509945 0.00324026919409 0.00152778448402)
(0.00607225978893 0.00315365218918 0.00241803005287)
(0.00308070145164 0.0557881340836 2.15402401294e-05)
(0.00869692924183 0.0547760057691 0.000432059078053)
(0.0135499179388 0.0531166573732 0.000404615477383)
(0.0181417548644 0.0510728900657 0.000157801386652)
(0.0225485299952 0.0483940009434 -0.000154893568492)
(0.0268624592099 0.0445250978413 -0.00031404539206)
(0.0297064383876 0.0405930045952 -0.00089973090019)
(0.0313245729417 0.036843788091 -0.000854336537258)
(0.0329715691231 0.0332624311255 -0.000972898244227)
(0.0352863909014 0.0306759194439 -0.00115834985271)
(0.0384811611907 0.0286575084596 -0.00135775236648)
(0.0420838781729 0.0264916777768 -0.00137745853287)
(0.0449146838975 0.0231850776576 -0.00105049913181)
(0.0455989237962 0.0189563785631 -0.000673236408814)
(0.0432632192772 0.0148601987799 -0.000227251537046)
(0.0384652582406 0.011716136506 0.000211170073324)
(0.0321714189072 0.00940710894419 0.000608928114503)
(0.0246649417747 0.00784909253176 0.00100149171295)
(0.0160899898873 0.00690197584417 0.0015568518229)
(0.00584160968909 0.00668704382505 0.00258815896664)
(0.00261411034587 0.0492887962092 0.000658280163962)
(0.00736412661486 0.0483951535335 0.00106276704883)
(0.0114061530238 0.0469110565954 0.00108139810949)
(0.0152885129489 0.0449976356436 0.000844935958571)
(0.0190968741193 0.0426474941023 0.000518445317753)
(0.022706835626 0.0397922984807 0.000204601884849)
(0.0257240895024 0.0361424728918 -0.000130704806665)
(0.0283197905364 0.032798682905 -0.000308434558128)
(0.0308970527734 0.0301817601294 -0.000496296871712)
(0.0336908925438 0.028242219806 -0.000713800656258)
(0.0366666322185 0.026568965081 -0.000849797744576)
(0.0395435111177 0.0247298761741 -0.00076203971876)
(0.0414875979169 0.0221851407248 -0.000582109040078)
(0.0416780723148 0.0190946776797 -0.000264777680396)
(0.0397032684896 0.0160185423293 9.34076291662e-05)
(0.0356663406216 0.0135176703902 0.000420017592395)
(0.0300985816471 0.0116037891018 0.000775670005233)
(0.0232798528067 0.0102389226824 0.0011288784865)
(0.0153187152834 0.00934413070755 0.00167793480859)
(0.00560313663124 0.0090399768026 0.00284991366976)
(0.00222046281539 0.0418318231411 0.00119515083862)
(0.00626805164913 0.0410794047673 0.0015889435487)
(0.00972611328248 0.0398472915778 0.00161630534836)
(0.0130599083989 0.0382005038115 0.00141905191942)
(0.0164370948921 0.0362297582509 0.00113845139768)
(0.0197717379125 0.0339815224439 0.000848748777042)
(0.0229201358911 0.0315369805159 0.000585623504688)
(0.0259364109555 0.0292296551264 0.000356513478642)
(0.0289092804044 0.0272878908807 0.000115307224329)
(0.0318917594003 0.0256356426537 -8.19422156468e-05)
(0.0348095362886 0.0241103190729 -0.000179712329239)
(0.0372815556699 0.0224860455947 -0.00017252097174)
(0.0387674116589 0.0204090075478 -5.77434422349e-05)
(0.0387614847891 0.0181504707025 0.000163043583641)
(0.0369660166367 0.015922360804 0.000437795254302)
(0.0334184112077 0.0140240075579 0.000747772095)
(0.0284011043322 0.012495807632 0.0010250430418)
(0.022126087193 0.0112970590524 0.00132765855071)
(0.0146196294664 0.0104470111018 0.00186418744011)
(0.00535992218066 0.0100691408385 0.00314764229586)
(0.00190694005943 0.0335493761294 0.0016583778746)
(0.00541204064849 0.032950626669 0.00197702939026)
(0.00841361157523 0.0319919129348 0.00199222233754)
(0.0113842815696 0.0307136743801 0.00181351927498)
(0.0144714135679 0.0292054931108 0.00156580435283)
(0.0176429755051 0.0275624776501 0.0012826210433)
(0.0208367476487 0.0258950789325 0.00100737958819)
(0.0240563779868 0.0243184437174 0.000745137534026)
(0.0272416993138 0.0229101175068 0.000491476125722)
(0.0303488253586 0.0216766206407 0.000306752050722)
(0.0332293324544 0.0204992940853 0.000216619682464)
(0.0354791879108 0.0192139751558 0.00020566816468)
(0.0367360011069 0.0177142552535 0.000301649740865)
(0.0366554907274 0.0161284789961 0.000495910557972)
(0.0350201361114 0.0145766332462 0.000742138521447)
(0.031792442837 0.0132189903605 0.00100368044767)
(0.027084212818 0.0120525940626 0.00127311301551)
(0.0211481174564 0.0110423180188 0.00158034600494)
(0.0140193650068 0.0102413830792 0.00212353090835)
(0.00512258567072 0.00980806395629 0.00343788391548)
(0.0016589729698 0.024594815418 0.00202684833768)
(0.00475303215601 0.0241376253707 0.00227773601431)
(0.00745486731199 0.0234511000638 0.00224745480798)
(0.0101922350075 0.0225825527157 0.00204955847288)
(0.0131043944781 0.0215691623289 0.00180038300971)
(0.0162035612013 0.0204719670557 0.00152514057645)
(0.0194386505258 0.0194316286074 0.00123817320339)
(0.0227561878362 0.0184298863644 0.000962095086047)
(0.0260783176804 0.0175382467479 0.000719316968251)
(0.0292574773063 0.0167392477071 0.000546788912841)
(0.032108667091 0.01596696309 0.000473530000684)
(0.0342330101757 0.0151321397283 0.000482864351294)
(0.0353863431095 0.0141714507056 0.00056744055473)
(0.0352619136503 0.0131732734845 0.000742300885604)
(0.0336961660835 0.0121930359538 0.00100246014119)
(0.0306277894294 0.0112548971738 0.00125513986205)
(0.0260977522653 0.0103971872472 0.00154045122046)
(0.0203434400855 0.00960278383211 0.00186842640263)
(0.0134446365942 0.00883540670393 0.00239831689307)
(0.00488161941816 0.00828254067486 0.00366117681829)
(0.00147633523869 0.0151032224005 0.0023161043496)
(0.00429206900077 0.0147778380773 0.002485960522)
(0.00683122037638 0.0143591024104 0.0024285965506)
(0.00946276812378 0.0138952491218 0.00223977593867)
(0.0122947591939 0.0133541340182 0.00199741833938)
(0.0154020151286 0.0127062520845 0.00175870253981)
(0.0186834633138 0.0122734112029 0.00145564983433)
(0.0220680460373 0.01179595906 0.00120964416038)
(0.0254722855026 0.0113596677872 0.000991972082499)
(0.0286617268896 0.0109695457715 0.000853951798669)
(0.0315055189854 0.0106026977167 0.000840676678273)
(0.0335509923623 0.0101968754562 0.000915840449197)
(0.0346405791756 0.00973325382181 0.00100963067311)
(0.0344835409153 0.00922728627662 0.00124193315571)
(0.0329106772225 0.00869974642866 0.00151552816808)
(0.0298581130206 0.0081562191595 0.00180006530622)
(0.0253744157727 0.00759194941894 0.00209018041917)
(0.0196247523899 0.00701864999344 0.00238680134714)
(0.0127790428827 0.00634662289656 0.00281661860946)
(0.00457735064207 0.00562096913575 0.00379583570292)
(0.00137361443781 0.00505913186228 0.00252543503765)
(0.00407520868188 0.00493211740095 0.0025219474016)
(0.00660102874038 0.00478597256638 0.00242931729015)
(0.00922780890726 0.00464122442683 0.00227703843421)
(0.0119799368426 0.00446541506526 0.00211703868361)
(0.0152350105389 0.00420882086585 0.00220778295971)
(0.018694581019 0.00416413330679 0.00175682181569)
(0.0220514159935 0.00407961138968 0.00156766628283)
(0.0254843058831 0.00399616102453 0.0014844507881)
(0.0286985096815 0.00394067677267 0.00147863220517)
(0.0315405290637 0.00387539958696 0.00162030071879)
(0.0335353251118 0.00378830607545 0.00183991974388)
(0.0345982860164 0.00370390519053 0.00208287982265)
(0.0343369017709 0.00357930377023 0.00243726565605)
(0.032688409195 0.00340047183464 0.00281159641195)
(0.0295529725212 0.00320649261954 0.00315789965568)
(0.0249617233589 0.00297470138909 0.00347236816728)
(0.0191107489667 0.00272670319758 0.00370546890736)
(0.0120809349475 0.002435689923 0.0038200112666)
(0.00418615886156 0.00203904793818 0.00387647513849)
(0.00873616405715 0.00645420624006 -0.030211722007)
(0.0259664035998 0.00643977530129 -0.0296954163621)
(0.0425524443215 0.00632029895452 -0.028678674606)
(0.0581781771441 0.00612079922034 -0.0270605961027)
(0.0723846412148 0.0058201189655 -0.0248989339675)
(0.0847813425965 0.00547510662308 -0.0222270957432)
(0.0950006967612 0.00501901814836 -0.0190600089569)
(0.102785437766 0.00443448141592 -0.0155025625751)
(0.108002391762 0.00373970364274 -0.0116240019324)
(0.110532198367 0.00296685328885 -0.00749381394789)
(0.110352419571 0.00213178672071 -0.0032320476854)
(0.107532208813 0.00125375858276 0.00100928470281)
(0.102189163728 0.00038354047319 0.00507451610453)
(0.0944728620559 -0.000434287014608 0.00887494969424)
(0.0845271446974 -0.00116869384172 0.0123249722539)
(0.0725346604427 -0.00179378005047 0.0153776270065)
(0.0586945086116 -0.00229900689699 0.0179741700209)
(0.0432747740864 -0.00266880403168 0.0200803040091)
(0.0266506972749 -0.0028739995418 0.0216713646514)
(0.00899452225283 -0.00267418009365 0.0225789383306)
(0.00876234186147 0.019174278816 -0.0296473373956)
(0.0258928453018 0.0190920741766 -0.029112919385)
(0.0422219720153 0.0186889830256 -0.0280056188199)
(0.057669221233 0.017993537575 -0.0263146708435)
(0.0717514565587 0.0171013349032 -0.0240441899007)
(0.0839956719489 0.016068797704 -0.0212445714477)
(0.0939799196104 0.014823283346 -0.0180506567904)
(0.101557438249 0.0132125587349 -0.0145208280524)
(0.106623035861 0.0113126771769 -0.0106226073227)
(0.109032122037 0.00909776455586 -0.00642236669349)
(0.108758136351 0.00667856869915 -0.00209459239619)
(0.105902153527 0.00413534605814 0.00216442865085)
(0.100625490296 0.001613258419 0.00621789660748)
(0.093049655348 -0.000752388503124 0.00998937047911)
(0.0832931426939 -0.00288027016336 0.013365475482)
(0.0714790733976 -0.00468232742339 0.0162653710072)
(0.0577791005878 -0.00616464041407 0.0186653504832)
(0.0425191156429 -0.00727004218246 0.0205456657491)
(0.0261089415306 -0.00792372525538 0.021857221313)
(0.00876649130733 -0.00776316945859 0.0221511259916)
(0.00869375582959 0.0312208053802 -0.0285484851478)
(0.0255587603329 0.0309174392837 -0.0279640555658)
(0.0415282692037 0.0301216212694 -0.0267183025156)
(0.0567628885758 0.0288836270372 -0.0248724960211)
(0.0706393813386 0.0274418709539 -0.0225705059384)
(0.0826236488946 0.0257838072597 -0.0198462242903)
(0.0922545495131 0.0238682520223 -0.0168204009387)
(0.0994736423384 0.021301697016 -0.0134698600213)
(0.104179454965 0.0182642631595 -0.00967271605142)
(0.106236380046 0.0146891132176 -0.00552084677527)
(0.105756333007 0.0106602623421 -0.0012684300512)
(0.102849742754 0.00649144081676 0.00291093987095)
(0.0976979573656 0.00238670964873 0.00683166363836)
(0.0904008830957 -0.00140220965276 0.0104536223888)
(0.0810388311123 -0.00474967716967 0.0136311887017)
(0.0696352239651 -0.00754922295911 0.0163718493116)
(0.0562960068105 -0.00983973460082 0.0184778410946)
(0.0413641224446 -0.0115567272616 0.0200162302763)
(0.0253795661817 -0.0126202265077 0.0210363904222)
(0.00849869224157 -0.012758474716 0.0211042742643)
(0.00850399975895 0.0422624629316 -0.0269178972476)
(0.0249513129669 0.0417051083775 -0.0262230099681)
(0.0405475305588 0.0404858950453 -0.0247747690611)
(0.0554966336276 0.0387991264961 -0.0228596849786)
(0.0691346610019 0.0370422467841 -0.0206204068769)
(0.0807712126351 0.0347373527742 -0.0182341947482)
(0.0898504621404 0.0323878387147 -0.0154934100217)
(0.0964710775971 0.0287779840893 -0.0124386350306)
(0.10065722916 0.0245472326745 -0.00865949789011)
(0.102151851952 0.019350134488 -0.00451245220757)
(0.101295823501 0.0135849686092 -0.000311671649169)
(0.0983532794148 0.00778809724122 0.00367674643597)
(0.0934480634223 0.00225289102905 0.00729538807019)
(0.0866680833621 -0.002668383315 0.0105923366956)
(0.0779619674617 -0.00692614963289 0.0134200239424)
(0.0672010798117 -0.0103980721389 0.0159065571132)
(0.0544124064108 -0.013194245313 0.0177675408502)
(0.0400063550898 -0.0153357221408 0.0189776267315)
(0.0245561240764 -0.0166937640821 0.0196499539212)
(0.00823360625499 -0.0169333766322 0.0196009012345)
(0.00821287532361 0.0518823923802 -0.0247613246856)
(0.0241226372405 0.0510539162342 -0.023906629418)
(0.0392726641489 0.0494606552608 -0.0224115902209)
(0.0540391765772 0.0474047690084 -0.0205810615361)
(0.0671401808332 0.0453787967062 -0.0181830985119)
(0.0783779449122 0.0430752744828 -0.0167697747017)
(0.0868446517182 0.0408954698978 -0.0142965376135)
(0.0925058390387 0.0370257200832 -0.0116270776673)
(0.0957139861345 0.0320256305018 -0.00764462666532)
(0.0962953046439 0.0248616495203 -0.00338289560909)
(0.0952196587818 0.016703732887 0.000980339326892)
(0.092545974548 0.00883681400518 0.00511810390918)
(0.0882434710245 0.00174014414858 0.008233367403)
(0.082240052846 -0.00416799315978 0.0106399558765)
(0.0743618439913 -0.00908810479874 0.0128021975058)
(0.0643936169298 -0.0128463180854 0.0150176827917)
(0.0522318310744 -0.0158827715468 0.0165963800307)
(0.0384406749981 -0.0181617614054 0.0175606182612)
(0.0236512263669 -0.0196128241208 0.0179422099255)
(0.00793394102479 -0.019914148453 0.017741270449)
(0.00781308943164 0.0597695645449 -0.022171853153)
(0.0230537459966 0.0586995427349 -0.02122647023)
(0.0376304885468 0.0568137558141 -0.0198158730493)
(0.0518276300163 0.0545356495222 -0.018173536663)
(0.0648229689446 0.052037781941 -0.0160098897584)
(0.0765843498051 0.049540306266 -0.0148700708833)
(0.0847020240088 0.0470074906384 -0.0126388292919)
(0.0889104764313 0.0426706192043 -0.00850052139116)
(0.0895853117153 0.0365266234944 -0.00393909766298)
(0.0878326843279 0.027145191313 -3.3299675301e-06)
(0.0862017132314 0.0165846883014 0.00379938735125)
(0.0842436360628 0.00630245549122 0.00772196149524)
(0.081097906839 -0.00194509478678 0.00971003762053)
(0.0766406782361 -0.00737854032332 0.0109418738523)
(0.070225216049 -0.012028341454 0.0120078877881)
(0.0613161869891 -0.0150701472386 0.0137746327974)
(0.049872392986 -0.0178018349234 0.014968432555)
(0.0368298489671 -0.0198377952748 0.0157018494371)
(0.0227060799464 -0.0211564381318 0.0159369294125)
(0.00761006655998 -0.0213461902419 0.0157188981814)
(0.00732340145087 0.0657211115288 -0.0193027638422)
(0.0217102448004 0.0645118633534 -0.0183271637995)
(0.0354266228422 0.0624844833747 -0.0172363391477)
(0.0486668091869 0.0603388532884 -0.0160026805241)
(0.0616307090415 0.0572366238819 -0.0141711045311)
(0.0736462617316 0.0542439634976 -0.0125172209548)
(0.0817981042884 0.0533087638618 -0.00933949069223)
(0.0845487140915 0.0543996618358 -0.00345165625519)
(0.0816269663504 0.0444926963063 0.00167991325792)
(0.0771028894581 0.0266709290958 0.00513479317603)
(0.0747913404312 0.00751609699117 0.00841453070708)
(0.0743482025877 -0.010957079716 0.0112360774808)
(0.0749846072624 -0.019432608635 0.0117997464965)
(0.0733124454507 -0.0138623421596 0.0112732563061)
(0.0674467128024 -0.0144181133913 0.0116735285089)
(0.0591451039397 -0.0162550257263 0.0121057917551)
(0.0478124417921 -0.0183349610745 0.0128136630949)
(0.0353127913381 -0.0200172719258 0.0134703179103)
(0.0217932122452 -0.0210898340221 0.0137159975224)
(0.00731922696591 -0.0211493537521 0.0135921661713)
(0.006768866918 0.0696197696402 -0.0162586764908)
(0.0201636056934 0.0683242709875 -0.0153210129826)
(0.0329347723941 0.0661866627809 -0.0144721603918)
(0.0453282168781 0.063999141495 -0.013623330924)
(0.0579529311501 0.0602189831253 -0.0124602916201)
(0.0721680058498 0.05603213285 -0.0101878000314)
(0.087744671354 0.055577469064 -0.00541366918892)
(0.0831969386636 0.0557608987559 0.0300088986538)
(0.0627055723561 0.0422410925436 0.0266387282495)
(0.0514642192154 0.0238064585146 0.00964343408027)
(0.0493909454307 0.00458507721882 -0.00582314424065)
(0.058360435876 -0.0135134902886 -0.0237425062653)
(0.0782892643402 -0.0211772894454 -0.0317116462554)
(0.0836498443769 -0.0146291139709 0.00621627863167)
(0.0684684213202 -0.0137901584692 0.00940221122849)
(0.057404113317 -0.0157598708424 0.0104462992638)
(0.0459966615512 -0.0173883549857 0.0107139307062)
(0.0338933631007 -0.0187180807452 0.0112932688717)
(0.0208720252783 -0.0195277045545 0.0116441125481)
(0.00696638310349 -0.0193418373241 0.011600731303)
(0.00613849684202 0.0714864703932 -0.0131753974537)
(0.0183302107772 0.070094947379 -0.0122829874684)
(0.0299681644097 0.0677919624286 -0.0116468353019)