/*--------------------------------*- C++ -*----------------------------------*\
| =========                 |                                                 |
| \\      /  F ield         | OpenFOAM: The Open Source CFD Toolbox           |
|  \\    /   O peration     | Version:  v1606+                                |
|   \\  /    A nd           | Web:      www.OpenFOAM.com                      |
|    \\/     M anipulation  |                                                 |
\*---------------------------------------------------------------------------*/
FoamFile
{
    version     2.0;
    format      ascii;
    class       surfaceVectorField;
    location    "5";
    object      ddt0(Uf);
}
// * * * * * * * * * * * * * * * * * * * * * * * * * * * * * * * * * * * * * //

dimensions      [0 1 -2 0 0 0 0];

internalField   nonuniform List<vector> 
33146
(
(0.0172805234438 0.00648937413646 -0.00991959933036)
(0.0087757361131 0.0127650242194 -0.00990985239639)
(0.00870794034132 0.00642343661615 -0.0200374748777)
(0.0340518930423 0.00656098111774 -0.00968550083479)
(0.0257684988527 0.0127475648211 -0.00975703203231)
(0.0258326109177 0.00651292829097 -0.0196858444985)
(0.0500083576722 0.00645495204799 -0.00925502580329)
(0.0419237722333 0.0125542668221 -0.00941771945835)
(0.0422944180988 0.00642808995466 -0.019005439396)
(0.0648378194188 0.00624109805041 -0.00861990260596)
(0.0571967670078 0.0121493298171 -0.00882623168792)
(0.0577998319734 0.00624740345582 -0.0179701731388)
(0.0780238747626 0.00592171219102 -0.00779965071544)
(0.0710889881403 0.0116876720219 -0.00802620064353)
(0.0719027150099 0.00596407416647 -0.0165442011744)
(0.0891662886107 0.00552050663733 -0.00679541989882)
(0.0831665867108 0.0110266121967 -0.00702127321584)
(0.0841837033074 0.00560513241657 -0.0147215255388)
(0.0980368393896 0.00503441720123 -0.00564867649606)
(0.093098606344 0.0102297605021 -0.00591423020137)
(0.0943005132841 0.00516205496435 -0.0126680419764)
(0.104453974063 0.00443545299784 -0.00441606815393)
(0.10063456523 0.00919360793733 -0.00473797007485)
(0.102016669614 0.00459852446487 -0.0103375934489)
(0.108232401636 0.00373594124274 -0.00310717845458)
(0.105629802978 0.00801373875586 -0.00347664799762)
(0.107171706473 0.00392356871781 -0.00778547113718)
(0.109339180237 0.00295268577616 -0.0017310176407)
(0.107997910032 0.00662765965382 -0.00210880339607)
(0.109659880848 0.0031654739541 -0.00507313892804)
(0.107800162719 0.00211855884618 -0.000329395537829)
(0.107739130239 0.00504083846776 -0.000694278649355)
(0.109462109108 0.0023366499651 -0.00224328826895)
(0.103750159835 0.00127972759479 0.00103990214937)
(0.104937010997 0.00340052670752 0.000701324671822)
(0.106653000083 0.00147515385041 0.000532588742309)
(0.0972999348665 0.0004783099171 0.00233696525689)
(0.09972549076 0.00177447039357 0.00202870009241)
(0.101356092135 0.000623961737487 0.00322684175652)
(0.0885893435064 -0.000242573710158 0.00353719047091)
(0.0922214998226 0.000258664048456 0.0032679410773)
(0.0937065022077 -0.000170207692579 0.00574872040528)
(0.0777569948243 -0.00085398966198 0.00461726094296)
(0.08255440844 -0.00105924932806 0.00439499635021)
(0.0838459559211 -0.000872853912443 0.00802250456141)
(0.0649679676965 -0.00135798571072 0.00555837533719)
(0.0708479371897 -0.00218250285168 0.00538385170175)
(0.0719417126445 -0.00146161247111 0.0100276253306)
(0.0504415219427 -0.00177417471435 0.00634265790811)
(0.0572721946335 -0.00308299589819 0.00622650634882)
(0.0581897133846 -0.00194255834629 0.0117402253594)
(0.0344966897492 -0.00211530407027 0.00696572585777)
(0.0421092026297 -0.00383708963006 0.00689124966687)
(0.0428647392473 -0.00231548287543 0.0131596410463)
(0.0175686172864 -0.00235513860412 0.00740560669993)
(0.0257938011739 -0.00448074860829 0.00736347438498)
(0.0263556714399 -0.00257122298159 0.0142203664953)
(0.00864750507307 -0.00482619810735 0.00749913184452)
(0.00887301722005 -0.00255800544026 0.0148797337195)
(0.0172827510909 0.0189784911973 -0.00974728509834)
(0.00887517955726 0.0249620809507 -0.00964855048692)
(0.00881704873109 0.0190254200176 -0.0196583252101)
(0.0339262763581 0.0189269304205 -0.00948930419786)
(0.0257131937847 0.0249640788211 -0.00948845657732)
(0.0258655123858 0.019086247676 -0.0192406499196)
(0.0496951756552 0.0184864654494 -0.00898935424254)
(0.0414789620781 0.0244104082591 -0.00905656302863)
(0.0420168457147 0.0187313260392 -0.0183949466615)
(0.0643296353621 0.017777973005 -0.00823441409692)
(0.0564993199747 0.0235968026066 -0.00836886974072)
(0.0573219573466 0.0180966732172 -0.0173113516296)
(0.0772805367469 0.0168489310385 -0.0072528033719)
(0.0701769982661 0.0224799216489 -0.00739542015725)
(0.0712573320531 0.0172297790904 -0.0156814818971)
(0.0882668697834 0.0157338826842 -0.00614911205524)
(0.0820659388379 0.0212110380384 -0.00632423674042)
(0.0833754417855 0.0162028428973 -0.013930153955)
(0.0969214095659 0.014346410131 -0.00501546278984)
(0.0917293435845 0.0195867327273 -0.00525304761556)
(0.0932953786229 0.0149724565703 -0.0118522006835)
(0.103128267506 0.012632742362 -0.00381342446673)
(0.0989475047862 0.0174815114397 -0.00416530951964)
(0.100799012715 0.0133873427803 -0.00956057212641)
(0.106724990424 0.0105981420759 -0.00249663820233)
(0.103658295939 0.0150356293531 -0.00294485616621)
(0.105782636982 0.0115044910877 -0.00701026375676)
(0.10771376215 0.0082791321868 -0.00109271850413)
(0.10577119231 0.0120947422761 -0.00158875777436)
(0.108133967972 0.00929695003493 -0.00424196288287)
(0.1061286067 0.00579634641921 0.000314163797354)
(0.105362421283 0.00886266478162 -0.000186910227384)
(0.10784802143 0.00686995768244 -0.00140564305792)
(0.102113188118 0.00328796823104 0.00166711818995)
(0.102535814338 0.00548627441184 0.00118059129525)
(0.105018034006 0.0043344693888 0.00142943083032)
(0.0957910459609 0.000901703542601 0.00293803924293)
(0.0974418844567 0.00221656947278 0.00247547102685)
(0.0997942103865 0.00182975617362 0.0041478537172)
(0.0872657414862 -0.00122762881346 0.00410852175456)
(0.0901813313423 -0.000734104140114 0.00368036350544)
(0.0922932128522 -0.000493254703075 0.00665736446583)
(0.0766621335236 -0.00302971281199 0.00515221730668)
(0.0808237322801 -0.00328083904187 0.00475180980342)
(0.0826311167976 -0.00254585443399 0.00889366680511)
(0.0640598928513 -0.00449250769019 0.00604880986572)
(0.0694416505969 -0.00540524053151 0.00568445785694)
(0.0709184172668 -0.00426080165161 0.0108141823147)
(0.0496928896565 -0.00565781006554 0.00677467660179)
(0.0561574514552 -0.00710769673679 0.00643274638957)
(0.0573206994234 -0.00565251278903 0.0123765145113)
(0.033856309712 -0.00656295588033 0.00728897814686)
(0.0412410696478 -0.00844744028111 0.00700534698625)
(0.0421415360868 -0.006723096902 0.0136229807396)
(0.0169618525922 -0.00714824816986 0.00745699952956)
(0.0251921143804 -0.00939425824186 0.0073662225534)
(0.0258179491368 -0.00743686651789 0.0144817237699)
(0.00842291301831 -0.00982252693399 0.00724951557962)
(0.0086549946331 -0.00755482900899 0.0145869380764)
(0.0168999658267 0.0306110241534 -0.00938980167623)
(0.0087950545207 0.0364149785701 -0.00920498891183)
(0.0087861796717 0.0309570437063 -0.0188957978637)
(0.033342812654 0.0301768081564 -0.00905689784072)
(0.0252967484747 0.0361058258317 -0.00899789181984)
(0.0255737565696 0.0307231849737 -0.0183634097724)
(0.0489494959874 0.0292586409362 -0.00844302949408)
(0.0406090902944 0.0352880343069 -0.00844104479631)
(0.0413383713613 0.0299732172493 -0.0175242408816)
(0.063314286404 0.0280012557203 -0.00754883618031)
(0.0553161840401 0.0339145434306 -0.00757098277436)
(0.0563941017192 0.0287893166054 -0.016112318399)
(0.0760648809504 0.0265509147371 -0.00650031811198)
(0.0688060539146 0.0324061385237 -0.00645850547013)
(0.0701121751261 0.0273739864771 -0.0145768096951)
(0.0867494793133 0.024849565331 -0.0054660062238)
(0.0804771757756 0.0306131562772 -0.00546012551373)
(0.0819996125482 0.0257926509376 -0.0128074865119)
(0.0949638263267 0.0226424628553 -0.00443649262798)
(0.0896787700959 0.0283863735082 -0.00453382342487)
(0.0915579175236 0.0238933729868 -0.0108917776384)
(0.100743340163 0.019828049912 -0.00333016639821)
(0.0963433202206 0.0253122666714 -0.00367592095265)
(0.0986744780228 0.0213445491366 -0.00881040107132)
(0.103963508601 0.016418704164 -0.00207582205231)
(0.100503192342 0.0215143135429 -0.00254571342184)
(0.103290201589 0.0182708707445 -0.0063399645609)
(0.104661241514 0.0124888383977 -0.000728597347017)
(0.10213677375 0.0169332321939 -0.00122674785886)
(0.105289586897 0.0146220476428 -0.00362563976365)
(0.102945572722 0.00829650984138 0.000626051554289)
(0.101488077342 0.0119271043886 0.000149312769913)
(0.104796708877 0.0105365000232 -0.000804632054466)
(0.0989879419014 0.00413371371209 0.00193450873113)
(0.0986814181797 0.0067576409577 0.00147417706105)
(0.101924376257 0.00633510577755 0.00200018131045)
(0.0929354914739 0.00025601693713 0.00316467224997)
(0.0938400130066 0.00196898483356 0.00267733232639)
(0.0968426283568 0.00224165095527 0.00462561392619)
(0.0848003740946 -0.0031285050188 0.00428352689822)
(0.0870186878271 -0.00228166073131 0.00382554793322)
(0.0896484366109 -0.00148531624305 0.00709625952506)
(0.0746080208408 -0.00593565005645 0.00526002620164)
(0.0781785940704 -0.00584168707078 0.00481316249549)
(0.0803848472227 -0.00470543719404 0.00927577819245)
(0.0624665422913 -0.00817815981289 0.00605904969738)
(0.0673199793425 -0.00869299009103 0.00566971310263)
(0.0690911006571 -0.00736806253541 0.0110145050671)
(0.0484409859208 -0.00991100877433 0.00666279251967)
(0.0545307415489 -0.0109467830474 0.00628934216965)
(0.0558788425237 -0.00950473721965 0.0123963726271)
(0.0329615550372 -0.0111623741392 0.00708311334736)
(0.0400923284672 -0.012669955752 0.00673103815514)
(0.0410412123433 -0.0111081988505 0.0133003220917)
(0.0164408960879 -0.0118878464348 0.00715881021372)
(0.024504768935 -0.0138248924157 0.00700127935154)
(0.0251183744603 -0.0121435341194 0.013945092309)
(0.00818339321978 -0.0142892486758 0.00682209553081)
(0.00840051015966 -0.012433783432 0.0138921007312)
(0.0165136602992 0.0412795577925 -0.00881448401446)
(0.00855488322533 0.0466432194702 -0.00857575623753)
(0.00860774607753 0.0418942482736 -0.017804867122)
(0.0325192184454 0.0405159648251 -0.00839463897351)
(0.024575380848 0.0460436988075 -0.00825710810645)
(0.0249786161661 0.0413688824393 -0.0171801234905)
(0.0477646011976 0.0392275468705 -0.00761246887743)
(0.0393895029977 0.0449265721329 -0.00759281233891)
(0.0403016441876 0.0402398492366 -0.0161672274585)
(0.0617363150068 0.0375253719555 -0.00657462125522)
(0.0536010181659 0.0433335847692 -0.00651440630725)
(0.0550329602407 0.0386278127842 -0.0147369101825)
(0.07442884053 0.0358087150027 -0.00553029855304)
(0.0671148828125 0.0410661956112 -0.00503535406305)
(0.0685545076933 0.0368446287108 -0.0131272749144)
(0.0847441203342 0.0338444484408 -0.0046027745052)
(0.0786999503806 0.0396869829044 -0.00445871943479)
(0.0801615820551 0.0349488260033 -0.0117738289593)
(0.0922938409509 0.0309205602542 -0.00381414573579)
(0.0870844362149 0.0372099018526 -0.00378961726019)
(0.0891733579395 0.0326022125007 -0.0100632032113)
(0.0973627894066 0.0269219835039 -0.00291929602465)
(0.0928642462079 0.0331906254171 -0.00331956162517)
(0.0956356790085 0.0290305310652 -0.00811612763108)
(0.0998024195596 0.0218861706384 -0.0017378396692)
(0.096029053155 0.0279896108591 -0.0023418484898)
(0.0996273599772 0.0246257514484 -0.00568007275499)
(0.100023818603 0.0160275016659 -0.000421187319891)
(0.0968564636151 0.021319373424 -0.00104684702616)
(0.101049847716 0.0192212487083 -0.0029355662565)
(0.0982626855756 0.00988917893805 0.000872012015483)
(0.0959042128086 0.0141139866398 0.000318641164981)
(0.100247233447 0.0132562881048 -0.000114013978925)
(0.094507529938 0.00410692845226 0.00209484708284)
(0.0933847508539 0.00721927643313 0.00168615492365)
(0.0974013701474 0.00730318291331 0.00255492326782)
(0.0889600940548 -0.000957812323838 0.0032518501563)
(0.0891672433169 0.000941995439943 0.00279486376132)
(0.0926284454469 0.00183195466483 0.0050199166152)
(0.0814391019314 -0.00526014648305 0.00430398485061)
(0.0830083703285 -0.00424344454256 0.00382644608707)
(0.0859639242433 -0.00297270345257 0.0073068505763)
(0.0719083848028 -0.00875733610719 0.00520229805216)
(0.0748536251519 -0.00842712567867 0.00471108749639)
(0.0773412074074 -0.00705630225627 0.00928001141938)
(0.0602955255039 -0.0114883836609 0.00590044140771)
(0.0646707895573 -0.0115780746137 0.00547735647188)
(0.0666647600925 -0.0103467152215 0.0109123090091)
(0.0468348672278 -0.0135792005309 0.00636600444355)
(0.05250976447 -0.0140709530476 0.00597894065095)
(0.0540084874958 -0.0129434401468 0.0120392306552)
(0.0319290511034 -0.0150583261994 0.00665438874025)
(0.0387218849396 -0.0159837071355 0.00629628946811)
(0.0397294269362 -0.0149085252368 0.012653583983)
(0.0159721027715 -0.0158622061322 0.00666560913533)
(0.0237686350652 -0.0172592828802 0.00645651604276)
(0.02435224634 -0.0161683763009 0.0130303565122)
(0.00795564399401 -0.0177551442514 0.00625802865488)
(0.00814901839042 -0.0165086466712 0.0129233952901)
(0.0159865683604 0.0505706672057 -0.00802659588824)
(0.00819082424272 0.0552758922554 -0.00776719725153)
(0.00830561444897 0.0514134759132 -0.0163567906308)
(0.0314151318472 0.0495498515282 -0.0075002235687)
(0.023586426619 0.054468050711 -0.00731433116794)
(0.024128102568 0.0506225903727 -0.01562195732)
(0.0460552573447 0.0481134186158 -0.00661497062006)
(0.0378360850327 0.0531604800714 -0.00657212257526)
(0.0389668206208 0.0491824391169 -0.014461186601)
(0.0594605052697 0.0462755525859 -0.00510379003747)
(0.0515528010844 0.0515354359776 -0.00534009376894)
(0.0532613461379 0.0474157057815 -0.0130288666737)
(0.0731318028142 0.0444015088501 -0.00418377494632)
(0.0652107500197 0.0496014953527 -0.00342833231697)
(0.0666104187665 0.0454136006578 -0.0130560112947)
(0.0824406474616 0.0426588646285 -0.00380718228584)
(0.0770904088369 0.047704116479 -0.0034772820745)
(0.0780737512938 0.043608722709 -0.0100066503706)
(0.0890662310465 0.0395551453241 -0.00332650524773)
(0.084333644403 0.0462835069617 -0.00273097064362)
(0.0862386060418 0.0415767107683 -0.00936439836985)
(0.0927940864201 0.0346149634432 -0.00267585206123)
(0.0886702678558 0.0407352863503 -0.00238271432482)
(0.0916579241478 0.037376273721 -0.00695147011349)
(0.0938966921471 0.0280083385242 -0.00147531969112)
(0.0902285690032 0.0342558255178 -0.00124314354601)
(0.0945278786394 0.0320130470527 -0.00481779538191)
(0.0934474065373 0.019931036947 -0.000126283096742)
(0.0896209329693 0.0246513652007 8.91716018956e-06)
(0.0950049851965 0.024505193574 -0.00205839965763)
(0.0916945920663 0.0115148344487 0.00122418410995)
(0.0882368439037 0.0145808199886 0.00112111587128)
(0.0939393393511 0.0161769609322 0.000774295894968)
(0.0889182584489 0.00384322005221 0.00239028711497)
(0.086333648949 0.0048454535306 0.00239441915036)
(0.0914930410451 0.00806383851098 0.00361522525024)
(0.0843038682351 -0.00249739258275 0.00334709850152)
(0.0833090557863 -0.00217544950382 0.00328500880941)
(0.0874723060393 0.00106384458719 0.00574229455382)
(0.0774560908146 -0.00752871477476 0.00419854839621)
(0.078305473451 -0.00696496006689 0.00400199274087)
(0.0815960347625 -0.00473271721583 0.00742842006974)
(0.0686977819088 -0.0113003092017 0.00497143717673)
(0.0711830234241 -0.0108220422814 0.00451291272752)
(0.0737492759845 -0.00937722116712 0.00890827075415)
(0.0576732682309 -0.0141520483233 0.00557528704706)
(0.0617775294693 -0.0137892373794 0.00510828041594)
(0.0638384457783 -0.0128806025812 0.0104465796181)
(0.0449813270682 -0.0163265672311 0.00593561276375)
(0.0502829775818 -0.016258595969 0.00549784572336)
(0.0518200120547 -0.0156491397838 0.0112957014232)
(0.0307329297212 -0.0178635477229 0.00611561502029)
(0.0372064142094 -0.0181366877957 0.00572290989414)
(0.0381939574233 -0.0177166690536 0.0117909988817)
(0.0154044151415 -0.0187082219083 0.00605397324785)
(0.0229567978273 -0.0193643086605 0.00580450087155)
(0.0235094123717 -0.0190468335746 0.011913351014)
(0.00772333637068 -0.0199400584162 0.0056095769941)
(0.00789007822836 -0.0194296817237 0.0117313004538)
(0.0153108579022 0.0582236894426 -0.0070756273847)
(0.0077458045058 0.0621112652713 -0.00683802189029)
(0.00789632748118 0.0592239668733 -0.0146561413396)
(0.0300110093263 0.0570920115615 -0.00646783362433)
(0.0223740537223 0.0611646193727 -0.00631048378689)
(0.0230255952539 0.0582291626119 -0.0138407396257)
(0.0440595744572 0.0556071312095 -0.00548925935701)
(0.0359454817381 0.0598477618645 -0.00557237449399)
(0.037245413137 0.0566382404419 -0.0127953102506)
(0.0572090511264 0.0536630244559 -0.00400710805912)
(0.0491821445866 0.058080100864 -0.00428224611704)
(0.0510617395363 0.0548399613472 -0.0114856294463)
(0.0710775506461 0.0511912454215 -0.00342733109877)
(0.0623732018501 0.0557740605271 -0.00298734577996)
(0.0643966020562 0.0526677996681 -0.0111769948041)
(0.0811257723887 0.0486749428573 -0.00360589802465)
(0.0745171240516 0.0522541002226 -0.00316027719169)
(0.0764067092366 0.0502385770609 -0.00802594140029)
(0.0855815918683 0.0452013465795 -0.00287216557809)
(0.0814196347093 0.0546182961191 -0.00117123772505)
(0.0837777245128 0.0477656693275 -0.00757144937713)
(0.0878329771616 0.0394572137943 -0.00165227017692)
(0.0840127262613 0.0476407460226 -0.00214143615008)
(0.0875746173614 0.0431594140397 -0.00529205829207)
(0.086027212097 0.0306343557634 -0.000237390721492)
(0.0825508901759 0.0404461415378 -0.000480715229277)
(0.088221132776 0.0364416668396 -0.00262118425822)
(0.0846591533227 0.019469437869 0.000829909768041)
(0.0798026195364 0.0263645474559 0.000458973131132)
(0.0866185098305 0.0262110566141 4.44248707768e-05)
(0.0824856030428 0.00825825935267 0.001932959248)
(0.0780977106304 0.0124199243646 0.0012884956952)
(0.0850115190707 0.0150827399689 0.00339417790612)
(0.0814288169919 -0.000904818467653 0.00289718464111)
(0.0778175328758 0.000198126317566 0.00224267961181)
(0.0833428536574 0.00451473389375 0.00459310190669)
(0.0787774718713 -0.00680667452666 0.00354090881871)
(0.0773798630611 -0.00711722848403 0.0024832953536)
(0.0806391146439 -0.00331657012419 0.00626526807528)
(0.0732367528335 -0.0106305476441 0.0040534916402)
(0.0741356146625 -0.0105224050618 0.00326100460309)
(0.0762704442164 -0.00818594600773 0.00755996768482)
(0.0654610370231 -0.0135474971024 0.00457834974978)
(0.0680039182938 -0.0131973904262 0.00357963541124)
(0.0698258630077 -0.0121738122696 0.00844180438039)
(0.055141997278 -0.0159400746612 0.00506881845893)
(0.0591147879326 -0.0153922311141 0.0043930510751)
(0.0608468280869 -0.0149619152438 0.0096753976574)
(0.0430929570715 -0.0179214073965 0.0053381711501)
(0.0480793623275 -0.017449700262 0.00479593215205)
(0.049501009301 -0.0174602283513 0.0103512974375)
(0.0295864678412 -0.0193460927698 0.00544879623918)
(0.0356676110098 -0.0190712710816 0.00500937496889)
(0.03660474175 -0.0193268617401 0.0106623262939)
(0.0149871469119 -0.0201170737895 0.00537293165497)
(0.0221182996812 -0.0201508055568 0.00507610312979)
(0.0225980083681 -0.0205445385139 0.0106885082789)
(0.00748972176972 -0.0205051172073 0.00492829517474)
(0.00760321169799 -0.0208339954719 0.0104251345435)
(0.014526539793 0.0640542797676 -0.00610556115361)
(0.00724661469855 0.0669848854603 -0.00584661686047)
(0.00741224014393 0.0651306167581 -0.0127975284376)
(0.0283779386046 0.06290770659 -0.00553811137234)
(0.020969570141 0.0659680850177 -0.00531826915283)
(0.0216907434268 0.0640374291967 -0.0119872237463)
(0.0417208218503 0.0613713703905 -0.00462761760572)
(0.0337506394575 0.0646189389434 -0.00467735277537)
(0.0351044746867 0.0624291632018 -0.011090266035)
(0.0542445650704 0.0595743487207 -0.00354044805975)
(0.0464038654744 0.0627573896402 -0.0035327965204)
(0.0481387590237 0.060710086872 -0.00995969418821)
(0.0666963979257 0.0568914795667 -0.00282348270971)
(0.0587636709752 0.0595936619875 -0.00331667707995)
(0.0609689310371 0.0585905053317 -0.00888577792248)
(0.076999099597 0.0543230494055 -0.00271025984391)
(0.0717553062019 0.0580863305248 -0.00173971001226)
(0.0731265423622 0.055422124344 -0.00915516509624)
(0.0836694640552 0.0524354745928 -0.00262431407813)
(0.0795054229341 0.0567794931056 -0.0007028185063)
(0.0808107579358 0.0541045116943 -0.00542334780918)
(0.0806713084189 0.0466398060433 -0.00166873562213)
(0.0789994986111 0.0535698145006 0.00291980969005)
(0.082983811267 0.0533245223871 -0.00334864124027)
(0.0748255623247 0.0337571119957 -0.000310632421794)
(0.0711207735296 0.0449779904181 0.00423474588355)
(0.0797424197583 0.0434334518658 -0.000484761357918)
(0.072797345264 0.0169711727922 0.000434264716893)
(0.0643494535599 0.0241363686125 0.00149174651211)
(0.0755523251162 0.0261526259536 0.00259529230103)
(0.0719058042067 0.000879343327323 0.000764498919897)
(0.0627577946859 0.00688266743607 -0.000299504088743)
(0.0735959441613 0.00785563303954 0.00474556779741)
(0.0738270688925 -0.00995279804963 0.000769272935909)
(0.067028420044 -0.00948418768347 -0.00342013111604)
(0.0739144654612 -0.00896717398382 0.00644528672489)
(0.0747893329269 -0.0131935406378 0.00170108730416)
(0.0736169228678 -0.0163712515434 -0.00394050056845)
(0.0749889272295 -0.0166066125512 0.00683442858868)
(0.0701985000629 -0.0134015848532 0.00296000508982)
(0.0738672213889 -0.0145487096914 0.00103394759961)
(0.0730668924158 -0.0135951364871 0.00707301532042)
(0.0631479944839 -0.0146608991573 0.00362489449205)
(0.0666155475606 -0.0135847415562 0.00270374651795)
(0.0671798044183 -0.0141449913863 0.00607853815956)
(0.0528244407718 -0.0165530962544 0.00428226178142)
(0.0569162025224 -0.0154708204487 0.00365596331146)
(0.0585819704603 -0.0160101531216 0.00844126571346)
(0.0411961181136 -0.0182056788545 0.00457498800893)
(0.0461023222377 -0.0171962621263 0.00405309611466)
(0.047408889838 -0.0179605760766 0.00897106399909)
(0.0283974862079 -0.0194283378784 0.00469615680462)
(0.0342184429018 -0.0185102425211 0.00428585779194)
(0.0350846161665 -0.0195104798506 0.00914772848781)
(0.0144297434856 -0.0200271959177 0.00465257550671)
(0.0213506960714 -0.0194409304889 0.0044007470041)
(0.0217402347869 -0.0205202758605 0.00929441103432)
(0.00729556220527 -0.0195873372392 0.0042642930258)
(0.00734524209886 -0.0206438192867 0.00908216336016)
(0.0135619981129 0.0678811129852 -0.00509699689935)
(0.00668521124633 0.069818659171 -0.00483284852078)
(0.00687304710295 0.069009977754 -0.0108015518068)
(0.0264628211063 0.0666453709747 -0.00459096758711)
(0.0193409649075 0.0687090777433 -0.00431887565939)
(0.0201664807366 0.0678439998409 -0.010064843068)
(0.0390031468018 0.0649469279795 -0.00388221715209)
(0.0311610385566 0.0671542134918 -0.00381771431163)
(0.0326864648884 0.0661449083425 -0.00932121374066)
(0.051254369415 0.0629733401524 -0.00328518152964)
(0.0429965899593 0.064859479046 -0.00298772747223)
(0.045021593578 0.064336523197 -0.00847455739122)
(0.0627394283525 0.06026110703 -0.00250082985316)
(0.0546266371225 0.0618701671223 -0.00305106100321)
(0.0573264986943 0.061840396046 -0.00780626560331)
(0.0744871272617 0.0567866621542 -0.00180483755315)
(0.0681476127678 0.0588506785519 -0.00178320758938)
(0.0713872698822 0.0581831873206 -0.00677809020227)
(0.0840959329552 0.0525713541323 0.00143598116047)
(0.0764001640306 0.0523265888851 -0.00137759337734)
(0.0833273483636 0.0560919136353 -0.00303858600835)
(0.0677577967605 0.0445260788066 0.00528469025116)
(0.0724993108991 0.0449506152351 0.00542706522115)
(0.0798090305061 0.0533356259499 0.0142597406404)
(0.0571259514194 0.0310594582579 0.00412921841796)
(0.0591262392722 0.0344892199101 0.00435035275341)
(0.0635391984849 0.0408248249381 0.0125936730745)
(0.0523778700845 0.0151124135497 0.000957829635531)
(0.0490773503763 0.0211682738393 0.00163279639186)
(0.0530859288134 0.0235240703787 0.00448712464498)
(0.053896205318 0.000113800629046 -0.00277999897248)
(0.0479625924251 0.00886166054427 -0.00178017569499)
(0.0512508108791 0.0057253819325 -0.0023821753174)
(0.0643246079868 -0.0101253061295 -0.00584495986937)
(0.0566820091168 -0.00180950407048 -0.00627364081871)
(0.0594955770484 -0.0104399575565 -0.0122963958387)
(0.0792123706328 -0.0133206735447 -0.00344696139745)
(0.070361909089 -0.00811705177943 -0.0082287119384)
(0.0755967997983 -0.0176078031653 -0.015512038588)
(0.0698059136525 -0.0131097006283 0.00127233007356)
(0.0745441785968 -0.0102131349964 -0.000923453660555)
(0.0799469902626 -0.0141223654165 0.00436345699736)
(0.0610847140165 -0.0138053174891 0.00290602723838)
(0.0657507450796 -0.0113635445879 0.00152455348042)
(0.0677440448967 -0.0135014760916 0.00528925736956)
(0.0507789478589 -0.0154100670783 0.0036341716392)
(0.0549305951579 -0.0131662617608 0.00276091854434)
(0.056766217865 -0.0153134738308 0.00644848960449)
(0.0395413846675 -0.0167698447842 0.00392104118105)
(0.0443362322182 -0.0147978171681 0.0032153605385)
(0.0456015419831 -0.0168550276484 0.00691836000183)
(0.0272263840606 -0.0177971918798 0.00408562951201)
(0.0328774269336 -0.0158929301855 0.00347748406855)
(0.033675394211 -0.0180902580542 0.00721332161746)
(0.0140741370885 -0.0183447851154 0.0040466415244)
(0.0205522223693 -0.0167091789747 0.00367245306225)
(0.0208918391872 -0.0188912608584 0.00729332220009)
(0.00704480422478 -0.0171363297884 0.00370354450225)
(0.0070869214807 -0.0189084606277 0.0078094818837)
(0.0124204573942 0.0696918465582 -0.00408921205155)
(0.00604915965824 0.0707244928383 -0.00383646396361)
(0.00625863785577 0.0708738830793 -0.00877429823076)
(0.0241759521694 0.0683332530434 -0.00366359937196)
(0.0174732145474 0.0695245110048 -0.00334528484817)
(0.0183744033353 0.0696109751815 -0.00812652497429)
(0.0356247525367 0.0663444345504 -0.00314368384687)
(0.0281149088181 0.0677972307145 -0.00298555697277)
(0.0297917983973 0.0677635019275 -0.00760370261948)
(0.0468023718843 0.0637167280118 -0.00282742013605)
(0.0387546627666 0.0651525844325 -0.00234759849498)
(0.0410170079926 0.0656424911701 -0.00700075143939)
(0.0578061587278 0.0601810285125 -0.00246551951447)
(0.049388585436 0.0618435702743 -0.0024289347538)
(0.0524118814698 0.062286715339 -0.00656616839542)
(0.0690070488395 0.0539772542569 -0.00175000522734)
(0.0618662576145 0.0567386394466 -0.00184681597584)
(0.0660054061881 0.0574525220939 -0.00511363516514)
(0.077604565266 0.0454117273227 0.00225120779063)
(0.069773698115 0.0469078590874 -0.000584817186851)
(0.0779611070239 0.0511345557323 -0.00240640716195)
(0.0582296844818 0.0358603476278 0.00514718853213)
(0.0645074514866 0.0367960534543 0.00605826963136)
(0.0716099457912 0.0421828542134 0.016159821387)
(0.0461572678455 0.0256213246283 0.00266569093371)
(0.0497979709399 0.0272343987536 0.00342742009102)
(0.052519400626 0.0307747119832 0.0115493702065)
(0.0415191738004 0.0156053743475 -0.00048750795974)
(0.0398742764223 0.0187017430518 0.0013673358814)
(0.0416341119208 0.0207489557984 0.00401924296685)
(0.0447971882386 0.00668005957227 -0.00459037832461)
(0.0396456235173 0.0119496352519 -0.00240812530553)
(0.0403873554763 0.0104012146379 -0.00471374046255)
(0.0579446097339 -0.000326546753152 -0.00846224024571)
(0.0499281281795 0.0062976046594 -0.00735271273204)
(0.0512883943996 0.00131486897881 -0.0147471222256)
(0.0765915385022 -0.00523908780484 -0.00597296878212)
(0.0657819272758 0.00125254013505 -0.00982831946564)
(0.0716416263 -0.00476450608131 -0.0193235217313)
(0.0686053020853 -0.0082635781573 -0.000269322731043)
(0.0717917124881 -0.00374365812688 -0.00216165986108)
(0.0789827142197 -0.00831579486528 0.00112856142934)
(0.0591212031356 -0.0103372358729 0.00175277951846)
(0.0634038880413 -0.00659747252254 0.000595522707581)
(0.0662370341623 -0.0102556486994 0.00344919641587)
(0.0489424931303 -0.0121968385049 0.00255925186335)
(0.0526798035694 -0.00913422390856 0.00180568094958)
(0.0547853633953 -0.0124142045659 0.00475634707622)
(0.0380192510287 -0.0136152697254 0.00289613471371)
(0.042505782663 -0.0109691809729 0.00227892773805)
(0.0439125923313 -0.0139621306277 0.00541823597392)
(0.0262414132338 -0.0146134756766 0.00312483788719)
(0.0315533712273 -0.0122271520911 0.00256889850878)
(0.0323884022744 -0.0150763314694 0.0059513874426)
(0.0135046827336 -0.015140119695 0.00335155389438)
(0.019754975474 -0.0130092078653 0.00285339920209)
(0.0201104934313 -0.0157705682676 0.00628416427446)
(0.00677880260331 -0.0131365910032 0.00316768709956)
(0.00680912496263 -0.0156878986797 0.00636713051032)
(0.0111889433901 0.0696750671368 -0.00312158854068)
(0.00535261078249 0.0698710379348 -0.00287702317967)
(0.00556234266576 0.0708725128237 -0.00679979957878)
(0.0216412237391 0.0682271248159 -0.00276827317027)
(0.0154273434561 0.0686262979516 -0.00240591713096)
(0.0163634509002 0.0695483607397 -0.00621340758625)
(0.0316786810037 0.0659866805818 -0.00237626953031)
(0.0247208666255 0.0668511872125 -0.00218152885949)
(0.0265070747026 0.0675826068091 -0.00584823812488)
(0.0414848508292 0.0627566465213 -0.0021661254561)
(0.0338889619498 0.0639281021868 -0.00171845197649)
(0.0364223034233 0.0651746403808 -0.00546618074991)
(0.0515443438915 0.0579514377826 -0.00197008714536)
(0.0430861086358 0.0599161097806 -0.00193925433032)
(0.0466441784553 0.061033512108 -0.00512024888128)
(0.0615691558076 0.0493126218446 -0.0011734033323)
(0.053450530686 0.0533261696277 -0.0017125009922)
(0.0588147012855 0.0545657170494 -0.00392568763269)
(0.0696874410214 0.0379748574026 0.00210134319895)
(0.0602693166799 0.0406339357256 -0.000670900997619)
(0.0696878794404 0.0449203518479 -0.00138620257684)
(0.0500578146773 0.0277726599329 0.00410484134685)
(0.0557190915266 0.0275933688703 0.00474945493914)
(0.062738804712 0.0332292653444 0.0177188806821)
(0.038796830863 0.0200884635944 0.00220745990237)
(0.0430906058206 0.0212720275097 0.00388215859789)
(0.044338060896 0.0240968280599 0.0104607742018)
(0.0347782988791 0.0150707377217 -0.00055159590453)
(0.0352854935091 0.0166783477185 0.000891986461391)
(0.0343976138391 0.0173899817661 0.00386420093543)
(0.0390498818138 0.011793151621 -0.00498659166958)