/*--------------------------------*- C++ -*----------------------------------*\
| =========                 |                                                 |
| \\      /  F ield         | OpenFOAM: The Open Source CFD Toolbox           |
|  \\    /   O peration     | Version:  v1606+                                |
|   \\  /    A nd           | Web:      www.OpenFOAM.com                      |
|    \\/     M anipulation  |                                                 |
\*---------------------------------------------------------------------------*/
FoamFile
{
    version     2.0;
    format      ascii;
    class       volScalarField;
    location    "1.08";
    object      alpha.particles;
}
// * * * * * * * * * * * * * * * * * * * * * * * * * * * * * * * * * * * * * //

dimensions      [0 0 0 0 0 0 0];

internalField   nonuniform List<scalar> 
6000
(
0.43824
0.446055
0.446062
0.446065
0.446067
0.446068
0.446069
0.44607
0.446071
0.446072
0.446072
0.446073
0.446073
0.446073
0.446073
0.446072
0.446072
0.446071
0.44607
0.44607
0.446069
0.446068
0.446065
0.446059
0.446048
0.446034
0.446026
0.446024
0.446023
0.431366
0.350085
0.379364
0.387026
0.388251
0.39896
0.402537
0.413509
0.419784
0.436197
0.441502
0.443165
0.444528
0.445788
0.445668
0.445946
0.445057
0.441528
0.437384
0.432749
0.428837
0.425523
0.419371
0.416585
0.407778
0.405994
0.394192
0.393344
0.387527
0.384259
0.35176
0.338411
0.343116
0.334732
0.324582
0.340878
0.412077
0.446492
0.446497
0.446507
0.446498
0.446494
0.446487
0.446483
0.444736
0.441847
0.443611
0.443324
0.443307
0.44332
0.443295
0.443205
0.442969
0.442869
0.40587
0.35407
0.333813
0.342109
0.353733
0.357749
0.350304
0.337006
0.336447
0.322516
0.322517
0.322521
0.378668
0.446497
0.446507
0.446511
0.431639
0.408444
0.387682
0.362326
0.345134
0.339511
0.345097
0.362178
0.384175
0.400425
0.410344
0.426887
0.436938
0.415029
0.357966
0.315869
0.315867
0.321933
0.346828
0.353282
0.350304
0.375172
0.37025
0.34872
0.326119
0.322522
0.347503
0.42522
0.431094
0.367496
0.30656
0.285072
0.2658
0.24813
0.241362
0.240144
0.247115
0.257565
0.271092
0.284534
0.293955
0.311051
0.332658
0.331759
0.31721
0.315867
0.322012
0.34979
0.383052
0.395157
0.395514
0.439407
0.433693
0.406265
0.360228
0.337315
0.330111
0.334789
0.301149
0.244438
0.227073
0.221999
0.221737
0.221533
0.221754
0.221636
0.225503
0.232509
0.233364
0.233647
0.234186
0.23726
0.248581
0.266353
0.294964
0.325483
0.35983
0.40599
0.441284
0.455743
0.464178
0.489054
0.48459
0.471597
0.420056
0.378026
0.329436
0.264226
0.223842
0.22175
0.221625
0.221731
0.221531
0.221729
0.2216
0.23715
0.251557
0.259474
0.254076
0.239186
0.234243
0.234214
0.234236
0.245323
0.293702
0.356692
0.421904
0.468089
0.489895
0.497498
0.509648
0.517501
0.512367
0.510513
0.478516
0.426761
0.34582
0.245907
0.221836
0.221632
0.221739
0.221605
0.221731
0.22552
0.252721
0.290814
0.313981
0.320855
0.305493
0.268119
0.237082
0.234245
0.23422
0.246509
0.302894
0.390762
0.476881
0.506998
0.513303
0.519131
0.530042
0.533281
0.527981
0.523838
0.509589
0.466754
0.394787
0.255056
0.221848
0.221837
0.221635
0.221739
0.22529
0.266191
0.329798
0.374418
0.391139
0.392496
0.370227
0.319917
0.259353
0.234222
0.234278
0.252179
0.325899
0.42029
0.49621
0.52026
0.52475
0.532019
0.539967
0.541406
0.537797
0.529492
0.514087
0.493823
0.463535
0.294717
0.225149
0.222571
0.222162
0.225234
0.263964
0.361421
0.431186
0.455687
0.45841
0.453092
0.430572
0.38551
0.306664
0.244791
0.235664
0.266066
0.362234
0.450132
0.496038
0.521999
0.532072
0.540784
0.545414
0.543608
0.543177
0.537651
0.525303
0.520381
0.507143
0.367351
0.262158
0.252034
0.251628
0.263183
0.364448
0.481034
0.503835
0.510501
0.505068
0.497425
0.486314
0.45665
0.374357
0.28044
0.250511
0.297395
0.407677
0.48746
0.501465
0.520575
0.53768
0.546221
0.547448
0.543644
0.543636
0.543704
0.542816
0.543043
0.532963
0.441871
0.357049
0.341632
0.342253
0.35918
0.474264
0.539697
0.539259
0.538437
0.534917
0.531012
0.528715
0.513006
0.452265
0.354993
0.2975
0.355262
0.458094
0.51948
0.522051
0.530375
0.544713
0.547485
0.547455
0.49456
0.543672
0.543652
0.543741
0.543555
0.517982
0.500839
0.466608
0.452117
0.452668
0.4609
0.491558
0.539743
0.539792
0.53979
0.539789
0.539755
0.539722
0.539669
0.519207
0.444776
0.385065
0.432828
0.502546
0.537008
0.536993
0.545532
0.547489
0.547444
0.541688
0.386726
0.524941
0.543725
0.543522
0.431364
0.380446
0.467014
0.467515
0.457887
0.457571
0.441475
0.402108
0.473635
0.539739
0.539792
0.539714
0.46276
0.400246
0.421417
0.460367
0.464205
0.463992
0.494256
0.502805
0.484236
0.466744
0.535236
0.547433
0.547437
0.4735
0.362099
0.440987
0.506844
0.399231
0.218835
0.183191
0.284245
0.331054
0.326826
0.332307
0.283155
0.215483
0.281856
0.472604
0.539695
0.40733
0.251936
0.194485
0.198832
0.247652
0.329191
0.381698
0.401348
0.359278
0.256145
0.232687
0.335473
0.49435
0.533273
0.412411
0.403162
0.431441
0.397546
0.244079
0.136229
0.119752
0.136558
0.146578
0.140794
0.142558
0.123162
0.116162
0.199503
0.384135
0.467176
0.295018
0.178767
0.146858
0.130539
0.130079
0.144068
0.173719
0.175275
0.141366
0.108403
0.114679
0.175644
0.341853
0.427672
0.395022
0.448746
0.456995
0.33386
0.185129
0.131524
0.115996
0.111528
0.096855
0.0828911
0.0827861
0.0822545
0.0981333
0.190989
0.366147
0.422654
0.301694
0.206997
0.169877
0.145239
0.122339
0.1031
0.0973019
0.0957128
0.0945717
0.0945716
0.109127
0.156931
0.258229
0.394416
0.422471
0.477261
0.45713
0.280988
0.178965
0.141482
0.125941
0.114401
0.092949
0.0822613
0.082259
0.0822512
0.0980787
0.181716
0.340517
0.419624
0.337059
0.250413
0.207733
0.179409
0.147565
0.120897
0.104555
0.0973904
0.0995591
0.108149
0.136871
0.190822
0.281632
0.400902
0.452071
0.50963
0.442413
0.264526
0.187095
0.162714
0.149417
0.127101
0.0949173
0.0822689
0.0822628
0.082259
0.101475
0.172541
0.29416
0.408561
0.373689
0.300764
0.25525
0.22654
0.196343
0.165361
0.140259
0.1256
0.131726
0.154599
0.200895
0.2656
0.348634
0.432571
0.471464
0.521156
0.458426
0.300465
0.218264
0.198284
0.186095
0.15823
0.11411
0.0830347
0.0822702
0.0825584
0.107373
0.169172
0.270639
0.396347
0.412488
0.359933
0.317565
0.289164
0.260999
0.231575
0.206053
0.191092
0.203398
0.239553
0.29861
0.368725
0.43627
0.48347
0.497984
0.530481
0.504049
0.378995
0.287251
0.262467
0.247973
0.220105
0.165993
0.102692
0.0843262
0.0879539
0.122019
0.198616
0.304753
0.406359
0.44257
0.414594
0.386947
0.366133
0.344651
0.321664
0.302446
0.294665
0.314281
0.359129
0.417538
0.471286
0.506872
0.523062
0.524701
0.532108
0.532413
0.479154
0.409158
0.375795
0.356276
0.320502
0.251366
0.163315
0.110725
0.116738
0.172668
0.279742
0.375413
0.441057
0.478743
0.474728
0.465878
0.457395
0.445369
0.430377
0.418578
0.416312
0.434096
0.468354
0.502613
0.524867
0.535471
0.540196
0.540387
0.537739
0.543521
0.531714
0.511682
0.493027
0.480147
0.452573
0.379292
0.271512
0.190783
0.198206
0.285801
0.402346
0.469679
0.500125
0.521851
0.527733
0.529068
0.528685
0.525265
0.518927
0.512319
0.508898
0.51374
0.524962
0.534458
0.54002
0.543907
0.546364
0.546172
0.544324
0.550011
0.548627
0.546353
0.543107
0.538976
0.528064
0.49497
0.415318
0.335582
0.34426
0.432908
0.512205
0.535607
0.543289
0.549363
0.552868
0.554448
0.555015
0.554599
0.553095
0.550647
0.5478
0.545401
0.544595
0.545308
0.546791
0.548549
0.549769
0.549168
0.549526
0.554871
0.555623
0.555696
0.555707
0.555263
0.553597
0.547254
0.520661
0.485408
0.493055
0.528364
0.549789
0.555189
0.557813
0.559326
0.560479
0.561035
0.561026
0.560547
0.559707
0.55874
0.557306
0.555349
0.552885
0.551619
0.55164
0.552186
0.552503
0.551586
0.553777
0.558746
0.560035
0.560411
0.560809
0.561135
0.561365
0.561391
0.558972
0.553263
0.553425
0.556754
0.558827
0.560722
0.562532
0.563316
0.563751
0.563943
0.563692
0.563036
0.562127
0.561352
0.560298
0.560451
0.558549
0.556484
0.555566
0.555293
0.554951
0.553825
0.557617
0.562028
0.563392
0.563792
0.56421
0.564672
0.565121
0.565589
0.565908
0.565243
0.564109
0.563422
0.563013
0.563712
0.565132
0.565792
0.566034
0.5661
0.565715
0.564948
0.563696
0.562331
0.561494
0.562666
0.562714
0.560537
0.558886
0.557983
0.557181
0.555934
0.561221
0.564875
0.566023
0.566343
0.566717
0.567137
0.567465
0.567719
0.568086
0.568043
0.567439
0.566728
0.565987
0.565979
0.567088
0.56774
0.567965
0.567995
0.567508
0.566838
0.565203
0.563062
0.56238
0.562539
0.565111
0.563743
0.561759
0.560363
0.559222
0.557907
0.564582
0.567298
0.568019
0.568152
0.568386
0.568557
0.568596
0.568692
0.569213
0.569775
0.569754
0.569308
0.568474
0.567935
0.56865
0.569322
0.569653
0.569711
0.569126
0.568846
0.567216
0.564285
0.563304
0.562935
0.566135
0.566028
0.564221
0.562505
0.561096
0.559729
0.567682
0.569324
0.569488
0.569304
0.5692
0.568865
0.568399
0.568229
0.56894
0.57069
0.571605
0.571408
0.570553
0.569758
0.570026
0.570702
0.571185
0.571254
0.570514
0.570673
0.569898
0.566717
0.564298
0.563509
0.56647
0.567576
0.566258
0.564432
0.562818
0.561399
0.570503
0.571165
0.570775
0.57007
0.569309
0.568277
0.566936
0.56565
0.565938
0.569068
0.572514
0.572977
0.572266
0.571451
0.571412
0.572063
0.572636
0.572589
0.571665
0.571974
0.572476
0.57009
0.566079
0.564124
0.566468
0.568667
0.567934
0.566154
0.564415
0.562948
0.57334
0.573241
0.572305
0.570876
0.569177
0.566935
0.563611
0.559249
0.556669
0.55773
0.570652
0.573664
0.573688
0.572976
0.57284
0.573448
0.573982
0.573642
0.572662
0.572833
0.574061
0.573092
0.569004
0.565044
0.566524
0.569507
0.569312
0.567692
0.565927
0.564451
0.576556
0.575866
0.574426
0.572288
0.569657
0.566318
0.560822
0.552799
0.545881
0.535231
0.562897
0.572763
0.574692
0.574342
0.574252
0.574817
0.575186
0.574452
0.573557
0.573547
0.574778
0.574987
0.572015
0.567004
0.567213
0.57027
0.570468
0.569074
0.567408
0.56601
0.579429
0.578643
0.576712
0.574335
0.571725
0.56819
0.562982
0.554645
0.545654
0.534918
0.541574
0.568531
0.574896
0.575574
0.57563
0.576142
0.576236
0.575102
0.574334
0.574242
0.575173
0.575929
0.574194
0.569929
0.568796
0.57116
0.571552
0.5704
0.568932
0.567717
0.580131
0.58009
0.57704
0.575049
0.574125
0.571708
0.568564
0.56213
0.551564
0.535493
0.514149
0.559898
0.573985
0.576645
0.576968
0.577417
0.577135
0.575665
0.57498
0.574913
0.575532
0.576443
0.575481
0.572589
0.571087
0.572413
0.572766
0.571871
0.57065
0.569663
0.580102
0.576583
0.569026
0.568442
0.572592
0.572834
0.572893
0.570094
0.561339
0.541331
0.514082
0.544278
0.570929
0.577352
0.578243
0.57856
0.577905
0.576234
0.575576
0.575607
0.576011
0.576837
0.576277
0.574545
0.573484
0.574073
0.574288
0.573686
0.57276
0.571989
0.577061
0.546623
0.530359
0.534421
0.560227
0.570324
0.572968
0.57375
0.569725
0.550797
0.514095
0.51425
0.564763
0.57752
0.579455
0.579553
0.578589
0.576911
0.576249
0.576285
0.576557
0.57719
0.576978
0.576133
0.57569
0.576023
0.576202
0.575921
0.575366
0.574861
0.550585
0.457816
0.463369
0.468079
0.522718
0.558178
0.570124
0.573842
0.573901
0.561214
0.524418
0.514357
0.559084
0.577632
0.580623
0.580467
0.579297
0.577683
0.576747
0.57655
0.576824
0.577472
0.577713
0.577625
0.577748
0.578192
0.57853
0.578615
0.578491
0.578355
0.508235
0.423958
0.426489
0.418177
0.472587
0.529506
0.561592
0.572306
0.573942
0.568893
0.536994
0.514344
0.553913
0.577813
0.581696
0.581419
0.580179
0.578426
0.576539
0.575977
0.576613
0.577663
0.578498
0.579127
0.579815
0.580596
0.581279
0.581811
0.582179
0.58247
0.502821
0.423956
0.426821
0.407375
0.431515
0.491151
0.544768
0.5678
0.573947
0.573866
0.550552
0.514371
0.545195
0.57745
0.582535
0.582511
0.581405
0.57902
0.575072
0.574024
0.575901
0.577787
0.579342
0.580713
0.582032
0.583313
0.584492
0.585564
0.586401
0.587032
0.519148
0.435675
0.431343
0.407235
0.403437
0.457069
0.522153
0.560459
0.573594
0.573907
0.560377
0.52311
0.539378
0.576414
0.583071
0.583831
0.583156
0.579076
0.569665
0.569594
0.574554
0.57791
0.580334
0.582512
0.584554
0.586455
0.58822
0.589807
0.590717
0.591287
0.519233
0.455699
0.440738
0.40852
0.391508
0.439653
0.504021
0.551727
0.570296
0.573842
0.565851
0.541451
0.541283
0.574791
0.583343
0.585572
0.585283
0.577183
0.550985
0.561966
0.573117
0.578314
0.581698
0.584731
0.587553
0.590076
0.592244
0.593766
0.593561
0.593474
0.519248
0.462433
0.45077
0.410552
0.380979
0.433614
0.495114
0.544435
0.565912
0.5728
0.568177
0.554004
0.549327
0.573814
0.583812
0.587855
0.586864
0.569632
0.514212
0.553694
0.572576
0.579491
0.58377
0.587617
0.591145
0.593899
0.595448
0.595391
0.591753
0.592627
0.519268
0.451965
0.45089
0.402473
0.351262
0.425453
0.492973
0.539541
0.561841
0.568305
0.567742
0.561372
0.558859
0.574406
0.584836
0.589601
0.586388
0.553769
0.502801
0.549351
0.573926
0.581993
0.58686
0.591334
0.595144
0.596977
0.596127
0.592601
0.578006
0.583805
0.517496
0.421453
0.447422
0.362535
0.28552
0.400336
0.490464
0.532938
0.557868
0.564481
0.566078
0.564936
0.565956
0.576365
0.585842
0.589622
0.57712
0.50324
0.502536
0.554255
0.577778
0.585904
0.590965
0.59549
0.598218
0.597794
0.591363
0.579422
0.537138
0.56314
0.463784
0.385486
0.419047
0.296906
0.221617
0.340749
0.473522
0.526799
0.554409
0.560288
0.562325
0.565569
0.570687
0.579331
0.587226
0.589662
0.56729
0.451148
0.498657
0.559746
0.582474
0.59061
0.595339
0.598327
0.598289
0.592658
0.571821
0.546739
0.511581
0.535321
0.445796
0.359244
0.365832
0.253034
0.216993
0.269325
0.422655
0.523491
0.55221
0.555594
0.554968
0.563066
0.5731
0.582608
0.589353
0.590232
0.563586
0.429609
0.488087
0.562746
0.587556
0.595419
0.59844
0.598456
0.595696
0.572268
0.511554
0.431211
0.501079
0.535287
0.459226
0.354506
0.325874
0.246991
0.217078
0.227465
0.337679
0.522321
0.550816
0.551551
0.544643
0.554383
0.572804
0.585538
0.5908
0.590721
0.556483
0.426518
0.4891
0.568133
0.593707
0.599288
0.599285
0.598037
0.581456
0.519143
0.367313
0.223399
0.348154
0.51849
0.467766
0.36518
0.325214
0.261296
0.216972
0.204813
0.262596
0.402056
0.543238
0.5507
0.536895
0.532521
0.56877
0.587637
0.590843
0.590618
0.533322
0.426197
0.508425
0.583593
0.601424
0.601407
0.598985
0.589698
0.551095
0.441133
0.228181
0.079288
0.137002
0.272983
0.467763
0.380954
0.336635
0.288806
0.219125
0.186857
0.203038
0.195355
0.375517
0.533204
0.536971
0.49633
0.561363
0.589945
0.590807
0.58326
0.512622
0.429992
0.541279
0.600988
0.603063
0.601479
0.593264
0.572988
0.52181
0.368734
0.141278
0.0312379
0.0525137
0.147634
0.416885
0.33615
0.317828
0.280331
0.209581
0.160746
0.142059
0.0728164
0.0825346
0.226142
0.377182
0.431967
0.552447
0.590684
0.590803
0.579033
0.515947
0.499851
0.568506
0.602893
0.603038
0.598222
0.584754
0.552323
0.48535
0.3065
0.0857707
0.0227063
0.0374318
0.139488
0.19289
0.180235
0.196878
0.180369
0.153216
0.110331
0.0750955
0.0243709
0.0158607
0.0433886
0.165801
0.389018
0.534935
0.589429
0.59074
0.579043
0.539472
0.556287
0.586318
0.602121
0.600943
0.592659
0.574368
0.535494
0.448439
0.234471
0.0505021
0.0226554
0.0399189
0.117168
0.0387898
0.0434981
0.0537861
0.053258
0.0593711
0.0447818
0.0242967
0.0106449
0.0127982
0.0337
0.134794
0.410684
0.505805
0.577803
0.587349
0.579187
0.56262
0.570468
0.587085
0.598253
0.596607
0.587223
0.563283
0.517066
0.35298
0.124675
0.036939
0.0244211
0.044469
0.083926
0.00816606
0.00869472
0.00982476
0.0105681
0.0129445
0.0114787
0.00862243
0.00867036
0.0154621
0.0389167
0.121965
0.412822
0.494244
0.568841
0.582269
0.579124
0.571951
0.575952
0.586633
0.59495
0.592904
0.58075
0.541616
0.426033
0.161689
0.0440496
0.0349216
0.030414
0.0482575
0.0635323
0.00601947
0.00594096
0.00596258
0.00606078
0.00635941
0.00649763
0.00681305
0.00953791
0.0198324
0.0433514
0.0929215
0.262037
0.47323
0.564244
0.57881
0.578809
0.57685
0.580426
0.58826
0.59391
0.589827
0.569513
0.507031
0.272384
0.0472597
0.01624
0.0319241
0.0350144
0.0500488
0.0501626
0.00594457
0.0059372
0.00594134
0.00616829
0.00653443
0.00690008
0.00766472
0.0113842
0.0229495
0.0475347
0.0880603
0.169979
0.427935
0.558928
0.574661
0.577505
0.579644
0.584253
0.590428
0.593082
0.585523
0.55023
0.405892
0.130067
0.0122168
0.00688439
0.0231375
0.0322346
0.0422088
0.0362272
0.00597073
0.00599607
0.00632366
0.00702329
0.00766268
0.00812722
0.00892498
0.0126909
0.0245917
0.0506524
0.0916923
0.159482
0.420439
0.558748
0.569115
0.573744
0.581218
0.587722
0.592058
0.591154
0.575183
0.513884
0.270541
0.0471255
0.00373361
0.00341676
0.0117103
0.0215581
0.0255387
0.0225295
0.00604413
0.00625428
0.0071238
0.00832966
0.00904722
0.00926422
0.00972045
0.0131649
0.0253318
0.0528963
0.0962811
0.171111
0.491115
0.561399
0.561513
0.567372
0.583294
0.591142
0.592532
0.589279
0.557559
0.410548
0.130208
0.0127401
0.00210121
0.00219549
0.00478381
0.00999455
0.0118772
0.0126604
0.00617335
0.00664807
0.0079972
0.00939976
0.00992284
0.00980792
0.0100108
0.0132123
0.025644
0.0548263
0.0987656
0.183637
0.53031
0.561327
0.540669
0.55783
0.58802
0.592552
0.592542
0.581423
0.51222
0.25781
0.0422499
0.0035365
0.00185491
0.00186217
0.0024328
0.00417549
0.00568942
0.00760032
0.00636238
0.0070828
0.00861915
0.00992526
0.0102114
0.00992677
0.0100582
0.0131675
0.0258202
0.0567658
0.102655
0.171677
0.414521
0.551639
0.479596
0.548412
0.592414
0.592606
0.592441
0.561759
0.386014
0.108424
0.00990422
0.00213812
0.00185579
0.00185628
0.00192669
0.00252348
0.003884
0.00573181
0.00660889
0.00745866
0.00887723
0.0100511
0.0102288
0.00993434
0.0100323
0.013175
0.0262379
0.0588042
0.108137
0.156927
0.271463
0.46584
0.439176
0.552936
0.59247
0.592568
0.589989
0.505137
0.235456
0.0349517
0.00336331
0.00192196
0.00185619
0.001856
0.00185909
0.00225588
0.00355079
0.00526345
0.00689044
0.00767886
0.0089038
0.0099655
0.0102248
0.00993897
0.0100238
0.0135255
0.0277596
0.062126
0.113011
0.166019
0.223289
0.306
0.43828
0.561688
0.592435
0.592485
0.567436
0.40651
0.119009
0.0116905
0.00257618
0.0018935
0.001856
0.00185625
0.00186367
0.00225571
0.00354634
0.0052192
0.00714991
0.00773759
0.00871797
0.00960124
0.0102385
0.00994267
0.0101789
0.0145063
0.0308307
0.0677886
0.1196
0.175413
0.237065
0.26823
0.439536
0.569752
0.592351
0.589732
0.52616
0.282967
0.0543815
0.00594159
0.00250219
0.00195537
0.00185663
0.00188819
0.00201284
0.00255569
0.00394482
0.00553412
0.00731396
0.00766967
0.00818564
0.00895155
0.0102368
0.00994798
0.0106317
0.0164113
0.0359518
0.0756556
0.130161
0.189755
0.251731
0.290308
0.48434
0.586244
0.592301
0.574751
0.471919
0.190826
0.0264212
0.004926
0.00294175
0.00229454
0.00210764
0.00227542
0.00284445
0.00405035
0.00579406
0.00706057
0.00736445
0.00744192
0.00743403
0.00826334
0.0102605
0.0101324
0.0115218
0.0194839
0.0432107
0.0870312
0.145476
0.208828
0.27063
0.321324
0.526009
0.592066
0.592213
0.561743
0.401388
0.116823
0.0162905
0.00611065
0.00432107
0.00341423
0.00318568
0.00381599
0.00548187
0.00809915
0.0102768
0.0108947
0.00734673
0.00712656
0.00695073
0.00780226
0.0102526
0.0106165
0.013037
0.0239696
0.0529719
0.102517
0.164905
0.232908
0.303596
0.385641
0.552434
0.592043
0.589788
0.530274
0.298073
0.0622208
0.0143889
0.00894427
0.00703204
0.00600768
0.00588474
0.00737403
0.0105389
0.0144553
0.016366
0.0162571
0.00726895
0.00695092
0.00695333
0.00763796
0.010205
0.0114752
0.0153761
0.030247
0.0655376
0.120376
0.187334
0.262206
0.342632
0.457498
0.564793
0.591802
0.573386
0.484528
0.202803
0.0336636
0.0147223
0.0123228
0.0108407
0.0101089
0.0102559
0.0123213
0.0160019
0.0196603
0.0204361
0.0200728
0.00713333
0.00695344
0.00695009
0.00763958
0.0105253
0.0129565
0.0188096
0.038301
0.0802301
0.140292
0.212207
0.292941
0.377938
0.509928
0.573786
0.585396
0.560921
0.407061
0.113077
0.020776
0.0150713
0.014848
0.0143901
0.0141662
0.014462
0.0160905
0.0186123
0.0212603
0.0212624
0.0210786
0.00701251
0.00695114
0.00695365
0.00802016
0.0117274
0.0154415
0.0236458
0.0476433
0.0952806
0.160825
0.236642
0.320389
0.403767
0.538391
0.578856
0.579224
0.531822
0.269643
0.0519134
0.0167124
0.0152419
0.0158974
0.0161606
0.0161784
0.0163031
0.0172418
0.0185785
0.0199022
0.020959
0.0202915
0.00696507
0.0069544
0.00713704
0.00939856
0.0142628
0.0193481
0.0298394
0.0574837
0.108998
0.179106
0.258208
0.338755
0.417899
0.551044
0.57641
0.563085
0.444551
0.158265
0.0281161
0.0152945
0.0152128
0.0159778
0.0163291
0.0163253
0.0162567
0.0162513
0.0164165
0.0166625
0.0183545
0.0183301
0.00696868
0.00707559
0.00818975
0.0124727
0.018633
0.0249867
0.037072
0.0665108
0.12044
0.193087
0.27241
0.347879
0.417018
0.515455
0.563724
0.532068
0.341516
0.0965465
0.0198777
0.0146123
0.0149357
0.0153723
0.0155152
0.0153821
0.0149163
0.0141426
0.0134804
0.0135484
0.0151913
0.0161079
0.00709202
0.00778574
0.011132
0.0179385
0.0253616
0.0324893
0.0449961
0.0741475
0.128131
0.201453
0.27801
0.34953
0.406239
0.464035
0.526469
0.478193
0.266923
0.0621864
0.0164644
0.0143539
0.0146059
0.0148506
0.0146734
0.0142203
0.0134814
0.0126103
0.0120194
0.0121034
0.0134942
0.0147539
0.00781247
0.0102114
0.0170205
0.0264778
0.0348379
0.0418906
0.0534307
0.0805964
0.132332
0.203793
0.277401
0.335613
0.380105
0.428226
0.486402
0.439262
0.226174
0.0470022
0.015701
0.0143504
0.0144518
0.014777
0.0145562
0.0139634
0.0131241
0.0122507
0.0118776
0.0118776
0.0130922
0.0143621
0.0105489
0.0161293
0.0268889
0.0387378
0.0473017
0.0532878
0.0626484
0.0864646
0.133887
0.198738
0.256159
0.300573
0.344857
0.403193
0.464551
0.42704
0.208754
0.0403484
0.0159516
0.0146979
0.0147892
0.0152036
0.0152018
0.0147437
0.0138599
0.0127997
0.0121314
0.0120518
0.0131216
0.0143524
0.018022
0.0274017
0.0416345
0.0548821
0.062779
0.0668088
0.073286
0.0927407
0.132823
0.183114
0.225345
0.264067
0.313046
0.381688
0.451764
0.416984
0.200258
0.0379122
0.0166786
0.0159567
0.0161506
0.0165471
0.0167316
0.0164255
0.0154197
0.0139966
0.0128294
0.0124781
0.0132984
0.0143804
0.032906
0.044912
0.0610154
0.0738514
0.0803465
0.0819525
0.0852379
0.0993471
0.130333
0.168228
0.202003
0.238986
0.292405
0.368729
0.441757
0.405898
0.191653
0.0365648
0.0179535
0.0178093
0.0182896
0.0185104
0.0184644
0.0179544
0.0167253
0.0150212
0.0134817
0.0128354
0.0134622
0.0143813
0.0546497
0.067244
0.0821574
0.0925617
0.0972042
0.096883
0.0973422
0.106012
0.12908
0.159143
0.188893
0.22721
0.284843
0.364613
0.435723
0.389892
0.172785
0.0340712
0.0195935
0.0199978
0.0205467
0.0202517
0.0194721
0.0184731
0.0170993
0.0153268
0.0136897
0.0129178
0.0134829
0.0143814
0.0776684
0.0893781
0.100099
0.106592
0.10956
0.108819
0.107846
0.11224
0.128391
0.153543
0.182837
0.224501
0.285194
0.367448
0.433859
0.367747
0.143691
0.0310675
0.0217932
0.0223951
0.0225645
0.0213049
0.0196701
0.0182053
0.0165991
0.0148419
0.0132933
0.0125012
0.0132005
0.0143815
0.095056
0.104498
0.110875
0.11368
0.115216
0.115073
0.114428
0.116115
0.127329
0.1488
0.180811
0.227847
0.297806
0.385374
0.439027
0.343316
0.112728
0.0294866
0.0248671
0.025293
0.0243748
0.021832
0.0193947
0.0172392
0.0151855
0.0134329
0.0120806
0.011325
0.0123983
0.0143006
0.104382
0.110184
0.114269
0.115246
0.115871
0.116178
0.116188
0.116592
0.124288
0.145101
0.18103
0.236411
0.313494
0.406238
0.45147
0.320571
0.0891236
0.0308565
0.0290643
0.0291531
0.0264075
0.0223312
0.019145
0.0161961
0.0135487
0.0116479
0.0104313
0.00981381
0.0112118
0.0135241
0.107324
0.110452
0.112249
0.111136
0.110449
0.111342
0.110866
0.110321
0.117887
0.143246
0.185502
0.246067
0.326869
0.42442
0.461698
0.301644
0.0759977
0.0352575
0.0347236
0.0342968
0.0292955
0.0236439
0.0193277
0.0157813
0.0126344
0.0104394
0.00920111
0.00887265
0.010066
0.0121974
0.105189
0.104411
0.103713
0.10228
0.102031
0.102416
0.101836
0.10253
0.113526
0.143467
0.192042
0.255963
0.33873
0.440417
0.464799
0.285812
0.0700021
0.0416919
0.0419915
0.040797
0.0338326
0.0270399
0.0211008
0.0161147
0.0124559
0.0100508
0.00881539
0.00880744
0.00928033
0.0108585
0.0951001
0.094176
0.0933779
0.0951496
0.0977608
0.0978962
0.0974247
0.0995002
0.11319
0.149339
0.201107
0.266343
0.350276
0.455688
0.46488
0.264996
0.0665259
0.0495194
0.0504588
0.0485681
0.0408443
0.0333769
0.0255741
0.0181895
0.0132263
0.0101617
0.00880804
0.00881509
0.00890173
0.00987056
0.0835559
0.0862317
0.0867051
0.0921209
0.0971499
0.0971926
0.0972331
0.0999511
0.119824
0.159335
0.211434
0.277146
0.36269
0.470844
0.465068
0.228926
0.0640915
0.0581299
0.0596606
0.0578541
0.0507344
0.0427564
0.0331753
0.0233482
0.0159804
0.0111164
0.00896801
0.00880827
0.00881743
0.00928536
0.0786029
0.0820104
0.0837347
0.0914147
0.0992309
0.0994543
0.0986488
0.106177
0.131478
0.170731
0.221601
0.288114
0.377906
0.484199
0.44664
0.183038
0.0640696
0.0661161
0.0690733
0.0684812
0.0632061
0.0550996
0.0443045
0.0325271
0.0219805
0.0139624
0.00981134
0.0088174
0.00882079
0.00900574
0.0784114
0.0800296
0.0829339
0.0926392
0.105389
0.107511
0.107211
0.117085
0.143031
0.180501
0.231118
0.300178
0.397205
0.491032
0.411595
0.137725
0.064252
0.0717626
0.0773684
0.0791442
0.0767728
0.07004
0.0594468
0.0464958
0.0325457
0.0200299
0.012134
0.00918753
0.00882253
0.00891835
0.0784522
0.0793745
0.0838382
0.0980061
0.113657
0.118809
0.119845
0.12944
0.153062
0.189014
0.240472
0.314366
0.420024
0.491166
0.363318
0.103987
0.0654974
0.0742707
0.0823521
0.0875037
0.0889612
0.0858499
0.0779173
0.0655388
0.0490314
0.0311914
0.0172866
0.0105475
0.00894801
0.00892255
0.0784987
0.079526
0.0876724
0.105531
0.121977
0.129656
0.132182
0.141068
0.162338
0.197691
0.250879
0.331772
0.443398
0.478486
0.301552
0.0838129
0.0668666
0.0746984
0.0836764
0.091387
0.0970748
0.0993359
0.0966822
0.0880656
0.0719064
0.0493416
0.0273773
0.0140373
0.00955658
0.00897272
0.0785362
0.0815538
0.0930406
0.112928
0.130478
0.139628
0.143593
0.152113
0.171863
0.207637
0.264512
0.353624
0.461303
0.452931
0.239204
0.0745354
0.0679496
0.0740431
0.0829753
0.091587
0.0999335
0.107623
0.11165
0.109779
0.0985622
0.0747208
0.0446681
0.0216974
0.0114442
0.00929756
0.0786844
0.0855651
0.0992596
0.120562
0.140047
0.149881
0.154652
0.162915
0.182333
0.220296
0.283987
0.380209
0.467301
0.422313
0.175441
0.0718874
0.0690082
0.0726196
0.0805671
0.0890033
0.0983143
0.109703
0.12031
0.125797
0.122638
0.103616
0.0697598
0.03639
0.0164071
0.0105862
0.0817817
0.0913642
0.10727
0.129869
0.150824
0.161181
0.165804
0.173566
0.194393
0.237564
0.311535
0.413569
0.467355
0.362544
0.121734
0.0717212
0.0701211
0.0714298
0.0775521
0.0849509
0.093858
0.10657
0.122054
0.133475
0.1369
0.127931
0.0995435
0.0595563
0.0276123
0.0146801
0.0888664
0.0992589
0.117135
0.140861
0.162387
0.173375
0.177545
0.185068
0.209911
0.261754
0.3471
0.449223
0.442301
0.272228
0.0872361
0.0717927
0.0710258
0.0711096
0.0758405
0.0824372
0.0905857
0.10198
0.118347
0.134343
0.139542
0.139531
0.125214
0.0886509
0.0475815
0.0255467
0.0987724
0.109057
0.127767
0.152758
0.175169
0.186613
0.190673
0.199576
0.231853
0.295037
0.385739
0.474182
0.415347
0.179629
0.0723236
0.0718471
0.0714465
0.0713436
0.0755321
0.082004
0.0902628
0.100146
0.112542
0.128087
0.139491
0.139542
0.136703
0.114516
0.075633
0.0476415
0.11005
0.120029
0.138708
0.165709
0.190638
0.202082
0.206909
0.220491
0.262502
0.336876
0.429481
0.483029
0.367493
0.114245
0.0686156
0.0713187
0.0715031
0.0715505
0.0759112
0.0832217
0.0922607
0.101272
0.109478
0.117897
0.127734
0.135192
0.135772
0.126668
0.105088
0.0804198
0.121926
0.131562
0.150688
0.180366
0.209247
0.221375
0.228792
0.24982
0.301883
0.382977
0.471038
0.482931
0.29337
0.0787619
0.0685763
0.070437
0.0712655
0.0716017
0.0766522
0.0854481
0.0949484
0.102975
0.108329
0.109523
0.109693
0.115489
0.122695
0.126146
0.123452
0.11275
0.134337
0.143663
0.164449
0.197266
0.230595
0.245082
0.25588
0.283917
0.346613
0.427385
0.497842
0.448813
0.198339
0.0686416
0.0685763
0.0698212
0.070836
0.0717154
0.077543
0.087283
0.0965608
0.103549
0.106185
0.102465
0.0949152
0.0929494
0.0999646
0.114566
0.125814
0.128082
0.147901
0.156942
0.180209
0.217634
0.254973
0.270122
0.282866
0.319552
0.39371
0.467113
0.507067
0.394928
0.123159
0.0685773
0.0685691
0.069686
0.0704817
0.0718866
0.0783056
0.087975
0.097002
0.102319
0.102097
0.0959896
0.0849367
0.0773015
0.0790657
0.0919618
0.111881
0.124283
0.162883
0.172349
0.199356
0.242719
0.282626
0.295701
0.312324
0.361244
0.439612
0.49814
0.507031
0.312604
0.0828747
0.0685713
0.0685799
0.0699201
0.0702726
0.0719625
0.0786452
0.0879826
0.0958791
0.0990652
0.0978927
0.0911116
0.0787114
0.0686874
0.0662229
0.0713916
0.0860564
0.103174
0.179787
0.191564
0.224748
0.272219
0.313638
0.329382
0.353472
0.411151
0.475993
0.515202
0.482868
0.214377
0.0736359
0.0686008
0.0696104
0.0703557
0.0700762
0.0719414
0.0784981
0.0867095
0.0931922
0.0959812
0.095483
0.0881444
0.07497
0.064149
0.0598867
0.0598019
0.0644078
0.0734047
0.201219
0.217047
0.257085
0.306594
0.348378
0.371961
0.403824
0.460306
0.49558
0.518241
0.441778
0.150898
0.0743846
0.070936
0.0717102
0.0705268
0.0694648
0.0715732
0.0773075
0.0841422
0.0910998
0.0949592
0.0948231
0.0862297
0.0719926
0.0613004
0.0567255
0.0544744
0.052712
0.0523648
0.230172
0.249905
0.293803
0.344854
0.388025
0.420161
0.45427
0.495819
0.502672
0.518237
0.396934
0.12567
0.0786256
0.0747553
0.0736371
0.070416
0.068248
0.0705616
0.0752116
0.0820868
0.0906029
0.0952049
0.0948773
0.084586
0.0690818
0.058834
0.0546948
0.0520888
0.0478278
0.042643
0.266536
0.286929
0.335181
0.388094
0.434228
0.469327
0.492247
0.511916
0.504364
0.518237
0.339403
0.118907
0.0838012
0.0779381
0.0743796
0.0698401
0.0669501
0.0692026
0.0732025
0.0813262
0.0911714
0.0964367
0.0954888
0.0829985
0.0665994
0.0570808
0.0533103
0.0506787
0.045892
0.0388864
0.305831
0.328185
0.382119
0.436023
0.477484
0.501429
0.507213
0.51351
0.505391
0.510459
0.277156
0.114825
0.0875521
0.0797778
0.0742319
0.068281
0.0659997
0.067917
0.072047
0.0813086
0.0925008
0.098313
0.0967213
0.081675
0.0648481
0.0561265
0.0525566
0.0498061
0.0449848
0.0372172
0.347107
0.372505
0.430395
0.478743
0.505167
0.512575
0.51042
0.513507
0.513018
0.473217
0.219226
0.111209
0.0899474
0.0802847
0.073252
0.0661963
0.0659682
0.0670158
0.0717279
0.0824119
0.0949811
0.100529
0.0981137
0.0806695
0.0637734
0.0555861
0.0520849
0.0490803
0.0444273
0.0363912
0.388919
0.416545
0.474918
0.50661
0.516036
0.516664
0.515706
0.513533
0.515966
0.404386
0.18076
0.11032
0.0916623
0.0799718
0.0717207
0.0659209
0.0658755
0.0665617
0.072109
0.0851253
0.0979658
0.102554
0.0991836
0.0801217
0.063391
0.0554025
0.051859
0.0484675