/*--------------------------------*- C++ -*----------------------------------*\
| =========                 |                                                 |
| \\      /  F ield         | OpenFOAM: The Open Source CFD Toolbox           |
|  \\    /   O peration     | Version:  v1606+                                |
|   \\  /    A nd           | Web:      www.OpenFOAM.com                      |
|    \\/     M anipulation  |                                                 |
\*---------------------------------------------------------------------------*/
FoamFile
{
    version     2.0;
    format      ascii;
    class       volScalarField;
    location    "1.08";
    object      Theta.particles;
}
// * * * * * * * * * * * * * * * * * * * * * * * * * * * * * * * * * * * * * //

dimensions      [0 2 -2 0 0 0 0];

internalField   nonuniform List<scalar> 
6000
(
0.000879187
0.000723134
0.000817778
0.000888864
0.000754287
0.000529803
0.000398741
0.000436127
0.000502726
0.000527579
0.000514054
0.000489832
0.000469294
0.000459465
0.000441423
0.000422642
0.000409182
0.000407796
0.000420806
0.000435144
0.000435683
0.000415521
0.000430898
0.000541194
0.000735478
0.000829297
0.000801444
0.000684813
0.000597705
0.000688857
0.000251351
0.000234773
0.000243774
0.000271615
0.000272502
0.000250142
0.00022226
0.000218048
0.000219041
0.000231538
0.000237392
0.000239793
0.000241761
0.000242815
0.000240485
0.000235685
0.000229858
0.000224148
0.000219956
0.000217525
0.000213891
0.000215006
0.000222538
0.000246655
0.000260609
0.000262968
0.000242237
0.000228849
0.000219786
0.000241533
0.000242409
0.000230252
0.000259111
0.000311423
0.000361346
0.000331141
0.000293407
0.000342679
0.000417497
0.000478064
0.000506007
0.000529827
0.000565055
0.000584354
0.000580387
0.000569541
0.000546706
0.000513141
0.000504278
0.000525862
0.000519948
0.000432785
0.0003692
0.000375673
0.000358055
0.000327098
0.000277134
0.000230316
0.000208515
0.000231378
0.000170272
0.00016825
0.000206921
0.000243867
0.000286269
0.000286318
0.000271392
0.000364775
0.000407719
0.000429229
0.000412
0.000403099
0.000403796
0.000393013
0.00037897
0.000365983
0.000361026
0.00035988
0.000370291
0.000375794
0.000375149
0.000358766
0.000318641
0.000318852
0.000304919
0.000261107
0.000222523
0.000169935
0.000146091
0.000156994
0.000128805
0.000130392
0.000170485
0.000234697
0.000276901
0.000313243
0.000363209
0.000430698
0.000404035
0.000389707
0.000367014
0.000354186
0.000333184
0.000301143
0.000277414
0.000261132
0.000258357
0.000271786
0.000303452
0.000334423
0.000350053
0.000368437
0.000380343
0.000365814
0.000305254
0.00024108
0.000183177
0.000134005
0.000115856
0.00012015
0.000103818
0.000104446
0.00012598
0.000183606
0.000260341
0.000343731
0.000414353
0.000382643
0.000346671
0.00033282
0.000316244
0.000285605
0.000250044
0.000219374
0.00019473
0.000179245
0.000176715
0.000194319
0.00022937
0.000275075
0.000313829
0.00035106
0.000374646
0.000340379
0.000261666
0.0001846
0.000129847
0.000102021
9.43487e-05
9.54907e-05
8.91098e-05
8.82218e-05
9.64972e-05
0.000129587
0.000189059
0.000289285
0.00037813
0.00035517
0.000326275
0.00032225
0.000300835
0.000263139
0.000224579
0.000190095
0.000156338
0.000140001
0.000140045
0.000163519
0.00020797
0.000262131
0.000309417
0.00034901
0.000355585
0.000287167
0.00019934
0.000127748
9.55487e-05
8.49905e-05
8.166e-05
8.38916e-05
8.62021e-05
8.43386e-05
8.51372e-05
9.78546e-05
0.000122545
0.000198998
0.00032494
0.000344441
0.00033344
0.000325709
0.000302621
0.000257018
0.000203113
0.000150829
0.000120818
0.000113157
0.000117576
0.000139042
0.000190219
0.000263908
0.000324134
0.000365538
0.000360633
0.000237469
0.000143355
9.59381e-05
8.16518e-05
8.09781e-05
7.98591e-05
8.09198e-05
8.6327e-05
8.46907e-05
8.58239e-05
9.11488e-05
9.40544e-05
0.000134691
0.000283739
0.000337657
0.000330892
0.000322293
0.000303948
0.000243124
0.000160992
0.000115799
0.000102192
0.000102379
0.000107657
0.000122021
0.000160841
0.000246335
0.000338746
0.000391692
0.000347459
0.000194856
0.000115761
8.56366e-05
8.1529e-05
7.9257e-05
7.73024e-05
7.79561e-05
8.86021e-05
8.58589e-05
8.62956e-05
9.09169e-05
9.28349e-05
0.000116654
0.000263092
0.000330453
0.000323791
0.000317492
0.0002998
0.000207571
0.000129567
0.000104566
9.81317e-05
0.000100499
0.000105336
0.000114385
0.000136788
0.000209997
0.000333492
0.000402192
0.000322501
0.000167747
0.000106264
9.05011e-05
8.4905e-05
7.86204e-05
7.54575e-05
7.56951e-05
9.65734e-05
9.1393e-05
8.97867e-05
9.56644e-05
0.000108083
0.000128489
0.00025398
0.000323273
0.000311379
0.000309498
0.000294806
0.000207691
0.000137286
0.000101632
9.64608e-05
9.77632e-05
0.000104122
0.000114886
0.000128293
0.000179255
0.000302114
0.000387893
0.000292926
0.000162483
0.000110665
9.81145e-05
8.73997e-05
7.94881e-05
7.63652e-05
7.62273e-05
0.000152524
0.00010719
0.000104306
0.000118428
0.000149867
0.000199956
0.000260352
0.000317501
0.000310232
0.000314037
0.000323977
0.000282515
0.000169385
0.000128593
0.000113332
0.000114134
0.000129363
0.000145516
0.000146833
0.000176535
0.000263988
0.00034288
0.000265824
0.000167808
0.000129833
0.000118745
9.78204e-05
8.58054e-05
8.71292e-05
9.94728e-05
0.000417598
0.000136203
0.000121154
0.000171407
0.000308087
0.000552969
0.000394141
0.0004096
0.000413583
0.00042076
0.000502148
0.000581663
0.000325
0.00021746
0.000151126
0.000144086
0.000204349
0.000380281
0.000381398
0.000309466
0.000304475
0.000331356
0.000250898
0.000187573
0.000208499
0.000187259
0.000125833
9.83452e-05
9.74715e-05
0.000228468
0.000328337
0.000285402
0.000161507
0.000296304
0.0007358
0.00109243
0.00136416
0.00109286
0.00103033
0.000998479
0.00113355
0.000947736
0.000687404
0.00031908
0.000164108
0.000185606
0.000653465
0.000923914
0.00107941
0.00119729
0.0010505
0.000714906
0.000534121
0.000542119
0.000799912
0.000873748
0.000467001
0.000114289
0.000105684
0.000428138
0.000211671
0.000205527
0.000304009
0.000377753
0.000541418
0.000772099
0.00110466
0.00107831
0.00106335
0.001022
0.00101456
0.000792909
0.000455172
0.000259167
0.000133161
0.00028255
0.000374907
0.00041807
0.00054574
0.000830337
0.00117937
0.00138108
0.00129547
0.0012139
0.000937925
0.000718814
0.000569536
0.000383318
0.000323478
0.000245639
0.000162284
0.000119619
0.000196483
0.000235227
0.000392693
0.000491933
0.000553867
0.000684466
0.000792712
0.000817734
0.000802131
0.000626894
0.000296202
0.00015555
0.000130752
0.000138481
0.000206994
0.000263973
0.000311423
0.000382437
0.00049482
0.000689778
0.000700334
0.000592557
0.000463799
0.000380387
0.00024826
0.000283376
0.000181438
0.000183487
0.000126264
9.76285e-05
0.00013299
0.000213438
0.000334018
0.000389107
0.000423065
0.000571732
0.000669886
0.00073885
0.000710704
0.000558873
0.000248888
0.000115677
0.00010228
0.000109597
0.000155533
0.000212717
0.000246559
0.000284967
0.000325943
0.000363122
0.000366239
0.000358655
0.000352001
0.000292309
0.000183107
0.000118023
9.64408e-05
0.000130186
9.34045e-05
7.9008e-05
0.000124097
0.000214133
0.000287671
0.000312673
0.000349475
0.000516193
0.000672335
0.000738189
0.000689301
0.000528644
0.000234634
0.000107584
0.000104641
0.000112042
0.000138579
0.000157306
0.000195733
0.000227401
0.000272698
0.00031292
0.000331275
0.000329522
0.000295892
0.000220011
0.000151083
0.000104726
7.95968e-05
9.88939e-05
7.04385e-05
8.50608e-05
0.00012812
0.000194414
0.000232085
0.000246521
0.000281763
0.000402201
0.000650154
0.000725635
0.000676084
0.000494421
0.000220033
0.000102884
0.000102729
0.000113516
0.000127751
0.000142163
0.000152425
0.000175959
0.000220925
0.000256984
0.000281345
0.000265947
0.000231385
0.000165527
0.000133705
0.000110886
8.81464e-05
8.61266e-05
6.42355e-05
0.000109213
0.000152523
0.00017235
0.000180454
0.000187113
0.000212441
0.000306222
0.000501681
0.000664558
0.000642997
0.000428096
0.000196588
0.000101187
8.76022e-05
0.000106086
0.000122213
0.000137437
0.000145754
0.000156575
0.000172553
0.000193364
0.000226623
0.000203898
0.000180389
0.000157184
0.000139574
0.000123169
0.000104407
9.59115e-05
0.000103538
0.000146447
0.000177777
0.000176155
0.00016832
0.000154838
0.000160099
0.000242489
0.00040019
0.000536897
0.000520852
0.0003508
0.000173072
0.000116893
8.99882e-05
9.39778e-05
0.000116747
0.000133388
0.00014238
0.000152254
0.000166529
0.000184365
0.000199491
0.000202589
0.000192449
0.000177079
0.000157986
0.000142296
0.000134254
0.000128948
0.000152786
0.000174921
0.000230932
0.000234743
0.000195487
0.000166508
0.000150883
0.000171196
0.000323283
0.000468114
0.00042507
0.000275343
0.000174218
0.000129578
0.000110271
0.000107858
0.000126552
0.000143228
0.000154271
0.000165558
0.000180008
0.000197266
0.000213887
0.000217833
0.00020624
0.000189032
0.000185346
0.000174492
0.000164007
0.000160403
0.000205123
0.00021451
0.000244817
0.000262447
0.000238453
0.00021658
0.000209589
0.000212813
0.000258692
0.000376325
0.000335553
0.000261172
0.000190629
0.00016481
0.000154099
0.000157401
0.000168775
0.000181393
0.000190782
0.000198775
0.000206878
0.000214864
0.000222556
0.000227317
0.000226987
0.000219378
0.000206182
0.000193615
0.000184803
0.000181677
0.000247438
0.000249961
0.000271072
0.000289478
0.000287571
0.000273537
0.000259393
0.000260669
0.000334164
0.000371805
0.000358536
0.000324759
0.000245795
0.000227477
0.000221647
0.000214393
0.000214974
0.000220304
0.000226758
0.000234348
0.00024279
0.000250052
0.000254411
0.000252422
0.000243274
0.00023102
0.000218498
0.000207587
0.000200244
0.000197594
0.000279074
0.000278997
0.000291449
0.000305752
0.000313967
0.0003177
0.000325092
0.00034106
0.000367796
0.000413385
0.0004063
0.000347401
0.000299746
0.000273454
0.000258458
0.000247252
0.000241406
0.000240055
0.000241486
0.000244882
0.000249465
0.000253616
0.000255529
0.000252229
0.000245459
0.000236545
0.000226965
0.000218405
0.000212589
0.000210427
0.00030387
0.000302525
0.000310156
0.00032119
0.000331322
0.0003414
0.000355255
0.000377708
0.000413209
0.000438138
0.000422117
0.000374629
0.000328829
0.000300006
0.000280462
0.000267151
0.000258491
0.000253485
0.000251365
0.000251409
0.000252654
0.00025393
0.000254082
0.000250583
0.000245379
0.000239629
0.00023311
0.000226893
0.00022256
0.000220888
0.000324089
0.000322407
0.000327577
0.000336493
0.000346131
0.0003567
0.000369661
0.000386289
0.000406704
0.000419946
0.000405672
0.000373381
0.000341192
0.000315608
0.000295401
0.000281116
0.000271134
0.000264193
0.000259908
0.000257632
0.000256972
0.000256831
0.000255677
0.000251177
0.00024573
0.000241765
0.000237759
0.000233625
0.000230637
0.000229445
0.000340931
0.000339614
0.000343417
0.000350569
0.00035869
0.000367674
0.000377905
0.00038875
0.000397703
0.000399906
0.000388864
0.000367941
0.000345433
0.00032454
0.000305667
0.000291239
0.000280642
0.00027284
0.000267671
0.00026386
0.00026231
0.000262145
0.000259853
0.000254612
0.000247249
0.000243791
0.000241523
0.000239108
0.00023727
0.000236525
0.000355181
0.000354632
0.000357542
0.000362937
0.000369023
0.000375884
0.00038374
0.000391461
0.000395871
0.00039248
0.000380873
0.000364387
0.000346903
0.00032949
0.000312267
0.000298159
0.000287458
0.000279621
0.000274527
0.000269923
0.000267671
0.000268077
0.000265709
0.000260417
0.000250624
0.000246475
0.000244957
0.000243794
0.000242885
0.000242531
0.000367974
0.000367911
0.000369769
0.000373363
0.000377172
0.000381579
0.000387406
0.000394296
0.000398398
0.000393769
0.000378641
0.000362335
0.00034699
0.000331867
0.000316265
0.000302701
0.000292081
0.000284603
0.000280035
0.00027497
0.000271762
0.000272306
0.000271522
0.000266709
0.000256065
0.000250155
0.000248479
0.000248062
0.000247848
0.000247823
0.00038004
0.000379985
0.000380918
0.000382363
0.000383177
0.000384318
0.000387506
0.000393446
0.000400097
0.000403827
0.000381316
0.000361215
0.000345918
0.000332142
0.000318178
0.000305278
0.000294893
0.000288012
0.000284128
0.000278847
0.000274182
0.000274027
0.000275788
0.000273191
0.000262902
0.000254779
0.000252312
0.000252203
0.000252462
0.000252702
0.000392255
0.000392572
0.00039296
0.000391704
0.000387962
0.000383246
0.000380487
0.000382296
0.00039016
0.000414472
0.000384903
0.000360283
0.000343362
0.000330239
0.000317649
0.000305563
0.000295852
0.000290017
0.000286837
0.000281819
0.000275887
0.000274471
0.000277665
0.000278886
0.000270124
0.000259955
0.000256473
0.000256391
0.00025694
0.000257389
0.000406257
0.000407942
0.00040901
0.000405574
0.000396191
0.000383623
0.000371464
0.000364799
0.000374936
0.000382697
0.000387218
0.000357887
0.000338885
0.000325816
0.000314419
0.000303483
0.000295044
0.000290717
0.000288153
0.000283762
0.000277634
0.000274946
0.000278096
0.000282484
0.000276204
0.0002653
0.000260974
0.000260686
0.000261416
0.000262047
0.000421784
0.000427674
0.000433666
0.000430085
0.000414949
0.000396401
0.000377384
0.000361675
0.000360164
0.000359576
0.000400415
0.000353357
0.000332291
0.000318694
0.000308464
0.000299127
0.000292616
0.000290147
0.000288267
0.000284702
0.000279316
0.000275847
0.000278206
0.000283643
0.00028019
0.000270488
0.000265813
0.000265235
0.000265969
0.000266771
0.000434777
0.000454649
0.000472585
0.000470111
0.000444864
0.000419046
0.000395002
0.000372121
0.00035849
0.000368969
0.000375314
0.000349167
0.000324049
0.000309484
0.000300159
0.000292828
0.000288718
0.000288312
0.00028737
0.000284762
0.00028057
0.000277126
0.000278606
0.000283341
0.00028236
0.00027524
0.000270967
0.00027026
0.000270861
0.000271662
0.000432991
0.000489415
0.000517383
0.000521118
0.000478574
0.000439657
0.000407583
0.000380802
0.000356924
0.000359845
0.000337673
0.000357915
0.000315294
0.000298786
0.000289946
0.000284987
0.000283508
0.00028516
0.000285492
0.000284012
0.000281182
0.000278389
0.000279478
0.000283137
0.000283548
0.000279292
0.000276339
0.000275892
0.000276418
0.000277072
0.000379966
0.000475662
0.000461175
0.000478646
0.000480225
0.000443984
0.000409613
0.000380969
0.00035729
0.000350562
0.000334921
0.000349631
0.000303526
0.000286447
0.000278772
0.00027606
0.000277066
0.000280604
0.000282604
0.000282529
0.000281066
0.000279289
0.000280403
0.000283379
0.000284603
0.00028313
0.000281902
0.000282065
0.000282828
0.000283493
0.000280549
0.000401623
0.000421756
0.000434184
0.000395315
0.00041641
0.000399798
0.000374858
0.000355795
0.000349286
0.000357731
0.000335271
0.000297505
0.000275155
0.000267394
0.000266409
0.000269363
0.000274649
0.000279032
0.000280629
0.000280188
0.000279327
0.000280656
0.000283529
0.000285744
0.000286734
0.000287601
0.000288974
0.000290418
0.000291409
0.000199924
0.000357091
0.000438251
0.00044479
0.000360649
0.000341305
0.000368694
0.000359425
0.000345813
0.000336473
0.000332381
0.000305826
0.000295102
0.000265763
0.000255967
0.000255914
0.000260208
0.000267721
0.000275944
0.000278925
0.000278371
0.000277813
0.00027955
0.000283042
0.000286822
0.000290227
0.000293687
0.000297059
0.000299907
0.000301622
0.000278339
0.000344092
0.000408524
0.000453312
0.000393887
0.000295278
0.000314818
0.000331122
0.000327179
0.000321059
0.00031825
0.000282655
0.000272984
0.000254788
0.00024354
0.000243968
0.000249295
0.000260557
0.000275728
0.000277566
0.000274841
0.000273809
0.000276419
0.000281432
0.000287585
0.000294157
0.000300805
0.000307069
0.000312434
0.000315322
0.000458704
0.000383217
0.000391741
0.000464561
0.000452456
0.000304487
0.000261202
0.000292412
0.000301122
0.000304391
0.000310659
0.000282438
0.000250606
0.00024107
0.000229851
0.00023013
0.000236393
0.000254397
0.000283906
0.000274751
0.000267573
0.000266136
0.000270683
0.000278391
0.00028795
0.000298628
0.000309618
0.000320242
0.000329776
0.000333724
0.000615905
0.000433561
0.000397087
0.000495165
0.000527776
0.000328695
0.000231451
0.000253449
0.000271059
0.000281816
0.000289739
0.000271934
0.000237054
0.000226396
0.000215532
0.000214326
0.000221649
0.000248312
0.000300331
0.000265762
0.000254167
0.000254446
0.000262366
0.000274059
0.000288212
0.000304344
0.000321293
0.000338387
0.000354836
0.00035699
0.000658725
0.000492544
0.000433599
0.000554484
0.000646496
0.000362797
0.000226147
0.000225003
0.00024257
0.000254191
0.000263301
0.000251907
0.000226638
0.000211522
0.000200739
0.000197398
0.000206379
0.000243258
0.000281001
0.000252055
0.000235494
0.000239814
0.000252453
0.000269137
0.000289007
0.000312163
0.000336981
0.000363855
0.000393472
0.000382766
0.00062614
0.000503043
0.000457784
0.000650939
0.00080584
0.000397214
0.000226482
0.000207759
0.000220144
0.000228855
0.000238237
0.000232389
0.000213567
0.000197296
0.000186081
0.000183077
0.000202225
0.000291214
0.000250046
0.000220046
0.000215407
0.000224664
0.000242526
0.000264572
0.000290797
0.000322167
0.000356888
0.000397981
0.000454045
0.00039716
0.000562706
0.000480015
0.000422349
0.000677874
0.000906538
0.00042082
0.000229515
0.000190354
0.000200956
0.000206481
0.000215536
0.000214159
0.000198772
0.000182874
0.000169967
0.000165429
0.00018634
0.000315212
0.000246503
0.000201033
0.000197472
0.000211219
0.000233788
0.000260774
0.000293157
0.000333579
0.000379828
0.00043031
0.000406046
0.000384164
0.000467435
0.000429111
0.000397573
0.000635048
0.000856767
0.00041999
0.000233866
0.000175541
0.000181709
0.000184039
0.000194193
0.000197903
0.000184642
0.000168203
0.000153848
0.000145662
0.000161122
0.000335612
0.000245255
0.000181069
0.000181283
0.000200015
0.000226017
0.000256196
0.00029475
0.00034418
0.000410326
0.000596239
0.000403731
0.000297084
0.000385147
0.000347049
0.000362298
0.000540568
0.00067302
0.000478301
0.000255529
0.000165553
0.000163151
0.000163412
0.000172361
0.000183542
0.00017212
0.000154759
0.000140406
0.000132282
0.000150794
0.000330841
0.000226043
0.000165575
0.000170411
0.000192143
0.000217869
0.000249497
0.000291091
0.000340412
0.000593897
0.00146772
0.00116413
0.000348187
0.000387469
0.000262378
0.000307312
0.000461841
0.000577543
0.000532741
0.000349616
0.000362679
0.000157157
0.000146889
0.000151329
0.000168402
0.000161182
0.000143748
0.000131259
0.000128697
0.000158474
0.000312069
0.000195298
0.000155903
0.000165999
0.000185972
0.000208084
0.000238655
0.000276648
0.000309865
0.000589287
0.00148985
0.00196019
0.00207558
0.000496455
0.000245647
0.000269113
0.00040642
0.000545358
0.000541856
0.000563421
0.00107244
0.000460547
0.000154983
0.000141135
0.000147155
0.000151804
0.000134389
0.000122774
0.000124221
0.000146735
0.0002486
0.000193049
0.000157023
0.000165841
0.000177535
0.000193466
0.000214346
0.000204127
0.000294052
0.000494515
0.00145274
0.0025
0.00177646
0.000646225
0.000344195
0.000318077
0.000468886
0.000532774
0.000596352
0.000972954
0.00596513
0.00640977
0.00133239
0.000719739
0.00015969
0.00014727
0.000126874
0.000114816
0.000116426
0.000132092
0.000193349
0.000192358
0.000163635
0.000160031
0.000163139
0.000166829
0.000163033
0.000153302
0.000223229
0.000650532
0.00300426
0.00362724
0.000808514
0.00091728
0.000713569
0.000673859
0.00101605
0.000745218
0.00105742
0.00327256
0.0325154
0.0173083
0.0101597
0.00667791
0.000548317
0.000158696
0.000119572
0.00010586
0.000111212
0.000122757
0.000163506
0.000170194
0.00015221
0.000145113
0.000142172
0.000137587
0.000115575
0.000136335
0.000452122
0.00154322
0.00356285
0.00316628
0.000775205
0.00302446
0.00271749
0.00261518
0.00369073
0.00316285
0.00648906
0.0245284
0.0634153
0.016665
0.00227266
0.00369012
0.00196596
0.000159761
0.00010204
9.20913e-05
9.85744e-05
0.000111864
0.000144466
0.000144306
0.000133165
0.000124736
0.000118294
0.000107696
8.68854e-05
0.000275004
0.00182336
0.00285818
0.00258808
0.00313221
0.0008821
0.0130869
0.012074
0.0112708
0.0134111
0.0154819
0.0282044
0.0468559
0.0273611
0.00538047
0.00105154
0.000880042
0.00252567
0.00021395
7.7795e-05
7.24514e-05
7.9302e-05
9.39908e-05
0.000110685
0.000113885
0.000109848
0.000104509
9.83348e-05
8.63327e-05
0.000155022
0.00126696
0.00630278
0.00460257
0.00222642
0.00282796
0.00128902
0.0240166
0.0203126
0.0177256
0.0160725
0.0194468
0.0219114
0.0159796
0.00847737
0.00324131
0.000915143
0.000696145
0.00280819
0.000354726
6.3326e-05
5.26444e-05
5.94209e-05
7.10557e-05
8.32765e-05
9.08204e-05
9.09308e-05
8.85338e-05
8.26748e-05
7.83071e-05
0.00057876
0.00367324
0.0155679
0.00716614
0.0025728
0.00238166
0.00223604
0.0246055
0.0200306
0.0164099
0.0134648
0.01152
0.00949065
0.00737072
0.00583468
0.00251385
0.000692738
0.000286561
0.0020171
0.000610492
6.33359e-05
3.70603e-05
4.24361e-05
5.22694e-05
6.34403e-05
7.23442e-05
7.53579e-05
7.389e-05
6.89553e-05
0.000223034
0.0011688
0.00498424
0.0203262
0.00973072
0.004133
0.00298003
0.00373837
0.0236202
0.0198139
0.016397
0.0132378
0.0100962
0.00744974
0.00594029
0.00498943
0.0017168
0.000543062
0.000208624
0.000630133
0.000684273
7.52637e-05
2.53037e-05
2.95886e-05
3.87001e-05
4.9217e-05
5.8388e-05
6.39654e-05
6.44762e-05
7.55887e-05
0.000487793
0.00182487
0.00887927
0.0213773
0.00951483
0.00549595
0.00347553
0.00628914
0.0228274
0.0199574
0.016908
0.0133666
0.00966178
0.00667839
0.00509429
0.00390808
0.00136485
0.000458384
0.000184845
0.000382527
0.000678954
9.02569e-05
2.0285e-05
2.20674e-05
3.06766e-05
4.0806e-05
5.06323e-05
5.72114e-05
5.9084e-05
0.000176167
0.000874497
0.00377462
0.0144738
0.0172222
0.00799179
0.00488163
0.00400304
0.00939163
0.0225399
0.0204919
0.0175607
0.0133692
0.0089411
0.00567932
0.00422902
0.00304215
0.00113525
0.00041642
0.000173986
0.000350296
0.000745087
0.000113104
2.16751e-05
1.9739e-05
2.83328e-05
3.83552e-05
4.95133e-05
5.59967e-05
7.36547e-05
0.000495515
0.00198999
0.00876377
0.0162335
0.0128179
0.00660445
0.00437278
0.00537708
0.0111181
0.0227187
0.0213155
0.0181903
0.0130906
0.00801759
0.00470705
0.00347983
0.00244884
0.0010125
0.000387744
0.000166934
0.000350102
0.00168853
0.000211656
3.97903e-05
2.46169e-05
3.25473e-05
4.26343e-05
5.42845e-05
6.05507e-05
0.000199467
0.00118386
0.00516321
0.0139044
0.0132088
0.00886546
0.00529136
0.00438701
0.00618549
0.0111598
0.0232955
0.0222348
0.0185871
0.0125299
0.00702433
0.00390002
0.00288254
0.00216661
0.000952664
0.00035946
0.000155394
0.000198913
0.00402687
0.000639122
0.000107966
4.26996e-05
4.51832e-05
5.34079e-05
6.28832e-05
8.63431e-05
0.000626627
0.00306055
0.0113946
0.014285
0.00949553
0.00604835
0.00420477
0.00419845
0.00601407
0.00993077
0.0240934
0.0230888
0.0187551
0.0118325
0.0061146
0.00330383
0.00246441
0.00196586
0.000885266
0.00032857
0.00014672
8.47003e-05
0.000546536
0.00294968
0.00027569
6.3743e-05
5.62555e-05
6.39167e-05
6.91441e-05
0.000201305
0.00172587
0.00774046
0.0144775
0.0100183
0.00625943
0.0042335
0.00343066
0.00372802
0.00519806
0.00825267
0.0249395
0.0237963
0.0187966
0.0112248
0.00547393
0.00295926
0.00221846
0.00177094
0.000788784
0.000300098
0.000130973
6.82895e-05
6.86235e-05
0.00074487
0.000327831
6.04395e-05
5.89682e-05
6.7749e-05
8.83905e-05
0.000749715
0.00419913
0.0122337
0.0110791
0.00634203
0.00418053
0.00323871
0.00297562
0.00329815
0.00431272
0.00658741
0.0256785
0.0242623
0.0187179
0.0109038
0.00517867
0.00279143
0.00204898
0.00156742
0.000703217
0.000271751
0.00011694
6.00795e-05
5.81445e-05
0.000179952
0.000246777
6.63253e-05
6.35963e-05
7.21112e-05
0.000159807
0.00133019
0.00723443
0.0135005
0.0068521
0.0041162
0.00316294
0.00283001
0.00282967
0.0031708
0.00390859
0.00562645
0.0261771
0.0244178
0.018539
0.0108156
0.00505934
0.00267844
0.00187227
0.00137472
0.000621559
0.000235927
0.000103127
5.2673e-05
5.60563e-05
0.000161394
0.000209723
7.82062e-05
6.91879e-05
6.86448e-05
0.000304317
0.00255496
0.0103757
0.00786584
0.00394101
0.00303982
0.00279526
0.00278149
0.00305996
0.00358671
0.00420405
0.00561949
0.0263563
0.0243599
0.0183715
0.0108231
0.00501579
0.00256303
0.00170082
0.001212
0.000525246
0.000199403
8.99957e-05
4.59759e-05
5.40563e-05
0.000127289
0.000179898
9.50755e-05
7.36666e-05
7.25264e-05
0.000717835
0.00459415
0.0118216
0.00450267
0.00293078
0.00273276
0.0027942
0.00314641
0.00386668
0.0048116
0.00545257
0.00695214
0.026236
0.0240986
0.0181971
0.0108511
0.00499831
0.00244092
0.00154465
0.00105738
0.000433119
0.000169988
7.65154e-05
4.10874e-05
4.98375e-05
9.75525e-05
0.000111847
9.2468e-05
7.34623e-05
0.000131982
0.00107767
0.00697608
0.00882053
0.00344482
0.00279237
0.00282724
0.00319582
0.00394285
0.0051292
0.00619951
0.00685871
0.00904351
0.0258458
0.0236502
0.0178964
0.0108002
0.0049275
0.0022924
0.00140857
0.000886163
0.000357857
0.000141679
6.7314e-05
3.78944e-05
4.63757e-05
9.75278e-05
7.89718e-05
8.14889e-05
8.24686e-05
0.000388469
0.00185325
0.0100221
0.00630928
0.00327162
0.00302093
0.00331416
0.00393735
0.0049031
0.00593183
0.00662512
0.00748385
0.0114082
0.0252354
0.0230161
0.0174744
0.0105722
0.00468551
0.0020942
0.00128401
0.000753852
0.000304528
0.00012641
6.38192e-05
3.70533e-05
4.53627e-05
0.000137261
8.17782e-05
9.10918e-05
0.000173091
0.00117999
0.00268656
0.0114804
0.00513871
0.00337319
0.00329653
0.00377641
0.00448284
0.00530274
0.00607466
0.00631597
0.0076133
0.0142736
0.0244623
0.0223176
0.0170357
0.0100782
0.00421472
0.00186621
0.00116281
0.000660537
0.000284599
0.000122298
6.349e-05
3.94828e-05
4.73435e-05
0.000224305
0.000118728
0.000145084
0.000600582
0.000992276
0.00301173
0.00938504
0.00470442
0.00350065
0.00339929
0.00390362
0.00457798
0.00513034
0.00515552
0.0047647
0.00757872
0.0172115
0.023684
0.0217598
0.0165688
0.00903636
0.00351034
0.00163019
0.00106725
0.000616815
0.000279639
0.000122879
6.84326e-05
4.65481e-05
5.54871e-05
0.000384851
0.000199107
0.000292159
0.000961832
0.000853713
0.00359837
0.00607145
0.00462808
0.00354791
0.00322863
0.00342708
0.00363801
0.00356204
0.00331782
0.00415471
0.00825735
0.020063
0.0231714
0.0214355
0.0156694
0.00714824
0.00267675
0.00140349
0.000991571
0.000602292
0.000284584
0.000131798
8.01059e-05
5.94321e-05
5.65714e-05
0.000373046
0.000356864
0.00067839
0.000603543
0.00102103
0.00358404
0.00425835
0.00469809
0.00365213
0.00289636
0.00258788
0.00248144
0.00244548
0.00263688
0.00421349
0.0102887
0.023532
0.0231553
0.0210922
0.0134094
0.00470318
0.00190855
0.0012148
0.000937204
0.000600212
0.000308485
0.000152258
9.89117e-05
7.69879e-05
6.60957e-05
0.000112799
0.000318807
0.000418366
0.000544414
0.00130759
0.00201576
0.00318429
0.00440959
0.00405329
0.00302695
0.00246956
0.00225761
0.00221174
0.00247658
0.00433086
0.0113713
0.0262479
0.0235417
0.0196679
0.00896552
0.00258976
0.001374
0.00108123
0.000907613
0.000613438
0.00035141
0.000188514
0.000125947
9.57723e-05
8.06241e-05
8.08628e-05
0.000147879
0.000259634
0.000694549
0.00140592
0.00156465
0.0022046
0.00355163
0.00409719
0.00354229
0.00277832
0.0023406
0.00221629
0.00245172
0.00427049
0.0115246
0.0270583
0.0233421
0.0152398
0.00421038
0.00158197
0.00111855
0.00100352
0.000882902
0.000646105
0.000405763
0.000235374
0.000157239
0.000116599
9.51783e-05
8.94378e-05
0.000113384
0.000324571
0.000879007
0.0012236
0.00136203
0.00177601
0.00264232
0.00353824
0.00364961
0.00315658
0.00270919
0.00240485
0.00249486
0.00405775
0.0111249
0.0268695
0.0198665
0.00793381
0.00215981
0.00115916
0.000989346
0.000945101
0.000856479
0.000680986
0.000460018
0.00030075
0.000189891
0.000135532
0.000107522
9.80488e-05
0.000120529
0.000380428
0.000984099
0.00111943
0.00125619
0.00153406
0.00194509
0.00268804
0.00332087
0.00321093
0.00289715
0.00264237
0.00258404
0.00375027
0.0101893
0.0256285
0.0128574
0.00344601
0.00138498
0.00096943
0.000905131
0.000881023
0.000824229
0.000694176
0.000513147
0.000361593
0.000217791
0.000143708
0.000111703
0.000103577
0.000128991
0.00042565
0.0010299
0.00109135
0.00117373
0.00136906
0.00164911
0.0020546
0.00264158
0.00301728
0.0029204
0.00274066
0.00266327
0.00350051
0.00909717
0.023739
0.00616858
0.00194247
0.00107663
0.000877086
0.00083582
0.000814824
0.000776353
0.000688876
0.000549347
0.000391343
0.000234859
0.000145155
0.000111874
0.000105509
0.000140142
0.000493309
0.00105339
0.00103903
0.00109107
0.00128009
0.00148553
0.00169367
0.00208937
0.0025668
0.00279686
0.00275799
0.0027216
0.00340285
0.00816403
0.0215591
0.00358978
0.00138469
0.000937314
0.00082242
0.000786489
0.000762025
0.000725397
0.000665252
0.000559028
0.000400988
0.000236278
0.000142128
0.000109056
0.000105788
0.000155034
0.000594062
0.0010626
0.000937309
0.000988556
0.00116187
0.00132798
0.00149901
0.00174938
0.00212128
0.00248657
0.0026604
0.00272673
0.00337914
0.00750929
0.0192937
0.00285276
0.00116474
0.000877266
0.000795998
0.000761957
0.0007383
0.000701416
0.000646005
0.000558911
0.000399305
0.000229057
0.000134763
0.000102089
0.000101313
0.00017979
0.000744934
0.00103721
0.000817456
0.000894709
0.00100692
0.00113663
0.00128361
0.00148436
0.00176004
0.002112
0.00240949
0.0026459
0.00340187
0.00716203
0.0171573
0.00271329
0.00107981
0.000851691
0.000782736
0.000742755
0.000721691
0.000688924
0.000632219
0.000548136
0.000380236
0.000212157
0.000124414
9.24943e-05
9.20006e-05
0.000229157
0.000915151
0.000971277
0.00074161
0.0008125
0.000875708
0.00095785
0.00107569
0.00127234
0.00151981
0.00185398
0.00220647
0.00256992
0.00347764
0.00701015
0.0153945
0.00283614
0.00104903
0.000815234
0.000746942
0.000694956
0.000670986
0.000647123
0.000594693
0.000505532
0.000339916
0.000189266
0.000112783
8.36712e-05
8.39084e-05
0.000298744
0.00100519
0.00086415
0.000693904
0.000735008
0.000784437
0.000843865
0.00095857
0.00114677
0.00141174
0.00176055
0.00215537
0.00256427
0.00352911
0.00688461
0.0138709
0.0032989
0.00103632
0.000753968
0.000683043
0.000623767
0.000596285
0.000576238
0.000532486
0.000438977
0.000292563
0.000162408
0.000101803
7.65551e-05
7.91603e-05
0.000359272
0.00103603
0.000811721
0.000671671
0.000685032
0.00071751
0.000762951
0.000876571
0.00106842
0.00134889
0.00172594
0.00215929
0.00260201
0.00352368
0.00655974
0.0123456
0.00394647
0.00101401
0.000709151
0.000622533
0.000559506
0.000536363
0.000515404
0.000473264
0.000380952
0.00025097
0.000138744
9.47628e-05
7.12327e-05
7.75256e-05
0.000408067
0.00103414
0.000779124
0.000663725
0.000653042
0.000650452
0.00067902
0.000782531
0.000966014
0.00125358
0.00169243
0.0021978
0.00271926
0.00350078
0.00601509
0.0106936
0.00436258
0.000982617
0.000676633
0.000570606
0.000503749
0.000485613
0.000467621
0.000429793
0.000342273
0.000221226
0.000129379
8.98283e-05
6.758e-05
8.11274e-05
0.000509819
0.00102386
0.000765422
0.000667977
0.000642156