/*--------------------------------*- C++ -*----------------------------------*\
| =========                 |                                                 |
| \\      /  F ield         | OpenFOAM: The Open Source CFD Toolbox           |
|  \\    /   O peration     | Version:  2.4.0                                 |
|   \\  /    A nd           | Web:      www.OpenFOAM.org                      |
|    \\/     M anipulation  |                                                 |
\*---------------------------------------------------------------------------*/
FoamFile
{
    version     2.0;
    format      ascii;
    class       volScalarField;
    location    "1.15";
    object      alpha.water;
}
// * * * * * * * * * * * * * * * * * * * * * * * * * * * * * * * * * * * * * //

dimensions      [0 0 0 0 0 0 0];

internalField   nonuniform List<scalar> 
3072
(
4.96171e-15
1.12713e-13
1.3629e-12
1.13606e-11
1.31115e-11
3.41863e-11
6.5253e-11
0.00621485
0.0679144
0.0780081
0.0742037
0.00375331
7.20038e-14
8.04503e-13
4.61019e-12
4.74175e-11
7.87679e-06
0.0136484
0.0413621
0.0306583
2.4263e-05
0.00156457
9.52369e-08
8.45109e-08
6.55522e-13
1.26282e-12
1.63019e-12
4.12219e-11
0.00332445
0.149269
0.200597
2.4263e-05
3.02884e-05
0.00014115
0.000138647
2.52934e-06
8.67749e-11
1.51658e-08
6.57753e-08
7.90542e-11
0.022152
0.257692
0.313627
0.00632888
6.34277e-11
7.39644e-05
7.66384e-05
1.79174e-10
1.17773e-10
7.12891e-08
5.88687e-07
1.15122e-10
0.0416904
0.29732
0.316653
0.0342753
6.24634e-11
1.19835e-06
1.16758e-06
2.4929e-06
8.2615e-11
9.07038e-08
6.85443e-07
1.46444e-10
0.0138979
0.234086
0.317029
0.0122699
6.24595e-11
6.24678e-11
6.24712e-11
7.15093e-11
4.93641e-11
4.45999e-08
4.63178e-07
1.73837e-10
0.000927316
0.0635571
0.125721
0.000878961
0.00087306
0.0127751
0.0183438
0.0117005
1.84518e-11
6.13012e-10
6.23105e-09
2.25827e-09
3.46778e-10
0.0514217
0.116564
0.0554942
0.000878961
0.00767687
0.0183963
0.0151896
1.91081e-06
2.48641e-07
3.16063e-10
1.29106e-09
3.75776e-10
0.0245391
0.174751
0.175181
0.0044123
0.00192757
0.00229177
0.000911645
1.44473e-06
3.01793e-11
2.09149e-05
0.000106421
3.74567e-06
8.29916e-05
0.0593614
0.137439
0.104062
0.0243599
5.05779e-10
4.97949e-10
2.55471e-11
2.55413e-11
6.66561e-06
3.20161e-05
6.21943e-07
0.00649461
0.0372245
0.0692404
0.0681159
0.0253062
0.00117635
5.09856e-10
0.010774
0.00671999
0.000296102
6.21966e-07
6.6349e-07
0.104915
0.595671
0.828937
0.83713
0.777247
0.630313
0.392943
2.30627e-11
7.14805e-11
0.0013961
0.0823598
0.126661
0.113843
0.0206239
0.0316095
0.00843046
0.00353756
0.000642025
0.0011754
7.49966e-08
1.17531e-10
0.00575495
0.0694342
0.105572
0.0904505
0.0944332
0.151421
0.204032
0.194166
0.119169
0.110239
1.59554e-10
2.54192e-10
2.31155e-11
2.311e-11
2.32458e-11
2.35363e-11
3.56338e-11
0.00702263
0.187622
0.259261
0.258904
0.181513
1.87942e-10
1.37054e-09
5.90766e-11
9.89857e-07
4.76902e-05
6.33497e-05
4.60345e-05
9.89793e-11
0.00332233
0.0440743
0.0659785
0.0935963
6.89562e-06
1.56606e-09
7.05057e-08
1.2814e-10
8.99717e-11
7.30796e-11
7.14763e-11
7.19203e-11
5.371e-11
0.125376
0.170085
0.245414
0.000121264
1.46797e-06
1.2422e-06
8.18375e-06
6.40315e-06
1.06188e-10
1.10162e-10
8.81034e-11
5.37329e-11
0.124156
0.54388
0.871726
0.000101211
0.000105486
2.38591e-06
2.84017e-05
5.71074e-05
2.06771e-05
6.94001e-05
2.85404e-06
5.371e-11
0.384749
0.954239
1
0.0040306
0.000804156
1.99651e-06
1.4527e-05
5.76038e-05
0.000117423
0.000154267
6.45047e-05
5.37543e-11
0.463509
0.994403
1
0.000724612
0.000813477
0.000283871
2.69572e-07
5.20359e-10
6.47828e-05
0.000125217
0.000103739
5.37174e-11
0.393563
0.985374
1
0.00109138
0.00126479
0.000799147
4.49206e-06
6.63942e-10
5.35304e-10
6.64003e-10
1.20695e-05
5.37874e-11
0.180801
0.959136
1
5.17001e-10
5.05176e-10
5.14869e-10
5.06726e-10
0.0131121
0.0267125
0.00712946
1.03232e-10
7.65901e-11
7.08099e-11
0.794818
1
0.15645
0.0795475
0.084295
0.118284
0.394376
0.655316
0.566619
0.213058
0.0249492
8.34184e-11
0.488011
1
3.37434e-21
5.80778e-19
5.84062e-18
1.88307e-17
2.1976e-16
4.45603e-15
5.69399e-14
4.6115e-13
2.45273e-12
8.92243e-12
2.45729e-11
4.5256e-11
1.39469e-18
1.68177e-16
7.70706e-15
1.76158e-13
2.31542e-12
1.90487e-11
1.02117e-10
3.58746e-10
8.09961e-10
1.16153e-09
1.12656e-10
8.41811e-11
6.53868e-17
5.57539e-15
1.35224e-13
1.58059e-12
1.1026e-11
5.12084e-11
1.66462e-10
3.7869e-10
5.67178e-10
4.0786e-10
7.44278e-07
4.86864e-05
1.03731e-15
4.49085e-14
6.1954e-13
4.48271e-12
2.09109e-11
6.99398e-11
1.75662e-10
3.27422e-10
4.22686e-10
3.71302e-10
1.29517e-05
7.57218e-05
6.2974e-15
1.61324e-13
1.49124e-12
7.83077e-12
2.80268e-11
7.53236e-11
1.59955e-10
2.69286e-10
3.42827e-10
3.35825e-10
3.90154e-06
5.68314e-05
1.94637e-14
3.36847e-13
2.3644e-12
1.00408e-11
3.02937e-11
7.06703e-11
1.33749e-10
2.09668e-10
2.7175e-10
3.04984e-10
6.3076e-07
4.14023e-06
3.54164e-14
4.57096e-13
2.62854e-12
9.65627e-12
2.63425e-11
5.79462e-11
1.0843e-10
1.74724e-10
2.10122e-10
8.97209e-09
3.54807e-08
2.26426e-10
4.59102e-14
4.22716e-13
2.0162e-12
6.49652e-12
1.63329e-11
3.46858e-11
6.46137e-11
1.10979e-10
2.09197e-10
8.48811e-10
2.19541e-10
1.97393e-10
9.64289e-13
1.72129e-12
3.13419e-12
5.39385e-12
8.29478e-12
1.25459e-11
2.2738e-11
3.83625e-11
6.63004e-11
1.31118e-10
1.8761e-10
1.72141e-10
2.4711e-12
2.62275e-12
2.69177e-12
2.2719e-12
1.41897e-12
8.80937e-13
8.82918e-13
8.80907e-13
8.82917e-13
3.34295e-11
6.03093e-11
8.26896e-11
2.10522e-12
1.55106e-12
2.17249e-13
2.53835e-13
2.17249e-13
0.00170139
0.0300191
0.10398
0.231601
0.298077
0.1574
0.00984269
3.32626e-15
3.56083e-15
0.000347036
2.56782e-11
2.97603e-11
0.0018675
0.000717253
0.35947
0.828647
0.828643
0.828647
0.82865
4.52578e-11
5.26088e-11
1.65909e-07
1.22345e-06
1.63975e-06
3.93988e-10
1.46453e-08
1.21392e-08
1.19378e-08
1.17439e-08
6.12523e-11
4.98921e-13
6.64695e-06
3.67568e-05
3.64756e-05
1.48302e-05
2.76905e-10
3.31462e-10
4.25697e-07
3.40954e-06
3.92362e-06
1.04847e-10
5.73761e-11
9.02089e-12
7.57218e-05
5.14932e-05
1.36274e-10
2.66224e-10
3.27325e-10
3.41217e-10
2.8213e-10
1.25295e-05
2.51795e-05
8.72986e-06
9.38572e-11
4.99647e-11
7.5481e-05
2.71945e-05
1.32749e-10
4.53466e-10
5.66936e-10
3.98651e-10
2.21559e-10
2.06565e-10
2.60013e-05
5.83164e-05
3.41544e-05
4.9244e-06
6.61405e-05
1.4237e-10
1.71617e-10
7.28314e-10
8.50401e-10
3.39196e-10
1.79505e-10
1.58327e-10
1.0598e-05
0.000137325
0.000148952
8.36528e-05
6.74831e-06
1.32779e-10
1.37897e-10
2.49373e-10
2.45068e-10
2.03026e-10
1.37583e-10
1.22128e-10
1.64859e-05
0.000145763
0.000148512
9.19944e-05
2.01611e-10
1.70204e-10
1.31123e-10
1.10053e-10
8.29954e-11
6.74878e-11
5.87546e-11
8.89434e-11
1.11723e-10
2.53897e-05
0.000139793
5.77871e-06
1.94e-10
1.64144e-10
1.31511e-10
1.0074e-10
7.5572e-11
7.81615e-11
4.64702e-11
7.07567e-11
7.15344e-11
7.55014e-11
2.84301e-06
5.25941e-05
1.7155e-10
1.59675e-10
1.40026e-10
1.19078e-10
9.99427e-11
8.03591e-11
6.13205e-11
5.92359e-11
3.47458e-10
8.69652e-09
6.26208e-09
0.000163781
9.8229e-11
1.07938e-10
1.09146e-10
1.01222e-10
1.22535e-10
1.02604e-10
8.01717e-11
6.20102e-11
5.0882e-11
2.0991e-08
7.00585e-10
0.000156293
3.957e-05
5.01862e-11
2.8138e-11
2.11893e-11
0.00126033
0.00126032
1.03191e-10
7.52322e-11
5.09251e-11
1.4224e-08
7.11937e-10
2.83377e-05
0.419166
0.0139603
4.22244e-11
0.00514063
0.28349
0.475581
0.262949
0.010232
7.5784e-11
7.63424e-11
3.82033e-08
2.97102e-06
7.83573e-23
2.07787e-20
3.07587e-19
8.9176e-19
5.72049e-19
1.69143e-18
7.27445e-17
1.44323e-15
1.18685e-14
4.08199e-14
8.47356e-14
1.37573e-13
6.99939e-21
3.88205e-19
4.23677e-18
2.4503e-17
3.39902e-16
4.38547e-15
2.80352e-14
8.82635e-14
1.76663e-13
2.83524e-13
3.98829e-13
5.15576e-13
8.0697e-20
4.78977e-18
8.00918e-17
9.633e-16
7.72007e-15
3.55327e-14
9.82731e-14
1.98008e-13
3.23619e-13
4.62061e-13
6.02283e-13
7.36619e-13
2.75441e-18
9.89949e-17
1.15941e-15
7.19135e-15
2.78332e-14
7.54067e-14
1.57853e-13
2.72627e-13
4.08389e-13
5.51381e-13
6.89294e-13
8.12957e-13
4.18987e-17
7.66778e-16
4.88898e-15
1.82102e-14
4.88765e-14
1.04823e-13
1.90229e-13
3.0239e-13
4.31711e-13
5.64585e-13
6.86895e-13
7.86951e-13
2.10842e-16
2.25968e-15
9.89834e-15
2.80825e-14
6.18706e-14
1.15688e-13
1.92361e-13
2.912e-13
4.05908e-13
5.24192e-13
6.30011e-13
7.07574e-13
5.03101e-16
3.77413e-15
1.31308e-14
3.14692e-14
6.11511e-14
1.04715e-13
1.65208e-13
2.44841e-13
3.41859e-13
4.47347e-13
5.44959e-13
6.14647e-13
6.87667e-16
4.08261e-15
1.20079e-14
2.49458e-14
4.30109e-14
6.83996e-14
1.10613e-13
1.6747e-13
2.46462e-13
3.46512e-13
4.41089e-13
5.11598e-13
5.66823e-14
6.48236e-13
3.62655e-12
1.0159e-11
3.28909e-14
3.29041e-14
3.2883e-14
9.61504e-13
3.26445e-12
7.45398e-13
3.92302e-13
3.96061e-13
1.18655e-13
5.51453e-13
1.65602e-12
1.61273e-12
7.77389e-07
1.40992e-05
2.40565e-05
1.41131e-06
2.66885e-11
7.21903e-13
1.30184e-12
4.22017e-13
5.10423e-17
6.12515e-17
1.29063e-16
8.63014e-07
7.84135e-07
3.71737e-05
0.000534551
0.000745631
0.000431661
2.58719e-05
5.87554e-12
3.85636e-13
4.43697e-05
1.2304e-05
1.49028e-05
6.69958e-05
0.000158014
0.000158977
0.000150962
0.000763909
0.00292259
0.00293676
0.00153022
3.8088e-05
1.95046e-13
2.55456e-13
3.19093e-13
3.87852e-13
4.65037e-13
5.46637e-13
5.95522e-13
6.0912e-13
5.75584e-13
4.697e-13
2.5516e-13
6.40817e-15
6.29456e-13
7.37666e-13
8.37957e-13
9.28313e-13
1.00771e-12
1.06951e-12
1.11789e-12
1.15006e-12
1.14986e-12
1.07315e-12
8.15193e-13
1.43748e-13
8.60045e-13
9.69188e-13
1.06179e-12
1.13673e-12
1.19416e-12
1.24576e-12
1.30985e-12
1.38931e-12
1.47208e-12
1.51131e-12
1.37037e-12
5.90449e-13
9.16542e-13
9.9756e-13
1.0571e-12
1.09999e-12
1.13411e-12
1.17669e-12
1.25943e-12
1.39313e-12
1.57465e-12
1.76097e-12
1.80246e-12
1.21628e-12
8.57525e-13
8.97432e-13
9.12657e-13
9.16203e-13
9.25667e-13
9.55704e-13
1.05386e-12
1.24318e-12
1.53712e-12
1.89703e-12
2.12701e-12
1.76766e-12
7.45545e-13
7.40952e-13
7.0262e-13
6.53061e-13
6.26307e-13
6.47961e-13
7.51918e-13
9.93501e-13
1.4203e-12
2.012e-12
2.45251e-12
2.15311e-12
6.38427e-13
6.06108e-13
5.20973e-13
4.07364e-13
3.17794e-13
3.24865e-13
4.18558e-13
7.15943e-13
1.2887e-12
2.19934e-12
2.92903e-12
2.43853e-12
5.43448e-13
5.22865e-13
4.45315e-13
3.14944e-13
1.36201e-13
9.02703e-14
1.58736e-13
7.26666e-13
1.41675e-12
2.64899e-12
3.73165e-12
2.76129e-12
4.3261e-13
4.37206e-13
3.9462e-13
3.0679e-13
1.97015e-13
1.17166e-13
9.46977e-14
2.7555e-12
3.98637e-12
4.291e-12
5.17817e-12
3.32897e-12
2.91744e-13
3.17283e-13
3.22642e-13
2.87829e-13
2.31263e-13
1.80688e-13
2.14383e-13
1.5333e-11
3.66703e-11
1.19144e-11
8.53129e-12
4.5378e-12
2.63031e-10
5.93853e-13
3.74279e-13
2.62283e-13
2.61113e-13
2.29286e-13
9.91767e-13
6.72888e-11
4.02154e-10
3.63579e-11
2.93122e-11
7.55747e-12
2.91821e-10
2.57061e-07
3.02014e-07
4.29498e-08
1.05767e-11
9.03852e-13
2.55653e-11
4.39475e-11
4.58761e-09
3.69999e-08
2.54683e-08
8.24809e-11
1
1
1
1
1
1
1
0.999963
0.999969
0.999997
0.999998
0.999998
1
1
1
1
1
0.999473
0.997978
0.998587
1
0.999607
0.978262
0.923788
1
1
1
1
0.998092
0.995666
0.995801
0.999908
1
0.975246
0.693945
0.636479
1
1
1
0.999972
0.999839
1
1
0.999875
1
0.955669
0.715222
0.636479
1
1
1
0.999998
0.999999
0.8862
0.649774
0.56314
0.61721
0.726327
0.79654
0.847559
1
1
1
1
0.813978
0.182794
0.0206401
7.53489e-11
7.48876e-11
0.010862
0.0913342
0.21835
1
1
1
1
0.521012
0.00304081
1.21177e-10
9.24134e-11
7.2188e-11
5.69989e-11
5.7022e-11
5.69989e-11
1
1
1
1
0.696077
0.0505688
1.50801e-10
1.33157e-10
1.12487e-10
9.20926e-11
7.44496e-11
5.96762e-11
1
1
1
1
0.984478
0.334097
1.82755e-10
1.5021e-10
1.34835e-10
1.10703e-10
9.74471e-11
8.05787e-11
1
1
1
1
1
0.900051
0.275566
1.8403e-10
0.000112525
1.38445e-10
1.27275e-10
1.00931e-10
1
1
1
1
1
1
0.931947
0.858187
0.40463
0.205062
0.271568
0.107857
0.195336
0.175113
0.216574
0.377015
0.460875
0.853806
0.912448
0.830678
0.852865
0.935992
0.94136
0.92822
0.999998
0.999998
0.99998
0.999643
0.999669
0.999522
0.999545
0.999906
1
1
1
0.999999
0.905039
0.925794
0.974166
0.998035
1
0.999999
0.998892
0.998026
1
1
1
0.999992
0.636479
0.638345
0.917886
1
1
1
0.997896
0.964334
0.954751
0.985238
0.98958
0.999999
0.639332
0.743555
0.984396
1
1
1
1
0.953721
0.830607
0.826185
0.821903
0.89727
0.896872
0.901285
0.985468
1
1
1
0.999999
0.999999
0.970695
0.841319
0.757232
0.757232
0.496631
0.70647
0.919879
1
1
1
0.999996
0.999995
0.999997
0.999997
0.930983
0.764763
5.88474e-11
0.0507737
0.299345
0.694217
0.966615
1
1
0.999996
0.999997
0.996178
0.996159
0.976935
5.29903e-11
5.25287e-11
5.79298e-11
0.0315736
0.369329
0.843414
0.996267
0.999997
0.999997
0.994201
0.987636
0.9993
6.62715e-11
5.71543e-11
5.19323e-11
5.15773e-11
6.13847e-11
0.0998038
0.492537
0.949717
0.999997
0.99933
0.988489
0.986911
7.54449e-11
8.08146e-11
7.56664e-11
7.51649e-11
8.50466e-11
8.83755e-11
8.83895e-11
0.25779
0.658918
0.99929
0.996715
0.968652
0.00014343
0.00501976
0.00967843
0.00497328
0.00225695
0.00340135
0.00146564
1.47813e-10
1.32711e-10
0.519188
0.969632
0.975018
0.649932
0.117721
0.145415
0.378161
0.378799
0.43814
0.458002
0.0469757
0.0155068
0.0175278
0.11704
0.8067
0.146269
0.0323114
0.000215193
9.93599e-07
0.254327
0.804608
0.91661
0.991159
1
1
1
1
0.76768
0.132492
0.0149394
0.0195397
0.053442
0.0587456
0.0572783
0.460938
0.996258
0.999994
0.999997
1
0.919663
0.723578
0.260575
0.232314
0.283399
0.398521
0.589801
0.794721
0.990583
0.999992
0.990497
0.98601
0.685562
0.744229
0.884576
0.960731
0.984287
0.996491
1
1
1
0.998854
0.984018
0.969465
0.996373
0.767707
0.644464
0.791658
0.977934
0.995835
0.995922
0.995847
0.764862
0.105347
0.0758033
0.808972
1
1
0.765623
0.637497
0.662877
0.954957
0.995953
0.992858
0.99659
0.990754
0.304815
0.25667
0.99638
1
0.872115
0.638161
0.701872
0.968566
1
0.99664
0.996735
1
0.950224
0.834961
0.982942
0.976623
0.970626
0.972066
0.985905
0.998822
1
1
1
1
1
1
0.563523
0.39215
0.182561
0.0856912
0.25565
0.401848
0.30663
0.228119
0.412802
0.813451
0.828643
0.828647
0.259989
0.320425
0.346935
0.391553
0.69445
0.747117
0.748831
0.533413
0.0194738
0.045861
0.639675
0.828669
0.710545
0.435181
0.346719
0.538737
0.747117
0.748831
0.685743
0.468203
0.0396962
1.31612e-07
0.0036178
0.523658
0.938078
0.784811
0.642623
0.625054
0.557931
0.383052
0.0488848
1.54924e-08
1.60516e-08
1.02058e-07
7.15532e-11
0.0809807
0.828669
0.622053
0.0448098
0.189015
0.850922
0.996873
0.996873
0.385588
1.04417e-10
1.61622e-08
6.99013e-08
1.95686e-10
0.828665
0.769052
0.296656
0.553772
0.99264
0.996873
0.996873
0.785537
0.0653747
5.58489e-11
2.61033e-08
1.11444e-07
0.828669
0.82863
0.561025
0.44215
0.773585
0.996873
0.996873
0.907026
0.170059
3.8388e-11
2.0269e-11
2.81976e-08
0.213349
0.174485
0.12618
0.0529284
0.115267
0.452724
0.505258
0.440776
0.276254
0.00495706
2.50992e-11
8.21838e-12
2.4405e-11
2.48674e-11
2.36583e-11
2.39278e-11
5.43584e-05
0.00121386
0.00150902
0.000473285
0.000154248
0.00057072
0.00533542
0.00541785
1.13776e-07
6.50015e-08
2.68845e-10
4.66814e-11
4.22389e-11
4.34786e-11
0.00121765
0.00199087
0.00204517
0.000863688
0.000749315
0.000105212
1.077e-07
5.06063e-08
7.27983e-11
6.63433e-11
2.93349e-07
3.54391e-07
5.40474e-08
0.000240884
0.00165871
0.0014595
0.000184713
6.6699e-11
7.46242e-12
7.79638e-07
5.7508e-06
1.12354e-05
1.99208e-05
1.57821e-05
1.5119e-06
2.99692e-09
0.000102681
0.000117706
5.03861e-11
4.19172e-11
0.00191778
1.4864e-07
1.4e-07
3.01049e-07
6.99708e-07
4.20464e-09
1.05465e-07
5.1225e-07
3.67569e-08
1.98171e-07
9.15643e-07
1.01067e-10
0.00243638
0.00568111
0.0034583
9.25946e-05
7.29171e-07
2.38678e-05
3.12702e-05
3.12913e-05
3.2668e-06
9.35423e-11
4.86858e-11
1.93776e-05
4.48956e-11
0.00945471
0.0131481
0.00889674
0.000357368
5.37515e-11
1.54755e-05
2.14456e-05
4.96752e-06
6.86334e-11
6.22732e-10
1.04012e-11
4.17971e-11
0.00497871
0.0129918
0.0131481
0.00580585
3.56192e-11
1.40912e-11
1.3675e-11
5.48491e-07
7.07959e-07
8.44607e-08
2.87684e-11
3.11944e-12
3.11739e-12
3.1137e-12
3.4699e-11
5.4571e-11
0.114686
0.149983
0.0674975
0.0821917
0.63574
0.941422
0.926301
4.32463e-05
3.37404e-05
9.45867e-06
2.66971e-08
5.34196e-11
7.35051e-11
6.32408e-11
3.99406e-11
4.00936e-11
0.0294697
0.230675
0.221429
7.29819e-05
0.000111416
0.000111952
5.64627e-05
7.63245e-11
5.85325e-11
5.01025e-11
4.42453e-11
4.08111e-11
3.99762e-11
4.3378e-11
4.29435e-11
1.02862e-11
1.81157e-05
0.000110473
7.15417e-05
6.83055e-07
5.03932e-11
4.10846e-11
2.02526e-11
2.02526e-11
2.02526e-11
2.02526e-11
2.02526e-11
0.595678
0.0411132
9.17402e-11
0.0213513
0.722677
0.948863
0.948863
0.944724
0.694807
0.0923857
0.0650317
0.170226
0.0757614
0.00229199
8.39088e-11
5.87593e-11
0.329937
0.920246
0.939054
0.939709
0.939567
0.872135
0.903715
0.919663
2.02526e-11
3.86241e-11
5.88976e-11
6.67614e-11
0.0531937
0.325113
0.460384
0.476162
0.460842
0.459175
0.621022
0.920714
2.02526e-11
0.0269817
0.0590211
0.0854303
0.145985
0.276189
0.42365
0.459847
0.517997
0.712227
0.784934
0.691987
0.805119
0.888957
0.924178
0.950556
0.963519
0.984268
0.993806
0.99586
0.98921
0.89977
0.754682
0.674805
0.0451243
0.170558
0.258139
0.335428
0.403139
0.472497
0.514409
0.504855
0.30717
0.170039
0.0735057
0.0284374
5.51864e-12
5.55801e-12
2.54991e-11
2.81959e-11
2.069e-11
3.83931e-11
0.00287346
0.0111211
7.01272e-11
8.03595e-11
8.30127e-11
8.17349e-11
5.53401e-12
3.47746e-05
5.92782e-12
7.21614e-12
2.07058e-11
2.16764e-11
3.59229e-11
4.18713e-11
5.34915e-11
6.23838e-11
6.6778e-11
7.32879e-11
0.658592
0.73202
0.821713
0.904809
0.957533
0.985946
0.987632
0.88076
0.709237
0.515074
0.233168
0.0921679
0.0183487
0.0440156
0.0919955
0.175213
0.261057
0.329282
0.357558
0.240193
0.0743183
0.0128793
0.00895018
0.00863173
6.56616e-11
6.57782e-11
6.56617e-11
8.3967e-11
1.20128e-10
1.40752e-10
1.6147e-10
1.80738e-10
0.00666043
0.0202602
0.0202285
0.00292074
8.52081e-11
1.91918e-09
9.84192e-08
1.4526e-07
1.09615e-07
1.29608e-08
1.79711e-10
0.000534417
0.0029111
0.00483977
0.00010117
4.10028e-09
4.79117e-11
4.79502e-11
4.83263e-11
4.87691e-11
4.88128e-11
4.87497e-11
4.87969e-11
1.7459e-08
1.7185e-08
1.96853e-09
6.8951e-11
8.02915e-11
6.71171e-11
0.000463139
0.00270298
0.00267592
0.000510836
4.87969e-11
9.51158e-10
5.05118e-09
9.95942e-11
1.21531e-10
5.01308e-07
1.55295e-06
7.3155e-11
0.0009598
0.00427489
0.00421942
0.00326592
5.21484e-11
2.90454e-08
8.47311e-08
8.04189e-08
4.51181e-08
8.90285e-08
1.69386e-07
6.92006e-05
0.000512053
0.000604301
0.00164121
0.00177616
0.000639187
4.47052e-08
3.1182e-08
8.69736e-08
8.69618e-08
1.83988e-08
1.32511e-11
4.13652e-11
2.03561e-11
2.03442e-11
3.36773e-11
3.70508e-11
0.00342607
1.5313e-14
1.56334e-14
1.5313e-14
2.95469e-14
6.34276e-11
4.35315e-11
1.56017e-06
3.46084e-07
1.10621e-13
1.58762e-11
1.64862e-11
2.26266e-11
2.39526e-11
4.38695e-11
7.1494e-11
1.01329e-10
1.29939e-10
1.44709e-09
4.78014e-08
6.52253e-08
1.13131e-13
1.90483e-12
2.89273e-12
6.67635e-12
1.60385e-11
3.61787e-11
7.45983e-11
1.43961e-10
1.41354e-10
7.20826e-08
7.66429e-16
1.02839e-15
1.09492e-13
3.40808e-13
1.11408e-12
3.73889e-12
1.19023e-11
3.23994e-11
6.7718e-11
1.77752e-10
1.43054e-08
3.18885e-08
2.81211e-11
1.79516e-05
5.55228e-05
5.49662e-05
2.07485e-05
6.1043e-10
8.55232e-07
2.63123e-09
0.00023614
0.00231628
0.00260439
0.00257885
4.84201e-11
8.05098e-06
3.62653e-05
3.54554e-05
6.07252e-10
4.32994e-09
6.14487e-10
9.00951e-10
0.000687488
0.00167781
0.00165516
0.000586746
1.57944e-06
1.45265e-06
1.44864e-11
1.45102e-11
1.01865e-07
4.32701e-07
9.01872e-10
5.20505e-05
0.000109608
5.64308e-05
1.15716e-05
5.23041e-11
1.20696e-11
1.19598e-11
2.98077e-11
3.21473e-11
4.4657e-09
1.64554e-07
1.67008e-06
4.09483e-06
9.58736e-10
8.94764e-10
9.5862e-10
9.24741e-10
0.00208179
0.00249319
0.00178066
0.000459561
9.19636e-06
1.37455e-11
1.45009e-11
1.41814e-11
1.29646e-11
1.27961e-11
1.21387e-11
1.12589e-11
8.68833e-05
4.59582e-11
2.57527e-11
3.32085e-11
2.44061e-11
3.23386e-11
3.60126e-11
3.6171e-11
3.32043e-11
2.93763e-11
2.65786e-11
2.4797e-11
3.32115e-11
2.70397e-08
8.46953e-12
1.70139e-11
2.45518e-11
3.23225e-11
3.79269e-11
3.96012e-11
3.74898e-11
3.3896e-11
3.1076e-11
2.85154e-11
4.33513e-13
1.3541e-12
7.21538e-12
1.33423e-11
2.18972e-11
3.12491e-11
3.88929e-11
4.27392e-11
4.20119e-11
3.84003e-11
3.5311e-11
2.86668e-11
1.05391e-11
1.03989e-11
1.43106e-11
7.82638e-07
8.25648e-10
2.78834e-11
2.93827e-11
0.00494552
0.200285
0.403
0.666957
0.892352
2.34548e-11
2.29505e-11
3.07157e-11
3.07361e-11
4.90649e-11
0.152097
0.49618
0.764822
0.919711
0.983975
1
1
2.51744e-11
2.25201e-11
4.36885e-11
0.20456
0.658538
0.909863
0.999917
1
1
1
1
1
6.01868e-06
0.142537
0.603232
0.913954
1
1
1
1
1
1
1
1
0.999977
1
1
1
1
1
1
1
1
1
0.994078
0.849139
1
1
1
1
1
1
1
0.999999
1
1
0.812027
0.154756
1
1
1
1
1
1
1
1
1
1
0.644884
0.00951929
1
1
1
1
1
1
1
1
1
1
0.701066
0.0596108
5.48642e-12
0.000458029
0.000323355
5.69505e-12
2.0269e-11
1.99295e-11
2.23678e-11
2.68392e-11
3.16678e-11
3.45731e-11
3.21517e-11
2.22179e-11
5.14613e-12
0.000163242
9.77599e-05
5.78802e-12
1.33597e-11
1.26858e-11
1.2612e-11
1.41599e-11
1.52983e-11
1.3779e-11
6.46973e-12
3.98773e-13
5.07578e-12
2.24818e-11
2.1741e-11
4.38936e-10
1.1263e-11
1.05625e-11
8.40684e-12
7.461e-12
6.84706e-12
4.89547e-12
1.32772e-12
1.1292e-13
5.07008e-12
1.11642e-11
4.9918e-12
4.98212e-12
4.98959e-12
1.03223e-11
8.88116e-12
6.24136e-12
4.28454e-12
2.35897e-12
6.70208e-13
1.07033e-13
5.07578e-12
2.10182e-11
2.0629e-07
3.00297e-06
1.12171e-06
1.01713e-11
1.01607e-11
6.86054e-12
4.00665e-12
1.82179e-12
5.35407e-13
8.17981e-14
0.0245977
4.84868e-12
3.17066e-06
7.88605e-06
7.88349e-06
1.01816e-11
1.10104e-11
6.72835e-12
3.53195e-12
1.41028e-12
3.71672e-13
4.73904e-14
0.22259
4.84868e-12
2.21267e-06
7.88511e-06
2.8346e-06
1.31265e-08
1.92449e-11
7.38298e-12
2.71595e-12
9.12589e-13
2.03091e-13
2.05269e-14
0.4764
4.84867e-12
8.39656e-08
1.44158e-06
1.519e-08
4.14143e-11
1.02434e-11
4.53024e-12
1.702e-12
4.69026e-13
8.30116e-14
6.4197e-15
0.7584
0.0619813
4.28631e-12
1.69874e-11
2.40749e-11
1.28606e-11
7.17398e-12
2.99057e-12
8.72869e-13
1.77438e-13
2.30577e-14
1.33827e-15
0.908717
0.25369
4.28581e-12
9.06531e-12
1.50296e-11
1.04032e-11
4.80354e-12
1.47455e-12
2.97364e-13
4.0132e-14
3.58727e-15
1.56492e-16
0.981563
0.436767
4.28581e-12
4.81194e-12
1.12893e-11
5.92843e-12
1.89195e-12
3.5671e-13
4.12736e-14
3.18651e-15
1.83898e-16
6.39283e-18
0.999998
0.62167
0.011329
4.2858e-12
4.71185e-12
9.72994e-13
1.03568e-13
6.11476e-15
2.21604e-16
7.68211e-18
7.33931e-19
3.92874e-20
1.35916e-10
6.9322e-10
7.46419e-09
2.01276e-08
8.68437e-11
2.71697e-07
6.38104e-05
0.000151175
4.73292e-11
4.49541e-11
3.65438e-11
3.98854e-09
6.05032e-12
2.21632e-11
3.53071e-11
5.31002e-11
6.97288e-11
3.4098e-06
1.80999e-05
6.03557e-06
2.78831e-11
2.80754e-11
3.65787e-11
4.41904e-11
3.18235e-12
2.28736e-11
7.60469e-11
6.87555e-11
3.53549e-08
4.05529e-07
5.43934e-11
3.80571e-11
3.75713e-11
5.40719e-11
1.47601e-10
3.6039e-10
4.04201e-14
8.66801e-13
1.28342e-11
1.45921e-10
2.53378e-09
2.70505e-11
4.75466e-11
2.43143e-11
2.692e-11
2.98549e-11
3.67204e-11
4.84949e-11
1.69166e-15
3.88805e-14
8.12079e-13
1.21082e-11
7.62033e-11
1.31121e-11
2.47787e-11
1.60589e-11
1.97345e-11
2.07747e-11
1.90165e-11
1.47323e-11
5.50312e-17
1.99626e-15
4.12949e-14
7.2759e-13
7.698e-12
3.71224e-12
8.13289e-12
8.39775e-12
1.1371e-11
1.28218e-11
1.23847e-11
1.04769e-11
1.37465e-18
8.37446e-17
1.87986e-15
3.74291e-14
4.41251e-13
7.0607e-13
1.85149e-12
2.82788e-12
4.27726e-12
5.26398e-12
5.53582e-12
5.07304e-12
2.37688e-20
2.53544e-18
7.41927e-17
1.84369e-15
2.37413e-14
9.08505e-14
2.94183e-13
5.96563e-13
1.00322e-12
1.32822e-12
1.46662e-12
1.35144e-12
3.11434e-22
5.47598e-20
2.10435e-18
7.26575e-17
1.16755e-15
7.60742e-15
3.05673e-14
7.62808e-14
1.409e-13
1.96128e-13
2.17441e-13
1.8609e-13
2.58461e-24
7.20077e-22
3.59855e-20
1.82038e-18
3.99074e-17
3.72143e-16
1.84179e-15
5.41049e-15
1.08242e-14
1.54271e-14
1.63346e-14
1.18092e-14
1.08299e-26
4.58974e-24
2.91866e-22
2.21831e-20
6.8443e-19
8.57391e-18
5.17491e-17
1.74534e-16
3.72691e-16
5.27671e-16
5.01292e-16
2.6564e-16
1.36328e-29
8.44346e-27
6.54422e-25
7.63845e-23
3.33265e-21
5.48743e-20
4.00385e-19
1.52693e-18
3.42509e-18
4.63834e-18
3.61219e-18
1.1094e-18
5.56856e-11
5.58207e-11
5.56889e-11
5.58447e-11
6.72992e-11
0.000232546
0.000250942
2.11755e-05
1.86934e-08
1.83355e-08
6.68649e-09
2.11461e-10
1.03614e-10
7.09545e-11
4.59026e-08
6.75438e-07
6.79453e-07
4.35398e-08
2.52022e-05
2.91241e-05
3.79066e-06
2.46626e-11
2.95685e-11
2.74963e-13
8.0396e-10
1.4996e-09
1.64598e-09
3.79452e-10
1.4647e-09
4.38199e-08
1.31558e-07
2.08371e-06
2.48368e-06
3.5662e-07
6.48957e-15
6.46496e-15
8.60663e-11
1.5192e-10
2.1037e-10
3.78334e-10
6.35949e-10
6.98887e-10
4.53182e-09
1.08487e-10
4.03977e-10
4.25311e-09
4.33667e-14
5.2502e-15
1.26252e-11
1.33368e-11
1.76883e-11
2.47602e-11
3.072e-11
3.53908e-11
1.22448e-12
1.08045e-10
2.60997e-11
4.25795e-13
1.16173e-14
2.64759e-16
7.47527e-12
4.41365e-12
2.30189e-12
1.53468e-12
1.32967e-12
9.11617e-13
1.45281e-13
6.45728e-13
5.77593e-13
3.87258e-14
1.42926e-15
2.51884e-17
4.01046e-12
2.42993e-12
9.31739e-13
2.78946e-13
7.42144e-14
2.65655e-14
3.44481e-15
2.90868e-16
4.16143e-17
4.99948e-18
4.05592e-19
1.68159e-20
1.13119e-12
7.61601e-13
3.03229e-13
7.86291e-14
1.42029e-14
1.89883e-15
1.9381e-16
1.57186e-17
1.11086e-18
7.70996e-20
5.67767e-21
2.71297e-22
1.52023e-13
1.07245e-13
4.64655e-14
1.2689e-14
2.31193e-15
2.92758e-16
2.66448e-17
1.80215e-18
9.33549e-20
3.83858e-21
1.55341e-22
5.77582e-24
8.67871e-15
5.96042e-15
2.58476e-15
7.02346e-16
1.25194e-16
1.51763e-17
1.28709e-18
7.8215e-20
3.44771e-21
1.09085e-22
2.84382e-24
7.75291e-26
1.59486e-16
9.88239e-17
3.73607e-17
8.60727e-18
1.27802e-18
1.27422e-19
8.78947e-21
4.28828e-22
1.49096e-23
3.65415e-25
9.65853e-27
3.67531e-28
4.49265e-19
2.16179e-19
4.83337e-20
5.9759e-21
4.59021e-22
2.33163e-23
8.13996e-25
2.00469e-26
3.64128e-28
1.34931e-29
6.17372e-30
3.70053e-31
1.09988e-15
5.52528e-15
2.26378e-14
9.29504e-14
4.156e-13
1.97222e-12
8.89467e-12
3.42554e-11
1.02126e-10
2.04457e-10
1.11298e-10
4.21069e-12
1.00829e-16
8.45531e-16
4.17086e-15
1.57464e-14
4.90594e-14
1.36966e-13
3.67096e-13
9.29494e-13
2.03519e-12
3.48954e-12
4.36477e-12
4.13617e-12
7.82714e-18
1.11107e-16
7.71523e-16
3.58663e-15
1.21304e-14
3.16141e-14
6.83606e-14
1.336e-13
2.52795e-13
4.72541e-13
8.44348e-13
1.36948e-12
3.86411e-19
9.09205e-18
9.15977e-17
5.65991e-16
2.39421e-15
7.34833e-15
1.72113e-14
3.25698e-14
5.29046e-14
7.79528e-14
1.09724e-13
1.53661e-13
1.07323e-20
3.79839e-19
5.66659e-18
4.83587e-17
2.75109e-16
1.08217e-15
3.14083e-15
7.07381e-15
1.27189e-14
1.89733e-14
2.42878e-14
2.7635e-14
3.30075e-22
1.26408e-20
2.00768e-19
2.38145e-18
1.81578e-17
9.21796e-17
3.3421e-16
9.33005e-16
2.09426e-15
3.73526e-15
5.31996e-15
6.14216e-15
8.19446e-24
3.42885e-22
5.4069e-21
8.26192e-20
8.98942e-19
5.99077e-18
2.56472e-17
7.95806e-17
2.01274e-16
4.49854e-16
7.93629e-16
1.04769e-15
1.72399e-25
7.67426e-24
1.15172e-22
2.19733e-21
3.35344e-20
2.89506e-19
1.44432e-18
4.86699e-18
1.29055e-17
3.05039e-17
7.06608e-17
1.1342e-16
2.78548e-27
1.30843e-25
1.90209e-24
4.53151e-23
9.30957e-22
1.01113e-20
5.80132e-20
2.09317e-19
5.63479e-19
1.32752e-18
3.59607e-18
7.05976e-18
3.04019e-29
1.49106e-27
2.09587e-26
6.16298e-25
1.65247e-23
2.20968e-22
1.44058e-21
5.49796e-21
1.47725e-20
3.4413e-20
9.82363e-20
2.25454e-19
1.79337e-31
9.04195e-30
1.20469e-28
4.28646e-27
1.47086e-25
2.38829e-24
1.75378e-23
7.01229e-23
1.84281e-22
4.0768e-22
1.09958e-21
2.78738e-21
3.28504e-34
1.68907e-32
2.08586e-31
8.86019e-30
3.84946e-28
7.51501e-27
6.16817e-26
2.56274e-25
6.45249e-25
1.25984e-24
2.52201e-24
6.34406e-24
1.51375e-11
1.04709e-10
2.03192e-10
1.41027e-10
4.36719e-11
6.8392e-09
5.29274e-08
1.51681e-10
1.13126e-09
2.51398e-09
3.37274e-09
1.00073e-09
4.54277e-12
6.58006e-12
8.25444e-12
1.01917e-11
1.39854e-11
2.11251e-11
2.84352e-11
1.48942e-10
5.25129e-10
1.02648e-09
1.00086e-09
6.90964e-11
1.94338e-12
2.41335e-12
2.75045e-12
3.22629e-12
4.34291e-12
6.93319e-12
1.26767e-11
3.52917e-11
1.0667e-10
1.79965e-10
8.66702e-11
2.88398e-14
2.15962e-13
2.98124e-13
3.97021e-13
5.34313e-13
8.14442e-13
1.52868e-12
2.79707e-12
5.72181e-12
1.33702e-11
1.67895e-11
2.45492e-12
1.53688e-16
2.93386e-14
3.11192e-14
3.5308e-14
4.61338e-14
7.87483e-14
1.96708e-13
4.24833e-13
7.73423e-13
1.28862e-12
1.06813e-12
3.3107e-14
5.10981e-16
5.80701e-15
4.61959e-15
3.28845e-15
2.52551e-15
3.41392e-15
1.2108e-14
3.79257e-14
7.57084e-14
1.00071e-13
5.17766e-14
8.0211e-16
1.79579e-17
1.01074e-15
6.93339e-16
3.24048e-16
1.21309e-16
5.42897e-17
2.52801e-16
1.71717e-15
4.3863e-15
5.30761e-15
1.6611e-15
2.72368e-17
3.87884e-19
1.16026e-16
7.16128e-17
1.92838e-17
3.17918e-18
2.1789e-19
1.04385e-18
3.46047e-17
1.32644e-16
1.59237e-16
2.91943e-17
5.22705e-19
5.5176e-21
7.25968e-18
3.96402e-18
5.15468e-19
2.82318e-20
5.8905e-22
1.9937e-21
2.66173e-19
1.91541e-18
2.38717e-18
2.34883e-19
4.65014e-21
4.20562e-23
2.04096e-19
9.03852e-20
8.97365e-21
3.09964e-22
4.89283e-24
2.90165e-25
6.62457e-22
1.1867e-20
1.58649e-20
8.11094e-22
1.71594e-23
1.45072e-25
1.94883e-21
6.3414e-22
6.36569e-23
2.4823e-24
4.01677e-26
3.04747e-28
4.30077e-25
2.62375e-23
3.7895e-23
1.13328e-24
2.12884e-26
1.62405e-28
2.66813e-24
5.27791e-25
3.34307e-26
8.79254e-28
1.0816e-29
6.99117e-32
4.8468e-29
1.26284e-26
1.81987e-26
2.85594e-28
3.39297e-30
1.74545e-32
4.28044e-13
1.57255e-12
4.30582e-12
9.75274e-12
1.82219e-11
2.84268e-11
3.81347e-11
4.52152e-11
4.80575e-11
4.75664e-11
5.13966e-11
0.00298949
9.94964e-14
6.11795e-13
2.27665e-12
6.31481e-12
1.35486e-11
2.34336e-11
3.4445e-11
4.51128e-11
5.39918e-11
5.916e-11
6.96417e-11
0.211546
2.08523e-14
1.99083e-13
9.97574e-13
3.40543e-12
8.51997e-12
1.6579e-11
2.68468e-11
3.86137e-11
5.12221e-11
6.34977e-11
5.40659e-05
0.406263
3.48483e-15
4.96268e-14
3.33283e-13
1.42401e-12
4.27036e-12
9.58998e-12
1.7271e-11
2.68045e-11
3.799e-11
5.01727e-11
0.000992026
0.45184
3.96441e-16
8.48629e-15
7.80423e-14
4.33038e-13
1.63325e-12
4.46502e-12
9.40197e-12
1.63611e-11
2.5305e-11
3.72196e-11
5.59661e-11
0.391276
2.64821e-17
8.83042e-16
1.16024e-14
8.78697e-14
4.42412e-13
1.58152e-12
4.21586e-12
8.8921e-12
1.59893e-11
2.65328e-11
4.36481e-11
0.330556
8.35042e-19
4.67615e-17
9.50393e-16
1.06192e-14
7.73961e-14
3.94541e-13
1.4592e-12
4.09258e-12
9.32129e-12
1.85478e-11