/*--------------------------------*- C++ -*----------------------------------*\
| =========                 |                                                 |
| \\      /  F ield         | OpenFOAM: The Open Source CFD Toolbox           |
|  \\    /   O peration     | Version:  v1606+                                |
|   \\  /    A nd           | Web:      www.OpenFOAM.com                      |
|    \\/     M anipulation  |                                                 |
\*---------------------------------------------------------------------------*/
FoamFile
{
    version     2.0;
    format      ascii;
    class       volVectorField;
    location    "1.87";
    object      U;
}
// * * * * * * * * * * * * * * * * * * * * * * * * * * * * * * * * * * * * * //

dimensions      [0 1 -1 0 0 0 0];

internalField   nonuniform List<vector> 
6000
(
(-0.0321849 -0.0341093 0)
(-0.0336767 -0.122383 0)
(-0.02046 -0.118821 0)
(-0.00458573 -0.103007 0)
(0.0106089 -0.0841856 0)
(0.0112785 -0.068585 0)
(-0.0129427 -0.0250105 0)
(-0.029918 -0.0399046 0)
(-0.0360314 -0.0651926 0)
(-0.0382739 -0.0956187 0)
(-0.0323986 -0.10559 0)
(-0.0227929 -0.106533 0)
(-0.0172712 -0.0938239 0)
(-0.0155797 -0.101039 0)
(-0.0116728 -0.117254 0)
(-0.00303035 -0.122957 0)
(-0.00155512 -0.105921 0)
(-0.0126984 -0.0835847 0)
(-0.0314553 -0.0661537 0)
(-0.0430568 -0.0453109 0)
(-0.0441292 -0.0400397 0)
(-0.0402339 -0.0393416 0)
(-0.0405654 -0.0133554 0)
(-0.0427956 -0.0154837 0)
(-0.0536462 -0.020479 0)
(-0.0455985 -0.0611132 0)
(-0.0412418 -0.0556346 0)
(-0.018081 -0.0686525 0)
(0.0113111 -0.100408 0)
(0.0274863 -0.0232703 0)
(0.0237584 0.635779 0)
(-0.0063745 0.657486 0)
(-0.0375442 0.655303 0)
(-0.0517779 0.647745 0)
(-0.0717175 0.643502 0)
(-0.0814099 0.681399 0)
(-0.0591353 0.653852 0)
(-0.00867594 0.630385 0)
(0.0357062 0.648692 0)
(0.0626868 0.661017 0)
(0.0535454 0.642003 0)
(0.0263648 0.635887 0)
(0.0121339 0.642812 0)
(-0.00682338 0.648412 0)
(-0.0195342 0.646379 0)
(-0.0279018 0.653577 0)
(-0.0593573 0.666034 0)
(-0.101144 0.684283 0)
(-0.146399 0.670263 0)
(-0.182998 0.63752 0)
(-0.199715 0.632186 0)
(-0.184525 0.612258 0)
(-0.129503 0.597058 0)
(-0.0598748 0.591965 0)
(0.00213103 0.602069 0)
(0.0301499 0.61102 0)
(0.0362931 0.606287 0)
(0.0419856 0.577923 0)
(0.0140043 0.601907 0)
(-0.0269687 0.604735 0)
(-0.0166827 0.534127 0)
(-0.0354692 0.498882 0)
(-0.065576 0.471385 0)
(-0.0813152 0.467651 0)
(-0.0911915 0.467546 0)
(-0.0785147 0.456992 0)
(-0.0375502 0.412974 0)
(0.0124184 0.385918 0)
(0.0649425 0.391568 0)
(0.123789 0.418244 0)
(0.146788 0.456055 0)
(0.126046 0.465472 0)
(0.0737254 0.45534 0)
(0.00502615 0.467432 0)
(-0.0451591 0.422509 0)
(-0.0795567 0.453706 0)
(-0.133021 0.505361 0)
(-0.197831 0.54641 0)
(-0.257766 0.549602 0)
(-0.311093 0.522361 0)
(-0.32267 0.465612 0)
(-0.290786 0.413459 0)
(-0.228431 0.386193 0)
(-0.146763 0.376878 0)
(-0.0602635 0.395258 0)
(0.0158795 0.443427 0)
(0.047616 0.468555 0)
(0.0495915 0.45772 0)
(0.0283212 0.498509 0)
(0.00727303 0.518213 0)
(-0.0107631 0.569751 0)
(-0.0348135 0.56584 0)
(-0.0763577 0.546648 0)
(-0.0994344 0.525456 0)
(-0.0883318 0.50602 0)
(-0.0514202 0.478291 0)
(0.0183298 0.435396 0)
(0.0828256 0.41321 0)
(0.139807 0.421552 0)
(0.189259 0.45624 0)
(0.224334 0.517075 0)
(0.202778 0.585439 0)
(0.122571 0.648059 0)
(0.0239297 0.660894 0)
(-0.0658307 0.586945 0)
(-0.14865 0.606698 0)
(-0.229873 0.670789 0)
(-0.29682 0.694285 0)
(-0.349111 0.682031 0)
(-0.387933 0.612931 0)
(-0.375081 0.498448 0)
(-0.332072 0.40732 0)
(-0.274328 0.350979 0)
(-0.207753 0.325303 0)
(-0.138023 0.357349 0)
(-0.0526141 0.415666 0)
(0.0268316 0.454002 0)
(0.0671797 0.495776 0)
(0.0646282 0.525902 0)
(0.0130107 0.557428 0)
(-0.013111 0.594076 0)
(-0.0369421 0.600617 0)
(-0.069269 0.585608 0)
(-0.070776 0.539964 0)
(-0.0354581 0.468356 0)
(0.0309423 0.417106 0)
(0.0719864 0.364376 0)
(0.103024 0.324462 0)
(0.134119 0.337928 0)
(0.173053 0.38942 0)
(0.21194 0.488682 0)
(0.208429 0.630954 0)
(0.1301 0.72283 0)
(0.0456534 0.707263 0)
(-0.0460586 0.676049 0)
(-0.150412 0.684978 0)
(-0.229238 0.705035 0)
(-0.275052 0.703092 0)
(-0.309442 0.68885 0)
(-0.301755 0.581683 0)
(-0.239891 0.434908 0)
(-0.176265 0.331438 0)
(-0.133153 0.283909 0)
(-0.106548 0.259184 0)
(-0.0883023 0.272179 0)
(-0.0564586 0.320476 0)
(-0.000854041 0.383206 0)
(0.0571343 0.453946 0)
(0.0806421 0.583859 0)
(0.0185777 0.62427 0)
(-0.00963875 0.635703 0)
(-0.0201253 0.642058 0)
(-0.0159731 0.603696 0)
(0.0214637 0.490805 0)
(0.0545878 0.410084 0)
(0.0659999 0.371549 0)
(0.0602525 0.342487 0)
(0.051078 0.315349 0)
(0.0475883 0.319597 0)
(0.0626296 0.351793 0)
(0.10151 0.447997 0)
(0.14247 0.659155 0)
(0.104237 0.802365 0)
(0.030889 0.785638 0)
(-0.0444938 0.764829 0)
(-0.120818 0.759695 0)
(-0.185416 0.759927 0)
(-0.225094 0.744288 0)
(-0.223346 0.691691 0)
(-0.149747 0.515435 0)
(-0.0648908 0.363255 0)
(-0.0246252 0.291867 0)
(-0.017245 0.270222 0)
(-0.0202714 0.260021 0)
(-0.0222065 0.26747 0)
(-0.0129504 0.289037 0)
(-0.00382773 0.34478 0)
(0.0305442 0.395781 0)
(0.0414833 0.575018 0)
(0.0160637 0.692596 0)
(-0.00387113 0.642366 0)
(0.0150385 0.621197 0)
(0.0726793 0.560384 0)
(0.0902156 0.461617 0)
(0.0722086 0.400265 0)
(0.0457684 0.373739 0)
(0.0223891 0.351038 0)
(-0.00128496 0.333504 0)
(-0.0232606 0.326739 0)
(-0.0342259 0.337241 0)
(-0.0204858 0.401561 0)
(0.0204236 0.62885 0)
(0.040886 0.861008 0)
(-0.00585511 0.849877 0)
(-0.0559662 0.825086 0)
(-0.0956058 0.81561 0)
(-0.14003 0.802153 0)
(-0.152264 0.764085 0)
(-0.0837652 0.613866 0)
(0.016025 0.42174 0)
(0.0669766 0.323408 0)
(0.0619861 0.288207 0)
(0.0440056 0.279174 0)
(0.024122 0.269577 0)
(0.0120941 0.267998 0)
(0.0108259 0.283531 0)
(0.0200547 0.330103 0)
(0.024547 0.393324 0)
(0.00924711 0.544796 0)
(0.00375137 0.696463 0)
(0.000942276 0.595489 0)
(0.0393312 0.523964 0)
(0.088455 0.486288 0)
(0.098393 0.480376 0)
(0.0457134 0.457411 0)
(-0.00895743 0.428385 0)
(-0.0408806 0.385376 0)
(-0.0639914 0.365584 0)
(-0.0905319 0.354759 0)
(-0.113545 0.352402 0)
(-0.126293 0.386326 0)
(-0.108097 0.570244 0)
(-0.0732554 0.878093 0)
(-0.0699176 0.90238 0)
(-0.0923371 0.862051 0)
(-0.0876549 0.843547 0)
(-0.0809153 0.830368 0)
(-0.0185822 0.724867 0)
(0.0817815 0.498214 0)
(0.15119 0.363271 0)
(0.154055 0.318008 0)
(0.128911 0.316688 0)
(0.0889625 0.312527 0)
(0.0519955 0.296878 0)
(0.0300996 0.28237 0)
(0.0268521 0.28532 0)
(0.0398236 0.319004 0)
(0.0458984 0.409592 0)
(0.0208782 0.572934 0)
(0.0158956 0.698294 0)
(0.0167458 0.522625 0)
(0.0527193 0.434489 0)
(0.0808681 0.422454 0)
(0.0713789 0.43159 0)
(0.0117322 0.457068 0)
(-0.057298 0.460966 0)
(-0.102281 0.407347 0)
(-0.126068 0.385918 0)
(-0.141098 0.37626 0)
(-0.168861 0.384415 0)
(-0.198421 0.403929 0)
(-0.217174 0.537822 0)
(-0.211394 0.83904 0)
(-0.162565 0.926179 0)
(-0.131196 0.851195 0)
(-0.0713839 0.807282 0)
(0.0238323 0.767802 0)
(0.142374 0.621598 0)
(0.210929 0.413118 0)
(0.243197 0.339568 0)
(0.225397 0.348675 0)
(0.184548 0.361502 0)
(0.125086 0.366601 0)
(0.0657673 0.335498 0)
(0.0338291 0.293931 0)
(0.0387151 0.276745 0)
(0.0509583 0.315531 0)
(0.0651479 0.448346 0)
(0.0609903 0.529741 0)
(0.0399258 0.637457 0)
(0.0366625 0.604643 0)
(0.0989179 0.478045 0)
(0.145173 0.508755 0)
(0.148564 0.594499 0)
(0.112513 0.623265 0)
(0.0389059 0.525429 0)
(-0.0490893 0.404756 0)
(-0.113595 0.397032 0)
(-0.147578 0.409502 0)
(-0.188575 0.430278 0)
(-0.235409 0.453355 0)
(-0.288598 0.551953 0)
(-0.30267 0.78259 0)
(-0.229016 0.867526 0)
(-0.14085 0.771043 0)
(-0.0237414 0.677462 0)
(0.118596 0.631708 0)
(0.243987 0.511802 0)
(0.302093 0.351782 0)
(0.308222 0.352905 0)
(0.28739 0.382584 0)
(0.247888 0.406282 0)
(0.158477 0.435572 0)
(0.0529096 0.388011 0)
(-0.00350202 0.322354 0)
(-0.00986631 0.291231 0)
(-0.00753801 0.279032 0)
(0.0279115 0.318157 0)
(0.0531783 0.658732 0)
(0.0384447 0.843557 0)
(0.0397587 0.497937 0)
(0.0927077 0.389279 0)
(0.172195 0.462118 0)
(0.224225 0.562858 0)
(0.269361 0.648446 0)
(0.282291 0.675876 0)
(0.216158 0.622934 0)
(0.0914412 0.475077 0)
(-0.0204618 0.404769 0)
(-0.115981 0.446529 0)
(-0.207009 0.518872 0)
(-0.278858 0.611729 0)
(-0.294158 0.727332 0)
(-0.236727 0.778364 0)
(-0.123394 0.651427 0)
(0.0204767 0.515763 0)
(0.147406 0.491483 0)
(0.282481 0.408459 0)
(0.328986 0.323954 0)
(0.345289 0.356821 0)
(0.34325 0.399107 0)
(0.316613 0.463652 0)
(0.138051 0.594 0)
(-0.091136 0.50292 0)
(-0.218508 0.355805 0)
(-0.287626 0.229133 0)
(-0.289827 0.287636 0)
(-0.246103 0.386464 0)
(-0.152348 0.606917 0)
(-0.0384363 0.842773 0)
(0.0306756 0.472053 0)
(0.0405906 0.291206 0)
(0.0979532 0.370617 0)
(0.160995 0.481604 0)
(0.227762 0.557691 0)
(0.297566 0.596732 0)
(0.359105 0.639024 0)
(0.359285 0.643972 0)
(0.275666 0.661109 0)
(0.13384 0.640072 0)
(0.0169204 0.606043 0)
(-0.0995929 0.58994 0)
(-0.160305 0.657495 0)
(-0.163049 0.673565 0)
(-0.0928688 0.525524 0)
(0.0232554 0.380615 0)
(0.137926 0.381813 0)
(0.272095 0.307404 0)
(0.331277 0.291168 0)
(0.353049 0.3464 0)
(0.359214 0.427108 0)
(0.224433 0.574667 0)
(-0.160814 0.93282 0)
(-0.471607 0.737749 0)
(-0.547965 0.422796 0)
(-0.485299 0.277954 0)
(-0.414176 0.239574 0)
(-0.331902 0.246472 0)
(-0.24519 0.414349 0)
(-0.100186 0.690712 0)
(0.0380648 0.440521 0)
(0.0240379 0.26898 0)
(0.00444873 0.333195 0)
(0.0236501 0.421242 0)
(0.0749868 0.482064 0)
(0.135506 0.513089 0)
(0.220484 0.544846 0)
(0.30765 0.580886 0)
(0.377026 0.6743 0)
(0.357225 0.723227 0)
(0.299637 0.823135 0)
(0.167484 0.911314 0)
(0.0674896 0.794556 0)
(0.0120475 0.638599 0)
(-0.00333831 0.447509 0)
(0.0205051 0.259416 0)
(0.111626 0.269045 0)
(0.249497 0.193004 0)
(0.30209 0.245392 0)
(0.32738 0.354659 0)
(0.221034 0.49863 0)
(-0.065232 1.0201 0)
(-0.3976 1.34236 0)
(-0.539938 0.989076 0)
(-0.431865 0.342878 0)
(-0.317618 0.147311 0)
(-0.238151 0.151234 0)
(-0.187997 0.186272 0)
(-0.171281 0.305041 0)
(-0.10601 0.504063 0)
(0.0468899 0.391782 0)
(0.0185504 0.307412 0)
(-0.0219002 0.361938 0)
(-0.0705726 0.414586 0)
(-0.0705588 0.444334 0)
(-0.0424178 0.450537 0)
(0.00544937 0.445334 0)
(0.0881628 0.466203 0)
(0.215923 0.566646 0)
(0.343224 0.723531 0)
(0.356925 0.805595 0)
(0.333461 0.879959 0)
(0.299407 0.916188 0)
(0.212297 0.872394 0)
(0.105403 0.582562 0)
(0.0733528 0.236729 0)
(0.133338 0.1608 0)
(0.248853 0.0834972 0)
(0.268765 0.22013 0)
(0.217936 0.41429 0)
(-0.0324534 0.848412 0)
(-0.263824 1.25424 0)
(-0.321014 1.35113 0)
(-0.279695 0.907984 0)
(-0.176704 0.222175 0)
(-0.111515 0.0732584 0)
(-0.089025 0.116333 0)
(-0.0822284 0.176948 0)
(-0.083402 0.276108 0)
(-0.0617829 0.381857 0)
(0.0226539 0.358115 0)
(-0.00543689 0.352151 0)
(-0.0505532 0.394436 0)
(-0.0891048 0.44274 0)
(-0.133381 0.458075 0)
(-0.14732 0.438482 0)
(-0.137004 0.401912 0)
(-0.106011 0.375524 0)
(-0.0327171 0.407365 0)
(0.122557 0.564373 0)
(0.292802 0.812864 0)
(0.338458 0.887768 0)
(0.298448 0.885488 0)
(0.288485 0.855425 0)
(0.250473 0.679278 0)
(0.199209 0.281796 0)
(0.210318 0.0844383 0)
(0.242937 0.0459706 0)
(0.188088 0.222011 0)
(0.0709498 0.753403 0)
(-0.175705 1.03993 0)
(-0.211354 1.23403 0)
(-0.132814 1.28092 0)
(-0.0278945 0.842947 0)
(0.0142697 0.171284 0)
(0.0248211 0.0509384 0)
(0.0139099 0.11983 0)
(-0.0121827 0.202801 0)
(-0.0332174 0.284239 0)
(-0.0226139 0.320665 0)
(0.00562797 0.351751 0)
(-0.0245954 0.406989 0)
(-0.0753465 0.450586 0)
(-0.118302 0.472949 0)
(-0.149081 0.477605 0)
(-0.174007 0.456072 0)
(-0.193463 0.404303 0)
(-0.199024 0.355974 0)
(-0.187556 0.332964 0)
(-0.120126 0.379184 0)
(0.0545125 0.609518 0)
(0.247546 0.910741 0)
(0.247539 0.916052 0)
(0.245959 0.851447 0)
(0.293642 0.65475 0)
(0.304625 0.289136 0)
(0.279578 0.0768506 0)
(0.21641 0.0569567 0)
(0.120644 0.414193 0)
(-0.0592172 0.922234 0)
(-0.140535 1.0612 0)
(-0.0939523 1.18164 0)
(0.0522903 1.18889 0)
(0.217749 0.805097 0)
(0.210595 0.183362 0)
(0.148295 0.0831873 0)
(0.107844 0.152962 0)
(0.0595406 0.237002 0)
(0.0222113 0.326778 0)
(0.00475487 0.349501 0)
(-0.00089434 0.36199 0)
(-0.0261303 0.454783 0)
(-0.0756632 0.501247 0)
(-0.1222 0.518633 0)
(-0.160205 0.507723 0)
(-0.183102 0.46956 0)
(-0.199341 0.420502 0)
(-0.217262 0.369184 0)
(-0.233872 0.325847 0)
(-0.231474 0.305751 0)
(-0.168774 0.407904 0)
(-0.00124619 0.752812 0)
(0.124987 0.943212 0)
(0.180112 0.841591 0)
(0.273469 0.589724 0)
(0.299333 0.302881 0)
(0.230923 0.147003 0)
(0.122021 0.150874 0)
(0.0282444 0.612317 0)
(-0.0793645 0.980586 0)
(-0.0543339 1.02763 0)
(0.0662539 1.06944 0)
(0.275701 0.998314 0)
(0.444667 0.669435 0)
(0.394549 0.263382 0)
(0.267716 0.171417 0)
(0.186231 0.217612 0)
(0.101716 0.27682 0)
(0.0173749 0.32093 0)
(0.00565648 0.293165 0)
(0.0109676 0.353539 0)
(-0.00562182 0.507096 0)
(-0.0699344 0.551117 0)
(-0.117183 0.559299 0)
(-0.155257 0.537858 0)
(-0.179341 0.492373 0)
(-0.199114 0.445173 0)
(-0.225343 0.397184 0)
(-0.250301 0.344853 0)
(-0.263566 0.303957 0)
(-0.248072 0.323594 0)
(-0.192114 0.562541 0)
(-0.0423386 0.801497 0)
(0.0813117 0.730726 0)
(0.157314 0.501044 0)
(0.159213 0.331344 0)
(0.108387 0.22289 0)
(0.0161846 0.255245 0)
(-0.0548602 0.709993 0)
(-0.0485827 0.949582 0)
(0.0547307 0.913638 0)
(0.266374 0.893634 0)
(0.471766 0.812533 0)
(0.537192 0.598385 0)
(0.427953 0.337435 0)
(0.309611 0.250619 0)
(0.148 0.257558 0)
(0.0382969 0.345677 0)
(-0.0488223 0.420887 0)
(-0.0297485 0.315267 0)
(-0.00217552 0.328408 0)
(0.00425667 0.577635 0)
(-0.0522866 0.582579 0)
(-0.0902207 0.605314 0)
(-0.116721 0.588866 0)
(-0.130073 0.530692 0)
(-0.164717 0.485562 0)
(-0.219893 0.445088 0)
(-0.267923 0.381415 0)
(-0.288016 0.321642 0)
(-0.281442 0.310559 0)
(-0.257881 0.462474 0)
(-0.156828 0.672046 0)
(-0.0417799 0.628231 0)
(0.00441133 0.452914 0)
(0.00572791 0.350241 0)
(-0.0237341 0.288652 0)
(-0.083184 0.348423 0)
(-0.0949771 0.673012 0)
(0.0124256 0.889768 0)
(0.160167 0.718559 0)
(0.349377 0.615369 0)
(0.4848 0.633715 0)
(0.50266 0.57589 0)
(0.406536 0.43715 0)
(0.310489 0.490235 0)
(0.138195 0.562465 0)
(-0.012269 0.578898 0)
(-0.100252 0.489622 0)
(-0.0512337 0.272003 0)
(-0.0270688 0.245017 0)
(0.025179 0.642575 0)
(-0.0147704 0.674163 0)
(-0.042313 0.629061 0)
(-0.0733829 0.535342 0)
(-0.106342 0.455119 0)
(-0.162621 0.466182 0)
(-0.220645 0.452011 0)
(-0.27977 0.416522 0)
(-0.306014 0.336167 0)
(-0.294993 0.301722 0)
(-0.275343 0.414179 0)
(-0.200914 0.577728 0)
(-0.119163 0.547228 0)
(-0.089553 0.432612 0)
(-0.0941625 0.365586 0)
(-0.124621 0.329508 0)
(-0.159239 0.377744 0)
(-0.120422 0.548352 0)
(0.0550251 0.711157 0)
(0.239168 0.542529 0)
(0.314449 0.471938 0)
(0.40889 0.567432 0)
(0.415919 0.678398 0)
(0.344157 0.693804 0)
(0.19636 0.643159 0)
(0.0685303 0.600714 0)
(-0.022322 0.590525 0)
(-0.086926 0.513153 0)
(-0.0400154 0.124933 0)
(-0.0420057 0.368802 0)
(-0.00865119 0.645825 0)
(0.0189016 0.685839 0)
(0.0124342 0.717712 0)
(-0.0486222 0.740912 0)
(-0.155874 0.714899 0)
(-0.280843 0.6904 0)
(-0.340416 0.576375 0)
(-0.329289 0.40302 0)
(-0.330706 0.311558 0)
(-0.315349 0.272905 0)
(-0.264052 0.371876 0)
(-0.210078 0.504073 0)
(-0.154936 0.499359 0)
(-0.132214 0.434757 0)
(-0.137293 0.383907 0)
(-0.156246 0.3541 0)
(-0.169785 0.366638 0)
(-0.137717 0.426974 0)
(0.00685924 0.512659 0)
(0.192859 0.432393 0)
(0.209292 0.370902 0)
(0.29354 0.647982 0)
(0.261668 0.784738 0)
(0.179881 0.729445 0)
(0.115988 0.695431 0)
(0.0458589 0.691879 0)
(-0.0343149 0.672973 0)
(-0.0532922 0.496117 0)
(-0.00748019 0.0670846 0)
(0.00320111 0.312688 0)
(0.0584147 0.573144 0)
(0.0667349 0.639979 0)
(0.0416288 0.687791 0)
(-0.00547183 0.721444 0)
(-0.0868656 0.737723 0)
(-0.18707 0.705319 0)
(-0.267467 0.629118 0)
(-0.301462 0.509951 0)
(-0.274688 0.322258 0)
(-0.286032 0.220549 0)
(-0.244421 0.330622 0)
(-0.200999 0.458922 0)
(-0.165629 0.471918 0)
(-0.142511 0.429311 0)
(-0.14014 0.394376 0)
(-0.149664 0.372548 0)
(-0.156908 0.368068 0)
(-0.141894 0.37439 0)
(-0.082243 0.377079 0)
(0.0233847 0.34028 0)
(0.0551007 0.37109 0)
(0.102568 0.691172 0)
(0.11746 0.757933 0)
(0.108849 0.757551 0)
(0.0713785 0.748162 0)
(0.0317722 0.75657 0)
(-0.023912 0.719293 0)
(-0.00774114 0.454573 0)
(0.0109368 0.0637788 0)
(0.0313824 0.251275 0)
(0.103978 0.529967 0)
(0.124178 0.673378 0)
(0.0941779 0.738335 0)
(0.0503813 0.791264 0)
(-0.00425316 0.814979 0)
(-0.073776 0.809516 0)
(-0.0940494 0.617793 0)
(-0.0865273 0.462219 0)
(-0.12634 0.387563 0)
(-0.138258 0.217038 0)
(-0.19661 0.2955 0)
(-0.15956 0.432778 0)
(-0.138651 0.443015 0)
(-0.118938 0.419158 0)
(-0.117752 0.399969 0)
(-0.127283 0.385971 0)
(-0.139771 0.377051 0)
(-0.146443 0.366737 0)
(-0.141393 0.343087 0)
(-0.131495 0.305274 0)
(-0.13508 0.367712 0)
(-0.109915 0.593954 0)
(0.0277361 0.723162 0)
(0.0659895 0.760893 0)
(0.0577993 0.779553 0)
(0.0200313 0.791422 0)
(0.012908 0.769355 0)
(0.0432795 0.411546 0)
(0.0229106 0.0966113 0)
(0.0252222 0.164207 0)
(0.110254 0.490034 0)
(0.172898 0.668126 0)
(0.162355 0.759752 0)
(0.131591 0.831847 0)
(0.095946 0.840741 0)
(0.0814977 0.817624 0)
(0.103223 0.614549 0)
(0.0810539 0.470091 0)
(0.0537609 0.408815 0)
(-0.0244879 0.290666 0)
(-0.130786 0.302728 0)
(-0.103212 0.419579 0)
(-0.0888704 0.421786 0)
(-0.0782323 0.413868 0)
(-0.0837715 0.408258 0)
(-0.100036 0.40217 0)
(-0.123938 0.39629 0)
(-0.151999 0.38277 0)
(-0.181089 0.35806 0)
(-0.212671 0.330489 0)
(-0.23465 0.353164 0)
(-0.237569 0.451949 0)
(-0.0961108 0.642181 0)
(0.0255125 0.785076 0)
(0.056778 0.779096 0)
(0.0540705 0.848252 0)
(0.0732148 0.714131 0)
(0.0879918 0.407934 0)
(0.0332543 0.154769 0)
(-0.000749964 0.127939 0)
(0.0518612 0.368659 0)
(0.171678 0.650922 0)
(0.213798 0.795635 0)
(0.222922 0.883384 0)
(0.22156 0.885507 0)
(0.236569 0.790901 0)
(0.245934 0.614246 0)
(0.180096 0.53102 0)
(0.151394 0.441168 0)
(0.0239469 0.417944 0)
(-0.0681458 0.337793 0)
(-0.0408203 0.402423 0)
(-0.0305961 0.409508 0)
(-0.029029 0.416763 0)
(-0.0416748 0.424982 0)
(-0.0665023 0.426422 0)
(-0.105488 0.42952 0)
(-0.158694 0.422912 0)
(-0.208825 0.397372 0)
(-0.247252 0.369069 0)
(-0.271043 0.362125 0)
(-0.272026 0.381379 0)
(-0.232062 0.458495 0)
(-0.0821947 0.643944 0)
(0.0443284 0.771305 0)
(0.100626 0.803522 0)
(0.129619 0.680015 0)
(0.111936 0.439552 0)
(0.0413051 0.232125 0)
(-0.00662214 0.131368 0)
(-0.0132871 0.272636 0)
(0.0980814 0.523299 0)
(0.202242 0.71215 0)
(0.264338 0.82638 0)
(0.311789 0.839848 0)
(0.33376 0.76704 0)
(0.298092 0.654803 0)
(0.208508 0.616786 0)
(0.160592 0.507975 0)
(0.0179454 0.514359 0)
(0.0290696 0.38089 0)
(0.0347549 0.389904 0)
(0.0351093 0.406526 0)
(0.0292488 0.42598 0)
(0.0067349 0.446323 0)
(-0.0270241 0.452703 0)
(-0.0791298 0.474458 0)
(-0.17047 0.478084 0)
(-0.237789 0.437977 0)
(-0.277025 0.404833 0)
(-0.297656 0.381171 0)
(-0.298596 0.367318 0)
(-0.275948 0.382658 0)
(-0.216736 0.460114 0)
(-0.0577816 0.625289 0)
(0.0897739 0.742043 0)
(0.140594 0.672308 0)
(0.115676 0.487864 0)
(0.0479382 0.319377 0)
(-0.0146728 0.164356 0)
(-0.0250989 0.228879 0)
(0.0283873 0.406341 0)
(0.148017 0.609948 0)
(0.25168 0.74905 0)
(0.323906 0.792642 0)
(0.33481 0.776544 0)
(0.258676 0.73963 0)
(0.17009 0.701601 0)
(0.104489 0.629249 0)
(0.0638798 0.477277 0)
(0.11322 0.381425 0)
(0.106142 0.388832 0)
(0.101285 0.409049 0)
(0.0854757 0.438468 0)
(0.0395907 0.482705 0)
(-0.0184684 0.484286 0)
(-0.0526263 0.552353 0)
(-0.173415 0.592153 0)
(-0.266132 0.484661 0)
(-0.305373 0.423056 0)
(-0.31677 0.390327 0)
(-0.314408 0.367168 0)
(-0.297978 0.355247 0)
(-0.259537 0.38014 0)
(-0.184984 0.44783 0)
(-0.0220907 0.598143 0)
(0.0899292 0.664808 0)
(0.107661 0.526982 0)
(0.0466443 0.412666 0)
(-0.0129803 0.194632 0)
(-0.034331 0.222987 0)
(-0.013577 0.325745 0)
(0.0763615 0.503279 0)
(0.197782 0.644707 0)
(0.279178 0.751968 0)
(0.247436 0.834266 0)
(0.14667 0.846167 0)
(0.0784799 0.798449 0)
(0.0801246 0.641762 0)
(0.146091 0.417272 0)
(0.162892 0.383121 0)
(0.159871 0.392928 0)
(0.152644 0.41249 0)
(0.117344 0.477317 0)
(0.0355924 0.597113 0)
(-0.00917253 0.546922 0)
(-0.109999 0.642689 0)
(-0.219649 0.758568 0)
(-0.309596 0.594509 0)
(-0.324939 0.440898 0)
(-0.32669 0.384271 0)
(-0.31579 0.356274 0)
(-0.296992 0.340424 0)
(-0.268836 0.341427 0)
(-0.222664 0.372526 0)
(-0.143735 0.434927 0)
(-0.0156456 0.557459 0)
(0.0721567 0.52078 0)
(0.0379263 0.498579 0)
(-0.0108389 0.220173 0)
(-0.0367925 0.241133 0)
(-0.0428412 0.280115 0)
(0.0134153 0.404695 0)
(0.118496 0.539619 0)
(0.17284 0.753224 0)
(0.1086 0.932225 0)
(0.0232297 0.950674 0)
(0.0565818 0.783768 0)
(0.14543 0.505227 0)
(0.197497 0.395087 0)
(0.199411 0.3899 0)
(0.1929 0.394977 0)
(0.173533 0.430366 0)
(0.133908 0.588926 0)
(0.0425381 0.67464 0)
(0.0075224 0.596729 0)
(-0.175118 0.737733 0)
(-0.267633 0.814359 0)
(-0.316911 0.671163 0)
(-0.355662 0.45254 0)
(-0.317799 0.376032 0)
(-0.305639 0.335547 0)
(-0.283033 0.319575 0)
(-0.256598 0.315076 0)
(-0.22172 0.329307 0)
(-0.173673 0.370064 0)
(-0.0935699 0.42586 0)
(0.00728455 0.451773 0)
(0.0118202 0.545695 0)
(-0.00864942 0.242829 0)
(-0.0353671 0.268743 0)
(-0.0531664 0.270671 0)
(-0.0264239 0.330645 0)
(0.043919 0.463396 0)
(0.0563557 0.783841 0)
(-0.023029 1.01658 0)
(-0.00148163 0.93906 0)
(0.119863 0.639754 0)
(0.209635 0.432087 0)
(0.224031 0.396972 0)
(0.216528 0.394603 0)
(0.200531 0.40384 0)
(0.178772 0.47592 0)
(0.110805 0.652516 0)
(0.0647426 0.719921 0)
(-0.00681087 0.708471 0)
(-0.219763 0.873065 0)
(-0.298463 0.851082 0)
(-0.292254 0.685733 0)
(-0.314912 0.451354 0)
(-0.286078 0.360531 0)
(-0.276305 0.314194 0)
(-0.259154 0.295178 0)
(-0.234853 0.288195 0)
(-0.205056 0.294187 0)
(-0.165407 0.321583 0)
(-0.105507 0.361946 0)
(-0.0418212 0.403114 0)
(-0.0169351 0.535207 0)
(-0.00351947 0.258736 0)
(-0.0326759 0.307359 0)
(-0.0621994 0.274673 0)
(-0.0450151 0.292745 0)
(-0.0127166 0.423455 0)
(-0.0357284 0.847114 0)
(-0.0804177 1.02475 0)
(0.0577079 0.800756 0)
(0.189529 0.501793 0)
(0.232846 0.411986 0)
(0.231817 0.405705 0)
(0.214971 0.408635 0)
(0.18125 0.433138 0)
(0.12426 0.567863 0)
(0.0445432 0.705278 0)
(0.0533719 0.765896 0)
(-0.0382697 0.868968 0)
(-0.21906 1.01886 0)
(-0.262996 0.919332 0)
(-0.206672 0.688814 0)
(-0.234832 0.464765 0)
(-0.227332 0.370363 0)
(-0.23498 0.301128 0)
(-0.227675 0.274509 0)
(-0.209327 0.262843 0)
(-0.18351 0.262147 0)
(-0.149756 0.277496 0)
(-0.103814 0.308504 0)
(-0.0592262 0.363311 0)
(-0.0280965 0.506077 0)
(0.00471057 0.258884 0)
(-0.0323719 0.375705 0)
(-0.0759316 0.27196 0)
(-0.0557284 0.272707 0)
(-0.0595621 0.431406 0)
(-0.115969 0.904864 0)
(-0.0489456 0.927449 0)
(0.127658 0.610879 0)
(0.221995 0.43988 0)
(0.238989 0.411733 0)
(0.229998 0.417661 0)
(0.205548 0.437869 0)
(0.165395 0.49966 0)
(0.102624 0.652076 0)
(0.0801587 0.721456 0)
(-0.0318769 0.864318 0)
(-0.090129 1.02267 0)
(-0.160956 1.1251 0)
(-0.142164 0.937311 0)
(-0.179092 0.597741 0)
(-0.165975 0.481185 0)
(-0.186744 0.391796 0)
(-0.194727 0.302607 0)
(-0.196623 0.261685 0)
(-0.184124 0.240781 0)
(-0.161553 0.234081 0)
(-0.132653 0.241481 0)
(-0.0966727 0.266099 0)
(-0.0625769 0.324653 0)
(-0.0289113 0.464215 0)
(0.0140306 0.240031 0)
(0.00653704 0.448457 0)
(-0.0762044 0.276269 0)
(-0.0564284 0.255621 0)
(-0.0914974 0.469761 0)
(-0.13798 0.891648 0)
(0.0336593 0.749371 0)
(0.183637 0.480495 0)
(0.234149 0.413884 0)
(0.237929 0.417308 0)
(0.222031 0.438477 0)
(0.186958 0.479821 0)
(0.133386 0.56421 0)
(0.0738025 0.687175 0)
(0.0204197 0.765639 0)
(-0.0228328 0.880898 0)
(-0.124439 1.02793 0)
(-0.104436 1.13919 0)
(-0.0958665 0.854034 0)
(-0.108902 0.62429 0)
(-0.132297 0.502217 0)
(-0.148692 0.405968 0)
(-0.160513 0.317198 0)
(-0.168925 0.258837 0)
(-0.16212 0.222589 0)
(-0.142196 0.209495 0)
(-0.116866 0.211315 0)
(-0.0871037 0.23185 0)
(-0.0592117 0.292556 0)
(-0.023843 0.423267 0)
(-0.0274926 0.205209 0)
(0.0499559 0.50247 0)
(-0.00771619 0.30155 0)
(-0.0554378 0.264894 0)
(-0.128452 0.576247 0)
(-0.075555 0.794011 0)
(0.126641 0.55809 0)
(0.224772 0.410554 0)
(0.247581 0.404354 0)
(0.244847 0.427837 0)
(0.226359 0.464889 0)
(0.189392 0.527282 0)
(0.117837 0.631744 0)
(0.0242323 0.741872 0)
(-0.0609494 0.83809 0)
(-0.121571 0.93486 0)
(-0.142093 1.02181 0)
(-0.143216 1.0272 0)
(-0.0661892 0.862264 0)
(-0.0735011 0.667087 0)
(-0.1068 0.521648 0)
(-0.119834 0.414468 0)
(-0.135316 0.334551 0)
(-0.149745 0.264667 0)
(-0.147775 0.207601 0)
(-0.12863 0.187874 0)
(-0.105187 0.184969 0)
(-0.0789212 0.202403 0)
(-0.0536603 0.264634 0)
(-0.0161933 0.385059 0)
(-0.0474153 0.212193 0)
(0.0398157 0.448492 0)
(0.0686821 0.405852 0)
(0.0144125 0.31797 0)
(-0.076118 0.572682 0)
(0.0623372 0.623585 0)
(0.213835 0.414792 0)
(0.259623 0.377965 0)
(0.270168 0.401879 0)
(0.270225 0.437629 0)
(0.264121 0.486896 0)
(0.241033 0.567228 0)
(0.133106 0.729972 0)
(-0.0676432 0.836963 0)
(-0.189679 0.912093 0)
(-0.239435 0.974651 0)
(-0.230881 1.01088 0)
(-0.182431 0.973956 0)
(-0.128603 0.876286 0)
(-0.0821356 0.728071 0)
(-0.105244 0.568869 0)
(-0.122996 0.468586 0)
(-0.13993 0.383989 0)
(-0.153794 0.27866 0)
(-0.147777 0.189899 0)
(-0.124126 0.16628 0)
(-0.0995378 0.160585 0)
(-0.0749379 0.175826 0)
(-0.0497848 0.237603 0)
(-0.0128994 0.351283 0)
(-0.0248634 0.246688 0)
(-0.00866429 0.329117 0)
(0.0821962 0.398932 0)
(0.0629921 0.428208 0)
(0.0361609 0.560552 0)
(0.181885 0.431807 0)
(0.266074 0.348219 0)
(0.288258 0.366248 0)
(0.297403 0.398922 0)
(0.304911 0.435966 0)
(0.318004 0.479583 0)
(0.308233 0.611264 0)
(0.053331 0.967512 0)
(-0.297824 1.03468 0)
(-0.415369 1.02458 0)
(-0.399065 1.03843 0)
(-0.343645 1.03271 0)
(-0.286343 0.994813 0)
(-0.310319 0.783523 0)
(-0.328865 0.658127 0)
(-0.317249 0.536957 0)
(-0.323662 0.351114 0)
(-0.284671 0.331049 0)
(-0.20658 0.257788 0)
(-0.164293 0.153621 0)
(-0.128156 0.138548 0)
(-0.100025 0.136126 0)
(-0.0755017 0.150275 0)
(-0.0496981 0.209397 0)
(-0.011647 0.319798 0)
(-0.0202821 0.289816 0)
(-0.0246409 0.247719 0)
(0.0451783 0.32596 0)
(0.0814389 0.468688 0)
(0.165089 0.456861 0)
(0.261864 0.315177 0)
(0.295717 0.324258 0)
(0.308775 0.357652 0)
(0.318576 0.391373 0)
(0.327673 0.42064 0)
(0.361771 0.444739 0)
(0.338827 0.793232 0)
(-0.245518 1.50068 0)
(-0.707451 1.38563 0)
(-0.942775 1.05916 0)
(-0.972487 0.890105 0)
(-0.935108 0.860824 0)
(-0.926009 0.836836 0)
(-0.918324 0.846738 0)
(-0.843559 0.724475 0)
(-0.701082 0.529127 0)
(-0.507077 0.330106 0)
(-0.384205 0.28057 0)
(-0.228041 0.163181 0)
(-0.168624 0.100869 0)
(-0.131429 0.106302 0)
(-0.103289 0.111569 0)
(-0.0785955 0.124329 0)
(-0.0521007 0.177722 0)
(-0.0125042 0.289188 0)
(-0.000288793 0.322858 0)
(-0.0107488 0.222324 0)
(0.0246448 0.257573 0)
(0.1255 0.417577 0)
(0.233292 0.301578 0)
(0.283214 0.276438 0)
(0.302693 0.312069 0)
(0.317783 0.347949 0)
(0.320088 0.382111 0)
(0.322461 0.411901 0)
(0.373508 0.443307 0)
(-0.0450691 1.38131 0)
(-0.699427 2.10984 0)
(-1.15873 1.8437 0)
(-1.46979 1.37936 0)
(-1.63488 1.11776 0)
(-1.61715 0.990551 0)
(-1.47794 0.909136 0)
(-1.23456 0.7585 0)
(-0.90974 0.505349 0)
(-0.618218 0.25707 0)
(-0.406672 0.112169 0)
(-0.305565 0.17636 0)
(-0.186741 0.0658131 0)
(-0.154337 0.0588554 0)
(-0.129959 0.0783496 0)
(-0.106622 0.0882448 0)
(-0.0820186 0.0974659 0)
(-0.0551864 0.143415 0)
(-0.0153999 0.257432 0)
(0.0156441 0.324983 0)
(0.0173317 0.198384 0)
(0.0614453 0.203766 0)
(0.165533 0.268268 0)
(0.241 0.234154 0)
(0.27519 0.259064 0)
(0.298491 0.29706 0)
(0.310285 0.33345 0)
(0.307576 0.385328 0)
(0.334153 0.404638 0)
(0.228397 0.711269 0)
(-0.586945 2.04646 0)
(-1.11726 2.48899 0)
(-1.41985 2.10836 0)
(-1.58916 1.51197 0)
(-1.60679 1.0532 0)
(-1.50662 0.796528 0)
(-1.24501 0.562208 0)
(-0.916401 0.348124 0)
(-0.595987 0.153248 0)
(-0.385633 0.0140043 0)
(-0.286905 -0.0088102 0)
(-0.214099 0.0711906 0)
(-0.15697 0.0158152 0)
(-0.143308 0.0382194 0)
(-0.129604 0.0597383 0)
(-0.110616 0.0666216 0)
(-0.0849257 0.0694335 0)
(-0.0577634 0.107644 0)
(-0.0193547 0.223439 0)
(0.0244126 0.310056 0)
(0.0554671 0.165054 0)
(0.103448 0.152281 0)
(0.164053 0.176496 0)
(0.217766 0.195845 0)
(0.254064 0.233308 0)
(0.280765 0.274004 0)
(0.289385 0.326811 0)
(0.286222 0.39721 0)
(0.272196 0.478035 0)
(-0.306429 1.44863 0)
(-1.09066 2.64627 0)
(-1.39889 2.77958 0)
(-1.50942 2.25416 0)
(-1.46613 1.52498 0)
(-1.32189 0.955891 0)
(-1.05981 0.537239 0)
(-0.76501 0.237247 0)
(-0.522148 0.0520526 0)
(-0.344295 -0.0514972 0)
(-0.250076 -0.0887157 0)
(-0.230323 -0.0260254 0)
(-0.182418 -0.00393784 0)
(-0.153767 -0.0030279 0)
(-0.146522 0.0289177 0)
(-0.134841 0.0477574 0)
(-0.114271 0.0433268 0)
(-0.0869309 0.0399953 0)
(-0.059797 0.0719786 0)
(-0.024038 0.187614 0)
(0.0324925 0.245761 0)
(0.0753533 0.127824 0)
(0.102375 0.102613 0)
(0.145916 0.123969 0)
(0.189174 0.157567 0)
(0.228955 0.199613 0)
(0.254354 0.2497 0)
(0.265369 0.322972 0)
(0.259043 0.435931 0)
(-0.0555326 0.909627 0)
(-0.937022 2.20632 0)
(-1.43888 3.02429 0)
(-1.53974 2.90558 0)
(-1.43381 2.19019 0)
(-1.1847 1.36081 0)
(-0.874928 0.668995 0)
(-0.606136 0.248908 0)
(-0.417482 0.0184133 0)
(-0.308209 -0.0978083 0)
(-0.240672 -0.132121 0)
(-0.212697 -0.120465 0)
(-0.217206 -0.0168389 0)
(-0.178536 -0.0433636 0)
(-0.164581 -0.0133943 0)
(-0.157817 0.0225042 0)
(-0.141783 0.0328722 0)
(-0.117524 0.0158047 0)
(-0.0892154 0.0102717 0)
(-0.0623413 0.0375936 0)
(-0.0284486 0.149113 0)
(0.0316157 0.197495 0)
(0.0649605 0.112023 0)
(0.0866194 0.0690138 0)
(0.119139 0.0833422 0)
(0.160696 0.117336 0)
(0.196028 0.16335 0)
(0.21879 0.229282 0)
(0.224147 0.340608 0)
(-0.00399963 0.699062 0)
(-0.683635 1.74695 0)
(-1.32719 2.78889 0)
(-1.55374 3.18685 0)
(-1.46921 2.82053 0)
(-1.17213 1.89858 0)
(-0.807904 1.0133 0)
(-0.520216 0.379064 0)
(-0.350994 0.0714944 0)
(-0.274285 -0.0721919 0)
(-0.254811 -0.143194 0)
(-0.240736 -0.151651 0)
(-0.230693 -0.118798 0)
(-0.207034 -0.0635298 0)
(-0.185136 -0.0587206 0)
(-0.180167 -0.0217952 0)
(-0.171457 0.0139715 0)
(-0.146042 0.0115752 0)
(-0.120947 -0.0139066 0)
(-0.0930528 -0.0191678 0)
(-0.0656586 0.00368702 0)
(-0.0314577 0.108585 0)
(0.0357277 0.150732 0)
(0.0513339 0.101363 0)
(0.0669526 0.0468793 0)
(0.0911855 0.0492553 0)
(0.130634 0.0743641 0)
(0.162127 0.131764 0)
(0.18705 0.231515 0)
(-0.000733393 0.499192 0)
(-0.436214 1.3663 0)
(-0.984078 2.32016 0)
(-1.31156 3.06382 0)
(-1.38693 3.18623 0)
(-1.18805 2.54428 0)
(-0.84321 1.54162 0)