/*--------------------------------*- C++ -*----------------------------------*\
| =========                 |                                                 |
| \\      /  F ield         | OpenFOAM: The Open Source CFD Toolbox           |
|  \\    /   O peration     | Version:  v1606+                                |
|   \\  /    A nd           | Web:      www.OpenFOAM.com                      |
|    \\/     M anipulation  |                                                 |
\*---------------------------------------------------------------------------*/
FoamFile
{
    version     2.0;
    format      ascii;
    class       volVectorField;
    location    "1.87";
    object      U.air;
}
// * * * * * * * * * * * * * * * * * * * * * * * * * * * * * * * * * * * * * //

dimensions      [0 1 -1 0 0 0 0];

internalField   nonuniform List<vector> 
6000
(
(-0.0325237 0.254975 0)
(-0.0243228 0.161509 0)
(-0.000390209 0.159375 0)
(0.0277447 0.16858 0)
(0.0544604 0.17822 0)
(0.0532156 0.190689 0)
(0.010317 0.229764 0)
(-0.022191 0.214434 0)
(-0.0384822 0.195952 0)
(-0.0514053 0.168254 0)
(-0.0502452 0.163993 0)
(-0.0379471 0.1698 0)
(-0.0280558 0.186689 0)
(-0.0241631 0.184602 0)
(-0.0174759 0.168317 0)
(-0.00478397 0.162521 0)
(-0.0019728 0.179399 0)
(-0.0212003 0.200934 0)
(-0.0541417 0.212882 0)
(-0.0772723 0.223716 0)
(-0.0887859 0.220592 0)
(-0.0911039 0.215424 0)
(-0.0948314 0.239026 0)
(-0.101526 0.23474 0)
(-0.117206 0.23162 0)
(-0.113301 0.195483 0)
(-0.104559 0.206387 0)
(-0.0660785 0.19268 0)
(-0.0111413 0.168494 0)
(0.0255463 0.251032 0)
(0.019851 1.04062 0)
(-0.0121712 1.03991 0)
(-0.0370882 1.02457 0)
(-0.0456728 1.00656 0)
(-0.065483 0.989006 0)
(-0.0789326 1.01753 0)
(-0.0530829 0.988637 0)
(0.00637805 0.963429 0)
(0.0559394 0.988064 0)
(0.0832599 1.00585 0)
(0.0716019 1.00113 0)
(0.0401592 1.01127 0)
(0.0188078 1.03378 0)
(-0.0105125 1.04971 0)
(-0.0277599 1.03921 0)
(-0.0339545 1.04492 0)
(-0.0708429 1.06124 0)
(-0.129981 1.07985 0)
(-0.200995 1.05779 0)
(-0.262395 1.01012 0)
(-0.293251 0.983052 0)
(-0.280767 0.944908 0)
(-0.216501 0.92207 0)
(-0.128842 0.912272 0)
(-0.0482895 0.926999 0)
(-0.0121332 0.940774 0)
(-0.00580846 0.946516 0)
(0.0103349 0.924654 0)
(-0.00139564 0.963986 0)
(-0.0309515 0.988643 0)
(-0.0210252 0.842765 0)
(-0.0467591 0.79573 0)
(-0.0795221 0.764462 0)
(-0.0971749 0.754132 0)
(-0.108458 0.745008 0)
(-0.0887072 0.730892 0)
(-0.0334816 0.681979 0)
(0.0317075 0.649892 0)
(0.0999438 0.661243 0)
(0.170664 0.698913 0)
(0.199212 0.748942 0)
(0.173434 0.776244 0)
(0.10301 0.785647 0)
(0.00893682 0.806408 0)
(-0.0569858 0.75227 0)
(-0.0972752 0.781108 0)
(-0.165914 0.836836 0)
(-0.256266 0.878466 0)
(-0.347099 0.874696 0)
(-0.429792 0.832122 0)
(-0.454026 0.7528 0)
(-0.413654 0.675811 0)
(-0.329293 0.631145 0)
(-0.217987 0.61374 0)
(-0.106363 0.636494 0)
(-0.0177578 0.691096 0)
(0.0250812 0.722193 0)
(0.036958 0.716342 0)
(0.0228111 0.772298 0)
(0.00655887 0.810064 0)
(-0.0126354 0.868941 0)
(-0.0454373 0.856865 0)
(-0.101098 0.831418 0)
(-0.134505 0.798828 0)
(-0.121854 0.765824 0)
(-0.0733356 0.725597 0)
(0.0101961 0.668266 0)
(0.0992945 0.635731 0)
(0.189074 0.651699 0)
(0.262625 0.706853 0)
(0.306615 0.789469 0)
(0.275441 0.880195 0)
(0.166829 0.958804 0)
(0.0405825 0.975794 0)
(-0.0748603 0.894994 0)
(-0.187713 0.915411 0)
(-0.294409 0.983598 0)
(-0.38382 1.00856 0)
(-0.460823 0.990458 0)
(-0.522468 0.904356 0)
(-0.519089 0.763527 0)
(-0.465681 0.644131 0)
(-0.381414 0.568 0)
(-0.280742 0.531704 0)
(-0.179147 0.565743 0)
(-0.0727219 0.634769 0)
(0.0205946 0.68454 0)
(0.0718252 0.73081 0)
(0.0735793 0.780439 0)
(0.0175787 0.828489 0)
(-0.0189634 0.880264 0)
(-0.0572609 0.881238 0)
(-0.107549 0.85678 0)
(-0.118959 0.794552 0)
(-0.0793806 0.707594 0)
(-0.00147765 0.641096 0)
(0.0590181 0.574847 0)
(0.118173 0.526441 0)
(0.18184 0.545679 0)
(0.247801 0.615318 0)
(0.299821 0.741278 0)
(0.284473 0.915387 0)
(0.174926 1.02811 0)
(0.0618272 1.01486 0)
(-0.0573805 0.973892 0)
(-0.19376 0.983386 0)
(-0.298763 1.01096 0)
(-0.367567 1.01235 0)
(-0.42327 0.990206 0)
(-0.427786 0.859063 0)
(-0.363055 0.677555 0)
(-0.282777 0.545901 0)
(-0.215646 0.48866 0)
(-0.166718 0.462733 0)
(-0.125177 0.482528 0)
(-0.069668 0.539232 0)
(-0.00169113 0.610563 0)
(0.0673093 0.6791 0)
(0.102224 0.823387 0)
(0.0305803 0.886586 0)
(-0.0170655 0.933316 0)
(-0.0414442 0.935416 0)
(-0.0482853 0.889861 0)
(-0.0133931 0.767353 0)
(0.0270068 0.678301 0)
(0.0518039 0.630197 0)
(0.0620869 0.587495 0)
(0.0631297 0.544213 0)
(0.0683443 0.53967 0)
(0.101717 0.5717 0)
(0.163072 0.689617 0)
(0.208253 0.946835 0)
(0.146203 1.12231 0)
(0.0410016 1.10596 0)
(-0.0610637 1.07646 0)
(-0.162101 1.06872 0)
(-0.250721 1.07155 0)
(-0.316746 1.05523 0)
(-0.328879 0.987055 0)
(-0.244329 0.775287 0)
(-0.135421 0.584069 0)
(-0.0743444 0.498514 0)
(-0.0557511 0.48534 0)
(-0.056886 0.485847 0)
(-0.0567022 0.507556 0)
(-0.036857 0.540702 0)
(-0.0177885 0.606443 0)
(0.0234611 0.656044 0)
(0.0525993 0.844246 0)
(0.0274829 0.990588 0)
(-0.00952826 1.02174 0)
(0.00642047 0.990465 0)
(0.0718396 0.928975 0)
(0.0954625 0.823211 0)
(0.0769656 0.750228 0)
(0.0468238 0.703073 0)
(0.0198804 0.64733 0)
(-0.010615 0.598385 0)
(-0.0423182 0.569715 0)
(-0.051267 0.563769 0)
(-0.01309 0.633715 0)
(0.0582928 0.914461 0)
(0.0748742 1.18978 0)
(-0.00292369 1.18064 0)
(-0.0805147 1.14597 0)
(-0.140251 1.12857 0)
(-0.205307 1.11325 0)
(-0.238526 1.06934 0)
(-0.163108 0.893041 0)
(-0.0238878 0.655978 0)
(0.0624387 0.534587 0)
(0.0666987 0.505923 0)
(0.037768 0.512994 0)
(0.00466971 0.51525 0)
(-0.013941 0.527375 0)
(-0.0136249 0.560163 0)
(0.00425306 0.631603 0)
(0.0110515 0.719393 0)
(0.000730676 0.907029 0)
(0.00383903 1.09857 0)
(-0.0030279 1.10877 0)
(0.0453914 1.01189 0)
(0.113409 0.973439 0)
(0.118858 0.953874 0)
(0.0427653 0.896539 0)
(-0.038117 0.812231 0)
(-0.0808406 0.711785 0)
(-0.105665 0.657102 0)
(-0.141248 0.620858 0)
(-0.178263 0.599175 0)
(-0.185759 0.625629 0)
(-0.125777 0.855824 0)
(-0.0644616 1.21474 0)
(-0.0800805 1.24215 0)
(-0.129031 1.18722 0)
(-0.138406 1.15627 0)
(-0.142386 1.13711 0)
(-0.0819895 1.02225 0)
(0.0549648 0.756003 0)
(0.180558 0.588329 0)
(0.205968 0.545591 0)
(0.164293 0.560968 0)
(0.0986237 0.573263 0)
(0.0426201 0.562554 0)
(0.0154279 0.550574 0)
(0.0207755 0.564317 0)
(0.0557677 0.627211 0)
(0.0725898 0.772042 0)
(0.0303301 1.04485 0)
(0.0139756 1.23361 0)
(0.0166617 0.997147 0)
(0.0673558 0.882251 0)
(0.114899 0.87247 0)
(0.09963 0.880985 0)
(0.00741853 0.892535 0)
(-0.10326 0.873567 0)
(-0.17334 0.773561 0)
(-0.199323 0.704685 0)
(-0.215431 0.667078 0)
(-0.261012 0.661759 0)
(-0.312274 0.675428 0)
(-0.306864 0.844404 0)
(-0.253969 1.19932 0)
(-0.198809 1.28642 0)
(-0.182192 1.19167 0)
(-0.122721 1.12657 0)
(-0.0180232 1.08113 0)
(0.1269 0.921431 0)
(0.255521 0.665477 0)
(0.334866 0.581782 0)
(0.310676 0.607004 0)
(0.240923 0.646266 0)
(0.143906 0.677875 0)
(0.0534872 0.638793 0)
(0.017653 0.574714 0)
(0.0468564 0.546854 0)
(0.0935302 0.624125 0)
(0.136831 0.821959 0)
(0.117158 0.988661 0)
(0.0552881 1.13344 0)
(0.0447862 0.927657 0)
(0.132094 0.780544 0)
(0.202503 0.81811 0)
(0.209974 0.913636 0)
(0.158191 0.952451 0)
(0.0568413 0.868031 0)
(-0.0693028 0.742557 0)
(-0.168731 0.732976 0)
(-0.222587 0.742982 0)
(-0.286257 0.754976 0)
(-0.369191 0.778672 0)
(-0.438138 0.914191 0)
(-0.411663 1.18941 0)
(-0.301939 1.27346 0)
(-0.202973 1.14691 0)
(-0.0637677 1.01934 0)
(0.114208 0.972614 0)
(0.286866 0.828794 0)
(0.404923 0.620339 0)
(0.436571 0.620754 0)
(0.402821 0.675584 0)
(0.338799 0.733483 0)
(0.186694 0.815181 0)
(0.0106956 0.74691 0)
(-0.061368 0.638136 0)
(-0.032036 0.585154 0)
(0.00918925 0.579205 0)
(0.0620857 0.641332 0)
(0.0889071 0.99127 0)
(0.0533377 1.17998 0)
(0.0463078 0.734231 0)
(0.128713 0.599364 0)
(0.240357 0.682283 0)
(0.307008 0.798633 0)
(0.359648 0.897553 0)
(0.37226 0.937141 0)
(0.28641 0.896275 0)
(0.124951 0.770288 0)
(-0.0307687 0.718812 0)
(-0.173868 0.783891 0)
(-0.321432 0.894195 0)
(-0.44225 1.0419 0)
(-0.449675 1.20553 0)
(-0.345811 1.25075 0)
(-0.194119 1.07464 0)
(-0.00477273 0.890074 0)
(0.170159 0.867723 0)
(0.357769 0.734259 0)
(0.459867 0.600493 0)
(0.494952 0.639316 0)
(0.485965 0.703314 0)
(0.425496 0.812824 0)
(0.141642 1.00112 0)
(-0.211284 0.900645 0)
(-0.391031 0.713516 0)
(-0.445128 0.551588 0)
(-0.412502 0.565653 0)
(-0.328029 0.630861 0)
(-0.182856 0.84398 0)
(-0.0396418 1.08214 0)
(0.0309838 0.687026 0)
(0.0648263 0.466465 0)
(0.158175 0.560908 0)
(0.24041 0.692908 0)
(0.321612 0.78197 0)
(0.40398 0.826267 0)
(0.471071 0.871453 0)
(0.464204 0.886003 0)
(0.352815 0.920064 0)
(0.166057 0.929063 0)
(-0.00966375 0.937178 0)
(-0.193324 0.990747 0)
(-0.300366 1.13184 0)
(-0.29476 1.17897 0)
(-0.187933 0.983177 0)
(-0.0167683 0.760055 0)
(0.153821 0.757533 0)
(0.347427 0.611712 0)
(0.469902 0.554491 0)
(0.510778 0.619026 0)
(0.494038 0.724065 0)
(0.27967 0.90638 0)
(-0.218369 1.29041 0)
(-0.660813 1.10986 0)
(-0.821924 0.769219 0)
(-0.758346 0.576417 0)
(-0.642008 0.488467 0)
(-0.488222 0.448275 0)
(-0.318644 0.609763 0)
(-0.11623 0.902518 0)
(0.0377932 0.679042 0)
(0.0340556 0.452699 0)
(0.0376232 0.527925 0)
(0.0778327 0.637251 0)
(0.14372 0.71146 0)
(0.217738 0.743514 0)
(0.317885 0.771445 0)
(0.415574 0.804681 0)
(0.482338 0.901185 0)
(0.439568 0.942185 0)
(0.34953 1.05669 0)
(0.182104 1.20456 0)
(0.0385403 1.15081 0)
(-0.053564 1.043 0)
(-0.0971945 0.847284 0)
(-0.057019 0.601399 0)
(0.100018 0.595265 0)
(0.321932 0.454875 0)
(0.443699 0.484501 0)
(0.465363 0.618353 0)
(0.289353 0.775263 0)
(-0.0855407 1.30368 0)
(-0.470766 1.59446 0)
(-0.69742 1.29072 0)
(-0.665209 0.627045 0)
(-0.553361 0.385092 0)
(-0.436809 0.371005 0)
(-0.340102 0.394614 0)
(-0.257829 0.517016 0)
(-0.131007 0.738541 0)
(0.0515485 0.682851 0)
(0.0180023 0.540964 0)
(-0.0278959 0.601713 0)
(-0.0599281 0.661987 0)
(-0.0449721 0.698522 0)
(-0.00900341 0.701253 0)
(0.0523035 0.68382 0)
(0.155849 0.693103 0)
(0.30488 0.793097 0)
(0.437513 0.948331 0)
(0.432938 1.01934 0)
(0.391173 1.10759 0)
(0.336923 1.1521 0)
(0.222994 1.14847 0)
(0.076014 0.873598 0)
(0.0208297 0.495694 0)
(0.127459 0.400212 0)
(0.336802 0.292267 0)
(0.418108 0.435933 0)
(0.306908 0.659956 0)
(-0.0394001 1.06304 0)
(-0.309453 1.4641 0)
(-0.385242 1.57678 0)
(-0.378728 1.15155 0)
(-0.31546 0.441292 0)
(-0.254256 0.249631 0)
(-0.214005 0.313402 0)
(-0.194573 0.404757 0)
(-0.172039 0.541087 0)
(-0.0950733 0.680819 0)
(0.0324937 0.69979 0)
(-0.00841755 0.650914 0)
(-0.089028 0.700583 0)
(-0.131936 0.752962 0)
(-0.159833 0.764565 0)
(-0.165037 0.731713 0)
(-0.151075 0.671539 0)
(-0.106353 0.619476 0)
(-0.00334079 0.63765 0)
(0.190444 0.79409 0)
(0.375578 1.04035 0)
(0.402266 1.1061 0)
(0.346126 1.1047 0)
(0.31971 1.06845 0)
(0.268787 0.904054 0)
(0.210507 0.478393 0)
(0.256562 0.247461 0)
(0.36248 0.202581 0)
(0.302538 0.421844 0)
(0.0911498 0.934268 0)
(-0.203846 1.22102 0)
(-0.251411 1.43648 0)
(-0.175227 1.48982 0)
(-0.0805358 1.06202 0)
(-0.0427256 0.347287 0)
(-0.0309166 0.194189 0)
(-0.0426626 0.314319 0)
(-0.0716383 0.447707 0)
(-0.0906682 0.584912 0)
(-0.0492908 0.66792 0)
(0.0102934 0.713689 0)
(-0.0321635 0.757887 0)
(-0.118135 0.808355 0)
(-0.187056 0.840831 0)
(-0.2228 0.847052 0)
(-0.241197 0.809059 0)
(-0.257405 0.727809 0)
(-0.261927 0.643552 0)
(-0.235357 0.585931 0)
(-0.12594 0.612264 0)
(0.102151 0.845452 0)
(0.308475 1.14189 0)
(0.29241 1.13213 0)
(0.274267 1.0565 0)
(0.326299 0.863474 0)
(0.35942 0.460169 0)
(0.371791 0.201226 0)
(0.341083 0.18388 0)
(0.188368 0.597972 0)
(-0.0649264 1.08003 0)
(-0.16442 1.24168 0)
(-0.116874 1.37454 0)
(0.031397 1.38751 0)
(0.209755 1.03706 0)
(0.234203 0.352947 0)
(0.177011 0.243336 0)
(0.117879 0.378685 0)
(0.057758 0.518109 0)
(0.0122693 0.673021 0)
(-0.00340753 0.726232 0)
(0.00751678 0.730922 0)
(-0.0259802 0.84976 0)
(-0.109972 0.904471 0)
(-0.189503 0.927317 0)
(-0.250596 0.917016 0)
(-0.282247 0.867522 0)
(-0.302785 0.795659 0)
(-0.329381 0.712861 0)
(-0.348474 0.631274 0)
(-0.32431 0.57189 0)
(-0.204469 0.656357 0)
(0.0196237 1.00549 0)
(0.153755 1.18897 0)
(0.199652 1.07352 0)
(0.311058 0.797034 0)
(0.374956 0.467389 0)
(0.339408 0.265023 0)
(0.222561 0.271529 0)
(0.0643982 0.790785 0)
(-0.0896195 1.15055 0)
(-0.0654889 1.21542 0)
(0.0645342 1.26961 0)
(0.292538 1.22504 0)
(0.512076 0.941748 0)
(0.509791 0.500591 0)
(0.375672 0.414905 0)
(0.259869 0.5088 0)
(0.142088 0.619925 0)
(0.0223747 0.70194 0)
(-0.000273423 0.678836 0)
(0.0434283 0.716857 0)
(0.0236481 0.948717 0)
(-0.0975375 0.998047 0)
(-0.185091 1.00068 0)
(-0.255705 0.968937 0)
(-0.297451 0.909564 0)
(-0.327289 0.853033 0)
(-0.368896 0.785183 0)
(-0.412424 0.700669 0)
(-0.432292 0.622208 0)
(-0.380844 0.612381 0)
(-0.252741 0.860321 0)
(-0.061957 1.09508 0)
(0.0800994 0.991509 0)
(0.1977 0.716354 0)
(0.242222 0.502651 0)
(0.197841 0.353713 0)
(0.0693749 0.389987 0)
(-0.038463 0.89767 0)
(-0.0490638 1.1451 0)
(0.0638476 1.13329 0)
(0.31194 1.15357 0)
(0.580116 1.1291 0)
(0.721862 0.967522 0)
(0.637112 0.687073 0)
(0.45371 0.558639 0)
(0.220853 0.54203 0)
(0.0608257 0.631205 0)
(-0.0612208 0.713727 0)
(-0.0421521 0.59554 0)
(0.0292044 0.69037 0)
(0.031875 1.00048 0)
(-0.0742515 1.00406 0)
(-0.148709 1.03479 0)
(-0.203254 1.0301 0)
(-0.237731 0.98422 0)
(-0.297726 0.945091 0)
(-0.387596 0.894019 0)
(-0.466935 0.782792 0)
(-0.505642 0.676723 0)
(-0.48638 0.640183 0)
(-0.401612 0.812923 0)
(-0.233005 1.01856 0)
(-0.0619225 0.926704 0)
(0.0369504 0.69251 0)
(0.0639724 0.541534 0)
(0.0160238 0.438995 0)
(-0.0840175 0.508417 0)
(-0.0990269 0.889275 0)
(0.03217 1.13592 0)
(0.219496 0.990926 0)
(0.483357 0.937912 0)
(0.710087 1.04135 0)
(0.766035 0.998649 0)
(0.618833 0.77664 0)
(0.428094 0.750494 0)
(0.184207 0.777256 0)
(-0.0077162 0.76988 0)
(-0.12164 0.68419 0)
(-0.069541 0.465032 0)
(-0.0211578 0.518772 0)
(0.0254774 0.963579 0)
(-0.03295 0.997145 0)
(-0.0813666 0.966675 0)
(-0.138816 0.894295 0)
(-0.204505 0.838757 0)
(-0.302836 0.882084 0)
(-0.412094 0.905629 0)
(-0.518983 0.869717 0)
(-0.563514 0.724026 0)
(-0.534639 0.648326 0)
(-0.460787 0.787036 0)
(-0.309889 0.954794 0)
(-0.150887 0.880234 0)
(-0.0776946 0.703268 0)
(-0.0839714 0.586504 0)
(-0.140704 0.516665 0)
(-0.197353 0.575351 0)
(-0.136679 0.793755 0)
(0.0972413 0.990832 0)
(0.36568 0.839402 0)
(0.545481 0.829685 0)
(0.664947 0.971137 0)
(0.610177 1.02198 0)
(0.45057 0.921955 0)
(0.251904 0.834443 0)
(0.0930912 0.783856 0)
(-0.0220625 0.769683 0)
(-0.108914 0.708086 0)
(-0.0561449 0.279994 0)
(-0.0460013 0.578353 0)
(-0.014152 0.858556 0)
(0.0121686 0.908929 0)
(-0.00280928 0.945996 0)
(-0.0833077 0.975268 0)
(-0.224957 0.966744 0)
(-0.40523 0.999451 0)
(-0.525218 0.928384 0)
(-0.582712 0.797615 0)
(-0.625827 0.69629 0)
(-0.580388 0.605872 0)
(-0.457503 0.718451 0)
(-0.326261 0.867705 0)
(-0.203873 0.831927 0)
(-0.15328 0.719063 0)
(-0.166519 0.634037 0)
(-0.208044 0.587552 0)
(-0.230769 0.61113 0)
(-0.166772 0.698338 0)
(0.0528178 0.803227 0)
(0.337145 0.709219 0)
(0.421244 0.688854 0)
(0.464016 0.953024 0)
(0.353928 1.01272 0)
(0.243885 0.930609 0)
(0.158148 0.888065 0)
(0.0651642 0.881064 0)
(-0.0392493 0.859687 0)
(-0.0706854 0.694702 0)
(-0.0145404 0.209142 0)
(0.00978897 0.49513 0)
(0.0693718 0.76241 0)
(0.071258 0.844463 0)
(0.0325006 0.900651 0)
(-0.0322284 0.939806 0)
(-0.137201 0.960344 0)
(-0.271489 0.946962 0)
(-0.40157 0.90843 0)
(-0.484621 0.80833 0)
(-0.525237 0.648724 0)
(-0.549057 0.508365 0)
(-0.43079 0.618055 0)
(-0.315811 0.779833 0)
(-0.231577 0.776809 0)
(-0.184438 0.71188 0)
(-0.183036 0.662671 0)
(-0.207381 0.637587 0)
(-0.225288 0.643811 0)
(-0.193919 0.660383 0)
(-0.0777383 0.653901 0)
(0.0991189 0.563811 0)
(0.157497 0.604296 0)
(0.191906 0.921422 0)
(0.179232 0.962696 0)
(0.157862 0.959101 0)
(0.106978 0.945005 0)
(0.0484491 0.950658 0)
(-0.0286304 0.91125 0)
(-0.0158898 0.652966 0)
(0.0128066 0.198035 0)
(0.0454155 0.423652 0)
(0.128924 0.717452 0)
(0.141767 0.875981 0)
(0.0967349 0.953945 0)
(0.0342836 1.01688 0)
(-0.0399629 1.04802 0)
(-0.139942 1.0764 0)
(-0.191059 0.894776 0)
(-0.209942 0.739835 0)
(-0.284184 0.670866 0)
(-0.328994 0.471009 0)
(-0.351536 0.530503 0)
(-0.255907 0.712156 0)
(-0.19952 0.722744 0)
(-0.157721 0.697453 0)
(-0.155749 0.680042 0)
(-0.177328 0.671055 0)
(-0.205299 0.670161 0)
(-0.220195 0.660146 0)
(-0.20999 0.610618 0)
(-0.184548 0.509622 0)
(-0.155971 0.558892 0)
(-0.0755854 0.803057 0)
(0.078188 0.915913 0)
(0.109422 0.959644 0)
(0.0888884 0.977721 0)
(0.0368245 0.99309 0)
(0.0159098 0.991092 0)
(0.0522371 0.610281 0)
(0.0324242 0.234062 0)
(0.0383918 0.321315 0)
(0.145159 0.695795 0)
(0.205071 0.873884 0)
(0.181191 0.980657 0)
(0.132764 1.06745 0)
(0.0783478 1.09258 0)
(0.0468542 1.10511 0)
(0.0529216 0.907305 0)
(0.00869391 0.763033 0)
(-0.0373346 0.694245 0)
(-0.126922 0.544248 0)
(-0.226268 0.505329 0)
(-0.162793 0.667852 0)
(-0.122971 0.685796 0)
(-0.0972843 0.691636 0)
(-0.106358 0.700125 0)
(-0.138246 0.706818 0)
(-0.185577 0.71202 0)
(-0.242394 0.697025 0)
(-0.303762 0.648655 0)
(-0.361835 0.58033 0)
(-0.358179 0.576921 0)
(-0.279316 0.670657 0)
(-0.0730836 0.856257 0)
(0.0696188 1.00409 0)
(0.0936694 0.992882 0)
(0.0799583 1.08772 0)
(0.0980189 0.958825 0)
(0.120498 0.618409 0)
(0.0499215 0.311958 0)
(0.00443878 0.277228 0)
(0.0795906 0.571903 0)
(0.214546 0.891597 0)
(0.252341 1.05873 0)
(0.249604 1.16542 0)
(0.234731 1.18546 0)
(0.242054 1.10875 0)
(0.241979 0.933708 0)
(0.14686 0.848427 0)
(0.0978128 0.745883 0)
(-0.00879134 0.669056 0)
(-0.0876948 0.519859 0)
(-0.049938 0.627536 0)
(-0.0262505 0.663377 0)
(-0.0209607 0.697198 0)
(-0.0431373 0.731172 0)
(-0.0874673 0.751396 0)
(-0.158963 0.776497 0)
(-0.258909 0.778004 0)
(-0.355977 0.732767 0)
(-0.434951 0.680096 0)
(-0.464363 0.658635 0)
(-0.404116 0.651921 0)
(-0.276348 0.706415 0)
(-0.0649992 0.890779 0)
(0.0840546 1.02675 0)
(0.147052 1.07932 0)
(0.183983 0.958293 0)
(0.164475 0.678232 0)
(0.0644453 0.423625 0)
(-0.0126572 0.294059 0)
(-0.0074747 0.478237 0)
(0.132669 0.784181 0)
(0.250367 1.00934 0)
(0.314183 1.14739 0)
(0.360087 1.18058 0)
(0.377879 1.12188 0)
(0.32397 1.00764 0)
(0.196041 0.959885 0)
(0.120341 0.827433 0)
(0.0295792 0.745225 0)
(0.0811342 0.557222 0)
(0.082053 0.604321 0)
(0.0824462 0.657139 0)
(0.0712393 0.712719 0)
(0.0269516 0.767723 0)
(-0.0335251 0.786438 0)
(-0.115373 0.837637 0)
(-0.265967 0.872537 0)
(-0.401423 0.814996 0)
(-0.482053 0.757775 0)
(-0.519105 0.724245 0)
(-0.500891 0.702627 0)
(-0.409189 0.696125 0)
(-0.263133 0.758699 0)
(-0.0422246 0.924299 0)
(0.143891 1.05415 0)
(0.213082 0.98864 0)
(0.181195 0.761652 0)
(0.0762803 0.553801 0)
(-0.0302042 0.352941 0)
(-0.0438695 0.447568 0)
(0.0442952 0.682125 0)
(0.194541 0.936783 0)
(0.314319 1.10775 0)
(0.394239 1.17579 0)
(0.394052 1.17096 0)
(0.285071 1.12242 0)
(0.156194 1.0614 0)
(0.0829377 0.935567 0)
(0.107071 0.698004 0)
(0.21468 0.576263 0)
(0.201509 0.610018 0)
(0.188118 0.664072 0)
(0.151054 0.732209 0)
(0.0539524 0.804676 0)
(-0.0361532 0.782948 0)
(-0.0779289 0.877632 0)
(-0.245071 0.974192 0)
(-0.422457 0.866007 0)
(-0.519596 0.789017 0)
(-0.547325 0.74588 0)
(-0.537789 0.722067 0)
(-0.49051 0.714152 0)
(-0.384456 0.736935 0)
(-0.228318 0.802141 0)
(0.00214267 0.950767 0)
(0.151947 1.01574 0)
(0.17309 0.837952 0)
(0.0773111 0.697152 0)
(-0.0288685 0.412523 0)
(-0.068553 0.459093 0)
(-0.0261662 0.608681 0)
(0.105156 0.84274 0)
(0.259052 1.0228 0)
(0.350327 1.16386 0)
(0.294738 1.25729 0)
(0.148667 1.25119 0)
(0.0559393 1.15858 0)
(0.102506 0.924349 0)
(0.247709 0.644112 0)
(0.294541 0.601967 0)
(0.281621 0.627021 0)
(0.258081 0.669038 0)
(0.167094 0.771655 0)
(0.00719621 0.894074 0)
(-0.0636093 0.796279 0)
(-0.135817 0.923759 0)
(-0.255084 1.10027 0)
(-0.418463 0.937244 0)
(-0.517886 0.775002 0)
(-0.552045 0.722884 0)
(-0.536251 0.699072 0)
(-0.496408 0.6957 0)
(-0.431201 0.715997 0)
(-0.32525 0.762771 0)
(-0.178001 0.833096 0)
(0.00524648 0.950699 0)
(0.119987 0.876345 0)
(0.06426 0.843015 0)
(-0.023603 0.466446 0)
(-0.0737719 0.499427 0)
(-0.0799674 0.567241 0)
(0.0118038 0.742688 0)
(0.158573 0.919997 0)
(0.22063 1.18417 0)
(0.121895 1.38115 0)
(-0.00078416 1.37031 0)
(0.0436171 1.14029 0)
(0.219909 0.785903 0)
(0.343172 0.638784 0)
(0.342962 0.627097 0)
(0.318811 0.635843 0)
(0.256792 0.685663 0)
(0.137089 0.872658 0)
(-0.0178158 0.957224 0)
(-0.0613667 0.836991 0)
(-0.208713 1.0194 0)
(-0.295996 1.15099 0)
(-0.385691 0.986293 0)
(-0.488682 0.739874 0)
(-0.505368 0.674533 0)
(-0.507565 0.648277 0)
(-0.467606 0.650917 0)
(-0.414283 0.670242 0)
(-0.34046 0.712582 0)
(-0.245011 0.780198 0)
(-0.114031 0.848995 0)
(0.0254529 0.847727 0)
(0.0266 0.950374 0)
(-0.0168246 0.512419 0)
(-0.0666003 0.553578 0)
(-0.10092 0.564125 0)
(-0.0557667 0.661256 0)
(0.0503201 0.840609 0)
(0.0610719 1.24382 0)
(-0.0507174 1.49414 0)
(-0.0341348 1.37383 0)
(0.154714 0.994409 0)
(0.33822 0.72472 0)
(0.377484 0.662409 0)
(0.350635 0.64996 0)
(0.298344 0.649665 0)
(0.205301 0.737328 0)
(0.0750355 0.930636 0)
(0.00542947 1.00253 0)
(-0.0675254 0.965191 0)
(-0.266667 1.17031 0)
(-0.349512 1.18434 0)
(-0.350971 0.981177 0)
(-0.385766 0.70981 0)
(-0.405515 0.632928 0)
(-0.434618 0.597761 0)
(-0.415972 0.601068 0)
(-0.373054 0.617748 0)
(-0.315242 0.651268 0)
(-0.238854 0.709732 0)
(-0.139032 0.771779 0)
(-0.0435403 0.80838 0)
(-0.0119521 0.975704 0)
(-0.00397434 0.546042 0)
(-0.0571136 0.627739 0)
(-0.112171 0.576735 0)
(-0.0868418 0.613891 0)
(-0.0377112 0.8023 0)
(-0.0772844 1.34362 0)
(-0.137583 1.53014 0)
(0.0477966 1.24118 0)
(0.282556 0.856366 0)
(0.384941 0.719403 0)
(0.373108 0.694458 0)
(0.318724 0.685117 0)
(0.219746 0.704906 0)
(0.087286 0.857178 0)
(-0.0165912 0.975589 0)
(-0.00320502 1.03735 0)
(-0.0952328 1.13353 0)
(-0.280461 1.31979 0)
(-0.333689 1.22563 0)
(-0.249947 0.956328 0)
(-0.243544 0.726372 0)
(-0.279048 0.647926 0)
(-0.338661 0.577088 0)
(-0.348355 0.564846 0)
(-0.323557 0.572628 0)
(-0.278709 0.594447 0)
(-0.216685 0.636077 0)
(-0.137018 0.68854 0)
(-0.0650501 0.755386 0)
(-0.0260966 0.949389 0)
(0.0146081 0.556459 0)
(-0.0519564 0.751878 0)
(-0.131075 0.583986 0)
(-0.0994574 0.588709 0)
(-0.107131 0.833189 0)
(-0.186179 1.42669 0)
(-0.105382 1.43635 0)
(0.164953 1.0328 0)
(0.353438 0.790434 0)
(0.388339 0.733598 0)
(0.353241 0.731212 0)
(0.274548 0.748057 0)
(0.152047 0.822993 0)
(0.0144393 1.00036 0)
(-0.0253362 1.04391 0)
(-0.0920139 1.15818 0)
(-0.133792 1.30943 0)
(-0.217486 1.44813 0)
(-0.191361 1.2639 0)
(-0.164231 0.904702 0)
(-0.137383 0.77914 0)
(-0.20098 0.69358 0)
(-0.255454 0.590317 0)
(-0.285799 0.549351 0)
(-0.27668 0.537848 0)
(-0.241992 0.546526 0)
(-0.191713 0.573626 0)
(-0.128342 0.618329 0)
(-0.0713436 0.70047 0)
(-0.0292137 0.894028 0)
(0.0235519 0.531831 0)
(-0.00679997 0.867213 0)
(-0.126118 0.616497 0)
(-0.102262 0.571931 0)
(-0.15913 0.90152 0)
(-0.22184 1.40929 0)
(0.00822884 1.2181 0)
(0.268193 0.863506 0)
(0.380657 0.758941 0)
(0.382775 0.755985 0)
(0.335536 0.783922 0)
(0.244457 0.845343 0)
(0.117186 0.972083 0)
(0.000826286 1.13813 0)
(-0.0953426 1.20827 0)
(-0.141771 1.30763 0)
(-0.187189 1.42763 0)
(-0.119759 1.55421 0)
(-0.0599782 1.28811 0)
(-0.0640693 1.00268 0)
(-0.121141 0.847965 0)
(-0.164183 0.736195 0)
(-0.20537 0.625728 0)
(-0.240962 0.553926 0)
(-0.241254 0.512538 0)
(-0.212504 0.50576 0)
(-0.170079 0.520389 0)
(-0.117985 0.558752 0)
(-0.0721856 0.65113 0)
(-0.0273721 0.83408 0)
(-0.0208014 0.473839 0)
(0.0578089 0.917621 0)
(-0.0304222 0.667972 0)
(-0.115946 0.606515 0)
(-0.21085 1.01135 0)
(-0.145178 1.26546 0)
(0.15339 0.958991 0)
(0.354233 0.760493 0)
(0.409367 0.749795 0)
(0.400378 0.786148 0)
(0.359333 0.849683 0)
(0.284839 0.963494 0)
(0.148417 1.15186 0)
(-0.0197259 1.30376 0)
(-0.172817 1.39165 0)
(-0.280268 1.4891 0)
(-0.265117 1.56801 0)
(-0.14965 1.57356 0)
(-0.0137072 1.37179 0)
(-0.0544878 1.1034 0)
(-0.12868 0.9107 0)
(-0.157233 0.768568 0)
(-0.188697 0.667914 0)
(-0.223751 0.574624 0)
(-0.226509 0.492656 0)
(-0.196482 0.469554 0)
(-0.156935 0.473162 0)
(-0.111552 0.505588 0)
(-0.0713173 0.603702 0)
(-0.0225454 0.775348 0)
(-0.0511808 0.476572 0)
(0.0554026 0.82656 0)
(0.0785639 0.778294 0)
(-0.0379242 0.689898 0)
(-0.158935 0.997934 0)
(0.0358814 1.02784 0)
(0.309495 0.764987 0)
(0.428689 0.715314 0)
(0.453231 0.751984 0)
(0.455092 0.811612 0)
(0.449628 0.900679 0)
(0.41544 1.0568 0)
(0.220406 1.35264 0)
(-0.105291 1.47231 0)
(-0.317551 1.5136 0)
(-0.415051 1.55076 0)
(-0.382414 1.58482 0)
(-0.251349 1.54753 0)
(-0.139865 1.43207 0)
(-0.111594 1.24432 0)
(-0.174575 1.03271 0)
(-0.198112 0.89647 0)
(-0.21737 0.775321 0)
(-0.248521 0.609895 0)
(-0.24006 0.467906 0)
(-0.197093 0.432953 0)
(-0.153637 0.429086 0)
(-0.111128 0.456821 0)
(-0.0705465 0.555899 0)
(-0.0201974 0.722329 0)
(-0.0467032 0.53381 0)
(-0.0168381 0.681725 0)
(0.103616 0.776418 0)
(0.043251 0.824891 0)
(-0.00749788 0.95231 0)
(0.225717 0.787081 0)
(0.422897 0.681296 0)
(0.482359 0.703398 0)
(0.504555 0.753011 0)
(0.525213 0.812674 0)
(0.558353 0.887543 0)
(0.537647 1.11998 0)
(0.154275 1.59386 0)
(-0.351433 1.64176 0)
(-0.577318 1.59269 0)
(-0.608476 1.5911 0)
(-0.540764 1.59724 0)
(-0.430569 1.58414 0)
(-0.417057 1.39974 0)
(-0.458047 1.23492 0)
(-0.480381 1.05581 0)
(-0.47149 0.845247 0)
(-0.425068 0.759028 0)
(-0.349764 0.57832 0)
(-0.279325 0.411339 0)
(-0.209848 0.387075 0)
(-0.157954 0.385499 0)
(-0.114917 0.410693 0)
(-0.0713088 0.506123 0)
(-0.0183724 0.67299 0)
(-0.0475798 0.61514 0)
(-0.0619568 0.598169 0)
(0.0396384 0.711068 0)
(0.0688749 0.877252 0)
(0.181482 0.819966 0)
(0.387142 0.65304 0)
(0.485562 0.656945 0)
(0.518774 0.69855 0)
(0.542982 0.744383 0)
(0.562263 0.77806 0)
(0.620173 0.794282 0)
(0.514578 1.28747 0)
(-0.196207 2.00835 0)
(-0.80281 1.88201 0)
(-1.16802 1.54884 0)
(-1.2899 1.38711 0)
(-1.28409 1.39097 0)
(-1.24746 1.41993 0)
(-1.2093 1.41799 0)
(-1.12274 1.24942 0)
(-0.953466 1.00839 0)
(-0.713603 0.770794 0)
(-0.55537 0.652514 0)
(-0.382219 0.427473 0)
(-0.283371 0.324817 0)
(-0.213947 0.333863 0)
(-0.162515 0.342958 0)
(-0.119056 0.366124 0)
(-0.0724081 0.453355 0)
(-0.0176816 0.625506 0)
(-0.0257501 0.685501 0)
(-0.0634983 0.569364 0)
(-0.0221067 0.642613 0)
(0.11319 0.823911 0)
(0.316884 0.664966 0)
(0.455025 0.614735 0)
(0.501418 0.647815 0)
(0.535531 0.689487 0)
(0.537984 0.726252 0)
(0.521138 0.736272 0)
(0.559594 0.777356 0)
(0.0298217 1.82982 0)
(-0.734735 2.45057 0)
(-1.27992 2.18392 0)
(-1.6894 1.72346 0)
(-1.95788 1.49069 0)
(-1.99938 1.39477 0)
(-1.86762 1.33834 0)
(-1.59817 1.18954 0)
(-1.22996 0.923188 0)
(-0.871398 0.650606 0)
(-0.590637 0.471648 0)
(-0.442002 0.458512 0)
(-0.299281 0.274723 0)
(-0.244891 0.256873 0)
(-0.203745 0.289123 0)
(-0.163618 0.304796 0)
(-0.120966 0.323145 0)
(-0.0726976 0.399524 0)
(-0.0186933 0.577879 0)
(-0.00711874 0.710089 0)
(-0.0332961 0.542979 0)
(0.0116475 0.573885 0)
(0.183924 0.663275 0)
(0.363486 0.591903 0)
(0.448299 0.59212 0)
(0.499761 0.627772 0)
(0.522351 0.663969 0)
(0.492627 0.712519 0)
(0.47467 0.707736 0)
(0.256793 1.12567 0)
(-0.619946 2.4267 0)
(-1.20338 2.82752 0)
(-1.56603 2.44101 0)
(-1.81435 1.84124 0)
(-1.91199 1.38019 0)
(-1.87468 1.14043 0)
(-1.61861 0.913932 0)
(-1.2468 0.69504 0)
(-0.852214 0.486039 0)
(-0.561449 0.334791 0)
(-0.41926 0.302315 0)
(-0.318219 0.30661 0)
(-0.23038 0.206149 0)
(-0.210867 0.228471 0)
(-0.194351 0.260655 0)
(-0.16508 0.272188 0)
(-0.121083 0.281573 0)
(-0.0718551 0.346357 0)
(-0.0207664 0.528689 0)
(0.0129215 0.711538 0)
(0.0269163 0.506078 0)
(0.0900638 0.497509 0)
(0.215557 0.532237 0)
(0.338997 0.525574 0)
(0.419284 0.550184 0)
(0.475282 0.586774 0)
(0.478751 0.637442 0)
(0.420107 0.713547 0)
(0.311795 0.828772 0)
(-0.384531 1.91777 0)
(-1.18955 3.02794 0)
(-1.52569 3.15121 0)
(-1.67684 2.61566 0)
(-1.69727 1.88193 0)
(-1.62669 1.31233 0)
(-1.38958 0.87153 0)
(-1.06585 0.544994 0)
(-0.754167 0.336199 0)
(-0.503383 0.224717 0)
(-0.35651 0.189087 0)
(-0.321072 0.246012 0)
(-0.261581 0.210266 0)
(-0.210035 0.186748 0)
(-0.205263 0.220898 0)
(-0.196242 0.244181 0)
(-0.16673 0.240843 0)
(-0.120245 0.240687 0)
(-0.0709147 0.295307 0)
(-0.0240008 0.47769 0)
(0.0338297 0.65746 0)
(0.0757695 0.46398 0)
(0.12139 0.415936 0)
(0.212064 0.43063 0)
(0.30479 0.450558 0)
(0.387898 0.486987 0)
(0.435064 0.53258 0)
(0.42198 0.610893 0)
(0.326642 0.769234 0)
(-0.143321 1.34814 0)
(-1.06276 2.63575 0)
(-1.57153 3.4189 0)
(-1.69305 3.29881 0)
(-1.6182 2.58571 0)
(-1.42451 1.76775 0)
(-1.14054 1.03998 0)
(-0.846641 0.562287 0)
(-0.606368 0.286402 0)
(-0.440379 0.150653 0)
(-0.333554 0.11985 0)
(-0.289173 0.141252 0)
(-0.279352 0.223531 0)
(-0.230013 0.157481 0)
(-0.21331 0.177732 0)
(-0.214758 0.217491 0)
(-0.203866 0.229099 0)
(-0.169402 0.207359 0)
(-0.120866 0.201296 0)
(-0.0714962 0.247504 0)
(-0.027355 0.423761 0)
(0.0410966 0.600599 0)
(0.0871997 0.436831 0)
(0.12408 0.349855 0)
(0.187229 0.348708 0)
(0.271878 0.371995 0)
(0.345278 0.413333 0)
(0.375618 0.480487 0)
(0.33088 0.624527 0)
(-0.0290233 1.07291 0)
(-0.809304 2.16512 0)
(-1.46964 3.18649 0)
(-1.70477 3.60049 0)
(-1.63494 3.23945 0)
(-1.36198 2.33791 0)
(-1.01871 1.45094 0)
(-0.700728 0.738636 0)
(-0.488684 0.359325 0)
(-0.37712 0.180604 0)
(-0.331261 0.0991259 0)
(-0.304985 0.0928296 0)
(-0.295849 0.131503 0)
(-0.258532 0.16628 0)
(-0.221275 0.138499 0)
(-0.225185 0.171201 0)
(-0.229383 0.211458 0)
(-0.210078 0.208554 0)
(-0.174249 0.173118 0)
(-0.125294 0.165153 0)
(-0.0746728 0.203801 0)
(-0.0302278 0.367306 0)
(0.0504182 0.535451 0)
(0.0866069 0.414646 0)
(0.110788 0.30385 0)
(0.153286 0.281055 0)
(0.232217 0.291139 0)
(0.298595 0.344586 0)
(0.322727 0.47613 0)
(0.0548 0.794635 0)
(-0.497574 1.69938 0)
(-1.08758 2.66797 0)
(-1.43261 3.44763 0)
(-1.52339 3.61016 0)
(-1.34558 3.01002 0)
(-1.01395 2.04893 0)
(-0.663507 1.13861 0)
(-0.443269 0.538717 0)
(-0.336539 0.274301 0)
(-0.318287 0.164054 0)
(-0.322843 0.102727 0)
(-0.323165 0.0809949 0)
(-0.304514 0.107256 0)
(-0.270803 0.123056 0)
(-0.251246 0.132272 0)
(-0.250662 0.163373 0)
(-0.240759 0.194792 0)
(-0.210647 0.181849 0)
(-0.178339 0.140191 0)
(-0.130553 0.132743 0)
(-0.0789433 0.16247 0)
(-0.028344 0.314215 0)
(0.0553744 0.471062 0)
(0.081809 0.422504 0)
(0.0776583 0.281347 0)