/*--------------------------------*- C++ -*----------------------------------*\
| =========                 |                                                 |
| \\      /  F ield         | OpenFOAM: The Open Source CFD Toolbox           |
|  \\    /   O peration     | Version:  2.4.0                                 |
|   \\  /    A nd           | Web:      www.OpenFOAM.org                      |
|    \\/     M anipulation  |                                                 |
\*---------------------------------------------------------------------------*/
FoamFile
{
    version     2.0;
    format      ascii;
    class       volScalarField;
    location    "0.4";
    object      alpha.water;
}
// * * * * * * * * * * * * * * * * * * * * * * * * * * * * * * * * * * * * * //

dimensions      [0 0 0 0 0 0 0];

internalField   nonuniform List<scalar> 
3072
(
1.42659e-12
1.39816e-12
1.28824e-12
4.90439e-07
1.32259e-06
6.86451e-07
2.26053e-13
9.72345e-14
7.01753e-14
2.03199e-13
0.0461568
0.0645473
8.37125e-06
1.37016e-05
1.40152e-12
5.49299e-06
7.72104e-06
7.03129e-14
6.91987e-14
6.92777e-14
2.06751e-13
0.149236
0.317856
0.316919
0.00115717
0.000712574
0.000436462
3.68422e-09
1.44761e-05
0.00368212
0.00643659
0.000854939
3.06882e-13
0.0289434
0.148566
0.309499
0.0019391
0.00168897
0.00347747
2.55274e-09
2.98138e-05
0.00462848
0.00680582
0.00304179
3.87989e-13
0.00402483
0.0272966
0.0169666
0.0019391
0.00153419
0.0103668
0.0168541
2.55284e-09
0.0011269
0.00155794
1.62047e-06
0.119416
0.532916
0.617354
0.318686
0.00143108
0.00287282
0.00626209
0.0662114
0.052033
8.0483e-06
1.62047e-06
8.0483e-06
0.310592
0.618478
0.618474
0.618478
0.000923335
0.00984241
0.00402504
0.0123133
0.151249
0.246377
0.157406
0.182458
0.261667
0.226651
0.195551
0.0284329
6.79229e-05
0.0158623
0.0235742
0.00889205
0.0371562
0.34687
0.614834
0.616832
0.297351
7.91568e-05
7.8681e-05
7.91568e-05
2.53708e-09
0.00686563
0.0499779
0.0375293
0.0207859
0.0680099
0.43758
0.6149
0.371234
7.8681e-05
7.91568e-05
0.0921376
2.53711e-09
5.38693e-05
0.0234079
0.0822578
0.079244
0.0311493
0.0471331
0.279983
0.492974
0.315865
0.360198
0.410363
2.512e-09
9.96554e-14
3.09709e-05
0.0209501
0.0734838
0.198115
0.221601
0.233543
0.628383
0.72735
0.727345
0.705249
3.49749e-14
3.49749e-14
2.70495e-08
2.81999e-10
0.00806761
0.0931836
0.212565
0.663758
0.727341
0.727345
0.727341
0.727337
0.0206666
0.0184851
0.0161399
4.04365e-13
0.00757313
0.0348512
0.0376938
0.0139075
0.00275858
0.010732
0.00703764
3.72731e-14
0.317856
0.30416
0.0276665
2.92906e-13
0.0142893
0.117103
0.133821
0.134531
0.135422
0.168018
0.0815666
1.2421e-13
0.316919
0.248052
2.11579e-13
3.23516e-13
0.00560083
0.015139
0.062053
0.135451
0.189373
0.18886
0.112978
0.034572
0.00679274
0.00147295
2.09051e-13
2.10964e-13
2.04828e-13
2.04828e-13
2.89014e-13
3.83625e-13
4.27792e-13
0.00423389
2.44849e-13
0.0669854
4.04345e-13
3.25958e-13
3.01501e-13
3.11735e-13
3.05545e-13
2.93804e-13
0.0463083
0.185742
0.0962878
3.10604e-13
2.12525e-13
2.19847e-13
0.20273
0.0359375
0.20486
0.275346
0.209443
0.0524646
0.201816
0.417353
0.417497
0.170695
3.01296e-13
0.00291749
0.0190397
0.473233
0.694182
0.691607
0.642761
0.342532
0.311853
0.417496
0.417449
0.417496
0.111453
0.0162159
7.8681e-05
0.265638
0.696823
0.694182
0.489468
0.326869
0.138945
0.179317
0.391318
0.417449
0.348807
0.0262145
7.91568e-05
0.263268
0.699605
0.696823
0.0855803
4.00801e-05
4.28495e-05
0.000197693
0.0320888
0.392601
0.404501
0.0411455
0.320013
0.616253
0.712082
0.588901
0.0618906
3.92793e-05
0.000894552
0.000664134
0.000607312
0.0525881
0.1843
0.0448257
0.727336
0.727023
0.71605
0.27816
0.00131348
3.93976e-05
0.0059796
0.00850954
0.00322857
0.00061952
0.0017253
0.0269845
0.727337
0.626506
0.349794
0.022387
3.93976e-05
3.92793e-05
0.00480008
0.00973901
0.00996225
0.00156612
2.86419e-13
0.0115761
8.18804e-18
2.79451e-17
3.3151e-17
2.36456e-17
1.54794e-17
9.60843e-18
5.44378e-18
2.62869e-18
2.9323e-18
1.01552e-15
1.97091e-15
2.6302e-15
2.08181e-17
7.7123e-17
1.06569e-16
5.65795e-17
4.45482e-17
4.29077e-16
1.14333e-15
2.02496e-15
2.92118e-15
4.13151e-15
6.91332e-15
9.82245e-15
3.95967e-17
1.66869e-16
3.06698e-16
5.24929e-16
9.39393e-16
1.71409e-15
3.06242e-15
5.14063e-15
7.99684e-15
1.18702e-14
1.8427e-14
2.5579e-14
5.60357e-17
2.87337e-16
6.69653e-16
1.21973e-15
2.07797e-15
3.5559e-15
5.94547e-15
9.75974e-15
1.54259e-14
2.31628e-14
3.36692e-14
4.52051e-14
1.32394e-16
4.90765e-16
1.03951e-15
1.80056e-15
3.02795e-15
5.08335e-15
8.34834e-15
1.35603e-14
2.11026e-14
3.10245e-14
4.31093e-14
5.62887e-14
1.17503e-16
4.37346e-16
1.09251e-15
2.11984e-15
3.73783e-15
6.24327e-15
1.0152e-14
1.59232e-14
2.35261e-14
3.28004e-14
4.28479e-14
5.31462e-14
4.17339e-17
2.8235e-16
8.42502e-16
1.81559e-15
3.39146e-15
5.92492e-15
9.69521e-15
1.46602e-14
2.04166e-14
2.5998e-14
3.00468e-14
3.23692e-14
3.12298e-17
1.57524e-16
5.10416e-16
1.20624e-15
2.47825e-15
4.5292e-15
7.49248e-15
1.12187e-14
1.50989e-14
1.76485e-14
1.7146e-14
1.29378e-14
1.01375e-17
5.77016e-17
2.41267e-16
6.53432e-16
1.46013e-15
2.81294e-15
4.81964e-15
7.41314e-15
1.01232e-14
1.12982e-14
1.01234e-14
5.86796e-15
4.13723e-18
2.24929e-17
1.01445e-16
3.05315e-16
7.38074e-16
1.53977e-15
2.73359e-15
4.29725e-15
5.89175e-15
6.40637e-15
5.58239e-15
3.43506e-15
1.30048e-18
6.33011e-18
3.59555e-17
1.22363e-16
3.20138e-16
7.01641e-16
1.29598e-15
2.14563e-15
2.96251e-15
3.11194e-15
2.59883e-15
3.41219e-15
4.0837e-24
4.77067e-24
1.21444e-17
4.67894e-17
1.26426e-16
2.9271e-16
5.23499e-16
8.80097e-16
1.24022e-15
1.30007e-15
9.96118e-16
1.83535e-14
3.29678e-15
4.06384e-15
4.92061e-15
5.32504e-15
5.90101e-15
5.61506e-15
4.63294e-15
3.92184e-15
2.08831e-15
1.04573e-15
7.34586e-16
1.31587e-17
1.31109e-14
1.61877e-14
2.01559e-14
2.15518e-14
2.18766e-14
2.08295e-14
1.8487e-14
1.4483e-14
8.36334e-15
4.01225e-15
1.77116e-15
3.78721e-16
3.45899e-14
4.22431e-14
4.98218e-14
5.3661e-14
5.48429e-14
5.0734e-14
4.52031e-14
3.76151e-14
2.31376e-14
1.11333e-14
4.17972e-15
1.2821e-15
5.86075e-14
7.12158e-14
8.32282e-14
9.32266e-14
9.95527e-14
9.68021e-14
8.83079e-14
7.64855e-14
5.07381e-14
2.55705e-14
9.27016e-15
2.67815e-15
7.0998e-14
8.60543e-14
1.04972e-13
1.2661e-13
1.4505e-13
1.50334e-13
1.44956e-13
1.29571e-13
8.97817e-14
4.8509e-14
1.78993e-14
5.08546e-15
6.44061e-14
8.02364e-14
1.07397e-13
1.45941e-13
1.84982e-13
2.04215e-13
2.09774e-13
1.97737e-13
1.43692e-13
8.28128e-14
3.31229e-14
9.04459e-15
3.64334e-14
5.20183e-14
8.82123e-14
1.47367e-13
2.15802e-13
2.50443e-13
2.74402e-13
2.71859e-13
2.07829e-13
1.28016e-13
5.60151e-14
1.6122e-14
1.14325e-14
2.75766e-14
7.30667e-14
1.5076e-13
2.47704e-13
2.95724e-13
3.38226e-13
3.42533e-13
2.79486e-13
1.87941e-13
9.28841e-14
2.81956e-14
3.78578e-15
2.59288e-14
8.47203e-14
1.74885e-13
2.87194e-13
3.54903e-13
4.10216e-13
4.13964e-13
3.52189e-13
2.52273e-13
1.35528e-13
4.24367e-14
4.93234e-15
4.58707e-14
1.28023e-13
2.47425e-13
3.7054e-13
4.48866e-13
5.0018e-13
4.88631e-13
4.23339e-13
3.1897e-13
1.81482e-13
5.31739e-14
1.58157e-14
1.02166e-13
2.26371e-13
3.83969e-13
5.02382e-13
5.75047e-13
5.94516e-13
5.5691e-13
4.8426e-13
3.80884e-13
2.32883e-13
9.65547e-14
7.71274e-14
2.49808e-13
4.25709e-13
5.91118e-13
6.71426e-13
6.89388e-13
6.55828e-13
5.9104e-13
5.12071e-13
4.20627e-13
2.91693e-13
1.42442e-13
3.72509e-22
1.85467e-21
2.79364e-21
1.81493e-21
1.03719e-21
5.47139e-22
2.67097e-22
1.11827e-22
3.64512e-22
3.16287e-18
9.45741e-18
1.84012e-17
1.15779e-21
6.53622e-21
1.38803e-20
7.94115e-21
7.08579e-21
4.20647e-19
2.1319e-18
5.92858e-18
1.21438e-17
2.28747e-17
5.08292e-17
9.69085e-17
2.66881e-21
1.89048e-20
6.86533e-20
2.52074e-19
8.64211e-19
2.64011e-18
7.32575e-18
1.80374e-17
3.92903e-17
7.93179e-17
1.65585e-16
3.11985e-16
3.77857e-21
3.91229e-20
1.82038e-19
6.35669e-19
1.92773e-18
5.3424e-18
1.36947e-17
3.30078e-17
7.45396e-17
1.56638e-16
3.15968e-16
5.91945e-16
9.56557e-21
5.81108e-20
2.16703e-19
6.74045e-19
1.95197e-18
5.30259e-18
1.34167e-17
3.21737e-17
7.19995e-17
1.48002e-16
2.86892e-16
5.29726e-16
6.84274e-21
3.88853e-20
1.57586e-19
5.13794e-19
1.50465e-18
3.9934e-18
9.91908e-18
2.27359e-17
4.68722e-17
8.65648e-17
1.49663e-16
2.53403e-16
1.99009e-21
1.88422e-20
8.29086e-20
2.72032e-19
7.93894e-19
2.13708e-18
5.30339e-18
1.14274e-17
2.09701e-17
3.16641e-17
3.98129e-17
4.02565e-17
1.14242e-21
7.8461e-21
3.50358e-20
1.15741e-19
3.46545e-19
9.25656e-19
2.23173e-18
4.52959e-18
7.58911e-18
9.56931e-18
8.40287e-18
3.24911e-18
2.83554e-22
2.32095e-21
1.26194e-20
4.39129e-20
1.32234e-19
3.41904e-19
8.05105e-19
1.57467e-18
2.54419e-18
2.72159e-18
1.81013e-18
3.13495e-19
8.92747e-23
6.59852e-22
3.96281e-21
1.48508e-20
4.60059e-20
1.20361e-19
2.75992e-19
5.09337e-19
7.7296e-19
7.22526e-19
4.32358e-19
1.30337e-19
2.14573e-23
1.43396e-22
1.13054e-21
4.61533e-21
1.51824e-20
3.82394e-20
8.53684e-20
1.54138e-19
2.23104e-19
1.86797e-19
1.05966e-19
4.06664e-20
4.11919e-24
3.53259e-23
3.026e-22
1.33537e-21
4.52201e-21
1.15466e-20
2.39861e-20
4.03999e-20
5.73608e-20
4.77408e-20
2.56285e-20
2.11308e-20
3.15715e-17
5.23002e-17
8.3599e-17
1.18308e-16
1.73351e-16
2.08389e-16
2.05402e-16
1.94817e-16
7.97228e-17
1.81612e-17
8.51722e-18
5.22975e-20
1.72126e-16
2.85563e-16
4.83052e-16
7.01596e-16
9.76654e-16
1.24344e-15
1.4218e-15
1.24979e-15
6.03637e-16
1.57392e-16
3.86884e-17
2.84851e-18
5.73404e-16
9.65866e-16
1.59476e-15
2.45336e-15
3.62841e-15
4.75834e-15
5.77859e-15
5.60039e-15
2.9109e-15
8.09095e-16
1.60771e-16
1.92277e-17
1.07627e-15
1.86916e-15
3.21588e-15
5.52171e-15
9.25806e-15
1.41452e-14
1.88058e-14
1.95012e-14
1.10094e-14
3.28333e-15
6.17217e-16
7.44141e-17
9.6881e-16
1.80329e-15
3.59994e-15
7.55866e-15
1.57588e-14
3.08605e-14
4.96227e-14
5.51394e-14
3.26281e-14
1.09337e-14
2.09902e-15
2.54359e-16
4.59914e-16
9.90399e-16
2.39016e-15
6.42661e-15
1.78975e-14
5.05924e-14
1.07562e-13
1.35422e-13
8.54656e-14
3.17483e-14
6.77947e-15
8.01141e-16
5.04747e-17
1.50324e-16
5.56766e-16
2.52159e-15
1.17032e-14
6.2685e-14
1.93602e-13
2.8043e-13
1.96873e-13
8.278e-14
2.02334e-14
2.56186e-15
7.44276e-19
6.89501e-18
8.42773e-17
1.16465e-15
7.54349e-15
6.89455e-14
2.96123e-13
4.83311e-13
4.034e-13
2.01186e-13
5.90494e-14
8.19332e-15
6.82481e-20
7.17051e-18
1.83649e-16
2.38571e-15
1.12229e-14
8.80377e-14
3.9574e-13
7.10171e-13
7.19242e-13
4.23243e-13
1.43639e-13
2.13885e-14
4.71907e-20
2.87361e-17
5.0634e-16
5.484e-15
1.89847e-14
1.15889e-13
4.7216e-13
9.19539e-13
1.1433e-12
7.88616e-13
3.04237e-13
4.67016e-14
1.90477e-20
1.17157e-16
1.53732e-15
1.3129e-14
3.44749e-14
1.47364e-13
4.7638e-13
1.01156e-12
1.63292e-12
1.30075e-12
5.95715e-13
1.44864e-13
2.42246e-20
4.78964e-16
5.03458e-15
3.06076e-14
6.48329e-14
1.65386e-13
4.08179e-13
8.96075e-13
2.14196e-12
1.98913e-12
1.13963e-12
4.02477e-13
1
1
1
1
1
1
1
1
1
1
1
1
1
1
1
1
1
1
1
1
1
1
1
1
1
1
1
1
1
1
1
1
1
1
1
1
1
1
1
1
1
1
1
1
1
1
1
1
1
1
1
1
1
1
1
1
1
1
0.817379
0.364657
1
1
1
1
1
1
1
1
0.992862
0.558115
0.0705896
0.00163385
1
1
1
1
1
1
1
1
0.796944
0.0751703
0.00163385
0.0016333
1
1
1
1
1
1
1
0.993896
0.483139
0.00163392
0.00163336
0.00163291
1
1
1
1
1
0.999999
0.999987
0.999798
0.555222
0.00163336
0.0016329
0.00163246
1
1
1
1
1
1
0.999977
0.999988
0.889137
0.0448668
0.00163245
0.00163209
1
1
1
1
1
1
0.999986
0.999789
0.999878
0.619301
0.242777
0.0157236
1
1
1
1
1
0.999975
0.999949
0.999673
0.999873
0.999999
0.887553
0.34241
1
1
1
0.994778
0.97609
0.97356
0.992505
1
1
1
1
1
1
1
1
0.98715
0.856609
0.843584
0.855581
0.965183
0.970103
1
0.998853
1
1
1
0.999633
0.975411
0.902318
0.842533
0.825684
0.827307
0.864673
0.939374
0.915892
0.999879
0.968912
0.774161
0.520788
0.354817
0.387303
0.766365
0.994016
0.997754
0.988152
0.862684
0.859667
0.92789
0.148407
0.0387559
0.0016355
0.00163571
0.0016359
0.137514
0.645574
0.998083
1
1
0.946755
0.88209
0.00163432
0.00163479
0.00163514
0.0016355
0.00163571
0.00163561
0.119488
0.882634
1
1
1
0.884217
0.0031508
0.0238955
0.0415584
0.015241
0.00163561
0.00163524
0.0786966
0.814731
1
1
1
0.974432
0.0188614
0.074589
0.0742076
0.0424225
0.00200976
0.00163488
0.198071
0.915898
1
1
1
1
0.00475156
0.0675303
0.065973
0.0201234
0.00163397
0.00163441
0.4556
0.980775
1
1
1
0.992598
0.00163172
0.00533973
0.00163249
0.00163295
0.0016334
0.100802
0.806384
1
1
1
1
0.963134
0.00163148
0.00163175
0.00163213
0.00183643
0.0714323
0.63328
1
1
1
1
1
0.936582
0.0363531
0.145298
0.260487
0.298512
0.569782
0.975916
1
1
1
1
1
0.970987
0.435568
0.0104407
1.36113e-11
2.60043e-10
2.04932e-12
1.97645e-12
0.0310571
0.30123
0.573835
0.727341
0.724094
0.55477
0.918271
0.0831001
2.44007e-13
1.90852e-10
3.79942e-11
2.44433e-12
2.47722e-13
2.89537e-13
0.0507575
0.160132
0.100301
0.0022024
0.999967
0.424035
1.93109e-13
1.49613e-13
1.49757e-13
2.25881e-13
1.49757e-13
2.25091e-13
2.69718e-13
3.19449e-13
3.30463e-13
9.35252e-05
0.999979
0.958414
0.471598
0.110915
0.136035
0.141606
0.0759941
2.95291e-05
2.70078e-13
0.000605017
0.00117168
0.000841192
0.278216
0.0269224
2.79892e-14
1.15253e-13
4.73454e-05
3.93976e-05
3.93332e-05
0.00353043
0.0077717
0.00243224
2.99458e-13
0.00166837
5.96953e-14
9.18609e-15
1.61649e-14
0.000102513
0.000115359
6.04506e-05
4.00801e-05
3.98023e-05
4.11813e-05
6.22054e-05
2.71009e-13
3.00772e-13
6.59191e-05
2.66824e-06
1.69509e-14
5.10237e-05
8.40015e-05
5.64241e-05
0.00240874
0.00311163
0.00559105
0.00786693
0.00639306
3.0669e-13
9.79346e-05
1.02431e-12
1.42842e-12
5.46568e-14
0.000637532
0.00460421
0.020269
0.020155
0.0266982
0.0298778
0.0297996
0.0232061
0.00170542
6.31793e-05
4.58292e-14
6.37522e-15
3.13176e-15
3.28057e-15
3.43909e-15
3.64316e-15
4.33587e-15
5.00058e-15
6.80084e-15
1.07589e-13
0.00049445
2.30164e-14
2.44954e-15
2.41772e-15
2.16985e-14
2.31787e-14
2.21821e-14
1.5504e-14
2.74561e-14
5.00681e-14
1.30235e-13
4.80191e-13
3.19171e-13
0.00172044
0.00929235
0.000680563
2.08938e-14
8.80745e-15
8.85804e-15
8.80745e-15
1.09231e-13
3.78672e-13
6.52779e-13
1.14583e-12
3.38417e-13
0.0229172
0.0289674
0.00721963
0.00282401
0.00965101
0.00985613
0.00468957
1.69864e-13
4.41381e-13
5.6229e-13
4.42801e-13
2.98906e-13
5.53759e-13
7.23822e-13
7.98822e-13
7.87814e-13
7.17892e-13
6.41523e-13
5.59099e-13
4.82831e-13
4.20749e-13
3.17498e-13
1.82811e-13
7.91553e-13
9.34535e-13
9.26196e-13
8.3033e-13
7.2144e-13
6.11807e-13
5.18971e-13
4.39854e-13
3.66626e-13
3.36654e-13
2.79041e-13
1.91434e-13
1.0576e-12
8.64909e-13
7.01224e-13
5.77068e-13
4.75908e-13
3.8863e-13
3.05198e-13
2.4822e-13
1.96832e-13
2.00646e-13
1.84899e-13
1.56439e-13
3.34854e-13
2.83169e-13
2.41166e-13
2.1085e-13
1.67749e-13
1.28206e-13
8.8636e-14
6.76014e-14
5.50351e-14
7.69499e-14
9.09961e-14
1.01202e-13
7.82683e-14
2.28766e-14
5.08442e-15
1.03505e-15
2.18578e-16
4.16445e-17
8.12078e-18
1.98391e-18
5.45045e-19
1.79727e-19
7.35079e-20
1.03664e-19
1.08039e-13
3.91466e-14
7.51397e-15
1.26007e-15
2.35206e-16
5.62204e-17
1.44034e-17
4.26437e-18
1.54249e-18
6.54427e-19
3.80618e-19
6.19793e-19
1.04868e-13
5.22239e-14
1.72094e-14
4.52069e-15
1.14074e-15
3.38579e-16
1.20426e-16
4.5687e-17
2.16644e-17
1.04966e-17
5.82941e-18
3.4651e-18
8.16033e-14
4.96612e-14
2.34758e-14
9.37041e-15
3.74505e-15
1.49812e-15
6.16694e-16
2.41158e-16
9.24823e-17
3.51206e-17
1.46797e-17
6.41693e-18
1.36679e-19
1.88284e-15
1.58621e-14
6.50699e-14
1.12746e-13
1.81789e-13
3.37619e-13
5.98912e-13
2.74072e-12
3.54195e-12
2.48836e-12
3.80887e-13
6.79517e-19
6.95926e-15
4.25323e-14
1.189e-13
1.58846e-13
2.05656e-13
3.08099e-13
4.99333e-13
2.72404e-12
7.48051e-12
7.52076e-12
1.7727e-12
2.56319e-18
2.05888e-14
9.07678e-14
1.78449e-13
1.72323e-13
2.22257e-13
3.14149e-13
4.85956e-13
2.45557e-12
1.17139e-11
2.87029e-11
1.12724e-11
5.6739e-18
5.14547e-14
1.65112e-13
2.41511e-13
1.05872e-13
2.92594e-07
3.69001e-13
6.61854e-13
1.28649e-12
4.53203e-11
9.57521e-11
8.10423e-11
0.232518
0.909263
1
1
1
0.999976
0.999959
0.999885
0.999962
0.999998
0.999999
0.746509
6.45168e-13
0.681741
1
1
1
0.999998
0.999995
0.999999
0.999994
0.999695
0.999954
0.99999
6.26341e-13
0.202781
0.72556
1
1
1
1
1
1
0.999938
0.999991
0.996898
4.80558e-11
2.8985e-13
0.0555311
0.390507
0.371719
0.343005
0.554902
0.989976
1
1
0.774349
0.6899
0.652732
0.819306
0.639561
0.592445
0.833882
0.999331
1
1
1
1
0.999995
1
0.9865
0.957479
0.629335
0.745527
0.960898
1
1
1
1
1
1
1
0.623342
0.606217
0.683073
0.950251
1
1
1
0.981894
0.948401
0.98446
0.998276
0.999855
0.710383
0.764317
0.958475
1
0.996472
0.966416
0.915559
0.841979
0.84313
0.846798
0.935528
0.999967
0.999989
1
0.849746
0.285698
0.0718519
0.0420029
0.0159767
0.00599318
0.00734363
0.00729555
0.00165468
4.41813e-14
0.999802
1
0.911619
0.230378
0.046695
0.0454831
0.10791
0.0115226
4.13761e-14
5.66927e-15
5.65863e-15
5.64981e-15
0.999849
1
0.919489
0.330308
0.119518
0.395108
0.287694
0.0061947
7.15346e-14
3.6117e-14
1.6709e-14
5.56996e-15
1
1
0.976331
0.861753
0.781801
0.789656
0.170463
9.86663e-14
5.71239e-14
2.69675e-14
6.66169e-15
1.81607e-15
3.19091e-15
1.11671e-11
3.10394e-11
1.00257e-13
0.00463617
0.0171039
0.0233911
0.023667
0.00855928
0.00858035
0.0109653
0.00682139
3.17631e-15
2.67879e-11
6.14235e-11
5.71478e-11
9.56281e-14
9.52036e-14
1.19785e-13
0.00764713
0.0159547
0.00364351
0.00297891
0.00299378
2.75313e-15
2.50071e-11
1.92965e-11
6.88404e-13
5.14759e-13
9.47838e-14
0.00146969
0.0136873
0.0366332
0.0363848
0.0274098
0.0141775
1.05363e-17
2.41084e-17
2.75208e-16
2.10423e-15
2.37267e-14
5.59663e-14
0.000429125
0.00451839
0.0119889
0.0332312
0.0421988
0.0420532
0.00399905
0.0289674
0.0289674
0.0289674
0.00417826
0.00569658
0.00252287
0.000506739
1.14432e-13
1.13111e-13
6.98631e-14
3.21952e-14
0.00297891
0.0111084
0.0289674
0.0139706
0.00116659
0.00014094
2.1319e-13
1.70256e-13
1.30628e-13
3.03387e-14
2.24295e-15
8.89099e-16
0.0162911
0.0196931
0.00391254
5.56293e-13
5.07627e-13
4.58082e-13
4.23485e-13
2.0076e-13
6.81353e-14
2.09472e-14
6.49639e-15
2.12712e-15
0.0421988
0.0191445
6.27057e-13
9.4173e-12
5.5027e-12
2.46105e-12
8.98869e-13
2.50027e-13
6.06312e-14
1.28626e-14
1.81921e-15
8.60304e-17
1.44598e-14
2.38203e-15
1.61735e-17
6.2473e-17
2.32053e-16
8.15037e-16
2.68601e-15
7.50391e-15
1.92444e-14
3.74973e-14
4.79027e-14
5.63634e-14
2.32719e-16
7.01492e-19
2.41516e-19
5.08793e-19
1.03246e-17
2.15867e-16
9.57412e-16
3.03476e-15
7.58058e-15
1.53399e-14
2.22141e-14
2.89949e-14
6.20395e-16
3.96316e-18
3.93117e-19
1.8201e-18
9.69203e-18
5.24892e-17
2.51461e-16
9.06393e-16
2.40072e-15
5.3813e-15
9.21375e-15
1.39639e-14
8.99437e-18
1.15684e-18
1.12696e-19
8.4136e-20
1.16588e-18
8.36841e-18
4.58463e-17
1.88369e-16
6.07926e-16
1.66867e-15
3.3293e-15
6.21379e-15
4.47631e-14
2.46122e-14
9.66696e-15
3.4393e-15
1.08134e-15
4.68437e-16
1.61764e-16
6.43301e-17
1.00447e-17
1.36088e-18
3.17319e-19
8.74975e-19
2.27819e-14
1.14056e-14
3.75207e-15
1.14045e-15
3.51704e-16
1.32236e-16
2.14253e-17
4.30016e-18
4.3436e-19
3.18933e-20
1.86127e-19
3.07285e-18
1.03156e-14
4.63169e-15
1.36377e-15
3.22843e-16
1.03284e-16
2.3562e-17
1.94721e-18
2.02212e-19
2.07472e-20
2.55847e-21
4.131e-22
8.51358e-23
3.92752e-15
1.62317e-15
4.40956e-16
7.72999e-17
2.21408e-17
1.41648e-18
1.39846e-19
1.51342e-20
1.70399e-21
1.93955e-22
1.52561e-23
2.76979e-22
1.08808e-17
1.63116e-13
3.47237e-13
2.18588e-13
1.06579e-13
1.47048e-06
2.94671e-06
7.28259e-13
7.82411e-13
4.6948e-11
2.37093e-11
2.4306e-11
3.91227e-17
7.58129e-16
3.64676e-15
1.22739e-14
5.05611e-14
7.70054e-07
1.77357e-05
1.85077e-05
1.90534e-08
4.77472e-11
8.11467e-09
4.10845e-09
1.31374e-17
1.96592e-15
8.9109e-15
2.82746e-14
6.85981e-14
5.47718e-10
1.97631e-05
4.20883e-05
1.72742e-05
4.85516e-11
1.35673e-08
2.92956e-08
6.574e-19
4.03057e-17
1.21717e-15
1.96871e-14
7.30213e-14
1.11758e-13
4.14394e-06
4.20135e-05
4.50246e-05
1.94708e-05
5.19216e-09
1.79886e-08
2.63713e-11
2.40485e-13
2.38348e-13
2.91263e-13
0.159962
0.552883
0.822657
0.902895
0.949857
0.999984
1
1
1.7926e-13
1.82218e-13
1.97645e-13
2.43896e-13
0.28686
0.867174
0.977409
0.994175
1
1
1
1
1.85674e-08
7.3955e-14
1.45524e-13
1.85664e-13
0.537102
0.973644
1
1
1
1
1
1
2.16975e-08
7.62211e-14
1.12713e-13
0.363698
0.957067
1
1
1
1
1
1
1
1
1
1
1
0.977665
0.904206
0.820776
0.820638
0.911295
0.993437
0.992995
0.999792
1
1
1
1
1
1
0.978376
0.82447
0.812091
0.939143
0.999683
0.999685
1
1
1
1
1
1
1
0.933034
0.812032
0.813184
0.972001
0.999841
1
1
1
1
1
1
1
0.999768
0.966625
0.924594
0.941077
0.999889
0.999941
0.999775
1
1
1
0.630196
0.0433899
7.45634e-14
3.8931e-14
1.63692e-14
5.63645e-15
2.11041e-15
0.999888
0.999677
0.999768
1
0.992973
0.331986
2.14803e-05
5.5092e-14
2.336e-14
7.91035e-15
1.55479e-15
1.02317e-16
0.999948
0.999877
0.999969
1
0.755527
0.0849165
7.0683e-14
3.46622e-14
1.36752e-14
4.19883e-15
9.09086e-16
7.60912e-17
1
1
1
0.946238
0.311277
0.000483885
5.22598e-14
2.15003e-14
7.42857e-15
1.99605e-15
4.03585e-16
6.32024e-17
1
1
0.996771
0.533141
0.0283468
6.5861e-14
3.22029e-14
1.27739e-14
4.0729e-15
9.96255e-16
1.61869e-16
1.05037e-17
1
1
0.775185
0.113547
8.16755e-14
4.49461e-14
2.06286e-14
7.68002e-15
2.25951e-15
4.98666e-16
7.52534e-17
5.87072e-18
1
1
0.377753
0.00278943
6.01918e-14
3.16379e-14
1.36178e-14
4.72641e-15
1.28691e-15
2.61159e-16
3.53324e-17
2.3669e-18
1
0.822023
0.110144
7.83132e-14
4.61227e-14
2.29718e-14
9.30047e-15
3.01239e-15
7.60749e-16
1.4186e-16
1.74379e-17
1.04154e-18
0.995595
0.529929
0.0163693
6.30947e-14
3.62869e-14
1.70528e-14
6.47066e-15
1.96147e-15
4.62311e-16
8.01062e-17
9.08135e-18
4.97016e-19
0.963332
0.37395
0.000267121
5.40275e-14
2.94434e-14
1.29442e-14
4.62353e-15
1.31851e-15
2.91248e-16
4.70489e-17
4.93926e-18
2.4801e-19
0.91669
0.280688
8.11832e-14
4.7463e-14
2.38699e-14
9.84178e-15
3.27181e-15
8.62556e-16
1.75203e-16
2.59119e-17
2.47906e-18
1.12777e-19
0.801584
0.119512
5.94068e-14
3.19189e-14
1.34234e-14
4.43889e-15
1.15684e-15
2.36343e-16
3.70315e-17
4.21871e-18
3.11527e-19
1.10289e-20
3.48524e-18
5.47659e-17
8.94774e-16
3.74821e-15
9.8905e-15
1.76425e-14
1.7634e-14
3.23712e-14
0.000380184
0.00464755
0.0289936
0.0421988
1.51487e-18
2.17202e-17
1.60515e-16
1.1984e-15
5.68873e-15
1.85695e-14
4.45851e-14
7.61403e-14
7.61953e-14
1.18794e-13
0.0018991
0.0126546
4.36414e-20
1.79327e-18
4.25839e-17
3.82199e-16
2.0086e-15
7.72946e-15
2.30396e-14
5.30758e-14
2.30483e-07
6.55639e-05
9.8981e-05
1.01519e-13
2.27707e-20
5.03896e-19
7.5306e-18
7.27642e-17
4.88654e-16
2.40765e-15
9.1889e-15
2.79868e-14
6.82864e-14
4.22658e-05
0.000131695
6.27123e-05
1.16995e-21
5.18823e-20
1.02983e-18
1.20233e-17
9.47336e-17
5.60371e-16
2.66972e-15
1.12214e-14
4.31145e-14
1.69122e-06
8.86624e-05
0.000153929
1.13437e-22
4.8179e-21
1.07275e-19
1.46649e-18
1.39158e-17
9.91468e-17
5.63415e-16
2.7403e-15
1.19528e-14
4.57236e-14
5.74973e-06
0.000102433
6.48648e-24
3.41825e-22
8.87299e-21
1.42945e-19
1.61448e-18
1.37873e-17
9.36649e-17
5.30186e-16
2.47942e-15
1.15149e-14
3.57372e-14
6.92573e-07
3.07866e-25
1.91681e-23
5.7902e-22
1.09704e-20
1.47098e-19
1.50146e-18
1.2252e-17
8.29787e-17
4.40888e-16
2.1092e-15
6.33789e-15
2.81184e-14
1.14063e-26
8.36817e-25
2.93661e-23
6.50156e-22
1.02522e-20
1.23906e-19
1.20726e-18
9.85355e-18
6.32583e-17
3.5011e-16
1.07504e-15
1.02979e-14
3.13941e-28
2.68275e-26
1.08786e-24
2.78947e-23
5.11369e-22
7.22438e-21
8.29924e-20
8.08913e-19
6.36073e-18
4.3981e-17
1.73084e-16
2.55935e-15
5.13291e-30
5.1501e-28
2.43625e-26
7.27136e-25
1.55009e-23
2.54908e-22
3.42331e-21
3.93679e-20
3.77865e-19
3.29756e-18
1.72437e-17
3.35396e-16
1.00225e-32
1.4266e-30
9.52133e-29
3.94804e-27
1.14716e-25
2.52466e-24
4.46235e-23
6.65425e-22
8.4899e-21
1.00676e-19
6.97259e-19
1.70061e-17
0.0129164
0.00205053
6.20499e-13
3.63128e-11
1.86102e-11
2.52598e-12
5.66818e-13
1.04587e-13
1.52912e-14
1.28871e-15
5.2163e-17
6.57352e-19
1.02043e-13
1.4303e-13
4.30761e-12
1.78659e-11
6.08557e-12
1.06511e-12
1.46715e-13
1.67727e-14
1.675e-15
1.69832e-16
1.63851e-17
1.47795e-18
6.55703e-14
2.43254e-13
2.63386e-12
1.78746e-12
7.00648e-13
8.56951e-14
8.72068e-15
7.65749e-16
6.17833e-17
4.13422e-18
1.97654e-19
2.23842e-21
4.53176e-14
1.27658e-13
5.87288e-13
2.614e-13
6.05861e-14
5.78753e-15
4.88882e-16
3.74611e-17
2.61326e-18
1.61566e-19
7.84742e-21
2.00498e-22
8.55473e-13
5.81836e-14
6.37102e-14
2.47599e-14
3.88941e-15
3.05263e-16
2.2438e-17
1.58252e-18
1.04924e-19
6.06965e-21
2.64792e-22
6.56008e-24
3.35365e-14
3.37986e-14
5.71324e-15
1.76288e-15
2.14323e-16
1.55727e-17
1.09468e-18
7.37116e-20
4.4783e-21
2.26087e-22
8.20455e-24
1.46323e-25
5.50965e-10
2.5308e-14
6.04069e-16
1.14397e-16
1.16242e-17
8.26478e-19
5.6072e-20
3.52585e-21
1.93499e-22
8.57793e-24
2.68324e-25
4.32477e-27
1.75547e-15
1.08353e-15
6.19335e-17
7.86481e-18
6.86832e-19
4.57745e-20
2.82874e-21
1.58512e-22
7.62752e-24
2.92308e-25
7.78229e-27
1.04002e-28
5.83236e-16
1.05717e-16
5.81299e-18
5.34316e-19
3.90827e-20
2.31013e-21
1.25915e-22
6.17818e-24
2.58975e-25
8.59576e-27
1.96976e-28
2.26196e-30
9.11531e-17
8.7002e-18
4.17306e-19
2.94535e-20
1.79021e-21
9.12887e-23
4.32147e-24
1.84672e-25
6.74441e-27
1.94699e-28
3.86838e-30
3.8337e-32
7.9771e-18
4.69753e-19
1.86528e-20
1.03098e-21
5.17522e-23
2.22608e-24
8.95681e-26
3.26492e-27
1.01954e-28
2.51989e-30
4.28699e-32
3.63494e-34
2.06844e-19
8.96751e-21
2.19444e-22
9.30931e-24
3.44571e-25
9.70001e-27
2.50504e-28
5.94185e-30
1.22413e-31
2.02373e-33
2.33596e-35
1.36944e-37
5.82259e-25
3.94724e-23
1.38289e-21
1.93829e-20
1.83726e-19
1.40417e-18
8.33747e-18
3.97723e-17
1.47016e-16
4.65694e-16
1.03643e-15
2.51588e-15
6.77731e-26
3.41154e-24
1.00853e-22
1.86684e-21
2.30773e-20
2.0447e-19
1.387e-18
7.44812e-18
3.29826e-17
1.14108e-16
2.88512e-16
9.61321e-16
1.15629e-27
2.30858e-25
9.76136e-24
2.07409e-22
2.78512e-21
2.77529e-20
2.17901e-19
1.37218e-18
6.64789e-18
2.51778e-17
7.89966e-17
3.57876e-16
2.31473e-28
1.77864e-26
7.06161e-25
1.63691e-23
2.59155e-22
3.0472e-21
2.82625e-20
2.16908e-19
1.17589e-18
5.12108e-18
2.15651e-17
1.22789e-16
9.46162e-30
9.76807e-28
4.30721e-26
1.13124e-24
2.04177e-23
2.78548e-22
3.05852e-21
2.84422e-20
1.76908e-19
9.14145e-19
4.98261e-18
3.72942e-17
4.12084e-31
4.3725e-29
2.11433e-27
6.25753e-26
1.29931e-24
2.06296e-23
2.67047e-22
2.98676e-21
2.16077e-20
1.34648e-19
8.40667e-19
9.76837e-18
1.3909e-32
1.61413e-30
8.63799e-29
2.87156e-27
6.79369e-26
1.24433e-24
1.88292e-23
2.49781e-22
2.1254e-21
1.61963e-20
9.61255e-20
2.0753e-18
3.90844e-34
4.97259e-32
2.93632e-30
1.09241e-28
2.92505e-27
6.12983e-26
1.07355e-24
1.66731e-23
1.68954e-22
1.59734e-21
8.23962e-21
3.36239e-19
8.96106e-36
1.24854e-33
8.14042e-32
3.37354e-30
1.01549e-28
2.41509e-27
4.84987e-26
8.71846e-25
1.05931e-23
1.25129e-22
6.39316e-22
3.92588e-20
1.55594e-37
2.38279e-35
1.71511e-33
7.89474e-32
2.65665e-30
7.11564e-29
1.62343e-27
3.34273e-26
4.8569e-25
7.08773e-24
4.09792e-23
3.07212e-21
1.59477e-39
2.75335e-37
2.23526e-35
1.16046e-33
4.40637e-32
1.33378e-30
3.44952e-29
8.07455e-28
1.391e-26
2.4647e-25
1.65883e-24
1.42027e-22
1.64609e-42
4.08567e-40
4.72308e-38
3.42271e-36
1.77314e-34
7.16982e-33
2.43004e-31
7.2915e-30
1.58783e-28
3.66475e-27
3.05743e-26
2.81071e-24
1.19455e-15
5.16643e-16
1.21292e-16
1.13222e-17
3.32844e-18
2.94605e-19
2.57724e-20
2.17924e-21
1.65719e-22
8.15182e-24
2.23087e-25
1.94629e-27
2.69266e-16
1.34399e-16
2.51438e-17
1.93384e-18
3.6972e-19
3.35313e-20
2.62661e-21
1.90807e-22
1.26043e-23
8.96259e-25
6.29685e-26
4.19738e-27
4.35338e-17
2.47208e-17
3.37367e-18
2.81515e-19
3.2495e-20
2.314e-21
1.41552e-22
7.91973e-24
4.1764e-25
1.81157e-26
5.51007e-28
2.98188e-30
3.88182e-18
3.39226e-18
3.15148e-19
2.52753e-20
2.20075e-21
1.30249e-22
6.88962e-24
3.33565e-25
1.44885e-26
5.49492e-28
1.62499e-29
2.52112e-31
7.28997e-20
3.64194e-19
2.21279e-20
1.60709e-21
1.10522e-22
5.36126e-24
2.42241e-25
1.01385e-26
3.88491e-28
1.28536e-29
3.23362e-31
4.69123e-33
5.83479e-20
3.13639e-20
1.40527e-21
8.76857e-23
4.92797e-24
2.14313e-25
8.83428e-27
3.37157e-28
1.15119e-29
3.29905e-31
6.94364e-33
7.3067e-35
5.81787e-20
3.07817e-21
1.15755e-22
5.64496e-24
2.58616e-25
1.02656e-26
3.90263e-28
1.36557e-29
4.22226e-31
1.07655e-32
1.9839e-34
1.92804e-36
9.76195e-21
3.32408e-22
1.09125e-23
4.21903e-25
1.60433e-26
5.6379e-28
1.89298e-29
5.83214e-31
1.57488e-32
3.4676e-34
5.43523e-36
4.3728e-38
9.3126e-22
2.7681e-23
7.90793e-25
2.58227e-26
8.38124e-28
2.55984e-29
7.51616e-31
2.02957e-32
4.79297e-34
9.18199e-36
1.24402e-37
8.64107e-40
5.76764e-23
1.53093e-24
3.81442e-26
1.07979e-27
3.04828e-29
8.15725e-31
2.10791e-32
5.0207e-34
1.045e-35
1.75886e-37
2.08457e-39
1.25999e-41
2.16701e-24
4.96675e-26
1.06672e-27
2.5972e-29
6.33373e-31
1.46705e-32
3.28538e-34
6.78895e-36
1.22581e-37
1.78829e-39
1.83406e-41
9.57513e-44
2.85115e-26
5.09089e-28
7.20447e-30
1.28183e-31
2.24188e-33
3.39601e-35
5.00333e-37
6.84363e-39
8.2446e-41
8.09929e-43
5.65377e-45
2.04193e-47
4.03014e-18
1.71241e-16
3.2638e-15
2.14176e-14
7.37609e-14
1.41757e-13
1.34043e-13
1.23204e-05
4.49945e-05
4.47313e-05
4.61646e-06
6.23e-12
5.80454e-19
1.93432e-17
3.43676e-16
3.26764e-15
1.74781e-14
5.06349e-14
8.83323e-14
3.48334e-07
8.19608e-06
2.03843e-05
7.13952e-06
6.43347e-09
9.17336e-21
1.33646e-18
3.78362e-17
4.98952e-16
3.67109e-15
1.68121e-14
4.56845e-14
6.68318e-14
8.08826e-14
1.08636e-07
2.20576e-06
2.20958e-06
1.86492e-21
1.06543e-19
3.03561e-18
4.72107e-17
4.63871e-16
3.0256e-15
1.31048e-14
3.55975e-14
4.62282e-14
5.33665e-14
5.75111e-14
7.92547e-10
7.85689e-23
6.12835e-21
1.98697e-19
3.69875e-18
4.47605e-17
3.78899e-16
2.30014e-15
9.8618e-15
1.75632e-14
2.41615e-14
2.11766e-14
3.12965e-14
4.40113e-24
3.33168e-22
1.15357e-20
2.41912e-19
3.46858e-18
3.6329e-17
2.88267e-16
1.75961e-15
4.50263e-15
8.8347e-15
3.70723e-15
5.57634e-25
2.28218e-25
1.79416e-23
6.54379e-22
1.48784e-20
2.39553e-19
2.93055e-18
2.85076e-17
2.27143e-16
8.41099e-16
2.64471e-15
3.40072e-16
2.55379e-36
1.11133e-26
9.29847e-25
3.61139e-23
8.85573e-22
1.56403e-20
2.14982e-19
2.43072e-18
2.35345e-17
1.22993e-16
6.00434e-16
1.55737e-17
5.31841e-43
4.53965e-28
4.13365e-26
1.75158e-24
4.70375e-23
9.15584e-22
1.40219e-20
1.79949e-19
2.02854e-18
1.41388e-17
9.68633e-17
3.6256e-19
5.31834e-43
1.38419e-29
1.39131e-27
6.51834e-26
1.94063e-24
4.20089e-23
7.19296e-22
1.04246e-20
1.3443e-19
1.17216e-18
1.03438e-17
4.48639e-21
5.31834e-43
2.42962e-31
2.77522e-29
1.4766e-27
4.98419e-26
1.22114e-24
2.36501e-23
3.88686e-22
5.70047e-21
5.95184e-20