/*--------------------------------*- C++ -*----------------------------------*\
| =========                 |                                                 |
| \\      /  F ield         | OpenFOAM: The Open Source CFD Toolbox           |
|  \\    /   O peration     | Version:  2.4.0                                 |
|   \\  /    A nd           | Web:      www.OpenFOAM.org                      |
|    \\/     M anipulation  |                                                 |
\*---------------------------------------------------------------------------*/
FoamFile
{
    version     2.0;
    format      ascii;
    class       volScalarField;
    location    "0.4";
    object      alpha.water;
}
// * * * * * * * * * * * * * * * * * * * * * * * * * * * * * * * * * * * * * //

dimensions      [0 0 0 0 0 0 0];

internalField   nonuniform List<scalar> 
3072
(
4.69103e-17
6.42733e-16
1.34622e-15
9.94058e-16
1.26138e-16
4.4391e-15
8.25612e-14
4.37966e-13
1.25608e-12
2.54966e-12
4.14932e-12
5.84732e-12
8.91477e-16
1.2418e-14
2.55195e-14
2.41497e-13
1.24807e-12
3.57598e-12
7.13275e-12
1.08474e-11
1.30739e-11
1.36369e-11
1.4884e-11
1.9452e-11
8.92642e-15
1.36067e-13
7.33792e-13
1.81804e-12
3.24987e-12
5.16978e-12
7.26228e-12
8.69084e-12
8.70455e-12
7.39832e-12
5.575e-12
5.5743e-12
5.36065e-14
4.68438e-13
1.46943e-12
2.79902e-12
4.10064e-12
5.37758e-12
6.44114e-12
6.95112e-12
6.87385e-12
1.61176e-11
0.005442
2.26419e-11
1.06386e-13
7.12513e-13
2.11366e-12
4.32926e-12
7.34819e-12
1.18046e-11
1.85335e-11
2.96267e-11
0.100198
0.573365
0.777877
0.783617
1.3738e-13
8.56572e-13
2.63729e-12
6.12661e-12
1.22378e-11
2.18515e-11
3.98603e-11
0.082173
0.693524
1
1
1
1.51894e-13
8.77707e-13
2.7523e-12
6.84067e-12
1.42566e-11
3.17061e-11
0.000200247
0.400739
1
1
1
1
1.86552e-13
8.22763e-13
2.47504e-12
6.27255e-12
1.44404e-11
3.10047e-11
0.0168134
0.652676
1
1
1
1
8.32726e-13
7.87466e-13
2.06378e-12
4.89496e-12
1.13561e-11
2.685e-11
0.00147482
0.50859
1
1
1
1
2.61286e-12
9.71614e-13
1.81267e-12
3.8499e-12
8.40307e-12
1.87137e-11
1.46992e-11
0.0854085
0.908369
1
1
1
3.17439e-11
2.52079e-12
2.15299e-12
3.4465e-12
6.32209e-12
1.2789e-11
1.21789e-11
2.59852e-11
0.23091
0.666624
0.837473
0.720402
2.18075e-12
2.17086e-12
2.1617e-12
4.70548e-12
6.05628e-12
9.55459e-12
1.11477e-11
1.83863e-11
3.47098e-11
0.0335175
0.0850075
0.0359363
7.68637e-12
1.05756e-11
1.53177e-11
1.57035e-11
4.69291e-11
5.71661e-11
8.9172e-11
9.10509e-09
5.23034e-08
6.70024e-11
3.18852e-11
8.64861e-15
2.80116e-11
4.00775e-11
5.29872e-11
9.64655e-07
4.84191e-06
8.10523e-11
9.3599e-11
1.25052e-10
5.70721e-07
5.13589e-06
1.06139e-05
8.651e-15
1.91377e-11
3.12622e-11
2.98627e-07
1.37139e-05
0.000174985
0.000365944
1.21167e-10
1.4535e-10
1.66247e-10
2.14001e-05
7.62847e-05
4.95762e-14
5.5743e-12
6.46316e-12
1.44605e-11
6.3022e-05
1.81442e-10
0.0178439
0.113196
0.154995
0.0429043
1.91683e-05
4.91113e-05
4.85138e-14
0.700007
0.285538
0.00553491
1.85184e-10
1.86904e-10
0.0485862
0.460822
0.537686
0.410729
0.127452
2.35408e-11
5.58064e-13
1
0.99412
0.804717
0.176404
1.63758e-10
0.0381476
0.423832
0.538129
0.535705
0.514966
0.115519
5.1542e-12
1
1
0.999955
0.591623
8.79634e-11
8.78534e-11
0.0917253
0.535984
0.538588
0.538197
0.510128
0.00313159
1
1
1
0.573592
0.0284638
6.11114e-11
4.22011e-11
0.429081
0.538197
0.539522
0.539117
0.0959365
1
1
0.887154
0.262274
1.28241e-10
1.0853e-10
4.2009e-11
0.0327532
0.520938
0.538197
0.539522
0.198994
1
0.872085
0.315465
1.33404e-10
1.39837e-10
6.91674e-11
5.77273e-11
5.46427e-11
0.171194
0.539368
0.538296
0.241984
0.382005
0.0304135
1.21568e-10
1.31477e-10
1.31037e-10
0.000819361
7.50224e-11
2.20529e-06
2.25783e-11
0.302513
0.539368
0.200313
0.00302194
1.08405e-10
1.24391e-10
0.0114409
0.0693731
0.128429
0.110337
0.0172755
2.69211e-11
0.013451
0.231931
0.16441
6.78453e-27
1.5042e-25
1.15704e-24
2.66973e-26
2.82562e-25
6.06215e-23
1.34165e-21
1.34748e-20
8.18677e-20
3.46074e-19
1.1162e-18
2.93437e-18
4.29237e-25
1.20631e-23
2.14885e-22
4.93058e-21
5.15694e-20
3.13592e-19
1.2894e-18
3.98289e-18
9.98893e-18
2.15405e-17
4.15933e-17
7.41393e-17
2.28978e-23
1.50909e-21
2.60743e-20
2.15953e-19
1.11478e-18
4.12515e-18
1.19758e-17
2.90785e-17
6.18839e-17
1.19426e-16
2.14614e-16
3.65723e-16
4.53474e-22
1.70206e-20
1.92063e-19
1.16895e-18
4.83974e-18
1.53955e-17
4.05294e-17
9.27807e-17
1.91146e-16
3.62779e-16
6.43583e-16
1.08021e-15
1.42452e-21
4.48358e-20
4.53411e-19
2.56117e-18
1.00974e-17
3.12202e-17
8.1266e-17
1.86495e-16
3.8901e-16
7.52345e-16
1.36585e-15
2.33686e-15
1.69417e-21
5.4842e-20
5.68459e-19
3.27149e-18
1.31426e-17
4.14846e-17
1.10486e-16
2.59916e-16
5.56439e-16
1.105e-15
2.06021e-15
3.63276e-15
1.114e-21
4.03723e-20
4.58337e-19
2.81234e-18
1.18912e-17
3.91639e-17
1.08124e-16
2.62283e-16
5.76863e-16
1.1753e-15
2.25365e-15
4.12153e-15
5.42113e-22
2.05883e-20
2.60208e-19
1.7396e-18
7.8946e-18
2.74886e-17
7.90907e-17
1.97092e-16
4.39069e-16
8.94095e-16
1.69752e-15
3.08542e-15
2.62079e-22
8.21158e-21
1.09246e-19
7.95602e-19
3.93972e-18
1.47406e-17
4.4721e-17
1.15029e-16
2.5853e-16
5.21495e-16
9.45496e-16
1.54596e-15
1.44492e-22
2.9502e-21
3.56202e-20
3.08547e-19
1.72407e-18
6.99896e-18
2.245e-17
5.95338e-17
1.34315e-16
2.62387e-16
4.39624e-16
6.37737e-16
7.20362e-23
9.4756e-22
1.00442e-20
1.07579e-19
6.70775e-19
2.94632e-18
9.96143e-18
2.70944e-17
6.08161e-17
1.13319e-16
1.72203e-16
2.59075e-16
2.76864e-26
2.79218e-26
2.90698e-26
5.0038e-25
2.15705e-19
1.05991e-18
3.8181e-18
1.06642e-17
2.36669e-17
4.15643e-17
6.08748e-17
5.31255e-16
6.62397e-18
1.34646e-17
2.55727e-17
4.70782e-17
8.13716e-17
1.05685e-16
1.09834e-16
9.23369e-17
5.75206e-17
2.14544e-17
2.45777e-18
2.24721e-21
1.25345e-16
2.03053e-16
3.18198e-16
4.84574e-16
6.51891e-16
7.61315e-16
7.65537e-16
6.38831e-16
4.18142e-16
1.82621e-16
3.19023e-17
9.55311e-20
5.91625e-16
9.16028e-16
1.36706e-15
1.96303e-15
2.49445e-15
2.81508e-15
2.77573e-15
2.30999e-15
1.55752e-15
7.50689e-16
1.76869e-16
1.48985e-18
1.73163e-15
2.65756e-15
3.90821e-15
5.41565e-15
6.81318e-15
7.64646e-15
7.47194e-15
6.20846e-15
4.25659e-15
2.18184e-15
6.30864e-16
1.24842e-17
3.78815e-15
5.85057e-15
8.64501e-15
1.20107e-14
1.53264e-14
1.73861e-14
1.7061e-14
1.41737e-14
9.80694e-15
5.21399e-15
1.72533e-15
6.72882e-17
6.0989e-15
9.79935e-15
1.5121e-14
2.21812e-14
2.98995e-14
3.50791e-14
3.49428e-14
2.91489e-14
2.03343e-14
1.10764e-14
4.01396e-15
2.64347e-16
7.28291e-15
1.25696e-14
2.13134e-14
3.55506e-14
5.27201e-14
6.48517e-14
6.58735e-14
5.54475e-14
3.91733e-14
2.18555e-14
8.484e-15
8.41127e-16
5.62416e-15
1.1047e-14
2.49881e-14
5.32277e-14
8.80296e-14
1.12637e-13
1.15954e-13
9.88042e-14
7.12279e-14
4.11475e-14
1.70432e-14
2.38438e-15
2.53018e-15
8.09876e-15
3.47552e-14
8.74215e-14
1.47188e-13
1.87197e-13
1.93671e-13
1.67305e-13
1.22997e-13
7.36202e-14
3.29472e-14
6.63867e-15
1.38958e-15
1.46863e-14
6.87712e-14
1.63244e-13
2.58702e-13
3.15097e-13
3.17438e-13
2.72384e-13
2.02031e-13
1.2418e-13
5.85631e-14
1.48311e-14
3.1076e-15
5.01339e-14
1.74521e-13
3.40268e-13
4.72661e-13
5.28015e-13
5.04216e-13
4.23038e-13
3.14348e-13
1.98502e-13
9.84622e-14
3.19855e-14
3.53531e-14
2.0661e-13
4.7261e-13
7.13633e-13
8.38675e-13
8.39054e-13
7.48119e-13
6.08399e-13
4.52309e-13
2.96723e-13
1.68321e-13
6.79315e-14
4.85064e-31
2.40554e-29
3.24275e-28
5.57643e-30
5.81571e-29
3.96924e-26
1.39514e-24
2.06581e-23
1.77103e-22
1.02094e-21
4.35857e-21
1.47516e-20
5.02793e-29
2.97045e-27
8.81255e-26
3.48954e-24
5.78647e-23
5.25543e-22
3.07067e-21
1.28926e-20
4.22436e-20
1.15033e-19
2.72629e-19
5.84173e-19
4.53599e-27
5.71352e-25
1.72367e-23
2.31946e-22
1.8167e-21
9.60245e-21
3.78499e-20
1.19717e-19
3.21071e-19
7.61148e-19
1.65009e-18
3.3408e-18
1.01948e-25
7.04123e-24
1.36368e-22
1.32788e-21
8.23955e-21
3.70606e-20
1.31315e-19
3.88817e-19
1.00449e-18
2.33473e-18
4.98108e-18
9.94544e-18
2.60875e-25
1.54006e-23
2.70234e-22
2.45926e-21
1.46171e-20
6.42843e-20
2.26535e-19
6.7609e-19
1.77772e-18
4.23464e-18
9.31307e-18
1.90699e-17
2.07194e-25
1.29997e-23
2.40251e-22
2.27269e-21
1.39551e-20
6.31848e-20
2.28721e-19
6.99956e-19
1.88473e-18
4.59434e-18
1.03468e-17
2.18361e-17
8.25755e-26
5.99002e-24
1.25114e-22
1.29295e-21
8.49511e-21
4.04568e-20
1.5165e-19
4.73382e-19
1.28195e-18
3.10622e-18
6.9127e-18
1.45125e-17
2.32497e-26
1.80958e-24
4.34498e-23
5.03213e-22
3.6269e-21
1.85093e-20
7.25809e-20
2.30931e-19
6.19404e-19
1.43642e-18
2.92724e-18
5.31777e-18
6.3933e-27
4.13093e-25
1.07251e-23
1.3956e-22
1.12868e-21
6.32141e-21
2.64653e-20
8.70912e-20
2.33381e-19
5.20555e-19
9.67893e-19
1.4462e-18
1.99482e-27
8.26789e-26
1.96691e-24
3.13432e-23
2.98169e-22
1.86713e-21
8.40995e-21
2.8661e-20
7.64137e-20
1.61396e-19
2.65845e-19
3.12176e-19
5.63762e-28
1.44803e-26
2.96752e-25
6.12078e-24
6.84602e-23
4.79649e-22
2.31982e-21
8.14499e-21
2.14065e-20
4.21538e-20
6.00973e-20
5.40785e-20
6.4775e-29
1.25961e-27
3.45756e-26
9.29359e-25
1.27813e-23
1.02797e-22
5.39751e-22
1.95384e-21
5.02526e-21
9.07673e-21
1.0942e-20
7.94614e-21
4.18761e-20
1.05059e-19
2.42842e-19
5.40241e-19
1.10647e-18
1.65201e-18
1.91079e-18
1.71545e-18
1.06289e-18
3.50231e-19
2.97043e-20
1.54657e-23
1.16917e-18
2.21966e-18
4.05132e-18
7.16062e-18
1.11214e-17
1.48609e-17
1.67892e-17
1.51193e-17
9.97605e-18
3.92558e-18
5.17436e-19
8.78214e-22
6.3545e-18
1.14811e-17
1.98921e-17
3.29914e-17
4.87273e-17
6.38979e-17
7.22223e-17
6.62167e-17
4.58866e-17
2.03998e-17
3.75252e-18
1.81942e-20
1.88021e-17
3.38175e-17
5.79968e-17
9.37914e-17
1.40007e-16
1.88561e-16
2.18727e-16
2.06614e-16
1.49344e-16
7.24191e-17
1.69985e-17
2.00754e-19
3.6695e-17
6.68665e-17
1.16047e-16
1.91923e-16
3.01966e-16
4.34115e-16
5.33412e-16
5.26164e-16
3.96582e-16
2.05129e-16
5.72809e-17
1.40764e-18
4.37144e-17
8.37829e-17
1.54664e-16
2.8209e-16
5.04513e-16
8.22804e-16
1.10812e-15
1.16083e-15
9.18916e-16
5.03058e-16
1.59741e-16
7.08638e-18
2.96515e-17
6.08823e-17
1.28351e-16
2.92653e-16
6.7023e-16
1.33563e-15
2.02535e-15
2.28136e-15
1.91751e-15
1.11761e-15
3.95326e-16
2.84145e-17
8.98534e-18
1.71454e-17
5.53059e-17
2.25326e-16
7.90224e-16
1.99741e-15
3.38015e-15
4.07131e-15
3.65647e-15
2.30679e-15
9.10674e-16
9.96887e-17
1.54875e-18
1.68221e-18
3.18567e-17
2.73494e-16
1.17918e-15
3.08385e-15
5.42553e-15
6.85758e-15
6.5037e-15
4.42191e-15
1.97772e-15
3.36399e-16
2.15992e-19
2.41627e-18
5.53672e-17
4.81779e-16
2.04612e-15
5.28958e-15
9.23917e-15
1.17518e-14
1.13649e-14
8.04879e-15
3.89433e-15
8.78076e-16
7.62653e-20
6.36236e-18
1.33205e-16
1.04887e-15
4.12081e-15
1.00585e-14
1.68337e-14
2.09425e-14
2.0096e-14
1.44371e-14
7.33655e-15
2.19973e-15
2.19139e-19
2.11079e-17
3.79599e-16
2.57578e-15
9.11172e-15
2.05319e-14
3.23527e-14
3.8812e-14
3.64193e-14
2.62647e-14
1.54262e-14
6.11655e-15
1
1
1
1
1
1
1
1
1
1
1
1
1
1
1
1
1
1
1
1
1
1
1
1
1
1
1
1
1
1
1
1
1
1
1
1
1
1
1
1
1
1
1
1
1
1
1
1
1
1
1
1
1
1
1
1
1
1
0.973958
0.633255
1
1
1
1
1
1
1
1
0.938088
0.334072
0.0529405
0.00368042
1
1
1
1
1
1
1
0.873858
0.209186
6.43434e-11
4.71835e-11
2.67762e-11
1
1
1
1
1
1
0.995277
0.528258
6.07539e-11
4.80648e-11
3.21548e-11
3.16629e-11
1
1
1
1
1
1
0.987392
0.360465
5.97792e-11
4.25344e-11
3.05339e-11
4.09499e-11
1
1
1
1
1
1
1
0.612475
0.028609
3.69349e-11
3.04771e-11
4.46048e-11
1
1
1
1
1
1
1
0.963317
0.797649
0.398389
0.011182
4.9605e-11
1
1
1
1
1
1
1
1
1
1
0.930917
0.623389
1
1
1
1
1
1
1
1
1
1
1
1
1
1
1
1
1
1
1
1
1
1
1
1
1
1
1
1
1
1
1
1
1
1
1
1
0.996248
0.96992
0.957081
0.967383
0.988222
1
1
1
1
1
1
1
0.369932
0.272134
0.253499
0.302558
0.433293
0.656502
0.891244
1
1
1
1
1
3.14702e-12
3.14686e-12
3.14862e-12
3.14686e-12
3.14975e-12
2.07231e-11
0.207291
0.669586
1
1
1
1
8.73569e-12
1.75834e-11
2.60469e-11
2.87409e-11
2.59442e-11
2.5705e-11
3.22083e-11
0.0557588
0.664126
1
1
1
4.64568e-11
6.07094e-11
6.92929e-11
7.07196e-11
6.0736e-11
5.68133e-11
6.39772e-11
8.11997e-11
0.145826
0.885619
1
1
6.09874e-11
7.42655e-11
8.59742e-11
9.59303e-11
8.14684e-11
7.04002e-11
7.43312e-11
9.54665e-11
0.130674
0.592364
0.966882
1
5.37966e-11
6.69268e-11
8.22134e-11
9.88033e-11
9.72167e-11
8.77102e-11
9.04084e-11
0.178022
0.745314
0.592047
0.784217
0.999495
6.79424e-11
8.51362e-11
0.0076013
0.0552427
0.085219
0.135598
0.289674
0.612008
0.983847
0.956074
0.788349
0.928759
0.337352
0.294554
0.411891
0.412674
0.493046
0.747753
0.95564
1
1
1
0.947854
0.815993
0.832256
0.515491
0.040853
1.02778e-11
6.0737e-12
8.35425e-12
1.07062e-11
1.40261e-11
3.19587e-10
1.54567e-10
1.31852e-10
1.23192e-10
1
0.996473
0.867234
0.4786
0.019318
1.08774e-11
1.04606e-11
1.1114e-11
6.95774e-10
1.82556e-09
1.41341e-10
1.33249e-10
0.999647
0.999812
0.999809
0.992398
0.875444
0.532519
0.0331069
1.43008e-11
1.16132e-11
1.15343e-11
0.0168202
0.082965
0.999433
0.999361
0.999659
1
1
1
0.876015
0.676808
0.506691
0.447734
0.397509
0.294709
1.09478e-10
9.43215e-11
0.00311664
0.134219
0.204071
0.203784
0.203984
0.0643573
2.11567e-11
7.86379e-12
0.000334305
0.0139626
0.00371947
1.01756e-10
0.0180139
0.19053
0.203784
0.191467
0.0981933
0.00417682
1.68944e-11
1.06852e-11
1.6779e-11
2.03468e-11
0.0926142
0.0282735
0.00703573
0.0125234
0.0262331
0.0035471
6.34328e-12
3.56697e-12
3.88407e-12
3.97492e-12
4.70634e-12
8.34821e-12
0.10178
1.45368e-11
6.07532e-15
5.97732e-15
6.07517e-15
5.97734e-15
1.85828e-12
3.61733e-12
4.25739e-12
3.54182e-12
2.99659e-12
3.78037e-12
0.00337408
0.000363968
0.0003994
1.31224e-05
2.18195e-12
5.04196e-13
4.7434e-13
3.45467e-13
2.09128e-13
1.19545e-13
7.01806e-14
6.45538e-14
0.000166224
0.000213745
0.000951822
0.000954453
0.000264581
1.30441e-11
5.50226e-13
4.7962e-12
2.81589e-12
1.70301e-12
1.13637e-12
1.31808e-12
1.75779e-11
1.40335e-11
0.000448109
0.000951822
0.000954453
0.000452249
2.50013e-06
1.62076e-11
9.65917e-12
7.38844e-12
6.19684e-12
5.64831e-12
5.63016e-12
6.16286e-12
1.95009e-11
0.000141963
0.000947229
0.000943885
0.000116819
1.24453e-11
1.33947e-11
1.17847e-11
9.22304e-12
6.64756e-12
3.31356e-13
7.85762e-13
1.1732e-12
1.35549e-12
1.33554e-12
1.18695e-12
9.82622e-13
7.7101e-13
5.74731e-13
3.98785e-13
2.44857e-13
1.21756e-13
1.89209e-12
2.28427e-12
2.32481e-12
2.09736e-12
1.74818e-12
1.38366e-12
1.06199e-12
8.01545e-13
5.98446e-13
4.34428e-13
2.86623e-13
1.64339e-13
4.90425e-12
4.00685e-12
3.09933e-12
2.29641e-12
1.65995e-12
1.18212e-12
8.37496e-13
6.04756e-13
4.51172e-13
3.39755e-13
2.42656e-13
1.59186e-13
4.59719e-12
3.10779e-12
2.07109e-12
1.35138e-12
8.56825e-13
5.42587e-13
3.50969e-13
2.41646e-13
1.81239e-13
1.52557e-13
1.28398e-13
1.04183e-13
5.98133e-14
2.3328e-14
6.44201e-15
1.35059e-15
2.59481e-16
5.2287e-17
1.16007e-17
2.86877e-18
7.94727e-19
2.48882e-19
8.87338e-20
4.39126e-20
9.22178e-14
4.69916e-14
2.07065e-14
7.65179e-15
2.42513e-15
7.06165e-16
2.03538e-16
6.12355e-17
1.98659e-17
7.11146e-18
2.84906e-18
1.96712e-18
9.76502e-14
5.56452e-14
2.90538e-14
1.37385e-14
5.87399e-15
2.30117e-15
8.54341e-16
3.14806e-16
1.20419e-16
4.97542e-17
2.41776e-17
1.46404e-17
7.29102e-14
4.60697e-14
2.67375e-14
1.44388e-14
7.30031e-15
3.47311e-15
1.57721e-15
7.05634e-16
3.24478e-16
1.56526e-16
7.54987e-17
3.58436e-17
8.99012e-19
7.14627e-17
1.14408e-15
6.6516e-15
2.1102e-14
4.35579e-14
6.42223e-14
7.37399e-14
6.76744e-14
4.96601e-14
3.13726e-14
5.676e-15
4.15442e-18
2.25542e-16
3.42543e-15
1.74171e-14
4.98511e-14
9.40691e-14
1.29118e-13
1.40941e-13
1.26625e-13
9.67375e-14
6.38826e-14
3.11459e-14
1.5243e-17
6.57752e-16
1.01165e-14
4.63581e-14
1.19687e-13
2.04193e-13
2.58307e-13
2.64405e-13
2.31963e-13
1.77857e-13
1.2196e-13
6.83469e-14
3.35628e-17
1.90852e-15
3.06594e-14
1.26105e-13
2.9712e-13
4.51622e-13
4.99521e-13
4.60806e-13
3.95444e-13
3.04179e-13
2.13238e-13
1.26601e-13
0.0721925
0.443697
0.985221
1
1
1
1
1
1
1
1
0.992414
1.42443e-11
2.97425e-11
0.139348
0.573948
1
1
1
1
0.991615
0.954053
0.969894
0.968112
5.19666e-12
1.34738e-11
2.5546e-11
0.01044
0.218711
0.534301
0.894627
0.902539
0.790357
0.673237
0.438268
0.383317
2.11666e-12
6.57468e-12
1.30886e-11
2.52393e-11
3.61213e-11
4.95466e-11
0.0631011
0.13949
0.288689
0.465227
0.592653
0.673594
0.991767
0.985457
0.981603
0.562786
0.609517
0.957155
1
1
1
1
1
0.968668
0.897261
0.62711
0.542052
0.5475
0.703512
0.971164
1
1
1
1
1
1
0.383694
0.420905
0.602466
0.901701
1
1
1
1
1
1
1
1
0.814989
0.996866
1
1
1
1
1
1
1
1
1
1
0.999379
0.999758
0.999984
1
1
0.900479
0.455782
0.183328
0.0678816
0.0010684
1.75348e-14
5.87167e-20
0.999506
0.999914
1
1
0.753695
0.199546
0.0018009
1.4353e-11
1.64527e-12
1.62434e-12
1.62883e-12
6.79443e-13
0.999773
0.999973
1
0.751006
0.181723
3.47681e-11
2.40603e-11
1.41125e-11
8.23616e-12
3.96942e-12
1.48832e-12
4.43798e-13
1
1
0.99099
0.497241
0.0748709
3.44285e-11
2.34688e-11
1.39867e-11
7.09449e-12
2.87497e-12
8.6835e-13
1.95431e-13
9.75418e-20
1.49587e-14
5.34678e-14
3.54232e-13
1.29386e-12
3.48091e-12
7.1802e-12
1.10334e-11
1.18356e-11
9.70229e-12
9.35941e-12
1.05012e-11
2.16687e-13
3.34283e-14
3.70572e-14
2.60925e-13
1.11129e-12
3.49181e-12
8.52697e-12
1.62235e-11
2.33852e-11
2.53223e-11
2.4429e-11
2.43324e-11
1.12021e-13
1.09524e-14
1.85729e-14
1.41644e-13
6.9721e-13
2.55742e-12
7.35292e-12
1.67924e-11
3.00163e-11
4.05093e-11
4.49166e-11
4.48868e-11
3.60558e-14
1.40255e-15
6.46254e-15
5.39115e-14
3.05282e-13
1.29854e-12
4.3442e-12
1.16616e-11
2.51017e-11
4.20073e-11
5.61648e-11
6.33036e-11
1.64935e-11
2.51522e-11
3.51181e-11
5.80856e-05
0.000226836
0.000116711
4.12077e-06
8.12943e-13
2.27767e-12
3.7274e-15
9.69912e-16
2.6857e-16
2.97456e-11
3.52523e-11
3.89171e-11
3.63709e-11
2.63522e-11
1.71816e-11
1.1633e-11
8.12757e-13
3.32837e-14
5.69245e-15
1.08906e-15
2.02948e-16
4.48103e-11
3.9842e-11
3.15392e-11
2.33088e-11
1.46185e-11
6.29444e-12
7.37116e-13
5.05901e-14
8.50677e-15
1.52455e-15
2.46526e-16
3.58516e-17
6.26776e-11
4.38578e-11
2.254e-11
1.35579e-11
6.12168e-12
1.41232e-12
1.39736e-13
1.84738e-14
2.66773e-15
3.61847e-16
4.23254e-17
4.24195e-18
6.0639e-17
6.57786e-18
3.81872e-18
3.24948e-17
1.75471e-16
7.26325e-16
2.5288e-15
7.58994e-15
2.01001e-14
4.45939e-14
4.77215e-14
4.58981e-14
3.18543e-17
2.21448e-18
9.67208e-19
9.47803e-18
5.65058e-17
2.47346e-16
8.68457e-16
2.54511e-15
6.36035e-15
1.4017e-14
1.78703e-14
1.84977e-14
4.37393e-18
1.92026e-19
1.84023e-19
2.02331e-18
1.36921e-17
6.6903e-17
2.5495e-16
7.89791e-16
2.04023e-15
4.59092e-15
6.48549e-15
6.92887e-15
3.52088e-19
5.55087e-21
2.57969e-20
3.19058e-19
2.51189e-18
1.42259e-17
6.20008e-17
2.16329e-16
6.21204e-16
1.45564e-15
2.20848e-15
2.39663e-15
3.02271e-14
1.74909e-14
8.70208e-15
4.0207e-15
1.76616e-15
7.42699e-16
2.9026e-16
9.81189e-17
2.09862e-17
2.05859e-21
5.37845e-21
2.40033e-19
1.15767e-14
6.28679e-15
2.75645e-15
1.10908e-15
4.13261e-16
1.40129e-16
3.84083e-17
5.16542e-18
6.87493e-20
4.97139e-21
7.58882e-22
3.40164e-20
4.09795e-15
2.10722e-15
8.13702e-16
2.77933e-16
8.11408e-17
1.85076e-17
2.16426e-18
7.07973e-20
5.07298e-21
4.46578e-22
4.51133e-23
1.80426e-21
1.32563e-15
6.39539e-16
2.11659e-16
5.75644e-17
1.13966e-17
1.31608e-18
6.71535e-20
4.51609e-21
3.75003e-22
3.14389e-23
2.39186e-24
2.48373e-23
4.8651e-17
6.1366e-15
1.06906e-13
3.84077e-13
7.56692e-13
9.49105e-13
8.28391e-13
6.27159e-13
5.95807e-13
8.21048e-13
1.34477e-12
2.51748e-12
2.2719e-17
4.61893e-15
8.56597e-14
3.59889e-13
8.43682e-13
1.2749e-12
1.37636e-12
1.32213e-12
1.54016e-12
2.11879e-12
3.33185e-12
5.66202e-12
9.98167e-18
3.36708e-15
5.49021e-14
2.75522e-13
7.95494e-13
1.48916e-12
1.95204e-12
2.0861e-12
2.43792e-12
3.34814e-12
5.0947e-12
8.11476e-12
7.39009e-18
1.80207e-15
2.51104e-14
1.55322e-13
5.73462e-13
1.38334e-12
2.28874e-12
2.78691e-12
3.05894e-12
3.90069e-12
5.69711e-12
8.69631e-12
6.44903e-12
1.35861e-11
2.38295e-11
3.70844e-11
0.170483
0.811391
0.996744
1
1
1
1
1
1.09054e-11
1.89861e-11
2.97219e-11
0.051916
0.561702
1
1
1
1
1
1
1
1.3709e-11
2.15565e-11
3.19557e-11
0.0874449
0.880976
1
1
1
1
1
1
1
1.35833e-11
2.01645e-11
2.62096e-11
0.194547
0.939493
1
1
1
1
1
1
1
1
1
1
1
1
1
1
1
1
1
1
0.999933
1
1
1
1
1
1
1
1
1
1
0.999888
0.999498
1
1
1
1
1
1
1
1
1
1
0.99989
0.999717
1
1
1
1
1
1
1
1
1
0.999995
0.999982
1
1
1
0.999197
0.692253
0.189503
3.24482e-11
2.08088e-11
1.14907e-11
5.22798e-12
1.83215e-12
4.53685e-13
7.04466e-14
1
1
1
0.898944
0.281366
2.85717e-11
1.69964e-11
8.73236e-12
3.5835e-12
1.09521e-12
2.25483e-13
2.44682e-14
1
1
1
0.935224
0.260739
2.45208e-11
1.36471e-11
6.39946e-12
2.34235e-12
6.24445e-13
1.08379e-13
9.09706e-15
1
1
1
0.883936
0.17218
2.04657e-11
1.0608e-11
4.48007e-12
1.45685e-12
3.41428e-13
5.09117e-14
3.45438e-15
1
1
1
0.664978
0.051027
1.64464e-11
7.80189e-12
2.9467e-12
8.58018e-13
1.79724e-13
2.35138e-14
1.3284e-15
1
1
0.969025
0.317163
0.000569469
1.29672e-11
5.23241e-12
1.81372e-12
4.85413e-13
9.22026e-14
1.06967e-14
5.11511e-16
1
1
0.653828
0.0562108
1.7198e-11
8.41614e-12
3.36594e-12
1.07827e-12
2.63696e-13
4.52819e-14
4.65532e-15
1.89456e-16
1
0.891973
0.224706
2.00166e-05
1.19712e-11
5.45488e-12
2.03455e-12
5.98558e-13
1.32273e-13
2.02149e-14
1.81383e-15
6.21084e-17
1
0.551922
0.0309874
1.6162e-11
8.15405e-12
3.3775e-12
1.12425e-12
2.91311e-13
5.59219e-14
7.31808e-15
5.51782e-16
1.52973e-17
0.930709
0.259777
2.07165e-11
1.08832e-11
4.86458e-12
1.74041e-12
4.84139e-13
1.02098e-13
1.56872e-14
1.62455e-15
9.53403e-17
1.96839e-18
0.819871
0.134299
1.45729e-11
6.55479e-12
2.25023e-12
5.77753e-13
1.10866e-13
1.58245e-14
1.6358e-15
1.13727e-16
4.41184e-18
5.60389e-20
0.669868
0.0455096
8.90037e-12
1.95262e-12
2.53968e-13
2.32666e-14
1.64098e-15
9.05228e-17
3.72887e-18
1.03561e-19
1.53828e-21
6.00438e-24
4.3101e-18
1.01444e-16
1.51598e-15
1.41916e-14
9.25879e-14
4.56385e-13
1.77498e-12
5.55907e-12
1.41142e-11
2.93907e-11
4.705e-11
6.0394e-11
4.63085e-19
1.43216e-17
2.46569e-16
2.66e-15
2.00365e-14
1.14347e-13
5.1887e-13
1.91756e-12
5.82543e-12
1.44994e-11
2.71345e-11
3.92034e-11
3.29402e-20
1.42126e-18
2.92979e-17
3.68592e-16
3.22189e-15
2.13062e-14
1.12713e-13
4.94266e-13
1.82941e-12
5.27351e-12
1.11792e-11
1.76924e-11
1.82231e-21
1.05789e-19
2.62111e-18
3.86995e-17
3.95436e-16
3.05155e-15
1.88537e-14
9.78461e-14
4.44353e-13
1.46105e-12
3.41769e-12
5.75282e-12
8.08926e-23
6.03978e-21
1.78764e-19
3.10239e-18
3.72191e-17
3.37962e-16
2.46257e-15
1.51149e-14
8.32756e-14
3.11106e-13
7.91219e-13
1.39043e-12
2.80775e-24
2.61484e-22
9.20415e-21
1.87903e-19
2.65014e-18
2.83818e-17
2.45575e-16
1.80576e-15
1.18171e-14
5.0208e-14
1.3764e-13
2.51239e-13
7.13726e-26
8.1953e-24
3.43851e-22
8.29188e-21
1.37846e-19
1.74183e-18
1.78654e-17
1.57331e-16
1.22618e-15
5.95178e-15
1.74315e-14
3.30188e-14
1.17387e-27
1.67935e-25
8.52384e-24
2.4597e-22
4.86537e-21
7.29286e-20
8.87443e-19
9.31469e-18
8.78971e-17
4.92765e-16
1.5285e-15
2.99371e-15
9.84507e-30
1.83258e-27
1.16798e-25
4.16243e-24
1.00542e-22
1.82409e-21
2.66968e-20
3.36222e-19
3.96969e-18
2.62802e-17
8.61116e-17
1.739e-16
2.6086e-32
7.00288e-30
6.07499e-28
2.86814e-26
9.00677e-25
2.09257e-23
3.89082e-22
6.27192e-21
9.62703e-20
7.87798e-19
2.7557e-18
5.75696e-18
7.17821e-36
3.55144e-33
5.03178e-31
3.714e-29
1.78003e-27
6.22545e-26
1.73228e-24
4.13887e-23
9.11564e-22
1.02835e-20
3.96504e-20
8.70507e-20
2.83886e-42
6.65488e-39
2.84441e-36
5.81759e-34
7.49633e-32
6.8982e-30
4.88272e-28
2.80455e-26
1.38265e-24
3.13805e-23
1.44062e-22
3.48525e-22
6.24611e-11
4.45644e-11
1.38354e-11
5.97231e-12
1.57575e-12
2.56123e-13
3.2133e-14
4.42675e-15
5.73647e-16
6.35943e-17
5.54024e-18
3.2914e-19
4.23172e-11
3.28188e-11
6.53731e-12
1.80066e-12
3.57282e-13
5.16444e-14
6.7983e-15
8.49107e-16
9.21424e-17
8.0825e-18
5.19271e-19
1.82482e-20
1.90765e-11
1.54073e-11
2.17887e-12
4.68421e-13
7.72661e-14
9.77746e-15
1.14233e-15
1.18667e-16
1.0321e-17
7.0503e-19
3.3791e-20
8.05341e-22
5.76924e-12
4.36255e-12
6.03883e-13
1.01556e-13
1.35185e-14
1.41122e-15
1.35175e-16
1.12814e-17
7.82909e-19
4.23401e-20
1.56884e-21
2.73258e-23
1.18978e-12
7.72523e-13
1.12806e-13
1.52875e-14
1.61655e-15
1.36672e-16
1.05951e-17
7.2057e-19
4.1027e-20
1.82037e-21
5.44574e-23
7.32345e-25
1.69314e-13
8.99655e-14
1.29694e-14
1.46616e-15
1.25076e-16
8.64469e-18
5.54493e-19
3.16175e-20
1.52407e-21
5.73174e-23
1.43208e-24
1.54291e-26
1.67741e-14
7.04266e-15
9.39458e-16
8.94684e-17
6.26993e-18
3.59399e-19
1.94316e-20
9.47166e-22
3.9353e-23
1.27391e-24
2.69492e-26
2.36012e-28
1.14183e-15
3.69158e-16
4.33312e-17
3.45992e-18
2.0016e-19
9.49768e-21
4.32067e-22
1.79264e-23
6.36839e-25
1.75436e-26
3.10254e-28
2.18264e-30
5.05012e-17
1.23883e-17
1.22504e-18
8.03723e-20
3.75882e-21
1.42381e-22
5.24238e-24
1.77431e-25
5.14927e-27
1.15189e-28
1.62519e-30
8.75027e-33
1.29529e-18
2.38528e-19
1.8947e-20
9.76516e-22
3.46476e-23
9.50009e-25
2.55984e-26
6.37768e-28
1.36428e-29
2.23908e-31
2.27518e-33
8.34537e-36
1.53972e-20
2.09796e-21
1.25404e-22
4.65987e-24
1.09452e-25
1.73257e-27
2.72201e-29
3.98298e-31
5.02722e-33
4.85841e-35
2.83108e-37
5.30844e-40
4.82836e-23
4.86503e-24
1.9661e-25
4.49654e-27
5.20509e-29
2.26501e-31
9.87033e-34
4.06406e-36
1.46558e-38
4.05365e-41
6.28107e-44
1.7585e-47
2.13763e-24
1.03691e-22
2.61928e-21
3.73911e-20
3.48974e-19
2.345e-18
1.20871e-17
4.97953e-17
1.68379e-16
4.23269e-16
6.8359e-16
7.51493e-16
1.13507e-25
6.80648e-24
1.96997e-22
3.31956e-21
3.72233e-20
3.01931e-19
1.87317e-18
9.32173e-18
3.89488e-17
1.07817e-16
1.85889e-16
2.07865e-16
4.18567e-27
3.35108e-25
1.14263e-23
2.27572e-22
3.07451e-21
3.06008e-20
2.35681e-19
1.4526e-18
7.4185e-18
2.31126e-17
4.27923e-17
4.89743e-17
1.26954e-28
1.3065e-26
5.25009e-25
1.22905e-23
1.98323e-22
2.41035e-21
2.32616e-20
1.84929e-19
1.12829e-18
4.0228e-18
8.02462e-18
9.43523e-18
3.21136e-30
4.08226e-28
1.92456e-26
5.27052e-25
1.00676e-23
1.47746e-22
1.76844e-21
1.80495e-20
1.33052e-19
5.49716e-19
1.17993e-18
1.4224e-18
6.49022e-32
9.98723e-30
5.51807e-28
1.76617e-26
3.97343e-25
6.9703e-24
1.01988e-22
1.31376e-21
1.17852e-20
5.69753e-20
1.30962e-19
1.59533e-19
9.70247e-34
1.80377e-31
1.17545e-29
4.42111e-28
1.17277e-26
2.44637e-25
4.31949e-24
6.87534e-23
7.54362e-22
4.3029e-21
1.05313e-20
1.27941e-20
9.33905e-36
2.14407e-33
1.68331e-31
7.57131e-30
2.39589e-28
5.96621e-27
1.26437e-25
2.4466e-24
3.30842e-23
2.24664e-22
5.83073e-22
7.01814e-22
4.47222e-38
1.3502e-35
1.34132e-33
7.50805e-32
2.92317e-30
8.87998e-29
2.28602e-27
5.3825e-26
9.15633e-25
7.50767e-24
2.06524e-23
2.46201e-23
6.41174e-41
2.93448e-38
4.07767e-36
3.08451e-34
1.5853e-32
6.24081e-31
2.05321e-29
6.11954e-28
1.38742e-26
1.41531e-25
4.15199e-25
4.92704e-25
8.33675e-45
8.2049e-42
1.98517e-39
2.44412e-37
1.96349e-35
1.17023e-33
5.67188e-32
2.43048e-30
8.69941e-29
1.18734e-27
3.77812e-27
4.51405e-27
3.94633e-52
7.31233e-48
6.48007e-45
2.40904e-42
5.30603e-40
8.09528e-38
9.66277e-36
1.02543e-33
1.09288e-31
2.47393e-30
8.87927e-30
1.09161e-29
3.81328e-16
1.68305e-16
4.53343e-17
8.78269e-18
1.06599e-18
8.12745e-20
5.31728e-21
4.06127e-22
3.12508e-23
2.19093e-24
1.2716e-25
5.1436e-27
9.38618e-17
3.63899e-17
7.32786e-18
9.92871e-19
9.34107e-20
6.27967e-21
4.68809e-22
3.53561e-23
2.44786e-24
1.43596e-25
6.39777e-27
1.57708e-28
1.89315e-17
6.04954e-18
9.06697e-19
1.01484e-19
8.26896e-21
5.78921e-22
4.13117e-23
2.76225e-24
1.62007e-25
7.74844e-27
2.66677e-28
4.58419e-30
2.97663e-18
7.51616e-19
9.65544e-20
9.28112e-21
6.77989e-22
4.5067e-23
2.88379e-24
1.67098e-25
8.28636e-27
3.26524e-28
8.89369e-30
1.13059e-31
3.50267e-19
7.31888e-20
8.34002e-21
7.01119e-22
4.51447e-23
2.69601e-24
1.50957e-25
7.53133e-27
3.17232e-28
1.04298e-29
2.29843e-31
2.24021e-33
3.16563e-20
5.46083e-21
5.49426e-22
4.02346e-23
2.24047e-24
1.1717e-25
5.68479e-27
2.44057e-28
8.77763e-30
2.43235e-31
4.40951e-33
3.38193e-35
2.12951e-21
3.01385e-22
2.62464e-23
1.64995e-24
7.81501e-26
3.51497e-27
1.46236e-28
5.37054e-30
1.6449e-31
3.84527e-33
5.76894e-35
3.52784e-37
9.98395e-23
1.1606e-23
8.54919e-25
4.51037e-26
1.76976e-27
6.66543e-29
2.3237e-30
7.15132e-32
1.83166e-33
3.55775e-35
4.36796e-37
2.11501e-39
2.99068e-24
2.84769e-25
1.72331e-26
7.34767e-28
2.26742e-29
6.80381e-31
1.89408e-32
4.66118e-34
9.54272e-36
1.47522e-37
1.42219e-39
5.22405e-42
5.02111e-26
3.85596e-27
1.83032e-28
5.89368e-30
1.30404e-31
2.82402e-33
5.69033e-35
1.01625e-36
1.51177e-38
1.69306e-40
1.16423e-42
2.90394e-45
3.74061e-28
2.23673e-29
7.66808e-31
1.63744e-32
2.1265e-34
2.71026e-36
3.21617e-38
3.38481e-40
2.96845e-42
1.95213e-44
7.68641e-47
9.89999e-50
7.10879e-31
3.09338e-32
6.46944e-34
6.71591e-36
2.6303e-38
1.01379e-40
3.62504e-43
1.1442e-45
2.99425e-48
5.80036e-51
6.2626e-54
1.38957e-57
1.84396e-17
5.1865e-16
7.43085e-15
5.80929e-14
2.80767e-13
9.009e-13
1.98343e-12
3.06287e-12
3.56401e-12
4.04965e-12
5.18401e-12
7.19896e-12
2.12653e-18
7.97345e-17
1.40944e-15
1.39905e-14
8.81821e-14
3.77868e-13
1.13032e-12
2.35873e-12
3.5049e-12
4.16488e-12
4.66222e-12
5.10982e-12
1.54596e-19
8.18639e-18
1.80692e-16
2.24684e-15
1.81424e-14
1.02424e-13
4.16511e-13
1.21188e-12
2.45387e-12
3.55202e-12
4.18883e-12
4.41359e-12
8.45013e-21
6.03547e-19
1.64758e-17
2.52849e-16
2.56479e-15
1.86934e-14
1.01888e-13
4.16698e-13
1.14792e-12
2.11026e-12
2.84147e-12
2.80507e-12
3.60024e-22
3.30553e-20
1.10134e-18
2.06035e-17
2.58344e-16
2.3836e-15
1.70562e-14
9.6658e-14
3.57488e-13
8.36052e-13
1.28719e-12
9.47444e-13
1.16891e-23
1.34159e-21
5.40691e-20
1.22288e-18
1.87399e-17
2.15461e-16
1.98204e-15
1.51713e-14
7.4328e-14
2.20761e-13
3.92823e-13
1.40465e-20
2.72169e-25
3.87172e-23
1.88628e-21
5.14902e-20
9.59611e-19
1.36183e-17
1.58385e-16
1.593e-15
1.02219e-14
3.84655e-14
8.04079e-14
2.85675e-29
4.01516e-27
7.19163e-25
4.29764e-23
1.43169e-21
3.26742e-20
5.73096e-19
8.36407e-18
1.08206e-16
9.04166e-16
4.30718e-15
1.05133e-14
1.1856e-29
2.94227e-29
7.01784e-27
5.37145e-25
2.26461e-23
6.52046e-22
1.44381e-20
2.67007e-19
4.42438e-18
4.85284e-17
2.94845e-16
8.37956e-16
1.08088e-29
6.53847e-32
2.38289e-29
2.58079e-27
1.49931e-25
5.85957e-24
1.73953e-22
4.27333e-21
9.38969e-20
1.40753e-18
1.12129e-17
3.79678e-17
1.17881e-29
1.36899e-35
1.08853e-32
2.09521e-30
2.0359e-28
1.2835e-26
5.96927e-25
2.24489e-23
7.43795e-22
1.72554e-20
1.94175e-19
8.49133e-19
4.28838e-30
2.64514e-41
1.87092e-38
1.38582e-35
4.30694e-33
7.93936e-31
1.00932e-28
9.79772e-27
7.96126e-25
4.64093e-23
9.08823e-22
6.27643e-21
5.13044e-31
1.02085e-11
1.43782e-11
1.41512e-11
0.590851
0.995293
1
1
1
1
1
1
1
4.89525e-12
4.04052e-12
0.130006
0.88506
1
1
1
1
1
1
1
1
8.11683e-12
4.04059e-12