/*--------------------------------*- C++ -*----------------------------------*\
| =========                 |                                                 |
| \\      /  F ield         | OpenFOAM: The Open Source CFD Toolbox           |
|  \\    /   O peration     | Version:  2.4.0                                 |
|   \\  /    A nd           | Web:      www.OpenFOAM.org                      |
|    \\/     M anipulation  |                                                 |
\*---------------------------------------------------------------------------*/
FoamFile
{
    version     2.0;
    format      ascii;
    class       volVectorField;
    location    "0.4";
    object      U;
}
// * * * * * * * * * * * * * * * * * * * * * * * * * * * * * * * * * * * * * //

dimensions      [0 1 -1 0 0 0 0];

internalField   nonuniform List<vector> 
3072
(
(-0.534787 0.311667 1.54498e-23)
(-0.430259 0.168009 7.58731e-23)
(-0.534622 -0.306743 5.16872e-23)
(-0.180725 -0.191739 2.78262e-23)
(-0.185501 -0.461522 -1.83631e-23)
(-0.0876082 -0.321281 3.77356e-23)
(-0.0627607 -0.395902 2.08678e-22)
(-0.397944 0.124373 2.71328e-22)
(-0.753704 0.691355 3.98119e-22)
(1.19027 -0.407212 -1.18181e-23)
(2.27604 0.614246 6.5232e-24)
(2.0452 1.02356 -2.3776e-22)
(-1.41264 0.717782 -2.35679e-23)
(-1.37234 0.127221 2.46217e-23)
(-0.872872 0.0591481 1.00334e-22)
(-0.354994 -0.0413491 1.05019e-32)
(-0.329901 0.0142402 -1.06505e-22)
(0.157639 0.322041 -6.12171e-23)
(1.17261 0.396274 0)
(1.96788 0.533475 -8.48712e-25)
(2.67764 1.42047 4.41832e-23)
(2.34685 1.20767 0)
(2.22122 1.59976 1.66758e-22)
(2.0131 1.48339 -2.86293e-23)
(-1.46972 0.848412 0)
(-0.973406 0.831606 9.4287e-23)
(-0.382667 0.937518 2.94578e-23)
(0.516137 0.950355 9.0387e-24)
(1.2668 1.09618 -1.00067e-22)
(1.93162 1.32148 -1.39375e-22)
(2.25836 1.22226 2.681e-22)
(2.46549 1.33485 -2.9139e-23)
(2.58282 1.66157 -1.05109e-22)
(2.84488 1.45488 0)
(2.51157 1.55374 -2.07313e-22)
(2.40506 1.50842 -5.01572e-23)
(-1.0827 1.17708 0)
(-0.670207 1.4093 0)
(0.223472 1.58802 0)
(1.04111 1.72321 2.71167e-23)
(1.73873 1.87275 -8.78734e-23)
(2.15865 1.88676 -3.73567e-23)
(2.52603 1.85678 1.4929e-22)
(2.62803 1.82565 1.15065e-22)
(2.78004 1.90992 -1.33837e-22)
(2.8337 1.91271 -6.66074e-23)
(2.58513 1.95854 -1.73338e-23)
(2.50711 1.98472 3.60525e-23)
(-0.576883 1.30139 -7.19813e-24)
(-0.191018 1.53047 2.5866e-23)
(0.352433 1.79886 5.31027e-24)
(1.27311 1.82948 -3.81614e-24)
(1.73041 1.92633 9.04268e-24)
(2.25372 1.97466 -1.1439e-22)
(2.61585 1.81724 -7.18618e-23)
(2.76925 1.75369 1.2873e-24)
(2.72584 1.77938 -2.11731e-23)
(2.4541 1.70056 4.53399e-23)
(2.25497 1.64416 2.33094e-23)
(2.14393 1.70646 0)
(-0.058628 1.2523 -4.08961e-24)
(0.0196237 1.44316 -1.47236e-24)
(0.865673 1.80031 2.67372e-23)
(1.32898 1.83656 -5.27463e-23)
(1.92438 1.87677 -1.60188e-23)
(2.20936 1.79214 0)
(2.46331 1.75746 -5.04272e-23)
(2.53029 1.69724 -2.60468e-23)
(2.28474 1.62887 -6.64297e-24)
(1.99876 1.50346 -4.23555e-23)
(1.98226 1.49745 -3.74251e-24)
(1.93004 1.61609 1.87595e-23)
(-0.0545572 1.10824 -4.39922e-24)
(0.444575 1.60328 -2.62433e-23)
(0.904115 1.63513 0)
(1.42153 1.75229 0)
(1.79679 1.5633 0)
(2.01986 1.45643 -8.86049e-23)
(2.31889 1.33935 6.51277e-23)
(2.23167 1.29604 6.9129e-23)
(2.03822 1.28538 -3.55973e-23)
(1.89125 1.2575 -6.75498e-23)
(2.07338 1.41337 -4.79996e-24)
(1.96483 1.67483 -3.51733e-22)
(0.55076 1.55353 -9.03417e-24)
(0.69634 1.44582 -1.22396e-23)
(1.19064 1.64123 0)
(1.37243 1.55924 7.88936e-24)
(1.58322 1.52357 5.52749e-24)
(1.86187 1.23969 -1.48083e-22)
(2.08947 1.10109 6.56162e-23)
(2.02095 1.02056 0)
(1.93737 1.18183 2.73987e-23)
(1.76463 1.23797 1.09699e-23)
(1.95607 1.19919 6.959e-23)
(1.51811 1.3523 -1.12448e-22)
(0.352145 0.983054 -3.18867e-24)
(0.731225 1.51335 -4.43681e-24)
(1.08349 1.41532 -1.93164e-25)
(1.30941 1.43139 3.96996e-23)
(1.48744 1.25285 1.54607e-24)
(1.64446 1.08484 -6.68997e-23)
(1.89298 0.8219 1.66144e-22)
(1.85285 0.773642 1.1423e-22)
(1.75265 0.901714 -4.12224e-23)
(1.5473 0.932264 -2.72072e-23)
(1.59495 0.98044 0)
(0.957913 1.10719 -9.20368e-32)
(0.645627 1.78929 3.56726e-24)
(0.914032 1.29753 1.51983e-23)
(1.22372 1.39206 0)
(1.32663 1.20254 7.30798e-34)
(1.37311 1.17095 -6.2438e-25)
(1.46054 0.956519 1.05936e-23)
(1.61603 0.650801 -8.29617e-23)
(1.58809 0.374342 -8.95254e-23)
(1.6217 0.486929 -8.10108e-23)
(1.23551 0.468897 1.08209e-23)
(1.23107 0.584328 1.31023e-22)
(0.442277 0.672691 -1.1082e-22)
(0.561909 0.895469 3.55583e-24)
(0.690653 1.41364 7.43332e-24)
(0.981471 1.14095 -2.37231e-24)
(1.09209 1.09835 -3.02409e-23)
(1.21197 0.942704 -5.77029e-23)
(1.23849 0.783337 1.70154e-23)
(1.42844 0.580806 7.31078e-23)
(1.39549 0.125996 2.21587e-22)
(1.34565 0.104609 8.6436e-23)
(0.865862 0.0993462 6.15772e-23)
(0.759773 0.266441 1.18547e-22)
(0.0192847 0.399125 2.18489e-23)
(0.247192 2.14207 7.84234e-24)
(0.85341 1.28015 -3.82335e-24)
(1.09431 1.34932 0)
(1.17773 1.13234 -2.03868e-24)
(1.12599 1.07681 -5.08392e-23)
(1.15892 0.828323 -5.26251e-23)
(1.16282 0.607421 1.27372e-23)
(1.14887 0.24799 6.76868e-23)
(1.11855 0.0567739 5.34636e-23)
(0.689704 -0.0271122 -1.8255e-22)
(0.52193 0.105112 3.1352e-23)
(-0.0876557 0.25187 1.26778e-22)
(2.4681 1.36583 -2.08209e-23)
(2.36342 1.32202 -4.17327e-23)
(2.52999 1.4406 3.57026e-23)
(2.38633 1.13835 1.72543e-22)
(2.37888 1.21908 5.49791e-22)
(2.05248 0.774596 2.42381e-22)
(1.973 0.87987 -4.93603e-24)
(1.5947 0.606964 0)
(1.33198 0.420574 3.1091e-23)
(1.17925 0.560462 6.354e-23)
(0.806494 0.651452 1.21018e-23)
(0.533061 -0.103235 4.40309e-25)
(2.04159 1.87827 -2.37448e-23)
(1.99948 1.61525 0)
(1.92847 1.93469 -9.27604e-23)
(1.98834 1.59924 -4.2275e-23)
(1.81423 1.63594 0)
(1.99329 1.42885 9.82521e-24)
(1.54944 1.00728 0)
(1.72884 1.19234 1.1236e-22)
(1.25845 0.785708 4.02106e-23)
(1.23563 0.734073 8.8789e-24)
(1.02539 0.786327 2.61676e-24)
(1.02651 0.188953 8.35032e-25)
(2.25394 1.57779 3.65808e-23)
(2.24119 1.52803 2.03449e-23)
(2.05879 1.44286 1.8698e-31)
(2.12159 1.54835 -8.1757e-23)
(1.8055 1.38808 -6.09345e-24)
(1.85973 1.59345 5.03071e-23)
(1.65255 1.39383 2.03134e-23)
(1.51792 1.09267 1.68784e-23)
(1.28698 1.13411 0)
(1.25933 1.03096 -8.18663e-26)
(0.952498 1.10217 1.01707e-24)
(1.14548 0.912005 1.86426e-25)
(2.21113 1.95195 2.83823e-23)
(2.27123 1.94554 8.6301e-23)
(1.97589 1.79721 -3.11413e-23)
(2.0741 1.67818 0)
(1.81219 1.67159 -2.76886e-23)
(1.80392 1.49655 0)
(1.71392 1.60673 -2.23378e-23)
(1.53665 1.56347 1.91541e-23)
(1.32795 1.28709 6.20338e-24)
(1.24716 1.13759 -2.37049e-24)
(0.984659 1.088 0)
(1.05034 0.885105 1.97092e-25)
(1.91342 1.70648 0)
(1.98447 1.73719 -4.55332e-23)
(1.70149 1.75059 -2.29203e-23)
(1.75175 1.6367 0)
(1.48335 1.59621 -1.62788e-22)
(1.50631 1.49087 -2.9812e-22)
(1.42419 1.49076 1.85339e-23)
(1.38244 1.52114 -1.06963e-23)
(1.29674 1.56158 -2.85475e-23)
(1.28804 1.51908 -3.62949e-24)
(1.07632 1.38131 -1.67585e-24)
(1.15554 1.14237 3.67162e-24)
(1.72589 1.60767 6.68566e-23)
(1.68656 1.53528 -1.42901e-22)
(1.37871 1.58955 -1.55325e-22)
(1.42944 1.61201 0)
(1.1024 1.63893 9.31487e-23)
(1.23467 1.42668 1.62242e-22)
(1.08754 1.37741 0)
(1.03099 1.45252 0)
(1.0191 1.37389 6.36244e-24)
(1.09319 1.36602 0)
(1.09182 1.39756 -5.9222e-24)
(1.11052 1.18822 6.3889e-24)
(1.62595 1.69279 -1.47386e-22)
(1.42225 1.63144 9.11983e-23)
(1.02972 1.52154 2.54566e-24)
(1.10096 1.54607 0)
(0.740838 1.54312 -7.57751e-23)
(0.957888 1.33194 -1.25912e-22)
(0.816737 1.37538 -3.26581e-23)
(0.81501 1.39779 0)
(0.903164 1.36285 1.12004e-23)
(0.902452 1.30133 -7.3829e-24)
(1.00705 1.32819 5.12849e-25)
(1.18667 1.20314 6.52434e-24)
(1.14364 1.46415 2.8507e-23)
(0.861003 1.58694 1.02791e-22)
(0.575634 1.41426 6.25989e-24)
(0.676113 1.3947 6.08311e-23)
(0.367628 1.46236 1.49572e-22)
(0.583731 1.24907 4.8473e-23)
(0.55571 1.26072 5.81668e-23)
(0.527353 1.22779 1.38115e-24)
(0.664548 1.19031 -2.57863e-23)
(0.704478 1.16405 1.00731e-23)
(0.887488 1.11942 -1.84309e-23)
(1.1228 1.0273 1.79144e-24)
(0.725832 1.3096 0)
(0.330901 1.30624 0)
(0.379505 1.30019 4.21342e-23)
(0.437144 1.26536 9.69929e-23)
(0.265322 1.39912 1.2159e-22)
(0.55003 1.17894 3.63803e-23)
(0.322485 1.25546 -6.28738e-23)
(0.407351 1.17943 1.7657e-23)
(0.542199 1.12841 1.79691e-23)
(0.570466 0.987302 0)
(0.844501 0.88759 -1.72258e-23)
(1.1546 0.7981 4.39919e-32)
(0.291278 0.962615 7.33558e-23)
(-0.0479336 1.00531 0)
(0.220895 1.05718 -1.62644e-31)
(0.228423 1.10619 3.01645e-23)
(0.118221 1.20921 4.72369e-23)
(0.493761 1.12527 9.19351e-23)
(0.100159 1.25004 8.57726e-24)
(0.327281 1.04923 9.8042e-24)
(0.509806 1.09127 -2.06714e-23)
(0.469124 0.914036 -7.6986e-24)
(0.840478 0.640974 -2.44891e-24)
(1.10538 0.432665 5.54609e-24)
(-0.00575375 0.710439 1.00326e-22)
(-0.187433 0.839054 5.91392e-23)
(0.169868 0.885724 -8.34605e-23)
(-0.110113 0.958095 -9.51791e-23)
(-0.096409 1.01337 7.90191e-23)
(0.129097 0.948496 5.60556e-23)
(-0.253224 1.10759 -1.44559e-23)
(0.206821 0.865433 3.86964e-23)
(0.0744396 0.925711 1.81939e-24)
(0.348334 0.676365 1.98309e-23)
(0.855101 0.419639 1.15588e-23)
(0.87006 0.12512 -2.62582e-24)
(0.0214991 0.530205 1.56479e-22)
(-0.176047 0.627873 -3.57125e-23)
(0.0699822 0.763419 5.21854e-23)
(-0.424108 0.886412 -1.8429e-31)
(-0.0866592 0.962481 6.67347e-23)
(-0.325907 0.930867 5.63347e-23)
(-0.368219 0.984174 -1.63522e-23)
(0.123305 0.686059 -3.46568e-23)
(-0.215123 0.738779 0)
(0.495137 0.434388 3.94665e-23)
(0.360059 0.199949 -2.89684e-23)
(1.17343 -0.475111 -1.5902e-23)
(0.478221 0.421631 -9.26468e-25)
(0.298393 0.61763 3.65772e-23)
(-0.199218 0.672029 6.2746e-23)
(-0.0164926 0.419617 1.54561e-23)
(-0.399229 0.458555 -1.20508e-23)
(-0.0726711 0.253162 -8.15641e-24)
(-0.148081 0.465626 -2.87881e-22)
(0.544221 0.704348 -2.37983e-22)
(0.399396 0.588367 5.91137e-22)
(-0.29744 -1.58297 -1.07404e-23)
(0.786627 -2.07943 1.61379e-22)
(0.991637 -2.04447 -5.48373e-24)
(0.637236 0.869 1.06582e-24)
(0.486012 1.00403 -5.66252e-23)
(0.337411 0.641966 3.92141e-24)
(0.353549 0.311602 -8.89162e-24)
(0.391552 -0.263127 3.18609e-23)
(0.600426 -0.96271 -1.42661e-23)
(0.520777 -1.47298 -3.55361e-24)
(1.11695 -2.18733 0)
(1.58416 -2.56996 6.74337e-23)
(1.39768 -2.50534 7.45445e-22)
(1.78378 -1.9789 2.26747e-22)
(1.67906 -2.18964 0)
(0.91152 0.697001 4.41621e-24)
(1.03777 0.517008 -1.02479e-23)
(1.17516 0.0772124 -2.42137e-23)
(1.23504 -0.5771 0)
(1.3208 -1.19444 7.08501e-23)
(1.49106 -1.78316 1.45187e-22)
(1.41945 -2.07606 -3.46595e-22)
(1.69608 -2.37576 -1.23966e-23)
(1.72956 -2.63993 -6.26952e-23)
(1.6067 -2.71249 -2.37806e-22)
(1.58444 -2.42416 0)
(1.6637 -2.44646 0)
(0.883994 0.571105 1.07905e-23)
(1.14227 0.494161 -2.58743e-23)
(1.45789 -0.0770645 4.33611e-23)
(1.5823 -0.790799 -1.38485e-22)
(1.74768 -1.50473 1.03302e-22)
(1.83204 -1.94085 -1.4785e-22)
(1.7672 -2.25296 -5.60805e-22)
(1.77341 -2.33132 -1.5551e-22)
(1.77227 -2.46695 -4.21119e-23)
(1.74283 -2.51943 -3.83106e-23)
(1.78648 -2.37133 0)
(1.85516 -2.35424 0)
(1.19125 0.449373 6.65778e-25)
(1.43812 -0.233445 -4.90139e-24)
(1.63521 -0.626388 -6.10638e-23)
(1.76392 -1.1331 -9.23987e-23)
(1.74159 -1.55001 6.8483e-23)
(1.77232 -1.96154 -1.1241e-22)
(1.64669 -2.20605 -8.04562e-23)
(1.59342 -2.26828 7.45072e-24)
(1.58066 -2.4103 -1.04814e-23)
(1.59774 -2.39298 0)
(1.65548 -2.28622 -1.01201e-23)
(1.70515 -2.18995 -1.47898e-23)
(1.34782 -0.336301 -3.7371e-24)
(1.39355 -0.335957 0)
(1.62167 -0.861482 -4.2208e-23)
(1.63233 -1.22678 -3.75765e-23)
(1.66189 -1.70307 -1.01197e-22)
(1.59303 -1.963 3.93411e-24)
(1.50292 -2.14583 3.23941e-23)
(1.47153 -2.30437 -1.80031e-23)
(1.49893 -2.30745 -4.36912e-23)
(1.48529 -2.19102 -2.19064e-25)
(1.59294 -2.0969 1.46794e-24)
(1.61412 -1.86712 -9.95894e-23)
(0.992298 -0.141751 -4.20918e-24)
(1.45977 -0.518764 0)
(1.4632 -0.878948 0)
(1.57489 -1.28182 -9.02759e-23)
(1.42814 -1.55482 8.40821e-33)
(1.38137 -1.76128 8.23263e-23)
(1.30116 -2.03106 1.36659e-22)
(1.26864 -2.12306 -2.60491e-23)
(1.1762 -2.09101 -2.66591e-23)
(1.19711 -1.93644 -1.04767e-23)
(1.27056 -1.7769 -1.47692e-23)
(1.31595 -1.52865 -6.25899e-23)
(1.52738 -0.65331 -3.79379e-24)
(1.34558 -0.803395 -1.21618e-23)
(1.44317 -1.10503 -1.55053e-23)
(1.31497 -1.26247 -4.18849e-23)
(1.27127 -1.49642 4.46767e-23)
(1.17685 -1.72552 -1.51425e-23)
(1.03829 -1.84467 4.85641e-24)
(0.923004 -1.86819 -6.48916e-23)
(0.88633 -1.81117 0)
(0.909905 -1.6122 0)
(0.975259 -1.40588 -5.63878e-24)
(1.08206 -1.14258 4.26108e-23)
(0.973913 -0.511419 -6.3126e-24)
(1.38219 -0.691676 -1.90924e-23)
(1.19893 -0.905206 1.6732e-23)
(1.26903 -1.17628 -3.41081e-23)
(1.06725 -1.42572 3.65638e-23)
(0.949173 -1.51989 -3.87221e-23)
(0.802266 -1.60417 0)
(0.687536 -1.56153 8.79467e-23)
(0.573293 -1.48233 8.77267e-23)
(0.528154 -1.28571 5.88779e-23)
(0.593206 -1.07195 3.30901e-23)
(0.787046 -0.727534 -9.86861e-23)
(1.60373 -0.571749 -7.34497e-24)
(1.33474 -0.810964 -1.23507e-23)
(1.29708 -1.08667 -2.72672e-32)
(1.13471 -1.25699 -2.7983e-23)
(1.0359 -1.32302 2.97961e-23)
(0.866827 -1.44014 7.60478e-23)
(0.624406 -1.42699 -2.08203e-23)
(0.421743 -1.41432 -2.93966e-23)
(0.325049 -1.28952 4.04995e-23)
(0.31952 -1.01174 -1.03497e-22)
(0.343929 -0.790533 0)
(0.487746 -0.369377 -1.98393e-22)
(0.948639 -0.58177 -5.7893e-24)
(1.27786 -0.712682 -2.36135e-23)
(1.05458 -0.800455 -3.25054e-23)
(1.07987 -0.945779 -4.76303e-26)
(0.832041 -1.10316 5.07766e-23)
(0.75373 -1.21142 5.18316e-23)
(0.601453 -1.18921 6.43711e-23)
(0.437702 -1.0734 7.65939e-23)
(0.231522 -0.950978 -4.75282e-23)
(0.167197 -0.717205 -2.41797e-22)
(0.285264 -0.546398 0)
(0.368533 -0.125091 -9.92485e-23)
(1.90966 -0.130648 -1.24378e-25)
(1.38865 -0.631667 2.59095e-24)
(1.29402 -0.856816 0)
(1.1227 -1.1602 -6.82251e-25)
(1.01558 -1.15927 4.4338e-23)
(0.747203 -1.14848 0)
(0.565566 -1.04955 7.03572e-23)
(0.434418 -1.0299 1.17105e-22)
(0.30799 -0.878001 1.42368e-22)
(0.125209 -0.642299 -6.12084e-23)
(0.253079 -0.480537 0)
(0.362127 -0.0614231 0)
(1.38362 -2.31616 8.66963e-23)
(1.23483 -2.28851 1.81417e-24)
(1.39721 -2.38554 3.71006e-23)
(1.08416 -2.25938 4.75306e-23)
(1.13213 -2.22345 2.16171e-22)
(0.802668 -1.96185 2.3109e-22)
(0.695813 -1.8018 0)
(0.624721 -1.50631 0)
(0.340344 -1.15834 2.81443e-23)
(0.376506 -1.08963 6.21429e-24)
(0.558774 -0.775373 1.16408e-32)
(-0.069149 -0.497162 -3.34725e-34)
(1.96571 -1.95136 -7.57966e-23)
(1.76783 -2.12866 4.70323e-23)
(1.80921 -1.86992 2.05829e-22)
(1.68362 -2.02409 1.74991e-22)
(1.45249 -1.70673 1.06992e-22)
(1.52569 -1.82561 0)
(1.12497 -1.53826 -5.63595e-23)
(1.11585 -1.44787 4.72761e-23)
(0.837969 -1.26305 3.03069e-23)
(0.67143 -1.13553 2.19997e-23)
(0.715435 -0.990008 2.12528e-24)
(0.0509447 -0.926876 -9.55425e-25)
(1.61941 -2.20953 0)
(1.75964 -2.29609 -2.772e-23)
(1.56476 -1.99189 -2.43626e-23)
(1.63133 -2.02109 0)
(1.41292 -1.71049 -3.2456e-22)
(1.32102 -1.6318 -2.34876e-22)
(1.38142 -1.47608 -1.05594e-31)
(1.21735 -1.31298 -4.345e-23)
(1.03464 -1.19624 0)
(0.946212 -1.13478 0)
(0.942516 -0.989134 -5.78703e-24)
(0.698093 -1.11725 -6.62294e-25)
(1.89112 -2.08671 0)
(1.90391 -2.09717 -2.35196e-24)
(1.91048 -1.88173 0)
(1.80357 -1.87632 -3.07103e-22)
(1.76133 -1.69129 -2.9511e-22)
(1.51063 -1.54809 -1.08975e-22)
(1.35682 -1.40707 1.64306e-23)
(1.41248 -1.26932 8.23984e-24)
(1.20748 -1.15985 1.30582e-23)
(0.989205 -1.06415 -2.95675e-24)
(0.929227 -0.959976 -3.8979e-24)
(0.783506 -1.01171 1.62263e-24)
(1.76879 -1.95951 3.27286e-23)
(1.75693 -1.83938 2.0297e-23)
(1.76152 -1.61784 0)
(1.72553 -1.58446 -6.63355e-24)
(1.72751 -1.45223 -2.02951e-22)
(1.59883 -1.40372 -3.60692e-22)
(1.5175 -1.32894 -8.88836e-24)
(1.51982 -1.20529 -3.48478e-23)
(1.3907 -1.17228 -4.35646e-24)
(1.1862 -1.10869 4.75879e-24)
(1.0203 -0.993838 -4.39766e-24)
(0.886177 -1.11815 1.85934e-24)
(1.69414 -1.66631 0)
(1.69006 -1.49162 1.38045e-22)
(1.70304 -1.2837 1.26099e-22)
(1.65374 -1.23911 0)
(1.66876 -1.11805 0)
(1.58352 -1.0939 9.79139e-24)
(1.4801 -1.11724 0)
(1.50783 -1.02114 0)
(1.40977 -1.03493 0)
(1.22787 -1.04156 2.28408e-24)
(1.00743 -0.986331 -1.81151e-24)
(0.877361 -1.06927 3.52674e-24)
(1.41215 -1.34436 0)
(1.53214 -1.16137 -1.05866e-22)
(1.55857 -0.917075 -9.4319e-24)
(1.54736 -0.916136 0)
(1.5447 -0.761925 1.17317e-22)
(1.4142 -0.838728 1.0113e-22)
(1.4336 -0.911562 -3.51747e-23)
(1.50328 -0.828809 -4.40927e-23)
(1.37254 -0.907081 0)
(1.22732 -0.990752 0)
(1.00786 -1.0179 1.57673e-23)
(0.81563 -1.13719 2.73368e-24)
(1.14663 -0.915091 0)
(1.35613 -0.768714 1.01314e-22)
(1.39947 -0.524393 1.26413e-22)
(1.41466 -0.587618 7.88888e-23)
(1.43142 -0.447014 1.08348e-22)
(1.2929 -0.587155 -4.37252e-23)
(1.28077 -0.677989 -3.30482e-23)
(1.41125 -0.627572 -4.62321e-23)
(1.28208 -0.752325 -3.30507e-23)
(1.1484 -0.838684 9.45963e-24)
(0.945169 -0.971254 1.17738e-23)
(0.693651 -1.11057 -5.06452e-24)
(0.805253 -0.550826 -5.30023e-23)
(0.985265 -0.380227 8.91725e-23)
(1.06761 -0.185986 1.43357e-22)
(1.14748 -0.272658 2.49021e-23)
(1.22682 -0.166476 2.37463e-23)
(1.12676 -0.417888 -7.65315e-23)
(1.16895 -0.445164 -3.28672e-23)
(1.24799 -0.418065 -5.66991e-25)
(1.13874 -0.629503 2.4687e-23)
(0.990826 -0.733447 1.28516e-23)
(0.833883 -0.915099 3.61904e-24)
(0.535379 -1.13328 -9.53095e-24)
(0.591669 -0.278781 -8.44893e-23)
(0.796202 -0.0421808 7.78241e-23)
(0.938776 0.0334036 -4.47766e-23)
(0.999511 -0.0829632 -7.67399e-23)
(1.04201 -0.0318047 7.11883e-23)
(0.977431 -0.360602 5.35573e-23)
(1.07447 -0.183078 3.71208e-24)
(1.11215 -0.25526 -1.22505e-24)
(1.01702 -0.48553 -7.0714e-32)
(0.816157 -0.539336 -1.25656e-23)
(0.549625 -0.924735 4.30381e-24)
(0.211151 -1.26011 2.56495e-25)
(0.463396 -0.132416 0)
(0.615168 0.146385 1.19276e-22)
(0.767189 0.0517239 -4.24717e-23)
(0.837065 0.0215225 -3.17446e-23)
(0.880312 -0.00767281 1.11049e-22)
(0.877466 -0.324622 8.28369e-23)
(0.976494 0.107969 2.17523e-24)
(0.963741 -0.141918 -9.96269e-23)
(0.87775 -0.24459 -5.84814e-23)
(0.5771 -0.302444 3.64307e-23)
(0.322441 -1.00486 6.88247e-24)
(-0.000994145 -0.939658 -1.79462e-24)
(0.477334 -0.149161 0)
(0.579103 0.191212 1.17726e-22)
(0.738595 -0.0512571 0)
(0.803755 0.148512 0)
(0.810139 -0.0987647 -3.80766e-24)
(0.889329 0.0361552 -2.64483e-23)
(0.939158 0.279903 -2.85907e-24)
(0.847894 -0.101405 0)
(0.799409 0.203859 0)
(0.353531 -0.467038 -4.82534e-23)
(0.0299721 -0.485405 -2.68257e-23)
(-0.472119 -1.16593 1.09735e-24)
(0.4195 -0.47838 -1.11474e-23)
(0.613598 -0.295946 1.97798e-23)
(0.665067 0.201776 8.08904e-23)
(0.416892 0.0163884 2.17987e-23)
(0.457464 0.40055 1.18986e-23)
(0.255781 0.0642942 0)
(0.476384 0.146314 1.66623e-24)
(0.711801 -0.554427 1.71609e-31)
(0.56477 -0.375501 3.08299e-22)
(-1.60054 0.287128 -9.73747e-24)
(-2.04861 -0.795312 1.90691e-22)
(-2.03541 -0.98683 0)
(0.872768 -0.636207 -1.40898e-23)
(0.99985 -0.48452 -2.68038e-23)
(0.639446 -0.336348 -4.91744e-23)
(0.30707 -0.360293 -2.95911e-23)
(-0.289282 -0.399515 0)
(-0.987955 -0.617296 -1.97114e-23)
(-1.48514 -0.544915 1.7976e-22)
(-2.19185 -1.15235 -2.68661e-22)
(-2.54397 -1.58922 -1.97564e-23)
(-2.49534 -1.40494 0)
(-1.94799 -1.78372 3.39491e-23)
(-2.18475 -1.67668 0)
(0.700709 -0.914384 -7.56669e-24)
(0.518903 -1.03453 1.905e-23)
(0.0749792 -1.15939 -3.27453e-23)
(-0.572546 -1.21624 7.47424e-23)
(-1.18517 -1.31625 -6.09825e-23)
(-1.76378 -1.49285 5.76932e-31)
(-2.05362 -1.42361 0)
(-2.34871 -1.71557 2.10267e-23)
(-2.62439 -1.72977 -4.17931e-23)
(-2.68153 -1.61112 -4.12075e-23)
(-2.40717 -1.58304 3.91274e-23)
(-2.43377 -1.67125 3.78029e-23)
(0.571849 -0.890897 6.39741e-24)
(0.499818 -1.15675 -6.28272e-23)
(-0.0768891 -1.46916 -1.69765e-22)
(-0.803037 -1.58517 4.73609e-23)
(-1.50652 -1.76284 -1.48898e-22)
(-1.93806 -1.84178 1.33959e-22)
(-2.21921 -1.77161 -3.9883e-22)
(-2.31149 -1.77925 -2.14151e-22)
(-2.44174 -1.76405 5.37103e-24)
(-2.50369 -1.73039 -4.31245e-23)
(-2.35916 -1.7805 -7.01222e-23)
(-2.35178 -1.84209 3.9373e-23)
(0.427055 -1.18254 -1.03489e-23)
(-0.22969 -1.42105 2.72726e-23)
(-0.621396 -1.64253 -6.3681e-23)
(-1.11389 -1.76521 -1.06568e-23)
(-1.54561 -1.75865 -2.6746e-23)
(-1.93454 -1.77917 2.08447e-22)
(-2.17374 -1.64795 0)
(-2.23453 -1.59152 9.45177e-23)
(-2.38269 -1.56426 6.61025e-23)
(-2.37094 -1.59601 -1.36744e-22)
(-2.26763 -1.63933 -1.63967e-22)
(-2.19258 -1.69401 0)
(-0.303518 -1.321 -4.07358e-24)
(-0.338484 -1.40817 2.14244e-23)
(-0.868892 -1.62231 4.51186e-23)
(-1.23909 -1.65453 -1.64116e-23)
(-1.70848 -1.68798 2.81839e-23)
(-1.95938 -1.60863 5.64724e-24)
(-2.13469 -1.50745 -1.68696e-23)
(-2.29029 -1.46369 5.1092e-23)
(-2.29592 -1.49384 1.74711e-22)
(-2.1643 -1.46685 2.00345e-22)
(-2.07434 -1.56741 0)
(-1.83956 -1.59019 0)
(-0.156016 -1.02606 0)
(-0.551829 -1.46222 -4.14279e-24)
(-0.911567 -1.47774 3.21479e-23)
(-1.30463 -1.58049 -2.36701e-23)
(-1.57662 -1.4246 -3.67413e-23)
(-1.77371 -1.37942 1.52188e-23)
(-2.0569 -1.29259 3.80267e-23)
(-2.14795 -1.26581 1.2857e-24)
(-2.09676 -1.15307 0)
(-1.92806 -1.17792 1.61318e-22)
(-1.75723 -1.26093 2.46982e-22)
(-1.48734 -1.31318 7.11369e-23)
(-0.659626 -1.50851 0)
(-0.78916 -1.34104 -2.23607e-23)
(-1.0898 -1.42918 0)
(-1.24336 -1.30292 2.68679e-23)
(-1.49448 -1.27838 -2.16448e-23)
(-1.73103 -1.18274 -2.0047e-23)
(-1.86463 -1.04014 -7.88656e-23)
(-1.87329 -0.916989 -1.24476e-22)
(-1.81808 -0.882431 0)
(-1.60253 -0.924536 -3.54614e-23)
(-1.38288 -0.984056 -3.40387e-31)
(-1.11685 -1.08994 0)
(-0.505091 -0.991519 -2.99379e-24)
(-0.703042 -1.41028 -4.59266e-24)
(-0.959115 -1.21756 4.59736e-24)
(-1.22312 -1.30093 -1.02471e-32)
(-1.48099 -1.06072 1.73711e-23)
(-1.55107 -0.9481 -4.93155e-23)
(-1.63938 -0.794371 -3.90872e-23)
(-1.57728 -0.695331 -1.57586e-22)
(-1.48888 -0.570358 0)
(-1.27694 -0.527044 1.25588e-22)
(-1.05464 -0.577823 1.59317e-22)
(-0.697218 -0.814338 -1.02127e-22)
(-0.609466 -1.60382 -6.33909e-24)
(-0.830184 -1.30048 -1.17164e-23)
(-1.08023 -1.26089 -2.24704e-23)
(-1.21254 -1.10466 -1.84135e-23)
(-1.30272 -1.04271 -4.98169e-33)
(-1.41542 -0.88937 -4.99654e-23)
(-1.42702 -0.62634 4.73654e-23)
(-1.39748 -0.420975 3.23508e-32)
(-1.27996 -0.319274 0)
(-0.983647 -0.34605 2.03446e-22)
(-0.767109 -0.352222 6.12571e-23)
(-0.330349 -0.492613 -4.62606e-32)
(-0.581627 -0.987037 3.22507e-24)
(-0.639668 -1.34695 -1.09647e-23)
(-0.840194 -1.08947 -2.11198e-23)
(-1.00643 -1.14803 0)
(-1.19505 -0.837096 1.56056e-23)
(-1.25279 -0.75475 -1.37483e-23)
(-1.23845 -0.596479 1.09708e-22)
(-1.08184 -0.447318 2.55805e-22)
(-0.960027 -0.2031 7.64584e-23)
(-0.698004 -0.153238 9.86624e-23)
(-0.534208 -0.30531 0)
(-0.0768134 -0.388086 1.11035e-22)
(-0.186061 -1.78505 8.18452e-24)
(-0.717953 -1.38083 6.0297e-24)
(-0.92346 -1.24236 -1.64013e-23)
(-1.14965 -1.12981 1.61651e-23)
(-1.11789 -1.03913 2.8402e-23)
(-1.09968 -0.792887 1.09688e-23)
(-1.02324 -0.562499 1.61913e-23)
(-0.987792 -0.474366 1.0053e-22)
(-0.850116 -0.329633 5.73726e-23)
(-0.594254 -0.10935 8.16311e-23)
(-0.468063 -0.25892 0)
(-0.0136179 -0.376662 -1.85133e-22)
(-2.29219 -1.37712 1.81333e-23)
(-2.27369 -1.22517 9.63872e-25)
(-2.36306 -1.38556 9.71997e-24)
(-2.24773 -1.08084 -2.06079e-23)
(-2.20213 -1.12488 2.39186e-22)
(-1.95977 -0.805873 2.2945e-22)
(-1.77555 -0.68851 2.51411e-24)
(-1.50518 -0.614042 5.55895e-24)
(-1.13751 -0.318584 2.20782e-23)
(-1.10608 -0.326338 3.56179e-24)
(-0.781661 -0.575605 -7.14626e-24)
(-0.499607 0.0798598 5.09376e-26)
(-1.92753 -1.94863 0)
(-2.12034 -1.75483 -7.7191e-23)
(-1.84516 -1.78188 -1.48791e-22)
(-2.01419 -1.6664 5.34214e-23)
(-1.68036 -1.43073 0)
(-1.82486 -1.51697 5.48742e-23)
(-1.52714 -1.13141 0)
(-1.45616 -1.11499 -5.23916e-23)
(-1.25312 -0.841333 -2.99866e-23)
(-1.13751 -0.636101 2.50057e-24)
(-0.964224 -0.723836 -4.57595e-24)
(-0.959731 -0.0791596 -2.54071e-25)
(-2.19955 -1.61458 0)
(-2.29744 -1.76075 0)
(-1.98558 -1.55621 1.43451e-22)
(-2.02187 -1.61461 -1.34765e-23)
(-1.69315 -1.39208 -2.64735e-24)
(-1.62759 -1.27646 2.77145e-22)
(-1.45269 -1.35844 -3.94641e-23)
(-1.31982 -1.20382 1.23883e-23)
(-1.18847 -1.0422 0)
(-1.14787 -0.928838 5.47891e-24)
(-0.976748 -0.932132 2.00593e-24)
(-1.10674 -0.693105 -2.88751e-25)
(-2.09313 -1.88436 0)
(-2.11147 -1.89376 0)
(-1.89691 -1.91429 2.12856e-22)
(-1.89793 -1.80293 2.98861e-22)
(-1.68837 -1.7669 3.09257e-22)
(-1.56666 -1.4915 2.08446e-22)
(-1.39359 -1.3443 -4.93356e-23)
(-1.2899 -1.39137 5.65295e-23)
(-1.15723 -1.20206 1.1302e-23)
(-1.07051 -0.969051 -7.63634e-24)
(-0.966075 -0.936343 2.50256e-24)
(-1.01395 -0.775679 -2.34553e-25)
(-1.96565 -1.74431 -4.75896e-23)
(-1.87762 -1.75147 5.43137e-23)
(-1.63542 -1.75978 0)
(-1.63391 -1.74511 -5.21721e-23)
(-1.44916 -1.73986 6.77831e-23)
(-1.43933 -1.59082 1.18055e-22)
(-1.31722 -1.49723 -6.78613e-23)
(-1.22216 -1.50114 1.80358e-23)
(-1.177 -1.40383 5.83921e-24)
(-1.12236 -1.17192 2.81736e-24)
(-0.992534 -1.01945 3.70136e-24)
(-1.11773 -0.887019 5.36926e-24)
(-1.64947 -1.67248 -4.93745e-23)
(-1.50793 -1.6939 -3.27085e-23)
(-1.29682 -1.71321 -3.64917e-24)
(-1.28692 -1.68389 2.19655e-22)
(-1.1168 -1.71193 2.01485e-22)
(-1.13191 -1.60526 2.40093e-22)
(-1.12321 -1.49541 -6.8242e-25)
(-1.03716 -1.48058 -5.71559e-23)
(-1.03696 -1.40113 2.21701e-24)
(-1.05342 -1.21683 6.88252e-24)
(-0.996776 -1.02215 0)
(-1.06992 -0.878709 -1.0157e-31)
(-1.31607 -1.41557 -2.01751e-23)
(-1.15526 -1.55269 -2.87485e-23)
(-0.906891 -1.55442 -1.28289e-22)
(-0.95433 -1.5553 -1.48969e-22)
(-0.746033 -1.5703 1.89507e-22)
(-0.864775 -1.41935 1.33319e-22)
(-0.901817 -1.44537 -4.81798e-24)
(-0.843739 -1.48702 -2.54658e-32)
(-0.909185 -1.37799 2.12865e-23)
(-0.998517 -1.21165 0)
(-1.02434 -1.01797 0)
(-1.13729 -0.829038 -4.34583e-24)
(-0.89652 -1.11808 6.1607e-24)
(-0.766853 -1.37099 -6.99964e-23)
(-0.50635 -1.39107 0)
(-0.61125 -1.41573 0)
(-0.413216 -1.45145 -1.33371e-22)
(-0.614033 -1.3051 -1.0916e-22)
(-0.67284 -1.31067 -4.54849e-23)
(-0.640064 -1.39718 -1.48816e-23)
(-0.74729 -1.27355 5.55917e-23)
(-0.846041 -1.12772 2.78079e-24)
(-0.98502 -0.956543 1.34357e-23)
(-1.11422 -0.706388 5.17241e-24)
(-0.528213 -0.79394 1.00401e-22)
(-0.374848 -0.982032 1.24715e-22)
(-0.174926 -1.05206 9.64262e-23)
(-0.29136 -1.15336 -7.52536e-23)
(-0.123378 -1.25029 -4.85361e-23)
(-0.436382 -1.12419 0)
(-0.415903 -1.1887 8.76972e-24)
(-0.42144 -1.2258 -1.18216e-23)
(-0.638556 -1.13331 1.62869e-23)
(-0.73951 -0.967087 1.32465e-23)
(-0.93364 -0.843217 2.10848e-23)
(-1.14085 -0.546436 4.91794e-24)
(-0.274742 -0.575043 2.27948e-22)
(-0.0308192 -0.785564 0)
(0.03948 -0.915625 7.73569e-23)
(-0.083665 -0.988283 -1.43787e-22)
(0.0197114 -1.04326 -1.87379e-22)
(-0.372906 -0.957774 -3.60522e-23)
(-0.153399 -1.10567 2.74572e-23)
(-0.263621 -1.09059 -5.33273e-23)
(-0.498534 -1.01397 -4.4111e-23)
(-0.55093 -0.782605 1.35504e-23)
(-0.937217 -0.556119 9.78852e-24)
(-1.22976 -0.27064 -2.42111e-25)
(-0.138348 -0.467091 1.10822e-22)
(0.169362 -0.611711 0)
(0.0431913 -0.758106 9.52464e-23)
(0.0465045 -0.831905 -5.68921e-23)
(0.0220133 -0.895404 -2.40324e-23)
(-0.365517 -0.863951 -2.04316e-23)
(0.139656 -1.01558 -3.80321e-23)
(-0.165118 -0.929842 1.43653e-23)
(-0.258071 -0.896186 5.51829e-23)
(-0.287888 -0.548348 5.86913e-24)
(-1.01337 -0.342885 2.4774e-23)
(-0.911009 0.029649 1.48037e-24)
(-0.166968 -0.476691 1.94767e-22)
(0.215738 -0.569343 0)
(-0.0778739 -0.729626 8.85742e-23)
(0.200144 -0.79142 3.04979e-23)
(-0.130505 -0.819021 6.09759e-23)
(0.0315256 -0.864036 4.7157e-23)
(0.298285 -0.965067 0)
(-0.176852 -0.804471 -7.75743e-24)
(0.21744 -0.810027 -3.15185e-23)
(-0.494243 -0.342564 0)
(-0.41743 -0.0538178 -7.48307e-24)
(-1.09298 0.43354 1.48218e-24)
(-0.603129 -0.467759 1.10082e-23)
(-0.229307 -0.477321 4.80608e-23)
(-0.025572 -0.43155 5.70464e-23)
(-0.0704483 -0.372468 1.40421e-23)
(0.0364846 -0.480114 -3.05861e-24)
(-0.248339 -0.548462 3.56757e-24)
(-0.163958 -0.721443 -6.03674e-23)
(-0.552289 -0.700026 -1.57348e-22)
(-0.376773 -0.486473 -2.60598e-22)
(0.212015 1.2486 -3.39935e-22)
(-0.481598 1.85176 3.25402e-23)
(-0.803055 1.83342 1.35208e-23)
(-0.801136 -0.627464 -1.95644e-24)
(-0.673226 -0.510698 -4.05695e-24)
(-0.623083 -0.0670531 -1.43313e-23)
(-0.634277 0.237906 6.81737e-25)
(-0.636381 0.709231 -1.55425e-23)
(-0.783195 1.0892 0)
(-0.882721 1.42692 -5.38637e-23)
(-1.32644 1.88577 0)
(-1.59439 2.2148 1.87269e-23)
(-1.37267 2.24145 7.86295e-24)
(-1.53695 1.83086 0)
(-1.51324 1.99633 2.38565e-23)
(-1.02822 -0.298584 -8.08017e-24)
(-1.27131 -0.288942 7.77229e-24)
(-1.36644 0.0509771 -1.72663e-23)
(-1.43075 0.41441 0)
(-1.40758 0.773965 -2.29093e-23)
(-1.45416 1.08094 -2.3998e-23)
(-1.45853 1.3679 -8.95602e-23)
(-1.5249 1.60338 -1.26063e-22)
(-1.55577 2.09341 1.24676e-23)
(-1.35379 2.26521 1.39603e-31)
(-1.32147 2.12193 -3.10735e-24)
(-1.30337 2.16706 8.71502e-24)
(-0.875775 0.131725 -6.37285e-24)
(-1.10277 0.0622567 1.35524e-23)
(-1.34724 0.405282 1.62719e-23)
(-1.48599 0.744633 -2.11274e-23)
(-1.53046 1.08934 -6.52395e-23)
(-1.58668 1.3748 1.35014e-23)
(-1.55943 1.61423 0)
(-1.52841 1.73879 -6.70916e-23)
(-1.49367 1.92589 0)
(-1.37969 2.00373 -6.92967e-23)
(-1.41521 2.02864 3.68504e-23)
(-1.38049 2.09388 -2.16639e-23)
(-1.02845 -0.0156514 -1.91991e-24)
(-1.27 0.320505 8.76022e-24)
(-1.39582 0.665597 -5.77227e-24)
(-1.50619 0.915795 -1.39542e-23)
(-1.50926 1.1935 -3.22139e-23)
(-1.51358 1.40793 7.25066e-23)
(-1.4539 1.59993 2.64504e-23)
(-1.37494 1.66825 1.49249e-23)
(-1.3096 1.82655 0)
(-1.23231 1.94037 2.70386e-23)
(-1.28899 2.08017 5.72375e-23)
(-1.32064 2.11291 0)
(-1.15071 0.528653 4.90923e-24)
(-1.29108 0.580505 9.00101e-24)
(-1.32252 0.800408 0)
(-1.39392 0.947349 -2.14015e-23)
(-1.36527 1.1867 0)
(-1.36594 1.36549 0)
(-1.2841 1.49391 -4.85885e-23)
(-1.23636 1.66937 2.5165e-24)
(-1.18471 1.82645 0)
(-1.16331 1.99353 -3.48734e-23)
(-1.31328 2.06204 -6.67098e-23)
(-1.29651 2.01732 2.8967e-23)
(-1.06172 0.340556 4.59305e-24)
(-1.30787 0.58137 5.52184e-24)
(-1.2891 0.823007 3.34766e-24)
(-1.36693 0.997236 -1.51678e-23)
(-1.28386 1.17017 0)
(-1.2692 1.29766 2.2396e-24)
(-1.18324 1.45626 2.83108e-23)
(-1.12671 1.56162 -1.87899e-23)
(-1.008 1.77371 0)
(-1.04245 1.87621 7.18543e-23)
(-1.01651 1.79216 1.17696e-22)
(-1.05322 1.78411 -2.37598e-23)
(-1.32785 0.745721 7.27241e-24)
(-1.34418 0.792984 8.95691e-24)
(-1.22683 0.932293 -4.79007e-24)
(-1.26062 1.01299 3.24682e-23)
(-1.17329 1.12635 1.63867e-24)
(-1.15036 1.27027 -2.69073e-23)
(-1.02156 1.30416 2.84458e-23)