/*--------------------------------*- C++ -*----------------------------------*\
| =========                 |                                                 |
| \\      /  F ield         | OpenFOAM: The Open Source CFD Toolbox           |
|  \\    /   O peration     | Version:  v1606+                                |
|   \\  /    A nd           | Web:      www.OpenFOAM.com                      |
|    \\/     M anipulation  |                                                 |
\*---------------------------------------------------------------------------*/
FoamFile
{
    version     2.0;
    format      ascii;
    class       volScalarField;
    location    "0.85";
    object      alpha.water;
}
// * * * * * * * * * * * * * * * * * * * * * * * * * * * * * * * * * * * * * //

dimensions      [0 0 0 0 0 0 0];

internalField   nonuniform List<scalar> 
2268
(
1
1
1
1
1
1
1
1
1
1
1
1
1
0.999999
0.999995
0.999924
0.984454
0.963081
0.963081
0.963081
0.963102
0.992855
0.999774
1
1
1
1
1
1
1
1
1
1
1
1
1
1
1
0.999999
0.999367
0.990794
0.976758
0.973305
0.982923
0.991738
0.999774
1
1
1
1
1
1
1
1
1
1
1
1
1
1
1
1
1
1
1
1
1
0.999999
0.999771
1
1
1
1
1
1
1
1
1
1
1
1
1
1
1
1
1
1
1
1
0.999993
0.999882
0.9996
1
1
1
1
1
1
1
1
1
1
1
1
1
1
1
1
1
1
1
1
0.99997
0.999629
0.9996
1
1
1
1
1
1
1
1
1
1
1
1
1
1
1
1
1
1
1
0.999999
0.999991
0.999811
0.999641
1
1
1
1
1
1
1
1
1
1
1
1
1
1
1
1
1
1
0.999998
0.999992
0.999963
0.999853
0.99977
1
1
1
1
1
1
1
1
1
1
1
1
1
1
1
1
1
0.999998
0.999987
0.999942
0.999848
0.99977
0.999738
0.996298
0.983598
0.983593
0.987345
0.997498
0.997497
0.997497
0.997474
0.997419
0.99706
0.996181
0.994246
0.970404
0.929992
0.907192
0.944201
0.948255
0.948331
0.937142
0.992765
0.983597
0.987869
0.997441
0.997462
0.997497
0.997474
0.99742
0.994357
0.983126
0.971851
0.96657
0.969268
0.950657
0.906963
0.906982
0.906596
0.926591
0.95897
0.996262
0.991816
0.997259
0.997345
0.997432
0.997436
0.996752
0.996401
0.993094
0.951486
0.870762
0.84672
0.920737
0.951797
0.934374
0.90915
0.904921
0.903947
0.939297
0.997357
0.997313
0.997043
0.997271
0.99734
0.99185
0.945233
0.936495
0.951735
0.892057
0.844726
0.829155
0.839399
0.92709
0.939664
0.939557
0.938779
0.902296
0.868496
0.997357
0.997411
0.997202
0.99695
0.873627
0.469317
0.3463
0.340096
0.520773
0.72869
0.810502
0.849034
0.865355
0.911458
0.939742
0.939555
0.939256
0.938821
0.870578
0.997357
0.99726
0.995439
0.779333
0.145422
0.0658345
0.0728646
0.0784457
0.168503
0.743927
0.817874
0.830551
0.811256
0.830346
0.887997
0.93949
0.938702
0.936722
0.930587
0.997219
0.997078
0.888444
0.174228
0.0647772
0.0647772
0.0658634
0.0728495
0.467877
0.785275
0.807113
0.647491
0.457353
0.627075
0.83128
0.938602
0.93643
0.933699
0.929598
0.996657
0.996212
0.825514
0.0647779
0.0647772
0.0651655
0.0651603
0.100771
0.616276
0.772695
0.789522
0.316193
0.0853691
0.244071
0.612604
0.763764
0.748039
0.75934
0.889785
1
1
1
1
1
1
1
1
1
1
1
1
1
0.999999
1
1
0.999997
0.999983
0.999893
0.999522
0.998981
0.999386
0.999473
0.925017
0.88379
0.846378
0.826875
0.832762
0.857138
0.890216
0.928795
0.970338
0.998835
1
1
1
0.999999
0.999996
0.99999
0.999957
0.999808
0.986149
0.922561
0.880261
0.979255
0.990141
0.258271
0.195981
0.15463
0.136317
0.13889
0.159268
0.191751
0.234476
0.282368
0.330248
0.390898
0.466958
0.577382
0.682013
0.735179
0.749458
0.747546
0.711827
0.518326
0.348307
0.563692
0.882305
0.500761
0.0016308
0.00101978
0.000820422
0.000629829
0.000474398
0.000359996
0.000270451
0.000196809
0.000135905
8.66903e-05
4.25358e-05
0.000584495
0.00205016
0.0011274
0.000707187
0.0167218
0.064235
0.0790946
0.0554517
0.154916
0.550317
0.50416
0.00836532
0.000187741
0.000107606
8.70255e-05
6.34383e-05
4.27637e-05
2.79088e-05
1.75716e-05
1.06555e-05
6.2984e-06
3.79233e-06
2.1628e-06
1.24037e-06
2.43001e-06
1.25177e-05
3.11359e-05
0.000118233
0.000682384
0.0032061
0.0270976
0.308311
0.516516
0.169372
0.00321017
2.03147e-05
1.18304e-05
9.47652e-06
6.62094e-06
4.14083e-06
2.4573e-06
1.37325e-06
7.31145e-07
3.8014e-07
1.96878e-07
1.11768e-07
1.2635e-07
8.13979e-07
2.42112e-06
1.22537e-05
7.80479e-05
0.000436885
0.00199224
0.0104903
0.198008
0.430085
0.120246
0.00275427
2.09101e-06
1.27514e-06
1.02236e-06
6.93854e-07
4.07715e-07
2.24415e-07
1.15481e-07
5.54974e-08
2.62258e-08
1.27096e-08
7.68244e-09
2.34331e-08
1.22175e-07
7.16389e-07
5.38793e-06
3.98448e-05
0.000247601
0.000965033
0.00324016
0.0497001
0.255611
0.304914
0.0370889
2.06813e-07
1.34681e-07
1.07659e-07
7.19125e-08
4.09826e-08
2.13463e-08
1.04798e-08
4.82023e-09
2.17451e-09
1.05431e-09
7.71075e-10
4.32231e-09
2.33431e-08
2.05779e-07
1.94627e-06
1.55207e-05
9.37418e-05
0.000420431
0.0015502
0.0184738
0.226048
0.306897
0.251072
1.97395e-08
1.37735e-08
1.10291e-08
7.34841e-09
4.15021e-09
2.1739e-09
1.09554e-09
5.31512e-10
2.57387e-10
1.31968e-10
9.93633e-11
6.19089e-10
4.22778e-09
4.69621e-08
5.27794e-07
4.50489e-06
2.89868e-05
0.000143428
0.000582005
0.0031394
0.117914
0.309807
0.316431
1.8338e-09
1.37404e-09
1.1104e-09
7.8304e-10
4.94018e-10
2.8457e-10
1.51115e-10
7.78107e-11
3.62152e-11
1.82607e-11
9.78233e-12
6.43763e-11
6.04219e-10
7.81801e-09
1.00835e-07
9.71222e-07
6.89392e-06
3.54422e-05
0.000139801
0.000617791
0.0129427
0.208888
0.317575
2.00739e-10
1.75233e-10
1.5011e-10
1.1075e-10
7.05972e-11
4.04603e-11
2.14234e-11
1.81047e-11
9.44516e-12
3.44288e-12
1.29022e-12
9.69695e-13
6.28364e-11
1.03925e-09
1.44292e-08
1.56566e-07
1.15246e-06
5.53459e-06
2.24969e-05
7.87986e-05
0.00026203
0.0126285
0.250551
2.60353e-11
2.35098e-11
2.08466e-11
1.69934e-11
1.51043e-11
1.18056e-11
7.21666e-12
5.06247e-12
3.06004e-12
-4.98222e-13
-1.06514e-11
-1.4531e-12
1.38391e-12
1.15493e-10
1.71115e-09
1.85826e-08
1.51385e-07
7.13659e-07
2.67389e-06
8.9176e-06
1.68904e-05
2.94902e-05
0.000265341
6.87607e-12
7.4938e-12
6.83551e-12
5.71621e-12
5.60865e-12
5.14915e-12
4.94661e-12
2.56005e-12
-9.11055e-13
-5.73254e-12
-1.26377e-11
-1.68886e-11
1.23291e-12
1.62382e-11
2.18128e-10
2.62848e-09
2.32473e-08
1.10958e-07
3.57231e-07
1.03039e-06
2.49485e-06
3.61843e-06
5.02226e-06
4.02226e-12
4.99594e-12
5.57549e-12
4.33039e-12
3.14907e-12
2.05098e-12
9.35975e-13
-2.86427e-13
-1.99436e-12
-4.46415e-12
-7.99231e-12
-1.15547e-11
-5.10264e-12
1.97605e-12
3.23351e-11
3.59085e-10
3.33053e-09
1.63005e-08
5.14565e-08
1.29987e-07
2.74495e-07
4.28332e-07
6.17855e-07
1.08709e-12
1.1792e-12
1.1683e-12
9.28037e-13
6.37339e-13
3.10995e-13
-5.53639e-14
-5.08119e-13
-1.2008e-12
-2.23653e-12
-3.74033e-12
-5.50465e-12
-5.49061e-12
1.00615e-12
6.01787e-12
5.42681e-11
4.48617e-10
2.21907e-09
7.063e-09
1.64838e-08
3.28687e-08
4.64559e-08
6.98818e-08
1.752e-13
2.05823e-13
2.11866e-13
1.63736e-13
9.20651e-14
3.01121e-15
-1.05073e-13
-2.52787e-13
-4.87774e-13
-8.52119e-13
-1.39639e-12
-2.09017e-12
-2.55411e-12
-4.07289e-13
1.55389e-12
9.01017e-12
7.23451e-11
3.11688e-10
9.07367e-10
2.14616e-09
4.06491e-09
5.58368e-09
7.48846e-09
2.47872e-14
3.1569e-14
3.27784e-14
2.24451e-14
5.46527e-15
-1.65409e-14
-4.47549e-14
-8.56003e-14
-1.52289e-13
-2.59628e-13
-4.25802e-13
-6.51255e-13
-8.72381e-13
-6.16023e-13
1.52607e-12
3.35711e-12
1.0812e-11
4.87704e-11
1.53073e-10
3.4868e-10
6.06239e-10
8.11176e-10
9.9338e-10
2.93376e-15
4.17142e-15
4.15956e-15
1.88637e-15
-1.84233e-15
-6.66741e-15
-1.29784e-14
-2.23121e-14
-3.78785e-14
-6.38981e-14
-1.05831e-13
-1.65833e-13
-2.34561e-13
-2.31056e-13
2.40524e-13
2.35138e-12
4.19335e-12
7.93927e-12
2.24554e-11
5.1329e-11
9.15602e-11
1.26138e-10
1.53732e-10
2.45855e-16
4.47396e-16
3.78427e-16
-9.91811e-17
-8.35992e-16
-1.74858e-15
-2.90811e-15
-4.58905e-15
-7.43227e-15
-1.23771e-14
-2.0718e-14
-3.32274e-14
-4.86172e-14
-5.46205e-14
2.27205e-14
5.51312e-13
2.39632e-12
3.06064e-12
6.43683e-12
8.88228e-12
1.42008e-11
2.81309e-11
4.10878e-11
-6.53369e-20
3.09118e-17
7.14349e-18
-8.40931e-17
-2.1167e-16
-3.53845e-16
-5.12793e-16
-7.16347e-16
-1.05651e-15
-1.6808e-15
-2.80641e-15
-4.56419e-15
-6.688e-15
-7.34005e-15
5.69015e-15
9.94218e-14
5.50192e-13
1.98208e-12
2.75233e-12
4.02253e-12
6.24639e-12
9.47383e-12
1.26765e-11
-5.85712e-18
-1.14586e-18
-6.5784e-18
-2.19962e-17
-4.07005e-17
-5.69004e-17
-6.69426e-17
-6.78133e-17
-6.38071e-17
-6.34978e-17
-8.09298e-17
-1.06756e-16
-3.8934e-17
4.80573e-16
3.41727e-15
1.97924e-14
1.00724e-13
4.08928e-13
1.21312e-12
2.58386e-12
4.91812e-12
5.02077e-12
6.12855e-12
-1.64909e-18
-9.21125e-19
-1.89613e-18
-4.15528e-18
-6.31615e-18
-6.94651e-18
-4.43086e-18
3.68684e-18
1.99797e-17
4.83828e-17
9.50243e-17
1.74837e-16
3.2979e-16
6.65928e-16
1.57526e-15
4.92239e-15
1.94549e-14
7.8349e-14
2.63579e-13
6.76057e-13
1.52673e-12
2.25085e-12
3.5011e-12
-3.26599e-19
-2.13056e-19
-3.57241e-19
-6.36319e-19
-7.86518e-19
-4.91812e-19
7.01284e-19
3.56656e-18
9.20579e-18
1.94498e-17
3.73759e-17
6.92762e-17
1.3076e-16
2.62892e-16
5.96033e-16
1.61448e-15
5.22974e-15
1.85635e-14
6.23439e-14
1.78112e-13
4.50768e-13
8.49771e-13
1.61431e-12
-5.3682e-20
-3.633e-20
-5.40269e-20
-8.12637e-20
-7.21232e-20
3.5033e-20
3.40173e-19
1.02176e-18
2.36326e-18
4.85861e-18
9.41286e-18
1.80672e-17
3.67242e-17
8.50733e-17
2.34689e-16
7.47522e-16
2.54045e-15
8.58832e-15
2.73204e-14
7.84457e-14
2.02162e-13
4.44888e-13
9.39632e-13
-7.69398e-21
-5.17776e-21
-6.9304e-21
-8.58022e-21
-2.86759e-21
2.08334e-20
8.09493e-20
2.11094e-19
4.68058e-19
9.57062e-19
1.90498e-18
3.98965e-18
9.90147e-18
3.14549e-17
1.19921e-16
4.81818e-16
1.86573e-15
6.66876e-15
2.15562e-14
6.2353e-14
1.61096e-13
3.7267e-13
8.04182e-13
-9.81508e-22
-6.43029e-22
-7.68022e-22
-7.07418e-22
5.7864e-22
4.71071e-21
1.46017e-20
3.56281e-20
7.73954e-20
1.60252e-19
3.45876e-19
9.17021e-19
3.40959e-18
1.60456e-17
7.92557e-17
3.70179e-16
1.56854e-15
5.93575e-15
1.99319e-14
5.9293e-14
1.56645e-13
3.70817e-13
8.03118e-13
-1.12583e-22
-7.08681e-23
-7.36633e-23
-3.57096e-23
1.77606e-22
7.8493e-22
2.18583e-21
5.12703e-21
1.10867e-20
2.44188e-20
6.74369e-20
2.89206e-19
1.68354e-18
1.02863e-17
5.85302e-17
2.98459e-16
1.34491e-15
5.33084e-15
1.85605e-14
5.6861e-14
1.53915e-13
3.71075e-13
8.07555e-13
-1.16795e-23
-6.99464e-24
-6.0399e-24
1.19868e-24
3.04296e-23
1.07737e-22
2.81032e-22
6.43467e-22
1.43742e-21
3.95182e-21
1.86415e-20
1.32763e-19
1.00768e-18
7.05159e-18
4.37644e-17
2.38152e-16
1.13036e-15
4.6726e-15
1.68347e-14
5.30142e-14
1.46677e-13
3.59291e-13
7.88421e-13
-1.10017e-24
-6.21299e-25
-4.0797e-25
5.9782e-25
4.04486e-24
1.26846e-23
3.16046e-23
7.23154e-23
1.89171e-22
8.95315e-22
7.55982e-21
7.14102e-20
6.20421e-19
4.74588e-18
3.16016e-17
1.82378e-16
9.09773e-16
3.92011e-15
1.46113e-14
4.72731e-14
1.33584e-13
3.32588e-13
7.39133e-13
-9.44016e-26
-4.97971e-26
-2.02415e-26
9.52082e-26
4.52006e-25
1.30742e-24
3.1606e-24
7.78139e-24
3.23916e-23
3.00687e-22
3.50987e-21
3.81215e-20
3.63375e-19
3.00051e-18
2.13545e-17
1.30648e-16
6.85634e-16
3.08597e-15
1.19295e-14
3.97728e-14
1.15188e-13
2.9279e-13
6.62718e-13
-7.40143e-27
-3.60586e-27
-3.44107e-28
1.11073e-26
4.39132e-26
1.19629e-25
2.89842e-25
9.52438e-25
8.22532e-24
1.15263e-22
1.56773e-21
1.87384e-20
1.93639e-19
1.72178e-18
1.31083e-17
8.52734e-17
4.72996e-16
2.23638e-15
9.03101e-15
3.13086e-14
9.39133e-14
2.46546e-13
5.74614e-13
-5.31936e-28
-2.35898e-28
7.16365e-29
1.07548e-27
3.77891e-27
9.86293e-27
2.63552e-26
1.6172e-25
2.46652e-24
4.15685e-23
6.23456e-22
8.09834e-21
9.05123e-20
8.67031e-19
7.08919e-18
4.93497e-17
2.9187e-16
1.46617e-15
6.27367e-15
2.30058e-14
7.29846e-14
2.02697e-13
4.98821e-13
-3.51659e-29
-1.39224e-29
1.16406e-29
9.05093e-29
2.91895e-28
7.51436e-28
2.76162e-27
3.47883e-26
6.96186e-25
1.29761e-23
2.10804e-22
2.95901e-21
3.57341e-20
3.69895e-19
3.26985e-18
2.45978e-17
1.57197e-16
8.53505e-16
3.94984e-15
1.5643e-14
5.40522e-14
1.65123e-13
4.4835e-13
-2.14676e-30
-7.38319e-31
1.16962e-30
6.78176e-30
2.04886e-29
5.56522e-29
3.66288e-28
7.43003e-27
1.67654e-25
3.35264e-24
5.83269e-23
8.79634e-22
1.14619e-20
1.28593e-19
1.23787e-18
1.01896e-17
7.15912e-17
4.28825e-16
2.17681e-15
9.64434e-15
3.73583e-14
1.28845e-13
4.02368e-13
-1.21562e-31
-3.48641e-32
9.46733e-32
4.59667e-31
1.32617e-30
4.3457e-30
5.45857e-29
1.37894e-27
3.30614e-26
6.95104e-25
1.27673e-23
2.04674e-22
2.85847e-21
3.47067e-20
3.65504e-19
3.32987e-18
2.61651e-17
1.75161e-16
1.033e-15
5.21456e-15
2.28275e-14
8.84243e-14
3.12817e-13
-6.42012e-33
-1.43548e-33
6.65027e-33
2.85378e-32
8.08037e-32
3.80591e-31
7.72851e-30
2.12532e-28
5.24284e-27
1.1335e-25
2.15175e-24
3.59347e-23
5.28354e-22
6.84731e-21
7.83124e-20
7.90595e-19
6.99054e-18
5.58201e-17
3.81727e-16
2.21052e-15
1.09943e-14
4.77094e-14
1.84363e-13
-3.18423e-34
-4.8756e-35
4.19696e-34
1.64106e-33
4.7696e-33
3.6272e-32
9.57755e-31
2.69563e-29
6.66665e-28
1.44435e-26
2.75209e-25
4.63e-24
6.89962e-23
9.16771e-22
1.09689e-20
1.19878e-19
1.23964e-18
1.20478e-17
9.77665e-17
6.66438e-16
3.8613e-15
1.92857e-14
8.46054e-14
-1.49578e-35
-1.10949e-36
2.43034e-35
8.83623e-35
2.81991e-34
3.44693e-33
1.01671e-31
2.83302e-30
6.86291e-29
1.45047e-27
2.68228e-26
4.34907e-25
6.18736e-24
7.77694e-23
8.81786e-22
9.53976e-21
1.23506e-19
1.47917e-18
1.47342e-17
1.22507e-16
8.58691e-16
5.14031e-15
2.68505e-14
-6.72179e-37
9.43002e-39
1.31082e-36
4.50459e-36
1.71194e-35
3.05791e-34
9.27496e-33
2.50373e-31
5.82282e-30
1.17142e-28
2.03596e-27
3.04108e-26
3.85734e-25
4.0931e-24
3.58235e-23
2.87608e-22
5.2157e-21
8.03098e-20
1.02285e-18
1.08052e-17
9.51743e-17
7.05687e-16
4.48213e-15
-2.92154e-38
3.24951e-39
6.66156e-38
2.19916e-37
1.06943e-36
2.46318e-35
7.35865e-34
1.89453e-32
4.16105e-31
7.8083e-30
1.24186e-28
1.6452e-27
1.75288e-26
1.40488e-25
7.06949e-25
2.41516e-24
6.09714e-23
1.28382e-21
2.22821e-20
3.1938e-19
3.79181e-18
3.74539e-17
3.11377e-16
-1.24133e-39
2.67089e-40
3.2187e-39
1.04018e-38
6.7413e-38
1.79266e-36
5.15177e-35
1.2503e-33
2.56044e-32
4.41248e-31
6.29485e-30
7.19474e-29
6.16917e-28
3.436e-27
7.55332e-27
1.97908e-27
7.47621e-26
2.51023e-24
6.90299e-23
1.55868e-21
2.90156e-20
4.46922e-19
5.73475e-18
-5.20181e-41
1.67251e-41
1.48912e-40
4.81966e-40
4.1781e-39
1.18427e-37
3.22773e-36
7.31903e-35
1.38404e-33
2.16597e-32
2.73468e-31
2.65199e-30
1.78954e-29
6.6605e-29
5.38301e-29
4.69501e-31
6.92571e-32
6.1061e-30
4.55553e-28
2.78569e-26
1.40636e-24
5.91587e-23
2.08134e-21
0.999426
0.999422
0.999422
0.999417
0.966362
0.998516
0.999417
0.999398
0.275098
0.701777
0.994373
0.999294
0.00331469
0.00579144
0.295233
0.755664
0.00274974
0.00273244
0.00993047
0.102701
0.0026178
0.00243908
0.00243056
0.00332625
0.0024403
0.00244423
0.00243049
0.00248457
0.00283192
0.00242565
0.00248709
0.00257546
0.190546
0.00290629
0.00278815
0.00336047
0.321797
0.323145
0.0798245
0.0036036
0.324551
0.328152
0.324551
0.318558
0.108257
0.317188
0.322472
0.312987
-1.71187e-06
-0.000307173
0.00526517
0.0569782
-2.50687e-07
1.25557e-07
-5.4465e-06
-7.09287e-06
1.37923e-07
2.31458e-08
1.40729e-08
1.02704e-08
1.60151e-08
1.29218e-08
1.12356e-08
2.07467e-09
7.36693e-10
1.20325e-09
1.84812e-09
4.00604e-10
2.08766e-10
2.85114e-10
3.71131e-10
3.18803e-10
6.13382e-11
8.24444e-11
1.04032e-10
1.3607e-10
1.36454e-11
1.77407e-11
2.15242e-11
3.09217e-11
8.67794e-12
1.08018e-11
1.3482e-11
1.4964e-11
4.51303e-12
5.93302e-12
7.65395e-12
9.43732e-12
2.12189e-12
2.85436e-12
3.81215e-12
4.94972e-12
1.2429e-12
1.65919e-12
2.22027e-12
2.95209e-12
1.05968e-12
1.39704e-12
1.85243e-12
2.47222e-12
1.05785e-12
1.39594e-12
1.86264e-12
2.5214e-12
1.06738e-12
1.42275e-12
1.93236e-12
2.6776e-12
1.04924e-12
1.42089e-12
1.97324e-12
2.79715e-12
9.93963e-13
1.37319e-12
1.94971e-12
2.80936e-12
9.04635e-13
1.27995e-12
1.85446e-12
2.69648e-12
8.02654e-13
1.17155e-12
1.73304e-12
2.53204e-12
7.26592e-13
1.11659e-12
1.70943e-12
2.53074e-12
7.06619e-13
1.18537e-12
1.93072e-12
2.97141e-12
7.1996e-13
1.3613e-12
2.41354e-12
3.9684e-12
6.56127e-13
1.39722e-12
2.69839e-12
4.79993e-12
4.46612e-13
1.02555e-12
2.09649e-12
3.97782e-12
2.37831e-13
5.8536e-13
1.26149e-12
2.51695e-12
9.36402e-14
2.57532e-13
6.2295e-13
1.36982e-12
1.98017e-14
6.05281e-14
1.71831e-13
4.54954e-13
1.87887e-15
6.88107e-15
2.31694e-14
8.12027e-14
5.60129e-17
2.85615e-16
1.33098e-15
6.90109e-15
6.02216e-20
8.14593e-19
1.13411e-17
1.8857e-16
0.998984
0.924697
0.249636
0.0657881
0.0652034
0.10925
0.224045
0.119509
0.400733
0.764421
0.709082
0.149469
0.0850007
0.0854119
0.176214
0.261375
0.222713
0.232635
0.385472
0.998899
0.963725
0.266846
0.0681557
0.0660834
0.42668
0.54851
0.242073
0.268379
0.63597
0.615092
0.0823004
0.0824912
0.0850007
0.0855888
0.087695
0.0863038
0.0859959
0.0859959
0.999255
0.998718
0.857733
0.617075
0.627203
0.696757
0.696598
0.386487
0.297311
0.629551
0.512983
0.0791798
0.0796324
0.0871997
0.145655
0.114652
0.0945914
0.0860895
0.0859959
0.955972
0.978274
0.907383
0.809461
0.752175
0.674776
0.696668
0.525794
0.337016
0.626997
0.443913
0.0786562
0.0797964
0.179
0.195329
0.195584
0.194144
0.114792
0.0860895
0.260299
0.336636
0.314432
0.261709
0.308275
0.321962
0.675025
0.483774
0.585115
0.624763
0.413235
0.0762136
0.101967
0.195517
0.196027
0.194618
0.1893
0.180398
0.0988061
0.00337666
0.0060276
0.0129252
0.0363104
0.0595841
0.283808
0.362164
0.18544
0.35465
0.621133
0.417799
0.0736134
0.116754
0.196027
0.195215
0.104053
0.0951932
0.156087
0.163689
0.00251661
0.00337263
0.00605032
0.0526567
0.130431
0.116111
0.00907473
0.00819015
0.147443
0.523517
0.324293
0.0720783
0.12765
0.195215
0.0654239
0.000123918
0.000387585
0.0168012
0.152423
0.00332171
0.0122908
0.0594766
0.0634184
0.0548514
0.00199694
0.00119859
0.00314277
0.152497
0.513064
0.0902459
0.0607258
0.1399
0.172263
9.0548e-05
7.83125e-05
9.0817e-05
0.000276785
0.0236753
0.00335948
0.0220116
0.0451618
0.02627
0.00105511
0.000705741
0.000810231
0.00123583
0.132451
0.519318
0.0465084
0.0610638
0.104298
0.058488
0.000107065
7.40248e-05
6.42526e-05
6.90884e-05
0.00030759
0.0021945
0.00198492
0.00151913
0.000666303
0.000594595
0.000608471
0.000712459
0.00740684
0.314037
0.507578
0.0351838
0.0609094
0.0402151
5.86993e-05
8.35058e-05
7.44945e-05
5.6537e-05
0.00028491
0.00808461
0.154193
0.00125531
0.000673382
0.000595146
0.000595151
0.000595042
0.000608706
0.184509
0.341987
0.0857399
0.0191302
0.0312503
0.0110055
2.28441e-05
0.0001253
0.000403987
5.63119e-05
0.00020328
0.024945
0.312427
0.315768
0.118021
0.00175944
0.00884327
0.0233938
0.138324
0.293688
0.249332
0.00689551
0.0106416
0.0133688
0.0119217
1.67272e-05
0.000264984
0.00033214
5.79353e-05
5.56974e-06
0.024945
0.236896
0.321351
0.322632
0.322632
0.322632
0.321641
0.306699
0.156305
0.000513656
0.00648645
0.00958509
0.0116544
0.000730532
1.3571e-05
0.000138208
1.54573e-05
2.39411e-05
2.65632e-06
0.0249355
-1.69365e-07
0.00879901
0.122105
0.176655
0.151395
0.0766856
0.00342983
5.15799e-05
0.000317045
0.00909223
0.00941374
0.00443512
8.9531e-07
1.29046e-05
3.72293e-05
1.39254e-05
3.7155e-06
2.6006e-06
0.0246375
1.42191e-08
2.83377e-08
6.10198e-08
1.03018e-07
1.27085e-07
1.53978e-07
3.83451e-07
6.77495e-06
0.00403589
0.00828609
0.0037153
2.09161e-07
3.17086e-07
1.27482e-05
3.83027e-05
5.63088e-05
7.4973e-06
2.526e-06
0.0242376
1.98843e-07
4.04016e-07
3.99842e-07
1.0682e-07
2.42061e-07
2.50347e-07
3.65192e-07
0.000188822
0.00335023
0.00287969
1.27171e-08
5.10445e-08
8.34492e-06
5.80259e-05
5.81749e-05
5.81502e-05
1.37754e-05
2.33143e-06
0.014651
3.28599e-08
8.27371e-08
7.55915e-08
4.80704e-08
5.4608e-07
6.36579e-07
1.40796e-08
0.000155696
0.000642199
6.39914e-06
6.41531e-09
5.34569e-09
3.14043e-07
2.25414e-05
4.87328e-05
5.81651e-05
1.77205e-05
1.98582e-06
0.000845521
1.17332e-10
2.70312e-10
2.24335e-10
5.6194e-09
1.78565e-10
2.74129e-08
1.34188e-08
1.18786e-05
0.000420883
0.000224662
5.34473e-09
5.03314e-09
3.97601e-09
3.25081e-09
3.56927e-09
3.86695e-05
6.33261e-06
1.93934e-06
2.18422e-06
8.97435e-11
2.11985e-10
2.10988e-10
1.78674e-10
1.77882e-10
1.78542e-10
1.3258e-08
1.68663e-10
0.000175315
1.08152e-05
5.38944e-09
4.96066e-09
4.74148e-09
3.23409e-09
3.25259e-09
1.24762e-07
1.34911e-06
1.89395e-06
1.91621e-06
4.81548e-11
1.1135e-10
1.68454e-10
2.49124e-10
2.25532e-10
1.81218e-10
1.04595e-10
1.42543e-10
2.42092e-06
1.44897e-05
2.10404e-06
1.35851e-08
5.10762e-09
3.20942e-09
1.41432e-06
2.58314e-06
1.71187e-06
1.91621e-06
0.00260187
1.89012e-11
2.76267e-11
6.06017e-11
1.0117e-10
9.3634e-11
1.41897e-09
4.04143e-11
4.18675e-08
4.63158e-08
4.39837e-07
9.51098e-07
2.59427e-07
8.94481e-09
2.35433e-09
8.15174e-06
9.29661e-06
4.2376e-06
2.05032e-06
0.00488728
1.27546e-11
1.56579e-11
2.23152e-11
3.10759e-11
3.59855e-11
7.29224e-11
3.6296e-11
1.50647e-07
1.75572e-07
1.07398e-07
1.72705e-07
2.2068e-07
6.57928e-08
1.5013e-09
9.20861e-06
9.29661e-06
4.20393e-06
2.5609e-06
0.00489145
8.66637e-12
1.36609e-11
2.10756e-11
2.92571e-11
3.42531e-11
3.45985e-11
3.55193e-11
1.70815e-07
2.25228e-07
1.4227e-07
1.22764e-08
9.10232e-09
2.38003e-09
1.24784e-09
6.64769e-06
9.29661e-06
6.09076e-07
9.84186e-07
0.00488908
7.41782e-12
1.44671e-11
2.31071e-11
3.15275e-11
3.62038e-11
3.58473e-11
3.62949e-11
4.43444e-08
1.28978e-07
7.58507e-08
4.85011e-09
8.98978e-10
8.37423e-10
8.98154e-10
2.34127e-06
5.27154e-06
3.04379e-07
3.67081e-07
0.00477557
7.30178e-12
1.71184e-11
2.87483e-11
3.80312e-11
4.71353e-11
3.71716e-11
6.17255e-10
4.11676e-10
1.10416e-09
3.88322e-09
3.14992e-09
1.13889e-09
7.97976e-10
8.37099e-10
9.12205e-07
1.9149e-07
2.038e-07
2.12671e-07
0.00186578
7.3164e-12
2.07103e-11
3.62428e-11
4.64036e-11
6.19518e-11
7.76945e-11
4.687e-10
3.263e-10
3.55839e-10
4.45085e-10
9.42111e-10
7.51083e-10
7.7054e-10
1.76419e-07
3.48209e-07
1.86357e-07
1.9149e-07
1.72458e-05
2.9468e-05
7.94624e-12
2.35537e-11
3.93608e-11
5.1925e-11
9.49622e-11
1.69837e-10
2.68936e-10
2.99679e-10
3.5918e-10
4.66147e-10
7.65924e-10
7.40432e-10
7.5053e-10
7.48333e-07
7.88684e-07
1.68143e-07
1.86356e-07
0.000216094
7.27557e-05
8.34912e-12
2.46718e-11
4.20119e-11
5.48797e-11
1.01299e-10
2.4454e-10
4.35938e-10
4.74062e-10
5.19285e-10
6.16779e-10
7.33376e-10
7.33836e-10
7.40197e-10
6.87423e-07
7.71303e-07
4.921e-08
2.84037e-07
0.000229851
0.000129522
8.06315e-12
2.26862e-11
4.2323e-11
5.21041e-11
9.62998e-11
3.75207e-10
1.59835e-09
3.68541e-09
3.03676e-09
1.45846e-09
7.34463e-10
7.4014e-10
1.08445e-07
1.50244e-07
1.14776e-08
2.75846e-08
1.68415e-06
0.00023156
0.000123704
7.22601e-12
1.91486e-11
3.78172e-11
4.65529e-11
5.30531e-11
9.16242e-10
4.63149e-09
5.16994e-09
5.03652e-09
2.58398e-09
7.70049e-10
7.53534e-10
4.89817e-08
3.17356e-08
7.63646e-09
9.23792e-09
5.25624e-06
0.000233011
7.52406e-05
6.23007e-12
1.50621e-11
3.00549e-11
4.07533e-11
7.71416e-11
8.75997e-10
3.51724e-09
4.97278e-09
5.65216e-09
8.81882e-09
8.97877e-09
7.01397e-09
6.93393e-09
6.94062e-09
6.93888e-09
7.61269e-09
7.10331e-05
0.000232887
3.90099e-05
5.67954e-12
1.20487e-11
2.41824e-11
6.84e-11
1.37359e-10
7.7612e-10
1.53458e-09
2.50999e-09
9.33006e-09
1.28961e-08
1.28914e-08
1.2596e-08
6.96807e-09
6.93384e-09
6.81535e-09
1.53681e-08
0.000242424
0.000238888
1.62335e-05
6.32185e-12
1.17473e-11
2.44677e-11
1.28848e-10
1.44359e-10
5.52695e-10
1.6322e-09
4.72028e-09
1.24675e-08
1.28943e-08
9.44924e-09
5.67365e-09
8.25538e-09
6.9592e-09
4.92819e-09
0.000136702
0.000264011
0.000112339
2.52928e-06
8.66548e-12
1.55687e-11
2.62889e-11
1.32799e-10
1.31312e-10
4.13076e-10
7.12514e-09
9.85049e-09
9.93381e-09
6.06739e-09
5.33965e-09
5.35901e-09
2.83218e-08
7.1493e-09
8.89662e-09
0.000257984
0.000264011
0.000121815
6.40832e-07
1.13317e-11
2.20304e-11
5.06032e-11
1.2253e-10
1.28242e-10
2.21017e-10
5.8342e-09
9.46708e-09
5.56614e-09
5.68339e-09
3.11563e-07
3.30488e-06
1.18103e-06
9.53614e-09
0.000115753
0.000256617
0.000264011
2.99868e-05
3.52873e-08
1.02275e-11
2.40411e-11
6.41314e-11
1.59501e-10
1.78336e-10
1.96843e-10
1.26477e-09
1.06127e-09
1.10112e-09
1.03601e-06
5.58662e-06
5.4166e-06
8.25926e-07
5.74489e-08
0.000174875
0.000249046
5.22688e-05
3.17526e-08
3.70693e-09
6.7092e-12
1.89744e-11
7.36308e-11
2.10787e-10
2.24441e-10
2.13791e-10
2.14419e-10
2.15918e-10
7.97988e-07
5.66971e-06
5.68155e-06
5.22459e-06
1.11691e-06
1.22252e-07
4.55713e-05
6.01542e-05
6.19992e-06
-6.27793e-11
1.73847e-10
3.76071e-12
1.20097e-11
5.2796e-11
1.78516e-10
3.09298e-10
2.67508e-10
2.16491e-10
2.17445e-10
1.56718e-07
3.51897e-06
3.10826e-06
9.99291e-07
8.93391e-06
8.90931e-06
2.05452e-08
8.23051e-11
8.36601e-11
1.11265e-10
1.69838e-10
1.47597e-12
5.91205e-12
2.38711e-11
1.22748e-10
3.09399e-10
3.07931e-10
3.14712e-10
2.17074e-10
2.93826e-10
7.78605e-08
3.19017e-08
1.69736e-07
5.47772e-09
2.84544e-09
5.27206e-11
7.14113e-11
8.62809e-11
1.21137e-10
3.41537e-10
3.47123e-13
2.06235e-12
9.97078e-12
3.91906e-11
2.15801e-10
2.23395e-10
1.03022e-09
2.30594e-09
2.34378e-09
1.99248e-09
2.61772e-09
3.83442e-08
3.87923e-08
1.25276e-08
2.14872e-11
5.87077e-11
1.36999e-10
2.54536e-10
7.05297e-10
4.51412e-14
4.68635e-13
3.18519e-12
1.45347e-11
6.32929e-11
6.96026e-11
1.50723e-09
3.01816e-09
3.02765e-09
1.98378e-09
2.73529e-09
5.69505e-10
2.94613e-11
7.55812e-12
1.71725e-11
5.77564e-11
1.0839e-10
1.15163e-10
8.27971e-10
3.05426e-15
6.6012e-14
7.0804e-13
4.54323e-12
2.12488e-11
4.10864e-11
4.27493e-10
1.3762e-09
1.46329e-09
1.07977e-09
3.9969e-10
3.18534e-11
1.57921e-11
7.51791e-12
6.99184e-12
5.82884e-12
2.74544e-12
9.20346e-12
9.36262e-10
)
;

boundaryField
{
    leftWall
    {
        type            zeroGradient;
    }
    rightWall
    {
        type            zeroGradient;
    }
    lowerWall
    {
        type            zeroGradient;
    }
    atmosphere
    {
        type            inletOutlet;
        inletValue      uniform 0;
        value           nonuniform List<scalar> 
46
(
-5.20181e-41
1.67251e-41
1.48912e-40
4.81966e-40
4.1781e-39
1.18427e-37
3.22773e-36
7.31903e-35
1.38404e-33
2.16597e-32
2.73468e-31
2.65199e-30
1.78954e-29
6.6605e-29
5.38301e-29
0
0
0
0
0
0
0
0
0
0
0
0
0
0
0
0
0
0
0
0
1.46329e-09
1.07977e-09
3.9969e-10
3.18534e-11
0
0
0
0
0
0
9.36262e-10
)
;
    }
    defaultFaces
    {
        type            empty;
    }
}


// ************************************************************************* //
