/*--------------------------------*- C++ -*----------------------------------*\
| =========                 |                                                 |
| \\      /  F ield         | OpenFOAM: The Open Source CFD Toolbox           |
|  \\    /   O peration     | Version:  v1606+                                |
|   \\  /    A nd           | Web:      www.OpenFOAM.com                      |
|    \\/     M anipulation  |                                                 |
\*---------------------------------------------------------------------------*/
FoamFile
{
    version     2.0;
    format      ascii;
    class       volScalarField;
    location    "1";
    object      alpha.water;
}
// * * * * * * * * * * * * * * * * * * * * * * * * * * * * * * * * * * * * * //

dimensions      [0 0 0 0 0 0 0];

internalField   nonuniform List<scalar> 
3072
(
3.55671e-15
6.44808e-14
1.69416e-13
7.90782e-13
6.43411e-12
3.24282e-11
3.5313e-06
0.0222207
0.0722891
0.0616868
0.0631699
0.0842079
3.95712e-14
4.18898e-13
1.33896e-12
4.32582e-12
1.74052e-11
5.69571e-11
0.0220936
0.294073
0.355881
0.355639
0.121242
1.26566e-05
2.46388e-13
6.51891e-12
3.6848e-11
4.15607e-12
1.7753e-11
5.56686e-11
0.0528154
0.336325
0.355889
0.19066
2.92326e-06
0.00077642
4.41537e-13
7.90314e-12
4.83397e-11
2.90135e-06
8.14554e-06
8.79588e-11
0.0217027
0.269932
0.319196
1.86613e-10
1.10603e-05
0.000297534
1.36156e-12
1.37493e-11
5.19285e-11
1.89454e-06
5.4431e-06
1.11811e-10
0.00671323
0.126333
0.121623
1.73076e-10
1.72898e-10
1.83706e-10
1.16992e-11
4.30022e-11
4.9271e-08
2.71817e-07
1.47284e-10
0.00476998
0.0548493
0.0610558
6.68354e-10
0.0104901
0.0192437
0.00237585
6.35245e-11
1.63769e-09
1.50111e-08
8.42889e-11
1.16785e-10
0.0611979
0.177415
0.13765
7.83225e-08
0.00640945
0.0234219
0.0232867
8.69395e-12
3.75774e-10
8.30769e-11
5.63186e-11
9.0414e-11
0.0805087
0.177418
0.17683
6.34832e-10
0.000162508
0.00523089
0.0099566
3.53601e-06
8.05995e-06
4.74904e-11
4.76694e-11
1.6892e-07
0.0115545
0.0718935
0.0874835
0.0125003
4.49509e-06
4.10141e-06
0.000430018
1.08325e-06
2.42332e-07
9.59745e-05
0.000591326
0.000901387
0.000834589
1.18981e-10
1.65249e-05
0.00111742
0.00344781
0.0063462
0.00631413
3.54118e-11
3.54118e-11
3.56214e-11
6.0313e-11
8.85162e-11
2.1731e-05
8.89536e-11
8.87305e-11
8.96318e-11
1.15972e-10
2.12167e-10
9.49232e-05
0.0552385
0.0834618
0.138617
0.218744
0.291597
0.330045
0.349895
0.407036
0.424668
0.298145
0.0906862
0.0103986
0.0841961
0.0200096
1.33512e-10
1.90271e-10
0.0211375
0.0580143
0.0547551
0.0160845
0.0118039
0.00320375
0.00147139
7.39327e-09
0.000130938
4.05532e-07
3.85684e-07
2.40132e-10
0.0454854
0.141816
0.166017
0.198901
0.198733
0.184113
0.162506
0.111026
0.000959834
0.000183419
1.50401e-08
2.93922e-08
1.56814e-10
1.56827e-10
1.84255e-10
0.132529
0.295335
0.2952
0.270553
0.299234
0.000243509
1.27442e-08
1.50698e-08
2.19194e-10
1.89516e-10
1.65181e-10
0.00630552
0.0168178
0.0468094
0.0398955
0.0749953
0.0615476
1.87947e-10
5.87783e-08
8.03556e-08
1.51461e-09
1.16422e-10
1.22966e-10
0.00031921
0.00241252
0.115028
0.328405
0.426795
0.579796
1.82596e-05
3.12956e-10
1.8184e-08
6.16956e-08
1.15126e-10
8.54415e-11
7.92695e-11
7.92695e-11
0.204483
0.732023
0.978213
0.999359
0.0165381
4.13025e-10
3.58739e-08
1.21719e-07
9.36478e-09
1.06388e-10
9.17196e-11
7.92695e-11
0.41681
0.980155
1
1
0.00744907
0.00288765
2.07187e-08
1.97493e-08
1.88277e-08
5.64273e-10
1.14048e-10
7.92695e-11
0.462014
0.993974
1
1
0.000599838
7.4409e-05
1.92464e-05
4.01082e-06
2.02869e-10
1.70427e-10
1.44536e-10
7.42974e-11
0.13553
0.995833
1
1
0.00485201
0.000296496
1.51239e-06
7.30223e-05
8.45227e-05
9.50795e-06
7.45441e-11
4.92539e-11
0.0151536
0.765465
1
0.994665
1.15123e-06
1.51238e-06
1.15123e-06
0.00010756
0.000176593
0.00011108
1.44248e-06
6.41739e-11
4.42347e-11
0.000922272
0.978517
0.996292
0.018224
0.055118
0.0445887
6.74784e-05
2.91828e-06
0.000263706
4.50127e-11
4.42347e-11
4.42347e-11
4.42347e-11
0.454397
0.996292
1.50068e-21
4.02116e-19
4.99553e-18
1.40798e-17
1.13062e-17
3.09939e-18
3.52658e-17
3.74804e-15
8.07787e-14
6.09107e-13
2.88744e-12
9.23783e-12
3.12434e-20
3.81923e-18
4.82767e-17
1.6343e-16
5.99285e-16
2.73269e-14
6.14512e-13
5.674e-12
2.74413e-11
9.00902e-11
3.17177e-10
1.50632e-09
2.32911e-19
2.29916e-17
3.12134e-16
3.91243e-15
8.15581e-14
1.05395e-12
7.30396e-12
3.00666e-11
8.34109e-11
1.92385e-10
4.43124e-10
9.47308e-10
6.47291e-18
2.97596e-16
5.20006e-15
6.62277e-14
6.19246e-13
4.04582e-12
1.79583e-11
5.35385e-11
1.12271e-10
1.87791e-10
2.97663e-10
4.54819e-10
1.26628e-16
3.30841e-15
3.33036e-14
2.33432e-13
1.3684e-12
6.5576e-12
2.39407e-11
6.35766e-11
1.2199e-10
1.77528e-10
2.20463e-10
2.6012e-10
8.41655e-16
1.19911e-14
7.56413e-14
3.68647e-13
1.64701e-12
6.60841e-12
2.20472e-11
5.74513e-11
1.13021e-10
1.66981e-10
1.93894e-10
1.96829e-10
2.32532e-15
2.08656e-14
9.42759e-14
3.47881e-13
1.25527e-12
4.46031e-12
1.43343e-11
3.84828e-11
8.29277e-11
1.39296e-10
1.79133e-10
1.81991e-10
1.77957e-14
5.61347e-14
1.0713e-13
2.21426e-13
6.11486e-13
1.93451e-12
6.10894e-12
1.71547e-11
4.15953e-11
8.613e-11
1.40783e-10
1.66566e-10
6.94568e-12
3.66709e-11
9.9104e-11
1.56844e-10
5.14747e-11
1.37907e-11
2.83015e-12
4.57505e-12
1.23461e-11
3.69233e-11
7.73563e-11
1.13941e-10
9.36118e-12
2.41211e-11
1.81271e-11
3.94485e-11
2.47106e-11
2.09782e-12
2.1104e-12
1.91489e-12
1.91213e-12
1.91489e-12
2.2713e-11
5.43775e-11
8.47349e-14
8.47349e-14
0.00659913
0.0623916
0.0775919
0.0139408
5.80785e-12
4.65393e-12
0.054021
0.0266477
0.00298935
7.76669e-11
0.0570878
0.0863252
0.28892
0.606093
0.708297
0.626871
0.565902
0.704378
0.872616
0.883288
0.609715
0.167371
1.92533e-11
5.10976e-11
1.0651e-10
1.1967e-10
1.92792e-10
2.77818e-10
3.49976e-10
3.43393e-08
4.71611e-08
2.7647e-08
6.81292e-11
2.03121e-13
5.67174e-09
5.00292e-09
1.56995e-10
1.96208e-07
1.77097e-05
3.96621e-05
3.67814e-05
7.29887e-06
5.7882e-11
1.91457e-07
6.5157e-12
5.29401e-12
1.27046e-09
3.62607e-10
2.58763e-06
6.7838e-05
8.37895e-05
8.37891e-05
8.28697e-05
1.27024e-05
5.80184e-11
8.39788e-11
4.094e-11
9.79302e-12
5.25998e-10
3.37295e-10
5.45103e-06
7.48538e-05
8.37891e-05
7.40271e-05
2.93631e-06
1.55487e-10
8.03903e-07
6.16615e-06
7.67273e-07
4.31427e-11
2.84447e-10
3.1535e-10
2.16393e-06
5.74615e-06
2.95464e-06
8.32076e-11
8.51926e-11
1.34922e-10
1.86559e-10
1.88568e-05
5.5063e-05
9.85958e-06
1.94746e-10
9.71911e-09
8.18208e-08
1.1229e-10
8.64045e-11
1.21568e-10
1.30974e-09
8.53268e-09
2.16556e-10
2.98995e-06
7.81721e-05
0.000134998
1.66821e-10
5.41691e-10
1.2973e-10
1.01645e-10
1.16907e-10
1.28765e-10
7.20275e-11
5.54616e-08
3.55122e-07
3.03948e-07
5.86161e-06
0.000130387
1.58456e-10
1.46644e-10
1.11e-10
8.48289e-11
6.65461e-11
9.93805e-11
4.30557e-11
4.14557e-11
1.13376e-06
8.95244e-06
5.96389e-06
2.74608e-10
1.30888e-10
1.27548e-10
1.11398e-10
8.91885e-11
6.29343e-11
3.73966e-11
1.98643e-11
1.69202e-11
2.19071e-07
1.46989e-05
0.000148428
3.07321e-10
7.86868e-11
9.26678e-11
9.28124e-11
8.16347e-11
6.28666e-11
4.18331e-11
2.59604e-11
2.42562e-11
1.77159e-11
1.76241e-06
0.000186722
4.8387e-05
6.57907e-11
6.73648e-11
6.92434e-11
6.40369e-11
5.20202e-11
3.72188e-11
5.25834e-11
4.35286e-11
3.17175e-11
1.48447e-11
0.00013932
0.000181204
4.46518e-11
1.79008e-11
1.91445e-11
3.52124e-12
3.5147e-12
3.51952e-12
3.44982e-09
5.3635e-08
4.0462e-11
3.38201e-11
2.12241e-11
0.000169563
2.96345e-23
1.62522e-20
2.55597e-19
7.60729e-19
5.03423e-19
1.00804e-19
2.06792e-20
1.37361e-17
3.55727e-15
1.98107e-14
4.73548e-14
8.22358e-14
6.1805e-22
2.09312e-19
2.97524e-18
1.12945e-17
1.45828e-17
6.4751e-17
6.57776e-15
4.0688e-14
9.55196e-14
1.65887e-13
2.45308e-13
3.28998e-13
1.03734e-20
1.53348e-18
1.94368e-17
9.83868e-17
5.69314e-16
1.11471e-14
4.43866e-14
1.05472e-13
1.88508e-13
2.85324e-13
3.8861e-13
4.9308e-13
2.09871e-19
1.19802e-17
1.43289e-16
1.21787e-15
8.52269e-15
3.11925e-14
7.87417e-14
1.52835e-13
2.46941e-13
3.51905e-13
4.59283e-13
5.62514e-13
3.94534e-18
1.11621e-16
1.02779e-15
5.24843e-15
1.78269e-14
4.63836e-14
9.79345e-14
1.73376e-13
2.66449e-13
3.67198e-13
4.65335e-13
5.52235e-13
3.19809e-17
4.81197e-16
2.68996e-15
9.18057e-15
2.38463e-14
5.22997e-14
1.00162e-13
1.69089e-13
2.54123e-13
3.44922e-13
4.2891e-13
4.9437e-13
1.04513e-16
9.78547e-16
3.97217e-15
1.09006e-14
2.43494e-14
4.82364e-14
8.74947e-14
1.45305e-13
2.19204e-13
2.99764e-13
3.72778e-13
4.23122e-13
1.65134e-16
1.1332e-15
3.77649e-15
9.02931e-15
1.84255e-14
3.47962e-14
6.26895e-14
1.06929e-13
1.72191e-13
2.4291e-13
3.07251e-13
3.52234e-13
5.53205e-16
1.55062e-14
2.15385e-13
1.44011e-12
2.46421e-13
2.30907e-11
3.38257e-14
6.98049e-14
1.19394e-13
1.77542e-13
2.3436e-13
2.77361e-13
8.42664e-14
1.12631e-12
1.82547e-13
9.44441e-09
1.84312e-07
3.03766e-07
1.1504e-08
3.78873e-12
2.98232e-13
2.03783e-13
1.88974e-13
2.0805e-13
1.15204e-16
1.1611e-16
2.60231e-05
1.37184e-10
1.56305e-10
4.15741e-06
6.75126e-06
2.85597e-06
2.39472e-11
2.06677e-13
4.40552e-13
3.65756e-13
0.000265075
0.000662801
0.00206327
0.00264985
0.00180823
0.000109323
1.03982e-05
2.53289e-05
2.60421e-05
5.42327e-06
1.6738e-11
1.27043e-13
1.21087e-13
1.62439e-13
2.06296e-13
2.53823e-13
3.074e-13
3.71151e-13
4.10923e-13
4.23298e-13
3.98224e-13
3.17503e-13
1.61275e-13
3.24578e-15
4.13926e-13
4.98106e-13
5.79872e-13
6.5757e-13
7.29899e-13
7.90074e-13
8.36982e-13
8.65988e-13
8.61374e-13
7.86039e-13
5.62922e-13
7.58573e-14
5.95005e-13
6.91452e-13
7.79855e-13
8.58042e-13
9.24593e-13
9.83962e-13
1.04914e-12
1.11887e-12
1.1782e-12
1.18282e-12
1.01811e-12
3.48479e-13
6.56907e-13
7.39574e-13
8.09734e-13
8.69072e-13
9.21525e-13
9.78376e-13
1.06398e-12
1.18215e-12
1.32268e-12
1.44229e-12
1.41342e-12
8.02551e-13
6.22086e-13
6.73045e-13
7.08426e-13
7.36931e-13
7.70814e-13
8.20767e-13
9.23367e-13
1.08933e-12
1.31729e-12
1.56821e-12
1.70548e-12
1.28584e-12
5.33121e-13
5.43345e-13
5.32274e-13
5.17023e-13
5.21285e-13
5.60915e-13
6.70386e-13
8.73231e-13
1.18684e-12
1.58179e-12
1.90004e-12
1.68381e-12
4.38738e-13
4.14652e-13
3.56973e-13
2.8646e-13
2.41075e-13
2.73639e-13
3.70186e-13
5.79347e-13
9.58433e-13
1.50416e-12
2.0196e-12
1.97336e-12
3.64012e-13
3.33431e-13
2.586e-13
1.53209e-13
5.70524e-14
6.83602e-14
1.25794e-13
2.87879e-13
6.7959e-13
1.3605e-12
2.08858e-12
2.17838e-12
2.93314e-13
2.72618e-13
2.14478e-13
1.35094e-13
6.64278e-14
3.47353e-14
3.8189e-14
1.14792e-13
4.42895e-13
1.19722e-12
2.12925e-12
2.33071e-12
2.24677e-13
2.18354e-13
1.85231e-13
1.36665e-13
9.29627e-14
6.41892e-14
5.71769e-14
1.29563e-13
4.35755e-13
1.11579e-12
2.16678e-12
2.45879e-12
2.51471e-13
1.94483e-13
1.61041e-13
1.29688e-13
1.01024e-13
7.88621e-14
8.97583e-14
2.22918e-13
6.39512e-13
1.38668e-12
2.40052e-12
2.60627e-12
1.24421e-13
1.27298e-13
1.32726e-13
1.19269e-13
1.02277e-13
8.94876e-14
3.61261e-13
7.26997e-13
1.39147e-12
2.3042e-12
3.24721e-12
2.96268e-12
1
1
1
1
1
1
1
1
1
1
1
0.999999
1
1
1
1
1
1
1
1
0.999873
0.999494
0.99957
0.999983
1
1
1
1
1
1
1
1
0.999143
0.993746
0.993667
0.994669
1
1
1
1
1
1
1
1
1
0.999847
1
0.960589
1
1
1
1
0.942659
0.732728
0.675677
0.77846
0.899992
0.98777
1
1
1
1
1
0.886375
0.269188
0.0318505
1.54244e-10
1.15387e-10
0.123235
0.478353
0.793417
0.952432
1
1
0.990426
0.564785
0.000879367
1.41204e-10
1.14309e-10
8.90418e-11
7.68185e-11
7.63442e-11
0.0170471
0.279782
1
1
1
0.640359
0.0292854
1.46621e-10
1.20323e-10
1.05159e-10
9.19096e-11
7.13442e-11
5.60143e-11
5.61851e-11
1
1
1
0.921884
0.180244
1.48669e-10
1.25019e-10
1.05702e-10
9.51534e-11
8.84066e-11
7.7453e-11
6.5416e-11
1
1
1
1
0.798375
0.127853
1.20992e-10
1.00739e-10
7.706e-11
7.69741e-11
7.29883e-11
7.30172e-11
1
1
1
1
1
0.853968
0.326399
0.129592
0.0116437
8.12151e-11
0.000906814
8.40162e-11
0.227872
0.271081
0.392067
0.754946
1
1
0.925418
0.923535
0.88172
0.600231
0.601176
0.604393
0.999999
0.999996
0.999993
0.999992
0.999973
0.999627
0.999535
0.999758
0.99998
0.999999
1
1
0.985841
0.955303
0.952678
0.967352
0.973839
0.99688
1
0.999172
1
1
1
0.999988
0.858711
0.633748
0.633749
0.715371
1
1
1
0.986014
0.971333
0.989754
0.999724
0.999999
0.677163
0.633749
0.633763
0.767234
1
1
1
0.986741
0.862805
0.815222
0.900199
0.967846
0.998819
0.828035
0.640149
0.969971
1
1
1
1
0.93577
0.808021
0.771844
0.770892
0.996538
0.983083
0.932151
0.976172
1
1
0.999997
0.999994
0.999995
0.999995
0.858476
0.754701
0.528123
0.828478
0.966058
0.990953
1
1
0.999996
0.999991
0.999995
0.998881
0.988086
0.864033
6.05013e-11
0.0199097
0.25024
0.441091
0.779953
0.980043
0.999997
0.999991
0.999995
0.99453
0.980549
0.999351
5.90733e-11
5.45297e-11
5.45286e-11
5.53685e-11
0.00715518
0.288907
0.901054
0.999995
0.999995
0.996769
0.980312
0.997417
7.24076e-11
6.72762e-11
7.58329e-11
5.93492e-11
3.46434e-11
3.46434e-11
0.138695
0.714202
0.993166
0.996752
0.989493
0.969924
1.0076e-10
9.56227e-11
6.84794e-05
6.6296e-11
5.50004e-11
3.54017e-11
6.15699e-11
0.147546
0.489265
0.823632
0.968769
0.965254
0.363858
0.363229
0.402726
0.195658
0.000912653
3.47091e-11
3.46434e-11
0.0310926
0.0987094
0.343939
0.891375
0.987505
0.955563
0.944364
0.958553
0.931283
0.786716
0.744707
0.857454
0.98144
0.999208
0.999658
0.999575
0.923092
0.993717
0.998268
0.998152
0.998268
0.935243
0.607207
0.588737
0.587428
0.911179
0.999575
0.969286
0.911482
0.705302
0.998054
0.989361
0.991867
0.999733
1
0.691436
0.609271
0.883068
0.999658
0.995229
0.985399
0.997791
0.877989
0.86475
0.893892
0.99762
1
1
0.989841
0.973255
0.987719
1
1
0.903477
0.937687
0.830281
0.268421
0.00253887
0.00028954
0.0837971
0.360561
0.434185
0.0930803
0.0334295
0.48523
0.927701
0.992291
1
1
0.563665
0.150737
0.15837
0.643861
0.841161
0.645122
0.0454251
0.0342233
0.989255
0.996516
1
0.981659
0.960744
0.959724
0.806652
0.820146
0.840736
0.841161
0.745592
0.725262
1
1
1
1
0.96775
0.875525
0.793409
0.821708
0.841165
0.840736
0.838451
0.715299
0.243715
0.307909
0.752131
0.861293
0.861751
0.78181
0.511117
0.503064
0.805322
0.99812
0.998274
0.998274
0.0289083
0.0238634
0.622339
0.861747
0.861293
0.861747
0.728984
0.0859614
0.000155287
0.445066
0.979638
0.998274
0.409447
0.397298
0.691933
0.771617
0.7627
0.752592
0.628921
0.107141
0.000404435
0.00253294
0.104003
0.708355
0.566289
0.257397
0.0892005
0.0711441
0.0609785
0.0288212
0.00589947
0.00373261
0.000750707
5.00131e-11
4.63947e-11
0.0592039
0.662051
0.0302732
3.71917e-11
2.06604e-07
5.2007e-07
1.09945e-07
2.42012e-07
2.24299e-06
2.88728e-06
8.06609e-06
2.27453e-06
1.23154e-05
0.998274
0.421503
6.06627e-11
2.60537e-07
5.50107e-07
3.69496e-07
1.77918e-09
1.60896e-11
0.00048324
0.0015428
0.00138713
0.000294811
0.953443
0.630901
0.025038
3.62096e-11
3.37939e-07
2.97872e-07
1.21731e-08
1.16691e-11
0.000739778
0.0024718
0.00249096
0.0019318
0.257591
0.280273
0.115699
2.09153e-11
5.87142e-09
1.23489e-08
1.02632e-08
1.54744e-09
2.81327e-12
0.000184384
0.00122769
0.00091885
3.27804e-11
8.66895e-12
9.12202e-12
0.00793135
0.0132348
0.0127377
0.00225809
4.07209e-07
5.15839e-07
7.6168e-11
1.90605e-05
5.08194e-05
5.84401e-11
3.85682e-11
1.67279e-11
9.65309e-12
0.000606386
0.0202113
0.0212449
0.0156346
0.000286719
8.54281e-11
6.65554e-06
6.27892e-05
3.9123e-05
4.48662e-11
3.44699e-11
2.64015e-11
2.69755e-11
4.61678e-11
0.0186518
0.0161101
0.000621138
8.96788e-11
8.98159e-11
1.43252e-05
5.84323e-05
4.47618e-11
3.1649e-11
7.21295e-07
1.28069e-06
1.18721e-06
0.000630475
0.00190292
0.00151327
8.72772e-05
1.41125e-10
1.34264e-10
2.72605e-05
2.53203e-07
2.14811e-11
9.37751e-12
5.00272e-12
2.63063e-12
6.1056e-12
6.35472e-12
5.17734e-12
5.35684e-12
6.24086e-12
5.49001e-12
6.22058e-05
3.73853e-05
2.55078e-11
9.65341e-13
9.7062e-13
1.8698e-11
2.36939e-11
4.10704e-11
2.58874e-11
1.56016e-11
1.32417e-11
1.20133e-11
1.81226e-05
1.10671e-05
3.09652e-05
4.40396e-05
3.08789e-05
1.29399e-05
2.44911e-06
5.58013e-10
3.75425e-11
2.74305e-11
2.30083e-11
2.04138e-11
1.43654e-10
1.2474e-10
4.47857e-05
0.000151968
0.000150694
0.000151623
5.94338e-05
5.07457e-11
4.03729e-11
3.26871e-11
2.72952e-11
2.40619e-11
3.38198e-12
3.38198e-12
3.38198e-12
3.38198e-12
0.0926593
0.271821
0.794202
0.893858
0.807189
0.626011
0.551124
0.792821
1.1571e-11
1.08697e-11
1.00028e-11
1.08005e-11
3.10609e-11
4.08503e-11
0.0896968
0.182438
0.120896
0.0186919
2.38024e-11
0.276875
1.8775e-11
1.74614e-11
1.61038e-11
1.51402e-11
1.80162e-11
2.41267e-11
4.12611e-11
4.02427e-11
3.90827e-11
2.04228e-11
2.04228e-11
0.0375066
2.20382e-11
2.07933e-11
1.95787e-11
1.83586e-11
1.78609e-11
1.94021e-11
2.32092e-11
2.04228e-11
2.04228e-11
2.04228e-11
2.04228e-11
0.0339981
0.950036
0.950789
0.950806
0.950789
0.650673
0.311892
0.268947
0.0701743
0.0830191
0.322174
0.784113
0.970895
0.900429
0.950036
0.933073
0.924231
0.923695
0.923302
0.514913
0.0795371
0.0814817
0.0866317
0.0974346
0.593585
0.211384
0.35918
0.409495
0.487852
0.521672
0.335178
0.173917
0.180544
0.200716
0.278465
0.335957
0.329855
0.175388
0.320412
0.398908
0.435571
0.486927
0.638538
0.771468
0.824774
0.839335
0.875484
0.970937
1
1
1
0.999851
1
1
0.99955
1
1
1
0.99466
0.860635
0.688788
1
1
0.981554
0.871472
0.657016
0.56668
0.604919
0.555931
0.433428
0.272131
0.129677
0.0335509
0.861422
0.648192
0.311243
0.0484824
0.00150047
0.0150195
0.0242677
0.00532249
4.98034e-05
3.82785e-11
3.13717e-11
2.43127e-11
0.11092
0.0185645
2.37449e-11
2.34722e-11
2.32726e-11
2.30799e-11
3.21838e-11
2.86591e-11
2.60354e-11
2.06197e-11
1.54633e-11
9.80616e-12
0.507708
0.395046
0.269496
0.201881
0.174619
0.244574
0.34934
0.356719
0.294391
0.154086
6.40445e-11
4.30587e-11
3.37601e-11
4.03505e-11
3.74167e-11
1.92785e-11
1.54292e-12
1.71778e-12
0.000233855
3.23095e-05
1.41208e-10
0.00530727
0.0230626
0.0220479
1.30276e-11
1.94195e-11
2.42275e-11
3.86945e-11
9.70708e-06
2.00523e-05
1.62585e-05
1.16165e-06
2.95547e-05
0.0154807
0.028994
0.0289947
7.19214e-12
1.70765e-11
3.13689e-11
4.99145e-11
7.84711e-08
2.98834e-06
1.05644e-05
1.88152e-05
3.52221e-05
0.00135016
0.00566064
0.00654781
4.03535e-11
3.82046e-11
3.54116e-11
3.50342e-11
3.60808e-11
3.68417e-11
5.14253e-11
6.82625e-11
1.30004e-05
5.07102e-11
3.30722e-11
2.66547e-11
0.0190851
0.0125948
0.000803184
7.00101e-05
0.00264111
0.00285089
7.07183e-11
4.95294e-08
5.32086e-07
6.49497e-07
1.6343e-07
5.4325e-12
0.02871
0.0188423
4.91548e-05
0.000105262
0.00458886
0.00592884
0.00475
4.61838e-08
7.28937e-08
6.83738e-07
5.98575e-07
5.47116e-12
1.3505e-11
1.85534e-11
0.0013301
0.00180302
0.00124139
0.00400837
0.00519346
0.00171481
4.61838e-08
1.14383e-07
1.64811e-07
3.75625e-15
0.0019302
0.00936691
0.00218998
2.9319e-13
4.17102e-12
3.48986e-13
5.11235e-13
3.15185e-12
3.42243e-12
1.22558e-14
1.22187e-14
1.22662e-14
2.362e-11
2.94532e-11
1.4796e-11
3.18993e-13
1.22609e-12
2.90159e-12
6.25495e-12
1.24377e-11
2.41817e-11
4.62427e-11
8.23936e-11
1.28417e-10
8.1265e-08
1.2274e-07
5.64908e-12
2.03659e-13
6.2346e-13
1.61363e-12
3.57868e-12
7.20275e-12
1.42215e-11
2.77128e-11
5.02434e-11
8.08412e-11
1.01674e-16
2.23713e-15
1.27812e-14
4.62482e-14
1.5065e-13
4.31118e-13
1.12706e-12
2.93137e-12
7.83169e-12
1.99775e-11
4.41327e-11
7.90699e-11
1.87231e-13
7.12587e-11
4.57249e-11
1.37558e-05
8.14128e-05
9.8848e-05
9.67474e-05
0.000128609
0.000173522
4.47688e-05
3.3603e-05
3.19415e-05
1.64961e-10
1.41797e-10
5.94225e-11
2.67832e-06
2.78044e-05
4.84766e-05
4.23553e-05
2.95966e-05
2.75862e-05
3.35183e-05
1.83179e-05
7.76213e-06
1.11826e-10
1.15088e-10
7.34786e-11
3.3479e-06
1.27439e-05
1.42849e-05
8.89037e-06
3.59779e-07
4.5367e-11
2.35701e-06
3.91848e-11
2.58633e-11
1.12798e-10
1.27693e-10
2.12666e-07
5.31088e-07
4.63611e-07
3.60158e-11
3.41953e-11
3.03166e-11
2.825e-11
2.59681e-11
1.90439e-11
8.92195e-12
1.59092e-05
1.75375e-05
1.84574e-05
2.5864e-06
1.55479e-11
1.55506e-11
1.55479e-11
3.16643e-11
2.84363e-11
2.28455e-11
1.8353e-11
1.64319e-11
2.48365e-06
2.3051e-06
1.87181e-11
8.4909e-12
1.73076e-11
2.54498e-11
3.21321e-11
3.45449e-11
3.20524e-11
2.70818e-11
2.32266e-11
2.19216e-11
1.59142e-11
1.58772e-11
4.05151e-12
8.59248e-12
1.61721e-11
2.55178e-11
3.36473e-11
3.76818e-11
3.66705e-11
3.27909e-11
2.99262e-11
2.99167e-11
2.79068e-13
8.82149e-13
2.63998e-12
6.86558e-12
1.44726e-11
2.44923e-11
3.41951e-11
4.05405e-11
4.18035e-11
3.92342e-11
3.66872e-11
3.56028e-11
1.69027e-11
1.83172e-11
1.93049e-11
1.96094e-11
1.96117e-11
1.94987e-11
3.82746e-11
0.251771
0.560294
0.78088
0.928718
1
2.29445e-11
2.4699e-11
2.69057e-11
2.98506e-11
3.4334e-11
0.170069
0.707247
0.947919
1
1
1
1
3.2454e-11
3.52854e-11
4.01279e-11
4.78479e-11
0.324275
0.875893
1
1
1
1
1
1
3.43997e-11
3.44168e-11
0.000187432
0.425149
0.931783
1
1
1
1
1
1
1
1
1
1
1
1
1
1
1
1
1
1
1
1
1
1
1
0.999999
0.999999
1
1
0.999999
0.999998
0.999999
1
1
1
1
1
1
0.999999
0.999999
1
1
1
1
0.999198
1
1
1
1
1
1
1
1
1
1
0.986513
0.645676
1.14392e-11
3.59103e-08
0.000595823
3.06307e-11
2.32656e-11
2.28923e-11
1.84176e-11
1.52532e-11
1.27879e-11
1.04707e-11
7.35162e-12
4.14047e-12
0.0342982
9.15605e-12
2.0557e-07
2.74709e-08
2.29309e-11
1.68731e-11
1.20239e-11
8.70465e-12
6.49092e-12
4.76128e-12
2.66448e-12
5.65082e-13
1.63766e-11
9.1562e-12
1.98484e-11
1.99126e-10
1.29962e-11
1.44874e-11
1.07079e-11
7.18114e-12
4.54645e-12
2.62689e-12
1.07717e-12
1.38798e-13
0.00299269
5.30461e-12
1.0809e-11
1.73422e-11
4.44399e-08
1.09068e-11
1.13662e-11
7.59199e-12
4.4258e-12
2.14044e-12
6.93804e-13
8.01249e-14
0.0661028
9.09403e-12
2.49869e-06
8.86572e-06
6.61142e-06
1.08784e-11
1.17321e-11
7.6694e-12
4.19006e-12
1.78081e-12
4.65147e-13
5.01111e-14
0.256256
5.30363e-12
2.13246e-06
9.05974e-06
8.15255e-06
1.0868e-11
1.13972e-11
6.9827e-12
3.43626e-12
1.25897e-12
2.71468e-13
2.37373e-14
0.528029
9.09284e-12
1.46296e-07
3.30695e-06
1.1338e-06
1.08579e-11
1.0846e-11
5.76045e-12
2.40185e-12
7.24071e-13
1.27632e-13
8.13344e-15
0.791496
0.094144
4.27516e-12
1.77533e-11
2.50873e-11
1.37295e-11
8.56813e-12
3.99329e-12
1.36056e-12
3.18049e-13
4.32791e-14
1.95115e-15
0.955279
0.365646
4.27659e-12
7.7912e-12
1.49654e-11
1.14463e-11
6.29267e-12
2.34254e-12
5.76206e-13
9.39669e-14
9.07808e-15
3.31677e-16
0.995677
0.569878
0.00229668
4.2746e-12
1.62196e-11
9.33055e-12
3.69225e-12
9.34069e-13
1.43014e-13
1.39687e-14
1.04757e-15
3.65837e-17
1
0.774356
0.0758965
4.2746e-12
1.17572e-11
4.79151e-12
1.20908e-12
1.55792e-13
1.09432e-14
6.03193e-16
5.07815e-17
1.84665e-18
1
0.85533
0.162109
4.2746e-12
4.43203e-12
6.17791e-13
3.8519e-14
9.3268e-16
1.26064e-17
2.54468e-18
5.67713e-19
2.34458e-20
3.76251e-12
1.53902e-11
4.26335e-11
8.0862e-11
8.10606e-11
9.48926e-11
2.06535e-06
4.31779e-05
5.32204e-05
1.64083e-05
1.17729e-11
1.17688e-11
1.5806e-12
1.15788e-11
4.95565e-11
1.4451e-10
2.55223e-10
1.12e-10
1.68457e-07
1.58696e-06
2.55584e-06
3.22437e-11
2.35464e-11
6.55987e-11
5.11827e-13
5.99655e-12
3.77173e-11
1.58273e-10
4.39273e-10
7.65357e-10
6.06959e-11
4.73228e-11
3.50587e-11
3.20641e-11
7.13096e-11
1.63632e-10
3.51453e-15
4.69615e-14
3.43113e-13
2.36713e-12
2.07299e-11
8.03749e-11
1.07088e-10
3.48994e-11
2.2709e-11
2.45941e-11
2.70242e-11
3.57876e-11
2.78445e-16
5.59225e-15
5.18889e-14
3.22512e-13
1.79648e-12
7.74885e-12
1.56159e-11
1.53654e-11
1.79651e-11
1.97499e-11
1.84256e-11
1.54871e-11
1.12826e-17
3.29131e-16
4.18347e-15
3.64435e-14
2.47049e-13
1.1148e-12
3.04951e-12
5.60674e-12
8.7252e-12
1.11919e-11
1.18959e-11
1.06031e-11
2.31933e-19
1.00226e-17
1.84053e-16
2.63804e-15
2.5989e-14
1.4956e-13
5.33315e-13
1.31711e-12
2.51779e-12
3.87394e-12
4.90161e-12
5.0129e-12
1.96537e-21
1.35875e-19
4.39271e-18
1.14566e-16
1.70404e-15
1.33638e-14
6.2366e-14
1.92644e-13
4.3713e-13
7.84342e-13
1.14327e-12
1.28666e-12
6.71534e-24
8.00679e-22
5.52575e-20
2.76514e-18
6.79121e-17
7.60302e-16
4.54289e-15
1.69689e-14
4.46199e-14
8.97685e-14
1.4249e-13
1.6305e-13
2.58488e-26
2.96749e-24
3.63009e-22
3.96288e-20
1.57725e-18
2.46137e-17
1.86228e-16
8.27384e-16
2.46019e-15
5.31783e-15
8.57454e-15
8.97586e-15
6.9864e-29
6.35071e-27
1.229e-24
2.74406e-22
1.73464e-20
3.70475e-19
3.51448e-18
1.83608e-17
6.0329e-17
1.34115e-16
2.02455e-16
1.66881e-16
8.43943e-32
4.71433e-30
1.30857e-27
5.54226e-25
5.36207e-23
1.54573e-21
1.82764e-20
1.11492e-19
3.96836e-19
8.67865e-19
1.1142e-18
6.099e-19
6.26792e-11
4.72286e-10
4.41857e-10
0.000121419
0.000137097
0.000108071
0.000511141
0.000604594
0.000120589
1.85254e-11
1.86877e-11
2.49592e-12
3.77128e-10
5.30194e-09
8.58096e-09
2.84942e-09
4.3867e-06
7.01432e-06
2.22594e-10
5.06914e-09
2.58874e-05
7.08044e-06
1.7898e-07
1.31442e-12
3.8768e-10
9.19656e-10
2.14202e-09
2.71347e-09
5.24847e-10
5.72458e-10
1.0669e-07
4.97113e-09
2.20351e-10
4.22249e-07
4.84112e-08
7.94191e-12
6.08948e-11
1.16023e-10
2.13202e-10
3.38106e-10
5.25769e-10
7.24834e-10
5.46618e-09
1.50463e-09
2.05783e-10
1.28224e-11
1.12881e-11
9.05298e-14
1.32113e-11
1.36918e-11
1.83449e-11
2.68607e-11
3.43024e-11
3.43796e-11
3.4564e-11
1.14148e-10
3.4234e-11
2.59694e-13
1.04894e-14
2.12501e-16
7.75189e-12
4.67664e-12
2.56715e-12
1.85359e-12
1.69605e-12
1.22681e-12
2.08081e-13
1.66802e-12
1.12171e-12
2.52583e-15
7.52523e-17
1.50487e-18
3.97383e-12
2.2532e-12
7.00098e-13
2.1116e-13
5.99093e-14
2.72911e-14
1.66594e-15
1.31686e-16
9.69624e-16
2.60053e-17
6.51826e-19
9.9462e-21
1.11054e-12
6.73518e-13
1.57092e-13
2.76559e-14
3.35166e-15
3.6375e-16
2.36443e-17
1.50757e-18
2.50649e-19
7.30132e-20
4.27591e-21
1.11389e-22
1.45082e-13
9.1927e-14
2.17699e-14
3.05233e-15
2.82097e-16
1.75678e-17
7.867e-19
3.13061e-20
2.04775e-21
4.68515e-22
6.36777e-23
2.24361e-24
7.83573e-15
4.9043e-15
1.19553e-15
1.56683e-16
1.22778e-17
5.91222e-19
1.80904e-20
4.04772e-22
1.46225e-23
3.27975e-24
8.67765e-25
3.27001e-26
1.36598e-16
7.91436e-17
1.73991e-17
1.96537e-18
1.26497e-19
4.83123e-21
1.13138e-22
1.77576e-24
4.33041e-26
1.29277e-26
5.63294e-27
2.17e-28
3.83851e-19
1.81106e-19
2.42139e-20
1.56839e-21
5.65868e-23
1.20662e-24
1.59996e-26
1.81469e-28
1.86898e-29
1.28788e-29
8.49514e-30
3.19213e-31
1.0179e-16
7.05339e-16
3.58545e-15
1.46748e-14
4.84788e-14
1.35057e-13
3.51523e-13
1.01088e-12
3.55352e-12
1.34313e-11
4.52093e-11
1.24881e-10
9.89051e-18
1.32359e-16
9.47132e-16
4.6484e-15
1.65998e-14
4.56602e-14
1.04377e-13
2.15952e-13
4.45497e-13
1.01348e-12
2.59433e-12
6.6436e-12
8.29454e-19
1.84496e-17
1.82392e-16
1.11924e-15
4.71213e-15
1.4452e-14
3.44148e-14
6.81957e-14
1.20013e-13
1.99219e-13
3.33286e-13
5.9823e-13
4.81681e-20
1.63439e-18
2.19091e-17
1.71959e-16
8.99164e-16
3.33436e-15
9.23139e-15
2.01405e-14
3.65038e-14
5.75306e-14
8.20916e-14
1.11021e-13
1.63615e-21
8.2768e-20
1.49761e-18
1.5215e-17
1.01357e-16
4.74263e-16
1.62854e-15
4.27356e-15
8.9239e-15
1.53611e-14
2.23961e-14
2.83182e-14
3.0509e-23
2.22913e-21
5.53945e-20
7.37962e-19
6.34027e-18
3.81818e-17
1.68572e-16
5.60365e-16
1.44162e-15
2.94526e-15
4.85389e-15
6.48185e-15
5.55908e-25
2.89944e-23
1.0209e-21
1.84668e-20
2.17989e-19
1.75205e-18
9.77358e-18
4.20815e-17
1.40544e-16
3.59879e-16
7.10174e-16
1.06278e-15
9.35914e-27
4.06278e-25
1.06867e-23
3.03765e-22
5.46193e-21
5.70204e-20
3.77892e-19
1.85243e-18
7.68258e-18
2.63359e-17
6.54288e-17
1.11776e-16
1.41368e-28
5.13335e-27
1.02632e-25
3.62772e-24
9.20362e-23
1.24252e-21
9.68009e-21
5.23593e-20
2.36128e-19
1.04234e-18
3.5612e-18
7.03495e-18
1.52611e-30
4.74202e-29
7.26485e-28
3.0325e-26
1.02359e-24
1.73003e-23
1.55367e-22
9.0537e-22
4.22268e-21
2.08562e-20
1.00776e-19
2.28172e-19
8.80142e-33
2.38953e-31
2.79719e-30
1.34012e-28
5.85077e-27
1.21266e-25
1.23095e-24
7.4843e-24
3.36522e-23
1.712e-22
1.1134e-21
2.78987e-21
1.52356e-35
3.67661e-34
3.33364e-33
1.81378e-31
1.01407e-29
2.55012e-28
2.89088e-27
1.79424e-26
7.24752e-26
2.83822e-25
2.1893e-24
6.03448e-24
3.44624e-10
3.8196e-09
7.77123e-09
9.99742e-09
2.12066e-11
2.06448e-11
1.86511e-11
1.68742e-11
1.4741e-11
1.23454e-11
8.02033e-12
3.46785e-12
1.3952e-11
1.53794e-11
5.99774e-12
1.56983e-11
9.10416e-12
8.35641e-12
7.27208e-12
6.48861e-12
5.40687e-12
4.1115e-12
2.20178e-12
4.45062e-13
1.1445e-12
2.08225e-12
3.06054e-12
3.23309e-12
2.49551e-12
2.25023e-12
1.91375e-12
1.63453e-12
1.27818e-12
8.54913e-13
3.37194e-13
1.63152e-14
1.51144e-13
2.18477e-13
3.25463e-13
4.40148e-13
4.18289e-13
3.77173e-13
3.14366e-13
2.51921e-13
1.81687e-13
1.0351e-13
2.74913e-14
1.52636e-16
3.19549e-14
3.35907e-14
3.49853e-14
3.8303e-14
4.033e-14
3.63095e-14
2.9405e-14
2.21109e-14
1.4684e-14
7.06509e-15
1.2258e-15
9.40798e-19
6.99905e-15
6.14523e-15
4.4803e-15
2.96931e-15
2.02034e-15
1.72124e-15
1.38847e-15
1.02838e-15
6.49891e-16
2.71174e-16
3.20784e-17
2.89171e-20
1.16418e-15
8.97108e-16
4.48768e-16
1.6944e-16
4.40654e-17
2.44173e-17
2.74407e-17
2.35974e-17
1.54283e-17
5.93972e-18
5.27674e-19
4.09122e-22
1.23473e-16
8.31783e-17
2.40078e-17
4.07722e-18
2.39246e-19
9.06436e-21
1.56917e-19
2.48713e-19
1.94144e-19
7.53363e-20
5.68307e-21
2.23236e-24
7.22623e-18
3.96859e-18
5.24638e-19
3.1111e-20
6.32063e-22
2.25777e-23
5.5835e-23
1.11627e-21
1.27036e-21
5.48076e-22
3.94821e-23
6.15145e-27
1.92829e-19
7.71241e-20
4.20461e-21
1.1593e-22
2.55403e-24
5.45899e-26
1.27821e-26
1.94062e-24
4.08111e-24
2.13744e-24
1.60039e-25
1.63326e-29
1.71656e-21
4.66187e-22
2.08689e-23
2.52215e-25
1.7776e-27
1.53337e-29
3.5144e-30
1.11026e-27
5.47142e-27
3.69268e-27
2.98327e-28
5.56853e-32
2.25353e-24
3.7783e-25
1.18608e-26
9.07637e-29
1.08374e-31
2.12603e-35
1.03979e-34
1.32638e-31
1.87128e-30
1.64246e-30
1.42026e-31
4.78491e-35
6.64446e-14
3.89447e-13
1.61034e-12
5.03321e-12
1.18838e-11
2.18774e-11
3.28828e-11
4.19075e-11
4.63313e-11
4.54366e-11
4.26936e-11
4.44104e-11
1.46383e-14
1.5525e-13
8.62114e-13
3.2089e-12
8.59632e-12
1.75424e-11
2.88719e-11
4.02792e-11
4.94332e-11
5.45811e-11
5.60645e-11
6.08197e-11
3.30943e-15
5.28987e-14
3.77111e-13
1.67679e-12
5.19747e-12
1.2008e-11
2.19627e-11
3.37408e-11
4.60461e-11
5.82228e-11
6.89586e-11
0.0478802
6.07163e-16
1.37037e-14
1.24215e-13
6.70303e-13
2.46462e-12
6.627e-12
1.37891e-11
2.34994e-11
3.47392e-11
4.69261e-11
5.99694e-11
0.166008
7.40731e-17
2.39441e-15
2.83861e-14
1.92661e-13
8.74711e-13
2.86259e-12
7.09596e-12
1.3963e-11
2.29968e-11
3.36093e-11
4.63175e-11
0.125383
5.21802e-18
2.54786e-16
4.16057e-15
3.72737e-14
2.18965e-13
9.17089e-13
2.87178e-12
6.9713e-12
1.36696e-11
2.2879e-11
3.50927e-11
0.112043
1.75315e-19
1.38584e-17
3.39717e-16
4.33606e-15
3.55335e-14
2.0541e-13
8.75538e-13
2.82511e-12
7.1196e-12
1.46974e-11
2.62955e-11
0.081404
3.39434e-21
2.71982e-19