/*--------------------------------*- C++ -*----------------------------------*\
| =========                 |                                                 |
| \\      /  F ield         | OpenFOAM: The Open Source CFD Toolbox           |
|  \\    /   O peration     | Version:  v1606+                                |
|   \\  /    A nd           | Web:      www.OpenFOAM.com                      |
|    \\/     M anipulation  |                                                 |
\*---------------------------------------------------------------------------*/
FoamFile
{
    version     2.0;
    format      ascii;
    class       volScalarField;
    location    "0.42";
    object      p_rgh;
}
// * * * * * * * * * * * * * * * * * * * * * * * * * * * * * * * * * * * * * //

dimensions      [1 -1 -2 0 0 0 0];

internalField   nonuniform List<scalar> 
6000
(
107874
107873
107875
107877
107879
107879
107878
107875
107872
107868
107865
107864
107862
107862
107861
107861
107862
107863
107864
107866
107869
107872
107876
107879
107881
107881
107879
107876
107874
107875
107860
107861
107862
107862
107862
107860
107857
107854
107849
107845
107842
107840
107839
107838
107838
107838
107838
107839
107840
107843
107846
107850
107855
107859
107862
107864
107864
107863
107862
107861
107872
107875
107881
107888
107894
107895
107893
107889
107882
107876
107872
107870
107869
107868
107869
107869
107869
107869
107870
107873
107878
107884
107890
107895
107897
107896
107890
107883
107876
107872
107882
107888
107899
107907
107911
107903
107892
107880
107871
107864
107861
107860
107860
107862
107863
107863
107862
107862
107861
107862
107867
107873
107883
107895
107906
107914
107909
107902
107889
107883
107902
107904
107912
107898
107879
107853
107825
107802
107786
107779
107778
107782
107786
107790
107792
107793
107791
107787
107783
107781
107782
107790
107806
107829
107858
107884
107903
107916
107907
107903
107903
107893
107872
107842
107804
107750
107703
107671
107648
107641
107644
107654
107664
107672
107674
107674
107673
107665
107656
107647
107644
107652
107675
107709
107759
107811
107851
107879
107900
107908
107867
107846
107801
107734
107659
107615
107599
107586
107572
107555
107537
107530
107533
107538
107539
107539
107539
107534
107531
107540
107558
107573
107588
107601
107619
107671
107749
107812
107855
107875
107835
107789
107637
107570
107568
107590
107610
107615
107602
107575
107530
107510
107508
107507
107507
107507
107507
107509
107510
107532
107578
107604
107616
107610
107590
107569
107578
107664
107804
107842
107817
107635
107508
107517
107568
107623
107659
107677
107675
107650
107574
107520
107518
107517
107516
107516
107517
107518
107521
107579
107656
107677
107676
107656
107619
107565
107517
107514
107669
107824
107781
107522
107487
107521
107593
107664
107707
107733
107753
107753
107668
107542
107527
107526
107526
107526
107526
107527
107546
107677
107758
107755
107733
107704
107659
107588
107518
107477
107528
107825
107612
107491
107486
107544
107632
107700
107746
107782
107827
107856
107791
107590
107536
107535
107535
107535
107536
107536
107600
107800
107858
107829
107781
107743
107695
107626
107536
107475
107493
107667
107509
107470
107486
107585
107685
107746
107798
107839
107896
107947
107915
107692
107552
107545
107545
107545
107545
107554
107713
107926
107943
107894
107837
107794
107743
107679
107571
107471
107472
107534
107474
107472
107480
107634
107766
107817
107869
107911
107963
108013
108047
107852
107604
107563
107565
107565
107563
107611
107879
108052
108008
107956
107907
107864
107815
107760
107615
107471
107468
107480
107472
107473
107474
107686
107878
107910
107948
107990
108040
108084
108124
108013
107736
107629
107629
107629
107629
107750
108032
108123
108079
108034
107985
107944
107911
107873
107662
107471
107470
107468
107476
107476
107483
107730
107993
108012
108039
108072
108112
108143
108166
108130
107928
107781
107766
107765
107784
107944
108142
108164
108139
108107
108067
108038
108014
107982
107701
107478
107473
107473
107510
107503
107546
107770
108052
108086
108109
108134
108154
108169
108186
108167
108110
108019
107995
107994
108023
108119
108169
108185
108167
108151
108131
108106
108083
108048
107751
107540
107503
107509
107603
107604
107666
107827
108035
108017
108108
108152
108178
108175
108148
108158
108179
108192
108196
108194
108190
108174
108154
108146
108175
108174
108148
108098
107989
108022
107822
107661
107606
107604
107688
107704
107758
107806
107658
107473
107754
108100
108193
107885
107668
107755
107794
107836
107864
107861
107831
107784
107738
107665
107913
108191
108083
107706
107441
107638
107794
107748
107702
107686
107600
107579
107570
107461
107204
107146
107323
107641
107799
107675
107434
107337
107324
107346
107366
107365
107345
107321
107339
107452
107705
107812
107625
107296
107135
107195
107444
107554
107569
107595
107319
107262
107213
107133
107082
107093
107199
107480
107693
107681
107498
107297
107247
107247
107250
107251
107249
107249
107307
107527
107702
107688
107454
107184
107089
107079
107127
107203
107251
107312
107091
107072
107068
107069
107073
107089
107173
107447
107720
107772
107574
107334
107263
107261
107266
107267
107263
107267
107346
107597
107795
107713
107413
107159
107087
107072
107067
107065
107068
107088
107038
107040
107055
107068
107075
107091
107152
107393
107748
107857
107633
107371
107287
107283
107290
107291
107285
107291
107382
107652
107875
107733
107364
107146
107090
107074
107066
107053
107039
107037
107038
107043
107060
107072
107078
107094
107148
107350
107761
107936
107686
107399
107310
107306
107313
107314
107308
107314
107411
107705
107948
107742
107329
107145
107094
107077
107070
107058
107041
107038
107043
107049
107067
107076
107083
107102
107154
107327
107768
108000
107735
107426
107332
107327
107335
107336
107330
107336
107437
107754
108008
107749
107315
107154
107103
107083
107075
107065
107047
107042
107055
107058
107072
107080
107091
107116
107172
107324
107775
108055
107788
107455
107355
107350
107358
107359
107352
107359
107466
107805
108060
107759
107318
107173
107117
107091
107079
107070
107055
107052
107069
107065
107076
107086
107102
107134
107198
107335
107777
108101
107849
107492
107381
107375
107383
107384
107377
107384
107501
107866
108106
107766
107333
107200
107136
107102
107085
107074
107062
107065
107081
107073
107079
107093
107116
107156
107228
107364
107781
108141
107912
107533
107411
107403
107411
107412
107405
107414
107541
107930
108146
107774
107364
107230
107158
107117
107092
107077
107071
107076
107087
107083
107086
107105
107136
107184
107263
107404
107798
108182
107966
107574
107444
107434
107441
107442
107436
107449
107585
107988
108186
107789
107404
107265
107186
107137
107105
107084
107082
107081
107089
107096
107099
107123
107162
107218
107307
107456
107825
108220
108008
107615
107482
107469
107475
107476
107472
107488
107629
108030
108223
107814
107456
107310
107221
107164
107124
107098
107095
107084
107091
107112
107119
107149
107195
107260
107358
107518
107869
108242
108039
107655
107524
107508
107513
107515
107512
107531
107672
108059
108240
107858
107519
107362
107264
107199
107151
107121
107111
107086
107093
107131
107147
107182
107235
107310
107419
107591
107940
108243
108062
107706
107572
107553
107556
107558
107558
107581
107725
108079
108240
107930
107594
107425
107316
107241
107186
107150
107131
107088
107096
107155
107181
107224
107285
107369
107490
107676
108017
108264
108101
107778
107631
107606
107606
107608
107611
107642
107797
108114
108259
108010
107683
107498
107377
107291
107228
107184
107155
107092
107105
107186
107222
107273
107343
107438
107573
107776
108101
108294
108155
107864
107706
107669
107665
107667
107676
107718
107882
108163
108288
108097
107786
107584
107449
107351
107278
107225
107186
107103
107126
107225
107272
107331
107411
107519
107668
107892
108196
108341
108225
107967
107804
107752
107742
107745
107760
107818
107985
108231
108335
108196
107906
107684
107532
107421
107337
107275
107225
107127
107166
107274
107334
107401
107491
107613
107781
108021
108299
108410
108315
108091
107929
107863
107844
107848
107872
107943
108108
108322
108409
108306
108040
107801
107629
107502
107408
107338
107276
107170
107230
107344
107412
107485
107584
107723
107917
108168
108415
108500
108423
108237
108084
108009
107981
107984
108016
108097
108252
108432
108504
108425
108190
107941
107743
107598
107493
107417
107347
107234
107321
107441
107510
107583
107694
107863
108089
108344
108550
108609
108548
108404
108274
108203
108174
108177
108211
108287
108418
108558
108615
108560
108364
108114
107887
107711
107594
107517
107446
107326
107447
107568
107629
107700
107833
108050
108310
108553
108707
108740
108698
108601
108507
108451
108428
108432
108462
108524
108618
108708
108747
108716
108570
108335
108078
107855
107714
107638
107575
107452
107618
107717
107768
107845
108013
108300
108593
108798
108890
108899
108875
108825
108774
108740
108726
108730
108752
108792
108844
108889
108909
108899
108814
108622
108338
108044
107865
107782
107727
107623
107831
107896
107933
108026
108241
108612
108936
109058
109086
109079
109068
109053
109037
109025
109020
109024
109036
109054
109072
109086
109094
109099
109072
108972
108668
108286
108055
107953
107909
107839
108077
108108
108133
108229
108499
108928
109248
109265
109261
109249
109244
109242
109242
109243
109244
109247
109250
109255
109258
109261
109265
109276
109276
109275
108999
108563
108267
108157
108125
108088
108347
108354
108354
108442
108751
109167
109401
109386
109377
109367
109362
109361
109362
109363
109365
109366
109367
109367
109369
109372
109377
109386
109392
109411
109231
108824
108487
108383
108376
108360
108630
108624
108603
108689
108996
109335
109445
109443
109434
109428
109423
109421
109420
109420
109420
109420
109421
109422
109423
109426
109431
109437
109444
109447
109376
109064
108734
108633
108654
108647
108916
108906
108940
109027
109254
109450
109477
109478
109470
109464
109459
109455
109453
109451
109450
109450
109451
109453
109455
109459
109464
109471
109478
109478
109468
109299
109060
108963
108941
108944
109151
109182
109310
109401
109476
109528
109520
109512
109502
109492
109485
109479
109475
109472
109470
109470
109472
109474
109479
109485
109493
109503
109513
109522
109532
109487
109405
109319
109205
109191
109275
109398
109527
109596
109583
109570
109556
109541
109527
109514
109503
109495
109488
109484
109482
109482
109484
109488
109495
109503
109515
109529
109544
109560
109574
109581
109587
109526
109395
109297
109333
109525
109596
109610
109596
109586
109574
109555
109538
109522
109510
109500
109493
109489
109486
109486
109488
109493
109500
109510
109522
109538
109557
109577
109592
109600
109611
109590
109507
109322
109379
109572
109606
109602
109594
109585
109566
109546
109528
109515
109504
109495
109489
109485
109483
109482
109484
109488
109495
109503
109514
109528
109544
109566
109587
109600
109608
109605
109561
109355
109387
109586
109604
109591
109579
109558
109533
109513
109500
109493
109487
109482
109477
109474
109473
109472
109474
109477
109481
109487
109493
109500
109510
109526
109553
109577
109596
109606
109581
109373
109393
109584
109588
109565
109540
109508
109481
109468
109464
109464
109463
109462
109460
109459
109458
109458
109459
109461
109463
109465
109466
109465
109464
109464
109492
109528
109563
109585
109581
109387
109426
109558
109541
109519
109481
109433
109396
109403
109415
109429
109437
109440
109441
109441
109441
109441
109441
109442
109442
109441
109437
109423
109400
109360
109382
109449
109507
109534
109552
109424
109450
109510
109492
109465
109378
109296
109245
109315
109356
109391
109410
109418
109421
109421
109422
109421
109422
109422
109422
109419
109412
109385
109330
109258
109202
109282
109420
109482
109500
109448
109444
109462
109444
109362
109144
109098
109103
109223
109304
109359
109387
109398
109401
109401
109401
109401
109401
109401
109401
109401
109395
109372
109312
109236
109128
109084
109201
109421
109448
109439
109426
109416
109370
109093
108997
109005
109093
109173
109292
109347
109372
109380
109381
109380
109379
109378
109378
109378
109380
109383
109385
109376
109334
109263
109149
109061
108967
109231
109396
109409
109385
109350
109102
108910
109001
109030
109120
109192
109305
109346
109361
109363
109361
109358
109355
109353
109352
109352
109354
109359
109366
109372
109362
109331
109245
109072
108943
108928
109189
109363
109335
109034
108919
108896
109030
109120
109209
109258
109324
109343
109346
109343
109338
109333
109329
109326
109323
109322
109323
109326
109334
109345
109355
109356
109332
109216
108978
108908
108892
109225
109174
108914
108941
108941
109149
109240
109268
109298
109325
109329
109325
109319
109312
109305
109300
109295
109292
109289
109287
109286
109290
109299
109313
109327
109339
109321
109195
108988
108868
108974
108964
108895
109048
109157
109254
109271
109281
109299
109308
109305
109298
109290
109282
109275
109268
109263
109257
109252
109247
109242
109239
109242
109256
109275
109289
109304
109303
109194
108950
108939
108897
109067
109222
109248
109258
109258
109268
109280
109282
109276
109268
109258
109249
109241
109234
109228
109221
109215
109206
109196
109184
109173
109178
109207
109232
109250
109268
109278
109163
108930
109035
109206
109196
109190
109213
109231
109247
109255
109252
109244
109234
109223
109214
109205
109198
109192
109185
109178
109168
109151
109126
109090
109066
109083
109160
109191
109212
109231
109236
109036
109158
109152
109114
109092
109172
109207
109224
109227
109220
109208
109197
109185
109175
109167
109161
109155
109150
109144
109134
109116
109078
109005
108911
108806
108975
109119
109154
109176
109194
109134
109102
109029
108884
108998
109150
109194
109202
109195
109182
109168
109155
109143
109133
109126
109121
109117
109115
109113
109109
109097
109062
108975
108767
108583
108574
108894
109089
109122
109141
109134
109049
108746
108762
109015
109157
109180
109171
109155
109139
109123
109109
109097
109087
109081
109077
109075
109077
109080
109084
109085
109072
109005
108782
108567
108471
108461
108825
109069
109091
109101
108888
108705
108836
109083
109157
109151
109129
109108
109090
109073
109059
109047
109038
109031
109028
109028
109031
109037
109048
109061
109071
109056
108925
108639
108459
108390
108378
108803
109044
109057
108700
108673
108975
109117
109131
109106
109079
109057
109038
109021
109006
108993
108983
108976
108973
108974
108978
108987
108999
109017
109041
109061
109039
108879
108569
108400
108365
108401
108784
109020
108671
108817
109062
109104
109084
109054
109027
109005
108984
108965
108947
108933
108922
108916
108913
108914
108919
108928
108942
108963
108990
109021
109046
109025
108872
108585
108384
108451
108433
108862
108719
108987
109071
109056
109031
109000
108973
108949
108926
108903
108883
108867
108856
108850
108848
108849
108853
108861
108875
108897
108928
108963
108996
109021
109011
108890
108659
108544
108414
108624
108828
109008
109023
109002
108974
108944
108917
108890
108862
108835
108811
108794
108786
108784
108784
108784
108785
108788
108798
108819
108853
108894
108935
108966
108993
108990
108903
108742
108442
108443
108889
108970
108967
108948
108917
108887
108859
108826
108789
108754
108726
108715
108717
108723
108727
108727
108723
108717
108714
108726
108761
108810
108860
108905
108935
108962
108962
108894
108686
108484
108875
108918
108913
108891
108861
108832
108796
108748
108692
108642
108618
108628
108650
108671
108683
108684
108673
108652
108623
108611
108630
108696
108768
108830
108875
108905
108932
108932
108853
108596
108841
108866
108862
108837
108809
108772
108714
108626
108524
108459
108462
108528
108587
108629
108652
108656
108640
108599
108530
108465
108409
108509
108624
108733
108805
108848
108877
108903
108882
108708
108807
108819
108811
108790
108756
108692
108569
108377
108238
108212
108253
108415
108529
108596
108629
108638
108621
108568
108448
108313
108119
108228
108341
108562
108709
108787
108825
108851
108860
108779
108775
108779
108770
108745
108683
108536
108247
108012
107964
108031
108110
108314
108489
108574
108613
108627
108615
108560
108410
108186
108012
108003
107983
108202
108528
108699
108776
108803
108822
108787
108749
108749
108735
108683
108539
108134
107813
107789
107912
108025
108075
108250
108470
108561
108602
108619
108616
108570
108412
108097
108004
107999
107875
107809
108128
108510
108701
108760
108780
108772
108728
108721
108684
108548
108198
107620
107627
107779
107928
108024
108075
108243
108468
108556
108594
108612
108618
108592
108453
108105
108046
108010
107899
107742
107717
108029
108518
108708
108744
108754
108705
108678
108562
108197
107789
107621
107627
107796
107924
108031
108111
108284
108497
108565
108591
108606
108617
108615
108539
108242
108148
108058
107908
107749
107599
107590
108035
108533
108706
108727
108671
108536
108274
107872
107665
107625
107649
107812
107922
108063
108197
108420
108551
108581
108591
108599
108611
108624
108610
108489
108343
108133
107941
107765
107600
107591
107601
108114
108542
108693
108545
108157
107967
107853
107872
107787
107721
107842
107954
108167
108407
108553
108592
108591
108588
108589
108597
108614
108630
108617
108548
108373
108065
107828
107698
107594
107605
108092
108174
108562
108337
107952
107967
108021
108338
108136
107883
107912
108146
108427
108577
108609
108598
108582
108570
108566
108570
108584
108608
108630
108632
108583
108413
108129
107844
107748
107872
108260
108092
108393
108174
107947
108094
108365
108376
108176
108089
108223
108468
108601
108622
108599
108569
108546
108531
108525
108527
108540
108563
108591
108618
108638
108612
108489
108267
108061
108064
108263
108083
108201
108062
108064
108345
108440
108282
108151
108370
108525
108616
108617
108590
108552
108517
108489
108471
108461
108462
108474
108498
108534
108572
108604
108631
108621
108538
108388
108260
108262
108130
108071
108070
108288
108446
108419
108256
108310
108556
108615
108599
108572
108531
108479
108434
108399
108374
108359
108357
108370
108399
108444
108499
108548
108582
108609
108608
108546
108422
108340
108272
108061
108100
108393
108427
108330
108309
108530
108600
108577
108550
108506
108435
108363
108306
108262
108230
108209
108200
108208
108238
108296
108378
108461
108524
108559
108586
108584
108527
108435
108357
108082
108078
108409
108413
108381
108500
108578
108556
108529
108480
108385
108275
108191
108140
108109
108087
108062
108034
108013
108009
108053
108155
108307
108431
108505
108540
108565
108561
108512
108413
108087
108061
108427
108457
108499
108558
108537
108510
108459
108334
108161
108041
108008
108014
108026
108027
108000
107950
107888
107820
107812
107841
108007
108257
108414
108493
108524
108548
108545
108471
108145
108106
108465
108517
108538
108521
108496
108448
108296
108043
107875
107848
107895
107960
108022
108033
108006
107948
107859
107766
107701
107651
107666
107920
108241
108413
108486
108513
108534
108506
108271
108239
108502
108527
108509
108486
108444
108279
107964
107711
107723
107754
107852
107942
108027
108055
108029
107958
107846
107770
107696
107609
107530
107568
107900
108257
108426
108481
108503
108508
108379
108372
108510
108501
108480
108446
108280
107917
107588
107555
107666
107747
107827
107939
108036
108073
108052
107976
107843
107764
107700
107613
107482
107402
107498
107929
108291
108449
108476
108493
108429
108438
108492
108477
108454
108302
107876
107489
107388
107514
107664
107746
107798
107940
108043
108076
108068
107995
107846
107755
107706
107630
107491
107339
107266
107469
107945
108338
108454
108471
108453
108464
108472
108457
108340
107893
107304
107273
107356
107522
107671
107758
107775
107941
108048
108076
108075
108011
107855
107735
107724
107658
107521
107354
107218
107117
107341
108032
108386
108454
108463
108464
108456
108385
107939
107301
107107
107222
107375
107549
107694
107755
107772
107941
108047
108077
108076
108020
107866
107702
107724
107685
107571
107396
107213
106975
106974
107429
108156
108397
108452
108453
108379
108082
107493
107135
107115
107234
107422
107598
107706
107710
107771
107944
108043
108079
108073
108026
107881
107682
107676
107686
107615
107442
107230
106982
106979
107188
107786
108154
108401
108387
107944
107499
107414
107427
107375
107291
107469
107637
107679
107660
107776
107954
108042
108082
108070
108032
107908
107689
107601
107625
107609
107428
107253
107251
107320
107207
107373
107652
108214
108113
107467
107478
107540
107994
107928
107436
107445
107587
107597
107642
107814
107981
108050
108085
108075
108047
107958
107746
107577
107517
107519
107346
107352
107817
107949
107431
107354
107342
107911
107637
107471
107658
107991
108172
108035
107614
107346
107473
107549
107691
107910
108036
108080
108102
108100
108083
108033
107882
107644
107495
107392
107344
107528
107942
108147
107962
107625
107365
107417
107643
107794
108125
108209
108164
107836
107594
107340
107429
107613
107861
108051
108118
108142
108153
108155
108148
108127
108057
107855
107593
107392
107340
107542
107757
108141
108207
108119
107813
107439
107882
108204
108204
108201
108043
107619
107407
107335
107523
107846
108089
108178
108202
108212
108217
108219
108217
108211
108193
108111
107878
107545
107350
107430
107586
108010
108198
108203
108207
107852
108184
108197
108194
108165
107776
107544
107400
107450
107836
108134
108230
108245
108248
108247
108245
108245
108248
108251
108253
108245
108170
107914
107542
107423
107584
107757
108107
108192
108197
108189
108187
108184
108181
107840
107579
107512
107480
107834
108169
108256
108254
108246
108241
108238
108236
108236
108238
108240
108246
108255
108263
108216
107955
107594
107611
107640
107784
108177
108183
108186
108174
108168
107905
107424
107469
107593
107863
108193
108255
108244
108229
108210
108195
108188
108181
108180
108179
108186
108200
108222
108246
108257
108238
108010
107778
107606
107522
107827
108156
108172
108057
107606
107387
107399
107559
107920
108204
108247
108237
108201
108151
108113
108084
108066
108045
108047
108053
108070
108092
108130
108182
108228
108238
108239
108083
107751
107503
107425
107597
108113
107234
107157
107226
107508
107923
108205
108225
108215
108165
108097
108037
107993
107964
107946
107919
107923
107937
107953
107974
108014
108071
108143
108208
108224
108231
108075
107683
107362
107279
107432
107010
107095
107439
107928
108202
108207
108198
108130
108052
107995
107964
107926
107895
107876
107852
107850
107871
107887
107914
107951
107973
108024
108103
108192
108219
108226
108064
107615
107275
107103
107045
107444
107955
108201
108193
108179
108100
107998
107941
107893
107916
107888
107842
107819
107806
107800
107811
107834
107877
107908
107880
107925
107971
108072
108172
108216
108221
108074
107615
107159
107447
108006
108203
108193
108158
108069
107992
107935
107841
107722
107798
107835
107794
107758
107751
107749
107746
107786
107823
107792
107716
107837
107939
107991
108054
108142
108205
108214
108096
107575
108005
108201
108191
108114
108038
107978
107946
107867
107662
107526
107613
107753
107767
107715
107694
107700
107706
107755
107738
107611
107539
107682
107895
107952
107967
108029
108109
108201
108210
108077
108196
108125
108090
107915
107877
107852
107857
107767
107545
107498
107501
107643
107727
107694
107668
107673
107686
107710
107642
107512
107515
107607
107830
107873
107841
107864
107889
108089
108146
108217
108126
107698
107835
107651
107695
107745
107842
107796
107600
107500
107496
107562
107644
107675
107662
107660
107666
107636
107596
107513
107537
107674
107858
107879
107761
107676
107650
107789
107706
108146
107821
107536
107576
107580
107693
107853
107951
107916
107788
107593
107521
107557
107563
107642
107655
107651
107629
107610
107609
107556
107662
107844
107954
107997
107899
107716
107567
107561
107548
107839
107529
107533
107571
107736
107945
108097
108112
108052
107975
107787
107644
107605
107562
107573
107639
107638
107606
107619
107678
107695
107850
108002
108066
108135
108131
107991
107765
107588
107546
107542
107527
107582
107856
108092
108217
108227
108175
108116
108070
107965
107812
107724
107587
107560
107613
107616
107602
107675
107788
107858
107994
108072
108110
108167
108231
108235
108121
107896
107613
107540
107526
107948
108206
108288
108281
108215
108145
108103
108084
108054
107951
107847
107673
107555
107584
107590
107601
107774
107888
107981
108058
108074
108095
108133
108205
108275
108293
108223
107987
107559
107884
108257
108310
108305
108240
108137
108076
108066
108064
108063
108031
107948
107792
107565
107573
107575
107635
107873
107973
108036
108053
108052
108052
108057
108115
108222
108304
108309
108268
107934
108227
108305
108299
108271
108080
108000
107976
108004
108030
108048
108047
108014
107888
107639
107583
107582
107714
107945
108026
108041
108040
108018
107990
107958
107986
108043
108251
108297
108302
108241
108296
108293
108284
108074
107867
107882
107907
107971
108014
108037
108041
108039
107944
107741
107627
107628
107787
107984
108040
108037
108031
108009
107970
107913
107884
107868
108041
108275
108290
108293
108284
108279
107999
107828
107820
107862
107920
107980
108016
108031
108034
108034
107959
107802
107682
107685
107824
107985
108034
108030
108027
108012
107980
107928
107875
107839
107843
107976
108276
108281
108272
108129
107780
107810
107815
107891
107961
108005
108023
108025
108027
108021
107950
107824
107725
107727
107837
107972
108025
108023
108022
108021
108004
107966
107901
107835
107829
107796
108107
108270
108164
107822
107776
107784
107848
107952
108009
108021
108022
108017
108014
107998
107939
107839
107763
107763
107847
107952
108005
108010
108013
108020
108023
108010
107957
107859
107798
107793
107816
108096
106806
107531
107858
107819
107938
108013
108017
108018
108008
107995
107987
107966
107925
107852
107800
107798
107857
107930
107975
107988
107993
108007
108019
108019
108015
107943
107825
107869
107564
106666
106010
107057
107978
107894
108009
108008
108014
108013
107971
107952
107944
107934
107917
107880
107859
107856
107881
107920
107939
107948
107954
107973
108012
108016
108011
108012
107897
107982
107028
105910
106558
107049
108006
107998
108001
107973
107991
107982
107949
107945
107945
107943
107942
107941
107935
107935
107944
107947
107948
107949
107947
107951
107981
107994
107977
108005
108005
108013
106993
106511
107584
107005
107801
107762
107737
107647
107701
107657
107653
107616
107573
107472
107333
107172
107065
107068
107183
107346
107484
107579
107617
107654
107651
107687
107627
107717
107736
107734
106941
107583
106453
105031
104590
104637
104983
104951
105062
104974
105016
104814
104569
104271
103939
103602
103408
103415
103628
103976
104300
104574
104810
105014
104945
104993
104842
104850
104504
104465
104977
106406
102366
101474
100955
100881
101082
101134
101208
101200
101233
101103
100960
100834
100713
100602
100544
100545
100610
100727
100845
100961
101100
101230
101181
101166
101067
101007
100824
100919
101453
102326
100273
100142
100069
100048
100060
100067
100076
100081
100085
100071
100057
100047
100039
100032
100028
100028
100032
100040
100048
100057
100071
100085
100078
100072
100061
100054
100044
100067
100140
100267
100016
100010
100007
100006
100006
100006
100006
100007
100007
100006
100006
100006
100006
100006
100006
100006
100006
100006
100006
100006
100006
100007
100007
100006
100006
100006
100006
100007
100010
100015
100006
100006
100006
100006
100006
100006
100006
100006
100006
100006
100006
100006
100006
100006
100006
100006
100006
100006
100006
100006
100006
100006
100006
100006
100006
100006
100006
100006
100006
100006
100006
100006
100006
100006
100006
100006
100006
100006
100006
100006
100006
100006
100006
100006
100006
100006
100006
100006
100006
100006
100006
100006
100006
100006
100006
100006
100006
100006
100006
100006
100006
100006
100006
100006
100006
100006
100006
100006
100006
100006
100006
100006
100006
100006
100006
100006
100006
100006
100006
100006
100006
100006
100006
100006
100006
100006
100006
100006
100006
100006
100006
100006
100006
100006
100006
100006
100006
100006
100006
100006
100006
100006
100006
100006
100006
100006
100006
100006
100006
100006
100006
100006
100006
100006
100006
100006
100006
100006
100006
100006
100006
100006
100006
100006
100006
100006
100006
100006
100006
100006
100006
100006
100006
100006
100006
100006
100006
100006
100006
100006
100006
100006
100006
100006
100006
100006
100006
100006
100006
100006
100006
100006
100006
100006
100006
100006
100006
100006
100006
100006
100006
100006
100006
100006
100006
100006
100006
100006
100006
100006
100006
100006
100006
100006
100006
100006
100006
100006
100006
100006
100006
100006
100006
100006
100006
100006
100006
100006
100006
100006
100006
100006
100006
100006
100006
100006
100006
100006
100006
100006
100006
100006
100006
100006
100006
100006
100006
100006
100006
100006
100006
100006
100006
100006
100006
100006
100006
100006
100006
100006
100006
100006
100006
100006
100006
100006
100006
100006
100006
100006
100006
100006
100006
100006
100006
100006
100006
100006
100006
100006
100006
100006
100006
100006
100006
100006
100006
100006
100006
100006
100006
100006
100006
100006
100006
100006
100006
100006
100006
100006
100006
100006
100006
100006
100006
100006
100006
100006
100006
100006
100006
100006
100006
100006
100006
100006
100006
100006
100006
100006
100006
100006
100006
100006
100006
100006
100006
100006
100006
100006
100006
100006
100006
100006
100006
100006
100006
100006
100006
100006
100006
100006
100006
100006
100006
100006
100006
100006
100006
100006
100006
100006
100006
100006
100006
100006
100006
100006
100006
100006
100006
100006
100006
100006
100006
100006
100006
100006
100006
100006
100006
100006
100006
100006
100006
100006
100006
100006
100006
100006
100006
100006
100006
100006
100006
100006
100006
100006
100006
100006
100006
100006
100006
100006
100006
100006
100006
100006
100006
100006
100006
100006
100006
100006
100006
100006
100006
100006
100006
100006
100006
100006
100006
100006
100006
100006
100006
100006
100006
100006
100006
100006