/*--------------------------------*- C++ -*----------------------------------*\
| =========                 |                                                 |
| \\      /  F ield         | OpenFOAM: The Open Source CFD Toolbox           |
|  \\    /   O peration     | Version:  v1606+                                |
|   \\  /    A nd           | Web:      www.OpenFOAM.com                      |
|    \\/     M anipulation  |                                                 |
\*---------------------------------------------------------------------------*/
FoamFile
{
    version     2.0;
    format      ascii;
    class       volVectorField;
    location    "0.42";
    object      U.particlesMean;
}
// * * * * * * * * * * * * * * * * * * * * * * * * * * * * * * * * * * * * * //

dimensions      [0 1 -1 0 0 0 0];

internalField   nonuniform List<vector> 
6000
(
(-0.00732937 -0.297103 0)
(-0.00476864 -0.327437 0)
(-0.00193512 -0.328056 0)
(-0.00135921 -0.330443 0)
(0.000102008 -0.332291 0)
(0.00119273 -0.33352 0)
(0.00352818 -0.337688 0)
(0.00482701 -0.343078 0)
(0.00560121 -0.349272 0)
(0.00515191 -0.354101 0)
(0.00452233 -0.356259 0)
(0.00413105 -0.357076 0)
(0.00334517 -0.360135 0)
(0.00240728 -0.362063 0)
(0.000780918 -0.362891 0)
(-0.000964525 -0.36223 0)
(-0.00206684 -0.361101 0)
(-0.00296749 -0.359138 0)
(-0.0034613 -0.357718 0)
(-0.00448694 -0.357082 0)
(-0.00542819 -0.353613 0)
(-0.00565398 -0.348129 0)
(-0.00470914 -0.341815 0)
(-0.00307732 -0.336502 0)
(-0.000830092 -0.333726 0)
(0.000215261 -0.331201 0)
(0.00170342 -0.329288 0)
(0.00255037 -0.326766 0)
(0.00569469 -0.326091 0)
(0.00783503 -0.297884 0)
(0.00927976 0.0343991 0)
(-0.00329163 0.0585891 0)
(-0.00314395 0.055851 0)
(-0.00806792 0.0568293 0)
(-0.00701825 0.0523273 0)
(-0.00509193 0.0472675 0)
(-0.00225479 0.0422178 0)
(-2.05256e-05 0.039367 0)
(0.00207984 0.0386544 0)
(0.00316297 0.0391854 0)
(0.00362063 0.0390675 0)
(0.00347013 0.0382242 0)
(0.00290251 0.0385623 0)
(0.00177367 0.038304 0)
(0.000649329 0.0383879 0)
(-0.000443256 0.0382293 0)
(-0.00161033 0.0385427 0)
(-0.00256353 0.0379192 0)
(-0.00313839 0.0386391 0)
(-0.00317663 0.0394072 0)
(-0.002713 0.038972 0)
(-0.00175603 0.0390297 0)
(6.27872e-05 0.0394275 0)
(0.00243231 0.0423725 0)
(0.00542959 0.0478999 0)
(0.00744116 0.0518267 0)
(0.00880737 0.0561709 0)
(0.00427396 0.0555044 0)
(0.00418704 0.0582909 0)
(-0.0088797 0.0346688 0)
(-0.00570237 -0.00882603 0)
(-0.00753721 -0.0222373 0)
(-0.00531787 -0.0229361 0)
(-0.00991564 -0.027423 0)
(-0.00648803 -0.0331914 0)
(-0.00428666 -0.0347106 0)
(-0.00155738 -0.0346999 0)
(0.000173454 -0.0354916 0)
(0.00178357 -0.0357977 0)
(0.00246222 -0.0362537 0)
(0.00292183 -0.037829 0)
(0.00267038 -0.0382886 0)
(0.00208338 -0.0379476 0)
(0.00135434 -0.0379198 0)
(0.000621584 -0.0374785 0)
(-0.000223006 -0.0377978 0)
(-0.00107389 -0.0379394 0)
(-0.00181061 -0.0383514 0)
(-0.00257792 -0.0381203 0)
(-0.0025172 -0.0372002 0)
(-0.00197865 -0.0360323 0)
(-0.00137781 -0.0355198 0)
(1.77387e-05 -0.0352976 0)
(0.00177087 -0.0351258 0)
(0.00484513 -0.034632 0)
(0.0073215 -0.0333108 0)
(0.0108259 -0.0279845 0)
(0.00637865 -0.0234937 0)
(0.0081635 -0.021426 0)
(0.00577689 -0.00758819 0)
(-0.00253021 -0.00772236 0)
(-0.0102107 -0.0263874 0)
(-0.0136664 -0.0275204 0)
(-0.0162969 -0.0353097 0)
(-0.0117659 -0.0422943 0)
(-0.00640129 -0.045184 0)
(3.9211e-05 -0.0438684 0)
(0.00444936 -0.0411568 0)
(0.00638718 -0.0376101 0)
(0.00563744 -0.0342436 0)
(0.00410292 -0.032688 0)
(0.00257516 -0.0316349 0)
(0.00132186 -0.0312764 0)
(0.000577489 -0.0313272 0)
(0.000315929 -0.0313521 0)
(0.000178688 -0.0313551 0)
(-0.000142492 -0.0313675 0)
(-0.000939521 -0.0313211 0)
(-0.00237182 -0.0316183 0)
(-0.00384162 -0.0325886 0)
(-0.00537606 -0.0341533 0)
(-0.00607535 -0.0374102 0)
(-0.00399478 -0.0410416 0)
(0.000473348 -0.044435 0)
(0.0072899 -0.0455899 0)
(0.0129635 -0.0427348 0)
(0.0174424 -0.035749 0)
(0.0148029 -0.0276999 0)
(0.0108412 -0.0251987 0)
(0.00262543 -0.00638359 0)
(-0.00308138 -0.0127304 0)
(-0.0202574 -0.0346122 0)
(-0.0266854 -0.0415086 0)
(-0.0264015 -0.0583689 0)
(-0.0201717 -0.0705545 0)
(-0.0108004 -0.0761573 0)
(-5.9775e-06 -0.0739909 0)
(0.00870878 -0.0691403 0)
(0.0139736 -0.0628153 0)
(0.0148045 -0.0570375 0)
(0.0122836 -0.0539747 0)
(0.00848148 -0.0523579 0)
(0.00493776 -0.0516168 0)
(0.00244274 -0.051819 0)
(0.000875228 -0.0520587 0)
(-0.000341693 -0.0521311 0)
(-0.00200616 -0.0518905 0)
(-0.00460369 -0.0516975 0)
(-0.00825887 -0.0522964 0)
(-0.012079 -0.0536929 0)
(-0.0146347 -0.0569456 0)
(-0.0136247 -0.062725 0)
(-0.00795977 -0.0691055 0)
(0.000857343 -0.0746847 0)
(0.0118849 -0.0768401 0)
(0.0213739 -0.0711094 0)
(0.0276004 -0.0587484 0)
(0.0278294 -0.041568 0)
(0.0211701 -0.03289 0)
(0.00336969 -0.0107287 0)
(-0.0051987 -0.0113198 0)
(-0.030599 -0.0299431 0)
(-0.0386845 -0.0474031 0)
(-0.0368944 -0.0733087 0)
(-0.027498 -0.087798 0)
(-0.0133724 -0.0933268 0)
(0.00143337 -0.088537 0)
(0.0132798 -0.0794078 0)
(0.0213018 -0.0687025 0)
(0.025094 -0.0617865 0)
(0.0237676 -0.0577699 0)
(0.0186859 -0.0564961 0)
(0.0125937 -0.0558948 0)
(0.00710207 -0.0562526 0)
(0.00245505 -0.0567897 0)
(-0.00187366 -0.0567764 0)
(-0.00668966 -0.0562156 0)
(-0.0123369 -0.0558445 0)
(-0.0185733 -0.0563714 0)
(-0.0235781 -0.057516 0)
(-0.0247765 -0.0616962 0)
(-0.0207323 -0.0688004 0)
(-0.0123634 -0.0797673 0)
(-0.000402426 -0.0898162 0)
(0.0146902 -0.0945964 0)
(0.0289192 -0.0889541 0)
(0.0383026 -0.0740457 0)
(0.0396316 -0.0473273 0)
(0.0312058 -0.0275003 0)
(0.00515321 -0.00858293 0)
(-0.0146798 0.00349411 0)
(-0.0410891 -0.0251085 0)
(-0.0457945 -0.0527247 0)
(-0.0405395 -0.0804584 0)
(-0.0300579 -0.0971267 0)
(-0.0149516 -0.104415 0)
(0.00149015 -0.100541 0)
(0.0174497 -0.0885892 0)
(0.0282804 -0.0716311 0)
(0.0337483 -0.058123 0)
(0.0334545 -0.0501147 0)
(0.0277806 -0.0470545 0)
(0.01997 -0.0472633 0)
(0.0116528 -0.0485524 0)
(0.00398426 -0.0498197 0)
(-0.00341106 -0.0497448 0)
(-0.011231 -0.0484601 0)
(-0.0197397 -0.0471623 0)
(-0.0277667 -0.0470165 0)
(-0.0333515 -0.0501785 0)
(-0.0334713 -0.0584797 0)
(-0.027602 -0.0723359 0)
(-0.0163142 -0.0896369 0)
(-0.000162253 -0.101917 0)
(0.0162752 -0.10575 0)
(0.0313267 -0.0980914 0)
(0.0415612 -0.0806623 0)
(0.0464117 -0.0522716 0)
(0.0412431 -0.0223591 0)
(0.014481 0.00630909 0)
(-0.00581858 0.0186425 0)
(-0.0368613 -0.00972841 0)
(-0.0392194 -0.0447531 0)
(-0.0337494 -0.0746888 0)
(-0.0241656 -0.0962183 0)
(-0.0118703 -0.107728 0)
(0.00231604 -0.107016 0)
(0.0171224 -0.0947386 0)
(0.0281019 -0.0745028 0)
(0.0357041 -0.0568698 0)
(0.0379412 -0.045954 0)
(0.0338513 -0.0406182 0)
(0.0253577 -0.0405257 0)
(0.0151091 -0.0419936 0)
(0.00516421 -0.0434655 0)
(-0.0045108 -0.0433517 0)
(-0.0145209 -0.0418069 0)
(-0.0248823 -0.0402655 0)
(-0.0335042 -0.0404079 0)
(-0.0374491 -0.0459313 0)
(-0.0351313 -0.0572581 0)
(-0.0272783 -0.0754683 0)
(-0.0161448 -0.0959463 0)
(-0.00121537 -0.108326 0)
(0.0129019 -0.108899 0)
(0.0250407 -0.0971282 0)
(0.0346105 -0.0748195 0)
(0.0395155 -0.0440657 0)
(0.0368671 -0.00729708 0)
(0.00586406 0.0219538 0)
(-0.000438906 0.0286181 0)
(-0.0252995 0.00526759 0)
(-0.0250162 -0.0308957 0)
(-0.0212897 -0.0653356 0)
(-0.0174123 -0.091746 0)
(-0.00674591 -0.108189 0)
(0.0034782 -0.110151 0)
(0.016766 -0.0985488 0)
(0.0266622 -0.0765691 0)
(0.0336962 -0.053531 0)
(0.0338519 -0.0349118 0)
(0.0322167 -0.0270801 0)
(0.0252533 -0.0266639 0)
(0.0155599 -0.0284528 0)
(0.00534922 -0.0300487 0)
(-0.0048223 -0.0299412 0)
(-0.0150486 -0.0282116 0)
(-0.0247873 -0.026308 0)
(-0.031753 -0.0267566 0)
(-0.0331801 -0.0347774 0)
(-0.0332974 -0.0541508 0)
(-0.0259893 -0.0775061 0)
(-0.0160543 -0.0997225 0)
(-0.00273625 -0.111281 0)
(0.00738162 -0.109249 0)
(0.017786 -0.0922888 0)
(0.0217334 -0.0652667 0)
(0.0252974 -0.0301537 0)
(0.0256419 0.00719473 0)
(0.000769574 0.0315069 0)
(0.00426526 0.0423542 0)
(-0.011431 0.0243633 0)
(-0.0068888 -0.0121106 0)
(-0.00647807 -0.0512612 0)
(-0.00564972 -0.0825221 0)
(0.000247618 -0.104225 0)
(0.00699854 -0.10917 0)
(0.0166901 -0.098251 0)
(0.02434 -0.0744425 0)
(0.0306557 -0.0486702 0)
(0.0280956 -0.0248723 0)
(0.0276398 -0.0126695 0)
(0.0226173 -0.010155 0)
(0.0143053 -0.0115528 0)
(0.00487632 -0.0130507 0)
(-0.0045305 -0.0129485 0)
(-0.0139231 -0.0113535 0)
(-0.0222106 -0.00980986 0)
(-0.0270711 -0.0123059 0)
(-0.0275592 -0.0250361 0)
(-0.0303302 -0.0493547 0)
(-0.0238652 -0.0754082 0)
(-0.0161936 -0.0994245 0)
(-0.00659568 -0.11013 0)
(-7.11959e-05 -0.105006 0)
(0.0055696 -0.0826181 0)
(0.0060746 -0.0509828 0)
(0.00659482 -0.0112441 0)
(0.0118695 0.0264874 0)
(-0.00321336 0.0454274 0)
(0.00947602 0.0515133 0)
(0.00160787 0.0344481 0)
(0.00927367 -0.00140131 0)
(0.0103464 -0.0461581 0)
(0.0077779 -0.0768929 0)
(0.00969693 -0.0995993 0)
(0.0117576 -0.106951 0)
(0.0173591 -0.0968255 0)
(0.0220589 -0.0726261 0)
(0.0248517 -0.0448734 0)
(0.0224069 -0.0198566 0)
(0.0195895 -0.00123488 0)
(0.0175588 0.00370783 0)
(0.0114358 0.00328263 0)
(0.00393467 0.00212795 0)
(-0.00367955 0.00221379 0)
(-0.0111687 0.00347418 0)
(-0.017208 0.00395979 0)
(-0.0189937 -0.00131234 0)
(-0.0221439 -0.020896 0)
(-0.024373 -0.0461146 0)
(-0.0216992 -0.0738339 0)
(-0.0171216 -0.0979652 0)
(-0.0117482 -0.107645 0)
(-0.00994686 -0.0998555 0)
(-0.00843078 -0.0773343 0)
(-0.0113606 -0.0464396 0)
(-0.0100048 -0.00073228 0)
(-0.00122425 0.0357401 0)
(-0.00846931 0.0540915 0)
(0.0143798 0.0543476 0)
(0.0122925 0.0384572 0)
(0.0240646 0.00598486 0)
(0.0281085 -0.0425546 0)
(0.0228105 -0.0761449 0)
(0.0220394 -0.0976446 0)
(0.0185429 -0.103152 0)
(0.0189851 -0.0950648 0)
(0.0195567 -0.0737499 0)
(0.018835 -0.0484654 0)
(0.0156878 -0.0212085 0)
(0.0110401 0.00240217 0)
(0.00937815 0.0118451 0)
(0.00681297 0.0133795 0)
(0.00232381 0.012913 0)
(-0.00228324 0.012964 0)
(-0.00671096 0.0134777 0)
(-0.00901037 0.0119095 0)
(-0.0109082 0.00181921 0)
(-0.0157355 -0.0223949 0)
(-0.0186371 -0.0500242 0)
(-0.0193749 -0.0749617 0)
(-0.0189082 -0.0958997 0)
(-0.018767 -0.103812 0)
(-0.0226868 -0.0983281 0)
(-0.0239147 -0.0764904 0)
(-0.0293081 -0.0425262 0)
(-0.0250835 0.00673968 0)
(-0.0120387 0.0391475 0)
(-0.013791 0.056216 0)
(0.017446 0.0531656 0)
(0.0211068 0.0374111 0)
(0.0390705 0.00967923 0)
(0.0446959 -0.040448 0)
(0.0406098 -0.0767001 0)
(0.035619 -0.0965668 0)
(0.0269672 -0.0998442 0)
(0.0204924 -0.0899456 0)
(0.0166164 -0.0716031 0)
(0.0126932 -0.050082 0)
(0.00834472 -0.0214033 0)
(0.00301289 0.0040035 0)
(-6.8734e-05 0.0171346 0)
(0.00154614 0.0204609 0)
(0.000524067 0.0207823 0)
(-0.000746582 0.0207706 0)
(-0.0016928 0.0203844 0)
(0.00025082 0.0168917 0)
(-0.00333366 0.00284173 0)
(-0.00840315 -0.0228252 0)
(-0.0126067 -0.0516523 0)
(-0.0164628 -0.0727768 0)
(-0.0204605 -0.0904852 0)
(-0.0273504 -0.100092 0)
(-0.0362858 -0.096712 0)
(-0.0420541 -0.0768048 0)
(-0.0458203 -0.0397077 0)
(-0.0402633 0.0104543 0)
(-0.0209564 0.0380134 0)
(-0.0172665 0.0547513 0)
(0.0185822 0.0491773 0)
(0.0269481 0.032514 0)
(0.0529743 0.00995216 0)
(0.0603885 -0.0380288 0)
(0.0581189 -0.0785224 0)
(0.0495743 -0.0964468 0)
(0.0358868 -0.095753 0)
(0.0229094 -0.0848896 0)
(0.0146752 -0.0688758 0)
(0.00828541 -0.0504826 0)
(0.00194936 -0.0224145 0)
(-0.00224555 0.00216548 0)
(-0.00633522 0.0171401 0)
(-0.00268083 0.0226061 0)
(-0.000888475 0.0240514 0)
(0.000523507 0.0240118 0)
(0.00245973 0.0224384 0)
(0.00626134 0.0165282 0)
(0.00193562 0.000812716 0)
(-0.00197685 -0.0238689 0)
(-0.0083409 -0.0518 0)
(-0.0146789 -0.069737 0)
(-0.0230222 -0.0852712 0)
(-0.0364412 -0.095869 0)
(-0.050415 -0.0967363 0)
(-0.0593775 -0.0783873 0)
(-0.0618618 -0.0364313 0)
(-0.0540516 0.0106364 0)
(-0.0269062 0.0329083 0)
(-0.0187842 0.0504234 0)
(0.0199677 0.0414146 0)
(0.0299974 0.0206252 0)
(0.0623987 0.000835708 0)
(0.0729755 -0.0400546 0)
(0.0717566 -0.0818568 0)
(0.0617514 -0.0960883 0)
(0.0425856 -0.0913801 0)
(0.0226716 -0.0781477 0)
(0.0103884 -0.0645574 0)
(0.00218658 -0.0492361 0)
(-0.00547005 -0.0231531 0)
(-0.00863459 -0.000509546 0)
(-0.0103089 0.0130753 0)
(-0.00643677 0.0204073 0)
(-0.00206976 0.0227749 0)
(0.00165762 0.0227183 0)
(0.00621693 0.0201545 0)
(0.0099255 0.012303 0)
(0.00815876 -0.00177758 0)
(0.00503854 -0.0246417 0)
(-0.00268556 -0.0503844 0)
(-0.0107583 -0.0653755 0)
(-0.0230712 -0.0781425 0)
(-0.0433468 -0.0912067 0)
(-0.0627105 -0.0960608 0)
(-0.0729622 -0.0815632 0)
(-0.0741252 -0.0386274 0)
(-0.063117 0.000951631 0)
(-0.0300865 0.0205753 0)
(-0.020363 0.0423269 0)
(0.0229166 0.0299382 0)
(0.0319664 0.00326146 0)
(0.0660525 -0.0153566 0)
(0.0811603 -0.0449035 0)
(0.0810248 -0.083683 0)
(0.0683691 -0.0944572 0)
(0.0439853 -0.0845697 0)
(0.0184062 -0.0708175 0)
(0.00400615 -0.0615315 0)
(-0.00403975 -0.0485657 0)
(-0.0113603 -0.0259254 0)
(-0.0136805 -0.00674887 0)
(-0.0128039 0.0038241 0)
(-0.00896997 0.0101892 0)
(-0.0031233 0.0129814 0)
(0.0023286 0.0128644 0)
(0.00830362 0.009708 0)
(0.0119998 0.00288881 0)
(0.0129196 -0.00800318 0)
(0.0104634 -0.0273714 0)
(0.00328488 -0.0493474 0)
(-0.0045241 -0.061788 0)
(-0.0188792 -0.0706033 0)
(-0.0448271 -0.0845377 0)
(-0.069212 -0.0947265 0)
(-0.0823652 -0.0828222 0)
(-0.0822283 -0.04369 0)
(-0.0663787 -0.0157051 0)
(-0.0321831 0.00275176 0)
(-0.0234072 0.0305524 0)
(0.0268807 0.0155577 0)
(0.0343195 -0.0176256 0)
(0.0658555 -0.0351197 0)
(0.0819079 -0.0560544 0)
(0.0821887 -0.0883757 0)
(0.0682772 -0.0921901 0)
(0.0416141 -0.0774414 0)
(0.013823 -0.0625966 0)
(-0.000369014 -0.0565138 0)
(-0.00624703 -0.0460626 0)
(-0.0104461 -0.0301887 0)
(-0.0122982 -0.0140147 0)
(-0.00996682 -0.00817379 0)
(-0.00666187 -0.00609571 0)
(-0.00267982 -0.00434353 0)
(0.00157136 -0.00457998 0)
(0.00557312 -0.00668012 0)
(0.00885977 -0.00906585 0)
(0.0111929 -0.0153874 0)
(0.00913758 -0.0318892 0)
(0.00537312 -0.0463604 0)
(-0.000347595 -0.0565423 0)
(-0.01453 -0.0620818 0)
(-0.0425972 -0.0772691 0)
(-0.0692884 -0.0926865 0)
(-0.082667 -0.0882701 0)
(-0.0821244 -0.0558795 0)
(-0.0658252 -0.0359503 0)
(-0.0345373 -0.0185384 0)
(-0.0272379 0.0158067 0)
(0.0304151 0.00044367 0)
(0.0377487 -0.036566 0)
(0.063114 -0.0534031 0)
(0.076053 -0.0663664 0)
(0.0760365 -0.0826522 0)
(0.0653049 -0.0878476 0)
(0.0402534 -0.0702614 0)
(0.011437 -0.0534226 0)
(-0.00264273 -0.0482964 0)
(-0.00622715 -0.0396493 0)
(-0.00677875 -0.0291413 0)
(-0.0068235 -0.0198258 0)
(-0.00587016 -0.0154778 0)
(-0.00410453 -0.0133814 0)
(-0.00186128 -0.0125629 0)
(0.000554562 -0.0126916 0)
(0.00279323 -0.0137239 0)
(0.00455495 -0.0160398 0)
(0.00554828 -0.0205602 0)
(0.00562926 -0.0300556 0)
(0.00522674 -0.0401199 0)
(0.00158338 -0.0477576 0)
(-0.012631 -0.0531773 0)
(-0.0414942 -0.0720657 0)
(-0.066093 -0.0874642 0)
(-0.0762276 -0.0824022 0)
(-0.0759442 -0.0667534 0)
(-0.0627911 -0.0542913 0)
(-0.0379568 -0.0374315 0)
(-0.0306174 0.000499947 0)
(0.0332248 -0.00962345 0)
(0.0412584 -0.0446412 0)
(0.0603864 -0.0577682 0)
(0.0704754 -0.0625559 0)
(0.0713949 -0.0633678 0)
(0.0628434 -0.0599665 0)
(0.0391678 -0.0530975 0)
(0.0116513 -0.0429026 0)
(-0.00281307 -0.0330532 0)
(-0.00609319 -0.0219284 0)
(-0.00708516 -0.00899374 0)
(-0.00635987 -0.000646641 0)
(-0.00494193 0.0030494 0)
(-0.00320621 0.0042015 0)
(-0.00146628 0.00433165 0)
(0.000203738 0.00425659 0)
(0.00193597 0.00398055 0)
(0.00365616 0.00267739 0)
(0.00508045 -0.00123477 0)
(0.00580621 -0.00984693 0)
(0.00483442 -0.0228782 0)
(0.00127363 -0.0337952 0)
(-0.0137234 -0.0435581 0)
(-0.0407265 -0.0529228 0)
(-0.0634075 -0.0593349 0)
(-0.0714197 -0.0634248 0)
(-0.0703043 -0.0627643 0)
(-0.0601127 -0.0580599 0)
(-0.0412028 -0.0449233 0)
(-0.0333777 -0.00958865 0)
(0.0353526 -0.0152647 0)
(0.0437181 -0.0394058 0)
(0.0593391 -0.0449008 0)
(0.0671245 -0.0426283 0)
(0.0668683 -0.0381438 0)
(0.0582636 -0.0316772 0)
(0.0375242 -0.0242091 0)
(0.0145225 -0.0182478 0)
(-0.000325863 -0.0112353 0)
(-0.00421124 -0.000907815 0)
(-0.0052057 0.0113931 0)
(-0.00458949 0.020113 0)
(-0.00326166 0.0242462 0)
(-0.00192388 0.0256587 0)
(-0.000925365 0.025891 0)
(-0.000132248 0.0258148 0)
(0.000829306 0.0254239 0)
(0.00208999 0.0238515 0)
(0.00333768 0.0195264 0)
(0.00386707 0.0105386 0)
(0.00279523 -0.00191543 0)
(-0.0016191 -0.0120853 0)
(-0.0168775 -0.0191287 0)
(-0.0391124 -0.0244259 0)
(-0.0588846 -0.0315068 0)
(-0.0670652 -0.0380696 0)
(-0.0670088 -0.042821 0)
(-0.0591491 -0.0447584 0)
(-0.0435392 -0.0392237 0)
(-0.0354562 -0.0150165 0)
(0.0347249 -0.0183023 0)
(0.0438433 -0.0289318 0)
(0.0571915 -0.0271773 0)
(0.0627966 -0.0208509 0)
(0.0617212 -0.0133493 0)
(0.052599 -0.00234829 0)
(0.0358598 0.00278317 0)
(0.0193912 0.00378071 0)
(0.00572619 0.00939922 0)
(0.000720884 0.0186481 0)
(-0.000727229 0.0312214 0)
(-0.000751311 0.0407176 0)
(-0.000114983 0.0454731 0)
(0.000190372 0.0473198 0)
(-0.000100064 0.047804 0)
(-0.0007157 0.0477385 0)
(-0.00106993 0.0471368 0)
(-0.000888286 0.0451457 0)
(-0.000400178 0.0401763 0)
(-0.000620401 0.0303952 0)
(-0.00227486 0.0176867 0)
(-0.00807609 0.00826021 0)
(-0.0221441 0.00262767 0)
(-0.0378248 0.00208793 0)
(-0.0527301 -0.00210051 0)
(-0.0615968 -0.0134186 0)
(-0.0626118 -0.020978 0)
(-0.0570326 -0.0270892 0)
(-0.0436977 -0.0285084 0)
(-0.0346185 -0.0177831 0)
(0.0298243 -0.0190994 0)
(0.0427134 -0.0177294 0)
(0.0536224 -0.00906393 0)
(0.0576134 0.001223 0)
(0.0525913 0.0156738 0)
(0.0459757 0.0285275 0)
(0.0405423 0.0244111 0)
(0.0295912 0.0217549 0)
(0.0154555 0.0273008 0)
(0.00798455 0.0373722 0)
(0.00549412 0.0504778 0)
(0.00429963 0.0608697 0)
(0.00371736 0.0663876 0)
(0.0026571 0.0688476 0)
(0.000829145 0.069702 0)
(-0.00138406 0.0696497 0)
(-0.00329203 0.0687081 0)
(-0.00451097 0.0661208 0)
(-0.00530725 0.0604325 0)
(-0.00680784 0.0497881 0)
(-0.00966825 0.0365673 0)
(-0.0180615 0.0263642 0)
(-0.0324793 0.0204149 0)
(-0.0429765 0.0226239 0)
(-0.0467051 0.0275378 0)
(-0.051911 0.0156634 0)
(-0.0571623 0.00102225 0)
(-0.0535183 -0.00884408 0)
(-0.0425827 -0.0172119 0)
(-0.0295503 -0.0185141 0)
(0.0271395 -0.0206616 0)
(0.0369211 -0.00647152 0)
(0.0498901 0.00998709 0)
(0.0480341 0.0275056 0)
(0.0420101 0.0429211 0)
(0.0482599 0.0459312 0)
(0.0518473 0.037331 0)
(0.0427849 0.0371904 0)
(0.0275619 0.0449705 0)
(0.0168098 0.0568194 0)
(0.0124994 0.0703554 0)
(0.00978096 0.0817757 0)
(0.00781472 0.0880647 0)
(0.00522937 0.0910922 0)
(0.00178183 0.0922603 0)
(-0.00208902 0.0922431 0)
(-0.00562209 0.0910159 0)
(-0.0083715 0.087903 0)
(-0.010562 0.0814811 0)
(-0.0135967 0.069855 0)
(-0.0184266 0.0564327 0)
(-0.0300613 0.0440542 0)
(-0.045354 0.0361001 0)
(-0.0541698 0.0356439 0)
(-0.0504358 0.0432234 0)
(-0.0423852 0.0419326 0)
(-0.0471886 0.0273024 0)
(-0.0499793 0.0106021 0)
(-0.0367944 -0.00589009 0)
(-0.026614 -0.0199081 0)
(0.0200976 -0.0185048 0)
(0.0318769 0.00760806 0)
(0.0393258 0.0324209 0)
(0.0342705 0.0532637 0)
(0.0418848 0.0593717 0)
(0.0592683 0.0509639 0)
(0.0641324 0.0475048 0)
(0.055958 0.0518425 0)
(0.0398793 0.0624217 0)
(0.0258025 0.0767069 0)
(0.0191184 0.0905631 0)
(0.0149375 0.102815 0)
(0.0115682 0.109758 0)
(0.00756536 0.113357 0)
(0.00263506 0.114889 0)
(-0.0027371 0.114863 0)
(-0.0077466 0.113317 0)
(-0.0118977 0.109655 0)
(-0.01547 0.102605 0)
(-0.0199152 0.0901917 0)
(-0.0271766 0.0762359 0)
(-0.0419553 0.0618164 0)
(-0.0579803 0.0508769 0)
(-0.0659302 0.0459593 0)
(-0.0616637 0.0480767 0)
(-0.0438874 0.057381 0)
(-0.0341534 0.052507 0)
(-0.0377337 0.0325418 0)
(-0.0329001 0.00855575 0)
(-0.0192366 -0.0175521 0)
(0.0101193 -0.00931681 0)
(0.0291032 0.022243 0)
(0.0227311 0.0572102 0)
(0.0295869 0.0691814 0)
(0.0543609 0.0618556 0)
(0.0716727 0.0536736 0)
(0.0735011 0.0580076 0)
(0.0657068 0.0668649 0)
(0.0494756 0.0805381 0)
(0.0331665 0.0967355 0)
(0.0246836 0.111131 0)
(0.0195003 0.124196 0)
(0.0149449 0.131845 0)
(0.00965417 0.136028 0)
(0.00340967 0.137885 0)
(-0.0032737 0.137893 0)
(-0.00958421 0.136028 0)
(-0.0149977 0.131812 0)
(-0.0197376 0.12409 0)
(-0.0251541 0.110948 0)
(-0.0341639 0.0965124 0)
(-0.0509863 0.0800454 0)
(-0.0671809 0.066286 0)
(-0.0747812 0.0569975 0)
(-0.073135 0.0519094 0)
(-0.0570712 0.0584651 0)
(-0.0313146 0.0675181 0)
(-0.0225965 0.0570347 0)
(-0.0285958 0.0234389 0)
(-0.0100195 -0.00792082 0)
(0.00346811 0.00637079 0)
(0.0151992 0.0507339 0)
(0.0149952 0.0738397 0)
(0.0426571 0.069425 0)
(0.0700809 0.0564292 0)
(0.0793731 0.0608539 0)
(0.0800686 0.0702772 0)
(0.072472 0.0826737 0)
(0.0560745 0.0985965 0)
(0.0382915 0.116557 0)
(0.0284661 0.13184 0)
(0.0226419 0.14548 0)
(0.0171641 0.153773 0)
(0.0109845 0.158509 0)
(0.0038939 0.160696 0)
(-0.00359771 0.1607 0)
(-0.0107453 0.15855 0)
(-0.0170261 0.153798 0)
(-0.0226566 0.145451 0)
(-0.0287379 0.131899 0)
(-0.0390871 0.116316 0)
(-0.0572488 0.0983278 0)
(-0.0734534 0.0822165 0)
(-0.0809327 0.0695096 0)
(-0.0802445 0.059642 0)
(-0.0713761 0.0543525 0)
(-0.0454724 0.0660704 0)
(-0.0163268 0.0720911 0)
(-0.015896 0.0519438 0)
(-0.00328385 0.00738118 0)
(-0.00914 0.0257106 0)
(0.0113313 0.0733766 0)
(0.0294062 0.0711722 0)
(0.0617044 0.0580348 0)
(0.0762218 0.0611465 0)
(0.0834797 0.0709888 0)
(0.0835952 0.0838354 0)
(0.0758608 0.0990702 0)
(0.0597157 0.117005 0)
(0.0412491 0.136308 0)
(0.0302867 0.153183 0)
(0.0238458 0.16674 0)
(0.0178111 0.175618 0)
(0.0112257 0.180763 0)
(0.0039067 0.18314 0)
(-0.00370172 0.18316 0)
(-0.0110431 0.180796 0)
(-0.0176685 0.175645 0)
(-0.0237761 0.166698 0)
(-0.0304508 0.153106 0)
(-0.0418117 0.136218 0)
(-0.0604715 0.116802 0)
(-0.0764553 0.0987956 0)
(-0.0840856 0.0833055 0)
(-0.0840135 0.0700893 0)
(-0.0769284 0.0598699 0)
(-0.0631973 0.0558783 0)
(-0.0321862 0.0682229 0)
(-0.0122139 0.0732444 0)
(0.0103099 0.0277541 0)
(-0.0111661 0.0555261 0)
(0.0187062 0.0750519 0)
(0.0479426 0.0602469 0)
(0.066989 0.060283 0)
(0.0784718 0.0689724 0)
(0.0848774 0.0823486 0)
(0.084434 0.0982968 0)
(0.0767417 0.115923 0)
(0.0613012 0.135464 0)
(0.0428094 0.156031 0)
(0.0307907 0.173661 0)
(0.0234875 0.187774 0)
(0.0170772 0.197104 0)
(0.0105328 0.202286 0)
(0.00363359 0.204569 0)
(-0.00342478 0.204562 0)
(-0.0102853 0.202261 0)
(-0.0167736 0.197064 0)
(-0.0231742 0.187691 0)
(-0.0306318 0.173619 0)
(-0.0429247 0.15589 0)
(-0.0614901 0.135355 0)
(-0.0767955 0.115722 0)
(-0.084451 0.0979186 0)
(-0.0849199 0.0816757 0)
(-0.0786375 0.0680222 0)
(-0.0674225 0.0589342 0)
(-0.049182 0.0579212 0)
(-0.019929 0.071973 0)
(0.00963407 0.0578145 0)
(0.00742667 0.0747472 0)
(0.0283454 0.0629262 0)
(0.0521016 0.0600854 0)
(0.0676049 0.0665487 0)
(0.077984 0.0788605 0)
(0.0836273 0.0949484 0)
(0.0827175 0.113459 0)
(0.0752443 0.133024 0)
(0.0607946 0.154118 0)
(0.0425621 0.175716 0)
(0.0296222 0.194456 0)
(0.0214603 0.208534 0)
(0.0150768 0.217508 0)
(0.00922723 0.222103 0)
(0.00326523 0.224064 0)
(-0.00283354 0.224044 0)
(-0.00876509 0.222039 0)
(-0.0145325 0.217425 0)
(-0.0208583 0.208446 0)
(-0.0291923 0.194393 0)
(-0.0424344 0.175618 0)
(-0.0606862 0.154038 0)
(-0.0750349 0.132924 0)
(-0.0824808 0.113213 0)
(-0.0834363 0.0944934 0)
(-0.0779317 0.0782823 0)
(-0.0677339 0.0657715 0)
(-0.0524956 0.058963 0)
(-0.0291604 0.0613565 0)
(-0.00988019 0.0746146 0)
(0.019963 0.0696943 0)
(0.0307427 0.0634301 0)
(0.0518078 0.0644205 0)
(0.0663214 0.0742117 0)
(0.0758379 0.0891713 0)
(0.0804699 0.107671 0)
(0.0788956 0.128556 0)
(0.0715189 0.150145 0)
(0.0577287 0.172954 0)
(0.0396802 0.195893 0)
(0.0256871 0.215385 0)
(0.0175836 0.228174 0)
(0.0124376 0.235885 0)
(0.00772417 0.239759 0)
(0.00280873 0.241459 0)
(-0.00224798 0.241417 0)
(-0.00715551 0.239653 0)
(-0.011843 0.235736 0)
(-0.0169685 0.228127 0)
(-0.0252216 0.215397 0)
(-0.0395375 0.195867 0)
(-0.0576536 0.172907 0)
(-0.071322 0.150048 0)
(-0.0786469 0.128334 0)
(-0.0801793 0.107264 0)
(-0.0756136 0.0886818 0)
(-0.0662119 0.0736555 0)
(-0.0518898 0.0638142 0)
(-0.0313039 0.0627575 0)
(-0.0213432 0.0686029 0)
(0.0238491 0.0671963 0)
(0.030841 0.0653453 0)
(0.0502332 0.0691043 0)
(0.0637551 0.0819112 0)
(0.0720855 0.099717 0)
(0.0753658 0.120708 0)
(0.0730465 0.143818 0)
(0.0653381 0.167804 0)
(0.0515116 0.19306 0)
(0.0330729 0.217609 0)
(0.0190408 0.235967 0)
(0.0131829 0.246029 0)
(0.00960888 0.251839 0)
(0.00607384 0.255222 0)
(0.00225496 0.256795 0)
(-0.0017123 0.256749 0)
(-0.00555629 0.255108 0)
(-0.00914169 0.251635 0)
(-0.0128203 0.245797 0)
(-0.0188311 0.235858 0)
(-0.0328016 0.217767 0)
(-0.0513593 0.193153 0)
(-0.0651418 0.167754 0)
(-0.0728293 0.143585 0)
(-0.0750981 0.120296 0)
(-0.0718415 0.0992285 0)
(-0.0635651 0.0813523 0)
(-0.050084 0.0685893 0)
(-0.0311095 0.0649394 0)
(-0.0244447 0.0662324 0)
(0.0244933 0.0643696 0)
(0.0303641 0.0671311 0)
(0.048321 0.0738 0)
(0.0604742 0.0895666 0)
(0.0672474 0.110183 0)
(0.0691007 0.133528 0)
(0.0656889 0.15949 0)
(0.0565623 0.187642 0)
(0.0413944 0.216817 0)
(0.023484 0.241421 0)
(0.0131601 0.253194 0)
(0.00935731 0.260524 0)
(0.00687769 0.265412 0)
(0.00444772 0.268635 0)
(0.00168887 0.270208 0)
(-0.0012212 0.270171 0)
(-0.00402894 0.268534 0)
(-0.00655566 0.2652 0)
(-0.00920683 0.26019 0)
(-0.0132413 0.252797 0)
(-0.0233775 0.241406 0)
(-0.0411098 0.217186 0)
(-0.0561647 0.187824 0)
(-0.0653557 0.159341 0)
(-0.068774 0.133082 0)
(-0.0669622 0.109645 0)
(-0.0602457 0.0889641 0)
(-0.0481524 0.0732089 0)
(-0.0303361 0.0666413 0)
(-0.0244987 0.0636048 0)
(0.023823 0.0614129 0)
(0.029688 0.0681022 0)
(0.0461474 0.078254 0)
(0.0564911 0.0972021 0)
(0.0617101 0.120255 0)
(0.062074 0.146954 0)
(0.056688 0.178891 0)
(0.0451948 0.21305 0)
(0.0295972 0.242442 0)
(0.0152848 0.262206 0)
(0.00912938 0.266558 0)
(0.00642813 0.272367 0)
(0.00469151 0.276969 0)
(0.00312358 0.280186 0)
(0.00125007 0.281844 0)
(-0.000767567 0.281822 0)
(-0.00270226 0.280108 0)
(-0.00437822 0.276766 0)
(-0.00628441 0.271985 0)
(-0.00920767 0.266021 0)
(-0.0152988 0.261593 0)
(-0.0291043 0.242681 0)
(-0.0445854 0.213487 0)
(-0.0560926 0.178957 0)
(-0.0615563 0.146654 0)
(-0.0613151 0.119653 0)
(-0.0561918 0.0965515 0)
(-0.0459776 0.0776084 0)
(-0.0295902 0.0676168 0)
(-0.0237047 0.0608972 0)
(0.0227367 0.0579966 0)
(0.0288601 0.0686158 0)
(0.0435303 0.0826036 0)
(0.0518317 0.104538 0)
(0.0557589 0.130664 0)
(0.0539384 0.164625 0)
(0.0447367 0.204051 0)
(0.0319265 0.23984 0)
(0.018942 0.264032 0)
(0.00923522 0.275693 0)
(0.006095 0.276691 0)
(0.00435896 0.28184 0)
(0.00330976 0.28655 0)
(0.00235588 0.290037 0)
(0.00107478 0.291888 0)
(-0.000342238 0.291902 0)
(-0.00170051 0.29005 0)
(-0.00284836 0.286475 0)
(-0.00413529 0.28155 0)
(-0.0060239 0.276117 0)
(-0.00910271 0.274789 0)
(-0.0184795 0.263787 0)
(-0.0310958 0.24002 0)
(-0.0439776 0.20443 0)
(-0.0531662 0.164598 0)
(-0.0552149 0.130265 0)
(-0.0514013 0.103883 0)
(-0.0432384 0.082052 0)
(-0.0287407 0.0682078 0)
(-0.0226418 0.0575359 0)
(0.0215337 0.0538912 0)
(0.0276156 0.0686872 0)
(0.0400274 0.0869088 0)
(0.0470224 0.111921 0)
(0.0483967 0.145756 0)
(0.0417982 0.188304 0)
(0.0303115 0.230188 0)
(0.0196245 0.260479 0)
(0.0106171 0.277501 0)
(0.00583512 0.283786 0)
(0.00438627 0.284166 0)
(0.0031637 0.28932 0)
(0.00238607 0.294408 0)
(0.00176337 0.298211 0)
(0.000964467 0.300236 0)
(2.94653e-07 0.300266 0)
(-0.000954297 0.298233 0)
(-0.00169017 0.2943 0)
(-0.00255445 0.289027 0)
(-0.00395414 0.283586 0)
(-0.00545244 0.28284 0)
(-0.0100497 0.276903 0)
(-0.0188353 0.260267 0)
(-0.029362 0.230354 0)
(-0.0409237 0.188603 0)
(-0.0477573 0.145579 0)
(-0.0465539 0.111365 0)
(-0.0396046 0.0863228 0)
(-0.0273348 0.0683721 0)
(-0.0212688 0.0535834 0)
(0.0199142 0.0493789 0)
(0.0254543 0.0685794 0)
(0.0357553 0.0909713 0)
(0.0407649 0.124197 0)
(0.0364726 0.166724 0)
(0.0266227 0.214084 0)
(0.0168283 0.250632 0)
(0.00943123 0.273632 0)
(0.00587367 0.284292 0)
(0.00440078 0.288106 0)
(0.00347835 0.289528 0)
(0.00292037 0.295223 0)
(0.00242089 0.300847 0)
(0.00186289 0.305199 0)
(0.00109384 0.307526 0)
(0.000379957 0.307551 0)
(-0.00036917 0.305264 0)
(-0.00106357 0.300878 0)
(-0.00186948 0.295081 0)
(-0.00278032 0.289115 0)
(-0.00390694 0.287312 0)
(-0.00554446 0.283376 0)
(-0.00882988 0.273007 0)
(-0.016181 0.250244 0)
(-0.0257555 0.214163 0)
(-0.0357418 0.166983 0)
(-0.0403243 0.123779 0)
(-0.035467 0.0904354 0)
(-0.0251066 0.0682232 0)
(-0.0195452 0.0493967 0)
(0.0172017 0.0451112 0)
(0.0226636 0.0684216 0)
(0.029423 0.100514 0)
(0.0293691 0.142052 0)
(0.0210052 0.191937 0)
(0.011884 0.234798 0)
(0.0053714 0.263425 0)
(0.00286372 0.279782 0)
(0.00352881 0.285738 0)
(0.00384809 0.2903 0)
(0.0035092 0.29326 0)
(0.00353869 0.299618 0)
(0.00331809 0.305821 0)
(0.00287166 0.31072 0)
(0.00197934 0.313459 0)
(0.000861667 0.313621 0)
(-0.000288133 0.311121 0)
(-0.00114618 0.306259 0)
(-0.00183462 0.299891 0)
(-0.00228481 0.293219 0)
(-0.00308262 0.289969 0)
(-0.00322487 0.285072 0)
(-0.00284124 0.278915 0)
(-0.00517015 0.262689 0)
(-0.0116826 0.234306 0)
(-0.0204128 0.19191 0)
(-0.0288046 0.14195 0)
(-0.0292677 0.100139 0)
(-0.0226284 0.0681199 0)
(-0.0169072 0.0453269 0)
(0.0113939 0.0418989 0)
(0.0208505 0.0702573 0)
(0.0192748 0.113596 0)
(0.0149759 0.164783 0)
(0.00572813 0.212109 0)
(-0.000321145 0.24718 0)
(-0.00252108 0.268873 0)
(-0.000597102 0.280004 0)
(0.00274685 0.285066 0)
(0.00467646 0.290836 0)
(0.00508134 0.295651 0)
(0.0050419 0.302848 0)
(0.0043815 0.309714 0)
(0.00347864 0.314955 0)
(0.00236318 0.317846 0)
(0.00115219 0.318036 0)
(-0.000109269 0.315489 0)
(-0.0012957 0.310434 0)
(-0.00237151 0.303596 0)
(-0.00292303 0.296237 0)
(-0.00311356 0.291305 0)
(-0.00187629 0.285187 0)
(0.000748604 0.279465 0)
(0.00242001 0.267992 0)
(0.000103673 0.246363 0)
(-0.00590008 0.211558 0)
(-0.0147641 0.164476 0)
(-0.0190157 0.11336 0)
(-0.0208795 0.070256 0)
(-0.0112168 0.042132 0)
(0.00353842 0.0406426 0)
(0.0149301 0.0775713 0)
(0.00677824 0.129928 0)
(-0.0013459 0.185251 0)
(-0.00950617 0.227766 0)
(-0.00926442 0.253674 0)
(-0.00494733 0.266941 0)
(0.00168703 0.274675 0)
(0.00571864 0.281459 0)
(0.00808031 0.289374 0)
(0.0082776 0.29692 0)
(0.00730374 0.305451 0)
(0.005822 0.313071 0)
(0.00428761 0.318652 0)
(0.00271494 0.321704 0)
(0.00114539 0.321918 0)
(-0.000488848 0.319278 0)
(-0.00217404 0.313971 0)
(-0.00390302 0.306525 0)
(-0.00523797 0.298029 0)
(-0.00551048 0.2906 0)
(-0.00370342 0.282502 0)
(-0.000393819 0.274983 0)
(0.00535261 0.266342 0)
(0.00912481 0.252727 0)
(0.0085891 0.226525 0)
(-0.000666234 0.183835 0)
(-0.00729724 0.129399 0)