/*--------------------------------*- C++ -*----------------------------------*\
| =========                 |                                                 |
| \\      /  F ield         | OpenFOAM: The Open Source CFD Toolbox           |
|  \\    /   O peration     | Version:  v1606+                                |
|   \\  /    A nd           | Web:      www.OpenFOAM.com                      |
|    \\/     M anipulation  |                                                 |
\*---------------------------------------------------------------------------*/
FoamFile
{
    version     2.0;
    format      ascii;
    class       volVectorField;
    location    "1.8";
    object      ddt0(U);
}
// * * * * * * * * * * * * * * * * * * * * * * * * * * * * * * * * * * * * * //

dimensions      [0 1 -2 0 0 0 0];

internalField   nonuniform List<vector> 
11640
(
(0.014025109977 0.015133064738 -0.0195590320494)
(0.0399792396763 0.0168908547612 -0.0196208089709)
(0.0638847119954 0.0171393428027 -0.0188590347023)
(0.0877695912349 0.0179483210816 -0.0177240862106)
(0.109645616165 0.0168155079797 -0.0176773952643)
(0.126457087898 0.0151509481894 -0.0176633371221)
(0.137674918271 0.0144851624517 -0.0150523128314)
(0.144948629081 0.0145984545511 -0.0117804597642)
(0.148751082348 0.0129557801367 -0.00941173716649)
(0.148573775294 0.0117992075267 -0.00737844760981)
(0.144982784761 0.0105336450614 -0.00552599653076)
(0.138452365616 0.00914162959544 -0.00379407044727)
(0.129369439659 0.00776142366009 -0.0021627459931)
(0.118020971615 0.00651221446485 -0.000646739597438)
(0.104533551753 0.00545054878885 0.000731798645051)
(0.088936059959 0.00462511486667 0.0018959731258)
(0.0713742680629 0.00409090245944 0.00288917209439)
(0.0522452246095 0.00385594280143 0.00351532796027)
(0.032119511728 0.00399364539155 0.00375074958496)
(0.0111774723154 0.00444036530093 0.00363196571506)
(0.0157836320451 0.0450945537681 -0.0188331503068)
(0.0418553707136 0.0461791380187 -0.01989925611)
(0.0646989615884 0.046177574054 -0.0190834021541)
(0.0871700331423 0.0464525536888 -0.0185041472726)
(0.106689162677 0.0453192604864 -0.0166342896389)
(0.123964843261 0.0432689657792 -0.0156215202021)
(0.136839090995 0.0422029995576 -0.0150254501476)
(0.143046908631 0.0421479674697 -0.0142353047505)
(0.145602189505 0.0395784823429 -0.0099715594507)
(0.145809431265 0.0361149918183 -0.00798925663419)
(0.141969437272 0.0324992802931 -0.00647586569641)
(0.135331895931 0.0286781748086 -0.0050478211054)
(0.126446263982 0.0247907069137 -0.00377041115166)
(0.115481736414 0.0213625651762 -0.00260380044393)
(0.10245140224 0.0184612155961 -0.00151024117947)
(0.0873760819164 0.0161714818093 -0.000540447749148)
(0.070404887403 0.0146348697462 0.000319067762469)
(0.051986991034 0.0137941018001 0.0010787718287)
(0.0326625676478 0.0136145340415 0.00184868749914)
(0.0116580158546 0.0140430668666 0.00352270230382)
(0.0152447658519 0.073222844564 -0.0184816701205)
(0.0410798591631 0.0710323360391 -0.0184257228997)
(0.0640584102169 0.0707621254553 -0.0176112993327)
(0.0868844952682 0.0701361674249 -0.0167493399012)
(0.106494012725 0.0704609694326 -0.01577956073)
(0.123231299176 0.0702892754917 -0.0146786838703)
(0.136132589752 0.0694277864571 -0.014480169825)
(0.141752671009 0.069703877383 -0.0136774328534)
(0.142184565404 0.0671173414474 -0.0115803174074)
(0.140967699397 0.0612803143028 -0.00771100243845)
(0.137082001801 0.0553519972364 -0.00599509918314)
(0.130346507585 0.0491168496483 -0.00465069402444)
(0.121754454121 0.0429734660758 -0.00357397797729)
(0.111454715728 0.0377140733572 -0.00259788911186)
(0.0991701353326 0.0333890604588 -0.00161485818105)
(0.084927055835 0.0300369198342 -0.000676414523429)
(0.0687947889967 0.027567224263 -5.59706843802e-06)
(0.0510747658271 0.0259248567679 0.000625237782196)
(0.0325933526694 0.0249846770765 0.0015272519475)
(0.0118675847256 0.0245980710054 0.00343019412937)
(0.0138628386784 0.0982710048855 -0.018218642384)
(0.0397423565691 0.0954863839929 -0.0157037755609)
(0.064081409734 0.0933445685766 -0.016000364408)
(0.0869047584233 0.0943645897264 -0.0155740479251)
(0.106390891594 0.0960389875979 -0.0155859118571)
(0.122320974385 0.09514582234 -0.015625963521)
(0.135592563892 0.0949018762063 -0.0154325576435)
(0.139932402902 0.0990534191094 -0.0132956772632)
(0.136864599357 0.0937991375408 -0.0104466804282)
(0.134226708671 0.0856978522721 -0.0068501941666)
(0.129977406297 0.0764695577974 -0.0050118227328)
(0.123200040097 0.0673486807089 -0.0035071850858)
(0.115324390701 0.0587534386845 -0.00253559773753)
(0.106116338911 0.0519367861894 -0.00184557232965)
(0.0949410615242 0.0467502353227 -0.00094727539045)
(0.0817019745622 0.0429039884364 -9.07613992289e-05)
(0.0664340638419 0.0399300754879 0.00059265172079)
(0.0495042932499 0.0377364504788 0.00109566578353)
(0.0317639614955 0.0361215832805 0.00176268767126)
(0.0116280096014 0.0349863806179 0.00334884168954)
(0.0128543415586 0.119588975211 -0.0164451947545)
(0.0366316581939 0.117149394786 -0.0145218965815)
(0.0625388294042 0.115100156665 -0.013081324269)
(0.0875936961439 0.115702876234 -0.0134965857447)
(0.103597184952 0.11845598103 -0.0152171948614)
(0.119350051952 0.118011503199 -0.012789278789)
(0.138135112125 0.114767424778 -0.0147628689811)
(0.139345456754 0.124050964626 -0.0103027240453)
(0.129215064928 0.115030609923 -0.00743385496507)
(0.124606221483 0.101631658316 -0.0044333515752)
(0.119900899654 0.0887403616909 -0.00232269489173)
(0.113814595453 0.0764558405887 -0.00109883476686)
(0.10732583242 0.0667023863443 -0.000813346786773)
(0.100013056359 0.0615289065475 -0.000551372268767)
(0.0904749816579 0.0572273476598 0.000267686068486)
(0.0782998518904 0.0538015020942 0.000846492353532)
(0.0638372210957 0.0507826457152 0.00137230316474)
(0.0475825506053 0.0485528200857 0.00183916980552)
(0.030595525258 0.0465150602726 0.00223603808365)
(0.0111921129966 0.0450617846705 0.00323551779917)
(0.011715960144 0.135857962521 -0.014567374016)
(0.035296056114 0.13359342503 -0.0130105197781)
(0.0600784729887 0.133590412297 -0.0117698830932)
(0.0830531770457 0.134113376969 -0.0115400498488)
(0.100122682349 0.137894306061 -0.0123810174105)
(0.113373559609 0.143821872515 -0.0128268284085)
(0.138226390574 0.142844429126 -0.0119369093051)
(0.138029815713 0.147824517013 -0.0100388917715)
(0.116470123507 0.136278789403 -0.00771901302064)
(0.11099614994 0.122499941475 -0.00163025478235)
(0.107677802025 0.108228716306 -0.00035183678281)
(0.103378908796 0.0919335511159 0.00137512380245)
(0.101581998296 0.0769034982011 0.000961339419812)
(0.0971992807747 0.0700535493676 0.000919123227111)
(0.0875996996517 0.0656841163336 0.0015736957955)
(0.0754347510341 0.0625830132018 0.00159715961554)
(0.0613492653009 0.0598736149663 0.00216588469534)
(0.0456007836432 0.0583182008402 0.00264279189248)
(0.0293257786726 0.0562388711139 0.00288263177726)
(0.01088379701 0.0543188820174 0.00319029667474)
(0.010763485501 0.146568526 -0.0123092553166)
(0.0331020125167 0.144980331467 -0.0110165180433)
(0.0565951539383 0.144382768884 -0.00926699700784)
(0.0787018540297 0.146730751377 -0.00743355707872)
(0.0971284403874 0.151711361569 -0.00678553701236)
(0.114908544134 0.153519506922 -0.00541391815306)
(0.138911621712 0.152936142509 -0.00197553846724)
(0.132608495589 0.143491982498 0.0110981169018)
(0.109037431986 0.125354278194 0.00825288243828)
(0.102794336501 0.102936042344 0.0134905421319)
(0.0950965819955 0.0790366125598 0.0131012826918)
(0.0874741236086 0.050256760041 0.0164935541498)
(0.0891185484071 0.0360833119704 0.018983834585)
(0.0902586958926 0.0640651171015 0.0071123353216)
(0.0837930529695 0.0671401204729 0.00431215451063)
(0.0730660828018 0.0671189054319 0.00242918414407)
(0.0600058280418 0.0671475502231 0.00298505590889)
(0.0444502590317 0.0668512530366 0.0030440750902)
(0.0277759461997 0.0659064727211 0.00311791419947)
(0.0101811149406 0.0633044224908 0.00394192568431)
(0.0102681118005 0.153534703451 -0.00896716166698)
(0.0309868888183 0.15188967177 -0.00910149940252)
(0.0523183154335 0.151493872463 -0.0073462515403)
(0.0726584329453 0.154960654739 -0.00550686600866)
(0.0900819269674 0.160742351973 -0.00495305597206)
(0.108361532117 0.162052169428 -0.0109464486805)
(0.130581000401 0.152448410918 -0.015614057968)
(0.116702886739 0.142934157829 0.00339727046617)
(0.0862029180578 0.12344457509 -0.00270693909225)
(0.0744336286954 0.105293297856 -0.0168864430911)
(0.0637408253205 0.0721282394818 -0.00331213609403)
(0.0697834491314 0.0489272874352 0.00546858585321)
(0.114896373464 0.0393005745349 0.0137275053267)
(0.124053100711 0.063287639132 0.00889357159191)
(0.0903118774011 0.072091165257 0.00202646625168)
(0.0754988342688 0.0740398893155 0.00236817764905)
(0.061493749455 0.0753506705595 0.00381113944467)
(0.0449182803853 0.0750376918311 0.00363442240138)
(0.0270946287171 0.0746687106418 0.00358888482385)
(0.00920024763429 0.072259506945 0.00318384162894)
(0.00921160603049 0.15688977067 -0.00677052256039)
(0.028271857592 0.154767161559 -0.00695430752312)
(0.0479750001465 0.154276916383 -0.00547768404499)
(0.0665756895051 0.158310512567 -0.00375234195711)
(0.0826197894496 0.165615129072 -0.00308943486779)
(0.0973439418356 0.168619423165 -0.00741710822397)
(0.123984723038 0.157586097556 -0.0061252617962)
(0.112226511128 0.142571871297 0.00974453603531)
(0.0772147873082 0.122060493587 0.00735519148546)
(0.0613354571905 0.106851809719 0.00521413822318)
(0.052723623185 0.0954111411609 0.00487905684353)
(0.0619212249622 0.0938343554816 0.0129000139547)
(0.105580027808 0.0829296734152 0.0223304690137)
(0.121409477225 0.079089830876 0.0104101159432)
(0.0935759134118 0.0826538377369 0.00313082743492)
(0.0770951509084 0.0844228379869 0.00304600764256)
(0.0616047027937 0.0843987217319 0.00410896437089)
(0.0443478210215 0.0833491997187 0.00442619909726)
(0.0263423991714 0.0824395840343 0.00401437207915)
(0.00856217087519 0.0807639592687 0.00308664768698)
(0.00812437367784 0.156042851564 -0.00482943333323)
(0.0251633145935 0.154025149727 -0.0052682630535)
(0.0430139209253 0.153435358751 -0.00419618823418)
(0.0608250397552 0.157357792981 -0.00173800934519)
(0.0781028474651 0.163606935567 -0.00211493240402)
(0.0952084709519 0.164770388089 -0.00656365152731)
(0.112415843548 0.163958379761 -0.0108614432508)
(0.0911084478996 0.145666182536 0.00342479809285)
(0.0634950908827 0.134901894008 0.00597870683081)
(0.0549334047793 0.116459450796 -0.00165120556371)
(0.0529013421118 0.10509671461 0.00350002451329)
(0.0607912897756 0.103417652682 0.00500166289533)
(0.103345849053 0.0968557399107 0.0189756191577)
(0.123330117526 0.0937785442917 0.0104495714002)
(0.0952792462553 0.0931180643116 0.0041193001605)
(0.0782796801319 0.0929546459509 0.00392278144876)
(0.0616079013767 0.0919255731189 0.00504956711924)
(0.0439083061047 0.0907046974888 0.00533050489943)
(0.0257365579495 0.0895248719402 0.00471543009669)
(0.00819745193691 0.0880759081759 0.0034407270404)
(0.0070401300985 0.15173827463 -0.00307809221404)
(0.0220757941716 0.149879480629 -0.00386494266936)
(0.0381342484073 0.149581682023 -0.00303640611122)
(0.0531550902612 0.153561055252 -0.00152313181691)
(0.0674374226054 0.156742073928 -0.00107208680606)
(0.0890186997522 0.146571932997 -0.00330629958987)
(0.113866379945 0.118069293811 -0.0126773561518)
(0.100029747562 0.0803895130733 -0.00900599258647)
(0.0582655105623 0.0831326282135 -0.00203538921594)
(0.041760950885 0.0770049724573 0.0141452216655)
(0.0471545876841 0.0962875259009 0.00826187200766)
(0.0595465598188 0.108980459842 0.00495773454598)
(0.102523163312 0.12055931057 0.0167950788956)
(0.121117238967 0.105726804401 0.00888371794398)
(0.0946462378992 0.102046437824 0.00480784465406)
(0.0782039389319 0.100163978879 0.00498632017887)
(0.0612367672415 0.0982284246142 0.00611618170841)
(0.043360251472 0.0964570017706 0.00636420626995)
(0.025039973729 0.0950571388426 0.00565873590718)
(0.00785042849817 0.0936988420712 0.00398775587793)
(0.00602153250941 0.144490750494 -0.00153548185532)
(0.019292963771 0.142878988795 -0.0026212038581)
(0.0333923448523 0.142792089794 -0.00196492691779)
(0.0455281143022 0.146535580834 -0.000547835473644)
(0.0541739898578 0.151339809795 -0.000322077706479)
(0.0581330374758 0.148067155307 -0.00282273817837)
(0.0626075693657 0.125478487721 -0.00725515352259)
(0.071484479089 0.0930195761258 -0.0230414257694)
(0.0741316172506 0.0879126202033 -0.0247422726213)
(0.0760107508638 0.10548664525 -0.0212658429545)
(0.0812165504003 0.121489288788 -0.0137968900005)
(0.0871207942854 0.134749588826 -0.00881676104356)
(0.103960843085 0.147059857982 -0.00692071450341)
(0.108861638862 0.11934669029 0.00185056462739)
(0.0927406945666 0.110720350312 0.00417179699681)
(0.077086111799 0.106024203562 0.00586214336424)
(0.0602272669187 0.102535623885 0.00720611196435)
(0.0424450518195 0.0999395052904 0.00749412873749)
(0.0243208154559 0.0982929719972 0.00678504385545)
(0.00755288954884 0.0970531890207 0.00476099931311)
(0.00522115757687 0.134416790206 -0.000154492990889)
(0.0172312895534 0.133100915911 -0.00149410576883)
(0.0303595936976 0.1329822896 -0.000871335923673)
(0.0419067319605 0.136134810488 0.000940410323066)
(0.0515793170041 0.141756295208 0.00282097549296)
(0.0626887074846 0.145816624567 0.0044977600009)
(0.0728295722213 0.145264059017 0.00717796014287)
(0.0729906314366 0.137954539537 0.00792669934119)
(0.0715888696761 0.137072956184 0.00297101198064)
(0.0742101308907 0.139359811975 0.000706121569507)
(0.0788174117152 0.138713024662 0.00164184027144)
(0.0858667170923 0.138891289009 0.00258063235704)
(0.0945169712523 0.136405068389 0.00339244907166)
(0.0952532559591 0.122058638076 0.00611683774425)
(0.0860164640306 0.113349149758 0.00731426298052)
(0.0732684067874 0.107363041392 0.00818041613645)
(0.0579910151547 0.103120846186 0.00877100898421)
(0.0410345460683 0.100270961431 0.0087616103609)
(0.0233738326781 0.0984797973937 0.00805019007992)
(0.00717738543219 0.097426155887 0.00574138510691)
(0.00468343613903 0.1217371054 0.00107782752419)
(0.0159993498517 0.120665892226 -0.000594372675294)
(0.0288586852491 0.12035388913 -0.000237595568142)
(0.0408946376354 0.122011642822 0.00123484224585)
(0.0515949656426 0.125731782484 0.00250963100798)
(0.0586626694128 0.12887841559 0.00246848747792)
(0.063163695237 0.124370153004 0.00246167689768)
(0.0711585125214 0.119025494406 -0.0034239992569)
(0.0777495060392 0.117916800905 -0.000343497345096)
(0.0808752811493 0.119141427959 0.000514904719115)
(0.0854060557126 0.121550136696 0.00181028050546)
(0.0894409037836 0.122394567997 0.0031646871507)
(0.0927211503498 0.120589305515 0.00481422403132)
(0.0903128455538 0.114115923076 0.00725030238919)
(0.0818908892834 0.108154040554 0.00867170700698)
(0.0700690245729 0.103159520279 0.00966645890192)
(0.0558556007663 0.0993421176457 0.0100577327512)
(0.0395423781431 0.0967215651192 0.009854280715)
(0.0223831670094 0.0952174353525 0.00913822793369)
(0.00683404058686 0.0943570985252 0.00677615106004)
(0.00433374417609 0.106735127397 0.00202115559947)
(0.0152508537895 0.105873560025 6.23320122745e-05)
(0.0280858825735 0.105418069146 0.00012295867615)
(0.0400308731669 0.105872379069 0.00120389256967)
(0.0504730024432 0.107156945349 0.00252280705486)
(0.0587637455558 0.108174251635 0.00361735031369)
(0.0665990174132 0.110031305907 0.00528682793435)
(0.0738848315563 0.111600170955 0.00525776403427)
(0.0786656917241 0.110345402511 0.00556152858472)
(0.0822536800749 0.111035221615 0.00603949142769)
(0.0856999133706 0.110835259187 0.00680080184067)
(0.0883117852749 0.109802464752 0.00726874302583)
(0.0889597752954 0.107275861434 0.00824038936444)
(0.0855506671162 0.102703510351 0.00940857263559)
(0.0780975666157 0.0981105526349 0.0102647337651)
(0.0672755264464 0.0943406808105 0.0107621804557)
(0.0537491642055 0.0913345801562 0.0108999153315)
(0.0380990229288 0.0892734378254 0.0106702944625)
(0.0214060886572 0.0881504170175 0.0100351189696)
(0.00644591457887 0.0875865306707 0.00784325408891)
(0.00413252050216 0.0897112754492 0.00269821114546)
(0.0147838050896 0.0891657921485 0.000572317962511)
(0.0277423200356 0.0887838397381 0.000433434640293)
(0.0399869448373 0.0887161054323 0.00124087130177)
(0.0508700336287 0.0891845341128 0.00230228557688)
(0.06043481319 0.0899563182844 0.00339525593442)
(0.0679456147246 0.091255288735 0.00452295311925)
(0.0737009791115 0.090928499369 0.00589656887959)
(0.0789062684492 0.0909760818679 0.00564737415318)
(0.0831971286906 0.0912854902012 0.00629146320685)
(0.086026851009 0.0914553711436 0.00706314410856)
(0.0875056424544 0.0909523694531 0.00794231029312)
(0.0867308276685 0.0893369541252 0.00891143475166)
(0.0827644258532 0.0866935597072 0.0100547678962)
(0.0754619914947 0.0838923890675 0.0109021307583)
(0.0651436825481 0.0812910894794 0.0113208958705)
(0.0521579649934 0.0793062224012 0.0114309822624)
(0.0369047890544 0.0779453644899 0.0113105014509)
(0.0206806488605 0.0772794510996 0.0108747449186)
(0.00624040024143 0.0771071372259 0.0088258873778)
(0.00409705635711 0.0711464194043 0.00317519597086)
(0.0146289733178 0.0709843869946 0.000931638984168)
(0.0274640309145 0.0708492947768 0.000671620952892)
(0.0398414427946 0.0706315176691 0.00131320365476)
(0.0508841609765 0.0704627173443 0.00221648692012)
(0.0604215690874 0.0703050430507 0.00319617573462)
(0.0680008934482 0.0700108532631 0.00415327351925)
(0.0744263899342 0.070284149704 0.00559994570438)
(0.0797666103825 0.0711483306703 0.0058895908623)
(0.0836359515794 0.0714178685088 0.00670187768049)
(0.0862005021663 0.0714164691105 0.00755519650684)
(0.086822938764 0.0710709916183 0.00848419488924)
(0.0852496580586 0.0699791037231 0.00937895678873)
(0.0809811783708 0.0683717276928 0.0102880196366)
(0.0737572378947 0.0665916092957 0.011052962235)
(0.0637054236265 0.0650251637747 0.0114923829929)
(0.0510726821992 0.0638707990832 0.0117491630439)
(0.0362149571126 0.0632217405486 0.0118826987476)
(0.0204301948009 0.0631698154708 0.0116119518095)
(0.00619423753689 0.0633522671896 0.00982165028781)
(0.00423685545831 0.0515534402785 0.00337411506976)
(0.0147902005844 0.0518478612112 0.00125343270079)
(0.0273802265527 0.052003228003 0.000989809542056)
(0.0394950587924 0.0518624955585 0.00147854482697)
(0.0504553827175 0.0514918318165 0.00227779841376)
(0.0599601151893 0.0509162973104 0.0032317380447)
(0.0680582206524 0.0501982617418 0.00430125830927)
(0.0750536900682 0.0505350929408 0.00557327609081)
(0.0803228310901 0.0509423327127 0.00591636360782)
(0.083842998943 0.050938998772 0.00673613985382)
(0.0860135114212 0.0507245009678 0.00764090430545)
(0.0863102228747 0.0502123537727 0.00854333914081)
(0.0843390164338 0.0494164778791 0.00943644484426)
(0.0798603818372 0.0484053344262 0.0102570496154)
(0.0727213330041 0.0472614026248 0.0109523868615)
(0.0629410824214 0.0463757216257 0.0115079141532)
(0.0506432800343 0.0458609838067 0.0119280778255)
(0.0362057632427 0.0458540884743 0.0122829779471)
(0.0206638096565 0.0463519434316 0.012188167957)
(0.0063489525325 0.0469984097886 0.0106611481758)
(0.00458757978372 0.0315022254462 0.00329460548022)
(0.0152759342316 0.0323762717676 0.00169461989219)
(0.0274734646756 0.0329698646755 0.00160634795273)
(0.0391795877085 0.0330660759613 0.00207245494297)
(0.0497877192674 0.0329085864714 0.00273916574306)
(0.0590525326302 0.0327350617945 0.00360457048659)
(0.0675879550737 0.0325778567419 0.00456933278092)
(0.0751653454 0.0313990758762 0.00590548262467)
(0.080225543689 0.0306938659942 0.00585698063353)
(0.0836162139651 0.0301301081899 0.00658285468523)
(0.0856025089065 0.0297331469327 0.00743398500467)
(0.0856980566158 0.0291956360547 0.00829657602611)
(0.0837067389977 0.0285897279068 0.00913127739154)
(0.0791861147531 0.027970129313 0.00993116083659)
(0.0721263861466 0.0273357121394 0.010690964427)
(0.0625838517021 0.0269067325769 0.0112789787699)
(0.0506438838852 0.026749450972 0.0118676554266)
(0.0366818197852 0.0269653609989 0.0123336541195)
(0.0214710674764 0.0277373772205 0.0124512402185)
(0.00681583979643 0.0287546693583 0.0113956763556)
(0.0051606472241 0.0109257135154 0.00302235370203)
(0.0160777411548 0.0115378679402 0.00307194541034)
(0.0276998583158 0.0119749400911 0.00324413766064)
(0.038878447466 0.0121079516402 0.00349299457348)
(0.0493715975992 0.0121194471952 0.00376364424042)
(0.0587717926615 0.0122418942514 0.00402026681662)
(0.0658096386959 0.0124735489296 0.00449754460068)
(0.0722764398261 0.0111861063233 0.00548305658958)
(0.0782450762226 0.0102910862109 0.00546478471299)
(0.0823097938843 0.00983544795527 0.00573259350619)
(0.0845002360782 0.00950739065932 0.00630163384667)
(0.084748623842 0.00924445763429 0.00688474812933)
(0.0829003696779 0.00898891567235 0.00758141021414)
(0.0785307917858 0.00876547558857 0.0082669122106)
(0.0716593206497 0.00854808259119 0.00904317602007)
(0.0623643589373 0.00842828966518 0.00979760815859)
(0.0507196865129 0.00840549661321 0.0105096518371)
(0.0372102840432 0.00855168101392 0.0111042531395)
(0.0224240900311 0.00898320946244 0.0116052704089)
(0.00740026896597 0.00957398566199 0.0118406492799)
(0.013925833271 0.0155152062676 -0.0575893566585)
(0.0404326848372 0.0163879123487 -0.0571552346046)
(0.0652424144271 0.0166269686605 -0.0549388464751)
(0.0886707777522 0.0170391068357 -0.051754396483)
(0.109809299651 0.0171527627118 -0.0493847267629)
(0.128370055684 0.0163495144591 -0.0474260029455)
(0.141832171173 0.0146423183019 -0.0411705232861)
(0.148995901258 0.013512022193 -0.0342611762707)
(0.151952644949 0.0137069993418 -0.028066734941)
(0.151410284427 0.0130501304811 -0.0221951303444)
(0.147581590488 0.0120704859477 -0.0165149054552)
(0.140889573086 0.0109431505812 -0.0111422499919)
(0.131678731579 0.00973434178094 -0.00612872073912)
(0.120134241721 0.00862954861951 -0.00143088073633)
(0.106336841637 0.0077121267443 0.00285717469904)
(0.0904216376555 0.00701603890113 0.00647627962566)
(0.0724701888831 0.00648348153078 0.00940879132157)
(0.0527781054929 0.00611318487755 0.0114393394645)
(0.0320723782055 0.00578395004773 0.012431297635)
(0.0108457126115 0.0049316215145 0.0126050755373)
(0.0149754900553 0.0457736248234 -0.0558008820471)
(0.0416764583863 0.0467076249817 -0.0568777179632)
(0.0656454673882 0.046331623171 -0.0546369232449)
(0.0888867134552 0.046073441028 -0.0521533326861)
(0.108776921993 0.0453269717211 -0.0478288508886)
(0.125459083337 0.0440223466444 -0.0430513849616)
(0.138497301485 0.0415718587437 -0.04038565242)
(0.147346527126 0.0403362656866 -0.0355823331377)
(0.150670657276 0.0384243780927 -0.0284851713881)
(0.149053891777 0.0370527963362 -0.0231689049457)
(0.144868119213 0.0341178569066 -0.0181064051881)
(0.138000962812 0.030636469398 -0.0131982101162)
(0.128883291123 0.027007786223 -0.00861820112533)
(0.117738007988 0.0237602723789 -0.00445249550909)
(0.104433240436 0.0211876107107 -0.000576716105075)
(0.0889236868179 0.0191481551997 0.00275322074548)
(0.0714135406102 0.0176068424813 0.00547706586664)
(0.0522793573343 0.0165117687692 0.00759059878645)
(0.0322459163515 0.0156453904353 0.0093397438522)
(0.0110127832867 0.0140884281609 0.0119300235713)
(0.0152136302873 0.0736933844957 -0.0535659811434)
(0.0414081809204 0.07365332055 -0.0533555123503)
(0.0647712026486 0.0719677147596 -0.0510467387552)
(0.0879342513984 0.070447408474 -0.0482406668802)
(0.107959811052 0.0686030679138 -0.0450099834001)
(0.124547375255 0.0672143447741 -0.0415611600132)
(0.137588106925 0.0658709650548 -0.0388643652959)
(0.144910261837 0.067036746262 -0.0342171978995)
(0.147590335179 0.0638376069787 -0.0272296426515)
(0.146131486627 0.0599400837281 -0.0217960368131)
(0.140486534034 0.0547836634783 -0.0168197615443)
(0.133294365259 0.0492309565586 -0.0122939256085)
(0.124373731582 0.0436320430996 -0.00805088953113)
(0.113953392831 0.0385854435525 -0.00442159105369)
(0.101395445506 0.034716451833 -0.000740275505177)
(0.0865079769837 0.0315705409373 0.00230158508449)
(0.069649058919 0.0291878034586 0.00473705921814)
(0.0511766042908 0.0274764396666 0.00663751176833)
(0.0319768639146 0.0261541602683 0.00849318568612)
(0.0111059578072 0.0245875364967 0.0114357290508)
(0.0155218254211 0.0996738696434 -0.0505520337878)
(0.0409831940629 0.0979614805964 -0.0477711911881)
(0.0637727622941 0.0952361052521 -0.0461823119025)
(0.0871695740908 0.0936660922014 -0.0439026398715)
(0.106955275554 0.0913121889412 -0.0420173561409)
(0.123499712467 0.0893595459809 -0.0401473459747)
(0.138126450421 0.0882382230982 -0.0379393691585)
(0.144709701662 0.0946439625003 -0.0320411555498)
(0.143260393293 0.0909539852012 -0.0253233155885)
(0.140025296636 0.08382112589 -0.0185962089218)
(0.134496874908 0.0761836532672 -0.0137121592216)
(0.127292849317 0.0681551762707 -0.0089840458924)
(0.118641755073 0.0600525404005 -0.00512536743228)
(0.109129641935 0.0527758331689 -0.0026287488256)
(0.0975935885497 0.0478589644748 0.000870695039369)
(0.0834535323302 0.0437329777373 0.00363629302687)
(0.0673429784172 0.0407350803101 0.0056717073895)
(0.0495253929623 0.0385866133915 0.0071619292882)
(0.0311032324717 0.0368741924966 0.00857795122299)
(0.0109363462612 0.0349450964084 0.0108708695355)
(0.0142641852502 0.122054191252 -0.0466689919607)
(0.0388101496351 0.118655040342 -0.0420243016854)
(0.063090479059 0.115892299202 -0.0388722321064)
(0.0868280850804 0.112525936954 -0.0385871599174)
(0.105784105154 0.109655609257 -0.0390066463665)
(0.122492483298 0.106546143138 -0.0355281604789)
(0.142211060919 0.10420595892 -0.0346525694285)
(0.146640220214 0.114873849872 -0.0259314144114)
(0.137174754956 0.108080135269 -0.019363233757)
(0.132526220522 0.0986635867342 -0.0129512792665)
(0.125978450956 0.0874639326462 -0.00803519893145)
(0.118175630112 0.0770738942295 -0.00348841155915)
(0.109825128336 0.0674792661741 -0.000906881647938)
(0.102341637966 0.0613224730487 0.000144924811965)
(0.0929571335822 0.0577842674262 0.00347137819115)
(0.0799310099627 0.0539498782439 0.00539168560404)
(0.0648489097557 0.0509535639234 0.00709373030817)
(0.0477115710959 0.0488135013602 0.00804669491421)
(0.0301297210834 0.046982536852 0.00897520235377)
(0.0106989980817 0.0449960499609 0.0102544175393)
(0.0131562200227 0.138605460499 -0.0402352687686)
(0.0373469411032 0.13540515835 -0.0375978038796)
(0.0610579247862 0.13270153275 -0.034674227146)
(0.0839600515146 0.12828657928 -0.0333822400513)
(0.10284570815 0.126291597575 -0.033706727967)
(0.118989833515 0.126547033955 -0.0331375337233)
(0.145968584266 0.13094166468 -0.0310353723405)
(0.147231930686 0.142491363708 -0.0168520941819)
(0.127317137545 0.131239175856 -0.0098582407477)
(0.120084283985 0.121501047291 -0.000719456324019)
(0.113825798175 0.107995164547 0.00197187728414)
(0.108002147746 0.0970140470766 0.00314501127077)
(0.103239965546 0.0876356250655 0.00377985342016)
(0.0990860867831 0.0740382492641 0.00212616710044)
(0.0905238236097 0.068503586409 0.00597025770872)
(0.0773430470754 0.0632395402492 0.0062339508009)
(0.0628690518763 0.0601177558296 0.00786051471315)
(0.0461197082536 0.0582852181719 0.00873770670452)
(0.029234669021 0.0564003705273 0.00942729557444)
(0.0105991353674 0.0547819706199 0.00980349437634)
(0.0123038407624 0.150210606735 -0.0337258497753)
(0.0355727391045 0.146933092088 -0.0319384869056)
(0.0589913115867 0.143060177926 -0.029012978697)
(0.0825565027609 0.138221407149 -0.0261811071564)
(0.104723487083 0.134403693681 -0.0236535926675)
(0.127380978144 0.129700574417 -0.0177642701061)
(0.155830169055 0.130429557158 -0.00683977823713)
(0.143180293899 0.137506496547 0.0162515744859)
(0.117299424822 0.115968516663 0.0225066196549)
(0.11131530727 0.0887332806743 0.0298734564118)
(0.103437358788 0.0766699410809 0.0316482353227)
(0.0987385575472 0.0593479507455 0.0345111423732)
(0.0862435967288 0.0548256882944 0.0374022111629)
(0.0823518180994 0.070102077426 0.00805569799034)
(0.0822227498155 0.0683754522558 0.0113235167583)
(0.072608698631 0.067241524448 0.00710657424368)
(0.0610471559713 0.0673334497198 0.00864516389663)
(0.0448140784783 0.0667265811718 0.00931200854143)
(0.0287209523361 0.0660705662993 0.00964583649066)
(0.0109298694957 0.0632823462533 0.0100669691194)
(0.0111206653059 0.157119356188 -0.026347865738)
(0.0328155822846 0.15399796735 -0.026256850106)
(0.0547467277063 0.149573720611 -0.0239380143691)
(0.0765912362024 0.143693990903 -0.0212357702254)
(0.0945491997309 0.137434797868 -0.0190935430598)
(0.114482534576 0.127909647062 -0.0134703585568)
(0.151817534607 0.119783804488 -0.0116567736778)
(0.12994725137 0.121364282238 0.0477403102214)
(0.0814895486136 0.106627994253 0.0248869866766)
(0.0848095762781 0.0861941803798 -0.00376180604994)
(0.0889978137398 0.0635211292895 -0.0381357293864)
(0.0895631701571 0.0480184406244 -0.0442261776101)
(0.114776867115 0.0473562560142 -0.0671255803692)
(0.110845230107 0.0662779010351 -0.00535863180611)
(0.0866507136974 0.0704950574734 0.00682019818462)
(0.0769381830335 0.07335167057 0.00501258830489)
(0.0633302814797 0.074874684373 0.00867074947666)
(0.0456626751345 0.0750378129028 0.00993283476616)
(0.0278635076819 0.0751994287379 0.0100088996274)
(0.00964632918938 0.0719136916066 0.00914327773401)
(0.0102835348892 0.159586119025 -0.0199983720203)
(0.0302048217466 0.156830798632 -0.0204165482189)
(0.0503224119161 0.152191607315 -0.0191642014115)
(0.0707968497546 0.146915357606 -0.0162881880632)
(0.0887914918569 0.140723722261 -0.0135576903991)
(0.110298082992 0.135841214578 -0.0162014829079)
(0.149666668616 0.12869889381 -0.00437299868746)
(0.125839949014 0.116072686151 0.061804133046)
(0.0810672381789 0.10729178919 0.0407712899146)
(0.0684058782369 0.102080728984 0.0149723004361)
(0.0665847113364 0.084561444979 -0.013976335722)
(0.0834411817229 0.0791680136103 -0.0347739751078)
(0.10641723665 0.0765244153071 -0.0657641125874)
(0.107602464077 0.0769786425049 -0.00197653050545)
(0.0892172196721 0.0817167010232 0.00882026379628)
(0.0781004599626 0.0835632694492 0.00646440851397)
(0.0636306569836 0.0835906815859 0.0095427982089)
(0.0459465979277 0.0834054273908 0.0106692568407)
(0.0275940583442 0.0831180648801 0.0107656196332)