/*--------------------------------*- C++ -*----------------------------------*\
| =========                 |                                                 |
| \\      /  F ield         | OpenFOAM: The Open Source CFD Toolbox           |
|  \\    /   O peration     | Version:  v1606+                                |
|   \\  /    A nd           | Web:      www.OpenFOAM.com                      |
|    \\/     M anipulation  |                                                 |
\*---------------------------------------------------------------------------*/
FoamFile
{
    version     2.0;
    format      ascii;
    class       volVectorField;
    location    "1.8";
    object      U_0;
}
// * * * * * * * * * * * * * * * * * * * * * * * * * * * * * * * * * * * * * //

dimensions      [0 1 -1 0 0 0 0];

internalField   nonuniform List<vector> 
11640
(
(3.20650924159e-05 -0.000468965755677 0.000448525892724)
(-0.000218335326214 -0.000162781798093 0.000418015715901)
(-0.000788958617837 0.000110742861585 0.000304096369112)
(-0.00138849758489 0.000381628268542 0.000202223093002)
(-0.00202025481244 0.000618987069511 4.34256805497e-05)
(-0.00271194741889 0.000881707522203 -0.000137711817157)
(-0.00355013476614 0.00116288094106 -0.000333210423973)
(-0.00445201553882 0.0014958245894 -0.000561015335564)
(-0.00531833864746 0.00173947371246 -0.000749672492705)
(-0.00608867750744 0.00195414921201 -0.000980583229781)
(-0.00666142743818 0.00214600722635 -0.00121620932531)
(-0.00697779779149 0.00234179422536 -0.00144612599084)
(-0.00697583447681 0.00252481696526 -0.00167896380923)
(-0.00666688558651 0.00265634752387 -0.00191298879834)
(-0.00605055610159 0.00271083610632 -0.00212867839641)
(-0.0050946144738 0.00272601085488 -0.00227043653949)
(-0.00385564397838 0.00272551282385 -0.00237691963057)
(-0.00253326825987 0.0027502199244 -0.0023892567752)
(-0.00129223422541 0.00281039209448 -0.00234487892017)
(-0.000332350378465 0.00295771788256 -0.00223997162441)
(0.000272444614121 -0.00148613455329 0.000353794117183)
(0.000172512322056 -0.000953861431184 0.00083996446427)
(-0.000460843160707 -0.000438952351681 0.000877694553855)
(-0.00108535628907 0.000104687481057 0.000734871812412)
(-0.00167424034116 0.000765539549057 0.000541330370221)
(-0.00232569695339 0.00160984184944 0.000335252228447)
(-0.00315470712543 0.00251544104388 0.000145793093855)
(-0.00412684383736 0.00342695294474 -6.73683561858e-05)
(-0.00514822955692 0.00419183939113 -0.000255256864869)
(-0.00602311439002 0.00485842808505 -0.000460170650416)
(-0.00664697050441 0.00546646940188 -0.000691981974904)
(-0.00697679090156 0.00602536270714 -0.000981249762094)
(-0.0069948208069 0.00656407821069 -0.0012604721792)
(-0.00671550016497 0.00701904691997 -0.00150446402027)
(-0.00610899166176 0.00732668159891 -0.00175487910854)
(-0.00517426703572 0.00754577361528 -0.0019620487059)
(-0.00398766766199 0.00764555874797 -0.00212558485045)
(-0.00267254042346 0.00776924222514 -0.00220812150715)
(-0.0014191185369 0.00800727269469 -0.00216712852682)
(-0.000431808518657 0.00835901734782 -0.00205329804131)
(0.000557700454488 -0.00253097495335 0.000251918082622)
(0.000652626210086 -0.00213068433134 0.000868567526832)
(2.42121340887e-05 -0.00159793437152 0.000922826631928)
(-0.000426173369516 -0.000830328052417 0.000714252407858)
(-0.000793702278419 0.000322861950533 0.000441236552566)
(-0.00132366942183 0.00179292148877 0.000201081019473)
(-0.00211703834459 0.00338184186978 5.02813756122e-05)
(-0.00316021886773 0.00484826306376 -9.4721182861e-05)
(-0.0043257431212 0.00610965055802 -0.000243971462687)
(-0.00533723459745 0.007187389671 -0.000388591207627)
(-0.00607332724703 0.00811263781011 -0.000595078141533)
(-0.00646741472515 0.00899923085499 -0.000839246488265)
(-0.00650988575913 0.00982373604528 -0.00110846294447)
(-0.00629578679698 0.0105744742487 -0.00135126336514)
(-0.00574502169641 0.0111354796404 -0.00160692225938)
(-0.00487424113599 0.0115912736018 -0.00178354550227)
(-0.00379452347343 0.0118934795957 -0.00189222195893)
(-0.00257266199047 0.012162777913 -0.00195496733122)
(-0.0013525489966 0.0125028786992 -0.00192166754177)
(-0.000423244880111 0.0129336576823 -0.00175065273066)
(0.00076613432377 -0.00363330506371 0.000124219380969)
(0.00107974128885 -0.00338631881446 0.000753166442498)
(0.000662242172106 -0.00276744404602 0.000705856761719)
(0.000503489846313 -0.00156961448389 0.000403953322241)
(0.000387152087957 0.000260101570356 5.16978075711e-05)
(5.24219857508e-05 0.00248167001794 -0.000248285007407)
(-0.000661212580446 0.00476081224842 -0.000384540029636)
(-0.00181155294393 0.00665992869295 -0.000415066890856)
(-0.00314406074849 0.00808858505349 -0.00046796440568)
(-0.00440064475486 0.00904493793055 -0.000557344409758)
(-0.00524426510259 0.0100125234721 -0.000661899021657)
(-0.00566642658104 0.0110795204404 -0.000919028402411)
(-0.0057237678805 0.0122638388338 -0.00121998717139)
(-0.00552284358427 0.0135877462731 -0.00132952654806)
(-0.00499606838478 0.014447506708 -0.00157335325726)
(-0.00418902858772 0.0151066375749 -0.00168779706738)
(-0.00322677721649 0.0155608750351 -0.00171339287092)
(-0.00213285079552 0.0159483087881 -0.00169698826252)
(-0.00109723999498 0.0163615718584 -0.00159650821337)
(-0.000325134061932 0.0167970290595 -0.00140577137346)
(0.000905501945908 -0.00475498554489 7.41244133092e-06)
(0.00143741081442 -0.00452085025359 0.000550449257006)
(0.00136999689453 -0.00367450007858 0.000432963113128)
(0.00152797711691 -0.00192529577898 5.57809639354e-05)
(0.00156024451857 0.000847539049357 -0.00037098678745)
(0.00137305947447 0.00415684659165 -0.000562972376867)
(0.000825333222838 0.00714624870902 -0.000601945177264)
(-0.000485545869444 0.00964830539382 -0.000507467858369)
(-0.00216293257404 0.0112689436275 -0.000467784999221)
(-0.0035543616176 0.012290644619 -0.000503628307353)
(-0.00421930505473 0.0134734501643 -0.00065490375831)
(-0.00442242009321 0.0146355057829 -0.00084588899703)
(-0.00410133928619 0.0158788277498 -0.00112351879696)
(-0.00389447195899 0.0169275277431 -0.00119732724798)
(-0.00366521755492 0.0175353385289 -0.00153753459539)
(-0.00300779226645 0.0181210144342 -0.00154680255114)
(-0.002276226556 0.0185406942022 -0.00151408004845)
(-0.00139468421563 0.0188941530853 -0.00136690056107)
(-0.000620470679556 0.0193114934952 -0.00119374947399)
(-0.00018031108758 0.019805825536 -0.000961077345813)
(0.000976499534298 -0.00579574540935 -0.000126796083476)
(0.00184309010888 -0.00552481401872 0.00034028701031)
(0.00210966100493 -0.00443256773036 0.000192283730755)
(0.00252793170014 -0.00215109836223 -0.00017441550637)
(0.00289711922043 0.00141516645008 -0.000494885356491)
(0.00303750632556 0.00520188248398 -0.000552643503662)
(0.00300630485137 0.0084868281646 -0.000366659157027)
(0.00163142859247 0.0116706651582 -0.000182101646433)
(-0.000251149315321 0.0129136289003 -0.000114598687522)
(-0.0018218717047 0.0127235423748 -0.000304366887532)
(-0.00260325221203 0.0130295078035 -0.0004682495635)
(-0.00297868256727 0.01383062481 -0.000717157353293)
(-0.00302504136867 0.0153155342231 -0.00111621388689)
(-0.00305049655273 0.0175265846343 -0.000904322952787)
(-0.00252982681219 0.018899286263 -0.00130766471955)
(-0.00165000383956 0.0200947322266 -0.00114971160177)
(-0.00103881636062 0.0206200049713 -0.00113568333794)
(-0.000406300402963 0.0209296280834 -0.000958525862364)
(6.3669618741e-05 0.0212835471941 -0.000738998790182)
(0.000108495832467 0.0218201722564 -0.000493776636833)
(0.00105105998205 -0.00673589538263 -0.000275483204111)
(0.0022169132081 -0.00641247915295 0.000145900779864)
(0.00274140477744 -0.00513884356864 3.56973917476e-05)
(0.00333635150414 -0.00239606448886 -0.000249717783107)
(0.00377711334026 0.00153645953891 -0.000357104521146)
(0.00432727510367 0.00474569628506 -0.000123523049756)
(0.00516181920887 0.00748225003442 0.000392081485278)
(0.00315332914186 0.00800081843274 0.00189965834194)
(0.000153647757862 0.0101632590751 0.00143501308137)
(-0.00209347279577 0.00987636281384 0.000637394206247)
(-0.00222942985074 0.0119158327178 0.000311932238617)
(-0.00145890019261 0.0137196779904 -0.000417539092446)
(0.000425412394496 0.0177998897889 -0.00137912220974)
(0.000900965838598 0.0191713750134 -0.000560820608532)
(0.000557420356155 0.0210558034395 -0.0011780913828)
(0.000786043875416 0.0218813101996 -0.00078358812393)
(0.000642733543624 0.0220604909257 -0.000734903975855)
(0.00083475052922 0.0221461983733 -0.000505631437582)
(0.000872770338991 0.0223654798346 -0.000256626268359)
(0.000428573363735 0.022843401096 3.39103970346e-05)
(0.00119551970474 -0.00759146687521 -0.000440989767689)
(0.0026704501929 -0.00724615895776 -3.10645977268e-05)
(0.00354237541272 -0.0058327210391 -4.10811785179e-05)
(0.00435430605082 -0.00292099692129 -0.000211049725947)
(0.00494784871616 0.00103666026086 -0.000202958675581)
(0.00623887106504 0.00382131496968 -3.16522830988e-05)
(0.00728831543887 0.00516931764229 0.00108691833756)
(0.00659773526469 0.00566689537835 0.000981324837909)
(0.0050661512386 0.00876851663388 1.86035095693e-05)
(0.00340180168126 0.0100437646446 -0.0012967405853)
(0.00311606065787 0.0132792944702 -0.00140797743854)
(0.00267726500052 0.0156819216653 -0.000572872841585)
(0.000260170701551 0.0193949456087 0.000621410576574)
(-0.00148830785327 0.0201272512035 -0.000808675648316)
(0.0011647944115 0.0217762906786 -0.000899233680971)
(0.00165994438501 0.022363828496 -0.000257895444651)
(0.00180173183269 0.0224213653156 -0.000168943584856)
(0.00193928302041 0.0223830043704 2.75435049957e-05)
(0.00162623926772 0.0225110153523 0.000267490108333)
(0.000729143106637 0.0230027667922 0.00056463502594)
(0.00132530703114 -0.00825385925779 -0.000593246394575)
(0.00310334978116 -0.00793717704602 -0.000223883937114)
(0.00420112688348 -0.00649821601981 -0.000166131181591)
(0.00511613965756 -0.00364770688817 -0.000218540996594)
(0.0056382330846 0.000222346851203 -0.000131144084332)
(0.00685412001809 0.00294631773025 -8.12771179776e-05)
(0.00833780902047 0.00320220141267 0.000982610666325)
(0.00754210343375 0.00383221924038 0.00162677313225)
(0.00538437661494 0.00523811548329 0.00115466855156)
(0.00369384171663 0.00728637565123 -5.94557080461e-05)
(0.00405162874406 0.00955269782531 -0.000380363032148)
(0.00519480420743 0.0121005034033 0.000242960743942)
(0.00467426971589 0.0156795142076 0.000991078834492)
(0.00298826781601 0.0184946241861 -0.000942682743782)
(0.00454756123524 0.0205041077424 -0.000563355561823)
(0.00402055306861 0.021483058055 0.000154264583964)
(0.00357304467251 0.021772368158 0.000266956203577)
(0.0032142567268 0.0217145568704 0.00047412124159)
(0.0024564235822 0.0218074603454 0.000719736496919)
(0.00106707045029 0.0223151911903 0.00104197326412)
(0.0014378601264 -0.00866941740677 -0.000799948932014)
(0.00348683119198 -0.00834696650802 -0.000430572674012)
(0.00481271333639 -0.0069121066144 -0.00031870479721)
(0.00585925257036 -0.00401258957691 -0.000237643531504)
(0.00656911233698 -0.000275825373968 -0.000127628706293)
(0.00812372303164 0.0021463979499 -6.76785101214e-06)
(0.00991227321494 0.0013982598005 0.000863362363373)
(0.00988537614545 0.000732105163885 0.00182005007059)
(0.00834468009149 0.0027934201192 0.00121959639847)
(0.0066172918876 0.00730398743257 -0.000118521362641)
(0.00664147584255 0.0109281683505 -0.000448535609767)
(0.00724790269537 0.0149735687226 0.000168814745991)
(0.00622192568569 0.0181589297598 0.00125843411836)
(0.00464778565387 0.0194575799804 -0.000766323897188)
(0.00639434244024 0.0202173145339 -0.000311286003193)
(0.00566902212494 0.0205723385238 0.000546109002421)
(0.0050807796412 0.0206105883066 0.000675110357833)
(0.00436742724855 0.0203633733385 0.000873308631844)
(0.0032173338889 0.0204092912591 0.00111497574174)
(0.00136870126903 0.0209512059356 0.00144679199905)
(0.00155627064943 -0.00871949189265 -0.00104470029327)
(0.00385109891244 -0.0083850528031 -0.000651791928627)
(0.00541522683418 -0.00695002772106 -0.000494854887065)
(0.00657735970122 -0.00394523969071 -0.000356114104799)
(0.00719237381795 -6.20023126798e-06 -0.000274435620126)
(0.00805045619584 0.00267570594575 -0.000372557185326)
(0.00922462656235 0.0013980585703 0.000211940652379)
(0.0100674609204 -0.00105881440118 0.000124979345578)
(0.0102024426232 -0.000696398202754 -0.000452014076995)
(0.00945994827923 0.00480682155527 -0.000565681944102)
(0.0101424793232 0.00953036243146 -0.000609994381567)
(0.0108299972616 0.0148199347693 8.03366479461e-06)
(0.00953280224958 0.017515056111 0.000995873434052)
(0.00741999250731 0.0189812467824 -0.000450545436249)
(0.00839827394908 0.0191996407454 2.5523937418e-05)
(0.00721380971304 0.0192114541003 0.000834884219863)
(0.00634214965019 0.0189009483827 0.000993494942735)
(0.00536342757611 0.0184840568108 0.001172536602)
(0.00397400376046 0.0184646268939 0.00141151503177)
(0.00173428665305 0.0190672722505 0.00179728708901)
(0.00169970727042 -0.00841544557362 -0.00126075925832)
(0.00423939942699 -0.00809812505779 -0.000866982675185)
(0.00611179507914 -0.00670806192009 -0.000591913225127)
(0.00767298519801 -0.00385957598356 -0.000326490284799)
(0.00882440272146 0.000119380083292 -9.98685238526e-05)
(0.00952848051571 0.00362583086455 -0.000272890787335)
(0.00986108716399 0.00516633559345 -0.000368426360404)
(0.0104716343964 0.00735795585421 -0.00164259913633)
(0.0121086258308 0.0085565519686 -0.00241429954022)
(0.0126086562444 0.0126714589402 -0.0022573769407)
(0.0124801279959 0.0153764564867 -0.00146047655675)
(0.0119245052134 0.0177597677132 -0.000543494124215)
(0.0105490842466 0.0177120690972 0.00073463140373)
(0.0088974212918 0.0183577628339 0.00067581114254)
(0.00909928709801 0.0177411293445 0.000776539143005)
(0.00808395936354 0.0172792302505 0.00121268821159)
(0.0072022544018 0.0166881747679 0.00128118082718)
(0.00613792719728 0.0161873936408 0.00138920436593)
(0.00457018153562 0.0161390675754 0.00163156874957)
(0.00203322884368 0.0167986739654 0.00209190862947)
(0.00187596077713 -0.00776989244519 -0.00147313843216)
(0.00469692932694 -0.00753450986286 -0.00109332526725)
(0.00682401997398 -0.00631838362521 -0.000758592131783)
(0.00861047331107 -0.00391231637928 -0.000409933845224)
(0.0099109843803 -0.000407621976771 -5.979949308e-05)
(0.0106492430496 0.00322367290755 8.57563666409e-05)
(0.0110242320948 0.00613630505035 -6.15394003915e-06)
(0.0123022609455 0.00910203066376 0.000316185871864)
(0.0137872844979 0.010957541008 0.000570975851123)
(0.014295456713 0.0124437599522 0.000977050013196)
(0.0141682198444 0.0135303533625 0.00133641935155)
(0.0137305868753 0.0145274485949 0.00161968079896)
(0.0123814231012 0.0147380080725 0.00184455621831)
(0.0108675056237 0.0155374423589 0.00155627410638)
(0.0101828467111 0.0151245970866 0.00140984956943)
(0.00900356246124 0.0146470240181 0.00149764349783)
(0.0079450006003 0.0140470398485 0.00147036141751)
(0.00673284281703 0.0135362194944 0.00150015852426)
(0.00504743350688 0.0136065364226 0.00172362615578)
(0.00231561601443 0.0143882524004 0.00229935904297)
(0.00207246604679 -0.0068923953541 -0.00170771831375)
(0.00526629454903 -0.00671970702702 -0.00132202696861)
(0.00776807789843 -0.00577220801249 -0.000985089652135)
(0.00998008857377 -0.00387115098323 -0.000586800743338)
(0.0119279481856 -0.00102628065233 -8.53556786703e-05)
(0.0134424217247 0.00223096393144 0.000271457996516)
(0.0146655520745 0.00540472223952 0.000418534904705)
(0.0157023183337 0.00840095463685 0.000532855552189)
(0.0162883897653 0.0103299841074 0.00068212265355)
(0.0162879186865 0.0116193417383 0.001053153693)
(0.0155891974858 0.0124895420765 0.00140196982763)
(0.0146634909294 0.0130659676016 0.00172278417139)
(0.0131701379373 0.0129455774286 0.00190160599875)
(0.011709570153 0.0130006903174 0.00185664145459)
(0.0106886915434 0.0124592629106 0.00171661004375)
(0.00951325117185 0.0118666154221 0.00156009816349)
(0.00830767770773 0.0112705021701 0.0014148042341)
(0.00702192357482 0.0108697850064 0.00140041586703)
(0.00533619043724 0.0110081402413 0.00160952416765)
(0.00245657675276 0.0119438944738 0.00237573750166)
(0.00225871212474 -0.00585617798272 -0.00189922810683)
(0.00589116492406 -0.00572708750328 -0.00156705904577)
(0.00879855585274 -0.00503885946369 -0.00124063459965)
(0.0114518992099 -0.00366973642379 -0.000893558626004)
(0.0136987020871 -0.00162814308861 -0.000414559681862)
(0.0154827354725 0.000653799127956 7.71237367013e-05)
(0.0168192410325 0.00290368254239 0.00044696676275)
(0.0178362626121 0.00471788039555 0.000921506118049)
(0.018311833496 0.00635807995021 0.00118327872245)
(0.0181146540662 0.00755206911453 0.0015150540803)
(0.0172765455937 0.00858776736681 0.00169568874738)
(0.0159187288827 0.00939810218995 0.00191165784036)
(0.0141580403454 0.00966933783958 0.00193422313051)
(0.0124981842786 0.00990631184388 0.00183015572415)
(0.0110597851494 0.00969652100163 0.00162072523619)
(0.0096818808766 0.00920800418896 0.00141429756642)
(0.00837437553355 0.00871683527355 0.00120253182349)
(0.00699855308052 0.00844202293874 0.00113669131891)
(0.00538701410525 0.00863286920861 0.00138567767473)
(0.00267448285257 0.00959649787893 0.00231336887008)
(0.00240118783318 -0.00471014219337 -0.00204813342651)
(0.00640999720554 -0.00462798387464 -0.0017660828232)
(0.00977372758922 -0.00412359118663 -0.00149248331496)
(0.012820895592 -0.00316701856081 -0.00120723329478)
(0.0154069431475 -0.00176956341442 -0.000794650555914)
(0.0174626343801 -8.26454884549e-05 -0.000324781401922)
(0.0190027833767 0.00170686604075 0.000104328478102)
(0.019895484983 0.00336712231343 0.000533014693809)
(0.0199881436186 0.00473448409175 0.000878593572861)
(0.0194258495518 0.00586942891981 0.00118921311165)
(0.0182998150039 0.0066762068764 0.00144776179798)
(0.0166895968208 0.00721847800912 0.00158746346035)
(0.0147812022445 0.0075059110135 0.00160969405604)
(0.0128689307836 0.00764836910057 0.00151917578065)
(0.0111409557799 0.0074719586517 0.00129332279849)
(0.00955345006802 0.00712526538533 0.0010508316707)
(0.00810652539281 0.00672994645899 0.00082280478729)
(0.00674319096967 0.00651962343714 0.000745104296732)
(0.00531113398542 0.00674280415598 0.00101767941677)
(0.00279192904405 0.00763725250045 0.0022869596205)
(0.0025079941523 -0.0034893973628 -0.00215497325639)
(0.00680647906128 -0.00348144465412 -0.0018964907051)
(0.0105297959636 -0.00311280189561 -0.0016667848627)
(0.0139341629228 -0.00243117204221 -0.00143110341512)
(0.0167641537544 -0.00145677426875 -0.00107566115631)
(0.0189800926002 -0.00028355964058 -0.000651632152771)
(0.0205292829426 0.000991583494104 -0.000222688751752)
(0.0213196565936 0.00216696567009 0.000219442479822)
(0.0213631233544 0.00325022495918 0.000590471482245)
(0.020630228255 0.00420468155316 0.000886062180463)
(0.0192139869084 0.00499312557645 0.00115110246207)
(0.0173854939733 0.00551314382792 0.00127258818346)
(0.0152722180336 0.00583550204726 0.00128729535087)
(0.0131068961909 0.00599635470705 0.00116993001449)
(0.0111195279966 0.00594464517052 0.00096125066638)
(0.00935025909609 0.00570966334893 0.000698980190046)
(0.00780852999023 0.00540003301902 0.000469058206646)
(0.00644896074794 0.00524564586632 0.000383712390861)
(0.00514694540003 0.0053738873086 0.000698869991282)
(0.00276965332186 0.00608830465755 0.00212209107719)
(0.00256319848257 -0.00226465445076 -0.00219708876677)
(0.00711642845706 -0.0023389695431 -0.0019669794058)
(0.0111119874149 -0.00209810596092 -0.00174981001033)
(0.0147478250399 -0.00162740673369 -0.00153280246285)
(0.0177709637998 -0.000930035974074 -0.00121653310021)
(0.0201021892679 -9.96127954321e-05 -0.000829488145228)
(0.0216729770911 0.000778407971322 -0.000411859856982)
(0.0224347260128 0.00164063108569 1.78433983762e-05)
(0.0223726289645 0.00246116507017 0.000405117241267)
(0.0215772136116 0.0031650772996 0.000741936711798)
(0.0200796646556 0.00378570466906 0.000983139575256)
(0.0180842862289 0.00429601693772 0.00111480610763)
(0.01582848523 0.00464163810201 0.00110517324659)
(0.0135068763539 0.00484788329111 0.000987182972964)
(0.0113133161678 0.00493235736739 0.000781896282683)
(0.00932933014005 0.00484772583818 0.000534623180231)
(0.00764168501096 0.00466017322915 0.000339622914988)
(0.00620020800441 0.00447849674939 0.000263867382734)
(0.00487820054705 0.0043978954946 0.000572186543113)
(0.00258729793468 0.00470759182624 0.00196930545803)
(0.00264990324981 -0.00117272539739 -0.00216318036112)
(0.00742719782692 -0.00130284671493 -0.00197870250585)
(0.0116017736949 -0.00118294558088 -0.0017663069279)
(0.0153738248266 -0.000895324356186 -0.00152887562984)
(0.0185085468235 -0.000466586015626 -0.00118739056813)
(0.0208948408242 4.80494262504e-05 -0.000808611422256)
(0.0224966054888 0.000603664335185 -0.000395539925894)
(0.023286308861 0.00119313029868 3.67440573165e-05)
(0.0232512974713 0.0017307410999 0.000433550600732)
(0.0224099987544 0.00225524222551 0.000765508061569)
(0.0209128251957 0.00271107597315 0.00104019188467)
(0.0189267619109 0.00317788202931 0.0012063921111)
(0.0165755061302 0.00356022555795 0.00124928248009)
(0.0141672514672 0.00384946397731 0.00120246288406)
(0.0118433330944 0.00407752332755 0.00105033555201)
(0.00967177391769 0.00416281472868 0.000876121166508)
(0.00777784360829 0.00409891258662 0.000690382162307)
(0.00608868942237 0.00387127736957 0.000595478538182)
(0.00453273174413 0.00354871226007 0.000826838083103)
(0.00218746599049 0.00338303218582 0.00187781941522)
(0.00276431230525 -0.000310442106361 -0.00208435434264)
(0.00777087928829 -0.000449338927353 -0.00193270294402)
(0.0120733421531 -0.000434520573338 -0.00169590631379)
(0.0159054484445 -0.00032953807699 -0.00143106762132)
(0.0190873475013 -0.000172688987473 -0.00110346583968)
(0.0215497490311 1.29651116264e-05 -0.00072569112078)
(0.0232536203241 0.00023201142719 -0.000298131869359)
(0.0240925589774 0.000493393873385 0.000117492061519)
(0.0240997099564 0.000723583236632 0.000553826525612)
(0.0233465480705 0.000946519860683 0.00095211696844)
(0.0219535961443 0.00122620144195 0.00129244768001)
(0.0200598393049 0.00149897584728 0.00163997928395)
(0.0177323044747 0.00177021357406 0.00184891914358)
(0.0153238982367 0.00201497573768 0.00206682086218)
(0.0129364160609 0.00229789552796 0.00215468391496)
(0.0105776150675 0.00245873788573 0.00217847807462)
(0.00842309052896 0.00247253650348 0.00210889490559)
(0.00634630344709 0.0022838684854 0.0019912424141)
(0.00436574928379 0.00189294775225 0.001894912599)
(0.00175006998479 0.00146266291946 0.00208465897703)
(-0.000165136181353 -0.000648051574 0.0010219448078)
(-0.000469828704889 -0.00057894205969 0.000978561622647)
(-0.00103194405694 -0.000390609669268 0.000761296485684)
(-0.00165567883458 -0.000175786634342 0.000473731889668)
(-0.00233860381403 7.30448993208e-05 7.90369821411e-05)
(-0.00308538112106 0.000372797776455 -0.000396034992929)
(-0.00395655210335 0.000676585618947 -0.000938699009727)
(-0.00485907562883 0.00097816455801 -0.00147684807887)
(-0.00572025984991 0.00121561799998 -0.00205661919748)
(-0.00649742553427 0.00144983892015 -0.00270589359035)
(-0.00705777932459 0.00166549445211 -0.0033876029638)
(-0.00735291543097 0.00186402473569 -0.0040587234375)
(-0.00733556255551 0.00205596922267 -0.00470655095191)
(-0.00700514213935 0.00221488597993 -0.00531028797098)
(-0.00634205550285 0.00230038311126 -0.00585006081413)
(-0.00534984924358 0.00238102300987 -0.00623333157927)
(-0.00407953792105 0.00247700989815 -0.00648874600409)
(-0.00269271174434 0.00258238385116 -0.00661856512211)
(-0.00137769927519 0.00274986636346 -0.00663331130246)
(-0.000360308106898 0.00298902946823 -0.00653188359984)
(-0.000236730085289 -0.00167011670799 0.000901372882515)
(-0.00044693414562 -0.00145678996859 0.00153725322949)
(-0.000896021510375 -0.00100757072555 0.00152525724991)
(-0.00145406201739 -0.000457804187253 0.00119658438752)
(-0.00206278593292 0.000234600779805 0.000754554394355)
(-0.00278754865798 0.00106453957774 0.000281902988982)
(-0.0036740721718 0.00195199920207 -0.000189868956454)
(-0.00464797376036 0.00280330500067 -0.000710186728471)
(-0.00561177158529 0.0035442807761 -0.0012901590998)
(-0.00647125290308 0.00421135157975 -0.0019238765219)
(-0.00709021077701 0.00481539543939 -0.00260737507947)
(-0.00738984450362 0.00537908793899 -0.00334725757265)
(-0.00733912632694 0.00588479121135 -0.00410911607259)
(-0.00700320687029 0.00635309056613 -0.00478322857896)
(-0.00635902639373 0.00669555130344 -0.00538230454382)
(-0.00539827067791 0.00704829905652 -0.0058162340364)
(-0.00422203673211 0.00737378126098 -0.00610565827923)
(-0.00290254757362 0.00769236791065 -0.006257519881)
(-0.0016755131416 0.00804939825983 -0.00624304707286)
(-0.000609304091262 0.00847259210967 -0.00601038768225)
(-9.19787884859e-05 -0.0027141757873 0.000663056903421)
(-6.62575559501e-05 -0.00245078104419 0.00150652819732)
(-0.000358995214944 -0.00187824907782 0.00156403772268)
(-0.000755785830206 -0.00107500521889 0.00119813953061)
(-0.00122081844707 -4.35229458815e-05 0.000738092333807)
(-0.00184353215377 0.00120227073557 0.000297993378465)
(-0.00267930624446 0.00260819763807 -7.67899998815e-05)
(-0.00371132709626 0.00401530478438 -0.000454449452889)
(-0.00481805016849 0.00529208846515 -0.000923624981093)
(-0.00581104218787 0.00637515409012 -0.00148452977859)
(-0.00651602879367 0.00734665980358 -0.00212762501224)
(-0.00686851525287 0.00820938422339 -0.00282603066244)
(-0.00682419471098 0.00896737105916 -0.00361643829536)
(-0.00652290135054 0.00974789514911 -0.00430532059144)
(-0.00592066293959 0.0103604762509 -0.00495201366568)
(-0.00500564653446 0.0110232612155 -0.00535365333184)
(-0.00393635423773 0.0116292786971 -0.00556190776933)
(-0.00275055497324 0.0121822878128 -0.00561504661464)
(-0.00161935324961 0.0126898804371 -0.00551038530255)
(-0.000622666963587 0.0131656672399 -0.00517288348308)
(0.00010688520606 -0.00382136446235 0.000375662044945)
(0.000429728789111 -0.00361228016561 0.00121682400462)
(0.000391435467333 -0.00296245884605 0.00122701134989)
(0.000222615754592 -0.00196507284606 0.000833009340654)
(-4.0592684759e-05 -0.000681257969194 0.000392527090773)
(-0.000464727155075 0.000886452014569 3.01093502492e-05)
(-0.00115352416243 0.00271366695599 -0.000200380326438)
(-0.00220987265326 0.00466983279893 -0.000316423178733)
(-0.00350999170604 0.00638022326109 -0.000650905221576)
(-0.00474621190993 0.0076578508673 -0.00111649709617)
(-0.0056171395797 0.0088413927726 -0.00165420884991)
(-0.00607851377079 0.00998735224826 -0.00233721145719)
(-0.00600509350264 0.0110978159616 -0.00315731315389)
(-0.00569453596092 0.0124090696795 -0.00374628641182)
(-0.00513060066211 0.0133824332486 -0.00441898891576)
(-0.00426420878672 0.014407327794 -0.00476082626224)
(-0.00332512861561 0.0152870253608 -0.00487586391278)
(-0.00228605653848 0.0160428497925 -0.00478749044431)
(-0.0013527758373 0.0166522381724 -0.00454701637656)
(-0.00053580931864 0.0171025150012 -0.00413380396945)
(0.000321821383432 -0.00493156922707 5.04363888566e-05)
(0.000994590259567 -0.00476194442447 0.000849603284111)
(0.00126201061847 -0.00407020669225 0.000847700978981)
(0.00135184998724 -0.00298258080193 0.00049576583392)
(0.00130090993063 -0.0015213984134 0.000151512990531)
(0.00110255067311 0.000337096598493 3.05025605422e-05)
(0.000685253688267 0.00252180865369 5.01328129405e-05)
(-0.000426130849849 0.00482322527869 0.000604226314166)
(-0.0021136523052 0.00696428976826 0.00045929653858)
(-0.00365747161872 0.00857493261815 0.000112805494783)
(-0.00450498570377 0.0101702713922 -0.000509050372203)
(-0.0048698806551 0.0116659432231 -0.00129202967092)
(-0.00454422916165 0.0131599799337 -0.0022755095321)
(-0.00419264944722 0.0148432213545 -0.00285631051527)
(-0.00383113359105 0.0159389881938 -0.00365305677432)
(-0.00309702023774 0.0171517402399 -0.00389834504072)
(-0.00239426127669 0.0181837121491 -0.00392477631986)
(-0.00157678363643 0.019057164164 -0.00371624447207)
(-0.000902479757888 0.0197123464547 -0.00336154748097)
(-0.000402394599583 0.0201701626195 -0.00288152081713)
(0.000544550875636 -0.00601183057907 -0.0002835699571)
(0.00161143775683 -0.00591854168586 0.000475167790124)
(0.00217710842061 -0.0052687567411 0.000537156054526)
(0.00255341700896 -0.00424413194045 0.000372982327357)
(0.00282320413563 -0.00285920239225 0.000275920725648)
(0.0029450426206 -0.00109536411901 0.000349634413612)
(0.00279772998541 0.00116609398863 0.000555919936403)
(0.001806884296 0.00490352114666 0.00106727807467)
(6.60341469033e-05 0.00748782197951 0.000991945706302)
(-0.00172561493461 0.00919320643728 0.000392389636879)
(-0.00275173804341 0.0108606723808 -0.000472245622149)
(-0.00329656710057 0.0122553532329 -0.00140401177531)
(-0.00290306969905 0.0135655946752 -0.00231489811101)
(-0.00267257236359 0.0154730322369 -0.00187086434275)
(-0.0025141616164 0.0170535620397 -0.00263994426129)
(-0.00178021643247 0.0188039820774 -0.00266211376555)
(-0.00127702081717 0.0200890119181 -0.00262651443522)
(-0.000706115382356 0.0210857676543 -0.00237014905666)
(-0.000311604998732 0.0217636943316 -0.00197138665435)
(-0.000161809108269 0.0222396369941 -0.00153552413506)
(0.000747978951833 -0.0070252480757 -0.000676098084438)
(0.00214842333874 -0.00700923415257 8.30827464421e-05)
(0.00297060243997 -0.00641183006613 0.000300896330553)
(0.00353128505213 -0.00544145535001 0.000326910393283)
(0.00393207971586 -0.00422266963795 0.000421071318644)
(0.00438313803242 -0.00291472262536 0.000756855526918)
(0.0059518668279 -0.000856939185593 0.00129285817497)
(0.00450542714555 0.000756610016816 0.00631879558173)
(0.00151910306574 0.00360048111188 0.00650565473872)
(-0.000743295594247 0.00432399528893 0.00549043136133)
(-0.00178871725571 0.00619827691015 0.00405555921713)
(-0.00248587182337 0.00769033726523 0.00212590113311)
(-0.00136876508738 0.0111007387288 -0.000349769990122)
(-0.000465656109127 0.0155084939157 -0.00027469618557)
(-9.00166131276e-05 0.0180342631083 -0.00149365449818)
(0.000420136503272 0.0200025457929 -0.00127113068256)
(0.00030130003525 0.0213126857859 -0.00119360869957)
(0.000410031270048 0.0222718154064 -0.000904046104772)