/*--------------------------------*- C++ -*----------------------------------*\
| =========                 |                                                 |
| \\      /  F ield         | OpenFOAM: The Open Source CFD Toolbox           |
|  \\    /   O peration     | Version:  v1606+                                |
|   \\  /    A nd           | Web:      www.OpenFOAM.com                      |
|    \\/     M anipulation  |                                                 |
\*---------------------------------------------------------------------------*/
FoamFile
{
    version     2.0;
    format      ascii;
    class       volScalarField;
    location    "1.96";
    object      dgdt;
}
// * * * * * * * * * * * * * * * * * * * * * * * * * * * * * * * * * * * * * //

dimensions      [0 0 -1 0 0 0 0];

internalField   nonuniform List<scalar> 
6000
(
-18.1277
-17.965
-17.9981
-19.7625
-19.8449
-19.7313
-19.6015
-19.5122
-19.3805
-19.2178
-18.8339
-18.276
-18.1479
-18.0775
-16.6426
-15.9647
-17.338
-18.9126
-19.7298
-19.937
-20.0124
-20.0266
-20.0557
-20.0348
-19.9799
-19.9643
-19.9566
-19.1842
-17.988
-18.0336
-2.48048
-2.33429
-2.45064
-2.23829
-2.27966
-2.28628
-2.33573
-2.47093
-2.60009
-2.62379
-2.44215
-2.16716
-2.04514
-2.01848
-2.28154
-2.49572
-2.47031
-2.3363
-2.18735
-2.17684
-2.21169
-2.23986
-2.27511
-2.27023
-2.23759
-2.18785
-2.12717
-2.14558
-2.29449
-2.39223
-0.424578
-0.492514
-0.42895
-0.311399
-0.278565
-0.294254
-0.320239
-0.316214
-0.323401
-0.454352
-0.792114
-0.740785
-0.446622
-0.399593
-0.629864
-0.757994
-0.446072
-0.266017
-0.212172
-0.202943
-0.20148
-0.200227
-0.202597
-0.210289
-0.225404
-0.240044
-0.242933
-0.26686
-0.377447
-0.427405
-0.138897
-0.1933
-0.121095
-0.0790005
-0.0631612
-0.0572912
-0.0581774
-0.0582922
-0.0627177
-0.0956811
-0.244524
-0.447659
-0.345024
-0.171961
-0.190743
-0.211743
-0.100206
-0.0507926
-0.0411894
-0.0414392
-0.0390602
-0.0342061
-0.0325404
-0.0351883
-0.0417473
-0.0543167
-0.0775457
-0.122982
-0.171476
-0.156879
-0.0568412
-0.0670063
-0.0385796
-0.026376
-0.0211304
-0.0184735
-0.0180986
-0.0192847
-0.0223077
-0.0295444
-0.0561486
-0.132159
-0.262351
-0.156162
-0.0252544
-0.0417101
-0.0305839
-0.0208312
-0.0167517
-0.0143914
-0.0109109
-0.00857516
-0.00809617
-0.00890846
-0.0118611
-0.0165355
-0.0236215
-0.0358718
-0.0518512
-0.054279
-0.0185214
-0.0197859
-0.0150381
-0.0118632
-0.0104415
-0.010644
-0.0117856
-0.0128206
-0.0132299
-0.0137863
-0.0180302
-0.0407381
-0.101596
-0.128562
-0.0540792
-0.0157863
-0.00335726
0.00708329
0.00263032
-0.00257167
-0.00431456
-0.00439147
-0.00442241
-0.0047848
-0.00536915
-0.0072486
-0.0103838
-0.0137743
-0.0172995
-0.0200767
-0.0109529
-0.0102875
-0.00942177
-0.00896683
-0.00987521
-0.011088
-0.0121702
-0.0128658
-0.0126657
-0.0100536
-0.00201205
0.00839363
-0.00561333
-0.0698872
-0.069595
0.0081222
0.0451549
0.0513873
0.0326582
0.009439
-0.00134146
-0.00331768
-0.00352884
-0.00432774
-0.00497521
-0.0056683
-0.00779961
-0.0103067
-0.0118276
-0.0124231
-0.00899667
-0.00910404
-0.00950333
-0.0103651
-0.0113538
-0.0121791
-0.0127877
-0.0129392
-0.0118707
-0.00608125
0.0164037
0.0656066
0.0604631
-0.0434675
-0.0570823
0.0279409
0.0563929
0.0684583
0.071882
0.0312905
0.00376143
-0.00362762
-0.0044682
-0.00476919
-0.00537593
-0.00691137
-0.00884335
-0.0102101
-0.0110956
-0.0115872
-0.0105604
-0.0116845
-0.012081
-0.0126208
-0.0131438
-0.0136954
-0.0140715
-0.0138828
-0.0114458
-0.000136136
0.0392335
0.0931047
0.0458516
-0.035864
-0.0329951
0.00567599
0.0237334
0.0354232
0.0620227
0.043618
0.00806581
-0.00536117
-0.00784442
-0.00825481
-0.0084565
-0.00950706
-0.0107784
-0.0113575
-0.0117201
-0.0121477
-0.0150447
-0.0147592
-0.0146267
-0.0146747
-0.0149134
-0.0153176
-0.0156947
-0.0153097
-0.0112688
0.00752519
0.053032
0.0627133
-4.38373e-05
-0.0292361
-0.0255078
-0.0170365
-0.00881667
-0.000194395
0.022015
0.0274643
0.0042796
-0.00865574
-0.0115173
-0.0119245
-0.0121531
-0.0127547
-0.012641
-0.01241
-0.0126413
-0.0129861
-0.0172514
-0.0165054
-0.0164378
-0.0158103
-0.0155769
-0.0158545
-0.0164301
-0.0162073
-0.0108649
0.0107819
0.0398567
0.0178518
-0.0205416
-0.0305837
-0.0337903
-0.0347953
-0.0340826
-0.0279439
-0.0122884
0.00372047
-0.00399941
-0.0118539
-0.0139945
-0.0144682
-0.0146592
-0.0144986
-0.0136587
-0.0129946
-0.0130321
-0.0131374
-0.0188986
-0.0175146
-0.0168872
-0.0159966
-0.0156412
-0.0157928
-0.0163223
-0.0162261
-0.0117083
0.00333555
0.010089
-0.018744
-0.0417182
-0.0506364
-0.0573307
-0.0596724
-0.0530533
-0.0457356
-0.0336381
-0.0142481
-0.0129005
-0.0146588
-0.0154349
-0.0157796
-0.0158828
-0.0155222
-0.0145337
-0.0135055
-0.0131082
-0.0131751
-0.020754
-0.0185454
-0.0166875
-0.0157888
-0.0154676
-0.0155436
-0.0161362
-0.0165726
-0.0150286
-0.0108743
-0.01983
-0.043689
-0.0600598
-0.0643802
-0.0689438
-0.068188
-0.0600022
-0.0479425
-0.037368
-0.0210709
-0.0174994
-0.0166634
-0.0166516
-0.0168264
-0.0167802
-0.0163591
-0.0154365
-0.0142101
-0.0132752
-0.0135141
-0.0210886
-0.0187041
-0.0164349
-0.0151556
-0.0149853
-0.0152535
-0.0162294
-0.017636
-0.0192791
-0.024738
-0.0427611
-0.0589403
-0.0662273
-0.0615351
-0.0547008
-0.0579035
-0.0566845
-0.0419421
-0.0323317
-0.023077
-0.020371
-0.0187396
-0.0179477
-0.0176113
-0.0174231
-0.0171502
-0.0163348
-0.0149364
-0.0134401
-0.0137378
-0.0151048
-0.0158474
-0.0157939
-0.0137593
-0.0140476
-0.0149144
-0.0172454
-0.020376
-0.0240493
-0.0369691
-0.0640088
-0.0724887
-0.0739459
-0.064523
-0.0497391
-0.0521299
-0.0550198
-0.0415204
-0.0310601
-0.0263724
-0.0234344
-0.0209777
-0.0191017
-0.018043
-0.0176915
-0.0176949
-0.0170942
-0.0159998
-0.0143311
-0.0119421
-0.0135944
-0.0129394
-0.0143229
-0.0123374
-0.00891773
-0.00939897
-0.0158446
-0.0217156
-0.0278159
-0.0455406
-0.0802991
-0.0933868
-0.0918104
-0.08451
-0.0711149
-0.0589552
-0.0526796
-0.04073
-0.0316561
-0.0291476
-0.0262917
-0.0228286
-0.0198322
-0.0180118
-0.0174646
-0.0178455
-0.017576
-0.0166903
-0.0163534
-0.014849
-0.0129367
-0.0131071
-0.0132011
-0.0125667
-0.00956928
-0.0105893
-0.0131914
-0.0157313
-0.019867
-0.0368416
-0.073157
-0.0993594
-0.0980989
-0.0926659
-0.0819244
-0.0574235
-0.0377538
-0.0365921
-0.0306597
-0.0303489
-0.0284737
-0.0243545
-0.0197547
-0.0174804
-0.0169512
-0.017826
-0.0179873
-0.0181091
-0.0179401
-0.0154088
-0.0138206
-0.0138957
-0.0135603
-0.0133299
-0.0130504
-0.0122916
-0.0108772
-0.00973542
-0.00952664
-0.0142463
-0.03382
-0.0597032
-0.063865
-0.0577389
-0.0480157
-0.0335467
-0.0308008
-0.0372699
-0.0320387
-0.0308809
-0.0283683
-0.0218989
-0.0178596
-0.01685
-0.0170187
-0.0181473
-0.018614
-0.01888
-0.0188463
-0.0177043
-0.0152106
-0.0143892
-0.0133736
-0.012753
-0.0122108
-0.0118035
-0.0102569
-0.00761219
-0.00611758
-0.00670945
-0.0102424
-0.0182712
-0.0220133
-0.0217079
-0.0207563
-0.0231982
-0.0331272
-0.0378953
-0.0332975
-0.033048
-0.0301899
-0.0198048
-0.017395
-0.0156809
-0.0181479
-0.019318
-0.019749
-0.0196886
-0.0194517
-0.0191344
-0.0150728
-0.0138467
-0.0125696
-0.0118617
-0.0114684
-0.0115213
-0.0107141
-0.00818517
-0.00605102
-0.00550767
-0.00536935
-0.00599073
-0.00852113
-0.012158
-0.0162025
-0.0234259
-0.0324333
-0.0380921
-0.038519
-0.0314823
-0.0269592
-0.0239651
-0.0203423
-0.0205332
-0.0208952
-0.0207645
-0.0205058
-0.0201499
-0.01913
-0.0187761
-0.0135363
-0.0125791
-0.0116432
-0.0112187
-0.0111734
-0.011477
-0.0114794
-0.00963615
-0.00691577
-0.00542302
-0.00532911
-0.00652302
-0.0087883
-0.0116711
-0.0152521
-0.0214728
-0.02989
-0.0341709
-0.0281631
-0.0209794
-0.0202316
-0.0219169
-0.0265109
-0.0275171
-0.0256706
-0.0204006
-0.0194208
-0.019304
-0.0165149
-0.0170303
-0.0118891
-0.0113486
-0.0107502
-0.0105719
-0.0109591
-0.0116706
-0.0120503
-0.0109447
-0.00830082
-0.00603215
-0.00662031
-0.00811979
-0.009523
-0.0114667
-0.0148575
-0.021666
-0.0288014
-0.0284299
-0.0215781
-0.0189862
-0.0205413
-0.0284121
-0.0379675
-0.0333156
-0.0215454
-0.0134157
-0.0113127
-0.011921
-0.0138129
-0.0148828
-0.0107993
-0.0105764
-0.0100898
-0.0100148
-0.0107977
-0.0121003
-0.0128719
-0.0122905
-0.0100733
-0.00757811
-0.00785577
-0.00895229
-0.0103193
-0.0124655
-0.0167683
-0.0229041
-0.0257777
-0.0225098
-0.0181915
-0.0187281
-0.0253685
-0.0357387
-0.0349967
-0.0203456
-0.00963172
-0.00624841
-0.00536839
-0.00532742
-0.00816964
-0.0100043
-0.0109245
-0.0108659
-0.0100183
-0.00980853
-0.0110572
-0.0131728
-0.0148514
-0.0144362
-0.012235
-0.0100621
-0.00964891
-0.0103367
-0.01201
-0.0145926
-0.0183143
-0.0215669
-0.0209178
-0.0176469
-0.0170957
-0.021977
-0.0311688
-0.0332414
-0.0220835
-0.010415
-0.0063161
-0.00547552
-0.00437063
-0.00458983
-0.00584898
-0.00838924
-0.0115146
-0.0121928
-0.0105745
-0.0102223
-0.0120978
-0.0152381
-0.0183379
-0.0185064
-0.015768
-0.0135599
-0.0125644
-0.013101
-0.0148964
-0.0166336
-0.0182483
-0.0183816
-0.0165866
-0.0156993
-0.0185353
-0.0250328
-0.0291241
-0.0222895
-0.012005
-0.00726483
-0.00586406
-0.00518202
-0.00500494
-0.00459202
-0.00583114
-0.0083245
-0.0117763
-0.0146249
-0.0110327
-0.00995349
-0.0136874
-0.0179055
-0.0221338
-0.0241859
-0.0222933
-0.0188235
-0.0180104
-0.0181839
-0.0186908
-0.017744
-0.0165657
-0.0153039
-0.0144812
-0.0155222
-0.0189348
-0.0229271
-0.0210843
-0.0138336
-0.00858608
-0.00655666
-0.00572911
-0.00563062
-0.00524621
-0.00470357
-0.00581865
-0.00821865
-0.0111458
-0.013106
-0.0214878
-0.0135463
-0.0168108
-0.0211736
-0.0250014
-0.0277981
-0.0274387
-0.0261614
-0.0252107
-0.0244831
-0.0217964
-0.0178243
-0.014901
-0.0136277
-0.0136268
-0.0147317
-0.0165602
-0.0173254
-0.0145064
-0.0105818
-0.00801583
-0.00671981
-0.00596807
-0.00552203
-0.00541282
-0.00491204
-0.00585705
-0.00823142
-0.0240339
-0.00794314
-0.0202341
-0.0227658
-0.0217033
-0.0253186
-0.0276278
-0.029409
-0.029819
-0.0286036
-0.0286713
-0.0273178
-0.0221169
-0.0170287
-0.0139578
-0.0129847
-0.0128663
-0.012986
-0.0131349
-0.0128975
-0.0116713
-0.00991685
-0.0084237
-0.00743582
-0.00647545
-0.00572277
-0.00553898
-0.00536184
-0.00580022
-0.00825877
-0.00664991
-0.01441
-0.0181004
-0.0234189
-0.02562
-0.0274538
-0.0286652
-0.0289959
-0.0281604
-0.0266853
-0.0269737
-0.0253221
-0.0203387
-0.0161905
-0.0136351
-0.0126127
-0.0120077
-0.0114176
-0.0109873
-0.0109919
-0.0109202
-0.0102376
-0.00906342
-0.00825206
-0.00733638
-0.00657508
-0.00631887
-0.00617444
-0.0063222
-0.00859456
-0.00693998
-0.0136753
-0.0175984
-0.0154004
-0.025373
-0.0282784
-0.027967
-0.026788
-0.0248402
-0.0233598
-0.0231732
-0.0220479
-0.0184336
-0.0155221
-0.0134595
-0.0122715
-0.011379
-0.0106259
-0.0102215
-0.0104287
-0.0108868
-0.0108181
-0.00980158
-0.00906797
-0.00848263
-0.00787179
-0.00757423
-0.00728689
-0.00760829
-0.00862208
-0.0108967
-0.0133937
-0.0164262
-0.0206342
-0.0172588
-0.0256999
-0.0285318
-0.0259927
-0.022586
-0.0207478
-0.0197414
-0.0191595
-0.0168396
-0.0148622
-0.0132304
-0.0120303
-0.0110796
-0.0103593
-0.0100206
-0.0102317
-0.0109304
-0.0113272
-0.0107927
-0.00999309
-0.00973448
-0.00943139
-0.00910959
-0.00860205
-0.00865603
-0.00878194
-0.0123462
-0.0134689
-0.0171039
-0.0165305
-0.0129296
-0.0162312
-0.0241991
-0.0268922
-0.0221878
-0.0191815
-0.0186561
-0.0171305
-0.0156195
-0.0142602
-0.0129753
-0.0118809
-0.0109709
-0.0103056
-0.00999205
-0.0101332
-0.0107918
-0.0117032
-0.0118708
-0.0112248
-0.0108904
-0.010781
-0.0105001
-0.00987125
-0.00936089
-0.00886728
-0.0132633
-0.0138324
-0.0163069
-0.0153628
-0.0125454
-0.0109736
-0.0166992
-0.0225542
-0.0212782
-0.0180347
-0.01771
-0.0159772
-0.0147321
-0.0137424
-0.0127197
-0.0117671
-0.0109378
-0.0103157
-0.00999673
-0.01006
-0.0105281
-0.0116641
-0.0125537
-0.0125937
-0.0122686
-0.0120183
-0.0118309
-0.011268
-0.0103161
-0.00960859
-0.0136305
-0.0140391
-0.0156547
-0.0143173
-0.0109658
-0.0119121
-0.0123214
-0.0175185
-0.0174023
-0.0165463
-0.014457
-0.0151028
-0.0140324
-0.0132892
-0.0124741
-0.0116614
-0.0109296
-0.0103506
-0.0100042
-0.00996591
-0.0102331
-0.0111125
-0.0125101
-0.0134949
-0.0139357
-0.0140279
-0.0140886
-0.0138577
-0.0127965
-0.0124603
-0.0135803
-0.0140324
-0.0153181
-0.0137521
-0.0116048
-0.0104856
-0.0123713
-0.0157301
-0.0161274
-0.0148576
-0.014282
-0.0139913
-0.0134825
-0.0129121
-0.0122806
-0.0116296
-0.011032
-0.0105315
-0.0101749
-0.0100056
-0.0100155
-0.0102963
-0.0114524
-0.0133699
-0.0153317
-0.0166879
-0.0176219
-0.0189105
-0.0192851
-0.0174836
-0.0131859
-0.0138685
-0.0154289
-0.014028
-0.0112029
-0.0116441
-0.0136511
-0.016062
-0.0160478
-0.0144898
-0.0137926
-0.0135255
-0.0132445
-0.0128655
-0.0124677
-0.0120745
-0.0117175
-0.011406
-0.0111525
-0.0109368
-0.0107251
-0.0102162
-0.00987307
-0.0117863
-0.0156784
-0.0190788
-0.0216564
-0.0253324
-0.0266221
-0.0202102
-0.0125036
-0.013531
-0.015939
-0.0154946
-0.0131334
-0.013202
-0.0159879
-0.0171278
-0.0163946
-0.0149216
-0.0142335
-0.0140643
-0.0140174
-0.0139738
-0.0139498
-0.0139447
-0.0139608
-0.0139881
-0.0140312
-0.0140308
-0.0138993
-0.0133079
-0.0113286
-0.0105179
-0.0147085
-0.0203149
-0.0247776
-0.03041
-0.0300252
-0.0168538
-0.0114371
-0.0128137
-0.0169305
-0.0181887
-0.0158483
-0.0159453
-0.018062
-0.0183036
-0.0176781
-0.0168466
-0.0165401
-0.0166336
-0.0168681
-0.0171773
-0.0175222
-0.017888
-0.0182727
-0.018669
-0.0190839
-0.0194685
-0.0197283
-0.0196927
-0.0185277
-0.0152516
-0.0152622
-0.0201556
-0.0251656
-0.0304605
-0.0314454
-0.016733
-0.0101147
-0.0133009
-0.0191737
-0.0219701
-0.0198598
-0.0198781
-0.0202553
-0.020792
-0.0212167
-0.0211747
-0.0211274
-0.0213258
-0.0216908
-0.0221751
-0.022734
-0.0233479
-0.024003
-0.024688
-0.025391
-0.0260689
-0.0266287
-0.0269296
-0.0266737
-0.0245912
-0.0210138
-0.0208779
-0.023526
-0.0276931
-0.0320309
-0.0173516
-0.0095867
-0.0160683
-0.0239133
-0.0268459
-0.0248953
-0.0243023
-0.0249425
-0.0268095
-0.0273623
-0.0269935
-0.0267277
-0.0267879
-0.0271306
-0.027706
-0.0284411
-0.0292721
-0.030146
-0.0310239
-0.0318682
-0.0326297
-0.0332195
-0.0334927
-0.0332363
-0.031814
-0.0281234
-0.0241351
-0.0229259
-0.0261148
-0.0330674
-0.0250402
-0.0137363
-0.0205833
-0.0283619
-0.031444
-0.030382
-0.0312115
-0.0334172
-0.0342152
-0.0332491
-0.0323151
-0.0318594
-0.0318743
-0.0323105
-0.0330827
-0.0340666
-0.0351429
-0.0362234
-0.0372288
-0.0380891
-0.0387596
-0.0391936
-0.0392746
-0.0388102
-0.0373583
-0.0335774
-0.0281484
-0.0246221
-0.0270051
-0.0347782
-0.0304308
-0.0195374
-0.0259027
-0.0288573
-0.0328857
-0.0377812
-0.0405313
-0.041182
-0.0394192
-0.037687
-0.0366211
-0.0361948
-0.0363462
-0.0370039
-0.0380657
-0.0393591
-0.0407357
-0.0420789
-0.0432543
-0.0441255
-0.0446458
-0.0448428
-0.0446697
-0.0439743
-0.0424659
-0.0387081
-0.0324783
-0.0277258
-0.0291129
-0.0363267
-0.034928
-0.0251947
-0.0258506
-0.028572
-0.0367408
-0.0451749
-0.0472773
-0.0450906
-0.0426152
-0.040877
-0.0399023
-0.03964
-0.0400232
-0.0409527
-0.0423411
-0.0440517
-0.0459104
-0.0477201
-0.0492448
-0.0501778
-0.0505077
-0.0504648
-0.0500125
-0.0490228
-0.0473825
-0.0437914
-0.0373243
-0.0316466
-0.0317672
-0.0383078
-0.0395143
-0.0293402
-0.0270097
-0.0322928
-0.0425849
-0.0495083
-0.0491163
-0.0464669
-0.0442303
-0.0427556
-0.042012
-0.0419651
-0.0425891
-0.0439092
-0.0458512
-0.0482357
-0.05088
-0.0535276
-0.0557164
-0.0566547
-0.0563936
-0.0560504
-0.055348
-0.054059
-0.0521105
-0.0486655
-0.0423114
-0.0357517
-0.0344233
-0.0403032
-0.0433067
-0.0340226
-0.0329042
-0.0383472
-0.045937
-0.0511689
-0.0488195
-0.046087
-0.0443363
-0.0433311
-0.0429091
-0.0430975
-0.0440432
-0.0459757
-0.0489247
-0.0524684
-0.0561483
-0.0598446
-0.0631998
-0.0646362
-0.062972
-0.0615017
-0.0603271
-0.0587901
-0.0565839
-0.0530861
-0.0467861
-0.0396542
-0.0366932
-0.0417783
-0.0460154
-0.0415001
-0.0384443
-0.0419009
-0.0479728
-0.0510279
-0.0466426
-0.0442926
-0.0433442
-0.0429593
-0.0428711
-0.0432974
-0.0446561
-0.0474403
-0.050702
-0.0568862
-0.0617226
-0.0662493
-0.0698984
-0.0714711
-0.0682198
-0.0673606
-0.0648207
-0.062485
-0.060204
-0.056648
-0.0501592
-0.0429516
-0.0384445
-0.0424571
-0.04757
-0.0458768
-0.0410087
-0.0427691
-0.0475918
-0.0475543
-0.0437194
-0.0423043
-0.0422551
-0.0423405
-0.0424269
-0.043015
-0.0447673
-0.0483984
-0.0545092
-0.0596752
-0.0649388
-0.0679501
-0.0705383
-0.0740091
-0.0803383
-0.0721607
-0.0687272
-0.0648988
-0.0617985
-0.0583827
-0.0520548
-0.0452307
-0.0395366
-0.0421745
-0.0476288
-0.043368
-0.0404164
-0.0394275
-0.0437359
-0.0459575
-0.0428645
-0.0419655
-0.042119
-0.0422033
-0.0422224
-0.0427719
-0.0447107
-0.0489453
-0.0542401
-0.0583399
-0.0627212
-0.0647803
-0.0674024
-0.0720973
-0.0735857
-0.0734771
-0.0695327
-0.0647838
-0.0608465
-0.0574872
-0.0524562
-0.0462182
-0.039913
-0.0411375
-0.0460939
-0.0393216
-0.0389515
-0.0379862
-0.0426405
-0.0457163
-0.044732
-0.0436313
-0.043084
-0.0427393
-0.0425405
-0.0430738
-0.0448728
-0.0489045
-0.052251
-0.0530134
-0.0599911
-0.0652698
-0.0682667
-0.0682316
-0.066948
-0.0688511
-0.0654532
-0.0627285
-0.0582273
-0.0546983
-0.0514553
-0.0464025
-0.0396313
-0.0397335
-0.0433402
-0.0365085
-0.0418851
-0.0402768
-0.0429206
-0.0472002
-0.0490365
-0.0461295
-0.0442667
-0.0435442
-0.0436062
-0.0448976
-0.047713
-0.0493849
-0.0530022
-0.0514561
-0.05931
-0.0677005
-0.0736361
-0.0743497
-0.068057
-0.0660359
-0.060874
-0.0584607
-0.0544304
-0.0505867
-0.0487716
-0.0461234
-0.0388661
-0.0380655
-0.0397525
-0.0305232
-0.0491735
-0.04393
-0.0420784
-0.0477394
-0.0514103
-0.0466837
-0.044593
-0.0445129
-0.0454931
-0.0468401
-0.0496074
-0.0487926
-0.0535584
-0.052381
-0.0552494
-0.0619963
-0.0724982
-0.0742079
-0.0724952
-0.0677552
-0.0564593
-0.0534692
-0.0495963
-0.0452005
-0.0442552
-0.0447353
-0.037556
-0.0362309
-0.0358524
-0.0271322
-0.0379735
-0.0360636
-0.0322982
-0.0410308
-0.0458524
-0.044651
-0.0444721
-0.0455812
-0.0473766
-0.0488588
-0.046902
-0.0446297
-0.0436217
-0.0413297
-0.0415568
-0.047198
-0.0623362
-0.0572626
-0.0589742
-0.0605308
-0.0519178
-0.0485926
-0.0447654
-0.0392541
-0.0385399
-0.0417779
-0.035229
-0.0342854
-0.0319244
-0.0288975
-0.0282291
-0.0294242
-0.03084
-0.0326817
-0.0384566
-0.045569
-0.0453379
-0.0473575
-0.0496445
-0.0484798
-0.0421586
-0.0373201
-0.0327417
-0.0228823
-0.0183108
-0.0187599
-0.022529
-0.0236947
-0.0256745
-0.0355363
-0.0421401
-0.0418825
-0.0382669
-0.0334605
-0.0325428
-0.0373269
-0.0316219
-0.0318967
-0.0275838
-0.0277975
-0.0268222
-0.0274314
-0.0282332
-0.0334073
-0.0442303
-0.0496673
-0.0452291
-0.0493033
-0.0513042
-0.0476224
-0.0402896
-0.0331336
-0.0266809
-0.0133956
-0.00570274
-0.00434522
-0.00438633
-0.00511121
-0.00532925
-0.0114019
-0.0295456
-0.0377509
-0.0334458
-0.027723
-0.0272976
-0.0318163
-0.0288649
-0.0330079
-0.0244392
-0.033582
-0.032163
-0.0336995
-0.0381141
-0.0429882
-0.0521275
-0.0500006
-0.0480682
-0.0541885
-0.0537497
-0.0473504
-0.038823
-0.0317906
-0.0241311
-0.00997833
-0.00278537
-0.0016128
-0.00141758
-0.00138588
-0.0014523
-0.00408915
-0.0194254
-0.0356349
-0.0297989
-0.0242663
-0.0241294
-0.0273662
-0.0271826
-0.0288505
-0.025575
-0.0396238
-0.0388709
-0.0409675
-0.046996
-0.0599143
-0.0485586
-0.048714
-0.0569329
-0.0627824
-0.0569352
-0.0465133
-0.0368691
-0.0309192
-0.0215814
-0.00733673
-0.00210606
-0.00136709
-0.00123641
-0.00122056
-0.0012405
-0.00332717
-0.0184666
-0.0313118
-0.0275752
-0.0224152
-0.022726
-0.025775
-0.0254989
-0.0270189
-0.0251386
-0.0398025
-0.0386795
-0.0409471
-0.0468522
-0.0511672
-0.0461402
-0.0523634
-0.0629202
-0.0670058
-0.0580488
-0.0446373
-0.0351356
-0.028221
-0.0150822
-0.00499937
-0.0019135
-0.00135683
-0.00128344
-0.00127082
-0.00125466
-0.00288906
-0.0187425
-0.03302
-0.033286
-0.0288832
-0.0240167
-0.0271086
-0.0250181
-0.025157
-0.0270318
-0.0379683
-0.0365974
-0.037275
-0.0394691
-0.0430019
-0.0452802
-0.0575578
-0.0689491
-0.0672489
-0.0566019
-0.0447843
-0.0311178
-0.0176601
-0.0086103
-0.00389074
-0.00187428
-0.00134912
-0.00129177
-0.00127837
-0.00125974
-0.00215277
-0.0145898
-0.0300931
-0.039401
-0.0376987
-0.0252628
-0.027264
-0.0265578
-0.0276832
-0.0261813
-0.0342782
-0.031591
-0.0321058
-0.0325052
-0.036064
-0.0462677
-0.0569073
-0.0640303
-0.0594203
-0.048349
-0.0408505
-0.0175797
-0.00943231
-0.00631258
-0.00367324
-0.00191387
-0.00135835
-0.00129172
-0.00128526
-0.00129772
-0.0017712
-0.00911906
-0.026247
-0.0205934
-0.0200633
-0.0244228
-0.0247075
-0.025885
-0.0247264
-0.0261529
-0.0293607
-0.0246131
-0.0266446
-0.0275093
-0.0320621
-0.0414164
-0.0512103
-0.0524734
-0.0436218
-0.0378649
-0.0198591
-0.00847733
-0.00740039
-0.00605932
-0.003865
-0.00214627
-0.00154354
-0.00147846
-0.00151549
-0.00162655
-0.00186379
-0.00600167
-0.0233186
-0.0195129
-0.0135862
-0.0202981
-0.0227207
-0.0223836
-0.0239918
-0.0265521
-0.0145603
-0.0190693
-0.0223124
-0.024261
-0.030035
-0.0394133
-0.0439893
-0.0403936
-0.0342501
-0.0226713
-0.00885685
-0.00757117
-0.00750746
-0.00651273
-0.0046496
-0.00309326
-0.00250616
-0.00249076
-0.00264093
-0.00289867
-0.00298235
-0.00552783
-0.0202472
-0.0231897
-0.0198791
-0.0207423
-0.0207847
-0.0219236
-0.0248066
-0.0284208
-0.0107458
-0.0166014
-0.0205979
-0.0250265
-0.0322353
-0.0384364
-0.0381125
-0.0306123
-0.0295105
-0.0181631
-0.0123369
-0.0108383
-0.00953111
-0.00853495
-0.00746458
-0.00632713
-0.00591712
-0.00600113
-0.00628366
-0.00660102
-0.00669198
-0.00870481
-0.018619
-0.0233935
-0.0209428
-0.0212288
-0.0217751
-0.0229376
-0.0253288
-0.0276832
-0.0142187
-0.0166086
-0.0229083
-0.029505
-0.0341867
-0.0367632
-0.0328414
-0.0321578
-0.0322773
-0.0255266
-0.0232787
-0.0205317
-0.0170213
-0.0154242
-0.0167201
-0.0148707
-0.0147385
-0.0148434
-0.0150464
-0.0152926
-0.0155206
-0.0170695
-0.0226154
-0.0252226
-0.0229847
-0.0237219
-0.023982
-0.0242244
-0.025032
-0.0274813
-0.0157282
-0.0171682
-0.0248867
-0.0275253
-0.032491
-0.0359662
-0.0289644
-0.0184001
-0.0230969
-0.0296463
-0.0325055
-0.0317184
-0.0298659
-0.0280987
-0.029359
-0.030168
-0.0302203
-0.0303871
-0.0307216
-0.0307652
-0.0308428
-0.0318824
-0.0350821
-0.0337458
-0.0298605
-0.0287325
-0.0264774
-0.0256287
-0.0258909
-0.0276691
-0.0209876
-0.0208914
-0.0254229
-0.0286356
-0.0283568
-0.0254684
-0.0119834
-0.00505815
-0.00885399
-0.0166072
-0.0225787
-0.0293599
-0.0345047
-0.0358314
-0.03287
-0.0404694
-0.0418442
-0.0425874
-0.0438931
-0.0422024
-0.0414906
-0.0401771
-0.0385787
-0.0326242
-0.0288065
-0.0382056
-0.0333463
-0.027101
-0.0262526
-0.0277256
-0.0234779
-0.0429714
-0.0336419
-0.0303175
-0.0236467
-0.0103049
-0.003354
-0.00251704
-0.00341786
-0.00551433
-0.00797983
-0.0130147
-0.018152
-0.0208583
-0.0226416
-0.0252478
-0.0259911
-0.0261641
-0.0244824
-0.0250832
-0.0239491
-0.0210491
-0.0177636
-0.0108554
-0.00803664
-0.0204165
-0.0339368
-0.0260814
-0.0260078
-0.0277681
-0.0241166
-0.0239108
-0.0329274
-0.0225309
-0.00884499
-0.00318212
-0.00238249
-0.00227899
-0.00241703
-0.0026878
-0.0031352
-0.00418304
-0.00540016
-0.00621417
-0.00677937
-0.00739904
-0.00752418
-0.00763459
-0.0077077
-0.00720441
-0.00675078
-0.00575517
-0.00479269
-0.00346342
-0.00328668
-0.00985628
-0.0270791
-0.0278013
-0.0268587
-0.0263863
-0.0224966
-0.0181919
-0.0212617
-0.0129273
-0.00425306
-0.00265116
-0.00236716
-0.00226554
-0.00232335
-0.00236421
-0.00248366
-0.0026934
-0.0028971
-0.00302364
-0.00310546
-0.00321698
-0.00328811
-0.00333624
-0.00333912
-0.00331437
-0.00327577
-0.00308861
-0.00296729
-0.00296569
-0.00293762
-0.00548513
-0.0207732
-0.0262989
-0.0249997
-0.0248582
-0.0204552
-0.0179361
-0.01663
-0.0108768
-0.00410463
-0.00284175
-0.00251162
-0.0023166
-0.00233823
-0.0023818
-0.0024947
-0.00266863
-0.00281933
-0.00289852
-0.00292809
-0.00299114
-0.0030524
-0.00309708
-0.00310541
-0.00311384
-0.0031234
-0.00301578
-0.00299101
-0.003003
-0.00297756
-0.00359376
-0.0110573
-0.0198678
-0.0230929
-0.0214745
-0.0217565
-0.00913587
-0.016806
-0.0138194
-0.00568012
-0.00327732
-0.00277365
-0.00244001
-0.00239069
-0.00242563
-0.0025489
-0.00277999
-0.00300106
-0.00310854
-0.00313222
-0.00318427
-0.00323692
-0.00327259
-0.00327361
-0.00327289
-0.00327521
-0.00315866
-0.00302351
-0.00301955
-0.0029918
-0.00324084
-0.00882394
-0.0164565
-0.0157171
-0.0198263
-0.0202814
-0.0235707
-0.0171774
-0.0192799
-0.00810474
-0.00382121
-0.0031057
-0.00262697
-0.00249951
-0.00251402
-0.00264223
-0.00293957
-0.00324943
-0.00338712
-0.00340646
-0.0034399
-0.0034877
-0.00351667
-0.00351648
-0.00350415
-0.00348735
-0.00337301
-0.00317512
-0.00313537
-0.00300034
-0.00312526
-0.00808936
-0.0181508
-0.0145266
-0.0196648
-0.00947148
-0.0162663
-0.0177339
-0.0215469
-0.0110553
-0.00438439
-0.00346626
-0.00286286
-0.002664
-0.00265481
-0.00278576
-0.00314025
-0.00351621
-0.0036586
-0.00367407
-0.00368742
-0.00373359
-0.00376265
-0.00377238
-0.0037566
-0.00371888
-0.00362488
-0.00342752
-0.00332389
-0.00313251
-0.00314507
-0.00788118
-0.0191327
-0.0147561
-0.0192077
-0.0366695
-0.0181621
-0.0183586
-0.0225779
-0.0144797
-0.00497433
-0.00382676
-0.00313804
-0.00287029
-0.00284015
-0.00297666
-0.00336688
-0.00378544
-0.00391092
-0.00391136
-0.00391274
-0.00396025
-0.00399894
-0.00402567
-0.00401837
-0.003969
-0.00390102
-0.00371902
-0.00353987
-0.0033691
-0.00343104
-0.010355
-0.0194678
-0.014873
-0.0191508
-0.0225173
-0.0161407
-0.0188519
-0.0237922
-0.0167403
-0.00550512
-0.00415463
-0.00343694
-0.00310629
-0.00306123
-0.00320183
-0.00361723
-0.00405996
-0.00414454
-0.00411092
-0.00411414
-0.00416996
-0.00422768
-0.00427867
-0.00429622
-0.00424867
-0.00420065
-0.00402258
-0.0037808
-0.00365549
-0.00400402
-0.0134989
-0.0198844
-0.0148437
-0.0199381
-0.0231233
-0.0169695
-0.0194863
-0.0244403
-0.0176157
-0.00598732
-0.00445625
-0.0037489
-0.00336887
-0.0033119
-0.00344474
-0.00387397
-0.00431859
-0.00435332
-0.00427709
-0.00429385
-0.00436904
-0.0044555
-0.00454034
-0.00459664
-0.00456414
-0.0045301
-0.0043398
-0.00405661
-0.00397191
-0.00481649
-0.0150822
-0.0202033
-0.016466
-0.0214712
-0.0236383
-0.0191393
-0.021909
-0.0233648
-0.0178061
-0.00636528
-0.00473173
-0.00404811
-0.00364367
-0.00357651
-0.00368885
-0.00411368
-0.00453703
-0.00452379
-0.00441337
-0.00444783
-0.00455385
-0.0046786
-0.00480963
-0.00491419
-0.00491319
-0.00488699
-0.00467291
-0.00437079
-0.00431337
-0.00563598
-0.015575
-0.0213578
-0.01874
-0.0218965
-0.0241551
-0.0211737
-0.0229515
-0.0244301
-0.0169031
-0.00647888
-0.00492513
-0.00429985
-0.00390565
-0.00383188
-0.00391505
-0.00431497
-0.0046844
-0.00463813
-0.00452197
-0.00457898
-0.00472666
-0.0049
-0.00508878
-0.00524883
-0.00529564
-0.00527037
-0.00502687
-0.00470257
-0.00463337
-0.00600712
-0.013736
-0.019328
-0.0209814
-0.0222478
-0.0243703
-0.0220389
-0.0236363
-0.0261066
-0.013791
-0.00618385
-0.00500822
-0.00447413
-0.00412183
-0.00404386
-0.00409565
-0.00446329
-0.00474781
-0.00471643
-0.00461009
-0.00469779
-0.00489333
-0.00512311
-0.00537841
-0.00560512
-0.00570882
-0.00567488
-0.00540141
-0.0050197
-0.00485292
-0.00574982
-0.0104324
-0.0194853
-0.0225062
-0.0229543
-0.0245031
-0.0236209
-0.0250826
-0.0219238
-0.00933887
-0.00562387
-0.00498046
-0.00454388
-0.00426234
-0.00418402
-0.00420645
-0.00455252
-0.00477423
-0.00466463
-0.00468255
-0.00481367
-0.0050604
-0.00534886
-0.00567564
-0.0059839
-0.00614227
-0.0060924
-0.00578927
-0.00530511
-0.00495984
-0.00522201
-0.00750858
-0.0158748
-0.0228551
-0.0232869
-0.0259682
-0.0258709
-0.026728
-0.0131783
-0.00628432
-0.00524732
-0.00490529
-0.00452995
-0.00432368
-0.0042474
-0.00424566
-0.00459127
-0.00469628
-0.00478736
-0.00475199
-0.00493461
-0.00523069
-0.00557467
-0.00597281
-0.00637639
-0.00658268
-0.00651912
-0.00618849
-0.00557825
-0.00500487
-0.00472011
-0.00561878
-0.0113818
-0.0230315
-0.0232732
-0.0270471
-0.0264116
-0.0252856
-0.00782536
-0.00550351
-0.00511323
-0.00481771
-0.00448202
-0.00432584
-0.0042566
-0.00424052
-0.00459325
-0.00477122
-0.00473827
-0.0048137
-0.00505752
-0.00539751
-0.00579128
-0.0062563
-0.0067607
-0.00701897
-0.00695061
-0.00659681
-0.00586777
-0.00504877
-0.00468684
-0.00446175
-0.00863433
-0.0224667
-0.0232284
-0.0278987
-0.0278607
-0.0166789
-0.00650771
-0.00550013
-0.00507541
-0.00473981
-0.00443709
-0.00430615
-0.00424586
-0.00422419
-0.00458476
-0.00470689
-0.00472922
-0.00486714
-0.00517644
-0.0055495
-0.00598999
-0.00651651
-0.00711634
-0.00744774
-0.00738213
-0.00701149
-0.00617693
-0.00516208
-0.00465493
-0.00473538
-0.00765552
-0.0204776
-0.0232309
-0.0294732
-0.0254761
-0.0114135
-0.00624463
-0.00579757
-0.0052361
-0.00472277
-0.00441747
-0.00428941
-0.00423045
-0.00419556
-0.00457044
-0.00479461
-0.00470474
-0.00490461
-0.00528224
-0.00568045
-0.00616775
-0.00675062
-0.00743645
-0.00786786
-0.00781368
-0.00743526
-0.00650658
-0.00533758
-0.00482858
-0.0046207
-0.00743545
-0.0200716
-0.0238724
-0.0291291
-0.0232654
-0.0103354
-0.00691062
-0.00643576
-0.00578521
-0.00489297
-0.00444649
-0.00429482
-0.00421136
-0.00415062
-0.00452595
-0.00474698
-0.00468151
-0.0049231
-0.00536714
-0.00579539
-0.00632946
-0.00696672
-0.00773061
-0.00827725
-0.00824692
-0.00786226
-0.00685803
-0.00560497
-0.00474494
-0.00478489
-0.00747922
-0.0202356
-0.0239899
-0.0245151
-0.0213362
-0.0123024
-0.00800736
-0.00745672
-0.00676554
-0.00542685
-0.00461281
-0.00433357
-0.00420278
-0.00404327
-0.00443242
-0.00469865
-0.00467887
-0.00492739
-0.00542886
-0.00590522
-0.0064822
-0.00717422
-0.00801117
-0.00866149
-0.00867743
-0.00828343
-0.00723437
-0.00592974
-0.00494756
-0.00461382
-0.00813454
-0.0211156
-0.0227658
-0.0208403
-0.021856
-0.0156854
-0.00954461
-0.00881338
-0.00810192
-0.00633785
-0.00495935
-0.00440934
-0.00418302
-0.00445989
-0.00431793
-0.00468275
-0.0046886
-0.00492529
-0.00547111
-0.00601986
-0.00663485
-0.0073828
-0.00828981
-0.00901107
-0.00909552
-0.00869711
-0.007633
-0.00631631
-0.00519449
-0.00487619
-0.00931564
-0.021924
-0.022559
-0.0225357
-0.0241698
-0.0184007
-0.0115756
-0.0104592
-0.00969993
-0.00737797
-0.00534084
-0.00446838
-0.00424292
-0.00406621
-0.00447361
-0.00466359
-0.00475069
-0.00492598
-0.00550299
-0.00614646
-0.00679678
-0.0075994
-0.00857324
-0.00933174
-0.00947954
-0.00909606
-0.00803594
-0.00672873
-0.00553275
-0.00515
-0.00996761
-0.0222019
-0.0228902
-0.0238209
-0.0247807
-0.0198053
-0.0136016
-0.0125333
-0.011439
-0.00819607
-0.00553899
-0.00448204
-0.00437882
-0.00419791
-0.00407084
-0.00459725
-0.00486505
-0.00496793
-0.00553798
-0.00628588
-0.00697729