/*--------------------------------*- C++ -*----------------------------------*\
| =========                 |                                                 |
| \\      /  F ield         | OpenFOAM: The Open Source CFD Toolbox           |
|  \\    /   O peration     | Version:  v1606+                                |
|   \\  /    A nd           | Web:      www.OpenFOAM.com                      |
|    \\/     M anipulation  |                                                 |
\*---------------------------------------------------------------------------*/
FoamFile
{
    version     2.0;
    format      ascii;
    class       volScalarField;
    location    "0.34";
    object      alpha.particlesMean;
}
// * * * * * * * * * * * * * * * * * * * * * * * * * * * * * * * * * * * * * //

dimensions      [0 0 0 0 0 0 0];

internalField   nonuniform List<scalar> 
6000
(
0.415381
0.419071
0.415591
0.414264
0.411256
0.409151
0.405814
0.402963
0.400384
0.398758
0.398194
0.397807
0.396876
0.3964
0.395599
0.396129
0.396466
0.397232
0.397536
0.397841
0.398979
0.400937
0.403279
0.40623
0.40915
0.411505
0.414572
0.416199
0.419464
0.41499
0.393083
0.395797
0.392967
0.391492
0.38933
0.388354
0.387246
0.386512
0.385606
0.384992
0.384436
0.384058
0.383819
0.383678
0.383583
0.383687
0.383742
0.38384
0.384048
0.384377
0.384872
0.385495
0.38645
0.387174
0.388281
0.389301
0.391398
0.393025
0.395643
0.392609
0.392059
0.401227
0.394922
0.395143
0.393201
0.392158
0.390552
0.389551
0.388305
0.387497
0.386663
0.386076
0.385781
0.385564
0.385537
0.385471
0.385626
0.38578
0.386146
0.386703
0.387426
0.388227
0.389553
0.39067
0.392183
0.39331
0.395213
0.395148
0.401111
0.391836
0.380706
0.388822
0.38395
0.386328
0.386503
0.386519
0.385923
0.385867
0.385671
0.385715
0.38585
0.385971
0.386148
0.386227
0.386335
0.386254
0.386272
0.386091
0.385974
0.385832
0.385603
0.385506
0.385684
0.385951
0.386499
0.386587
0.386381
0.383891
0.388517
0.380561
0.365294
0.374243
0.374723
0.378966
0.380389
0.38071
0.379589
0.378677
0.378974
0.379859
0.380989
0.381987
0.382764
0.383357
0.383719
0.383669
0.383354
0.382697
0.381899
0.380881
0.379684
0.378828
0.3786
0.379922
0.381118
0.380773
0.379186
0.374602
0.373523
0.364953
0.353544
0.366031
0.371685
0.378801
0.382086
0.382966
0.381432
0.378086
0.375295
0.374171
0.374742
0.375785
0.376887
0.377819
0.378459
0.378381
0.377795
0.376796
0.37573
0.374686
0.374133
0.375421
0.378497
0.382148
0.383611
0.382614
0.379224
0.37177
0.36527
0.352705
0.347727
0.364141
0.374132
0.383713
0.388201
0.388946
0.387439
0.384075
0.379691
0.375719
0.373838
0.373507
0.374019
0.374811
0.375466
0.375377
0.374784
0.373939
0.373513
0.373907
0.375874
0.379988
0.384579
0.3879
0.389358
0.388561
0.383996
0.374194
0.363417
0.346647
0.345573
0.365296
0.378091
0.388886
0.393214
0.39266
0.389266
0.385535
0.382
0.377662
0.374193
0.372489
0.372167
0.372479
0.372911
0.372835
0.372449
0.372069
0.372472
0.374273
0.377812
0.382204
0.385759
0.38954
0.393069
0.393592
0.389099
0.37784
0.364268
0.344298
0.342877
0.363626
0.379011
0.392321
0.397288
0.395966
0.39061
0.384006
0.378647
0.374421
0.370323
0.367652
0.36642
0.366069
0.366121
0.366068
0.36603
0.366309
0.367601
0.370353
0.374515
0.378804
0.384279
0.390979
0.396406
0.39764
0.392381
0.378339
0.362152
0.34136
0.337306
0.357361
0.373872
0.388782
0.397358
0.39816
0.392434
0.383565
0.374432
0.367868
0.363035
0.359811
0.357808
0.356766
0.356382
0.356355
0.356741
0.357734
0.359737
0.362965
0.367877
0.374584
0.383935
0.392897
0.398532
0.397444
0.388327
0.372877
0.355718
0.335656
0.329559
0.348228
0.364587
0.379585
0.392816
0.399581
0.395483
0.384521
0.37059
0.360756
0.35483
0.351118
0.348831
0.347481
0.346908
0.346907
0.347489
0.348821
0.351056
0.354725
0.36067
0.370764
0.385026
0.396125
0.399982
0.392606
0.378978
0.363645
0.346915
0.328182
0.319292
0.338002
0.353693
0.368821
0.385843
0.400902
0.401391
0.388658
0.368851
0.354446
0.348064
0.343323
0.340653
0.339299
0.338769
0.338775
0.339327
0.340668
0.343234
0.347885
0.354206
0.369028
0.38932
0.402082
0.401034
0.385304
0.368199
0.352933
0.337136
0.318392
0.309447
0.329103
0.344525
0.361604
0.381369
0.400579
0.406934
0.394114
0.369568
0.353186
0.345186
0.339117
0.335346
0.333801
0.333215
0.333223
0.33382
0.335338
0.338987
0.344987
0.353013
0.369795
0.3949
0.407514
0.400452
0.380777
0.360938
0.343896
0.328528
0.308925
0.306922
0.327324
0.342754
0.36281
0.384816
0.406588
0.415832
0.403288
0.379264
0.362829
0.353253
0.345712
0.340451
0.337933
0.336938
0.336936
0.337917
0.340386
0.345571
0.353092
0.362743
0.379547
0.404117
0.416446
0.406389
0.384153
0.362037
0.342064
0.326738
0.30643
0.314529
0.335021
0.349332
0.368756
0.390811
0.414768
0.428919
0.417242
0.393227
0.37723
0.36764
0.360107
0.354522
0.351412
0.350187
0.350179
0.351382
0.354441
0.359986
0.36751
0.377188
0.393541
0.418083
0.429483
0.414362
0.390058
0.36802
0.348693
0.334423
0.313963
0.326646
0.346837
0.359356
0.376674
0.397342
0.422589
0.442052
0.431567
0.407611
0.392233
0.382884
0.375652
0.37021
0.366897
0.365562
0.365557
0.366888
0.370178
0.375604
0.382834
0.392268
0.407978
0.432431
0.442575
0.422093
0.396662
0.376105
0.358904
0.346381
0.326165
0.340146
0.360531
0.371742
0.387173
0.406005
0.431304
0.454413
0.444856
0.421585
0.406816
0.397703
0.390737
0.385574
0.382318
0.380948
0.380954
0.382355
0.385626
0.390783
0.397757
0.406941
0.422013
0.445726
0.454879
0.430908
0.405506
0.386799
0.371468
0.360229
0.339774
0.35466
0.375625
0.386098
0.399793
0.416818
0.441366
0.465915
0.457303
0.435098
0.420916
0.41208
0.405404
0.400696
0.397778
0.396542
0.396568
0.397872
0.400834
0.405537
0.412223
0.421129
0.435643
0.458237
0.466351
0.441196
0.41654
0.399559
0.385947
0.375445
0.354405
0.370243
0.391285
0.401366
0.413538
0.429149
0.45271
0.476425
0.468638
0.448214
0.434687
0.426153
0.419839
0.415666
0.413271
0.412309
0.412357
0.413409
0.41587
0.420049
0.426372
0.434992
0.448887
0.469559
0.476767
0.452717
0.42911
0.413416
0.401263
0.391167
0.370116
0.386821
0.406652
0.416338
0.427235
0.441967
0.463597
0.485072
0.479157
0.461236
0.448229
0.439953
0.434065
0.430417
0.428512
0.427818
0.42788
0.428675
0.43067
0.434336
0.440237
0.448632
0.462051
0.480173
0.485381
0.463733
0.442143
0.427183
0.416207
0.406505
0.386748
0.403781
0.420756
0.429861
0.439606
0.45315
0.472039
0.492499
0.489509
0.474369
0.461623
0.453447
0.447995
0.44482
0.443284
0.442781
0.44285
0.443465
0.44511
0.448325
0.453804
0.462158
0.475377
0.490593
0.492734
0.472521
0.453716
0.43975
0.429686
0.420541
0.403681
0.420261
0.433018
0.441124
0.448462
0.463354
0.481646
0.500344
0.501159
0.488195
0.474947
0.466648
0.46159
0.458793
0.457506
0.457119
0.457191
0.457705
0.459114
0.461979
0.467096
0.475614
0.489331
0.502185
0.500512
0.482361
0.464076
0.448938
0.440959
0.432709
0.420053
0.435203
0.443642
0.446721
0.456774
0.47509
0.492669
0.509668
0.513898
0.502391
0.488214
0.479625
0.474838
0.472297
0.471155
0.470824
0.470899
0.471367
0.472638
0.475267
0.480145
0.488944
0.503381
0.514572
0.510004
0.493441
0.475532
0.457614
0.446789
0.443215
0.43482
0.44753
0.44762
0.452074
0.467628
0.485115
0.503906
0.519552
0.525042
0.515427
0.501205
0.492374
0.487741
0.485363
0.484285
0.483955
0.484031
0.484499
0.485706
0.488181
0.492911
0.501887
0.516085
0.52531
0.519921
0.504547
0.485751
0.468268
0.452602
0.446985
0.44696
0.455086
0.448461
0.461598
0.478379
0.496614
0.515463
0.528772
0.533216
0.525904
0.513182
0.504645
0.500186
0.497889
0.496798
0.496427
0.496498
0.497
0.498214
0.500606
0.505152
0.513738
0.526271
0.533253
0.528954
0.516001
0.497452
0.478799
0.46233
0.448099
0.454305
0.459164
0.455211
0.473396
0.489762
0.510454
0.526621
0.535945
0.538924
0.533781
0.523574
0.515965
0.511766
0.509536
0.508409
0.507993
0.508061
0.508599
0.509844
0.512165
0.516426
0.524013
0.533972
0.538874
0.535962
0.526977
0.51137
0.490593
0.474069
0.455351
0.458401
0.463339
0.466851
0.487284
0.506095
0.524128
0.535267
0.541223
0.543075
0.539642
0.532156
0.525878
0.522066
0.519944
0.518842
0.518454
0.518516
0.519025
0.520238
0.522435
0.526273
0.532494
0.539721
0.54303
0.541222
0.535471
0.524797
0.507314
0.488211
0.467278
0.462839
0.471072
0.481961
0.505324
0.522566
0.534812
0.541836
0.545554
0.546462
0.544115
0.538983
0.53409
0.530853
0.529082
0.528306
0.528042
0.528086
0.528482
0.529333
0.531147
0.534357
0.539185
0.544114
0.546439
0.545598
0.541998
0.535214
0.523406
0.506421
0.482933
0.471267
0.483461
0.503429
0.522455
0.534857
0.542893
0.547382
0.54947
0.54942
0.547485
0.543935
0.540317
0.538069
0.537118
0.536844
0.536791
0.536817
0.53701
0.537316
0.538285
0.540423
0.543971
0.547425
0.549384
0.549515
0.547515
0.543139
0.535335
0.523244
0.50459
0.484116
0.499219
0.522807
0.535711
0.544037
0.549497
0.552202
0.552782
0.551531
0.549196
0.546249
0.544291
0.543713
0.543883
0.54408
0.544244
0.54426
0.544223
0.544035
0.543869
0.544314
0.546178
0.549077
0.551468
0.552795
0.552298
0.549678
0.544331
0.536204
0.523582
0.500035
0.515023
0.536938
0.545676
0.551325
0.554875
0.555706
0.55424
0.55096
0.547628
0.544758
0.545995
0.547396
0.548752
0.549501
0.549847
0.549872
0.54962
0.548889
0.547538
0.54605
0.544774
0.547411
0.550813
0.554175
0.555747
0.555028
0.551563
0.545989
0.537397
0.515816
0.529512
0.547473
0.553291
0.556963
0.558256
0.55605
0.550861
0.54499
0.541874
0.540317
0.545423
0.54895
0.551551
0.55273
0.5532
0.55323
0.552823
0.551685
0.549144
0.545548
0.540423
0.541641
0.544754
0.550636
0.555926
0.558306
0.557157
0.553527
0.547749
0.530106
0.54088
0.554922
0.558701
0.560535
0.557647
0.550405
0.541913
0.535286
0.534404
0.535921
0.543573
0.549234
0.552655
0.554066
0.554597
0.554618
0.554132
0.552775
0.549458
0.543817
0.536192
0.534326
0.534952
0.541504
0.550151
0.557449
0.560564
0.558859
0.555111
0.541333
0.549389
0.559811
0.562026
0.559571
0.551106
0.539679
0.530174
0.526712
0.529497
0.533906
0.542159
0.549261
0.553084
0.554577
0.555104
0.555115
0.554619
0.553183
0.549485
0.542505
0.534289
0.529716
0.526511
0.529785
0.539173
0.550741
0.559327
0.562079
0.559904
0.549672
0.555124
0.562474
0.561308
0.552612
0.539593
0.526325
0.520763
0.522376
0.529133
0.534853
0.541595
0.549601
0.553505
0.554994
0.555481
0.555481
0.555006
0.553573
0.549817
0.542133
0.53516
0.529548
0.522506
0.520591
0.525921
0.539039
0.552278
0.561014
0.562461
0.555185
0.558875
0.561894
0.554606
0.541612
0.525871
0.51753
0.516712
0.522449
0.531666
0.537251
0.541635
0.55008
0.553911
0.555338
0.555778
0.555765
0.55532
0.553935
0.550296
0.542271
0.537425
0.532128
0.522914
0.516754
0.517117
0.525532
0.541053
0.554259
0.561601
0.558788
0.560149
0.554586
0.54517
0.529205
0.515742
0.512185
0.516657
0.525913
0.535514
0.540241
0.543358
0.550671
0.554314
0.5556
0.555958
0.555935
0.555545
0.554287
0.550868
0.543652
0.540263
0.53586
0.526496
0.517118
0.511938
0.515666
0.528863
0.544779
0.554157
0.559868
0.557395
0.545724
0.534409
0.517385
0.510259
0.512259
0.521581
0.53235
0.540199
0.543771
0.545688
0.551394
0.554618
0.555634
0.555863
0.55583
0.555536
0.554533
0.551523
0.545759
0.543643
0.540219
0.532815
0.52218
0.512354
0.510428
0.517419
0.534332
0.545398
0.556984
0.551437
0.536439
0.523771
0.510623
0.512628
0.518273
0.528886
0.539064
0.54498
0.547249
0.548237
0.552165
0.554666
0.55529
0.555338
0.555303
0.555135
0.554519
0.55216
0.548061
0.54685
0.544758
0.539249
0.529477
0.518929
0.512999
0.510344
0.524064
0.536548
0.551078
0.543404
0.524161
0.522127
0.515783
0.521175
0.528917
0.538933
0.546259
0.549436
0.550276
0.550346
0.552738
0.554272
0.554429
0.554344
0.554305
0.554194
0.554028
0.552513
0.549953
0.54959
0.548883
0.545983
0.539103
0.528987
0.520486
0.515051
0.522284
0.525424
0.543386
0.534966
0.52007
0.528791
0.52983
0.535974
0.542106
0.548698
0.552063
0.552582
0.552215
0.551667
0.552791
0.553587
0.553761
0.553756
0.553704
0.553526
0.553244
0.552291
0.550986
0.551254
0.551603
0.551188
0.548051
0.541626
0.534732
0.528854
0.528398
0.52013
0.534984
0.526647
0.523749
0.536697
0.542601
0.548282
0.552389
0.554948
0.555222
0.55402
0.552817
0.551959
0.552609
0.55331
0.553752
0.553853
0.553797
0.553521
0.552892
0.551922
0.550877
0.5515
0.552654
0.553943
0.553871
0.551739
0.547688
0.542107
0.536405
0.524003
0.526714
0.524797
0.533343
0.546359
0.552175
0.55614
0.557658
0.557292
0.555621
0.5532
0.551543
0.551563
0.552628
0.553516
0.554072
0.5543
0.554267
0.553918
0.553137
0.55187
0.550285
0.549769
0.551598
0.554126
0.556018
0.556808
0.555941
0.552028
0.545852
0.533038
0.524969
0.53173
0.545729
0.554633
0.558543
0.559685
0.558351
0.555998
0.552543
0.549509
0.548985
0.550757
0.552619
0.553897
0.554572
0.55484
0.554846
0.554549
0.553724
0.552028
0.549602
0.547003
0.547638
0.550628
0.554318
0.557108
0.559393
0.558549
0.554422
0.545038
0.531931
0.540458
0.554856
0.56008
0.561721
0.559672
0.556042
0.550932
0.545818
0.543638
0.546739
0.549976
0.552899
0.554413
0.555074
0.555318
0.55535
0.555143
0.554438
0.552662
0.549154
0.545252
0.541739
0.543623
0.548793
0.554081
0.558728
0.56155
0.560092
0.55459
0.540388
0.547673
0.560055
0.562829
0.561402
0.556753
0.549883
0.542341
0.537843
0.538651
0.545177
0.549944
0.55337
0.554875
0.55548
0.555709
0.555758
0.555619
0.555056
0.55343
0.549534
0.54441
0.537199
0.536336
0.540493
0.547783
0.55503
0.560578
0.562809
0.560089
0.547632
0.553413
0.562672
0.562836
0.557725
0.549596
0.540003
0.532678
0.53185
0.536761
0.544484
0.550327
0.553804
0.555211
0.555761
0.555985
0.556051
0.555963
0.555536
0.554145
0.550352
0.544323
0.535966
0.530933
0.531554
0.53828
0.547748
0.556359
0.56207
0.562722
0.553527
0.557905
0.563068
0.558503
0.549935
0.539597
0.529237
0.524921
0.529551
0.537203
0.544181
0.550745
0.554106
0.555433
0.555953
0.556172
0.556259
0.556226
0.55592
0.554744
0.551283
0.544497
0.537025
0.529209
0.524543
0.528341
0.538048
0.548431
0.557404
0.562494
0.558133
0.560532
0.557964
0.550797
0.540572
0.529121
0.520572
0.522436
0.530997
0.538443
0.544372
0.551132
0.554339
0.555561
0.556037
0.556265
0.556369
0.556376
0.556177
0.555268
0.552197
0.545096
0.538719
0.531086
0.522471
0.520026
0.528002
0.539274
0.549702
0.556931
0.560403
0.559043
0.55005
0.542664
0.531282
0.519741
0.517411
0.524379
0.534608
0.540383
0.545243
0.551539
0.554466
0.555582
0.556049
0.556301
0.556408
0.556427
0.556294
0.555651
0.553115
0.546309
0.541407
0.535434
0.52494
0.517204
0.518605
0.529911
0.541697
0.549106
0.558494
0.553712
0.542294
0.535735
0.522754
0.5165
0.519633
0.529702
0.538971
0.543116
0.546508
0.551967
0.554525
0.555609
0.55611
0.556403
0.556486
0.556481
0.556335
0.555882
0.554032
0.548367
0.545098
0.541023
0.531452
0.520957
0.515982
0.520318
0.534702
0.541876
0.553354
0.546649
0.536099
0.53008
0.517767
0.519939
0.525994
0.535958
0.542907
0.54556
0.54782
0.552345
0.554685
0.555824
0.556355
0.556647
0.556696
0.556639
0.556408
0.556042
0.554824
0.550987
0.549015
0.546104
0.53861
0.528029
0.520902
0.515621
0.527009
0.535528
0.546401
0.539542
0.530932
0.525606
0.521187
0.526821
0.532612
0.541159
0.545946
0.547302
0.548786
0.552868
0.555157
0.556242
0.556765
0.557006
0.557016
0.556901
0.556615
0.556139
0.555278
0.553424
0.553019
0.550788
0.544942
0.535859
0.528768
0.522266
0.52268
0.527516
0.53935
0.532972
0.526809
0.52666
0.528527
0.533481
0.539132
0.545442
0.54773
0.54789
0.549863
0.553737
0.555856
0.556877
0.557319
0.557471
0.557449
0.557298
0.556945
0.556319
0.55532
0.554037
0.554184
0.554803
0.552407
0.544201
0.537278
0.531876
0.530996
0.52149
0.531252
0.52989
0.526193
0.536021
0.536658
0.541019
0.544833
0.547833
0.547218
0.547424
0.551062
0.554868
0.556822
0.557647
0.557943
0.558009
0.557963
0.557819
0.557475
0.556735
0.555312
0.553274
0.552097
0.553945
0.55584
0.554385
0.549113
0.541679
0.539784
0.5282
0.527562
0.531065
0.533085
0.543779
0.545364
0.549057
0.548724
0.546443
0.543051
0.54717
0.552476
0.556266
0.55787
0.558422
0.558564
0.558557
0.558492
0.558366
0.558085
0.557386
0.555739
0.552604
0.549038
0.548372
0.552573
0.55624
0.557192
0.554465
0.548643
0.536507
0.530044
0.534009
0.54009
0.551772
0.553308
0.550989
0.546053
0.540776
0.540286
0.548092
0.554425
0.557751
0.558864
0.559129
0.559116
0.559041
0.558956
0.558848
0.558641
0.558092
0.556559
0.552925
0.547609
0.541878
0.54514
0.550974
0.556454
0.559327
0.558128
0.549064
0.538221
0.540955
0.552437
0.556571
0.551958
0.545435
0.537922
0.535081
0.541463
0.550423
0.556796
0.55918
0.559744
0.559719
0.559561
0.559416
0.559312
0.55923
0.559101
0.558719
0.557503
0.554018
0.547643
0.538963
0.537216
0.542261
0.549826
0.556413
0.560675
0.558944
0.547208
0.550482
0.557018
0.552131
0.544754
0.535898
0.530146
0.534811
0.54581
0.55432
0.559195
0.560457
0.560469
0.560161
0.559864
0.559655
0.559547
0.55952
0.559512
0.559338
0.558486
0.555561
0.548578
0.539433
0.530558
0.531952
0.540728
0.54923
0.556635
0.561121
0.554913
0.556284
0.551567
0.545284
0.53381
0.526895
0.531753
0.541111
0.55181
0.558612
0.561202
0.56138
0.560881
0.560328
0.559909
0.559647
0.559559
0.559617
0.559783
0.559913
0.559577
0.557636
0.551117
0.541656
0.528664
0.522533
0.529019
0.540042
0.549837
0.556072
0.559368
0.554272
0.544499
0.536288
0.519938
0.527988
0.538393
0.549691
0.558046
0.561849
0.562378
0.5617
0.560814
0.560073
0.559588
0.559308
0.559267
0.55941
0.55977
0.560246
0.560576
0.559847
0.555541
0.546279
0.534009
0.521655
0.51738
0.528115
0.541593
0.548913
0.558274
0.548532
0.535794
0.521453
0.521061
0.5356
0.548577
0.55829
0.562536
0.563318
0.562517
0.561283
0.56016
0.559375
0.559079
0.558969
0.558985
0.559086
0.559373
0.560012
0.560925
0.561491
0.560029
0.553236
0.542707
0.529068
0.519181
0.515171
0.531793
0.54096
0.552825
0.541186
0.517875
0.523549
0.529475
0.547898
0.558989
0.563512
0.564204
0.563217
0.561654
0.560066
0.559006
0.558661
0.558604
0.558634
0.558678
0.558713
0.558783
0.559172
0.560152
0.561587
0.562343
0.560249
0.552902
0.540277
0.528142
0.519576
0.520111
0.531363
0.545296
0.530613
0.520915
0.533214
0.545038
0.55943
0.564466
0.565065
0.563837
0.561906
0.559739
0.558219
0.557833
0.557985
0.558141
0.558282
0.55835
0.558343
0.558268
0.55821
0.558542
0.559917
0.561873
0.563001
0.561116
0.553402
0.540426
0.529136
0.523161
0.516661
0.536804
0.523885
0.530267
0.547835
0.559045
0.564946
0.565789
0.564415
0.561971
0.559004
0.55669
0.556228
0.556729
0.557276
0.557641
0.557839
0.557919
0.557888
0.557688
0.557282
0.556875
0.55716
0.559087
0.561664
0.563408
0.562054
0.554552
0.54205
0.534254
0.522266
0.526985
0.531119
0.545422
0.559426
0.564992
0.566221
0.564948
0.561899
0.557908
0.553913
0.553163
0.554247
0.555645
0.556621
0.557124
0.557353
0.557436
0.557384
0.557096
0.556388
0.555173
0.554126
0.554434
0.557722
0.561033
0.56358
0.562843
0.556177
0.546897
0.532982
0.526916
0.541895
0.558069
0.56486
0.56641
0.565348
0.561606
0.556489
0.551101
0.547689
0.549719
0.552321
0.554752
0.556055
0.556686
0.556965
0.557055
0.556963
0.556569
0.555598
0.553597
0.550837
0.548355
0.550706
0.555394
0.559922
0.563663
0.563542
0.558265
0.546465
0.535517
0.551563
0.563836
0.566525
0.565831
0.561587
0.554703
0.54715
0.541467
0.540489
0.545908
0.550493
0.553917
0.555613
0.556433
0.556807
0.556922
0.556784
0.556251
0.55495
0.552105
0.54733
0.541745
0.541301
0.546553
0.553246
0.559688
0.564127
0.564021
0.558047
0.54516
0.55931
0.565809
0.566348
0.562345
0.554236
0.54439
0.535309
0.531752
0.534006
0.541858
0.548629
0.553174
0.555355
0.556406
0.556903
0.557077
0.556909
0.55624
0.55458
0.550814
0.543989
0.53578
0.532852
0.535333
0.543407
0.552259
0.560037
0.564751
0.563578
0.553515
0.563502
0.566386
0.563477
0.554736
0.543365
0.53134
0.52301
0.524301
0.52965
0.53845
0.547006
0.552596
0.555302
0.55657
0.557158
0.557367
0.557255
0.556556
0.554599
0.549941
0.541423
0.531343
0.526335
0.524448
0.530773
0.54179
0.552137
0.560556
0.564822
0.560059
0.565204
0.56425
0.556134
0.543805
0.53025
0.51771
0.514164
0.520749
0.528676
0.536979
0.546213
0.552389
0.555499
0.556873
0.557468
0.557719
0.557682
0.557103
0.555109
0.549894
0.540597
0.53099
0.523192
0.51675
0.518894
0.529099
0.541889
0.552956
0.560537
0.563456
0.564454
0.556255
0.546354
0.531799
0.517052
0.50817
0.51253
0.522656
0.531682
0.53777
0.546522
0.552764
0.555979
0.557271
0.557816
0.558075
0.558137
0.557762
0.556098
0.551018
0.541933
0.535016
0.526616
0.5163
0.510873
0.517091
0.530222
0.54371
0.552669
0.562334
0.560178
0.546704
0.535879
0.519413
0.506603
0.506922
0.517235
0.528753
0.536658
0.540684
0.547628
0.553787
0.5567
0.557774
0.558185
0.558401
0.558534
0.558429
0.557325
0.553034
0.545415
0.540436
0.533668
0.522925
0.512189
0.508783
0.517812
0.534038
0.544458
0.557151
0.553644
0.538211
0.525724
0.508678
0.506684
0.513946
0.525379
0.535357
0.54179
0.544477
0.549916
0.555284
0.557666
0.558336
0.558541
0.558668
0.558799
0.558902
0.558549
0.555814
0.550098
0.54628
0.540946
0.532152
0.521716
0.513663
0.509402
0.523422
0.535556
0.550331
0.54497
0.527098
0.517821
0.509272
0.516341
0.523511
0.534531
0.542326
0.546913
0.549077
0.553477
0.557404
0.558598
0.558784
0.558808
0.558838
0.558907
0.55905
0.559131
0.558333
0.555753
0.552794
0.548021
0.54144
0.532609
0.525376
0.517232
0.521432
0.522411
0.54139
0.534937
0.517891
0.52507
0.522435
0.528475
0.534904
0.542972
0.548926
0.553025
0.554886
0.557227
0.558733
0.559002
0.558943
0.558882
0.558845
0.558833
0.558862
0.558919
0.558817
0.558222
0.557164
0.555039
0.550491
0.543712
0.537697
0.531923
0.531652
0.519306
0.531219
0.525811
0.523795
0.537041
0.536565
0.540878
0.546767
0.552383
0.554682
0.556073
0.557125
0.558209
0.55874
0.55884
0.558789
0.558738
0.558677
0.558591
0.55845
0.558225
0.557826
0.557315
0.556957
0.556985
0.556767
0.553236
0.548609
0.544632
0.543118
0.529219
0.524479
0.526135
0.534287
0.546174
0.547802
0.551323
0.554668
0.555142
0.554005
0.554604
0.555946
0.557345
0.558138
0.55841
0.558476
0.558472
0.558399
0.558245
0.557948
0.557387
0.556368
0.554767
0.553472
0.553365
0.555967
0.557796
0.556804
0.553637
0.550912
0.540687
0.530004
0.534022
0.54449
0.55337
0.555811
0.556108
0.553397
0.550287
0.548503
0.550473
0.55368
0.556151
0.557375
0.557873
0.55806
0.558092
0.558008
0.557798
0.557361
0.55647
0.554705
0.551638
0.548022
0.546017
0.548826
0.55335
0.558389
0.559348
0.556814
0.550019
0.538714
0.542174
0.553452
0.558522
0.557431
0.551886
0.546012
0.54166
0.541323
0.545987
0.55121
0.55479
0.556551
0.557301
0.557609
0.557678
0.557581
0.557307
0.556719
0.555502
0.55293
0.548405
0.542355
0.537945
0.538395
0.543901
0.551499
0.558663
0.560651
0.556843
0.546023
0.548562
0.558727
0.558595
0.551611
0.543951
0.536269
0.533115
0.535802
0.542054
0.548795
0.55334
0.555742
0.556825
0.557278
0.557394
0.557285
0.556927
0.556133
0.554487
0.55104
0.545333
0.537734
0.53209
0.528945
0.5325
0.541511
0.550815
0.559168
0.560549
0.551513
0.55319
0.558472
0.552047
0.543145
0.534536
0.528456
0.527663
0.532268
0.538966
0.546319
0.551873
0.555087
0.556556
0.557151
0.557308
0.55719
0.556766
0.555759
0.553601
0.549249
0.542676
0.534566
0.527971
0.522903
0.524684
0.531001
0.540895
0.551248
0.558728
0.555613
0.55558
0.55099
0.544142
0.534444
0.527986
0.524607
0.524761
0.530098
0.536884
0.544414
0.550755
0.55467
0.556432
0.557069
0.557212
0.557106
0.556717
0.555658
0.553183
0.548386
0.541669
0.53374
0.525804
0.519674
0.51996
0.524776
0.531592
0.542228
0.550269
0.557128
0.552682
0.543054
0.53654
0.52907
0.525896
0.522724
0.52328
0.529564
0.537427
0.544383
0.550532
0.554533
0.556227
0.556677
0.556706
0.556629
0.55641
0.555637
0.553368
0.548858
0.542874
0.536403
0.527663
0.5201
0.517716
0.522383
0.526749
0.534471
0.541784
0.553068
0.546531
0.536459
0.533671
0.528918
0.526268
0.521964
0.524848
0.532695
0.54047
0.545831
0.551044
0.554419
0.555551
0.555609
0.555448
0.555403
0.555446
0.555145
0.553555
0.549794
0.54481
0.540321
0.532745
0.524173
0.518873
0.522091
0.526819
0.532564
0.535361
0.546071
0.540357
0.532533
0.534768
0.531357
0.525779
0.524057
0.529836
0.537208
0.543324
0.547151
0.551277
0.553549
0.553865
0.553361
0.552947
0.552925
0.553276
0.553636
0.552965
0.550327
0.546372
0.543262
0.537502
0.530354
0.5241
0.522458
0.529006
0.534286
0.531979
0.539836
0.534409
0.53384
0.537162
0.532066
0.526517
0.529876
0.534847
0.540242
0.544849
0.547582
0.550324
0.551309
0.550682
0.549815
0.549274
0.549257
0.549759
0.550565
0.550969
0.549667
0.54694
0.544793
0.540615
0.53539
0.530505
0.52626
0.529922
0.536384
0.533561
0.533937
0.532935
0.536016
0.537375
0.531583
0.531503
0.534412
0.537498
0.541183
0.544625
0.546308
0.547631
0.547334
0.54618
0.545248
0.544666
0.544649
0.545198
0.5461
0.547158
0.547211
0.54578
0.544483
0.541507
0.538067
0.534959
0.532502
0.530684
0.536581
0.535646
0.532601
0.534732
0.536064
0.536782
0.533275
0.535425
0.53555
0.537291
0.540086
0.542418
0.543248
0.543245
0.54216
0.540985
0.540253
0.539788
0.539775
0.540221
0.540912
0.542035
0.542988
0.542855
0.54218
0.540306
0.537857
0.53603
0.53645
0.534573
0.536837
0.535684
0.534456
0.535214
0.535522
0.537869
0.536844
0.534067
0.533531
0.535328
0.537552
0.538693
0.538668
0.53789
0.5369
0.536172
0.535969
0.535641
0.535629
0.535943
0.536084
0.536764
0.537698
0.538381
0.538421
0.537594
0.53579
0.534011
0.535098
0.538798
0.539066
0.535611
0.535011
0.534691
0.536335
0.539733
0.533625
0.529909
0.529889
0.532406
0.533783
0.534027
0.533594
0.53302
0.532658
0.532554
0.532837
0.532716
0.532705
0.532814
0.532459
0.532504
0.532823
0.53335
0.533753
0.533655
0.532651
0.530391
0.530995
0.535568
0.54149
0.536874
0.534805
0.534516
0.536944
0.534155
0.52959
0.526275
0.526371
0.528888
0.529463
0.529295
0.529195
0.529243
0.529542
0.529959
0.530479
0.530381
0.530359
0.530452
0.529865
0.529378
0.529038
0.528939
0.529001
0.529217
0.528899
0.526793
0.527202
0.530913
0.535462
0.538354
0.535193
0.534191
0.52903
0.52882
0.52461
0.522319
0.523051
0.525337
0.525045
0.524996
0.525457
0.526347
0.52706
0.527799
0.528384
0.528333
0.528321
0.528343
0.52769
0.526882
0.526142
0.5252
0.524668
0.524716
0.52514
0.523298
0.523026
0.525455
0.529792
0.530741
0.535466
0.531251
0.523925
0.523835
0.520588
0.519827
0.520614
0.52192
0.520695
0.521323
0.522121
0.52379
0.524839
0.525946
0.526636
0.526796
0.526791
0.526613
0.525866
0.524648
0.523555
0.521876
0.520982
0.52034
0.52155
0.520565
0.520258
0.521193
0.524906
0.525581
0.532921
0.528494
0.519643
0.520067
0.518229
0.518545
0.518451
0.518785
0.517314
0.518104
0.519406
0.521424
0.523138
0.524835
0.525811
0.526204
0.526202
0.525776
0.524791
0.522972
0.521184
0.519123
0.517759
0.516896
0.518367
0.518148
0.518621
0.518609
0.52129
0.521188
0.529845
0.527218
0.51776
0.520143
0.517317
0.517424
0.516291
0.516379
0.514335
0.515252
0.517232
0.519639
0.522418
0.524655
0.525867
0.526374
0.526371
0.525814
0.524614
0.522298
0.519409
0.516905
0.514989
0.513845
0.516011
0.515937
0.517229
0.517484
0.521132
0.518729
0.52829
0.526147
0.518733
0.523848
0.51831
0.516755
0.515008
0.514836
0.512613
0.512981
0.515853
0.519294
0.52243
0.524896
0.526087
0.52658
0.526574
0.526038
0.52483
0.522323
0.519073
0.515578
0.512887
0.51223
0.514497
0.514717
0.516495
0.518251
0.524365
0.519395
0.526977
0.523757
0.523364
0.529848
0.522183
0.518588
0.515369
0.514045
0.511204
0.512013
0.515841
0.519654
0.522512
0.524888
0.52605
0.526523
0.526517
0.526001
0.524802
0.522394
0.51946
0.515661
0.511903
0.511
0.513673
0.515073
0.518328
0.522023
0.529966
0.523803
0.524343
0.522616
0.528432
0.531716
0.525395
0.520854
0.515261
0.511959
0.50901
0.509887
0.514096
0.51752
0.520017
0.522133
0.52326
0.523725
0.523717
0.52321
0.522029
0.519878
0.517342
0.513946
0.509854
0.508906
0.511574
0.514825
0.520605
0.525292
0.531686
0.528617
0.522962
0.506668
0.514924
0.516081
0.5104
0.504929
0.49729
0.493334
0.491383
0.491233
0.494488
0.49742
0.499576
0.50134
0.502395
0.502853
0.502847
0.502337
0.501224
0.499412
0.497266
0.494386
0.491339
0.49148
0.49313
0.49698
0.50475
0.510363
0.516025
0.514968
0.506815
0.436911
0.446228
0.449742
0.444913
0.439484
0.432051
0.429857
0.428831
0.428058
0.429869
0.432261
0.434153
0.435641
0.436617
0.437106
0.437091
0.436555
0.435524
0.433947
0.432132
0.429956
0.428306
0.428911
0.429696
0.431833
0.439307
0.444894
0.4497
0.446244
0.436953
0.395608
0.403125
0.410015
0.405914
0.401309
0.397418
0.397561
0.397254
0.397285
0.398335
0.40024
0.401853
0.403272
0.404226
0.404765
0.404743
0.404164
0.40316
0.401652
0.400177
0.39856
0.397483
0.397311
0.397472
0.397314
0.401133
0.405865
0.409984
0.403142
0.395621
0.3685
0.374241
0.381883
0.377479
0.375551
0.37474
0.37703
0.377164
0.3778
0.378987
0.380713
0.382021
0.383415
0.38436
0.384908
0.384886
0.3843
0.383312
0.381857
0.380703
0.379188
0.377931
0.377146
0.376979
0.374702
0.375488
0.3774
0.381854
0.374264
0.368509
0.34396
0.347804
0.355298
0.352415
0.35413
0.355178
0.358414
0.359129
0.360322
0.361822
0.363724
0.364877
0.366263
0.367186
0.367715
0.367693
0.367134
0.366171
0.364761
0.363712
0.361958
0.360422
0.359041
0.358322
0.355143
0.354086
0.352382
0.355269
0.347836
0.343967
0.318112
0.320197
0.328803
0.331225
0.334345
0.33646
0.339862
0.341623
0.343385
0.345268
0.347345
0.348565
0.349967
0.350866
0.35136
0.351342
0.350822
0.349889
0.348484
0.34726
0.345351
0.343445
0.34151
0.339715
0.336337
0.334239
0.331162
0.328797
0.320248
0.318124
0.288469
0.29104
0.304194
0.310707
0.314246
0.317093
0.321187
0.324188
0.326592
0.328788
0.330908
0.332417
0.333851
0.334742
0.33521
0.335196
0.334703
0.333785
0.332348
0.330809
0.32881
0.326587
0.32406
0.321009
0.316901
0.314036
0.310596
0.304216
0.291135
0.288521
0.256642
0.262637
0.280801
0.289573
0.293477
0.297253
0.302222
0.306264
0.309411
0.311887
0.314118
0.315958
0.317444
0.318344
0.318794
0.31878
0.318308
0.31738
0.315895
0.314022
0.311853
0.309357
0.306114
0.302019
0.297007
0.29322
0.289379
0.280791
0.262744
0.256722
0.225709
0.236398
0.257035
0.267477
0.272075
0.276796
0.282543
0.287342
0.291261
0.294148
0.296626
0.298753
0.300326
0.301266
0.301716
0.301706
0.301237
0.300276
0.298695
0.296552
0.294069
0.291174
0.287178
0.282318
0.276544
0.27175
0.267208
0.256959
0.236449
0.225774
0.197861
0.211619
0.232721
0.244074
0.249601
0.255398
0.26168
0.266938
0.271646
0.27516
0.278056
0.280433
0.282079
0.283053
0.283515
0.283504
0.283024
0.282026
0.28038
0.277995
0.275052
0.271529
0.266766
0.261443
0.255144
0.249245
0.243739
0.232574
0.211576
0.197854
0.174919
0.187995
0.207494
0.218298
0.225404