/*--------------------------------*- C++ -*----------------------------------*\
| =========                 |                                                 |
| \\      /  F ield         | OpenFOAM: The Open Source CFD Toolbox           |
|  \\    /   O peration     | Version:  v1606+                                |
|   \\  /    A nd           | Web:      www.OpenFOAM.com                      |
|    \\/     M anipulation  |                                                 |
\*---------------------------------------------------------------------------*/
FoamFile
{
    version     2.0;
    format      ascii;
    class       volScalarField;
    location    "0.34";
    object      Theta.particles;
}
// * * * * * * * * * * * * * * * * * * * * * * * * * * * * * * * * * * * * * //

dimensions      [0 2 -2 0 0 0 0];

internalField   nonuniform List<scalar> 
6000
(
0.000747534
0.0005508
0.000683354
0.0007413
0.000804556
0.000813611
0.000845954
0.000891391
0.000947044
0.000982873
0.000993499
0.000996887
0.00101218
0.00102479
0.00103905
0.00102602
0.0010141
0.00100929
0.00100468
0.0010094
0.00098119
0.000926878
0.000872411
0.000837061
0.000817913
0.000808104
0.000743113
0.000674851
0.000543068
0.000741097
0.0002138
0.00022819
0.000247346
0.000254165
0.000253717
0.000248779
0.000247891
0.000247244
0.000249968
0.000252344
0.00025701
0.000259125
0.000260478
0.000261082
0.000261258
0.000261138
0.000260904
0.00026038
0.000259232
0.000257404
0.000252219
0.000249706
0.000246579
0.000247533
0.000248729
0.000254133
0.000255115
0.000247431
0.000227444
0.000213416
0.000322136
0.00038148
0.000419736
0.000406413
0.000380555
0.000364572
0.000354481
0.000351422
0.000361605
0.000364659
0.000373329
0.000374857
0.000376794
0.00037748
0.000377432
0.000377616
0.000377298
0.000376122
0.000374716
0.000372501
0.000363704
0.000361626
0.000349042
0.000353828
0.000364528
0.000379096
0.000405454
0.000421484
0.000377541
0.00031695
0.000260936
0.000299231
0.000319145
0.000290303
0.000262477
0.000237143
0.000223847
0.000222215
0.000234379
0.000243906
0.000251568
0.00025514
0.000257305
0.000258393
0.000258314
0.000258418
0.000258229
0.000257207
0.00025515
0.000251673
0.000243457
0.000234021
0.000221146
0.000223241
0.000237673
0.000264021
0.000293443
0.000323611
0.000299274
0.000259195
0.000265384
0.000296038
0.000279775
0.000247215
0.00021439
0.000185361
0.000167409
0.000164796
0.000176295
0.000194283
0.000208331
0.000216967
0.000221729
0.000223504
0.000223785
0.000223842
0.000223531
0.000221683
0.000216962
0.000208003
0.000193831
0.000175637
0.000164427
0.000167507
0.000187058
0.000217866
0.000252275
0.000285461
0.000300772
0.000265052
0.000276941
0.000296654
0.00026869
0.000233005
0.000188579
0.000156251
0.000138191
0.000133151
0.000144737
0.000168597
0.000183355
0.000193201
0.000197789
0.000199314
0.00019949
0.000199606
0.000199388
0.000197981
0.000193217
0.000183277
0.000168166
0.000143711
0.00013329
0.000138697
0.000158136
0.000192418
0.000239581
0.000276529
0.000305674
0.00027873
0.000336421
0.000277737
0.000258117
0.000204576
0.000155911
0.000129645
0.000117563
0.000113515
0.00012257
0.000148408
0.000171872
0.000183285
0.000185863
0.000185222
0.000184401
0.000184496
0.000185566
0.000186338
0.000183551
0.000171832
0.000147477
0.000121745
0.000113625
0.000117945
0.000130847
0.000158791
0.000209851
0.000266085
0.000286197
0.000344028
0.000369053
0.000284478
0.000233688
0.000164924
0.000128934
0.000114407
0.000108224
0.000106942
0.000111915
0.000129092
0.00015495
0.000174246
0.000178901
0.000176938
0.000174687
0.000174855
0.000177344
0.000179542
0.000174614
0.000154634
0.000128149
0.00011156
0.000106933
0.000108394
0.000114714
0.000130198
0.000168349
0.000241676
0.000292662
0.000379217
0.000397887
0.000280437
0.000208207
0.000146691
0.000119863
0.000105671
9.91222e-05
0.000101116
0.00011197
0.000132467
0.000153575
0.00016898
0.000173937
0.000171432
0.00016847
0.000168686
0.000171928
0.000174747
0.00016958
0.000153834
0.000132272
0.000111718
0.000100816
9.87599e-05
0.000105284
0.000119266
0.000146379
0.000212605
0.000290318
0.00040738
0.000404816
0.000262939
0.000202425
0.000149576
0.000128859
0.000116796
0.000109021
0.000111679
0.000128424
0.000149525
0.000163189
0.000176735
0.000178681
0.000174621
0.000171022
0.000171259
0.000175122
0.000179592
0.000177784
0.000163905
0.000149763
0.000127786
0.000110813
0.000108143
0.000115991
0.000127518
0.000146766
0.00020357
0.000271618
0.000415114
0.000418367
0.00024493
0.000207964
0.000203306
0.00019632
0.000170829
0.000145783
0.000144235
0.000169246
0.000185836
0.000186362
0.000192796
0.000189764
0.000185037
0.000182239
0.000182288
0.000185045
0.000189941
0.000193262
0.000186501
0.000187467
0.000169663
0.000143618
0.000145179
0.000171455
0.000196435
0.000198591
0.000208812
0.000250806
0.000430243
0.00060142
0.000378825
0.000417771
0.000794501
0.00130874
0.000502186
0.000403097
0.000383304
0.00051306
0.00119196
0.000755662
0.000534204
0.00044653
0.000397878
0.000375817
0.000376213
0.000398903
0.000449089
0.000541201
0.000778342
0.00121836
0.00051653
0.000379572
0.000399552
0.000517698
0.0013357
0.000766719
0.000408681
0.000375099
0.000607771
0.00130737
0.00155986
0.00193628
0.00219021
0.0015759
0.00124568
0.00114704
0.000936153
0.000931693
0.0012688
0.00181719
0.00190584
0.00192329
0.00191598
0.00190269
0.00190305
0.00191767
0.00192808
0.00191483
0.00181749
0.00124741
0.000920631
0.0009261
0.00115208
0.00123444
0.0015937
0.00222404
0.00192157
0.00153818
0.00129666
0.00161141
0.0016344
0.00167629
0.00112262
0.000679732
0.000450276
0.000322063
0.000274323
0.000329519
0.000457067
0.000576666
0.000700487
0.00083187
0.000931161
0.000979743
0.000979045
0.000928295
0.000826275
0.000694156
0.000570275
0.000452223
0.000317786
0.000271456
0.000319645
0.000449514
0.000690107
0.00115425
0.00171011
0.00166198
0.00160889
0.00180976
0.000992637
0.000852924
0.000737376
0.000526499
0.000267873
0.000149323
0.000129386
0.000210369
0.000348814
0.000421501
0.000462106
0.000477922
0.000482427
0.000483528
0.000483285
0.000481525
0.000476108
0.00045925
0.00041739
0.000344678
0.000192075
0.000127353
0.000148457
0.00027257
0.000534777
0.00074211
0.000860587
0.00101321
0.00182131
0.00165613
0.000944146
0.000775281
0.000659592
0.000465623
0.000228294
0.000119483
0.000105686
0.000170526
0.000311538
0.000387036
0.00043311
0.000451189
0.000453833
0.000452945
0.000452683
0.000452928
0.000449311
0.000429833
0.000382713
0.000306721
0.000163357
0.000104166
0.000119553
0.000232975
0.000471384
0.000662233
0.000777107
0.000950686
0.0016728
0.00156454
0.000960263
0.000736931
0.00059074
0.000412585
0.000201459
0.000101168
9.20093e-05
0.000147183
0.000275162
0.000349698
0.000399299
0.000425413
0.000432983
0.000433719
0.000433493
0.00043183
0.000422897
0.000395884
0.000346133
0.000270813
0.000144529
9.09444e-05
0.000101405
0.000205097
0.000415008
0.000593139
0.000739694
0.000965956
0.00157791
0.0014706
0.000939415
0.000689733
0.000537064
0.00037035
0.000183238
8.83933e-05
8.27678e-05
0.000133034
0.000247039
0.000320811
0.000371506
0.000398738
0.000408525
0.00041033
0.000409824
0.000406978
0.000395943
0.00036818
0.000317594
0.000243108
0.000130312
8.16241e-05
8.8552e-05
0.000186337
0.000370209
0.00053825
0.000692885
0.000945025
0.00148303
0.00140435
0.000910673
0.000655898
0.000499585
0.00033565
0.000167785
8.05235e-05
7.53984e-05
0.00012058
0.000223136
0.000295993
0.000345713
0.000371735
0.000381547
0.000383297
0.000382617
0.0003798
0.000368989
0.000342522
0.000292844
0.000219623
0.000116935
7.38404e-05
8.03601e-05
0.000168901
0.000334237
0.000499513
0.000659764
0.000916263
0.00141798
0.00135132
0.000876838
0.000630423
0.000462984
0.000299165
0.000151224
7.38345e-05
6.85077e-05
0.000107468
0.000202864
0.00027516
0.00032371
0.000348446
0.000356698
0.000357522
0.000356961
0.000354952
0.000345625
0.000320392
0.000271823
0.000198808
0.000103539
6.71442e-05
7.39931e-05
0.000152282
0.000296424
0.000461521
0.000633659
0.000883196
0.00136369
0.00124803
0.000829669
0.000604508
0.000428358
0.000269076
0.000135692
6.93957e-05
6.13274e-05
9.29127e-05
0.000182808
0.000255538
0.000302117
0.000325338
0.000332662
0.0003331
0.00033247
0.000330921
0.000322514
0.000298632
0.000251886
0.000177043
8.92571e-05
6.00508e-05
6.98682e-05
0.00013678
0.000266354
0.000425003
0.000604953
0.000837507
0.00126046
0.00110173
0.000787328
0.000574712
0.000395596
0.000243075
0.000124197
6.59532e-05
5.62886e-05
8.00685e-05
0.000160644
0.00023707
0.000281956
0.000303538
0.000310063
0.00031014
0.000309457
0.0003084
0.000300899
0.000278661
0.000233415
0.000153547
7.71581e-05
5.57003e-05
6.65831e-05
0.000124282
0.000240365
0.00039076
0.000571275
0.00079596
0.001116
0.000971614
0.000743896
0.000539599
0.000364241
0.000221284
0.000118371
6.36775e-05
5.27113e-05
7.03729e-05
0.000131168
0.0002195
0.000262151
0.000281892
0.000287697
0.000287569
0.000287113
0.000286098
0.000279523
0.000259213
0.000215612
0.000128197
6.84275e-05
5.21856e-05
6.43017e-05
0.000118737
0.000219031
0.000358703
0.000535249
0.000749956
0.000988131
0.000853279
0.00069641
0.000509524
0.000329749
0.000200785
0.000113231
6.27971e-05
5.0557e-05
6.44559e-05
0.000120002
0.000198408
0.000241863
0.000259911
0.000265041
0.000265071
0.000264665
0.000263648
0.000257735
0.000239164
0.000194517
0.000117206
6.33488e-05
5.01771e-05
6.34234e-05
0.00011346
0.000198822
0.000323214
0.000506991
0.000701357
0.000864041
0.000737554
0.000628669
0.000460405
0.000297015
0.000183213
0.000107239
6.24903e-05
5.05221e-05
6.22888e-05
0.0001089
0.000160837
0.000217287
0.000234938
0.000240248
0.00024051
0.000239835
0.000238531
0.000232286
0.000214128
0.000158168
0.000106438
6.1725e-05
5.05858e-05
6.30383e-05
0.00010731
0.000181837
0.000291847
0.000451368
0.000633667
0.000750982
0.000659311
0.000574849
0.000396866
0.000262996
0.00016412
0.000101058
6.30009e-05
5.37837e-05
6.3791e-05
0.000100673
0.000147352
0.000180719
0.000201509
0.000206702
0.0002069
0.000206169
0.000204699
0.000198274
0.000175863
0.00014493
9.88201e-05
6.36368e-05
5.39711e-05
6.33452e-05
0.000100585
0.000162161
0.000258741
0.000390373
0.000577318
0.000671128
0.000593571
0.000505764
0.000352711
0.000232832
0.000143138
9.50706e-05
6.51911e-05
5.94953e-05
6.83473e-05
9.68737e-05
0.000134181
0.000152896
0.000159417
0.000161034
0.000160803
0.000160468
0.000160074
0.00015796
0.000151377
0.000132232
9.55239e-05
6.81735e-05
5.96512e-05
6.54488e-05
9.44994e-05
0.000141288
0.00022894
0.000347784
0.000502376
0.000601926
0.000530446
0.000425111
0.000302242
0.000197037
0.000129358
9.14311e-05
6.99965e-05
6.67739e-05
7.38635e-05
9.59674e-05
0.000123669
0.000137939
0.000142566
0.000143431
0.000143289
0.000142989
0.00014256
0.000141354
0.000136583
0.000122149
9.49048e-05
7.36039e-05
6.69927e-05
7.02764e-05
9.08661e-05
0.000127439
0.000193347
0.000297514
0.000422992
0.0005375
0.000480186
0.000358857
0.000245083
0.000157097
0.000115907
8.99797e-05
7.58709e-05
7.33585e-05
7.87409e-05
9.56026e-05
0.000115076
0.000125425
0.000128932
0.000129757
0.000129568
0.00012929
0.000128959
0.000127768
0.000124127
0.000113792
9.47959e-05
7.85639e-05
7.35693e-05
7.60989e-05
8.95758e-05
0.000114383
0.000154439
0.000240751
0.000356401
0.00048372
0.000424068
0.000287232
0.000183333
0.000135242
0.0001073
9.06471e-05
8.07039e-05
7.7921e-05
8.17211e-05
9.32855e-05
0.00010587
0.000113013
0.00011586
0.000116801
0.000116829
0.00011661
0.000116209
0.000114938
0.000111987
0.000104976
9.27988e-05
8.16858e-05
7.80681e-05
8.07337e-05
9.03171e-05
0.000106234
0.000133245
0.000180579
0.000284895
0.000424013
0.000357678
0.000214582
0.000154426
0.000122141
0.000103325
9.124e-05
8.30677e-05
7.98244e-05
8.18366e-05
8.84409e-05
9.66186e-05
0.000102104
0.000104979
0.000106441
0.00010715
0.000106992
0.000106008
0.000104349
0.000101404
9.60447e-05
8.81401e-05
8.1772e-05
7.98056e-05
8.28884e-05
9.08481e-05
0.000102523
0.000120771
0.0001526
0.000213349
0.0003567
0.000288078
0.000181742
0.000138577
0.000116371
0.000101666
9.10346e-05
8.36933e-05
8.05282e-05
8.11109e-05
8.45361e-05
9.02512e-05
9.52366e-05
9.86278e-05
0.000100687
0.000101658
0.000101559
0.000100421
9.82482e-05
9.48462e-05
9.00134e-05
8.44888e-05
8.11021e-05
8.04319e-05
8.34308e-05
9.06136e-05
0.000101
0.000115419
0.000137478
0.000180934
0.000286786
0.000262801
0.000166837
0.000133334
0.000115225
0.000101864
9.30936e-05
9.02652e-05
8.98031e-05
9.13885e-05
9.48578e-05
9.96991e-05
0.000104189
0.000107316
0.000109199
0.000110066
0.000110135
0.000109404
0.000107639
0.000104665
0.000100384
9.57299e-05
9.22697e-05
9.05403e-05
9.07895e-05
9.32355e-05
0.0001013
0.000114581
0.000132668
0.000166399
0.000262098
0.000252875
0.000162196
0.000131505
0.000117299
0.000113851
0.000110114
0.000106394
0.000104376
0.000104117
0.000105868
0.000108929
0.000112264
0.000114787
0.000116561
0.000117335
0.000117403
0.000116683
0.000115035
0.000112704
0.000109661
0.000106846
0.000104997
0.000105024
0.000106792
0.000110346
0.000113962
0.000117436
0.000130985
0.000161863
0.000252307
0.000245337
0.000156082
0.000137946
0.000134499
0.00012939
0.000122635
0.000116413
0.000112195
0.000109459
0.000109926
0.000111408
0.000113382
0.000114537
0.000115559
0.000116018
0.000116071
0.000115723
0.000114875
0.000113899
0.000112426
0.000111349
0.00011047
0.000112832
0.000116554
0.000122456
0.000128977
0.000134172
0.00013791
0.000155778
0.00024419
0.000224893
0.000161042
0.000148287
0.000144135
0.000137353
0.00012907
0.000121292
0.00011534
0.000110044
0.000109498
0.000110826
0.000112471
0.000112424
0.000112761
0.000113118
0.000113133
0.000113022
0.000112937
0.000113027
0.000112449
0.000111612
0.000111066
0.000116023
0.000121291
0.000128781
0.00013662
0.00014335
0.000147683
0.000160673
0.000224022
0.000195077
0.000158825
0.000150888
0.000147572
0.000141108
0.000132846
0.000123377
0.000115414
0.000108982
0.000107108
0.00010831
0.000109776
0.000109689
0.000110218
0.000110468
0.000110589
0.000110496
0.00011002
0.000110359
0.000109929
0.000107447
0.00010804
0.000114404
0.000122315
0.00013223
0.000139971
0.000146374
0.000150092
0.000158339
0.000194893
0.000170956
0.000155431
0.000149716
0.00014989
0.000140815
0.000136455
0.000130701
0.000121505
0.000113296
0.000113394
0.00011119
0.000110318
0.000109417
0.000109347
0.000109434
0.000109491
0.000109418
0.000109371
0.000109855
0.000109761
0.000110779
0.000112228
0.000119453
0.000128744
0.000135077
0.000138885
0.000147954
0.000148673
0.000154868
0.000170919
0.000154281
0.000151273
0.000148329
0.00014978
0.00015097
0.000147011
0.000129702
0.000117358
0.000113825
0.000125201
0.000128751
0.00011794
0.00011227
0.000110464
0.000110118
0.000110111
0.000110285
0.000111517
0.000115584
0.000123584
0.000126716
0.000114095
0.00011547
0.000128032
0.000145797
0.000147761
0.000148178
0.000147098
0.000150682
0.00015408
0.000144723
0.000147707
0.000137186
0.00016345
0.000156786
0.000140254
0.000120973
0.000111628
0.000113818
0.000122502
0.000138507
0.000129319
0.000116828
0.000113055
0.00011205
0.000111939
0.000112484
0.000115284
0.000125636
0.000135668
0.000127346
0.00011445
0.000111155
0.000119445
0.000137561
0.000155865
0.000161535
0.00013631
0.000147409
0.000144704
0.000136404
0.000155858
0.000137712
0.000156458
0.000146846
0.000136072
0.000112323
0.000113234
0.000117928
0.000124953
0.000136028
0.000133675
0.000120543
0.000116509
0.000115112
0.000114809
0.000115561
0.000118577
0.00012914
0.000135464
0.000128814
0.000118162
0.000113152
0.000111695
0.000131882
0.00014645
0.000156564
0.00013799
0.000156652
0.000137074
0.000128986
0.000150994
0.000148119
0.000150449
0.000140277
0.000121769
0.000116321
0.000120538
0.000126368
0.000129426
0.000136754
0.000134791
0.000125049
0.000121021
0.000119305
0.000118924
0.000119741
0.000122542
0.00013045
0.000137685
0.000130605
0.000126116
0.000119888
0.000115534
0.000118404
0.000138598
0.000150101
0.000148999
0.000154251
0.000127675
0.000149158
0.000141042
0.000147691
0.000142638
0.000129417
0.000127486
0.000126926
0.000128843
0.00013078
0.000132778
0.000139994
0.000137408
0.000130317
0.000126448
0.000124618
0.000124194
0.000125152
0.000127974
0.000134314
0.000140474
0.00013287
0.000129948
0.000129273
0.000125715
0.000125168
0.000126898
0.000141223
0.000150029
0.000144042
0.000145969
0.000179651
0.000140501
0.000143083
0.000134533
0.000136842
0.000136624
0.000133719
0.000134171
0.000135594
0.000139743
0.0001434
0.000140277
0.000135114
0.000131832
0.000129998
0.000129597
0.00013067
0.000133305
0.000138491
0.000143121
0.000138834
0.000134426
0.000133788
0.000133548
0.00013492
0.000135632
0.000132075
0.00014422
0.000141551
0.000177568
0.000182949
0.000143665
0.000139767
0.000143616
0.000144805
0.000141097
0.000139578
0.000141193
0.000144909
0.000146592
0.000146025
0.000142504
0.00013868
0.000135898
0.000134157
0.000133726
0.000134784
0.000137062
0.000140869
0.000144848
0.000144597
0.00014402
0.000140222
0.000138762
0.000140064
0.000144166
0.000143177
0.000138389
0.000144316
0.000181953
0.000183804
0.000149616
0.000147971
0.000150666
0.00014741
0.000146258
0.000147854
0.000151639
0.000153668
0.000151085
0.000148014
0.000143954
0.000140569
0.000137981
0.000136387
0.000135982
0.000136753
0.000138628
0.000141472
0.000145356
0.000147988
0.000151656
0.00015088
0.000147253
0.000145655
0.000147664
0.000151242
0.00014901
0.000149702
0.000184278
0.000180145
0.000152418
0.000152656
0.000151511
0.000151077
0.000152481
0.000157214
0.000161716
0.000160069
0.000154524
0.000149288
0.000144434
0.00014065
0.000138151
0.000136739
0.000136368
0.000136795
0.000138248
0.000140766
0.000144609
0.000149526
0.000156056
0.000160151
0.000157574
0.00015361
0.000152201
0.000152893
0.000155141
0.000154965
0.000181662
0.000173912
0.000155019
0.000152707
0.000152724
0.000155179
0.000160401
0.000166068
0.000167043
0.000163881
0.000155929
0.000148999
0.000143151
0.000139195
0.000136989
0.000135873
0.000135499
0.000135748
0.000136633
0.000138653
0.000142548
0.000148477
0.000156589
0.000162572
0.00016581
0.000162537
0.000157972
0.000155679
0.000156242
0.000158729
0.000175607
0.000169554
0.000156062
0.000153429
0.000154544
0.0001595
0.000166809
0.000167691
0.000162291
0.000158188
0.000151199
0.000144305
0.000138908
0.000135842
0.00013458
0.000134176
0.000134066
0.000134081
0.000134194
0.00013497
0.000137526
0.000142298
0.000146622
0.000153563
0.000164464
0.000168372
0.000164422
0.000159213
0.000158026
0.00016003
0.00017192
0.000162379
0.000154618
0.000153778
0.000156022
0.00016199
0.00016318
0.000154297
0.000144364
0.000141091
0.00013945
0.000135358
0.000132226
0.000131348
0.000131752
0.00013242
0.000132832
0.000132752
0.000132129
0.000131337
0.00013171
0.000133923
0.000137972
0.000139902
0.000148189
0.000163399
0.000168385
0.000163375
0.000159979
0.000159905
0.000165036
0.000152669
0.000151466
0.000152117
0.000156568
0.000154957
0.000144639
0.000138815
0.000131512
0.000131013
0.000129304
0.000125807
0.000125549
0.000127313
0.000129537
0.000131322
0.000132352
0.000132458
0.000131732
0.000130427
0.000129893
0.000132745
0.000139253
0.0001399
0.000145006
0.000150609
0.000159171
0.000168017
0.000160379
0.00015835
0.000156355
0.00014382
0.000146847
0.000148455
0.000151781
0.000148584
0.000146471
0.000134333
0.000124868
0.000124919
0.000123803
0.00012066
0.00012192
0.000125642
0.000129024
0.000131501
0.000132965
0.000133497
0.00013311
0.000132449
0.000133013
0.000139179
0.000141692
0.000138801
0.000140171
0.000156654
0.000163301
0.000153853
0.000155353
0.000152892
0.000148809
0.000137216
0.000142822
0.000140825
0.000146647
0.000160537
0.000147124
0.000131308
0.000127625
0.000128078
0.000126094
0.000121435
0.000123522
0.000127179
0.000130528
0.000133069
0.000134764
0.000135747
0.000136015
0.000136344
0.000138486
0.00014434
0.000142302
0.000135018
0.000138577
0.000146544
0.000167274
0.000163251
0.000130449
0.000142157
0.000140277
0.000129422
0.000134521
0.000134911
0.00016939
0.000154795
0.000143186
0.000137304
0.000142643
0.000147407
0.000137882
0.000130212
0.000129695
0.000131617
0.000133994
0.000136
0.000137512
0.000138598
0.000139489
0.000140571
0.00014335
0.000147674
0.000145118
0.000141583
0.000138539
0.000146256
0.000161179
0.000151211
0.000147481
0.000150955
0.000132139
0.000119309
0.000160412
0.00016749
0.000151604
0.000151717
0.000143662
0.000151598
0.000156447
0.000157368
0.000150217
0.000140904
0.000137439
0.000137361
0.000138408
0.000139602
0.000140726
0.000141792
0.000142939
0.000144451
0.000147264
0.000151178
0.000151319
0.000150716
0.000151845
0.000160457
0.000158816
0.00016125
0.000186169
0.000158993
0.00013817
0.000147911
0.000157256
0.000172696
0.000153749
0.000155554
0.000156392
0.000153738
0.000155265
0.000156843
0.000155497
0.000147989
0.000143976
0.000142855
0.000142906
0.000143361
0.000144012
0.000144856
0.000145989
0.000147644
0.000150397
0.000154374
0.000157392
0.000159804
0.000164409
0.000173082
0.000185741
0.000185289
0.000164339
0.000139105
0.000177456
0.000184313
0.000138931
0.000159263
0.000185422
0.000169599
0.00016189
0.000158509
0.000158715
0.000159445
0.00015726
0.000152136
0.00014897
0.00014759
0.000147063
0.00014695
0.000147113
0.000147558
0.00014841
0.000149909
0.000152552
0.000156722
0.000161715
0.000167333
0.000174025
0.000181317
0.00018694
0.000180913
0.000170317
0.000159265
0.000176705
0.000187792
0.000172132
0.000180056
0.000185293
0.00017642
0.000167193
0.000163025
0.00016204
0.000161103
0.00015843
0.000155172
0.00015295
0.000151638
0.000150818
0.000150286
0.000149968
0.00014988
0.000150127
0.00015101
0.000153076
0.000157263
0.000163839
0.000172382
0.000182107
0.000186618
0.00018781
0.000185256
0.000177928
0.000174219
0.000183111
0.000208119
0.000192611
0.00019388
0.000190016
0.000177401
0.000168883
0.000164862
0.000163154
0.000161795
0.000159858
0.000157906
0.000156404
0.000155254
0.000154297
0.000153466
0.000152717
0.000152034
0.000151506
0.000151333
0.000152078
0.00015503
0.000161726
0.00017195
0.00018631
0.000192622
0.000191869
0.000187765
0.000183054
0.000182117
0.000188918
0.000205274
0.000203456
0.000202161
0.000190593
0.00017373
0.000166431
0.00016359
0.000162905
0.000162508
0.000161657
0.000160628
0.000159629
0.000158643
0.000157648
0.000156647
0.000155599
0.000154439
0.000153139
0.000151723
0.000150337
0.000150083
0.000153565
0.00016408
0.000172823
0.000188598
0.000196293
0.000191088
0.00018598
0.000184951
0.000190411
0.0002012
0.000211571
0.000208297
0.000175873
0.000164747
0.000160942
0.000161479
0.000163049
0.00016383
0.00016384
0.000163403
0.000162716
0.00016186
0.000160895
0.000159857
0.000158715
0.000157383
0.000155699
0.000153433
0.000150588
0.000147161
0.000144393
0.000147351
0.000154803
0.000166586
0.000182213
0.000192435
0.000185938
0.000183287
0.000181291
0.000197702
0.000218755
0.000169803
0.000168818
0.000157987
0.000157983
0.000161623
0.000164314
0.000165755
0.000166222
0.00016608
0.000165542
0.000164753
0.00016382
0.000162809
0.000161729
0.000160521
0.000159004
0.000156834
0.000153586
0.000149393
0.00014477
0.000140515
0.000151795
0.00015699
0.000169277
0.000170527
0.000183851
0.000177494
0.000171178
0.000176099
0.000199553
0.000165977
0.000172767
0.000158255
0.000159934
0.000163435
0.000166332
0.000167943
0.000168539
0.000168519
0.000167997
0.000167129
0.000166109
0.000165084
0.000164131
0.000163195
0.000162072
0.000160442
0.000157988
0.000154538
0.000151143
0.000149256
0.000146053
0.000164963
0.000164834
0.000166656
0.000154004
0.000172408
0.000162175
0.000164414
0.000161206
0.000192565
0.000173438
0.000164721
0.000163983
0.00016638
0.000168889
0.000170393
0.000170919
0.000170759
0.000169986
0.000168776
0.000167437
0.000166249
0.000165389
0.000164834
0.000164343
0.000163676
0.000162433
0.000160321
0.000158553
0.000159327
0.000158573
0.000162831
0.000171848
0.000161932
0.000155564
0.000165786
0.000150646
0.000177876
0.000148645
0.00018167
0.000177304
0.000169913
0.000168251
0.000169942
0.000171951
0.000173154
0.000173387
0.000172714
0.00017123
0.000169225
0.000167236
0.000165715
0.000164833
0.000164773
0.000165307
0.000166044
0.000166366
0.000165956
0.000165478
0.000166719
0.000170204
0.000169259
0.000175616
0.000170445
0.000186102
0.000167917
0.000140036
0.000193803
0.000174348
0.000174918
0.00017538
0.000172135
0.000171734
0.000173385
0.000175201
0.000176075
0.000175811
0.000174238
0.000171507
0.000168319
0.000165398
0.000163317
0.000162455
0.000162894
0.000164477
0.000166855
0.000169199
0.000170833
0.00017171
0.000172818
0.000175655
0.000179742
0.000180738
0.000192053
0.000181673
0.000147936
0.000167948
0.000201344
0.000183837
0.000177129
0.000174567
0.000173698
0.000174459
0.000176606
0.000178558
0.000179209
0.000178181
0.000175246
0.000170809
0.000166007
0.000161897
0.0001592
0.00015829
0.000159071
0.000161782
0.000165958
0.000170695
0.000174558
0.000176978
0.000178378
0.000179787
0.000182659
0.000186497
0.000183764
0.000175737
0.000160062
0.000183786
0.000198725
0.000186044
0.000177283
0.000174845
0.00017506
0.000177101
0.000180015
0.000182237
0.00018252
0.00018017
0.000175377
0.000169003
0.000162569
0.00015746
0.000154255
0.000153063
0.000154119
0.000157488
0.000163251
0.000170386
0.00017699
0.000181258
0.000183511
0.000183777
0.000184171
0.00018524
0.000185463
0.000178722
0.000185248
0.000200465
0.000196761
0.000183192
0.00017601
0.000174551
0.000176265
0.000179805
0.000183763
0.000185699
0.000184126
0.00017946
0.000173209
0.000165286
0.000157761
0.000152192
0.000148804
0.000147425
0.000148336
0.000151828
0.000158215
0.000167164
0.000175914
0.000182147
0.000187519
0.000187633
0.000186016
0.000184533
0.00018347
0.000183479
0.000187564
0.000201995
0.000186031
0.000177426
0.000172699
0.000172967
0.000176992
0.000182302
0.000186031
0.000183615
0.000176933
0.00017097
0.000164942
0.000157425
0.000150492
0.000145633
0.00014281
0.000141579
0.000141876
0.000144392
0.000150015
0.000157763
0.000165444
0.000172518
0.000183188
0.000188096
0.000187825
0.000184326
0.000181466
0.00018131
0.000186441
0.000194955
0.000173087
0.000169114
0.000167311
0.000170469
0.00017716
0.000182894
0.000177542
0.000167097
0.00015816
0.000151553
0.000148413
0.000145696
0.000140931
0.00013807
0.000136751
0.00013607
0.00013558
0.000136096
0.000139007
0.000145731
0.000147632
0.000152098
0.000162111
0.000173196
0.000187413
0.000184106
0.000179522
0.000177025
0.000180296
0.000187722
0.000160772
0.000159299
0.000161
0.000167277
0.000177178
0.000169535
0.000159957
0.000152452
0.000141297
0.000135247
0.000136329
0.000132312
0.000130872
0.000131012
0.000131929
0.000132077
0.000131107
0.000129341
0.00012957
0.000133324
0.000137852
0.000143396
0.000145825
0.000152198
0.000171128
0.000181106
0.000175941
0.000171618
0.000171019
0.000173666
0.000148554
0.000149223
0.000152969
0.000161768
0.000165908
0.000160832
0.000163168
0.000153041
0.000135312
0.000126844
0.000126238
0.000123879
0.000123402
0.00012707
0.000130078
0.00013118
0.000130113
0.000127324
0.000123811
0.000128705
0.000133691
0.000136121
0.000145873
0.000160396
0.000163588
0.000158847
0.000169241
0.000164078
0.000160488
0.000159157
0.000136468
0.000138681
0.000142524
0.000150603
0.000164361
0.000181742
0.000171938
0.000148615
0.000143942
0.000139922
0.000129045
0.000120824
0.000124587
0.000129405
0.000132614
0.000133975
0.000133194
0.00013094
0.000128559
0.000128337
0.000139233
0.00014487
0.000138618
0.000159769
0.000173272
0.000160018
0.000146564
0.000152711
0.000148814
0.000145974
0.000125059
0.000128227
0.000128642
0.000145879
0.000184807
0.000180501
0.000159178
0.00014247
0.00014185
0.000153028
0.000154177
0.000139152
0.000136764
0.000137933
0.00013969
0.000140542
0.000140273
0.000139454
0.000140336
0.000145586
0.000153109
0.000142433
0.000144298
0.000151193
0.000161843
0.000170125
0.000155489
0.000127551
0.000134982
0.000132965
0.000116256
0.000119359
0.000123339
0.00017067
0.000163027
0.000169511
0.000159027
0.000138241
0.000135692
0.000153704
0.000165108
0.000156944
0.000150168
0.000148452
0.000148543
0.000148733
0.000148795
0.000149103
0.000151338
0.000156627
0.000156119
0.000151132
0.000145502
0.000155349
0.000168104
0.000153773
0.000156456
0.000137149
0.000138156
0.000124552
0.000111693
0.000137966
0.000141165
0.000152815
0.000167101
0.000175553
0.000152925
0.000141736
0.000145
0.000157571
0.000168279
0.000163845
0.000158571
0.000156515
0.000155849
0.0001558
0.000156262
0.000157246
0.000159373
0.000163079
0.000164717
0.000161843
0.000158734
0.000162615
0.000168517
0.000177129
0.000167437
0.000163726
0.000150152
0.000126003
0.000133899
0.000137933
0.000174074
0.000188198
0.000181904
0.000170182
0.000156436
0.000155979
0.000158796
0.000165458
0.000169803
0.000166674
0.000162933
0.000160886
0.000159941
0.000159987
0.000161073
0.000162901
0.000165407
0.000168722
0.000171358
0.000172229
0.000173146
0.00017252
0.000184254
0.0001817
0.000177968
0.000175773
0.000139101
0.000158692
0.00017651
0.00013778
0.000161074
0.000183304
0.00018688
0.000177414
0.000173652
0.000170572
0.000170059
0.000171716
0.000171563
0.000168122
0.000164132
0.000161257
0.000159717
0.000159905
0.000161877
0.000165221
0.000169316
0.000173526
0.000176912
0.000178871
0.000181107
0.000183655
0.000183747
0.000179022
0.000179822
0.000159332
0.000144547
0.000189248
0.000184925
0.000157555
0.000158161
0.000173097
0.000183143
0.00018707
0.000182503
0.00017908
0.000178001
0.000176612
0.00017259
0.000166937
0.000161548
0.000157479
0.000155358
0.000155628
0.000158351
0.000163287
0.000169603
0.00017622
0.0001814
0.000184668
0.000185808
0.00018623
0.000186056
0.0001814
0.000170919
0.000160538
0.00016832
0.000195902
0.00019336
0.000163777
0.00016057
0.000172794
0.000185337
0.000186756
0.000185296
0.000184894
0.000183812
0.000179842
0.000171639
0.000162814
0.000155348
0.000150006
0.000147497
0.000147675
0.000150696
0.000156873
0.00016548
0.000174963
0.000183406
0.000189306
0.000190394
0.000188057
0.000184524
0.000180381
0.000172868
0.00016342
0.000166072
0.000197898
0.000189392
0.000161572
0.00016371
0.000174199
0.00018109
0.000184716
0.000187811
0.00018938
0.00018683
0.000178483
0.000166621
0.000155796
0.000147425
0.000141893
0.000139119
0.000139016
0.000141594
0.000146994
0.000155194
0.000165316
0.000175955
0.000187268
0.000192944
0.000190217
0.000184241
0.000177672