/*--------------------------------*- C++ -*----------------------------------*\
| =========                 |                                                 |
| \\      /  F ield         | OpenFOAM: The Open Source CFD Toolbox           |
|  \\    /   O peration     | Version:  v1606+                                |
|   \\  /    A nd           | Web:      www.OpenFOAM.com                      |
|    \\/     M anipulation  |                                                 |
\*---------------------------------------------------------------------------*/
FoamFile
{
    version     2.0;
    format      ascii;
    class       volVectorField;
    location    "0.34";
    object      U.particles;
}
// * * * * * * * * * * * * * * * * * * * * * * * * * * * * * * * * * * * * * //

dimensions      [0 1 -1 0 0 0 0];

internalField   nonuniform List<vector> 
6000
(
(-0.000760129 -0.368774 0)
(0.00793262 -0.439171 0)
(0.00522118 -0.44878 0)
(-5.12825e-05 -0.447072 0)
(-0.00453169 -0.447468 0)
(-0.00699659 -0.44745 0)
(-0.00279629 -0.451244 0)
(0.00167467 -0.46045 0)
(0.00535477 -0.474355 0)
(0.00651121 -0.480768 0)
(0.00648256 -0.481982 0)
(0.00509623 -0.479342 0)
(0.00314693 -0.483449 0)
(0.00199718 -0.486777 0)
(0.0006164 -0.490261 0)
(-0.000536537 -0.487229 0)
(-0.00114526 -0.484108 0)
(-0.00264529 -0.481883 0)
(-0.0042886 -0.481288 0)
(-0.0063715 -0.484577 0)
(-0.00676193 -0.479786 0)
(-0.00518566 -0.46972 0)
(-0.000496903 -0.455348 0)
(0.00458602 -0.448871 0)
(0.00845301 -0.448972 0)
(0.00546327 -0.446328 0)
(9.08021e-05 -0.444692 0)
(-0.00554398 -0.44642 0)
(-0.00785097 -0.437108 0)
(0.00073383 -0.368098 0)
(0.0222472 0.0715554 0)
(0.000531182 0.100015 0)
(-0.0158684 0.0705105 0)
(-0.0322707 0.0517894 0)
(-0.0323636 0.0304721 0)
(-0.0286933 0.0214299 0)
(-0.0199529 0.0105045 0)
(-0.0126059 0.00681652 0)
(-0.00678316 0.00733392 0)
(-0.00351723 0.00605484 0)
(-0.00156477 0.00525478 0)
(-0.000745825 0.00233969 0)
(-0.000354996 0.00185507 0)
(-0.000492053 0.00135604 0)
(2.5279e-05 0.000964835 0)
(0.000697004 0.000837838 0)
(0.00107272 0.00112846 0)
(0.00129721 0.00105406 0)
(0.00164193 0.00251382 0)
(0.00241698 0.00437449 0)
(0.00422929 0.00552264 0)
(0.00742932 0.00731301 0)
(0.0131846 0.00596125 0)
(0.0210811 0.0104324 0)
(0.0301574 0.0222635 0)
(0.0337225 0.0293562 0)
(0.0335491 0.0496797 0)
(0.0170579 0.0710116 0)
(0.00022803 0.100492 0)
(-0.0221412 0.0723959 0)
(-0.0154964 -0.0562637 0)
(-0.024263 -0.0645245 0)
(-0.045682 -0.0978337 0)
(-0.0618368 -0.132848 0)
(-0.0513006 -0.15722 0)
(-0.04072 -0.169901 0)
(-0.0265903 -0.176459 0)
(-0.0167904 -0.180665 0)
(-0.00998951 -0.184108 0)
(-0.00606164 -0.186973 0)
(-0.00387694 -0.191448 0)
(-0.00312968 -0.1943 0)
(-0.00245378 -0.196085 0)
(-0.00160412 -0.197967 0)
(-9.80619e-05 -0.19853 0)
(0.00140831 -0.198982 0)
(0.00245705 -0.19789 0)
(0.00327644 -0.196567 0)
(0.00355953 -0.19416 0)
(0.00488659 -0.19061 0)
(0.0072219 -0.186667 0)
(0.0109864 -0.183952 0)
(0.0174667 -0.1803 0)
(0.0275776 -0.176986 0)
(0.0425616 -0.169669 0)
(0.0538914 -0.156622 0)
(0.0644899 -0.132367 0)
(0.047987 -0.0971787 0)
(0.0249896 -0.0610031 0)
(0.0153547 -0.0532859 0)
(-0.0351939 -0.0586605 0)
(-0.0733274 -0.0797937 0)
(-0.0959751 -0.108326 0)
(-0.0966073 -0.138201 0)
(-0.0769272 -0.157118 0)
(-0.054683 -0.169005 0)
(-0.0302201 -0.172303 0)
(-0.0144153 -0.172172 0)
(-0.00604315 -0.17252 0)
(-0.00274735 -0.169301 0)
(-0.0026987 -0.167802 0)
(-0.00318207 -0.166762 0)
(-0.00328958 -0.166941 0)
(-0.00253229 -0.167459 0)
(-0.000552958 -0.168093 0)
(0.00186882 -0.167908 0)
(0.00366015 -0.167318 0)
(0.0043317 -0.166594 0)
(0.00382973 -0.166568 0)
(0.00348525 -0.167844 0)
(0.00362114 -0.169001 0)
(0.00694991 -0.172048 0)
(0.0153278 -0.171374 0)
(0.0315745 -0.172674 0)
(0.0574627 -0.168669 0)
(0.0808364 -0.156184 0)
(0.100895 -0.136515 0)
(0.100679 -0.105853 0)
(0.0758002 -0.0746914 0)
(0.0352082 -0.0542094 0)
(-0.0535072 -0.0432238 0)
(-0.111644 -0.0634572 0)
(-0.129028 -0.087387 0)
(-0.119551 -0.11998 0)
(-0.0965957 -0.141294 0)
(-0.0655541 -0.154728 0)
(-0.0317738 -0.149389 0)
(-0.00732177 -0.143977 0)
(0.00349641 -0.150013 0)
(0.00605281 -0.146425 0)
(0.0039661 -0.146316 0)
(0.00130578 -0.145507 0)
(-0.000740434 -0.145882 0)
(-0.00132997 -0.147158 0)
(-0.000207448 -0.148085 0)
(0.00163024 -0.148135 0)
(0.00259554 -0.147082 0)
(0.00184998 -0.14568 0)
(-0.000381996 -0.145115 0)
(-0.00324358 -0.145505 0)
(-0.00556768 -0.145779 0)
(-0.00281095 -0.149374 0)
(0.00878768 -0.142487 0)
(0.0341253 -0.151294 0)
(0.0694375 -0.15624 0)
(0.101401 -0.140956 0)
(0.125037 -0.1181 0)
(0.135135 -0.0846933 0)
(0.117301 -0.0577293 0)
(0.0561129 -0.0373165 0)
(-0.0539455 -0.00473171 0)
(-0.117637 -0.0101031 0)
(-0.137704 -0.0273418 0)
(-0.134287 -0.0765903 0)
(-0.110191 -0.109147 0)
(-0.0754086 -0.129972 0)
(-0.0352164 -0.128006 0)
(-0.00101714 -0.110384 0)
(0.0169965 -0.0856795 0)
(0.0185581 -0.083273 0)
(0.0147248 -0.0850498 0)
(0.00898577 -0.085996 0)
(0.00434166 -0.0874317 0)
(0.00162678 -0.0894374 0)
(0.000876519 -0.090794 0)
(0.000839213 -0.0907359 0)
(-0.000224913 -0.0891377 0)
(-0.00321965 -0.0869177 0)
(-0.00819962 -0.0853143 0)
(-0.0140345 -0.0838382 0)
(-0.0178984 -0.0821423 0)
(-0.0160467 -0.0849067 0)
(0.00388256 -0.111421 0)
(0.0390429 -0.131256 0)
(0.0804841 -0.132674 0)
(0.115685 -0.111331 0)
(0.14171 -0.077712 0)
(0.144778 -0.0255468 0)
(0.124278 -0.00415555 0)
(0.0569902 0.00117617 0)
(-0.0921575 0.0859966 0)
(-0.136213 0.051991 0)
(-0.143138 0.0243153 0)
(-0.13531 -0.0300084 0)
(-0.118229 -0.0731906 0)
(-0.0859057 -0.109201 0)
(-0.043465 -0.120408 0)
(0.00514652 -0.102874 0)
(0.0377019 -0.0533141 0)
(0.0439533 -0.0174469 0)
(0.0350093 -0.00838752 0)
(0.0228321 -0.0100557 0)
(0.0131307 -0.0148501 0)
(0.00659283 -0.0200825 0)
(0.0025477 -0.0235104 0)
(-0.000688864 -0.023328 0)
(-0.00516461 -0.0196811 0)
(-0.0122223 -0.0143544 0)
(-0.022674 -0.00968471 0)
(-0.0350909 -0.00798707 0)
(-0.0439184 -0.0181282 0)
(-0.0360293 -0.0556169 0)
(-0.000957665 -0.106175 0)
(0.0482755 -0.12307 0)
(0.0907139 -0.111043 0)
(0.122538 -0.0728542 0)
(0.139595 -0.0292192 0)
(0.148831 0.0256509 0)
(0.142916 0.0567401 0)
(0.0962541 0.0901913 0)
(-0.0284327 0.202414 0)
(-0.105121 0.154339 0)
(-0.118277 0.101922 0)
(-0.118672 0.0394323 0)
(-0.102081 -0.0221688 0)
(-0.0818126 -0.0791525 0)
(-0.0443902 -0.106446 0)
(-0.00251747 -0.0922857 0)
(0.0332969 -0.0338184 0)
(0.0509063 0.0264333 0)
(0.0518175 0.0536262 0)
(0.0397701 0.061716 0)
(0.0255917 0.0583993 0)
(0.0141225 0.0517471 0)
(0.0051714 0.0471278 0)
(-0.00285772 0.0474284 0)
(-0.0120344 0.052394 0)
(-0.0237818 0.0593378 0)
(-0.0383404 0.0626603 0)
(-0.0504762 0.0542016 0)
(-0.04919 0.0254675 0)
(-0.0308676 -0.037519 0)
(0.00572303 -0.0962271 0)
(0.0479537 -0.109886 0)
(0.0849872 -0.0813714 0)
(0.105899 -0.0234544 0)
(0.122526 0.0404756 0)
(0.121591 0.103231 0)
(0.110946 0.157079 0)
(0.0354451 0.207747 0)
(0.0314292 0.29146 0)
(-0.0527368 0.260719 0)
(-0.078262 0.199634 0)
(-0.0872916 0.120372 0)
(-0.10156 0.0212305 0)
(-0.076647 -0.0672634 0)
(-0.0395872 -0.111508 0)
(0.00644105 -0.10195 0)
(0.0417753 -0.0352747 0)
(0.0540465 0.0576508 0)
(0.0421371 0.12974 0)
(0.034222 0.14943 0)
(0.0243639 0.149367 0)
(0.014374 0.143236 0)
(0.00534157 0.13857 0)
(-0.00322821 0.138829 0)
(-0.0122623 0.143888 0)
(-0.0222335 0.150463 0)
(-0.0320516 0.150684 0)
(-0.0397593 0.130576 0)
(-0.0528104 0.055218 0)
(-0.0402665 -0.0398746 0)
(-0.00438757 -0.106286 0)
(0.0418662 -0.115029 0)
(0.0786958 -0.0692187 0)
(0.103243 0.0205237 0)
(0.0903953 0.120007 0)
(0.0822481 0.198826 0)
(0.0606437 0.261601 0)
(-0.0265576 0.295643 0)
(0.0606209 0.356952 0)
(0.0122749 0.373872 0)
(-0.0170628 0.308895 0)
(-0.0567951 0.18334 0)
(-0.0664293 0.05395 0)
(-0.050589 -0.0542462 0)
(-0.0261885 -0.10455 0)
(0.000287695 -0.0985175 0)
(0.0246775 -0.0383253 0)
(0.0373275 0.0584498 0)
(0.0306907 0.14985 0)
(0.0210657 0.196139 0)
(0.014738 0.209224 0)
(0.00879136 0.209109 0)
(0.00330155 0.206987 0)
(-0.00185683 0.207229 0)
(-0.00714617 0.209574 0)
(-0.0126896 0.20997 0)
(-0.0187671 0.196848 0)
(-0.0287814 0.14879 0)
(-0.0355225 0.0552059 0)
(-0.023316 -0.0422774 0)
(0.000846663 -0.102421 0)
(0.0271663 -0.107382 0)
(0.0512964 -0.0555816 0)
(0.0663857 0.0544914 0)
(0.056675 0.183843 0)
(0.0182637 0.309912 0)
(-0.00906252 0.378564 0)
(-0.0567576 0.365077 0)
(0.0360188 0.401631 0)
(0.0726657 0.447185 0)
(0.0644173 0.382171 0)
(0.033895 0.222144 0)
(0.0161325 0.0757024 0)
(-0.00573022 -0.0495332 0)
(-0.0119134 -0.114734 0)
(-0.010297 -0.112036 0)
(-0.00845767 -0.0444908 0)
(-0.0152323 0.0669367 0)
(-0.0100269 0.157598 0)
(-0.00669658 0.209962 0)
(-0.00231882 0.232556 0)
(0.000182714 0.237823 0)
(0.000644126 0.237778 0)
(0.00033943 0.237982 0)
(0.00107359 0.23817 0)
(0.00426604 0.233068 0)
(0.00923119 0.210267 0)
(0.0127485 0.156614 0)
(0.0176286 0.0641652 0)
(0.00961915 -0.0485577 0)
(0.0107785 -0.115611 0)
(0.0116921 -0.116755 0)
(0.00455141 -0.0502611 0)
(-0.018768 0.0767154 0)
(-0.0368764 0.223958 0)
(-0.0682282 0.387873 0)
(-0.0753051 0.453063 0)
(-0.0343929 0.412382 0)
(0.0109026 0.394001 0)
(0.0866956 0.44117 0)
(0.127993 0.38389 0)
(0.133427 0.226393 0)
(0.0893575 0.0661917 0)
(0.034737 -0.0697217 0)
(0.0007853 -0.151404 0)
(-0.0207774 -0.156093 0)
(-0.0446005 -0.0707406 0)
(-0.0692703 0.0599358 0)
(-0.042559 0.166379 0)
(-0.0253289 0.210843 0)
(-0.0117018 0.233883 0)
(-0.00391602 0.242222 0)
(-0.000720393 0.243857 0)
(0.00101666 0.243917 0)
(0.00457617 0.242299 0)
(0.0130231 0.23405 0)
(0.0273376 0.211082 0)
(0.0459492 0.16657 0)
(0.0721622 0.0554845 0)
(0.0450223 -0.0755311 0)
(0.0203079 -0.160304 0)
(-0.00182499 -0.152055 0)
(-0.0367476 -0.0695782 0)
(-0.0950054 0.0676042 0)
(-0.14227 0.230616 0)
(-0.134841 0.389684 0)
(-0.0909316 0.448163 0)
(-0.0135775 0.405991 0)
(-0.00212504 0.190191 0)
(0.0615531 0.199723 0)
(0.105056 0.136538 0)
(0.0877731 -0.13446 0)
(0.0569721 -0.393231 0)
(0.0651732 -0.256434 0)
(0.00691336 -0.331601 0)
(-0.0206236 -0.328586 0)
(-0.0529631 -0.2837 0)
(-0.022107 -0.455393 0)
(-0.0387908 -0.243775 0)
(-0.0283728 -0.0978631 0)
(-0.0154768 -0.0204005 0)
(-0.00657858 0.0224449 0)
(-0.00192764 0.0415023 0)
(0.00129231 0.0411854 0)
(0.00622495 0.0214337 0)
(0.0155957 -0.0223357 0)
(0.0288279 -0.102412 0)
(0.0387275 -0.253239 0)
(0.0205058 -0.464874 0)
(0.0520637 -0.287004 0)
(0.0184576 -0.328971 0)
(-0.0093459 -0.330645 0)
(-0.0685185 -0.25768 0)
(-0.0596842 -0.395638 0)
(-0.0948093 -0.122275 0)
(-0.111844 0.145745 0)
(-0.0661474 0.212616 0)
(-0.00141122 0.2078 0)
(0.00617755 -0.169088 0)
(0.00844249 -0.237593 0)
(0.0303535 -0.304516 0)
(0.0423653 -0.469808 0)
(0.0701088 -0.55934 0)
(0.0635945 -0.633529 0)
(0.029697 -0.637059 0)
(-0.0173721 -0.595171 0)
(-0.0303393 -0.590496 0)
(-0.0279247 -0.545584 0)
(-0.0243814 -0.520857 0)
(-0.0217303 -0.500772 0)
(-0.0170288 -0.480916 0)
(-0.010796 -0.465388 0)
(-0.00444989 -0.456779 0)
(0.00191819 -0.456949 0)
(0.00833349 -0.466082 0)
(0.0146943 -0.482141 0)
(0.0195776 -0.502111 0)
(0.0225987 -0.522251 0)
(0.0268925 -0.547072 0)
(0.028761 -0.593424 0)
(0.0149894 -0.592932 0)
(-0.0328104 -0.640352 0)
(-0.0664743 -0.633011 0)
(-0.0712802 -0.557539 0)
(-0.0431429 -0.466296 0)
(-0.03324 -0.295769 0)
(-0.0111729 -0.225931 0)
(-0.00729118 -0.1544 0)
(0.0175766 -0.324007 0)
(-0.00694136 -0.40421 0)
(0.0199439 -0.445282 0)
(0.0583959 -0.484357 0)
(0.0904051 -0.541461 0)
(0.0885372 -0.609653 0)
(0.0516495 -0.633969 0)
(-0.00980214 -0.613687 0)
(-0.0362699 -0.571644 0)
(-0.0388756 -0.529582 0)
(-0.0334511 -0.509449 0)
(-0.0273855 -0.498727 0)
(-0.0201428 -0.495311 0)
(-0.0125122 -0.495038 0)
(-0.00508264 -0.495543 0)
(0.00223358 -0.495648 0)
(0.00971173 -0.495382 0)
(0.0174213 -0.495885 0)
(0.0248036 -0.499673 0)
(0.0311314 -0.510726 0)
(0.0367488 -0.531209 0)
(0.0333437 -0.577567 0)
(0.00632302 -0.615882 0)
(-0.0558687 -0.634174 0)
(-0.090804 -0.608281 0)
(-0.0910315 -0.54005 0)
(-0.057881 -0.484422 0)
(-0.0198562 -0.445328 0)
(0.00678448 -0.402626 0)
(-0.0174405 -0.318649 0)
(0.0241842 -0.285989 0)
(0.0078219 -0.368413 0)
(0.0381384 -0.417173 0)
(0.0729094 -0.461107 0)
(0.101251 -0.516912 0)
(0.0962658 -0.581469 0)
(0.0553483 -0.600058 0)
(-0.00681736 -0.585026 0)
(-0.0353334 -0.551876 0)
(-0.0415196 -0.50832 0)
(-0.0376793 -0.48784 0)
(-0.0309719 -0.475253 0)
(-0.0236644 -0.470058 0)
(-0.015152 -0.46912 0)
(-0.00607457 -0.469388 0)
(0.00314136 -0.469549 0)
(0.0122126 -0.469537 0)
(0.0207642 -0.470763 0)
(0.0281238 -0.47637 0)
(0.0349781 -0.489171 0)
(0.0383466 -0.510033 0)
(0.0323219 -0.555411 0)
(0.00445491 -0.58584 0)
(-0.0590718 -0.600908 0)
(-0.0986299 -0.581463 0)
(-0.101904 -0.515812 0)
(-0.0726863 -0.461004 0)
(-0.0383554 -0.417005 0)
(-0.00826593 -0.36795 0)
(-0.0240959 -0.283977 0)
(0.0299541 -0.241754 0)
(0.0215768 -0.339852 0)
(0.0516273 -0.396434 0)
(0.084474 -0.442517 0)
(0.108824 -0.494446 0)
(0.103195 -0.547435 0)
(0.0596132 -0.563596 0)
(-0.00570852 -0.545943 0)
(-0.0328614 -0.521936 0)
(-0.0394361 -0.481504 0)
(-0.037795 -0.461021 0)
(-0.0318534 -0.447894 0)
(-0.0237797 -0.441707 0)
(-0.015107 -0.44063 0)
(-0.00603321 -0.441093 0)
(0.00306804 -0.441191 0)
(0.0121584 -0.441077 0)
(0.0208914 -0.442502 0)
(0.0289976 -0.449009 0)
(0.0348875 -0.462183 0)
(0.0359042 -0.482893 0)
(0.0299523 -0.522459 0)
(0.00256024 -0.546484 0)
(-0.0638799 -0.562286 0)
(-0.105518 -0.544405 0)
(-0.109245 -0.495054 0)
(-0.0841451 -0.442532 0)
(-0.0516957 -0.396364 0)
(-0.0222004 -0.33921 0)
(-0.0298314 -0.239349 0)
(0.036783 -0.202141 0)
(0.0357256 -0.311522 0)
(0.0637234 -0.370159 0)
(0.092903 -0.415703 0)
(0.11411 -0.461164 0)
(0.107356 -0.508577 0)
(0.0648299 -0.519798 0)
(0.000713124 -0.508676 0)
(-0.025804 -0.489172 0)
(-0.0326031 -0.453299 0)
(-0.0337394 -0.433961 0)
(-0.0289912 -0.421842 0)
(-0.0222743 -0.416222 0)
(-0.0140485 -0.414368 0)
(-0.00556212 -0.41438 0)
(0.00297891 -0.414468 0)
(0.0114689 -0.414853 0)
(0.0196274 -0.416985 0)
(0.0262688 -0.422727 0)
(0.0309181 -0.434757 0)
(0.0296273 -0.45438 0)
(0.0231426 -0.488488 0)
(-0.00468935 -0.509669 0)
(-0.0697761 -0.52033 0)
(-0.109368 -0.508694 0)
(-0.114657 -0.460258 0)
(-0.0925586 -0.416305 0)
(-0.0636264 -0.369677 0)
(-0.0363606 -0.310718 0)
(-0.0369274 -0.199576 0)
(0.0471084 -0.16592 0)
(0.0502209 -0.284179 0)
(0.0732602 -0.343952 0)
(0.0990102 -0.389776 0)
(0.115557 -0.434083 0)
(0.110028 -0.46846 0)
(0.0698119 -0.478386 0)
(0.00703004 -0.469537 0)
(-0.021329 -0.448563 0)
(-0.0280261 -0.420678 0)
(-0.0303463 -0.401662 0)
(-0.0263077 -0.390331 0)
(-0.0199306 -0.385437 0)
(-0.0125518 -0.38458 0)
(-0.00489444 -0.385085 0)
(0.00270599 -0.385262 0)
(0.0103103 -0.385051 0)
(0.0175496 -0.386118 0)
(0.0237699 -0.391069 0)
(0.0276812 -0.402452 0)
(0.025421 -0.421542 0)
(0.0182617 -0.450502 0)
(-0.0111754 -0.469368 0)
(-0.0739821 -0.477189 0)
(-0.11146 -0.466615 0)
(-0.115831 -0.434733 0)
(-0.098886 -0.389932 0)
(-0.0729349 -0.343783 0)
(-0.0507392 -0.283287 0)
(-0.0474154 -0.163659 0)
(0.0532013 -0.146494 0)
(0.0643028 -0.256093 0)
(0.0803239 -0.315769 0)
(0.103431 -0.359521 0)
(0.116613 -0.397265 0)
(0.110612 -0.424347 0)
(0.0748595 -0.430946 0)
(0.0152102 -0.426108 0)
(-0.0144907 -0.412945 0)
(-0.0224617 -0.387481 0)
(-0.0255382 -0.369515 0)
(-0.0223971 -0.359291 0)
(-0.0168562 -0.355225 0)
(-0.0104554 -0.354739 0)
(-0.00409609 -0.355404 0)
(0.00211901 -0.355569 0)
(0.00839495 -0.355157 0)
(0.0146239 -0.355905 0)
(0.0199669 -0.360094 0)
(0.0229445 -0.370259 0)
(0.0196838 -0.388531 0)
(0.0109406 -0.413158 0)
(-0.0198815 -0.426809 0)
(-0.0784761 -0.43067 0)
(-0.11154 -0.423745 0)
(-0.116927 -0.397092 0)
(-0.103654 -0.35986 0)
(-0.0800379 -0.315284 0)
(-0.0643837 -0.255052 0)
(-0.0534488 -0.144457 0)
(0.0518951 -0.140847 0)
(0.0712775 -0.232242 0)
(0.0857229 -0.285325 0)
(0.108131 -0.324783 0)
(0.116301 -0.358555 0)
(0.110416 -0.3792 0)
(0.0787457 -0.383603 0)
(0.0262209 -0.382591 0)
(-0.00355763 -0.371615 0)
(-0.0139365 -0.35155 0)
(-0.018142 -0.333487 0)
(-0.0163621 -0.324197 0)
(-0.0119894 -0.320868 0)
(-0.00718659 -0.320802 0)
(-0.00281022 -0.321588 0)
(0.00121821 -0.321711 0)
(0.00547817 -0.321065 0)
(0.010028 -0.321354 0)
(0.0140923 -0.32482 0)
(0.015553 -0.334171 0)
(0.0109611 -0.352823 0)
(-0.000785 -0.372569 0)
(-0.0316782 -0.383212 0)
(-0.0826656 -0.383726 0)
(-0.111462 -0.378752 0)
(-0.116674 -0.358998 0)
(-0.108587 -0.324979 0)
(-0.0857723 -0.284758 0)
(-0.0699638 -0.23188 0)
(-0.0522095 -0.138791 0)
(0.0522989 -0.142252 0)
(0.0693463 -0.207467 0)
(0.0918259 -0.248821 0)
(0.110639 -0.284733 0)
(0.115033 -0.316187 0)
(0.111398 -0.333349 0)
(0.0917159 -0.338408 0)
(0.0461632 -0.337951 0)
(0.010376 -0.328916 0)
(-0.00494691 -0.313564 0)
(-0.0103844 -0.295737 0)
(-0.0103445 -0.287715 0)
(-0.00726903 -0.28506 0)
(-0.00406012 -0.285487 0)
(-0.00161699 -0.286414 0)
(0.000346897 -0.286513 0)
(0.00265341 -0.285731 0)
(0.00554618 -0.285542 0)
(0.00818446 -0.288275 0)
(0.00766785 -0.29631 0)
(0.00195128 -0.315731 0)
(-0.014875 -0.329654 0)
(-0.0531957 -0.339054 0)
(-0.097192 -0.339361 0)
(-0.113461 -0.333839 0)
(-0.115769 -0.316864 0)
(-0.110484 -0.285246 0)
(-0.0923143 -0.247758 0)
(-0.0672407 -0.208029 0)
(-0.052512 -0.140019 0)
(0.0559262 -0.14145 0)
(0.059893 -0.186674 0)
(0.095587 -0.208955 0)
(0.105705 -0.244084 0)
(0.114245 -0.275024 0)
(0.117679 -0.291053 0)
(0.11009 -0.296579 0)
(0.0731649 -0.293913 0)
(0.0280718 -0.283448 0)
(0.00623908 -0.270766 0)
(-0.00122301 -0.254657 0)
(-0.00327109 -0.24784 0)
(-0.00191505 -0.24617 0)
(-0.000568985 -0.246926 0)
(-0.000295677 -0.248004 0)
(-0.000658575 -0.248011 0)
(-0.000548783 -0.247054 0)
(0.000470829 -0.246418 0)
(0.00140787 -0.248119 0)
(-0.00117147 -0.255077 0)
(-0.00897028 -0.270233 0)
(-0.0323311 -0.284174 0)
(-0.0800393 -0.295093 0)
(-0.114625 -0.297664 0)
(-0.120701 -0.292481 0)
(-0.115645 -0.276367 0)
(-0.10464 -0.245425 0)
(-0.0951985 -0.2078 0)
(-0.0597648 -0.187454 0)
(-0.0552849 -0.138883 0)
(0.0438598 -0.132299 0)
(0.0662476 -0.154802 0)
(0.0909435 -0.173398 0)
(0.0956629 -0.207813 0)
(0.120816 -0.23803 0)
(0.132971 -0.251181 0)
(0.128123 -0.254593 0)
(0.0981814 -0.250635 0)
(0.0461406 -0.236115 0)
(0.0181396 -0.222271 0)
(0.00800836 -0.211069 0)
(0.00445976 -0.205032 0)
(0.00409032 -0.204365 0)
(0.00336589 -0.20553 0)
(0.00118587 -0.206614 0)
(-0.00178878 -0.206704 0)
(-0.00411929 -0.205599 0)
(-0.00512755 -0.204495 0)
(-0.00584372 -0.205167 0)
(-0.00960514 -0.211495 0)
(-0.0204202 -0.222421 0)
(-0.0501429 -0.236778 0)
(-0.103867 -0.251983 0)
(-0.132299 -0.255991 0)
(-0.136744 -0.252771 0)
(-0.123055 -0.240484 0)
(-0.0943217 -0.210639 0)
(-0.0880107 -0.175515 0)
(-0.0718068 -0.152307 0)
(-0.0399459 -0.129667 0)
(0.0261244 -0.110219 0)
(0.0713641 -0.122271 0)
(0.0835819 -0.142483 0)
(0.0956743 -0.173397 0)
(0.134197 -0.201093 0)
(0.151855 -0.211404 0)
(0.148096 -0.213116 0)
(0.118967 -0.206509 0)
(0.061311 -0.187419 0)
(0.0280831 -0.172034 0)
(0.0168593 -0.165736 0)
(0.013399 -0.159536 0)
(0.0111954 -0.159264 0)
(0.00803871 -0.160506 0)
(0.00299829 -0.161597 0)
(-0.00295492 -0.161555 0)
(-0.00811603 -0.160577 0)
(-0.0115048 -0.159307 0)
(-0.0140139 -0.159542 0)
(-0.0177023 -0.165368 0)
(-0.0297914 -0.172117 0)
(-0.0648449 -0.188012 0)
(-0.12395 -0.207639 0)
(-0.152514 -0.214561 0)
(-0.1559 -0.213272 0)
(-0.138245 -0.203542 0)
(-0.0980967 -0.176428 0)
(-0.0840913 -0.144316 0)
(-0.0700998 -0.120062 0)
(-0.0270326 -0.107448 0)
(0.037865 -0.0809767 0)
(0.0549925 -0.0725266 0)
(0.0674995 -0.0945416 0)
(0.107013 -0.140546 0)
(0.155265 -0.170121 0)
(0.173105 -0.173542 0)
(0.169584 -0.171957 0)
(0.138184 -0.160895 0)
(0.0750099 -0.136947 0)
(0.0367919 -0.119411 0)
(0.0240426 -0.111869 0)
(0.0211796 -0.110671 0)
(0.0178238 -0.110455 0)
(0.0123963 -0.11172 0)
(0.00469728 -0.112636 0)
(-0.00405669 -0.112627 0)
(-0.0119315 -0.111554 0)
(-0.0176382 -0.110266 0)
(-0.021314 -0.110442 0)
(-0.0247263 -0.111357 0)
(-0.0386508 -0.119233 0)
(-0.0783882 -0.137201 0)
(-0.142407 -0.161547 0)
(-0.173399 -0.172961 0)
(-0.176598 -0.174954 0)
(-0.158403 -0.172395 0)
(-0.110562 -0.143385 0)
(-0.0688531 -0.0963114 0)
(-0.0571837 -0.0727821 0)
(-0.0394551 -0.0811108 0)
(0.013844 -0.0623231 0)
(0.0539573 -0.0391242 0)
(0.072496 -0.0612944 0)
(0.126752 -0.110079 0)
(0.175324 -0.133844 0)
(0.19243 -0.131669 0)
(0.187845 -0.127116 0)
(0.15093 -0.110406 0)
(0.0850489 -0.0826544 0)
(0.0438783 -0.0629627 0)
(0.0289206 -0.0542594 0)
(0.0253588 -0.0533029 0)
(0.0215936 -0.0549583 0)
(0.0148288 -0.0565935 0)
(0.00537194 -0.0573299 0)
(-0.00526415 -0.0571435 0)
(-0.0148948 -0.0560557 0)
(-0.0219407 -0.0541968 0)
(-0.0260215 -0.0524846 0)
(-0.0301796 -0.0536418 0)
(-0.0461845 -0.0627143 0)
(-0.0882625 -0.0827222 0)
(-0.154094 -0.110611 0)
(-0.190777 -0.127717 0)
(-0.195225 -0.132645 0)
(-0.178426 -0.135458 0)
(-0.131523 -0.112906 0)
(-0.0752677 -0.0635431 0)
(-0.0556996 -0.0380247 0)
(-0.00941863 -0.0603498 0)
(-0.0121476 -0.0086872 0)
(0.041293 0.00664 0)
(0.090544 -0.0413345 0)
(0.152267 -0.0843898 0)
(0.194023 -0.0946029 0)
(0.207401 -0.0867213 0)
(0.199785 -0.0778758 0)
(0.155926 -0.0538376 0)
(0.0934416 -0.0243219 0)
(0.0523054 -0.00268955 0)
(0.0354147 0.0080975 0)
(0.029887 0.0110309 0)
(0.0247664 0.0109004 0)
(0.0166672 0.010246 0)
(0.00577532 0.0100003 0)
(-0.00621519 0.010153 0)
(-0.0170887 0.0107218 0)
(-0.0252146 0.0115684 0)
(-0.0304334 0.011723 0)
(-0.0362571 0.00856639 0)
(-0.05366 -0.00256866 0)
(-0.0950791 -0.0242944 0)
(-0.156982 -0.0535183 0)
(-0.201064 -0.0779003 0)
(-0.208926 -0.0872631 0)
(-0.195883 -0.0957801 0)
(-0.155056 -0.0869426 0)
(-0.0944922 -0.0463191 0)
(-0.0404716 0.00370749 0)
(0.0105581 -0.0034463 0)
(-0.000921353 0.0533947 0)
(0.0404372 0.0325084 0)
(0.111617 -0.020297 0)
(0.169068 -0.0486059 0)
(0.205367 -0.0487028 0)
(0.214833 -0.0372883 0)
(0.201784 -0.0219488 0)
(0.155674 0.00811218 0)
(0.102308 0.0376686 0)
(0.0641869 0.061262 0)
(0.0459157 0.0752496 0)
(0.0375332 0.081406 0)
(0.0297986 0.0837794 0)
(0.0195764 0.0846731 0)
(0.0069835 0.0851794 0)
(-0.00658628 0.0853208 0)
(-0.0191605 0.085054 0)
(-0.0293213 0.084247 0)
(-0.0370839 0.081838 0)
(-0.0457061 0.0754712 0)
(-0.064348 0.0612347 0)
(-0.102533 0.037736 0)
(-0.155229 0.00868076 0)
(-0.201249 -0.0212467 0)
(-0.214907 -0.0371922 0)
(-0.205969 -0.049027 0)
(-0.170758 -0.0499442 0)
(-0.114565 -0.0235096 0)
(-0.042847 0.029211 0)
(-0.00357178 0.0568678 0)
(0.024846 0.106633 0)
(0.0529371 0.0636745 0)
(0.129084 0.0114597 0)
(0.181248 -0.0039181 0)
(0.209354 0.00200902 0)
(0.213051 0.0163894 0)
(0.19303 0.0409825 0)
(0.152078 0.0736861 0)
(0.109351 0.103397 0)
(0.0767266 0.128589 0)
(0.0580354 0.146096 0)
(0.0466669 0.15634 0)
(0.0358547 0.162099 0)
(0.0230333 0.165234 0)
(0.00831698 0.166779 0)
(-0.00715408 0.166872 0)
(-0.0219148 0.165476 0)
(-0.0348519 0.162383 0)
(-0.0459358 0.156565 0)
(-0.0577748 0.14617 0)
(-0.0769779 0.128537 0)
(-0.109719 0.103463 0)
(-0.152032 0.0740589 0)
(-0.192437 0.0417434 0)
(-0.212666 0.0169206 0)
(-0.209275 0.00230594 0)
(-0.181877 -0.00401165 0)
(-0.130936 0.0106005 0)
(-0.0559716 0.0626411 0)
(-0.029895 0.107758 0)
(0.0466104 0.154811 0)
(0.0677417 0.100733 0)
(0.142071 0.0523597 0)
(0.186081 0.0449533 0)
(0.204263 0.055604 0)
(0.200512 0.0756775 0)
(0.17594 0.1093 0)
(0.143665 0.141604 0)
(0.111669 0.170942 0)
(0.0858911 0.196413 0)
(0.0677721 0.216167 0)
(0.0538061 0.230013 0)
(0.0401255 0.239192 0)
(0.025082 0.244771 0)
(0.00877893 0.247441 0)
(-0.00801079 0.247497 0)
(-0.024466 0.244915 0)
(-0.0398206 0.239355 0)
(-0.053931 0.230119 0)
(-0.0683572 0.216205 0)
(-0.0868151 0.196456 0)
(-0.112548 0.171113 0)
(-0.144087 0.14193 0)
(-0.175834 0.109729 0)
(-0.200113 0.0760373 0)
(-0.203958 0.0557405 0)
(-0.186119 0.0450265 0)
(-0.142529 0.0522818 0)
(-0.0696493 0.100765 0)
(-0.0494063 0.154495 0)
(0.0590352 0.200077 0)
(0.0821281 0.139261 0)
(0.150183 0.0937979 0)
(0.182667 0.0938006 0)
(0.190209 0.109546 0)
(0.177729 0.14086 0)
(0.154719 0.175102 0)
(0.130396 0.205367 0)
(0.107678 0.232086 0)
(0.0882936 0.25546 0)
(0.071837 0.274954 0)
(0.0566011 0.290357 0)
(0.0412318 0.301634 0)
(0.0250944 0.308937 0)
(0.00834059 0.312452 0)
(-0.00861929 0.312433 0)
(-0.0255085 0.308865 0)
(-0.0418734 0.301482 0)
(-0.057474 0.290129 0)
(-0.0728769 0.274721 0)
(-0.0893887 0.255292 0)
(-0.108585 0.23201 0)
(-0.130792 0.205336 0)
(-0.154482 0.175024 0)
(-0.176988 0.140653 0)
(-0.18943 0.109088 0)
(-0.182192 0.0933555 0)
(-0.150153 0.0933212 0)
(-0.0827587 0.13901 0)
(-0.0595328 0.199714 0)
(0.0641966 0.236983 0)
(0.0933832 0.166899 0)
(0.151746 0.129342 0)
(0.170655 0.137114 0)
(0.167388 0.162766 0)
(0.14976 0.196703 0)
(0.130464 0.224837 0)
(0.112622 0.249072 0)
(0.0960714 0.270712 0)
(0.0808549 0.290429 0)
(0.0665104 0.308172 0)
(0.0522022 0.323364 0)
(0.0376202 0.33528 0)
(0.02259 0.343363 0)
(0.00728125 0.347324 0)
(-0.00804741 0.347135 0)
(-0.0233723 0.34281 0)
(-0.0383915 0.334416 0)
(-0.0529074 0.322285 0)
(-0.0671294 0.307024 0)
(-0.0813638 0.289206 0)
(-0.096381 0.26937 0)
(-0.112481 0.247572 0)
(-0.129574 0.223195 0)
(-0.148071 0.195024 0)
(-0.16533 0.161244 0)
(-0.168952 0.135696 0)
(-0.150966 0.128134 0)
(-0.093427 0.166122 0)
(-0.0640681 0.236833 0)
(0.06541 0.249867 0)
(0.0993827 0.175475 0)
(0.144258 0.152172 0)
(0.150114 0.170225 0)
(0.139654 0.201764 0)
(0.125475 0.228629 0)
(0.11182 0.251591 0)
(0.0986438 0.272275 0)
(0.0854054 0.291961 0)
(0.0716298 0.310816 0)
(0.057764 0.328368 0)
(0.0440526 0.343532 0)
(0.0308468 0.35536 0)
(0.018141 0.363307 0)
(0.00591355 0.367106 0)
(-0.00593918 0.366902 0)
(-0.0181978 0.362701 0)
(-0.0308898 0.354398 0)
(-0.0441068 0.342308 0)
(-0.057762 0.326992 0)
(-0.0715632 0.309246 0)
(-0.0853532 0.290055 0)
(-0.098359 0.269922 0)
(-0.110989 0.248853 0)
(-0.123895 0.225671 0)
(-0.13727 0.198807 0)
(-0.147162 0.167959 0)
(-0.141835 0.150578 0)
(-0.0986249 0.174566 0)
(-0.0650895 0.249139 0)
(0.0654728 0.231411 0)
(0.100598 0.16312 0)
(0.127899 0.162932 0)
(0.128665 0.191931 0)
(0.12127 0.221809 0)
(0.110835 0.246884 0)
(0.0991151 0.268437 0)
(0.0863034 0.288179 0)
(0.0731838 0.307443 0)
(0.0598343 0.326033 0)
(0.0466498 0.343451 0)
(0.0339461 0.358438 0)
(0.0223483 0.369555 0)
(0.0127092 0.376618 0)
(0.00435326 0.379782 0)
(-0.00330664 0.379596 0)
(-0.0117275 0.376051 0)
(-0.0213879 0.368648 0)
(-0.0330847 0.357277 0)
(-0.0457986 0.342101 0)
(-0.0590683 0.324407 0)
(-0.0726733 0.305417 0)
(-0.0858786 0.285521 0)
(-0.098503 0.265169 0)
(-0.1096 0.243236 0)
(-0.119345 0.218109 0)
(-0.126123 0.188746 0)
(-0.125161 0.160923 0)
(-0.0984066 0.162386 0)
(-0.0641349 0.230139 0)
(0.0639711 0.17244 0)
(0.0949112 0.145281 0)
(0.109498 0.167695 0)
(0.111518 0.202315 0)
(0.106016 0.23419 0)
(0.0959223 0.260865 0)
(0.0851676 0.282762 0)
(0.071773 0.302344 0)
(0.0592551 0.320848 0)
(0.0474021 0.339167 0)
(0.0331817 0.356976 0)
(0.0206961 0.371911 0)
(0.0112365 0.38112 0)
(0.00589259 0.386137 0)
(0.00248266 0.388016 0)
(-5.85665e-05 0.387857 0)
(-0.003567 0.385621 0)
(-0.00902814 0.380297 0)
(-0.0183438 0.370839 0)
(-0.0307581 0.355866 0)
(-0.0460694 0.337687 0)
(-0.0588831 0.318899 0)
(-0.0715741 0.299547 0)
(-0.084953 0.27912 0)
(-0.0953033 0.256703 0)
(-0.104775 0.229963 0)
(-0.109604 0.198748 0)
(-0.107471 0.165267 0)
(-0.0928944 0.14427 0)
(-0.0621773 0.172641 0)
(0.0589053 0.114231 0)
(0.0813831 0.132584 0)
(0.0894843 0.169179 0)
(0.0921126 0.208547 0)
(0.0879499 0.244606 0)
(0.0785233 0.273755 0)
(0.0680065 0.296133 0)
(0.0554635 0.314829 0)
(0.045287 0.332098 0)
(0.0332928 0.352658 0)
(0.0133958 0.371155 0)
(0.00152943 0.383587 0)
(-0.00246647 0.38832 0)
(-0.00160318 0.390001 0)
(0.000618524 0.390033 0)
(0.00348368 0.390002 0)
(0.00551108 0.389588 0)
(0.0059367 0.387571 0)
(0.00261609 0.382305 0)
(-0.00810269 0.370275 0)
(-0.0310025 0.352116 0)
(-0.0450084 0.331223 0)
(-0.0569625 0.3123 0)
(-0.0693227 0.292087 0)
(-0.0792843 0.268893 0)
(-0.087812 0.239794 0)
(-0.0911479 0.204718 0)
(-0.088365 0.166628 0)
(-0.0803423 0.131234 0)
(-0.0580519 0.114598 0)
(0.0455669 0.0684615 0)
(0.0586743 0.122357 0)
(0.0650323 0.168236 0)
(0.0685526 0.213505 0)
(0.0646222 0.253832 0)
(0.0529943 0.285916 0)
(0.0376982 0.309288 0)
(0.0237913 0.324686 0)
(0.0213377 0.336381 0)
(0.0139924 0.360478 0)
(-0.00868163 0.384641 0)
(-0.0148027 0.390096 0)
(-0.0121852 0.388942 0)
(-0.0064864 0.38759 0)
(-0.00017385 0.387147 0)
(0.00604746 0.387062 0)
(0.0122051 0.387345 0)
(0.0177059 0.388143 0)
(0.0204703 0.389054 0)
(0.0165502 0.386132 0)
(-0.00298032 0.371821 0)
(-0.0191811 0.341263 0)
(-0.0243182 0.325173 0)
(-0.0390245 0.305511 0)
(-0.0553371 0.280242 0)
(-0.0660148 0.248392 0)
(-0.0685529 0.209553 0)
(-0.064849 0.165733 0)
(-0.058533 0.120909 0)
(-0.0453775 0.0686664 0)
(0.0245902 0.0437246 0)
(0.0322937 0.11189 0)
(0.0373981 0.165785 0)
(0.0430882 0.216192 0)
(0.0195288 0.268624 0)
(-0.00624069 0.302671 0)
(-0.0181913 0.316052 0)
(-0.00141994 0.315985 0)
(0.0107157 0.323976 0)
(0.0124583 0.344658 0)
(-0.0070385 0.376189 0)
(-0.0198104 0.386176 0)
(-0.0149269 0.383567 0)
(-0.00743197 0.381707 0)
(0.000191082 0.381271 0)
(0.00764686 0.381311 0)
(0.0151046 0.38169 0)
(0.0224207 0.382965 0)
(0.028225 0.385916 0)
(0.0227313 0.3843 0)
(-0.00281559 0.356791 0)
(-0.00720637 0.329413 0)
(0.00371501 0.317964 0)
(0.0187799 0.313606 0)
(0.00383971 0.298162 0)
(-0.0237093 0.262976 0)
(-0.0430059 0.212628 0)
(-0.0378335 0.163615 0)
(-0.0327267 0.110765 0)
(-0.0249967 0.0435552 0)
(0.00738255 0.0367797 0)
(0.00707059 0.102231 0)
(0.00947644 0.156282 0)
(-0.0103135 0.234618 0)
(-0.0585493 0.279222 0)
(-0.0553513 0.300186 0)
(-0.027025 0.301185 0)
(0.00241912 0.301901 0)
(0.0105101 0.317091 0)
(0.0135823 0.335619 0)
(0.0064884 0.359668 0)
(-0.0168673 0.379021 0)
(-0.0127404 0.376554 0)
(-0.00571 0.375346 0)
(0.00136986 0.375233 0)
(0.00832196 0.37541 0)
(0.0152964 0.37572 0)
(0.022222 0.376595 0)
(0.0275498 0.379416 0)
(0.00952658 0.371012 0)
(-0.00391745 0.3461 0)
(-0.0031167 0.324588 0)
(0.0027182 0.30559 0)
(0.0280444 0.300204 0)
(0.0551036 0.29835 0)
(0.0586619 0.276132 0)
(0.00458963 0.228107 0)
(-0.00971504 0.155732 0)
(-0.00729509 0.101431 0)
(-0.00758389 0.0363911 0)
(-0.00486477 0.0359261 0)
(-0.0129028 0.099946 0)
(-0.0685691 0.196306 0)
(-0.0835978 0.25556 0)
(-0.080836 0.276409 0)