/*--------------------------------*- C++ -*----------------------------------*\
| =========                 |                                                 |
| \\      /  F ield         | OpenFOAM: The Open Source CFD Toolbox           |
|  \\    /   O peration     | Version:  v1606+                                |
|   \\  /    A nd           | Web:      www.OpenFOAM.com                      |
|    \\/     M anipulation  |                                                 |
\*---------------------------------------------------------------------------*/
FoamFile
{
    version     2.0;
    format      ascii;
    class       volScalarField;
    location    "1.59";
    object      epsilon.air;
}
// * * * * * * * * * * * * * * * * * * * * * * * * * * * * * * * * * * * * * //

dimensions      [0 2 -3 0 0 0 0];

internalField   nonuniform List<scalar> 
6000
(
134.158
17.0633
10.8829
10.2407
10.2061
10.2639
10.3456
10.3912
10.2988
10.1371
9.9592
9.82675
9.78003
9.76392
9.76507
9.82709
9.93841
10.0992
10.3758
10.6403
10.8333
10.8136
10.5038
10.1888
9.95449
9.81164
9.9157
10.6851
16.9737
134.639
71.3791
24.2944
14.6242
12.4383
12.2207
12.658
13.4634
13.9783
13.6281
12.7004
11.739
11.1578
10.9582
11.008
11.1292
11.2927
11.6254
12.3519
13.8394
15.2911
15.7349
14.5231
12.7673
11.4427
10.7451
10.556
11.1336
13.642
23.2337
76.7408
38.7897
20.8173
14.897
13.1778
12.8827
13.1327
13.6505
13.9554
13.6489
12.732
11.7228
11.0647
10.7591
10.6603
10.7164
10.929
11.3932
12.2586
13.7718
15.42
15.6957
14.5947
13.5244
12.4116
11.4993
11.0357
11.3756
13.3802
20.1137
45.6588
28.9694
16.5514
13.7847
13.0073
13.1708
13.5541
13.9007
14.0754
14.0316
13.45
12.369
11.3316
10.8574
10.7574
10.8298
11.0267
11.4504
12.3317
13.917
15.3402
15.4548
14.6104
13.7361
12.6879
11.6292
11.0218
11.2045
12.66
16.8366
32.8016
25.6303
14.136
12.5608
12.5231
13.2753
14.218
14.6398
14.2414
13.7391
13.2299
12.5313
11.7651
11.3184
11.3033
11.3829
11.4991
11.7855
12.4836
13.5432
14.3523
14.6253
14.5312
13.5772
12.5916
11.6177
10.9981
11.1656
12.38
15.5078
28.8129
27.1969
13.4226
11.7533
11.8566
12.8225
14.0341
14.9664
14.5927
13.5881
12.8356
12.2749
11.9348
11.8725
12.094
12.2062
12.2894
12.4677
12.7816
13.2119
13.6978
14.1577
14.4594
13.2558
12.1998
11.4638
11.1619
11.4736
12.5484
15.1556
29.563
27.4572
13.8824
11.8312
11.6625
12.2895
13.3254
14.4754
14.8004
13.8655
13.0087
12.3146
11.9189
12.0174
12.3377
12.3936
12.5558
13.011
13.0914
13.0961
13.4491
14.0717
14.4964
13.2089
12.0442
11.4449
11.3419
11.6952
12.4965
14.5427
29.191
25.5246
13.9547
11.9204
11.718
12.1831
12.9118
13.9471
14.8528
14.4605
13.5147
12.6133
12.0058
11.9395
12.1403
12.1359
12.3002
12.8223
13.0329
12.8669
13.081
13.8017
14.2408
13.2353
12.2767
11.5515
11.5532
11.9126
12.3183
13.864
27.7141
24.119
13.466
11.8194
11.7296
12.249
13.1529
13.9873
14.7344
14.8921
14.0499
12.9961
12.1863
11.8859
11.8742
11.7991
11.9087
12.2942
12.6083
12.5623
12.6376
13.2465
13.6164
13.1955
12.5351
11.8357
11.6151
11.7052
11.9854
13.4438
27.5594
24.402
13.0528
11.7993
11.9149
12.616
13.7283
14.4442
14.7054
14.8799
14.4218
13.4597
12.5285
12.0002
11.7761
11.6392
11.6848
11.9296
12.1794
12.2862
12.35
12.8291
13.2721
13.453
13.2048
12.7333
12.2499
11.7187
11.5793
12.8287
26.4068
23.6506
13.0193
12.181
12.6591
13.6663
14.8475
15.4956
15.4314
15.1784
14.8118
14.0813
13.1433
12.4218
12.0122
11.8071
11.7748
11.9223
12.0973
12.2186
12.3927
12.9189
13.6507
14.4653
14.8168
14.7248
14.1323
12.987
11.7947
11.9865
22.3354
22.255
13.7141
13.6678
14.5678
15.9334
17.2494
17.9296
17.613
16.7843
15.9424
15.0951
14.1646
13.3435
12.7961
12.4936
12.3148
12.2858
12.354
12.482
12.8772
13.7307
15.014
16.5566
17.6449
18.012
17.3739
15.7497
13.3855
12.045
17.9634
25.0372
16.4116
16.7741
18.1702
19.9722
21.4677
22.075
21.4885
20.1379
18.5521
17.0727
15.8576
14.9302
14.267
13.8419
13.4978
13.2689
13.2173
13.4157
14.2017
15.6887
17.6997
19.954
21.81
22.6713
21.8831
19.598
16.3804
13.902
19.2895
34.0896
21.2892
21.6023
23.5784
25.8651
27.6362
28.1887
27.1105
25.0637
22.7329
20.5016
18.7243
17.4968
16.585
15.8717
15.338
15.0498
15.0626
15.5479
16.9691
19.3385
22.1764
25.1424
27.934
29.8666
28.02
23.6926
20.2454
19.1806
30.1147
49.9429
27.6585
27.9081
30.7168
33.9514
36.4316
36.9648
34.9287
31.7172
28.3896
25.423
23.0736
21.4384
20.1317
19.0646
18.4224
18.206
18.4755
19.4937
21.7918
25.2016
28.9955
32.8556
36.1134
36.6094
32.436
27.3466
24.3932
24.8392
46.2201
65.083
35.0575
34.6487
39.2067
44.603
48.4077
48.5213
45.1916
40.3004
35.5613
31.6007
28.6382
26.5721
24.8834
23.6677
23.1047
23.1285
23.7674
25.2853
28.3004
32.4973
36.4381
39.3066
39.9384
38.027
34.1021
29.4168
26.673
27.8803
53.1631
74.7357
43.6043
42.3307
47.4143
55.1556
61.5132
61.9075
57.3812
50.7077
44.0484
38.6111
34.5812
31.8089
29.8324
28.7157
28.1769
28.1307
28.7157
30.0462
32.8733
36.7675
39.4251
39.7997
39.4702
38.2639
34.1639
29.6201
27.2856
29.1454
56.3948
86.258
52.3915
49.617
53.5337
61.4673
69.2033
71.3632
68.8349
62.0037
53.4657
45.8387
40.1011
36.2011
34.0567
32.8334
31.9502
31.362
31.3361
32.1078
34.0606
36.3143
37.6714
38.3114
38.7633
37.218
32.7823
29.0631
27.2496
29.5185
58.0814
102.486
59.0676
54.9127
57.101
62.7271
69.3544
72.2249
74.2065
71.9367
62.3357
52.41
45.0039
40.1924
37.4268
35.8156
34.4307
33.3492
32.769
32.9942
33.9974
35.1429
36.0667
37.1896
37.1832
34.5799
31.0655
28.4008
27.1296
29.75
59.4962
118.661
62.7143
57.4618
58.9147
63.4762
69.1851
71.5282
74.2515
76.2204
68.9869
57.9105
49.5888
44.0164
40.3706
37.9096
36.0838
34.8279
34.167
34.1675
34.3393
34.7343
35.5796
36.222
34.879
32.3722
29.9728
28.0265
27.2274
30.3301
61.8134
131.347
65.4284
58.7711
59.8058
63.8999
69.6038
71.5419
73.0899
75.3325
70.8971
61.7384
54.2397
48.4689
44.056
40.7993
38.4997
37
36.1877
35.8086
35.3242
35.2481
35.7257
35.06
33.2771
31.4686
29.6766
28.1294
27.6954
31.4054
65.2271
136.818
67.6269
60.0831
60.8082
64.0953
69.1746
71.8492
71.4042
72.5853
70.2764
63.7853
58.058
52.9596
48.4156
44.7984
42.1247
40.2386
39.149
38.3167
37.2476
36.7465
36.2084
34.6997
33.2193
31.7689
30.1775
28.8107
28.6663
32.9109
69.2142
138.378
69.6112
61.9281
62.5456
65.0266
67.9264
70.9915
70.314
70.0816
69.2703
65.0704
60.8195
56.7976
52.8453
49.4342
46.7346
44.6038
43.0413
41.7421
40.2836
38.9648
37.3182
35.7555
34.5823
33.23
31.6451
30.2993
30.2485
34.8603
73.5888
139.83
71.9378
64.6732
65.6326
67.8841
68.9016
69.4764
70.034
70.0552
69.7888
66.6085
63.194
60.1286
57.0684
54.302
51.9815
49.9725
48.1105
46.1898
44.1515
41.9075
39.9146
38.7101
37.6421
36.1777
34.3946
32.824
32.6409
37.4582
78.7912
141.088
74.5488
68.3062
70.1287
73.1943
73.9842
72.1844
71.27
72.7657
72.5456
69.4126
66.4075
63.9668
61.7254
59.7425
58.0249
56.3987
54.5643
52.2327
49.482
46.8517
45.043
43.8065
42.5244
40.838
38.6876
36.6415
36.0775
40.963
85.3225
142.548
78.0345
72.693
75.1946
78.7162
81.378
80.5784
77.6499
79.1439
77.9421
74.4248
71.7342
69.7209
68.1245
66.851
65.7676
64.5953
62.9672
60.5803
57.6883
55.0249
52.8711
51.1256
49.5546
47.6376
44.8554
41.9582
40.7603
45.6445
93.4976
146.78
82.4199
76.2025
79.4264
84.4513
89.8048
92.2326
89.738
87.5645
85.4196
82.0389
79.6419
78.0536
77.1219
76.6011
76.2618
75.6739
74.3859
72.1684
69.3272
66.3537
63.5502
61.2241
59.4574
57.2681
53.1806
48.8517
46.8269
51.8477
103.643
154.251
85.8705
77.5133
79.798
85.5369
92.9671
98.3315
98.7386
96.8675
94.2378
91.8276
90.0792
89.1075
89.0118
89.5245
90.2911
90.612
89.827
87.7309
84.6815
81.145
77.5317
74.5144
71.2235
67.5781
62.2089
57.2506
53.9927
59.6065
115.704
151.324
83.1404
74.8594
77.5259
84.0246
92.5375
100.231
103.196
103.563
104.272
104.45
103.537
103.049
103.828
105.882
108.445
110.231
110.252
108.366
104.84
100.188
95.1345
90.3583
84.8851
78.2169
71.3744
64.8824
61.4342
68.8244
130.582
145.679
77.1264
70.4475
73.404
79.932
88.3996
96.6176
101.704
103.801
107.154
111.694
115.801
118.852
120.493
125.149
130.985
135.355
137.022
135.718
131.298
124.19
115.792
107.772
98.2623
89.4163
79.906
72.2676
69.2599
76.5369
151.834
137.646
72.0055
65.6246
68.302
74.2645
81.8851
89.7661
96.3269
100.793
104.85
110.406
117.876
126.294
135.083
145.081
157.139
166.79
170.506
168.95
162.238
150.91
136.228
121.484
111.642
101.34
89.0626
78.7199
75.9068
86.6926
164.769
129.553
67.0282
60.8439
63.1025
68.2682
74.8528
82.0154
88.9963
95.46
101.881
109.192
117.924
127.518
139.105
157.343
180.873
200.206
206.533
201.62
189.987
169.864
146.137
130.66
120.501
108.975
95.3942
84.0744
79.3885
90.7945
176.772
122.286
62.5561
56.5973
58.4286
62.8946
68.7024
75.3124
82.4061
89.984
98.4335
108.246
119.356
131.009
143.844
164.221
197.337
225.959
230.551
218.357
199.432
174.695
151.202
136.445
125.466
112.981
99.191
88.053
82.825
92.6963
185.266
117.303
59.1605
53.3257
54.8396
58.8378
64.2088
70.5935
77.8956
86.217
95.8883
107.259
120.039
134.007
150.875
173.347
203.292
227.799
228.462
214.03
194.286
173.413
155.66
142.571
130.222
115.631
101.418
90.8889
85.9631
95.6118
187.797
114.6
57.1763
51.3369
52.6587
56.4547
61.7422
68.1995
75.8111
84.7613
95.3991
107.937
122.032
137.907
156.967
177.541
198.104
212.791
213.02
201.77
186.569
172.151
160.715
150.598
136.778
118.335
102.66
92.2864
87.9546
97.5881
186.448
114.288
56.8274
50.825
52.0502
55.8594
61.3132
68.0694
76.0936
85.6065
97.0739
110.76
126.219
144.022
162.316
177.02
187.163
193.974
194.905
189.039
180.033
171.923
166.126
159.159
143.115
120.997
103.714
92.9688
89.0675
98.7685
185.209
116.774
58.2529
51.9133
53.0808
57.0208
62.7548
69.943
78.5105
88.6454
100.872
115.51
132.686
150.799
165.562
173.311
176.588
179.47
180.622
178.412
174.409
171.445
170.342
165.804
146.686
122.434
104.541
93.6116
89.9898
99.7483
188.501
124.361
62.0091
54.9075
56.0417
60.1542
66.0841
73.6259
82.8237
93.6677
106.53
122.121
139.93
156.578
166.277
168.29
167.881
168.741
169.824
169.708
169.177
170.139
172.514
167.822
145.996
122.064
104.623
94.0878
90.7834
100.445
193.68
134.717
67.3024
59.9112
61.2998
65.6313
71.4737
78.8929
88.3096
99.9028
113.495
129.227
146.119
160.498
165.468
163.251
160.649
160.429
161.466
162.585
164.366
168.081
172.157
165.26
142.722
120.21
103.889
94.0377
90.8948
100.777
197.287
141.257
73.5554
66.9763
69.2979
74.0804
79.1745
85.6297
94.5204
106.191
120.139
135.173
150.768
162.249
163.106
158.03
154.309
153.604
154.632
156.491
159.697
164.968
169.206
159.611
137.854
117.211
102.159
92.8572
89.8596
100.122
197.279
147.393
82.312
76.634
80.3893
86.0098
88.9236
93.1172
100.817
112.006
125.833
140.513
155.222
162.812
159.652
152.808
148.526
147.503
148.375
150.431
154.082
159.546
162.491
151.328
131.465
113.048
99.245
90.5208
87.9353
98.677
194.113
169.676
96.871
88.7114
92.3586
96.3459
97.5428
99.9162
106.397
117.377
131.489
146.512
159.506
162.112
155.604
147.76
143.047
141.563
141.931
143.568
146.851
151.606
152.569
141.079
123.962
108.094
95.6593
87.7006
85.6213
96.7674
189.296
210.227
112.259
98.4164
99.241
99.4065
101.937
104.344
110.675
123.066
138.89
154.076
162.894
159.666
151.182
143.293
138.245
135.942
135.35
136.092
138.661
142.76
142.119
131.261
116.644
102.838
91.7839
84.6481
83.0625
94.3025
183.548
247.188
121.602
103.037
99.4557
97.3949
100.827
106.24
114.561
129.462
149.453
165.243
166.333
158.325
149.266
140.919
134.829
131.01
129.226
129.009
130.666
134.062
132.485
122.176
109.587
97.6684
87.9843
81.5872
80.1793
90.6245
172.969
269.677
124.649
106.277
98.5646
95.1298
98.5719
105.622
117.415
137.208
161.971
178.605
174.056
162.307
151.106
141.073
133.279
128.129
125.355
124.307
124.692
125.946
122.799
113.539
102.589
92.6434
84.5244
78.8525
77.3859
86.7668
162.054
279.03
125.33
108.318
98.1066
93.1463
96.0226
103.627
116.69
139.149
166.825
184.266
180.4
166.821
153.109
141.776
133.131
127.511
124.261
122.91
122.506
121.737
117.326
107.573
97.3133
88.6691
81.7335
76.8604
75.4633
84.9873
158.096
273.552
123.554
108.335
96.3478
90.5158
92.7301
99.9729
112.598
134.315
161.369
178.3
175.875
163.668
150.645
139.899
131.668
126.187
122.835
121.142
120.004
117.684
112.366
103.109
93.2819
85.0349
78.9227
74.9488
74.2812
85.5596
163.11
257.094
118.092
103.513
92.1204
86.6178
88.4807
94.938
106.195
125.236
148.782
163.222
161.58
152.993
142.923
134.016
126.989
121.999
118.67
116.512
114.572
111.382
105.334
96.8192
87.9125
80.2594
74.7294
71.7711
72.4071
85.8484
171.831
236.588
109.486
95.3354
85.9411
81.6372
83.4305
89.0863
98.8099
115.037
134.902
146.948
145.59
139.432
132.198
125.392
119.686
115.33
112.116
109.571
106.929
103.194
97.5324
90.2048
82.4677
75.6572
70.6987
68.3158
69.896
84.1552
183.093
217.235
99.3145
86.7661
79.2953
76.1516
77.949
82.9049
91.397
105.381
122.341
132.629
131.519
126.916
121.666
116.497
111.865
108.025
104.898
102.125
99.1347
95.2714
90.0782
83.7425
77.1071
71.1972
66.855
64.8969
66.8166
81.1873
186.22
196.529
89.9706
78.6684
72.6267
70.5309
72.3962
76.8566
84.4901
96.9525
111.805
120.39
119.354
115.763
111.851
107.909
104.16
100.786
97.7702
94.8801
91.7257
87.8754
83.0928
77.5646
71.8823
66.8072
63.0791
61.4829
63.4572
77.4865
181.928
177.003
81.185
70.6743
65.9896
64.9398
66.9512
71.1083
78.2722
89.7431
102.987
109.795
108.686
105.773
102.75
99.6826
96.6182
93.6506
90.7808
87.8745
84.6897
80.9569
76.5741
71.723
66.8305
62.4693
59.2663
57.9534
59.8022
73.0769
172.162
162.638
73.4617
63.2235
59.6075
59.4331
61.6574
65.7651
72.7876
83.6431
95.4002
100.335
99.1356
96.736
94.3187
91.8543
89.2952
86.6702
83.9768
81.1447
78.0364
74.4971
70.5021
66.2183
61.9725
58.2118
55.456
54.2815
55.9116
68.622
161.941
149.846
66.6008
56.4787
53.5946
54.1055
56.6247
60.9283
68.0058
78.343
88.4389
91.6564
90.4598
88.4965
86.5215
84.478
82.29
79.9465
77.4437
74.7476
71.7841
68.4759
64.8463
61.0492
57.3509
54.108
51.7291
50.6359
52.0597
64.207
151.221
137.476
60.2131
50.3905
48.2097
49.2506
52.0944
56.7314
63.9903
73.8725
81.9207
83.6594
82.5562
80.9723
79.3354
77.5946
75.6818
73.5684
71.2521
68.721
65.937
62.8729
59.5837
56.2125
52.9855
50.1869
48.1321
47.1119
48.4177
60.1877
141.68
127.292
54.764
45.1788
43.5971
45.0767
48.2775
53.2018
60.7034
69.9727
75.6259
76.3717
75.4095
74.1305
72.7494
71.2251
69.513
67.5863
65.4431
63.0831
60.4892
57.6672
54.6915
51.6977
48.8793
46.4658
44.71
43.7008
44.8936
56.2008
132.606
117.55
50.086
40.9695
39.8905
41.7234
45.18
50.2999
57.9538
65.993
69.597
69.792
68.9751
67.9274
66.7328
65.3607
63.7938
62.0175
60.0315
57.8366
55.4295
52.84
50.1517
47.4942
45.0349
42.9464
41.3925
40.2921
41.3771
51.9343
121.881
106.617
45.7665
37.5085
36.8589
38.937
42.5483
47.9273
55.3814
61.7303
63.942
63.8847
63.1916
62.3012
61.232
59.9684
58.5134
56.86
55.0118
52.9711
50.7418
48.3681
45.9376
43.5722
41.4155
39.5786
38.185
36.9738
37.7917
46.7068
106.262
96.5879
41.8903
34.5528
34.1888
36.475
40.33
45.9306
52.7926
57.5383
58.8403
58.6135
57.9777
57.175
56.1871
55.0083
53.6454
52.0971
50.3719
48.4723
46.4082
44.2301
42.0225
39.8995
37.9861
36.3705
35.0352
33.7151
34.2761
41.549
91.6001
86.8124
38.501
32.0418
31.887
34.3211
38.4247
44.0393
50.1334
53.6677
54.319
53.8897
53.2346
52.4663
51.54
50.4397
49.1619
47.7089
46.0951
44.3259
42.4157
40.4145
38.399
36.4707
34.7332
33.2655
31.9229
30.599
31.0424
37.4292
82.2201
78.2851
35.5058
29.8368
29.8797
32.4181
36.6396
42.036
47.4636
50.1411
50.2128
49.5512
48.8461
48.1048
47.2455
46.2272
45.0351
43.6748
42.1656
40.5189
38.7535
36.9156
35.0731
33.3133
31.7162
30.3423
28.9833
27.7149
28.2154
34.1328
75.4613
70.5633
32.7216
27.8547
28.0822
30.5947
34.6824
39.767
44.6333
46.6121
46.2675
45.4496
44.7315
44.0495
43.2731
42.3431
41.242
39.9745
38.5656
37.0349
35.4063
33.721
32.0385
30.432
28.9583
27.6994
26.4086
25.2765
25.9275
31.7029
70.9188
65.6124
30.53
26.1376
26.4269
28.7166
32.3203
36.8616
41.2052
42.7969
42.3256
41.5297
40.8757
40.2897
39.6103
38.7704
37.7614
36.5865
35.2749
33.8549
32.3553
30.8123
29.278
27.8204
26.5079
25.386
24.1749
23.2628
24.0757
29.61
66.5749
62.9969
28.8296
24.6637
24.9006
26.8695
29.8499
33.5645
37.2219
38.6924
38.4334
37.8329
37.3106
36.8366
36.2549
35.4958
34.5719
33.4876
32.2709
30.9589
29.5826
28.1734
26.7761
25.4558
24.3004
23.3003
22.1921
21.5012
22.3726
27.3933
61.7746
60.562
27.4573
23.4214
23.5733
25.2062
27.5529
30.3262
33.2147
34.7509
34.8473
34.4828
34.1019
33.7079
33.199
32.5006
31.6466
30.649
29.5281
28.3249
27.0694
25.7863
24.5099
23.2946
22.2775
21.3869
20.4084
19.9451
20.8153
25.4085
57.0537
58.9569
26.455
22.4741
22.5155
23.8134
25.6049
27.611
29.769
31.2355
31.6751
31.5813
31.3003
30.9037
30.411
29.7505
28.9512
28.0365
27.0176
25.9301
24.7971
23.6361
22.4702
21.3518
20.4176
19.6189
18.8819
18.6667
19.5618
23.9092
53.8037
57.9716
25.5618
21.522
21.3612
22.3673
23.7829
25.3686
26.9728
28.135
28.8019
29.0038
28.802
28.3401
27.8173
27.1838
26.4376
25.609
24.7067
23.7512
22.75
21.715
20.658
19.6262
18.7677
18.1034
17.6735
17.6617
18.5835
22.7563
51.4837
54.8671
24.1343
20.1561
19.8653
20.7457
22.0287
23.4337
24.6414
25.3659
26.0197
26.387
26.324
25.8618
25.328
24.7319
24.0567
23.3287
22.5573
21.7534
20.9055
20.0023
19.0515
18.13
17.3637
16.8529
16.6616
16.7789
17.7031
21.6969
49.231
49.2113
22.0959
18.5517
18.309
19.1492
20.3853
21.6149
22.4264
22.8726
23.4229
23.7534
23.6676
23.2699
22.8082
22.303
21.7409
21.1351
20.4976
19.832
19.1193
18.387
17.6189
16.8075
16.1072
15.6946
15.5843
15.7958
16.7052
20.5253
46.5942
44.748
20.2421
17.0607
16.8442
17.6082
18.7447
19.7547
20.2707
20.5829
20.9156
21.0986
21.0034
20.7461
20.4162
20.0331
19.5956
19.1098
18.5875
18.0328
17.4402
16.8186
16.1381
15.4523
14.8925
14.5525
14.4169
14.575
15.4389
19.0998
43.6618
40.9335
18.6177
15.6478
15.3811
16.0215
16.9879
17.8338
18.2982
18.4934
18.5902
18.6209
18.558
18.4154
18.212
17.9507
17.6307
17.2554
16.8343
16.3663
15.8454
15.2999
14.7602
14.2431
13.7862
13.4271
13.1868
13.2228
13.9833
17.381
39.7871
38.8621
17.1824
14.256
13.9316
14.4493
15.234
15.9312
16.3721
16.5604
16.596
16.564
16.4927
16.3843
16.2403
16.0561
15.8239
15.5408
15.2117
14.8364
14.4144
13.9731
13.5459
13.1212
12.6834
12.2703
11.9538
11.9002
12.5198
15.4783
35.0721
35.5953
15.6884
12.889
12.5525
12.9768
13.6196
14.2092
14.6248
14.8319
14.8756
14.834
14.7552
14.6541
14.537
14.4003
14.231
14.0212
13.7722
13.4854
13.1612
12.8044
12.4187
11.9989
11.5516
11.115
10.7644
10.6532
11.1346
13.594
30.0271
31.3874
14.0141
11.5818
11.3096
11.6817
12.2367
12.7565
13.1361
13.3273
13.3679
13.3366
13.2805
13.2114
13.127
13.0231
12.8927
12.7306
12.5333
12.2967
12.0138
11.6756
11.285
10.8592
10.4157
9.98362
9.62837
9.48361
9.85019
11.8839
25.6157
26.104
12.2613
10.3763
10.2165
10.5796
11.0955
11.5746
11.9118
12.0666
12.0842
12.0512
12.013
11.9747
11.9238
11.846
11.7352
11.5883
11.4013
11.1677
10.88
10.5366
10.1495
9.73625
9.31189
8.90061
8.55784
8.39766
8.67861
10.385
22.21
21.4336
10.8412
9.33637
9.28812
9.67759
10.1825
10.6304
10.9229
11.0345
11.0198
10.9745
10.9349
10.895
10.8389
10.756
10.6393
10.4851
10.2898
10.049
9.75992
9.42558
9.05674
8.66708
8.27005
7.88742
7.56607
7.40275
7.62182
9.08061
19.4605
18.4387
9.68558
8.49533
8.57415
9.00747
9.50082
9.89906
10.114
10.1618
10.112
10.0575
9.99898
9.92654
9.83477
9.72172
9.58361
9.41574
9.21364
8.97366
8.69443
8.379
8.03536
7.67426
7.30829
6.95753
6.66186
6.50338
6.67812
7.93981
17.0796
16.9764
8.89442
7.96249
8.14904
8.63242
9.0299
9.21487
9.28449
9.29577
9.27181
9.22058
9.13656
9.02345
8.89133
8.7466
8.58773
8.40929
8.2056
7.97258
7.70868
7.41586
7.09983
6.76918
6.43552
6.1173
5.84878
5.69988
5.84188
6.93755
14.9747
16.8983
8.70432
7.84553
8.08061
8.42015
8.50136
8.45796
8.47146
8.48922
8.47142
8.39978
8.29744
8.15869
8.00144
7.83723
7.66649
7.48389
7.28349
7.06096
6.81441
6.5449
6.25653
5.9563
5.65464
5.3682
5.12661
4.98978
5.10702
6.06058
13.1134
17.7357
8.98412
8.0717
8.19031
8.07973
7.8902
7.81714
7.81835
7.8032
7.72708
7.60734
7.49041
7.3405
7.17387
7.00322
6.82967
6.6487
6.45502
6.24466
6.01576
5.76883
5.50693
5.23584
4.96478
4.70849
4.49274
4.36907
4.4676
5.29955
11.4835
20.5739
9.8717
8.59179
8.18273
7.65874
7.43208
7.37643
7.33689
7.21243
7.02505
6.86909
6.74084
6.58725
6.42126
6.25271
6.08237
5.90675
5.7217
5.52403
5.31216
5.08638
4.84912
4.60522
4.36268
4.13446
3.94294
3.83277
3.91756
4.64687
10.0807
24.5571
11.1611
9.05578
8.00127
7.38403
7.21023
7.10921
6.90058
6.60015
6.35814
6.2039
6.06594
5.91233
5.75143
5.58891
5.42478
5.25645
5.08091
4.8958
4.69997
4.49371
4.27902
4.06001
3.8436
3.64108
3.47196
3.3752
3.45057
4.09536
8.89887
27.943
12.1788
9.04716
7.81518
7.31712
7.03922
6.67402
6.33305
6.01573
5.78733
5.62403
5.47382
5.32037
5.16529
5.00991
4.85323
4.69314
4.52746
4.3546
4.17379
3.9854
3.79119
3.5947
3.40189
3.22256
3.07388
2.99017
3.05987
3.63733
7.92699
28.5057
11.8938
8.75755
7.68662
7.05083
6.55393
6.16306
5.81499
5.51791
5.29698
5.12048
4.96121
4.80825
4.65868
4.51058
4.36188
4.21058
4.05501
3.89408
3.72737
3.55536
3.37964
3.20328
3.03149
2.87286
2.74258
2.67129
2.73844
3.26415
7.14676
27.0198
11.0726
8.28284
7.15829
6.48159
6.0555
5.69234
5.36286
5.08633
4.86667
4.68294
4.51989
4.36908
4.22528
4.08469
3.94443
3.80241
3.65719
3.50795
3.35454
3.19753
3.03839
2.87985
2.72652
2.58607
2.47209
2.41235
2.47936
2.96674
6.53407
23.453
10.0026
7.56047
6.55205
5.9924
5.61101
5.27722
4.9699
4.70726
4.48931
4.3043
4.14246
3.99611
3.85905
3.72659
3.5954
3.46318
3.32855
3.19081
3.04995
2.90659
2.76216
2.61914
2.48172
2.35684
2.25695
2.20765
2.27623
2.73627
6.06364
18.4813
8.81146
6.88174
6.0107
5.54072
5.2201
4.91626
4.62745
4.37483
4.16137
3.98048
3.82406
3.68459
3.55568
3.43235
3.311
3.18918
3.0654
2.93897
2.80988
2.67877
2.54706
2.41712
2.29289
2.18085
2.09265
2.05234
2.12342
2.56458
5.71201
14.4473
7.83565
6.20474
5.50632
5.15652
4.89108
4.60847
4.33215
4.08863
3.88304
3.71028
3.56253
3.43234
3.31331
3.20042
3.08994
2.97922
2.86662
2.75129
2.63313
2.51273
2.3915
2.27186
2.1577
2.05537
1.97606
1.94285
2.01675
2.44645
5.46346
11.548
6.76344
5.5488
5.086
4.86682
4.63157
4.35259
4.08422
3.85012
3.65534
3.49405
3.35816
3.23992
3.13293
3.03219
2.93391
2.83534
2.73449
2.63022
2.52215
2.41071
2.29728
2.18452
2.07662
1.98012
1.90622
1.87757
1.954
2.37868
5.31183
9.5758
5.78467
5.00312
4.81071
4.6696
4.41499
4.14246
3.88022
3.65834
3.47896
3.33383
3.21376
3.11087
3.01877
2.93249
2.84822
2.76335
2.67542
2.58269
2.48419
2.37987
2.27101
2.16081
2.05428
1.95868
1.88572
1.8582
1.93581
2.36075
5.25575
8.08061
5.06352
4.70783
4.65753
4.44143
4.22878
3.95727
3.70929
3.51097
3.35606
3.23389
3.13487
3.05206
2.97885
2.91024
2.84205
2.7702
2.69326
2.60967
2.51782
2.41683
2.30784
2.195
2.0844
1.98425
1.90694
1.87564
1.95001
2.37358
5.25986
7.5385
4.79843
4.53789
4.38971
4.23203
4.03204
3.77807
3.57029
3.41252
3.29346
3.20274
3.13039
3.06805
3.01315
2.96185
2.91032
2.85573
2.79458
2.72376
2.64035
2.54161
2.42822
2.30656
2.18485
2.07277
1.98414
1.94297
2.00874
2.42934
5.3239
7.94745
4.70141
4.30349
4.09279
4.03258
3.83554
3.63092
3.4824
3.37778
3.30064
3.24182
3.19853
3.16653
3.14046
3.11671
3.09078
3.05899
3.01699
2.96023
2.8835
2.78213
2.65803
2.52127
2.38223
2.25144
2.14543
2.08995
2.14426
2.56688
5.5281
9.03638
4.70782
4.0736
3.89539
3.85477
3.6853
3.55137
3.47054
3.41701
3.38716
3.37615
3.37803
3.3869
3.39728
3.40413
3.40376
3.39219
3.36369
3.3125
3.23405
3.12409
2.98587
2.83227
2.67476
2.52348
2.39855
2.32892
2.37491
2.81352
5.95794
10.1573
4.75068
3.95111
3.75478
3.72328
3.62271
3.56358
3.54498
3.5587
3.59477
3.64243
3.69449
3.74731
3.796
3.83531
3.85934
3.86114
3.8359
3.77559
3.67956
3.54602
3.3887
3.22849
3.06862
2.90884
2.77218
2.69011
2.73214
3.20251
6.64048
10.3494
4.70348
3.89198
3.67796
3.71361
3.67214
3.68618
3.75102
3.84441
3.94901
4.05884
4.16802
4.27118
4.3621
4.43334
4.47612
4.48077
4.44484
4.35794
4.19645
4.0038
3.81737
3.64892
3.50429
3.3866
3.286
3.21183
3.26732
3.82417
7.85223
10.0688
4.5378
3.82459
3.70107
3.83709
3.86925
3.9726
4.12194
4.29321
4.47386
4.65523
4.8295
4.9887
5.12372
5.22365
5.27629
5.27163
5.20842
5.0434
4.78253
4.54024
4.31662
4.12116
3.97081
3.8796
3.84004
3.85424
3.995
4.76304
10.125
9.36445
4.40955
3.85069
3.86211
4.16634
4.26938
4.44493
4.6753
4.93273
5.19969
5.46301
5.71081
5.93114
6.11055
6.23395
6.28493
6.25446
6.11283
5.80934
5.48927
5.21661
4.94189
4.69476
4.49874
4.37438
4.34259
4.43041
4.8033
6.13004
14.3399
9.4245
4.50173
4.04399
4.25877
4.71385
4.86321
5.11112
5.43202
5.78854
6.15538
6.51293
6.84378
7.1306
7.35462
7.49562
7.53211
7.44334
7.13306
6.69636
6.33754
6.00514
5.66425
5.36123
5.11564
4.94691
4.88867
4.99357
5.53238
7.59678
20.4305
10.3776
4.88553
4.55839
4.98428
5.45951
5.64092
5.97654
6.40798
6.88346
7.36844
7.83587
8.26154
8.62178
8.892
9.04723
9.05694
8.84936
8.29356
7.72964
7.26389
6.84228
6.46091
6.13174
5.86876
5.6793
5.61315
5.74345
6.37244
8.75927
24.0001
13.2859
5.88436
5.43242
5.98356
6.31487
6.57558
7.04227
7.61879
8.24175
8.86919
9.46658
10.0022
10.445
10.7641
10.9306
10.8844
10.4152
9.63117
8.97999
8.43972
7.92614
7.43932
7.04277
6.77533
6.60738
6.55472
6.69733
7.35075
9.73433
24.7816
16.9382
7.13329
6.35365
6.85795
7.18344
7.65476
8.32228
9.08973
9.89592
10.6959
11.4489
12.1149
12.6537
13.0248
13.1873
13.0013
12.1887
11.3846
10.6754
10.0723
9.56368
8.98695
8.43763
8.05481
7.82287
7.71482
7.81277
8.3671
10.6386
26.3133
17.3963
7.70796
6.9869
7.50582
8.1261
8.92833
9.86156
10.864
11.8903
12.8985
13.8419
14.6699
15.3282
15.7554
15.8581
15.4045
14.5469
13.7342
13.0477
12.438
11.8575
11.2206
10.5783
10.0604
9.68952
9.39307
9.24277
9.5165
11.6155
28.054
16.7986
7.98853
7.58254
8.30661
9.35021
10.5079
11.7316
12.9972
14.2793
15.5384
16.7226
17.7684
18.5999
19.1178
19.1652
18.6043
17.7979
17.0132
16.268
15.53
14.8163
14.1209
13.4303
12.8137
12.3094
11.8565
11.4404
11.2236
12.7461
28.1538
16.631
8.52701
8.60578
9.71979
11.0773
12.5149
14.0093
15.5484
17.1174
18.6799
20.1791
21.5376
22.6528
23.3787
23.5037
23.0445
22.3177
21.4227
20.4457
19.4352
18.479
17.6496
16.9327
16.3357
15.8563
15.4305
14.8952
14.3195
15.2865
29.2026
17.8186
9.7994
10.4355
11.8677
13.3889
15.0214
16.7493
18.5573
20.4409
22.3705
24.2872
26.103
27.6861
28.836
29.2945
29.0767
28.3142
27.1432
25.7483
24.2669
22.8675
21.7383
20.9757
20.5121
20.3253
20.3196
20.0503
19.5112
20.485
35.8336
22.5388
12.6171
13.18
14.6737
16.2882
18.0507
19.9677
22.0222
24.2437
26.6137
29.0772
31.5461
33.8643
35.7626
36.8723
36.9691
36.1037
34.471
32.4407
30.272
28.2743
26.787
26.0148
25.7042
25.713
26.1353
26.6918
27.2286
29.8668
55.5524
30.984
16.7416
16.6712
18.1319
19.7746
21.5919
23.6065
25.8651
28.4514
31.3433
34.4964
37.8465
41.2406
44.3379
46.5636
47.2755
46.2387
43.8458
40.8741
37.8178
35.1867
33.3199
32.4448
32.4357
32.8992
33.4458
34.3257
36.847
43.2732
87.0598
40.3324
21.6492
20.9127
22.2986
23.8195
25.5617
27.4792
29.9369
32.9449
36.4353
40.4017
44.85
49.7091
54.6455
58.8528
60.9311
59.6169
55.7426
51.1475
47.0694
43.7337
41.4585
40.4371
40.6986
42.1001
43.862
45.1278
48.4863
61.1973
137.786
51.0251
27.3687
26.0038
27.2034
28.3809
29.8682
31.6191
34.2339
37.6778
41.7825
46.5987
52.2627
58.9013
66.3609
73.7594
79.051
77.7587
70.5457
63.3378
57.834
53.7108
50.9871
49.8223
50.3319
52.5301
56.2605
61.0308
65.8973
85.4685
212.624
63.495
33.909
31.9735
32.8753
33.478
34.5994
36.2217
38.9008
42.723
47.3542
52.9094
59.6954
68.1337
78.5866
90.1089
96.5976
95.3673
85.7725
77.0533
69.7831
64.4457
61.1336
60.0249
61.1495
64.7991
71.058
79.4648
87.6641
114.682
305.836
76.62
41.9784
39.2301
39.5172
39.2745
39.9457
41.4378
44.0886
48.211
53.2199
59.2874
66.8392
76.572
89.1509
101.831
109.683
107.405
100.14
90.5565
81.1224
74.3861
70.6033
69.8652
72.3982
78.165
85.2567
91.6452
101.3
131.096
341.724
106.382
55.0178
49.3638
47.527
46.0358
46.1221
47.425
49.9953
54.3384
59.6051
65.9418
73.7131
83.4916
95.367
106.119
112.932
109.111
103.28
97.9514
90.4195
83.9935
80.2433
79.8991
83.3922
89.2011
94.0425
98.9004
109.677
138.124
335.365
139.271
73.2742
61.8019
56.768
53.7112
53.2072
54.1607
56.7861
61.3994
66.9575
73.5137
81.1827
89.9745
99.2903
106.808
112.03
107.92
102.125
98.3316
94.3963
90.0726
86.2067
84.8708
86.9721
91.1786
94.5407
98.8972
114.056
147.395
318.475
140.888
80.0453
71.9654
65.9684
61.8646
60.9155
61.7613
64.8546
69.8676
75.9423
82.9899
90.6851
98.5429
105.684
110.095
113.642
108.307
102.937
100.293
97.4327
93.0864
88.6238
86.211
86.7131
89.255
91.5174
95.7021
112.365
156.481
279.143
128.755
78.8289
75.7883
71.8046
69.6246
69.0698
70.7243
74.5023
80.1038
87.2365
95.4674
103.981
111.909
118.095
120.501
122.216
112.67
105.639
102.4
99.4898
95.0832
90.0749
86.6231
85.767
86.9281
88.2643
90.8908
105.685
154.017
227.668
120.476
76.5367
75.3642
74.5603
73.7585
76.8301
80.0808
84.8506
91.8978
101.387
112.113
122.804
132.315
139.148
141.401
139.947
121.838
110.533
104.634
100.338
95.3712
89.9752
85.6477
83.1937
82.3573
82.2745
82.7129
91.3166
128.788
167.869
123.868
75.6736
75.0543
74.5615
76.0089
81.4857
87.006
93.9518
105.119
118.975
134.06
148.909
162.166
171.567
174.722
163.577
133.255
115.898
106.32
100.151
94.5393
88.7627
83.5133
79.3547
76.1078
73.5492
71.194
70.4722
87.2053
115.537
132.742
75.9038
76.143
75.6639
77.6996
84.4715
92.668
103.807
120.783
140.814
162.267
184.288
204.77
219.167
213.194
180.453
141.052
118.523
105.873
98.3541
92.1906
86.1105
80.2348
74.7879
69.5291
64.1651
58.5516
52.5212
55.0674
76.4186
139.216
76.8197
77.9305
78.0001
80.8023
88.662
99.8353
116.871
140.168
167.377
197.261
230.212
263.487
280.165
243.582
179.547
140.215
116.558
102.69
94.2042
87.7877
81.7709
75.6873
69.5174
63.0927
56.0051
47.9313
38.9954
35.0955
48.7169
142.858
78.5384
80.8777
81.8938
85.9034
95.403
110.304
133.7
163.272
197.792
237.746
285.859
333.971
329.734
238.029
171.503
133.828
110.828
96.9803
88.2552
81.7298
75.9008
69.946
63.5357
56.5797
48.9323
39.9841
29.4877
22.8754
28.5624
148.317
82.4372
84.6517
87.0178
92.7539
104.994
124.97
153.332
188.18
229.329
280.186
338.742
366.317
309.894
219.128
160.106
124.988
103.581
90.4282
81.6901
74.9145
69.0722
63.2557
56.8138
49.6787
42.0502
33.7337
23.3545
15.5871
16.3323
157.282
89.0664
88.5629
92.5012
101.172
117.815
142.526
174.348
212.781
259.166
311.255
349.904
333.603
268.375
198.621
149.011
117.099
96.8826
83.8431
74.6936
67.7682
61.8919
55.9819
49.6142
42.8112
35.8829
27.966
18.9989
11.5937
10.0371
170.32
98.6658
93.1769
99.222
111.621
133.442
161.224
194.772