/*--------------------------------*- C++ -*----------------------------------*\
| =========                 |                                                 |
| \\      /  F ield         | OpenFOAM: The Open Source CFD Toolbox           |
|  \\    /   O peration     | Version:  v1606+                                |
|   \\  /    A nd           | Web:      www.OpenFOAM.com                      |
|    \\/     M anipulation  |                                                 |
\*---------------------------------------------------------------------------*/
FoamFile
{
    version     2.0;
    format      ascii;
    class       volVectorField;
    location    "0.48";
    object      U.particlesMean;
}
// * * * * * * * * * * * * * * * * * * * * * * * * * * * * * * * * * * * * * //

dimensions      [0 1 -1 0 0 0 0];

internalField   nonuniform List<vector> 
6000
(
(-0.00733095 -0.316186 0)
(-0.00529398 -0.352032 0)
(-0.00323869 -0.350803 0)
(-0.00228887 -0.352259 0)
(-0.000207407 -0.35292 0)
(0.00202345 -0.352514 0)
(0.00544539 -0.354502 0)
(0.00786777 -0.358585 0)
(0.009345 -0.36456 0)
(0.00915037 -0.369881 0)
(0.00826506 -0.37242 0)
(0.00718021 -0.373279 0)
(0.0054943 -0.376041 0)
(0.00363695 -0.377813 0)
(0.00114954 -0.378788 0)
(-0.00154901 -0.378111 0)
(-0.00366706 -0.376881 0)
(-0.00546042 -0.375039 0)
(-0.00677439 -0.37385 0)
(-0.00839299 -0.373146 0)
(-0.00953263 -0.369298 0)
(-0.00954573 -0.363472 0)
(-0.00794327 -0.357379 0)
(-0.00518301 -0.353496 0)
(-0.0018044 -0.352958 0)
(0.000358099 -0.351982 0)
(0.00254139 -0.351081 0)
(0.00379997 -0.349638 0)
(0.00633893 -0.350831 0)
(0.00805405 -0.31781 0)
(0.0121902 0.0304627 0)
(-0.000647732 0.0572226 0)
(-0.00222442 0.053961 0)
(-0.00775894 0.0538295 0)
(-0.00646239 0.0499582 0)
(-0.00353898 0.0465635 0)
(0.000826367 0.0430214 0)
(0.00457907 0.0414615 0)
(0.00786453 0.0413657 0)
(0.00910405 0.0420958 0)
(0.00912706 0.0421443 0)
(0.00800136 0.0413811 0)
(0.00620997 0.0416083 0)
(0.00377246 0.0409128 0)
(0.00120665 0.0406722 0)
(-0.00138052 0.0404879 0)
(-0.00391325 0.0410664 0)
(-0.00611371 0.0408052 0)
(-0.00791197 0.0416909 0)
(-0.00897771 0.0424167 0)
(-0.0089461 0.0417322 0)
(-0.0077903 0.0413872 0)
(-0.00476114 0.0412167 0)
(-0.000812596 0.0430026 0)
(0.00373061 0.0469054 0)
(0.00676661 0.0492799 0)
(0.0084096 0.0530392 0)
(0.00324291 0.0536092 0)
(0.00143213 0.0570636 0)
(-0.0117896 0.029948 0)
(-0.00566061 -0.015984 0)
(-0.00594262 -0.0221564 0)
(-0.00446881 -0.021416 0)
(-0.009408 -0.0252665 0)
(-0.0057205 -0.0309415 0)
(-0.00219256 -0.0320987 0)
(0.00235542 -0.0312104 0)
(0.00567012 -0.0309844 0)
(0.00832928 -0.0290009 0)
(0.00893884 -0.0272885 0)
(0.00867736 -0.027637 0)
(0.00733834 -0.0273862 0)
(0.00546787 -0.0266896 0)
(0.00341236 -0.026507 0)
(0.00121845 -0.0259055 0)
(-0.00117276 -0.0262116 0)
(-0.00337571 -0.026593 0)
(-0.00539571 -0.0273096 0)
(-0.00744989 -0.027317 0)
(-0.00847785 -0.0270863 0)
(-0.00865795 -0.0271348 0)
(-0.0081171 -0.028698 0)
(-0.00568332 -0.0308558 0)
(-0.00230559 -0.0317734 0)
(0.00265277 -0.0321146 0)
(0.00648919 -0.0311592 0)
(0.0102225 -0.0259776 0)
(0.00543402 -0.022205 0)
(0.00657107 -0.0216499 0)
(0.00573287 -0.0149963 0)
(-0.00225662 -0.00678571 0)
(-0.00763245 -0.020178 0)
(-0.0107437 -0.0186208 0)
(-0.0138354 -0.0236231 0)
(-0.0102635 -0.0307346 0)
(-0.00384232 -0.0346415 0)
(0.00453341 -0.0335762 0)
(0.0109022 -0.0297361 0)
(0.0141102 -0.0234765 0)
(0.0133097 -0.0172638 0)
(0.0103144 -0.0140375 0)
(0.00687941 -0.0127197 0)
(0.00404125 -0.0125478 0)
(0.00214371 -0.0127375 0)
(0.000786598 -0.0125569 0)
(-0.000571262 -0.0125969 0)
(-0.00192976 -0.0128818 0)
(-0.00384157 -0.01277 0)
(-0.00683567 -0.0128333 0)
(-0.0101516 -0.0140707 0)
(-0.0130669 -0.0173366 0)
(-0.0137844 -0.0234166 0)
(-0.0104412 -0.0298356 0)
(-0.00404067 -0.0343724 0)
(0.00466822 -0.0352633 0)
(0.0114023 -0.0313744 0)
(0.0149212 -0.02423 0)
(0.0117992 -0.0190567 0)
(0.00826002 -0.0193882 0)
(0.0023519 -0.00586925 0)
(-0.00197885 -0.00720614 0)
(-0.0146358 -0.0218141 0)
(-0.0212238 -0.0232846 0)
(-0.023888 -0.0401474 0)
(-0.0183004 -0.0554004 0)
(-0.00868491 -0.0641565 0)
(0.00300641 -0.0636148 0)
(0.0131683 -0.0579537 0)
(0.0199411 -0.0482229 0)
(0.0217861 -0.037932 0)
(0.0190389 -0.0307322 0)
(0.013146 -0.0268432 0)
(0.0073228 -0.0263761 0)
(0.00344212 -0.0274174 0)
(0.00110619 -0.0279167 0)
(-0.000790898 -0.0280162 0)
(-0.00319311 -0.0275851 0)
(-0.00714864 -0.026591 0)
(-0.0130495 -0.0269199 0)
(-0.018858 -0.0306699 0)
(-0.0215005 -0.0379547 0)
(-0.019453 -0.0480906 0)
(-0.0123296 -0.0578301 0)
(-0.00212654 -0.0641626 0)
(0.00970227 -0.0647444 0)
(0.0193592 -0.0559729 0)
(0.0249243 -0.0407551 0)
(0.0223029 -0.0237586 0)
(0.0155384 -0.0205473 0)
(0.00231243 -0.00564971 0)
(-0.00195898 -0.000939716 0)
(-0.0240075 -0.0118957 0)
(-0.033995 -0.0264523 0)
(-0.034792 -0.053508 0)
(-0.0273526 -0.0731108 0)
(-0.0143903 -0.0840558 0)
(0.000234219 -0.0830797 0)
(0.0132515 -0.0750843 0)
(0.0232683 -0.0621758 0)
(0.0295849 -0.0502402 0)
(0.0299216 -0.0400698 0)
(0.0238352 -0.033672 0)
(0.0153168 -0.0322536 0)
(0.00811685 -0.0336657 0)
(0.00263333 -0.0348858 0)
(-0.00224116 -0.0348768 0)
(-0.00788633 -0.03366 0)
(-0.0152536 -0.0322984 0)
(-0.0238746 -0.033749 0)
(-0.0297084 -0.0400499 0)
(-0.0291377 -0.0501858 0)
(-0.0225469 -0.0620454 0)
(-0.0122574 -0.0750539 0)
(0.000764426 -0.0837663 0)
(0.0155099 -0.0846696 0)
(0.0284292 -0.0737241 0)
(0.0358007 -0.0540443 0)
(0.0347004 -0.0266415 0)
(0.0245267 -0.00996436 0)
(0.00188703 0.00143146 0)
(-0.0091373 0.0140434 0)
(-0.0350421 -0.00687732 0)
(-0.0430054 -0.0323333 0)
(-0.0413476 -0.0631473 0)
(-0.0337572 -0.0867607 0)
(-0.020223 -0.10073 0)
(-0.00459051 -0.102126 0)
(0.0123045 -0.0930871 0)
(0.0250564 -0.0759854 0)
(0.0341865 -0.0591966 0)
(0.0371048 -0.0447373 0)
(0.0327356 -0.0347311 0)
(0.0237371 -0.0321077 0)
(0.0135097 -0.0334754 0)
(0.00443058 -0.0353794 0)
(-0.00400345 -0.035303 0)
(-0.0132398 -0.0333707 0)
(-0.0237215 -0.0321254 0)
(-0.0328334 -0.0350233 0)
(-0.0369186 -0.0450139 0)
(-0.0337837 -0.0595255 0)
(-0.024231 -0.0763693 0)
(-0.0111048 -0.0935757 0)
(0.00583035 -0.102721 0)
(0.0213067 -0.101102 0)
(0.0345618 -0.0867695 0)
(0.0418068 -0.0626544 0)
(0.0431773 -0.0316493 0)
(0.0348658 -0.00421062 0)
(0.00878832 0.0167173 0)
(-0.00310502 0.025738 0)
(-0.0344218 0.00476264 0)
(-0.0406401 -0.028625 0)
(-0.0389007 -0.0631776 0)
(-0.0325736 -0.0925865 0)
(-0.0218363 -0.11122 0)
(-0.00861884 -0.116146 0)
(0.00728562 -0.107719 0)
(0.0200414 -0.0887685 0)
(0.0316834 -0.069694 0)
(0.0369574 -0.0532567 0)
(0.037276 -0.0407928 0)
(0.029316 -0.037075 0)
(0.0178854 -0.0371417 0)
(0.0059356 -0.0386194 0)
(-0.00539989 -0.0384893 0)
(-0.0174278 -0.0369185 0)
(-0.0290123 -0.0369036 0)
(-0.0369905 -0.0409141 0)
(-0.03634 -0.0534093 0)
(-0.0310395 -0.06999 0)
(-0.0191417 -0.0893393 0)
(-0.00625451 -0.108281 0)
(0.00966296 -0.116574 0)
(0.0226995 -0.111318 0)
(0.0330522 -0.0923268 0)
(0.0391531 -0.0622641 0)
(0.0402067 -0.0272307 0)
(0.0338312 0.00746235 0)
(0.00269654 0.0292935 0)
(-0.000828343 0.0319223 0)
(-0.0271512 0.0157408 0)
(-0.0326808 -0.0207024 0)
(-0.0319608 -0.061239 0)
(-0.0303156 -0.0953784 0)
(-0.0210298 -0.11854 0)
(-0.0115421 -0.125918 0)
(0.00299897 -0.118318 0)
(0.0146594 -0.0983791 0)
(0.0256797 -0.0756545 0)
(0.0295095 -0.0551569 0)
(0.034109 -0.0400533 0)
(0.0289687 -0.0343903 0)
(0.0184122 -0.0341238 0)
(0.00613547 -0.0351195 0)
(-0.00576394 -0.0349998 0)
(-0.018087 -0.0338656 0)
(-0.0286773 -0.0341086 0)
(-0.0335076 -0.0400388 0)
(-0.0287426 -0.0550027 0)
(-0.0250903 -0.0760149 0)
(-0.0139137 -0.0987965 0)
(-0.00223011 -0.118739 0)
(0.0122474 -0.126113 0)
(0.0215511 -0.118496 0)
(0.0304823 -0.0947169 0)
(0.0319605 -0.05994 0)
(0.0320563 -0.0188616 0)
(0.0265399 0.0181267 0)
(0.000488467 0.0348616 0)
(0.000976519 0.0429209 0)
(-0.0177633 0.0314422 0)
(-0.0216529 -0.00751502 0)
(-0.0227533 -0.0541816 0)
(-0.023384 -0.0930694 0)
(-0.0176316 -0.120443 0)
(-0.011445 -0.130192 0)
(-0.000186045 -0.122932 0)
(0.00890255 -0.10117 0)
(0.0183126 -0.0774092 0)
(0.0209161 -0.0558914 0)
(0.0270429 -0.038116 0)
(0.0263125 -0.0287629 0)
(0.0172364 -0.0277246 0)
(0.00564921 -0.0281375 0)
(-0.00545515 -0.0280433 0)
(-0.0170446 -0.0275429 0)
(-0.0260658 -0.0285267 0)
(-0.0261194 -0.0382126 0)
(-0.0202656 -0.0557848 0)
(-0.0177233 -0.0776105 0)
(-0.00836728 -0.101566 0)
(0.000728513 -0.123293 0)
(0.0117357 -0.130209 0)
(0.0177627 -0.120175 0)
(0.0232384 -0.0919609 0)
(0.0221709 -0.0526495 0)
(0.0206679 -0.00546942 0)
(0.0167677 0.0340664 0)
(-0.000943463 0.0458067 0)
(0.00208987 0.0512369 0)
(-0.0110935 0.0400751 0)
(-0.0119663 -0.00100573 0)
(-0.011597 -0.0542456 0)
(-0.0148111 -0.0927925 0)
(-0.0112827 -0.120551 0)
(-0.00941863 -0.132104 0)
(-0.00186747 -0.12568 0)
(0.00437041 -0.103865 0)
(0.0100928 -0.0784979 0)
(0.0128264 -0.0543456 0)
(0.0147325 -0.0292772 0)
(0.0193717 -0.0182138 0)
(0.0132267 -0.0180668 0)
(0.00427535 -0.0186128 0)
(-0.00423329 -0.0185061 0)
(-0.0132296 -0.0178471 0)
(-0.0190852 -0.018106 0)
(-0.0139567 -0.0304709 0)
(-0.012621 -0.0556743 0)
(-0.00945489 -0.0792611 0)
(-0.00394807 -0.1044 0)
(0.00211707 -0.12596 0)
(0.0092432 -0.131901 0)
(0.0110448 -0.119839 0)
(0.0142154 -0.0919459 0)
(0.0105427 -0.0532287 0)
(0.0107941 0.000839522 0)
(0.00984091 0.0422148 0)
(-0.00204117 0.0537639 0)
(0.00238172 0.055251 0)
(-0.00752406 0.0427591 0)
(-0.00208778 0.00277437 0)
(0.00189451 -0.0536096 0)
(-0.00397756 -0.094707 0)
(-0.00243483 -0.121862 0)
(-0.00499877 -0.131616 0)
(-0.00238487 -0.126849 0)
(0.000674432 -0.106478 0)
(0.0030112 -0.0802339 0)
(0.00488493 -0.0522865 0)
(0.00326542 -0.0235669 0)
(0.00787635 -0.00682981 0)
(0.00727449 -0.00514303 0)
(0.00208664 -0.00543688 0)
(-0.00229604 -0.00536505 0)
(-0.00747609 -0.00497366 0)
(-0.00733645 -0.00710082 0)
(-0.00332794 -0.0250507 0)
(-0.00511824 -0.0538762 0)
(-0.00280878 -0.0820578 0)
(-0.000458791 -0.107722 0)
(0.00240437 -0.127041 0)
(0.00457914 -0.131451 0)
(0.00193869 -0.121588 0)
(0.00293974 -0.0938461 0)
(-0.00312632 -0.0524949 0)
(0.00129215 0.00474503 0)
(0.00702607 0.0444252 0)
(-0.00237213 0.057177 0)
(0.00277874 0.0565542 0)
(-0.00460083 0.0408415 0)
(0.00886821 0.0031714 0)
(0.015882 -0.0537009 0)
(0.0107436 -0.0963292 0)
(0.00793426 -0.122354 0)
(0.00139915 -0.129654 0)
(-0.00154221 -0.121865 0)
(-0.00193029 -0.10348 0)
(-0.00250035 -0.0799747 0)
(-0.00124332 -0.0492441 0)
(-0.00594798 -0.0181404 0)
(-0.00587619 0.00346672 0)
(0.000653288 0.00785889 0)
(-0.000309663 0.00790138 0)
(-0.000109156 0.00791833 0)
(-0.00104361 0.00784648 0)
(0.00645725 0.00274122 0)
(0.00519672 -0.0206706 0)
(0.00136522 -0.0514155 0)
(0.00254584 -0.0820069 0)
(0.00201862 -0.104851 0)
(0.00153449 -0.122355 0)
(-0.00189059 -0.129532 0)
(-0.00827169 -0.121665 0)
(-0.0122022 -0.0954154 0)
(-0.0170675 -0.0516534 0)
(-0.00959066 0.00446768 0)
(0.00430239 0.0423526 0)
(-0.002619 0.0580936 0)
(0.00565298 0.0570678 0)
(0.000759703 0.0388101 0)
(0.0239546 0.00565548 0)
(0.0324332 -0.0492178 0)
(0.0277802 -0.0957624 0)
(0.0205022 -0.118861 0)
(0.00990018 -0.123151 0)
(0.000660721 -0.115316 0)
(-0.00348232 -0.0998749 0)
(-0.00567131 -0.0790985 0)
(-0.00705135 -0.0483185 0)
(-0.0106396 -0.0176267 0)
(-0.0169626 0.0086019 0)
(-0.00531951 0.0166324 0)
(-0.00228582 0.017139 0)
(0.00171286 0.017116 0)
(0.00498619 0.0165368 0)
(0.0172735 0.00738684 0)
(0.00993648 -0.0205946 0)
(0.00719092 -0.0507522 0)
(0.00535815 -0.0810219 0)
(0.00316958 -0.10105 0)
(-0.00106202 -0.115827 0)
(-0.0105083 -0.123223 0)
(-0.0209077 -0.118568 0)
(-0.0289352 -0.0953824 0)
(-0.0339571 -0.0470692 0)
(-0.0244186 0.00641693 0)
(-0.000370613 0.0395598 0)
(-0.00505568 0.0581766 0)
(0.0119268 0.057709 0)
(0.010361 0.0372594 0)
(0.0397657 0.00958903 0)
(0.0499151 -0.043102 0)
(0.0438314 -0.0926006 0)
(0.0324933 -0.111516 0)
(0.0168162 -0.115031 0)
(0.00116621 -0.106899 0)
(-0.00653233 -0.0948514 0)
(-0.0103934 -0.0772925 0)
(-0.0142369 -0.0474016 0)
(-0.0152425 -0.0171195 0)
(-0.0246809 0.010855 0)
(-0.0119699 0.0227274 0)
(-0.00381341 0.0231291 0)
(0.00313559 0.0231577 0)
(0.0121193 0.022589 0)
(0.0233745 0.00900449 0)
(0.0134684 -0.0200409 0)
(0.0133165 -0.049945 0)
(0.00937556 -0.0792311 0)
(0.00565854 -0.096183 0)
(-0.00190454 -0.10725 0)
(-0.0177469 -0.114941 0)
(-0.0333066 -0.111055 0)
(-0.0457025 -0.0921978 0)
(-0.0512733 -0.0416048 0)
(-0.0400559 0.0095417 0)
(-0.0097946 0.0372126 0)
(-0.0113386 0.0581082 0)
(0.0188122 0.056755 0)
(0.0209228 0.034495 0)
(0.0536129 0.010923 0)
(0.0628064 -0.0379818 0)
(0.0587512 -0.0881623 0)
(0.0420452 -0.102637 0)
(0.0204859 -0.103743 0)
(-0.00095868 -0.0972528 0)
(-0.0113986 -0.090905 0)
(-0.0153718 -0.0767099 0)
(-0.0191114 -0.0499501 0)
(-0.0187661 -0.0217036 0)
(-0.0246535 0.00645596 0)
(-0.0200206 0.0219765 0)
(-0.00491087 0.025333 0)
(0.00407236 0.0255586 0)
(0.0198572 0.0206244 0)
(0.0214047 0.00235058 0)
(0.017414 -0.0246535 0)
(0.017727 -0.0525065 0)
(0.0142077 -0.0783822 0)
(0.0104514 -0.0918681 0)
(5.02072e-05 -0.0975318 0)
(-0.021714 -0.103704 0)
(-0.0438222 -0.102758 0)
(-0.0605664 -0.0867275 0)
(-0.0649486 -0.0348051 0)
(-0.0539182 0.0106915 0)
(-0.0205975 0.033833 0)
(-0.018516 0.0565237 0)
(0.0242258 0.0507704 0)
(0.0302344 0.0261681 0)
(0.0654021 0.00839532 0)
(0.0799819 -0.0247771 0)
(0.071709 -0.0783691 0)
(0.0518627 -0.0955188 0)
(0.0242816 -0.0931358 0)
(-0.00185681 -0.087141 0)
(-0.0137236 -0.0853346 0)
(-0.017459 -0.0745403 0)
(-0.0205528 -0.0532632 0)
(-0.0221604 -0.0267358 0)
(-0.0211498 -0.0054866 0)
(-0.0223269 0.0161519 0)
(-0.00575752 0.0213301 0)
(0.00519979 0.0210774 0)
(0.0218879 0.0143652 0)
(0.0196896 -0.00860223 0)
(0.0209043 -0.0297072 0)
(0.0189546 -0.0560896 0)
(0.0162447 -0.0757121 0)
(0.0126954 -0.085961 0)
(0.000658526 -0.0871376 0)
(-0.0259496 -0.0934393 0)
(-0.0541979 -0.0959791 0)
(-0.0745004 -0.0769074 0)
(-0.0818598 -0.0223025 0)
(-0.0653642 0.00765801 0)
(-0.0300647 0.0246371 0)
(-0.0242071 0.0502202 0)
(0.027628 0.040234 0)
(0.0368754 0.0104564 0)
(0.0688329 -0.00362405 0)
(0.0888608 -0.0243869 0)
(0.0850265 -0.0702582 0)
(0.0643713 -0.0933436 0)
(0.0290809 -0.0863335 0)
(-0.00043799 -0.0782808 0)
(-0.0133357 -0.0782812 0)
(-0.016981 -0.0715983 0)
(-0.0186992 -0.0589117 0)
(-0.0212235 -0.0378903 0)
(-0.0197725 -0.0191902 0)
(-0.0153725 -0.0112215 0)
(-0.00428167 -0.0100002 0)
(0.00392604 -0.010839 0)
(0.0143708 -0.0131942 0)
(0.0187744 -0.0209612 0)
(0.0196346 -0.0407686 0)
(0.0170834 -0.0609693 0)
(0.0155795 -0.0726656 0)
(0.0121573 -0.078206 0)
(-0.00085164 -0.0787227 0)
(-0.0312069 -0.0890847 0)
(-0.0677262 -0.0933934 0)
(-0.0872167 -0.0692083 0)
(-0.0894058 -0.0249203 0)
(-0.0680011 -0.00574795 0)
(-0.036854 0.00820126 0)
(-0.0277431 0.0396264 0)
(0.0306542 0.0262886 0)
(0.041786 -0.0105697 0)
(0.0671073 -0.0247162 0)
(0.0872333 -0.0384761 0)
(0.0868643 -0.072073 0)
(0.0744748 -0.0915823 0)
(0.0405243 -0.100946 0)
(0.00388362 -0.0777824 0)
(-0.0107885 -0.0699907 0)
(-0.013607 -0.0699528 0)
(-0.0138745 -0.0626321 0)
(-0.0122665 -0.0563147 0)
(-0.0117792 -0.0419732 0)
(-0.00515938 -0.0437244 0)
(-0.00223093 -0.0432805 0)
(0.00135268 -0.0436463 0)
(0.00422254 -0.0440997 0)
(0.0106323 -0.0440457 0)
(0.0106981 -0.0586241 0)
(0.0123793 -0.0639595 0)
(0.0122237 -0.0705706 0)
(0.00947071 -0.0708165 0)
(-0.00603992 -0.0820923 0)
(-0.0440467 -0.105888 0)
(-0.0759404 -0.0935 0)
(-0.086685 -0.0734541 0)
(-0.0866618 -0.0413268 0)
(-0.0662643 -0.0282096 0)
(-0.0417142 -0.0130327 0)
(-0.0309418 0.0255645 0)
(0.0337577 0.00353013 0)
(0.045098 -0.0351959 0)
(0.064505 -0.0530096 0)
(0.0776693 -0.0616445 0)
(0.0748836 -0.0809509 0)
(0.0646013 -0.0938152 0)
(0.0458814 -0.102911 0)
(0.0206421 -0.10549 0)
(-0.00200917 -0.076001 0)
(-0.00850315 -0.0697832 0)
(-0.00816585 -0.06891 0)
(-0.00464059 -0.0643752 0)
(-0.00256351 -0.0540024 0)
(-0.00173797 -0.0494419 0)
(-0.000942055 -0.0483796 0)
(-2.03112e-05 -0.048643 0)
(0.000676848 -0.0501268 0)
(0.00141381 -0.0551382 0)
(0.00355951 -0.0655032 0)
(0.00656098 -0.0701401 0)
(0.00710688 -0.0712387 0)
(-0.00047336 -0.0809832 0)
(-0.0239656 -0.108239 0)
(-0.0477072 -0.103693 0)
(-0.0645656 -0.0960288 0)
(-0.074149 -0.0842106 0)
(-0.0764602 -0.0665434 0)
(-0.063925 -0.0575375 0)
(-0.044992 -0.0373283 0)
(-0.0340824 0.00261593 0)
(0.0341939 -0.0282282 0)
(0.0448108 -0.0586725 0)
(0.0585321 -0.0715718 0)
(0.0634449 -0.0746578 0)
(0.0617805 -0.0778487 0)
(0.0560049 -0.0756615 0)
(0.0457721 -0.07851 0)
(0.032667 -0.0903819 0)
(0.0147045 -0.0920072 0)
(0.00150052 -0.0794808 0)
(-0.00215474 -0.0673656 0)
(-0.00153073 -0.0498228 0)
(-0.000297822 -0.037578 0)
(0.000225762 -0.0335075 0)
(-7.13856e-05 -0.0329465 0)
(-0.000721622 -0.0330924 0)
(-0.00108893 -0.0339074 0)
(-0.000672227 -0.0383634 0)
(0.000377531 -0.051027 0)
(0.000672035 -0.0685727 0)
(-0.00385772 -0.0831986 0)
(-0.0179556 -0.0935076 0)
(-0.0359851 -0.091129 0)
(-0.0476031 -0.0794257 0)
(-0.0561874 -0.076153 0)
(-0.061346 -0.0790791 0)
(-0.0624561 -0.0769407 0)
(-0.0578927 -0.0734837 0)
(-0.0446937 -0.0596678 0)
(-0.034071 -0.0293325 0)
(0.0284302 -0.0554722 0)
(0.0418932 -0.064982 0)
(0.0509825 -0.0640316 0)
(0.054905 -0.0604538 0)
(0.0527986 -0.0529179 0)
(0.0509322 -0.047391 0)
(0.0510921 -0.0573809 0)
(0.0450099 -0.0694295 0)
(0.0288818 -0.0739143 0)
(0.0125914 -0.0651646 0)
(0.00548116 -0.0488457 0)
(0.00358189 -0.0309129 0)
(0.00306842 -0.0179567 0)
(0.00241451 -0.0131338 0)
(0.000764063 -0.0123249 0)
(-0.00135218 -0.01245 0)
(-0.0030737 -0.0134988 0)
(-0.00388628 -0.0186608 0)
(-0.0047103 -0.0318977 0)
(-0.00711207 -0.0498335 0)
(-0.0153744 -0.0662775 0)
(-0.0321457 -0.0745553 0)
(-0.047812 -0.0705373 0)
(-0.0534393 -0.0595636 0)
(-0.0517 -0.0489605 0)
(-0.0523381 -0.0535139 0)
(-0.054496 -0.0610796 0)
(-0.0505668 -0.0642939 0)
(-0.0415498 -0.0647869 0)
(-0.0279339 -0.0558006 0)
(0.0245804 -0.0642611 0)
(0.0352745 -0.0560672 0)
(0.0462984 -0.0459096 0)
(0.0468716 -0.035456 0)
(0.0447259 -0.027224 0)
(0.054313 -0.0306871 0)
(0.0623234 -0.044385 0)
(0.0580393 -0.0528917 0)
(0.0418316 -0.0541916 0)
(0.0241377 -0.0449484 0)
(0.0134431 -0.0287248 0)
(0.00947319 -0.0104483 0)
(0.00720353 0.00291653 0)
(0.00489252 0.00831356 0)
(0.00167794 0.00956658 0)
(-0.00204392 0.00947373 0)
(-0.0053423 0.00802039 0)
(-0.00782791 0.0023275 0)
(-0.0103875 -0.0112558 0)
(-0.0148986 -0.0294726 0)
(-0.0263958 -0.0454171 0)
(-0.0447035 -0.0550667 0)
(-0.0607572 -0.0540008 0)
(-0.0645097 -0.0464013 0)
(-0.0564672 -0.033672 0)
(-0.0452618 -0.028719 0)
(-0.0462906 -0.0360839 0)
(-0.0463037 -0.045625 0)
(-0.0348302 -0.0556071 0)
(-0.0239503 -0.0631127 0)
(0.0176672 -0.0608128 0)
(0.0298795 -0.0411484 0)
(0.0373856 -0.0235887 0)
(0.0358675 -0.010718 0)
(0.0458485 -0.0109684 0)
(0.0651635 -0.0246549 0)
(0.0744205 -0.0338246 0)
(0.0708297 -0.0367192 0)
(0.055141 -0.0353633 0)
(0.0350335 -0.0241655 0)
(0.0214 -0.00771904 0)
(0.0150637 0.0105477 0)
(0.0109905 0.0241237 0)
(0.00720204 0.0299716 0)
(0.0025089 0.031549 0)
(-0.00270343 0.0314457 0)
(-0.0074712 0.0296947 0)
(-0.0114298 0.0236012 0)
(-0.0158098 0.00987224 0)
(-0.0226856 -0.00834299 0)
(-0.0372074 -0.0247681 0)
(-0.0575399 -0.0357731 0)
(-0.0727612 -0.0378306 0)
(-0.0762523 -0.0358415 0)
(-0.0674564 -0.0279298 0)
(-0.0478302 -0.0133095 0)
(-0.0359381 -0.0118853 0)
(-0.0360965 -0.0237417 0)
(-0.0306456 -0.0402058 0)
(-0.0168414 -0.0591601 0)
(0.00820028 -0.0505167 0)
(0.026839 -0.025754 0)
(0.0232517 0.000439482 0)
(0.0326995 0.00523361 0)
(0.057883 -0.00719514 0)
(0.0773411 -0.0205756 0)
(0.0836956 -0.0227538 0)
(0.080349 -0.0208101 0)
(0.0649685 -0.0155155 0)
(0.0438259 -0.00303683 0)
(0.0280321 0.0137745 0)
(0.0200655 0.0321857 0)
(0.0145374 0.0460387 0)
(0.00936483 0.0522999 0)
(0.00330626 0.0542213 0)
(-0.00328506 0.0541541 0)
(-0.00941208 0.0520828 0)
(-0.0147386 0.0456062 0)
(-0.0205551 0.0316488 0)
(-0.0290718 0.0133539 0)
(-0.045506 -0.00333826 0)
(-0.0668517 -0.0159886 0)
(-0.0819759 -0.0215844 0)
(-0.0850354 -0.0241269 0)
(-0.0788712 -0.0227352 0)
(-0.0605319 -0.0108197 0)
(-0.0344166 0.00325999 0)
(-0.0233045 -9.07477e-05 0)
(-0.0262715 -0.0246412 0)
(-0.00807821 -0.0485138 0)
(0.00170702 -0.0338555 0)
(0.0139529 0.00173349 0)
(0.0171141 0.0172156 0)
(0.0449987 0.00735028 0)
(0.0728102 -0.00977652 0)
(0.0852158 -0.0124172 0)
(0.0905479 -0.00957252 0)
(0.0871449 -0.00400755 0)
(0.0720291 0.0041777 0)
(0.050365 0.0184725 0)
(0.0329438 0.0358167 0)
(0.0236747 0.0540562 0)
(0.0169785 0.0679863 0)
(0.0108345 0.0745777 0)
(0.00384156 0.0768119 0)
(-0.00366151 0.0767431 0)
(-0.010723 0.0744 0)
(-0.0170203 0.0676338 0)
(-0.024 0.0536424 0)
(-0.0338685 0.0356127 0)
(-0.0518387 0.0182098 0)
(-0.0734851 0.00400701 0)
(-0.0881949 -0.00484552 0)
(-0.0915757 -0.0108586 0)
(-0.0862277 -0.0140874 0)
(-0.0742136 -0.0121285 0)
(-0.0476863 0.0038364 0)
(-0.0184703 0.015351 0)
(-0.0144371 0.00275799 0)
(-0.00169706 -0.0321269 0)
(-0.00896754 -0.0133734 0)
(0.00995443 0.0234584 0)
(0.0301003 0.0167356 0)
(0.0624476 -0.000549595 0)
(0.0792069 -0.00392439 0)
(0.0900175 -0.00138849 0)
(0.094769 0.00449349 0)
(0.0906577 0.0132299 0)
(0.0761044 0.02449 0)
(0.0544827 0.0399415 0)
(0.0359288 0.0585337 0)
(0.0254763 0.076207 0)
(0.0180783 0.090283 0)
(0.0113869 0.0970923 0)
(0.00397827 0.0995312 0)
(-0.003866 0.0994871 0)
(-0.0113243 0.0969382 0)
(-0.0181359 0.0899767 0)
(-0.0257629 0.0758386 0)
(-0.036805 0.0582627 0)
(-0.0557322 0.0398172 0)
(-0.0771948 0.0242496 0)
(-0.091484 0.0127683 0)
(-0.0954132 0.00355408 0)
(-0.0907269 -0.00283978 0)
(-0.0801026 -0.00563433 0)
(-0.0639736 -0.00285497 0)
(-0.0327078 0.0138128 0)
(-0.0107094 0.0232118 0)
(0.00960718 -0.0106813 0)
(-0.00938522 0.0161588 0)
(0.0165226 0.0269443 0)
(0.0468342 0.00938172 0)
(0.067911 0.00335126 0)
(0.0823519 0.00517955 0)
(0.0924724 0.0108074 0)
(0.0963777 0.0201289 0)
(0.0921493 0.0316084 0)
(0.0781219 0.0446597 0)
(0.0569298 0.0617483 0)
(0.0373393 0.0808547 0)
(0.0257186 0.0983722 0)
(0.0178885 0.112346 0)
(0.0110694 0.119062 0)
(0.00383843 0.121477 0)
(-0.00371808 0.121414 0)
(-0.0109533 0.118877 0)
(-0.0178267 0.11203 0)
(-0.0258262 0.0980402 0)
(-0.0379431 0.080639 0)
(-0.0577637 0.0615998 0)
(-0.0786368 0.0445103 0)
(-0.0924167 0.0309925 0)
(-0.0966502 0.0193011 0)
(-0.0927216 0.00968611 0)
(-0.0827631 0.00377432 0)
(-0.0684884 0.00163386 0)
(-0.048083 0.00712325 0)
(-0.0179184 0.0243504 0)
(0.0077057 0.0190351 0)
(0.00754592 0.0367549 0)
(0.0254397 0.0188171 0)
(0.0510448 0.0110661 0)
(0.0694838 0.010772 0)
(0.0830999 0.0157885 0)
(0.0924917 0.0243929 0)
(0.0958659 0.0362957 0)
(0.0912302 0.049814 0)
(0.0780431 0.0653459 0)
(0.0574102 0.0837821 0)
(0.0370128 0.103757 0)
(0.0243999 0.120726 0)
(0.0166104 0.133937 0)
(0.0102164 0.140006 0)
(0.00361152 0.142169 0)
(-0.00329768 0.142109 0)
(-0.00991173 0.139818 0)
(-0.0163537 0.133632 0)
(-0.0243009 0.120456 0)
(-0.0373908 0.10354 0)
(-0.0579916 0.0836926 0)
(-0.078309 0.0652529 0)
(-0.0912813 0.0495065 0)
(-0.0958314 0.0355689 0)
(-0.0925467 0.0233835 0)
(-0.0833129 0.0147317 0)
(-0.0698029 0.0096207 0)
(-0.0514952 0.00981875 0)
(-0.0263703 0.0175558 0)
(-0.00994012 0.0374583 0)
(0.0195323 0.0365131 0)
(0.0283622 0.0223828 0)
(0.0515101 0.0171308 0)
(0.0692825 0.0196476 0)
(0.0823376 0.0272952 0)
(0.0908918 0.0382896 0)
(0.0932461 0.0528156 0)
(0.0883998 0.0689337 0)
(0.0757612 0.086404 0)
(0.0553736 0.106414 0)
(0.0340874 0.126805 0)
(0.021373 0.14237 0)
(0.0146527 0.153917 0)
(0.00908824 0.159246 0)
(0.0032703 0.161208 0)
(-0.00283811 0.161128 0)
(-0.008674 0.159029 0)
(-0.0143431 0.153544 0)
(-0.0213007 0.142197 0)
(-0.0344394 0.126694 0)
(-0.0558652 0.10638 0)
(-0.0759412 0.0862725 0)
(-0.0883821 0.0684887 0)
(-0.0932083 0.0522189 0)
(-0.0907823 0.0373979 0)
(-0.0823686 0.0262793 0)
(-0.0694118 0.0186016 0)
(-0.0518468 0.0162037 0)
(-0.0291114 0.0218907 0)
(-0.0211828 0.0364491 0)
(0.0240947 0.0384421 0)
(0.0292435 0.0265286 0)
(0.0514153 0.0230434 0)
(0.0683973 0.0284666 0)
(0.0803579 0.0390031 0)
(0.0875046 0.05282 0)
(0.0888881 0.069878 0)
(0.0832884 0.0883501 0)
(0.0704207 0.108703 0)
(0.0496625 0.130652 0)
(0.0286148 0.150041 0)
(0.017803 0.163076 0)
(0.0123398 0.172113 0)
(0.0077103 0.176925 0)
(0.00280416 0.178774 0)
(-0.00239322 0.178691 0)
(-0.00734296 0.176698 0)
(-0.0121479 0.17163 0)
(-0.0179537 0.162686 0)
(-0.0290974 0.149861 0)
(-0.0499534 0.130815 0)
(-0.0705158 0.108742 0)
(-0.0832622 0.0880888 0)
(-0.0888297 0.0692441 0)
(-0.0874629 0.0520064 0)
(-0.0803699 0.0381271 0)
(-0.0684561 0.0275839 0)
(-0.0514966 0.0223651 0)
(-0.0297792 0.0262198 0)
(-0.0248744 0.0383503 0)
(0.025757 0.0401153 0)
(0.0301653 0.0311077 0)
(0.0509553 0.0297301 0)
(0.0667472 0.0378912 0)
(0.0773289 0.0511861 0)
(0.083104 0.0674707 0)
(0.0830401 0.0874158 0)
(0.0758852 0.110175 0)
(0.0617048 0.134496 0)
(0.0412928 0.156888 0)
(0.0237664 0.170364 0)
(0.0146738 0.18039 0)
(0.00996022 0.188262 0)
(0.00626337 0.192996 0)
(0.00229121 0.194864 0)
(-0.00197309 0.194777 0)
(-0.00602088 0.192756 0)
(-0.00990735 0.187664 0)
(-0.0149782 0.180006 0)
(-0.0244356 0.169946 0)
(-0.0415987 0.156886 0)
(-0.0615727 0.13475 0)
(-0.0755857 0.110066 0)
(-0.0828292 0.0869233 0)
(-0.0829268 0.0666058 0)
(-0.0772722 0.0502455 0)
(-0.0667837 0.0369755 0)
(-0.0510823 0.0289672 0)
(-0.0304227 0.0307271 0)
(-0.0260246 0.0400589 0)
(0.0264455 0.0410719 0)
(0.0309553 0.0346994 0)
(0.0505584 0.0360295 0)
(0.064732 0.0472777 0)
(0.07381 0.063169 0)
(0.0779109 0.0829789 0)
(0.0756318 0.108733 0)
(0.0660748 0.137119 0)
(0.0512534 0.162206 0)
(0.0338073 0.180769 0)
(0.0202396 0.187621 0)
(0.012078 0.196296 0)
(0.00793352 0.202936 0)
(0.00504475 0.207702 0)
(0.00187142 0.20965 0)
(-0.00157382 0.209593 0)
(-0.00489097 0.207515 0)
(-0.00789576 0.202334 0)
(-0.0123102 0.195835 0)
(-0.0207954 0.187138 0)
(-0.0341159 0.180287 0)
(-0.0509068 0.162389 0)
(-0.065583 0.137317 0)
(-0.0751708 0.108477 0)
(-0.077576 0.0823588 0)
(-0.0736177 0.0622658 0)
(-0.0646712 0.0464162 0)
(-0.0506556 0.0353268 0)
(-0.0311907 0.0343637 0)
(-0.0266218 0.0410629 0)
(0.0269105 0.0407275 0)
(0.0318237 0.0378534 0)
(0.0497713 0.0426397 0)
(0.0620586 0.0569625 0)
(0.0698019 0.0759982 0)
(0.0716216 0.102652 0)
(0.0655251 0.135313 0)
(0.0545716 0.165555 0)
(0.0417492 0.186646 0)
(0.0282219 0.198401 0)
(0.0175846 0.202243 0)
(0.0101272 0.209923 0)
(0.00644287 0.216446 0)
(0.00422447 0.221265 0)
(0.00165597 0.223369 0)
(-0.00112568 0.223364 0)
(-0.00385339 0.221218 0)
(-0.00629465 0.216611 0)
(-0.0102791 0.209601 0)
(-0.0179493 0.201744 0)
(-0.0283261 0.197665 0)
(-0.0413795 0.186417 0)
(-0.0538544 0.165531 0)
(-0.0648895 0.135349 0)
(-0.071016 0.10228 0)
(-0.0694381 0.0753181 0)
(-0.0618253 0.056136 0)
(-0.0497095 0.042032 0)
(-0.0319995 0.0374915 0)
(-0.0270752 0.0403762 0)
(0.0272289 0.0384004 0)
(0.0323786 0.0403164 0)
(0.048219 0.0493801 0)
(0.0592027 0.0669555 0)
(0.0644459 0.0932604 0)
(0.0616272 0.127925 0)
(0.0531091 0.163115 0)
(0.0437779 0.188988 0)
(0.034149 0.204302 0)
(0.0248585 0.211611 0)
(0.0159018 0.214833 0)
(0.00882436 0.222427 0)
(0.00516852 0.229279 0)
(0.00327524 0.233808 0)
(0.00138451 0.236011 0)
(-0.000673583 0.236008 0)
(-0.00274566 0.233731 0)
(-0.00476378 0.228986 0)
(-0.00858864 0.222098 0)
(-0.0158956 0.21433 0)
(-0.0247276 0.210825 0)
(-0.033707 0.203774 0)
(-0.0431345 0.188654 0)
(-0.0523245 0.162989 0)
(-0.0609167 0.127864 0)
(-0.0639564 0.0928068 0)
(-0.0588652 0.0662527 0)
(-0.0479189 0.0487622 0)
(-0.0322497 0.039991 0)
(-0.0270956 0.0379016 0)
(0.0269403 0.0348406 0)
(0.0320283 0.0425507 0)
(0.0458385 0.0561556 0)
(0.0548854 0.0815881 0)
(0.0548766 0.116063 0)
(0.0487812 0.155425 0)
(0.0413474 0.186287 0)
(0.0346536 0.206251 0)
(0.0294848 0.216488 0)
(0.0229453 0.221856 0)
(0.0146687 0.225885 0)
(0.00828401 0.233755 0)
(0.00485983 0.240932 0)
(0.00306686 0.245901 0)
(0.00138483 0.24839 0)
(-9.24083e-05 0.248361 0)
(-0.00167 0.245835 0)
(-0.00367863 0.240864 0)
(-0.00763766 0.233536 0)
(-0.0144804 0.225485 0)
(-0.0228399 0.221129 0)
(-0.0293699 0.215613 0)
(-0.0342515 0.205528 0)
(-0.0408675 0.185663 0)
(-0.048042 0.155162 0)
(-0.0542605 0.116029 0)
(-0.0545214 0.0810488 0)
(-0.0455621 0.0555999 0)
(-0.0316241 0.0421855 0)
(-0.0265116 0.0346804 0)
(0.0252341 0.0314236 0)
(0.030895 0.0447454 0)
(0.041345 0.067811 0)
(0.0458122 0.101317 0)
(0.041983 0.142968 0)
(0.0360009 0.179012 0)
(0.030943 0.203293 0)
(0.0282241 0.217921 0)
(0.0264529 0.224453 0)
(0.0214927 0.230533 0)
(0.0141177 0.235676 0)
(0.00849126 0.243937 0)
(0.00545706 0.251577 0)
(0.00406814 0.257099 0)
(0.00256971 0.260048 0)
(0.000744678 0.260231 0)
(-0.00121426 0.25755 0)
(-0.0032934 0.252007 0)
(-0.00707456 0.244182 0)
(-0.0133271 0.235635 0)
(-0.0211556 0.230193 0)
(-0.0264931 0.223743 0)
(-0.0284767 0.216937 0)
(-0.0309692 0.202317 0)
(-0.0358606 0.178178 0)
(-0.0414186 0.142666 0)
(-0.0452789 0.101072 0)
(-0.0411341 0.0674222 0)
(-0.0306699 0.0444733 0)
(-0.0248057 0.0316121 0)
(0.0200864 0.0288158 0)
(0.0300209 0.0482389 0)
(0.0332203 0.082472 0)
(0.0339253 0.125665 0)
(0.0289539 0.16608 0)
(0.0249728 0.19584 0)
(0.0232772 0.214317 0)
(0.0242809 0.22476 0)
(0.0247583 0.230774 0)
(0.0214008 0.237874 0)
(0.0150353 0.24447 0)
(0.00947522 0.253368 0)
(0.00593703 0.261571 0)
(0.00412298 0.267401 0)
(0.00274928 0.270409 0)
(0.00139477 0.270614 0)
(-0.000184015 0.267987 0)
(-0.00243047 0.262388 0)
(-0.00666291 0.254238 0)
(-0.0129927 0.245147 0)
(-0.0200892 0.238331 0)
(-0.0241917 0.230794 0)
(-0.0244085 0.224069 0)
(-0.0235918 0.213182 0)
(-0.0252216 0.194671 0)
(-0.0290138 0.165272 0)
(-0.0336416 0.125257 0)
(-0.0328658 0.0822588 0)
(-0.0298983 0.0483294 0)
(-0.0198619 0.0291789 0)
(0.0107843 0.0279172 0)
(0.0252816 0.0562538 0)
(0.0232828 0.0999394 0)
(0.0200162 0.148429 0)
(0.0156244 0.185832 0)
(0.0165965 0.208048 0)
(0.0203868 0.219401 0)
(0.0253845 0.227152 0)
(0.0263054 0.234795 0)
(0.0234069 0.2437 0)
(0.0171498 0.25253 0)
(0.0109556 0.262421 0)
(0.00674627 0.271146 0)
(0.00447373 0.277219 0)
(0.00294479 0.280379 0)
(0.00158827 0.280608 0)
(-2.06355e-05 0.277912 0)
(-0.00248324 0.272181 0)
(-0.00703087 0.263718 0)
(-0.0137243 0.253889 0)
(-0.020656 0.245062 0)
(-0.0243556 0.235813 0)
(-0.0242746 0.227324 0)
(-0.0201206 0.218534 0)
(-0.0167187 0.206722 0)