/*--------------------------------*- C++ -*----------------------------------*\
| =========                 |                                                 |
| \\      /  F ield         | OpenFOAM: The Open Source CFD Toolbox           |
|  \\    /   O peration     | Version:  v1606+                                |
|   \\  /    A nd           | Web:      www.OpenFOAM.com                      |
|    \\/     M anipulation  |                                                 |
\*---------------------------------------------------------------------------*/
FoamFile
{
    version     2.0;
    format      ascii;
    class       volScalarField;
    location    "1.52";
    object      p_rgh;
}
// * * * * * * * * * * * * * * * * * * * * * * * * * * * * * * * * * * * * * //

dimensions      [1 -1 -2 0 0 0 0];

internalField   nonuniform List<scalar> 
6000
(
106751
106752
106757
106763
106769
106772
106774
106778
106782
106785
106785
106786
106786
106785
106784
106784
106786
106790
106792
106792
106790
106792
106795
106795
106791
106784
106776
106767
106759
106757
106721
106721
106729
106739
106747
106750
106756
106761
106764
106766
106768
106768
106767
106764
106763
106763
106764
106765
106769
106770
106771
106771
106774
106772
106765
106754
106742
106730
106718
106714
106713
106710
106725
106745
106767
106780
106781
106781
106778
106779
106783
106782
106777
106773
106772
106773
106775
106781
106786
106788
106792
106798
106806
106791
106768
106748
106728
106709
106691
106688
106685
106666
106679
106705
106749
106791
106804
106807
106798
106790
106795
106793
106782
106781
106780
106780
106781
106787
106795
106806
106817
106817
106809
106767
106725
106704
106688
106673
106660
106659
106647
106639
106640
106654
106700
106768
106818
106836
106834
106822
106820
106813
106793
106790
106789
106789
106791
106799
106814
106839
106850
106834
106795
106728
106681
106672
106662
106659
106660
106661
106638
106639
106638
106637
106645
106701
106795
106843
106858
106874
106874
106860
106822
106808
106810
106815
106821
106829
106854
106881
106862
106833
106787
106707
106669
106670
106669
106663
106664
106666
106648
106644
106641
106637
106634
106647
106739
106839
106867
106896
106912
106911
106884
106862
106864
106868
106868
106872
106891
106876
106838
106814
106781
106701
106670
106686
106698
106686
106674
106686
106690
106672
106658
106648
106643
106646
106705
106830
106850
106869
106891
106912
106920
106914
106911
106904
106893
106886
106873
106837
106797
106774
106710
106667
106674
106707
106732
106730
106714
106737
106761
106738
106718
106698
106681
106664
106693
106786
106815
106830
106851
106869
106885
106892
106886
106875
106865
106852
106829
106798
106753
106691
106548
106576
106651
106702
106734
106766
106776
106795
106808
106786
106787
106764
106727
106673
106634
106652
106772
106787
106812
106828
106836
106837
106829
106813
106801
106800
106789
106765
106685
106500
106367
106431
106574
106668
106704
106765
106819
106831
106799
106759
106788
106768
106712
106602
106510
106479
106668
106746
106783
106801
106790
106748
106684
106617
106587
106603
106633
106577
106449
106313
106271
106314
106471
106625
106668
106714
106821
106851
106769
106684
106722
106688
106574
106434
106357
106344
106460
106552
106597
106601
106554
106491
106425
106369
106339
106333
106342
106313
106276
106254
106256
106281
106441
106639
106666
106672
106752
106871
106727
106656
106663
106586
106377
106264
106244
106255
106288
106333
106376
106393
106388
106376
106355
106325
106296
106272
106256
106250
106253
106257
106261
106290
106508
106741
106716
106690
106688
106860
106737
106669
106662
106571
106298
106196
106189
106199
106240
106302
106368
106414
106436
106438
106412
106366
106322
106286
106263
106258
106261
106263
106266
106333
106642
106829
106782
106721
106707
106797
106774
106689
106698
106761
106315
106181
106169
106168
106226
106321
106421
106498
106537
106545
106511
106450
106390
106336
106298
106287
106287
106283
106296
106450
106744
106894
106851
106790
106760
106843
106836
106728
106735
106867
106411
106187
106169
106168
106213
106339
106481
106581
106627
106645
106628
106591
106544
106478
106408
106367
106351
106336
106387
106650
106890
106951
106934
106901
106881
106936
106906
106806
106764
106902
106622
106210
106169
106167
106203
106360
106538
106644
106697
106734
106770
106796
106788
106714
106605
106505
106447
106437
106558
106867
107027
107033
107023
107011
107004
107021
106974
106890
106822
106904
106853
106258
106168
106165
106199
106412
106646
106739
106779
106841
106937
106991
107004
106955
106843
106685
106565
106603
106810
107051
107109
107090
107076
107066
107059
107060
107039
106986
106943
106961
107045
106415
106207
106187
106224
106522
106852
106911
106929
106977
107065
107105
107124
107114
107040
106890
106732
106839
107063
107153
107129
107101
107082
107072
107063
107058
107083
107076
107074
107082
107103
106700
106366
106297
106338
106654
107043
107084
107093
107105
107136
107151
107167
107176
107161
107070
106942
107064
107172
107149
107110
107082
107055
107057
107048
107045
107095
107094
107090
107097
107129
106917
106612
106504
106518
106721
107061
107123
107132
107139
107151
107165
107180
107192
107193
107148
107099
107153
107150
107110
107078
107051
107010
107020
107009
107012
107105
107095
106863
106728
106753
106774
106686
106619
106601
106613
106728
106924
107101
107096
107132
107155
107170
107183
107192
107166
107129
107097
107047
106971
106866
106653
106469
106473
106691
106656
106851
106576
106284
106208
106248
106375
106444
106444
106424
106323
106226
106330
106656
107005
107116
107139
107156
107170
107177
107163
107089
106767
106528
106422
106309
106170
106101
106099
106195
106169
106437
106199
106116
106117
106120
106137
106171
106181
106157
106083
106034
106039
106132
106419
106785
107032
107135
107159
107172
107151
106809
106315
106201
106162
106130
106114
106104
106094
106093
106093
106382
106188
106124
106124
106124
106121
106106
106087
106062
106042
106033
106028
106037
106082
106224
106478
106727
107048
107109
106904
106471
106248
106216
106199
106189
106190
106195
106193
106176
106158
106449
106231
106134
106133
106147
106161
106144
106118
106097
106089
106091
106098
106091
106058
106006
106022
106127
106604
106759
106649
106415
106306
106276
106270
106275
106301
106337
106355
106339
106322
106535
106288
106171
106166
106193
106227
106216
106191
106174
106179
106209
106230
106194
106081
105927
105840
105836
106220
106600
106668
106520
106394
106348
106343
106357
106406
106484
106544
106557
106548
106621
106367
106253
106233
106258
106296
106303
106288
106268
106283
106343
106377
106301
106096
105871
105761
105741
105970
106593
106765
106652
106491
106417
106409
106428
106489
106592
106716
106791
106806
106708
106472
106360
106332
106347
106380
106402
106396
106380
106405
106490
106520
106371
106067
105813
105726
105712
105799
106435
106810
106803
106607
106491
106470
106485
106544
106641
106806
106953
107035
106823
106590
106488
106453
106463
106494
106515
106508
106501
106553
106668
106650
106386
105988
105771
105716
105707
105731
106109
106838
106950
106743
106582
106534
106533
106578
106650
106821
107015
107185
106937
106718
106637
106600
106608
106635
106660
106655
106655
106733
106879
106757
106304
105883
105756
105723
105707
105710
105870
106635
107022
106909
106712
106612
106583
106603
106650
106779
106930
107245
107061
106848
106787
106762
106781
106820
106853
106858
106878
106965
107091
106793
106144
105807
105756
105745
105726
105713
105779
106249
107050
107067
106885
106726
106651
106638
106660
106737
106776
107254
107182
106972
106937
106938
106985
107053
107111
107138
107177
107247
107253
106777
106051
105785
105765
105769
105757
105729
105750
105987
106832
107098
107045
106881
106755
106702
106699
106736
106721
107181
107303
107091
107090
107136
107233
107329
107404
107441
107452
107440
107370
106790
106058
105812
105792
105787
105772
105739
105730
105849
106407
107127
107137
107043
106899
106798
106758
106761
106742
107116
107423
107224
107266
107364
107490
107582
107621
107625
107608
107554
107418
106909
106186
105908
105849
105811
105767
105722
105696
105756
106092
106954
107167
107143
107043
106902
106816
106787
106764
107083
107525
107386
107459
107587
107687
107722
107725
107714
107694
107666
107551
107176
106420
106081
105943
105847
105755
105679
105652
105689
105901
106504
107095
107147
107135
107000
106874
106814
106785
107077
107585
107548
107640
107740
107784
107791
107784
107772
107755
107735
107694
107498
106716
106329
106081
105888
105731
105633
105627
105644
105764
106095
106624
107040
107191
107097
106956
106903
106809
107184
107606
107666
107766
107827
107840
107832
107827
107815
107804
107784
107770
107628
107084
106655
106280
105934
105701
105626
105624
105624
105673
105818
106129
106850
107353
107215
107092
107061
106914
107459
107628
107756
107852
107870
107860
107851
107850
107845
107838
107820
107808
107738
107443
107035
106559
105993
105679
105624
105624
105624
105634
105689
105916
106926
107741
107435
107305
107281
107371
107706
107651
107846
107903
107891
107874
107831
107868
107860
107862
107842
107829
107805
107726
107451
106903
106079
105674
105624
105624
105626
105633
105669
105961
107257
107849
107724
107608
107588
107740
107863
107677
107917
107929
107908
107620
107051
107759
107858
107876
107851
107853
107858
107873
107828
107239
106234
105782
105720
105729
105728
105749
105797
106169
107484
107915
107912
107888
107878
107920
107953
107740
107970
107960
107598
106355
106046
106576
107545
107863
107845
107831
107791
107829
107852
107312
106519
106155
106092
106139
106151
106231
106335
106802
107804
107993
108014
108016
108010
108011
108009
107908
108014
107896
106534
105805
105855
106022
106323
106653
106782
106465
106333
106513
106840
106957
106781
106569
106511
106592
106675
106847
107053
107575
108039
108011
108006
108058
108064
108064
108037
107780
108026
107124
105871
105767
105905
105990
105893
105815
105737
105613
105565
105600
105759
106141
106497
106524
106496
106537
106696
106849
106991
107249
107485
107436
107304
107487
108106
108114
108039
107702
107722
106273
105743
105767
105900
105947
105826
105699
105596
105538
105515
105513
105513
105606
105866
106053
106094
106095
106231
106284
106258
106152
106074
106000
105940
106196
107641
108168
108083
107739
107454
106042
105731
105719
105782
105826
105806
105742
105646
105563
105529
105518
105506
105501
105536
105602
105633
105632
105668
105657
105617
105564
105558
105576
105599
105725
106788
108171
108044
107867
107369
106057
105718
105688
105689
105752
105815
105823
105752
105614
105545
105529
105517
105500
105493
105493
105495
105495
105498
105496
105495
105503
105537
105582
105622
105680
106214
107779
108020
108012
107632
106113
105719
105695
105695
105737
105851
105920
105901
105703
105567
105535
105527
105509
105496
105496
105496
105497
105497
105498
105498
105519
105561
105618
105671
105723
106103
107590
107976
108153
107962
106379
105742
105703
105703
105745
105896
106026
106056
105828
105610
105538
105528
105517
105503
105499
105500
105500
105501
105501
105513
105549
105600
105666
105730
105793
106184
107704
108115
108285
108210
106817
105813
105711
105711
105760
105951
106135
106190
105967
105679
105553
105526
105519
105512
105502
105502
105503
105505
105517
105544
105587
105646
105722
105801
105882
106286
107799
108260
108346
108315
107105
105891
105719
105720
105799
106022
106244
106314
106095
105760
105587
105528
105518
105518
105512
105510
105514
105526
105549
105584
105632
105701
105790
105889
105996
106418
107836
108361
108413
108272
107109
105921
105727
105728
105865
106096
106335
106424
106194
105837
105638
105543
105521
105521
105529
105530
105539
105559
105588
105628
105684
105764
105870
105990
106135
106599
107843
108423
108488
108251
106840
105927
105740
105782
105953
106169
106420
106528
106266
105900
105692
105577
105536
105532
105549
105561
105574
105597
105630
105677
105744
105837
105960
106106
106302
106824
107811
108481
108550
108142
106714
105962
105818
105906
106062
106264
106512
106624
106321
105948
105739
105620
105569
105560
105576
105595
105614
105640
105679
105736
105817
105927
106073
106253
106511
107070
107901
108368
108608
107954
106744
106127
106006
106085
106209
106401
106628
106698
106356
105987
105781
105661
105608
105598
105610
105633
105661
105694
105744
105817
105918
106054
106229
106453
106779
107331
108112
108525
108648
107912
106916
106422
106295
106318
106409
106577
106759
106763
106382
106021
105820
105703
105649
105639
105650
105680
105720
105767
105835
105932
106063
106234
106448
106735
107134
107674
108309
108596
108572
107896
107224
106830
106668
106633
106678
106802
106915
106817
106402
106053
105858
105746
105697
105688
105699
105740
105796
105865
105961
106089
106258
106474
106748
107112
107581
108082
108444
108643
108190
107915
107603
107352
107169
107062
107033
107073
107093
106874
106427
106089
105900
105797
105755
105748
105764
105820
105898
105996
106125
106288
106500
106773
107124
107558
108055
108451
108553
108620
108044
108031
108039
107961
107810
107632
107485
107400
107285
106942
106465
106132
105951
105860
105831
105827
105853
105925
106030
106161
106322
106526
106796
107143
107560
108016
108441
108660
108669
108645
108165
108348
108513
108545
108488
108289
108018
107783
107507
107037
106525
106189
106016
105945
105929
105929
105970
106060
106192
106357
106561
106825
107166
107575
108007
108397
108662
108755
108768
108764
108567
108785
108881
108918
108908
108798
108546
108190
107756
107171
106605
106260
106106
106059
106052
106061
106117
106226
106389
106601
106867
107203
107602
108026
108394
108643
108762
108804
108824
108844
108956
109022
109040
109045
108998
108974
108899
108597
108002
107287
106700
106362
106236
106210
106209
106231
106305
106438
106641
106916
107256
107653
108067
108426
108660
108769
108814
108838
108856
108880
109079
109080
109082
109035
108973
108938
108908
108802
108345
107562
106867
106526
106425
106410
106414
106456
106554
106722
106978
107321
107725
108137
108485
108705
108802
108835
108852
108865
108879
108901
109097
109098
109072
108913
108807
108680
108793
108867
108861
108291
107379
106851
106715
106699
106706
106771
106902
107116
107424
107815
108229
108570
108771
108851
108874
108880
108884
108890
108898
108915
109108
109077
108963
108793
108681
108692
108783
109037
109187
109059
108330
107549
107240
107174
107160
107233
107391
107638
107970
108345
108665
108848
108911
108922
108918
108914
108912
108912
108915
108924
109110
108801
108931
108766
108695
108835
109098
109255
109271
109205
109014
108530
108095
107915
107850
107880
108020
108245
108523
108773
108917
108966
108971
108962
108950
108941
108934
108930
108929
108929
108910
108796
108920
109072
109091
109217
109300
109300
109245
109179
109180
109123
108918
108755
108652
108610
108664
108785
108915
108990
109011
109009
108999
108986
108972
108960
108951
108944
108940
108931
108672
109011
109217
109277
109285
109292
109298
109262
109206
109187
109242
109261
109238
109207
109162
109117
109094
109092
109083
109064
109044
109028
109014
109000
108986
108973
108963
108953
108946
108930
108961
109244
109240
109235
109243
109256
109251
109220
109200
109228
109272
109286
109290
109291
109280
109259
109228
109188
109141
109097
109063
109039
109022
109007
108994
108981
108970
108959
108949
108926
109209
109200
109187
109022
109148
109217
109213
109203
109217
109253
109275
109282
109288
109289
109282
109266
109241
109207
109163
109118
109078
109048
109027
109011
108997
108984
108972
108960
108948
108919
109156
109124
108883
108830
109085
109190
109200
109206
109227
109248
109257
109263
109269
109270
109264
109252
109233
109205
109169
109129
109089
109056
109031
109012
108997
108984
108972
108959
108944
108910
109106
108595
108599
108804
109149
109202
109197
109199
109210
109220
109227
109235
109241
109243
109240
109232
109216
109194
109165
109131
109094
109061
109034
109013
108996
108981
108968
108954
108937
108898
108852
108560
108651
109064
109219
109202
109171
109164
109168
109176
109186
109197
109206
109211
109212
109206
109195
109178
109154
109125
109093
109062
109034
109011
108992
108976
108962
108947
108928
108885
108591
108541
109010
109216
109206
109155
109114
109102
109107
109119
109134
109151
109166
109175
109179
109178
109170
109157
109138
109114
109086
109058
109031
109007
108987
108969
108953
108937
108917
108871
108597
108950
109190
109164
109138
109069
109025
109021
109032
109052
109077
109100
109120
109136
109145
109147
109143
109133
109118
109098
109075
109049
109023
109000
108978
108960
108943
108925
108903
108855
108812
109136
109128
109094
109029
108908
108862
108896
108931
108971
109011
109046
109074
109095
109109
109115
109114
109107
109096
109079
109059
109036
109012
108989
108968
108948
108930
108911
108887
108838
109008
109094
109062
109015
108777
108527
108500
108669
108783
108869
108938
108991
109030
109056
109073
109082
109084
109080
109070
109056
109039
109019
108997
108975
108954
108934
108914
108894
108868
108820
109047
109037
108995
108708
108070
107916
108035
108353
108585
108750
108865
108942
108991
109023
109041
109050
109053
109050
109043
109031
109016
108998
108978
108957
108937
108917
108897
108876
108848
108800
109014
108988
108724
107664
107210
107506
107818
108121
108399
108639
108810
108909
108965
108996
109013
109021
109023
109020
109013
109003
108989
108973
108955
108936
108917
108897
108877
108855
108826
108778
108987
108730
107701
107178
107187
107435
107829
108048
108339
108611
108806
108907
108955
108979
108990
108994
108993
108988
108981
108971
108959
108945
108929
108911
108893
108874
108854
108832
108803
108755
108790
107798
107178
107184
107203
107498
107940
108152
108415
108670
108856
108930
108957
108966
108969
108967
108962
108955
108947
108937
108925
108912
108898
108882
108865
108847
108828
108807
108777
108730
108470
107189
107192
107202
107277
107686
108282
108374
108615
108836
108927
108952
108955
108952
108946
108938
108930
108920
108910
108899
108888
108876
108863
108849
108834
108817
108799
108778
108750
108704
108271
107207
107263
107248
107407
107985
108620
108688
108838
108931
108953
108949
108939
108928
108917
108905
108893
108881
108869
108858
108846
108834
108823
108811
108797
108783
108767
108747
108720
108677
108325
107463
107415
107347
107496
108349
108793
108864
108928
108948
108941
108925
108910
108895
108880
108866
108852
108838
108825
108812
108800
108789
108778
108767
108756
108744
108730
108713
108687
108647
108396
108024
107672
107417
107834
108624
108902
108935
108937
108926
108907
108888
108870
108853
108836
108820
108804
108789
108775
108762
108750
108739
108729
108719
108710
108700
108689
108674
108651
108615
108441
108585
108133
107744
108384
108828
108946
108937
108906
108883
108863
108844
108824
108804
108785
108767
108750
108733
108719
108706
108694
108684
108674
108666
108658
108651
108642
108631
108613
108580
108462
108778
108586
108368
108692
108907
108940
108904
108860
108834
108813
108793
108771
108749
108727
108707
108688
108671
108656
108643
108632
108622
108614
108607
108601
108596
108591
108584
108570
108543
108457
108784
108702
108681
108800
108898
108900
108854
108806
108779
108759
108738
108713
108687
108663
108640
108619
108601
108586
108573
108563
108554
108548
108543
108539
108536
108533
108530
108523
108504
108398
108772
108722
108725
108810
108861
108847
108796
108747
108720
108701
108678
108649
108620
108591
108566
108543
108524
108508
108496
108487
108481
108476
108473
108472
108471
108471
108471
108469
108460
108350
108712
108701
108722
108790
108818
108793
108736
108685
108658
108641
108615
108581
108546
108513
108483
108458
108438
108422
108411
108404
108401
108400
108401
108402
108403
108406
108408
108410
108408
108355
108636
108604
108678
108762
108780
108742
108672
108620
108597
108580
108541
108503
108466
108426
108392
108365
108343
108327
108316
108312
108312
108317
108323
108328
108334
108339
108344
108350
108353
108375
108538
108438
108608
108732
108738
108693
108608
108556
108537
108510
108467
108424
108380
108333
108294
108262
108238
108218
108204
108195
108199
108213
108229
108246
108261
108270
108280
108289
108295
108365
108327
108252
108540
108698
108680
108643
108547
108497
108479
108441
108394
108346
108290
108233
108187
108150
108117
108079
108034
107991
107994
108030
108102
108149
108174
108195
108212
108227
108237
108297
108052
108122
108488
108656
108631
108595
108493
108445
108424
108375
108323
108270
108193
108126
108070
108015
107942
107821
107654
107476
107463
107545
107773
107939
108059
108109
108139
108162
108174
108171
107804
108144
108440
108619
108592
108554
108447
108400
108369
108314
108257
108184
108089
108007
107927
107825
107606
107253
106986
106981
106987
106989
107055
107386
107796
107967
108049
108094
108111
108044
106491
108042
108267
108581
108568
108524
108414
108363
108319
108258
108190
108089
107975
107861
107728
107503
106989
106947
106949
106957
106960
106967
106968
106974
107243
107688
107893
108004
108055
106664
105120
106550
107731
108478
108557
108498
108391
108334
108280
108210
108122
107989
107832
107651
107421
107049
106921
106924
106933
106937
106946
106950
106958
106960
107088
107251
107505
107815
107959
105351
105127
105433
107429
108431
108558
108471
108381
108318
108251
108171
108048
107867
107623
107334
107085
106930
106936
106942
106925
106926
106934
107013
107075
107081
107218
107282
107274
107365
107760
105558
105291
106066
107899
108490
108523
108459
108385
108313
108233
108131
107967
107694
107291
106961
106998
107059
107069
107010
106937
106938
107015
107184
107223
107240
107305
107429
107476
107360
107524
106541
106690
107477
108403
108512
108482
108456
108400
108319
108224
108095
107875
107401
106794
106371
106515
106875
107046
106995
106963
107022
107184
107245
107247
107251
107252
107297
107642
107600
107698
107844
108172
108419
108484
108462
108410
108456
108432
108338
108219
108058
107776
107080
106195
105592
105400
105793
106562
106872
107023
107166
107229
107233
107234
107180
106816
107019
107620
107701
107699
108152
108388
108350
108353
108380
108243
108456
108476
108368
108215
108019
107833
107623
106705
105818
105325
105319
105809
106524
106976
107167
107220
107222
107210
106920
106310
106625
107517
107661
107641
107860
107612
106671
105861
106708
107594
108463
108498
108372
108213
107922
107640
107599
107579
107160
105438
105319
105461
106071
106697
106979
107109
107128
107015
106582
106286
106346
106891
106843
105775
108072
105752
105167
105144
105419
107084
108482
108515
108367
108180
107749
106859
105759
104701
104528
105840
105837
105767
106102
106515
106772
106900
106897
106847
106667
106356
106070
105469
103954
102330
108606
106993
106156
105664
105781
107479
108603
108521
108340
107837
105458
102841
102021
101675
101661
103444
105210
106192
106588
106828
106919
106917
106914
106826
106289
105274
104044
102603
101431
101019
108625
108595
108291
107409
106818
108109
108680
108510
108191
106147
102598
101460
101320
101236
101174
101287
101825
102822
103969
104830
105329
105377
105199
104356
103036
102004
101343
100933
100811
100855
108509
108552
108597
108483
108000
108487
108673
108494
107667
104394
101880
101404
101317
101236
101129
101028
100975
101003
101157
101372
101549
101585
101480
101172
100889
100749
100679
100675
100739
100843
108066
108350
108476
108536
108513
108615
108633
108176
106887
103664
101749
101403
101318
101228
101119
101011
100914
100839
100795
100780
100779
100777
100766
100736
100695
100658
100637
100653
100720
100836
107699
107492
108001
108444
108521
108534
108439
107825
106412
103530
101693
101392
101307
101209
101096
100990
100897
100826
100783
100762
100754
100751
100745
100726
100689
100654
100637
100648
100703
100823
105027
104381
105203
107529
108460
108495
108375
107749
106803
103519
101609
101373
101285
101180
101066
100964
100881
100817
100779
100762
100755
100752
100746
100726
100687
100651
100637
100644
100688
100810
102746
101878
102231
104583
108120
108477
108417
108025
107163
103381
101529
101347
101260
101152
101039
100942
100865
100810
100778
100763
100756
100754
100749
100726
100685
100648
100637
100641
100678
100802
102569
101470
101729
103925
107950
108250
108436
108215
107447
103325
101468
101315
101239
101128
101016
100923
100854
100808
100780
100767
100761
100757
100753
100728
100683
100647
100637
100639
100673
100799
102784
101471
101812
103967
107632
107617
108402
108336
107681
103278
101414
101284
101225
101110
101000
100912
100850
100809
100788
100780
100773
100768
100761
100731
100683
100646
100637
100638
100671
100798
102944
101576
102122
104495
107252
107382
108267
108395
107836
103166
101372
101264
101221
101101
100993
100907
100850
100819
100808
100805
100799
100791
100778
100740
100686
100647
100637
100638
100672
100796
103156
101681
102593
105500
107458
107425
107855
108453
107875
102980
101352
101255
101220
101100
100992
100909
100863
100847
100844
100848
100850
100843
100822
100769
100699
100651
100638
100638
100673
100792
103381
101712
103044
106496
107731
107467
107515
108429
107478
102859
101368
101254
101223
101112
101007
100934
100902
100898
100902
100921
100942
100953
100938
100871
100762
100674
100640
100640
100677
100783
103545
101708
103340
107135
107780
107525
107506
107936
107085
103405
101453
101273
101248
101160
101064
101004
100983
100982
100996
101034
101091
101147
101178
101140
100989
100789
100668
100644
100683
100769
103626
101706
103456
107301
107825
107604
107551
107416
107104
104254
101575
101322
101308
101258
101184
101136
101120
101122
101145
101200
101286
101397
101508
101568
101482
101183
100842
100681
100695
100758
103643
101703
103400
107011
107814
107558
107535
107456
107507
104707
101672
101396
101408
101402
101365
101340
101335
101347
101379
101435
101519
101634
101778
101920
101996
101848
101403
100910
100745
100758
103662
101729
103016
106065
107676
107609
107595
107503
107676
104818
101733
101481
101535
101574
101587
101606
101631
101665
101706
101749
101797
101858
101935
102045
102186
102290
102150
101586
100978
100794
103682
101834
102748
105145
107656
107645
107651
107726
107952
104421
101776
101568
101662
101744
101813
101886
101958
102028
102083
102114
102127
102126
102102
102088
102177
102354
102461
102310
101584
100962
103871
102118
102754
104816
107686
107831
107881
107979
108148
103830
101817
101657
101770
101878
101992
102109
102219
102322
102403
102447
102459
102442
102378
102277
102212
102307
102469
102512
102227
101408
104581
102620
103402
105081
107733
108204
108217
108354
108218
103299
101860
101753
101859
101965
102096
102222
102344
102464
102567
102642
102677
102676
102648
102557
102411
102330
102402
102517
102524
102069
105624
103215
104505
106113
107913
108515
108529
108650
107654
102818
101908
101863
101934
102021
102137
102248
102365
102485
102595
102686
102738
102741
102744
102704
102588
102447
102403
102503
102641
102637
106947
103970
105334
106809
108165
108708
108706
108695
105788
102549
101995
101986
102016
102074
102153
102243
102352
102460
102561
102646
102709
102744
102738
102702
102628
102505
102405
102426
102672
102824
108613
105543
105846
106877
108247
108754
108740
108709
103954
102359
102105
102114
102126
102158
102200
102264
102354
102456
102552
102629
102684
102709
102676
102592
102523
102462
102388
102352
102568
102825
109112
108104
106553
106783
108090
108766
108757
106149
102843
102211
102180
102224
102263
102307
102358
102422
102512
102626
102732
102794
102813
102782
102679
102544
102404
102311
102270
102235
102366
102827
109133
109129
108117
107085
107427
107369
107811
103337
102132
102107
102194
102276
102371
102490
102630
102775
102916
103057
103175
103225
103204
103085
102869
102604
102370
102198
102115
102078
102159
102830
108881
109160
109010
108026
106346
103323
103225
101874
101629
101905
102131
102266
102404
102597
102873
103184
103449
103622
103721
103753
103642
103408
103114
102775
102417
102167
102027
101977
102015
102373
108775
109196
109027
108301
104582
101206
101147
101052
101169
101511
101842
102088
102317
102593
102954
103407
103884
104187
104304
104324
104097
103715
103327
102937
102525
102175
102006
101971
101970
102102
108819
109253
109055
106920
102167
100660
100607
100681
100789
101006
101290
101593
101931
102319
102792
103397
104062
104626
104892
104938
104629
104082
103552
103088
102641
102242
102010
101974
101974
102008
108867
109318
108670
103837
101101
100580
100488
100524
100560
100625
100759
100964
101252
101629
102140
102871
103847
104788
105302
105444
105206
104581
103868
103282
102791
102363
102062
101977
101978
101992
107450
108448
105310
102109
100983
100592
100464
100454
100455
100451
100474
100543
100674
100882
101198
101728
102716
104214
105376
105643
105620
105153
104327
103576
103008
102550
102190
101996
101982
101998
106515
106096
103673
101951
101103
100634
100458
100425
100413
100394
100381
100385
100412
100475
100584
100777
101197
102346
104357
105653
105753
105600
104885
104002
103318
102814
102421
102141
102024
102070
106378
105061
103529
102086
101197
100681
100465
100417
100400
100379
100362
100355
100354
100360
100380
100425
100511
100816
102210
104603
105768
105817
105440
104572
103749
103169
102750
102431
102263
102276
106341
104935
103706
102180
101261
100718
100487
100422
100398
100377
100359
100355
100354
100353
100352
100361
100390
100441
100791
102625
105100
105859
105896
105254
104354
103656
103189
102842
102651
102615
106276
104788
103820
102286
101321
100736
100519
100447
100411
100384
100364
100355
100354
100353
100353
100363
100389
100418
100481
101038
103376
105678
106111
105914
105152
104337
103758
103350
103103
103027
106164
104637
103946
102416
101377
100740
100545
100496
100454
100415
100384
100368
100364
100365
100372
100394
100431
100466
100484
100586
101558
104283
106131
106393
106029
105217
104474
103951
103604
103474
106054
104529
104034
102546
101454
100739
100553
100547
100524
100478
100435
100411
100406
100412
100434
100474
100519
100549
100554
100565
100753
102345