/*--------------------------------*- C++ -*----------------------------------*\
| =========                 |                                                 |
| \\      /  F ield         | OpenFOAM: The Open Source CFD Toolbox           |
|  \\    /   O peration     | Version:  v1606+                                |
|   \\  /    A nd           | Web:      www.OpenFOAM.com                      |
|    \\/     M anipulation  |                                                 |
\*---------------------------------------------------------------------------*/
FoamFile
{
    version     2.0;
    format      ascii;
    class       surfaceScalarField;
    location    "1.52";
    object      phi;
}
// * * * * * * * * * * * * * * * * * * * * * * * * * * * * * * * * * * * * * //

dimensions      [0 3 -1 0 0 0 0];

internalField   nonuniform List<scalar> 
11770
(
-1.44159e-06
4.83684e-05
-4.33083e-06
5.00288e-05
-5.2501e-06
4.80572e-05
-3.45851e-06
4.52605e-05
-1.02935e-06
4.45814e-05
-4.75788e-07
4.64151e-05
-7.84924e-07
4.67393e-05
-8.03367e-07
4.60759e-05
1.57332e-07
4.4691e-05
1.48761e-06
4.42188e-05
1.04175e-06
4.60851e-05
1.56373e-06
4.53434e-05
1.71025e-06
4.56886e-05
-1.35463e-07
4.77288e-05
-2.39051e-06
4.81573e-05
-5.73203e-06
4.95191e-05
-7.68113e-06
4.80823e-05
-7.659e-06
4.61845e-05
-6.51747e-06
4.49109e-05
-5.95653e-06
4.58099e-05
-7.25044e-06
4.78486e-05
-7.73583e-06
4.73926e-05
-5.27548e-06
4.4701e-05
-1.78965e-06
4.36966e-05
1.02418e-06
4.44205e-05
3.25548e-06
4.50498e-05
4.97769e-06
4.55897e-05
5.55707e-06
4.67646e-05
2.96735e-06
4.99796e-05
5.01271e-05
5.57999e-07
5.07941e-05
-5.83883e-06
5.93371e-05
-8.84315e-06
5.37837e-05
-9.42043e-06
4.84129e-05
-7.39231e-06
4.51007e-05
-3.41221e-06
4.51063e-05
1.97337e-07
4.59961e-05
2.30347e-06
4.69843e-05
1.35034e-06
4.8488e-05
-5.78004e-07
4.88676e-05
1.30777e-06
4.71387e-05
2.30295e-06
4.73035e-05
8.34787e-07
5.00931e-05
-1.0498e-06
5.26339e-05
-2.79538e-06
5.29621e-05
-3.63145e-06
5.35902e-05
-6.39472e-06
5.37937e-05
-9.96784e-06
5.24788e-05
-1.36134e-05
5.12346e-05
-1.48951e-05
4.98897e-05
-1.2691e-05
4.84386e-05
-9.73976e-06
4.69461e-05
-3.53464e-06
4.08361e-05
-1.19632e-07
4.25782e-05
1.36962e-06
4.52631e-05
3.22251e-06
4.55585e-05
5.10259e-06
4.61079e-05
5.76076e-06
4.85977e-05
1.52314e-06
5.69473e-05
5.4526e-05
1.65772e-06
4.9295e-05
-5.31009e-06
6.65209e-05
-1.02016e-05
5.88663e-05
-1.34291e-05
5.18133e-05
-1.2656e-05
4.44972e-05
-7.02811e-06
3.96642e-05
-1.623e-06
4.08401e-05
3.18171e-06
4.25765e-05
4.1116e-06
4.81771e-05
2.54812e-06
5.09789e-05
3.03182e-06
4.71758e-05
3.16781e-06
4.77436e-05
-2.30711e-07
5.41109e-05
-2.36144e-06
5.54336e-05
-4.00732e-06
5.52754e-05
-5.61146e-06
5.58195e-05
-8.30048e-06
5.70501e-05
-1.09287e-05
5.56254e-05
-1.39124e-05
5.46987e-05
-1.45843e-05
5.08802e-05
-1.17411e-05
4.58343e-05
-6.74418e-06
4.21208e-05
-4.64723e-07
3.46818e-05
1.49934e-06
4.07402e-05
4.67298e-07
4.64275e-05
1.23e-06
4.49254e-05
3.01256e-06
4.44535e-05
3.54091e-06
4.81996e-05
1.63859e-06
5.89997e-05
5.63351e-05
-5.99036e-07
4.98985e-05
-7.90681e-07
6.67335e-05
-5.22978e-06
6.33208e-05
-1.12394e-05
5.78379e-05
-1.29319e-05
4.6205e-05
-1.01461e-05
3.68904e-05
-5.59056e-06
3.63067e-05
-8.98738e-07
3.79742e-05
2.0847e-06
4.54959e-05
2.67841e-06
5.06756e-05
3.09042e-06
4.69566e-05
2.69483e-06
4.83204e-05
-7.61308e-07
5.78122e-05
-2.81675e-06
5.77569e-05
-4.38278e-06
5.70856e-05
-5.76146e-06
5.74151e-05
-7.54498e-06
5.90867e-05
-1.00686e-05
5.83802e-05
-1.15238e-05
5.62881e-05
-9.79531e-06
4.91868e-05
-7.08363e-06
4.31344e-05
-3.96101e-06
3.90009e-05
-3.27665e-07
3.10477e-05
1.74604e-07
4.02433e-05
-3.19804e-06
4.98078e-05
-3.7479e-06
4.54778e-05
-4.05319e-06
4.47577e-05
-4.13096e-06
4.82741e-05
-9.0459e-07
5.57716e-05
5.54272e-05
-4.01679e-06
5.39031e-05
2.22836e-06
6.04812e-05
3.10269e-06
6.24393e-05
-4.96353e-07
6.14319e-05
-7.14392e-06
5.2852e-05
-9.63399e-06
3.93815e-05
-5.4349e-06
3.21071e-05
-1.98282e-06
3.45388e-05
-6.98485e-08
4.372e-05
1.93584e-06
4.89315e-05
1.83002e-06
4.71904e-05
1.31703e-06
4.88669e-05
-7.06385e-07
5.99172e-05
-3.47097e-06
6.06388e-05
-4.61825e-06
5.83506e-05
-4.79567e-06
5.77409e-05
-4.39732e-06
5.89007e-05
-4.68135e-06
5.88437e-05
-3.86173e-06
5.55389e-05
-2.74869e-06
4.80702e-05
-3.17713e-06
4.35515e-05
-2.65224e-06
3.84655e-05
-2.24137e-06
3.06259e-05
-4.79251e-06
4.27867e-05
-9.15634e-06
5.41642e-05
-1.03923e-05
4.67011e-05
-9.83618e-06
4.41856e-05
-8.20969e-06
4.66311e-05
-3.26187e-06
5.08086e-05
5.21497e-05
6.71379e-07
5.32139e-05
6.62424e-06
5.45125e-05
1.15991e-05
5.74503e-05
1.33951e-05
5.96238e-05
6.5313e-06
5.97048e-05
-3.1398e-06
4.90444e-05
-2.90929e-06
3.18704e-05
-2.23487e-08
3.16455e-05
2.50817e-06
4.12111e-05
5.14095e-06
4.64401e-05
3.30047e-06
4.9162e-05
6.72681e-07
5.15156e-05
4.50424e-07
6.01275e-05
-1.5126e-06
6.26242e-05
-2.01607e-06
5.89056e-05
-1.12883e-06
5.69579e-05
7.00966e-07
5.72614e-05
2.58904e-06
5.71517e-05
4.74912e-06
5.35e-05
4.34906e-06
4.84855e-05
2.08291e-06
4.58092e-05
-4.9587e-07
4.1032e-05
-7.56374e-06
3.768e-05
-1.65493e-05
5.17635e-05
-2.07969e-05
5.84039e-05
-1.97465e-05
4.56366e-05
-1.43302e-05
3.87512e-05
-9.10347e-06
4.13852e-05
-5.51632e-06
4.72034e-05
4.66148e-05
6.68937e-06
4.65041e-05
1.23486e-05
4.8834e-05
1.7613e-05
5.21685e-05
2.12258e-05
5.59957e-05
2.05221e-05
6.0395e-05
9.43398e-06
6.01184e-05
8.36804e-07
4.04516e-05
2.06659e-06
3.03983e-05
3.0442e-06
4.02267e-05
3.45222e-06
4.60623e-05
2.7061e-06
4.99981e-05
1.19661e-06
5.30841e-05
2.44775e-06
5.88765e-05
2.78929e-06
6.22776e-05
2.70093e-06
5.90055e-05
3.362e-06
5.63416e-05
5.38559e-06
5.53506e-05
8.07226e-06
5.46188e-05
1.00955e-05
5.15997e-05
8.74137e-06
4.98619e-05
4.98943e-06
4.95613e-05
-4.41363e-07
4.6456e-05
-1.58728e-05
5.31074e-05
-2.95354e-05
6.54297e-05
-3.16393e-05
6.05081e-05
-2.75638e-05
4.15515e-05
-2.07782e-05
3.195e-05
-1.31121e-05
3.37003e-05
-7.8388e-06
4.19108e-05
3.87562e-05
7.62748e-06
3.88569e-05
1.46557e-05
4.17869e-05
2.24087e-05
4.43976e-05
2.88269e-05
4.95625e-05
3.19977e-05
5.72136e-05
2.55381e-05
6.65708e-05
9.91143e-06
5.60611e-05
3.60159e-06
3.66853e-05
2.00754e-06
4.18156e-05
5.72252e-07
4.7514e-05
-1.93482e-07
5.08093e-05
-7.10256e-07
5.36586e-05
9.1037e-07
5.72939e-05
3.77814e-06
5.94263e-05
4.91894e-06
5.78744e-05
5.22652e-06
5.60507e-05
6.5719e-06
5.4047e-05
9.5191e-06
5.17391e-05
1.12067e-05
4.99623e-05
1.11459e-05
4.99442e-05
8.38013e-06
5.23352e-05
2.4904e-08
5.48139e-05
-2.81554e-05
8.13023e-05
-4.28604e-05
8.01576e-05
-3.86497e-05
5.63086e-05
-3.21371e-05
3.50354e-05
-2.67906e-05
2.65926e-05
-1.84063e-05
2.53003e-05
-8.32911e-06
3.18157e-05
3.04083e-05
5.99277e-06
3.28487e-05
1.16886e-05
3.60775e-05
2.2037e-05
3.40356e-05
3.33131e-05
3.82771e-05
4.14346e-05
4.90921e-05
4.04915e-05
6.75269e-05
2.29157e-05
7.36457e-05
1.50398e-06
5.8087e-05
-1.30956e-06
4.46261e-05
-2.56665e-06
4.8783e-05
-2.05688e-06
5.0328e-05
-1.13982e-06
5.27811e-05
7.8202e-07
5.54126e-05
3.69524e-06
5.65428e-05
5.28379e-06
5.63035e-05
5.4076e-06
5.59443e-05
5.73306e-06
5.37461e-05
7.63839e-06
4.98668e-05
9.37307e-06
4.82549e-05
1.19462e-05
4.73855e-05
1.30576e-05
5.12301e-05
-3.35163e-07
6.82067e-05
-3.29139e-05
0.000113892
-4.54265e-05
9.26888e-05
-3.90147e-05
4.99066e-05
-3.16058e-05
2.76233e-05
-2.78837e-05
2.28619e-05
-2.03837e-05
1.77877e-05
-7.6452e-06
1.90614e-05
2.27458e-05
5.77583e-06
2.70614e-05
9.33228e-06
3.25135e-05
2.00986e-05
2.32608e-05
3.34529e-05
2.492e-05
4.38208e-05
3.87357e-05
4.52263e-05
6.61513e-05
2.78582e-05
9.10358e-05
-4.35723e-06
9.0284e-05
-8.03076e-06
4.82987e-05
-7.10624e-06
4.78719e-05
-4.56363e-06
4.7809e-05
-1.06886e-06
4.93161e-05
2.35174e-06
5.20201e-05
4.9328e-06
5.39895e-05
5.72842e-06
5.5529e-05
5.18439e-06
5.65038e-05
4.0164e-06
5.49295e-05
3.014e-06
5.0886e-05
3.45895e-06
4.78223e-05
6.34488e-06
4.45083e-05
4.25156e-06
5.33182e-05
-1.36268e-05
8.60658e-05
-3.19628e-05
0.000132203
-3.90413e-05
9.97531e-05
-3.32251e-05
4.40808e-05
-2.44424e-05
1.88289e-05
-2.06019e-05
1.90088e-05
-1.73542e-05
1.45266e-05
-6.98083e-06
8.67215e-06
1.57477e-05
7.57965e-06
1.94693e-05
1.12236e-05
2.8862e-05
2.09579e-05
1.35172e-05
3.20457e-05
1.38287e-05
3.652e-05
3.42695e-05
2.8756e-05
7.39251e-05
1.07177e-05
0.000109058
-1.03679e-05
0.000111359
-1.62877e-05
5.42376e-05
-1.2614e-05
4.42231e-05
-1.01461e-05
4.53717e-05
-6.01492e-06
4.52138e-05
-4.2006e-07
4.64374e-05
2.81641e-06
5.07574e-05
3.6705e-06
5.46686e-05
2.07566e-06
5.80945e-05
1.62785e-06
5.53715e-05
-6.6668e-08
5.25645e-05
-1.00671e-06
4.87467e-05
-6.22038e-06
4.97076e-05
-2.24958e-05
6.95782e-05
-4.00944e-05
0.000103637
-3.66593e-05
0.000128732
-3.69431e-05
0.000100004
-3.03815e-05
3.74918e-05
-1.70406e-05
5.46484e-06
-9.65929e-06
1.16068e-05
-9.37979e-06
1.42283e-05
-7.12359e-06
6.39773e-06
8.60535e-06
7.231e-06
1.22212e-05
1.60246e-05
2.00547e-05
2.40834e-05
5.44198e-06
3.08348e-05
7.06196e-06
1.84795e-05
4.66067e-05
-1.48276e-06
9.38505e-05
-1.57778e-05
0.000123315
-2.23955e-05
0.000117991
-3.72213e-05
6.90917e-05
-3.9003e-05
4.60136e-05
-3.65021e-05
4.28608e-05
-3.36318e-05
4.23255e-05
-3.00374e-05
4.28408e-05
-2.59752e-05
4.66899e-05
-1.98056e-05
4.8482e-05
-1.49471e-05
5.32118e-05
-1.21018e-05
5.24997e-05
-1.34463e-05
5.38831e-05
-2.05415e-05
5.58195e-05
-3.60169e-05
6.51633e-05
-4.9915e-05
8.34604e-05
-5.12127e-05
0.000104919
-3.8458e-05
0.000115956
-2.93685e-05
9.08838e-05
-1.76308e-05
2.57211e-05
-7.52911e-06
-4.66587e-06
-1.26938e-06
5.32075e-06
-9.74255e-07
1.39086e-05
-6.25003e-06
1.16507e-05
2.33427e-06
5.41588e-06
6.78251e-06
1.59304e-05
9.51797e-06
2.25514e-05
-1.20535e-06
2.61972e-05
3.3838e-06
7.24987e-06
6.55068e-05
-1.63485e-05
0.000117396
-2.95208e-05
0.00013647
-4.00551e-05
0.000128543
-6.27587e-05
9.17917e-05
-7.84579e-05
6.17031e-05
-8.31298e-05
4.75224e-05
-8.01766e-05
3.93575e-05
-7.30662e-05
3.57121e-05
-6.12704e-05
3.48722e-05
-4.88842e-05
3.60693e-05
-3.68386e-05
4.1136e-05
-3.0336e-05
4.59648e-05
-2.96614e-05
5.31765e-05
-3.60138e-05
6.21423e-05
-4.41683e-05
7.32922e-05
-4.74161e-05
8.66864e-05
-4.25044e-05
9.999e-05
-3.06761e-05
0.00010411
-1.43106e-05
7.44925e-05
-1.79036e-07
1.15587e-05
1.40644e-06
-6.279e-06
2.79322e-06
3.90683e-06
3.86636e-06
1.28094e-05
-8.4799e-08
1.55756e-05
2.22595e-06
2.77303e-06
3.98353e-06
7.25953e-06
5.00369e-06
8.99484e-06
-2.97154e-06
1.42147e-05
-1.87364e-06
4.30535e-06
7.53643e-05
-1.34243e-05
0.000135091
-2.98319e-05
0.000152868
-4.86669e-05
0.000147379
-6.76824e-05
0.000110779
-8.22465e-05
7.62437e-05
-8.58836e-05
5.1141e-05
-8.1423e-05
3.4879e-05
-7.35483e-05
2.78169e-05
-6.41093e-05
2.54089e-05
-5.57518e-05
2.76837e-05
-4.74799e-05
3.28335e-05
-3.9798e-05
3.82501e-05
-3.52053e-05
4.85507e-05
-3.46347e-05
6.15395e-05
-3.58412e-05
7.44693e-05
-3.52415e-05
8.60605e-05
-3.03731e-05
9.50985e-05
-1.73663e-05
9.10809e-05
3.10716e-06
5.39921e-05
9.28783e-06
5.34998e-06
5.14942e-06
-2.16648e-06
3.92747e-06
5.10241e-06
4.23452e-06
1.2476e-05
4.15628e-06
1.56276e-05
6.35589e-06
1.26953e-06
2.68711e-06
9.04397e-07
5.33986e-06
-2.46411e-06
3.67454e-07
-5.81673e-08
-4.30896e-06
4.90686e-06
7.03572e-05
-6.41767e-06
0.000146392
-2.28257e-05
0.000169268
-4.20959e-05
0.000166636
-6.17936e-05
0.00013045
-7.24137e-05
8.68391e-05
-6.92464e-05
4.79523e-05
-6.37525e-05
2.93649e-05
-5.91156e-05
2.31593e-05
-5.57589e-05
2.20293e-05
-5.31346e-05
2.50336e-05
-4.86569e-05
2.83267e-05
-4.08031e-05
3.03647e-05
-3.30294e-05
4.0744e-05
-2.64945e-05
5.49718e-05
-2.35069e-05
7.14513e-05
-2.18795e-05
8.44056e-05
-1.68109e-05
9.00042e-05
-1.482e-06
7.5725e-05
1.89525e-05
3.35291e-05
1.68662e-05
7.41037e-06
9.67401e-06
5.00184e-06
6.0651e-06
8.68639e-06
5.16328e-06
1.33524e-05
4.40304e-06
1.63625e-05
1.07339e-05
-7.35531e-07
3.39623e-06
-2.24775e-06
6.82378e-06
-6.36342e-06
4.45521e-06
-9.22283e-06
-1.47472e-06
8.80483e-06
5.22994e-05
2.8716e-06
0.000152307
-1.25631e-05
0.000184701
-2.98038e-05
0.000183863
-4.98538e-05
0.000150476
-5.61145e-05
9.30743e-05
-5.16675e-05
4.34807e-05
-4.79952e-05
2.56698e-05
-4.66774e-05
2.18198e-05
-4.67462e-05
2.20766e-05
-4.58815e-05
2.41464e-05
-4.16497e-05
2.40696e-05
-3.49065e-05
2.35934e-05
-2.46275e-05
3.04348e-05
-1.46856e-05
4.49994e-05
-9.64199e-06
6.63793e-05
-9.65343e-06
8.43917e-05
-2.73997e-06
8.30655e-05
1.13039e-05
6.16535e-05
2.194e-05
2.28674e-05
1.72817e-05
1.2047e-05
1.06489e-05
1.16128e-05
6.16449e-06
1.31482e-05
4.23559e-06
1.52587e-05
3.74784e-06
1.68281e-05
1.44597e-05
-2.0504e-06
5.42136e-06
-2.36437e-06
7.11112e-06
-5.99316e-06
8.05727e-06
-1.1473e-05
3.98329e-06
8.3542e-06
3.24496e-05
1.02953e-05
0.000150348
-2.57931e-06
0.000197567
-1.85274e-05
0.000199798
-3.72917e-05
0.000169218
-4.11723e-05
9.69288e-05
-3.69245e-05
3.92056e-05
-3.51755e-05
2.38953e-05
-3.53395e-05
2.19606e-05
-3.5635e-05
2.23508e-05
-3.35226e-05
2.20136e-05
-3.01197e-05
2.06459e-05
-2.61275e-05
1.95788e-05
-1.88013e-05
2.30844e-05
-8.72244e-06
3.48952e-05
-8.40161e-07
5.8473e-05
-4.33819e-07
8.39641e-05
7.64006e-06
7.49686e-05
2.06151e-05
4.86542e-05
2.10166e-05
2.24461e-05
1.56888e-05
1.73576e-05
1.01221e-05
1.71611e-05
5.9812e-06
1.72698e-05
3.5788e-06
1.76421e-05
2.50907e-06
1.78796e-05
1.69503e-05
-2.4686e-06
7.86611e-06
-3.2436e-06
7.8611e-06
-5.29503e-06
1.00832e-05
-1.19307e-05
1.0598e-05
-2.10008e-06
2.25992e-05
1.20924e-05
0.000136137
6.14568e-06
0.000203504
-7.41433e-06
0.000213338
-2.41833e-05
0.000185967
-2.47476e-05
9.74682e-05
-2.09327e-05
3.53629e-05
-2.19297e-05
2.48661e-05
-2.35593e-05
2.35661e-05
-2.46521e-05
2.34222e-05
-2.39543e-05
2.12972e-05
-2.29565e-05
1.96309e-05
-2.19516e-05
1.85567e-05
-1.88884e-05
2.00031e-05
-1.15193e-05
2.75066e-05
-1.60626e-06
4.85411e-05
3.57563e-06
7.87665e-05
1.26432e-05
6.58832e-05
2.24389e-05
3.88422e-05
1.9525e-05
2.53483e-05
1.43991e-05
2.24716e-05
9.8983e-06
2.16475e-05
6.20434e-06
2.0948e-05
3.80993e-06
2.00208e-05
2.05502e-06
1.96195e-05
1.89902e-05
-2.40262e-06
1.0247e-05
-3.45932e-06
8.89534e-06
-4.74699e-06
1.13487e-05
-9.11493e-06
1.49471e-05
-1.09798e-05
2.44502e-05
1.08824e-05
0.000114269
1.48697e-05
0.000199517
8.93569e-06
0.000219264
-5.58527e-06
0.000200476
-7.48911e-06
9.93535e-05
-7.64413e-06
3.54943e-05
-1.15252e-05
2.8725e-05
-1.50052e-05
2.70253e-05
-1.75205e-05
2.59186e-05
-1.85449e-05
2.23049e-05
-1.90952e-05
2.01658e-05
-1.93917e-05
1.88385e-05
-1.86394e-05
1.92364e-05
-1.48771e-05
2.37296e-05
-6.34682e-06
3.99984e-05
4.05587e-06
6.83571e-05
1.71965e-05
5.27357e-05
2.21303e-05
3.39047e-05
1.8931e-05
2.85452e-05
1.44584e-05
2.69383e-05
1.04603e-05
2.56362e-05
6.54882e-06
2.48473e-05
4.13663e-06
2.24201e-05
1.95042e-06
2.1794e-05
2.0929e-05
-1.51928e-06
1.17474e-05
-2.58507e-06
9.94231e-06
-5.60925e-06
1.43558e-05
-1.14371e-05
2.0763e-05
-1.87608e-05
3.17702e-05
-1.43667e-07
9.56706e-05
1.65444e-05
0.000182862
2.41826e-05
0.00021165
1.96801e-05
0.000204995
6.76089e-06
0.000112273
-9.4108e-07
4.31805e-05
-6.47524e-06
3.42447e-05
-1.00324e-05
3.05683e-05
-1.27863e-05
2.86586e-05
-1.50576e-05
2.45623e-05
-1.64426e-05
2.15372e-05
-1.72178e-05
1.9601e-05
-1.72298e-05
1.92364e-05
-1.52635e-05
2.17526e-05
-8.45783e-06
3.31869e-05
7.34179e-06
5.25622e-05
1.97524e-05
4.03322e-05
2.06572e-05
3.3007e-05
1.76872e-05
3.15195e-05
1.42284e-05
3.03968e-05
1.06084e-05
2.92526e-05
6.29737e-06
2.9149e-05
4.06551e-06
2.46429e-05
1.84305e-06
2.40081e-05
2.27638e-05
3.42591e-07
1.13875e-05
2.40539e-07
1.0028e-05
-5.60399e-06
2.01851e-05
-1.60403e-05
3.11915e-05
-2.73657e-05
4.31042e-05
-1.99382e-05
8.82926e-05
7.33058e-06
0.000155671
3.05117e-05
0.000188546
4.65118e-05
0.000189068
2.71034e-05
0.000131724
6.18974e-06
6.40952e-05
-4.62656e-06
4.5055e-05
-8.09965e-06
3.40336e-05
-1.11192e-05
3.16694e-05
-1.33858e-05
2.68183e-05
-1.45411e-05
2.26813e-05
-1.50675e-05
2.01168e-05
-1.47995e-05
1.89585e-05
-1.27923e-05
1.97368e-05
-5.55731e-06
2.59485e-05
1.04265e-05
3.65888e-05
1.73316e-05
3.3441e-05
1.65291e-05
3.38192e-05
1.48714e-05
3.3182e-05
1.25204e-05
3.27487e-05
7.84011e-06
3.39327e-05
5.48387e-06
3.15021e-05
2.70109e-06
2.74234e-05
1.84377e-06
2.4856e-05
2.45973e-05
4.82041e-06
6.54865e-06
3.16673e-06
1.16659e-05
-5.58012e-06
2.89147e-05
-2.03578e-05
4.5955e-05
-3.44387e-05
5.71868e-05
-3.01037e-05
8.40043e-05
-7.3114e-07
0.000126384
3.35187e-05
0.000154396
6.43279e-05
0.000158359
5.90668e-05
0.000137054
2.43501e-05
9.88318e-05
3.14703e-07
6.90896e-05
-7.94311e-06
4.22868e-05
-1.13502e-05
3.50694e-05
-1.26444e-05
2.81048e-05
-1.33276e-05
2.33556e-05
-1.35775e-05
2.03584e-05
-1.26219e-05
1.79942e-05
-9.84209e-06
1.69485e-05
-2.76802e-06
1.88692e-05
8.51034e-06
2.53155e-05
1.14511e-05
3.05057e-05
9.27533e-06
3.59997e-05
9.08778e-06
3.33688e-05
8.77296e-06
3.30582e-05
3.53079e-06
3.91649e-05
8.07047e-07
3.42141e-05
-1.26464e-06
2.94801e-05
1.16579e-06
2.24103e-05
2.57465e-05
1.0689e-05
-4.16331e-06
2.89545e-06
1.94374e-05
-8.5058e-06
4.02913e-05
-1.80675e-05
5.5494e-05
-2.61398e-05
6.52427e-05
-2.06999e-05
7.85688e-05
4.26419e-06
0.000101455
3.83148e-05
0.000120399
7.12267e-05
0.000125504
8.37283e-05
0.000124592
6.51665e-05
0.000117405
3.51655e-05
9.9086e-05
7.90234e-06
6.95403e-05
-3.82958e-06
4.67946e-05
-8.95543e-06
3.32221e-05
-1.1879e-05
2.62698e-05
-1.32048e-05
2.16782e-05
-1.18494e-05
1.66298e-05
-8.09576e-06
1.3184e-05
-8.98453e-07
1.16621e-05
6.88256e-06
1.75299e-05
3.84007e-06
3.35464e-05
-7.21797e-07
4.05565e-05
-4.95597e-06
3.75927e-05
-6.35455e-06
3.44424e-05
-6.33257e-06
3.91257e-05
-5.55799e-06
3.342e-05
-3.86456e-06
2.77648e-05
-2.58481e-06
2.11094e-05
2.31401e-05
3.57297e-06
-7.76449e-06
-2.58757e-06
2.55694e-05
-6.22354e-06
4.39004e-05
-3.84163e-06
5.30868e-05
7.29056e-07
6.0648e-05
8.90888e-06
7.03695e-05
2.6554e-05
8.38009e-05
5.10147e-05
9.59397e-05
7.43712e-05
0.000102153
9.22595e-05
0.000106705
0.000102039
0.000107623
9.67075e-05
0.000104416
7.07247e-05
9.55187e-05
3.76502e-05
7.98624e-05
8.74238e-06
6.21212e-05
-7.91068e-06
4.2915e-05
-1.59338e-05
2.96949e-05
-1.39801e-05
1.46643e-05
-8.61203e-06
7.80092e-06
-2.75981e-06
5.79574e-06
3.68506e-08
1.47218e-05
-8.48727e-06
4.20596e-05
-1.44898e-05
4.65459e-05
-2.03721e-05
4.34597e-05
-2.32611e-05
3.73144e-05
-1.88258e-05
3.46723e-05
-1.34268e-05
2.80005e-05
-7.82563e-06
2.21417e-05
-6.0026e-06
1.92638e-05
1.71148e-05
4.61033e-07
-8.25486e-06
1.92732e-07
2.58079e-05
1.43062e-06
4.26347e-05
5.70823e-06
4.8782e-05
1.36209e-05
5.27084e-05
2.60514e-05
5.79126e-05
4.27113e-05
6.71195e-05
6.1479e-05
7.71557e-05
7.91577e-05
8.44612e-05
9.77834e-05
8.80689e-05
0.000116241
8.91588e-05
0.000129907
9.0751e-05
0.000128941
9.64918e-05
0.000106133
0.000102679
6.22633e-05
0.000105997
1.36389e-05
9.15372e-05
-2.19372e-05
6.52641e-05
-2.28864e-05
1.56018e-05
-1.78442e-05
2.74481e-06
-1.76389e-05
5.57515e-06
-2.52145e-05
2.22836e-05
-2.67668e-05
4.35994e-05
-2.65351e-05
4.63008e-05
-2.69192e-05
4.38289e-05
-2.85919e-05
3.8971e-05
-2.61755e-05
3.22386e-05
-2.09191e-05
2.27248e-05
-1.36861e-05
1.48876e-05
-6.74709e-06
1.23027e-05
1.03451e-05
3.44961e-06
-1.17331e-05
4.54211e-06
2.46869e-05
7.30682e-06
3.98426e-05
1.22366e-05
4.38246e-05
1.94432e-05
4.54732e-05
3.0285e-05
4.70386e-05
4.50436e-05
5.23369e-05
6.13389e-05
6.0841e-05
7.75873e-05
6.81969e-05
9.53606e-05
7.02838e-05
0.000113401
7.11121e-05
0.000131414
7.27387e-05
0.00014156
8.63573e-05
0.00013584
0.000108419
0.000101877
0.000139977
4.3475e-05
0.000149946
-1.7678e-05
0.000126413
-4.45259e-05
4.24431e-05
-4.69543e-05
5.16574e-06
-4.42774e-05
2.88855e-06
-4.11474e-05
1.91427e-05
-3.44915e-05
3.69326e-05
-3.10378e-05
4.28356e-05
-2.95925e-05
4.23713e-05
-2.92396e-05
3.86045e-05
-2.72801e-05
3.02643e-05
-2.27714e-05
1.81993e-05
-1.5685e-05
7.78248e-06
-6.92054e-06
3.5181e-06
3.40373e-06
2.40071e-06
-1.41616e-05
7.47982e-06
1.95802e-05
1.09323e-05
3.63628e-05
1.77263e-05
3.70037e-05
2.3649e-05
3.95241e-05
3.24227e-05
3.82419e-05
4.41124e-05
4.06274e-05
5.79032e-05
4.70316e-05
7.20614e-05
5.40228e-05
8.8396e-05
5.39363e-05
0.000107718
5.17827e-05
0.00012588
5.45785e-05
0.00013672
7.55325e-05
0.00013482
0.00011034
0.000109159
0.000165658
6.15975e-05
0.000197516
4.71108e-06
0.000183299
-4.4651e-05
9.18003e-05
-5.34482e-05
1.39568e-05
-5.07306e-05
1.64393e-07
-4.23937e-05
1.07965e-05
-3.42906e-05
2.88191e-05
-2.97799e-05
3.83144e-05
-2.72296e-05
3.98104e-05
-2.56755e-05
3.70394e-05
-2.38719e-05
2.84488e-05
-2.12131e-05
1.55271e-05
-1.60803e-05
2.6339e-06
-8.19817e-06
-4.38148e-06
-4.81267e-06
5.69382e-07
-1.47577e-05
7.34518e-06
1.27778e-05
1.36858e-05
2.99964e-05
2.01e-05
3.05647e-05
2.72183e-05
3.23837e-05
3.57345e-05
2.97109e-05
4.60104e-05
3.03334e-05
5.78578e-05
3.51661e-05
7.01215e-05
4.17428e-05
8.21964e-05
4.18476e-05
9.74109e-05
3.65605e-05
0.000111983
4.00097e-05
0.000120943
6.65882e-05
0.000116642
0.000114659
9.69252e-05
0.000185391
6.63334e-05
0.000228117
2.63963e-05
0.000223241
-2.65132e-05
0.000144707
-4.52264e-05
3.26629e-05
-4.62027e-05
1.13341e-06
-3.93083e-05
3.89272e-06
-3.12258e-05
2.07263e-05
-2.59569e-05
3.30354e-05
-2.23286e-05
3.61724e-05
-1.97111e-05
3.44124e-05
-1.78482e-05
2.65758e-05
-1.6792e-05
1.44597e-05
-1.36558e-05
-5.15417e-07
-7.84399e-06
-1.0208e-05
-1.26723e-05
-2.48862e-07
-1.45345e-05
5.05874e-06
7.44483e-06
1.35014e-05
2.15292e-05
1.90417e-05
2.50006e-05
2.6882e-05
2.45215e-05
3.47953e-05
2.17784e-05
4.33463e-05
2.17634e-05
5.26557e-05
2.58385e-05
6.32182e-05
3.1164e-05
7.48328e-05
3.02199e-05
8.75845e-05
2.38027e-05
9.81888e-05
2.94101e-05
0.000101865
6.29257e-05
9.28745e-05
0.000123662
7.99988e-05
0.000198276
6.63359e-05
0.00024179
4.55811e-05
0.000244005
3.65088e-07
0.000189924
-3.63933e-05
6.94149e-05
-4.07023e-05
5.43441e-06
-3.58251e-05
-9.93549e-07
-2.80844e-05
1.29752e-05
-2.16126e-05
2.65533e-05
-1.68101e-05
3.13602e-05
-1.32552e-05
3.08482e-05
-1.1053e-05
2.43641e-05
-1.08691e-05
1.42655e-05
-9.80602e-06
-1.59043e-06
-6.54699e-06
-1.34802e-05
-1.92334e-05
-1.05175e-06
-1.3507e-05
2.35468e-06
4.0142e-06
9.65764e-06
1.42027e-05
1.68341e-05
1.78012e-05
2.44723e-05
1.68615e-05
3.16849e-05
1.45453e-05
3.91745e-05
1.42543e-05
4.74e-05
1.75948e-05
5.6525e-05
2.2023e-05
6.65226e-05
2.021e-05
7.70513e-05
1.32693e-05
8.45111e-05
2.19548e-05
8.19701e-05
6.54753e-05
7.01914e-05
0.000135447
6.61969e-05
0.000202277
6.66056e-05
0.000241391
6.0288e-05
0.000250335
3.13151e-05
0.000218902
-1.79828e-05
0.000118708
-3.24924e-05
1.9936e-05
-3.20192e-05
-1.4756e-06
-2.55544e-05
6.5e-06
-1.7963e-05
1.89511e-05
-1.20848e-05
2.54716e-05
-7.63353e-06
2.6387e-05
-4.88817e-06
2.16087e-05
-4.30332e-06
1.367e-05
-4.7213e-06
-1.18453e-06
-4.97988e-06
-1.32346e-05
-2.42274e-05
-1.29486e-06
-1.22353e-05
1.0673e-06
1.62901e-06
6.7616e-06
8.48592e-06
1.33196e-05
1.12211e-05
2.02642e-05
9.89532e-06
2.69998e-05
7.78898e-06
3.36675e-05
7.56694e-06
4.0779e-05
1.04652e-05
4.866e-05
1.41263e-05
5.61886e-05
1.267e-05
6.334e-05
6.11382e-06
6.88026e-05
1.64936e-05
6.37536e-05
7.05263e-05
5.38942e-05
0.000145307
5.80541e-05
0.000198122
6.86123e-05
0.000230843
7.21152e-05
0.000246844
5.6975e-05
0.000234052
1.00354e-05
0.000165646
-2.51475e-05
5.51111e-05
-2.81302e-05
1.49822e-06
-2.34491e-05
1.80882e-06
-1.56734e-05
1.11642e-05
-8.82048e-06
1.86073e-05
-3.49794e-06
2.10533e-05
-8.20068e-08
1.81816e-05
1.56443e-06
1.20118e-05
5.59104e-07
-1.92278e-07
-3.52157e-06
-9.16785e-06
-2.77639e-05
-1.20624e-06
-1.10511e-05
2.89829e-07
1.10958e-07
4.5101e-06
4.24405e-06
1.01902e-05
5.51961e-06
1.62352e-05
3.82918e-06
2.19383e-05
2.06556e-06
2.73342e-05
2.15185e-06
3.31435e-05
4.63841e-06
3.96842e-05
7.57077e-06
4.4812e-05
7.53199e-06
4.84594e-05
2.46128e-06
5.13732e-05
1.35759e-05
4.79957e-05
7.38993e-05
4.60089e-05
0.000147292
5.52174e-05
0.000188917
7.06542e-05
0.000215416
8.08127e-05
0.000236699
7.46389e-05
0.000240239
4.03592e-05
0.00019993
-7.88527e-06
0.00010335
-2.07389e-05
1.43424e-05
-2.04356e-05
1.49582e-06
-1.46147e-05
5.33205e-06
-7.37394e-06
1.13543e-05
-1.25303e-06
1.49199e-05
2.87175e-06
1.40442e-05
5.28307e-06
9.58738e-06
4.46659e-06
6.09771e-07
-4.76611e-07
-4.23993e-06
-2.82566e-05
-1.02567e-06
-1.00466e-05
1.81335e-07
-1.11725e-06
3.59289e-06
8.11562e-07
8.3516e-06
7.40164e-07
1.33176e-05
-1.15717e-06
1.75958e-05
-2.23203e-06
2.13327e-05
-1.60296e-06
2.52424e-05
7.12825e-07
2.96642e-05
3.13583e-06
3.33146e-05
3.87196e-06
3.54588e-05
3.09482e-07
3.71017e-05
1.19241e-05
3.90311e-05
7.19612e-05
4.64483e-05
0.000139871
5.90023e-05
0.000176366
7.37611e-05
0.000200667
8.59885e-05
0.000224487
8.51034e-05
0.000241141
6.24293e-05
0.000222615
1.73345e-05
0.000148443
-1.3587e-05
4.52548e-05
-1.68211e-05
4.71931e-06
-1.37486e-05
2.24837e-06
-7.31948e-06
4.91246e-06
-6.84074e-07
8.27096e-06
4.02295e-06
9.32323e-06
6.67181e-06
6.92419e-06
6.13963e-06
1.12653e-06
3.26475e-06
-1.38369e-06
-2.5009e-05
-7.80314e-07
-9.28687e-06
5.61046e-07
-2.47929e-06
3.68852e-06
-2.33634e-06
7.95356e-06
-3.5449e-06
1.19272e-05
-5.15002e-06
1.4705e-05
-5.02756e-06
1.66112e-05
-3.52524e-06
1.86499e-05
-1.33993e-06
2.13641e-05
4.09458e-07
2.41629e-05
1.06269e-06
2.49436e-05
-4.8138e-07
2.61431e-05
1.07127e-05
3.47868e-05
6.33069e-05
5.11462e-05
0.000123507
6.77498e-05
0.000159765
8.07421e-05
0.000187684
8.98077e-05
0.000215436
9.0836e-05
0.000240131
7.69315e-05
0.000236534
4.195e-05
0.000183427
1.03958e-06
8.61573e-05
-9.53909e-06
1.52867e-05
-1.05511e-05
3.24875e-06
-6.83522e-06
1.18352e-06
-8.3146e-07
2.25287e-06
4.02391e-06
4.45298e-06
6.71596e-06
4.21683e-06
6.64146e-06
1.18469e-06
5.27808e-06
-3.52184e-08
-1.97489e-05
-6.33465e-07
-8.67325e-06
1.47335e-06
-4.60626e-06
4.85364e-06
-5.73646e-06
8.68205e-06
-7.39242e-06
1.12063e-05
-7.69203e-06
1.22824e-05
-6.1199e-06
1.27883e-05
-4.04577e-06
1.35043e-05
-2.06935e-06
1.45589e-05
-6.57514e-07
1.57792e-05
-1.69357e-07
1.56299e-05
-3.43885e-07
1.77105e-05
8.6194e-06
3.00657e-05
5.09408e-05
5.33007e-05
0.000100267
7.40251e-05
0.000139042
8.71377e-05
0.000174579
9.22072e-05
0.000210381
9.19292e-05
0.000240425
8.38445e-05
0.000244631
6.05436e-05
0.000206733
2.33645e-05
0.00012333
-2.89399e-07
3.89294e-05
-5.47256e-06
8.41921e-06
-5.05244e-06
7.49854e-07
-9.31594e-07
-1.88293e-06
3.38228e-06
1.23245e-07
6.12568e-06
1.45705e-06
6.83017e-06
4.63201e-07
5.8747e-06
9.02181e-07
-1.38924e-05
-3.31417e-07
-8.36102e-06
2.70125e-06
-7.65843e-06
6.11839e-06
-9.17278e-06
8.41043e-06
-9.7027e-06
9.14538e-06
-8.44385e-06
9.26406e-06
-6.25408e-06
9.11734e-06
-3.9134e-06
8.86201e-06
-1.82736e-06
8.49093e-06
-2.99015e-07
7.80448e-06
5.05024e-07
6.33393e-06
1.11465e-06
8.54427e-06
6.39716e-06
2.30033e-05
3.64707e-05
4.78895e-05
7.53743e-05
7.17553e-05
0.000115177
8.56292e-05
0.000160712
8.86327e-05
0.000207388
8.78325e-05
0.000241234
8.54714e-05
0.000247001
7.30119e-05
0.000219194
4.46209e-05
0.000151715
1.32356e-05
7.03024e-05
4.45185e-07
2.11961e-05
-1.64249e-06
2.82294e-06
3.34882e-07
-3.8761e-06
3.12968e-06
-2.68839e-06
5.37069e-06
-8.01515e-07
6.82034e-06
-1.00456e-06
5.31963e-06
2.38588e-06
-8.59133e-06
5.11362e-07
-8.8925e-06
3.4598e-06
-1.06261e-05
5.86165e-06
-1.15935e-05
6.82029e-06
-1.06794e-05
6.80066e-06
-8.44109e-06
6.20923e-06
-5.67824e-06
5.46342e-06
-3.18194e-06
4.55917e-06
-9.36331e-07
3.48565e-06
7.62105e-07
1.96798e-06
2.01081e-06
3.47068e-07
2.72415e-06
1.02771e-06
5.70559e-06
1.40636e-05
2.34235e-05
3.75235e-05
5.19063e-05
6.02795e-05
9.24178e-05
7.39987e-05
0.000146996
7.525e-05
0.000206142
7.66118e-05
0.000239877
7.98641e-05
0.000243752
7.65686e-05
0.000222489
5.84992e-05
0.000169777
2.88217e-05
9.99653e-05
8.10548e-06
4.18957e-05
4.29163e-06
6.62041e-06
3.98713e-06
-3.58828e-06
4.04982e-06
-2.76855e-06
4.97638e-06
-1.7465e-06
6.26238e-06
-2.30929e-06
4.6594e-06
3.96796e-06
-3.95004e-06
1.20445e-06
-1.01153e-05
3.65971e-06
-1.3101e-05
5.30979e-06
-1.32629e-05
5.56676e-06
-1.09548e-05
4.75577e-06
-7.64737e-06
3.12212e-06
-4.06036e-06
1.73975e-06
-1.8141e-06
4.43438e-07
3.46763e-07
-8.95736e-07
2.0891e-06
-2.62833e-06
3.73182e-06
-4.7185e-06
4.80329e-06
-6.01814e-06
6.99442e-06
1.96381e-06
1.54305e-05
2.14949e-05
3.23652e-05
4.32025e-05
7.07036e-05
5.39239e-05
0.000136273
5.33434e-05
0.000206723
5.68126e-05
0.000236411
6.39131e-05
0.00023665
6.76297e-05
0.000218769
5.89345e-05
0.000178461
3.67631e-05
0.000122119
1.70669e-05
6.15713e-05
1.30874e-05
1.05814e-05
9.32635e-06
1.56531e-07
5.50148e-06
1.03901e-06
4.31579e-06
-5.79408e-07
3.45197e-06
-1.46447e-06
4.03485e-06
3.36552e-06
6.82616e-08
1.60716e-06
-1.17429e-05
4.33998e-06
-1.58541e-05
5.68753e-06
-1.46301e-05
5.41821e-06
-1.07043e-05
3.46853e-06
-5.71563e-06
-5.74267e-07
-3.32776e-08
-2.44064e-06
3.69732e-08
-3.79334e-06
1.68574e-06
-4.98952e-06
3.27298e-06
-6.62187e-06
5.35254e-06
-8.89995e-06
7.07029e-06
-1.1379e-05
9.46296e-06
-9.44666e-06
1.34878e-05
1.16722e-06
2.17402e-05
1.97216e-05
5.21398e-05
2.78888e-05
0.0001281
2.71581e-05
0.000207451
3.10284e-05
0.000232537
3.93818e-05
0.000228291
4.69402e-05
0.000211201
4.55178e-05
0.000179868
3.20556e-05
0.000135562
1.91246e-05
7.44796e-05
1.51658e-05
1.45218e-05
9.12073e-06
6.18838e-06
5.12805e-06
5.01565e-06
2.617e-06
1.91377e-06
5.21556e-07
6.12724e-07
2.08272e-06
1.78733e-06
2.13579e-06
2.73164e-06
-1.44954e-05
5.96368e-06
-1.91065e-05
7.42533e-06
-1.61113e-05
7.19431e-06
-1.04922e-05
3.64586e-06
-2.18568e-06
-6.72694e-06
1.03237e-05
-7.81187e-06
1.10492e-06
-8.30564e-06
2.16466e-06
-8.88875e-06
3.84324e-06
-1.00713e-05
6.52289e-06
-1.20155e-05
9.00291e-06
-1.47164e-05
1.21533e-05
-1.61789e-05
1.49406e-05
-1.32487e-05
1.87995e-05
-4.75443e-06
4.36351e-05
-3.01016e-06
0.000126348
-3.46252e-06
0.000207898
2.12214e-06
0.000226944
1.33736e-05
0.000217028
2.38606e-05
0.000200699
2.87522e-05
0.000174959
2.32429e-05
0.00014105
1.56737e-05
8.20266e-05
9.48404e-06
2.06953e-05
4.55654e-06
1.11038e-05
1.80439e-06
7.75328e-06
3.14081e-07
3.38763e-06
1.62352e-07
7.47836e-07
1.03807e-06
8.96659e-07
3.16012e-06
4.42343e-06
-1.89398e-05
8.15243e-06
-2.28553e-05
1.10674e-05
-1.9045e-05
1.1516e-05
-1.09583e-05
1.1285e-06
8.18559e-06
-1.31907e-05
2.46241e-05
-1.41619e-05
2.05981e-06
-1.28656e-05
8.51979e-07
-1.24685e-05
3.4324e-06
-1.27304e-05
6.77173e-06
-1.4244e-05
1.05045e-05
-1.75482e-05
1.54467e-05
-2.15833e-05
1.89665e-05
-2.55528e-05
2.27606e-05
-3.18106e-05
4.98874e-05
-4.20254e-05
0.000136562
-3.836e-05