/*--------------------------------*- C++ -*----------------------------------*\
| =========                 |                                                 |
| \\      /  F ield         | OpenFOAM: The Open Source CFD Toolbox           |
|  \\    /   O peration     | Version:  v1606+                                |
|   \\  /    A nd           | Web:      www.OpenFOAM.com                      |
|    \\/     M anipulation  |                                                 |
\*---------------------------------------------------------------------------*/
FoamFile
{
    version     2.0;
    format      ascii;
    class       volScalarField;
    location    "0.87";
    object      alpha.particlesMean;
}
// * * * * * * * * * * * * * * * * * * * * * * * * * * * * * * * * * * * * * //

dimensions      [0 0 0 0 0 0 0];

internalField   nonuniform List<scalar> 
6000
(
0.410126
0.414267
0.412932
0.412947
0.412618
0.4126
0.412717
0.411906
0.410142
0.407905
0.40629
0.404512
0.40214
0.400355
0.398978
0.399152
0.400328
0.402432
0.404555
0.406383
0.408042
0.410321
0.411964
0.412751
0.41241
0.41265
0.41324
0.41312
0.414476
0.409401
0.390627
0.393261
0.391421
0.390248
0.388213
0.38683
0.386378
0.386803
0.387914
0.387711
0.386785
0.386157
0.38564
0.385198
0.385078
0.385184
0.3854
0.385781
0.386305
0.386807
0.387786
0.388007
0.386812
0.38643
0.386895
0.388405
0.390342
0.391456
0.393189
0.390484
0.394997
0.405625
0.402835
0.401397
0.397999
0.395258
0.39362
0.393919
0.394823
0.39427
0.393328
0.392496
0.391401
0.391393
0.391411
0.39118
0.391185
0.391648
0.392856
0.393112
0.394074
0.39466
0.393716
0.393551
0.395404
0.398262
0.401537
0.402721
0.405136
0.39473
0.387919
0.398106
0.394748
0.39316
0.390429
0.388244
0.386609
0.386013
0.386184
0.387984
0.388128
0.388298
0.388114
0.38867
0.388835
0.388396
0.387846
0.387905
0.388349
0.387809
0.387491
0.386069
0.38586
0.386511
0.388217
0.390492
0.393048
0.394259
0.39737
0.387263
0.380439
0.386575
0.384392
0.383433
0.379651
0.376687
0.375084
0.372842
0.37124
0.37562
0.379354
0.380973
0.383534
0.385065
0.385266
0.384904
0.384093
0.382667
0.380408
0.379169
0.375153
0.371255
0.372786
0.37497
0.376823
0.379859
0.383221
0.383781
0.385967
0.379538
0.375364
0.380047
0.381447
0.380506
0.375338
0.370907
0.368372
0.364707
0.358826
0.361331
0.368188
0.370254
0.374467
0.378602
0.37979
0.379143
0.377562
0.373281
0.369696
0.368395
0.361199
0.358741
0.364397
0.368452
0.371238
0.375552
0.380287
0.380849
0.379543
0.374371
0.37494
0.382549
0.387311
0.386936
0.3817
0.375085
0.369736
0.365203
0.356472
0.352928
0.358852
0.359898
0.363685
0.372452
0.376409
0.374875
0.36976
0.362324
0.360037
0.359643
0.353185
0.355617
0.364523
0.369982
0.375495
0.381818
0.386882
0.387104
0.382327
0.373777
0.380899
0.38645
0.393576
0.396832
0.395074
0.387286
0.37662
0.368647
0.360556
0.352345
0.351833
0.350487
0.352851
0.365378
0.374733
0.371846
0.360027
0.350962
0.351132
0.35355
0.351744
0.358727
0.368131
0.377105
0.387765
0.395115
0.396905
0.393714
0.386761
0.380104
0.387592
0.385432
0.395546
0.40532
0.409725
0.403409
0.388236
0.373945
0.364255
0.357174
0.34879
0.341578
0.342484
0.35555
0.371536
0.366352
0.348522
0.339401
0.341315
0.350009
0.355491
0.363162
0.373629
0.388621
0.403597
0.409283
0.404984
0.395597
0.386116
0.388152
0.387035
0.383612
0.394014
0.409109
0.419972
0.417092
0.400299
0.381964
0.368171
0.359391
0.3496
0.336316
0.335285
0.346656
0.364991
0.356741
0.339272
0.330036
0.333758
0.350463
0.359124
0.367075
0.381143
0.399831
0.416711
0.419161
0.40888
0.394508
0.384595
0.388967
0.384085
0.382921
0.392025
0.409507
0.424998
0.428122
0.411655
0.390817
0.372906
0.359159
0.349712
0.333491
0.330459
0.34167
0.360765
0.351372
0.336205
0.325985
0.331057
0.35247
0.358756
0.370731
0.388908
0.41084
0.427693
0.425149
0.410128
0.392774
0.383783
0.386291
0.380417
0.381887
0.391469
0.409921
0.426794
0.436068
0.423326
0.399705
0.377086
0.358398
0.348213
0.331274
0.325988
0.339982
0.360726
0.352682
0.338708
0.327072
0.332894
0.352141
0.357011
0.373466
0.398282
0.42342
0.43563
0.42793
0.410215
0.391282
0.382619
0.38188
0.37511
0.379986
0.390958
0.411819
0.428946
0.439518
0.431589
0.407727
0.379627
0.356221
0.346335
0.330225
0.32127
0.339421
0.363046
0.358262
0.342971
0.331781
0.337571
0.350795
0.354594
0.375527
0.408313
0.43388
0.439209
0.429439
0.410713
0.389994
0.380152
0.376303
0.368233
0.375857
0.389303
0.413419
0.432125
0.440736
0.436504
0.413539
0.38089
0.353844
0.342009
0.328889
0.317098
0.337656
0.363914
0.362967
0.347581
0.340459
0.342178
0.347946
0.35289
0.37786
0.416283
0.440048
0.44074
0.431426
0.411316
0.388691
0.376772
0.370303
0.36107
0.370494
0.386261
0.41327
0.436257
0.44544
0.443181
0.417861
0.380528
0.351458
0.336409
0.328593
0.317556
0.332029
0.359479
0.362756
0.350816
0.34977
0.348173
0.345779
0.351963
0.379174
0.420866
0.442781
0.441649
0.432629
0.411121
0.387615
0.373795
0.365473
0.356262
0.366528
0.383153
0.408553
0.435433
0.452868
0.452186
0.42287
0.379579
0.349551
0.333333
0.32983
0.324716
0.329033
0.343233
0.353728
0.352342
0.356126
0.35306
0.345967
0.352118
0.378773
0.423035
0.444248
0.439758
0.430139
0.408883
0.386978
0.372558
0.363863
0.35313
0.363801
0.382123
0.402871
0.427622
0.444967
0.451152
0.429013
0.382633
0.35176
0.334407
0.330542
0.33463
0.332571
0.338356
0.341277
0.343244
0.354366
0.353477
0.34801
0.354557
0.378703
0.422612
0.442838
0.435673
0.425983
0.406472
0.387606
0.372787
0.364282
0.348362
0.357881
0.381695
0.399687
0.415641
0.423142
0.432063
0.428006
0.392464
0.362225
0.341703
0.334611
0.342254
0.341892
0.343771
0.34453
0.342388
0.3484
0.351805
0.35086
0.359841
0.380478
0.415869
0.435982
0.433173
0.423561
0.407797
0.391387
0.376901
0.366585
0.349483
0.355503
0.375921
0.395559
0.402909
0.401703
0.405853
0.413284
0.402532
0.378021
0.355903
0.342776
0.348271
0.352951
0.351123
0.350193
0.34527
0.339756
0.347928
0.353635
0.366625
0.384531
0.403925
0.422355
0.428537
0.420856
0.409907
0.397354
0.383672
0.371658
0.360377
0.363989
0.375174
0.387368
0.390561
0.385666
0.382313
0.383375
0.392849
0.382443
0.360742
0.343962
0.34726
0.357754
0.354689
0.352157
0.342923
0.329126
0.343278
0.357399
0.372319
0.381623
0.38532
0.401398
0.413131
0.416477
0.409464
0.399069
0.386297
0.375521
0.386749
0.376229
0.376404
0.375422
0.379571
0.380153
0.377738
0.372284
0.375183
0.373224
0.356574
0.340128
0.338489
0.34923
0.350602
0.348857
0.337011
0.323425
0.342604
0.359229
0.369954
0.375276
0.374259
0.382024
0.396538
0.401624
0.395643
0.387941
0.379998
0.372162
0.384099
0.384629
0.380179
0.37636
0.380836
0.387037
0.391901
0.387441
0.379703
0.371231
0.354919
0.338419
0.334527
0.340189
0.344023
0.343588
0.331866
0.323441
0.34491
0.366371
0.37595
0.376021
0.370669
0.371616
0.383571
0.385527
0.377762
0.369736
0.364469
0.358216
0.368302
0.372156
0.375302
0.382001
0.391781
0.400959
0.407826
0.411357
0.406152
0.391459
0.370824
0.352811
0.343936
0.342186
0.341449
0.339188
0.329533
0.326139
0.34703
0.37405
0.383245
0.377236
0.36839
0.367013
0.375412
0.37716
0.368194
0.356432
0.348611
0.343894
0.361019
0.365923
0.372437
0.382556
0.393118
0.404783
0.415825
0.427882
0.43305
0.423653
0.4023
0.379587
0.36186
0.352566
0.344605
0.338162
0.330135
0.330558
0.350269
0.377251
0.385316
0.375835
0.36514
0.363805
0.369077
0.371622
0.36456
0.350938
0.340485
0.338525
0.357672
0.359766
0.370277
0.38089
0.391869
0.403798
0.415016
0.429198
0.445852
0.450374
0.435299
0.408736
0.382917
0.366665
0.350368
0.338564
0.332945
0.337795
0.356192
0.376089
0.38236
0.371146
0.360036
0.359672
0.364703
0.366283
0.361762
0.349556
0.335644
0.337111
0.351715
0.353921
0.367021
0.377723
0.389802
0.400937
0.411142
0.424525
0.443849
0.459749
0.457091
0.433466
0.404046
0.382834
0.35859
0.339959
0.337074
0.346923
0.363325
0.375981
0.375562
0.363164
0.352504
0.356263
0.361491
0.361304
0.358666
0.34943
0.336093
0.337445
0.347647
0.349378
0.361283
0.371059
0.380794
0.391111
0.402286
0.417851
0.437932
0.457646
0.466603
0.45198
0.423571
0.397991
0.365905
0.343094
0.343771
0.35703
0.371012
0.377452
0.369599
0.354581
0.344696
0.355642
0.359164
0.359659
0.357339
0.348572
0.336498
0.337268
0.348981
0.350054
0.359816
0.365753
0.371068
0.377275
0.389054
0.406665
0.430169
0.4529
0.46908
0.464514
0.440247
0.409789
0.371702
0.347688
0.353514
0.368187
0.379522
0.380714
0.36595
0.347554
0.339473
0.353567
0.354197
0.356448
0.357095
0.350807
0.337864
0.335905
0.351171
0.355931
0.361665
0.365877
0.370831
0.371744
0.377978
0.394798
0.418976
0.445349
0.467908
0.471137
0.453378
0.420899
0.381105
0.356284
0.367486
0.381559
0.389991
0.384316
0.362211
0.342345
0.335504
0.347313
0.349371
0.352513
0.355078
0.35259
0.342322
0.334785
0.350702
0.358702
0.36383
0.368291
0.372022
0.370458
0.373417
0.385885
0.40781
0.433541
0.461989
0.474676
0.463072
0.434855
0.398491
0.373525
0.383329
0.397435
0.403105
0.387781
0.358784
0.337571
0.330727
0.339225
0.3437
0.347734
0.35179
0.35315
0.345546
0.334159
0.348976
0.357962
0.363149
0.368431
0.371814
0.371897
0.373171
0.380692
0.397365
0.419598
0.448655
0.47357
0.469138
0.44645
0.418846
0.396716
0.402228
0.416726
0.416981
0.387675
0.352843
0.332711
0.325191
0.330845
0.338147
0.343079
0.348152
0.351483
0.346382
0.335835
0.345835
0.355908
0.361109
0.365906
0.368156
0.368976
0.372245
0.376602
0.386841
0.407338
0.435453
0.462213
0.469871
0.452646
0.433929
0.419215
0.422819
0.436801
0.424282
0.382225
0.347955
0.327963
0.318557
0.321496
0.330691
0.337796
0.343573
0.347767
0.344574
0.338196
0.343108
0.353846
0.358709
0.361299
0.361381
0.361971
0.36586
0.370593
0.37955
0.398865
0.427337
0.453131
0.463837
0.456389
0.442586
0.433636
0.438346
0.44583
0.421817
0.381407
0.347296
0.324976
0.312739
0.31186
0.319609
0.330398
0.33797
0.343347
0.341921
0.338928
0.342598
0.351214
0.356107
0.355411
0.350042
0.348096
0.354696
0.363385
0.375966
0.395806
0.423865
0.450914
0.462434
0.460702
0.449053
0.440046
0.441589
0.436462
0.418481
0.382993
0.348782
0.324688
0.309697
0.304602
0.308148
0.318926
0.33101
0.340215
0.340683
0.339061
0.342445
0.348651
0.352437
0.347928
0.337295
0.33303
0.339663
0.355407
0.374258
0.395956
0.42387
0.452085
0.465316
0.466365
0.455856
0.445686
0.439452
0.425503
0.413489
0.383188
0.349998
0.325999
0.30928
0.300661
0.29963
0.307375
0.324529
0.34716
0.343834
0.340129
0.342179
0.34548
0.345786
0.336602
0.323013
0.322305
0.327882
0.340133
0.359777
0.391856
0.424622
0.453434
0.468383
0.472373
0.462737
0.448696
0.435965
0.419466
0.405854
0.380646
0.349469
0.327142
0.310375
0.299677
0.295402
0.301016
0.326451
0.350711
0.347278
0.342016
0.341495
0.34066
0.337056
0.32458
0.313362
0.315845
0.319201
0.322885
0.339789
0.37798
0.422276
0.454215
0.471279
0.478239
0.470649
0.452426
0.434765
0.416942
0.401567
0.376098
0.348159
0.327942
0.312516
0.300751
0.293814
0.299223
0.328326
0.347247
0.347387
0.342994
0.339315
0.333165
0.325926
0.313
0.306965
0.303237
0.302195
0.302276
0.315167
0.349222
0.411909
0.454257
0.473863
0.483784
0.47841
0.461217
0.437767
0.418645
0.401419
0.372425
0.347051
0.329679
0.316309
0.304299
0.294897
0.297229
0.323352
0.343073
0.344023
0.34307
0.332294
0.321331
0.31249
0.299394
0.291771
0.284264
0.291461
0.302292
0.314149
0.330492
0.37781
0.446845
0.474219
0.488901
0.485276
0.472155
0.44342
0.422099
0.402581
0.368021
0.347425
0.333008
0.321134
0.30933
0.298741
0.297755
0.317084
0.337061
0.341296
0.34231
0.310257
0.29097
0.283106
0.275253
0.278578
0.28592
0.297901
0.309584
0.320466
0.332471
0.358659
0.415219
0.468734
0.492625
0.491287
0.48229
0.451415
0.42262
0.396438
0.36418
0.348416
0.337127
0.32665
0.315535
0.303934
0.30011
0.311424
0.328792
0.335485
0.340369
0.290758
0.278442
0.27881
0.27861
0.284942
0.293508
0.305707
0.316436
0.326287
0.336579
0.355206
0.39436
0.450199
0.492295
0.496875
0.490341
0.461338
0.417154
0.386393
0.365877
0.350192
0.34069
0.331433
0.32133
0.309789
0.304296
0.307847
0.320173
0.331588
0.338112
0.287749
0.281839
0.2841
0.285572
0.291986
0.300303
0.311726
0.321813
0.330785
0.339966
0.354891
0.387384
0.433624
0.488699
0.500796
0.496134
0.470654
0.413508
0.383989
0.369547
0.353448
0.343724
0.335094
0.325668
0.314814
0.308124
0.306713
0.315075
0.330176
0.335956
0.29065
0.288093
0.2905
0.291515
0.297717
0.306296
0.316631
0.325824
0.333796
0.342032
0.355268
0.384941
0.428159
0.481059
0.503072
0.500594
0.476631
0.409859
0.381434
0.370297
0.356701
0.346282
0.337926
0.329151
0.319407
0.311492
0.307567
0.314049
0.330587
0.336241
0.296871
0.295763
0.297068
0.297886
0.303906
0.312396
0.321213
0.328805
0.335599
0.343596
0.356572
0.384328
0.427004
0.473799
0.504579
0.504013
0.475433
0.406565
0.379969
0.369833
0.359074
0.348516
0.340152
0.332423
0.32422
0.316095
0.310783
0.315466
0.333625
0.341122
0.303412
0.302956
0.303949
0.305942
0.311512
0.318992
0.32576
0.331415
0.337594
0.346473
0.3597
0.385914
0.42669
0.469661
0.502725
0.50658
0.465635
0.406247
0.381882
0.370007
0.361324
0.350703
0.342193
0.33578
0.329437
0.322329
0.316886
0.318821
0.337045
0.344693
0.3089
0.310177
0.311443
0.314241
0.319168
0.324755
0.329603
0.334558
0.341328
0.351239
0.364823
0.389392
0.42612
0.466345
0.500296
0.507907
0.456362
0.408148
0.386052
0.372343
0.363285
0.35307
0.344441
0.338616
0.334124
0.328766
0.323847
0.324115
0.340228
0.346342
0.31406
0.317874
0.318926
0.321248
0.324947
0.328951
0.333119
0.338941
0.347005
0.357185
0.370804
0.393548
0.426204
0.465238
0.498849
0.505155
0.454776
0.412143
0.39102
0.376836
0.366234
0.35615
0.347211
0.341054
0.337343
0.333771
0.329947
0.329921
0.34361
0.347476
0.319784
0.325204
0.32497
0.326312
0.329076
0.332356
0.33713
0.344661
0.35357
0.363341
0.376845
0.398083
0.427955
0.465423
0.499265
0.504217
0.457146
0.416318
0.396169
0.382552
0.370436
0.360337
0.351149
0.343878
0.339802
0.337182
0.334173
0.334725
0.346316
0.349043
0.325465
0.330105
0.3295
0.330271
0.332538
0.336192
0.342754
0.351319
0.359939
0.369317
0.382453
0.402644
0.430635
0.466687
0.499942
0.504672
0.460193
0.420655
0.401431
0.388567
0.375961
0.365218
0.356197
0.34797
0.342225
0.339681
0.337204
0.3379
0.346309
0.349701
0.330013
0.333735
0.333626
0.333974
0.336237
0.341587
0.349097
0.357791
0.365703
0.375053
0.387635
0.40689
0.433943
0.468922
0.500134
0.504249
0.462973
0.425159
0.406679
0.394562
0.382191
0.371187
0.361962
0.352588
0.345577
0.341675
0.339734
0.34025
0.344833
0.348225
0.334146
0.337005
0.337728
0.337865
0.34176
0.347486
0.355304
0.364045
0.371671
0.380672
0.392684
0.410802
0.437593
0.471981
0.499751
0.501769
0.466037
0.430115
0.411942
0.400646
0.389071
0.378445
0.368544
0.357833
0.349613
0.344791
0.341911
0.342366
0.343173
0.345469
0.337603
0.339961
0.341678
0.342396
0.347767
0.353201
0.361725
0.371174
0.378479
0.386574
0.39813
0.41487
0.441511
0.475539
0.499558
0.499265
0.468484
0.43532
0.417447
0.406955
0.396716
0.386707
0.376144
0.364753
0.354394
0.348115
0.344579
0.34401
0.341756
0.341255
0.340323
0.342201
0.344864
0.347174
0.35233
0.359543
0.368866
0.378221
0.385764
0.393385
0.404303
0.420072
0.446287
0.479241
0.499764
0.498143
0.470482
0.440624
0.423335
0.413559
0.404924
0.396074
0.385384
0.373927
0.361882
0.353438
0.347842
0.346477
0.340811
0.339125
0.342549
0.343415
0.346888
0.350582
0.358317
0.367245
0.377038
0.38572
0.393539
0.401105
0.411242
0.426279
0.452393
0.484055
0.501115
0.497654
0.472013
0.44591
0.42955
0.420283
0.412729
0.405025
0.396057
0.385271
0.372136
0.362156
0.352251
0.350364
0.341577
0.339286
0.344716
0.342917
0.349926
0.357374
0.367138
0.376018
0.385681
0.393399
0.401043
0.409185
0.418603
0.432956
0.459183
0.48956
0.503274
0.497918
0.473807
0.451058
0.435984
0.427041
0.419876
0.412508
0.405131
0.396943
0.385861
0.373482
0.360945
0.354577
0.343906
0.340929
0.347166
0.343136
0.357617
0.366152
0.37719
0.385998
0.39385
0.39994
0.408503
0.417284
0.426144
0.439653
0.46617
0.495668
0.506011
0.498514
0.475825
0.45618
0.442526
0.433861
0.426744
0.419046
0.411384
0.405017
0.39762
0.387508
0.373455
0.363071
0.348032
0.343767
0.348462
0.350205
0.366772
0.377066
0.387498
0.394192
0.399705
0.406467
0.416219
0.425413
0.433777
0.446522
0.473304
0.501419
0.509046
0.499973
0.478517
0.461174
0.449052
0.440683
0.433633
0.425661
0.416349
0.409861
0.404315
0.397726
0.387562
0.375092
0.35893
0.349252
0.352757
0.362275
0.377985
0.386446
0.393322
0.398198
0.404395
0.413893
0.424225
0.433536
0.441425
0.453398
0.480355
0.507274
0.512399
0.501746
0.481542
0.466237
0.45549
0.447525
0.440527
0.432359
0.422142
0.41378
0.407854
0.402958
0.396999
0.38778
0.372475
0.358975
0.363123
0.376535
0.385532
0.3907
0.395449
0.401102
0.410508
0.42211
0.432555
0.441461
0.44891
0.46016
0.486996
0.512443
0.515822
0.504208
0.485272
0.471379
0.461756
0.454227
0.447313
0.438819
0.428486
0.417571
0.41045
0.40605
0.401746
0.39646
0.386823
0.370673
0.375895
0.384248
0.388712
0.391566
0.397199
0.407427
0.418974
0.430731
0.440787
0.448997
0.456086
0.466735
0.49277
0.517316
0.519239
0.50668
0.489195
0.476799
0.46789
0.460681
0.453843
0.445016
0.434038
0.421278
0.412298
0.407857
0.404755
0.401359
0.395519
0.382954
0.383728
0.386269
0.389963
0.390085
0.403119
0.415971
0.428427
0.439362
0.448413
0.455953
0.462782
0.473143
0.497549
0.521009
0.522249
0.509787
0.493846
0.482294
0.473891
0.466853
0.459924
0.450879
0.43835
0.424232
0.413492
0.407947
0.406184
0.404533
0.400279
0.392839
0.386373
0.386469
0.385927
0.395127
0.412424
0.426381
0.438059
0.447291
0.455192
0.46223
0.468921
0.479371
0.501826
0.523537
0.524432
0.512684
0.498663
0.487907
0.479653
0.472655
0.465507
0.456133
0.442332
0.427076
0.413647
0.407522
0.405153
0.406446
0.403433
0.39951
0.387758
0.380892
0.392539
0.405666
0.424419
0.437154
0.44641
0.454096
0.461258
0.467895
0.474533
0.485466
0.506169
0.523404
0.52501
0.515866
0.503634
0.493358
0.485218
0.478103
0.470712
0.4613
0.44829
0.433084
0.416867
0.405955
0.404482
0.405954
0.405269
0.403687
0.385951
0.388519
0.404542
0.42071
0.436248
0.445884
0.453311
0.460182
0.466887
0.473102
0.479906
0.491488
0.510196
0.52307
0.524234
0.517836
0.508252
0.498829
0.490737
0.483462
0.475922
0.466992
0.455957
0.442876
0.425877
0.410748
0.402207
0.405709
0.403538
0.4068
0.386329
0.399507
0.420126
0.434832
0.445304
0.452812
0.459457
0.465934
0.472139
0.478087
0.48547
0.497414
0.513525
0.522452
0.522884
0.519574
0.512545
0.504035
0.496236
0.489032
0.481431
0.47302
0.464202
0.453609
0.438374
0.422222
0.406074
0.405199
0.404906
0.40849
0.395722
0.415978
0.43377
0.444346
0.452258
0.458957
0.465155
0.471186
0.476821
0.483177
0.491265
0.503123
0.51619
0.52174
0.521668
0.520412
0.516137
0.508834
0.501376
0.494339
0.487005
0.478883
0.4714
0.462469
0.44992
0.43484
0.417751
0.407808
0.406025
0.411395
0.408813
0.431173
0.443235
0.451324
0.458389
0.464328
0.470019
0.475583
0.481184
0.488423
0.49704
0.508367
0.518262
0.521078
0.521103
0.521345
0.519029
0.513093
0.505993
0.499059
0.491844
0.483846
0.476818
0.469042
0.458364
0.445673
0.430326
0.417358
0.409894
0.415465
0.422323
0.441005
0.45022
0.457472
0.463475
0.468501
0.473486
0.478861
0.485098
0.493481
0.502672
0.513073
0.520045
0.52121
0.521211
0.521882
0.521416
0.516983
0.510204
0.503217
0.495783
0.487502
0.480337
0.473717
0.464925
0.453887
0.440945
0.42869
0.41794
0.420633
0.434155
0.448412
0.456379
0.462609
0.467291
0.471461
0.475988
0.481979
0.48913
0.498267
0.507931
0.517114
0.52153
0.521921
0.522108
0.522947
0.523445
0.520531
0.514266
0.507069
0.499205
0.490596
0.483273
0.476752
0.469712
0.460603
0.449237
0.438465
0.427451
0.427739
0.4432
0.455144
0.461713
0.466225
0.469878
0.473431
0.478211
0.48561
0.493395
0.502651
0.512398
0.520348
0.522936
0.523081
0.523389
0.524193
0.525329
0.523625
0.518017
0.510508
0.501985
0.493395
0.486033
0.478933
0.472972
0.46616
0.455926
0.446367
0.438213
0.436513
0.450512
0.460849
0.465467
0.468715
0.471721
0.475081
0.481151
0.489498
0.497384
0.506265
0.51539
0.522324
0.52421
0.524232
0.524694
0.525936
0.527067
0.526117
0.521078
0.513086
0.503494
0.495974
0.488314
0.480804
0.475081
0.47
0.462402
0.453645
0.447514
0.444956
0.456505
0.464318
0.468373
0.470918
0.473384
0.477489
0.484978
0.493343
0.50156
0.508978
0.51671
0.523079
0.525731
0.526606
0.527091
0.528261
0.528949
0.52792
0.523283
0.514596
0.504268
0.498271
0.490835
0.482852
0.476216
0.471886
0.467059
0.460442
0.454342
0.450935
0.461029
0.467174
0.471053
0.472721
0.475048
0.480713
0.488645
0.497893
0.50616
0.512367
0.517754
0.523944
0.528081
0.529772
0.530549
0.531156
0.531442
0.530015
0.525255
0.515802
0.506422
0.500905
0.493711
0.485177
0.477566
0.472192
0.468538
0.465027
0.459462
0.45484
0.464752
0.470306
0.473524
0.474003
0.477715
0.484343
0.493392
0.502746
0.510834
0.516463
0.520482
0.526129
0.531171
0.533431
0.534244
0.534451
0.534384
0.532727
0.527843
0.518315
0.510083
0.504003
0.496759
0.488004
0.480066
0.473801
0.468775
0.466797
0.462576
0.458147
0.467685
0.472012
0.475619
0.476571
0.482087
0.488139
0.498267
0.507551
0.516051
0.521228
0.524805
0.529463
0.534494
0.537016
0.537751
0.537788
0.537408
0.535444
0.530686
0.522486
0.515709
0.507932
0.499678
0.491126
0.482859
0.476854
0.471692
0.469753
0.462967
0.460196
0.469872
0.473222
0.481079
0.481891
0.487614
0.493904
0.502607
0.513175
0.521885
0.526591
0.529511
0.532913
0.537656
0.540263
0.540884
0.540832
0.540182
0.537986
0.533329
0.52669
0.520892
0.512023
0.502879
0.493969
0.485311
0.479879
0.475785
0.474441
0.465574
0.461305
0.471486
0.477906
0.488413
0.489349
0.492835
0.499062
0.508644
0.518556
0.525704
0.530221
0.533519
0.536356
0.540494
0.542909
0.543404
0.543211
0.542438
0.540125
0.535386
0.530144
0.524795
0.515196
0.505177
0.496316
0.487567
0.482685
0.479242
0.479706
0.470601
0.462639
0.475543
0.483811
0.494747
0.497022
0.499632
0.503791
0.513059
0.520845
0.52706
0.532688
0.536666
0.539398
0.542663
0.544737
0.545152
0.544976
0.544149
0.54184
0.537226
0.532998
0.527456
0.517519
0.506437
0.497482
0.489541
0.485476
0.48317
0.484986
0.475794
0.46742
0.481459
0.489692
0.500216
0.503678
0.505558
0.508296
0.515537
0.521266
0.528036
0.534403
0.5386
0.541073
0.543786
0.545487
0.545767
0.545761
0.545207
0.54314
0.538979
0.535332
0.529209
0.518537
0.50632
0.497
0.490044
0.487813
0.487543
0.489838
0.479938
0.472324
0.486757
0.495414
0.504098
0.504939
0.505666
0.510291
0.516366
0.521475
0.528498
0.534863
0.539093
0.541713
0.544022
0.545384
0.545494
0.545481
0.545191
0.543637
0.540449
0.537059
0.530178
0.518768
0.505258
0.495094
0.488571
0.487513
0.491056
0.493995
0.484647
0.476595
0.491941
0.500423
0.504852
0.502482
0.505185
0.510199
0.515778
0.521917
0.5281
0.532739
0.536813
0.53956
0.541385
0.542687
0.542952
0.543023
0.543038
0.542154
0.540616
0.537736
0.530683
0.518858
0.504584
0.492996
0.485822
0.48636
0.492476
0.495282
0.489032
0.480645
0.496797
0.50236
0.502222
0.500372
0.504535
0.51178
0.516939
0.52161
0.526424
0.530591
0.534346
0.537353
0.539463
0.540661
0.54062
0.540107
0.539556
0.538463
0.537497
0.53589
0.529749
0.518932
0.5046
0.491804
0.484507
0.485783
0.491294
0.494192
0.491204
0.484212
0.50028
0.500387
0.501664
0.499964
0.505848
0.5155
0.519095
0.522637
0.527059
0.531346
0.534474
0.537102
0.539171
0.540222
0.540138
0.539435
0.53892
0.537773
0.535766
0.532617
0.526837
0.518227
0.504137
0.490438
0.484783
0.486381
0.48922
0.493307
0.491067
0.487108
0.501377
0.500708
0.502976
0.502425
0.51061
0.519479
0.521662
0.525505
0.530398
0.534288
0.536755
0.538828
0.540827
0.541174
0.54056
0.539769
0.539063
0.538052
0.536746
0.534151
0.528762
0.519588
0.503934
0.489772
0.486265
0.487303
0.489374
0.493274
0.491674
0.488837
0.500834
0.502771
0.506716
0.507983
0.516439
0.522784
0.523691
0.526387
0.530722
0.535035
0.537759
0.539517
0.541716
0.54253
0.542334
0.541905
0.541363
0.540197
0.537848
0.534332
0.529003
0.520777
0.505549
0.491436
0.488507
0.489643
0.492259
0.495746
0.493458
0.490222
0.502101
0.506373
0.512152
0.51495
0.521533
0.525639
0.525615
0.527095
0.530258
0.534243
0.537039
0.538358
0.54038
0.541412
0.541493
0.541171
0.540427
0.538872
0.536216
0.532647
0.527952
0.520112
0.506016
0.493771
0.491568
0.492774
0.496658
0.5
0.496373
0.492409
0.504516
0.512162
0.517947
0.520736
0.525313
0.527793
0.52748
0.527872
0.529732
0.532818
0.535286
0.536415
0.537965
0.538951
0.539187
0.538893
0.538089
0.536428
0.533909
0.530653
0.526444
0.519558
0.506827
0.496586
0.495668
0.496436
0.500858
0.504784
0.501252
0.494632
0.508676
0.517853
0.522519
0.524282
0.527355
0.528678
0.527874
0.52758
0.528216
0.53025
0.532256
0.533698
0.534995
0.53596
0.536339
0.53611
0.535463
0.533829
0.53146
0.528404
0.524338
0.518635
0.507692
0.499681
0.499801
0.500315
0.504341
0.508878
0.506498
0.498755
0.513364
0.521762
0.525854
0.525898
0.527212
0.527161
0.526038
0.525414
0.525389
0.526714
0.528187
0.529805
0.531123
0.532201
0.532736
0.532645
0.532085
0.53024
0.527736
0.525291
0.521928
0.517362
0.507827
0.502064
0.502503
0.503693
0.507131
0.512417
0.510863
0.504221
0.516514
0.52435
0.528198
0.525736
0.524141
0.523063
0.522655
0.521998
0.521945
0.522725
0.523964
0.525744
0.527176
0.528504
0.528972
0.529039
0.528315
0.52604
0.523802
0.522149
0.519197
0.514947
0.506381
0.503495
0.503736
0.505381
0.509311
0.515487
0.514441
0.5089
0.518433
0.52615
0.529104
0.522948
0.519908
0.517941
0.518489
0.518318
0.51878
0.519533
0.521247
0.52349
0.525321
0.526564
0.526662
0.526265
0.525154
0.522992
0.52091
0.519271
0.516042
0.510769
0.504426
0.503919
0.504082
0.505952
0.509013
0.517802
0.517154
0.512501
0.519596
0.526213
0.526795
0.521777
0.516732
0.514161
0.514569
0.51509
0.516373
0.517654
0.519838
0.522196
0.524273
0.525567
0.525546
0.524881
0.52374
0.5216
0.519495
0.516967
0.512456
0.507384
0.503099
0.503236
0.504065
0.507072
0.510892
0.516538
0.518299
0.515155
0.51999
0.522159
0.524631
0.521427
0.51616
0.512197
0.511873
0.512483
0.514568
0.516463
0.518928
0.521205
0.523481
0.52463
0.524566
0.523902
0.522884
0.521217
0.519081
0.515677
0.510597
0.505752
0.502022
0.502581
0.504694
0.509468
0.513076
0.516247
0.515368
0.516498
0.518667
0.519005
0.522721
0.520503
0.517423
0.513107
0.511294
0.510834
0.513274
0.515534
0.518084
0.520306
0.522717
0.523704
0.523701
0.523083
0.522274
0.521029
0.518788
0.515399
0.509963
0.504873
0.501094
0.50316
0.507254
0.511628
0.51311
0.516078
0.513825
0.51525
0.516003
0.517027
0.521436
0.519284
0.517466
0.513971
0.512228
0.51103
0.51261
0.514787
0.517188
0.51947
0.521964
0.522858
0.522922
0.522442
0.521927
0.520859
0.518594
0.515337
0.509713
0.504418
0.501894
0.505397
0.509274
0.51173
0.512393
0.515576
0.512873
0.512506
0.513311
0.51582
0.520587
0.518356
0.517636
0.514173
0.512342
0.512012
0.512618
0.514272
0.516263
0.518731
0.521244
0.522113
0.522203
0.52205
0.521684
0.520638
0.518399
0.51508
0.509508
0.504801
0.503619
0.507601
0.510091
0.51158
0.51147
0.514987
0.512133
0.510821
0.511165
0.514692
0.520283
0.518593
0.518477
0.514825
0.512558
0.512177
0.512642
0.513947
0.51556
0.518053
0.520563
0.521445
0.521641
0.521811
0.521446
0.520371
0.518014
0.514627
0.509219
0.505354
0.505462
0.508959
0.511486
0.511951
0.51157
0.514779
0.511572
0.509764
0.508521
0.514833
0.521449
0.520387
0.520522
0.516438
0.513032
0.511564
0.512355
0.513573
0.514939
0.517363
0.519842
0.520832
0.521248
0.521556
0.521086
0.519909
0.517315
0.513866
0.508277
0.505655
0.506662
0.510578
0.513592
0.513343
0.513238
0.516294
0.511752
0.508103
0.50646
0.515689
0.522017
0.522184
0.521944
0.518296
0.513023
0.510433
0.510712
0.512002
0.513529
0.515851
0.518202
0.519384
0.520004
0.52024
0.519577
0.518268
0.515498
0.512038
0.506557
0.504712
0.507092
0.512014
0.514388
0.5151
0.515186
0.517279
0.513369
0.506397
0.499134
0.510195
0.515962
0.516529
0.516142
0.512146
0.506852
0.50294
0.502158
0.503423
0.50522
0.50749
0.509761
0.511056
0.511697
0.511753
0.51094
0.509551
0.506686
0.503263
0.498275
0.497248
0.501418
0.505555
0.507827
0.509931
0.510624
0.511533
0.508261
0.498367
0.471567
0.48351
0.489869
0.491043
0.490657
0.486508
0.482244
0.478615
0.476819
0.4773
0.479359
0.481617
0.483881
0.485127
0.485655
0.485614
0.484754
0.483319
0.480395
0.477047
0.472811
0.472966
0.477197
0.480088
0.482191
0.484667
0.485595
0.485812
0.481548
0.469844
0.455633
0.46671
0.474065
0.475823
0.475372
0.471743
0.468952
0.466594
0.46489
0.464636
0.466453
0.468751
0.470954
0.472053
0.472528
0.472438
0.471551
0.470071
0.46706
0.463994
0.46074
0.461243
0.46413
0.466352
0.467264
0.469012
0.469767
0.469734
0.463824
0.453084
0.446188
0.455465
0.462774
0.464425
0.463905
0.461347
0.46016
0.458575
0.457812
0.45751
0.458755
0.460767
0.462734
0.463794
0.464262
0.46415
0.463212
0.461598
0.458643
0.456211
0.453739
0.453728
0.455725
0.457147
0.45655
0.457195
0.457526
0.457759
0.450605
0.441449
0.438242
0.445629
0.45252
0.453519
0.453601
0.452346
0.452373
0.451413
0.451249
0.451584
0.452352
0.45376
0.455537
0.45661
0.457098
0.456951
0.455973
0.454196
0.451597
0.449843
0.447556
0.447094
0.448484
0.44909
0.447268
0.44665
0.445736
0.446021
0.438392
0.429654
0.429402
0.435312
0.442329
0.443285
0.444418
0.444392
0.444905
0.444618
0.444593
0.445649
0.446369
0.447263
0.448791
0.449837
0.450343
0.450155
0.449137
0.447308
0.44514
0.443884
0.441335
0.440775
0.441784
0.441577
0.43898
0.437041
0.434438
0.433256
0.425725
0.416925
0.417658
0.423638
0.431186
0.433657
0.436205
0.436824
0.437683
0.437995
0.437982
0.439389
0.440416
0.441074
0.44228
0.443274
0.44376
0.443531
0.44248
0.440691
0.438999
0.437802
0.435067
0.434581
0.435307
0.434138
0.430802
0.428109
0.423763
0.419902
0.412151
0.403242
0.403428
0.410425
0.419429
0.424777
0.428181
0.429248
0.430523
0.431303
0.431554
0.432928
0.434291
0.43491
0.435805
0.436737
0.437162
0.436895
0.435797
0.434115
0.432969
0.431397
0.428727
0.428366
0.428558
0.426412
0.422409
0.419231
0.413886
0.4071
0.39812
0.388983
0.388797
0.396024
0.408636
0.415722
0.419874
0.421251
0.423148
0.424628
0.425551
0.426629
0.427935
0.428673
0.429207
0.429993
0.430362
0.430046
0.428911
0.427433
0.426703
0.424735
0.422295
0.421984
0.421254
0.418207
0.413705
0.410168
0.404327
0.396262
0.384452
0.374852
0.37518
0.38398
0.398455
0.406409
0.411154
0.413025
0.415578
0.417763
0.419441
0.420511
0.421683
0.422453
0.42257
0.423024
0.423215
0.422795
0.42164
0.42048
0.419924
0.417818
0.415628
0.414979
0.413239
0.40955
0.404701
0.400562
0.394757
0.386724
0.373949
0.36218
0.364259
0.374127
0.388887
0.39667
0.402043
0.404191