/*--------------------------------*- C++ -*----------------------------------*\
| =========                 |                                                 |
| \\      /  F ield         | OpenFOAM: The Open Source CFD Toolbox           |
|  \\    /   O peration     | Version:  v1606+                                |
|   \\  /    A nd           | Web:      www.OpenFOAM.com                      |
|    \\/     M anipulation  |                                                 |
\*---------------------------------------------------------------------------*/
FoamFile
{
    version     2.0;
    format      ascii;
    class       volVectorField;
    location    "0.87";
    object      U.particles;
}
// * * * * * * * * * * * * * * * * * * * * * * * * * * * * * * * * * * * * * //

dimensions      [0 1 -1 0 0 0 0];

internalField   nonuniform List<vector> 
6000
(
(0.00969861 -0.39349 0)
(0.0336696 -0.41758 0)
(0.058446 -0.416856 0)
(0.0700824 -0.430602 0)
(0.0673587 -0.46222 0)
(0.0521645 -0.464343 0)
(0.03959 -0.461418 0)
(0.0387116 -0.465073 0)
(0.0452308 -0.443315 0)
(0.0550087 -0.450053 0)
(0.0506516 -0.477174 0)
(0.0396331 -0.475818 0)
(0.0330282 -0.461721 0)
(0.0269435 -0.464366 0)
(0.0178148 -0.465828 0)
(0.00812632 -0.469748 0)
(0.000682371 -0.470621 0)
(-0.00320167 -0.470991 0)
(-0.00940013 -0.480416 0)
(-0.0214968 -0.479587 0)
(-0.0292581 -0.45943 0)
(-0.0216697 -0.446651 0)
(-0.0155973 -0.463842 0)
(-0.0182816 -0.462513 0)
(-0.0357499 -0.470509 0)
(-0.0560824 -0.468852 0)
(-0.0603978 -0.432863 0)
(-0.0505893 -0.419335 0)
(-0.0291738 -0.423507 0)
(-0.00762626 -0.399742 0)
(0.0293466 -0.0210799 0)
(0.0406135 -0.0249234 0)
(0.0690808 -0.0261232 0)
(0.105169 -0.0123738 0)
(0.134116 0.0125765 0)
(0.147238 0.0278521 0)
(0.140595 0.0372527 0)
(0.122945 0.0672994 0)
(0.0765182 0.0853048 0)
(0.0568299 0.0896131 0)
(0.03627 0.0937841 0)
(0.0171642 0.0850495 0)
(0.00976704 0.0559513 0)
(0.010141 0.0299155 0)
(0.017536 0.011765 0)
(0.0246958 0.0187278 0)
(0.0275272 0.0425272 0)
(0.0256358 0.0702353 0)
(0.0180428 0.0904373 0)
(-0.00588385 0.0932978 0)
(-0.0314085 0.0969336 0)
(-0.0535894 0.0874509 0)
(-0.0982136 0.0600693 0)
(-0.119506 0.0314142 0)
(-0.128492 0.0212693 0)
(-0.118587 0.0142825 0)
(-0.0930817 -0.0081611 0)
(-0.0603928 -0.0205157 0)
(-0.0343254 -0.0181191 0)
(-0.0264107 -0.0161526 0)
(0.0380923 -0.0887187 0)
(0.0437161 -0.0939549 0)
(0.0648418 -0.102605 0)
(0.0917934 -0.106377 0)
(0.118183 -0.0953799 0)
(0.142989 -0.0700256 0)
(0.15082 -0.0466696 0)
(0.141206 -0.0227979 0)
(0.111899 -0.0210713 0)
(0.0670886 -0.0587313 0)
(0.0301352 -0.0977444 0)
(0.00854115 -0.132342 0)
(-0.00414951 -0.151343 0)
(0.000135318 -0.164625 0)
(0.0195143 -0.176488 0)
(0.0391055 -0.169386 0)
(0.0516139 -0.155795 0)
(0.0476023 -0.144245 0)
(0.0329605 -0.12395 0)
(0.0052323 -0.093248 0)
(-0.0375841 -0.0594879 0)
(-0.0825574 -0.0222394 0)
(-0.11634 -0.0237246 0)
(-0.130088 -0.0458634 0)
(-0.125607 -0.0669257 0)
(-0.103292 -0.0920009 0)
(-0.0791399 -0.100792 0)
(-0.0565844 -0.0965612 0)
(-0.0369634 -0.0857343 0)
(-0.0347244 -0.0775548 0)
(0.0376844 -0.0526562 0)
(0.0329598 -0.0354273 0)
(0.0264453 -0.0348659 0)
(0.0386922 -0.0412673 0)
(0.0645773 -0.0417486 0)
(0.102125 -0.030326 0)
(0.136551 -0.00724145 0)
(0.14767 -0.00861736 0)
(0.12643 -0.0180687 0)
(0.0624083 -0.0622806 0)
(0.0146903 -0.0949836 0)
(-0.0111057 -0.108387 0)
(-0.0170901 -0.133188 0)
(-0.00302802 -0.165739 0)
(0.021096 -0.175695 0)
(0.0458898 -0.1686 0)
(0.0694256 -0.144805 0)
(0.0746927 -0.117368 0)
(0.0564308 -0.0965218 0)
(0.0254634 -0.0888211 0)
(-0.0223382 -0.0586653 0)
(-0.0909159 -0.0189007 0)
(-0.119463 -0.00808993 0)
(-0.113827 -0.00636288 0)
(-0.085252 -0.0259437 0)
(-0.0512618 -0.0324755 0)
(-0.0288597 -0.030355 0)
(-0.0190726 -0.0221677 0)
(-0.0289609 -0.0183641 0)
(-0.0411329 -0.0364818 0)
(0.016778 -0.0224085 0)
(0.0123027 0.0019445 0)
(0.00718824 0.00405831 0)
(-0.00229599 -0.00941739 0)
(0.0189943 -0.0134305 0)
(0.0467483 -0.00118547 0)
(0.0960017 0.0156614 0)
(0.104724 0.0168569 0)
(0.0770593 -0.0137506 0)
(0.0220341 -0.060823 0)
(-0.0163772 -0.0921417 0)
(-0.0303956 -0.108398 0)
(-0.0199694 -0.133894 0)
(-0.000688911 -0.166886 0)
(0.0168734 -0.172169 0)
(0.0353431 -0.164839 0)
(0.0599469 -0.140891 0)
(0.0812246 -0.109357 0)
(0.0788093 -0.091621 0)
(0.0579391 -0.0852511 0)
(0.023922 -0.0557027 0)
(-0.0330662 -0.0131473 0)
(-0.0738714 0.020794 0)
(-0.0685337 0.0238387 0)
(-0.0283169 0.00987531 0)
(-0.00341201 0.00106215 0)
(0.016908 0.00879312 0)
(0.00243667 0.0301807 0)
(-0.0160004 0.029803 0)
(-0.0296259 -0.00556669 0)
(0.0043134 0.00480502 0)
(-0.00328406 0.0266536 0)
(-0.0116254 0.0397022 0)
(-0.0224036 0.0329568 0)
(-0.0204558 0.0289262 0)
(0.00309108 0.0335679 0)
(0.0392939 0.0412331 0)
(0.0602555 0.0413882 0)
(0.0144029 0.0172507 0)
(-0.00957135 -0.0331138 0)
(-0.0304416 -0.0517646 0)
(-0.033982 -0.0682677 0)
(-0.0212127 -0.101168 0)
(-0.00482437 -0.108401 0)
(0.0049385 -0.108068 0)
(0.0193744 -0.105693 0)
(0.0421598 -0.101328 0)
(0.0713539 -0.0754692 0)
(0.0840224 -0.0448487 0)
(0.0737595 -0.040412 0)
(0.0545016 -0.0227774 0)
(0.0247529 0.0212663 0)
(-0.025358 0.0531411 0)
(-0.0149329 0.0563268 0)
(0.0186222 0.04971 0)
(0.0417007 0.0505246 0)
(0.0417588 0.0670686 0)
(0.0126452 0.0800586 0)
(-0.000718818 0.058073 0)
(-0.0132018 0.020474 0)
(-0.0038657 0.0152866 0)
(-0.0200192 0.0419356 0)
(-0.0312872 0.0570244 0)
(-0.0406872 0.0605996 0)
(-0.0406724 0.0612848 0)
(-0.0332362 0.0796368 0)
(-0.00925113 0.0742584 0)
(0.0163697 0.0709642 0)
(-0.0152412 0.0681758 0)
(-0.0428466 0.0141425 0)
(-0.0234654 -0.0115634 0)
(-0.0279514 -0.0263179 0)
(-0.0169268 -0.0477765 0)
(-0.00907871 -0.05382 0)
(-0.0023628 -0.0545425 0)
(0.00912948 -0.0537419 0)
(0.0261333 -0.048251 0)
(0.0500258 -0.0307172 0)
(0.0723661 0.00238859 0)
(0.0744557 0.00484224 0)
(0.0728659 0.0266105 0)
(0.0585501 0.0752708 0)
(0.0206049 0.092261 0)
(0.0344191 0.096888 0)
(0.0604415 0.0993388 0)
(0.0692284 0.104644 0)
(0.0528765 0.113828 0)
(0.0348372 0.102843 0)
(0.0188617 0.0740813 0)
(0.000885981 0.0280433 0)
(-0.0109163 0.0212516 0)
(-0.0352068 0.0535381 0)
(-0.0516767 0.0683337 0)
(-0.0572238 0.068922 0)
(-0.0534661 0.0700047 0)
(-0.0492538 0.104177 0)
(-0.0294361 0.107619 0)
(-0.0151801 0.103259 0)
(-0.00260577 0.107225 0)
(-0.0315861 0.118569 0)
(-0.0287313 0.0393239 0)
(0.00118885 0.0221791 0)
(0.000761173 0.0148095 0)
(-0.00820787 0.0126204 0)
(-0.0134203 0.0094731 0)
(-0.0129979 0.004558 0)
(-0.0017409 0.00383942 0)
(0.0178764 0.0241117 0)
(0.0402911 0.0571873 0)
(0.0539504 0.0560269 0)
(0.0932735 0.107492 0)
(0.0687974 0.143515 0)
(0.0636615 0.143213 0)
(0.0749352 0.142519 0)
(0.0895277 0.148091 0)
(0.0804645 0.140508 0)
(0.0719717 0.130204 0)
(0.0599639 0.117563 0)
(0.0399769 0.0890248 0)
(0.0120575 0.036505 0)
(-0.0175282 0.0218266 0)
(-0.0443154 0.0656853 0)
(-0.0621256 0.0748252 0)
(-0.0617933 0.0696057 0)
(-0.0568818 0.0594389 0)
(-0.0500201 0.0945413 0)
(-0.0200454 0.119627 0)
(0.0015168 0.119704 0)
(0.0585116 0.109063 0)
(0.102761 0.11469 0)
(0.0385229 0.174108 0)
(0.00070111 0.12158 0)
(-0.00250836 0.0757937 0)
(-0.00829052 0.0683015 0)
(-0.0235334 0.0737478 0)
(-0.0352266 0.065242 0)
(-0.0382082 0.0612975 0)
(-0.027669 0.0813044 0)
(-0.0101693 0.118644 0)
(0.0543361 0.170106 0)
(0.0507029 0.213421 0)
(0.0342981 0.178513 0)
(0.0783736 0.183251 0)
(0.0916165 0.179903 0)
(0.0986096 0.173785 0)
(0.0924194 0.147268 0)
(0.0859124 0.135755 0)
(0.0761096 0.125102 0)
(0.0544261 0.100697 0)
(0.0184113 0.0383872 0)
(-0.0266291 -0.0159496 0)
(-0.00151618 -0.0410641 0)
(-0.0544661 0.0761557 0)
(-0.0470488 0.0681484 0)
(-0.0402366 0.0451649 0)
(-0.0244725 0.0474103 0)
(0.0326305 0.095826 0)
(0.111589 0.0689342 0)
(0.179055 0.043879 0)
(0.217854 0.0591476 0)
(0.254591 0.0951653 0)
(0.239269 0.158798 0)
(0.126947 0.222182 0)
(-0.0122035 0.193462 0)
(-0.0375677 0.144953 0)
(-0.0491797 0.126889 0)
(-0.0619211 0.12146 0)
(-0.065623 0.133675 0)
(-0.018579 0.180429 0)
(0.0175078 0.246169 0)
(-0.0133429 0.202665 0)
(0.0090754 0.201207 0)
(0.0504002 0.206023 0)
(0.0751859 0.199838 0)
(0.0901967 0.17584 0)
(0.09389 0.137197 0)
(0.0864896 0.131541 0)
(0.0820197 0.12798 0)
(0.0518333 0.100389 0)
(0.0193531 0.0293591 0)
(-0.031245 -0.129028 0)
(0.0341341 -0.151418 0)
(0.0429065 -0.111349 0)
(0.00803041 0.0202502 0)
(-7.44522e-05 0.00503796 0)
(0.0331699 0.0332447 0)
(0.109455 0.0121002 0)
(0.162913 0.00899054 0)
(0.191462 0.0278362 0)
(0.217588 0.0602018 0)
(0.243783 0.106378 0)
(0.253211 0.172269 0)
(0.235194 0.24826 0)
(0.186483 0.304433 0)
(0.032601 0.292283 0)
(-0.0439537 0.216426 0)
(-0.0614617 0.193543 0)
(-0.0668893 0.206908 0)
(-0.0385844 0.24636 0)
(-0.0507929 0.236324 0)
(-0.0404867 0.224143 0)
(-0.0239872 0.217604 0)
(-0.00372553 0.216541 0)
(0.0250434 0.213852 0)
(0.0527142 0.169304 0)
(0.0781736 0.126804 0)
(0.0632309 0.124681 0)
(0.0338074 0.0799177 0)
(-0.0365553 -0.0627517 0)
(0.0450296 -0.0213671 0)
(-0.0212941 -0.0927033 0)
(0.0135242 -0.126213 0)
(0.0420277 -0.148366 0)
(0.0821414 -0.145685 0)
(0.094392 -0.115987 0)
(0.0861795 -0.0233802 0)
(0.123794 -0.0198291 0)
(0.152661 0.000144036 0)
(0.173545 0.0289325 0)
(0.18885 0.0679221 0)
(0.197089 0.119113 0)
(0.195009 0.182007 0)
(0.181972 0.253897 0)
(0.165 0.315824 0)
(0.13104 0.360813 0)
(0.0427716 0.346814 0)
(-0.0324234 0.306417 0)
(-0.0622852 0.290618 0)
(-0.0674902 0.278636 0)
(-0.0628707 0.257457 0)
(-0.0528039 0.240233 0)
(-0.0428344 0.228852 0)
(-0.0325023 0.222145 0)
(-0.0164295 0.219318 0)
(0.0100172 0.181046 0)
(0.00177807 0.0767437 0)
(-0.0576294 0.0182281 0)
(-0.0784201 -0.062925 0)
(-0.0426938 -0.0808553 0)
(0.0265158 -0.0722708 0)
(-0.00489669 -0.0407169 0)
(-0.0069253 -0.0790832 0)
(0.015324 -0.114183 0)
(0.0495913 -0.136309 0)
(0.108186 -0.132597 0)
(0.0862163 -0.0480811 0)
(0.113008 -0.020655 0)
(0.134687 0.0027225 0)
(0.150287 0.0338219 0)
(0.159954 0.0750591 0)
(0.16051 0.127463 0)
(0.150691 0.190067 0)
(0.123284 0.271511 0)
(0.100116 0.339286 0)
(0.0841815 0.373266 0)
(0.0585836 0.379896 0)
(0.0164164 0.36218 0)
(-0.0299876 0.33411 0)
(-0.0479463 0.301764 0)
(-0.0502159 0.27396 0)
(-0.04935 0.252312 0)
(-0.047471 0.237188 0)
(-0.0437298 0.227861 0)
(-0.0378702 0.221509 0)
(-0.0260112 0.197054 0)
(-0.0950206 0.0435228 0)
(-0.117656 -0.0247166 0)
(-0.0730382 -0.0585658 0)
(-0.0290104 -0.0623291 0)
(0.0126334 -0.040135 0)
(-0.0020179 -0.00470299 0)
(-0.0129356 -0.0258242 0)
(-0.00517769 -0.0732566 0)
(0.0309823 -0.100718 0)
(0.0833019 -0.115979 0)
(0.0756469 -0.0363274 0)
(0.100727 -0.0147945 0)
(0.118269 0.00724771 0)
(0.131134 0.0360357 0)
(0.139863 0.0740304 0)
(0.134959 0.124737 0)
(0.120137 0.192727 0)
(0.0787442 0.33639 0)
(0.0803029 0.38711 0)
(0.0723074 0.389453 0)
(0.05685 0.383322 0)
(0.0319931 0.367338 0)
(0.00555801 0.342344 0)
(-0.0137553 0.313193 0)
(-0.0269857 0.284642 0)
(-0.0378481 0.260626 0)
(-0.0465136 0.243527 0)
(-0.0505109 0.233389 0)
(-0.050772 0.226499 0)
(-0.0455984 0.216888 0)
(-0.125265 0.069066 0)
(-0.105016 -0.00494762 0)
(-0.0584118 -0.0396919 0)
(-0.0179412 -0.0341306 0)
(0.00247047 -0.0158662 0)
(-0.00106426 0.00865828 0)
(-0.00862266 0.000367327 0)
(-0.00633127 -0.0407729 0)
(0.0233737 -0.0753993 0)
(0.0757418 -0.0787129 0)
(0.0789497 -0.0240414 0)
(0.0936548 -0.0078275 0)
(0.106138 0.0104635 0)
(0.116816 0.0343369 0)
(0.126319 0.0711023 0)
(0.132819 0.111394 0)
(0.199694 0.301393 0)
(0.184483 0.356053 0)
(0.141858 0.386417 0)
(0.11205 0.390242 0)
(0.0855246 0.384863 0)
(0.0580501 0.371589 0)
(0.0324531 0.350683 0)
(0.0119193 0.323015 0)
(-0.00576973 0.292532 0)
(-0.0257507 0.265524 0)
(-0.0473498 0.246536 0)
(-0.0616977 0.235982 0)
(-0.066671 0.230915 0)
(-0.0644178 0.231311 0)
(-0.143165 0.086811 0)
(-0.0893827 0.00516903 0)
(-0.0420873 -0.0214057 0)
(-0.0105906 -0.0198038 0)
(-0.00165733 -0.00514763 0)
(0.000375302 0.0129885 0)
(0.00131791 0.0054777 0)
(0.00643638 -0.0338614 0)
(0.0337434 -0.0656343 0)
(0.0784331 -0.0555926 0)
(0.0849347 -0.0219988 0)
(0.0898154 -0.00148074 0)
(0.0989883 0.0129139 0)
(0.106362 0.0246713 0)
(0.106573 0.056224 0)
(0.193969 0.0726416 0)
(0.217165 0.241552 0)
(0.216598 0.300047 0)
(0.187593 0.35374 0)
(0.158027 0.37771 0)
(0.120896 0.3815 0)
(0.0850364 0.372689 0)
(0.0560337 0.357114 0)
(0.0372323 0.330149 0)
(0.021261 0.295098 0)
(-0.00788511 0.26345 0)
(-0.0501725 0.243432 0)
(-0.0771072 0.234566 0)
(-0.0890146 0.228255 0)
(-0.0949526 0.225168 0)
(-0.149788 0.0814968 0)
(-0.0778912 0.00536313 0)
(-0.0306596 -0.0202122 0)
(-0.00912787 -0.0171382 0)
(-0.00177451 -0.00221579 0)
(0.00238345 0.00793668 0)
(0.0160619 0.00141321 0)
(0.0245859 -0.0405114 0)
(0.0458359 -0.0758663 0)
(0.0732747 -0.0577355 0)
(0.0812515 -0.022561 0)
(0.0883009 0.00361001 0)
(0.0994637 0.0156586 0)
(0.109104 0.00827244 0)
(0.110782 -0.0156966 0)
(0.172136 -0.192908 0)
(0.233374 0.115635 0)
(0.221008 0.24361 0)
(0.212823 0.330867 0)
(0.211085 0.363305 0)
(0.176717 0.372523 0)
(0.11439 0.375034 0)
(0.0670961 0.365563 0)
(0.0640722 0.336253 0)
(0.0674297 0.290469 0)
(0.036662 0.25539 0)
(-0.0694708 0.240972 0)
(-0.0973484 0.230031 0)
(-0.114471 0.21353 0)
(-0.127734 0.194405 0)
(-0.148333 0.0401672 0)
(-0.0677466 -0.0117211 0)
(-0.0273419 -0.0299663 0)
(-0.00912455 -0.0202524 0)
(-0.00149841 -0.0031681 0)
(0.0029095 -0.00574468 0)
(0.0258955 -0.0267636 0)
(0.0332099 -0.0551953 0)
(0.0447124 -0.0753316 0)
(0.0599218 -0.0586797 0)
(0.0713918 -0.0241849 0)
(0.0867425 0.00475778 0)
(0.109046 0.020716 0)
(0.130282 0.000977609 0)
(0.138887 -0.061056 0)
(0.134997 -0.199917 0)
(0.213826 -0.268736 0)
(0.201671 0.0658965 0)
(0.279132 0.236341 0)
(0.361927 0.292525 0)
(0.390309 0.305292 0)
(0.288616 0.30238 0)
(0.0722373 0.363232 0)
(0.10018 0.340312 0)
(0.127356 0.283245 0)
(0.133331 0.2339 0)
(-0.0767219 0.187373 0)
(-0.11733 0.219686 0)
(-0.137074 0.170359 0)
(-0.199833 0.0300008 0)
(-0.131701 -0.0198043 0)
(-0.0590672 -0.0397381 0)
(-0.0259116 -0.043059 0)
(-0.0100293 -0.0277228 0)
(-0.00132126 -0.00668782 0)
(-0.0114553 -0.112571 0)
(-0.0145869 -0.275646 0)
(0.00939914 -0.140351 0)
(0.0349945 -0.112819 0)
(0.036827 -0.0627091 0)
(0.0532591 -0.0266372 0)
(0.0796521 -0.000110559 0)
(0.11847 0.0181937 0)
(0.169462 0.00187196 0)
(0.195342 -0.10302 0)
(0.180925 -0.260799 0)
(0.188338 -0.413483 0)
(0.227103 -0.362752 0)
(0.339235 -0.217863 0)
(0.459161 0.00507124 0)
(0.494677 0.176217 0)
(0.469715 0.273253 0)
(0.304908 0.29986 0)
(0.145482 0.291927 0)
(0.187902 0.252291 0)
(0.17672 0.208681 0)
(0.046236 0.180502 0)
(-0.154931 -0.0204759 0)
(-0.175128 -0.0116824 0)
(-0.199538 -0.104849 0)
(-0.115214 -0.0653825 0)
(-0.0523012 -0.0679991 0)
(-0.0257606 -0.0580072 0)
(-0.0111612 -0.0378865 0)
(-0.00137126 -0.0116879 0)
(-0.0793171 -0.127684 0)
(-0.0447369 -0.221539 0)
(-0.0353604 -0.318014 0)
(-0.0370332 -0.327408 0)
(-0.0182479 -0.123094 0)
(0.0152445 -0.0843957 0)
(0.0555449 -0.0722705 0)
(0.112395 -0.079375 0)
(0.224943 -0.0605899 0)
(0.276883 -0.162874 0)
(0.226395 -0.417159 0)
(0.205001 -0.527245 0)
(0.186787 -0.525464 0)
(0.197176 -0.44751 0)
(0.317802 -0.167536 0)
(0.432133 0.108314 0)
(0.490262 0.289433 0)
(0.474591 0.324046 0)
(0.394074 0.240615 0)
(0.312008 0.12582 0)
(0.258251 0.20091 0)
(0.126917 0.24933 0)
(-0.0907687 -0.00979772 0)
(-0.162728 -0.121547 0)
(-0.162495 -0.145991 0)
(-0.0939224 -0.101021 0)
(-0.0477571 -0.0910588 0)
(-0.0269144 -0.0733165 0)
(-0.0128357 -0.0496492 0)
(-0.00194072 -0.0173475 0)
(-0.0674358 -0.0453986 0)
(-0.0726119 -0.132535 0)
(-0.0903211 -0.204993 0)
(-0.0977398 -0.287937 0)
(-0.0829275 -0.371202 0)
(-0.0467412 -0.399894 0)
(-0.00514613 -0.425491 0)
(0.038507 -0.457536 0)
(0.0994366 -0.47154 0)
(0.164361 -0.479446 0)
(0.178338 -0.547037 0)
(0.190208 -0.587654 0)
(0.167285 -0.608053 0)
(0.137381 -0.578566 0)
(0.178175 -0.389506 0)
(0.305286 -0.0150559 0)
(0.4383 0.266136 0)
(0.473581 0.327204 0)
(0.414968 0.237439 0)
(0.307895 0.12577 0)
(0.251309 0.211576 0)
(0.113734 0.287874 0)
(0.00368429 0.147136 0)
(-0.115697 -0.0916062 0)
(-0.125429 -0.153177 0)
(-0.076635 -0.121109 0)
(-0.0468129 -0.10741 0)
(-0.0298022 -0.0874004 0)
(-0.0160753 -0.0621704 0)
(-0.00360771 -0.0240428 0)
(-0.0147256 -0.028927 0)
(-0.0423119 -0.0746634 0)
(-0.120274 -0.168556 0)
(-0.118467 -0.251498 0)
(-0.121967 -0.321137 0)
(-0.100923 -0.379471 0)
(-0.0766939 -0.415372 0)
(-0.0455498 -0.447258 0)
(0.000850597 -0.476846 0)
(0.0628263 -0.51743 0)
(0.102404 -0.562264 0)
(0.120368 -0.604607 0)
(0.132921 -0.636447 0)
(0.131407 -0.623828 0)
(0.158738 -0.557209 0)
(0.22546 -0.297233 0)
(0.352983 0.110793 0)
(0.414894 0.272301 0)
(0.36716 0.187879 0)
(0.251506 0.113062 0)
(0.202702 0.236221 0)
(0.0821241 0.341399 0)
(0.043365 0.249999 0)
(-0.0852242 -0.0547815 0)
(-0.0925776 -0.13872 0)
(-0.0663122 -0.126655 0)
(-0.0472818 -0.117405 0)
(-0.0331159 -0.10051 0)
(-0.0210375 -0.076856 0)
(-0.00904081 -0.0310529 0)
(-0.00752634 -0.0193927 0)
(-0.0375824 -0.0744506 0)
(-0.0597147 -0.144931 0)
(-0.0721279 -0.211614 0)
(-0.0935995 -0.278134 0)
(-0.102492 -0.343447 0)
(-0.0989522 -0.402277 0)
(-0.0856689 -0.455065 0)
(-0.0515859 -0.495972 0)
(-0.017152 -0.51123 0)
(0.0320231 -0.535726 0)
(0.0686464 -0.569788 0)
(0.0853654 -0.615343 0)
(0.103442 -0.626846 0)
(0.124273 -0.593883 0)
(0.208374 -0.46682 0)
(0.332488 -0.132032 0)
(0.394292 0.116296 0)
(0.374999 0.0795512 0)
(0.251679 0.0563419 0)
(0.168213 0.229628 0)
(0.0939224 0.418024 0)
(0.102515 0.424263 0)
(0.0563741 0.120434 0)
(-0.0608237 -0.107147 0)
(-0.0565965 -0.12062 0)
(-0.0434551 -0.122864 0)
(-0.0317825 -0.116511 0)
(-0.0247588 -0.101171 0)
(-0.0175732 -0.0493407 0)
(0.000937609 -0.0115428 0)
(-0.0135209 -0.0673932 0)
(-0.0230543 -0.134256 0)
(-0.0349705 -0.199768 0)
(-0.0467339 -0.266216 0)
(-0.0559543 -0.331912 0)
(-0.0605521 -0.390181 0)
(-0.0615101 -0.439579 0)
(-0.0589682 -0.479707 0)
(-0.0530999 -0.512988 0)
(-0.0281013 -0.545019 0)
(0.016357 -0.555229 0)
(0.0506603 -0.579976 0)
(0.072127 -0.606745 0)
(0.0946301 -0.593194 0)
(0.134913 -0.52845 0)
(0.265478 -0.333518 0)
(0.418873 -0.0742041 0)
(0.453577 -0.00635239 0)
(0.334959 -0.012027 0)
(0.177435 0.196432 0)
(0.115113 0.415864 0)
(0.164565 0.496094 0)
(0.203386 0.259722 0)
(-0.0212888 -0.096289 0)
(-0.0448651 -0.114212 0)
(-0.0310952 -0.127949 0)
(-0.0183721 -0.137928 0)
(-0.00269674 -0.137236 0)
(0.0044882 -0.18578 0)
(0.0487042 0.0303897 0)
(0.0364358 -0.0448449 0)
(0.0252472 -0.120564 0)
(0.0125834 -0.187889 0)
(-0.00024162 -0.255725 0)
(-0.014125 -0.322011 0)
(-0.027857 -0.380609 0)
(-0.0385357 -0.429577 0)
(-0.043525 -0.470487 0)
(-0.0449411 -0.505361 0)
(-0.0411729 -0.535477 0)
(-0.028133 -0.56004 0)
(0.00504014 -0.569827 0)
(0.0347897 -0.584823 0)
(0.0709914 -0.587923 0)
(0.0941405 -0.549069 0)
(0.172016 -0.424588 0)
(0.329245 -0.274406 0)
(0.484692 -0.0624947 0)
(0.462336 -0.0200648 0)
(0.261291 0.131479 0)
(0.166981 0.404794 0)
(0.239773 0.521818 0)
(0.300028 0.410739 0)
(0.235933 0.0304704 0)
(-0.0218981 -0.11689 0)
(-0.0139723 -0.136183 0)
(-0.00457501 -0.162976 0)
(0.0243139 -0.164041 0)
(-0.00122041 -0.345983 0)
(0.0235779 -0.0356613 0)
(0.0806379 -0.0429147 0)
(0.0900148 -0.0997135 0)
(0.0768542 -0.169876 0)
(0.0604257 -0.241191 0)
(0.030868 -0.313037 0)
(-0.00165206 -0.377702 0)
(-0.0203127 -0.424592 0)
(-0.0310886 -0.465647 0)
(-0.0373547 -0.501022 0)
(-0.0379121 -0.531069 0)
(-0.0334742 -0.556196 0)
(-0.0209711 -0.574932 0)
(0.00737372 -0.577391 0)
(0.0356519 -0.573399 0)
(0.0660047 -0.545412 0)
(0.136365 -0.455231 0)
(0.237878 -0.373853 0)
(0.391191 -0.251793 0)
(0.54278 -0.0471373 0)
(0.450584 0.0850343 0)
(0.25548 0.365931 0)
(0.310797 0.52753 0)
(0.363186 0.483422 0)
(0.341994 0.210546 0)
(0.0857711 -0.165609 0)
(0.00663026 -0.164209 0)
(0.0168561 -0.196744 0)
(0.00295291 -0.295165 0)
(-0.0132208 -0.349233 0)
(-0.0448106 -0.0710561 0)
(0.0514206 -0.10086 0)
(0.0671721 -0.131443 0)
(0.0963883 -0.161233 0)
(0.100249 -0.217698 0)
(0.0808196 -0.284499 0)
(0.0416127 -0.360682 0)
(-0.00548334 -0.426998 0)
(-0.0265011 -0.466361 0)
(-0.0336712 -0.500617 0)
(-0.0361833 -0.530453 0)
(-0.0338776 -0.555709 0)
(-0.0266757 -0.575379 0)
(-0.0118273 -0.586354 0)
(0.0159349 -0.574757 0)
(0.0468574 -0.540669 0)
(0.093454 -0.465385 0)
(0.204226 -0.453844 0)
(0.307065 -0.392229 0)
(0.446447 -0.316444 0)
(0.644278 -0.0586144 0)
(0.442449 0.290109 0)
(0.367481 0.467816 0)
(0.38386 0.46517 0)
(0.390468 0.328796 0)
(0.253003 0.00331831 0)
(0.00112611 -0.267016 0)
(0.0169115 -0.259839 0)
(-0.0485073 -0.392416 0)
(-0.0168912 -0.350637 0)
(-0.0348277 -0.0344622 0)
(-0.00588765 -0.0889462 0)
(-0.00887622 -0.157465 0)
(-0.00315488 -0.201304 0)
(-0.00140411 -0.235172 0)
(0.018437 -0.265059 0)
(0.0229513 -0.317327 0)
(0.0114498 -0.403273 0)
(-0.024975 -0.470701 0)
(-0.0350732 -0.504308 0)
(-0.0380785 -0.534297 0)
(-0.0352689 -0.558423 0)
(-0.0289733 -0.578101 0)
(-0.0183291 -0.590868 0)
(0.000703391 -0.590193 0)
(0.0345377 -0.549888 0)
(0.069476 -0.455162 0)
(0.147091 -0.484583 0)
(0.293689 -0.45972 0)
(0.368395 -0.338738 0)
(0.561841 -0.251574 0)
(0.643413 0.0781528 0)
(0.526821 0.410561 0)
(0.456643 0.448605 0)
(0.448139 0.38112 0)
(0.335865 0.158319 0)
(0.0748432 -0.194242 0)
(-0.0435757 -0.371458 0)
(-0.0423229 -0.399585 0)
(-0.019222 -0.360696 0)
(-0.00713405 -0.0220253 0)
(-0.012077 -0.0588875 0)
(-0.0388543 -0.108284 0)
(-0.0416213 -0.176375 0)
(-0.048033 -0.227756 0)
(-0.0523789 -0.269504 0)
(-0.0593312 -0.312968 0)
(-0.0437032 -0.36617 0)
(-0.0403904 -0.465299 0)
(-0.0437979 -0.515765 0)
(-0.043164 -0.540289 0)
(-0.0380152 -0.564082 0)
(-0.0309905 -0.583037 0)
(-0.021341 -0.596483 0)
(-0.00637384 -0.60037 0)
(0.0211099 -0.573692 0)
(0.0500273 -0.4613 0)
(0.119828 -0.528425 0)
(0.22731 -0.483279 0)
(0.352853 -0.346964 0)
(0.422732 -0.224062 0)
(0.590524 -0.126302 0)
(0.647324 0.174575 0)
(0.634982 0.34323 0)
(0.571292 0.371557 0)
(0.449535 0.286082 0)
(0.143624 -0.0638616 0)
(-0.0175013 -0.33287 0)
(-0.0359986 -0.402625 0)
(-0.0214672 -0.383151 0)
(-0.0018859 -0.0170101 0)
(-0.00777856 -0.0517249 0)
(-0.0150865 -0.0856231 0)
(-0.0331063 -0.13113 0)
(-0.0565046 -0.180243 0)
(-0.0692209 -0.23188 0)
(-0.0780596 -0.290359 0)
(-0.0765793 -0.354705 0)
(-0.0783098 -0.436484 0)
(-0.0634104 -0.529313 0)
(-0.0434224 -0.55067 0)
(-0.0402555 -0.571235 0)
(-0.0328188 -0.589266 0)
(-0.0235485 -0.603087 0)
(-0.0108829 -0.609009 0)
(0.00792975 -0.591391 0)
(0.0381855 -0.502514 0)
(0.116682 -0.611722 0)
(0.175486 -0.528648 0)
(0.270188 -0.389848 0)
(0.381352 -0.199489 0)
(0.428142 -0.113377 0)
(0.583324 0.00233408 0)
(0.668099 0.166578 0)
(0.632064 0.318009 0)
(0.513256 0.346677 0)
(0.260961 0.109745 0)
(0.020477 -0.27522 0)
(-0.0270205 -0.408214 0)
(-0.0250996 -0.416816 0)
(0.00354353 -0.0128194 0)
(0.00031365 -0.0483195 0)
(-0.00329204 -0.0826026 0)
(-0.0105832 -0.12089 0)
(-0.0218997 -0.163732 0)
(-0.035112 -0.209669 0)
(-0.0506112 -0.257206 0)
(-0.0727209 -0.310503 0)
(-0.0865146 -0.380698 0)
(-0.0858086 -0.493661 0)
(-0.0520474 -0.570684 0)
(-0.0435358 -0.581282 0)
(-0.035928 -0.598809 0)
(-0.0260682 -0.611217 0)
(-0.014382 -0.617984 0)
(-0.000260811 -0.609371 0)
(0.032501 -0.558926 0)
(0.0913633 -0.770933 0)
(0.123506 -0.640321 0)
(0.154787 -0.43155 0)
(0.277995 -0.273711 0)
(0.31832 -0.0922782 0)
(0.406412 -0.0403242 0)
(0.566068 0.0830831 0)
(0.608384 0.294284 0)
(0.507904 0.378207 0)
(0.329827 0.220161 0)
(0.0730902 -0.22946 0)
(-0.00065949 -0.417276 0)
(-0.0228283 -0.454562 0)
(0.010039 -0.0110288 0)
(0.0140922 -0.0470746 0)
(0.0187036 -0.0767942 0)
(0.0160449 -0.111081 0)
(0.00625303 -0.152089 0)
(-0.00764947 -0.197452 0)
(-0.0256734 -0.247531 0)
(-0.0428939 -0.300709 0)
(-0.0622538 -0.356248 0)
(-0.100083 -0.44358 0)
(-0.0666244 -0.581106 0)
(-0.0490527 -0.596579 0)
(-0.0399573 -0.610216 0)
(-0.0288553 -0.620489 0)
(-0.016996 -0.627858 0)
(-0.00391063 -0.625897 0)
(0.0288835 -0.605687 0)
(0.066515 -0.838286 0)
(0.00572668 -0.760147 0)
(0.0400681 -0.487318 0)
(0.141714 -0.291333 0)
(0.214439 -0.0978769 0)
(0.261173 -0.0122237 0)
(0.424758 0.0745258 0)
(0.547982 0.293883 0)
(0.486631 0.389342 0)
(0.38295 0.307832 0)
(0.165721 -0.112099 0)
(0.0637499 -0.38188 0)
(-0.00469832 -0.469557 0)
(0.0199746 -0.0176553 0)
(0.0328611 -0.0510943 0)
(0.0426835 -0.0756121 0)
(0.0460281 -0.102919 0)
(0.0406205 -0.14025 0)
(0.0278629 -0.185524 0)
(0.00891114 -0.239103 0)
(-0.0173955 -0.297276 0)
(-0.0480444 -0.357946 0)
(-0.0712153 -0.433687 0)
(-0.0777223 -0.543966 0)
(-0.0522724 -0.610691 0)
(-0.0437736 -0.62256 0)
(-0.0317085 -0.631252 0)
(-0.0194365 -0.638232 0)
(-0.00683915 -0.639364 0)
(0.0173454 -0.637492 0)
(0.0475539 -0.84837 0)
(-0.101866 -0.796641 0)
(-0.00956863 -0.503827 0)
(0.029234 -0.277978 0)
(0.117984 -0.0735371 0)
(0.152162 0.0409468 0)
(0.317382 0.13752 0)
(0.472792 0.343452 0)
(0.463316 0.416116 0)
(0.406398 0.368666 0)
(0.254523 0.0547352 0)
(0.140535 -0.262159 0)
(0.0364058 -0.437868 0)
(0.0333199 -0.0549825 0)
(0.0497891 -0.0695865 0)
(0.0644781 -0.0860236 0)
(0.0799218 -0.104515 0)
(0.0920775 -0.131122 0)
(0.0787597 -0.170116 0)
(0.0478354 -0.227135 0)
(-0.00361013 -0.296335 0)
(-0.0301134 -0.358425 0)
(-0.0475939 -0.440107 0)
(-0.0644149 -0.536256 0)
(-0.0507714 -0.621282 0)
(-0.0464037 -0.635806 0)
(-0.0347364 -0.643473 0)
(-0.0226813 -0.64869 0)
(-0.01267 -0.649199 0)
(0.00149619 -0.658321 0)
(0.044086 -0.820254 0)
(-0.189166 -0.654673 0)
(-0.0365693 -0.446177 0)
(-0.048608 -0.233303 0)
(0.0403058 -0.0405511 0)
(0.069239 0.0719417 0)
(0.220752 0.173195 0)
(0.409046 0.370964 0)
(0.433253 0.43729 0)
(0.395371 0.411826 0)
(0.300599 0.171557 0)
(0.144946 -0.209935 0)
(0.0616807 -0.33967 0)
(0.0403871 -0.0975497 0)
(0.0586751 -0.0952232 0)
(0.0767528 -0.10581 0)
(0.0987815 -0.120763 0)
(0.122278 -0.146034 0)
(0.0416948 -0.273427 0)
(0.0777577 -0.405014 0)
(0.0585433 -0.329703 0)
(-0.0161776 -0.370967 0)
(-0.0366485 -0.456415 0)
(-0.0575498 -0.554973 0)
(-0.0518111 -0.637788 0)
(-0.0491299 -0.650589 0)
(-0.0383577 -0.657936 0)
(-0.0265813 -0.660877 0)
(-0.018853 -0.65968 0)
(0.00331384 -0.688378 0)
(0.0597172 -0.809189 0)
(-0.166972 -0.50509 0)
(-0.0365504 -0.353907 0)
(-0.0653281 -0.156585 0)
(-0.0122531 0.0241876 0)
(0.00490704 0.148429 0)
(0.156667 0.248148 0)
(0.332533 0.422026 0)
(0.38317 0.467429 0)
(0.35482 0.387625 0)
(0.0894571 -0.0257233 0)
(0.0662424 -0.221772 0)
(0.0329985 -0.248314 0)
(0.0310502 -0.136731 0)
(0.0587081 -0.122999 0)
(0.0803091 -0.128093 0)
(0.108601 -0.143701 0)
(0.0679461 -0.227178 0)
(0.108045 -0.37068 0)
(0.246933 -0.627117 0)
(0.213217 -0.975334 0)
(-0.0864986 -1.01409 0)
(-0.0482225 -0.592136 0)
(-0.0912447 -0.633502 0)
(-0.0660577 -0.671202 0)
(-0.0560563 -0.670344 0)
(-0.043006 -0.675326 0)
(-0.0308595 -0.677223 0)
(-0.0251209 -0.67626 0)
(0.0232464 -0.728328 0)
(0.0394113 -0.840914 0)
(-0.169433 -0.413949 0)
(-0.0301858 -0.317952 0)
(-0.0533279 -0.118832 0)
(-0.038479 0.0669615 0)
(-0.0214279 0.184105 0)
(0.10866 0.300436 0)
(0.302381 0.48461 0)
(0.231682 0.497468 0)
(0.0864636 0.109145 0)
(-0.0196869 -0.164941 0)
(0.00561746 -0.229677 0)
(-0.00229641 -0.235161 0)
(0.0155305 -0.161603 0)
(0.0498441 -0.156975 0)
(0.0772803 -0.149227 0)
(0.0793352 -0.190338 0)
(0.0640126 -0.295176 0)
(0.159185 -0.441346 0)
(0.126904 -0.863702 0)
(0.0348945 -1.1641 0)
(0.0119876 -1.27179 0)
(-0.0881304 -1.19607 0)
(-0.159633 -0.887601 0)
(-0.0812066 -0.693502 0)
(-0.0635202 -0.690084 0)
(-0.0463191 -0.693864 0)
(-0.0333131 -0.697676 0)
(-0.0314069 -0.702469 0)
(0.0259284 -0.77228 0)
(-0.118172 -0.917321 0)
(-0.200044 -0.31465 0)
(-0.0485341 -0.180266 0)
(-0.039489 -0.0617973 0)
(-0.0230517 0.109747 0)
(-0.0277411 0.233136 0)
(0.0808749 0.363674 0)
(0.215842 0.481115 0)
(-0.0801455 0.106951 0)
(-0.124586 -0.116213 0)
(-0.0210554 -0.192817 0)
(-0.0153273 -0.26127 0)
(-0.0200882 -0.31357 0)
(0.022043 -0.155926 0)
(0.0323642 -0.20073 0)
(0.0440842 -0.203476 0)
(0.0326054 -0.335059 0)
(0.152428 -0.36678 0)
(0.210846 -0.573308 0)
(0.0392185 -1.01354 0)
(0.0212294 -1.19989 0)
(0.0558219 -1.27819 0)
(0.033029 -1.27161 0)
(-0.0751511 -1.03087 0)
(-0.0778658 -0.702171 0)
(-0.0607654 -0.703285 0)
(-0.043637 -0.711379 0)
(-0.0290049 -0.719165 0)
(-0.0241138 -0.732266 0)
(0.0101462 -0.889802 0)
(-0.234679 -0.966813 0)
(-0.195511 -0.285776 0)
(-0.0923828 -0.110953 0)
(-0.0307099 -0.0465577 0)
(0.0132632 0.141965 0)
(-0.00570215 0.278568 0)
(0.0689281 0.379499 0)
(0.238229 0.523692 0)
(-0.00854358 0.195892 0)
(-0.112096 -0.0825523 0)
(-0.0294622 -0.210638 0)
(-0.00999624 -0.292786 0)
(-0.00312084 -0.352175 0)
(0.0379541 -0.224795 0)
(0.00996644 -0.251973 0)
(0.0429103 -0.357052 0)
(0.0781997 -0.516925 0)
(0.154639 -0.671726 0)
(0.0463981 -0.991515 0)
(4.71665e-05 -1.13224 0)
(0.022647 -1.20831 0)
(0.0602664 -1.27329 0)
(0.0367311 -1.32114 0)
(-0.0763021 -1.1016 0)
(-0.0699386 -0.719513 0)
(-0.0495328 -0.715393 0)
(-0.0353994 -0.728765 0)
(-0.0189322 -0.737824 0)
(-0.0102254 -0.753858 0)
(-0.00822785 -0.984269 0)
(-0.240536 -0.992052 0)
(-0.19362 -0.353877 0)
(-0.139261 -0.0912777 0)
(-0.00292758 -0.0527947 0)
(0.0396396 0.154184 0)
(0.0278116 0.295806 0)
(0.075245 0.390707 0)
(0.25107 0.549776 0)
(0.136752 0.38388 0)
(-0.0272785 0.051118 0)
(-0.0105494 -0.212876 0)
(-0.00739864 -0.326255 0)
(-0.0176135 -0.400079 0)
(-0.00666355 -0.205688 0)
(0.0889758 -0.534563 0)
(0.0282923 -0.857793 0)
(-0.0223011 -0.968695 0)
(-0.0316827 -1.02163 0)
(-0.0213682 -1.08308 0)
(-0.000418144 -1.14582 0)
(0.0315696 -1.20824 0)
(0.0643351 -1.27055 0)
(0.0761956 -1.33468 0)
(-0.0363454 -1.19132 0)
(-0.0854803 -0.812066 0)
(-0.0358744 -0.739201 0)
(-0.0281257 -0.748729 0)
(-0.0105451 -0.753187 0)
(-0.00151412 -0.763886 0)
(-0.00861351 -1.00509 0)
(-0.223521 -1.02846 0)
(-0.21875 -0.465302 0)
(-0.149313 -0.0445198 0)
(0.0274872 -0.0353315 0)
(0.0541825 0.146565 0)
(0.0664083 0.311267 0)
(0.0917576 0.398492 0)
(0.257178 0.551409 0)
(0.212937 0.456462 0)
(0.0152056 0.0838251 0)
(0.0249529 -0.176536 0)
(-0.0037691 -0.337355 0)
(-0.0329497 -0.417587 0)
(0.0114009 -0.193233 0)
(0.00203833 -0.718533 0)
(-0.0149364 -0.907492 0)
(-0.0319988 -0.975389 0)
(-0.0320206 -1.02784 0)
(-0.0165808 -1.08553 0)
(0.0129353 -1.14255 0)
(0.0366272 -1.20306 0)
(0.071645 -1.26707 0)
(0.0859692 -1.34406 0)
(-0.038123 -1.23765 0)