/*--------------------------------*- C++ -*----------------------------------*\
| =========                 |                                                 |
| \\      /  F ield         | OpenFOAM: The Open Source CFD Toolbox           |
|  \\    /   O peration     | Version:  v1606+                                |
|   \\  /    A nd           | Web:      www.OpenFOAM.com                      |
|    \\/     M anipulation  |                                                 |
\*---------------------------------------------------------------------------*/
FoamFile
{
    version     2.0;
    format      ascii;
    class       volScalarField;
    location    "1.5";
    object      p;
}
// * * * * * * * * * * * * * * * * * * * * * * * * * * * * * * * * * * * * * //

dimensions      [0 2 -2 0 0 0 0];

internalField   nonuniform List<scalar> 
768
(
0.0100699
0.00794998
0.00627107
0.00458599
0.00250777
0.000290448
-0.0016368
-0.00295681
-0.00352643
-0.00339894
-0.00267456
-0.00113159
0.00968118
0.00796433
0.00635694
0.00471841
0.00287605
0.000976648
-0.00069065
-0.00188577
-0.0024795
-0.0024605
-0.0018586
-0.000548203
0.0092897
0.00783916
0.00635548
0.00481624
0.00316699
0.00150732
5.07931e-05
-0.00102481
-0.00161658
-0.00167806
-0.00115786
-0.000209527
0.00891025
0.00766049
0.00631359
0.00489927
0.00342089
0.00194238
0.000648612
-0.000325219
-0.000898868
-0.00103823
-0.000638314
1.23953e-05
-0.000100345
0.00112774
0.00285021
0.00497535
0.00701728
0.00871918
0.0101051
0.0112233
0.0120584
0.0125383
0.0124962
0.0118045
0.000603679
0.00185874
0.00344386
0.00534186
0.00715414
0.00866225
0.00988454
0.0108511
0.0115405
0.01188
0.0117561
0.011061
0.00105333
0.00250266
0.00406681
0.00570036
0.00722973
0.00852572
0.00958773
0.010418
0.0109858
0.0112324
0.0110733
0.01043
0.00148946
0.00303758
0.00457941
0.00594628
0.00722761
0.00834652
0.00927546
0.00999453
0.0104678
0.0106459
0.0104652
0.00987938
0.0100452
0.00795201
0.00627709
0.00457798
0.00249727
0.000281484
-0.00164138
-0.00295722
-0.00352581
-0.00340288
-0.00268979
-0.00117103
0.00966814
0.00796563
0.006358
0.00470907
0.00286458
0.000965774
-0.000698697
-0.00189105
-0.00248441
-0.00246872
-0.00187572
-0.0005841
0.00927533
0.00783708
0.00635234
0.00480657
0.00315538
0.00149578
4.09871e-05
-0.00103264
-0.00162476
-0.00168918
-0.00117681
-0.000241434
0.00889457
0.00765282
0.00630705
0.00488921
0.00340913
0.00193042
0.000637203
-0.000334823
-0.000909186
-0.00105124
-0.000657672
-1.68315e-05
-7.24999e-05
0.00115305
0.00287848
0.00500173
0.00703467
0.00873024
0.0101141
0.0112328
0.0120725
0.0125604
0.0125168
0.011831
0.000631823
0.00188559
0.00347311
0.00536799
0.00717148
0.00867338
0.00989341
0.0108605
0.0115538
0.0119
0.0117792
0.0110834
0.00108175
0.00252862
0.00409408
0.00572374
0.00724568
0.00853645
0.0095964
0.0104269
0.0109968
0.0112473
0.0110924
0.0104523
0.00152018
0.00306137
0.00460207
0.0059659
0.00724232
0.00835715
0.00928427
0.0100033
0.0104779
0.0106581
0.0104794
0.00989652
0.00856167
0.00746786
0.00625235
0.00496524
0.00364416
0.00229426
0.00115417
0.000260577
-0.00029961
-0.000467364
-0.000182098
0.000278475
0.00825882
0.00728576
0.00618667
0.00501506
0.00380645
0.00261932
0.00158654
0.000769181
0.000243005
6.71645e-05
0.000255437
0.000580911
0.00800144
0.0071237
0.00612333
0.00505343
0.00394564
0.00288364
0.00194952
0.00120703
0.000725397
0.00052848
0.000621988
0.000822572
0.00778571
0.00698387
0.0060653
0.00508062
0.00406013
0.00309433
0.00224147
0.00155983
0.00110488
0.000888728
0.000903314
0.00101051
0.00760716
0.0068658
0.00601403
0.00509868
0.00415243
0.00326004
0.00246944
0.00183192
0.00139137
0.00115901
0.00111591
0.00116062
0.00746142
0.00676811
0.00597027
0.00511119
0.00422544
0.00338953
0.00264631
0.00204066
0.00160954
0.00136235
0.00127802
0.00128098
0.0073447
0.00668918
0.0059342
0.00512035
0.00428259
0.00349
0.00278299
0.00220083
0.00177456
0.00151598
0.00140239
0.00137739
0.00725384
0.00662745
0.00590579
0.00512731
0.00432653
0.00356718
0.00288729
0.00232247
0.00189972
0.00163145
0.00149684
0.00145278
0.00718615
0.00658149
0.00588475
0.00513276
0.0043597
0.00362503
0.00296495
0.00241254
0.00199321
0.00171613
0.00156628
0.00150906
0.00713944
0.00655006
0.00587081
0.00513736
0.00438396
0.00366661
0.00302003
0.00247587
0.00205821
0.00177465
0.00161388
0.00154759
0.00711204
0.00653222
0.00586386
0.00514166
0.00440087
0.00369428
0.00305559
0.002516
0.00209871
0.00181033
0.00164196
0.00156953
0.00710071
0.0065254
0.00586221
0.00514463
0.00441094
0.00370907
0.00307411
0.00253702
0.00211835
0.00182666
0.00165366
0.00157683
0.00240745
0.00359865
0.00490381
0.00606793
0.00718151
0.0081642
0.00898286
0.00960844
0.0100049
0.0101324
0.00994318
0.0094098
0.00333569
0.00412409
0.00514767
0.00615487
0.00712764
0.00799775
0.00872239
0.00926912
0.00960364
0.00969265
0.0095011
0.00901334
0.00399947
0.00457448
0.00536849
0.00623045
0.00708238
0.00785445
0.00849775
0.00897795
0.0092624
0.00932235
0.00913187
0.00868213
0.0045045
0.00492914
0.00556234
0.00630145
0.00704831
0.0077346
0.00830793
0.00873228
0.0089763
0.0090143
0.00882652
0.00840815
0.00487031
0.00520368
0.00572611
0.0063652
0.0070234
0.00763615
0.00815009
0.00852795
0.00873933
0.00876067
0.00857618
0.0081834
0.00514503
0.00541664
0.00586018
0.00641958
0.0070051
0.00755646
0.00802088
0.00836057
0.00854577
0.00855437
0.00837315
0.00800104
0.00535162
0.00558073
0.00596693
0.006464
0.00699148
0.00749292
0.00791705
0.00822603
0.00839059
0.00838944
0.00821122
0.00785556
0.00550529
0.00570475
0.00604932
0.00649874
0.00698117
0.00744329
0.00783566
0.00812065
0.00826948
0.00826091
0.00808531
0.00774252
0.00561621
0.00579534
0.00611012
0.00652438
0.00697318
0.00740571
0.0077741
0.00804113
0.00817872
0.00816463
0.00799129
0.00765827
0.00569154
0.00585734
0.00615185
0.00654162
0.00696685
0.00737853
0.00773014
0.00798466
0.00811518
0.00809714
0.0079258
0.00759984
0.00573649
0.00589455
0.00617659
0.00655113
0.00696175
0.00736061
0.00770206
0.00794885
0.00807069
0.00805568
0.00788634
0.00756504
0.00575529
0.00591088
0.00618715
0.00655468
0.00695868
0.00735186
0.00768895
0.00793257
0.00805373
0.00803757
0.00786927
0.00755025
0.00854986
0.00745913
0.00624444
0.00495513
0.00363233
0.00228213
0.00114199
0.00024945
-0.000311289
-0.00048133
-0.00020115
0.000252836
0.00824918
0.00727744
0.00617844
0.00500531
0.00379459
0.00260679
0.00157392
0.000757003
0.000230325
5.2319e-05
0.000236386
0.000557292
0.00799252
0.00711549
0.00611496
0.00504407
0.00393349
0.00287086
0.00193651
0.00119394
0.000711522
0.000512612
0.000602824
0.000800263
0.00777711
0.00697562
0.00605678
0.00507131
0.00404792
0.00308146
0.00222814
0.00154599
0.00109008
0.000872131
0.000884186
0.000989186
0.0075987
0.00685748
0.00600534
0.00508917
0.0041404
0.00324717
0.0024559
0.00181761
0.00137603
0.00114206
0.00109697
0.0011401
0.00745299
0.00675967
0.00596139
0.00510138
0.00421362
0.00337674
0.00263265
0.00202611
0.00159393
0.00134527
0.00125934
0.00126111
0.00733625
0.00668061
0.00592513
0.00511029
0.00427091
0.00347725
0.00276928
0.00218614
0.0017586
0.00149888
0.00138396
0.00135804
0.00724534
0.00661877
0.00589655
0.00511708
0.00431494
0.00355446
0.00287355
0.00230772
0.00188391
0.00161441
0.00147866
0.00143384
0.00717761
0.00657272
0.00587539
0.00512243
0.00434813
0.00361235
0.00295121
0.00239775
0.00197737
0.00169917
0.0015483
0.00149042
0.00713087
0.00654122
0.00586136
0.00512693
0.00437242
0.00365396
0.00300628
0.00246105
0.00204236
0.00175774
0.00159604
0.00152918
0.00710346
0.00652334
0.00585435
0.0051312
0.00438934
0.00368163
0.00304183
0.00250116
0.00208285
0.00179347
0.00162423
0.00155127
0.00709214
0.00651651
0.00585267
0.00513419
0.00439941
0.00369643
0.00306035
0.00252218
0.00210249
0.00180982
0.00163599
0.00155866
0.00243679
0.0036217
0.00492378
0.00608507
0.00719521
0.00817493
0.00899193
0.00961716
0.0100143
0.0101431
0.0099549
0.00942226
0.00336176
0.00414632
0.00516648
0.00617105
0.007141
0.0080087
0.00873175
0.00927792
0.00961265
0.00970236
0.00951149
0.00902386
0.00402377
0.0045955
0.00538684
0.00624624
0.00709566
0.00786562
0.00850742
0.00898691
0.00927127
0.00933155
0.00914144
0.0086917
0.00452702
0.00494925
0.00558033
0.00631703
0.00706161
0.00774598
0.00831788
0.00874145
0.0089852
0.00902328
0.00883565
0.00841718
0.00489162
0.00522314
0.00574369
0.00638062
0.00703675
0.00764771
0.00816031
0.00853734
0.00874833
0.00876958
0.00858507
0.00819215
0.00516537
0.0054355
0.00587747
0.00643488
0.00701853
0.00756821
0.00803132
0.00837017
0.00855488
0.00856328
0.00838194
0.00800966
0.00537121
0.00559914
0.0059839
0.00647922
0.00700498
0.00750483
0.00792771
0.00823582
0.00839983
0.00839838
0.00821997
0.00786413
0.00552431
0.00572281
0.00606604
0.00651388
0.00699471
0.00745534
0.00784648
0.00813058
0.00827884
0.00826989
0.00809405
0.00775108
0.0056348
0.00581308
0.00612668
0.00653947
0.00698678
0.00741786
0.00778505
0.00805118
0.00818817
0.00817364
0.00800002
0.00766682
0.00570982
0.00587488
0.00616829
0.00655668
0.00698048
0.00739077
0.00774119
0.00799479
0.00812466
0.00810617
0.00793453
0.0076084
0.00575458
0.00591195
0.00619296
0.00656618
0.0069754
0.00737292
0.00771318
0.00795902
0.00808017
0.00806471
0.00789505
0.00757359
0.00577328
0.00592821
0.0062035
0.00656973
0.00697235
0.0073642
0.0077001
0.00794275
0.00806321
0.00804658
0.00787796
0.00755878
)
;

boundaryField
{
    rotor
    {
        type            zeroGradient;
    }
    stator
    {
        type            zeroGradient;
    }
    AMI1
    {
        type            cyclicAMI;
        value           nonuniform 0();
    }
    AMI2
    {
        type            cyclicAMI;
        value           nonuniform List<scalar> 
48
(
0.0101771
0.00777083
0.00610029
0.00441916
0.00219045
-0.000229142
-0.00229559
-0.00365204
-0.00415949
-0.00390701
-0.00305594
-0.00138538
-0.000547854
0.000708965
0.00260391
0.00486607
0.00698326
0.00874272
0.0101933
0.0113943
0.0123299
0.0129219
0.0129412
0.0122204
0.0101507
0.0077778
0.0061094
0.00441494
0.00218359
-0.000234196
-0.00229567
-0.00364747
-0.00415395
-0.00390651
-0.00306965
-0.00142559
-0.000520835
0.000733462
0.00263213
0.00489277
0.00700078
0.00875425
0.0102031
0.0114047
0.0123447
0.0129425
0.0129578
0.0122501
)
;
    }
    front
    {
        type            empty;
    }
    back
    {
        type            empty;
    }
    procBoundary1to0
    {
        type            processor;
        value           nonuniform List<scalar> 8(1.93614e-07 0.000689021 0.00113031 0.0015653 -0.00120913 -0.000621669 -0.000281063 -6.05771e-05);
    }
}


// ************************************************************************* //
