/*--------------------------------*- C++ -*----------------------------------*\
| =========                 |                                                 |
| \\      /  F ield         | OpenFOAM: The Open Source CFD Toolbox           |
|  \\    /   O peration     | Version:  v1606+                                |
|   \\  /    A nd           | Web:      www.OpenFOAM.com                      |
|    \\/     M anipulation  |                                                 |
\*---------------------------------------------------------------------------*/
FoamFile
{
    version     2.0;
    format      ascii;
    class       volScalarField;
    location    "0.27";
    object      p;
}
// * * * * * * * * * * * * * * * * * * * * * * * * * * * * * * * * * * * * * //

dimensions      [1 -1 -2 0 0 0 0];

internalField   nonuniform List<scalar> 
6000
(
108561
108560
108560
108559
108558
108557
108555
108554
108552
108550
108549
108547
108547
108546
108546
108546
108546
108547
108548
108549
108551
108553
108554
108556
108558
108559
108560
108560
108561
108562
108503
108504
108505
108506
108506
108505
108504
108502
108500
108499
108497
108496
108495
108494
108494
108494
108494
108495
108496
108497
108499
108501
108503
108504
108506
108507
108506
108505
108504
108504
108473
108474
108476
108477
108478
108477
108475
108473
108470
108468
108467
108465
108464
108464
108463
108463
108464
108465
108466
108467
108469
108471
108473
108476
108478
108479
108478
108476
108475
108473
108438
108441
108443
108445
108446
108446
108445
108442
108440
108438
108436
108434
108433
108432
108432
108432
108433
108433
108435
108436
108438
108441
108443
108445
108447
108447
108446
108444
108441
108438
108395
108397
108399
108402
108405
108406
108407
108406
108404
108402
108400
108399
108398
108398
108397
108397
108398
108398
108399
108401
108403
108405
108406
108407
108407
108405
108402
108399
108397
108395
108327
108326
108328
108332
108336
108340
108343
108344
108343
108342
108341
108340
108340
108340
108339
108340
108340
108340
108341
108341
108343
108344
108345
108344
108340
108336
108331
108327
108325
108326
108221
108218
108220
108226
108233
108240
108244
108246
108245
108245
108244
108244
108245
108245
108245
108245
108245
108245
108244
108245
108245
108246
108246
108244
108239
108232
108225
108219
108217
108220
108070
108062
108060
108067
108079
108091
108099
108101
108100
108101
108102
108104
108106
108109
108110
108110
108108
108106
108103
108101
108100
108100
108101
108099
108090
108077
108064
108058
108060
108069
107987
107987
107990
107997
108005
108011
108015
108018
108017
108015
108014
108014
108014
108014
108014
108014
108014
108014
108014
108014
108015
108017
108017
108015
108010
108004
107996
107989
107987
107986
107969
107970
107973
107978
107984
107989
107993
107994
107994
107993
107991
107990
107990
107989
107989
107989
107989
107990
107990
107991
107993
107994
107994
107992
107989
107984
107977
107973
107970
107969
107964
107965
107966
107969
107974
107980
107983
107984
107985
107984
107983
107983
107982
107982
107981
107981
107982
107982
107983
107983
107984
107985
107984
107983
107979
107974
107969
107966
107964
107964
107959
107959
107960
107961
107965
107970
107974
107975
107976
107976
107976
107975
107974
107974
107974
107974
107974
107974
107975
107976
107976
107976
107975
107974
107970
107965
107961
107960
107959
107958
107953
107953
107954
107955
107957
107961
107965
107967
107968
107968
107968
107967
107967
107967
107966
107966
107966
107967
107967
107968
107968
107968
107967
107965
107961
107957
107954
107954
107953
107953
107947
107948
107948
107948
107950
107953
107957
107959
107959
107960
107960
107960
107959
107959
107959
107959
107959
107959
107960
107960
107960
107959
107959
107957
107953
107950
107948
107948
107948
107947
107942
107942
107942
107942
107943
107946
107949
107951
107951
107951
107952
107952
107952
107951
107951
107951
107951
107952
107952
107952
107951
107951
107950
107949
107946
107943
107943
107942
107942
107942
107936
107936
107936
107937
107937
107939
107941
107943
107943
107943
107944
107944
107944
107944
107944
107944
107944
107944
107944
107944
107943
107943
107943
107941
107939
107937
107937
107937
107937
107936
107930
107931
107931
107931
107931
107932
107934
107935
107935
107935
107936
107936
107936
107936
107936
107936
107936
107936
107936
107936
107935
107935
107935
107934
107932
107931
107931
107931
107931
107931
107924
107925
107925
107925
107924
107925
107926
107927
107927
107927
107927
107927
107928
107928
107928
107928
107928
107928
107927
107927
107927
107927
107927
107927
107926
107925
107925
107925
107925
107925
107918
107918
107918
107918
107918
107918
107918
107919
107919
107918
107918
107918
107919
107919
107919
107919
107919
107919
107919
107919
107919
107919
107919
107919
107918
107918
107918
107918
107919
107918
107911
107911
107910
107910
107910
107910
107910
107909
107910
107910
107909
107909
107909
107910
107910
107910
107910
107910
107909
107909
107910
107910
107909
107910
107910
107911
107911
107911
107911
107911
107902
107902
107901
107902
107902
107900
107899
107898
107899
107899
107900
107900
107900
107900
107900
107900
107900
107900
107900
107900
107899
107899
107898
107899
107901
107902
107902
107902
107902
107902
107891
107891
107891
107892
107891
107887
107884
107883
107884
107886
107887
107889
107889
107890
107890
107890
107890
107889
107889
107887
107886
107884
107883
107884
107887
107891
107892
107892
107891
107892
107878
107877
107879
107879
107874
107867
107862
107862
107864
107867
107871
107873
107875
107876
107877
107877
107876
107875
107873
107870
107867
107864
107861
107862
107866
107874
107879
107879
107878
107878
107860
107861
107862
107857
107846
107835
107829
107830
107834
107840
107846
107851
107854
107856
107857
107857
107856
107854
107851
107846
107840
107834
107829
107829
107834
107845
107857
107862
107862
107861
107838
107838
107835
107822
107803
107790
107784
107784
107791
107799
107808
107815
107820
107823
107825
107825
107823
107820
107814
107807
107799
107790
107784
107783
107790
107803
107821
107836
107839
107839
107804
107803
107793
107769
107748
107733
107726
107725
107730
107738
107747
107754
107760
107764
107766
107766
107764
107759
107753
107745
107737
107729
107725
107725
107733
107747
107769
107793
107804
107805
107754
107751
107730
107702
107679
107664
107654
107650
107650
107653
107658
107662
107667
107669
107671
107671
107669
107666
107661
107656
107652
107649
107650
107654
107663
107679
107701
107730
107752
107756
107685
107675
107648
107621
107599
107582
107570
107562
107557
107555
107555
107557
107559
107561
107562
107562
107561
107558
107556
107554
107554
107556
107561
107569
107581
107598
107620
107647
107675
107686
107592
107578
107553
107528
107507
107489
107475
107463
107455
107451
107450
107450
107451
107453
107454
107454
107452
107451
107449
107449
107450
107454
107462
107474
107488
107506
107527
107551
107576
107591
107479
107468
107449
107428
107407
107388
107372
107359
107350
107345
107343
107344
107346
107348
107349
107349
107347
107345
107343
107342
107343
107348
107358
107371
107387
107405
107426
107447
107465
107476
107362
107357
107341
107322
107302
107282
107265
107251
107241
107237
107237
107239
107243
107247
107249
107249
107246
107243
107239
107235
107235
107240
107249
107263
107280
107299
107320
107339
107354
107359
107254
107249
107233
107213
107193
107172
107154
107140
107132
107129
107133
107139
107146
107151
107154
107153
107150
107145
107138
107132
107127
107130
107138
107152
107170
107190
107211
107230
107245
107251
107151
107142
107125
107104
107083
107061
107043
107032
107028
107028
107035
107044
107053
107060
107063
107063
107059
107053
107043
107034
107026
107025
107029
107040
107059
107080
107102
107122
107139
107148
107047
107036
107018
106997
106974
106953
106938
106934
106936
106940
106947
106958
106967
106974
106977
106977
106973
106966
106956
106946
106938
106934
106931
106935
106950
106971
106994
107015
107033
107044
106942
106931
106914
106892
106870
106854
106850
106854
106860
106866
106870
106879
106887
106892
106895
106895
106892
106886
106877
106868
106864
106858
106852
106847
106851
106867
106889
106911
106928
106939
106840
106830
106814
106793
106776
106772
106777
106785
106792
106797
106800
106805
106811
106814
106815
106815
106813
106809
106804
106798
106795
106790
106783
106775
106769
106773
106791
106811
106828
106837
106743
106735
106720
106706
106701
106705
106713
106720
106726
106730
106732
106735
106737
106737
106737
106737
106736
106735
106733
106730
106727
106723
106717
106710
106702
106697
106703
106718
106733
106741
106652
106645
106638
106635
106640
106646
106651
106656
106660
106664
106666
106665
106663
106660
106659
106658
106659
106661
106664
106664
106661
106657
106653
106648
106642
106635
106631
106635
106644
106651
106567
106567
106571
106580
106585
106588
106591
106593
106596
106598
106599
106593
106585
106580
106578
106578
106580
106584
106591
106597
106596
106593
106590
106587
106584
106580
106575
106569
106566
106567
106487
106494
106510
106528
106534
106532
106532
106532
106532
106531
106524
106512
106503
106497
106494
106494
106496
106502
106511
106523
106529
106529
106528
106528
106527
106527
106525
106511
106496
106489
106410
106418
106440
106462
106474
106472
106469
106467
106461
106450
106436
106423
106414
106409
106406
106406
106409
106414
106423
106436
106450
106460
106465
106466
106468
106473
106467
106444
106422
106414
106334
106341
106359
106376
106389
106397
106395
106385
106370
106353
106339
106328
106321
106317
106315
106315
106317
106322
106329
106340
106354
106371
106386
106396
106398
106396
106385
106366
106347
106340
106257
106266
106276
106284
106293
106301
106294
106279
106262
106247
106237
106230
106225
106223
106222
106223
106224
106227
106232
106239
106250
106265
106283
106300
106309
106303
106293
106284
106274
106264
106176
106185
106187
106189
106192
106189
106177
106161
106148
106138
106133
106130
106129
106129
106129
106129
106130
106131
106133
106136
106142
106153
106167
106184
106198
106202
106198
106196
106194
106185
106091
106093
106090
106087
106081
106070
106055
106041
106032
106029
106029
106031
106033
106035
106036
106037
106037
106036
106035
106034
106034
106038
106048
106063
106079
106092
106097
106100
106103
106101
105998
105995
105987
105978
105965
105949
105933
105922
105919
105922
105928
105935
105940
105943
105946
105947
105946
105944
105940
105935
105929
105926
105930
105942
105959
105976
105989
105998
106005
106009
105900
105892
105881
105867
105849
105830
105816
105813
105816
105824
105834
105843
105850
105854
105857
105858
105857
105855
105850
105842
105833
105826
105824
105827
105840
105860
105878
105892
105903
105911
105796
105787
105774
105757
105736
105720
105717
105723
105730
105738
105748
105757
105764
105768
105771
105772
105771
105769
105765
105757
105748
105742
105736
105730
105732
105748
105769
105786
105799
105808
105691
105683
105669
105650
105632
105629
105638
105647
105655
105661
105669
105675
105680
105683
105686
105687
105687
105686
105683
105679
105672
105668
105661
105652
105643
105646
105662
105682
105695
105704
105589
105582
105568
105552
105547
105555
105565
105574
105582
105588
105592
105596
105598
105600
105601
105602
105603
105604
105604
105603
105600
105596
105589
105581
105570
105562
105565
105581
105595
105602
105491
105485
105473
105468
105475
105485
105494
105503
105510
105515
105516
105516
105516
105516
105516
105517
105519
105520
105523
105526
105528
105525
105518
105510
105502
105492
105484
105487
105498
105504
105399
105394
105391
105396
105407
105416
105425
105432
105438
105440
105437
105434
105432
105431
105431
105431
105433
105435
105439
105445
105451
105452
105449
105442
105434
105426
105415
105407
105407
105411
105313
105312
105319
105331
105340
105349
105357
105361
105363
105360
105354
105350
105346
105344
105343
105343
105345
105347
105351
105358
105366
105374
105377
105375
105369
105361
105352
105338
105326
105325
105234
105238
105253
105264
105274
105282
105287
105286
105281
105274
105267
105262
105258
105255
105254
105253
105254
105256
105260
105265
105274
105284
105294
105302
105301
105295
105286
105271
105252
105245
105161
105168
105185
105196
105206
105212
105209
105200
105191
105183
105177
105171
105167
105164
105162
105161
105161
105162
105165
105169
105175
105183
105195
105210
105221
105221
105210
105196
105179
105170
105090
105097
105110
105123
105130
105125
105114
105104
105096
105089
105083
105078
105074
105071
105068
105067
105066
105066
105067
105069
105072
105077
105085
105098
105112
105123
105125
105116
105106
105096
105017
105025
105032
105036
105031
105021
105012
105005
104999
104993
104988
104983
104978
104975
104972
104970
104969
104968
104968
104967
104967
104967
104970
104978
104992
105006
105017
105025
105028
105020
104940
104944
104938
104930
104920
104911
104907
104904
104900
104895
104890
104885
104880
104876
104873
104871
104870
104869
104868
104866
104863
104858
104855
104856
104866
104883
104899
104914
104927
104929
104846
104839
104827
104814
104804
104803
104804
104804
104801
104796
104789
104784
104779
104775
104772
104770
104769
104769
104768
104766
104762
104755
104747
104742
104743
104757
104778
104796
104811
104821
104732
104722
104708
104693
104692
104700
104705
104705
104700
104693
104686
104679
104674
104670
104668
104667
104667
104667
104668
104668
104667
104662
104654
104646
104637
104639
104655
104676
104692
104702
104610
104601
104587
104583
104592
104602
104607
104604
104595
104586
104578
104571
104566
104563
104561
104561
104561
104563
104566
104570
104573
104574
104570
104563
104551
104541
104542
104558
104573
104582
104492
104482
104478
104486
104500
104506
104505
104496
104485
104474
104466
104460
104456
104453
104452
104452
104453
104456
104460
104466
104474
104483
104486
104483
104473
104460
104447
104445
104457
104466
104380
104380
104386
104398
104407
104406
104396
104383
104370
104359
104351
104346
104343
104341
104341
104341
104343
104346
104350
104357
104367
104380
104393
104398
104394
104381
104364
104349
104346
104354
104279
104286
104301
104310
104308
104296
104280
104264
104251
104241
104234
104231
104229
104228
104229
104230
104231
104233
104237
104243
104252
104266
104282
104298
104306
104300
104284
104268
104255
104252
104190
104198
104211
104212
104197
104178
104159
104142
104129
104121
104116
104115
104115
104116
104118
104119
104120
104121
104123
104127
104134
104146
104162
104181
104199
104209
104204
104190
104173
104164
104105
104112
104111
104099
104077
104055
104035
104018
104005
103999
103998
104000
104003
104006
104008
104010
104010
104010
104009
104009
104013
104022
104037
104057
104078
104098
104110
104108
104095
104086
104011
104011
103998
103977
103953
103930
103908
103890
103880
103878
103881
103887
103893
103899
103903
103904
103904
103902
103898
103894
103892
103896
103909
103928
103952
103975
103997
104011
104015
104008
103905
103897
103877
103854
103828
103802
103779
103762
103755
103758
103767
103778
103788
103795
103800
103802
103802
103798
103791
103783
103775
103772
103780
103798
103823
103850
103875
103898
103914
103916
103789
103776
103756
103731
103704
103675
103652
103640
103640
103648
103661
103676
103688
103696
103702
103704
103703
103699
103691
103679
103666
103657
103659
103670
103694
103723
103751
103776
103797
103808
103668
103655
103636
103611
103581
103554
103539
103539
103545
103555
103568
103582
103594
103602
103607
103609
103609
103606
103598
103587
103574
103565
103558
103558
103571
103597
103628
103655
103675
103690
103549
103538
103519
103494
103466
103450
103452
103460
103468
103475
103486
103497
103505
103511
103514
103516
103517
103516
103512
103505
103495
103488
103479
103470
103467
103480
103507
103535
103556
103568
103436
103426
103409
103386
103370
103372
103382
103391
103398
103403
103410
103416
103419
103421
103423
103424
103425
103427
103428
103427
103423
103417
103409
103400
103389
103384
103397
103420
103441
103451
103330
103321
103307
103296
103297
103306
103315
103323
103330
103334
103337
103336
103333
103331
103330
103330
103332
103335
103341
103347
103351
103349
103342
103333
103323
103312
103306
103316
103331
103341
103230
103224
103221
103224
103234
103243
103251
103258
103263
103266
103260
103250
103243
103238
103235
103235
103236
103240
103247
103259
103273
103278
103275
103269
103260
103250
103238
103231
103231
103237
103139
103140
103150
103163
103174
103182
103188
103192
103194
103187
103171
103157
103147
103140
103137
103136
103137
103140
103147
103160
103177
103194
103203
103202
103197
103188
103176
103162
103148
103144
103055
103063
103083
103102
103114
103119
103122
103121
103109
103089
103070
103056
103046
103040
103036
103034
103034
103037
103042
103052
103068
103088
103108
103122
103124
103116
103106
103089
103068
103059
102976
102985
103006
103025
103038
103045
103039
103022
103000
102978
102961
102949
102941
102936
102933
102931
102930
102931
102933
102940
102952
102969
102990
103011
103025
103029
103021
103005
102989
102981
102899
102908
102922
102935
102942
102939
102923
102901
102878
102860
102848
102840
102836
102833
102830
102828
102826
102824
102823
102825
102832
102845
102864
102885
102904
102918
102922
102919
102911
102902
102821
102829
102833
102833
102827
102814
102793
102771
102752
102739
102733
102731
102731
102730
102729
102727
102723
102719
102714
102711
102711
102718
102734
102756
102778
102797
102812
102820
102822
102817
102734
102737
102731
102720
102704
102685
102662
102639
102624
102619
102621
102625
102628
102630
102630
102628
102624
102618
102610
102601
102594
102594
102604
102626
102652
102675
102695
102710
102720
102722
102636
102632
102619
102602
102581
102556
102530
102511
102503
102507
102515
102524
102530
102533
102534
102532
102529
102522
102513
102501
102490
102483
102485
102499
102526
102554
102577
102597
102612
102619
102530
102520
102504
102484
102459
102431
102408
102399
102402
102410
102421
102430
102436
102440
102440
102439
102437
102432
102424
102413
102402
102395
102389
102390
102407
102436
102463
102484
102500
102510
102418
102407
102391
102369
102342
102317
102308
102311
102319
102327
102336
102343
102347
102348
102348
102348
102347
102345
102341
102334
102326
102320
102313
102307
102308
102326
102352
102373
102389
102399
102305
102296
102280
102258
102235
102225
102229
102237
102245
102252
102257
102258
102258
102257
102256
102256
102257
102258
102259
102258
102254
102248
102242
102236
102228
102230
102247
102267
102281
102290
102196
102189
102174
102155
102145
102150
102158
102166
102174
102178
102177
102172
102167
102163
102161
102162
102164
102168
102175
102181
102182
102179
102172
102165
102157
102149
102152
102165
102179
102185
102092
102086
102074
102067
102070
102080
102088
102097
102102
102101
102092
102081
102072
102066
102063
102064
102067
102074
102084
102096
102107
102108
102103
102095
102087
102077
102069
102072
102080
102086
101993
101988
101985
101989
102001
102010
102019
102027
102027
102015
101998
101983
101972
101965
101961
101961
101966
101974
101986
102002
102020
102033
102033
102026
102017
102008
101996
101989
101988
101991
101899
101897
101904
101917
101930
101940
101950
101952
101939
101918
101898
101881
101868
101859
101855
101855
101860
101870
101884
101902
101923
101945
101959
101957
101947
101937
101926
101912
101902
101901
101814
101816
101830
101845
101858
101871
101876
101863
101840
101817
101794
101776
101762
101753
101749
101749
101754
101763
101778
101797
101820
101845
101868
101881
101877
101865
101853
101838
101823
101819
101741
101746
101759
101774
101788
101796
101786
101763
101737
101712
101688
101671
101660
101653
101650
101651
101654
101661
101673
101691
101714
101741
101767
101790
101801
101794
101781
101765
101753
101747
101678
101685
101694
101707
101715
101707
101686
101660
101633
101607
101587
101576
101570
101567
101567
101567
101568
101571
101577
101589
101608
101635
101663
101689
101711
101720
101712
101700
101691
101684
101621
101627
101634
101639
101631
101610
101585
101556
101528
101508
101499
101495
101494
101494
101494
101495
101495
101495
101496
101500
101509
101530
101558
101586
101612
101633
101642
101639
101632
101626
101562
101567
101570
101560
101538
101512
101483
101454
101432
101423
101423
101424
101425
101425
101426
101426
101426
101425
101424
101424
101425
101433
101454
101484
101513
101539
101561
101572
101571
101565
101498
101500
101490
101468
101442
101415
101384
101359
101349
101349
101352
101354
101356
101357
101357
101357
101357
101356
101355
101353
101351
101350
101360
101384
101415
101443
101467
101490
101501
101500
101423
101416
101396
101373
101348
101319
101293
101278
101276
101279
101282
101285
101287
101288
101289
101289
101289
101288
101286
101283
101281
101278
101279
101293
101319
101347
101372
101395
101414
101422
101330
101318
101299
101279
101255
101231
101214
101208
101208
101209
101212
101216
101218
101220
101221
101221
101220
101219
101217
101214
101211
101209
101210
101216
101232
101255
101278
101298
101316
101327
101227
101218
101203
101186
101168
101154
101146
101142
101140
101140
101143
101146
101149
101151
101152
101152
101151
101150
101147
101144
101142
101141
101143
101147
101154
101168
101185
101202
101216
101225
101126
101120
101109
101097
101086
101082
101079
101075
101073
101073
101075
101077
101079
101081
101082
101082
101081
101080
101078
101075
101074
101074
101076
101080
101082
101086
101096
101109
101118
101125
101029
101025
101017
101010
101007
101009
101010
101008
101007
101006
101007
101007
101009
101010
101011
101011
101010
101009
101007
101006
101006
101007
101008
101010
101009
101007
101010
101017
101024
101028
100935
100932
100928
100926
100928
100934
100938
100939
100939
100939
100938
100937
100937
100938
100939
100939
100938
100936
100936
100937
100938
100939
100939
100937
100934
100928
100925
100927
100932
100934
100843
100841
100840
100841
100847
100854
100862
100868
100870
100870
100868
100866
100865
100866
100866
100866
100865
100864
100865
100867
100868
100869
100867
100861
100854
100847
100841
100840
100841
100843
100752
100753
100755
100758
100764
100771
100783
100792
100797
100798
100798
100798
100798
100798
100798
100798
100798
100797
100797
100797
100798
100796
100791
100782
100770
100763
100757
100755
100753
100752
100666
100670
100675
100679
100683
100690
100703
100715
100723
100727
100730
100733
100735
100736
100737
100737
100736
100735
100733
100730
100727
100722
100715
100703
100690
100683
100679
100675
100670
100667
100593
100598
100606
100612
100617
100624
100632
100641
100651
100658
100665
100671
100675
100677
100678
100679
100677
100675
100671
100665
100659
100651
100641
100632
100624
100617
100612
100606
100598
100593
100538
100543
100550
100558
100564
100571
100576
100580
100588
100597
100605
100612
100617
100620
100621
100621
100620
100617
100612
100606
100597
100588
100580
100575
100571
100564
100557
100550
100543
100538
100497
100499
100505
100512
100518
100523
100527
100530
100535
100543
100550
100556
100560
100562
100563
100564
100563
100560
100556
100550
100543
100536
100530
100527
100523
100518
100512
100505
100499
100497
100459
100462
100466
100471
100474
100477
100480
100484
100488
100493
100497
100501
100503
100505
100505
100505
100505
100504
100501
100498
100493
100488
100484
100480
100477
100474
100471
100466
100462
100459
100423
100427
100430
100433
100434
100434
100436
100439
100442
100444
100445
100446
100446
100446
100446
100446
100446
100446
100446
100445
100444
100442
100439
100436
100435
100434
100433
100430
100427
100423
100388
100393
100394
100394
100393
100392
100392
100393
100393
100392
100390
100388
100387
100387
100386
100386
100387
100387
100388
100390
100392
100393
100393
100392
100392
100393
100394
100394
100393
100388
100349
100349
100346
100345
100345
100343
100341
100340
100337
100334
100331
100328
100327
100326
100325
100325
100326
100327
100328
100331
100334
100338
100341
100342
100344
100345
100346
100347
100350
100349
100290
100281
100276
100275
100279
100281
100279
100276
100273
100270
100267
100266
100264
100264
100263
100263
100264
100264
100266
100268
100271
100274
100277
100280
100282
100280
100276
100277
100282
100291
100205
100194
100189
100190
100197
100204
100206
100204
100203
100202
100202
100201
100200
100200
100200
100200
100200
100201
100201
100202
100203
100204
100205
100206
100205
100198
100191
100190
100195
100206
100113
100095
100097
100102
100111
100119
100126
100129
100131
100133
100134
100135
100136
100136
100136
100136
100136
100136
100135
100134
100133
100132
100129
100127
100120
100111
100103
100098
100096
100114
100031
100024
100025
100029
100036
100042
100047
100053
100059
100063
100067
100070
100071
100073
100073
100073
100073
100071
100070
100067
100064
100059
100054
100048
100042
100036
100030
100026
100024
100031
100006
100005
100005
100006
100007
100008
100010
100011
100013
100015
100016
100018
100019
100020
100020
100020
100020
100019
100018
100016
100015
100013
100011
100010
100009
100007
100006
100005
100005
100006
100003
100002
100002
100002
100002
100002
100002
100003
100003
100003
100003
100004
100004
100004
100004
100004
100004
100004
100004
100003
100003
100003
100003
100002
100002
100002
100002
100002
100002
100003
100003
100003
100003
100003
100002
100002
100002
100002
100002
100002
100002
100002
100002
100002
100002
100002
100002
100002
100002
100002
100002
100002
100002
100002
100002
100002
100003
100003
100003
100003
100003
100003
100003
100002
100002
100002
100002
100002
100002
100002
100002
100002
100002
100002
100002
100002
100002
100002
100002
100002
100002
100002
100002
100002
100002
100002
100002
100003
100003
100003
100002
100002
100002
100002
100002
100002
100002
100002
100002
100002
100002
100002
100002
100002
100002
100002
100002
100002
100002
100002
100002
100002
100002
100002
100002
100002
100002
100002
100002
100002
100002
100002
100002
100002
100002
100002
100002
100002
100002
100002
100002
100002
100002
100002
100002
100002
100002
100002
100002
100002
100002
100002
100002
100002
100002
100002
100002
100002
100002
100002
100002
100002
100002
100002
100002
100002
100002
100002
100002
100002
100002
100002
100002
100002
100002
100002
100002
100002
100002
100002
100002
100002
100002
100002
100002
100002
100002
100002
100002
100002
100002
100002
100002
100002
100002
100002
100002
100002
100002
100002
100002
100002
100002
100002
100002
100002
100002
100002
100002
100002
100002
100002
100002
100002
100002
100002
100002
100002
100002
100002
100002
100002
100002
100002
100002
100002
100002
100002
100002
100002
100002
100002
100002
100002
100002
100002
100002
100002
100002
100002
100002
100002
100002
100002
100002
100002
100002
100002
100002
100002
100002
100002
100002
100002
100002
100002
100002
100002
100002
100002
100002
100002
100002
100002
100002
100002
100002
100002
100002
100002
100002
100002
100002
100002
100002
100002
100002
100002
100002
100002
100002
100002
100002
100002
100002
100002
100002
100002
100002
100002
100002
100002
100002
100002
100002
100002
100002
100002
100002
100002
100002
100002
100002
100002
100002
100002
100002
100002
100002
100002
100002
100002
100002
100002
100002
100002
100002
100002
100002
100002
100002
100002
100002
100002
100002
100002
100002
100002
100002
100002
100002
100002
100002
100002
100002
100002
100002
100002
100002
100002
100002
100002
100002
100002
100002
100002
100002
100002
100002
100002
100002
100002
100002
100002
100002
100002
100002
100002
100002
100002
100002
100002
100002
100002
100002
100002
100002
100002
100002
100002
100002
100002
100002
100002
100002
100002
100002
100002
100002
100002
100002
100002
100002
100002
100002
100002
100002
100002
100002
100002
100002
100002
100002
100002
100002
100002
100002
100002
100002
100002
100002
100002
100002
100002
100002
100002
100002
100002
100002
100002
100002
100002
100002
100002
100002
100002
100002
100002
100002
100002
100002
100002
100002
100002
100002
100002
100002
100002
100002
100002
100002
100002
100002
100002
100002
100002
100002
100002
100002
100002
100002
100002
100002
100002
100002
100002
100002
100002
100002
100002
100002
100002
100002
100002
100002
100002
100002
100002
100002
100002
100002
100002
100002
100002
100002
100002
100002
100002
100002
100002
100002
100002
100002
100002
100002
100002
100002
100002
100002
100002
100002
100002
100002
100002
100002
100002
100002
100002
100002
100002
100002
100002
100002
100002
100002
100002
100002
100002
100002
100002
100002
100002
100002
100002
100002
100002
100002
100002
100002
100002
100002
100002
100002
100002
100002
100002
100002
100002
100002
100002
100002
100002
100002
100002
100002
100002
100002
100002
100002
100002
100002
100002
100002
100002
100002
100002
100002
100002
100002
100002
100002
100002
100002
100002
100002
100002
100002
100002
100002
100002
100002
100002
100002
100002
100002
100002
100002
100002
100002
100002
100002
100002
100002
100002
100002
100002
100002
100002
100002
100002
100002
100002
100002
100002
100002
100002
100002
100002
100002
100002
100002
100002
100002
100002
100002
100002
100002
100002
100002
100002
100002
100002
100002
100002
100002
100002
100002
100002
100002
100002
100002
100002
100002
100002
100002
100002
100002
100002
100002
100002
100002
100002
100002
100002
100002
100002
100002
100002
100002
100002
100002
100002
100002
100002
100002
100002
100002
100002
100002
100002
100002
100002
100002
100002
100002
100002
100002
100002
100002
100002
100002
100002
100002
100002
100002
100002
100002
100002
100002
100002
100002
100002
100002
100002
100002
100002
100002
100002
100002
100002
100002
100002
100002
100002
100002
100002
100002
100002
100002
100002
100002
100002
100002
100002
100002
100002
100002
100002
100002
100002
100002
100002
100002
100002
100002
100002
100002
100002
100002
100002
100002
100002
100002
100002
100002
100002
100002
100002
100002
100002
100002
100002
100002
100002
100002
100002
100002
100002
100002
100002
100002
100002
100002
100002
100002
100002
100002
100002
100002
100002
100002
100002
100002