/*--------------------------------*- C++ -*----------------------------------*\
| =========                 |                                                 |
| \\      /  F ield         | OpenFOAM: The Open Source CFD Toolbox           |
|  \\    /   O peration     | Version:  2.4.0                                 |
|   \\  /    A nd           | Web:      www.OpenFOAM.org                      |
|    \\/     M anipulation  |                                                 |
\*---------------------------------------------------------------------------*/
FoamFile
{
    version     2.0;
    format      ascii;
    class       volVectorField;
    location    "4.875";
    object      U;
}
// * * * * * * * * * * * * * * * * * * * * * * * * * * * * * * * * * * * * * //

dimensions      [0 1 -1 0 0 0 0];

internalField   nonuniform List<vector> 
4608
(
(0.00634018 0.136011 0)
(0.0169349 0.135098 0)
(0.0266572 0.134049 -2.81437e-26)
(0.0360278 0.132687 -2.85534e-26)
(0.0452258 0.130904 0)
(0.0543815 0.128658 0)
(0.0634721 0.125924 -1.20428e-25)
(0.0723844 0.122673 -5.96456e-26)
(0.0808009 0.118925 4.80525e-27)
(0.0890436 0.114396 -9.14834e-26)
(0.097146 0.109126 -1.16988e-25)
(0.104457 0.103516 -2.12838e-26)
(0.00459659 0.157495 0)
(0.0154925 0.157976 -7.18596e-27)
(0.0269972 0.1584 1.19379e-26)
(0.038682 0.15849 0)
(0.0504399 0.158096 1.1112e-25)
(0.062324 0.157075 -2.57566e-26)
(0.0740599 0.155387 -2.14411e-25)
(0.0854114 0.152871 0)
(0.0961735 0.149551 2.46633e-25)
(0.106768 0.145222 3.04976e-26)
(0.116996 0.139788 -1.60695e-25)
(0.126177 0.133882 0)
(0.00817975 0.178034 0)
(0.0234346 0.178394 5.32854e-26)
(0.0379902 0.178784 0)
(0.0520396 0.178889 -2.72414e-26)
(0.0658646 0.178453 8.82957e-26)
(0.079573 0.177335 3.20148e-25)
(0.0928123 0.175456 2.57773e-25)
(0.105346 0.172786 3.48565e-25)
(0.117401 0.169167 4.18912e-25)
(0.129371 0.164402 0)
(0.141186 0.158728 -2.89204e-25)
(0.152183 0.152599 0)
(0.0099508 0.199127 2.84297e-26)
(0.0284207 0.199542 6.32481e-26)
(0.0456131 0.199901 0)
(0.061831 0.199853 2.1921e-25)
(0.0775147 0.199062 -9.73886e-26)
(0.0928121 0.19739 5.84757e-25)
(0.107324 0.194933 3.03994e-25)
(0.121093 0.191699 3.1729e-25)
(0.134707 0.187584 0)
(0.14841 0.182466 6.71109e-25)
(0.161925 0.176051 -4.34784e-25)
(0.174485 0.169096 -2.66604e-25)
(0.0122651 0.220068 3.31552e-26)
(0.0340906 0.220593 1.62722e-25)
(0.0537716 0.220896 -1.48374e-25)
(0.071863 0.220576 3.09147e-25)
(0.0889093 0.219256 0)
(0.105255 0.216656 5.21223e-25)
(0.120729 0.21299 2.71607e-25)
(0.135596 0.20849 -1.72707e-25)
(0.150225 0.20304 -2.5837e-25)
(0.164602 0.196507 1.62922e-24)
(0.178321 0.188873 8.41624e-25)
(0.190661 0.180913 -9.70482e-25)
(0.0146746 0.241035 0)
(0.0396795 0.241673 1.59513e-25)
(0.0614444 0.241809 -1.66174e-25)
(0.0808243 0.240973 -3.45471e-25)
(0.0986378 0.238756 -1.12891e-25)
(0.115489 0.235056 6.36678e-26)
(0.131503 0.229988 3.11474e-25)
(0.146809 0.22379 -2.00041e-25)
(0.161533 0.216491 -2.85348e-25)
(0.175544 0.20815 1.57606e-24)
(0.188571 0.198888 7.9509e-25)
(0.200164 0.189013 -8.02627e-25)
(0.0172615 0.262054 4.86525e-27)
(0.0451803 0.262961 3.20615e-26)
(0.0687667 0.262885 0)
(0.0887914 0.261594 -3.82752e-25)
(0.106849 0.258233 6.59276e-25)
(0.123764 0.253145 -9.76385e-25)
(0.139855 0.246444 -8.11881e-25)
(0.155184 0.238439 -8.18263e-25)
(0.169802 0.229297 -8.22453e-25)
(0.183647 0.219253 8.26294e-25)
(0.196621 0.208556 -1.51982e-24)
(0.20873 0.197486 1.89295e-24)
(0.0205106 0.283361 0)
(0.0507946 0.285204 0)
(0.075545 0.284457 4.031e-25)
(0.0954361 0.282184 0)
(0.11317 0.277321 7.22403e-25)
(0.129808 0.270587 -1.76918e-25)
(0.145716 0.262096 -8.63274e-25)
(0.160902 0.252275 -8.5871e-25)
(0.175373 0.241306 -8.53388e-25)
(0.189123 0.229488 -1.69809e-24)
(0.202093 0.217153 -1.69251e-24)
(0.214206 0.204629 1.69551e-24)
(0.0251945 0.304896 1.0916e-25)
(0.056541 0.308145 4.80707e-25)
(0.0812109 0.305914 2.0914e-34)
(0.10008 0.301902 -1.58342e-25)
(0.117036 0.294654 -3.18927e-25)
(0.133192 0.285958 -1.67413e-25)
(0.148798 0.275602 -1.79267e-24)
(0.163786 0.264106 1.52457e-25)
(0.178125 0.251523 2.49763e-25)
(0.191868 0.238155 -1.70407e-24)
(0.204946 0.224305 1.11417e-25)
(0.217237 0.210192 -1.47337e-24)
(0.031263 0.326174 1.16106e-35)
(0.0613028 0.330427 4.61663e-25)
(0.0842564 0.324375 -4.65672e-25)
(0.10103 0.317503 0)
(0.116949 0.30698 -1.1202e-25)
(0.132596 0.295925 7.80917e-25)
(0.147948 0.28382 -1.78637e-24)
(0.162826 0.271084 0)
(0.177182 0.257455 1.67518e-24)
(0.191118 0.243192 0)
(0.204459 0.228581 8.87331e-26)
(0.216808 0.213493 -3.06002e-24)
(0.0409201 0.347057 -7.99152e-26)
(0.0637889 0.347992 4.6563e-25)
(0.0820936 0.333308 9.1829e-25)
(0.0962435 0.322085 7.98144e-25)
(0.110889 0.308062 -1.39194e-25)
(0.126217 0.294877 3.47439e-24)
(0.141595 0.281744 0)
(0.156532 0.268738 -4.81765e-26)
(0.17084 0.254959 1.35384e-24)
(0.185202 0.240568 0)
(0.199167 0.226465 -1.54692e-24)
(0.211747 0.211917 -1.6582e-24)
(0.0219628 0.346703 2.37098e-25)
(0.0436983 0.340945 -2.10741e-34)
(0.063244 0.318763 2.54485e-34)
(0.0789934 0.305929 8.17488e-25)
(0.0939051 0.290982 1.61302e-24)
(0.109736 0.277624 3.05606e-24)
(0.125552 0.265257 1.41243e-24)
(0.140607 0.25374 0)
(0.155117 0.241829 0)
(0.17038 0.228731 0)
(0.18535 0.215689 -1.16003e-24)
(0.19897 0.202579 -2.37293e-24)
(0.111547 0.0969283 -6.55802e-26)
(0.118185 0.0897528 -7.6081e-26)
(0.12423 0.0820803 -2.28117e-25)
(0.129774 0.0739841 2.56388e-25)
(0.134657 0.0657181 0)
(0.138288 0.0571579 9.78332e-26)
(0.140217 0.0480601 1.77398e-25)
(0.14061 0.0385613 0)
(0.13998 0.0288414 0)
(0.138835 0.0192115 0)
(0.13757 0.0101881 1.22045e-26)
(0.136431 0.00258064 5.57013e-27)
(0.135131 0.126733 -1.00712e-26)
(0.143212 0.11885 -7.37051e-26)
(0.150506 0.109972 -2.56854e-25)
(0.15757 0.099764 -3.93453e-26)
(0.163663 0.0897143 -8.95952e-26)
(0.16639 0.0819369 4.0272e-26)
(0.166573 0.0732294 1.77594e-25)
(0.165083 0.0631132 -3.5043e-26)
(0.162772 0.051314 -1.3874e-25)
(0.160287 0.0382499 0)
(0.158169 0.0242821 2.51581e-26)
(0.157035 0.00909847 1.13626e-26)
(0.162816 0.145011 -6.18109e-25)
(0.172811 0.136535 0)
(0.182952 0.126624 0)
(0.191189 0.11553 -2.90289e-25)
(0.195571 0.10464 0)
(0.194252 0.0984704 -3.80988e-25)
(0.191116 0.0904621 1.55358e-26)
(0.187531 0.0797795 -2.35164e-25)
(0.184328 0.0656926 -1.25293e-25)
(0.181699 0.0493484 0)
(0.179701 0.0313805 5.80419e-26)
(0.178446 0.011341 -2.57566e-26)
(0.186595 0.160865 -1.00265e-24)
(0.197757 0.151313 -2.55193e-25)
(0.205241 0.142025 -5.57938e-25)
(0.209486 0.131845 7.90169e-25)
(0.210658 0.122002 -3.46949e-26)
(0.208771 0.115364 -3.3767e-25)
(0.206508 0.108273 -2.22622e-25)
(0.204178 0.0971617 -2.21608e-25)
(0.201882 0.0812924 2.95632e-25)
(0.199874 0.0612399 0)
(0.199296 0.0390516 3.75555e-26)
(0.199306 0.0146944 -9.82482e-26)
(0.201002 0.17254 7.75981e-25)
(0.20957 0.162547 -7.50117e-25)
(0.216964 0.15299 -7.87367e-25)
(0.2225 0.144246 7.30876e-25)
(0.224061 0.137569 -1.58296e-25)
(0.223687 0.13087 -1.88789e-25)
(0.222584 0.123242 -1.82216e-25)
(0.220957 0.111899 -4.59287e-26)
(0.218917 0.0946916 3.71914e-25)
(0.217376 0.0706311 2.10114e-25)
(0.218693 0.04324 -2.15539e-25)
(0.220582 0.0171981 -3.74355e-26)
(0.211138 0.179604 7.99766e-25)
(0.220896 0.17058 -7.53742e-25)
(0.227969 0.16155 -7.73019e-25)
(0.233705 0.153025 -3.89698e-26)
(0.238167 0.146881 0)
(0.240953 0.141702 -4.96436e-25)
(0.241679 0.135867 9.77003e-26)
(0.240692 0.126682 -5.90406e-25)
(0.238108 0.110138 0)
(0.233943 0.0817479 1.72079e-25)
(0.235914 0.0432007 -1.32191e-25)
(0.24171 0.0188687 4.54823e-26)
(0.219942 0.186099 0)
(0.228655 0.175999 0)
(0.237251 0.166045 -1.69196e-24)
(0.245962 0.156848 0)
(0.252331 0.151242 -1.7067e-25)
(0.256989 0.147632 -7.25886e-25)
(0.259868 0.144416 1.12021e-24)
(0.261103 0.138795 4.34954e-25)
(0.260009 0.126114 3.13033e-25)
(0.256718 0.0976134 -3.2249e-25)
(0.25166 0.0462219 -1.70016e-25)
(0.257013 0.0134366 -2.04977e-26)
(0.225615 0.192017 5.64913e-26)
(0.236578 0.180811 1.91334e-24)
(0.247557 0.170077 1.01583e-24)
(0.256743 0.159812 -1.62671e-24)
(0.263059 0.152824 -1.66036e-24)
(0.268658 0.148738 -8.55686e-25)
(0.274125 0.146488 1.03334e-24)
(0.279286 0.14359 2.00811e-24)
(0.283116 0.135318 0)
(0.286637 0.111416 -5.16521e-25)
(0.280144 0.0569155 2.31095e-25)
(0.277497 0.00782278 8.73386e-26)
(0.229039 0.195927 1.59991e-24)
(0.240048 0.182532 1.529e-24)
(0.250142 0.170464 1.68976e-24)
(0.258561 0.15963 -1.6115e-24)
(0.265926 0.150787 -1.68058e-24)
(0.27351 0.145381 -8.43027e-25)
(0.281151 0.142412 7.98218e-25)
(0.289297 0.14024 1.71522e-24)
(0.297353 0.135322 -1.04405e-25)
(0.305898 0.119373 0)
(0.303128 0.0744197 2.15681e-25)
(0.29715 0.00800559 6.33845e-26)
(0.228683 0.197828 1.56296e-24)
(0.239957 0.182827 -1.35367e-25)
(0.249429 0.169211 0)
(0.257453 0.157109 -1.56538e-24)
(0.265054 0.146454 0)
(0.273253 0.138841 0)
(0.281491 0.134665 8.5289e-25)
(0.290327 0.131518 -3.49478e-26)
(0.300884 0.126892 -4.21916e-26)
(0.314553 0.115588 1.15872e-24)
(0.324642 0.0798017 2.08145e-27)
(0.321285 0.00668508 1.59361e-26)
(0.223782 0.196112 -3.50514e-26)
(0.235283 0.180698 -1.59038e-24)
(0.2442 0.166686 0)
(0.251966 0.153385 -1.5025e-24)
(0.259432 0.141145 4.52411e-26)
(0.267886 0.131442 0)
(0.275211 0.12616 -1.45863e-24)
(0.282479 0.121356 -7.44401e-25)
(0.292709 0.114761 -5.82141e-26)
(0.306974 0.105265 2.23529e-24)
(0.321031 0.0782993 0)
(0.332983 0.00355252 1.19725e-25)
(0.212119 0.187601 -2.6492e-24)
(0.225125 0.173218 -1.40046e-24)
(0.234579 0.161188 0)
(0.24172 0.148261 0)
(0.248521 0.134632 1.22682e-24)
(0.256271 0.122723 -1.20869e-24)
(0.261309 0.117207 -2.42939e-24)
(0.266564 0.111228 1.3812e-25)
(0.277469 0.102174 -8.71722e-25)
(0.289907 0.0890394 6.36256e-25)
(0.318541 0.060859 2.43118e-25)
(0.340062 -0.0234456 2.1906e-25)
(0.136101 -0.00665122 6.1015e-27)
(0.135432 -0.0176612 -1.2992e-26)
(0.134782 -0.0277565 5.45952e-26)
(0.133893 -0.0374576 0)
(0.132623 -0.0468351 -5.31201e-27)
(0.13081 -0.0564342 -3.49206e-27)
(0.128665 -0.065581 8.02954e-26)
(0.125943 -0.0739065 0)
(0.121859 -0.082828 -6.36086e-26)
(0.117342 -0.0910258 -6.58499e-26)
(0.111962 -0.0986011 -1.18833e-25)
(0.105633 -0.105461 -2.61555e-26)
(0.157507 -0.00517967 1.09226e-26)
(0.158224 -0.0168862 -6.8148e-26)
(0.159133 -0.0290415 -6.45647e-26)
(0.159856 -0.0412039 1.44895e-25)
(0.160161 -0.0529427 -1.81251e-26)
(0.159494 -0.0653405 -4.99431e-26)
(0.158408 -0.0771688 0)
(0.157279 -0.0881436 0)
(0.154544 -0.0996177 2.01999e-25)
(0.150809 -0.10955 1.45527e-25)
(0.145806 -0.118185 -2.94613e-25)
(0.139452 -0.125451 1.91944e-25)
(0.178064 -0.00910567 -1.01331e-26)
(0.178818 -0.0257365 -1.14868e-25)
(0.179898 -0.0413019 -1.1014e-25)
(0.180821 -0.0560439 1.15789e-25)
(0.181457 -0.0702107 0)
(0.18134 -0.0850284 0)
(0.180511 -0.0991768 0)
(0.178948 -0.112125 0)
(0.176394 -0.123816 1.69427e-35)
(0.172838 -0.133942 2.9609e-25)
(0.168217 -0.142591 -2.99709e-25)
(0.162435 -0.14969 3.06013e-25)
(0.199138 -0.0114927 2.82486e-26)
(0.199962 -0.0322258 -4.54013e-26)
(0.201165 -0.0510843 6.42615e-26)
(0.202316 -0.0684892 -7.94841e-26)
(0.203102 -0.0852524 1.3119e-25)
(0.202969 -0.10168 0)
(0.20178 -0.116989 0)
(0.199915 -0.130723 0)
(0.197336 -0.142822 -1.02637e-24)
(0.19403 -0.153204 0)
(0.189913 -0.161917 3.98669e-25)
(0.184787 -0.169053 7.39436e-26)
(0.220005 -0.014128 9.5929e-26)
(0.220588 -0.0388986 -1.41579e-25)
(0.221282 -0.0608815 0)
(0.221895 -0.0807217 -5.03876e-25)
(0.222002 -0.0992223 4.23207e-26)
(0.221165 -0.116648 -1.75567e-25)
(0.219307 -0.132658 0)
(0.216708 -0.146874 0)
(0.213565 -0.159286 -7.56034e-25)
(0.210028 -0.169945 0)
(0.206139 -0.178959 7.88929e-25)
(0.201814 -0.186432 0)
(0.240813 -0.0163914 2.30761e-36)
(0.240916 -0.0447948 -1.59366e-25)
(0.240935 -0.0695849 0)
(0.240674 -0.0914626 2.41313e-34)
(0.239606 -0.111166 -1.54329e-25)
(0.237487 -0.129081 -2.06398e-25)
(0.234292 -0.145168 0)
(0.230265 -0.159355 -2.76426e-25)
(0.225783 -0.17175 -1.05771e-25)
(0.221224 -0.18256 -7.18385e-25)
(0.216879 -0.191975 -1.02972e-24)
(0.212848 -0.200092 0)
(0.261592 -0.018159 4.14742e-26)
(0.261053 -0.0498216 4.43053e-26)
(0.260192 -0.0771001 -2.74345e-25)
(0.259003 -0.100515 5.82097e-25)
(0.25668 -0.120751 3.66216e-25)
(0.252952 -0.13862 -1.00706e-24)
(0.247909 -0.154204 -4.59436e-25)
(0.24174 -0.167783 1.07788e-25)
(0.234988 -0.179704 -1.20686e-24)
(0.228276 -0.190406 -8.57414e-25)
(0.222229 -0.200168 -9.65641e-25)
(0.217204 -0.209127 -1.22634e-25)
(0.282297 -0.0192656 9.38595e-26)
(0.280865 -0.0537869 -1.9844e-25)
(0.279018 -0.0834826 -3.97869e-25)
(0.277245 -0.108234 1.34503e-24)
(0.273923 -0.128283 1.21366e-24)
(0.268536 -0.145524 -1.02889e-24)
(0.26153 -0.159967 -3.64928e-25)
(0.252809 -0.172306 -3.26011e-25)
(0.243076 -0.183208 -1.5111e-24)
(0.233199 -0.193442 -3.01038e-25)
(0.224223 -0.203283 -1.0418e-25)
(0.216715 -0.212801 -1.34208e-25)
(0.302901 -0.0196359 -2.11832e-25)
(0.300186 -0.0566648 -2.21045e-25)
(0.297026 -0.0891001 -3.30084e-25)
(0.295328 -0.115449 1.03163e-24)
(0.29164 -0.134332 0)
(0.284614 -0.150297 3.66691e-25)
(0.275906 -0.162973 4.75239e-25)
(0.264617 -0.173439 1.39927e-24)
(0.2516 -0.182797 1.37142e-24)
(0.23796 -0.192347 0)
(0.225371 -0.202152 9.02602e-26)
(0.214509 -0.211916 1.12517e-25)
(0.323086 -0.0186758 -1.22759e-25)
(0.318796 -0.0577849 -2.99808e-26)
(0.313505 -0.0936029 4.15987e-25)
(0.312538 -0.122568 -2.67546e-25)
(0.309299 -0.138841 -3.85417e-25)
(0.300143 -0.152734 6.22024e-25)
(0.289956 -0.16319 3.51463e-25)
(0.276476 -0.171138 2.15049e-24)
(0.260365 -0.178556 3.47173e-24)
(0.242867 -0.187579 1.73342e-24)
(0.226743 -0.197759 -5.56819e-26)
(0.212618 -0.207812 -1.75552e-24)
(0.341804 -0.0215608 2.22025e-25)
(0.333938 -0.0607441 -4.88885e-25)
(0.32486 -0.0996972 9.71222e-25)
(0.324232 -0.130397 0)
(0.322099 -0.14117 1.47763e-24)
(0.310457 -0.150402 3.55306e-25)
(0.298598 -0.158636 4.31035e-25)
(0.284352 -0.163579 1.33918e-24)
(0.266406 -0.169256 1.29918e-24)
(0.245829 -0.178597 1.67696e-24)
(0.22713 -0.190457 -1.59447e-24)
(0.210874 -0.201525 -1.55912e-24)
(0.345128 0.00267895 -1.85791e-25)
(0.336854 -0.0498203 -1.07444e-24)
(0.317412 -0.0979205 0)
(0.320564 -0.132812 0)
(0.320945 -0.135625 9.76551e-25)
(0.305801 -0.137325 -1.67972e-24)
(0.289324 -0.144951 -1.29765e-24)
(0.278335 -0.148077 2.73181e-24)
(0.263597 -0.153326 -1.80966e-24)
(0.243187 -0.164517 0)
(0.224095 -0.180478 -1.4125e-24)
(0.208379 -0.193644 -1.07469e-26)
(0.0982847 -0.111423 1.57646e-26)
(0.0899859 -0.116472 -1.78042e-25)
(0.0807811 -0.121143 1.34358e-26)
(0.0717972 -0.124887 2.6299e-25)
(0.0636055 -0.127125 1.80128e-25)
(0.0545483 -0.129048 -1.18263e-36)
(0.0451901 -0.131122 -1.10793e-25)
(0.0359953 -0.133162 -8.09421e-27)
(0.0268893 -0.134757 6.28869e-26)
(0.0179964 -0.135775 -2.65115e-26)
(0.00950182 -0.136249 6.9673e-27)
(0.0021817 -0.136174 -2.47708e-27)
(0.131832 -0.131511 2.79937e-25)
(0.122777 -0.136516 -2.58712e-25)
(0.111891 -0.140571 -2.20837e-25)
(0.100512 -0.142377 5.29913e-25)
(0.0881661 -0.144603 2.19049e-25)
(0.0759695 -0.147988 -2.14337e-25)
(0.0630511 -0.151622 -1.03661e-25)
(0.0518909 -0.154473 -9.37634e-27)
(0.0412413 -0.156109 2.29649e-25)
(0.0303781 -0.156846 4.60329e-26)
(0.0189588 -0.157058 -5.593e-26)
(0.00678498 -0.157022 1.2328e-26)
(0.155264 -0.15522 -2.97805e-26)
(0.146512 -0.159451 2.97551e-25)
(0.135533 -0.162651 -2.85391e-25)
(0.123178 -0.165514 2.89337e-25)
(0.106611 -0.16911 0)
(0.089699 -0.17173 -2.40983e-25)
(0.07251 -0.174456 2.14315e-25)
(0.0585462 -0.176516 -3.117e-26)
(0.0465978 -0.178182 5.47091e-27)
(0.0346093 -0.17886 1.14348e-25)
(0.0215254 -0.178685 -1.12032e-25)
(0.00755677 -0.178313 1.25081e-26)
(0.178367 -0.174709 7.16702e-25)
(0.170203 -0.179023 4.96907e-25)
(0.159601 -0.18223 -8.99076e-26)
(0.146145 -0.184707 -1.38361e-25)
(0.128651 -0.187009 6.24823e-25)
(0.108436 -0.189308 -5.89128e-25)
(0.0869595 -0.192541 3.32672e-25)
(0.0687469 -0.19625 3.92118e-26)
(0.0547748 -0.199128 -1.26967e-25)
(0.0421389 -0.200001 7.65928e-28)
(0.0271772 -0.199787 1.22903e-26)
(0.0102077 -0.199326 -7.34538e-28)
(0.19672 -0.19241 1.49595e-24)
(0.19024 -0.196854 -8.72456e-25)
(0.181392 -0.199821 0)
(0.168853 -0.201421 0)
(0.150807 -0.202062 1.41237e-24)
(0.126406 -0.20273 3.31447e-26)
(0.0977194 -0.206046 5.90843e-26)
(0.0744688 -0.211531 2.38062e-25)
(0.059959 -0.215653 3.00056e-25)
(0.047445 -0.217728 -3.72912e-26)
(0.0314476 -0.219408 4.865e-26)
(0.0122801 -0.220101 5.84134e-28)
(0.209002 -0.206998 8.55426e-25)
(0.204936 -0.212484 -8.5742e-25)
(0.199572 -0.216345 -3.03158e-25)
(0.191187 -0.218289 1.09813e-25)
(0.176676 -0.218227 1.19437e-24)
(0.151373 -0.21696 -2.02761e-25)
(0.112804 -0.217366 7.30284e-25)
(0.077599 -0.222179 1.50556e-25)
(0.0624138 -0.228476 6.24429e-25)
(0.0513686 -0.23267 0)
(0.034267 -0.237843 0)
(0.0156809 -0.241522 0)
(0.213448 -0.217441 0)
(0.210931 -0.224884 1.78656e-24)
(0.208926 -0.231213 0)
(0.206172 -0.235994 0)
(0.199494 -0.23845 -5.57911e-25)
(0.182314 -0.238655 -5.05448e-25)
(0.144185 -0.234863 4.09005e-25)
(0.0902299 -0.229238 -2.65326e-25)
(0.0578063 -0.23188 2.36869e-25)
(0.0452188 -0.243673 -3.49505e-25)
(0.0266477 -0.252949 1.66199e-25)
(0.0101267 -0.259949 -8.66291e-26)
(0.211233 -0.222236 -1.82423e-24)
(0.208014 -0.231471 1.76202e-24)
(0.206932 -0.240394 1.82648e-24)
(0.207573 -0.248847 1.89617e-24)
(0.208262 -0.256493 2.00793e-24)
(0.203207 -0.262379 2.10887e-24)
(0.180936 -0.263779 -3.50942e-25)
(0.126607 -0.256512 -7.03897e-25)
(0.0659249 -0.249563 -2.205e-25)
(0.0355777 -0.262314 -5.72693e-25)
(0.0205174 -0.275574 1.62115e-25)
(0.00484337 -0.281201 -9.71241e-26)
(0.205881 -0.221786 -1.81939e-24)
(0.199944 -0.231556 1.29182e-26)
(0.196691 -0.241575 3.3557e-24)
(0.196365 -0.252259 1.75296e-24)
(0.198974 -0.264239 1.99783e-24)
(0.201602 -0.277545 1.10317e-24)
(0.195861 -0.290479 -2.43341e-25)
(0.159147 -0.295978 7.70518e-26)
(0.0876908 -0.286531 1.16779e-24)
(0.0338368 -0.277915 -8.06819e-27)
(0.0130027 -0.288043 -1.70448e-26)
(-5.20477e-05 -0.300617 1.63671e-26)
(0.200806 -0.217903 0)
(0.191934 -0.227147 -1.58405e-24)
(0.185062 -0.235898 -2.31286e-35)
(0.180554 -0.24523 0)
(0.17914 -0.256773 8.39144e-26)
(0.18122 -0.272246 -2.78582e-26)
(0.184515 -0.290752 0)
(0.17176 -0.307952 0)
(0.119824 -0.316812 2.27372e-24)
(0.046089 -0.308589 -7.34421e-25)
(0.0073838 -0.309737 0)
(-0.00787876 -0.321048 -8.73619e-26)
(0.196877 -0.212097 1.12398e-25)
(0.186167 -0.220708 1.00679e-26)
(0.176903 -0.227152 -2.82904e-24)
(0.168537 -0.233105 0)
(0.161506 -0.240477 0)
(0.157533 -0.251537 0)
(0.158211 -0.26755 1.87628e-24)
(0.152285 -0.291038 0)
(0.124238 -0.315685 2.23656e-24)
(0.0664782 -0.323026 -1.2825e-34)
(0.00342567 -0.324164 -3.58992e-25)
(-0.0180163 -0.336993 -1.78872e-25)
(0.192736 -0.205259 0)
(0.181001 -0.212874 2.32769e-24)
(0.171339 -0.216556 -1.19128e-24)
(0.161372 -0.219243 1.21932e-24)
(0.150075 -0.222515 0)
(0.140057 -0.229387 1.30338e-24)
(0.135864 -0.240196 1.49649e-24)
(0.133204 -0.256789 3.75025e-25)
(0.107159 -0.269941 7.06424e-25)
(0.0554243 -0.294227 1.26049e-24)
(-0.00674232 -0.318683 6.53369e-27)
(-0.0399323 -0.339628 -3.60301e-26)
(-0.00691516 -0.136157 9.29537e-27)
(-0.0183098 -0.135697 1.06835e-26)
(-0.0286331 -0.135427 -3.25752e-27)
(-0.0384402 -0.135017 -2.94392e-27)
(-0.0484032 -0.134165 7.56893e-26)
(-0.0582827 -0.132859 -5.03385e-26)
(-0.0691981 -0.130885 -7.61966e-26)
(-0.0799468 -0.128995 0)
(-0.0904069 -0.126938 6.92373e-26)
(-0.0984734 -0.125012 1.59018e-25)
(-0.105488 -0.120871 1.01067e-25)
(-0.115139 -0.11277 7.54219e-26)
(-0.00569851 -0.157477 1.10119e-26)
(-0.0182675 -0.158191 5.08728e-26)
(-0.0311015 -0.159345 -1.0491e-25)
(-0.0435884 -0.160729 0)
(-0.0562764 -0.161749 9.32804e-26)
(-0.0692249 -0.162116 -1.19568e-25)
(-0.0829645 -0.160687 2.67851e-26)
(-0.0975509 -0.158026 9.16099e-26)
(-0.111356 -0.156092 3.91914e-25)
(-0.12155 -0.156061 0)
(-0.130191 -0.155347 3.38507e-25)
(-0.140286 -0.149402 0)
(-0.00944824 -0.17803 5.76886e-26)
(-0.0269612 -0.178359 1.18757e-25)
(-0.0439004 -0.179018 -2.19938e-25)
(-0.0602721 -0.180414 6.16811e-26)
(-0.075686 -0.182565 3.26917e-26)
(-0.0902746 -0.183675 -1.37648e-26)
(-0.105163 -0.183092 -4.70025e-25)
(-0.12179 -0.17955 -3.22047e-25)
(-0.136038 -0.174686 5.46805e-25)
(-0.146229 -0.171182 1.0192e-25)
(-0.154578 -0.169654 4.47204e-25)
(-0.163582 -0.167015 -7.59192e-25)
(-0.0109628 -0.19897 2.87344e-26)
(-0.0319284 -0.198571 1.41733e-25)
(-0.0530194 -0.198105 -6.36362e-26)
(-0.0744359 -0.199109 -4.05178e-25)
(-0.0913351 -0.201584 0)
(-0.106249 -0.202244 5.52883e-25)
(-0.121116 -0.201026 6.57501e-25)
(-0.136963 -0.197123 2.31134e-25)
(-0.151731 -0.191993 -4.69989e-26)
(-0.164554 -0.187325 7.13808e-25)
(-0.176291 -0.1834 5.95026e-25)
(-0.187601 -0.17944 -1.70852e-24)
(-0.0121226 -0.21983 3.71154e-36)
(-0.0358987 -0.218938 2.39096e-25)
(-0.0605171 -0.216978 5.52747e-26)
(-0.0870358 -0.213804 -2.65263e-25)
(-0.107461 -0.214976 -1.63882e-25)
(-0.120324 -0.218255 -2.47166e-25)
(-0.133788 -0.215901 3.65381e-25)
(-0.149428 -0.21105 0)
(-0.16528 -0.205192 -1.50755e-24)
(-0.179712 -0.199318 7.72006e-25)
(-0.192696 -0.193722 7.90236e-25)
(-0.204535 -0.188233 -1.61771e-24)
(-0.0135454 -0.241015 1.16594e-25)
(-0.0397404 -0.240877 1.92511e-25)
(-0.0662735 -0.239628 -1.71249e-25)
(-0.0950655 -0.234499 -5.15674e-25)
(-0.116918 -0.22805 -1.32585e-25)
(-0.129386 -0.226337 1.03866e-25)
(-0.142763 -0.225481 3.73268e-25)
(-0.159639 -0.221502 -2.48204e-25)
(-0.176565 -0.215457 -3.50672e-25)
(-0.19164 -0.208807 8.07761e-25)
(-0.204691 -0.20174 2.10872e-25)
(-0.216191 -0.194544 -5.56406e-25)
(-0.0160228 -0.262215 1.69678e-25)
(-0.0448079 -0.263104 -3.78528e-26)
(-0.0719564 -0.262128 -9.29e-26)
(-0.0990309 -0.256412 -2.3818e-25)
(-0.12221 -0.246605 4.25318e-25)
(-0.139034 -0.240512 4.80062e-25)
(-0.154523 -0.237788 -4.9054e-25)
(-0.171101 -0.233367 -5.84647e-25)
(-0.187396 -0.226217 4.57421e-25)
(-0.201365 -0.218283 1.70435e-34)
(-0.213157 -0.209473 -1.46922e-24)
(-0.2236 -0.20022 2.76902e-25)
(-0.0193615 -0.283434 9.25208e-26)
(-0.050231 -0.285416 5.266e-26)
(-0.0768714 -0.28387 6.75749e-25)
(-0.10162 -0.279075 1.27104e-24)
(-0.128121 -0.271032 5.51005e-26)
(-0.148154 -0.264757 6.03437e-25)
(-0.165937 -0.256862 0)
(-0.181742 -0.248993 0)
(-0.196236 -0.239526 0)
(-0.207881 -0.228694 -2.55223e-24)
(-0.217943 -0.217572 -3.44464e-24)
(-0.227374 -0.206025 1.7304e-24)
(-0.0240496 -0.30496 -1.98361e-25)
(-0.0563133 -0.309049 -4.3491e-25)
(-0.0818489 -0.306413 4.68009e-25)
(-0.105871 -0.300633 2.02185e-25)
(-0.131544 -0.290207 2.31503e-25)
(-0.152354 -0.280399 -2.46005e-25)
(-0.171152 -0.271083 1.21818e-24)
(-0.186587 -0.261363 -3.35513e-25)
(-0.199647 -0.250581 -2.28276e-25)
(-0.210277 -0.238501 -2.05947e-24)
(-0.219129 -0.225121 -3.2553e-24)
(-0.227745 -0.211045 2.91324e-25)
(-0.0306671 -0.326779 -1.03915e-25)
(-0.0627095 -0.334647 -8.09599e-25)
(-0.0839144 -0.328469 1.51807e-25)
(-0.106318 -0.316803 -1.91872e-24)
(-0.131982 -0.302394 6.67054e-26)
(-0.154501 -0.29034 -1.35258e-25)
(-0.173272 -0.279974 1.79807e-24)
(-0.187804 -0.269318 0)
(-0.199301 -0.257561 1.63168e-24)
(-0.207594 -0.244312 1.62366e-24)
(-0.214347 -0.228688 -1.45124e-24)
(-0.221972 -0.211568 -1.55693e-24)
(-0.0418519 -0.34904 1.00352e-25)
(-0.0702427 -0.359671 -5.6142e-25)
(-0.0797863 -0.346299 -1.77797e-25)
(-0.0989772 -0.325557 -1.29832e-24)
(-0.126051 -0.305079 -1.32582e-25)
(-0.151061 -0.290368 0)
(-0.169963 -0.279157 -1.1865e-27)
(-0.182256 -0.268009 -1.91682e-25)
(-0.191389 -0.255498 1.21472e-24)
(-0.195871 -0.241489 1.3805e-24)
(-0.198538 -0.222627 1.48194e-24)
(-0.203536 -0.199929 0)
(-0.0356553 -0.357702 5.62787e-25)
(-0.0625586 -0.362145 3.99256e-25)
(-0.0590491 -0.346127 -1.24343e-24)
(-0.0791011 -0.320931 -5.56524e-25)
(-0.112187 -0.295019 -8.24201e-26)
(-0.140522 -0.277418 2.74762e-25)
(-0.159322 -0.266484 5.62695e-26)
(-0.167732 -0.25635 5.68479e-26)
(-0.173747 -0.244682 -8.64903e-26)
(-0.172512 -0.233131 0)
(-0.167003 -0.213833 1.54473e-24)
(-0.165239 -0.182384 2.79981e-24)
(-0.12486 -0.104271 1.08766e-25)
(-0.130997 -0.0984409 3.53682e-25)
(-0.137492 -0.0901298 6.3982e-26)
(-0.140992 -0.0829023 8.45055e-26)
(-0.143852 -0.0723405 0)
(-0.145287 -0.0620985 -1.71167e-25)
(-0.145285 -0.0515571 -9.94154e-26)
(-0.144028 -0.041018 6.39858e-27)
(-0.14292 -0.0291566 0)
(-0.141734 -0.0192911 -4.35874e-26)
(-0.140016 -0.0114551 2.44658e-26)
(-0.137467 -0.00519632 -6.77486e-28)
(-0.14527 -0.140609 -3.7587e-25)
(-0.152523 -0.127711 1.65753e-25)
(-0.160354 -0.117602 -1.00676e-25)
(-0.164587 -0.111916 -3.20858e-25)
(-0.169024 -0.102585 0)
(-0.170543 -0.0927067 0)
(-0.170117 -0.0816953 -4.86966e-26)
(-0.16838 -0.0695723 -1.02151e-26)
(-0.165632 -0.0544204 -6.83035e-26)
(-0.160444 -0.041121 8.29197e-26)
(-0.156654 -0.0258553 -8.73291e-26)
(-0.156453 -0.01234 -1.44848e-26)
(-0.172918 -0.165112 -3.32462e-25)
(-0.188051 -0.152578 3.40038e-25)
(-0.196362 -0.140394 0)
(-0.20028 -0.131102 1.67823e-35)
(-0.201561 -0.122213 0)
(-0.200819 -0.112738 0)
(-0.198653 -0.101855 0)
(-0.1952 -0.0889624 0)
(-0.190522 -0.0734488 -1.31091e-25)
(-0.186468 -0.0564875 1.37568e-25)
(-0.182931 -0.0341175 -1.43022e-26)
(-0.17946 -0.0141772 2.79457e-26)
(-0.198673 -0.175354 -8.60853e-26)
(-0.20956 -0.168039 -5.99343e-25)
(-0.21697 -0.159402 0)
(-0.221442 -0.151174 1.16394e-24)
(-0.223641 -0.143065 0)
(-0.223828 -0.134446 3.73023e-25)
(-0.222209 -0.124408 -3.61591e-25)
(-0.218808 -0.111896 1.71653e-25)
(-0.213721 -0.0957723 6.92347e-25)
(-0.207643 -0.0753621 1.74836e-25)
(-0.201089 -0.0496654 1.96229e-25)
(-0.198573 -0.0207033 5.69556e-26)
(-0.215395 -0.18261 0)
(-0.225079 -0.176 -8.31374e-25)
(-0.23259 -0.168943 0)
(-0.237974 -0.162155 8.33954e-25)
(-0.241527 -0.155588 0)
(-0.24338 -0.148839 4.14232e-25)
(-0.243499 -0.141043 -5.68835e-25)
(-0.241685 -0.130822 5.23771e-26)
(-0.23778 -0.116198 9.81005e-25)
(-0.231973 -0.0947894 0)
(-0.224976 -0.0641629 2.53827e-25)
(-0.220615 -0.0244025 -7.52435e-26)
(-0.226441 -0.187426 0)
(-0.235352 -0.180327 9.32705e-25)
(-0.24266 -0.173444 9.61611e-25)
(-0.248533 -0.16705 -1.12623e-25)
(-0.253239 -0.161258 1.41172e-26)
(-0.256922 -0.155919 0)
(-0.259475 -0.150417 -1.05186e-24)
(-0.260508 -0.143387 -1.68332e-25)
(-0.259368 -0.132294 -3.83829e-34)
(-0.25548 -0.113264 0)
(-0.248736 -0.0808337 2.01963e-25)
(-0.242435 -0.0317876 -8.86929e-26)
(-0.233037 -0.191234 1.16687e-25)
(-0.241174 -0.182857 1.03172e-24)
(-0.247841 -0.175103 8.39138e-25)
(-0.25345 -0.167957 1.81555e-26)
(-0.258568 -0.161606 1.1536e-25)
(-0.263519 -0.156277 9.40646e-25)
(-0.268338 -0.151854 -1.36787e-25)
(-0.272639 -0.147475 -1.30268e-24)
(-0.275495 -0.140765 -1.18601e-24)
(-0.275554 -0.126876 6.58121e-25)
(-0.271317 -0.0967854 1.45548e-25)
(-0.264608 -0.0411163 1.29457e-33)
(-0.236388 -0.194987 6.97593e-26)
(-0.244013 -0.185234 1.70807e-25)
(-0.249676 -0.176466 8.92138e-26)
(-0.254262 -0.167866 2.56712e-25)
(-0.258864 -0.159718 1.26376e-25)
(-0.264156 -0.152763 9.82953e-25)
(-0.270387 -0.147454 2.04594e-24)
(-0.277401 -0.14374 -7.1711e-25)
(-0.284547 -0.1402 -1.35726e-24)
(-0.290187 -0.132457 5.32973e-25)
(-0.291194 -0.108682 2.695e-25)
(-0.287061 -0.0509279 0)
(-0.236998 -0.197969 1.09596e-25)
(-0.245041 -0.187448 -1.10903e-25)
(-0.249512 -0.178574 0)
(-0.252241 -0.168607 -1.44476e-24)
(-0.255583 -0.157972 2.04281e-25)
(-0.260462 -0.148194 -8.78663e-27)
(-0.26723 -0.140298 -2.70225e-26)
(-0.275873 -0.134874 0)
(-0.286351 -0.131532 -8.50766e-25)
(-0.297825 -0.128048 7.41601e-25)
(-0.306649 -0.112592 2.96627e-25)
(-0.309547 -0.0596143 1.43244e-25)
(-0.23228 -0.196185 1.45899e-24)
(-0.242665 -0.185861 -3.46094e-26)
(-0.246124 -0.179937 0)
(-0.246534 -0.169943 -2.88885e-24)
(-0.248376 -0.156738 -1.96162e-25)
(-0.252775 -0.143621 -2.04971e-25)
(-0.259884 -0.132265 -8.89016e-25)
(-0.269735 -0.123625 -2.10091e-26)
(-0.282599 -0.117667 -9.79556e-26)
(-0.298746 -0.11452 -6.04324e-25)
(-0.31558 -0.105635 -5.79531e-26)
(-0.329792 -0.0638485 1.45007e-25)
(-0.214054 -0.180396 2.01585e-24)
(-0.229238 -0.170969 1.11252e-24)
(-0.231881 -0.174485 0)
(-0.230975 -0.168235 -8.63416e-25)
(-0.233541 -0.153638 -1.09501e-24)
(-0.23905 -0.137816 -1.60253e-25)
(-0.247291 -0.123216 -1.53102e-25)
(-0.258346 -0.111156 -1.6452e-24)
(-0.272774 -0.101438 0)
(-0.291408 -0.0944024 -9.634e-25)
(-0.315768 -0.0861202 5.7167e-25)
(-0.344064 -0.0565276 -3.79457e-25)
(-0.169072 -0.146595 -7.95879e-25)
(-0.189044 -0.121362 -3.56592e-25)
(-0.18752 -0.138223 0)
(-0.189624 -0.149047 2.25811e-24)
(-0.202282 -0.141072 -2.49099e-24)
(-0.215122 -0.127343 1.44442e-24)
(-0.227349 -0.111931 1.40576e-24)
(-0.24063 -0.0976471 -1.33905e-24)
(-0.256219 -0.0850905 0)
(-0.274084 -0.0725976 0)
(-0.302782 -0.054984 8.3539e-25)
(-0.338718 -0.0179572 5.51576e-26)
(-0.136058 0.00640834 -5.06858e-27)
(-0.134635 0.0150611 -1.76915e-26)
(-0.132169 0.0258806 0)
(-0.130541 0.0386355 0)
(-0.130417 0.0488438 0)
(-0.129931 0.055442 -1.60784e-25)
(-0.127056 0.0635754 -7.19733e-26)
(-0.123421 0.0720743 0)
(-0.119258 0.0804642 -2.22144e-25)
(-0.114592 0.0885162 1.60703e-25)
(-0.109231 0.0964809 1.3145e-25)
(-0.103445 0.104042 6.54163e-26)
(-0.157689 0.00470485 -1.01239e-26)
(-0.159739 0.0130721 2.9712e-26)
(-0.160854 0.0257847 0)
(-0.158547 0.0416521 -4.65396e-26)
(-0.15583 0.0533122 -3.38909e-26)
(-0.155281 0.0606133 -1.1815e-25)
(-0.153654 0.0710489 -8.89166e-26)
(-0.150753 0.0822456 3.10199e-26)
(-0.14708 0.0934426 1.31367e-25)
(-0.142798 0.104414 1.07156e-25)
(-0.137589 0.115369 5.02079e-26)
(-0.131775 0.125851 1.38065e-25)
(-0.177871 0.00973424 1.01059e-26)
(-0.178498 0.0238468 -2.50621e-36)
(-0.179505 0.036096 0)
(-0.178933 0.0500805 0)
(-0.176628 0.0637577 3.4357e-26)
(-0.174547 0.075897 1.19322e-25)
(-0.172127 0.0885045 1.28856e-25)
(-0.168782 0.101357 2.53498e-25)
(-0.164472 0.114145 2.6138e-25)
(-0.159251 0.126626 -2.68991e-25)
(-0.153117 0.138619 0)
(-0.145896 0.149628 5.43885e-25)
(-0.199119 0.0112079 -2.62748e-26)
(-0.199816 0.0282848 -7.41814e-26)
(-0.200212 0.0432581 0)
(-0.199763 0.0581704 -2.69195e-25)
(-0.197921 0.0732474 5.42748e-26)
(-0.195321 0.0875777 3.75032e-25)
(-0.191981 0.101793 0)
(-0.187688 0.115902 4.21908e-25)
(-0.182415 0.129727 -5.38775e-25)
(-0.176245 0.143012 4.33977e-25)
(-0.169332 0.155439 7.57725e-25)
(-0.16196 0.166583 9.3192e-25)