/*--------------------------------*- C++ -*----------------------------------*\
| =========                 |                                                 |
| \\      /  F ield         | OpenFOAM: The Open Source CFD Toolbox           |
|  \\    /   O peration     | Version:  v1606+                                |
|   \\  /    A nd           | Web:      www.OpenFOAM.com                      |
|    \\/     M anipulation  |                                                 |
\*---------------------------------------------------------------------------*/
FoamFile
{
    version     2.0;
    format      ascii;
    class       surfaceScalarField;
    location    "0.13";
    object      phi.particles;
}
// * * * * * * * * * * * * * * * * * * * * * * * * * * * * * * * * * * * * * //

dimensions      [0 3 -1 0 0 0 0];

internalField   nonuniform List<scalar> 
11770
(
-1.79609e-06
-2.31183e-05
-9.3173e-07
-2.24958e-05
3.54979e-07
-2.20971e-05
1.3667e-06
-2.19974e-05
2.22665e-06
-2.21041e-05
2.84361e-06
-2.23821e-05
3.16908e-06
-2.27462e-05
3.23654e-06
-2.29644e-05
3.11426e-06
-2.31551e-05
2.80619e-06
-2.32368e-05
2.37549e-06
-2.32782e-05
1.87247e-06
-2.33124e-05
1.30137e-06
-2.33425e-05
6.68543e-07
-2.34002e-05
1.39671e-09
-2.34057e-05
-6.60067e-07
-2.33779e-05
-1.27619e-06
-2.33641e-05
-1.82356e-06
-2.33378e-05
-2.30917e-06
-2.33086e-05
-2.73953e-06
-2.32728e-05
-3.08865e-06
-2.32589e-05
-3.27558e-06
-2.32028e-05
-3.226e-06
-2.30633e-05
-2.88127e-06
-2.27905e-05
-2.21296e-06
-2.24251e-05
-1.28516e-06
-2.21393e-05
-2.14597e-07
-2.20319e-05
1.16111e-06
-2.21539e-05
2.02837e-06
-2.25842e-05
-2.33757e-05
-2.29651e-07
-1.27865e-05
8.11503e-08
-1.29903e-05
1.21321e-06
-1.26903e-05
2.0649e-06
-1.21633e-05
2.79311e-06
-1.1723e-05
3.29472e-06
-1.13941e-05
3.5607e-06
-1.11313e-05
3.62621e-06
-1.09778e-05
3.49808e-06
-1.09887e-05
3.18731e-06
-1.09243e-05
2.73049e-06
-1.08639e-05
2.16146e-06
-1.07969e-05
1.49887e-06
-1.07222e-05
7.63135e-07
-1.07008e-05
-6.79158e-09
-1.06743e-05
-7.7079e-07
-1.06507e-05
-1.49564e-06
-1.06557e-05
-2.1488e-06
-1.07124e-05
-2.71288e-06
-1.07937e-05
-3.1695e-06
-1.08575e-05
-3.48168e-06
-1.09441e-05
-3.61366e-06
-1.09899e-05
-3.54999e-06
-1.10293e-05
-3.27558e-06
-1.12026e-05
-2.75915e-06
-1.14704e-05
-2.00681e-06
-1.18448e-05
-1.10982e-06
-1.22717e-05
5.05457e-08
-1.28497e-05
3.369e-07
-1.31209e-05
-1.2923e-05
3.28645e-07
-1.46005e-05
6.7663e-07
-1.67918e-05
1.77851e-06
-1.71312e-05
2.77677e-06
-1.68433e-05
3.51414e-06
-1.6328e-05
3.88475e-06
-1.57576e-05
3.96124e-06
-1.52379e-05
3.85034e-06
-1.48566e-05
3.5965e-06
-1.46194e-05
3.22772e-06
-1.44542e-05
2.74223e-06
-1.43131e-05
2.1486e-06
-1.41938e-05
1.47759e-06
-1.40929e-05
7.51719e-07
-1.40376e-05
-3.00473e-09
-1.40047e-05
-7.56509e-07
-1.39985e-05
-1.48425e-06
-1.40262e-05
-2.16282e-06
-1.40954e-05
-2.75983e-06
-1.42063e-05
-3.24459e-06
-1.43311e-05
-3.60515e-06
-1.44689e-05
-3.83814e-06
-1.4634e-05
-3.93605e-06
-1.48877e-05
-3.85178e-06
-1.52866e-05
-3.47739e-06
-1.58161e-05
-2.73493e-06
-1.64107e-05
-1.72316e-06
-1.69587e-05
-6.36418e-07
-1.72634e-05
-3.25756e-07
-1.69011e-05
-1.46763e-05
7.1602e-07
-1.27575e-05
8.54289e-07
-1.49889e-05
1.91068e-06
-1.56902e-05
2.92116e-06
-1.56619e-05
3.73878e-06
-1.53805e-05
4.2821e-06
-1.5006e-05
4.46938e-06
-1.4609e-05
4.32703e-06
-1.42736e-05
3.92323e-06
-1.40489e-05
3.38407e-06
-1.39141e-05
2.78202e-06
-1.38332e-05
2.12525e-06
-1.37809e-05
1.43195e-06
-1.37543e-05
7.21403e-07
-1.376e-05
2.78901e-09
-1.3766e-05
-7.2058e-07
-1.3767e-05
-1.44225e-06
-1.37637e-05
-2.14724e-06
-1.37633e-05
-2.81004e-06
-1.37959e-05
-3.41082e-06
-1.3845e-05
-3.93707e-06
-1.39185e-05
-4.32044e-06
-1.40531e-05
-4.4504e-06
-1.42886e-05
-4.26159e-06
-1.46453e-05
-3.72312e-06
-1.50543e-05
-2.91493e-06
-1.5455e-05
-1.93093e-06
-1.57704e-05
-9.13448e-07
-1.58063e-05
-7.78237e-07
-1.50664e-05
-1.28297e-05
4.6929e-07
-8.88127e-06
7.22928e-07
-1.13594e-05
1.92302e-06
-1.21246e-05
2.95485e-06
-1.21383e-05
3.79389e-06
-1.19393e-05
4.40443e-06
-1.16645e-05
4.70749e-06
-1.14164e-05
4.7085e-06
-1.1217e-05
4.42627e-06
-1.1089e-05
3.87797e-06
-1.10159e-05
3.16355e-06
-1.09882e-05
2.36893e-06
-1.09818e-05
1.55709e-06
-1.10022e-05
7.66262e-07
-1.10466e-05
-3.27754e-09
-1.10777e-05
-7.75785e-07
-1.10819e-05
-1.57327e-06
-1.10559e-05
-2.39194e-06
-1.10109e-05
-3.18952e-06
-1.09939e-05
-3.90153e-06
-1.09963e-05
-4.43999e-06
-1.10186e-05
-4.70986e-06
-1.10924e-05
-4.70247e-06
-1.12291e-05
-4.40403e-06
-1.1444e-05
-3.80747e-06
-1.17048e-05
-2.98994e-06
-1.19991e-05
-1.98558e-06
-1.22289e-05
-8.04411e-07
-1.22303e-05
-5.46514e-07
-1.14193e-05
-8.92167e-06
5.68213e-07
-3.78732e-06
9.01791e-07
-6.71399e-06
2.13048e-06
-7.43497e-06
3.07569e-06
-7.29964e-06
3.81011e-06
-7.00411e-06
4.35536e-06
-6.74059e-06
4.67299e-06
-6.57901e-06
4.74912e-06
-6.50802e-06
4.59156e-06
-6.50596e-06
4.17609e-06
-6.557e-06
3.53439e-06
-6.62966e-06
2.7403e-06
-6.68931e-06
1.85232e-06
-6.74939e-06
9.26645e-07
-6.81639e-06
-7.91396e-09
-6.85627e-06
-9.43416e-07
-6.85728e-06
-1.87166e-06
-6.81881e-06
-2.76203e-06
-6.7508e-06
-3.55565e-06
-6.69304e-06
-4.19354e-06
-6.63022e-06
-4.60279e-06
-6.55346e-06
-4.7551e-06
-6.50304e-06
-4.67903e-06
-6.5106e-06
-4.37083e-06
-6.59012e-06
-3.84464e-06
-6.76366e-06
-3.13623e-06
-7.04097e-06
-2.22118e-06
-7.36628e-06
-1.00491e-06
-7.5151e-06
-6.58833e-07
-6.74923e-06
-3.79919e-06
1.2036e-06
1.87544e-06
1.58814e-06
-1.50686e-06
2.65335e-06
-2.06365e-06
3.33317e-06
-1.72261e-06
3.81341e-06
-1.25153e-06
4.17782e-06
-9.41984e-07
4.41445e-06
-8.17309e-07
4.49149e-06
-8.38572e-07
4.37873e-06
-9.55585e-07
4.04489e-06
-1.14163e-06
3.50222e-06
-1.3317e-06
2.7827e-06
-1.49159e-06
1.92447e-06
-1.62511e-06
9.77943e-07
-1.73901e-06
-9.49382e-09
-1.80131e-06
-9.96356e-07
-1.79968e-06
-1.94184e-06
-1.73607e-06
-2.79893e-06
-1.62034e-06
-3.51656e-06
-1.48785e-06
-4.05634e-06
-1.32528e-06
-4.3869e-06
-1.13222e-06
-4.49872e-06
-9.4692e-07
-4.42501e-06
-8.33939e-07
-4.19902e-06
-8.17698e-07
-3.85383e-06
-9.52572e-07
-3.39775e-06
-1.27406e-06
-2.75183e-06
-1.77657e-06
-1.70972e-06
-2.11799e-06
-1.30997e-06
-1.53141e-06
1.88243e-06
2.2669e-06
7.66733e-06
2.7204e-06
4.0549e-06
3.51094e-06
3.66942e-06
3.79594e-06
4.1953e-06
3.92521e-06
4.92455e-06
4.014e-06
5.39598e-06
4.07603e-06
5.60809e-06
4.06673e-06
5.60465e-06
3.9258e-06
5.43751e-06
3.61851e-06
5.17102e-06
3.15048e-06
4.8899e-06
2.52843e-06
4.63693e-06
1.7701e-06
4.42571e-06
9.0858e-07
4.26084e-06
-7.19257e-09
4.17267e-06
-9.21691e-07
4.17482e-06
-1.78053e-06
4.26592e-06
-2.53671e-06
4.43417e-06
-3.15786e-06
4.64566e-06
-3.62498e-06
4.90127e-06
-3.93054e-06
5.1842e-06
-4.07263e-06
5.44967e-06
-4.08738e-06
5.61375e-06
-4.03627e-06
5.61313e-06
-3.96574e-06
5.39218e-06
-3.861e-06
4.90857e-06
-3.61799e-06
4.15026e-06
-2.85331e-06
3.6245e-06
-2.37972e-06
4.03282e-06
7.68137e-06
3.45117e-06
1.3223e-05
4.02104e-06
9.57528e-06
4.54857e-06
9.20101e-06
4.50527e-06
9.83921e-06
4.3335e-06
1.08192e-05
4.15864e-06
1.15902e-05
4.00699e-06
1.21093e-05
3.83579e-06
1.23602e-05
3.58849e-06
1.2366e-05
3.23484e-06
1.21987e-05
2.77655e-06
1.19457e-05
2.21653e-06
1.16764e-05
1.55427e-06
1.1434e-05
8.01174e-07
1.1245e-05
-4.77565e-09
1.11437e-05
-8.09553e-07
1.11461e-05
-1.55994e-06
1.12516e-05
-2.22001e-06
1.14446e-05
-2.77964e-06
1.16878e-05
-3.23774e-06
1.19593e-05
-3.59094e-06
1.22132e-05
-3.84133e-06
1.23789e-05
-4.01959e-06
1.23695e-05
-4.18155e-06
1.21139e-05
-4.37242e-06
1.15868e-05
-4.57036e-06
1.08047e-05
-4.65178e-06
9.8047e-06
-4.15268e-06
9.16153e-06
-3.56646e-06
9.56042e-06
1.32406e-05
4.2627e-06
1.80678e-05
5.03121e-06
1.43997e-05
5.47914e-06
1.37895e-05
5.35643e-06
1.44225e-05
5.11713e-06
1.55524e-05
4.83271e-06
1.66967e-05
4.52754e-06
1.77215e-05
4.18137e-06
1.85173e-05
3.76635e-06
1.90327e-05
3.27697e-06
1.9281e-05
2.72808e-06
1.93255e-05
2.12873e-06
1.92462e-05
1.4722e-06
1.91152e-05
7.54595e-07
1.89897e-05
-2.53953e-09
1.8917e-05
-7.59343e-07
1.89197e-05
-1.47598e-06
1.89975e-05
-2.13167e-06
1.91267e-05
-2.73145e-06
1.92583e-05
-3.28113e-06
1.93387e-05
-3.77187e-06
1.92939e-05
-4.19155e-06
1.90431e-05
-4.54517e-06
1.85233e-05
-4.85925e-06
1.77222e-05
-5.15628e-06
1.66905e-05
-5.41722e-06
1.55378e-05
-5.57245e-06
1.43957e-05
-5.14677e-06
1.37649e-05
-4.36074e-06
1.44014e-05
1.80971e-05
4.31409e-06
2.14242e-05
5.33239e-06
1.75754e-05
6.05779e-06
1.66171e-05
6.28796e-06
1.71995e-05
6.35855e-06
1.84496e-05
6.24331e-06
1.99841e-05
5.944e-06
2.1592e-05
5.472e-06
2.30995e-05
4.85307e-06
2.43707e-05
4.12982e-06
2.5327e-05
3.34951e-06
2.59714e-05
2.54384e-06
2.63575e-05
1.71847e-06
2.65582e-05
8.67848e-07
2.66452e-05
-1.89124e-09
2.66758e-05
-8.7227e-07
2.66783e-05
-1.72407e-06
2.66521e-05
-2.55089e-06
2.65676e-05
-3.35925e-06
2.63674e-05
-4.14278e-06
2.59816e-05
-4.86977e-06
2.53371e-05
-5.49425e-06
2.43802e-05
-5.97268e-06
2.31077e-05
-6.27838e-06
2.15984e-05
-6.40181e-06
1.99867e-05
-6.34408e-06
1.84459e-05
-6.13466e-06
1.71878e-05
-5.41939e-06
1.66085e-05
-4.38363e-06
1.75905e-05
2.14718e-05
3.66781e-06
2.26603e-05
5.02224e-06
1.85527e-05
6.39913e-06
1.74691e-05
7.26575e-06
1.81786e-05
7.81041e-06
1.96965e-05
8.02099e-06
2.16201e-05
7.9034e-06
2.36984e-05
7.46826e-06
2.57467e-05
6.74681e-06
2.76232e-05
5.80115e-06
2.92333e-05
4.71163e-06
3.05418e-05
3.55276e-06
3.15393e-05
2.3712e-06
3.22351e-05
1.18426e-06
3.26613e-05
-4.16228e-09
3.28611e-05
-1.19304e-06
3.28619e-05
-2.3805e-06
3.26633e-05
-3.56184e-06
3.22377e-05
-4.71973e-06
3.15426e-05
-5.80687e-06
3.05474e-05
-6.74961e-06
2.92435e-05
-7.47029e-06
2.76396e-05
-7.90886e-06
2.57699e-05
-8.03499e-06
2.37271e-05
-7.83782e-06
2.165e-05
-7.30954e-06
1.97214e-05
-6.45787e-06
1.81929e-05
-5.08102e-06
1.74747e-05
-3.71067e-06
1.85683e-05
2.27188e-05
3.13923e-06
2.18715e-05
4.9185e-06
1.78751e-05
6.76554e-06
1.70644e-05
7.9287e-06
1.81712e-05
8.53598e-06
2.01234e-05
8.6972e-06
2.24324e-05
8.50545e-06
2.48377e-05
8.03614e-06
2.71642e-05
7.34318e-06
2.93001e-05
6.45578e-06
3.11803e-05
5.38865e-06
3.27727e-05
4.16543e-06
3.40525e-05
2.82844e-06
3.50022e-05
1.42594e-06
3.56227e-05
-2.6515e-09
3.59277e-05
-1.42972e-06
3.59274e-05
-2.82752e-06
3.56219e-05
-4.15704e-06
3.50017e-05
-5.37105e-06
3.40542e-05
-6.42841e-06
3.27798e-05
-7.30761e-06
3.11964e-05
-7.99664e-06
2.93282e-05
-8.4686e-06
2.72057e-05
-8.67108e-06
2.48911e-05
-8.52874e-06
2.24929e-05
-7.94561e-06
2.01818e-05
-6.80478e-06
1.82155e-05
-4.96223e-06
1.70861e-05
-3.16965e-06
1.78837e-05
2.19221e-05
3.1533e-06
1.9728e-05
5.2522e-06
1.63895e-05
7.09265e-06
1.62185e-05
8.11346e-06
1.78818e-05
8.49493e-06
2.02959e-05
8.41935e-06
2.29639e-05
8.01421e-06
2.56409e-05
7.38029e-06
2.8174e-05
6.58907e-06
3.0468e-05
5.68535e-06
3.24672e-05
4.69041e-06
3.41453e-05
3.61312e-06
3.54904e-05
2.46082e-06
3.64968e-05
1.24791e-06
3.71648e-05
1.5175e-09
3.74974e-05
-1.24294e-06
3.74969e-05
-2.45034e-06
3.71636e-05
-3.59433e-06
3.64964e-05
-4.66144e-06
3.54932e-05
-5.64523e-06
3.41549e-05
-6.53859e-06
3.24882e-05
-7.32268e-06
3.05049e-05
-7.95526e-06
2.82294e-05
-8.36717e-06
2.57141e-05
-8.45951e-06
2.30497e-05
-8.10321e-06
2.03836e-05
-7.11048e-06
1.7956e-05
-5.28603e-06
1.62615e-05
-3.18196e-06
1.63945e-05
1.97483e-05
3.67925e-06
1.68511e-05
5.71181e-06
1.46963e-05
7.19224e-06
1.5385e-05
7.89942e-06
1.75955e-05
8.04082e-06
2.04156e-05
7.78328e-06
2.34038e-05
7.2534e-06
2.63285e-05
6.54558e-06
2.90437e-05
5.72752e-06
3.14593e-05
4.84788e-06
3.35334e-05
3.93078e-06
3.52589e-05
2.98351e-06
3.66419e-05
2.00882e-06
3.76848e-05
1.0121e-06
3.83845e-05
3.27076e-09
3.87357e-05
-1.00407e-06
3.87348e-05
-1.99632e-06
3.83822e-05
-2.96369e-06
3.76828e-05
-3.90116e-06
3.66431e-05
-4.80606e-06
3.52676e-05
-5.67306e-06
3.35556e-05
-6.48073e-06
3.15015e-05
-7.18326e-06
2.91103e-05
-7.7151e-06
2.64193e-05
-7.98419e-06
2.35124e-05
-7.86484e-06
2.05297e-05
-7.18896e-06
1.76984e-05
-5.73878e-06
1.54542e-05
-3.7149e-06
1.47082e-05
1.68217e-05
4.21129e-06
1.35962e-05
5.87472e-06
1.3165e-05
6.92245e-06
1.47288e-05
7.34747e-06
1.73895e-05
7.32181e-06
2.05536e-05
6.96536e-06
2.38367e-05
6.38172e-06
2.70024e-05
5.66782e-06
2.9882e-05
4.89285e-06
3.23776e-05
4.10038e-06
3.44767e-05
3.30422e-06
3.62043e-05
2.4997e-06
3.75865e-05
1.68024e-06
3.86334e-05
8.455e-07
3.93407e-05
1.40985e-09
3.96976e-05
-8.41543e-07
3.96963e-05
-1.67267e-06
3.93371e-05
-2.48579e-06
3.86288e-05
-3.28095e-06
3.75836e-05
-4.06386e-06
3.62084e-05
-4.84116e-06
3.44951e-05
-5.60181e-06
3.24194e-05
-6.30567e-06
2.9955e-05
-6.88645e-06
2.71084e-05
-7.24982e-06
2.3967e-05
-7.29179e-06
2.06929e-05
-6.89474e-06
1.75197e-05
-5.88554e-06
1.48275e-05
-4.25117e-06
1.31917e-05
1.35038e-05
4.341e-06
1.02901e-05
5.58882e-06
1.18746e-05
6.29773e-06
1.42363e-05
6.53204e-06
1.72593e-05
6.40695e-06
2.07311e-05
5.99942e-06
2.43094e-05
5.40089e-06
2.77057e-05
4.72513e-06
3.07114e-05
4.05507e-06
3.32324e-05
3.40816e-06
3.53033e-05
2.76926e-06
3.70017e-05
2.11645e-06
3.8376e-05
1.43571e-06
3.94346e-05
7.25763e-07
4.01606e-05
-2.1481e-09
4.05307e-05
-7.29541e-07
4.05289e-05
-1.43759e-06
4.01555e-05
-2.11417e-06
3.94267e-05
-2.75893e-06
3.83673e-05
-3.38566e-06
3.69965e-05
-4.0161e-06
3.53103e-05
-4.66719e-06
3.32643e-05
-5.32541e-06
3.0782e-05
-5.91464e-06
2.78207e-05
-6.32276e-06
2.4458e-05
-6.45695e-06
2.08934e-05
-6.24221e-06
1.74141e-05
-5.56647e-06
1.43641e-05
-4.35441e-06
1.19226e-05
1.01482e-05
3.86893e-06
7.31565e-06
4.85223e-06
1.07738e-05
5.35529e-06
1.38253e-05
5.48839e-06
1.71733e-05
5.29256e-06
2.09481e-05
4.84631e-06
2.48644e-05
4.29688e-06
2.85085e-05
3.75604e-06
3.15555e-05
3.27445e-06
3.39877e-05
2.83109e-06
3.59622e-05
2.37394e-06
3.76126e-05
1.86466e-06
3.89905e-05
1.2899e-06
4.0084e-05
6.58462e-07
4.08513e-05
-5.52859e-09
4.1248e-05
-6.69849e-07
4.12462e-05
-1.30197e-06
4.08458e-05
-1.87671e-06
4.0074e-05
-2.38326e-06
3.89762e-05
-2.83231e-06
3.75966e-05
-3.26067e-06
3.59511e-05
-3.72059e-06
3.39973e-05
-4.23583e-06
3.16073e-05
-4.76465e-06
2.86208e-05
-5.20029e-06
2.5027e-05
-5.39762e-06
2.11266e-05
-5.27073e-06
1.73441e-05
-4.78869e-06
1.39703e-05
-3.82195e-06
1.08442e-05
7.17652e-06
2.85401e-06
5.05144e-06
3.74785e-06
9.79022e-06
4.12797e-06
1.33858e-05
4.20904e-06
1.70849e-05
3.96912e-06
2.12511e-05
3.54823e-06
2.55996e-05
3.14956e-06
2.94029e-05
2.87412e-06
3.22913e-05
2.68678e-06
3.45025e-05
2.48925e-06
3.63534e-05
2.20306e-06
3.79855e-05
1.79535e-06
3.94164e-05
1.27077e-06
4.05953e-05
6.5642e-07
4.14434e-05
-6.74708e-09
4.18883e-05
-6.71232e-07
4.18875e-05
-1.28926e-06
4.14401e-05
-1.81889e-06
4.05872e-05
-2.23119e-06
3.9401e-05
-2.51956e-06
3.79615e-05
-2.71018e-06
3.63252e-05
-2.88046e-06
3.44803e-05
-3.12357e-06
3.23041e-05
-3.48662e-06
2.94867e-05
-3.88403e-06
2.57621e-05
-4.11414e-06
2.14403e-05
-4.0267e-06
1.72577e-05
-3.65927e-06
1.35163e-05
-2.76304e-06
9.87268e-06
4.96853e-06
1.7372e-06
3.60727e-06
2.46985e-06
8.87591e-06
2.69536e-06
1.28107e-05
2.71194e-06
1.69962e-05
2.4484e-06
2.17497e-05
2.21816e-06
2.6609e-05
2.22076e-06
3.02218e-05
2.38833e-06
3.2672e-05
2.54475e-06
3.46317e-05
2.54155e-06
3.64136e-05
2.34143e-06
3.8111e-05
1.94993e-06
3.96767e-05
1.39688e-06
4.10071e-05
7.27227e-07
4.19829e-05
-3.74058e-09
4.25008e-05
-7.36798e-07
4.25023e-05
-1.41246e-06
4.19858e-05
-1.97467e-06
4.10073e-05
-2.37741e-06
3.96688e-05
-2.58942e-06
3.809e-05
-2.60341e-06
3.63771e-05
-2.4468e-06
3.45851e-05
-2.25888e-06
3.26353e-05
-2.21218e-06
3.02366e-05
-2.39848e-06
2.67322e-05
-2.63634e-06
2.19385e-05
-2.61023e-06
1.71697e-05
-2.37824e-06
1.29367e-05
-1.67024e-06
8.9418e-06
3.59155e-06
9.02186e-07
2.81367e-06
1.16313e-06
7.89893e-06
1.28752e-06
1.22379e-05
1.02497e-06
1.67995e-05
9.12986e-07
2.29112e-05
1.35647e-06
2.77114e-05
2.05621e-06
3.05158e-05
2.65934e-06
3.24926e-05
2.97504e-06
3.43222e-05
3.00417e-06
3.6186e-05
2.76477e-06
3.80615e-05
2.2941e-06
3.9845e-05
1.63981e-06
4.13877e-05
8.55591e-07
4.25301e-05
4.633e-09
4.31403e-05
-8.48628e-07
4.31453e-05
-1.63963e-06
4.25432e-05
-2.30437e-06
4.14029e-05
-2.7889e-06
3.98541e-05
-3.04507e-06
3.80562e-05
-3.03627e-06
3.616e-05
-2.7416e-06
3.42727e-05
-2.16112e-06
3.24223e-05
-1.4565e-06
3.04507e-05
-9.66314e-07
2.77152e-05
-9.88603e-07
2.30847e-05
-1.22735e-06
1.69737e-05
-1.10248e-06
1.2366e-05
-8.5948e-07
7.97534e-06
2.84147e-06
2.73906e-07
2.50803e-06
1.46416e-07
6.98475e-06
1.6368e-07
1.17679e-05
-3.5439e-07
1.75731e-05
4.68671e-07
2.43543e-05
1.88326e-06
2.79893e-05
2.98026e-06
2.99849e-05
3.59278e-06
3.17988e-05
3.80434e-06
3.3751e-05
3.69548e-06
3.58375e-05
3.31609e-06
3.79756e-05
2.70761e-06
4.00308e-05
1.91658e-06
4.18212e-05
9.99049e-07
4.31452e-05
1.74291e-08
4.38514e-05
-9.6617e-07
4.38606e-05
-1.88965e-06
4.31704e-05
-2.68964e-06
4.18558e-05
-3.31034e-06
4.00633e-05
-3.70328e-06
3.79952e-05
-3.83002e-06
3.58365e-05
-3.64435e-06
3.37231e-05
-3.07144e-06
3.17389e-05
-2.03857e-06
2.98933e-05
-6.53219e-07
2.78951e-05
2.54365e-07
2.44051e-05
-1.26006e-07
1.77468e-05
-1.00259e-07
1.19174e-05
-2.42071e-07
7.09069e-06
2.55471e-06
-4.01571e-07
2.19901e-06
-1.28384e-07
6.88192e-06
-6.3209e-07
1.19199e-05
4.86829e-07
1.95423e-05
2.06674e-06
2.47552e-05
3.53208e-06
2.71179e-05
4.3182e-06
2.89511e-05
4.6188e-06
3.09689e-05
4.59603e-06
3.31907e-05
4.31212e-06
3.55584e-05
3.78458e-06
3.79898e-05
3.04218e-06
4.0332e-05
2.12406e-06
4.23664e-05
1.10208e-06
4.38688e-05
3.15992e-08
4.46667e-05
-1.03996e-06
4.46802e-05
-2.06527e-06
4.39068e-05
-2.99067e-06
4.242e-05
-3.74299e-06
4.03882e-05
-4.27918e-06
3.80366e-05
-4.57303e-06
3.55846e-05
-4.60712e-06
3.31931e-05
-4.32581e-06
3.09441e-05
-3.58608e-06
2.88943e-05
-2.19604e-06
2.7029e-05
-6.45548e-07
2.46777e-05
5.74807e-07
1.96439e-05
1.97166e-07
1.21871e-05
4.31585e-07
7.01679e-06
2.25449e-06
-4.48719e-07
2.47513e-06
-7.79803e-07
6.42954e-06
3.55379e-07
1.3954e-05
2.12403e-06
2.04654e-05
3.94609e-06
2.39107e-05
4.88063e-06
2.58742e-05
5.23114e-06
2.79817e-05
5.27625e-06
3.03046e-05
5.08882e-06
3.28042e-05
4.67846e-06
3.54566e-05
4.02855e-06
3.81701e-05
3.17901e-06
4.07993e-05
2.19388e-06
4.30736e-05
1.13351e-06
4.47265e-05
4.46443e-08
4.55943e-05
-1.04463e-06
4.56114e-05
-2.10695e-06
4.47754e-05
-3.09628e-06
4.31457e-05
-3.95188e-06
4.08792e-05
-4.61222e-06
3.82384e-05
-5.02855e-06
3.55045e-05
-5.21971e-06
3.28306e-05
-5.17709e-06
3.03097e-05
-4.83923e-06
2.7965e-05
-3.96602e-06
2.58316e-05
-2.23102e-06
2.3824e-05
-4.66372e-07
2.04837e-05
7.55987e-07
1.41806e-05
4.90627e-07
6.72283e-06
2.56604e-06
-3.57465e-07
3.32836e-06
2.96775e-07
8.4261e-06
1.82179e-06
1.53952e-05
3.89725e-06
2.0191e-05
5.09241e-06
2.25598e-05
5.49415e-06
2.48323e-05
5.60787e-06
2.72821e-05
5.52725e-06
2.98724e-05
5.25097e-06
3.26218e-05
4.72386e-06
3.55269e-05
3.98838e-06
3.8558e-05
3.07867e-06
4.14779e-05
2.08131e-06
4.39559e-05
1.06376e-06
4.57088e-05
5.36162e-08
4.66086e-05
-9.55502e-07
4.66278e-05
-1.97154e-06
4.57653e-05
-2.96996e-06
4.40431e-05
-3.8855e-06
4.15789e-05
-4.62985e-06
3.865e-05
-5.16237e-06
3.55962e-05
-5.4442e-06
3.26643e-05
-5.52506e-06
2.9896e-05
-5.41056e-06
2.72913e-05
-5.02493e-06
2.48294e-05
-3.91027e-06
2.25365e-05
-1.91855e-06
2.01481e-05
-3.17862e-07
1.54591e-05
4.63968e-07
8.69929e-06
3.38698e-06
-8.73003e-07
4.01828e-06
1.2558e-06
1.05074e-05
3.49385e-06
1.58112e-05
4.96822e-06
1.89605e-05
5.38221e-06
2.14447e-05
5.55232e-06
2.41215e-05
5.57456e-06
2.68382e-05
5.43365e-06
2.96402e-05
5.0654e-06
3.26127e-05
4.46404e-06
3.58277e-05
3.641e-06
3.91914e-05
2.69932e-06
4.23958e-05
1.75717e-06
4.50068e-05
8.78806e-07
4.67664e-05
5.58203e-08
4.76387e-05
-7.63874e-07
4.76574e-05
-1.63464e-06
4.68239e-05
-2.57079e-06
4.51024e-05
-3.51361e-06
4.25164e-05
-4.34483e-06
3.93082e-05
-4.95772e-06
3.59166e-05
-5.33216e-06
3.26714e-05
-5.4779e-06
2.96748e-05
-5.45526e-06
2.68619e-05
-5.28659e-06
2.41444e-05
-4.89779e-06
2.14691e-05
-3.53961e-06
1.89485e-05
-1.37607e-06
1.58009e-05
7.18711e-07
1.05827e-05
4.04604e-06
8.73398e-07
4.47962e-06
2.88811e-06
1.12124e-05
4.53726e-06
1.50704e-05
4.93879e-06
1.77577e-05
5.12015e-06
2.07167e-05
5.23138e-06
2.36772e-05
5.22446e-06
2.65829e-05
5.01965e-06
2.95646e-05
4.57178e-06
3.28108e-05
3.85116e-06
3.63827e-05
2.93913e-06
4.01436e-05
2.01677e-06
4.35724e-05
1.22566e-06
4.61555e-05
5.90216e-07
4.77846e-05
4.93445e-08
4.85616e-05
-4.85924e-07
4.85764e-05
-1.10635e-06
4.7833e-05
-1.87966e-06
4.62459e-05
-2.79223e-06
4.37043e-05
-3.70902e-06
4.02882e-05
-4.44459e-06
3.64976e-05
-4.90584e-06
3.28854e-05
-5.11852e-06
2.96108e-05
-5.13115e-06
2.66141e-05
-5.02311e-06
2.37162e-05
-4.84606e-06
2.07709e-05
-4.48027e-06
1.78072e-05
-2.93233e-06
1.50821e-05
-9.83999e-07
1.12124e-05
4.45221e-06
2.01136e-06
5.0491e-06
3.73752e-06
1.09955e-05
4.25318e-06
1.39184e-05
4.43082e-06
1.70207e-05
4.59813e-06
2.0238e-05
4.67782e-06
2.33635e-05
4.62279e-06
2.64519e-05
4.33198e-06
2.96616e-05
3.73046e-06
3.32482e-05
2.83314e-06
3.73256e-05
1.85803e-06
4.15121e-05
1.07044e-06
4.49199e-05
5.58733e-07
4.72221e-05
2.48246e-07
4.85921e-05
3.37808e-08
4.92315e-05
-1.74121e-07
4.92397e-05
-4.64886e-07
4.86214e-05
-9.45913e-07
4.72873e-05
-1.70365e-06
4.50393e-05
-2.66931e-06
4.16801e-05
-3.58118e-06
3.74819e-05
-4.20331e-06
3.33473e-05
-4.50979e-06
2.9719e-05
-4.57302e-06
2.64903e-05
-4.50561e-06
2.34088e-05
-4.34898e-06
2.03153e-05
-4.17626e-06
1.71026e-05
-3.70503e-06
1.39802e-05
-2.0418e-06
1.10051e-05
5.01357e-06
2.45949e-06
5.79233e-06
3.37392e-06
9.95876e-06
3.56696e-06
1.31018e-05
3.75317e-06
1.65524e-05
3.91019e-06
1.98864e-05
3.95713e-06
2.31552e-05
3.79669e-06
2.64399e-05
3.32465e-06
2.99718e-05
2.448e-06
3.4119e-05
1.35524e-06
3.89483e-05
4.79672e-07
4.3216e-05
4.36926e-08
4.61345e-05
-7.38754e-08
4.79595e-05
-5.39317e-08
4.9045e-05
1.14112e-08
4.9564e-05
8.15735e-08
4.95648e-05
1.17973e-07
4.90507e-05
3.50298e-08
4.79839e-05
-3.47732e-07
4.62064e-05
-1.18179e-06
4.33663e-05
-2.26946e-06
3.91574e-05
-3.17414e-06
3.42727e-05
-3.67335e-06
3.00488e-05
-3.85186e-06
2.6486e-05
-3.80962e-06
2.32118e-05
-3.69186e-06
1.99608e-05
-3.51685e-06
1.66504e-05
-3.32743e-06
1.31897e-05
-2.45465e-06
9.99401e-06
5.74764e-06
2.3623e-06
5.39305e-06
2.61594e-06
8.88891e-06
2.8548e-06
1.2561e-05
2.9425e-06
1.60561e-05
3.06785e-06
1.95227e-05
3.02677e-06
2.30295e-05
2.66593e-06
2.66069e-05
1.82109e-06
3.07307e-05
5.6791e-07
3.60766e-05
-4.52936e-07
4.12423e-05
-7.86546e-07
4.46864e-05
-6.69808e-07
4.68006e-05
-4.33463e-07
4.82101e-05
-2.08884e-07
4.91363e-05
-1.18588e-08
4.9606e-05
1.85956e-07
4.96017e-05
4.1563e-07
4.91245e-05
6.71734e-07
4.81985e-05
8.35654e-07
4.68063e-05
5.85139e-07
4.47499e-05
-3.64828e-07
4.14334e-05
-1.62808e-06
3.63456e-05
-2.52653e-06
3.08691e-05
-2.91647e-06
2.66726e-05
-2.96505e-06
2.31009e-05
-2.87747e-06
1.95954e-05
-2.83697e-06
1.61386e-05
-2.60686e-06
1.26528e-05
-2.34343e-06
8.93668e-06
5.33595e-06
1.46613e-06
3.7206e-06
1.91274e-06
8.0921e-06
2.01652e-06
1.18886e-05
2.05922e-06
1.55211e-05
2.14239e-06
1.92179e-05
1.86947e-06
2.29771e-05
9.20653e-07
2.71395e-05
-5.40001e-07
3.32281e-05
-1.66271e-06
3.92011e-05
-1.67838e-06
4.30173e-05
-1.13412e-06
4.52218e-05
-6.51306e-07
4.67708e-05
-3.41092e-07
4.80203e-05
-1.53558e-07
4.89572e-05
-2.74576e-08
4.9465e-05
9.68488e-08
4.94585e-05
2.79939e-07
4.89371e-05
5.82223e-07
4.79861e-05
1.06386e-06
4.67263e-05
1.66548e-06
4.51935e-05
1.80016e-06
4.30721e-05
7.6676e-07
3.94326e-05
-7.34101e-07
3.35439e-05
-1.73444e-06
2.73085e-05
-2.04382e-06
2.30571e-05
-1.99188e-06
1.93103e-05
-1.9956e-06
1.55881e-05
-1.9284e-06
1.19385e-05
-1.46948e-06
8.13363e-06
3.67624e-06
7.61379e-07
2.57755e-06
1.17414e-06
7.35444e-06
1.20826e-06
1.12121e-05
1.23464e-06
1.48355e-05
1.24659e-06
1.89463e-05
-3.80017e-08
2.28531e-05
-1.7872e-06
3.01418e-05
-2.75516e-06
3.70978e-05
-2.08986e-06
4.11841e-05
-1.03351e-06
4.32145e-05
-3.07407e-07
4.47488e-05
6.63176e-08
4.62135e-05
1.67009e-07
4.75817e-05
1.04233e-07
4.86803e-05
-3.59529e-08
4.92975e-05
-1.80557e-07
4.92926e-05
-2.5635e-07
4.86632e-05
-1.76253e-07
4.75466e-05
1.72976e-07
4.61561e-05
8.83616e-07
4.46723e-05
1.95571e-06
4.31353e-05
2.75298e-06
4.11942e-05
1.97764e-06
3.73493e-05
2.5381e-07
3.04702e-05
-1.14596e-06
2.32005e-05
-1.21518e-06
1.90537e-05
-1.20897e-06
1.49323e-05
-1.18503e-06
1.12239e-05
-7.81738e-07
7.34319e-06
2.55959e-06
2.77899e-07
2.20042e-06
4.29689e-07
6.64308e-06
2.7714e-07
1.04865e-05
6.96014e-07
1.4642e-05
-7.06597e-07
1.76761e-05
-2.20202e-06
2.59825e-05
-2.87074e-06
3.45132e-05
-1.86776e-06
3.90122e-05
-1.82037e-07
4.07975e-05
9.76532e-07
4.22151e-05
1.36258e-06
4.37924e-05
1.29863e-06
4.54984e-05
9.80727e-07
4.715e-05
5.12589e-07
4.84966e-05
-2.97046e-08
4.92618e-05
-5.76348e-07
4.92634e-05
-1.05754e-06
4.84964e-05
-1.39772e-06
4.71377e-05
-1.49936e-06
4.54633e-05
-1.18218e-06
4.37226e-05
-8.86255e-08
4.21003e-05
1.6197e-06
4.06608e-05
2.77044e-06
3.89545e-05
2.31927e-06
3.47199e-05
8.99011e-07
2.6563e-05
-7.78388e-07
1.81221e-05
-3.38615e-07
1.47084e-05
-4.56088e-07
1.04227e-05
-3.05642e-07
6.59815e-06
2.18545e-06
-3.97261e-08
2.09893e-06
-2.73558e-07
6.0564e-06
-1.03726e-07
1.0194e-05
-5.43326e-07
1.36271e-05
-1.74145e-06
2.03566e-05
-2.53157e-06
3.05304e-05
-1.29658e-06
3.63366e-05
1.22056e-06
3.81104e-05
2.83615e-06
3.93165e-05
3.18442e-06
4.09805e-05
2.98249e-06
4.29179e-05
2.48297e-06
4.49703e-05
1.77443e-06
4.69449e-05
9.20271e-07
4.85481e-05
-1.06381e-08
4.94572e-05
-9.44691e-07
4.94672e-05
-1.80843e-06
4.85724e-05
-2.53105e-06
4.69692e-05
-3.05317e-06
4.49785e-05
-3.29752e-06
4.28937e-05
-3.04449e-06
4.09076e-05
-1.58116e-06
3.91704e-05
9.44694e-07
3.79101e-05
2.42028e-06
3.62323e-05
1.96048e-06
3.08528e-05
1.00927e-06
2.12043e-05
6.4082e-08
1.31121e-05
2.88126e-07
1.00592e-05
2.50247e-08
5.98012e-06
2.09058e-06
-4.23522e-07
1.91511e-06
-4.77505e-07
5.9407e-06
-4.59256e-07
9.81396e-06
-1.57441e-06
1.56075e-05
-2.31219e-06
2.53227e-05
-9.47765e-07
3.26903e-05
2.40002e-06
3.52211e-05
4.53056e-06
3.61858e-05
4.86614e-06
3.79445e-05
4.63093e-06
4.00837e-05
4.10117e-06
4.23818e-05
3.32246e-06
4.47709e-05
2.33808e-06
4.70556e-05
1.21182e-06
4.88855e-05
1.59062e-08
4.99085e-05
-1.18179e-06
4.99267e-05
-2.31368e-06
4.89353e-05
-3.30569e-06
4.71215e-05
-4.09721e-06
4.48275e-05
-4.64629e-06
4.24088e-05
-4.91575e-06
4.00701e-05
-4.68127e-06
3.78751e-05
-2.79247e-06
3.60154e-05
5.37476e-07
3.49549e-05
2.20974e-06
3.271e-05
1.5687e-06
2.58379e-05
4.95502e-07
1.54395e-05
4.78293e-07
9.59628e-06
4.3204e-07
5.87603e-06
1.90081e-06
-3.95568e-07
2.21155e-06
-8.61166e-07
5.67802e-06
-1.77568e-06
1.15371e-05
-2.11363e-06
2.00773e-05
-9.02939e-07
2.77894e-05
2.97672e-06
3.1842e-05
5.67561e-06
3.28895e-05
6.03791e-06
3.47471e-05
5.85193e-06
3.70953e-05
5.39705e-06
3.9581e-05
4.70881e-06
4.22054e-05
3.76276e-06
4.49038e-05
2.61117e-06
4.74571e-05
1.34522e-06
4.94599e-05
4.22017e-08
5.05586e-05
-1.25964e-06
5.05842e-05
-2.5246e-06
4.95321e-05
-3.6844e-06
4.75557e-05
-4.64075e-06
4.5e-05
-5.33833e-06
4.22759e-05
-5.80314e-06
3.96176e-05
-6.008e-06
3.70918e-05
-5.75335e-06
3.46878e-05
-3.35708e-06
3.27093e-05
5.19034e-07
3.1624e-05
2.07347e-06
2.7971e-05
1.75943e-06
2.0277e-05
8.09054e-07
1.14494e-05
3.88249e-07
5.65634e-06
2.23733e-06
-1.83968e-07
2.67665e-06
-1.27466e-06
5.92041e-06
-1.69538e-06
1.52376e-05
-7.42909e-07
2.25088e-05
3.15283e-06
2.74576e-05
6.29161e-06
2.93665e-05
6.63633e-06
3.13635e-05
6.53248e-06
3.39794e-05
6.20813e-06
3.66478e-05
5.66367e-06
3.93974e-05
4.8328e-06
4.23157e-05
3.77809e-06
4.53574e-05
2.57118e-06
4.8151e-05
1.31436e-06
5.02555e-05
6.3857e-08
5.13766e-05
-1.18392e-06
5.14066e-05
-2.43707e-06
5.03424e-05
-3.64471e-06
4.82795e-05
-4.70415e-06
4.54953e-05
-5.53733e-06
4.24319e-05
-6.09188e-06
3.94707e-05
-6.41844e-06
3.66887e-05
-6.52705e-06
3.39921e-05
-6.30947e-06
3.13392e-05
-3.52576e-06
2.91887e-05
4.33729e-07
2.73689e-05
1.64017e-06
2.26049e-05
1.24769e-06
1.52754e-05
2.27316e-07
6.10459e-06
2.7336e-06
-9.41262e-07
3.73306e-06
-4.9811e-07
8.98665e-06
-2.72277e-07
1.72641e-05
3.34663e-06
2.25607e-05
6.57928e-06
2.53658e-05
6.75038e-06
2.76811e-05
6.6778e-06
3.06886e-05
6.49384e-06
3.36077e-05
6.10338e-06
3.64617e-05
5.46681e-06
3.94896e-05
4.54556e-06
4.2774e-05
3.41665e-06
4.61367e-05
2.24013e-06
4.9093e-05
1.12488e-06
5.12005e-05
7.7287e-08
5.22809e-05
-9.64517e-07
5.23118e-05
-2.0665e-06
5.12935e-05
-3.23131e-06
4.92417e-05
-4.35966e-06
4.63114e-05
-5.29076e-06
4.29278e-05
-5.93191e-06
3.95997e-05
-6.33125e-06
3.65275e-05
-6.51225e-06
3.36572e-05
-6.57709e-06
3.07391e-05
-6.55784e-06
2.77218e-05
-3.70201e-06
2.52613e-05
-1.64001e-08
2.25114e-05
4.88625e-07
1.73169e-05
1.0909e-06
9.26068e-06
3.88489e-06
-2.10029e-06
5.06541e-06
1.4318e-07
1.20061e-05
3.49469e-06
1.75811e-05
6.54036e-06
2.09492e-05
6.51793e-06
2.36717e-05
6.40165e-06
2.70683e-05
6.30695e-06
3.03591e-05
6.05898e-06
3.34273e-05
5.6134e-06
3.65174e-05
4.85702e-06
3.9894e-05
3.81883e-06
4.35982e-05
2.68348e-06
4.72444e-05
1.65746e-06
5.0209e-05
8.09276e-07
5.21806e-05
7.91948e-08
5.31512e-05
-6.41538e-07
5.31779e-05
-1.465e-06
5.22657e-05
-2.46303e-06
5.03594e-05
-3.58575e-06
4.74452e-05
-4.63393e-06
4.37916e-05
-5.40676e-06
4.00336e-05
-5.85945e-06
3.66083e-05
-6.11649e-06
3.34887e-05
-6.21049e-06
3.04442e-05
-6.31697e-06
2.72082e-05
-6.51146e-06
2.37851e-05
-3.83003e-06
2.09264e-05
-4.15315e-07
1.75857e-05
2.04233e-06
1.21996e-05
5.21238e-06
3.50951e-07
5.97334e-06
3.4195e-06
1.28362e-05
6.09825e-06
1.63427e-05
6.00379e-06
1.93445e-05
5.84135e-06
2.31128e-05
5.78065e-06
2.67953e-05
5.62099e-06
3.01547e-05
5.33306e-06
3.34222e-05
4.74536e-06
3.6824e-05
3.79686e-06
4.06905e-05
2.66361e-06
4.48758e-05
1.65172e-06
4.86022e-05
9.23578e-07
5.13285e-05
4.34527e-07
5.30345e-05
6.77282e-08
5.38521e-05
-2.87787e-07
5.38698e-05
-7.43811e-07
5.30952e-05
-1.4245e-06
5.14523e-05
-2.39864e-06
4.88021e-05
-3.53047e-06
4.51115e-05
-4.50362e-06
4.08719e-05
-5.11362e-06
3.69352e-05
-5.4104e-06
3.34973e-05
-5.56358e-06
3.02483e-05
-5.67433e-06
2.69217e-05
-5.81283e-06
2.33254e-05
-6.06424e-06
1.95308e-05
-3.7004e-06
1.63929e-05
-6.60894e-07
1.28772e-05
6.10188e-06
2.73672e-06
7.37977e-06
5.11544e-06
1.20453e-05
5.16268e-06
1.48807e-05
5.08121e-06
1.88107e-05
5.00548e-06
2.27782e-05
4.85798e-06
2.64456e-05
4.71482e-06
3.00717e-05
4.27419e-06
3.35924e-05
3.42088e-06
3.75183e-05
2.26713e-06
4.21379e-05
1.20745e-06
4.65517e-05