/*--------------------------------*- C++ -*----------------------------------*\
| =========                 |                                                 |
| \\      /  F ield         | OpenFOAM: The Open Source CFD Toolbox           |
|  \\    /   O peration     | Version:  v1606+                                |
|   \\  /    A nd           | Web:      www.OpenFOAM.com                      |
|    \\/     M anipulation  |                                                 |
\*---------------------------------------------------------------------------*/
FoamFile
{
    version     2.0;
    format      ascii;
    class       volVectorField;
    location    "0.13";
    object      U.airMean;
}
// * * * * * * * * * * * * * * * * * * * * * * * * * * * * * * * * * * * * * //

dimensions      [0 1 -1 0 0 0 0];

internalField   nonuniform List<vector> 
6000
(
(-0.0308962 0.377844 0)
(-0.0177908 0.347249 0)
(0.00611647 0.353048 0)
(0.0243067 0.35458 0)
(0.0375833 0.35802 0)
(0.0461168 0.361855 0)
(0.0503304 0.365635 0)
(0.0505184 0.367914 0)
(0.0481309 0.36989 0)
(0.0435961 0.371097 0)
(0.0374195 0.372033 0)
(0.0303009 0.372394 0)
(0.0224027 0.372639 0)
(0.0137738 0.372797 0)
(0.00461968 0.372952 0)
(-0.00469175 0.372863 0)
(-0.0137318 0.372588 0)
(-0.0220723 0.372391 0)
(-0.0295851 0.372164 0)
(-0.0365142 0.37175 0)
(-0.0427032 0.371121 0)
(-0.047817 0.370059 0)
(-0.0510871 0.368028 0)
(-0.0510278 0.365059 0)
(-0.0463817 0.361232 0)
(-0.0369144 0.357363 0)
(-0.0228069 0.354079 0)
(-0.00349729 0.351937 0)
(0.0220819 0.346201 0)
(0.0339165 0.379474 0)
(-0.00697711 0.900846 0)
(-0.0147797 0.83814 0)
(0.00526736 0.843977 0)
(0.0220584 0.848258 0)
(0.0367084 0.852912 0)
(0.0466582 0.855969 0)
(0.0517226 0.860763 0)
(0.0532689 0.864509 0)
(0.0516914 0.867784 0)
(0.047535 0.871005 0)
(0.0413969 0.872819 0)
(0.0337595 0.874152 0)
(0.024968 0.875687 0)
(0.0153132 0.876681 0)
(0.00512597 0.877271 0)
(-0.00520498 0.877165 0)
(-0.0153576 0.87655 0)
(-0.0249149 0.875231 0)
(-0.0335793 0.873938 0)
(-0.0412028 0.872826 0)
(-0.0474157 0.871076 0)
(-0.0516043 0.86864 0)
(-0.0530088 0.865148 0)
(-0.051331 0.860363 0)
(-0.0461646 0.855707 0)
(-0.0360871 0.85165 0)
(-0.0209614 0.847436 0)
(-0.00330468 0.842049 0)
(0.0162741 0.837507 0)
(0.00738111 0.90612 0)
(-0.00526226 0.851409 0)
(-0.0167379 0.746265 0)
(0.000321323 0.748731 0)
(0.0167046 0.752897 0)
(0.0319737 0.764229 0)
(0.0422467 0.776502 0)
(0.0475431 0.786813 0)
(0.0493612 0.793875 0)
(0.0480457 0.800251 0)
(0.0444033 0.805438 0)
(0.038884 0.809572 0)
(0.0316238 0.812635 0)
(0.0232773 0.815175 0)
(0.0142599 0.816922 0)
(0.00481336 0.817785 0)
(-0.00477732 0.817614 0)
(-0.0142442 0.816521 0)
(-0.0233658 0.814596 0)
(-0.0318482 0.812221 0)
(-0.0391064 0.809287 0)
(-0.0446831 0.805476 0)
(-0.0481725 0.800435 0)
(-0.0490281 0.793875 0)
(-0.0470575 0.78587 0)
(-0.0415416 0.775398 0)
(-0.0312871 0.762882 0)
(-0.0159012 0.751023 0)
(0.000681547 0.746151 0)
(0.0169667 0.746283 0)
(0.00514307 0.856753 0)
(0.00171778 0.858017 0)
(-0.0119956 0.75467 0)
(-0.00416775 0.750659 0)
(0.0067013 0.754339 0)
(0.0187992 0.764731 0)
(0.030223 0.77702 0)
(0.038477 0.788231 0)
(0.0427064 0.797135 0)
(0.0428817 0.804719 0)
(0.040311 0.810638 0)
(0.0355778 0.815327 0)
(0.0290285 0.818921 0)
(0.0212808 0.82175 0)
(0.0129451 0.823701 0)
(0.00440171 0.824787 0)
(-0.00423335 0.824739 0)
(-0.0128891 0.823574 0)
(-0.0214002 0.821499 0)
(-0.0293155 0.818774 0)
(-0.0359093 0.815309 0)
(-0.0406159 0.810851 0)
(-0.0429624 0.804982 0)
(-0.0423744 0.797192 0)
(-0.0380152 0.787697 0)
(-0.0297404 0.776206 0)
(-0.0182913 0.76364 0)
(-0.00620088 0.752567 0)
(0.00429619 0.749073 0)
(0.0114094 0.755254 0)
(-0.00215744 0.8631 0)
(0.000172272 0.865573 0)
(-0.0133889 0.752015 0)
(-0.00615602 0.74195 0)
(0.00182688 0.745192 0)
(0.0116122 0.756732 0)
(0.0214287 0.771684 0)
(0.0295458 0.785564 0)
(0.034848 0.797219 0)
(0.0370933 0.80648 0)
(0.036438 0.813765 0)
(0.0330992 0.819568 0)
(0.0274555 0.823843 0)
(0.0202507 0.82693 0)
(0.0122921 0.828692 0)
(0.00411915 0.829497 0)
(-0.00410482 0.829507 0)
(-0.0123432 0.828603 0)
(-0.0204104 0.826781 0)
(-0.0277189 0.823721 0)
(-0.0333843 0.819502 0)
(-0.0366746 0.813834 0)
(-0.0371506 0.806443 0)
(-0.0346667 0.796926 0)
(-0.0293092 0.785002 0)
(-0.0213024 0.770777 0)
(-0.0115994 0.75566 0)
(-0.00206418 0.743595 0)
(0.00568102 0.740728 0)
(0.012736 0.7528 0)
(-0.000660095 0.870109 0)
(0.00089164 0.880211 0)
(-0.0103731 0.754873 0)
(-0.00293163 0.7407 0)
(0.00235063 0.744014 0)
(0.00847698 0.756656 0)
(0.0149388 0.773567 0)
(0.0209457 0.789735 0)
(0.0256039 0.80373 0)
(0.0285001 0.814809 0)
(0.0292799 0.823608 0)
(0.0277447 0.830659 0)
(0.0239173 0.83591 0)
(0.0182103 0.839386 0)
(0.0113061 0.841262 0)
(0.00378466 0.842045 0)
(-0.00391926 0.842078 0)
(-0.0114444 0.841225 0)
(-0.0183863 0.839325 0)
(-0.0241219 0.835819 0)
(-0.0279357 0.830614 0)
(-0.0294158 0.823626 0)
(-0.0285299 0.814673 0)
(-0.0255639 0.803389 0)
(-0.0209314 0.789292 0)
(-0.0150943 0.772852 0)
(-0.00887107 0.755823 0)
(-0.00305757 0.742698 0)
(0.0020402 0.73931 0)
(0.00959508 0.755694 0)
(-0.00137954 0.88429 0)
(0.00641214 0.89143 0)
(0.00112024 0.758804 0)
(0.0064378 0.743523 0)
(0.00703919 0.748398 0)
(0.00761111 0.762019 0)
(0.00925126 0.779699 0)
(0.0120234 0.797349 0)
(0.0150258 0.813276 0)
(0.0175341 0.826414 0)
(0.0188612 0.837141 0)
(0.0186788 0.845872 0)
(0.0167772 0.852463 0)
(0.0132265 0.856834 0)
(0.0084054 0.859144 0)
(0.0028163 0.860112 0)
(-0.00301027 0.860136 0)
(-0.00856753 0.859116 0)
(-0.0133712 0.856807 0)
(-0.0169081 0.852379 0)
(-0.0187906 0.845819 0)
(-0.018932 0.837116 0)
(-0.0175509 0.826238 0)
(-0.0150525 0.812948 0)
(-0.0121181 0.797005 0)
(-0.00951207 0.779191 0)
(-0.00809188 0.76143 0)
(-0.00777437 0.747418 0)
(-0.00752436 0.74231 0)
(-0.00222247 0.759598 0)
(-0.00698286 0.89496 0)
(0.015095 0.893188 0)
(0.0169386 0.763467 0)
(0.0181134 0.750842 0)
(0.0135685 0.758148 0)
(0.00888659 0.772442 0)
(0.0057006 0.789468 0)
(0.00462275 0.806967 0)
(0.00511159 0.823332 0)
(0.00636464 0.837624 0)
(0.00754062 0.849992 0)
(0.00818906 0.860503 0)
(0.00798368 0.868848 0)
(0.00674331 0.874676 0)
(0.00449173 0.877993 0)
(0.00152335 0.879449 0)
(-0.00167275 0.879449 0)
(-0.00460685 0.877948 0)
(-0.0068278 0.874641 0)
(-0.00804923 0.868759 0)
(-0.00824794 0.860442 0)
(-0.00757375 0.849931 0)
(-0.00637918 0.83745 0)
(-0.00517792 0.823059 0)
(-0.00477543 0.806707 0)
(-0.0059848 0.789128 0)
(-0.00933763 0.772023 0)
(-0.0142392 0.757452 0)
(-0.0192276 0.749953 0)
(-0.0181897 0.764181 0)
(-0.0157639 0.895965 0)
(0.022471 0.881951 0)
(0.0295575 0.770003 0)
(0.0270355 0.761404 0)
(0.01943 0.770766 0)
(0.0118606 0.785374 0)
(0.00574634 0.801794 0)
(0.0017039 0.818699 0)
(-0.000409701 0.834772 0)
(-0.00110528 0.849427 0)
(-0.000984952 0.862548 0)
(-0.00042325 0.874056 0)
(0.000274289 0.883585 0)
(0.000767507 0.890611 0)
(0.000773428 0.894939 0)
(0.000293756 0.89694 0)
(-0.000357847 0.896916 0)
(-0.000823356 0.89487 0)
(-0.000801961 0.89055 0)
(-0.0003043 0.883493 0)
(0.000387837 0.873991 0)
(0.000960014 0.862472 0)
(0.00106898 0.849266 0)
(0.000304061 0.834564 0)
(-0.00189356 0.818501 0)
(-0.00603245 0.801565 0)
(-0.0122721 0.785078 0)
(-0.0200481 0.770312 0)
(-0.028048 0.760865 0)
(-0.0307316 0.770672 0)
(-0.0231124 0.883907 0)
(0.0241877 0.862352 0)
(0.0339626 0.777039 0)
(0.0307741 0.772207 0)
(0.0229527 0.782923 0)
(0.0151334 0.797589 0)
(0.00832763 0.813696 0)
(0.00301678 0.830308 0)
(-0.000703017 0.846285 0)
(-0.00303687 0.861108 0)
(-0.00423055 0.874533 0)
(-0.00444898 0.886368 0)
(-0.00386523 0.896291 0)
(-0.00277912 0.903885 0)
(-0.00158536 0.908839 0)
(-0.000505063 0.911221 0)
(0.000509864 0.911193 0)
(0.00158223 0.908765 0)
(0.00276851 0.903814 0)
(0.0038412 0.896209 0)
(0.00440941 0.886302 0)
(0.0041863 0.874452 0)
(0.00296365 0.860978 0)
(0.000564281 0.846133 0)
(-0.00322558 0.830161 0)
(-0.00860838 0.813536 0)
(-0.0155135 0.797394 0)
(-0.023503 0.782667 0)
(-0.0316182 0.771985 0)
(-0.034869 0.777651 0)
(-0.0246579 0.863659 0)
(0.0207653 0.841665 0)
(0.0309799 0.781216 0)
(0.0297457 0.780471 0)
(0.0239776 0.792306 0)
(0.0177013 0.807152 0)
(0.0117397 0.823293 0)
(0.00651715 0.839912 0)
(0.00228683 0.856058 0)
(-0.000903614 0.871175 0)
(-0.00304019 0.884905 0)
(-0.00411621 0.896964 0)
(-0.00418443 0.907041 0)
(-0.00343365 0.914817 0)
(-0.00218471 0.920049 0)
(-0.000731642 0.922616 0)
(0.00076201 0.922592 0)
(0.00219642 0.919985 0)
(0.00342415 0.91475 0)
(0.00415256 0.906972 0)
(0.00406368 0.8969 0)
(0.00297125 0.884829 0)
(0.00079973 0.871076 0)
(-0.00244579 0.855948 0)
(-0.00673161 0.839801 0)
(-0.012011 0.823182 0)
(-0.0180492 0.807035 0)
(-0.0244425 0.7922 0)
(-0.0303802 0.780467 0)
(-0.0315807 0.781722 0)
(-0.0210467 0.84258 0)
(0.0157853 0.822793 0)
(0.0248349 0.781094 0)
(0.0262358 0.784702 0)
(0.0234109 0.798047 0)
(0.0193171 0.813595 0)
(0.0147685 0.830169 0)
(0.0102648 0.847036 0)
(0.00615898 0.863443 0)
(0.0026934 0.878849 0)
(4.82097e-05 0.892852 0)
(-0.00166246 0.905116 0)
(-0.00242158 0.915331 0)
(-0.00233617 0.923221 0)
(-0.00162733 0.928566 0)
(-0.000567726 0.931222 0)
(0.000591949 0.931205 0)
(0.00163383 0.928516 0)
(0.00232095 0.923162 0)
(0.00238647 0.915269 0)
(0.0016086 0.905056 0)
(-0.000123086 0.892786 0)
(-0.00280087 0.878777 0)
(-0.00630994 0.863368 0)
(-0.0104634 0.846961 0)
(-0.0150182 0.830102 0)
(-0.0196263 0.81354 0)
(-0.0237897 0.798029 0)
(-0.0266803 0.784794 0)
(-0.0252044 0.781478 0)
(-0.0159396 0.82347 0)
(0.0117407 0.806026 0)
(0.0193779 0.777386 0)
(0.0227663 0.785216 0)
(0.0224367 0.800725 0)
(0.0202335 0.81761 0)
(0.0169734 0.834988 0)
(0.0132395 0.852274 0)
(0.00946504 0.868862 0)
(0.00599896 0.884306 0)
(0.00311302 0.898264 0)
(0.000987332 0.91046 0)
(-0.000312569 0.920615 0)
(-0.00084121 0.928479 0)
(-0.000754354 0.933834 0)
(-0.00028769 0.936521 0)
(0.00029837 0.936508 0)
(0.000753749 0.933792 0)
(0.000825215 0.928426 0)
(0.000282335 0.920558 0)
(-0.00103294 0.910403 0)
(-0.00317861 0.898209 0)
(-0.00609076 0.884255 0)
(-0.00959049 0.868819 0)
(-0.0134073 0.852236 0)
(-0.01719 0.834966 0)
(-0.020501 0.817606 0)
(-0.0227457 0.800751 0)
(-0.0230867 0.785317 0)
(-0.0196146 0.77765 0)
(-0.0118267 0.80654 0)
(0.00952738 0.791161 0)
(0.0162869 0.77161 0)
(0.020726 0.783475 0)
(0.0218518 0.8015 0)
(0.0208373 0.820125 0)
(0.018439 0.838555 0)
(0.0152706 0.856339 0)
(0.01183 0.873017 0)
(0.00851091 0.888272 0)
(0.0056043 0.901885 0)
(0.00329277 0.913673 0)
(0.0016463 0.923446 0)
(0.000638201 0.931012 0)
(0.000156341 0.936167 0)
(1.3364e-05 0.938767 0)
(-1.73195e-05 0.93876 0)
(-0.000165926 0.93613 0)
(-0.000655234 0.930963 0)
(-0.00167441 0.923395 0)
(-0.00333117 0.91362 0)
(-0.00565624 0.901837 0)
(-0.00857953 0.888234 0)
(-0.0119218 0.872998 0)
(-0.0153983 0.856335 0)
(-0.0186135 0.838578 0)
(-0.0210658 0.820167 0)
(-0.0221183 0.801555 0)
(-0.0209933 0.783556 0)
(-0.0164783 0.771766 0)
(-0.00959688 0.791541 0)
(0.00896177 0.777563 0)
(0.0153886 0.76533 0)
(0.0200841 0.78085 0)
(0.0217294 0.801486 0)
(0.0211881 0.821904 0)
(0.0191466 0.841431 0)
(0.0162371 0.859702 0)
(0.0129946 0.876385 0)
(0.00983883 0.891322 0)
(0.00704967 0.904419 0)
(0.00477201 0.91563 0)
(0.00302614 0.924863 0)
(0.00176657 0.93198 0)
(0.000894053 0.936824 0)
(0.000264072 0.939272 0)
(-0.000282067 0.939262 0)
(-0.000913634 0.936788 0)
(-0.00179121 0.931932 0)
(-0.00305681 0.924814 0)
(-0.0048049 0.915574 0)
(-0.0070886 0.904378 0)
(-0.00988025 0.891279 0)
(-0.0130451 0.876381 0)
(-0.0163127 0.859716 0)
(-0.0192654 0.841496 0)
(-0.0213723 0.821996 0)
(-0.0219694 0.801576 0)
(-0.020344 0.78092 0)
(-0.0155992 0.765409 0)
(-0.00905912 0.777817 0)
(0.0093501 0.764344 0)
(0.0157272 0.759507 0)
(0.0200839 0.778339 0)
(0.0216094 0.801384 0)
(0.0210178 0.823418 0)
(0.0189434 0.843903 0)
(0.0160515 0.862551 0)
(0.0129137 0.879135 0)
(0.00996186 0.893699 0)
(0.00741609 0.906277 0)
(0.00534214 0.916959 0)
(0.00369155 0.925724 0)
(0.00238376 0.932446 0)
(0.00132808 0.937025 0)
(0.000415973 0.939331 0)
(-0.000444918 0.939319 0)
(-0.00135791 0.936993 0)
(-0.00242162 0.932401 0)
(-0.00373209 0.925678 0)
(-0.00538057 0.916895 0)
(-0.00745296 0.906241 0)
(-0.00998226 0.89363 0)
(-0.0129206 0.87913 0)
(-0.0160685 0.862562 0)
(-0.018997 0.844003 0)
(-0.0211397 0.823558 0)
(-0.0218033 0.801525 0)
(-0.0203329 0.778443 0)
(-0.0159778 0.759556 0)
(-0.00949185 0.764456 0)
(0.00981692 0.751108 0)
(0.0162345 0.754605 0)
(0.0198387 0.776578 0)
(0.0208723 0.801439 0)
(0.019965 0.82483 0)
(0.0176733 0.846079 0)
(0.0147252 0.864927 0)
(0.0117528 0.881265 0)
(0.00914932 0.895385 0)
(0.0070265 0.907491 0)
(0.00532357 0.917762 0)
(0.00391556 0.926223 0)
(0.00269073 0.932719 0)
(0.00157698 0.937152 0)
(0.000507902 0.939398 0)
(-0.000544902 0.939383 0)
(-0.00161731 0.937133 0)
(-0.00274452 0.932675 0)
(-0.0039734 0.926174 0)
(-0.00538388 0.917691 0)
(-0.00707928 0.907442 0)
(-0.0091682 0.895269 0)
(-0.0117262 0.881233 0)
(-0.0146874 0.864917 0)
(-0.01766 0.846194 0)
(-0.0200025 0.825003 0)
(-0.0209787 0.801628 0)
(-0.0200275 0.776745 0)
(-0.016486 0.754677 0)
(-0.00997177 0.751072 0)
(0.00945598 0.738353 0)
(0.0158785 0.750578 0)
(0.0186432 0.775314 0)
(0.0191512 0.801613 0)
(0.0178679 0.826166 0)
(0.0153479 0.847991 0)
(0.0124311 0.866746 0)
(0.00981001 0.882634 0)
(0.00777859 0.896254 0)
(0.0062802 0.907964 0)
(0.00509095 0.918012 0)
(0.0040058 0.926384 0)
(0.00291205 0.932849 0)
(0.0017747 0.937266 0)
(0.000584054 0.939539 0)
(-0.000624828 0.939493 0)
(-0.0018238 0.937274 0)
(-0.00298026 0.932802 0)
(-0.00408289 0.926356 0)
(-0.00518037 0.917944 0)
(-0.00637129 0.90791 0)
(-0.00783109 0.896081 0)
(-0.00978316 0.882547 0)
(-0.0123582 0.866702 0)
(-0.0152746 0.848093 0)
(-0.0178177 0.826348 0)
(-0.019152 0.801833 0)
(-0.0187136 0.775544 0)
(-0.0160378 0.750696 0)
(-0.00955386 0.738204 0)
(0.00803003 0.726845 0)
(0.0140802 0.747011 0)
(0.0164062 0.774294 0)
(0.0166364 0.801868 0)
(0.0148692 0.827449 0)
(0.0120503 0.849488 0)
(0.00935554 0.867769 0)
(0.00746183 0.883038 0)
(0.00632819 0.896182 0)
(0.00561494 0.907721 0)
(0.00498577 0.917808 0)
(0.00421477 0.926301 0)
(0.00322333 0.932907 0)
(0.00202677 0.937444 0)
(0.000682804 0.93978 0)
(-0.000713668 0.93973 0)
(-0.00207279 0.937487 0)
(-0.0032967 0.932874 0)
(-0.00431257 0.926315 0)
(-0.00511478 0.917764 0)
(-0.00575462 0.907696 0)
(-0.00643344 0.895957 0)
(-0.00748979 0.882876 0)
(-0.00930769 0.867669 0)
(-0.0119455 0.849537 0)
(-0.0147472 0.827608 0)
(-0.0165518 0.802091 0)
(-0.0163492 0.774579 0)
(-0.014066 0.74717 0)
(-0.00802396 0.726677 0)
(0.00612442 0.717227 0)
(0.0113747 0.743855 0)
(0.0137464 0.7733 0)
(0.013456 0.802315 0)
(0.0108744 0.828609 0)
(0.00786402 0.850238 0)
(0.0059373 0.86762 0)
(0.00534593 0.882216 0)
(0.00540308 0.895228 0)
(0.0054975 0.906899 0)
(0.00531812 0.917284 0)
(0.00472938 0.926131 0)
(0.0037219 0.933035 0)
(0.00237698 0.937768 0)
(0.000818888 0.940227 0)
(-0.000823958 0.940185 0)
(-0.00240387 0.937847 0)
(-0.00378407 0.933038 0)
(-0.00483555 0.926179 0)
(-0.00546847 0.917294 0)
(-0.00566748 0.906887 0)
(-0.00556647 0.894985 0)
(-0.00549628 0.882006 0)
(-0.00601892 0.867443 0)
(-0.0078003 0.850182 0)
(-0.0107026 0.828703 0)
(-0.0132879 0.802518 0)
(-0.0136217 0.773578 0)
(-0.0112413 0.744066 0)
(-0.00603261 0.717104 0)
(0.00432383 0.709918 0)
(0.00888575 0.741123 0)
(0.0108837 0.772419 0)
(0.00912268 0.803173 0)
(0.00574951 0.829116 0)
(0.00350365 0.849601 0)
(0.00330922 0.865882 0)
(0.00434636 0.880216 0)
(0.00550416 0.893553 0)
(0.00619167 0.905725 0)
(0.00620933 0.916691 0)
(0.00557643 0.926066 0)
(0.0043905 0.933376 0)
(0.00279854 0.938343 0)
(0.000972963 0.940939 0)
(-0.00094228 0.94089 0)
(-0.00278753 0.938449 0)
(-0.00441384 0.933414 0)
(-0.00565275 0.926179 0)
(-0.0063345 0.916775 0)
(-0.00635788 0.905764 0)
(-0.00572844 0.893345 0)
(-0.00464632 0.88004 0)
(-0.00360165 0.865658 0)
(-0.00363122 0.849407 0)
(-0.00563461 0.829094 0)
(-0.00887054 0.80334 0)
(-0.0106547 0.772652 0)
(-0.00870998 0.741362 0)
(-0.00420496 0.709901 0)
(0.00292091 0.704349 0)
(0.00692931 0.738809 0)
(0.00655173 0.77236 0)
(0.00340343 0.803687 0)
(0.0010672 0.828437 0)
(0.000893293 0.847076 0)
(0.00270676 0.862701 0)
(0.00499788 0.877467 0)
(0.00677897 0.891607 0)
(0.00762138 0.904683 0)
(0.00748954 0.916393 0)
(0.00657786 0.926308 0)
(0.00508194 0.933982 0)
(0.00319953 0.939188 0)
(0.00111681 0.941857 0)
(-0.00103699 0.941838 0)
(-0.00313363 0.939305 0)
(-0.00503935 0.934077 0)
(-0.00658138 0.926483 0)
(-0.00754691 0.916541 0)
(-0.00773802 0.904793 0)
(-0.00702083 0.891502 0)
(-0.00539039 0.877397 0)
(-0.00315495 0.862527 0)
(-0.00127536 0.846781 0)
(-0.00123024 0.828248 0)
(-0.00327966 0.803774 0)
(-0.00625968 0.772619 0)
(-0.00667092 0.739056 0)
(-0.00281783 0.704421 0)
(0.00230124 0.700241 0)
(0.00341908 0.736861 0)
(0.00100373 0.772983 0)
(-0.000798766 0.802846 0)
(-0.00126715 0.825508 0)
(0.000951422 0.842943 0)
(0.00419009 0.858929 0)
(0.00701927 0.874713 0)
(0.00880073 0.890018 0)
(0.00934783 0.904136 0)
(0.00877754 0.916533 0)
(0.00742473 0.926902 0)
(0.00558121 0.93484 0)
(0.0034536 0.940168 0)
(0.00120668 0.942882 0)
(-0.00107519 0.942892 0)
(-0.00332715 0.940287 0)
(-0.00546211 0.934973 0)
(-0.00733202 0.927087 0)
(-0.00872587 0.916726 0)
(-0.00937385 0.904276 0)
(-0.00899632 0.890069 0)
(-0.00739062 0.874771 0)
(-0.00464636 0.858863 0)
(-0.0014209 0.842707 0)
(0.00091888 0.825176 0)
(0.000737056 0.802658 0)
(-0.000801612 0.773003 0)
(-0.00318989 0.737122 0)
(-0.002244 0.70039 0)
(0.000458051 0.696996 0)
(-0.000879775 0.736483 0)
(-0.00222672 0.772003 0)
(-0.00315219 0.79933 0)
(-0.00116766 0.821054 0)
(0.00288084 0.838292 0)
(0.00682926 0.855421 0)
(0.0095574 0.872603 0)
(0.0108518 0.88907 0)
(0.0108046 0.9041 0)
(0.00966331 0.917086 0)
(0.00783529 0.927726 0)
(0.00569333 0.935785 0)
(0.0034419 0.941105 0)
(0.00119842 0.943797 0)
(-0.00102977 0.943794 0)
(-0.00326653 0.941213 0)
(-0.00550225 0.935898 0)
(-0.00764586 0.927921 0)
(-0.00950134 0.917295 0)
(-0.0107309 0.904299 0)
(-0.0109541 0.889263 0)
(-0.00982992 0.872768 0)
(-0.00720906 0.855466 0)
(-0.00332137 0.838147 0)
(0.00077546 0.820712 0)
(0.00293286 0.799022 0)
(0.0021879 0.771798 0)
(0.0010051 0.736636 0)
(-0.000309151 0.697117 0)
(-0.00171104 0.695491 0)
(-0.00266367 0.73558 0)
(-0.0040276 0.768281 0)
(-0.00318297 0.795174 0)
(0.0010309 0.815522 0)
(0.00606919 0.833852 0)
(0.00983976 0.852668 0)
(0.0118856 0.871254 0)
(0.0123568 0.888763 0)
(0.0115709 0.904554 0)
(0.00984544 0.917948 0)
(0.00759592 0.928623 0)
(0.00526249 0.936559 0)
(0.00307389 0.941734 0)
(0.00105966 0.94429 0)
(-0.000881571 0.944295 0)
(-0.00287705 0.941809 0)
(-0.00501976 0.936643 0)
(-0.00731861 0.928796 0)
(-0.00959002 0.91815 0)
(-0.0114002 0.904801 0)
(-0.0123434 0.889086 0)
(-0.0120295 0.871493 0)
(-0.0101051 0.852819 0)
(-0.00644933 0.833795 0)
(-0.00148438 0.815224 0)
(0.00272747 0.794809 0)
(0.00370105 0.76796 0)
(0.00245193 0.735627 0)
(0.00174743 0.695874 0)
(-0.00198548 0.695349 0)
(-0.00280378 0.733353 0)
(-0.00391599 0.764473 0)
(-0.000748268 0.789671 0)
(0.00483879 0.810035 0)
(0.00968919 0.830361 0)
(0.012511 0.850855 0)
(0.0134739 0.870694 0)
(0.012967 0.889057 0)
(0.0113635 0.905355 0)
(0.00905002 0.918901 0)
(0.00652271 0.929365 0)
(0.00420695 0.936921 0)
(0.00230938 0.941746 0)
(0.000779669 0.944083 0)
(-0.000630694 0.944109 0)
(-0.00213677 0.94177 0)
(-0.00394477 0.936952 0)
(-0.00617784 0.929451 0)
(-0.00871078 0.919104 0)
(-0.0110876 0.905596 0)
(-0.0128345 0.889511 0)
(-0.013486 0.870975 0)
(-0.0126018 0.851093 0)
(-0.00991846 0.830405 0)
(-0.0052517 0.809892 0)
(0.000216096 0.789394 0)
(0.00342114 0.764253 0)
(0.00250213 0.733232 0)
(0.00167038 0.69553 0)
(-0.000904071 0.69427 0)
(-0.00259635 0.730598 0)
(-0.00172511 0.76023 0)
(0.00323715 0.783828 0)
(0.0089246 0.805754 0)
(0.012686 0.828072 0)
(0.0142659 0.850039 0)
(0.0140158 0.870916 0)
(0.0124053 0.889854 0)
(0.00989019 0.906348 0)
(0.00705092 0.919682 0)
(0.00450574 0.929628 0)
(0.0025605 0.936621 0)
(0.0012254 0.940954 0)
(0.000387639 0.943055 0)
(-0.000301311 0.943104 0)
(-0.00110908 0.940892 0)
(-0.00231981 0.936548 0)
(-0.00415332 0.92961 0)
(-0.00665964 0.91989 0)
(-0.00954173 0.906568 0)
(-0.0121482 0.890437 0)
(-0.0138626 0.871189 0)
(-0.0141628 0.850313 0)
(-0.0127206 0.828211 0)
(-0.00917608 0.80579 0)
(-0.00366215 0.783704 0)
(0.00130393 0.76006 0)
(0.00238301 0.730576 0)
(0.000815567 0.694262 0)
(-0.00123105 0.692694 0)
(-0.00208365 0.728153 0)
(0.00157186 0.755108 0)
(0.00746682 0.779005 0)
(0.0120673 0.802854 0)
(0.0144528 0.826849 0)
(0.0147751 0.850164 0)
(0.0132295 0.871896 0)
(0.0103035 0.891091 0)
(0.00685006 0.907353 0)
(0.00379207 0.919986 0)
(0.0016872 0.929091 0)
(0.000544506 0.935407 0)
(4.05095e-05 0.939302 0)
(-3.37063e-05 0.94109 0)
(5.04269e-05 0.941226 0)
(2.78977e-05 0.939099 0)
(-0.000367101 0.935266 0)
(-0.00142759 0.928932 0)
(-0.00343112 0.920175 0)
(-0.00650119 0.907542 0)
(-0.00993538 0.891727 0)
(-0.0128695 0.872159 0)
(-0.0145142 0.850449 0)
(-0.0143213 0.827075 0)
(-0.0121063 0.803011 0)
(-0.00769977 0.779008 0)
(-0.00190395 0.754967 0)
(0.00186005 0.728031 0)
(0.00118648 0.692581 0)
(-0.00151761 0.690809 0)
(-0.000128223 0.72406 0)
(0.00543568 0.750018 0)
(0.0107387 0.775514 0)
(0.0139137 0.801076 0)
(0.0149667 0.826633 0)
(0.0137688 0.851159 0)
(0.010558 0.873572 0)
(0.00619066 0.892577 0)
(0.00212054 0.907915 0)
(-0.000436661 0.919354 0)
(-0.00139725 0.927513 0)
(-0.00136415 0.933241 0)
(-0.00091646 0.936887 0)
(-0.000322004 0.938434 0)
(0.00034028 0.938642 0)
(0.000974643 0.936532 0)
(0.00144337 0.933052 0)
(0.00145157 0.927174 0)
(0.000585258 0.919456 0)
(-0.00183865 0.908051 0)
(-0.00573443 0.893105 0)
(-0.0100202 0.873849 0)
(-0.0133555 0.851466 0)
(-0.0146959 0.826906 0)
(-0.0137757 0.801318 0)
(-0.0107601 0.775626 0)
(-0.00563902 0.749948 0)
(-0.00010859 0.723875 0)
(0.00144115 0.690637 0)
(3.25914e-05 0.689002 0)
(0.00315538 0.719052 0)
(0.0086769 0.745939 0)
(0.0126321 0.773236 0)
(0.0147314 0.800313 0)
(0.014115 0.827445 0)
(0.0106417 0.853063 0)
(0.00526588 0.875601 0)
(-0.000133368 0.893583 0)
(-0.00360297 0.9073 0)
(-0.00451977 0.917253 0)
(-0.00382217 0.92471 0)
(-0.00259094 0.930309 0)
(-0.00138482 0.934035 0)
(-0.000420897 0.935616 0)
(0.000477572 0.935792 0)
(0.00144629 0.933588 0)
(0.00253004 0.930056 0)
(0.00363049 0.924335 0)
(0.00436728 0.917192 0)
(0.00373569 0.907316 0)
(0.000596355 0.89388 0)
(-0.00463181 0.875845 0)
(-0.0100715 0.853387 0)
(-0.0137003 0.827779 0)
(-0.0144835 0.800637 0)
(-0.0125074 0.773448 0)
(-0.00870098 0.74598 0)
(-0.00334834 0.71889 0)
(-0.000177261 0.688783 0)
(0.00254537 0.686117 0)
(0.00626302 0.714736 0)
(0.0104357 0.743366 0)
(0.0137451 0.772011 0)
(0.0143502 0.800626 0)
(0.0108302 0.829422 0)
(0.00425804 0.855526 0)
(-0.00272203 0.877022 0)
(-0.00726226 0.893112 0)
(-0.0081243 0.904674 0)
(-0.00674724 0.913578 0)
(-0.00469721 0.921085 0)
(-0.0027948 0.927091 0)
(-0.00133176 0.931238 0)
(-0.000371671 0.933034 0)
(0.00042465 0.933105 0)
(0.00133905 0.930821 0)
(0.00259509 0.926867 0)
(0.00435172 0.920803 0)
(0.00638794 0.913376 0)
(0.0079844 0.904499 0)
(0.00751058 0.893112 0)
(0.00331745 0.877142 0)
(-0.00355568 0.855763 0)
(-0.0102073 0.829803 0)
(-0.0139541 0.801038 0)
(-0.0135667 0.77232 0)
(-0.0103464 0.743496 0)
(-0.00629575 0.714676 0)
(-0.00261656 0.685821 0)
(0.00350023 0.6825 0)
(0.00743038 0.711795 0)
(0.0111885 0.741757 0)
(0.0137977 0.771575 0)
(0.0109097 0.802571 0)
(0.0035659 0.832513 0)
(-0.00478459 0.857872 0)
(-0.0103601 0.876897 0)
(-0.011298 0.889932 0)
(-0.00923755 0.90007 0)
(-0.00641265 0.909246 0)
(-0.00389028 0.917478 0)
(-0.00202033 0.924189 0)
(-0.000822475 0.928871 0)
(-0.000189327 0.931097 0)
(0.00022408 0.931077 0)
(0.000751773 0.928596 0)
(0.00175152 0.92408 0)
(0.00349701 0.917314 0)
(0.00596359 0.909048 0)
(0.00885952 0.899776 0)
(0.0111451 0.889604 0)
(0.0106054 0.876751 0)
(0.00542185 0.857996 0)
(-0.00276528 0.832816 0)
(-0.0101931 0.80313 0)
(-0.0134971 0.771967 0)
(-0.0111501 0.741936 0)
(-0.0073396 0.711801 0)
(-0.0034237 0.682197 0)
(0.00299602 0.678707 0)
(0.00725193 0.709541 0)
(0.0116071 0.740594 0)
(0.0102288 0.772432 0)
(0.0031371 0.806686 0)
(-0.00551491 0.83588 0)
(-0.0118369 0.858254 0)
(-0.0132597 0.873273 0)
(-0.0108655 0.884614 0)
(-0.00728852 0.895133 0)
(-0.00416529 0.90539 0)
(-0.00193316 0.914587 0)
(-0.000594804 0.922074 0)
(1.28174e-05 0.927272 0)
(9.22023e-05 0.92984 0)
(-6.15924e-05 0.929794 0)
(-0.000104442 0.92715 0)
(0.000338881 0.922069 0)
(0.00155345 0.914581 0)
(0.0036971 0.905292 0)
(0.00678773 0.894897 0)
(0.0104276 0.884189 0)
(0.0130449 0.872849 0)
(0.0120377 0.858023 0)
(0.00615322 0.83599 0)
(-0.00238497 0.807177 0)
(-0.00972976 0.773087 0)
(-0.0115123 0.740739 0)
(-0.00720845 0.709495 0)
(-0.00290901 0.678413 0)
(0.00238387 0.674994 0)
(0.00752902 0.707453 0)
(0.00859025 0.739785 0)
(0.00242469 0.776661 0)
(-0.00550902 0.810248 0)
(-0.0122802 0.836231 0)
(-0.0145075 0.85486 0)
(-0.0121119 0.867742 0)
(-0.00764736 0.879221 0)
(-0.0037705 0.891103 0)
(-0.0010992 0.902655 0)
(0.000386606 0.912822 0)
(0.000944431 0.920923 0)
(0.000867233 0.926519 0)
(0.000370565 0.92925 0)
(-0.000327575 0.929229 0)
(-0.000929265 0.926526 0)
(-0.00113673 0.921044 0)
(-0.000686524 0.91296 0)
(0.000694546 0.902688 0)
(0.00326848 0.890997 0)
(0.00708233 0.878884 0)
(0.0116078 0.867235 0)
(0.0143432 0.854402 0)
(0.0125035 0.835958 0)
(0.00600179 0.810683 0)
(-0.00174632 0.777331 0)
(-0.00814942 0.739991 0)
(-0.0075671 0.707352 0)
(-0.00234466 0.674748 0)
(0.00272038 0.671514 0)
(0.00622065 0.705255 0)
(0.00175084 0.742511 0)
(-0.00571357 0.779999 0)
(-0.0124766 0.81039 0)
(-0.0157271 0.833226 0)
(-0.0135954 0.849331 0)
(-0.00813237 0.861458 0)
(-0.00319136 0.874735 0)
(0.000128471 0.888427 0)
(0.00188163 0.901191 0)
(0.00242967 0.912076 0)
(0.0021866 0.920558 0)
(0.00150088 0.92635 0)
(0.000562242 0.929252 0)
(-0.000497972 0.929268 0)
(-0.00150838 0.926468 0)
(-0.00228597 0.920791 0)
(-0.00260965 0.912313 0)
(-0.00215859 0.901345 0)
(-0.00053859 0.888472 0)
(0.0026351 0.874593 0)
(0.00747346 0.861033 0)
(0.0130089 0.848664 0)
(0.0155187 0.832812 0)
(0.0126536 0.810335 0)
(0.00616747 0.780491 0)
(-0.00102369 0.743106 0)
(-0.00577067 0.705198 0)
(-0.0027281 0.671365 0)
(0.00267119 0.66727 0)
(0.0012465 0.705101 0)
(-0.00611105 0.745373 0)
(-0.0124153 0.780403 0)
(-0.0163936 0.807101 0)
(-0.0151213 0.827919 0)
(-0.00894223 0.841707 0)
(-0.00269981 0.856056 0)
(0.00147669 0.871803 0)
(0.00359755 0.887042 0)
(0.00419151 0.900694 0)
(0.00380233 0.912036 0)
(0.00290219 0.920691 0)
(0.00181 0.926508 0)
(0.000644287 0.929468 0)
(-0.000558447 0.9295 0)
(-0.00175898 0.92671 0)
(-0.00290083 0.92099 0)
(-0.00384405 0.912362 0)
(-0.00430876 0.900952 0)
(-0.00384946 0.887247 0)
(-0.00190685 0.871853 0)
(0.00206078 0.855907 0)
(0.00814033 0.841153 0)
(0.0144297 0.82725 0)
(0.0161949 0.806897 0)
(0.0125645 0.780405 0)
(0.00643455 0.745819 0)
(-0.000593765 0.705526 0)
(-0.00239287 0.667275 0)
(-0.000892482 0.663308 0)
(-0.00514702 0.708146 0)
(-0.011141 0.746918 0)
(-0.0156412 0.776713 0)
(-0.0158768 0.802007 0)
(-0.00969149 0.819526 0)
(-0.00235288 0.835089 0)
(0.00285519 0.852679 0)
(0.00536798 0.870442 0)
(0.00600699 0.886742 0)
(0.00548165 0.900952 0)
(0.00432965 0.912412 0)
(0.00299955 0.920954 0)
(0.00175508 0.926621 0)
(0.00060376 0.929521 0)
(-0.000505037 0.929558 0)
(-0.00165146 0.926887 0)
(-0.00290419 0.921286 0)
(-0.00423093 0.912781 0)
(-0.00542551 0.901265 0)
(-0.00606609 0.887067 0)
(-0.00558307 0.870632 0)
(-0.00330993 0.852829 0)
(0.00156754 0.834925 0)
(0.00875692 0.818862 0)
(0.0152544 0.801601 0)
(0.0156561 0.776615 0)
(0.011414 0.746953 0)
(0.00541723 0.708487 0)
(0.00121607 0.663589 0)
(-0.00516111 0.662627 0)
(-0.00844224 0.708655 0)
(-0.0135764 0.74327 0)
(-0.0151118 0.771897 0)
(-0.00987604 0.793969 0)
(-0.00202529 0.812016 0)
(0.00417998 0.831224 0)
(0.0071001 0.851232 0)
(0.00777812 0.870359 0)
(0.00704461 0.887252 0)
(0.00559578 0.901574 0)
(0.00393755 0.912817 0)
(0.00244646 0.921004 0)
(0.00131861 0.926338 0)
(0.000435588 0.929147 0)
(-0.000341914 0.929127 0)
(-0.00118564 0.926664 0)
(-0.00227613 0.921312 0)
(-0.00370025 0.913191 0)
(-0.00537155 0.901879 0)
(-0.0069126 0.887656 0)
(-0.00776627 0.870616 0)
(-0.00729563 0.851621 0)
(-0.00473248 0.831421 0)
(0.00114123 0.811765 0)
(0.00897274 0.793334 0)
(0.0147413 0.771582 0)
(0.0137326 0.743138 0)
(0.00865765 0.708787 0)
(0.0052918 0.663131 0)
(-0.00583068 0.66583 0)
(-0.00923553 0.707025 0)
(-0.0134041 0.739138 0)
(-0.00936129 0.764841 0)
(-0.00171623 0.786275 0)
(0.00528111 0.807746 0)
(0.00864766 0.829749 0)
(0.0093669 0.85128 0)
(0.00848544 0.871161 0)
(0.00662965 0.888156 0)
(0.0044712 0.902166 0)
(0.00262058 0.912912 0)
(0.00131289 0.920556 0)
(0.000564439 0.925435 0)
(0.000162508 0.928153 0)
(-9.66055e-05 0.928025 0)
(-0.000448069 0.925813 0)
(-0.0010935 0.920748 0)
(-0.00227179 0.913252 0)
(-0.00409852 0.902411 0)
(-0.00629297 0.888588 0)
(-0.00831018 0.871419 0)
(-0.00937618 0.851859 0)
(-0.00884915 0.830177 0)
(-0.00580018 0.807855 0)
(0.000856368 0.785987 0)
(0.00851896 0.764261 0)
(0.0130385 0.738821 0)
(0.00922927 0.706898 0)
(0.00566513 0.666372 0)
(-0.00308164 0.667553 0)
(-0.00808975 0.703882 0)
(-0.00743437 0.733183 0)
(-0.000965039 0.757705 0)
(0.00601034 0.781872 0)
(0.00977504 0.806089 0)
(0.0106907 0.829938 0)
(0.0096493 0.852326 0)
(0.00738441 0.872374 0)
(0.00467673 0.889077 0)
(0.00224597 0.902388 0)
(0.000645752 0.912332 0)
(-0.00012693 0.919388 0)
(-0.000315572 0.92382 0)
(-0.000142719 0.926451 0)
(0.000138752 0.926265 0)
(0.00035939 0.924225 0)
(0.000357991 0.919386 0)
(-0.000240961 0.912606 0)
(-0.00174895 0.902496 0)
(-0.0041629 0.889476 0)
(-0.00705343 0.872679 0)
(-0.00949288 0.852949 0)
(-0.0106214 0.830484 0)
(-0.0098741 0.806448 0)
(-0.00647449 0.781942 0)
(0.000150566 0.757434 0)
(0.00667719 0.732692 0)
(0.00784886 0.703791 0)
(0.0030268 0.667835 0)
(-0.00340285 0.667492 0)
(-0.00502224 0.701296 0)
(-0.000155592 0.7273 0)
(0.00638087 0.753625 0)
(0.0103259 0.780188 0)
(0.0116681 0.806216 0)
(0.0106985 0.83115 0)
(0.00791589 0.853903 0)
(0.00440679 0.8736 0)
(0.00132234 0.889507 0)
(-0.000611184 0.901827 0)