/*--------------------------------*- C++ -*----------------------------------*\
| =========                 |                                                 |
| \\      /  F ield         | OpenFOAM: The Open Source CFD Toolbox           |
|  \\    /   O peration     | Version:  v1606+                                |
|   \\  /    A nd           | Web:      www.OpenFOAM.com                      |
|    \\/     M anipulation  |                                                 |
\*---------------------------------------------------------------------------*/
FoamFile
{
    version     2.0;
    format      ascii;
    class       volVectorField;
    location    "0.13";
    object      Ur;
}
// * * * * * * * * * * * * * * * * * * * * * * * * * * * * * * * * * * * * * //

dimensions      [0 1 -1 0 0 0 0];

internalField   nonuniform List<vector> 
6000
(
(0.0257203 -0.701459 0)
(0.032182 -0.676405 0)
(0.04714 -0.680282 0)
(0.0599079 -0.679157 0)
(0.0654154 -0.679176 0)
(0.0666053 -0.681021 0)
(0.0639082 -0.686159 0)
(0.0575918 -0.689695 0)
(0.0504931 -0.692387 0)
(0.042716 -0.694552 0)
(0.0344153 -0.695811 0)
(0.0263975 -0.696905 0)
(0.0186001 -0.697916 0)
(0.0108489 -0.698813 0)
(0.00303292 -0.699216 0)
(-0.00460115 -0.69906 0)
(-0.0121814 -0.698593 0)
(-0.0197891 -0.697748 0)
(-0.0274538 -0.696855 0)
(-0.0352628 -0.696038 0)
(-0.0433225 -0.695099 0)
(-0.0512932 -0.693642 0)
(-0.058343 -0.691024 0)
(-0.0640334 -0.68654 0)
(-0.0668208 -0.681943 0)
(-0.065405 -0.67887 0)
(-0.059505 -0.678563 0)
(-0.0466487 -0.679808 0)
(-0.029951 -0.678157 0)
(-0.0238847 -0.704801 0)
(0.0419508 -1.12008 0)
(0.0599682 -1.02949 0)
(0.0510494 -1.03888 0)
(0.0655192 -1.03316 0)
(0.0660287 -1.03182 0)
(0.0614131 -1.03446 0)
(0.0563199 -1.0431 0)
(0.0512336 -1.04953 0)
(0.0448798 -1.05697 0)
(0.0384425 -1.06267 0)
(0.0312689 -1.06693 0)
(0.0238116 -1.07034 0)
(0.0164921 -1.07294 0)
(0.00949656 -1.07503 0)
(0.00286907 -1.07608 0)
(-0.00357584 -1.0758 0)
(-0.0102014 -1.07441 0)
(-0.0172778 -1.07236 0)
(-0.0247557 -1.07001 0)
(-0.0323088 -1.06699 0)
(-0.0395759 -1.06325 0)
(-0.0457385 -1.05824 0)
(-0.0504479 -1.05129 0)
(-0.0554285 -1.04296 0)
(-0.0607359 -1.03614 0)
(-0.0646474 -1.03187 0)
(-0.0652225 -1.03257 0)
(-0.0535495 -1.03895 0)
(-0.0637334 -1.03398 0)
(-0.0433848 -1.12428 0)
(0.0314639 -1.07804 0)
(0.0454413 -0.903867 0)
(0.0470831 -0.955502 0)
(0.0576997 -0.933515 0)
(0.0565945 -0.922818 0)
(0.05048 -0.918968 0)
(0.0442802 -0.927235 0)
(0.0386147 -0.930139 0)
(0.0331371 -0.937946 0)
(0.0279764 -0.943975 0)
(0.0225349 -0.94867 0)
(0.0172723 -0.952656 0)
(0.0120194 -0.955806 0)
(0.00699635 -0.958347 0)
(0.00230576 -0.959919 0)
(-0.00227846 -0.959752 0)
(-0.00717023 -0.957907 0)
(-0.0125137 -0.955208 0)
(-0.017994 -0.95239 0)
(-0.0234441 -0.948843 0)
(-0.0288481 -0.944387 0)
(-0.0336238 -0.939559 0)
(-0.0380158 -0.933324 0)
(-0.0436279 -0.925558 0)
(-0.0505944 -0.922403 0)
(-0.0568547 -0.92253 0)
(-0.059664 -0.930827 0)
(-0.0513953 -0.951262 0)
(-0.0508524 -0.90826 0)
(-0.034498 -1.08402 0)
(-0.0143793 -1.05842 0)
(0.00233604 -0.914993 0)
(0.0307218 -0.956639 0)
(0.0308942 -0.931017 0)
(0.0315048 -0.919161 0)
(0.0294634 -0.917327 0)
(0.0258226 -0.927022 0)
(0.0218299 -0.930781 0)
(0.0181668 -0.93857 0)
(0.0138065 -0.944208 0)
(0.010402 -0.950126 0)
(0.00810878 -0.955249 0)
(0.00603928 -0.959515 0)
(0.00387461 -0.962983 0)
(0.00134684 -0.965074 0)
(-0.00136947 -0.96504 0)
(-0.00393964 -0.962566 0)
(-0.00623429 -0.958944 0)
(-0.00833565 -0.955089 0)
(-0.0106493 -0.950475 0)
(-0.0138253 -0.944976 0)
(-0.0179692 -0.940376 0)
(-0.0224974 -0.933906 0)
(-0.0266983 -0.924837 0)
(-0.0315544 -0.919095 0)
(-0.0364446 -0.917317 0)
(-0.0377012 -0.926618 0)
(-0.0359671 -0.953084 0)
(-0.00510798 -0.919399 0)
(0.0129991 -1.0683 0)
(-0.00524829 -0.937206 0)
(0.016602 -0.86872 0)
(0.0383234 -0.852661 0)
(0.0255165 -0.833313 0)
(0.0131187 -0.827545 0)
(0.00528341 -0.833637 0)
(-3.74597e-05 -0.851078 0)
(-0.00454705 -0.864726 0)
(-0.00637475 -0.877263 0)
(-0.00737297 -0.886869 0)
(-0.00731089 -0.896863 0)
(-0.0064136 -0.904087 0)
(-0.00472835 -0.90971 0)
(-0.00269063 -0.913502 0)
(-0.000768542 -0.915396 0)
(0.000917011 -0.915754 0)
(0.00279645 -0.913647 0)
(0.00495799 -0.909759 0)
(0.00679473 -0.904322 0)
(0.00773098 -0.897284 0)
(0.00774799 -0.887584 0)
(0.00641185 -0.878264 0)
(0.00304954 -0.865796 0)
(-0.00190851 -0.849744 0)
(-0.00794859 -0.832696 0)
(-0.0178063 -0.824079 0)
(-0.0308776 -0.829995 0)
(-0.0426524 -0.854745 0)
(-0.0190067 -0.873707 0)
(0.00437539 -0.945199 0)
(0.0344988 -0.907462 0)
(0.0764204 -0.829345 0)
(0.0740706 -0.772157 0)
(0.0463113 -0.733377 0)
(0.0139431 -0.726787 0)
(-0.00879316 -0.738486 0)
(-0.021802 -0.753989 0)
(-0.0279247 -0.771338 0)
(-0.0282528 -0.788359 0)
(-0.0254454 -0.803456 0)
(-0.0218414 -0.816482 0)
(-0.018254 -0.826774 0)
(-0.0135579 -0.83385 0)
(-0.00824203 -0.838224 0)
(-0.00262629 -0.840105 0)
(0.00293446 -0.840107 0)
(0.00845401 -0.838207 0)
(0.0138683 -0.833823 0)
(0.0186472 -0.826829 0)
(0.0222341 -0.81672 0)
(0.0256676 -0.803803 0)
(0.0281046 -0.788661 0)
(0.0270136 -0.77134 0)
(0.0206457 -0.752734 0)
(0.00752427 -0.736723 0)
(-0.0151778 -0.722912 0)
(-0.0471636 -0.728606 0)
(-0.0768177 -0.771303 0)
(-0.0807294 -0.834411 0)
(-0.0365121 -0.91674 0)
(0.0709897 -0.91905 0)
(0.126223 -0.785086 0)
(0.0968086 -0.686034 0)
(0.060371 -0.637891 0)
(0.0227296 -0.636717 0)
(-0.00825477 -0.660514 0)
(-0.0300012 -0.690969 0)
(-0.0412248 -0.719043 0)
(-0.0445003 -0.742167 0)
(-0.0428803 -0.760181 0)
(-0.0378267 -0.772869 0)
(-0.0306807 -0.785026 0)
(-0.0220986 -0.793905 0)
(-0.0131846 -0.798979 0)
(-0.00436257 -0.801149 0)
(0.00443216 -0.801149 0)
(0.013323 -0.79901 0)
(0.0223405 -0.793974 0)
(0.0309805 -0.785137 0)
(0.0381002 -0.773131 0)
(0.0430979 -0.760492 0)
(0.0445579 -0.742333 0)
(0.0409145 -0.718737 0)
(0.0295778 -0.689956 0)
(0.00793663 -0.658686 0)
(-0.0225974 -0.633676 0)
(-0.059613 -0.63313 0)
(-0.0971963 -0.682789 0)
(-0.128907 -0.789813 0)
(-0.0728906 -0.930354 0)
(0.0846726 -0.962822 0)
(0.125049 -0.710659 0)
(0.084451 -0.590851 0)
(0.0581462 -0.547187 0)
(0.0345842 -0.550639 0)
(0.012845 -0.575161 0)
(-0.00807302 -0.611548 0)
(-0.0250789 -0.648106 0)
(-0.0368831 -0.67934 0)
(-0.0435435 -0.705566 0)
(-0.0437432 -0.726709 0)
(-0.0381135 -0.742839 0)
(-0.0285546 -0.753637 0)
(-0.0173362 -0.759679 0)
(-0.00579425 -0.762173 0)
(0.00582756 -0.762227 0)
(0.017439 -0.759749 0)
(0.0287371 -0.753744 0)
(0.0383155 -0.742878 0)
(0.0439032 -0.726751 0)
(0.0436875 -0.705697 0)
(0.0368947 -0.679217 0)
(0.0248713 -0.64753 0)
(0.00786942 -0.610688 0)
(-0.0128353 -0.573745 0)
(-0.0342117 -0.548403 0)
(-0.0572379 -0.543403 0)
(-0.0832445 -0.586869 0)
(-0.124817 -0.714275 0)
(-0.0852948 -0.974445 0)
(0.051573 -0.989596 0)
(0.0658559 -0.625437 0)
(0.0454704 -0.517741 0)
(0.0417305 -0.486329 0)
(0.0396296 -0.491749 0)
(0.0351269 -0.511235 0)
(0.0261167 -0.540845 0)
(0.0135017 -0.574872 0)
(-0.000369647 -0.607736 0)
(-0.0125272 -0.638482 0)
(-0.0205266 -0.667388 0)
(-0.0228951 -0.690816 0)
(-0.0198898 -0.706963 0)
(-0.0131865 -0.715708 0)
(-0.00454126 -0.719306 0)
(0.00465206 -0.719344 0)
(0.013232 -0.715738 0)
(0.0198934 -0.707044 0)
(0.0228475 -0.690762 0)
(0.0204313 -0.667427 0)
(0.0123888 -0.638571 0)
(0.000149485 -0.607508 0)
(-0.0137173 -0.574384 0)
(-0.0261752 -0.540264 0)
(-0.0349063 -0.5103 0)
(-0.0390801 -0.490076 0)
(-0.0406485 -0.48341 0)
(-0.0433999 -0.514301 0)
(-0.0633904 -0.628242 0)
(-0.0504857 -0.99962 0)
(-0.00368739 -0.941517 0)
(-0.00840486 -0.57072 0)
(0.00150725 -0.480894 0)
(0.0207409 -0.458464 0)
(0.0368836 -0.461954 0)
(0.0471254 -0.474924 0)
(0.050525 -0.495939 0)
(0.0472932 -0.520846 0)
(0.0393527 -0.547103 0)
(0.0293916 -0.574438 0)
(0.0192301 -0.602302 0)
(0.010255 -0.628297 0)
(0.00379823 -0.648612 0)
(0.000574413 -0.660572 0)
(-8.1737e-05 -0.665898 0)
(8.90334e-05 -0.665832 0)
(-0.000689427 -0.660464 0)
(-0.00403674 -0.648587 0)
(-0.0105545 -0.628206 0)
(-0.0195357 -0.602369 0)
(-0.0297222 -0.574568 0)
(-0.0396576 -0.54704 0)
(-0.04743 -0.520698 0)
(-0.0504118 -0.495772 0)
(-0.0467085 -0.474458 0)
(-0.0360597 -0.460839 0)
(-0.0192491 -0.456314 0)
(0.0011552 -0.478462 0)
(0.0116878 -0.573385 0)
(0.00548464 -0.947967 0)
(-0.0322981 -0.85556 0)
(-0.0537679 -0.552514 0)
(-0.0296367 -0.480135 0)
(0.00375561 -0.460228 0)
(0.03024 -0.45988 0)
(0.0493843 -0.466562 0)
(0.061202 -0.479209 0)
(0.0656749 -0.494498 0)
(0.0643341 -0.511608 0)
(0.0587739 -0.530773 0)
(0.0500334 -0.551669 0)
(0.0389589 -0.572437 0)
(0.0268195 -0.590087 0)
(0.0152259 -0.602045 0)
(0.00482779 -0.607761 0)
(-0.00508163 -0.607654 0)
(-0.015528 -0.601886 0)
(-0.0272003 -0.590041 0)
(-0.039362 -0.572462 0)
(-0.0504129 -0.551865 0)
(-0.0591441 -0.531054 0)
(-0.064606 -0.511802 0)
(-0.0657168 -0.494665 0)
(-0.0609557 -0.479314 0)
(-0.0488033 -0.466406 0)
(-0.0291879 -0.459221 0)
(-0.00194823 -0.458904 0)
(0.0325447 -0.47873 0)
(0.0567246 -0.554427 0)
(0.0335707 -0.859099 0)
(-0.0329316 -0.791014 0)
(-0.0609636 -0.557413 0)
(-0.0396502 -0.502017 0)
(-0.00501249 -0.479969 0)
(0.0228546 -0.474798 0)
(0.0446044 -0.477653 0)
(0.0604487 -0.485338 0)
(0.069926 -0.495395 0)
(0.0733178 -0.50654 0)
(0.0712186 -0.518629 0)
(0.0643357 -0.531445 0)
(0.0534249 -0.544153 0)
(0.0394891 -0.555289 0)
(0.0239067 -0.563332 0)
(0.00782926 -0.567294 0)
(-0.00828778 -0.567223 0)
(-0.0243317 -0.563246 0)
(-0.0399071 -0.555321 0)
(-0.0538305 -0.544316 0)
(-0.0647096 -0.531737 0)
(-0.0715404 -0.518973 0)
(-0.0734789 -0.506824 0)
(-0.069816 -0.495628 0)
(-0.0600273 -0.485461 0)
(-0.0438348 -0.477546 0)
(-0.0216379 -0.474344 0)
(0.00686995 -0.479186 0)
(0.0423051 -0.501344 0)
(0.063312 -0.558488 0)
(0.033776 -0.792879 0)
(-0.0206742 -0.754431 0)
(-0.041923 -0.56766 0)
(-0.0306588 -0.524816 0)
(-0.00623972 -0.501962 0)
(0.0154998 -0.49391 0)
(0.0340332 -0.495132 0)
(0.0491353 -0.501675 0)
(0.0603187 -0.511133 0)
(0.0670617 -0.521733 0)
(0.0689092 -0.532541 0)
(0.0654678 -0.542877 0)
(0.0567284 -0.55213 0)
(0.0434314 -0.559699 0)
(0.0269792 -0.565042 0)
(0.00894189 -0.567639 0)
(-0.00948248 -0.567598 0)
(-0.0274512 -0.564989 0)
(-0.043832 -0.559711 0)
(-0.0570739 -0.552227 0)
(-0.0657548 -0.543026 0)
(-0.0690998 -0.532702 0)
(-0.0670694 -0.521861 0)
(-0.0600606 -0.511235 0)
(-0.0485647 -0.50171 0)
(-0.0331148 -0.495023 0)
(-0.0141911 -0.493591 0)
(0.00797326 -0.501486 0)
(0.0328024 -0.52448 0)
(0.043791 -0.568035 0)
(0.0213891 -0.755188 0)
(-0.00711798 -0.736565 0)
(-0.0184417 -0.56962 0)
(-0.017859 -0.536389 0)
(-0.00611288 -0.517732 0)
(0.00746427 -0.511159 0)
(0.0209186 -0.512824 0)
(0.0331861 -0.519424 0)
(0.0434698 -0.528761 0)
(0.0509774 -0.539333 0)
(0.0548582 -0.550294 0)
(0.0542618 -0.56104 0)
(0.0487228 -0.570871 0)
(0.0384915 -0.579021 0)
(0.0245172 -0.584817 0)
(0.0082528 -0.58772 0)
(-0.00871897 -0.587662 0)
(-0.0249199 -0.584677 0)
(-0.0388135 -0.578849 0)
(-0.0489791 -0.570701 0)
(-0.0544598 -0.560869 0)
(-0.0549717 -0.550139 0)
(-0.0509453 -0.539216 0)
(-0.0432115 -0.528713 0)
(-0.0326218 -0.519432 0)
(-0.0199916 -0.512822 0)
(-0.0061647 -0.51106 0)
(0.00771918 -0.517508 0)
(0.0196253 -0.536153 0)
(0.019982 -0.569529 0)
(0.00777287 -0.736393 0)
(-0.000781389 -0.727572 0)
(-0.00807084 -0.564339 0)
(-0.0138455 -0.539072 0)
(-0.0096196 -0.528789 0)
(-0.00123805 -0.526575 0)
(0.00903452 -0.529793 0)
(0.019761 -0.536183 0)
(0.029623 -0.543824 0)
(0.0371703 -0.551805 0)
(0.0412744 -0.559897 0)
(0.0413306 -0.568122 0)
(0.0372665 -0.576146 0)
(0.0295064 -0.583256 0)
(0.0188567 -0.588598 0)
(0.00639844 -0.591414 0)
(-0.00665234 -0.591334 0)
(-0.0190758 -0.588375 0)
(-0.0296796 -0.582924 0)
(-0.0374032 -0.57574 0)
(-0.0414412 -0.567662 0)
(-0.0413509 -0.55944 0)
(-0.0371761 -0.551421 0)
(-0.0294841 -0.543594 0)
(-0.0193658 -0.536144 0)
(-0.0082751 -0.529912 0)
(0.00239906 -0.526729 0)
(0.0111113 -0.528844 0)
(0.0154625 -0.538928 0)
(0.00951797 -0.564018 0)
(0.00143984 -0.72663 0)
(-0.00244917 -0.718881 0)
(-0.0116845 -0.559158 0)
(-0.0186677 -0.540283 0)
(-0.0162364 -0.538881 0)
(-0.0091952 -0.541376 0)
(0.000744828 -0.546265 0)
(0.0120712 -0.551907 0)
(0.0227623 -0.556672 0)
(0.0306523 -0.560562 0)
(0.03454 -0.564236 0)
(0.0343486 -0.568321 0)
(0.0305336 -0.572855 0)
(0.0238225 -0.577292 0)
(0.0150721 -0.580849 0)
(0.00514181 -0.582799 0)
(-0.00516214 -0.582716 0)
(-0.0150654 -0.580603 0)
(-0.0237795 -0.576893 0)
(-0.0304741 -0.572314 0)
(-0.0342936 -0.567646 0)
(-0.0345062 -0.563496 0)
(-0.0306515 -0.559863 0)
(-0.0227597 -0.556153 0)
(-0.0119401 -0.551696 0)
(-0.000324258 -0.54639 0)
(0.0100106 -0.541716 0)
(0.0174671 -0.539259 0)
(0.020188 -0.540409 0)
(0.0132155 -0.558928 0)
(0.0031898 -0.71731 0)
(-0.00859655 -0.704058 0)
(-0.0223576 -0.558619 0)
(-0.0268734 -0.545419 0)
(-0.0228224 -0.549839 0)
(-0.0145154 -0.556225 0)
(-0.00249928 -0.56255 0)
(0.0110562 -0.566723 0)
(0.022852 -0.567435 0)
(0.0304954 -0.566267 0)
(0.0332608 -0.565421 0)
(0.0317572 -0.565972 0)
(0.0271292 -0.567756 0)
(0.0204811 -0.570646 0)
(0.0126823 -0.573205 0)
(0.00433557 -0.574683 0)
(-0.00415507 -0.574617 0)
(-0.0124628 -0.572993 0)
(-0.0202017 -0.570284 0)
(-0.0267989 -0.567204 0)
(-0.0314205 -0.565185 0)
(-0.0329945 -0.564454 0)
(-0.0303725 -0.565231 0)
(-0.0228943 -0.566503 0)
(-0.0111724 -0.566177 0)
(0.00249454 -0.562503 0)
(0.014799 -0.556573 0)
(0.0234938 -0.550433 0)
(0.0279973 -0.545964 0)
(0.0238333 -0.558811 0)
(0.00940119 -0.702006 0)
(-0.0147122 -0.681691 0)
(-0.0322734 -0.563573 0)
(-0.0332431 -0.553534 0)
(-0.0268901 -0.561817 0)
(-0.016114 -0.571954 0)
(-0.000557718 -0.579192 0)
(0.0162878 -0.579672 0)
(0.0290696 -0.57445 0)
(0.0351191 -0.567765 0)
(0.0351417 -0.562916 0)
(0.0311001 -0.56131 0)
(0.0249056 -0.562574 0)
(0.0178141 -0.564867 0)
(0.0106368 -0.567344 0)
(0.00360964 -0.568885 0)
(-0.00330755 -0.568848 0)
(-0.0102665 -0.567221 0)
(-0.0173279 -0.564603 0)
(-0.0242913 -0.562117 0)
(-0.0303977 -0.560586 0)
(-0.0344726 -0.561874 0)
(-0.0346605 -0.566472 0)
(-0.0289679 -0.573047 0)
(-0.0165506 -0.578586 0)
(0.00018718 -0.578744 0)
(0.0158546 -0.572099 0)
(0.0268139 -0.562381 0)
(0.0335143 -0.554344 0)
(0.0331281 -0.564209 0)
(0.0153202 -0.679363 0)
(-0.0175419 -0.655427 0)
(-0.0365132 -0.570103 0)
(-0.035967 -0.563201 0)
(-0.0286088 -0.57494 0)
(-0.0137379 -0.589472 0)
(0.0080835 -0.595506 0)
(0.0287513 -0.588389 0)
(0.0403317 -0.575302 0)
(0.0420278 -0.56367 0)
(0.0374759 -0.557388 0)
(0.0300766 -0.555847 0)
(0.0220662 -0.557784 0)
(0.014612 -0.560944 0)
(0.0082282 -0.564231 0)
(0.00271994 -0.566233 0)
(-0.00242134 -0.566253 0)
(-0.00782169 -0.564275 0)
(-0.0140116 -0.560926 0)
(-0.0212234 -0.557598 0)
(-0.0290197 -0.555454 0)
(-0.0362874 -0.556553 0)
(-0.0409615 -0.562371 0)
(-0.039716 -0.573543 0)
(-0.0288427 -0.586612 0)
(-0.00870801 -0.59444 0)
(0.013007 -0.589197 0)
(0.0279635 -0.575334 0)
(0.0352698 -0.564223 0)
(0.0361152 -0.57089 0)
(0.0175392 -0.65318 0)
(-0.016708 -0.630118 0)
(-0.0352191 -0.575417 0)
(-0.0371457 -0.574364 0)
(-0.0285264 -0.59083 0)
(-0.00397648 -0.609274 0)
(0.0269213 -0.607555 0)
(0.0479617 -0.588106 0)
(0.0528051 -0.567719 0)
(0.0470533 -0.554686 0)
(0.0371401 -0.549999 0)
(0.0265448 -0.550872 0)
(0.0173187 -0.554842 0)
(0.0102239 -0.560255 0)
(0.00518848 -0.564855 0)
(0.00159399 -0.567465 0)
(-0.00144908 -0.567557 0)
(-0.00490095 -0.565105 0)
(-0.0096678 -0.560604 0)
(-0.0164001 -0.555153 0)
(-0.0252413 -0.550999 0)
(-0.0354946 -0.549744 0)
(-0.045262 -0.553826 0)
(-0.0512178 -0.566066 0)
(-0.0472101 -0.585807 0)
(-0.0273672 -0.605756 0)
(0.00270975 -0.608498 0)
(0.0271741 -0.591159 0)
(0.0359224 -0.575403 0)
(0.0338612 -0.576405 0)
(0.015971 -0.628342 0)
(-0.0133322 -0.609282 0)
(-0.0330221 -0.581706 0)
(-0.0378165 -0.587198 0)
(-0.0189289 -0.614574 0)
(0.0202248 -0.625285 0)
(0.0545878 -0.605715 0)
(0.0664876 -0.574912 0)
(0.0594857 -0.552999 0)
(0.0457694 -0.544194 0)
(0.031492 -0.54403 0)
(0.0194402 -0.549189 0)
(0.0106011 -0.556702 0)
(0.00496204 -0.56413 0)
(0.00187832 -0.569829 0)
(0.000390548 -0.572914 0)
(-0.000512568 -0.573054 0)
(-0.00184727 -0.570237 0)
(-0.00462795 -0.564756 0)
(-0.0098316 -0.557464 0)
(-0.0181494 -0.5499 0)
(-0.029656 -0.544559 0)
(-0.0434243 -0.544205 0)
(-0.0569303 -0.552268 0)
(-0.064411 -0.572985 0)
(-0.0544525 -0.60338 0)
(-0.0216082 -0.623642 0)
(0.0173198 -0.614932 0)
(0.0361284 -0.588263 0)
(0.031424 -0.583011 0)
(0.0125255 -0.608379 0)
(-0.0108539 -0.592967 0)
(-0.0319168 -0.589201 0)
(-0.0223353 -0.608896 0)
(0.0150106 -0.642867 0)
(0.0526891 -0.624349 0)
(0.0764114 -0.586278 0)
(0.0717731 -0.553117 0)
(0.0539877 -0.538984 0)
(0.0356858 -0.538056 0)
(0.0207063 -0.544182 0)
(0.00999126 -0.553669 0)
(0.00333209 -0.563682 0)
(4.62017e-05 -0.572338 0)
(-0.00090818 -0.578521 0)
(-0.000589769 -0.581745 0)
(0.000187059 -0.581908 0)
(0.000637526 -0.579005 0)
(-3.71961e-05 -0.573106 0)
(-0.00289741 -0.564682 0)
(-0.00901873 -0.554792 0)
(-0.0191138 -0.545324 0)
(-0.0334063 -0.538984 0)
(-0.0511227 -0.539512 0)
(-0.0688818 -0.552623 0)
(-0.075148 -0.583866 0)
(-0.0535225 -0.622082 0)
(-0.0162821 -0.641971 0)
(0.0210102 -0.609894 0)
(0.0306437 -0.590642 0)
(0.0103569 -0.59303 0)
(-0.0148964 -0.581336 0)
(-0.0162874 -0.596333 0)
(0.0146984 -0.644315 0)
(0.0527367 -0.637697 0)
(0.081203 -0.605386 0)
(0.0802239 -0.561449 0)
(0.0593471 -0.536947 0)
(0.0374528 -0.533646 0)
(0.0202878 -0.540181 0)
(0.00841998 -0.550861 0)
(0.00120671 -0.562977 0)
(-0.00229751 -0.574228 0)
(-0.00326601 -0.583186 0)
(-0.00267567 -0.589015 0)
(-0.00119874 -0.591919 0)
(0.000578421 -0.592074 0)
(0.00217946 -0.589479 0)
(0.00300619 -0.583965 0)
(0.00236158 -0.575284 0)
(-0.000691956 -0.564194 0)
(-0.00737319 -0.552198 0)
(-0.0186525 -0.541542 0)
(-0.0351587 -0.534868 0)
(-0.0565691 -0.537579 0)
(-0.077471 -0.559784 0)
(-0.0805443 -0.603183 0)
(-0.053989 -0.635497 0)
(-0.0154607 -0.643148 0)
(0.0160438 -0.597942 0)
(0.0147614 -0.582238 0)
(-0.00325716 -0.573938 0)
(0.0108372 -0.623042 0)
(0.047006 -0.641568 0)
(0.0818617 -0.613401 0)
(0.090763 -0.580806 0)
(0.0663265 -0.542929 0)
(0.0380388 -0.532344 0)
(0.018422 -0.537211 0)
(0.00593482 -0.548068 0)
(-0.00118876 -0.561204 0)
(-0.00450657 -0.574585 0)
(-0.00532578 -0.585845 0)
(-0.00448369 -0.593829 0)
(-0.00292018 -0.598488 0)
(-0.00120989 -0.600585 0)
(0.000497276 -0.600708 0)
(0.00229455 -0.598872 0)
(0.00404078 -0.594508 0)
(0.00516649 -0.586803 0)
(0.00468558 -0.575779 0)
(0.00172895 -0.562482 0)
(-0.00496385 -0.549368 0)
(-0.0168949 -0.538417 0)
(-0.0357811 -0.533237 0)
(-0.0630744 -0.542343 0)
(-0.0881736 -0.578443 0)
(-0.0813833 -0.610954 0)
(-0.0472753 -0.638148 0)
(-0.0109305 -0.622906 0)
(0.00329996 -0.574863 0)
(0.0114533 -0.570209 0)
(0.0412006 -0.628627 0)
(0.075494 -0.612711 0)
(0.0950279 -0.588606 0)
(0.0763194 -0.554239 0)
(0.0396755 -0.533175 0)
(0.0158049 -0.53461 0)
(0.00267875 -0.544748 0)
(-0.00398918 -0.558144 0)
(-0.00675948 -0.57279 0)
(-0.00689944 -0.585994 0)
(-0.00511699 -0.595927 0)
(-0.00278711 -0.601578 0)
(-0.0010955 -0.603995 0)
(-0.000426499 -0.604603 0)
(-0.000217196 -0.6046 0)
(0.000468249 -0.604231 0)
(0.00224206 -0.602071 0)
(0.0047712 -0.596732 0)
(0.00682914 -0.587093 0)
(0.00701651 -0.573947 0)
(0.00455972 -0.559309 0)
(-0.00174331 -0.545786 0)
(-0.0142696 -0.535441 0)
(-0.0371356 -0.533374 0)
(-0.0725968 -0.552425 0)
(-0.0922421 -0.586654 0)
(-0.074325 -0.609496 0)
(-0.0400953 -0.625559 0)
(-0.0108558 -0.572236 0)
(0.0113353 -0.580992 0)
(0.0501743 -0.598897 0)
(0.0891468 -0.583733 0)
(0.0823877 -0.560377 0)
(0.0426562 -0.535353 0)
(0.0119307 -0.53138 0)
(-0.00212032 -0.540397 0)
(-0.00799913 -0.553685 0)
(-0.00961509 -0.568873 0)
(-0.00841473 -0.58386 0)
(-0.00485694 -0.59583 0)
(-0.000355362 -0.602561 0)
(0.00279196 -0.60407 0)
(0.00320978 -0.602965 0)
(0.00125148 -0.60167 0)
(-0.00163971 -0.601697 0)
(-0.0036699 -0.60296 0)
(-0.00333924 -0.604246 0)
(-0.000169962 -0.603099 0)
(0.00454336 -0.596763 0)
(0.0084317 -0.584965 0)
(0.00994617 -0.569945 0)
(0.00858866 -0.554647 0)
(0.00307061 -0.54117 0)
(-0.0102378 -0.531918 0)
(-0.0392586 -0.534787 0)
(-0.0782723 -0.559157 0)
(-0.0864318 -0.582177 0)
(-0.0491261 -0.596871 0)
(-0.0112467 -0.582945 0)
(0.0159697 -0.591712 0)
(0.0572094 -0.578028 0)
(0.0762016 -0.558537 0)
(0.0442061 -0.537789 0)
(0.00687424 -0.528275 0)
(-0.00944295 -0.534897 0)
(-0.0144044 -0.548008 0)
(-0.0143589 -0.563497 0)
(-0.0111633 -0.579789 0)
(-0.00483806 -0.594302 0)
(0.00347261 -0.6031 0)
(0.0103571 -0.603694 0)
(0.0126212 -0.599125 0)
(0.00985873 -0.59383 0)
(0.00371587 -0.590758 0)
(-0.00364565 -0.59071 0)
(-0.00995311 -0.593509 0)
(-0.0129989 -0.598817 0)
(-0.010996 -0.603717 0)
(-0.00411547 -0.603726 0)
(0.00449821 -0.595393 0)
(0.0112182 -0.580898 0)
(0.0147176 -0.564459 0)
(0.0149624 -0.548782 0)
(0.0103665 -0.535579 0)
(-0.00494836 -0.528682 0)
(-0.040775 -0.537569 0)
(-0.0727942 -0.557954 0)
(-0.0559028 -0.578159 0)
(-0.0159254 -0.592483 0)
(0.0260946 -0.593811 0)
(0.0592144 -0.569515 0)
(0.0420343 -0.53955 0)
(0.00288814 -0.527165 0)
(-0.0176861 -0.529437 0)
(-0.023571 -0.541448 0)
(-0.0225528 -0.557177 0)
(-0.0168992 -0.574756 0)
(-0.00691324 -0.592012 0)
(0.00687616 -0.60436 0)
(0.0202338 -0.605342 0)
(0.0271441 -0.596641 0)
(0.0255877 -0.585541 0)
(0.0177156 -0.57689 0)
(0.00648759 -0.572368 0)
(-0.00580265 -0.572093 0)
(-0.0172458 -0.576258 0)
(-0.0255512 -0.584674 0)
(-0.0277062 -0.595879 0)
(-0.0212268 -0.605291 0)
(-0.00780151 -0.605213 0)
(0.00647084 -0.593295 0)
(0.0169633 -0.575874 0)
(0.0229039 -0.558011 0)
(0.0240214 -0.542199 0)
(0.0184786 -0.530104 0)
(-0.00113067 -0.52738 0)
(-0.0394078 -0.539235 0)
(-0.0575919 -0.569407 0)
(-0.025925 -0.59382 0)
(0.0302428 -0.589249 0)
(0.0400441 -0.553512 0)
(0.000460463 -0.526946 0)
(-0.025213 -0.524759 0)
(-0.0333846 -0.5339 0)
(-0.0336626 -0.549781 0)
(-0.027236 -0.569206 0)
(-0.0131826 -0.589608 0)
(0.00782782 -0.606722 0)
(0.0307311 -0.61053 0)
(0.0455901 -0.59782 0)
(0.0470762 -0.579376 0)
(0.0383843 -0.564115 0)
(0.024466 -0.554787 0)
(0.00871316 -0.550403 0)
(-0.00739565 -0.550127 0)
(-0.0233164 -0.554 0)
(-0.0376683 -0.562825 0)
(-0.0471312 -0.577751 0)
(-0.0466048 -0.596675 0)
(-0.032389 -0.610438 0)
(-0.00922595 -0.608014 0)
(0.0126327 -0.591101 0)
(0.0273246 -0.570274 0)
(0.0340866 -0.550555 0)
(0.0337235 -0.534787 0)
(0.0256118 -0.52506 0)
(0.000707969 -0.526676 0)
(-0.0385775 -0.552763 0)
(-0.02962 -0.588167 0)
(0.0138458 -0.582742 0)
(0.00243042 -0.536644 0)
(-0.0300608 -0.521862 0)
(-0.0417456 -0.52809 0)
(-0.0462184 -0.540039 0)
(-0.0423754 -0.560583 0)
(-0.0255175 -0.586877 0)
(0.00461866 -0.609911 0)
(0.0401703 -0.618479 0)
(0.0667993 -0.603785 0)
(0.0734627 -0.57596 0)
(0.0633903 -0.552542 0)
(0.0461154 -0.538303 0)
(0.0274654 -0.531791 0)
(0.00956665 -0.529601 0)
(-0.00782205 -0.529402 0)
(-0.025771 -0.53111 0)
(-0.0446106 -0.536955 0)
(-0.0623796 -0.550435 0)
(-0.0736577 -0.573645 0)
(-0.0685734 -0.601884 0)
(-0.0427352 -0.618599 0)
(-0.00655576 -0.611755 0)
(0.024823 -0.588374 0)
(0.0426946 -0.561518 0)
(0.0466975 -0.54128 0)
(0.0416268 -0.528703 0)
(0.0298437 -0.521608 0)
(-0.00184049 -0.535871 0)
(-0.01325 -0.581005 0)
(-0.0112426 -0.579441 0)
(-0.0317392 -0.531209 0)
(-0.0455862 -0.526151 0)
(-0.0542858 -0.533836 0)
(-0.0571706 -0.547783 0)
(-0.0432497 -0.576601 0)
(-0.00504024 -0.613863 0)
(0.0469117 -0.627123 0)
(0.0882115 -0.611433 0)
(0.102277 -0.575238 0)
(0.0914421 -0.540832 0)
(0.0696169 -0.521997 0)
(0.0462433 -0.514754 0)
(0.0258903 -0.513649 0)
(0.00879765 -0.514099 0)
(-0.00697773 -0.514036 0)
(-0.0239456 -0.51334 0)
(-0.0441432 -0.513948 0)
(-0.0675958 -0.52036 0)
(-0.0900746 -0.537907 0)
(-0.102243 -0.571588 0)
(-0.0903998 -0.608893 0)
(-0.0505889 -0.628022 0)
(0.00232329 -0.615512 0)
(0.0422363 -0.577943 0)
(0.0574389 -0.549542 0)
(0.0545793 -0.534945 0)
(0.0448743 -0.526131 0)
(0.0309161 -0.53051 0)
(0.0110359 -0.57728 0)
(-0.0189009 -0.574363 0)
(-0.0417479 -0.534263 0)
(-0.0513718 -0.533862 0)
(-0.0620834 -0.54088 0)
(-0.0544842 -0.560252 0)
(-0.0133349 -0.613054 0)
(0.0458288 -0.642159 0)
(0.0997734 -0.620362 0)
(0.126893 -0.575696 0)
(0.11817 -0.531667 0)
(0.0915433 -0.506339 0)
(0.0630776 -0.498821 0)
(0.0390223 -0.500656 0)
(0.0206941 -0.505095 0)
(0.00682177 -0.508395 0)
(-0.00533795 -0.508506 0)
(-0.018942 -0.50534 0)
(-0.0368123 -0.500777 0)
(-0.0604065 -0.498341 0)
(-0.0885494 -0.504361 0)
(-0.115737 -0.52813 0)
(-0.12657 -0.571353 0)
(-0.102385 -0.617839 0)
(-0.0496822 -0.642935 0)
(0.00909825 -0.613914 0)
(0.0522695 -0.56388 0)
(0.062721 -0.54193 0)
(0.0512779 -0.533767 0)
(0.0402718 -0.53378 0)
(0.0179832 -0.572064 0)
(-0.0159674 -0.558606 0)
(-0.0393165 -0.537265 0)
(-0.0554889 -0.540261 0)
(-0.0517895 -0.549282 0)
(-0.0148475 -0.605958 0)
(0.0450313 -0.655058 0)
(0.103962 -0.630379 0)
(0.13745 -0.586283 0)
(0.134718 -0.52931 0)
(0.107481 -0.495724 0)
(0.0756431 -0.486828 0)
(0.0481071 -0.491141 0)
(0.0279375 -0.500067 0)
(0.01412 -0.50815 0)
(0.00446906 -0.513053 0)
(-0.00367737 -0.513327 0)
(-0.0129784 -0.508891 0)
(-0.0261242 -0.501065 0)
(-0.0453742 -0.491986 0)
(-0.0720226 -0.486803 0)
(-0.103565 -0.494065 0)
(-0.131618 -0.525809 0)
(-0.137027 -0.581835 0)
(-0.106794 -0.628088 0)
(-0.0479731 -0.6517 0)
(0.0121543 -0.611873 0)
(0.0503406 -0.550304 0)
(0.0550005 -0.53925 0)
(0.0375232 -0.536995 0)
(0.0149129 -0.556854 0)
(-0.0140264 -0.538531 0)
(-0.0403846 -0.536235 0)
(-0.0494355 -0.54485 0)
(-0.0127215 -0.584867 0)
(0.0539231 -0.657605 0)
(0.105546 -0.639712 0)
(0.140955 -0.598999 0)
(0.146108 -0.543963 0)
(0.117327 -0.494446 0)
(0.0818561 -0.480093 0)
(0.0520697 -0.485989 0)
(0.0312797 -0.498504 0)
(0.0175867 -0.511137 0)
(0.00869392 -0.520574 0)
(0.00257138 -0.525455 0)
(-0.00257137 -0.525789 0)
(-0.00836757 -0.521546 0)
(-0.0165939 -0.51261 0)
(-0.029297 -0.50027 0)
(-0.0488406 -0.487621 0)
(-0.0774367 -0.480708 0)
(-0.113013 -0.493029 0)
(-0.143763 -0.540174 0)
(-0.141869 -0.594928 0)
(-0.106658 -0.636592 0)
(-0.0506435 -0.657663 0)
(0.0115068 -0.593528 0)
(0.0439522 -0.545455 0)
(0.037672 -0.537126 0)
(0.0128297 -0.538091 0)
(-0.0178167 -0.519587 0)
(-0.0390968 -0.53035 0)
(-0.0109608 -0.564149 0)
(0.0537517 -0.637002 0)
(0.105202 -0.636416 0)
(0.142605 -0.604944 0)
(0.156453 -0.56158 0)
(0.127259 -0.503102 0)
(0.0833722 -0.478619 0)
(0.0510673 -0.483336 0)
(0.030902 -0.497983 0)
(0.0183187 -0.514126 0)
(0.0104757 -0.527757 0)
(0.00533809 -0.53708 0)
(0.00144291 -0.541749 0)
(-0.00205896 -0.542053 0)
(-0.00571942 -0.53801 0)
(-0.0103033 -0.52923 0)
(-0.0173083 -0.51608 0)
(-0.0288555 -0.500242 0)
(-0.0476541 -0.485397 0)
(-0.0784149 -0.479463 0)
(-0.122281 -0.501075 0)
(-0.154692 -0.556569 0)
(-0.142673 -0.602593 0)
(-0.105484 -0.635968 0)
(-0.0571434 -0.645588 0)
(0.00660698 -0.569069 0)
(0.0368604 -0.532882 0)
(0.0171549 -0.520759 0)
(-0.0145775 -0.495329 0)
(-0.00699815 -0.538922 0)
(0.047815 -0.602366 0)
(0.0980774 -0.619555 0)
(0.134671 -0.59584 0)
(0.158602 -0.564573 0)
(0.135194 -0.514239 0)
(0.0826149 -0.47928 0)
(0.0462118 -0.480833 0)
(0.0268938 -0.495863 0)
(0.0163867 -0.514157 0)
(0.0105917 -0.531533 0)
(0.00685992 -0.544847 0)
(0.00387612 -0.553227 0)
(0.000972085 -0.55722 0)
(-0.00191865 -0.55745 0)
(-0.0046133 -0.553935 0)
(-0.00721026 -0.546125 0)
(-0.010404 -0.533319 0)
(-0.0155172 -0.516348 0)
(-0.0250723 -0.498205 0)
(-0.0428821 -0.482833 0)
(-0.0774068 -0.479839 0)
(-0.129973 -0.510123 0)
(-0.157889 -0.562811 0)
(-0.138106 -0.59517 0)
(-0.101754 -0.620674 0)
(-0.0515388 -0.608039 0)
(0.00426517 -0.542322 0)
(0.0141621 -0.496898 0)
(0.00667321 -0.4787 0)
(0.0383393 -0.582436 0)
(0.0817595 -0.594202 0)
(0.118737 -0.581396 0)
(0.149517 -0.555791 0)
(0.137006 -0.517117 0)
(0.0800856 -0.481595 0)
(0.0373565 -0.477265 0)
(0.019571 -0.491453 0)
(0.0115399 -0.510773 0)
(0.00796617 -0.530612 0)
(0.00657829 -0.547185 0)
(0.00572021 -0.558764 0)
(0.00395554 -0.565334 0)
(0.00112941 -0.568155 0)
(-0.00208344 -0.568273 0)
(-0.0048006 -0.565754 0)
(-0.00638112 -0.559662 0)
(-0.00692589 -0.54856 0)
(-0.00781251 -0.532339 0)
(-0.0108759 -0.512815 0)
(-0.018142 -0.49345 0)
(-0.0342679 -0.478767 0)
(-0.0737036 -0.480276 0)
(-0.131958 -0.514932 0)
(-0.151265 -0.553668 0)
(-0.121899 -0.578469 0)
(-0.0850441 -0.595315 0)
(-0.0416537 -0.585285 0)
(-0.00762623 -0.480634 0)
(0.0216911 -0.487512 0)
(0.0677521 -0.588258 0)
(0.103224 -0.570406 0)
(0.132281 -0.546968 0)
(0.131353 -0.511679 0)
(0.0751537 -0.482685 0)
(0.0253254 -0.474329 0)
(0.00831 -0.485599 0)
(0.00332902 -0.504687 0)
(0.00263618 -0.525556 0)
(0.00426326 -0.54497 0)
(0.00638333 -0.558983 0)
(0.00725979 -0.566992 0)
(0.00569831 -0.57053 0)
(0.00197286 -0.571422 0)
(-0.00259083 -0.571387 0)
(-0.00636933 -0.570529 0)
(-0.00796998 -0.567245 0)
(-0.00698466 -0.559701 0)
(-0.00458679 -0.54613 0)
(-0.0026578 -0.527016 0)
(-0.00308411 -0.506316 0)
(-0.00736167 -0.487023 0)
(-0.0219741 -0.474906 0)
(-0.0683641 -0.481679 0)
(-0.127321 -0.509159 0)
(-0.134581 -0.543502 0)
(-0.10549 -0.567691 0)
(-0.0691491 -0.586577 0)
(-0.0226892 -0.491014 0)
(0.0179295 -0.521267 0)
(0.0713727 -0.556757 0)
(0.120425 -0.539845 0)
(0.120721 -0.506715 0)
(0.0672772 -0.479817 0)
(0.0134391 -0.473214 0)
(-0.00543672 -0.480293 0)
(-0.00826541 -0.497534 0)
(-0.00587032 -0.518269 0)
(-0.000563179 -0.53914 0)
(0.00586459 -0.555819 0)
(0.0109008 -0.564852 0)
(0.0122526 -0.567475 0)
(0.00942757 -0.567109 0)
(0.00359222 -0.566433 0)
(-0.00342624 -0.566171 0)
(-0.0095047 -0.566485 0)
(-0.0126908 -0.566812 0)
(-0.011621 -0.564625 0)
(-0.00661654 -0.55634 0)
(-5.34157e-05 -0.540055 0)
(0.00539244 -0.519438 0)
(0.00795148 -0.498739 0)
(0.00592651 -0.481269 0)
(-0.00993239 -0.473367 0)
(-0.0603878 -0.478275 0)
(-0.116557 -0.502682 0)
(-0.120933 -0.535259 0)
(-0.0713643 -0.552124 0)
(-0.017468 -0.525721 0)
(0.0241179 -0.551747 0)
(0.080274 -0.530709 0)
(0.102991 -0.502001 0)
(0.0553995 -0.47709 0)
(0.00162001 -0.471184 0)
(-0.0187301 -0.476295 0)
(-0.0214667 -0.491072 0)
(-0.0173226 -0.510712 0)
(-0.00828415 -0.532223 0)
(0.00347297 -0.551112 0)
(0.0144285 -0.56133 0)
(0.0204943 -0.56225 0)
(0.0200097 -0.558882 0)
(0.0143482 -0.55519 0)
(0.00563275 -0.553124 0)
(-0.00420726 -0.552634 0)
(-0.0133574 -0.55382 0)
(-0.019785 -0.557061 0)
(-0.0211545 -0.56064 0)