/*--------------------------------*- C++ -*----------------------------------*\
| =========                 |                                                 |
| \\      /  F ield         | OpenFOAM: The Open Source CFD Toolbox           |
|  \\    /   O peration     | Version:  2.4.0                                 |
|   \\  /    A nd           | Web:      www.OpenFOAM.org                      |
|    \\/     M anipulation  |                                                 |
\*---------------------------------------------------------------------------*/
FoamFile
{
    version     2.0;
    format      ascii;
    class       volScalarField;
    location    "0.1";
    object      alpha.water;
}
// * * * * * * * * * * * * * * * * * * * * * * * * * * * * * * * * * * * * * //

dimensions      [0 0 0 0 0 0 0];

internalField   nonuniform List<scalar> 
3072
(
6.00828e-27
1.9488e-25
2.5619e-24
2.04873e-23
1.18682e-22
5.37672e-22
2.05255e-21
6.73893e-21
1.96917e-20
6.0804e-20
5.1805e-20
5.45227e-20
4.00374e-23
4.30228e-22
2.67502e-21
1.26572e-20
5.13141e-20
1.93323e-19
6.93613e-19
2.385e-18
7.81099e-18
2.26256e-17
9.63405e-18
4.71357e-18
5.66412e-22
1.11253e-20
1.00773e-19
6.3583e-19
3.12546e-18
1.26199e-17
4.45577e-17
1.48304e-16
4.89617e-16
1.56835e-15
5.91863e-16
2.05573e-16
2.1508e-19
2.97855e-18
2.62146e-17
1.58844e-16
7.14942e-16
2.51244e-15
7.11778e-15
1.68094e-14
3.52761e-14
4.26979e-14
1.59918e-14
4.35934e-15
1.74306e-18
1.07311e-16
9.54727e-16
5.62974e-15
2.52358e-14
9.12442e-14
2.62285e-13
5.91142e-13
6.73579e-13
5.63316e-13
2.35852e-13
5.73181e-14
1.66868e-15
8.77433e-15
4.23886e-14
1.54124e-13
5.40885e-13
1.69875e-12
3.13889e-12
4.34351e-12
3.72531e-12
3.36211e-12
1.84641e-12
4.99363e-13
9.37177e-16
4.08279e-15
5.72855e-14
2.09748e-12
1.23398e-11
1.10318e-11
2.81104e-12
2.90917e-12
3.00174e-12
7.10188e-12
6.39012e-12
2.95896e-12
3.51999e-13
1.19301e-11
7.41832e-11
7.01747e-11
1.69796e-11
1.26807e-11
0.0103105
0.055933
0.0328895
7.63123e-12
6.93144e-12
9.65895e-12
1.88221e-13
3.87257e-11
5.55139e-11
1.10526e-10
1.86579e-11
0.171714
0.639514
0.782622
0.714689
0.314057
0.00722705
6.48289e-12
1.81117e-13
1.8596e-10
1.43999e-10
1.15069e-10
0.0923633
0.911354
1
1
1
1
0.499451
0.00834515
2.70515e-09
8.77928e-10
1.55693e-05
1.24906e-10
0.548772
0.902672
0.669695
0.817447
0.995981
1
0.900116
0.127845
1.35941e-13
1.35941e-13
1.40971e-10
0.0126148
0.601207
0.362199
0.0951199
0.358549
0.977909
1
0.862707
0.13071
1.21684e-20
3.2646e-21
4.16086e-22
8.07686e-23
8.10553e-24
2.04349e-24
1.84544e-25
6.6455e-26
5.95589e-27
3.19672e-27
2.08286e-28
1.31435e-28
1.09404e-18
2.72765e-19
4.08695e-20
7.32797e-21
7.43041e-22
1.39555e-22
1.19508e-23
3.02216e-24
2.40484e-25
9.22634e-26
5.64335e-27
2.3898e-27
4.647e-17
1.04892e-17
1.58006e-18
2.65375e-19
2.81241e-20
4.52348e-21
3.93669e-22
7.82119e-23
5.91807e-24
1.65057e-24
9.99599e-26
2.90178e-26
1.00078e-15
2.23266e-16
3.75054e-17
6.22736e-18
7.50501e-19
1.07917e-19
1.01552e-20
1.61423e-21
1.23372e-22
2.47501e-23
1.51225e-24
3.01967e-25
1.36619e-14
3.13693e-15
6.11807e-16
1.06508e-16
1.52346e-17
2.10944e-18
2.24627e-19
3.00199e-20
2.42641e-21
3.55072e-22
2.18633e-23
3.00014e-24
1.25726e-13
3.06504e-14
7.18811e-15
1.41949e-15
2.48928e-16
3.65756e-17
4.57597e-18
5.46908e-19
4.8549e-20
5.28128e-21
3.30934e-22
3.05729e-23
8.20635e-13
2.2073e-13
5.91726e-14
1.33482e-14
2.75051e-15
4.51143e-16
6.54322e-17
7.99285e-18
7.76596e-19
7.41836e-20
4.69832e-21
3.25928e-22
3.46869e-12
9.66384e-13
2.97517e-13
7.9634e-14
1.94206e-14
3.72666e-15
6.39302e-16
8.72234e-17
9.75027e-18
9.23159e-19
6.17324e-20
3.55931e-21
6.14354e-12
1.9387e-12
8.33463e-13
2.9049e-13
8.70804e-14
2.0206e-14
4.21706e-15
6.96612e-16
9.38585e-17
1.00699e-17
7.94507e-19
4.03896e-20
6.43937e-13
1.67251e-12
1.26557e-12
6.21185e-13
2.36204e-13
7.04175e-14
1.79765e-14
3.76397e-15
6.50744e-16
9.18379e-17
1.01841e-17
6.75549e-19
6.78358e-13
7.79629e-13
7.87216e-13
6.10056e-13
3.08923e-13
1.34398e-13
4.26915e-14
1.16319e-14
2.34168e-15
4.03311e-16
3.94196e-17
2.16949e-18
6.12514e-13
7.12335e-13
3.06994e-13
7.74819e-14
2.30929e-14
1.15571e-14
3.47713e-15
1.66685e-15
4.80226e-16
1.29272e-16
2.49014e-17
3.59466e-18
6.61133e-52
5.62209e-50
1.90791e-48
3.846e-47
5.49194e-46
6.07947e-45
5.57762e-44
4.20401e-43
2.84873e-42
2.01245e-41
1.45236e-41
1.4007e-41
2.48571e-47
7.05309e-46
1.16894e-44
1.54518e-43
1.81635e-42
1.94296e-41
1.92367e-40
1.77222e-39
1.54953e-38
1.30306e-37
3.1417e-38
6.63975e-39
1.90297e-45
1.04814e-43
2.71553e-42
4.88926e-41
6.93871e-40
8.14308e-39
8.18261e-38
6.8323e-37
4.79553e-36
3.07449e-35
6.20832e-36
9.66775e-37
9.50594e-42
4.46066e-40
1.22947e-38
2.38547e-37
3.61367e-36
4.5544e-35
5.03887e-34
5.11672e-33
6.82431e-33
3.31329e-33
5.90026e-34
7.82515e-35
3.76683e-40
3.95406e-38
1.08214e-36
2.20392e-35
3.7614e-34
5.6672e-33
7.83776e-32
1.05678e-30
7.06679e-31
2.03415e-31
3.37905e-32
4.21452e-33
1.30442e-36
3.4826e-35
8.44167e-34
1.47682e-32
1.9317e-31
1.99616e-30
1.68419e-29
6.99897e-29
3.2471e-29
7.51502e-30
1.24001e-30
1.58249e-31
1.70015e-37
4.78664e-33
1.12125e-31
1.65939e-30
1.91475e-29
2.05372e-28
2.10596e-27
2.22471e-27
8.32743e-28
1.7986e-28
3.11453e-29
4.37334e-30
2.76646e-32
5.23269e-31
1.16907e-29
1.5049e-28
1.22237e-27
7.86943e-27
6.03862e-26
3.96983e-26
1.32083e-26
2.95273e-27
5.41504e-28
8.11638e-29
5.41856e-33
4.81853e-30
2.9591e-28
4.86655e-27
4.03503e-26
2.55517e-25
8.13843e-25
4.34642e-25
1.40886e-25
3.35039e-26
6.46537e-27
1.04008e-27
2.28442e-29
2.56356e-28
4.90198e-27
5.19371e-26
4.26298e-25
3.76452e-24
6.34782e-24
3.18139e-24
1.0654e-24
2.66809e-25
5.44501e-26
9.40783e-27
7.33968e-30
8.84862e-29
4.78301e-27
2.03676e-25
2.18417e-24
2.98339e-23
3.32196e-23
1.67136e-23
5.71703e-24
1.50178e-24
3.24099e-25
5.98734e-26
1.3719e-30
3.33676e-29
3.32517e-27
1.5164e-25
3.84633e-23
1.59826e-22
1.35779e-22
6.52491e-23
2.22142e-23
5.92865e-24
1.31775e-24
2.5606e-25
1.13471e-42
1.40122e-43
6.03354e-45
5.96575e-46
1.79622e-47
2.34673e-48
6.78906e-50
1.35387e-50
4.0823e-52
1.0849e-52
2.24767e-54
6.80879e-55
5.69449e-40
5.10015e-41
2.34452e-42
1.73806e-43
5.66442e-45
4.8873e-46
1.41499e-47
1.80487e-48
5.10838e-50
9.396e-51
1.93168e-52
4.04174e-53
8.00208e-38
6.47893e-39
3.07119e-40
2.01767e-41
7.04216e-43
4.919e-44
1.47192e-45
1.38843e-46
3.83537e-48
5.02762e-49
1.06211e-50
1.57203e-51
6.74934e-36
5.30012e-37
2.82301e-38
1.71229e-39
6.85322e-41
3.9355e-42
1.27451e-43
8.80583e-45
2.47344e-46
2.24182e-47
4.91566e-49
5.10191e-50
3.94093e-34
3.16963e-35
1.96669e-36
1.16976e-37
5.52695e-39
2.79854e-40
1.01951e-41
5.31989e-43
1.57086e-44
9.67535e-46
2.17398e-47
1.54935e-48
1.68177e-32
1.48586e-33
1.11906e-34
7.00158e-36
3.87767e-37
1.87075e-38
7.68442e-40
3.26721e-41
1.01847e-42
4.40944e-44
1.02528e-45
4.76044e-47
5.11789e-31
4.91246e-32
4.211e-33
2.88045e-34
1.83965e-35
9.31189e-37
4.30788e-38
1.72763e-39
5.61747e-41
1.99064e-42
4.56438e-44
1.53699e-45
1.03842e-29
1.09581e-30
1.05699e-31
8.0751e-33
5.91272e-34
3.32451e-35
1.77366e-36
7.40304e-38
2.68013e-39
8.75445e-41
2.05847e-42
5.41648e-44
1.44799e-28
1.68301e-29
1.81809e-30
1.54972e-31
1.322e-32
8.85396e-34
5.59936e-35
3.03064e-36
1.34717e-37
5.0144e-39
1.36598e-40
2.39281e-42
1.41417e-27
1.81513e-28
2.15317e-29
2.08537e-30
1.99703e-31
1.58484e-32
1.15474e-33
7.52793e-35
4.29564e-36
2.05875e-37
8.16501e-39
2.04341e-40
9.69664e-27
1.36213e-27
1.77179e-28
1.96898e-29
2.11812e-30
2.03257e-31
1.71254e-32
1.35171e-33
8.29171e-35
4.73583e-36
1.56274e-37
3.01087e-39
4.43111e-26
6.77969e-27
9.65593e-28
1.22496e-28
1.47582e-29
1.64821e-30
1.67381e-31
1.57601e-32
1.4468e-33
1.14377e-34
7.69442e-36
4.1374e-37
4.78597e-83
1.22965e-80
1.19401e-78
6.4398e-77
2.47009e-75
7.78846e-74
1.82302e-72
3.41895e-71
7.16533e-70
1.52794e-68
3.32187e-69
1.48499e-69
5.32278e-78
4.06326e-76
2.04627e-74
8.20965e-73
2.73524e-71
7.80947e-70
2.00539e-68
4.72969e-67
1.05213e-65
2.26175e-64
2.06909e-65
1.81101e-66
6.31734e-75
9.10296e-73
6.05038e-71
2.72807e-69
9.62274e-68
2.69008e-66
6.49245e-65
1.13111e-63
1.77015e-62
1.39795e-61
1.07634e-62
6.80091e-64
6.53713e-70
7.81521e-68
5.47345e-66
2.70774e-64
1.04788e-62
3.42263e-61
9.89693e-60
2.74207e-58
1.83603e-58
4.03347e-59
2.73121e-60
1.45008e-61
3.22615e-68
1.3428e-65
1.21253e-63
7.17949e-62
3.29279e-60
1.30494e-58
4.77823e-57
1.76997e-55
5.4476e-56
6.74123e-57
4.23344e-58
2.08942e-59
2.43259e-63
1.69285e-61
1.02349e-59
4.36454e-58
1.40378e-56
3.46971e-55
7.74e-54
3.46344e-53
7.11265e-54
6.89046e-55
4.27785e-56
2.14569e-57
1.11326e-64
4.15669e-59
2.91735e-57
1.46266e-55
5.3595e-54
1.6399e-52
4.85466e-51
3.22457e-51
5.21203e-52
4.61966e-53
3.02221e-54
1.65038e-55
1.04798e-57
4.61309e-56
2.25758e-54
6.04401e-53
1.03396e-51
1.79079e-50
4.66126e-49
1.68755e-49
2.38121e-50
2.14866e-51
1.49176e-52
8.58175e-54
8.29062e-59
1.11501e-54
2.87676e-52
1.367e-50
2.90562e-49
4.96643e-48
2.00724e-47
5.43682e-48
7.35858e-49
6.96954e-50
5.0664e-51
3.09121e-52
4.3004e-54
1.29277e-52
9.73378e-51
4.57892e-49
1.29266e-47
3.76447e-46
4.93718e-46
1.17698e-46
1.61809e-47
1.58752e-48
1.21205e-49
7.85562e-51
6.66398e-55
1.70698e-53
1.67258e-50
3.24995e-48
4.92014e-47
1.2056e-44
8.1134e-45
1.83064e-45
2.51285e-46
2.54399e-47
2.03699e-48
1.395e-49
5.21245e-56
2.6392e-54
8.75974e-51
1.01613e-48
3.26005e-44
2.4029e-43
1.01627e-43
2.0858e-44
2.78848e-45
2.82725e-46
2.30712e-47
1.64656e-48
4.24452e-71
2.03227e-72
3.14575e-74
1.12341e-75
1.26408e-77
5.42606e-79
5.99839e-81
3.74809e-82
4.14547e-84
3.42989e-85
2.36307e-87
1.9601e-88
5.6292e-68
1.94262e-69
3.2274e-71
8.55943e-73
1.06344e-74
3.03871e-76
3.43934e-78
1.4e-79
1.48946e-81
8.78935e-83
6.18866e-85
3.74176e-86
2.05813e-65
6.40097e-67
1.11403e-68
2.61823e-70
3.52972e-72
8.25733e-74
9.79661e-76
3.00889e-77
3.17499e-79
1.37091e-80
1.0119e-82
4.53995e-84
4.60167e-63
1.3804e-64
2.73758e-66
5.92457e-68
9.21211e-70
1.79456e-71
2.31331e-73
5.32238e-75
5.74996e-77
1.75982e-78
1.36414e-80
4.4778e-82
7.22916e-61
2.20765e-62
5.14157e-64
1.0963e-65
2.00703e-67
3.50433e-69
5.03177e-71
8.97553e-73
1.01788e-74
2.16922e-76
1.73343e-78
4.05029e-80
8.49412e-59
2.83104e-60
8.01423e-62
1.81441e-63
3.8445e-65
6.51089e-67
1.03536e-68
1.54176e-70
1.82938e-72
2.80772e-74
2.32713e-76
3.6477e-78
7.20644e-57
2.59069e-58
8.32632e-60
2.06152e-61
5.00764e-63
8.94116e-65
8.31802e-46
2.25353e-68
2.78889e-70
3.55319e-72
2.92412e-74
3.40994e-76
4.08346e-55
1.60513e-56
5.77859e-58
1.59857e-59
4.42066e-61
8.88146e-63
1.18131e-42
3.76305e-45
3.70535e-68
4.3404e-70
3.70755e-72
3.44919e-74
1.59178e-53
6.84908e-55
2.75227e-56
8.46024e-58
2.7359e-59
6.88173e-61
1.09787e-39
8.94523e-42
2.90337e-44
7.0153e-68
6.92856e-70
4.43453e-72
4.33342e-52
2.05123e-53
8.95553e-55
3.1338e-56
1.12096e-57
3.30723e-59
6.0399e-37
8.91155e-39
7.29747e-41
2.65454e-43
9.91945e-68
8.9591e-70
8.2401e-51
4.23196e-52
2.01652e-53
8.17818e-55
3.2509e-56
1.18121e-57
3.82054e-34
9.85594e-36
1.35382e-37
1.16518e-39
2.50892e-42
2.38749e-68
1.03095e-49
5.71542e-51
2.97456e-52
1.36153e-53
6.10533e-55
2.63973e-56
1.51591e-31
6.25104e-33
2.01136e-34
3.99992e-36
4.7239e-38
2.20262e-40
1
1
1
1
1
1
1
1
1
1
1
1
1
1
1
1
1
1
1
1
1
1
1
1
1
1
1
1
1
1
1
1
1
1
1
1
1
1
1
1
1
1
1
1
1
1
1
1
1
1
1
1
1
1
1
1
1
1
1
1
1
1
1
1
1
1
1
1
1
1
1
1
1
1
1
1
1
1
1
1
1
1
1
1
1
1
1
1
1
0.998549
0.991725
1
1
1
1
1
1
1
1
1
0.744243
0.486498
0.401461
0.626604
0.929672
1
1
1
1
1
0.999159
0.440796
8.22244e-14
3.14716e-15
3.68165e-16
9.44993e-16
0.152919
0.770163
0.999432
1
1
0.998272
0.827609
2.64053e-13
1.77565e-13
0.00218959
8.97404e-05
8.34125e-14
-3.44561e-15
0.0208901
0.740919
1
1
0.998183
0.246252
2.94251e-13
0.0736587
0.0158495
1.50956e-13
6.4122e-14
8.69516e-15
3.41161e-14
0.474368
0.997688
1
1
1
1
1
1
1
1
1
1
1
1
1
1
1
1
1
1
1
1
1
1
1
1
1
1
1
1
1
1
1
1
1
1
1
1
1
1
1
1
1
1
1
1
1
1
1
1
1
1
1
1
1
1
1
1
1
1
1
1
1
1
1
1
1
1
1
1
1
1
1
1
1
1
1
1
1
1
1
1
1
1
1
1
1
1
1
1
1
1
1
1
1
1
1
1
1
1
1
1
1
1
1
1
1
1
1
1
1
1
1
1
1
1
1
1
1
1
1
1
1
1
1
1
1
1
1
1
1
1
1
1
1
1
1
1
1
1
1
1
1
1
1
1
0.733154
0.0678158
1.45382e-10
0.0224633
0.24755
0.0920513
0.0933143
0.35637
0.969022
1
0.698615
0.028138
1
0.804913
0.0920498
0.0368894
0.0399822
0.0932401
0.225274
0.739826
0.711296
0.783263
0.684465
0.111408
1
1
0.791676
0.319536
0.37658
0.711616
0.731288
0.51333
0.100078
0.00270686
0.108481
0.202874
1
1
1
0.990214
0.925243
0.72304
0.425092
0.0192525
2.77579e-14
3.01009e-25
4.39716e-26
3.88264e-24
6.77846e-13
3.73021e-12
1.86729e-12
4.4675e-13
1.08656e-13
2.40769e-14
5.38134e-15
1.23321e-15
2.78773e-16
6.98314e-17
1.59429e-17
3.5627e-18
6.23148e-13
6.16547e-13
4.99003e-13
4.80533e-13
2.66518e-13
8.95495e-14
2.19334e-14
4.58983e-15
7.65055e-16
1.21339e-16
2.21977e-17
4.36865e-18
0.128651
4.85694e-13
3.86753e-13
3.86715e-13
1.73068e-13
5.19827e-14
1.20781e-14
2.87564e-15
6.18601e-16
1.30028e-16
3.00713e-17
7.04748e-18
1.84177e-24
9.36598e-08
6.26726e-08
5.10852e-10
4.1504e-14
1.60565e-14
4.58144e-15
1.31301e-15
3.30199e-16
9.15846e-17
2.47744e-17
6.4251e-18
7.52695e-19
1.08467e-19
1.22219e-20
1.82883e-21
8.36609e-22
7.73986e-22
4.74179e-22
2.04641e-22
6.70057e-23
1.74711e-23
3.79654e-24
7.4064e-25
9.91347e-19
2.13791e-19
4.52961e-20
1.24534e-20
5.8641e-21
3.03796e-21
1.37411e-21
5.20728e-22
1.67026e-22
4.50414e-23
1.03542e-23
2.19451e-24
1.72178e-18
4.29505e-19
1.19457e-19
4.24358e-20
1.72108e-20
6.82543e-21
2.47072e-21
8.1367e-22
2.6151e-22
8.6007e-23
2.77525e-23
8.0091e-24
1.74268e-18
4.81015e-19
1.36284e-19
4.17197e-20
1.36927e-20
4.63368e-21
1.44629e-21
3.71241e-22
7.90917e-23
1.55284e-23
2.99501e-24
5.86554e-25
1.30757e-25
2.1061e-26
3.19648e-27
4.22962e-28
5.61234e-29
6.71089e-30
7.38884e-31
8.11452e-32
7.82419e-33
7.10226e-34
5.74734e-35
4.65322e-36
4.03134e-25
6.93568e-26
1.03074e-26
1.36709e-27
1.87342e-28
2.16078e-29
2.54435e-30
2.69861e-31
2.38498e-32
1.98454e-33
1.70686e-34
1.35287e-35
1.90491e-24
3.71033e-25
6.16847e-26
9.10287e-27
1.24149e-27
1.49205e-28
1.72495e-29
1.85814e-30
1.90955e-31
1.79871e-32
1.73968e-33
1.5762e-34
1.23831e-25
2.20497e-26
4.14705e-27
7.23669e-28
1.06819e-28
1.98803e-29
2.68869e-30
3.99667e-31
4.74791e-32
5.95791e-33
6.62582e-34
6.79484e-35
4.00731e-37
2.45703e-38
1.24514e-39
7.94077e-41
1.0125e-41
3.83537e-42
1.04517e-42
1.85911e-43
2.35378e-44
2.31142e-45
1.83097e-46
1.31619e-47
1.15404e-36
9.24964e-38
7.53733e-39
7.76038e-40
1.713e-40
4.30481e-41
8.54206e-42
1.31453e-42
1.62237e-43
1.64401e-44
1.38205e-45
1.5459e-45
1.38682e-35
1.22366e-36
1.21247e-37
1.53248e-38
2.23178e-39
3.30323e-40
4.53408e-41
5.69115e-42
6.92611e-43
8.53908e-44
5.07711e-44
1.03635e-42
6.6543e-36
6.56494e-37
6.53118e-38
7.28433e-39
9.44224e-40
1.27919e-40
1.58331e-41
1.59025e-42
1.29029e-43
2.12842e-43
5.49099e-41
2.05024e-39
8.32789e-49
4.92324e-50
2.69586e-51
1.26274e-52
6.27916e-54
2.82552e-55
4.44115e-29
2.49282e-30
1.03301e-28
1.05221e-28
6.8163e-14
7.20556e-26
7.19426e-48
4.77355e-49
2.63973e-50
1.30518e-51
6.91461e-53
3.15485e-54
3.32828e-27
2.25462e-28
4.85862e-25
3.58718e-25
5.77426e-14
1.93966e-14
7.33401e-45
7.06082e-48
4.36839e-49
2.45431e-50
1.27793e-51
6.18885e-53
1.48114e-25
1.21671e-26
5.08777e-23
4.47366e-23
5.63996e-15
5.23332e-15
2.97941e-41
1.58823e-43
1.45736e-50
8.83491e-52
4.756e-53
3.5563e-54
6.33178e-24
6.26741e-25
1.76875e-20
8.53133e-21
1.72089e-15
3.12595e-11
0.374569
0.99383
0.664645
0.600359
0.405002
0.0116326
1.57407e-13
8.16218e-14
4.14269e-15
0.109806
0.82835
1
7.78745e-14
0.445236
0.606405
0.565495
0.344198
0.0090666
0.0282386
0.0614831
0.000950529
0.238547
0.902368
1
4.64621e-15
0.00374232
0.0448264
0.024802
0.0232423
0.144787
0.489846
0.773327
0.685533
0.433357
0.419715
0.884289
4.73277e-15
1.02794e-14
0.0865358
0.247408
0.495789
0.850838
1
1
1
1
0.996988
0.995835
1
1
1
1
1
1
1
1
1
1
1
1
1
1
1
1
1
1
1
1
1
1
1
1
1
1
1
1
1
1
1
1
1
1
1
1
0.998913
1
1
1
1
1
1
1
1
1
1
1
0.999963
1
0.915089
0.314709
7.20679e-14
1.11201e-25
8.03267e-26
8.79226e-26
1.38759e-18
4.50295e-21
8.36545e-24
3.45011e-22
1
0.944473
0.343512
0.00274559
8.33107e-14
1.47208e-14
1.93314e-15
1.86773e-16
9.46967e-18
7.70074e-20
1.94643e-24
5.74111e-23
1
0.554128
0.0162313
9.19912e-14
2.97173e-14
6.37981e-15
7.96437e-16
4.95904e-17
9.89397e-19
1.08912e-22
5.97193e-27
2.22329e-25
0.950628
0.258859
1.2115e-13
4.93515e-14
1.38001e-14
2.48658e-15
2.73156e-16
1.71248e-17
4.87032e-19
2.40525e-21
4.26042e-28
5.42434e-28
1.75002e-20
2.31538e-14
3.83814e-12
2.30115e-15
4.48248e-16
1.11188e-15
9.93925e-18
1.66548e-16
5.0958e-18
1.04661e-17
2.89073e-18
1.19149e-18
1.34692e-21
3.47265e-20
1.00432e-18
2.89586e-17
8.00368e-18
5.11836e-17
7.28803e-19
1.85546e-17
6.74598e-20
1.58604e-18
2.27509e-19
1.79326e-19
5.77244e-24
1.70629e-22
5.44251e-21
1.82048e-19
1.67873e-19
1.83598e-18
4.94005e-20
1.72868e-18
2.86555e-21
2.29515e-19
1.31693e-20
2.03079e-20
1.70701e-26
6.30227e-25
2.27466e-23
7.88974e-22
3.36432e-21
5.22733e-20
2.65404e-21
1.2619e-19
9.54948e-23
2.71549e-20
8.95961e-22
1.67341e-21
1.70388e-19
5.98075e-20
8.20985e-21
6.17191e-22
3.56779e-23
6.81121e-25
1.71558e-29
8.9761e-32
5.40403e-35
4.30861e-33
2.40516e-31
1.05909e-29
1.75137e-20
4.31e-21
2.80492e-22
1.57124e-23
6.6327e-25
1.87364e-26
3.21424e-28
2.12776e-30
2.9831e-42
2.64362e-40
1.45918e-38
6.17443e-37
1.44209e-21
1.85869e-22
8.37259e-24
3.63032e-25
1.23078e-26
2.49423e-28
2.29153e-30
2.11302e-33
4.64452e-46
3.45007e-44
1.65363e-42
5.61571e-41
9.28405e-23
6.0888e-24
1.96712e-25
5.62212e-27
1.28273e-28
1.98977e-30
1.764e-32
5.07091e-35
1.21161e-48
1.35052e-46
8.38561e-45
3.25533e-43
3.8107e-28
5.63903e-29
2.49536e-29
8.34723e-30
5.22665e-31
6.468e-31
4.84426e-34
2.26423e-32
3.67476e-34
2.38972e-34
2.54272e-35
4.31806e-36
2.21812e-35
9.76478e-34
4.80484e-32
6.61409e-32
3.98438e-33
1.45205e-32
1.24397e-35
1.01006e-33
1.52392e-36
1.15278e-35
6.42909e-37
2.20738e-37
1.49272e-39
6.53604e-38
4.22646e-36
3.27235e-34
3.2987e-35
2.42956e-34
3.0655e-37
3.4801e-35
8.72621e-39
5.12112e-37
1.14486e-38
8.58956e-39
1.19018e-42
9.7054e-41
9.35997e-39
9.51459e-37
2.43305e-37
2.99606e-36
6.19067e-39
9.10928e-37
5.44489e-41
1.88512e-38
2.21218e-40
2.48527e-40
1.98379e-37
2.5497e-38
1.35163e-39
3.84362e-41
8.29966e-43
5.87667e-45
9.13832e-51
2.33292e-53
1.55343e-43
1.04109e-40
2.89687e-38
4.92458e-36
6.70029e-39
6.09337e-40
1.36942e-41
2.84493e-43
4.7551e-45
5.53039e-47
4.02425e-49
1.20038e-51
2.16918e-53
7.63052e-44
6.67643e-41
2.3047e-38
1.95609e-40
9.29986e-42
1.54697e-43
2.57918e-45
3.50992e-47
2.94501e-49
1.15103e-51
2.1354e-54
1.52623e-51
5.2979e-49
4.0326e-44
3.50064e-41
4.66447e-42
1.14223e-43
1.41442e-45
1.58832e-47
1.45924e-49
9.26975e-52
3.43131e-54
2.62281e-53
5.13303e-50
2.67369e-47
7.24315e-45
1.20021e-42
6.0456e-34
7.79833e-32
8.14923e-30
8.39345e-28
7.2531e-26
5.11375e-24
5.6352e-22
1.85154e-20
1.29894e-18
4.22046e-17
6.49301e-16
9.09283e-22
4.6654e-36
8.89822e-34
1.54554e-31
2.21575e-29
2.59372e-27
2.44924e-25
1.66307e-23
1.34315e-21
1.03001e-19
7.35711e-18
6.96673e-17
4.02517e-29
1.17842e-38
3.68371e-36
1.02932e-33
2.41695e-31
4.19381e-29
5.81355e-27
5.15696e-25
6.51174e-23
7.21115e-21
9.91194e-19
3.1949e-18
1.0353e-30
1.40188e-40
2.70289e-38
6.90054e-36
1.9429e-33
4.85586e-31
9.63391e-29
1.30316e-26
2.26517e-24
2.77191e-22
1.00837e-19
8.04069e-20
1.74699e-32
0.0539182
0.714123
1
1
1
1
1
1
1
1
1
0.999992
0.0994027
0.816259
1
1
1
1
1
1
1
1
1
1
0.23526
0.926324
1
1
1
1
1
1
1
1
1
1
0.368486
0.977489
1
1
1
1
1
1
1
1
1
1
0.999997
1
1
1
1
1
1
1
1
1
1
0.999999
1
1
1
1
1
1
1
1
1
1
1
1
1
1
1
1
1
1
1
1
1
1
1
1
1
1
1
1
1
1
1
1
1
1
1
1
0.840737
0.122566
9.32331e-14
3.38718e-14
8.01355e-15
1.20609e-15
1.12211e-16
6.00151e-18
1.55496e-19
1.22906e-21
1.97261e-26
7.16284e-32
0.71775
0.0518161
7.61163e-14
2.3164e-14
4.37435e-15
5.38431e-16
4.28951e-17
2.09059e-18
5.45035e-20
5.66263e-22
8.80223e-25
6.33009e-30
0.607978
0.0188048
6.49961e-14
1.58065e-14
2.38366e-15
2.47727e-16
1.77193e-17
8.15461e-19
2.14081e-20
2.62092e-22
1.00955e-24
4.74366e-28
0.517478
0.0053476
5.72498e-14
1.04695e-14
1.29002e-15
1.20756e-16
8.12765e-18
3.58664e-19
9.32296e-21
1.23406e-22
6.54935e-25
9.05165e-28
0.444958
0.000786719
5.13295e-14
6.27331e-15
7.16133e-16
6.55902e-17
4.18102e-18
1.73514e-19
4.35218e-21
5.92521e-23
3.68274e-25
7.55438e-28
0.387496
8.71938e-14
2.25945e-14
3.85911e-15
4.66841e-16
3.96664e-17
2.31617e-18
8.93269e-20
2.14284e-21
2.91904e-23
1.9599e-25
4.8291e-28
0.342719
7.82234e-14
1.87163e-14
2.957e-15
3.25393e-16
2.52003e-17
1.35296e-18
4.87215e-20
1.11373e-21
1.4932e-23
1.03463e-25
2.78915e-28
0.307779
7.15842e-14
1.6049e-14
2.33304e-15
2.35246e-16
1.67385e-17
8.31416e-19
2.79688e-20
6.07653e-22
7.92448e-24
5.50352e-26
1.53971e-28
0.28021
6.63947e-14
1.40135e-14
1.88905e-15
1.76049e-16
1.16013e-17
5.36542e-19
1.69462e-20
3.49558e-22
4.39912e-24
3.00716e-26
8.4611e-29
0.258349
6.22303e-14
1.24343e-14
1.5669e-15
1.36124e-16
8.37247e-18
3.62754e-19
1.07969e-20
2.11565e-22
2.55846e-24
1.70028e-26
4.71348e-29
0.24074
5.88524e-14
1.11879e-14
1.32729e-15
1.08232e-16
6.25152e-18
2.54902e-19
7.16601e-21
1.33408e-22
1.54e-24
9.85712e-27
2.64979e-29
0.215663
5.48847e-14
9.63186e-15
1.03928e-15
7.68874e-17
4.02879e-18
1.49296e-19
3.82534e-21
6.5129e-23
6.90567e-25
4.07629e-27
1.01638e-29
2.30105e-29
1.70937e-27
7.99134e-26
3.07751e-24
5.82716e-23
1.21166e-21
1.08037e-22
7.03121e-21
1.83741e-24
2.46495e-21
6.35924e-23
9.61885e-23
4.28573e-32
4.405e-30
2.95061e-28
1.62975e-26
8.15177e-25
2.25564e-23
3.278e-24
2.94748e-22
1.00329e-25
1.65534e-22
3.66481e-24
3.84136e-24
6.44396e-35
1.0888e-32
1.14831e-30
1.01331e-28
8.93413e-27
3.30485e-25
7.31485e-26
9.2367e-24
1.19018e-26
8.00189e-24
1.56371e-25
1.06426e-25
9.61597e-38
2.60816e-35
4.28555e-33
5.78161e-31
7.56356e-29
3.75273e-27
1.17887e-27
2.12916e-25
4.92214e-28
2.72935e-25
4.80602e-27
2.05452e-27
1.34384e-40
5.64459e-38
1.37927e-35
2.67784e-33
4.90208e-31
3.26549e-29
1.34518e-29
3.5573e-27
1.09365e-29
6.4696e-27
1.05268e-28
2.78056e-29
1.67927e-43
1.04e-40
3.60877e-38
9.67342e-36
2.40963e-33
2.15307e-31
1.05671e-31
4.2632e-29
1.57302e-31
1.05229e-28
1.62931e-30
2.65852e-31
1.79552e-46
1.56638e-43
7.43675e-41
2.67762e-38
8.86111e-36
1.0589e-33
5.4595e-34
3.62764e-31
1.55402e-33
1.16043e-30
1.76022e-32
1.80852e-33
1.58814e-49
1.87244e-46
1.17688e-43
5.55041e-41
2.38622e-38
3.7898e-36
1.77876e-36
2.16254e-33
1.06799e-35
8.55745e-33
1.30176e-34
8.751e-36
1.12381e-52
1.72213e-49
1.38745e-46
8.33766e-44
4.55179e-41
9.50797e-39
4.23092e-39
8.79561e-36
5.0076e-38
4.13087e-35
6.39019e-37
2.95578e-38
6.04513e-56
1.15835e-52
1.15724e-49
8.60182e-47
5.81551e-44
1.5771e-41
7.97539e-42
2.29176e-38
1.51639e-40
1.24988e-37
1.97308e-39
6.62226e-41
2.21228e-59
5.10288e-56
6.11404e-53
5.45009e-50
4.44803e-47
1.54479e-44
1.0084e-44
3.40955e-41
2.63901e-43
2.14216e-40
3.43334e-42
8.78659e-44
3.46064e-63
9.66087e-60
1.39871e-56
1.5011e-53
1.49046e-50
6.53908e-48
5.91606e-48
2.15155e-44
1.92067e-46
1.55505e-43
2.47682e-45
5.05305e-47
4.27003e-24
1.70674e-25
4.20327e-27
9.55164e-29
1.74822e-30
2.23607e-32
1.65822e-34
4.62628e-37
1.08895e-45
2.98428e-49
3.73258e-47
4.39211e-45
1.41147e-25
3.95299e-27
7.41379e-29
1.28035e-30
1.82067e-32
1.87663e-34
1.19208e-36
3.39253e-39
3.01556e-43
4.68689e-52
9.07215e-50
2.56726e-47
3.30518e-27
7.06943e-29
1.03625e-30
1.39802e-32
1.57406e-34
1.31907e-36
7.12905e-39
1.94287e-41
1.18107e-44
3.74631e-55
1.24868e-52
5.90187e-50
5.5027e-29
9.32804e-31
1.07805e-32
1.14961e-34
1.03572e-36
7.10991e-39
3.27892e-41
8.3675e-44
7.57949e-47
1.17357e-55
6.69979e-56
2.80159e-53
6.51028e-31
8.95667e-33
8.28626e-35
7.09412e-37
5.18556e-39
2.94616e-41
1.16404e-43
2.73439e-46
2.87068e-49
5.30185e-53
4.96601e-60
1.44008e-57
5.48047e-33
6.22298e-35
4.67927e-37
3.26588e-39
1.96391e-41
9.33432e-44
3.17549e-46
6.78945e-49
7.43932e-52
2.79285e-55
2.81107e-60
1.52322e-62
3.27919e-35
3.11405e-37
1.93291e-39
1.11664e-41
5.60045e-44
2.25099e-46
6.62954e-49
1.27925e-51
1.38362e-54
6.55441e-58
8.46738e-62
7.90238e-67
1.38455e-37
1.11143e-39
5.78169e-42
2.80549e-44
1.18922e-46
4.08477e-49
1.04732e-51
1.81568e-54
1.87398e-57
9.63393e-61
1.8974e-64
9.7685e-69
4.03979e-40
2.76657e-42
1.22375e-44
5.0576e-47
1.83478e-49
5.43955e-52
1.22083e-54
1.896e-57
1.82582e-60
9.43786e-64
2.15812e-67
1.61694e-71
7.76272e-43
4.57582e-45
1.7445e-47
6.22098e-50
1.9541e-52
5.04688e-55
9.96704e-58
1.38416e-60
1.22416e-63
6.07833e-67
1.43804e-70
1.22489e-74
8.81815e-46
4.51447e-48
1.49958e-50
4.6624e-53
1.2799e-55
2.90053e-58
5.05938e-61
6.26984e-64
5.02884e-67
2.32416e-70
5.31959e-74
4.58044e-78
4.29022e-49
1.86139e-51
5.06657e-54
1.29742e-56
2.95136e-59
5.58089e-62
8.19294e-65
8.63909e-68
5.98214e-71
2.43732e-74
5.05385e-78
4.05854e-82
5.42505e-46
9.47534e-44
1.24329e-41
1.59901e-39
1.48851e-39
2.77827e-38
9.67775e-41
1.82454e-38
2.55356e-43
5.52073e-40
4.78897e-42
5.13997e-42
2.85362e-49
6.01816e-47
1.03198e-44
1.62762e-42
7.29288e-42
1.96397e-40
1.15061e-42
2.80071e-40
2.14822e-45
1.25172e-41
9.36973e-44
7.57651e-44
8.2053e-53
2.60772e-50
5.76162e-48
1.09707e-45
2.81657e-44
1.06643e-42
1.03405e-44
3.30026e-42
7.70819e-46
2.14323e-43
1.45944e-45
7.9285e-46
2.08424e-56
9.47172e-54
2.78139e-51
6.87345e-49
8.4922e-47
4.46058e-45
6.93637e-47
2.95539e-44
1.7652e-47
2.71261e-45
1.72143e-47
5.89277e-48
5.49326e-60
3.82399e-57
1.67884e-54
6.27886e-52
1.98357e-49
1.43533e-47
3.41674e-49
1.97861e-46
1.79862e-49
2.49146e-47
1.50473e-49
3.11553e-50
1.77874e-63
1.94428e-60
1.29248e-57
7.1161e-55
3.55659e-52
3.53313e-50
1.21178e-51
9.7525e-49
1.13402e-51
1.63288e-49
9.6064e-52
1.17593e-52
6.40191e-67
1.026e-63
9.53787e-61
7.11002e-58
4.82845e-55
6.57589e-53
3.01105e-54
3.48151e-51
4.84039e-54
7.50945e-52
4.40467e-54
3.18282e-55
2.13591e-70
4.67207e-67
5.72733e-64
5.5226e-61
4.85908e-58
9.05788e-56
5.01644e-57
8.81797e-54
1.42992e-56
2.37726e-54
1.41682e-56
6.17826e-58
5.91708e-74
1.67881e-70
2.61103e-67
3.16003e-64
3.50243e-61
8.89774e-59
5.31457e-60
1.53956e-56
2.88651e-59
5.04218e-57
3.08818e-59
8.4726e-61
1.25886e-77
4.44391e-74
8.48363e-71
1.25303e-67
1.70499e-64
5.85372e-62
3.81548e-63
1.76067e-59
3.78862e-62
6.82688e-60
4.30683e-62
7.84393e-64
1.81993e-81
7.69657e-78
1.7477e-74
3.06318e-71
4.99304e-68
2.29196e-65
1.76848e-66
1.171e-62
2.87827e-65
5.31267e-63
3.43222e-65
4.39902e-67
1.0667e-85
5.48513e-82
1.51124e-78
3.20359e-75
6.40172e-72
3.90405e-69
3.90042e-70
3.33674e-66
9.1624e-69
1.77167e-66
1.14513e-68
1.0966e-70
8.09127e-44
1.22866e-45
1.16826e-47
1.04393e-49
7.65873e-52
3.98043e-54
1.22064e-56
1.59966e-57
9.14617e-54
8.83951e-51
5.62937e-48
3.40887e-45
1.02503e-45
1.10935e-47
8.13622e-50
5.55577e-52
3.16977e-54
1.32602e-56
3.47137e-59
4.20752e-62
9.28664e-58
2.01111e-54
2.36435e-51
3.65549e-48
9.34058e-48
7.84591e-50
4.55214e-52
2.44871e-54
1.11186e-56
3.79163e-59
8.44654e-62
9.71064e-65
3.08096e-62
1.70861e-58
3.75873e-55
1.1533e-51
6.13632e-50
4.14767e-52
1.92015e-54
8.23672e-57
3.01118e-59
8.44443e-62
1.6077e-64
1.72298e-67
6.05234e-68
1.73897e-63
3.45618e-60
2.91854e-57
2.89848e-52
1.61275e-54
6.0428e-57
2.09912e-59
6.26824e-62
1.46198e-64
2.39184e-67
2.35682e-70
1.07051e-73
1.01788e-77
8.11387e-89
1.54061e-91
9.83575e-55
4.5765e-57
1.40794e-59
4.02121e-62
9.95e-65
1.9527e-67
2.76265e-70
2.48045e-73
1.16517e-76
1.98199e-80
2.71767e-85
1.3342e-96
2.39173e-57
9.42149e-60
2.41557e-62
5.76003e-65
1.19811e-67
2.00191e-70
2.46581e-73
2.00466e-76
9.26739e-80
1.93448e-83
1.19689e-87
8.72697e-93
4.13574e-60
1.39355e-62
3.02377e-65
6.11271e-68
1.08408e-70
1.56026e-73
1.68463e-76
1.23646e-79
5.45814e-83
1.22233e-86
1.0869e-90
2.74031e-95
4.98767e-63
1.45039e-65
2.70424e-68
4.70414e-71
7.21048e-74
9.03795e-77
8.60991e-80
5.69525e-83
2.35235e-86
5.27467e-90
5.33921e-94
1.83114e-98
4.011e-66
1.01514e-68
1.65022e-71
2.50498e-74
3.36027e-77
3.7048e-80
3.13176e-83
1.86442e-86
7.09805e-90
1.52724e-93
1.58421e-97
6.02026e-102
1.93852e-69
4.30549e-72
6.17386e-75
8.26797e-78
9.7984e-81
9.56959e-84
7.20199e-87
3.84875e-90
1.33355e-93
2.67033e-97
2.66622e-101
1.01048e-105
4.09387e-73
7.7799e-76
9.26131e-79
1.03318e-81
1.0247e-84
8.41649e-88
5.36424e-91
2.44939e-94
7.34348e-98
1.29583e-101
1.16803e-105
4.09705e-110
4.3088e-43
1.71055e-40
5.0836e-38
1.53517e-35
4.63455e-33
1.18289e-30
2.27601e-28
5.36437e-26
8.6024e-24
7.16644e-21
1.34232e-21
2.30786e-34
1.00751e-45
5.45608e-43
2.33728e-40
9.00578e-38
3.37847e-35
1.05389e-32
2.59368e-30
8.18747e-28
1.01259e-25
3.40856e-22
1.7141e-23
2.47146e-36
9.90264e-49
9.72652e-46
6.36232e-43
3.43014e-40
1.72157e-37
6.659e-35
2.01497e-32
8.43224e-30
4.65582e-28
1.06877e-23
1.87856e-25
2.35662e-38
6.86587e-52
1.12529e-48
1.11832e-45
8.66104e-43
5.96068e-40
2.97359e-37
1.12009e-34
6.18811e-32
1.5514e-30
2.20093e-25
1.86347e-27
2.06371e-40
3.17174e-55
8.53168e-52
1.28526e-48
1.44047e-45
1.39022e-42
9.29174e-40
4.53215e-37
3.31263e-34
3.82575e-33
2.96606e-27
1.55816e-29
1.54354e-42
9.95844e-59
4.32428e-55
9.81833e-52
1.59193e-48
2.17069e-45
1.99234e-42
1.309e-39
1.28855e-36
7.08497e-36
2.60203e-29
9.82026e-32
8.78185e-45
2.09784e-62
1.46099e-58
4.98645e-55
1.16755e-51
2.24823e-48
2.8674e-45
2.60332e-42
3.52376e-39
9.97089e-39
1.47156e-31
4.30815e-34
3.49065e-47
2.86557e-66
3.22017e-62
1.65671e-58
5.60134e-55
1.51927e-51
2.70244e-48
3.42759e-45
6.46942e-42
1.04473e-41
5.27144e-34
1.24907e-36
9.15152e-50
2.35789e-70
4.40342e-66
3.46107e-62
1.69797e-58
6.48021e-55
1.60922e-51
2.85641e-48
7.5537e-45
7.76732e-45
1.15957e-36
2.28054e-39
1.49968e-52
1.00235e-74
3.37558e-70
4.20021e-66
3.036e-62
1.63724e-58
5.68839e-55
1.4114e-51
5.21987e-48
3.78461e-48
1.4812e-39
2.45121e-42
1.4289e-55
1.49054e-79
1.16321e-74
2.50369e-70
2.77292e-66
2.14867e-62
1.05295e-58
3.66128e-55
1.88493e-51
1.04908e-51
9.82569e-43
1.37101e-45
6.96637e-59
9.87284e-122
7.93465e-80
4.069e-75
8.05011e-71
9.90093e-67
7.23332e-63
3.641e-59
2.60904e-55
1.18029e-55
2.52227e-46
2.85409e-49
1.55941e-62
0.495127
0.995712
1
1
1
1
1
1
1
1
1
1
0.595453
0.999936
1
1
1
1
1
1
1
1
1
1
0.674394
1
1
1
1
1
1
1
1
1
1
1
0.733499
1
1
1
1
1
1
1
1
1
1
1
0.778215
1
1
1
1
1
1
1
1
1
1
1
0.812252
1
1
1
1
1
1
1
1
1
1
1
0.838256
1
1
1
1
1
1
1
1
1
1
1
0.858143
1
1
1
1
1
1
1
1
1
1
1
0.873343
1
1
1
1
1
1
1
1
1
1
1
0.884927
1
1
1
1
1
1
1
1
1
1
1
0.893805
1
1
1
1
1
1
1
1
1
1
1
0.905084
1
1
1
1
1
1
1
1
1
1
1
1
1
1
1
1
1
1
1
1
1
1
1
1
1
1
1
1
1
1
1
1
1
1
1
1
1
1
1
1
1
1
1
1
1
1
1
1
1
1
1