/*--------------------------------*- C++ -*----------------------------------*\
| =========                 |                                                 |
| \\      /  F ield         | OpenFOAM: The Open Source CFD Toolbox           |
|  \\    /   O peration     | Version:  v1606+                                |
|   \\  /    A nd           | Web:      www.OpenFOAM.com                      |
|    \\/     M anipulation  |                                                 |
\*---------------------------------------------------------------------------*/
FoamFile
{
    version     2.0;
    format      ascii;
    class       surfaceScalarField;
    location    "1.25";
    object      alphaPhi;
}
// * * * * * * * * * * * * * * * * * * * * * * * * * * * * * * * * * * * * * //

dimensions      [0 3 -1 0 0 0 0];

internalField   nonuniform List<scalar> 
5952
(
-2.3408e-20
6.21608e-22
-9.98716e-19
9.14871e-20
-8.23007e-18
1.52721e-18
-2.84207e-17
8.26049e-18
-1.50314e-09
1.50314e-09
-3.65476e-08
6.41444e-09
-4.22078e-08
5.66019e-09
-4.42483e-08
2.0405e-09
-4.41517e-08
-9.66031e-11
-9.97927e-17
1.35192e-10
-1.02573e-16
2.7803e-18
3.61539e-18
-1.80156e-16
2.43362e-21
-2.69021e-22
4.70809e-20
1.42268e-19
1.69937e-19
1.67508e-18
-1.02459e-11
1.02459e-11
-1.87819e-08
3.70315e-08
-4.23284e-08
1.80648e-07
-2.34682e-09
3.18241e-09
-4.50399e-10
4.58093e-12
-3.40803e-10
-2.37796e-11
-4.16031e-13
-7.0339e-13
-2.36909e-16
2.85782e-14
9.32409e-18
-3.27887e-16
-1.82412e-19
3.13912e-20
-4.51982e-18
6.37213e-19
-1.57708e-17
7.82584e-18
-1.19633e-08
1.89138e-09
-1.03032e-07
1.2059e-07
-1.11986e-07
1.81538e-07
-6.00733e-11
4.22221e-08
-5.54924e-11
6.94883e-17
-5.19234e-11
-5.32649e-14
-2.89953e-14
8.0328e-12
-4.5383e-16
4.23972e-17
4.45309e-17
-4.82647e-16
-3.41402e-19
3.29277e-17
-7.39043e-18
3.86104e-18
-1.86597e-17
1.38689e-17
-4.15657e-08
4.21876e-09
-1.41182e-07
1.08065e-07
-1.38332e-07
1.87521e-07
-4.64079e-11
4.52595e-08
-4.64079e-11
9.67268e-17
-4.44748e-11
9.76809e-12
-4.17262e-16
1.14633e-11
-4.52732e-16
7.16886e-17
7.56686e-17
-5.33918e-16
-2.43911e-15
1.97576e-16
4.45611e-15
1.70492e-14
4.44075e-15
3.49245e-17
-3.27948e-08
1.96184e-09
-1.37162e-07
8.27127e-08
-1.06277e-07
1.47034e-07
-1.48302e-11
1.61025e-08
-1.48303e-11
1.24431e-16
-1.20992e-11
8.03883e-12
-8.22377e-15
7.47542e-12
-3.27925e-16
-7.81981e-15
7.41651e-17
-3.07895e-13
-5.77911e-15
1.81517e-16
7.58081e-15
4.78989e-14
1.34125e-14
-5.69806e-15
-2.34331e-09
-9.73847e-13
-4.75674e-08
2.89196e-09
-3.52789e-08
3.649e-08
-1.02015e-16
4.52866e-09
-1.22254e-16
1.44511e-16
-1.50624e-16
8.03886e-12
-1.96274e-13
7.67154e-12
-1.04471e-11
1.5436e-13
7.00767e-12
-1.08327e-11
1.2127e-16
1.26189e-17
2.51976e-15
2.78019e-14
2.95821e-14
3.37765e-13
-1.01546e-11
1.11578e-13
-3.61806e-09
-1.73134e-10
-7.14077e-11
-4.25246e-09
-6.58562e-11
4.31646e-09
-7.00301e-10
3.24066e-10
-1.89722e-09
4.74364e-09
-1.19144e-16
8.13443e-09
-1.34987e-12
1.62984e-16
5.24935e-11
-2.76441e-12
-2.4045e-15
2.40814e-15
-3.32796e-14
1.3737e-14
2.36917e-14
1.16874e-13
1.35086e-13
1.467e-16
3.23503e-10
1.58404e-11
-2.3812e-09
2.68947e-08
-1.031e-11
4.85765e-08
-1.06704e-10
1.99568e-10
-1.11469e-09
7.94916e-09
-2.44846e-09
1.58202e-08
-5.06373e-09
9.14203e-09
3.36199e-09
-1.4628e-09
-1.06958e-13
9.62587e-13
-1.59005e-15
5.82501e-14
-3.84755e-17
1.15297e-13
-1.33384e-17
1.32736e-16
1.58467e-11
-6.30563e-15
2.92419e-08
1.74449e-08
5.11856e-08
6.25939e-08
1.91004e-08
5.15453e-08
2.22059e-10
2.94993e-08
4.19641e-09
9.65481e-09
2.58314e-09
1.57242e-09
2.26781e-09
2.19361e-10
5.4606e-14
9.07479e-13
1.12585e-13
3.15423e-16
-9.44695e-13
2.49246e-12
3.44681e-12
2.05529e-11
2.67665e-13
4.59373e-13
1.74452e-08
7.0124e-18
9.58954e-08
1.88621e-08
1.29784e-07
4.36375e-08
4.73657e-08
5.64954e-08
-2.33112e-09
9.90057e-09
3.99143e-16
-7.58704e-10
2.26781e-09
4.38598e-16
-7.72913e-18
2.50778e-13
5.4992e-16
2.11318e-16
7.44333e-13
2.03277e-14
2.09794e-11
2.76706e-11
2.05837e-11
2.09178e-12
2.05837e-11
-9.05283e-17
2.70552e-08
-1.06108e-10
1.43923e-07
7.06751e-10
1.16052e-07
9.89317e-09
-6.64433e-09
1.90637e-08
2.00009e-08
7.11363e-09
8.89221e-08
8.58861e-08
3.65647e-16
2.50372e-13
5.25414e-16
8.19987e-17
6.18371e-16
2.02043e-14
6.94446e-11
-5.99341e-09
5.69926e-16
7.15357e-11
6.41003e-16
-8.81186e-16
7.85698e-16
-1.06108e-10
7.06751e-10
-1.3755e-16
5.9636e-09
-1.11933e-13
2.40848e-09
1.8939e-10
2.71619e-10
6.28183e-11
2.82043e-06
2.48894e-07
-1.97894e-16
2.12205e-18
-5.80688e-16
-6.36854e-18
-3.66328e-08
-9.92064e-10
-2.92833e-08
-7.34951e-09
-2.05806e-08
-8.70267e-09
-3.31006e-09
-5.03913e-09
-2.03647e-09
-1.27302e-09
-1.23974e-09
-7.96729e-10
-6.57151e-10
3.00941e-10
-8.14667e-10
4.12386e-09
-7.57334e-11
-2.36939e-09
-7.60546e-10
-3.85375e-16
-2.83044e-18
-2.47433e-16
-1.41823e-16
-2.12229e-08
-2.67887e-11
-3.51131e-08
-4.82504e-11
-2.22063e-08
-5.0158e-11
-1.11219e-08
-6.70973e-11
-1.62953e-11
-2.5278e-11
1.22426e-08
-1.47352e-09
8.32938e-08
-1.97031e-08
6.54272e-08
2.34396e-08
1.54068e-08
1.61176e-08
7.43776e-09
-2.47275e-15
5.08441e-18
-7.17533e-16
-2.64344e-13
-1.18775e-16
-2.67893e-11
-1.0527e-16
-4.82504e-11
-8.73436e-17
-5.01581e-11
-6.70972e-11
-4.93192e-17
-6.86804e-11
-1.60714e-12
1.40222e-09
-4.80509e-17
1.37075e-08
-1.99961e-09
3.9913e-08
-1.00744e-09
4.96041e-08
6.42657e-09
5.70418e-08
-5.18974e-15
4.58205e-15
-3.03807e-11
-4.65863e-17
-1.11036e-10
-2.16766e-12
-8.50729e-11
-1.02442e-12
-5.27416e-12
-1.1602e-11
-6.91071e-17
-5.27419e-12
-4.31548e-17
-1.60717e-12
-2.68104e-17
-6.20016e-17
-1.02015e-09
-9.79454e-10
2.04437e-08
-1.68871e-08
4.60821e-09
2.3712e-09
4.7772e-08
-5.02659e-16
5.24976e-13
-5.69898e-16
-4.61287e-17
-2.16757e-12
-1.5649e-16
-5.43052e-12
-5.22766e-12
-3.27748e-12
-2.98128e-11
-3.95378e-12
-2.9997e-11
5.94005e-13
-1.28346e-11
5.93993e-13
-4.67786e-17
-1.60388e-09
-3.4311e-17
8.65604e-09
-1.13608e-08
5.67607e-09
2.08637e-08
6.90854e-08
-3.17365e-13
2.84658e-12
-5.00229e-16
-3.16379e-13
-1.11292e-15
-1.79123e-16
-9.30701e-12
7.21557e-13
-2.91294e-11
-2.99302e-11
-1.54279e-11
-3.83559e-11
-1.97277e-16
-2.39816e-11
-8.32661e-18
-2.35734e-16
8.27935e-18
-5.09169e-17
4.99091e-08
-4.32805e-08
7.70023e-08
7.58824e-08
4.22975e-07
-2.64812e-12
4.11892e-11
-1.28979e-14
4.84268e-12
-5.42742e-13
5.29532e-13
-1.26932e-11
1.50604e-11
-1.43529e-11
-3.61222e-13
-2.22694e-11
-3.07101e-11
-1.14392e-12
-1.28845e-13
-7.33302e-18
-1.14441e-12
7.94434e-18
-6.61943e-17
1.31586e-07
-6.81288e-08
1.2896e-07
3.746e-07
7.31081e-07
-5.57698e-10
2.82241e-10
-2.38535e-10
-1.40188e-10
-1.02307e-10
-6.2515e-10
-5.41598e-13
-4.22696e-10
-9.02585e-13
-2.18602e-16
-2.65554e-16
-2.57082e-16
-1.28878e-13
-2.34025e-16
5.0719e-14
-1.00403e-15
5.07826e-14
-1.29776e-16
1.33414e-07
-4.19021e-08
1.41667e-07
6.17999e-07
8.72748e-07
4.02027e-10
3.40009e-10
7.64299e-10
2.18503e-10
4.67494e-10
5.34432e-10
1.06723e-16
2.34957e-10
1.01457e-16
-2.15276e-16
7.05417e-17
-2.26733e-16
4.53936e-17
-2.09358e-16
1.63574e-17
-1.77883e-16
4.64874e-17
-1.59787e-16
3.24486e-08
-1.99312e-10
3.99334e-08
6.89546e-07
9.12681e-07
4.18937e-16
3.40009e-10
4.05469e-16
2.18503e-10
3.69783e-16
5.34432e-10
3.19178e-16
2.34957e-10
2.93647e-16
-2.10703e-16
2.34432e-16
-1.77127e-16
1.62983e-16
-1.41783e-16
7.01346e-17
-8.76884e-17
2.43438e-18
-9.67409e-17
1.57766e-08
-1.59759e-08
8.18989e-08
6.4016e-07
9.9458e-07
3.31238e-07
-7.25383e-08
5.32358e-07
-3.11211e-07
5.58166e-07
-5.02137e-07
3.80855e-07
-5.48843e-07
1.71964e-07
-5.04693e-07
3.13788e-08
-3.32863e-07
1.90889e-08
-1.96411e-08
1.77612e-08
1.00483e-08
2.85815e-08
1.20575e-08
-6.22431e-08
-9.7975e-08
-1.23229e-08
5.56584e-07
9.82257e-07
4.08865e-06
-1.56156e-07
4.01778e-06
-2.40331e-07
3.87262e-06
-3.56985e-07
3.68091e-06
-5.10415e-07
2.97606e-06
-6.63938e-07
1.82667e-06
-7.55294e-07
7.77119e-07
-4.58499e-07
7.52709e-07
4.8179e-08
8.10873e-07
8.02667e-07
4.27041e-07
2.74658e-07
2.07978e-07
3.00707e-07
1.12751e-06
1.04737e-27
-8.03202e-25
-1.83293e-25
1.02462e-26
-1.62652e-23
4.16932e-25
-5.83859e-22
1.54726e-23
-9.9061e-21
3.49401e-22
-9.39327e-20
4.32164e-21
-5.47654e-19
3.23989e-20
-2.11799e-18
2.10294e-19
-5.06559e-18
5.16924e-19
-6.12705e-18
1.06129e-18
-7.35606e-18
1.23377e-18
1.56945e-17
-1.88901e-17
-6.90085e-22
7.7178e-24
-5.05019e-20
1.7777e-21
-1.09788e-18
6.72203e-20
-1.06214e-17
9.4674e-19
-5.44862e-17
6.64948e-18
-1.60387e-16
2.66801e-17
-2.78588e-16
6.46701e-17
-2.53855e-16
9.70438e-17
-3.68632e-17
4.92413e-17
-1.12156e-12
1.12151e-12
-1.57085e-11
9.25927e-12
4.15969e-12
-1.76079e-11
-7.47056e-21
2.39097e-22
-3.6242e-19
3.24541e-20
-4.75063e-18
6.61707e-19
-2.896e-17
5.3548e-18
-9.97973e-17
2.34288e-17
-2.09547e-16
6.30851e-17
-2.8486e-16
1.09335e-16
-2.91019e-16
1.26948e-16
-1.54558e-13
1.54606e-13
-6.47169e-11
2.64178e-11
-6.75641e-11
3.7386e-11
1.9074e-12
-3.91739e-12
-3.12588e-20
2.1381e-21
-9.82684e-19
1.65257e-19
-9.2902e-18
2.21554e-18
-4.37896e-17
1.2886e-17
-1.23717e-16
4.34804e-17
-2.26695e-16
9.59507e-17
-2.95984e-16
1.45462e-16
-3.97378e-16
1.63017e-16
-3.47613e-11
4.73588e-12
-8.88581e-11
3.6235e-11
-7.83032e-11
3.17079e-11
6.43235e-12
-4.20233e-15
-7.95e-20
9.86331e-21
-1.80766e-18
4.92265e-19
-1.33527e-17
4.77503e-18
-5.22832e-17
2.16446e-17
-1.2995e-16
6.05729e-17
-2.21424e-16
1.17571e-16
-2.7913e-16
1.66304e-16
-3.60711e-16
1.81389e-16
-3.60144e-11
2.70175e-12
-8.40982e-11
2.28261e-11
-8.01971e-11
2.25044e-11
4.53177e-12
-6.28359e-16
-1.52435e-19
2.99383e-20
-2.65522e-18
1.04954e-18
-1.59908e-17
7.86724e-18
-5.36297e-17
2.9086e-17
-1.20187e-16
6.97124e-17
-1.951e-16
1.21939e-16
-2.43618e-16
1.64867e-16
-3.00918e-16
1.79961e-16
-9.14836e-12
5.00906e-15
-3.65211e-11
-1.08661e-15
-2.70063e-11
5.30238e-13
7.43869e-13
-3.07411e-16
-2.30967e-19
6.38479e-20
-3.21866e-18
1.6903e-18
-1.64667e-17
1.03587e-17
-5.05354e-17
3.27804e-17
-1.22431e-16
7.22508e-17
-2.71005e-16
1.36775e-16
-5.47541e-16
2.52907e-16
-5.49327e-15
1.6369e-15
-4.80708e-15
-1.50036e-15
-6.08315e-15
1.68345e-16
-5.2195e-14
3.9828e-16
-1.49018e-15
-3.34692e-14
-2.70938e-19
9.9406e-20
-3.03639e-18
2.03027e-18
-1.31232e-17
1.04119e-17
-3.51939e-17
2.85369e-17
-7.78052e-17
5.61162e-17
-1.92673e-16
9.82179e-17
-6.17168e-16
2.0482e-16
-8.76938e-16
6.0053e-16
-1.05556e-16
8.39293e-16
-6.74924e-17
1.19515e-16
-5.17133e-17
1.05083e-16
1.02144e-16
-1.64952e-15
-8.44096e-19
2.28728e-18
-3.42779e-18
6.25071e-18
-8.61846e-18
1.24374e-17
-1.59082e-17
2.12882e-17
-2.50521e-17
3.09311e-17
-3.50852e-17
4.12664e-17
-1.51264e-17
5.1332e-17
-6.41958e-18
6.46349e-16
4.6337e-18
7.73557e-16
1.61173e-17
1.62582e-16
8.35178e-17
7.16305e-17
7.34594e-17
9.40207e-17
-2.14901e-18
6.79255e-18
-4.62102e-18
1.51041e-17
-4.89528e-18
1.83931e-17
-3.62308e-18
1.66663e-17
-2.0827e-18
1.36028e-17
6.46003e-19
1.26862e-17
4.83983e-17
2.5373e-18
1.89498e-11
8.61603e-12
2.65058e-11
1.12149e-10
3.59782e-11
8.50292e-11
9.15291e-18
3.59783e-11
7.2524e-17
9.84877e-18
-2.50974e-18
9.76791e-18
-2.53402e-18
1.93758e-17
1.0504e-18
1.76285e-17
3.73497e-18
9.74388e-18
4.66944e-18
5.4031e-18
5.77724e-18
3.61231e-18
6.59507e-18
9.57638e-19
4.0297e-11
-3.16809e-11
7.42442e-08
1.17987e-08
2.40987e-07
-2.13339e-09
2.26734e-07
-9.15886e-09
2.16911e-08
4.63634e-08
2.40004e-20
9.74391e-18
3.50202e-20
1.93648e-17
6.35642e-20
1.76e-17
1.55605e-18
5.28909e-19
1.18756e-18
2.4352e-19
4.78715e-19
6.20637e-20
5.5081e-17
-4.92889e-18
1.4263e-07
2.1583e-09
5.79238e-07
-2.53213e-07
1.04004e-06
-6.63734e-07
1.67988e-06
-2.14232e-07
2.54442e-06
-4.5531e-08
-1.10389e-13
1.10436e-13
-7.60275e-13
6.61105e-14
-7.92093e-13
3.20441e-14
-8.95555e-14
-1.9471e-17
-8.96178e-14
-9.29282e-18
-3.41105e-13
-7.62482e-14
-1.04576e-14
-8.73449e-13
-2.8608e-15
-5.83356e-15
-1.73065e-15
6.08756e-16
-5.01885e-18
5.43282e-16
-2.58095e-20
-4.55761e-18
-3.77116e-19
-2.19283e-11
3.11901e-12
-3.2272e-14
7.98333e-13
-2.73129e-16
8.75986e-18
-3.21864e-16
-7.56395e-18
-3.46645e-16
-2.93822e-17
-3.29653e-12
-1.33512e-16
-1.04725e-11
-7.85553e-13
-2.39029e-12
-1.24218e-11
-7.42965e-14
-9.58019e-12
-1.11009e-16
-6.86756e-13
-9.14456e-19
-1.21024e-16
-5.1549e-18
-9.96776e-13
3.92747e-15
-6.49738e-14
-1.71784e-15
-3.49825e-16
2.32225e-16
-3.68986e-16
-2.73483e-17
-2.70102e-16
-5.50978e-17
-2.93384e-16
-6.74642e-17
-7.85774e-13
-8.34828e-17
-4.14956e-11
-3.39347e-11
-6.63344e-11
-6.90417e-11
-1.286e-11
-7.75194e-11
-2.652e-13
-2.47947e-11
-2.65212e-13
-2.98289e-16
4.6801e-17
-2.08483e-15
4.15533e-17
-5.79955e-16
8.88946e-17
-3.9533e-16
-4.68153e-17
-2.7702e-16
-6.77849e-17
-2.30194e-16
-7.53776e-17
-2.36337e-16
-8.22727e-17
-9.55512e-11
-6.99607e-12
-8.61701e-11
-7.98534e-11
-4.39462e-11
-1.18313e-10
-8.77923e-12
-8.36463e-11
-1.99185e-11
-6.62348e-16
5.49695e-17
-8.74232e-16
1.204e-16
-6.15693e-16
4.84587e-17
-3.1508e-16
-3.47821e-17
-2.03281e-16
-6.34638e-17
-1.5046e-16
-6.74801e-17
-1.28148e-16
-6.80239e-17
-6.99609e-12
-7.07848e-17
-4.66291e-11
-5.33998e-13
-4.9353e-11
-3.69932e-11
-1.70465e-11
-7.35248e-11
-3.61803e-11
-2.84158e-16
5.95246e-17
-3.69313e-16
7.04183e-17
-2.85697e-16
2.81281e-17
-1.85124e-16
-1.66465e-17
-1.1385e-16
-3.83578e-17
-7.76356e-17
-5.53854e-17
-5.95143e-17
-6.47628e-17
-5.45423e-17
-7.89009e-17
-5.33884e-13
-1.1142e-16
-1.77813e-11
-1.31295e-16
-4.18683e-12
-5.36149e-12
1.38318e-12
-1.47259e-16
1.10856e-14
-8.88897e-17
3.54042e-17
-6.92315e-17
1.14957e-17
-5.63022e-17
-2.16409e-17
-4.47257e-17
-5.21219e-17
-3.30626e-17
-7.57513e-17
-2.93684e-17
-7.97078e-17
-3.45314e-17
-8.09704e-17
-3.12484e-17
-1.27756e-16
-2.51064e-17
-1.65038e-16
-2.62563e-12
-2.73596e-12
-4.86839e-11
-6.73891e-17
-2.79458e-17
-1.59696e-17
3.5472e-17
-1.54727e-17
1.45246e-17
-1.28479e-17
-2.07045e-17
-1.11819e-18
-6.33092e-17
1.23145e-17
-9.65365e-17
1.36092e-17
-1.03841e-16
6.90803e-18
-9.56663e-17
-6.11862e-19
-9.34999e-17
4.77862e-15
-4.94891e-15
-4.73659e-12
-2.50855e-16
-1.01591e-10
2.53665e-17
1.37605e-17
7.97567e-17
2.31361e-17
6.6722e-17
2.17731e-17
4.81429e-17
-8.12736e-19
5.85882e-17
-5.61033e-17
8.35705e-17
-1.1134e-16
8.78067e-17
-1.28732e-16
6.27321e-17
-1.0552e-16
3.61413e-17
-9.93784e-17
8.55074e-16
-1.86823e-15
5.2126e-16
-4.15854e-17
-9.81361e-11
1.06799e-17
1.31689e-17
1.15732e-17
2.20033e-17
1.07048e-17
2.28809e-17
8.71043e-18
1.16851e-18
9.47504e-17
7.54519e-16
1.51649e-16
-2.13728e-16
1.95776e-16
-2.22308e-16
1.56607e-16
-1.08768e-16
1.03297e-16
-8.41706e-17
1.07443e-15
-3.78743e-16
1.5229e-15
-3.58515e-16
-1.3549e-13
5.71579e-08
4.88451e-09
2.23278e-07
-8.35492e-08
5.05365e-07
1.47851e-07
6.14566e-07
4.25946e-07
4.50794e-07
-7.82193e-07
1.49395e-07
-4.15685e-07
1.60647e-07
-2.22536e-07
1.25931e-07
-1.29218e-07
1.11728e-08
-5.53535e-08
5.93282e-16
1.04213e-08
2.75763e-16
-1.14032e-17
-1.35227e-13
2.71202e-06
-1.14947e-07
2.88401e-06
-2.88084e-07
3.08494e-06
1.30867e-07
3.39286e-06
2.62335e-07
3.25548e-06
-4.52301e-07
2.00541e-06
-8.05594e-07
1.79169e-06
-4.98848e-07
1.78657e-06
-5.90087e-08
1.04002e-06
6.34658e-08
2.37876e-08
5.24578e-08
-5.51784e-13
2.37882e-08
2.24014e-12
4.0149e-31
-6.72123e-29
-2.03506e-27
1.83791e-28
-2.01477e-26
5.02395e-27
-1.64193e-25
1.78311e-26
-4.94093e-24
8.84324e-26
-8.44749e-23
1.92671e-24
-7.73301e-22
2.63301e-23
-3.95586e-21
2.05475e-22
-1.22556e-20
9.30838e-22
-2.70498e-20
2.59083e-21
-4.88565e-20
5.09955e-21
7.98286e-21
-7.76714e-20
-2.64924e-26
5.41737e-28
-1.57247e-24
5.85449e-26
-4.28517e-23
1.83524e-24
-5.87839e-22
3.27032e-23
-4.27647e-21
3.2543e-22
-1.80853e-20
1.86415e-21
-4.99637e-20
6.62941e-21
-1.04074e-19
1.61645e-20
-1.82525e-19
3.05603e-20
-2.85372e-19
4.89654e-20
-4.10579e-19
6.89663e-20
8.63372e-20
-5.52848e-19
-1.02594e-24
3.11667e-26
-5.69989e-23
4.28693e-24
-8.64272e-22
9.62698e-23
-6.02461e-21
8.76318e-22
-2.42875e-20
4.30637e-21
-6.64764e-20
1.35348e-20
-1.39771e-19
3.11511e-20
-2.45802e-19
5.82141e-20
-3.83228e-19
9.40256e-20
-5.48605e-19
1.35805e-19
-7.35705e-19
1.77506e-19
2.09494e-19
-9.33961e-19
-1.77774e-23
1.33881e-24
-4.84217e-22
8.45921e-23
-4.10769e-21
9.63193e-22
-1.83517e-20
4.89125e-21
-5.41674e-20
1.53089e-20
-1.20199e-19
3.50766e-20
-2.18558e-19
6.56093e-20
-3.45846e-19
1.07369e-19
-4.96468e-19
1.59597e-19
-6.63897e-19
2.18426e-19
-8.39978e-19
2.74806e-19
3.1465e-19
-1.01393e-18
-1.08182e-22
1.80573e-23
-1.74671e-21
5.72967e-22
-1.01192e-20
3.88131e-21
-3.42754e-20
1.33735e-20
-8.27615e-20
3.14022e-20
-1.58507e-19
5.82041e-20
-2.57624e-19
9.35852e-20
-3.72183e-19
1.38503e-19
-4.93847e-19
1.93936e-19
-6.15499e-19
2.57055e-19
-7.30667e-19
3.17767e-19
3.5927e-19
-8.32624e-19
-3.31891e-22
9.89108e-23
-3.76797e-21
1.89452e-21
-1.69183e-20
9.1279e-21
-4.71602e-20
2.42202e-20
-9.80001e-20
4.61431e-20
-1.66861e-19
7.21297e-20
-2.46254e-19
1.01419e-19
-3.26568e-19
1.36701e-19
-3.99254e-19
1.82187e-19
-4.58932e-19
2.38362e-19
-5.03156e-19
2.96522e-19
3.3847e-19
-5.30701e-19
-6.37132e-22
2.90233e-22
-5.51249e-21
3.84778e-21
-2.02635e-20
1.45305e-20
-4.81619e-20
3.16083e-20
-8.81034e-20
5.07944e-20
-1.35295e-19
6.82247e-20
-1.8284e-19
8.4069e-20
-2.228e-19
1.0273e-19
-2.48113e-19
1.31158e-19
-2.55539e-19
1.74143e-19
-2.47235e-19
2.27328e-19
2.74292e-19
-2.2934e-19
-8.10985e-22
5.18634e-22
-5.34061e-21
5.13247e-21
-1.5795e-20
1.57105e-20
-3.12473e-20
2.83061e-20
-4.92711e-20
3.8333e-20
-6.71064e-20
4.4138e-20
-8.02478e-20
4.74387e-20
-8.44189e-20
5.16459e-20
-7.36712e-20
6.3896e-20
-4.42139e-20
9.16219e-20
2.12523e-22
1.365e-19
1.86397e-19
4.27127e-20
-8.05226e-20
5.63092e-20
-4.57709e-19
5.36309e-19
-8.6253e-19
1.65704e-18
-9.3654e-21
2.18396e-18
-5.5791e-21
1.90602e-20
-2.40981e-21
1.04409e-20
1.14181e-21
1.3559e-20
5.32551e-21
4.12766e-21
8.2448e-21
6.11658e-20
1.17067e-20
8.75553e-20
2.71186e-19
9.80874e-20
1.23115e-19
2.93239e-19
-7.15506e-20
8.76925e-20
-1.6864e-19
5.39949e-19
1.04245e-19
1.53203e-18
3.19067e-19
7.38729e-19
1.5187e-20
5.12431e-19
1.81473e-20
4.34415e-21
1.09141e-11
3.09439e-13
3.07933e-11
-1.67638e-18
1.81523e-11
-6.62982e-12
3.23262e-12
9.83191e-14
6.05261e-18
3.2326e-12
5.58005e-18
6.01136e-19
1.92835e-24
8.76802e-20
3.81345e-23
5.39904e-19
6.92796e-22
1.53379e-18
7.42029e-19
1.97183e-22
4.66596e-13
-2.61299e-16
2.09419e-12
-5.45326e-17
1.38088e-13
-9.97826e-18
1.225e-12
-3.57925e-12
9.28879e-10
-3.49342e-11
1.10165e-09
-1.39812e-12
5.27776e-10
1.10714e-10
4.6187e-11
7.3209e-11
6.73542e-12
-8.53335e-17
3.39475e-12
-1.67349e-17
4.76292e-17
-4.32966e-15
4.65116e-17
-1.1086e-18
1.93055e-15
6.71915e-15
1.19631e-15
-5.00779e-15
4.71945e-16
-3.1779e-17
1.12366e-10
-2.6052e-17
3.65732e-10
-1.8277e-12
6.68277e-10
-5.6935e-12
4.2613e-09
9.88586e-11
5.3241e-09
5.11489e-10
-1.12929e-19
1.04272e-20
-1.53229e-19
1.13503e-20
-1.96156e-19
9.64494e-21
-2.37298e-19
3.49841e-21
-2.62012e-19
-1.70335e-20
-2.50603e-19
-5.25586e-20
-2.06965e-19
-8.38819e-20
-1.40759e-19
-1.05705e-19
-6.96927e-20
-1.09217e-19
-1.72538e-20
-8.67502e-20
-1.25832e-22
-4.18266e-20
-2.25569e-21
-7.02186e-19
9.51408e-20
-8.4321e-19
8.85506e-20
-9.56051e-19
6.06062e-20
-1.01644e-18
4.61707e-21
-1.01379e-18
-7.5692e-20
-9.47115e-19
-1.75543e-19
-8.11491e-19
-2.81137e-19
-6.11148e-19
-3.77998e-19
-3.68483e-19
-4.33823e-19
-1.40187e-19
-3.94577e-19
-7.70558e-21
-2.40153e-19
-3.7125e-20
-1.12763e-18
2.19595e-19
-1.29685e-18
1.95699e-19
-1.42053e-18
1.29163e-19
-1.48548e-18
1.88163e-20
-1.49349e-18
-1.20571e-19
-1.45253e-18
-2.89868e-19
-1.34545e-18
-5.06775e-19
-1.13049e-18
-7.84104e-19
-7.74481e-19
-1.04734e-18
-3.59425e-19
-1.03917e-18
-4.90204e-20
-6.9625e-19
-1.64983e-19
-1.173e-18
3.21729e-19
-1.30554e-18
2.82504e-19
-1.40565e-18
1.9033e-19
-1.47693e-18
4.68763e-20
-1.55252e-18
-1.1799e-19
-1.66656e-18
-3.37361e-19
-1.79545e-18
-7.28716e-19
-1.77223e-18
-1.47325e-18
-1.33243e-18
-2.45862e-18
-6.77607e-19
-2.54185e-18
-1.32285e-19
-1.71266e-18
-4.15898e-19
-9.15501e-19
3.632e-19
-9.78862e-19
3.17503e-19
-1.03459e-18
2.21069e-19
-1.11479e-18
8.06849e-20
-1.28841e-18
-7.37577e-20
-1.69108e-18
-2.98839e-19
-2.39074e-18
-9.31316e-19
-2.97728e-18
-2.76029e-18
-2.3616e-18
-6.00282e-18
-1.22446e-18
-6.36251e-18
-2.47612e-19
-4.30422e-18
-8.55189e-19
-5.40706e-19
3.42911e-19
-5.3682e-19
2.9798e-19
-5.37189e-19
2.09219e-19
-5.9244e-19
9.4902e-20
-8.10008e-19
-2.16632e-20
-1.49998e-18
-1.70018e-19
-3.12949e-18
-9.08399e-19
-5.16697e-18
-4.49993e-18
-4.29854e-18
-1.34379e-17
-2.30005e-18
-1.49763e-17
-3.92781e-19
-1.0781e-17
-1.89679e-18
-2.06821e-19
2.89981e-19
-1.8087e-19
2.56353e-19
-1.528e-19
1.7635e-19
-1.47359e-19
8.02441e-20
-2.61499e-19
1.72433e-22
-8.30187e-19
-2.97788e-20
-3.02853e-18
-3.73431e-19
-7.26107e-18
-5.26621e-18
-6.72489e-18
-2.45235e-17
-4.05011e-18
-3.03003e-17
-6.47263e-19
-2.42392e-17
-5.08527e-18
7.685e-20
2.1863e-19
8.93058e-20
2.13527e-19
7.58333e-20
1.62976e-19
4.4431e-20
8.32871e-20
1.08769e-20
1.08202e-20
-1.63786e-20
-3.29909e-20
-7.52777e-19
-3.21145e-19
-4.66981e-18
-4.60006e-18
-6.38952e-18
-3.26994e-17
-5.16074e-18
-4.98691e-17
-1.11934e-18
-4.55374e-17
-1.35926e-17
3.16493e-19
1.43421e-19
3.37202e-19
1.54536e-19
3.25038e-19
1.37196e-19
2.71107e-19
8.93422e-20
1.89486e-19
2.99927e-20
1.14679e-19
-2.11852e-20
3.2487e-19
-5.81073e-18
1.74104e-18
-1.1803e-17
3.41545e-18
-3.32147e-17
-8.52239e-19
-6.28145e-17
-1.03377e-18
-6.85345e-17
-3.02016e-17
6.31704e-19
1.38943e-18
5.99922e-19
1.24482e-19
5.39583e-19
1.10491e-19
4.73208e-19
8.1026e-20
3.97369e-19
4.07554e-20
3.17646e-19
-2.25886e-21
1.9668e-17
-1.55849e-16
1.75363e-17
-1.63002e-16
2.33254e-17
-4.63852e-17
1.85451e-17
-6.23514e-17
5.8479e-18
-7.80464e-17
-4.79018e-17
3.69694e-12
1.28551e-10
7.54699e-19
3.69689e-12
7.58018e-19
1.11721e-19
1.70866e-18
1.97544e-19
8.43477e-19
6.77501e-20
4.81874e-19
1.23946e-20
1.38933e-15
-5.06293e-15
6.12729e-16
-3.21496e-15
8.94535e-17
3.28953e-16
6.13952e-17
-5.26695e-17
3.17094e-17
-5.82023e-17
-1.78156e-17
3.60431e-09
3.72727e-10
3.36019e-10
1.05003e-09
5.50187e-11
7.42946e-12
1.19827e-17
5.50187e-11
-1.89026e-15
1.90133e-15
1.14166e-13
6.87347e-15
1.37688e-13
-2.48679e-17
1.76917e-14
7.22699e-16
1.15478e-14
-6.7731e-15
1.62381e-16
1.12854e-14
1.03589e-16
-8.48732e-18
8.57326e-17
-2.45273e-08
2.45273e-08
-9.47448e-08
7.02174e-08
-1.90473e-07
9.57287e-08
-2.90193e-07
9.97199e-08
-3.73729e-07
8.35354e-08
-4.23281e-07
4.95517e-08
-4.31089e-07
7.82034e-09
-3.98991e-07
-3.21194e-08
-3.66238e-07
-3.27536e-08
-3.51356e-07
-1.48814e-08
-3.53383e-07
2.02723e-09
-1.20527e-08
-3.41331e-07
-8.69072e-08
1.11435e-07
-2.67272e-07
2.50582e-07
-4.9084e-07
3.19297e-07
-7.17132e-07
3.26141e-07
-9.06717e-07
2.73101e-07
-1.01771e-06
1.60632e-07
-1.02129e-06
1.0929e-08
-9.29487e-07
-1.23944e-07
-7.93483e-07
-1.32208e-07
-7.26055e-07
-3.94518e-08
-7.38224e-07
3.79127e-08
-3.47874e-08
-6.98937e-07
-1.21538e-07
2.32973e-07
-3.77448e-07
5.06491e-07
-6.98344e-07
6.40377e-07
-1.03831e-06
6.65964e-07
-1.35101e-06
5.85942e-07
-1.57689e-06
3.86019e-07
-1.65932e-06
9.43468e-08
-1.55869e-06
-1.77196e-07
-1.02218e-06
-2.36106e-07
-7.28141e-07
-1.3902e-07
-5.6635e-07
-1.36286e-07
-3.29982e-07
-4.03729e-07
-1.25105e-07
3.58078e-07
-3.91972e-07
7.73358e-07
-7.371e-07
9.85605e-07
-1.11536e-06
1.04456e-06
-1.47377e-06
9.44413e-07
-1.69659e-06
6.08552e-07
-1.50264e-06
9.82517e-08
-9.9819e-07
-5.79569e-08
-6.98361e-07
-8.09083e-08
-4.3924e-07
-1.20489e-07
-4.47429e-07
-2.56186e-07
-4.09164e-07
-3.28191e-07
-8.25755e-08
4.40654e-07
-2.72202e-07
9.62986e-07
-5.21239e-07
1.23468e-06
-7.83917e-07
1.30727e-06
-1.00896e-06
1.16949e-06
-5.9196e-07
4.25314e-07
-8.62974e-08
1.28662e-08
-4.7097e-09
-3.73012e-17
-2.70187e-08
-4.74779e-17
-9.128e-08
-6.31936e-17
-5.83497e-08
-6.14445e-17
-7.17108e-17
-4.00795e-08
-2.12014e-08
4.61855e-07
-8.73922e-08
1.02918e-06
-1.76496e-07
1.32378e-06
-2.5584e-07
1.38662e-06
-2.50592e-07
1.13971e-06
-1.28662e-08
1.84017e-07
-1.49249e-17
5.86346e-18
-1.59454e-17
-3.1887e-17
-1.86888e-17
-4.91283e-17
-1.9449e-17
-5.80396e-17
-2.07667e-17
-6.45206e-17
-6.40342e-17
-2.40496e-17
2.96786e-08
4.32176e-07
8.50435e-08
9.73812e-07
1.6704e-07
1.24179e-06
3.08262e-07
1.2454e-06
3.71051e-07
9.32105e-07
2.7108e-10
1.72769e-07
7.8288e-17
2.7108e-10
5.78384e-17
-1.49616e-17
3.0166e-17
-3.9018e-17
9.94377e-18
-5.55393e-17
-1.68556e-18
-7.12065e-17
-7.04159e-17
-9.80007e-18
4.971e-08
3.82466e-07
1.80452e-07
8.4307e-07
3.66611e-07
1.05563e-06
6.07006e-07
1.005e-06
8.28909e-07
7.10202e-07
1.22474e-07
2.49066e-07
1.56609e-16
1.83899e-08
1.32231e-16
7.08991e-19
9.5178e-17
-1.11513e-17
5.28503e-17
-2.53016e-17
3.01586e-17
-6.94844e-17
-7.0519e-17
1.02476e-17
4.49889e-08
3.37478e-07
2.11659e-07
6.764e-07
4.4307e-07
8.24217e-07
7.00575e-07
7.47496e-07
9.33675e-07
4.77102e-07
7.24343e-07
1.63552e-07
1.47863e-10
1.23243e-07
1.98983e-16
1.47863e-10
1.40492e-16
1.42148e-17
8.29143e-17
1.93109e-17
7.9556e-17
-9.16361e-17
-6.32084e-17
5.07265e-17
4.50257e-08
2.92452e-07
2.47406e-07
4.7402e-07
5.00146e-07
5.71477e-07
7.14762e-07
5.3288e-07
8.42417e-07
3.49447e-07
1.03393e-06
-2.79601e-08
6.66219e-07
3.31799e-08
2.62049e-08
-1.97569e-08
-2.70389e-10
2.64752e-08
3.27141e-09
6.53039e-08
4.60532e-09
-7.2812e-08
-3.94992e-10
1.40605e-09
1.15854e-07
1.76597e-07
4.16591e-07
1.73283e-07
7.19386e-07
2.68681e-07
9.12345e-07
3.39922e-07
8.98815e-07
3.62976e-07
8.22975e-07
4.78798e-08
5.4876e-07
2.59205e-07
5.64719e-07
-1.34576e-07
5.50105e-07
-9.16665e-08
4.66779e-07
-6.84214e-08
5.14823e-07
-2.63985e-07
-1.12091e-07
5.00488e-07
1.28216e-07
-8.27329e-12
2.50713e-07
-4.03689e-14
4.46665e-07
-2.26808e-18
7.94505e-07
7.95644e-09
1.13008e-06
2.66487e-08
1.20794e-06
6.49121e-08
1.11827e-06
3.7444e-07
1.06788e-06
-1.49401e-07
9.80855e-07
-1.90934e-07
9.23088e-07
-6.1536e-08
1.49043e-06
-1.72903e-08
2.06244e-06
-1.27309e-07
-3.18136e-07
-2.31946e-08
-2.68323e-07
-4.97502e-08
-1.96788e-07
-7.15578e-08
-1.24379e-07
-7.24093e-08
-6.58426e-08
-5.85249e-08
-2.83324e-08
-3.75102e-08
-1.55879e-08
-1.27499e-08
-1.90791e-08
3.48379e-09
-2.80236e-08
8.94453e-09
-3.19076e-08
3.88402e-09
-1.78888e-08
-1.40188e-08
-1.78888e-08
-6.45972e-07
-1.12315e-07
-5.22656e-07
-2.08487e-07
-3.47534e-07
-2.4668e-07
-2.04955e-07
-2.14988e-07
-1.01851e-07
-1.61629e-07
-3.82061e-08
-1.01148e-07
-9.86583e-09
-4.10451e-08
-1.58231e-08
9.41684e-09
-3.71491e-08
3.02706e-08
-5.4135e-08
2.08699e-08
-2.8456e-08
-3.96978e-08
-4.63449e-08
-3.52174e-07
-4.1935e-07
-2.50946e-07
-4.06285e-07
-1.18274e-07
-3.79351e-07
-1.49786e-08
-3.18284e-07
5.75158e-08
-2.34123e-07
1.02606e-07
-1.46239e-07
1.23326e-07
-6.19686e-08
1.09338e-07
1.96456e-08
4.45689e-08
8.91717e-08
-4.42837e-08
1.09723e-07
-4.03926e-08
-4.08023e-08
-8.54175e-08
-1.20134e-07
-5.02327e-07
1.9647e-08
-5.51961e-07
1.26074e-07
-4.94969e-07
1.86009e-07
-3.78219e-07
2.17268e-07
-2.65382e-07
2.28558e-07
-1.57529e-07
2.28428e-07
-6.18385e-08
2.11093e-07
1.91017e-08
1.78629e-07
6.59134e-08
1.83979e-07
1.03539e-07
1.16746e-07
3.9255e-08
4.22726e-08
-7.24507e-08
-7.27473e-09
-4.31919e-08
-1.70569e-07
1.1112e-07
-4.72355e-07
2.2152e-07
-4.88619e-07
2.7715e-07
-3.21012e-07
2.93576e-07
-1.73955e-07
2.87797e-07
-5.60596e-08
2.64657e-07
4.22408e-08
1.87106e-07
1.2822e-07
1.15181e-07
1.73356e-07
2.58374e-08
1.28599e-07
6.81099e-08
-7.27473e-09
-5.79752e-17
-1.02322e-08
-5.38108e-17
-7.60529e-09
-2.02185e-08
1.43303e-07
-2.76221e-07
2.53494e-07
-4.06565e-07
3.04821e-07
-2.25282e-07
3.16627e-07
-6.78665e-08
2.85323e-07
7.35429e-08
1.94419e-07
2.19123e-07
8.42879e-08
2.96775e-07
-6.19851e-10
2.53603e-07
7.5364e-08
-1.36903e-17
-6.28335e-17
-1.77903e-17
-5.36932e-17
-2.02185e-08
-5.69378e-17
-1.70288e-08
-1.59334e-09
9.32923e-08
-1.03933e-07
2.47399e-07
-2.70568e-07
3.40067e-07
-1.60535e-07
3.50921e-07
6.26868e-08
2.67948e-07
3.02093e-07
1.79709e-07
3.83359e-07
8.50086e-08
3.50831e-07
1.7336e-07
-2.19823e-18
-6.9644e-17
-1.35534e-17
-5.1963e-17
-2.36679e-17
-6.7723e-17
-1.59334e-09
-8.08438e-17
-6.62845e-09
-1.01488e-09
8.96223e-08
-1.76125e-08
3.28056e-07
-2.47225e-07
3.93563e-07
-2.8226e-09
3.01458e-07
3.94197e-07
1.92051e-07
4.9046e-07
6.27598e-08
4.78369e-07
2.36138e-07
2.67545e-17
-6.66358e-17
2.6807e-18
-2.93405e-17
-2.45001e-17
-7.77141e-17
-4.6026e-17
-7.0508e-17
-3.84368e-17
-1.01488e-09
-1.72538e-08
-3.58683e-10
2.38952e-08
-2.2059e-08
2.33878e-07
-5.05861e-08
2.5562e-07
3.72453e-07
1.76137e-07
5.69434e-07
4.79099e-08
6.04978e-07
2.80663e-07
5.36823e-10
-1.49105e-08
-7.29589e-13
5.37552e-10
2.91986e-11
1.16441e-10
-1.42923e-09
-4.12202e-09
-6.10311e-10
-8.67395e-09
-2.5173e-10
-2.06857e-09
-1.59957e-08
-8.08971e-09
1.29499e-08
-1.26074e-07
1.66082e-07
1.94164e-07
2.03277e-07
5.31707e-07
3.96809e-08
7.6953e-07
3.14245e-07
4.46547e-07
-6.27111e-08
8.64923e-09
5.31813e-08
2.20877e-10
2.45499e-08
4.16798e-09
-9.73641e-10
1.90363e-09
-7.3965e-17
1.22958e-10
-2.90246e-17
-2.64199e-08
-5.07468e-08
3.36314e-08
-4.92563e-07
1.32671e-08
2.52261e-08
3.38362e-07
1.10817e-07
1.98733e-07
9.09159e-07
5.12979e-07
1.80668e-06
2.76365e-07
7.35184e-07
6.23661e-07
9.73641e-10
3.12065e-07
7.28825e-17
-1.74995e-17
6.60577e-17
-6.16706e-17
1.04595e-16
-7.30317e-17
3.7184e-07
-5.87077e-17
6.87907e-07
-3.66533e-09
1.44651e-07
7.38143e-07
5.85533e-07
-2.902e-07
6.20497e-07
5.41453e-07
1.04415e-06
4.84817e-07
1.23143e-07
-1.03378e-06
6.67861e-07
1.82725e-07
1.31075e-06
1.83397e-07
1.33439e-06
-1.54693e-07
7.6939e-07
-5.34807e-07
8.11679e-08
-5.57504e-07
2.11799e-09
-1.18793e-07
1.21946e-15
2.11799e-09
4.37163e-15
-1.14972e-13
2.0006e-10
3.69775e-13
3.16837e-06
1.60339e-07
9.83453e-08
5.0014e-06
2.92411e-06
7.91792e-08
-3.53602e-06
3.52676e-06
1.57749e-07
4.37286e-06
1.03907e-08
4.40056e-06
-1.64538e-07
4.44174e-06
-5.93849e-07
4.48691e-06
-5.84807e-07
1.31217e-06
-5.5318e-07
1.92188e-08
-3.70563e-07
8.84785e-09
1.03824e-08
5.84592e-07
7.56351e-08
1.0464e-06
2.42121e-07
-2.2768e-08
1.41947e-06
2.23299e-06
-4.24681e-08
-3.12141e-06
2.4021e-06
-3.813e-08
2.6612e-06
-2.21948e-07
4.78423e-06
-3.89898e-07
5.68722e-06
-7.17988e-07
5.69976e-06
-6.1205e-07
5.48811e-06
-3.25114e-07
5.00662e-06
-2.19544e-07
1.37578e-06
2.74013e-07
7.5377e-07
5.57342e-07
8.88125e-07
2.21974e-07
-2.17843e-07
2.82024e-06
2.86808e-06
-2.60221e-06
-3.36295e-07
3.29194e-06
-4.34038e-07
5.44495e-06
-4.86042e-07
6.01486e-06
-4.69214e-07
5.22905e-06
-7.57099e-07
5.63997e-06
-8.98802e-07
5.58527e-06
-3.94578e-07
5.61263e-06
1.84694e-07
5.49041e-06
7.54291e-07
5.43845e-06