/*--------------------------------*- C++ -*----------------------------------*\
| =========                 |                                                 |
| \\      /  F ield         | OpenFOAM: The Open Source CFD Toolbox           |
|  \\    /   O peration     | Version:  v1606+                                |
|   \\  /    A nd           | Web:      www.OpenFOAM.com                      |
|    \\/     M anipulation  |                                                 |
\*---------------------------------------------------------------------------*/
FoamFile
{
    version     2.0;
    format      ascii;
    class       volScalarField;
    location    "28";
    object      k;
}
// * * * * * * * * * * * * * * * * * * * * * * * * * * * * * * * * * * * * * //

dimensions      [0 2 -2 0 0 0 0];

internalField   nonuniform List<scalar> 
5080
(
0.0041704
0.00420156
0.00423198
0.00426182
0.00429041
0.0043183
0.00434436
0.00436954
0.00439252
0.00441477
0.00443499
0.00445502
0.00447373
0.00449314
0.00451225
0.00453553
0.00456362
0.00464009
0.00480267
0.00410797
0.00415193
0.00418009
0.00425077
0.00436243
0.00455617
0.00482043
0.00519664
0.00566403
0.00625613
0.00698484
0.00784935
0.0088962
0.010024
0.0113075
0.0125048
0.0137002
0.0148011
0.0163121
0.02722
0.0175709
0.00419492
0.00427014
0.00438444
0.00455651
0.00481304
0.00517997
0.00568547
0.0063673
0.00725632
0.00841784
0.00983741
0.0116432
0.013736
0.0164027
0.0192266
0.0229506
0.0262345
0.0334591
0.0585375
0.0257041
0.00426399
0.0044092
0.00459416
0.00483642
0.00516587
0.00561413
0.006231
0.00705709
0.00815844
0.00959743
0.0114578
0.0138294
0.0168121
0.0205169
0.0250641
0.0303284
0.0364834
0.0456638
0.0734426
0.0293528
0.00434936
0.00458476
0.00485681
0.00518598
0.00559721
0.00614027
0.00685189
0.00780217
0.00903423
0.0106786
0.0127815
0.0155412
0.0189211
0.0232514
0.0282867
0.0346687
0.0415707
0.052617
0.085161
0.0392036
0.00445209
0.00479393
0.00517427
0.00560617
0.00612573
0.00676976
0.00759745
0.00864638
0.0100134
0.0117784
0.0141075
0.017074
0.0209333
0.0256491
0.0316906
0.0383848
0.0466534
0.0577669
0.0917726
0.044087
0.00456468
0.00502971
0.00553293
0.00609329
0.00673364
0.00750963
0.00845057
0.00962798
0.0110981
0.0130191
0.0154636
0.0187006
0.0226928
0.0279109
0.0339292
0.0417076
0.0498137
0.0634206
0.0993939
0.0513972
0.00468682
0.00528385
0.00592718
0.00662679
0.00741462
0.0083286
0.00941681
0.010721
0.0123443
0.0143717
0.0170191
0.0203626
0.0248095
0.0301919
0.0373839
0.0450651
0.0552051
0.0680157
0.106472
0.0540835
0.00480964
0.00554385
0.00633606
0.00719228
0.00813646
0.00921386
0.0104592
0.0119306
0.0136973
0.0159134
0.0186728
0.0222879
0.02671
0.03263
0.0393003
0.0482418
0.0570717
0.072879
0.109599
0.0614958
0.00492842
0.00580252
0.0067464
0.00776381
0.00888141
0.0101382
0.0115714
0.0132294
0.015196
0.0175779
0.0205721
0.0242956
0.0291978
0.0350914
0.0431778
0.0515507
0.0632919
0.0769188
0.115261
0.0635437
0.00503787
0.00604006
0.00713197
0.00831733
0.00961646
0.0110684
0.0127177
0.0146028
0.0168031
0.0194344
0.0226345
0.0266917
0.031636
0.0382504
0.0455977
0.0558168
0.0653512
0.0838702
0.119748
0.0706509
0.00513145
0.00624812
0.00747738
0.00882284
0.010305
0.0119698
0.0138573
0.0160141
0.0184991
0.0214343
0.0249746
0.0293131
0.0348348
0.0415089
0.050737
0.0601851
0.0747805
0.0892103
0.127738
0.0720873
0.00520056
0.00640892
0.00775789
0.00925359
0.0109149
0.0128015
0.0149606
0.0174275
0.0202691
0.023581
0.0275432
0.0323862
0.0382793
0.0459348
0.0545623
0.0667214
0.0777863
0.099546
0.13375
0.0804217
0.00524697
0.00651848
0.00795926
0.00957668
0.0114118
0.0135209
0.0159705
0.0187982
0.0220615
0.0258742
0.0303745
0.0358481
0.0425507
0.0507581
0.0617074
0.0733866
0.0926199
0.108064
0.146982
0.0821836
0.00526055
0.00656597
0.00806574
0.00978804
0.0117659
0.0140984
0.0168458
0.0200755
0.0238425
0.0282426
0.0334892
0.0397895
0.0475296
0.0572082
0.068519
0.0843432
0.0983959
0.125101
0.156374
0.0939999
0.00524869
0.00654962
0.00807364
0.00985441
0.0119609
0.0144816
0.017544
0.0211958
0.025536
0.0306775
0.0367936
0.0442772
0.0534078
0.06481
0.0793499
0.0959447
0.12359
0.141439
0.187651
0.097074
0.00520904
0.00647474
0.00798723
0.00979396
0.0119707
0.0146604
0.0179864
0.0220945
0.0270435
0.0330396
0.0403023
0.0491483
0.0603257
0.074349
0.0918657
0.116006
0.138579
0.176022
0.207301
0.11846
0.00514026
0.00634633
0.00780134
0.009596
0.0118076
0.0146062
0.0181881
0.0226799
0.0283181
0.0352208
0.0437926
0.0545458
0.0679991
0.0858891
0.1089
0.138644
0.184167
0.215398
0.294054
0.130291
0.00506468
0.00617069
0.00755631
0.00927479
0.0114779
0.0143206
0.018065
0.022958
0.0291602
0.037127
0.0471131
0.0599473
0.0768225
0.0988546
0.12968
0.17311
0.226491
0.297629
0.381903
0.194519
0.00496355
0.00597417
0.00723708
0.00888586
0.0109967
0.0138421
0.0176533
0.0227901
0.0295865
0.038366
0.0499796
0.0651662
0.0853052
0.114334
0.153575
0.211088
0.31818
0.38733
0.703614
0.282511
1.423
5.19284
7.86007
11.4565
15.9996
21.6229
28.3484
36.143
44.3633
46.2825
41.6931
36.701
32.4199
28.9331
26.0382
23.5211
21.2871
19.3388
17.6785
16.2817
15.0882
13.9992
12.9955
12.1048
11.3408
10.7016
10.1374
9.55459
8.99779
8.50008
8.09471
7.78362
7.55043
7.3796
7.26528
7.20977
7.18994
7.14916
7.07818
6.98769
6.86722
6.70667
6.53445
6.36444
6.19327
6.00573
5.79227
5.57651
5.3872
5.23458
5.12125
5.05479
5.03152
5.07682
5.17216
5.37261
5.69549
6.08653
6.43929
6.57039
4.41364
11.6933
17.3873
25.2172
35.3782
48.2363
63.936
81.6547
98.5639
94.55
79.8871
68.2802
59.5871
52.8573
47.4507
42.9133
38.9812
35.5611
32.619
30.0886
27.8748
25.8692
23.9976
22.3162
20.9241
19.7663
18.6674
17.5476
16.4307
15.5062
14.8393
14.3594
13.996
13.7116
13.5024
13.3665
13.2037
12.9609
12.6662
12.3529
12.035
11.7081
11.3826
11.0633
10.7392
10.3911
10.0101
9.61993
9.24166
8.95255
8.76142
8.68337
8.63219
8.70987
8.85171
9.15213
9.58598
10.0615
10.4997
10.492
6.01088
15.2294
22.5132
32.3422
45.4734
62.7084
84.9834
111.456
136.419
110.68
90.6619
78.2487
69.0698
61.73
55.6471
50.5061
46.1076
42.3175
39.0468
36.2151
33.73
31.498
29.4528
27.6151
26.0253
24.6339
23.3268
22.0457
20.809
19.7411
18.904
18.2627
17.7647
17.3716
17.0583
16.7785
16.4901
16.1865
15.8715
15.5442
15.2082
14.8674
14.5314
14.2023
13.8659
13.5024
13.1058
12.7002
12.3149
12.0127
11.7951
11.6767
11.6117
11.6693
11.8266
12.1436
12.5965
13.0804
13.4574
13.5531
7.1075
17.9631
26.5029
37.9461
53.7358
75.1716
104.597
145.055
153.386
113.372
92.979
80.6979
71.8103
64.6502
58.6058
53.4486
49.0406
45.2546
41.9854
39.1436
36.6446
34.4129
32.3964
30.579
28.968
27.519
26.1604
24.849
23.6118
22.5315
21.6532
20.9583
20.4049
19.9625
19.5959
19.2648
18.9486
18.6423
18.3438
18.0468
17.7429
17.4324
17.1257
16.826
16.5188
16.1832
15.8129
15.4302
15.067
14.7762
14.5624
14.4328
14.368
14.413
14.5743
14.8898
15.3325
15.8135
16.1806
16.2647
8.13093
20.5425
30.2449
43.2445
61.8338
87.8671
124.283
177.255
143.381
109.624
90.6837
78.9287
70.5567
63.8934
58.2697
53.4628
49.3539
45.8253
42.7735
40.1118
37.7628
35.6646
33.7775
32.0767
30.5444
29.1414
27.8264
26.5884
25.4525
24.4602
23.6313
22.9595
22.4255
22.0083
21.6727
21.378
21.1038
20.8508
20.6158
20.3857
20.1457
19.8932
19.6401
19.3933
19.1387
18.8538
18.5297
18.1855
17.8526
17.5829
17.3831
17.2569
17.1946
17.2305
17.3859
17.6997
18.1397
18.6316
19.0578
19.2626
9.22319
23.2419
34.1234
48.6839
70.2972
102.114
146.666
180.725
131.741
103.05
85.789
74.6616
66.8111
60.7263
55.6982
51.4535
47.8489
44.7609
42.0821
39.7303
37.6389
35.7611
34.0701
32.5458
31.1629
29.8925
28.7145
27.6301
26.6568
25.8153
25.114
24.5543
24.1318
23.8296
23.6085
23.4232
23.2544
23.1111
22.9859
22.8586
22.7104
22.5366
22.3533
22.1721
21.9796
21.7535
21.483
21.1856
20.8902
20.6499
20.4712
20.3552
20.2958
20.3233
20.4674
20.7815
21.2369
21.737
22.2089
22.5045
10.4541
26.1472
38.2827
54.514
78.9795
117.44
177.852
161.366
120.604
95.3684
79.5477
69.0476
61.6792
56.1708
51.8078
48.231
45.2309
42.6729
40.442
38.4625
36.6838
35.077
33.6287
32.3267
31.1525
30.0869
29.1209
28.2575
27.5082
26.8834
26.3889
26.0345
25.8234
25.7282
25.6986
25.6861
25.6792
25.7037
25.7336
25.735
25.693
25.6072
25.5004
25.3875
25.2528
25.0776
24.8566
24.6114
24.3688
24.1698
24.021
23.9185
23.8581
23.8714
23.9959
24.3123
24.8198
25.3264
25.7356
26.0855
11.8505
29.2743
42.7114
60.7718
88.0305
129.722
189.806
142.886
109.007
87.0252
72.6098
62.7965
55.9646
51.0882
47.4457
44.5774
42.1758
40.1282
38.3312
36.7239
35.272
33.9638
32.7961
31.7641
30.8571
30.0647
29.3819
28.8086
28.3481
28.007
27.798
27.7463
27.864
28.0678
28.2884
28.4811
28.6665
28.9196
29.1661
29.2966
29.3489
29.3405
29.313
29.2658
29.1711
29.0166
28.8228
28.6299
28.4682
28.3444
28.2458
28.16
28.0884
28.0692
28.1441
28.4056
28.7858
29.2555
29.6491
30.017
13.318
32.5674
47.3046
67.2583
98.0356
145.403
167.22
126.866
98.0706
78.6268
65.4509
56.4109
50.2932
46.22
43.3753
41.1904
39.2757
37.6287
36.1885
34.9136
33.7802
32.7886
31.9414
31.2376
30.6692
30.2275
29.9057
29.6984
29.6002
29.6109
29.7525
30.0874
30.685
31.2943
31.7902
32.1512
32.4979
32.8994
33.0768
33.1096
33.0792
33.0263
33.0143
33.016
32.9574
32.8161
32.636
32.4868
32.4172
32.4077
32.4015
32.3739
32.321
32.2697
32.3068
32.5144
32.849
33.4316
33.9471
34.3138
14.6854
35.9031
51.9436
73.4873
107.676
164.712
146.497
112.567
87.9509
70.5361
58.459
50.3373
45.2118
42.1816
40.2299
38.6054
36.9134
35.5038
34.3326
33.3484
32.5425
31.9117
31.457
31.1732
31.0455
31.0562
31.1889
31.428
31.7611
32.1771
32.6933
33.4557
34.4014
35.1143
35.6199
35.7929
35.9387
35.7726
35.473
35.2254
34.925
34.6938
34.5878
34.5547
34.5085
34.4154
34.3141
34.2667
34.3132
34.4277
34.5532
34.6531
34.735
34.8483
35.0997
35.6127
36.3742
37.3151
38.2133
38.8249
16.0008
39.2927
56.6092
79.2397
115.33
162.322
130.397
101.064
78.9863
62.9776
51.9524
44.9925
41.1509
39.3556
38.3733
36.5918
35.0594
33.8356
32.8811
32.1696
31.7026
31.4524
31.3981
31.5237
31.8156
32.2579
32.8256
33.4799
34.1822
34.8885
35.5429
36.34
36.7911
37.1733
37.3153
37.0903
36.7632
36.4271
36.1496
35.8227
35.4261
35.1066
34.9348
34.8716
34.8441
34.8171
34.8166
34.8914
35.0686
35.32
35.6023
35.891
36.1958
36.5811
37.1638
38.048
39.1607
40.3407
41.3175
42.3076
17.3567
42.85
61.5671
85.1416
120.647
151.572
119.438
91.8465
71.0453
56.0257
46.1894
40.6663
38.2931
37.9011
36.3289
34.8037
33.5237
32.5954
31.9669
31.5574
31.3476
31.3152
31.4415
31.7101
32.1076
32.6259
33.2531
33.9572
34.6873
35.3821
36.0021
36.5878
37.0065
37.2661
37.1726
36.7345
36.2486
35.9319
35.7073
35.395
35.0076
34.6813
34.4931
34.4266
34.4314
34.4801
34.5902
34.7959
35.1124
35.5147
35.9723
36.4698
37.0225
37.6963
38.5808
39.7202
40.978
42.1923
43.0816
43.8587
18.8124
46.6671
67.116
92.4446
128.281
140.177
109.098
83.5217
63.7055
49.708
41.3505
37.4462
36.6874
35.553
34.6573
33.4037
32.4368
31.813
31.4581
31.2883
31.2714
31.3795
31.5828
31.8618
32.2151
32.6523
33.1692
33.7292
34.2772
34.7562
35.1581
35.569
35.9699
36.1673
35.9743
35.4783
34.9961
34.7223
34.5343
34.2666
33.9346
33.6505
33.487
33.4466
33.5014
33.6353
33.8603
34.1975
34.6519
35.2023
35.8261
36.5134
37.28
38.1768
39.251
40.4869
41.7342
42.8504
43.613
44.153
20.2557
50.6756
73.2364
101.262
141.337
129.871
100.695
75.9997
56.8497
44.1094
37.4968
35.3258
34.9134
34.3827
33.3712
32.2474
31.4022
30.9307
30.7457
30.7583
30.911
31.1487
31.4202
31.6971
31.9825
32.2944
32.635
32.9745
33.2721
33.4991
33.6918
33.9501
34.2463
34.351
34.1177
33.6586
33.2455
33.0122
32.8481
32.6288
32.3673
32.1496
32.0392
32.05
32.1715
32.3967
32.7333
33.1912
33.7674
34.4435
35.201
36.0317
36.945
37.9678
39.1076
40.3147
41.4533
42.4061
43.0261
43.3935
21.48
54.6776
79.3827
110.046
148.041
124.482
94.3486
69.2601
50.537
39.31
34.6308
34.1205
33.9756
33.9428
32.483
30.9497
29.8796
29.3353
29.2101
29.3749
29.7135
30.1201
30.5112
30.8425
31.1111
31.3343
31.5199
31.6565
31.731
31.7524
31.7834
31.9067
32.0653
32.0677
31.8198
31.4309
31.0993
30.9037
30.761
30.5893
30.4014
30.2617
30.2222
30.302
30.5009
30.817
31.2532
31.8109
32.4819
33.2487
34.0947
35.0097
35.9933
37.049
38.1576
39.2576
40.2386
41.0139
41.5016
41.7593
22.5973
58.7983
85.391
116.625
147.161
120.602
88.8376
62.9223
44.7699
35.3439
32.7723
33.9213
34.4707
33.3024
31.222
29.1784
27.7111
26.9339
26.7558
27.0098
27.5149
28.1059
28.6581
29.1018
29.4184
29.6167
29.7117
29.7146
29.6423
29.5342
29.4605
29.4746
29.5086
29.4272
29.1823
28.8669
28.61
28.4513
28.335
28.2135
28.1009
28.0452
28.0872
28.2459
28.5254
28.9246
29.4425
30.0741
30.8077
31.6264
32.5136
33.4558
34.4428
35.4617
36.4801
37.439
38.257
38.8784
39.2681
39.4689
24.4774
63.8042
92.6619
124.613
150.268
117.041
83.3525
56.6929
39.5333
32.2275
31.9127
33.9587
35.0411
32.84
29.8305
27.0888
25.1017
23.9881
23.655
23.9036
24.5018
25.2338
25.9347
26.5051
26.905
27.1334
27.2048
27.1499
27.0126
26.8501
26.7267
26.6658
26.6105
26.478
26.2526
26.0072
25.8169
25.6987
25.6191
25.5551
25.5216
25.5542
25.683
25.9236
26.2799
26.75
27.3288
28.0076
28.773
29.6083
30.4963
31.4206
32.3645
33.3065
34.2116
35.0314
35.712
36.2239
36.5602
36.7455
27.862
70.8695
102.495
135.043
150.432
112.801
77.4799
50.4824
34.8805
29.9788
31.7841
34.6872
34.7656
31.8315
28.0716
24.6976
22.2235
20.772
20.2389
20.4023
21.0011
21.7901
22.5772
23.2387
23.7142
23.9917
24.0886
24.0394
23.9031
23.7423
23.6073
23.5078
23.4047
23.2556
23.0712
22.895
22.769
22.7002
22.6716
22.6758
22.7272
22.8508
23.0674
23.3873
23.8123
24.3384
24.9581
25.6608
26.4325
27.2571
28.1174
28.9956
29.8724
30.7242
31.5203
32.2258
32.8094
33.2601
33.5829
33.7809
32.8261
81.5183
117.173
151.23
150.987
109.321
71.5439
44.4442
30.9196
28.5527
32.5364
35.9592
34.23
30.3402
25.9142
22.0309
19.1884
17.4781
16.764
16.8028
17.3241
18.0781
18.8655
19.5513
20.0627
20.3772
20.5097
20.5011
20.4052
20.2789
20.1604
20.0562
19.949
19.8265
19.6992
19.5953
19.5383
19.5321
19.5707
19.6547
19.796
20.0109
20.3119
20.7042
21.1867
21.7538
22.397
23.1051
23.8648
24.6612
25.478
26.2979
27.1021
27.8695
28.5766
29.2012
29.7282
30.1571
30.4935
30.7185
38.9558
95.6406
139.33
180.193
157.273
106.951
65.7049
38.7755
27.7299
27.8276
33.5556
36.5546
33.509
28.6892
23.5987
19.2553
16.1381
14.2589
13.4114
13.3171
13.7074
14.3481
15.0522
15.6886
16.1822
16.5054
16.6678
16.7048
16.6632
16.5876
16.5069
16.4305
16.3563
16.2848
16.2279
16.2037
16.2252
16.296
16.4159
16.588
16.8204
17.1224
17.4996
17.9532
18.4801
19.0739
19.726
20.4261
21.1623
21.9213
22.689
23.4499
24.1877
24.8858
25.5282
26.1027
26.6041
27.0357
27.3982
27.6531
45.6402
111.547
166.799
213.93
163.475
103.948
59.5258
33.5462
25.3001
27.7008
34.2023
36.5008
32.6762
27.0459
21.323
16.55
13.2227
11.2451
10.3114
10.0879
10.3138
10.7847
11.3408
11.8657
12.2909
12.5879
12.7608
12.8354
12.8463
12.8264
12.7979
12.7724
12.7558
12.7552
12.7811
12.8448
12.9541
13.112
13.32
13.5808
13.8984
14.2764
14.7164
15.2166
15.773
16.3795
17.0283
17.7107
18.4165
19.135
19.8539
20.5608
21.2428
21.8879
22.4863
23.0325
23.5264
23.9713
24.3605
24.6406
53.1049
129.568
196.61
241.496
165.859
98.8187
52.6985
28.8357
23.5729
28.0653
34.884
36.0559
31.6281
25.3602
19.1235
14.0051
10.5509
8.53639
7.55997
7.21634
7.26062
7.52784
7.89655
8.27067
8.59114
8.83255
8.99426
9.09133
9.14624
9.18119
9.21304
9.25324
9.31037
9.39245
9.50741
9.66202
9.86056
10.1049
10.3959
10.7345
11.1215
11.5573
12.0408
12.5695
13.139
13.7442
14.3788
15.0356
15.7068
16.3835
17.0563
17.7153
18.3512
18.9558
19.5239
20.0539
20.5474
21.0057
21.4155
21.7126
59.9399
151.231
224.257
274.012
167.006
92.091
45.5364
24.7956
22.4488
28.7768
35.8721
35.4801
30.2721
23.5091
16.9384
11.6252
8.17924
6.22837
5.2226
4.77024
4.64467
4.71181
4.88112
5.08609
5.28481
5.45359
5.58862
5.69455
5.78304
5.86839
5.9617
6.0714
6.20463
6.36736
6.56432
6.7989
7.07292
7.38687
7.74049
8.13325
8.5644
9.03273
9.53632
10.0724
10.6374
11.2272
11.8368
12.4609
13.0934
13.7274
14.3559
14.9715
15.5676
16.1393
16.6841
17.2021
17.6953
18.162
18.5835
18.8889
65.2247
172.73
240.361
302.708
164.581
83.9261
38.4635
21.5279
21.8169
29.7065
36.8613
34.6487
28.5347
21.399
14.6882
9.49468
6.17698
4.3013
3.30429
2.79051
2.54704
2.46221
2.46992
2.52775
2.61135
2.70309
2.79964
2.89915
3.00676
3.12909
3.27161
3.43563
3.62566
3.84474
4.09508
4.37815
4.69447
5.04379
5.42532
5.83803
6.28066
6.75161
7.24888
7.76997
8.31202
8.87176
9.44553
10.0292
10.6183
11.2077
11.792
12.3661
12.9256
13.4677
13.9915
14.4977
14.9873
15.4561
15.8808
16.1872
68.4857
194.238
240.519
310.026
157.068
74.4488
31.8828
19.0435
21.563
30.7577
37.6622
33.4687
26.4127
19.0056
12.4778
7.60302
4.49242
2.7567
1.83846
1.34488
1.07305
0.925574
0.851844
0.824452
0.83189
0.863896
0.920057
0.996481
1.09469
1.2161
1.36146
1.53282
1.73086
1.95535
2.2065
2.48626
2.79486
3.13215
3.49735
3.88945
4.30715
4.74876
5.21229
5.69547
6.19583
6.71068
7.23715
7.77208
8.31202
8.85321
9.39181
9.92431
10.448
10.9614
11.4641
11.957
12.4393
12.9041
13.325
13.6262
68.1191
194.082
240.692
284.011
143.717
64.1268
26.1549
17.2662
21.5741
31.845
38.1673
31.9032
23.9557
16.4645
10.3882
5.91787
3.11457
1.60713
0.856559
0.479623
0.28439
0.183445
0.133297
0.111071
0.106484
0.113778
0.132929
0.164313
0.210367
0.274397
0.359075
0.467186
0.599868
0.759914
0.948465
1.16635
1.41204
1.68651
1.98928
2.3194
2.67557
3.05594
3.4584
3.88062
4.3202
4.77468
5.24153
5.7182
6.20202
6.69018
7.17998
7.66917
8.1562
8.64027
9.12114
9.59848
10.0697
10.5251
10.9357
11.2266
66.2075
180.854
235.101
249.349
126.784
53.5254
21.4504
16.0544
21.7484
32.8967
38.1887
29.951
21.3156
14.0227
8.41926
4.44536
2.04402
0.843258
0.322859
0.115439
0.0405436
0.0174246
0.0112461
0.00956904
0.00930972
0.00970324
0.0113506
0.01484
0.0212899
0.0328871
0.052482
0.08369
0.130519
0.197327
0.287532
0.403976
0.548571
0.72287
0.927245
1.16079
1.4231
1.71275
2.02787
2.36616
2.7252
3.1026
3.496
3.90322
4.32211
4.7506
5.18675
5.62917
6.07704
6.5297
6.98622
7.44474
7.90023
8.33988
8.73302
9.00783
61.5953
169.232
232.547
220.367
108.265
43.1918
17.7709
15.2619
21.9983
33.8072
37.5776
27.7352
18.7985
11.7169
6.61598
3.2015
1.26465
0.399461
0.101231
0.0234879
0.00903328
0.00733585
0.00711327
0.00701337
0.00685205
0.00640541
0.00628835
0.00625436
0.00634655
0.00699885
0.00860728
0.0119963
0.0187594
0.0313803
0.0532615
0.0884167
0.14084
0.214237
0.311607
0.435144
0.586227
0.765367
0.972591
1.20688
1.46605
1.74862
2.05276
2.37679
2.71913
3.07845
3.45323
3.84245
4.24561
4.66161
5.08824
5.5216
5.95384
6.36892
6.7349
6.9856
54.3363
146.646
237.734
180.754
87.162
33.6961
15.0536
14.7729
22.2882
34.4898
36.2885
25.5714
16.4666
9.62984
5.03211
2.1972
0.734144
0.173428
0.0312192
0.00897172
0.00698615
0.00666563
0.00664563
0.00660769
0.00632296
0.00605317
0.00602719
0.00584885
0.00566969
0.00550131
0.00546635
0.00555635
0.0059127
0.00679982
0.00880789
0.0130861
0.0214956
0.0367379
0.0621418
0.101262
0.157507
0.23385
0.332697
0.455734
0.604033
0.778087
0.977955
1.20352
1.45456
1.73123
2.03271
2.35733
2.70497
3.07365
3.45946
3.85621
4.25308
4.63056
4.95478
5.16709
41.3981
112.324
184.599
132.544
65.622
25.8883
13.172
14.497
22.5911
34.8294
34.5439
23.5402
14.424
7.83387
3.7099
1.42935
0.396416
0.0712652
0.0126026
0.00691427
0.00647061
0.00638056
0.00640817
0.00608623
0.00578884
0.00570254
0.00558302
0.00541015
0.00539446
0.00529092
0.00521087
0.00512411
0.00505157
0.00504117
0.00510587
0.00529922
0.00572721
0.00671359
0.00895713
0.0136673
0.0226827
0.0384661
0.0639333
0.102232
0.156576
0.230095
0.325799
0.446581
0.595108
0.773766
0.984151
1.22695
1.50159
1.80529
2.13255
2.47493
2.81878
3.14095
3.40199
3.54569
28.4449
79.1766
124.782
99.8971
49.1775
20.2068
11.9178
14.3673
22.8624
34.6221
32.6198
21.7957
12.7498
6.37305
2.66689
0.878123
0.197168
0.0294674
0.00789863
0.00645016
0.00621475
0.00626129
0.00593641
0.00567435
0.00550187
0.00548743
0.00522788
0.00508042
0.00500386
0.0049399
0.00491322
0.00491202
0.00489178
0.00484198
0.00478935
0.00475894
0.00475914
0.00478988
0.00486587
0.00502429
0.00537422
0.00620357
0.0081223
0.0122094
0.0201705
0.0344677
0.058384
0.0960793
0.152587
0.233598
0.344842
0.490847
0.673539
0.891278
1.13828
1.40449
1.67353
1.91798
2.09098
2.09869
22.9327
62.7174
96.6143
79.4702
37.7946
16.2903
11.0954
14.3541
23.094
33.8615
30.6148
20.3389
11.4244
5.23347
1.88667
0.509143
0.0909523
0.0139555
0.00682032
0.00626687
0.00614442
0.00600842
0.00561971
0.00548391
0.0053386
0.00520909
0.00503897
0.00498168
0.0048606
0.00478446
0.00467264
0.00461091
0.00458935
0.00459091
0.00460776
0.00460699
0.00458577
0.00455635
0.00453738
0.00453455
0.00454203
0.00455847
0.00459539
0.00468975
0.00493658
0.00558461
0.00723675
0.0111808
0.0198852
0.0375878
0.0705954
0.126633
0.212739
0.332406
0.483347
0.656767
0.836231
0.993872
1.08216
1.00447
23.2552
60.4709
92.7503
65.6785
29.5879
13.4927
10.5755
14.4532
23.3205
32.8197
28.5795
18.96
10.2935
4.3348
1.32139
0.279197
0.0405949
0.00872782
0.00653343
0.00611599
0.00599373
0.00569611
0.00549367
0.00535981
0.00520277
0.00498599
0.00488735
0.00476933
0.00466551
0.00462737
0.00457607
0.00453339
0.00448422
0.00443645
0.00440736
0.00439682
0.00440003
0.00440474
0.00440118
0.00438707
0.00436794
0.00435141
0.0043407
0.00433363
0.00432999
0.00433637
0.00437478
0.00450347
0.00489455
0.00608315
0.00955229
0.0186361
0.0390993
0.0777849
0.139017
0.220565
0.311471
0.390532
0.42221
0.348089
25.2164
65.1585
93.7098
52.9427
23.1059
11.4051
10.2886
14.6736
23.6039
31.8404
26.6198
17.4288
9.1476
3.56325
0.910223
0.145253
0.0191317
0.00709834
0.00632131
0.00607812
0.00590931
0.00556381
0.00541611
0.00522007
0.00506141
0.00492125
0.00480918
0.00468514
0.00460587
0.00449937
0.00444578
0.00440462
0.00437472
0.00435421
0.0043264
0.00429999
0.00427715
0.00426315
0.00425538
0.00424942
0.00424142
0.00423029
0.00421808
0.00420677
0.00419698
0.0041896
0.00418613
0.00419079
0.00421481
0.00428745
0.00448833
0.00506858
0.00680739
0.0116038
0.0225699
0.0421403
0.0684736
0.0929852
0.099907
0.0701143
28.5511
73.8372
89.5955
42.0884
18.0893
9.90442
10.2048
15.0314
24.0678
31.0328
24.5877
15.6009
7.84642
2.82716
0.602001
0.0720084
0.0107277
0.00657236
0.00616702
0.00603564
0.00576971
0.00549172
0.00532972
0.00513198
0.00499314
0.0048447
0.00471258
0.0046254
0.00455258
0.00445839
0.00439917
0.00433201
0.00428444
0.00425559
0.00423656
0.00422155
0.00420383
0.00418454
0.00416652
0.00415173
0.00413959
0.00412834
0.00411648
0.00410426
0.00409334
0.00408707
0.00408721
0.00409161
0.0040999
0.00411824
0.00415944
0.0042433
0.00440617
0.00473347
0.00544978
0.00696449
0.00952507
0.0122723
0.0128908
0.00875457
52.0287
111.278
80.2667
32.8708
13.9194
8.82677
10.3069
15.5468
24.7791
30.1598
22.1571
13.4709
6.40453
2.1061
0.368717
0.0344426
0.00761567
0.00626051
0.00602397
0.00587177
0.00557434
0.00541376
0.00524823
0.00509386
0.0049347
0.00479613
0.00468404
0.00458303
0.00447966
0.00442061
0.00435814
0.00430522
0.00425626
0.00421044
0.00417544
0.00414943
0.00413234
0.00411862
0.00410406
0.00408712
0.00406966
0.00405408
0.00404109
0.00402919
0.004017
0.00400502
0.00399689
0.00399689
0.00400812
0.00403075
0.00406186
0.00410287
0.00416647
0.00426739
0.00441432
0.00461437
0.00486143
0.00507684
0.00527314
0.00477793
66.7079
144.075
61.4474
23.4409
10.2889
8.12847
10.6004
16.2507
25.6677
28.741
19.329
11.2404
4.99395
1.45833
0.203067
0.0167609
0.006477
0.00599743
0.00587611
0.00568307
0.00547589
0.00535573
0.00517246
0.0050215
0.00487033
0.00476665
0.00466069
0.00455649
0.00446263
0.00438616
0.0043152
0.00426474
0.00422612
0.00419219
0.00415868
0.00412409
0.0040933
0.00406857
0.00404959
0.00403392
0.00401862
0.00400194
0.00398491
0.00396945
0.00395643
0.00394604
0.00393839
0.00393375
0.00393332
0.00394113
0.00396323
0.00400203
0.00405363
0.00411595
0.00419725
0.00430729
0.00444383
0.00454602
0.00472753
0.0045012
49.5492
65.4945
26.6195
11.5652
7.21509
7.85567
11.1121
17.1816
26.6303
26.2463
16.6902
9.28314
3.83507
0.959233
0.100961
0.00940628
0.00600561
0.00578949
0.00567449
0.00547058
0.00534345
0.00520274
0.00505847
0.00493443
0.00481596
0.00470362
0.00460585
0.00452025
0.00444902
0.00438063
0.00432068
0.00425883
0.00420488
0.00416164
0.00412782
0.00410193
0.00407759
0.00405276
0.00402768
0.00400441
0.00398346
0.00396452
0.00394718
0.00393081
0.00391487
0.00390032
0.00388955
0.00388344
0.00388118
0.0038828
0.00389117
0.00391001
0.00394231
0.0039895
0.00404896
0.0041217
0.00421824
0.0042944
0.00446309
0.00434118
34.1053
19.3616
9.60117
6.05071
6.11485
8.16753
11.8931
18.2603
26.4787
22.9901
14.8433
7.91577
3.02709
0.621955
0.047604
0.00674773
0.00572993
0.0056115
0.00545351
0.00530166
0.00519925
0.0050639
0.00495385
0.00484057
0.00474329
0.00465168
0.00457336
0.00449025
0.00441659
0.00435398
0.00429861
0.00425271
0.00420966
0.00416836
0.00412951
0.00409447
0.00406436
0.00403863
0.00401572
0.00399332
0.0039702
0.00394744
0.00392663
0.00390769
0.00388949
0.00387188
0.00385632
0.00384428
0.00383683
0.00383517
0.00383981
0.00384975
0.00386492
0.00388871
0.00392442
0.00397323
0.00404574
0.00409892
0.00425707
0.00422088
9.96356
6.17423
4.60332
4.81229
6.31229
8.96979
13.067
19.2748
24.7353
20.5915
13.5823
6.95511
2.43409
0.388155
0.0221685
0.0057715
0.00546623
0.00537916
0.00521588
0.00511485
0.00500963
0.00491466
0.00482459
0.00473499
0.00465826
0.00459227
0.00452084
0.00445738
0.00440042
0.00434169
0.00428955
0.00424365
0.00420345
0.00416804
0.00413609
0.00410403
0.00407239
0.00404197
0.00401429
0.00398902
0.00396519
0.00394203
0.00391929
0.00389695
0.00387546
0.00385587
0.0038389
0.00382438
0.00381195
0.00380242
0.0037977
0.00379931
0.00380737
0.00382096
0.00383947
0.00386521
0.00391594
0.00395477
0.00410112
0.0041236
0.00485742
0.00575462
0.00689602
0.00840348
0.0104224
0.0131452
0.0169916
0.0222227
0.0293646
0.0390715
0.0517702
0.0695401
0.0940517
0.126665
0.186152
0.249041
0.41937
0.551197
1.16016
0.671983
0.00477355
0.00552953
0.00656024
0.00789275
0.00975836
0.012349
0.0159954
0.0212503
0.028568
0.0384744
0.0532776
0.0708999
0.10305
0.137121
0.214139
0.296276
0.531907
0.621942
1.52754
1.2674
0.00464665
0.00534172
0.006191
0.0073825
0.00907774
0.0113842
0.0150009
0.0196178
0.0276089
0.0365092
0.053336
0.0712712
0.106726
0.146479
0.235231
0.313084
0.62338
0.689062
1.16637
1.69613
0.00458072
0.00512195
0.0059141
0.00681119
0.00855042
0.0102991
0.0140534
0.0179076
0.0258675
0.034548
0.0508266
0.0696221
0.106896
0.143012
0.248855
0.312567
0.54837
0.759034
0.936014
1.53271
0.00465873
0.00490603
0.00578838
0.00633781
0.00811443
0.00950586
0.0129784
0.0163952
0.0235997
0.0313483
0.0477567
0.0630977
0.103894
0.133446
0.222585
0.306064
0.426336
0.724743
0.855493
1.20162
0.0045932
0.00473707
0.0054958
0.0059315
0.00747472
0.00870834
0.0118554
0.0145142
0.0217607
0.0274687
0.0437782
0.0559846
0.088169
0.121806
0.172631
0.279674
0.351257
0.586595
0.741516
0.944199
0.00432798
0.00452868
0.00501346
0.00543725
0.00682974
0.00781139
0.0107844
0.0127783
0.0190209
0.0239358
0.0350222
0.0486713
0.0666396
0.105847
0.134583
0.227026
0.289399
0.433707
0.574878
0.725198
0.00420982
0.00439816
0.00472486
0.00511378
0.00624235
0.00704871
0.00882284
0.0109202
0.0144691
0.0204419
0.026248
0.0414049
0.0518095
0.0854585
0.106657
0.167038
0.22152
0.306563
0.407418
0.519458
0.00418898
0.00426428
0.00441448
0.00479133
0.00538602
0.00628142
0.00692742
0.00924651
0.0110379
0.0172114
0.0208477
0.0335927
0.0413689
0.0638488
0.0811059
0.115533
0.154696
0.20571
0.268614
0.341723
0.00420403
0.00426897
0.0043513
0.00470748
0.00487851
0.00576524
0.00611444
0.00801017
0.00900795
0.0131714
0.01585
0.0236625
0.0299969
0.0432567
0.0574145
0.0789488
0.106783
0.142243
0.18783
0.249383
0.00437164
0.0045539
0.00548668
0.00638858
0.00854128
0.0113667
0.016128
0.0213688
0.0287195
0.0366793
0.0467567
0.0588737
0.0741428
0.0944565
0.121329
0.157851
0.2085
0.285416
0.39778
0.545566
0.0110907
0.0254023
0.0487562
0.0728761
0.104122
0.127788
0.156591
0.178031
0.20462
0.228042
0.258236
0.293101
0.339585
0.399961
0.480024
0.585516
0.720754
0.883909
1.07655
1.26923
0.280649
0.41173
0.476572
0.496091
0.509222
0.510359
0.519164
0.528915
0.54956
0.578897
0.622213
0.681751
0.762365
0.870324
1.01247
1.19455
1.41885
1.68033
1.94734
2.13571
2.00708
1.46748
1.16829
0.988257
0.878716
0.818739
0.791211
0.791159
0.813586
0.860297
0.932963
1.03549
1.17471
1.35808
1.59394
1.88471
2.22182
2.55283
2.7223
2.93896
1.48596
0.940937
0.837778
0.791686
0.756177
0.738663
0.738978
0.756359
0.791567
0.844708
0.918032
1.01566
1.1444
1.30934
1.5153
1.7578
1.98912
2.10318
1.9971
2.01896
0.709497
0.505449
0.466436
0.448661
0.450056
0.458012
0.472024
0.490391
0.512598
0.538634
0.569308
0.605922
0.649951
0.702799
0.766172
0.840328
0.915508
0.95524
0.896427
0.884296
0.39484
0.28259
0.243315
0.241779
0.255703
0.273353
0.291693
0.30902
0.324492
0.337764
0.348553
0.356728
0.361816
0.362965
0.359075
0.34899
0.330781
0.301751
0.263766
0.244036
0.231235
0.151343
0.121866
0.121568
0.131281
0.143866
0.15619
0.166664
0.17449
0.179105
0.180157
0.17744
0.170796
0.160139
0.145527
0.12727
0.106066
0.0831553
0.0608868
0.0443725
0.158226
0.0802125
0.0564201
0.0561387
0.0612052
0.0682126
0.0748841
0.0800588
0.0831436
0.0836967
0.0815559
0.0767557
0.0695251
0.0603074
0.0497869
0.038885
0.0286631
0.0200975
0.0138421
0.0100001
0.0888466
0.0367439
0.0226261
0.0228961
0.0248347
0.0277042
0.0301847
0.0318662
0.0324295
0.0317068
0.0297451
0.0267324
0.0229925
0.0189444
0.0150387
0.0116711
0.00909134
0.00735129
0.00634068
0.00583601
0.0516374
0.0156964
0.00935223
0.00937489
0.00985835
0.0107026
0.0113574
0.0117229
0.0116936
0.0112368
0.0104351
0.00941389
0.00833185
0.00733671
0.00652972
0.00594536
0.00555417
0.00529107
0.00509233
0.0049554
0.0256463
0.00743716
0.00523576
0.00516091
0.00525346
0.00542158
0.0055455
0.00560053
0.00558107
0.00548302
0.00534332
0.00519472
0.00506747
0.00497768
0.00492548
0.0049005
0.00488898
0.00488494
0.00489675
0.00490741
0.0155778
0.0051957
0.00428834
0.00423818
0.00424837
0.00428103
0.00431454
0.00434351
0.00437513
0.00440555
0.00444121
0.00448281
0.00452853
0.0045736
0.00461068
0.00463165
0.00462985
0.00460393
0.00455057
0.00447521
0.0102106
0.0045153
0.00413718
0.00412106
0.00411595
0.00412311
0.00413527
0.0041515
0.00417488
0.00420301
0.0042351
0.00426873
0.00430094
0.00432869
0.00434929
0.00436185
0.00436709
0.00436657