/*--------------------------------*- C++ -*----------------------------------*\
| =========                 |                                                 |
| \\      /  F ield         | OpenFOAM: The Open Source CFD Toolbox           |
|  \\    /   O peration     | Version:  v1606+                                |
|   \\  /    A nd           | Web:      www.OpenFOAM.com                      |
|    \\/     M anipulation  |                                                 |
\*---------------------------------------------------------------------------*/
FoamFile
{
    version     2.0;
    format      ascii;
    class       volVectorField;
    location    "1.2";
    object      U;
}
// * * * * * * * * * * * * * * * * * * * * * * * * * * * * * * * * * * * * * //

dimensions      [0 1 -1 0 0 0 0];

internalField   nonuniform List<vector> 
768
(
(0.050753 0.0151191 5.5829e-21)
(0.049323 -0.00723626 9.48208e-21)
(0.0449822 -0.0244282 -6.60034e-20)
(0.0377506 -0.0364485 7.82346e-20)
(0.028369 -0.0420519 1.18479e-21)
(0.0172291 -0.0417005 8.37884e-20)
(0.0051274 -0.0357357 1.764e-19)
(-0.00661805 -0.0245364 1.53477e-19)
(-0.0162111 -0.00903477 -8.48673e-20)
(-0.0209863 0.00895101 0)
(-0.0187078 0.0259351 0)
(-0.0092661 0.0382932 4.77711e-20)
(0.040014 0.0230874 0)
(0.0388157 -0.00341318 0)
(0.0332997 -0.0203804 5.55548e-20)
(0.023017 -0.0344252 -1.84613e-20)
(0.0104861 -0.0425928 -2.84593e-20)
(-0.00299903 -0.0438117 -7.10807e-21)
(-0.0158928 -0.0383616 -1.42708e-19)
(-0.0264401 -0.0272977 -8.92714e-20)
(-0.03285 -0.0122218 0)
(-0.0334016 0.00430981 0)
(-0.0273089 0.018774 7.48846e-21)
(-0.015779 0.0288903 -3.7115e-20)
(0.0274622 0.0323777 0)
(0.0320745 0.00293502 1.21972e-20)
(0.0270338 -0.0140847 5.21905e-20)
(0.0179835 -0.0258897 -9.22434e-20)
(0.00596628 -0.0344284 -1.22974e-19)
(-0.00716647 -0.0370637 -3.90188e-20)
(-0.0194391 -0.033461 7.32178e-20)
(-0.0287344 -0.0245186 8.90106e-20)
(-0.0333917 -0.012077 -1.12106e-19)
(-0.0326486 0.00130454 0)
(-0.0269012 0.0133079 -6.63386e-21)
(-0.0175481 0.0220352 -1.76289e-20)
(0.0105862 0.0310922 3.35714e-20)
(0.0255757 0.00781547 4.67425e-20)
(0.0206703 -0.0103653 -6.28639e-20)
(0.0146483 -0.0193816 1.16334e-19)
(0.00503475 -0.0265637 -2.30836e-20)
(-0.00590064 -0.0294397 0)
(-0.0165037 -0.0274412 1.65077e-20)
(-0.0247611 -0.0209871 1.96487e-21)
(-0.0292686 -0.0114997 8.33763e-20)
(-0.0295116 -0.000929811 0)
(-0.0258937 0.00899655 4.20322e-20)
(-0.019388 0.0167144 5.14177e-20)
(0.00560434 0.0436116 -1.23758e-21)
(0.0219959 0.0417152 -2.12152e-20)
(0.0362215 0.0341977 0)
(0.0464828 0.023654 0)
(0.0526716 0.0124835 -2.12005e-20)
(0.0562697 0.00229835 -1.91588e-20)
(0.059354 -0.00720915 -1.74763e-20)
(0.063171 -0.0180066 2.28133e-21)
(0.0671201 -0.0314426 3.0006e-21)
(0.0669649 -0.045463 1.29542e-21)
(0.0573571 -0.0540034 -2.26303e-21)
(0.038477 -0.0540919 0)
(-0.0015502 0.0335325 -1.77839e-20)
(0.0122604 0.0328719 -1.32208e-20)
(0.0235958 0.0283901 2.82649e-20)
(0.0317532 0.0213985 8.41253e-21)
(0.0369054 0.0132278 1.73303e-20)
(0.0400536 0.00476224 0)
(0.0423343 -0.00440232 1.26483e-20)
(0.0444104 -0.0153514 1.8189e-21)
(0.0483008 -0.0281173 -8.45364e-22)
(0.0551816 -0.0414258 0)
(0.0571534 -0.0498595 9.46263e-22)
(0.0459829 -0.0475218 0)
(-0.00665194 0.0266868 -1.05278e-20)
(0.00392025 0.0272612 3.55632e-20)
(0.01292 0.0246415 -2.77228e-20)
(0.0197432 0.0197128 -8.70337e-21)
(0.0243972 0.0133499 1.47856e-20)
(0.0273813 0.00615913 -6.08737e-21)
(0.0293103 -0.00207998 0)
(0.0299256 -0.012147 -2.8534e-21)
(0.029564 -0.0234263 -2.38765e-21)
(0.0344226 -0.0343511 -2.26198e-21)
(0.0449965 -0.0421121 1.81723e-20)
(0.047128 -0.0387101 0)
(-0.0113228 0.0214035 1.98527e-20)
(-0.00298125 0.022875 -4.95746e-20)
(0.00465051 0.0214932 0)
(0.0108689 0.017912 4.13694e-20)
(0.0153966 0.0128607 0)
(0.0183026 0.00669266 1.37534e-20)
(0.0197398 -0.000531382 9.20279e-21)
(0.0194358 -0.00905499 -2.64704e-20)
(0.0161645 -0.0179573 8.29842e-22)
(0.0122512 -0.0244311 3.11491e-21)
(0.0178639 -0.0273599 -1.56615e-20)
(0.0322613 -0.0236185 3.05999e-20)
(0.0149085 -0.0508044 0)
(-0.00767895 -0.0493076 3.26627e-20)
(-0.0247951 -0.0450341 0)
(-0.0367044 -0.0376931 7.8057e-20)
(-0.0421485 -0.0282106 4.43347e-20)
(-0.041681 -0.0170052 -4.90709e-20)
(-0.035614 -0.00488681 -9.67607e-20)
(-0.0243447 0.00682331 3.4306e-20)
(-0.00881636 0.0163236 -7.61666e-20)
(0.00914774 0.0209665 1.59689e-19)
(0.0260611 0.0185781 3.89991e-20)
(0.038348 0.00906291 0)
(0.0231236 -0.0400077 -4.51101e-21)
(-0.00363939 -0.0388795 2.29498e-20)
(-0.0206813 -0.0333706 -1.06586e-20)
(-0.0346884 -0.0229371 0)
(-0.0427046 -0.0103362 -6.55129e-20)
(-0.043792 0.0031697 9.20199e-20)
(-0.0382437 0.0160257 2.17078e-19)
(-0.0271186 0.0265049 0)
(-0.0120316 0.0328236 7.21543e-20)
(0.00446537 0.0332857 -7.56157e-21)
(0.0188676 0.0271305 7.47076e-21)
(0.0289399 0.0155819 -7.44726e-21)
(0.0324327 -0.0275617 0)
(0.00283302 -0.0321926 7.66777e-21)
(-0.0143008 -0.0270953 6.37889e-20)
(-0.0260882 -0.0179095 -9.18469e-20)
(-0.0345509 -0.00582918 6.38952e-20)
(-0.037073 0.00732334 4.3528e-20)
(-0.0333855 0.0195506 -1.1845e-19)
(-0.0243889 0.0287778 -1.01409e-19)
(-0.0119397 0.0333633 -2.84332e-20)
(0.00141871 0.0325638 -6.22164e-20)
(0.0133917 0.0267891 0)
(0.0220863 0.0174381 -1.20899e-20)
(0.031191 -0.0106475 3.30249e-20)
(0.0077622 -0.025691 -2.47483e-20)
(-0.0105133 -0.0207256 -1.43401e-19)
(-0.0195252 -0.0146012 1.1587e-19)
(-0.0266662 -0.00492321 9.09848e-20)
(-0.0294671 0.00603357 1.02807e-19)
(-0.027404 0.0166135 3.96622e-20)
(-0.0209062 0.0248243 1.00903e-19)
(-0.0114057 0.0292863 0)
(-0.000842475 0.0294912 -1.27832e-20)
(0.00906901 0.0258514 1.26742e-20)
(0.0167685 0.0193426 2.26846e-20)
(0.0436018 -0.00582537 2.78377e-20)
(0.0416845 -0.0221875 2.11131e-20)
(0.0341631 -0.0363636 -2.9722e-20)
(0.0236428 -0.046553 -1.92058e-20)
(0.0124911 -0.0526737 1.81283e-20)
(0.00230591 -0.05621 -1.13632e-20)
(-0.00722611 -0.059254 0)
(-0.0180543 -0.0630621 -3.17358e-21)
(-0.0315051 -0.0670252 0)
(-0.0455154 -0.0669009 3.48889e-21)
(-0.0540306 -0.0573617 -2.69357e-21)
(-0.054099 -0.0385799 -1.11931e-20)
(0.0335401 0.0013754 5.34102e-21)
(0.0328844 -0.0123872 -2.38116e-20)
(0.0284022 -0.0236699 2.81278e-20)
(0.0214257 -0.0317854 3.23332e-20)
(0.0132569 -0.0369047 2.85904e-21)
(0.00477059 -0.0400292 2.16089e-20)
(-0.00443529 -0.0422891 1.48452e-20)
(-0.0154261 -0.0443578 4.97199e-21)
(-0.0282131 -0.0482742 3.16182e-21)
(-0.0415204 -0.0551893 -2.22221e-21)
(-0.0499249 -0.0571811 0)
(-0.0475533 -0.0460586 0)
(0.02672 0.00656191 -2.09887e-20)
(0.0272873 -0.00397958 2.59294e-20)
(0.0246761 -0.0129556 -3.54209e-20)
(0.0197496 -0.0197686 1.1982e-21)
(0.013377 -0.0244182 -2.97926e-20)
(0.00615314 -0.0273998 -1.28859e-20)
(-0.00213431 -0.0293122 -1.91409e-20)
(-0.0122492 -0.029897 -2.41701e-20)
(-0.023551 -0.0295358 -7.01521e-22)
(-0.0344768 -0.0344569 9.42652e-21)
(-0.0422062 -0.0450647 0)
(-0.0387409 -0.0471929 0)
(0.021447 0.0112822 3.9579e-20)
(0.0229126 0.0029476 -7.43697e-21)
(0.021533 -0.00468403 7.45844e-21)
(0.0179448 -0.0109102 -4.90249e-20)
(0.0128736 -0.0154466 3.79668e-20)
(0.00666803 -0.0183569 6.68883e-21)
(-0.000600182 -0.0197765 -3.04387e-21)
(-0.0091593 -0.01943 -1.24495e-20)
(-0.0180734 -0.0161219 1.59905e-20)
(-0.0245445 -0.0122351 -9.23429e-21)
(-0.0274412 -0.0179355 2.18694e-20)
(-0.0236198 -0.03234 0)
(-0.00125265 0.0160631 -3.31339e-20)
(0.0174992 0.0057211 -4.57569e-20)
(0.0148524 -0.00810103 7.17337e-20)
(0.0108687 -0.0154995 0)
(0.00351593 -0.0211819 1.45633e-19)
(-0.00520971 -0.0237349 1.02555e-19)
(-0.014086 -0.0226119 -1.01783e-19)
(-0.0214481 -0.0179318 -6.37722e-20)
(-0.0260772 -0.0106374 0)
(-0.0273712 -0.00209185 -1.15127e-20)
(-0.0253893 0.00622584 -3.51545e-20)
(-0.0207528 0.0130066 -2.13035e-20)
(0.00141215 0.00815109 -5.238e-20)
(0.0123137 0.00222026 1.62179e-20)
(0.0107088 -0.00680023 -8.60381e-20)
(0.00743878 -0.0128701 0)
(0.0016911 -0.0173327 0)
(-0.00535704 -0.0194175 -1.64402e-19)
(-0.0127328 -0.0186461 -1.08148e-19)
(-0.019119 -0.0150536 1.02639e-19)
(-0.023457 -0.00929106 -2.05466e-20)
(-0.0251124 -0.00234756 -9.31653e-20)
(-0.0239603 0.00454077 1.0387e-20)
(-0.0203967 0.0103267 -9.25049e-21)
(0.00176984 0.0037777 5.10806e-20)
(0.008377 0.000235832 0)
(0.00750587 -0.00613169 0)
(0.00477879 -0.0108958 0)
(0.000142443 -0.0144137 0)
(-0.00561527 -0.0160416 -1.51785e-19)
(-0.0116951 -0.0153935 3.21603e-19)
(-0.0170419 -0.0125108 -8.97862e-20)
(-0.0207807 -0.0078724 0)
(-0.0223428 -0.00224858 8.03039e-20)
(-0.0215701 0.00341284 3.22612e-20)
(-0.0187194 0.00825799 1.35387e-20)
(0.00198944 0.00110738 -6.33876e-20)
(0.00581823 -0.00110201 -8.58541e-20)
(0.00506624 -0.00561529 9.53192e-20)
(0.00277925 -0.00932919 -8.89244e-20)
(-0.00106344 -0.0121251 0)
(-0.0058293 -0.0133886 -2.79939e-20)
(-0.0108501 -0.0128273 -1.15981e-19)
(-0.015269 -0.0104625 1.04221e-19)
(-0.0183779 -0.00668215 -1.7578e-20)
(-0.0197113 -0.00209439 8.91226e-21)
(-0.0191165 0.0025586 -4.46777e-20)
(-0.0167765 0.00658803 0)
(0.00191656 -0.000299744 -4.60651e-21)
(0.00401175 -0.00183745 6.61261e-20)
(0.00324994 -0.00514828 -9.59829e-20)
(0.00127779 -0.00802843 1.9453e-19)
(-0.00199096 -0.0102587 -9.84372e-20)
(-0.00600289 -0.0112577 1.78841e-21)
(-0.0102077 -0.0107803 1.55923e-20)
(-0.0138928 -0.00883584 -1.59227e-19)
(-0.0164806 -0.00573951 1.64719e-20)
(-0.0175955 -0.00197 0)
(-0.0171025 0.00187494 -3.98727e-21)
(-0.0151387 0.00522707 1.92427e-20)
(0.00173079 -0.00101352 6.40488e-20)
(0.00274757 -0.0022103 0)
(0.00189363 -0.00466006 0)
(0.000146808 -0.00691255 -1.07938e-19)
(-0.00270109 -0.00870297 2.14048e-19)
(-0.00613347 -0.00950547 1.34085e-19)
(-0.0097069 -0.00910503 -1.27739e-20)
(-0.0128281 -0.00751555 1.24489e-19)
(-0.0150136 -0.00497632 -1.55453e-20)
(-0.0159526 -0.00187467 7.85101e-21)
(-0.0155345 0.00131096 -1.15964e-20)
(-0.0138602 0.00410662 3.40187e-21)
(0.00148664 -0.00131417 1.36411e-19)
(0.001844 -0.00230489 1.60954e-19)
(0.00089116 -0.00414448 -3.84527e-20)
(-0.000715025 -0.00593662 -6.44497e-20)
(-0.00324121 -0.00738468 -1.85983e-19)
(-0.0062271 -0.00803497 -2.64649e-20)
(-0.00930502 -0.00771335 2.64545e-20)
(-0.0119819 -0.006426 0)
(-0.013853 -0.00434434 0)
(-0.0146535 -0.00179749 -5.21763e-20)
(-0.0142943 0.00083871 -7.42709e-21)
(-0.0128491 0.00317116 -1.41177e-20)
(0.00121497 -0.0013681 -1.3261e-19)
(0.0011538 -0.0022027 3.31348e-21)
(0.000145259 -0.00362292 1.5229e-19)
(-0.00137155 -0.00505799 2.47907e-19)
(-0.00365273 -0.00624002 9.05114e-20)
(-0.00629105 -0.00678126 -2.54893e-20)
(-0.00898203 -0.00654036 3.90103e-20)
(-0.0113078 -0.00550872 -1.35393e-20)
(-0.0129296 -0.00381622 -1.13535e-19)
(-0.0136226 -0.00173624 1.22095e-19)
(-0.013311 0.000436411 -1.05132e-20)
(-0.0120497 0.00237892 1.67047e-20)
(0.000953428 -0.00129509 1.18313e-19)
(0.000619867 -0.00200057 -1.21087e-19)
(-0.000433502 -0.00311185 -1.48317e-19)
(-0.00189061 -0.00426802 6.87805e-22)
(-0.00398657 -0.00523736 0)
(-0.00635645 -0.00570355 -9.50096e-20)
(-0.0087471 -0.00554134 -1.30302e-20)
(-0.0108027 -0.00472963 -4.93323e-22)
(-0.0122344 -0.00337585 2.3326e-19)
(-0.0128486 -0.00168879 -5.54739e-20)
(-0.0125791 8.80053e-05 0)
(-0.0114707 0.00169976 -1.29435e-20)
(0.000670938 -0.00116223 -2.65512e-19)
(0.00012289 -0.00179403 0)
(-0.000982232 -0.00268707 -1.90677e-20)
(-0.00242024 -0.00361669 -2.97331e-19)
(-0.00438851 -0.00441457 -1.93699e-19)
(-0.00656535 -0.00482305 -1.22246e-21)
(-0.00873395 -0.00472869 3.64421e-20)
(-0.0105889 -0.0041051 -1.15316e-19)
(-0.0118785 -0.0030354 -1.06347e-19)
(-0.0124367 -0.00167463 -4.62607e-20)
(-0.0122029 -0.000225283 -6.5546e-21)
(-0.0112128 0.00110845 0)
(0.000298387 -0.00106213 1.3023e-19)
(-0.000594629 -0.00179211 0)
(-0.00188199 -0.00259892 0)
(-0.00341841 -0.00336698 1.54439e-19)
(-0.00535031 -0.00401547 1.67163e-19)
(-0.00740706 -0.00434796 8.9987e-20)
(-0.00939833 -0.00426929 9.53392e-20)
(-0.0110626 -0.00375203 1.87146e-19)
(-0.0121798 -0.00285039 1.26348e-20)
(-0.0126011 -0.00172543 5.78105e-20)
(-0.0122811 -0.000523103 -6.3446e-21)
(-0.0112509 0.000585392 0)
(-0.000368342 -0.000872352 1.27315e-19)
(-0.00177087 -0.00193962 0)
(-0.00334761 -0.0028142 0)
(-0.00498953 -0.00346401 -1.94798e-20)
(-0.00672121 -0.00388614 1.94594e-20)
(-0.00835004 -0.0040039 -2.23959e-20)
(-0.00972576 -0.00379086 2.22453e-20)
(-0.0106698 -0.00326186 -9.65559e-20)
(-0.011057 -0.00248129 0)
(-0.0107977 -0.00159367 5.56647e-20)
(-0.00989808 -0.000710549 4.2462e-20)
(-0.00845074 4.15547e-05 -1.16574e-20)
(-0.0143953 0.0174506 -4.3627e-22)
(-0.00736588 0.0192621 3.1631e-20)
(-0.000591642 0.0186124 0)
(0.00521823 0.0158674 -3.13081e-20)
(0.00964336 0.0117227 -4.08822e-20)
(0.0124354 0.00647353 -1.21732e-20)
(0.0134271 0.000342173 -1.01939e-20)
(0.0123363 -0.00636182 2.18726e-20)
(0.00863248 -0.0122331 0)
(0.00213539 -0.0143273 1.5337e-20)
(-0.00446879 -0.0085056 -1.92393e-20)
(-0.00363346 -0.000825065 -3.0537e-20)
(-0.0151569 0.0142872 -1.69885e-20)
(-0.00912806 0.0160893 0)
(-0.00314625 0.0157953 -4.91706e-20)
(0.00214921 0.0136833 0)
(0.006265 0.0102092 -1.30265e-21)
(0.00884846 0.00583051 -5.11001e-20)
(0.00956955 0.00079075 -8.41274e-21)
(0.00813702 -0.00435745 4.01337e-20)
(0.004563 -0.00809442 0)
(0.000129685 -0.00838646 -1.42105e-20)
(-0.00342033 -0.00313907 1.79467e-20)
(0.00109322 0.00333038 0)
(-0.0143715 0.0116571 8.09391e-21)
(-0.00925223 0.0132999 -2.75948e-20)
(-0.00407489 0.0131912 4.77745e-20)
(0.000576467 0.0115518 -4.87913e-20)
(0.00425219 0.00866539 1.50476e-20)
(0.00658829 0.00504412 3.09467e-20)
(0.00720915 0.000988187 6.30831e-20)
(0.0058932 -0.00293978 -3.99344e-20)
(0.00269484 -0.00545165 0)
(-0.000748969 -0.00530164 2.05216e-20)
(-0.00382751 -0.0019057 6.47673e-21)
(-0.00292872 -0.000628941 0)
(-0.0131488 0.00946876 3.53129e-21)
(-0.0088172 0.010922 2.95012e-20)
(-0.0043795 0.0109244 -6.2051e-21)
(-0.000352778 0.00963377 -3.27468e-22)
(0.00288274 0.00729227 3.16145e-20)
(0.00497558 0.00429552 0)
(0.00560535 0.00104593 -5.08621e-20)
(0.00463376 -0.00200751 9.77313e-21)
(0.00212731 -0.00386204 0)
(-0.000437469 -0.0037192 -5.5127e-20)
(-0.00218081 -0.00171226 0)
(-0.000723691 7.55302e-05 0)
(-0.0120721 0.00766607 1.40546e-20)
(-0.00837785 0.00893989 0)
(-0.00455432 0.00901311 -3.40607e-20)
(-0.00105311 0.00800163 3.63579e-20)
(0.00179926 0.00611151 -1.47573e-21)
(0.00368969 0.00364475 -6.10417e-20)
(0.00435339 0.00103004 1.00955e-20)
(0.00373457 -0.00138368 2.79165e-20)
(0.00190317 -0.0028542 -7.65763e-21)
(-3.03436e-05 -0.00284095 2.85322e-20)
(-0.00150421 -0.00158646 1.43891e-20)
(-0.00134742 -0.00108275 -7.17641e-21)
(-0.0112319 0.00617069 -1.36839e-20)
(-0.00804268 0.00728628 0)
(-0.00471249 0.00740569 4.31744e-20)
(-0.00163408 0.0066193 -8.62035e-21)
(0.000906528 0.00510612 8.64708e-21)
(0.00263168 0.00307202 6.44394e-20)
(0.00332791 0.000969138 -4.73047e-20)
(0.00298624 -0.000946391 -4.72871e-20)
(0.00169144 -0.00213342 0)
(0.000253312 -0.00221642 -7.41565e-21)
(-0.000920403 -0.00145096 7.42059e-21)
(-0.000949498 -0.00102954 0)
(-0.0105677 0.00491529 -3.08736e-21)
(-0.00778237 0.00588878 2.64922e-20)
(-0.0048502 0.00603635 0)
(-0.00210879 0.00543023 0)
(0.000171215 0.00422466 0)
(0.00176922 0.00256563 1.22302e-20)
(0.00249693 0.000868884 3.19088e-20)
(0.00236013 -0.000645884 3.92131e-20)
(0.00145854 -0.00160213 -8.10335e-21)
(0.000388278 -0.00174352 5.63462e-22)
(-0.000547249 -0.00129607 6.72325e-20)
(-0.000769864 -0.00104428 5.87305e-20)
(-0.0100477 0.00384928 -1.23894e-20)
(-0.00759019 0.00469201 -2.81685e-20)
(-0.00498072 0.00485746 5.37673e-21)
(-0.00251446 0.00439697 -8.29521e-21)
(-0.000442969 0.00343667 -4.64474e-20)
(0.00106401 0.00211752 -4.81089e-20)
(0.00181728 0.000747431 4.34377e-20)
(0.00184036 -0.000446929 -8.78052e-20)
(0.00122557 -0.00121109 0)
(0.000430136 -0.00137739 0)
(-0.000313106 -0.00112669 -5.07494e-20)
(-0.000617405 -0.000969932 -6.06518e-21)
(-0.00969932 0.00293576 1.20756e-20)
(-0.00750869 0.00366169 5.20859e-21)
(-0.00515896 0.00384064 -5.21599e-21)
(-0.00291258 0.0034989 0)
(-0.000995399 0.00274664 1.21001e-19)
(0.000452034 0.00171369 6.38061e-20)
(0.00123951 0.000614353 -4.57104e-20)
(0.00140149 -0.000323883 3.6888e-20)
(0.0010125 -0.000927265 -9.10178e-21)
(0.000427664 -0.00109693 -7.5639e-21)
(-0.000165403 -0.000970668 7.56338e-21)
(-0.000490559 -0.000866218 -5.67589e-20)
(-0.00961738 0.00214828 1.16025e-20)
(-0.00762045 0.00277812 0)
(-0.00545118 0.00296349 3.83851e-20)
(-0.00334499 0.00271659 -7.95119e-21)
(-0.00150439 0.00212991 -4.42881e-20)
(-6.57537e-05 0.00131881 4.97332e-21)
(0.000796521 0.00044969 2.18774e-20)
(0.00110318 -0.000297991 -6.66178e-20)
(0.000904196 -0.000782172 6.01078e-20)
(0.00048586 -0.000940372 6.04225e-22)
(-5.29572e-06 -0.000882168 7.49244e-21)
(-0.000356747 -0.000770317 0)
(-0.00964606 0.00145161 -8.61097e-21)
(-0.00765265 0.0019794 3.38468e-20)
(-0.00548722 0.00212786 -6.99575e-20)
(-0.00337083 0.00191346 0)
(-0.00149617 0.001414 6.78241e-21)
(6.94073e-06 0.000737662 -6.79046e-21)
(0.000962434 1.69279e-05 -3.28316e-20)
(0.00137667 -0.000598281 1.40301e-19)
(0.00129355 -0.000999465 -6.64296e-20)
(0.000931111 -0.00111385 0)
(0.00039417 -0.00101351 0)
(-0.000138145 -0.00073011 0)
(-0.00661354 0.000562311 -2.1893e-20)
(-0.0045742 0.000799017 -4.03064e-20)
(-0.00252758 0.000741606 7.27466e-20)
(-0.000648431 0.000428279 -7.56577e-21)
(0.000921897 -6.59947e-05 1.41556e-20)
(0.00208965 -0.00063845 3.09944e-20)
(0.00273759 -0.00118743 2.11814e-20)
(0.00289107 -0.0015863 -9.61556e-21)
(0.00260117 -0.00176436 5.72124e-20)
(0.00199792 -0.00165596 7.75965e-21)
(0.00117839 -0.00127293 0)
(0.000283307 -0.000613965 5.39811e-20)
(0.0161155 0.00124452 -3.25951e-20)
(0.00569781 -0.0175739 -5.36199e-20)
(-0.00820343 -0.0148945 6.61693e-20)
(-0.0156089 -0.0108421 1.16315e-19)
(-0.0212537 -0.00343139 -1.394e-19)
(-0.023765 0.00531684 -1.75624e-19)
(-0.0225898 0.014184 1.59583e-20)
(-0.0178786 0.0215178 4.3087e-20)
(-0.0105669 0.0261165 -2.25563e-20)
(-0.00201703 0.0273808 0)
(0.00629274 0.0253788 0)
(0.0130606 0.0207313 -6.22536e-22)
(0.00817062 -0.00142558 0)
(0.00220046 -0.0123634 -7.75348e-21)
(-0.00687449 -0.010737 0)
(-0.0129488 -0.00741398 -8.84927e-20)
(-0.0173906 -0.00162833 2.96008e-20)
(-0.0194412 0.00544108 -6.35809e-20)
(-0.0186304 0.0128144 1.95139e-19)
(-0.0150149 0.0191813 -1.90456e-20)
(-0.00923542 0.0234959 0)
(-0.00228778 0.0251263 8.25434e-20)
(0.00459537 0.0239544 0)
(0.0103743 0.0203761 -1.8943e-20)
(0.00378199 -0.00178288 0)
(0.000212427 -0.00841235 7.5275e-20)
(-0.00618619 -0.00752172 -1.69576e-20)
(-0.010955 -0.00475563 0)
(-0.0144595 -9.22608e-05 -1.04507e-19)
(-0.0160611 0.00568158 -3.2026e-20)
(-0.0153832 0.0117612 -1.23967e-19)
(-0.0124804 0.0170937 1.0842e-19)
(-0.00782823 0.0208133 -1.88812e-20)
(-0.00219948 0.0223546 -1.56203e-19)
(0.00345868 0.0215641 -3.67321e-20)
(0.00829911 0.0186985 8.97466e-21)
(0.00110373 -0.00200201 6.29628e-20)
(-0.00112407 -0.00584167 0)
(-0.00565924 -0.00507403 0)
(-0.0093768 -0.00275859 -1.12298e-19)
(-0.0121604 0.00110546 1.25296e-19)
(-0.0134045 0.00588261 -3.02814e-20)
(-0.0128196 0.010904 3.02729e-20)
(-0.0104386 0.0153118 -7.00305e-20)
(-0.0066473 0.0184047 -7.02139e-20)
(-0.00205368 0.019721 3.15063e-21)
(0.0025964 0.0191103 3.57247e-20)
(0.0066236 0.016756 -8.06058e-21)
(-0.000306484 -0.00192734 -6.10065e-20)
(-0.00185803 -0.00402597 0)
(-0.00518513 -0.0032524 -2.04551e-20)
(-0.00806563 -0.00125993 1.93768e-19)
(-0.0102863 0.00202567 0)
(-0.0112698 0.00604678 1.379e-19)
(-0.0107753 0.0102521 -1.63418e-19)
(-0.00881764 0.0139289 1.42523e-19)
(-0.0057116 0.0165026 5.14885e-20)
(-0.00193651 0.0176032 1.51859e-19)
(0.00190591 0.0170958 0)
(0.00525683 0.0151187 1.54575e-20)
(-0.00102046 -0.00173936 -1.6869e-20)
(-0.00222794 -0.00275544 8.74333e-20)
(-0.00468901 -0.00189132 0)
(-0.00694077 -0.000129547 9.08325e-22)
(-0.00872545 0.00273037 0)
(-0.0095158 0.00617032 -2.88816e-20)
(-0.00910326 0.00974377 1.43443e-19)
(-0.00750174 0.012858 -1.08073e-19)
(-0.00495388 0.0150314 -7.77895e-20)
(-0.00184777 0.0159587 -6.44693e-20)
(0.00133573 0.0155273 3.04831e-20)
(0.00413045 0.0138402 -7.41018e-21)
(-0.00132066 -0.00149341 0)
(-0.00232151 -0.00184871 -2.10481e-19)
(-0.00416664 -0.000885131 -1.73646e-19)
(-0.00595907 0.000731143 -6.35307e-20)
(-0.00740291 0.00326716 0)
(-0.00804519 0.00625813 -1.28549e-19)
(-0.00771321 0.00933612 1.23046e-20)
(-0.00641557 0.0120069 -6.08255e-22)
(-0.00432707 0.0138672 7.53272e-20)
(-0.00177673 0.0146583 0)
(0.000858356 0.0142867 -6.53879e-22)
(0.00318987 0.012829 -2.00042e-28)
(-0.00137416 -0.00121965 1.35748e-19)
(-0.00221726 -0.00115679 2.9747e-19)
(-0.00364003 -0.000137508 1.3135e-19)
(-0.00507645 0.00138763 1.64992e-19)
(-0.00625523 0.00367642 0)
(-0.00679045 0.00631841 -2.54239e-20)
(-0.00654117 0.00900855 3.89136e-20)
(-0.005501 0.0113292 5.42879e-22)
(-0.00380352 0.0129414 -1.40695e-20)
(-0.00172148 0.0136258 0)
(0.00045192 0.0133029 -2.82531e-20)
(0.00239309 0.0120299 -1.32482e-20)
(-0.00130013 -0.000956404 2.67085e-21)
(-0.00201142 -0.000619489 -1.37547e-19)
(-0.00312682 0.000441256 0)
(-0.00428328 0.00190632 -2.03724e-20)
(-0.00525059 0.00400844 -1.8295e-21)
(-0.00571175 0.00638118 9.3009e-20)
(-0.00554302 0.00877049 -8.95325e-20)
(-0.00472506 0.0108213 1.18995e-19)
(-0.00336669 0.0122448 0)
(-0.00167891 0.0128509 5.46022e-20)
(0.000100398 0.0125706 0)
(0.00170991 0.0114516 2.56769e-20)
(-0.00116571 -0.000672501 -1.31256e-19)
(-0.00180199 -0.000120135 1.77058e-20)
(-0.00269917 0.000991154 -1.83026e-19)
(-0.00362945 0.00243548 -1.38433e-19)
(-0.0044263 0.00440888 1.48649e-19)
(-0.0048309 0.00658782 -9.40046e-20)
(-0.00473151 0.00875475 2.44313e-20)
(-0.00410329 0.010605 -9.0307e-20)
(-0.00302951 0.0118874 -1.30233e-20)
(-0.00166751 0.0124378 -9.93363e-20)
(-0.000215968 0.0121941 1.92608e-20)
(0.00111522 0.0111944 -1.24451e-20)
(-0.0010643 -0.000298761 0)
(-0.00179787 0.000598176 0)
(-0.00260774 0.00189084 1.42662e-19)
(-0.0033767 0.00343206 0)
(-0.00402485 0.00536754 -1.88249e-19)
(-0.00435445 0.00742539 2.23694e-19)
(-0.0042723 0.00941447 6.0215e-20)
(-0.0037516 0.0110739 -8.72216e-20)
(-0.0028469 0.012184 0)
(-0.00172052 0.0125979 2.84931e-22)
(-0.000517527 0.0122689 -7.51912e-20)
(0.000588913 0.0112298 0)
(-0.00087341 0.000368891 1.10607e-19)
(-0.00194264 0.00177405 1.63889e-19)
(-0.00281888 0.00335367 -1.68465e-20)
(-0.00346916 0.00499777 0)
(-0.00389089 0.00673055 2.09116e-20)
(-0.00400701 0.00835842 -2.16637e-19)
(-0.0037918 0.00973095 2.23217e-20)
(-0.00326073 0.0106699 1.08488e-19)
(-0.00247851 0.0110507 -1.21645e-20)
(-0.00159052 0.010785 4.95107e-20)
(-0.000707716 0.00987864 9.70395e-20)
(4.27392e-05 0.00842543 -1.16277e-20)
(0.0174957 0.0143649 -9.76436e-21)
(0.0192994 0.00732884 7.0502e-21)
(0.0186443 0.000544778 -7.08684e-21)
(0.0158888 -0.0052768 -4.09476e-20)
(0.0117217 -0.00970978 -3.17668e-20)
(0.00643928 -0.0125043 2.22156e-20)
(0.000270322 -0.0134792 7.37152e-21)
(-0.00645193 -0.0123511 1.44078e-20)
(-0.0123277 -0.00859721 -3.71829e-20)
(-0.0144069 -0.00206366 0)
(-0.00854764 0.00449631 -2.16603e-20)
(-0.000794694 0.00361864 0)
(0.0143269 0.0151238 -8.64155e-21)
(0.0161196 0.00908444 0)
(0.015816 0.00309089 0)
(0.0136903 -0.00221305 -6.40777e-22)
(0.0101989 -0.00633327 3.09034e-20)
(0.00579786 -0.0089176 6.17986e-20)
(0.000727029 -0.00962588 2.89687e-20)
(-0.00443583 -0.00816003 0)
(-0.00818306 -0.00453592 2.10139e-20)
(-0.00844661 -6.66785e-05 -5.87534e-21)
(-0.00314047 0.00348181 -1.3624e-20)
(0.00336164 -0.00109052 -3.53283e-20)
(0.0116905 0.0143376 7.79605e-21)
(0.0133245 0.00920792 -6.42623e-21)
(0.0132053 0.00402065 -4.0823e-20)
(0.0115505 -0.00063782 7.00328e-20)
(0.00864913 -0.00431785 4.85553e-20)
(0.00501825 -0.00665378 7.19053e-21)
(0.000936085 -0.00726208 -5.93882e-20)
(-0.00300748 -0.00591695 -2.53419e-20)
(-0.00552122 -0.00268243 2.91924e-20)
(-0.00535586 0.000786717 0)
(-0.00191276 0.00387198 2.51833e-20)
(-0.000605145 0.00293822 -1.73806e-21)
(0.00949734 0.0131163 -1.49601e-20)
(0.0109426 0.00877475 0)
(0.0109358 0.00432848 4.59666e-20)
(0.00963211 0.00029621 -8.49146e-21)
(0.00727373 -0.00294482 -2.99035e-20)
(0.00427075 -0.00503506 -1.08733e-19)
(0.00100159 -0.00565082 5.57082e-20)
(-0.0020655 -0.00466026 4.16735e-20)
(-0.00391524 -0.00212935 -6.79906e-20)
(-0.00375987 0.000460923 2.89292e-20)
(-0.00172694 0.00221257 0)
(8.65867e-05 0.000727673 2.86879e-20)
(0.00769039 0.0120413 1.41839e-20)
(0.00895629 0.00833781 0)
(0.00902143 0.00450678 0)
(0.00799913 0.00100133 -2.9093e-20)
(0.00609542 -0.00185768 -8.05095e-20)
(0.00361724 -0.00374286 5.90556e-20)
(0.000991815 -0.00439407 -4.25787e-20)
(-0.00143081 -0.00376182 3.79722e-20)
(-0.00289846 -0.00191001 6.36021e-20)
(-0.00287772 4.48024e-05 2.13028e-21)
(-0.00159804 0.00152434 -2.9177e-20)
(-0.00108008 0.00135714 0)
(0.00619088 0.0112026 -6.82267e-21)
(0.00729858 0.00800501 2.42017e-20)
(0.00741108 0.00466771 0)
(0.00661549 0.00158528 0)
(0.00509295 -0.000961214 6.99632e-20)
(0.00304483 -0.00267937 4.62907e-20)
(0.000937035 -0.00336696 0)
(-0.000986851 -0.00301387 -3.68687e-20)
(-0.00217208 -0.00169933 -2.41545e-20)
(-0.00224795 -0.000245522 -3.72963e-20)
(-0.00146639 0.000933502 5.7983e-20)
(-0.00102897 0.000955379 -5.89417e-20)
(0.00493078 0.0105399 2.00011e-28)
(0.00589761 0.00774663 -2.90967e-20)
(0.00603913 0.00480776 5.53718e-21)
(0.00542487 0.00206248 8.43581e-21)
(0.00421166 -0.000222024 -1.56602e-20)
(0.00254061 -0.00181439 -4.48951e-20)
(0.000843642 -0.00253572 0)
(-0.00068254 -0.00238459 0)
(-0.0016359 -0.00146859 -3.44812e-20)
(-0.00176946 -0.000388162 0)
(-0.00131149 0.000555402 -2.15031e-20)
(-0.00104702 0.000776318 4.99547e-20)
(0.0038604 0.0100211 -1.23557e-20)
(0.00469795 0.00755609 -2.25593e-20)
(0.00485771 0.0049406 -4.03938e-20)
(0.00439042 0.00247042 0)
(0.0034231 0.000395535 -7.11798e-21)
(0.00209467 -0.00110775 1.9277e-20)
(0.000724199 -0.00185321 -2.25747e-20)
(-0.000478829 -0.00186386 5.86669e-20)
(-0.00123875 -0.00124044 2.44341e-20)
(-0.00139827 -0.000434905 0)
(-0.00114117 0.000317298 -5.96453e-20)
(-0.000972456 0.000621218 -5.83428e-20)
(0.0029433 0.00967411 2.39806e-20)
(0.00366493 0.00747634 2.19882e-20)
(0.00383852 0.00512094 3.93654e-20)
(0.00349158 0.00287058 -8.10105e-21)
(0.00273269 0.00095083 1.09817e-21)
(0.00169339 -0.000494104 7.0316e-21)
(0.000590026 -0.00127251 0)
(-0.000348621 -0.001427 7.72192e-22)
(-0.000951508 -0.00102979 8.15854e-21)
(-0.00111455 -0.000435307 -7.09543e-20)
(-0.000982609 0.000165726 5.80429e-20)
(-0.000868797 0.000492392 5.67714e-20)
(0.00215268 0.00959298 -1.16395e-20)
(0.002779 0.00758928 2.12428e-20)
(0.00295927 0.00541441 -3.82748e-20)
(0.00270803 0.00330443 0)
(0.0021155 0.00146161 0)
(0.00130205 2.50163e-05 3.95525e-20)
(0.000425799 -0.000828184 -3.20556e-20)
(-0.000320196 -0.00112905 -1.14563e-19)
(-0.000799524 -0.000924154 -6.81014e-20)
(-0.000955669 -0.000495067 -8.3831e-21)
(-0.00089091 2.46691e-06 7.48751e-21)
(-0.000771892 0.000357042 0)
(0.00145309 0.00961924 0)
(0.00197774 0.00761991 -2.07263e-20)
(0.00212198 0.00544963 3.73461e-20)
(0.00190329 0.00333057 -7.7569e-21)
(0.00139885 0.00145428 7.76901e-21)
(0.000724796 -4.61093e-05 -5.01365e-20)
(-3.2627e-06 -0.000990486 4.28142e-20)
(-0.000617409 -0.00140182 7.47368e-20)
(-0.00101215 -0.00131227 6.63267e-20)
(-0.00112403 -0.000938335 6.04414e-20)
(-0.00101857 -0.00039789 -6.4327e-20)
(-0.000730232 0.000137411 7.04031e-21)
(0.000561745 0.00658503 -2.18347e-20)
(0.000795917 0.00454335 4.01724e-20)
(0.000736093 0.00249588 0)
(0.000420245 0.000618059 6.44288e-20)
(-7.67515e-05 -0.000952224 5.62782e-20)
(-0.000645712 -0.00211372 0)
(-0.0011968 -0.00275143 -9.79783e-21)
(-0.00159349 -0.00290344 1.8418e-20)
(-0.00176889 -0.00260641 -8.73012e-22)
(-0.00165695 -0.00199793 -7.74966e-21)
(-0.00127207 -0.00117801 1.11026e-19)
(-0.000612712 -0.000282833 0)
)
;

boundaryField
{
    rotor
    {
        type            movingWallVelocity;
        value           nonuniform 0();
    }
    stator
    {
        type            movingWallVelocity;
        value           nonuniform List<vector> 
96
(
(-1.07797e-16 -1.00963e-16 -1.99493e-16)
(-1.9073e-15 -1.56528e-15 0)
(1.51125e-15 1.08295e-15 -1.99493e-16)
(0 0 0)
(0 0 0)
(1.1999e-15 5.43666e-16 0)
(0 0 0)
(-7.30731e-16 -2.21665e-16 -1.99493e-16)
(7.05869e-16 1.64585e-16 0)
(0 0 0)
(-3.11354e-16 -3.06656e-17 1.99493e-16)
(4.74003e-18 1.55172e-19 -2.5835e-33)
(-1.0912e-16 3.57221e-18 -1.99493e-16)
(0 0 0)
(-5.13e-16 8.46966e-17 -1.99493e-16)
(7.56826e-16 -1.76467e-16 -1.99493e-16)
(7.30731e-16 -2.21665e-16 0)
(1.39792e-15 -5.2614e-16 -3.98986e-16)
(1.1999e-15 -5.43666e-16 0)
(1.2413e-15 -6.6349e-16 -1.99493e-16)
(-1.43136e-15 8.90077e-16 -1.99493e-16)
(0 0 0)
(-3.13056e-15 2.56918e-15 -3.98986e-16)
(-1.59253e-15 1.49157e-15 -1.99493e-16)
(1.49157e-15 -1.59253e-15 3.0155e-32)
(1.28459e-15 -1.56528e-15 -1.99493e-16)
(-7.55624e-16 1.05447e-15 -1.99493e-16)
(1.74397e-16 -2.80453e-16 -1.99493e-16)
(-6.6349e-16 1.2413e-15 0)
(5.99948e-16 -1.32411e-15 0)
(5.2614e-16 -1.39792e-15 0)
(0 0 -1.99493e-16)
(0 0 0)
(0 0 0)
(0 0 0)
(0 0 0)
(3.22608e-34 -1.05611e-35 -1.99493e-16)
(0 0 0)
(-4.35533e-17 -2.63799e-16 0)
(-1.76467e-16 -7.56826e-16 -1.99493e-16)
(0 0 0)
(3.9605e-16 1.05228e-15 0)
(5.43666e-16 1.1999e-15 0)
(7.09286e-16 1.32698e-15 0)
(7.1568e-16 1.15091e-15 1.99493e-16)
(-7.55624e-16 -1.05447e-15 0)
(1.28459e-15 1.56528e-15 3.19376e-32)
(0 0 -1.99493e-16)
(0 0 0)
(-7.97973e-16 7.97973e-16 0)
(-1.59595e-15 1.59595e-15 0)
(0 0 0)
(-7.97973e-16 7.97973e-16 0)
(7.97973e-16 -7.97973e-16 -1.99493e-16)
(-1.59595e-15 1.59595e-15 0)
(-1.59595e-15 1.59595e-15 0)
(0 0 0)
(0 0 -1.99493e-16)
(0 0 0)
(0 0 0)
(0 0 0)
(7.97973e-16 7.97973e-16 0)
(-7.97973e-16 -7.97973e-16 -1.99493e-16)
(7.97973e-16 7.97973e-16 0)
(0 0 -1.99493e-16)
(7.97973e-16 7.97973e-16 0)
(7.97973e-16 7.97973e-16 0)
(0 0 0)
(0 0 -1.99493e-16)
(0 0 -1.99493e-16)
(0 0 0)
(0 0 0)
(0 0 0)
(7.97973e-16 7.97973e-16 -1.99493e-16)
(-7.97973e-16 -7.97973e-16 0)
(7.97973e-16 7.97973e-16 -1.99493e-16)
(0 0 -1.99493e-16)
(0 0 -1.99493e-16)
(7.97973e-16 7.97973e-16 -1.99493e-16)
(0 0 -1.99493e-16)
(0 0 0)
(0 0 -1.99493e-16)
(0 0 -1.99493e-16)
(1.59595e-15 1.59595e-15 -1.99493e-16)
(0 0 0)