/*--------------------------------*- C++ -*----------------------------------*\
| =========                 |                                                 |
| \\      /  F ield         | OpenFOAM: The Open Source CFD Toolbox           |
|  \\    /   O peration     | Version:  v1606+                                |
|   \\  /    A nd           | Web:      www.OpenFOAM.com                      |
|    \\/     M anipulation  |                                                 |
\*---------------------------------------------------------------------------*/
FoamFile
{
    version     2.0;
    format      ascii;
    class       surfaceScalarField;
    location    "3.9";
    object      alphaPhi;
}
// * * * * * * * * * * * * * * * * * * * * * * * * * * * * * * * * * * * * * //

dimensions      [0 3 -1 0 0 0 0];

internalField   nonuniform List<scalar> 
33146
(
-1.2871762385e-06
-3.5085095567e-06
4.79568566811e-06
-2.8762466032e-06
-3.23738151119e-06
4.82645168266e-06
-4.45345590628e-06
-3.17486308549e-06
4.75201069412e-06
-5.76917351602e-06
-3.18829197202e-06
4.54534365923e-06
-6.7705394643e-06
-3.00233855224e-06
4.45997495563e-06
-7.50427074444e-06
-2.52215486954e-06
4.46880064873e-06
-7.99656283093e-06
-2.11899741735e-06
4.25805238695e-06
-8.24588714528e-06
-1.9562217897e-06
3.79100856066e-06
-8.27610622691e-06
-2.05604140002e-06
3.42147278614e-06
-8.08868156249e-06
-2.12089766849e-06
3.01843293243e-06
-7.71162043523e-06
-2.09970243627e-06
2.5573565837e-06
-7.19412650979e-06
-2.12875079787e-06
2.19572268733e-06
-6.59270427001e-06
-2.10812974664e-06
1.84092871846e-06
-5.87453618176e-06
-2.19691659968e-06
1.58066653552e-06
-4.94808721653e-06
-2.5811050933e-06
1.61319379573e-06
-3.87593582938e-06
-3.09986242427e-06
1.9883540555e-06
-2.71397765918e-06
-3.4669483463e-06
2.29806946287e-06
-1.55045319147e-06
-3.51929857857e-06
2.35479757721e-06
-5.7280126342e-07
-3.41384610372e-06
2.43822711009e-06
-3.06845842197e-06
2.49544840077e-06
-1.31984079288e-06
-6.72329377488e-06
4.53462510234e-06
-3.07039876844e-06
-6.6112745648e-06
5.12445000091e-06
-4.70532503701e-06
-6.43769870761e-06
5.27242471783e-06
-5.96188123172e-06
-5.64228750757e-06
5.76202783966e-06
-6.93283991149e-06
-4.01943600509e-06
6.74889311722e-06
-7.68460906761e-06
-2.35644299527e-06
7.45873344875e-06
-8.27368466677e-06
-1.2822507893e-06
7.13387055419e-06
-8.6426932058e-06
-1.05318235511e-06
5.9808677518e-06
-8.73899955362e-06
-1.41372146591e-06
4.64118335315e-06
-8.64012923563e-06
-1.63344016152e-06
3.27317137866e-06
-8.28515175383e-06
-1.85322001657e-06
1.93034021148e-06
-7.82251793735e-06
-1.95912175659e-06
5.71834341829e-07
-7.19204037711e-06
-2.0781544234e-06
-7.8405748415e-07
-6.37577640292e-06
-2.26842836706e-06
-1.96576999372e-06
-5.33597550885e-06
-3.01052344918e-06
-2.20742461677e-06
-4.12293210622e-06
-4.26428567807e-06
-1.17979248203e-06
-2.88119126348e-06
-5.58138791014e-06
4.20979810831e-07
-1.66020907101e-06
-6.34767680817e-06
1.51448071302e-06
-5.69428165306e-07
-6.44628004087e-06
1.94014589535e-06
-6.08459795492e-06
2.44832130177e-06
-1.29266562294e-06
-9.68035522722e-06
4.24972835795e-06
-3.14264160598e-06
-9.51958568411e-06
5.16860613698e-06
-4.79174414611e-06
-8.35981472508e-06
6.55188547705e-06
-6.05824976728e-06
-5.67134387535e-06
9.3828977405e-06
-7.05753069835e-06
-2.20647584792e-06
1.23584609586e-05
-8.05704291299e-06
9.58168476321e-07
1.35996605751e-05
-8.79155138874e-06
2.45442393003e-06
1.25623358387e-05
-9.33635827832e-06
2.61136103867e-06
9.83153443431e-06
-9.62868271593e-06
1.75211242902e-06
6.74193863642e-06
-9.60447876525e-06
9.05528426365e-07
3.71590040967e-06
-9.30677064609e-06
8.89571800251e-08
7.02647489845e-07
-8.78760979225e-06
-5.27878665045e-07
-2.3444134689e-06
-8.15209205119e-06
-9.44630323949e-07
-5.49959095295e-06
-7.30335820496e-06
-1.40132479169e-06
-8.27656121744e-06
-6.02696135298e-06
-2.53708498625e-06
-9.50359113135e-06
-4.54043851722e-06
-4.35653501846e-06
-8.01123867374e-06
-3.02033356929e-06
-6.49540335479e-06
-4.36067321793e-06
-1.66414854151e-06
-8.34045843021e-06
-5.14689124278e-07
-5.95338280456e-07
-9.19515598877e-06
1.55028457125e-06
-9.18430632888e-06
2.50380121021e-06
-1.40030751336e-06
-1.22118750714e-05
3.98582975372e-06
-3.33588188935e-06
-1.13527317503e-05
5.93975504003e-06
-5.01354971755e-06
-8.41109410975e-06
1.01903012327e-05
-6.33071282124e-06
-3.56462485166e-06
1.60564117738e-05
-7.65956331588e-06
2.07704605726e-06
2.04479705545e-05
-8.86753092127e-06
6.41433789735e-06
2.16175717642e-05
-9.90879844676e-06
8.27777956473e-06
1.91844696724e-05
-1.06572612798e-05
8.0366591038e-06
1.44631632536e-05
-1.10936860101e-05
6.46538167163e-06
9.12432670496e-06
-1.11528651035e-05
4.62882468359e-06
3.99786405609e-06
-1.08166025961e-05
2.74736898125e-06
-1.07200118177e-06
-1.02273180509e-05
1.25850471302e-06
-6.1923291938e-06
-9.38291734448e-06
1.03587618294e-07
-1.1448613022e-05
-8.4748845807e-06
-7.05145697748e-07
-1.61385963076e-05
-7.00418171714e-06
-2.20537701622e-06
-1.88445951896e-05
-5.16719742294e-06
-4.46652972385e-06
-1.75520946373e-05
-3.31689322098e-06
-7.14774364878e-06
-1.23424350772e-05
-1.694726397e-06
-9.70669905651e-06
-5.33001896424e-06
-5.62664812879e-07
-1.14694975623e-05
8.42438149843e-08
-1.20697508465e-05
2.30189740392e-06
-1.65357295118e-06
-1.40051960914e-05
4.07669497747e-06
-3.71988310779e-06
-1.20804748365e-05
8.04429555781e-06
-5.53099875365e-06
-7.23927630665e-06
1.57117311048e-05
-7.2147457917e-06
-1.57533913578e-07
2.39507553452e-05
-8.79891940778e-06
7.24885138265e-06
2.91633897814e-05
-1.02749366889e-05
1.2473854985e-05
2.9671438363e-05
-1.15885159582e-05
1.43803704733e-05
2.57257466828e-05
-1.24151597482e-05
1.36854923369e-05
1.8729929826e-05
-1.29995842386e-05
1.16698457018e-05
1.10172359149e-05
-1.30198928655e-05
8.79034268589e-06
3.58129034585e-06
-1.24266615458e-05
5.72471162331e-06
-3.76288480879e-06
-1.14508138546e-05
3.25077016591e-06
-1.1075229016e-05
-1.03617945467e-05
1.29917383209e-06
-1.83065240957e-05
-9.62379096636e-06
-2.47199193569e-07
-2.42111691103e-05
-7.88859138113e-06
-2.57058155835e-06
-2.83373312301e-05
-5.81328552481e-06
-5.14764131028e-06
-2.75130927302e-05
-3.63548197293e-06
-8.11593114117e-06
-2.15026123653e-05
-1.73382621356e-06
-1.1059604926e-05
-1.19715434102e-05
-4.81036936128e-07
-1.34090666737e-05
-2.86486907558e-06
-1.45865546054e-05
1.75484445672e-06
-1.99489782875e-06
-1.515482428e-05
4.63151999286e-06
-4.2727210439e-06
-1.2263170061e-05
1.0820690998e-05
-6.38685037168e-06
-5.82451771928e-06
2.11987914237e-05
-8.41127156944e-06
3.08551742616e-06
3.10457589486e-05
-1.0315519666e-05
1.18586573259e-05
3.65074455723e-05
-1.18979753451e-05
1.73118183911e-05
3.62399225557e-05
-1.33878844519e-05
1.90417063755e-05
3.08733077155e-05
-1.37121983365e-05
1.73471932786e-05
2.21297023448e-05
-1.3828508101e-05
1.47333201895e-05
1.31477700581e-05
-1.35298576243e-05
1.07805965906e-05
4.43391826674e-06
-1.29491315518e-05
6.89029253219e-06
-4.3955896157e-06
-1.25351290257e-05
4.22478524304e-06
-1.3409412985e-05
-1.27799949605e-05
2.43837170555e-06
-2.22878279486e-05
-1.13665827675e-05
-1.71212382647e-06
-2.98004599914e-05
-8.81917448043e-06
-4.30291453182e-06
-3.59082185378e-05
-6.38478294589e-06
-6.59858789808e-06
-3.58742037312e-05
-3.98456422455e-06
-9.59129427944e-06
-2.94731307777e-05
-1.88921237227e-06
-1.2678695572e-05
-1.8262311929e-05
-4.25406424925e-07
-1.52631531054e-05
-6.48814330731e-06
-1.68003703291e-05
7.17821257466e-07
-2.29030949477e-06
-1.59023334546e-05
5.04131379494e-06
-4.83978172897e-06
-1.25197844212e-05
1.28232734955e-05
-7.31188820588e-06
-5.16251680609e-06
2.49000960783e-05
-9.64712322431e-06
4.97250554734e-06
3.56440992153e-05
-1.16679926685e-05
1.46127320706e-05
4.11154603682e-05
-1.3055640835e-05
2.03548419649e-05
3.96840596572e-05
-1.53507965057e-05
2.3097874177e-05
3.31587288589e-05
-1.59034247898e-05
2.13717755554e-05
2.20716001968e-05
-1.72267677752e-05
2.07634029587e-05
1.08471056576e-05
-1.67070186289e-05
1.75426148821e-05
-1.717687907e-06
-1.44850613408e-05
1.4221395952e-05
-1.39787376404e-05
-1.1170036898e-05
1.17689520164e-05
-2.52746205951e-05
-8.94133694446e-06
1.07059558102e-05
-3.49014736649e-05
-9.57902115116e-06
9.69980999923e-07
-3.57072613255e-05
-8.28578450678e-06
-3.20664957157e-06
-4.22600841671e-05
-6.52200216701e-06
-7.14792725192e-06
-4.15436536654e-05
-4.18588096816e-06
-1.09179752546e-05
-3.48721920397e-05
-1.98413747224e-06
-1.43730084834e-05
-2.2583204641e-05
-4.31732216268e-07
-1.71476667155e-05
-9.07435837672e-06
-1.87359692754e-05
-3.09231468748e-07
-2.39898108182e-06
-1.6337223573e-05
4.94057046096e-06
-5.16180038312e-06
-1.28058380062e-05
1.33757599869e-05
-7.93564070071e-06
-4.97688458158e-06
2.61129697046e-05
-1.06583749865e-05
5.95007213447e-06
3.73712306542e-05
-1.28615708426e-05
1.62405242806e-05
4.27407023849e-05
-1.36713700551e-05
2.21412426615e-05
4.05124761046e-05
-1.54008697324e-05
2.53250706112e-05
3.44144745521e-05
-1.21685329636e-05
2.36632450119e-05
1.98759697492e-05
-1.08613596079e-05
2.16176683983e-05
1.31339160883e-05
-7.91400882621e-06
1.70692569678e-05
2.71693879436e-06
-8.80231959478e-06
1.30095720851e-05
-2.81335985322e-06
-1.34408340275e-05
1.03391196389e-05
-8.94957557189e-06
-2.36528272364e-05
7.99314523115e-06
-1.2197529992e-05
-1.92367360838e-05
-2.76367221884e-06
-3.53302063973e-05
-1.27582627112e-05
-7.18086372458e-06
-4.37920057937e-05
-8.74571984523e-06
-1.00354591768e-05
-4.31817152927e-05
-5.11939456214e-06
-1.33327192742e-05
-3.67966545986e-05
-2.34594009817e-06
-1.64488570548e-05
-2.41812161155e-05
-5.60148792e-07
-1.89967915006e-05
-1.02080996068e-05
-2.04111009096e-05
-9.64174208856e-07
-2.40374828975e-06
-1.63861080024e-05
4.55932853818e-06
-5.27574461019e-06
-1.27638111672e-05
1.31594761777e-05
-8.21913671249e-06
-4.64646547862e-06
2.61382509791e-05
-1.11191104304e-05
6.79009202575e-06
3.76903522502e-05
-1.34695746773e-05
1.74688562972e-05
4.32888354691e-05
-1.42654826427e-05
2.34410091628e-05
4.09850639617e-05
-1.55712523666e-05
2.62987385577e-05
3.52441632993e-05
-1.22312175208e-05
2.44848422514e-05
2.12381642847e-05
-1.22560297179e-05
2.07732174197e-05
1.61646257092e-05
-1.0150177795e-05
1.63055757606e-05
3.84875608677e-06
-1.11772194927e-05
1.18544630659e-05
-2.73133760808e-06
-1.41256064687e-05
8.01955517129e-06
-9.74995708105e-06
-2.28133576645e-05
4.47429383819e-06
-1.29157274348e-05
-1.86908756719e-05
-3.72894688723e-06
-3.78049985152e-05
-1.28429483921e-05
-8.69905138941e-06
-4.56174949953e-05
-9.03313395536e-06
-1.17083333689e-05
-4.41936458127e-05
-5.30616480618e-06
-1.50587940349e-05
-3.75859689005e-05
-2.4031746236e-06
-1.80844151623e-05
-2.47510429412e-05
-5.81307716973e-07
-2.04594226389e-05
-1.06306483721e-05
-2.16906015432e-05
-1.38113309241e-06
-2.40323449157e-06
-1.60132598883e-05
4.13709402724e-06
-5.33100201783e-06
-1.23945410064e-05
1.28878329309e-05
-8.36301385687e-06
-4.19604514566e-06
2.61102296285e-05
-1.13077796611e-05
7.44534241175e-06
3.79208885096e-05
-1.36505468355e-05
1.82078643454e-05
4.37702683985e-05
-1.427296279e-05
2.40112245042e-05
4.1541236111e-05
-1.53212652568e-05
2.6568862366e-05
3.56903163045e-05
-1.20937484484e-05
2.37124443314e-05
2.29446731578e-05
-1.1795496036e-05
1.81791639857e-05
1.75911706199e-05
-9.98490959556e-06
1.41398261323e-05
5.54610233442e-06
-1.19894437438e-05
1.06434710547e-05
-1.69795849856e-06
-1.61597669068e-05
6.55552049166e-06
-9.38355045511e-06
-2.54851563838e-05
1.8976448218e-06
-1.32202885539e-05
-2.02105348548e-05
-4.48839366666e-06
-3.91629701347e-05
-1.38625621816e-05
-9.48976689073e-06
-4.6845017904e-05
-9.60204668203e-06
-1.28408134958e-05
-4.51847423146e-05
-5.51325720208e-06
-1.62818895448e-05
-3.8450769811e-05
-2.43102311262e-06
-1.92302978939e-05
-2.54199664182e-05
-5.71677290197e-07
-2.14280133006e-05
-1.11621659104e-05
-2.24811491981e-05
-1.86042105388e-06
-2.42574975819e-06
-1.51495406917e-05
3.66872338908e-06
-5.40742050675e-06
-1.16948361776e-05
1.26110297975e-05
-8.49057919883e-06
-3.67500075546e-06
2.60905841492e-05
-1.14052668497e-05
7.81604202481e-06
3.81754634262e-05
-1.40670393124e-05
1.87040746935e-05
4.43320595831e-05
-1.55443431388e-05
2.46497147837e-05
4.23278846025e-05
-1.66649397662e-05
2.66108714518e-05
3.59907205093e-05
-1.28476416945e-05
2.45351975161e-05
2.07597435091e-05
-1.16279528522e-05
1.86745447495e-05
1.35802834193e-05
-1.0089843524e-05
1.50175368185e-05
2.77511891247e-06
-1.25015678839e-05
1.12149639167e-05
-3.07325678789e-06
-1.69881780417e-05
5.82960793502e-06
-9.80538753848e-06
-2.55867949063e-05
-7.79492255881e-07
-1.38465810561e-05
-2.09037790661e-05
-4.34355105209e-06
-3.94756523292e-05
-1.47278068349e-05
-9.6366760592e-06
-4.73167967378e-05
-1.01671629927e-05
-1.34649573045e-05
-4.59932076639e-05
-5.8018067273e-06
-1.69924368537e-05
-3.9239880838e-05
-2.50570316097e-06
-1.98801718776e-05
-2.61298558641e-05
-5.14918533245e-07
-2.1910280124e-05
-1.17799303561e-05
-2.26965009153e-05
-2.37914000614e-06
-2.47014873101e-06
-1.38829128288e-05
3.03964032194e-06
-5.54631471238e-06
-1.10573107455e-05
1.19042980058e-05
-8.62060483706e-06
-3.97073636986e-06
2.54952268104e-05
-1.13068076117e-05
6.46677081442e-06
3.79507045068e-05
-1.33322789814e-05
1.66129277094e-05
4.45586965193e-05
-1.41892323101e-05
2.24709078062e-05
4.31046190249e-05
-1.36318364285e-05
2.36906840674e-05
3.62902725531e-05
-1.41716276425e-05
2.1566082947e-05
2.82021231921e-05
-1.52339432223e-05
1.67200951508e-05
1.77202270989e-05
-1.63417010466e-05
1.25747884171e-05
8.26422935944e-06
-1.86544618522e-05
7.9310175162e-06
3.20642971786e-07
-2.08463642822e-05
1.70145502245e-06
-8.94576127679e-06
-2.46825710328e-05
-3.84726100564e-06
-1.83515967359e-05
-2.08058677516e-05
-6.28173425944e-06
-3.65782025537e-05
-1.57832477865e-05
-1.05337141058e-05
-4.52462914531e-05
-1.09579497046e-05
-1.42172372492e-05
-4.57972930017e-05
-6.25164807298e-06
-1.75548374409e-05
-3.92829643559e-05
-2.68545589779e-06
-2.01878069374e-05
-2.62973846773e-05
-4.93428845424e-07
-2.19659673486e-05
-1.20964935475e-05
-2.2353934119e-05
-2.81433987355e-06
-2.48062989281e-06
-1.2423552127e-05
2.10924779644e-06
-5.64002371586e-06
-1.06570521313e-05
9.69144553527e-06
-8.74040674517e-06
-5.33480116073e-06
2.23176848847e-05
-1.13373631972e-05
3.10211620366e-06
3.45892346927e-05
-1.34572235488e-05
1.20395899186e-05
4.17240623085e-05
-1.51931855362e-05
1.81720835221e-05
4.1352388991e-05
-1.60239574111e-05
1.98516498606e-05
3.48245542975e-05
-1.57254865796e-05
1.82179191878e-05
2.4778825689e-05
-1.58281702253e-05
1.49420975937e-05
1.42376876077e-05
-1.66892371456e-05
1.11869225138e-05
5.23381686941e-06
-1.7892117317e-05
6.76607576869e-06
-4.01939184329e-06
-1.95460649299e-05
1.59555709409e-06
-1.39994771841e-05
-2.13305731574e-05
-3.06140362547e-06
-2.41327748072e-05
-1.89793529385e-05
-6.4345370995e-06
-3.59197082897e-05
-1.50742224817e-05
-1.05358213738e-05
-4.31379278223e-05
-1.06775389096e-05
-1.4190392965e-05
-4.34669647384e-05
-6.20054189486e-06
-1.75197648372e-05
-3.66808272991e-05
-2.66793707071e-06
-1.99527468577e-05
-2.41916508508e-05
-4.31626889905e-07
-2.14938068842e-05
-1.10120798244e-05
-2.14147415305e-05
-2.83958149488e-06
-2.37206881327e-06
-1.06730767169e-05
9.09600425305e-07
-5.44958969337e-06
-9.95880615331e-06
5.97601611988e-06
-8.47641082103e-06
-6.82042819831e-06
1.60163898079e-05
-1.09826966456e-05
-1.02988992425e-06
2.70493865656e-05
-1.28349100223e-05
5.69413067373e-06
3.45053888457e-05
-1.40525151655e-05
1.08160126152e-05
3.58233788934e-05
-1.46686333663e-05
1.26016997178e-05
3.12533084134e-05
-1.5188640858e-05
1.13919934638e-05
2.37758254085e-05
-1.59331676435e-05
8.77844058877e-06
1.54232653751e-05
-1.6904550139e-05
5.69709338696e-06
7.0614904994e-06
-1.79226625966e-05
2.21809025089e-06
-1.7484335108e-06
-1.89764917068e-05
-1.43133299591e-06
-1.11486250292e-05
-1.94668126755e-05
-4.72575717897e-06
-2.09894762899e-05
-1.75207915189e-05
-7.53736906137e-06
-3.09731721777e-05
-1.41831614027e-05
-1.07214008237e-05
-3.70944407431e-05
-1.02067690956e-05
-1.39430707534e-05
-3.67549944115e-05
-6.12720298809e-06
-1.69930865602e-05
-3.01388466223e-05
-2.66824720329e-06
-1.91849491177e-05
-1.92075804816e-05
-4.56137406841e-07
-2.02801562704e-05
-8.62917460908e-06
-1.97921943368e-05
-2.70174433059e-06
-2.20537545256e-06
-8.65814191005e-06
2.11564106486e-07
-4.93938705477e-06
-8.71500128612e-06
2.57204660209e-06
-7.74837985367e-06
-7.5039727644e-06
8.63431023956e-06
-1.01023466152e-05
-4.38084514692e-06
1.6975308173e-05
-1.18151304621e-05
-2.69006559921e-07
2.3707436374e-05
-1.29366871681e-05
3.18999902549e-06
2.60938175364e-05
-1.36435007846e-05
4.55614805747e-06
2.36799514447e-05
-1.43910151951e-05
3.80546788345e-06
1.83171391426e-05
-1.53063024333e-05
2.04309674839e-06
1.18943971661e-05
-1.6259112742e-05
-6.96308133515e-08
5.22396610584e-06
-1.71394211509e-05
-2.32496977999e-06
-1.81153253392e-06
-1.77776519974e-05
-4.56916713296e-06
-9.19816771363e-06
-1.7740157249e-05
-6.6504889529e-06
-1.68263297771e-05
-1.62481377402e-05
-8.59341511172e-06
-2.40024662792e-05
-1.3457119609e-05
-1.0882494165e-05
-2.81706399943e-05
-9.85565807277e-06
-1.35528352098e-05
-2.71629243265e-05
-6.14656537298e-06
-1.60077271011e-05
-2.13974266718e-05
-2.9031513339e-06
-1.76830819712e-05
-1.31329564093e-05
-5.86199981771e-07
-1.82648323727e-05
-6.48125108752e-06
-1.7380660299e-05
-3.0520508016e-06
-2.07484398957e-06
-6.67403290199e-06
9.06667095483e-08
-4.45219089968e-06
-6.93064130286e-06
7.27747848604e-07
-6.94611662563e-06
-6.7882657677e-06
2.96113734647e-06
-9.12221649753e-06
-5.83491127953e-06
7.46685103717e-06
-1.0800013154e-05
-3.98672879643e-06
1.21669301597e-05
-1.19897041664e-05
-2.21250900362e-06
1.45829154278e-05
-1.28813806746e-05
-1.44984642682e-06
1.37645111604e-05
-1.37642138829e-05
-1.88565681633e-06
1.06357650606e-05
-1.47414210315e-05
-2.84849112411e-06
6.59404422434e-06
-1.56695432983e-05
-4.08464814665e-06
2.33170767932e-06
-1.64284747465e-05
-5.41871879575e-06
-2.09527639435e-06
-1.68020942426e-05
-6.71701333799e-06
-6.76303433296e-06
-1.6558560963e-05
-7.94029370598e-06
-1.15747612572e-05
-1.52375272463e-05
-9.17867451049e-06
-1.59899723412e-05
-1.28056835989e-05
-1.07219785343e-05
-1.82591542875e-05
-9.69529227267e-06
-1.25478928263e-05
-1.71201772173e-05
-6.38455346729e-06
-1.41952557174e-05
-1.31216936065e-05
-3.29656013102e-06
-1.51500245698e-05
-8.57019734765e-06
-8.07437074801e-07
-1.52118984491e-05
-5.94834970039e-06
-1.42451122987e-05
-3.94302020337e-06
-2.06320433106e-06
-4.77830790584e-06
1.67516922406e-07
-4.25904051175e-06
-5.06011440895e-06
3.25306053697e-07
-6.38438627625e-06
-5.17423480378e-06
6.09427053706e-07
-8.38869944457e-06
-5.10319432467e-06
1.74927072276e-06
-1.00678835355e-05
-4.83506899114e-06
3.72121379112e-06
-1.14005676743e-05
-4.35693859477e-06
5.18355339549e-06
-1.24999457843e-05
-4.16799772945e-06
5.18543260218e-06
-1.350313609e-05
-4.46713813726e-06
3.86804551728e-06
-1.4435523357e-05
-5.03537102646e-06
2.07497763314e-06
-1.52595667803e-05
-5.7079227581e-06
7.53249177971e-08
-1.58526681222e-05
-6.41904123844e-06
-2.10629615002e-06
-1.60452871183e-05
-7.11620846726e-06
-4.43577006696e-06
-1.56894334553e-05
-7.75820026632e-06
-6.89323615279e-06
-1.44837660105e-05
-8.48557394823e-06
-9.13263855439e-06
-1.23936131983e-05
-9.36428793857e-06
-1.02079841735e-05
-9.69971839065e-06
-1.03216183062e-05
-9.61607944846e-06
-6.75940227008e-06
-1.10719570533e-05
-8.09059715244e-06
-3.80372931935e-06
-1.14144132893e-05
-7.06087809189e-06
-1.06506325256e-06
-1.13534786918e-05
-6.59715249104e-06
-1.05349112202e-05
-4.77544747476e-06
-2.09312039858e-06
-3.01149697902e-06
3.26269289873e-07
-4.20567260653e-06
-3.29545031153e-06
3.47903881981e-07
-6.24208910036e-06
-3.4307393154e-06
2.92875652231e-07
-8.06906606263e-06
-3.50403385758e-06
2.35374158726e-07
-9.70204696047e-06
-3.5191819257e-06
3.63777057191e-07
-1.11131201123e-05
-3.54373262342e-06
6.59741603406e-07
-1.22913998555e-05
-3.71362392632e-06
6.52777376861e-07
-1.33197139303e-05
-3.97256774775e-06
2.33544286306e-07
-1.42123889544e-05
-4.28871782899e-06
-4.04354582632e-07
-1.49273231027e-05
-4.63929178208e-06
-1.15439420396e-06
-1.53786525066e-05
-4.98166366901e-06
-2.03697122657e-06
-1.54517214112e-05
-5.29489890952e-06
-3.0492932799e-06
-1.49836877115e-05
-5.59603774681e-06
-4.18149895883e-06
-1.38695826967e-05
-5.88549976847e-06
-5.3300792086e-06
-1.2080875387e-05
-6.19626843529e-06
-6.1492791588e-06
-9.76231954468e-06
-6.53834902297e-06
-6.55115008411e-06
-7.10264169745e-06
-6.85950246267e-06
-6.91295181371e-06
-4.14786467104e-06
-7.08545482519e-06
-7.28373508357e-06
-1.31060412411e-06
-7.08726922073e-06
-7.10346846753e-06
-6.58194467616e-06
-5.26395437281e-06
-2.04500387439e-06
-1.42403800895e-06
4.57552929462e-07
-4.13179596925e-06
-1.62408254292e-06
4.15423840075e-07
-6.16348489035e-06
-1.72740504774e-06
3.2835291531e-07
-8.03593174969e-06
-1.81778851509e-06
1.86201143542e-07
-9.68400306603e-06
-1.87858376556e-06
7.47207925069e-09
-1.1086460383e-05
-1.94324043418e-06
-1.98069228764e-07
-1.22782456715e-05
-2.06682660422e-06
-4.55014119976e-07
-1.32872979652e-05
-2.20626767447e-06
-7.572484791e-07
-1.41087756483e-05
-2.34985651906e-06
-1.11733258878e-06
-1.47194065571e-05
-2.47710016954e-06
-1.55157847634e-06
-1.50488437523e-05
-2.55141053075e-06
-2.10081596554e-06
-1.49955502026e-05
-2.58431216616e-06
-2.76389860028e-06
-1.44879418522e-05
-2.57546093722e-06
-3.5281662855e-06
-1.34128470834e-05
-2.54074642729e-06
-4.41984917982e-06
-1.17856563272e-05
-2.50480974812e-06
-5.31864978524e-06
-9.62606724699e-06
-2.53718760653e-06
-6.1607504775e-06
-7.03193178982e-06
-2.62570854812e-06
-6.82827478522e-06
-4.19335914099e-06
-2.77923395859e-06
-7.14513630443e-06
-1.49687469216e-06
-2.95194909953e-06
-6.83140903246e-06
-2.90495829803e-06
-5.17427681884e-06
-1.91067377095e-06
4.8662661109e-07
-3.95400611147e-06
4.19249190756e-07
-6.02177406952e-06
3.40361876068e-07
-7.95066820908e-06
1.11104884723e-07
-9.66111578459e-06
-1.68140208418e-07
-1.10882119314e-05
-5.16139800825e-07
-1.22486694745e-05
-9.06359509057e-07
-1.31586730798e-05
-1.29626765029e-06
-1.38372871091e-05
-1.67127044969e-06
-1.42573240062e-05
-2.05706380831e-06
-1.43549580714e-05
-2.4537769986e-06
-1.41357150397e-05
-2.80356632435e-06
-1.34704411428e-05
-3.24072098584e-06
-1.23378396937e-05
-3.67334735119e-06
-1.07161586763e-05
-4.12649139345e-06
-8.65489373812e-06
-4.59845125462e-06
-6.24407474006e-06
-5.03647514108e-06
-3.6791362482e-06
-5.34411818192e-06
-1.41388180288e-06
-5.21743073052e-06
-4.31899160574e-06
-1.45453191301e-06
-3.62885649411e-06
9.87907401917e-06
-3.03632817719e-06
-3.47049514055e-06
9.87874507974e-06
-4.58466501865e-06
-3.35096067879e-06
9.65090347013e-06
-5.90831617347e-06
-3.23957928623e-06
9.20802575258e-06
-6.93674526969e-06
-2.72277171265e-06
8.83731717376e-06
-7.70430040142e-06
-1.76382871103e-06
8.52710007561e-06
-8.22981185927e-06
-1.03927626328e-06
7.98572136881e-06
-8.51994358536e-06
-8.65219156837e-07
7.25497785352e-06
-8.50125739218e-06
-9.52773450988e-07
6.59755747155e-06
-8.25533748134e-06
-9.80235504657e-07
5.92797519266e-06
-7.82441910993e-06
-9.93967949552e-07
5.22880205372e-06
-7.27698950127e-06
-9.35840917183e-07
4.62570143679e-06
-6.62544267881e-06
-8.83478291729e-07
4.04759885459e-06
-5.91190113876e-06
-9.71567067894e-07
3.59898178131e-06
-5.07392105295e-06
-1.59983391671e-06
3.54266211808e-06
-4.06128804763e-06
-2.55427635982e-06
3.93949852093e-06
-2.9195056996e-06
-3.13407973744e-06
4.31349603518e-06
-1.78065225026e-06
-3.27295155702e-06
4.49069341091e-06
-7.30933932153e-07
-3.25283071433e-06
4.64085388775e-06
-3.1049879454e-06
4.86934926769e-06
-1.70116352036e-06
-6.82539851489e-06
9.43233121206e-06
-3.32612965327e-06
-6.75001965744e-06
1.00288460806e-05
-4.82438387706e-06
-6.28212025587e-06
1.01409268753e-05
-6.09153837868e-06
-4.7143169761e-06
1.05541795524e-05
-7.18395057939e-06
-1.95933189243e-06
1.13820571495e-05
-8.06816514919e-06
7.8851355425e-07
1.18526798663e-05
-8.6699128009e-06
2.45453428006e-06
1.12009776814e-05
-8.9569525218e-06
2.84127079647e-06
9.63304570899e-06
-8.94923370951e-06
2.66733956554e-06
7.87309204261e-06
-8.70714525095e-06
2.58693229676e-06
6.11169621075e-06
-8.27932783937e-06
2.57324311627e-06
4.37083903813e-06
-7.70142745559e-06
2.64355846594e-06
2.63778278234e-06
-7.01824995743e-06
2.75505554894e-06
9.05197054513e-07
-6.24948378337e-06
2.53165937987e-06
-5.58711780376e-07
-5.30004558004e-06
1.08921641638e-06
-9.92714514968e-07
-4.27633692285e-06
-1.48805222312e-06
9.14370583657e-08
-3.16125105353e-06
-4.24617028681e-06
1.90722569466e-06
-2.03989481904e-06
-5.96923300334e-06
3.34093347481e-06
-9.60477621965e-07
-6.36269046363e-06
3.97074273216e-06
-6.22912906703e-06
4.61182525396e-06
-1.68576935326e-06
-9.74342041236e-06
8.85348525316e-06
-3.31941570968e-06
-9.40148344186e-06
9.91087779659e-06
-4.86074156055e-06
-7.34999045632e-06
1.15235145396e-05
-6.3469947032e-06
-3.14801896714e-06
1.44943317665e-05
-7.74319292576e-06
1.97347164845e-06
1.74053940681e-05
-8.91675825554e-06
6.41558389146e-06
1.83761003879e-05
-9.6361272886e-06
8.91519773895e-06
1.68778251997e-05
-9.92411872732e-06
9.4258418288e-06
1.36089697747e-05
-9.90432350396e-06
9.15041964655e-06
9.95421078188e-06
-9.64270340592e-06
9.02033408637e-06
6.37658318094e-06
-9.18430946122e-06
8.96736134946e-06
2.84789329704e-06
-8.54233638571e-06
9.00604392709e-06
-7.11111952261e-07
-7.82193463719e-06
9.15635291853e-06
-4.34337757168e-06
-7.01176246311e-06
8.85258547844e-06
-7.50122887482e-06
-5.89801339275e-06
6.64106588627e-06
-9.00483110906e-06
-4.61916421637e-06
2.55138256389e-06
-7.59251139957e-06
-3.35389799118e-06
-2.42573383329e-06
-3.66751697364e-06
-2.14995582289e-06
-6.73537994201e-06
6.39722141546e-07
-1.03943875262e-06
-8.9487678961e-06
3.25970297839e-06
-9.30781747602e-06
4.5450517331e-06
-1.65782148203e-06
-1.22128024719e-05
8.23303200132e-06
-3.34251469111e-06
-1.08132156936e-05
1.05819142192e-05
-5.18336827401e-06
-6.4439580485e-06
1.53891867468e-05
-7.08839657308e-06
1.72658859458e-07
2.14835925744e-05
-9.00029370241e-06
7.30747689541e-06
2.58104880031e-05
-1.05717664444e-05
1.30323665204e-05
2.65978262877e-05
-1.14539197485e-05
1.59705124728e-05
2.36233470156e-05
-1.16198035571e-05
1.64347022047e-05
1.8148574368e-05
-1.15526084831e-05
1.61156332329e-05
1.21504865648e-05
-1.12293680881e-05
1.58996816321e-05
6.38578338003e-06
-1.06676839421e-05
1.57352924928e-05
7.21332931496e-07
-9.96034841428e-06
1.57699010942e-05
-5.00807629943e-06
-9.11030419002e-06
1.58950624059e-05
-1.08502698095e-05
-8.27143503449e-06
1.56279194773e-05
-1.5884477992e-05
-6.89066430175e-06
1.28453687873e-05
-1.90050629486e-05
-5.34375389073e-06
7.677909461e-06
-1.78568095927e-05
-3.72961905239e-06
8.61861714268e-07
-1.25267831058e-05
-2.26651947754e-06
-5.81960315718e-06
-4.96852389902e-06
-1.06641325304e-06
-1.04710005125e-05
1.26498620094e-06
-1.21897423357e-05
4.11899615638e-06
-1.66321794902e-06
-1.3875096566e-05
8.00205736368e-06
-3.59779256898e-06
-1.1156448331e-05
1.27031021333e-05
-5.87679811619e-06
-4.82336471938e-06
2.11317339039e-05
-8.3710545443e-06
3.62937736825e-06
2.96274245535e-05
-1.0827216846e-05
1.21369261646e-05
3.46586147233e-05
-1.28288907877e-05
1.8512381342e-05
3.46299277745e-05
-1.39016302068e-05
2.14426481211e-05
2.99208973476e-05
-1.38409302256e-05
2.15736580598e-05
2.18979680613e-05
-1.37739363179e-05
2.15324423527e-05
1.34095331437e-05
-1.33776213541e-05
2.11854840275e-05
5.27972546058e-06
-1.26085556191e-05
2.07821039437e-05
-2.69166519927e-06
-1.15284013125e-05
2.06495009102e-05
-1.06419567587e-05
-1.02803789005e-05
2.07490178941e-05
-1.85110396246e-05
-9.63915040236e-06
2.08260089491e-05
-2.43322018494e-05
-8.07017273628e-06
1.77467755817e-05
-2.90825578946e-05
-6.20597921643e-06
1.20333491267e-05
-2.84666736672e-05
-4.23777974628e-06
3.95281165137e-06
-2.23924013918e-05
-2.46080003279e-06
-4.53089483381e-06
-1.23686565582e-05
-1.0650183012e-06
-1.12047585642e-05
-2.35536720674e-06
-1.44945050293e-05
3.18490138193e-06
-1.77679577241e-06
-1.50009575663e-05
8.29392835811e-06
-4.05338067058e-06
-1.12298869485e-05
1.55142984918e-05
-6.87070589034e-06
-3.629297262e-06
2.67571242054e-05
-1.00231018227e-05
5.97552715045e-06
3.68624465243e-05
-1.30168151186e-05
1.51542801458e-05
4.19456131254e-05
-1.51532548791e-05
2.13333358347e-05
4.08550486661e-05
-1.62424284154e-05
2.33322620916e-05
3.48753098467e-05
-1.50944250455e-05
2.14575596202e-05
2.54444191748e-05
-1.45486923165e-05
2.22178696071e-05
1.58824601567e-05
-1.38264644572e-05
2.23284062127e-05
6.15492995224e-06
-1.31605541197e-05
2.2834244174e-05
-3.90750785075e-06
-1.27149331162e-05
2.35981084442e-05
-1.39771970085e-05
-1.24517092459e-05
2.43760437824e-05
-2.37316980035e-05
-1.14421756608e-05
2.22943887897e-05
-2.98344205387e-05
-9.32106634764e-06
1.96089267262e-05
-3.70312814552e-05
-7.15210946697e-06
1.41759866947e-05
-3.72293632475e-05
-4.79677325729e-06
5.53605463928e-06
-3.0970322029e-05
-2.6856163019e-06
-3.98654807445e-06
-1.9368097622e-05
-1.10756511945e-06
-1.1989501891e-05
-6.59326548217e-06
-1.64105532642e-05
1.63587766873e-06
-1.93672306492e-06
-1.5868896371e-05
8.39879749223e-06
-4.55958349409e-06
-1.16843851889e-05
1.74225156011e-05
-7.89074725571e-06
-3.52668582229e-06
3.03872890314e-05
-1.17355887082e-05
6.73029015711e-06
4.13151182366e-05
-1.52768669903e-05
1.65283626969e-05
4.58564448385e-05
-1.78631421463e-05
2.29593098497e-05
4.27984601953e-05
-2.00356474337e-05
2.56704286246e-05
3.44318138618e-05
-1.8375710621e-05
2.44079544416e-05
1.83821509578e-05
-1.79071202221e-05
2.78439294069e-05
5.49523842978e-06
-1.64994728925e-05
2.74231839529e-05
-7.65543053989e-06
-1.43618213225e-05
2.71036866941e-05
-1.9999267807e-05
-1.14595849062e-05
2.70424569982e-05
-3.14127464082e-05
-8.40090425204e-06
2.85748502852e-05
-4.21285991137e-05
-9.31004908136e-06
2.34873150053e-05
-3.60424271949e-05
-8.70321005769e-06
2.11903975609e-05
-4.43246493521e-05
-7.28766272724e-06
1.48588944018e-05
-4.34319597717e-05
-5.07844069771e-06
5.42161456703e-06
-3.69267639512e-05
-2.87661382739e-06
-4.76167337735e-06