/*--------------------------------*- C++ -*----------------------------------*\
| =========                 |                                                 |
| \\      /  F ield         | OpenFOAM: The Open Source CFD Toolbox           |
|  \\    /   O peration     | Version:  v1606+                                |
|   \\  /    A nd           | Web:      www.OpenFOAM.com                      |
|    \\/     M anipulation  |                                                 |
\*---------------------------------------------------------------------------*/
FoamFile
{
    version     2.0;
    format      ascii;
    class       volScalarField;
    location    "1.16";
    object      Theta.particles;
}
// * * * * * * * * * * * * * * * * * * * * * * * * * * * * * * * * * * * * * //

dimensions      [0 2 -2 0 0 0 0];

internalField   nonuniform List<scalar> 
6000
(
0.000347265
0.000227945
0.000242567
0.000273558
0.000324747
0.000472683
0.000771146
0.000947818
0.000937756
0.000945375
0.000928425
0.000909682
0.000892524
0.000853478
0.000809015
0.000764073
0.000731169
0.000810966
0.000950202
0.00100836
0.00100924
0.000831868
0.000558082
0.000373195
0.000282083
0.000227944
0.000203162
0.000184501
0.000185724
0.000275032
0.00022334
0.000204968
0.000191338
0.000187946
0.000205716
0.000236619
0.000244911
0.000238604
0.00022949
0.000224785
0.000222557
0.000220806
0.00021668
0.000210291
0.000204005
0.000198293
0.000196859
0.000205317
0.00021853
0.000228851
0.000235574
0.000236635
0.000228004
0.000212069
0.000187891
0.000177897
0.000185923
0.000200564
0.000217052
0.000230027
0.00049441
0.000505336
0.000384988
0.00026797
0.000211521
0.000210092
0.000225285
0.000226466
0.000214171
0.000196008
0.000188462
0.000181703
0.000167582
0.00015249
0.0001449
0.000148485
0.000160634
0.000175815
0.000192162
0.00020385
0.000207926
0.000203095
0.000192812
0.000188921
0.00020559
0.000282349
0.000399633
0.000495812
0.000557124
0.000534203
0.000522179
0.000522055
0.000459613
0.000358053
0.000228683
0.000196479
0.00021129
0.000210862
0.000191259
0.000175171
0.000168385
0.00016052
0.00014535
0.000130901
0.000124276
0.000126234
0.000133873
0.00014972
0.000166326
0.000180344
0.000190871
0.000187365
0.000173871
0.000174637
0.000259484
0.000421291
0.000493236
0.000483501
0.000481798
0.000485391
0.000475747
0.000457439
0.000465355
0.00051984
0.000492222
0.000265808
0.000212664
0.000202251
0.00017739
0.00015971
0.000155332
0.000151845
0.00014228
0.000132424
0.000130752
0.000137388
0.000142836
0.000156716
0.000171342
0.000182339
0.000190228
0.000186907
0.000179142
0.000278805
0.000557711
0.000516239
0.000428207
0.000398515
0.000387982
0.000415511
0.000375557
0.000350725
0.00037452
0.000394311
0.00051635
0.000512209
0.000253535
0.000186682
0.000163188
0.000151841
0.000156105
0.000166917
0.0001787
0.000193815
0.000210792
0.00022067
0.000227031
0.000227699
0.000220454
0.000210795
0.000202408
0.000205217
0.000233772
0.00042605
0.000482411
0.000374516
0.000335417
0.00030908
0.000291889
0.000319322
0.000313611
0.000294231
0.000307672
0.00033478
0.000372416
0.000463002
0.000341977
0.000190215
0.000172055
0.000180039
0.000202885
0.000227734
0.000252875
0.000308703
0.000382028
0.000449005
0.000476495
0.000443124
0.000361252
0.000301593
0.000267293
0.000236275
0.000298639
0.000449138
0.000399429
0.000332308
0.000285922
0.000262816
0.00024962
0.000266381
0.000259324
0.000261171
0.000271292
0.000300515
0.000331912
0.000379909
0.000352714
0.000189657
0.000183725
0.000217732
0.000262497
0.000340586
0.000511902
0.000637519
0.000663106
0.000677498
0.000699723
0.000753332
0.000774072
0.000577839
0.000395043
0.000312681
0.00040513
0.000471205
0.000401135
0.00031009
0.000249074
0.000228302
0.000220021
0.000219816
0.000215007
0.000232569
0.000242949
0.000274389
0.000329076
0.000380883
0.000354431
0.000210171
0.000217106
0.000286138
0.000472885
0.000785415
0.000856041
0.000654257
0.000507381
0.000430542
0.000425862
0.000474349
0.000601362
0.000685043
0.000667959
0.000513391
0.000512008
0.000527144
0.000410387
0.000283686
0.00022187
0.000204445
0.000199398
0.000194509
0.000190567
0.000214977
0.000224858
0.000255204
0.000323945
0.000399004
0.000382792
0.000288025
0.000343364
0.000520881
0.000775368
0.000690351
0.000446855
0.000317485
0.000246153
0.000217714
0.000225791
0.000272509
0.000362717
0.000506488
0.000598445
0.000608024
0.000609463
0.00052995
0.000376722
0.000262272
0.000209477
0.000192613
0.000183663
0.000178147
0.000174906
0.000201473
0.000220551
0.000250927
0.000314575
0.000394211
0.000427144
0.000476548
0.000635278
0.000645033
0.000540433
0.00037682
0.00027121
0.000197538
0.000153646
0.000135306
0.000139344
0.000183519
0.000311893
0.000501055
0.000639406
0.000688781
0.000595813
0.000456445
0.000306491
0.000224383
0.000194158
0.000182808
0.000168931
0.000165398
0.000159936
0.000183391
0.000211576
0.000241549
0.000287426
0.000359911
0.000456206
0.000617754
0.000676749
0.000687639
0.000478358
0.000300111
0.00019653
0.000142288
0.000113361
9.66597e-05
9.11202e-05
0.000128351
0.000256019
0.000502865
0.000650644
0.000731461
0.000650123
0.000392118
0.000234951
0.000169177
0.000158934
0.000156961
0.000145191
0.000149666
0.000138608
0.000153147
0.000178873
0.000201765
0.000233331
0.000301155
0.000418407
0.000608503
0.000812008
0.000739765
0.000482301
0.000251131
0.000146092
0.000106542
8.66741e-05
7.09553e-05
6.11281e-05
8.38947e-05
0.000198636
0.000470641
0.000640705
0.000729503
0.000653563
0.000403144
0.000181078
0.000120214
0.000115093
0.00011808
0.000114511
0.000129002
0.000113235
0.000117174
0.000134036
0.000148549
0.000175889
0.000235253
0.000349817
0.000663377
0.000846608
0.000744262
0.000503878
0.000231549
0.000115574
8.07392e-05
6.54528e-05
5.53214e-05
4.98424e-05
6.19769e-05
0.0001527
0.000420369
0.000574701
0.000672212
0.000620933
0.000376467
0.000139019
8.18417e-05
8.23095e-05
8.57966e-05
8.86e-05
0.000105087
8.89863e-05
8.6178e-05
9.15519e-05
9.94084e-05
0.000119872
0.00016502
0.000288532
0.000647079
0.000783501
0.000711745
0.000533203
0.000231038
0.000102784
6.37773e-05
5.30329e-05
5.06824e-05
5.27553e-05
6.68674e-05
0.000134989
0.000360706
0.000510097
0.000599852
0.000546028
0.000339883
0.000115975
6.10478e-05
6.33542e-05
6.53935e-05
6.87465e-05
8.09111e-05
7.25446e-05
6.44429e-05
6.56576e-05
6.77996e-05
7.4663e-05
0.000111534
0.000234245
0.000553423
0.000653263
0.000632803
0.000518531
0.000290097
0.000122908
5.82927e-05
5.46043e-05
6.40716e-05
8.02891e-05
0.000106655
0.000206505
0.000321741
0.000489112
0.000529275
0.000474866
0.00028114
0.000115063
5.8327e-05
5.67062e-05
5.48809e-05
5.47905e-05
6.51292e-05
6.1997e-05
5.45871e-05
6.0824e-05
6.24274e-05
5.39304e-05
8.03767e-05
0.000206222
0.00043321
0.000537948
0.000549097
0.000481442
0.000322136
0.000202858
0.000177353
0.000141709
0.000153965
0.000215955
0.000436198
0.000610727
0.000712039
0.000624051
0.000607644
0.000480335
0.000304932
0.000133241
8.36567e-05
7.72551e-05
6.67111e-05
5.82854e-05
6.55593e-05
6.35784e-05
6.10157e-05
8.13411e-05
9.55865e-05
7.00163e-05
7.47708e-05
0.000208669
0.000329339
0.00042325
0.000436375
0.000406414
0.000306469
0.000281668
0.000519586
0.000451015
0.000265177
0.000314666
0.000488524
0.000746783
0.00131361
0.00130441
0.00118357
0.000992528
0.000688936
0.000511605
0.000253747
0.000168598
0.000114628
7.04903e-05
7.55257e-05
0.000111168
9.42876e-05
0.000179788
0.000742093
0.0007004
0.000621325
0.000626794
0.000525819
0.000501719
0.000505985
0.000455076
0.000466769
0.000857577
0.000905016
0.000365552
0.000179564
0.000199018
0.000345937
0.000482518
0.000608056
0.000830276
0.000905872
0.00104122
0.000979371
0.000682803
0.00052824
0.000521244
0.000296724
8.22258e-05
7.0085e-05
0.000127031
0.000174902
0.000439791
0.000532876
0.000648315
0.000795973
0.00120698
0.0012562
0.00100019
0.000970074
0.000947248
0.00107639
0.00121399
0.000768148
0.000259677
0.000141003
0.000153286
0.000290209
0.000374089
0.000460095
0.000532319
0.00058895
0.000554278
0.000497912
0.000384815
0.000322055
0.00025844
0.000222854
0.000180228
7.94861e-05
0.000150285
0.000176308
0.000235191
0.000239876
0.000246988
0.000273767
0.000441085
0.000813566
0.000898736
0.000860509
0.000882272
0.0008844
0.000786956
0.000481524
0.000227598
0.000120786
0.000139574
0.000252191
0.000328927
0.000377555
0.000411187
0.000433027
0.000415911
0.00035541
0.000290239
0.000230079
0.000170071
0.000116814
0.000103674
0.000133043
0.000147796
0.000100325
0.000162049
0.000188363
0.000187074
0.00020288
0.000282244
0.000431471
0.000580826
0.000633743
0.000644378
0.000622374
0.000543637
0.000365765
0.000166125
0.000105706
0.00013183
0.000192442
0.000282511
0.000323014
0.000347345
0.000355892
0.000342777
0.00031003
0.000261098
0.00019847
0.000130689
0.000101193
7.39979e-05
8.62813e-05
8.00665e-05
9.47511e-05
0.00012939
0.000156331
0.000162147
0.000176275
0.000241022
0.000353348
0.000462116
0.000502418
0.000514219
0.000522939
0.000414934
0.000250809
0.000147282
9.9696e-05
0.000111434
0.000165256
0.000217568
0.000262265
0.000291139
0.000307203
0.00030495
0.000277976
0.000226156
0.000154432
0.000117542
9.3134e-05
7.69229e-05
6.8516e-05
7.84411e-05
9.91955e-05
0.000124098
0.000135189
0.000136404
0.000137899
0.000189267
0.000299986
0.000437093
0.000473509
0.000480652
0.000447161
0.000312955
0.000176794
0.000111953
8.89464e-05
0.000112839
0.000148339
0.000173818
0.000193954
0.000224155
0.000246974
0.000249963
0.000221539
0.000174175
0.000138474
0.000110915
9.20493e-05
8.05e-05
7.52005e-05
9.66735e-05
0.000107515
0.00012635
0.000134309
0.000134195
0.000139668
0.000160202
0.000242704
0.00035183
0.000423138
0.000437343
0.000353289
0.000225555
0.00014339
0.000109482
9.43274e-05
0.000113119
0.000139499
0.000157909
0.000172622
0.000185788
0.000195727
0.000197404
0.000183768
0.000157946
0.000132363
0.0001122
9.69929e-05
8.68077e-05
8.46575e-05
0.000119898
0.000119331
0.000137057
0.000147367
0.000147019
0.000147561
0.000159391
0.000191883
0.000276636
0.000331431
0.000334339
0.000264662
0.000177131
0.000138438
0.000113245
0.000102571
0.000116019
0.000135652
0.000149258
0.000160352
0.00016995
0.000178243
0.000179865
0.000169798
0.000152335
0.000134126
0.00011813
0.000108642
0.000103648
0.000102042
0.000153154
0.000147465
0.00015511
0.00015742
0.000161128
0.000164562
0.000174954
0.000196417
0.000224132
0.000244421
0.000244949
0.000214134
0.000175842
0.00014571
0.00012396
0.000114398
0.000122618
0.000137026
0.000147579
0.000156838
0.000165129
0.000172405
0.000174099
0.000167535
0.000154456
0.000138747
0.000133315
0.000125784
0.000120628
0.000121472
0.000175983
0.000167872
0.000175728
0.000185835
0.000192133
0.000194604
0.000193398
0.000213302
0.000238761
0.000249837
0.000247114
0.000220916
0.000187597
0.000157241
0.000136293
0.000130572
0.00013346
0.000141783
0.000150211
0.000158592
0.00016636
0.000172704
0.000173614
0.000167567
0.000164771
0.00015724
0.000147328
0.000139143
0.000134869
0.000137781
0.000191447
0.000183753
0.000192408
0.000206794
0.000222788
0.000241028
0.000261553
0.000282009
0.000288592
0.000272739
0.000261422
0.000229821
0.000204913
0.000186024
0.00017078
0.000163957
0.000163933
0.000168128
0.000172992
0.0001779
0.000182412
0.000186634
0.000188254
0.000184519
0.000176157
0.000165832
0.000156439
0.000149473
0.000146356
0.000151136
0.000200957
0.000196281
0.000206218
0.000223168
0.000244083
0.000270578
0.000300485
0.000329564
0.000349381
0.000343553
0.000319699
0.000282935
0.00024567
0.000215625
0.000196194
0.000185894
0.000182243
0.000182963
0.000185759
0.00018913
0.000192143
0.000193573
0.000191811
0.000186486
0.000178754
0.000170374
0.000162854
0.000157388
0.000155557
0.000161839
0.000205185
0.000204393
0.000214839
0.000234439
0.000259553
0.000288577
0.000315961
0.000334759
0.000343582
0.000335918
0.000312737
0.000278897
0.000246909
0.000222737
0.00020589
0.00019536
0.000190108
0.000188613
0.000189182
0.000190492
0.000191498
0.00019157
0.000189543
0.000185314
0.000179531
0.000173245
0.000167526
0.000163491
0.000162837
0.000170153
0.000202252
0.000204826
0.00021727
0.000240423
0.000265339
0.000273058
0.000276409
0.000283479
0.000292366
0.000299118
0.000283269
0.000258712
0.000236056
0.000218445
0.000205588
0.000197149
0.000192264
0.000190057
0.000189386
0.000189549
0.000189707
0.000189118
0.000187302
0.00018412
0.000179891
0.000175261
0.000171038
0.000168231
0.000168562
0.000176445
0.000189682
0.000196802
0.00021227
0.000236849
0.00023387
0.000233821
0.000241689
0.000244298
0.000238725
0.000239167
0.000241885
0.000231588
0.000218683
0.000207699
0.000199731
0.000194206
0.00019075
0.000188893
0.000188146
0.000187886
0.000187639
0.000186954
0.000185503
0.000183169
0.000180119
0.000176772
0.000173742
0.000171934
0.000173058
0.000181049
0.000169781
0.000179252
0.000192267
0.000211616
0.000248201
0.000265428
0.000250426
0.000234275
0.000222646
0.000203104
0.000199012
0.000201098
0.000197739
0.000193614
0.000190422
0.000188153
0.000186802
0.000186063
0.000185753
0.000185645
0.000185475
0.00018499
0.000183989
0.000182388
0.000180276
0.000177937
0.000175857
0.000174851
0.00017658
0.000184252
0.000144398
0.000150777
0.000155743
0.000238024
0.000287951
0.000286439
0.000262663
0.000230341
0.000211072
0.000192493
0.000170598
0.000173227
0.000176691
0.000178653
0.000180042
0.000181031
0.000181729
0.000182325
0.000182798
0.000183151
0.000183314
0.000183192
0.000182676
0.000181718
0.000180372
0.000178843
0.000177535
0.000177172
0.000179331
0.000186425
0.000117688
0.000125161
0.000159812
0.000237577
0.000262883
0.000270106
0.000249918
0.000225378
0.000203062
0.000183971
0.000161858
0.000154701
0.000159353
0.000165456
0.000170371
0.00017406
0.000176655
0.000178469
0.000179759
0.000180666
0.00018127
0.000181562
0.000181525
0.000181131
0.000180425
0.000179563
0.000178886
0.000179044
0.000181471
0.00018775
9.49988e-05
0.00011434
0.000170521
0.000209054
0.000222904
0.000238083
0.000226987
0.000207532
0.0001877
0.000178602
0.000156684
0.000145872
0.000148349
0.000155982
0.000162898
0.000168302
0.000172285
0.000175072
0.000177025
0.000178426
0.000179442
0.000180144
0.000180537
0.000180631
0.000180463
0.00018016
0.000180006
0.000180588
0.000183143
0.000188463
0.000100713
0.000151803
0.000159747
0.000175485
0.000202208
0.000215987
0.000204689
0.000183135
0.00016732
0.000161865
0.000153543
0.000142376
0.000144667
0.000151251
0.000158412
0.000164418
0.000169092
0.00017249
0.000174874
0.000176607
0.000177938
0.00017897
0.000179733
0.00018024
0.000180525
0.000180693
0.000180982
0.000181903
0.000184468
0.000188863
0.00013615
0.000297721
0.000224253
0.000168733
0.00019138
0.000209286
0.000208482
0.000187622
0.000158851
0.000149935
0.000149805
0.000140782
0.000145487
0.00015107
0.000156794
0.000162552
0.000167317
0.000170907
0.000173448
0.000175317
0.000176814
0.000178077
0.000179128
0.000179976
0.000180644
0.000181215
0.000181883
0.000183075
0.000185558
0.000189055
0.000199155
0.000284031
0.000479652
0.000377232
0.000273879
0.000241832
0.000208221
0.000183232
0.000178962
0.000194061
0.000197309
0.000171156
0.000146991
0.000152368
0.000157309
0.000162499
0.000166987
0.000170408
0.00017283
0.000174602
0.00017611
0.000177485
0.000178742
0.000179867
0.000180863
0.000181785
0.000182783
0.000184192
0.000186522
0.000189213
0.000253429
0.000238104
0.000302417
0.000362394
0.000333455
0.000307073
0.000260033
0.00023699
0.000218409
0.000216036
0.000227321
0.000208931
0.000176311
0.000161325
0.000161612
0.000164442
0.000168089
0.000170979
0.00017299
0.000174445
0.00017579
0.000177168
0.000178556
0.00017991
0.000181201
0.000182447
0.000183745
0.000185333
0.000187471
0.000189482
0.000264402
0.000244711
0.000257758
0.000284818
0.000298062
0.000301452
0.000284785
0.000261103
0.000242353
0.000238899
0.000246515
0.0002475
0.000202727
0.000180056
0.000172317
0.000169293
0.000170844
0.000172636
0.000173867
0.000174763
0.000175787
0.000177069
0.000178537
0.000180098
0.000181679
0.000183247
0.00018484
0.000186589
0.000188527
0.000190003
0.000257312
0.000252759
0.000269741
0.000292258
0.000307421
0.000306834
0.0002866
0.000261239
0.000247779
0.000245313
0.000246156
0.000265063
0.000224542
0.000195886
0.000181242
0.000175112
0.000174532
0.000175112
0.000175342
0.000175433
0.000175972
0.000177087
0.00017862
0.000180405
0.00018231
0.000184237
0.000186149
0.000188066
0.000189834
0.000190919
0.000257427
0.000269799
0.000287252
0.000310089
0.000320947
0.000306107
0.000279935
0.000255609
0.000243612
0.000237939
0.00023844
0.000279237
0.000232202
0.000201673
0.000186061
0.00017955
0.000178174
0.000178008
0.000177148
0.000176227
0.000176165
0.000177078
0.000178706
0.000180788
0.000183102
0.000185469
0.000187761
0.000189878
0.000191538
0.000192419
0.000264485
0.000287667
0.000308188
0.000336798
0.000324612
0.000305199
0.000272389
0.0002475
0.000233404
0.000223699
0.000232161
0.000271809
0.000221354
0.000201047
0.000188239
0.000182375
0.00018126
0.000181078
0.000179054
0.000176853
0.000176105
0.000176849
0.00017867
0.000181182
0.000184042
0.000186958
0.000189721
0.000192105
0.000193766
0.000194653
0.000259246
0.000290067
0.000320102
0.000325433
0.000293449
0.000279853
0.000255521
0.000233673
0.000218073
0.000207134
0.00021139
0.000229633
0.000227824
0.000206397
0.000190065
0.00018362
0.000183407
0.000184124
0.000180683
0.000176888
0.000175433
0.000176134
0.000178349
0.000181484
0.000185058
0.000188736
0.000192199
0.000195072
0.000196952
0.000197788
0.000223696
0.000269169
0.00028285
0.000323874
0.000284895
0.000231301
0.000223084
0.000210013
0.000199051
0.000194332
0.000197287
0.000199558
0.000254101
0.00021652
0.000191448
0.000182781
0.000184017
0.00018694
0.000181501
0.000175708
0.000173647
0.000174617
0.000177549
0.000181627
0.000186299
0.000191096
0.000195579
0.000199237
0.000201557
0.000202448
0.000156806
0.000232199
0.000285087
0.000307804
0.000276719
0.00020981
0.000184662
0.000181139
0.000177474
0.000178965
0.000194714
0.000214067
0.000272982
0.000203809
0.000186203
0.000178328
0.000181984
0.000189257
0.000180369
0.000172353
0.000170188
0.000172021
0.00017619
0.000181703
0.000187893
0.000194251
0.000200208
0.000205035
0.000208134
0.000209412
0.000106646
0.000231191
0.000280007
0.000261821
0.000243204
0.000202873
0.000158728
0.000155566
0.000157596
0.000163553
0.000192954
0.00025386
0.000254847
0.00018331
0.000171256
0.000169103
0.000176135
0.000190275
0.000175207
0.000165775
0.000164661
0.000168274
0.000174382
0.000181831
0.000189995
0.000198433
0.00020644
0.000213066
0.00021758
0.000219661
0.000190259
0.000230157
0.000256795
0.00022625
0.000218583
0.000198687
0.000148707
0.000138194
0.000142233
0.000148812
0.000176364
0.000282759
0.000236333
0.000166263
0.00015561
0.000156834
0.000167077
0.000187822
0.00016466
0.00015569
0.000157394
0.000163774
0.000172395
0.00018215
0.000192805
0.000204021
0.000214952
0.000224385
0.000231427
0.000234671
0.00044524
0.000291874
0.000212452
0.000195412
0.000203234
0.000202933
0.000151088
0.000128412
0.000132865
0.000140407
0.000162858
0.000281101
0.000241741
0.000150974
0.000142467
0.000144311
0.000157232
0.000194939
0.000153027
0.000144499
0.000149909
0.00015944
0.000170622
0.000182918
0.000196599
0.000211548
0.000226747
0.000240697
0.000253017
0.000256638
0.000448819
0.000448547
0.000214472
0.000178946
0.000194465
0.000207619
0.000163378
0.000125772
0.000129576
0.000142804
0.000173885
0.000244581
0.000224088
0.000138867
0.000132316
0.000134081
0.000148007
0.000184852
0.00014331
0.000136365
0.000144404
0.000156208
0.000169352
0.000184281
0.000201636
0.000221555
0.000243133
0.000264201
0.000284544
0.000284508
0.000487073
0.000415001
0.000211055
0.000176416
0.00018929
0.000208375
0.000171737
0.000129006
0.000128983
0.000143014
0.000166665
0.000207522
0.000209974
0.0001312
0.000125899
0.000127116
0.000138671
0.000170897
0.000140994
0.000134979
0.000142593
0.00015414
0.000168332
0.00018587
0.000208149
0.000235084
0.000261883
0.00028715
0.000326665
0.000309511
0.000537333
0.000380483
0.000203329
0.000188359
0.000214355
0.00022258
0.000174704
0.000135665
0.000130278
0.000138968
0.000150815
0.000172848
0.00019075
0.000126477
0.000127565
0.000140404
0.000169802
0.000176128
0.000149285
0.000141903
0.000142384
0.000151395
0.0001664
0.000186993
0.000216208
0.000250441
0.000275708
0.000614329
0.00127223
0.00116331
0.000464212
0.00035595
0.000206935
0.000186609
0.000221623
0.000291478
0.000215004
0.000144221
0.000133531
0.000135164
0.000145158
0.000160622
0.000161549
0.000123989
0.000137112
0.000159034
0.000158134
0.000177522
0.000169988
0.000140927
0.000136543
0.00014519
0.000162055
0.000187523
0.000221255
0.000252693
0.000321254
0.000591512
0.00121052
0.00743655
0.000471393
0.00028161
0.000208975
0.000181066
0.000212437
0.000390233
0.000322871
0.000174868
0.000142123
0.000132793
0.000136252
0.000146089
0.000143194
0.000119653
0.000126209
0.000160051
0.000221794
0.000163637
0.000145678
0.000122311
0.000122706
0.000135462
0.000155827
0.000183922
0.000208337
0.000187621
0.000377596
0.00042809
0.000995129
0.0112472
0.000734784
0.000315183
0.000189767
0.000172116
0.000224316
0.000420183
0.000495564
0.000486271
0.000190285
0.000133138
0.000124644
0.000125999
0.000127484
0.000108648
0.000110145
0.000149525
0.0008872
0.00034252
0.000112727
9.18943e-05
0.000106492
0.000126165
0.00014915
0.000174774
0.000162581
0.000180205
0.000217842
0.000484486
0.00259979
0.0189088
0.000970477
0.000638468
0.000208162
0.000277768
0.00046496
0.000818558
0.00196755
0.00467729
0.00276053
0.000252503
0.000117599
0.000105791
0.000105027
9.39985e-05
9.41685e-05
0.000152447
0.000729025
0.00181814
0.000165233
7.52371e-05
9.81409e-05
0.000120889
0.000141027
0.000152809
0.000124714
0.000150803
0.000263932
0.00150872
0.00828295
0.0212824
0.00217232
0.00165178
0.000848427
0.00184382
0.00306879
0.00696544
0.0157289
0.0150148
0.0109899
0.00731333
0.000407719
0.000148173
9.53756e-05
7.56561e-05
7.92678e-05
0.00022839
0.000610483
0.000766787
0.000422376
9.18578e-05
0.000107087
0.000123346
0.000134173
0.000131714
0.000102551
0.000140621
0.000748565
0.004497
0.0148808
0.0236076
0.00995363
0.00762737
0.00524466
0.00973364
0.0149673
0.0197222
0.0102708
0.0025556
0.00168792
0.00696151
0.0107152
0.00432596
0.00114458
0.000330003
0.000332852
0.00156278
0.000968761
0.000379504
0.000278968
0.000117661
0.00012654
0.000129475
0.000128928
0.000106183
9.84567e-05
0.000271519
0.00216328
0.00751898
0.0170463
0.0282992
0.0206722
0.0184063
0.0182671
0.0180086
0.011945
0.00423535
0.00153161
0.00101921
0.000869754
0.000848482
0.00174327
0.00432695
0.00670914
0.00556423
0.00416126
0.0032906
0.000632357
0.000277553
0.000142224
0.00012062
0.000129574
0.000126508
0.000117549
8.68206e-05
0.00011037
0.000780555
0.00353905
0.00804721
0.0173378
0.0299463
0.0216721
0.019326
0.0174406
0.0115327
0.00459987
0.00170083
0.00102021
0.000830358
0.00077505
0.000751983
0.000743516
0.000725479
0.000883101
0.00187575
0.00279748
0.000737193
0.00037179
0.000205054
0.0001033
0.000111298
0.000118899
0.00011503
0.000102797
8.08882e-05
0.000256334
0.00187041
0.00422556
0.00801248
0.0174127
0.0302626
0.0210468
0.0198151
0.0162685
0.00873238
0.00255787
0.00115051
0.000836439
0.000749016
0.000738829
0.000740015
0.000733769
0.000697817
0.000675072
0.00060932
0.000568107
0.000464792
0.00031179
0.000136909
9.44474e-05
0.000107955
0.000110307
0.000106035
9.09818e-05
0.000120848
0.000941697
0.00292495
0.004005
0.00794795
0.0174949
0.0305903
0.0209389
0.0202009
0.0141619
0.00465381
0.00148903
0.000927316
0.000775079
0.000730147
0.000735493
0.00074717
0.000753098
0.000745317
0.00072171
0.000605314
0.000619665
0.0004821
0.000239457
9.67112e-05
9.19794e-05
0.000101501
0.000102789
9.78023e-05
8.38874e-05
0.000446859
0.00220263
0.00319782
0.00382223
0.00772471
0.0173348
0.0306963
0.0212691
0.0195827
0.00928462
0.00223725
0.00111224
0.000869731
0.000773533
0.000766464
0.000784283
0.000812471
0.000827541
0.000807821
0.000741556
0.000619081
0.000754039
0.000549576
0.000177621
6.90102e-05
8.44035e-05
9.53749e-05
9.69341e-05
8.99537e-05
0.00015365
0.00132161
0.00270439
0.0031407
0.00378009
0.0074378
0.0169049
0.0305492
0.0211005
0.0162809
0.0040894
0.0014666
0.001025
0.00088093
0.000869329
0.000884688
0.000889722
0.000898238
0.000879051
0.000819395
0.000730134
0.000620883
0.000775231
0.00067289
0.000161352
6.44586e-05
8.20751e-05
9.18133e-05
9.42844e-05
8.60446e-05
0.000504872
0.00155439
0.00262901
0.00323672
0.0038098
0.00706486
0.0162707
0.0301013
0.0190419
0.00986618
0.00222498
0.00129231
0.00103942
0.00101238
0.000992037
0.000961871
0.000945846
0.000927893
0.000888452
0.000802293
0.000730397
0.000619662
0.00071234
0.000950505
0.000201015
6.87038e-05
8.22659e-05
9.07646e-05
9.0281e-05
0.000104316
0.000643672
0.00143051
0.00271752
0.0032742
0.00387214
0.00673621
0.0154658
0.0293345
0.0137945
0.004258
0.00176461
0.00130263
0.00119182
0.00110369
0.00102558
0.000981668
0.000959269
0.00093232
0.000883297
0.000796081
0.000727411
0.000620155
0.000606319
0.00163868
0.000307947
7.63591e-05
8.53591e-05
9.26302e-05
8.70259e-05
0.000184519
0.000653174
0.00166998
0.00286059
0.00330241
0.00392019
0.0065046
0.0146126
0.0282692
0.00729894
0.00272485
0.00173221
0.00144502
0.00126104
0.00111704
0.00102812
0.000977512
0.00094862
0.000920104
0.000861393
0.000789964
0.000711324
0.000634362
0.000567725
0.00189203
0.000506614
8.63538e-05
9.01392e-05
9.79194e-05
8.53202e-05
0.000282784
0.000931763
0.0021806
0.00292751
0.00332334
0.00398345
0.00643285
0.013812
0.0270056
0.00410296
0.00251845
0.00179591
0.00148375
0.00126873
0.00110878
0.000997735
0.000931757
0.000900722
0.000877785
0.000831429
0.000770305
0.000697182
0.000644453
0.000553796
0.00137581
0.000668978
9.59978e-05
9.76137e-05
0.000103695
9.54371e-05
0.000423402
0.00155842
0.00253594
0.00292839
0.00335604
0.00409503
0.00645764
0.0131224
0.0255087
0.00372895
0.00253033
0.00174083
0.00145731
0.00125748
0.00106719
0.000930398
0.000869398
0.000848951
0.000829774
0.000796204
0.000741671
0.000691431
0.000648463
0.000552766
0.000813261
0.000762071
0.000116731
0.000110913
0.000114353
0.000173155
0.00105102
0.00227303
0.00267524
0.00296692
0.00342032
0.00427278
0.00660754
0.0125569
0.0236837
0.00484792
0.00245035
0.00156882
0.00140931
0.0012256
0.00101306
0.000877623
0.000818086
0.000801566
0.000780792
0.000753654
0.000718688
0.000689247
0.000659495
0.000568167
0.000722275
0.000878039
0.000137532
0.000125784
0.000133644
0.000622693
0.00211701
0.00253943
0.00273111
0.00306373
0.00353787
0.00452107
0.0068705
0.012114
0.0214845
0.00596004
0.00226947
0.001517
0.00138893
0.00118264
0.000962747
0.000818738
0.000756564
0.000740289
0.000724738
0.00071133
0.000699486
0.000688391
0.000668035
0.000599414
0.000708357
0.00132297
0.000182398
0.000145742
0.000293619
0.00209791
0.00246161
0.00225766
0.0029153
0.00328446
0.00374194
0.0048055
0.00720396
0.0118176
0.0192659
0.00645615
0.00219666
0.0014652
0.00132638
0.00110889
0.000886704
0.000740394
0.000687214
0.000676363
0.000671095
0.000675987
0.000682285
0.00068343
0.000670998
0.000621199
0.000679759
0.00308474
0.000469577
0.000300355
0.00185432
0.00251418
0.00166849
0.00206461
0.00294799
0.00359858
0.00402778
0.00507787
0.00746503
0.0115619
0.0173001
0.0090102
0.00221191
0.00136141
0.00121686
0.00100305
0.000795272
0.000669988
0.000629908
0.000626707
0.000629788
0.000643507
0.000661129
0.000668802
0.000667807
0.000630161
0.000497126
0.00155934
0.00169923
0.00159692
0.00295925
0.00159075
0.00108316
0.00193158
0.00291849
0.00387047
0.00438931
0.00533882
0.00756077
0.0111984
0.0155755
0.010441
0.00217507
0.00128084
0.00111749
0.000904207
0.000718503
0.000616088
0.000585683
0.000585599
0.000593587
0.000615643
0.000635467
0.000648242
0.000648231
0.000610061
0.000468892
0.000400723
0.00134999
0.0022689
0.00158374
0.000806796
0.000931473
0.00152096
0.00266551
0.00394264
0.00478229
0.00562059
0.00756883
0.0106823
0.0140278
0.0106443
0.0021728
0.00123852
0.00102985
0.000817583
0.000652862
0.000564988
0.000543457
0.000546298
0.000559963
0.000587182
0.000609149
0.000623
0.00061699
0.000569748
0.000429195
0.000323696
0.000655238
0.00146702
0.00109353
0.000615347
0.00070065
0.00115997
0.00218681
0.0038886
0.00515234
0.00593295
0.00754934
0.0101369
0.0126049
0.0105986
0.00220261
0.00118849
0.000930859
0.000732333
0.000588442
0.000513624
0.000501159
0.00050879
0.000530171
0.000558766
0.000581681
0.000588663
0.000579884
0.000529601
0.000394253
0.000333324
0.000605103
0.00144354
0.00101107
0.000486002
0.000544794
0.000872865
0.00171618
0.00362783
0.00533573
0.00625116
0.00755134
0.00962687
0.0112701
0.0103988
0.00217849
0.00108873
0.000832444
0.000657692
0.000531494
0.000469772
0.000463957
0.00047489
0.000501424
0.000531634
0.000549076
0.000551481
0.000536446
0.000479608
0.000363615
0.000366642
0.000776749
0.00142415
0.000787309
0.000422029
0.000434632
0.000648058
0.00133789
0.00318537
0.00538513
0.00657188
0.00761583
0.00918788
0.010139
0.00981526
0.00199124
0.000971451
0.000754516
0.000598468
0.000484608
0.000433719
0.000431303
0.000443637
0.000471691
0.000500967
0.000511435
0.000509269
0.000487369
0.000415101
0.00036161
0.00041842
0.000967788
0.00128972
0.000659454
0.000397647
0.000392137
0.000524969
0.00105382
0.00270446
0.00535484
0.00686977
0.00776753
0.0088637
0.00934273
0.00873597
0.00170436
0.000872652
0.000689542
0.000546145
0.0004439
0.00040113
0.000400251
0.000413414
0.000440681
0.000463125
0.000470322
0.000461428
0.000429602
0.000360334
0.000370213
0.000499091
0.00106365
0.00111909
0.000587917
0.000392821
0.000381347
0.000475667
0.000852677
0.00227231
0.00519544
0.00705598
0.00795579
0.00866599
0.0089594
0.00756718
0.00144706
0.00078597
0.000625328
0.000495204
0.000406606
0.000371544
0.000371626
0.000384098
0.000408481
0.000423774
0.000425552
0.000407757
0.000358024
0.000342004
0.000391762
0.000596545
0.00104979
0.000993626
0.000555575
0.000416213
0.000390281
0.000462731
0.000732037
0.00187814
0.00488759
0.00712411
0.00815532
0.0086029
0.0090395
0.00663663
0.00123943
0.000700888
0.000559476
0.000444591
0.000370671
0.000343453
0.000344732
0.000355364
0.000374505
0.000384246
0.000376591
0.000340289
0.000304662
0.000333578
0.000443571
0.000785111
0.0010634
0.000910651
0.000617402
0.000472803
0.000429147
0.000477617
0.000678931