/*--------------------------------*- C++ -*----------------------------------*\
| =========                 |                                                 |
| \\      /  F ield         | OpenFOAM: The Open Source CFD Toolbox           |
|  \\    /   O peration     | Version:  v1606+                                |
|   \\  /    A nd           | Web:      www.OpenFOAM.com                      |
|    \\/     M anipulation  |                                                 |
\*---------------------------------------------------------------------------*/
FoamFile
{
    version     2.0;
    format      ascii;
    class       volVectorField;
    location    "1.16";
    object      U.air;
}
// * * * * * * * * * * * * * * * * * * * * * * * * * * * * * * * * * * * * * //

dimensions      [0 1 -1 0 0 0 0];

internalField   nonuniform List<vector> 
6000
(
(-0.0130911 0.28616 0)
(-0.0106766 0.23241 0)
(-0.00400343 0.197346 0)
(0.0213238 0.162964 0)
(0.0416583 0.14818 0)
(0.0179883 0.166734 0)
(-0.0285587 0.180211 0)
(-0.0665926 0.182905 0)
(-0.0940668 0.183205 0)
(-0.105417 0.178535 0)
(-0.102848 0.182183 0)
(-0.0894269 0.185929 0)
(-0.0667199 0.188185 0)
(-0.0376769 0.198902 0)
(-0.0107286 0.210079 0)
(0.0125406 0.208615 0)
(0.0301155 0.210367 0)
(0.040299 0.202374 0)
(0.0432325 0.184091 0)
(0.035042 0.184371 0)
(0.0134636 0.187049 0)
(-0.0172975 0.180244 0)
(-0.042533 0.165591 0)
(-0.0650543 0.145914 0)
(-0.0650003 0.151592 0)
(-0.0336301 0.18807 0)
(0.0122211 0.243876 0)
(0.0454443 0.281438 0)
(0.0461986 0.291724 0)
(0.0255473 0.304843 0)
(-0.0108145 1.05428 0)
(-0.0591238 1.0683 0)
(-0.0665512 1.02091 0)
(-0.0371822 0.982657 0)
(-0.0124444 1.00319 0)
(-0.0262506 1.05347 0)
(-0.0867094 1.05154 0)
(-0.144914 1.0348 0)
(-0.169631 1.00498 0)
(-0.167807 0.967156 0)
(-0.158267 0.942307 0)
(-0.148313 0.922698 0)
(-0.137089 0.900195 0)
(-0.116412 0.878885 0)
(-0.0761953 0.866465 0)
(-0.023641 0.867165 0)
(0.0319355 0.885411 0)
(0.0772575 0.914327 0)
(0.0932023 0.954393 0)
(0.0862149 0.988852 0)
(0.0637953 1.01259 0)
(0.0291703 1.01802 0)
(-0.00534183 1.0118 0)
(-0.0177804 1.01543 0)
(0.00760996 0.970657 0)
(0.0563934 0.957517 0)
(0.0945643 0.963876 0)
(0.0947825 1.00487 0)
(0.0680146 1.07777 0)
(0.00987027 1.09367 0)
(-0.0552925 0.997165 0)
(-0.158307 0.946082 0)
(-0.191678 0.807059 0)
(-0.163469 0.720158 0)
(-0.116521 0.724169 0)
(-0.0698479 0.822087 0)
(-0.0854339 0.879015 0)
(-0.151161 0.844199 0)
(-0.187226 0.769267 0)
(-0.181698 0.730058 0)
(-0.167584 0.720689 0)
(-0.16226 0.715493 0)
(-0.158319 0.698992 0)
(-0.138769 0.670799 0)
(-0.0944101 0.643502 0)
(-0.0347334 0.630503 0)
(0.0260491 0.633758 0)
(0.0699822 0.675286 0)
(0.0860015 0.721775 0)
(0.0792882 0.768527 0)
(0.0496215 0.811488 0)
(0.0132823 0.822325 0)
(0.00410969 0.784884 0)
(0.0492982 0.728925 0)
(0.116014 0.67344 0)
(0.188457 0.708024 0)
(0.204525 0.828904 0)
(0.153904 0.912446 0)
(0.0776543 0.988087 0)
(0.0176489 0.980929 0)
(-0.0453326 1.10679 0)
(-0.173431 1.09744 0)
(-0.283448 0.971818 0)
(-0.324858 0.866201 0)
(-0.281102 0.81959 0)
(-0.233527 0.866719 0)
(-0.186815 0.960951 0)
(-0.188359 0.93428 0)
(-0.198617 0.828797 0)
(-0.188787 0.759501 0)
(-0.171962 0.747124 0)
(-0.163239 0.740962 0)
(-0.146797 0.713813 0)
(-0.117157 0.672148 0)
(-0.0775891 0.635502 0)
(-0.0349971 0.63175 0)
(0.00338872 0.654108 0)
(0.0337461 0.712055 0)
(0.0550247 0.774356 0)
(0.0600052 0.835496 0)
(0.0549535 0.889887 0)
(0.0705896 0.881358 0)
(0.123577 0.821122 0)
(0.198451 0.788035 0)
(0.263438 0.780707 0)
(0.284428 0.858318 0)
(0.21341 0.955401 0)
(0.127585 1.00675 0)
(0.0450763 1.06291 0)
(0.0108057 1.01347 0)
(-0.0142109 1.13529 0)
(-0.0615103 1.14106 0)
(-0.171791 0.99941 0)
(-0.310473 0.867815 0)
(-0.380721 0.886201 0)
(-0.360728 0.883166 0)
(-0.298626 0.952297 0)
(-0.212762 0.92038 0)
(-0.148302 0.811735 0)
(-0.111783 0.744779 0)
(-0.0886188 0.752668 0)
(-0.0742656 0.760645 0)
(-0.0574004 0.731869 0)
(-0.0405406 0.691022 0)
(-0.0303988 0.654028 0)
(-0.0265158 0.648706 0)
(-0.0237931 0.6679 0)
(-0.0160017 0.721773 0)
(0.00219053 0.786771 0)
(0.0164275 0.847364 0)
(0.0475307 0.885623 0)
(0.120194 0.853096 0)
(0.206626 0.792563 0)
(0.303293 0.795764 0)
(0.300547 0.805953 0)
(0.191455 0.879472 0)
(0.0514076 0.979155 0)
(-0.0125758 1.02551 0)
(-0.0234678 1.05621 0)
(0.00324033 0.98424 0)
(0.0224974 1.0505 0)
(0.071684 1.082 0)
(0.0520446 1.09765 0)
(-0.0941587 0.977801 0)
(-0.268818 0.910603 0)
(-0.366224 0.931261 0)
(-0.342082 0.926598 0)
(-0.196664 0.843167 0)
(-0.0792524 0.772969 0)
(-0.0240796 0.74814 0)
(-0.00256614 0.784744 0)
(0.0130778 0.799427 0)
(0.0277728 0.776499 0)
(0.0339862 0.75339 0)
(0.0337714 0.728987 0)
(0.0257336 0.729643 0)
(0.00607078 0.752799 0)
(-0.0153224 0.796286 0)
(-0.0239577 0.84902 0)
(-0.0145618 0.897265 0)
(0.0302152 0.899016 0)
(0.114046 0.833748 0)
(0.209164 0.770042 0)
(0.249587 0.807344 0)
(0.103811 0.885192 0)
(-0.0911552 1.0081 0)
(-0.186905 0.996856 0)
(-0.163517 0.934063 0)
(-0.0997172 0.911392 0)
(-0.0161083 0.871473 0)
(0.0339403 0.941502 0)
(0.11316 0.972712 0)
(0.174599 0.998749 0)
(0.177407 1.04872 0)
(0.00434595 1.06635 0)
(-0.16886 0.961661 0)
(-0.26944 0.889879 0)
(-0.154153 0.746003 0)
(-0.0278587 0.737934 0)
(0.0245154 0.764502 0)
(0.0451684 0.827145 0)
(0.0615212 0.862027 0)
(0.0745341 0.853819 0)
(0.0832077 0.837794 0)
(0.0956762 0.827589 0)
(0.100043 0.861879 0)
(0.0803729 0.911617 0)
(0.0444952 0.951453 0)
(0.00516158 0.98284 0)
(-0.0190886 0.981891 0)
(0.00235111 0.924179 0)
(0.0692865 0.82405 0)
(0.137074 0.765369 0)
(-0.0161475 0.920307 0)
(-0.292988 1.0947 0)
(-0.405689 1.02149 0)
(-0.33129 0.896038 0)
(-0.226656 0.832275 0)
(-0.140918 0.815756 0)
(-0.043575 0.785991 0)
(0.0516318 0.852153 0)
(0.154736 0.90249 0)
(0.219249 0.931916 0)
(0.313065 0.998382 0)
(0.290098 1.13245 0)
(0.140474 1.13761 0)
(-0.0855784 0.906909 0)
(-0.087097 0.645405 0)
(0.0160646 0.704289 0)
(0.0579549 0.795145 0)
(0.0665391 0.887378 0)
(0.0754923 0.929679 0)
(0.121137 0.936116 0)
(0.165187 0.921161 0)
(0.191641 0.875435 0)
(0.185009 0.88393 0)
(0.149966 0.916307 0)
(0.105602 0.975037 0)
(0.0315931 1.05381 0)
(-0.0549702 1.06834 0)
(-0.0864521 0.966243 0)
(-0.0362756 0.818709 0)
(-0.0991961 0.866952 0)
(-0.443296 1.22353 0)
(-0.63014 1.18151 0)
(-0.575259 0.934074 0)
(-0.411738 0.778763 0)
(-0.269097 0.728794 0)
(-0.169286 0.73809 0)
(-0.0528878 0.682497 0)
(0.0548186 0.737324 0)
(0.167227 0.831121 0)
(0.257318 0.838664 0)
(0.372988 0.932016 0)
(0.434352 1.14146 0)
(0.401683 1.26927 0)
(0.207452 1.07538 0)
(0.0834688 0.620328 0)
(0.111478 0.69655 0)
(0.132667 0.847669 0)
(0.117307 0.972976 0)
(0.085418 0.989631 0)
(0.062914 0.89463 0)
(0.104123 0.823969 0)
(0.155772 0.759247 0)
(0.237257 0.812439 0)
(0.29468 0.854499 0)
(0.311773 0.921886 0)
(0.247227 1.00107 0)
(0.0949351 1.00258 0)
(-0.0868474 0.916722 0)
(-0.22631 0.826401 0)
(-0.475281 1.10622 0)
(-0.740005 1.41707 0)
(-0.735046 1.14398 0)
(-0.587392 0.7902 0)
(-0.414294 0.637748 0)
(-0.27313 0.620366 0)
(-0.164799 0.646144 0)
(-0.0468119 0.581947 0)
(0.0452118 0.64409 0)
(0.157755 0.752566 0)
(0.254747 0.75033 0)
(0.361961 0.838232 0)
(0.460222 1.08815 0)
(0.520772 1.33094 0)
(0.482905 1.23158 0)
(0.32672 0.752761 0)
(0.251951 0.742541 0)
(0.186108 0.932377 0)
(-0.0391365 1.00285 0)
(-0.166963 0.96191 0)
(-0.235862 0.87175 0)
(-0.169604 0.756517 0)
(-0.0364577 0.639867 0)
(0.158077 0.629776 0)
(0.359199 0.674749 0)
(0.511227 0.833377 0)
(0.559275 1.07167 0)
(0.366271 1.21483 0)
(-0.0373276 1.1091 0)
(-0.380127 0.973715 0)
(-0.696297 1.29318 0)
(-0.787711 1.40118 0)
(-0.664499 0.994818 0)
(-0.518533 0.640147 0)
(-0.392708 0.533031 0)
(-0.274913 0.539788 0)
(-0.163676 0.564434 0)
(-0.0444066 0.506013 0)
(0.0423101 0.570951 0)
(0.162468 0.676469 0)
(0.264769 0.689533 0)
(0.345663 0.77113 0)
(0.433741 1.00242 0)
(0.565321 1.27392 0)
(0.672215 1.28738 0)
(0.573983 0.972816 0)
(0.308718 0.815349 0)
(-0.012634 1.07907 0)
(-0.479339 1.21077 0)
(-0.659692 1.01739 0)
(-0.603285 0.771145 0)
(-0.388583 0.506432 0)
(-0.190672 0.346522 0)
(0.0162999 0.324165 0)
(0.226817 0.370167 0)
(0.415796 0.568915 0)
(0.513353 0.877539 0)
(0.406198 1.2934 0)
(0.0568575 1.38137 0)
(-0.332506 1.24861 0)
(-0.634252 1.39035 0)
(-0.65705 1.26905 0)
(-0.547084 0.811486 0)
(-0.446174 0.501611 0)
(-0.36341 0.434628 0)
(-0.273322 0.446871 0)
(-0.169463 0.463304 0)
(-0.0482055 0.41154 0)
(0.0476537 0.475056 0)
(0.175419 0.565414 0)
(0.281252 0.610304 0)
(0.356185 0.696594 0)
(0.443935 0.890373 0)
(0.608691 1.12264 0)
(0.767386 1.22147 0)
(0.699806 1.14854 0)
(0.297708 1.11075 0)
(-0.263063 1.48993 0)
(-0.71759 1.41749 0)
(-0.747951 0.891721 0)
(-0.584867 0.48482 0)
(-0.366826 0.273361 0)
(-0.220346 0.169795 0)
(-0.0792637 0.148104 0)
(0.0729367 0.176441 0)
(0.236683 0.38772 0)
(0.340299 0.822396 0)
(0.280945 1.40698 0)
(0.0903189 1.51919 0)
(-0.168355 1.46632 0)
(-0.408067 1.37248 0)
(-0.491445 1.17416 0)
(-0.431895 0.665594 0)
(-0.372567 0.38206 0)
(-0.31444 0.343048 0)
(-0.246517 0.352371 0)
(-0.158991 0.351265 0)
(-0.0463974 0.302344 0)
(0.0478682 0.362075 0)
(0.170177 0.439896 0)
(0.273264 0.50492 0)
(0.361416 0.592034 0)
(0.474426 0.73419 0)
(0.640358 0.924989 0)
(0.747723 1.12125 0)
(0.642946 1.33034 0)
(0.220374 1.51607 0)
(-0.2412 1.79345 0)
(-0.498268 1.40949 0)
(-0.532924 0.751703 0)
(-0.443132 0.291366 0)
(-0.309829 0.142324 0)
(-0.218909 0.0664915 0)
(-0.132686 0.0400766 0)
(-0.0470218 0.049667 0)
(0.0606701 0.228014 0)
(0.167153 0.762252 0)
(0.180119 1.46395 0)
(0.0928481 1.64322 0)
(-0.0509018 1.64581 0)
(-0.224545 1.47067 0)
(-0.330002 1.1015 0)
(-0.316146 0.562702 0)
(-0.288149 0.289409 0)
(-0.241156 0.261991 0)
(-0.179422 0.261113 0)
(-0.114194 0.252983 0)
(-0.0327346 0.202944 0)
(0.0333968 0.256693 0)
(0.13081 0.320279 0)
(0.229676 0.385356 0)
(0.34358 0.461335 0)
(0.487071 0.562856 0)
(0.614061 0.740956 0)
(0.65864 1.08351 0)
(0.473422 1.44418 0)
(0.190708 1.7823 0)
(-0.00265923 1.91144 0)
(-0.139716 1.52198 0)
(-0.297139 0.734069 0)
(-0.328771 0.194385 0)
(-0.265862 0.0551265 0)
(-0.206752 -0.00406567 0)
(-0.157696 -0.0241451 0)
(-0.126433 -0.00302025 0)
(-0.0920851 0.118129 0)
(0.0223096 0.701341 0)
(0.141678 1.46928 0)
(0.114061 1.70613 0)
(0.023329 1.73961 0)
(-0.0855583 1.56026 0)
(-0.200122 1.13024 0)
(-0.208325 0.49865 0)
(-0.172822 0.219034 0)
(-0.138571 0.193757 0)
(-0.0907341 0.185961 0)
(-0.0519275 0.189769 0)
(-0.00554575 0.13747 0)
(0.0106039 0.188142 0)
(0.0710217 0.229244 0)
(0.147902 0.263845 0)
(0.256785 0.311999 0)
(0.384897 0.390549 0)
(0.496762 0.580499 0)
(0.536754 1.10032 0)
(0.369321 1.57227 0)
(0.248346 1.88029 0)
(0.241261 1.94126 0)
(0.208897 1.63775 0)
(-0.0330294 0.857913 0)
(-0.203785 0.171518 0)
(-0.231977 0.000996254 0)
(-0.192448 -0.05538 0)
(-0.165412 -0.0582137 0)
(-0.172085 0.00190565 0)
(-0.176157 0.0989766 0)
(-0.136048 0.54814 0)
(0.0470124 1.41031 0)
(0.102203 1.78375 0)
(0.0651109 1.81729 0)
(0.0174537 1.6483 0)
(-0.0651357 1.17714 0)
(-0.0669102 0.448794 0)
(-0.0493368 0.1769 0)
(-0.0434872 0.156135 0)
(-0.0272149 0.136601 0)
(-0.00480574 0.147162 0)
(0.0227285 0.119118 0)
(-0.00683898 0.155692 0)
(0.0325038 0.166848 0)
(0.0774904 0.181719 0)
(0.131122 0.21742 0)
(0.194033 0.265995 0)
(0.267235 0.440185 0)
(0.348079 1.09471 0)
(0.303863 1.61155 0)
(0.323434 1.85339 0)
(0.422681 1.88974 0)
(0.493432 1.70937 0)
(0.310851 1.06055 0)
(-0.0571484 0.290146 0)
(-0.193656 -0.0301931 0)
(-0.177924 -0.0904436 0)
(-0.153733 -0.0707887 0)
(-0.17819 0.0512724 0)
(-0.249889 0.178914 0)
(-0.270166 0.524387 0)
(-0.188104 1.37808 0)
(-0.0383177 1.81878 0)
(0.0261637 1.85384 0)
(0.0468633 1.73005 0)
(0.0669667 1.29177 0)
(0.0766212 0.437548 0)
(0.0440796 0.208205 0)
(0.0143694 0.166669 0)
(-0.00273735 0.119761 0)
(0.00864616 0.115276 0)
(0.02472 0.131838 0)
(-0.0094025 0.14067 0)
(0.0261315 0.124594 0)
(0.0407328 0.150905 0)
(0.03958 0.195469 0)
(0.0334357 0.232316 0)
(0.0440954 0.336548 0)
(0.123755 1.01717 0)
(0.232016 1.56253 0)
(0.339 1.75515 0)
(0.499755 1.78738 0)
(0.660978 1.70003 0)
(0.627964 1.29859 0)
(0.300544 0.640852 0)
(-0.0534908 0.060322 0)
(-0.123748 -0.0624015 0)
(-0.0868418 -0.0476298 0)
(-0.12643 0.163004 0)
(-0.323431 0.355988 0)
(-0.511452 0.654042 0)
(-0.518111 1.3615 0)
(-0.28396 1.81741 0)
(-0.0807086 1.89467 0)
(0.0304205 1.8063 0)
(0.175521 1.26646 0)
(0.187342 0.513588 0)
(0.122753 0.290321 0)
(0.0414254 0.210674 0)
(-0.000960248 0.12353 0)
(-0.00119085 0.102672 0)
(0.0041524 0.146001 0)
(0.0151514 0.132443 0)
(0.0468272 0.105592 0)
(0.0396134 0.169793 0)
(-0.0284007 0.239402 0)
(-0.103775 0.265925 0)
(-0.136627 0.364924 0)
(-0.0776446 0.881143 0)
(0.118803 1.51687 0)
(0.260669 1.62281 0)
(0.414911 1.6337 0)
(0.608987 1.59104 0)
(0.745689 1.40135 0)
(0.652604 0.956687 0)
(0.283316 0.352876 0)
(-0.0168298 -0.0013781 0)
(-0.0395103 -0.0555682 0)
(-0.0788724 0.28188 0)
(-0.28386 0.531821 0)
(-0.571987 0.793947 0)
(-0.647504 1.23721 0)
(-0.424739 1.59012 0)
(-0.161727 1.75206 0)
(0.0410325 1.72493 0)
(0.253325 1.24604 0)
(0.294567 0.672364 0)
(0.165519 0.446464 0)
(0.0218039 0.31995 0)
(-0.0422441 0.161177 0)
(-0.0299329 0.106319 0)
(-0.0163792 0.143326 0)
(0.0539381 0.111677 0)
(0.10346 0.101092 0)
(0.0744074 0.247576 0)
(-0.0758885 0.398412 0)
(-0.239132 0.415918 0)
(-0.293689 0.474347 0)
(-0.220506 0.834212 0)
(-0.0506753 1.41786 0)
(0.123182 1.59695 0)
(0.247842 1.57577 0)
(0.426692 1.51405 0)
(0.602213 1.32673 0)
(0.670712 1.08598 0)
(0.452461 0.778648 0)
(0.061348 0.294864 0)
(-0.0787348 0.00163153 0)
(-0.0862762 0.351905 0)
(-0.171758 0.736989 0)
(-0.356327 0.959584 0)
(-0.430829 1.20516 0)
(-0.316417 1.40325 0)
(-0.100349 1.56453 0)
(0.156135 1.47311 0)
(0.342501 1.06359 0)
(0.302594 0.636111 0)
(0.169258 0.516225 0)
(0.0194537 0.399834 0)
(-0.101387 0.206609 0)
(-0.0905038 0.094778 0)
(-0.0357833 0.105414 0)
(0.0826327 0.0168902 0)
(0.129809 0.0910758 0)
(0.0816159 0.328978 0)
(-0.0807705 0.514378 0)
(-0.222075 0.427496 0)
(-0.321962 0.402049 0)
(-0.364916 0.678672 0)
(-0.248741 1.23808 0)
(-0.0389534 1.45385 0)
(0.0830216 1.42905 0)
(0.225298 1.35769 0)
(0.349508 1.20417 0)
(0.3629 1.05566 0)
(0.212173 0.965339 0)
(0.00213085 0.457139 0)
(-0.0800912 0.0528281 0)
(-0.100169 0.325071 0)
(-0.0766504 0.722246 0)
(-0.104048 0.936818 0)
(-0.121272 1.10987 0)
(-0.0787815 1.2332 0)
(0.0570122 1.33594 0)
(0.247016 1.31338 0)
(0.345707 1.08103 0)
(0.269049 0.793266 0)
(0.133458 0.628973 0)
(0.0278192 0.535674 0)
(-0.0746837 0.246681 0)
(-0.125391 0.0615011 0)
(-0.0586618 0.05368 0)
(0.066615 -0.0588389 0)
(0.032727 0.0910406 0)
(-0.0605965 0.423624 0)
(-0.129064 0.574205 0)
(-0.164031 0.537977 0)
(-0.232673 0.553388 0)
(-0.299586 0.731466 0)
(-0.266707 1.07931 0)
(-0.12467 1.29183 0)
(-0.0345011 1.32386 0)
(0.0128568 1.24795 0)
(0.0113587 1.16924 0)
(-0.0642675 1.13748 0)
(-0.0985008 1.02646 0)
(-0.0808925 0.485368 0)
(-0.0800666 0.0710974 0)
(-0.102981 0.292818 0)
(-0.0673371 0.684031 0)
(-0.034239 0.871597 0)
(0.00708622 0.997642 0)
(0.0482888 1.07567 0)
(0.118368 1.12353 0)
(0.205803 1.07451 0)
(0.239386 0.92754 0)
(0.192776 0.758902 0)
(0.131134 0.636891 0)
(0.108113 0.490012 0)
(0.06527 0.356967 0)
(0.0214522 0.0504203 0)
(-0.0504149 -0.0242515 0)
(-0.0339463 -0.0671447 0)
(-0.131901 0.216399 0)
(-0.199993 0.4391 0)
(-0.20707 0.511529 0)
(-0.171442 0.461401 0)
(-0.163269 0.465455 0)
(-0.163554 0.667832 0)
(-0.155294 0.953431 0)
(-0.134246 1.16011 0)
(-0.138893 1.2447 0)
(-0.199717 1.2317 0)
(-0.291288 1.19792 0)
(-0.333779 1.12567 0)
(-0.217327 0.911759 0)
(-0.0826037 0.465744 0)
(-0.0529676 0.0819251 0)
(-0.111938 0.305612 0)
(-0.105816 0.701954 0)
(-0.0550709 0.830441 0)
(0.00289979 0.93544 0)
(0.0558422 0.986979 0)
(0.104821 1.00004 0)
(0.142062 0.966244 0)
(0.146967 0.882741 0)
(0.126995 0.771243 0)
(0.117281 0.620963 0)
(0.142403 0.50092 0)
(0.178954 0.319167 0)
(0.1423 0.154685 0)
(0.0488847 0.0425116 0)
(-0.0859158 0.0909928 0)
(-0.19782 0.272414 0)
(-0.233606 0.493212 0)
(-0.206418 0.480479 0)
(-0.192888 0.437257 0)
(-0.201981 0.437182 0)
(-0.189555 0.594522 0)
(-0.152009 0.861483 0)
(-0.145913 1.0906 0)
(-0.190868 1.20625 0)
(-0.274081 1.2357 0)
(-0.340792 1.17283 0)
(-0.302098 1.00159 0)
(-0.139712 0.731112 0)
(-0.0093247 0.365006 0)
(-0.0590551 0.12919 0)
(-0.129429 0.357186 0)
(-0.133334 0.661271 0)
(-0.0805405 0.770247 0)
(-0.0374623 0.876484 0)
(0.017628 0.941363 0)
(0.0707011 0.980221 0)
(0.0957959 0.972928 0)
(0.10659 0.909297 0)
(0.112128 0.782797 0)
(0.128927 0.653108 0)
(0.16784 0.46061 0)
(0.190976 0.319164 0)
(0.16004 0.214734 0)
(0.0584316 0.154017 0)
(-0.0793375 0.24489 0)
(-0.204162 0.354954 0)
(-0.227925 0.501308 0)
(-0.227724 0.543921 0)
(-0.253848 0.511524 0)
(-0.281561 0.507345 0)
(-0.266399 0.578663 0)
(-0.213059 0.822894 0)
(-0.163759 1.07458 0)
(-0.172238 1.22379 0)
(-0.208329 1.25314 0)
(-0.195373 1.13425 0)
(-0.101332 0.890026 0)
(0.0151238 0.601474 0)
(0.0554613 0.362747 0)
(-0.0194351 0.223455 0)
(-0.120246 0.415982 0)
(-0.140953 0.650767 0)
(-0.113 0.793859 0)
(-0.0739915 0.895935 0)
(-0.0267831 0.892642 0)
(0.0188566 0.940614 0)
(0.0536184 0.948129 0)
(0.0856775 0.888418 0)
(0.13154 0.818868 0)
(0.181834 0.633107 0)
(0.212198 0.47152 0)
(0.198863 0.361654 0)
(0.148431 0.293883 0)
(0.0519137 0.266554 0)
(-0.0721166 0.41315 0)
(-0.189813 0.45701 0)
(-0.22259 0.557346 0)
(-0.231291 0.594033 0)
(-0.256056 0.567748 0)
(-0.291006 0.545029 0)
(-0.309967 0.618834 0)
(-0.264752 0.795397 0)
(-0.186799 1.06809 0)
(-0.122105 1.24577 0)
(-0.0795542 1.25804 0)
(0.000855108 1.07879 0)
(0.093222 0.814889 0)
(0.143523 0.616438 0)
(0.112622 0.417538 0)
(0.00150055 0.344809 0)
(-0.111926 0.491483 0)
(-0.152817 0.661722 0)
(-0.141067 0.768285 0)
(-0.0946374 0.854085 0)
(-0.0452851 0.914485 0)
(-0.000649227 0.96921 0)
(0.0533792 0.981728 0)
(0.109529 0.914348 0)
(0.176781 0.780322 0)
(0.230105 0.625153 0)
(0.236142 0.506041 0)
(0.19799 0.428278 0)
(0.129281 0.377922 0)
(0.0391765 0.363274 0)
(-0.0530864 0.552233 0)
(-0.151759 0.553763 0)
(-0.191056 0.624578 0)
(-0.204739 0.666749 0)
(-0.22672 0.659197 0)
(-0.267619 0.637953 0)
(-0.298271 0.666156 0)
(-0.288911 0.832886 0)
(-0.199196 1.02476 0)
(-0.0843352 1.20029 0)
(0.0298234 1.2066 0)
(0.132014 1.02932 0)
(0.199534 0.844398 0)
(0.204387 0.647197 0)
(0.141172 0.521605 0)
(0.0144247 0.488764 0)
(-0.103359 0.586779 0)
(-0.153124 0.700712 0)
(-0.152963 0.77578 0)
(-0.120311 0.837132 0)
(-0.0724052 0.885067 0)
(-0.0140038 0.928816 0)
(0.0597298 0.93489 0)
(0.140474 0.873653 0)
(0.209833 0.765025 0)
(0.243453 0.651795 0)
(0.232186 0.565479 0)
(0.181754 0.505644 0)
(0.110233 0.461511 0)
(0.030429 0.441527 0)
(-0.0367375 0.651498 0)
(-0.1099 0.633694 0)
(-0.148694 0.684658 0)
(-0.163198 0.731182 0)
(-0.177664 0.749616 0)
(-0.211696 0.753494 0)
(-0.252711 0.773998 0)
(-0.268456 0.868108 0)
(-0.218503 1.04972 0)
(-0.0892158 1.20114 0)
(0.0679195 1.21807 0)
(0.177015 1.06648 0)
(0.216308 0.874374 0)
(0.19598 0.734451 0)
(0.11802 0.653742 0)
(0.000534186 0.634954 0)
(-0.10202 0.686096 0)
(-0.146995 0.752557 0)
(-0.149065 0.799994 0)
(-0.123749 0.843674 0)
(-0.0790561 0.881651 0)
(-0.0176673 0.914241 0)
(0.0606749 0.913754 0)
(0.142305 0.86218 0)
(0.20237 0.777002 0)
(0.22223 0.691407 0)
(0.20294 0.623784 0)
(0.155051 0.575222 0)
(0.0935542 0.534573 0)
(0.026346 0.505717 0)
(-0.0224659 0.718964 0)
(-0.0684573 0.686978 0)
(-0.0975761 0.728012 0)
(-0.117885 0.781428 0)
(-0.139675 0.827434 0)
(-0.175166 0.869814 0)
(-0.217956 0.919696 0)
(-0.238735 0.992177 0)
(-0.211017 1.08635 0)
(-0.114869 1.16452 0)
(0.0189594 1.18009 0)
(0.119358 1.07974 0)
(0.151314 0.950164 0)
(0.124493 0.845198 0)
(0.0557452 0.778982 0)
(-0.0336806 0.757075 0)
(-0.106433 0.772757 0)
(-0.139798 0.804665 0)
(-0.14132 0.832866 0)
(-0.120761 0.861466 0)
(-0.0812765 0.888532 0)
(-0.0230574 0.90942 0)
(0.0510311 0.902358 0)
(0.122237 0.858206 0)
(0.167023 0.790383 0)
(0.176452 0.723711 0)
(0.157891 0.66835 0)
(0.122542 0.626995 0)
(0.0777247 0.592362 0)
(0.0239879 0.561171 0)
(-0.00529836 0.752897 0)
(-0.027494 0.717661 0)
(-0.0454738 0.759382 0)
(-0.066738 0.822977 0)
(-0.0971479 0.890827 0)
(-0.143907 0.965584 0)
(-0.204155 1.04814 0)
(-0.248779 1.14088 0)
(-0.239466 1.22651 0)
(-0.169907 1.26263 0)
(-0.064495 1.24826 0)
(0.0261011 1.15908 0)
(0.0642381 1.04526 0)
(0.047683 0.944755 0)
(-0.00404554 0.876865 0)
(-0.0625783 0.843964 0)
(-0.107245 0.836746 0)
(-0.129564 0.846361 0)
(-0.130564 0.860465 0)
(-0.113648 0.876882 0)
(-0.0797958 0.892145 0)
(-0.0293063 0.89998 0)
(0.0305162 0.886185 0)
(0.0829846 0.84794 0)
(0.113417 0.795048 0)
(0.120468 0.740828 0)
(0.110925 0.69487 0)
(0.0906219 0.660892 0)
(0.0614932 0.634255 0)
(0.0208618 0.60761 0)
(0.012231 0.760459 0)
(0.0118872 0.735844 0)
(0.00453166 0.783979 0)
(-0.0118778 0.857935 0)
(-0.0419656 0.942866 0)
(-0.0899608 1.04323 0)
(-0.156844 1.15076 0)
(-0.225199 1.25223 0)
(-0.255217 1.32363 0)
(-0.222407 1.34366 0)
(-0.143178 1.30869 0)
(-0.0676701 1.21283 0)
(-0.0315431 1.10149 0)
(-0.0353 1.00694 0)
(-0.0609828 0.938463 0)
(-0.0901695 0.896512 0)
(-0.113019 0.875503 0)
(-0.124444 0.869612 0)
(-0.122415 0.871846 0)
(-0.107168 0.8771 0)
(-0.0793683 0.880999 0)
(-0.040872 0.87804 0)
(0.00168037 0.861096 0)
(0.0382945 0.82853 0)
(0.06224 0.786591 0)
(0.0726073 0.744286 0)
(0.0718766 0.708076 0)
(0.0627062 0.681197 0)
(0.0457161 0.662529 0)
(0.0168315 0.644477 0)
(0.025933 0.744595 0)
(0.0464098 0.740867 0)
(0.0501669 0.797364 0)
(0.0435969 0.883656 0)
(0.0181341 0.984664 0)
(-0.0331121 1.09998 0)
(-0.11312 1.22001 0)
(-0.20767 1.31442 0)
(-0.278118 1.35996 0)
(-0.291282 1.34822 0)
(-0.246353 1.29512 0)
(-0.184721 1.20504 0)
(-0.142212 1.10711 0)
(-0.123596 1.02494 0)
(-0.120318 0.962079 0)
(-0.124287 0.918297 0)
(-0.1289 0.890605 0)
(-0.129253 0.875276 0)
(-0.12232 0.867558 0)
(-0.107104 0.863163 0)
(-0.0839878 0.858052 0)
(-0.0548494 0.849079 0)
(-0.0237403 0.831635 0)
(0.00409692 0.805386 0)
(0.0247522 0.773645 0)
(0.0369557 0.741308 0)
(0.0414432 0.712916 0)
(0.0395181 0.691982 0)
(0.0313656 0.680079 0)
(0.0124049 0.671832 0)
(0.0329648 0.707064 0)
(0.071421 0.727161 0)
(0.0947674 0.795401 0)
(0.0966187 0.895235 0)
(0.056515 1.01531 0)
(-0.022218 1.1284 0)
(-0.127821 1.2414 0)
(-0.237425 1.31938 0)
(-0.322506 1.34188 0)
(-0.360255 1.29799 0)
(-0.335086 1.22333 0)
(-0.278287 1.14488 0)
(-0.226245 1.07064 0)
(-0.190374 1.00719 0)
(-0.16871 0.95638 0)
(-0.156276 0.917636 0)
(-0.147729 0.88974 0)
(-0.139122 0.870459 0)
(-0.127594 0.856624 0)
(-0.111689 0.846067 0)
(-0.0912877 0.836186 0)
(-0.0675514 0.823871 0)
(-0.0428464 0.807185 0)
(-0.0201444 0.785611 0)
(-0.00187971 0.760641 0)
(0.0108511 0.735158 0)
(0.0182081 0.712549 0)
(0.0208887 0.696269 0)
(0.0189287 0.689584 0)
(0.00799368 0.690362 0)
(0.0359113 0.651946 0)
(0.0940917 0.693184 0)
(0.134524 0.768885 0)
(0.114991 0.902397 0)
(0.012789 1.03801 0)
(-0.120505 1.16237 0)
(-0.225238 1.27397 0)
(-0.292237 1.32359 0)
(-0.342058 1.31971 0)
(-0.37911 1.23991 0)
(-0.380586 1.14248 0)
(-0.335933 1.07005 0)
(-0.280169 1.0156 0)
(-0.233883 0.971038 0)
(-0.201285 0.934025 0)
(-0.179241 0.903157 0)
(-0.163008 0.878548 0)
(-0.148662 0.858916 0)
(-0.133899 0.843195 0)
(-0.117297 0.82975 0)
(-0.0984428 0.816895 0)
(-0.0778851 0.80312 0)
(-0.056976 0.787164 0)
(-0.0374747 0.768558 0)
(-0.0209288 0.747998 0)
(-0.0081634 0.727275 0)
(0.00080308 0.708932 0)
(0.00638463 0.696187 0)
(0.00861179 0.693275 0)
(0.00394447 0.701043 0)
(0.040149 0.582758 0)
(0.108022 0.634228 0)
(0.139396 0.724439 0)
(0.0610427 0.932562 0)
(-0.111681 1.12225 0)
(-0.261027 1.21873 0)
(-0.344708 1.269 0)
(-0.355778 1.2797 0)
(-0.348183 1.26208 0)
(-0.353608 1.19426 0)
(-0.362455 1.07226 0)
(-0.34359 0.994295 0)
(-0.2979 0.953071 0)
(-0.25245 0.925741 0)
(-0.216832 0.902698 0)
(-0.190783 0.881161 0)
(-0.17123 0.861318 0)
(-0.1545 0.843649 0)
(-0.13833 0.827781 0)
(-0.121612 0.813201 0)
(-0.10392 0.799192 0)
(-0.0854761 0.784931 0)
(-0.0670407 0.769703 0)
(-0.0496733 0.753174 0)
(-0.0343768 0.735689 0)
(-0.0217567 0.718407 0)
(-0.0118916 0.703272 0)
(-0.0045201 0.693204 0)
(0.000458477 0.692903 0)
(0.000577291 0.705146 0)
(0.0373334 0.502217 0)
(0.0921582 0.566067 0)
(0.0661904 0.702377 0)
(-0.0485232 1.03297 0)
(-0.194377 1.18436 0)
(-0.295644 1.26941 0)
(-0.369642 1.27342 0)
(-0.372661 1.2462 0)
(-0.341397 1.20239 0)
(-0.309689 1.14095 0)
(-0.308646 1.02288 0)
(-0.30897 0.932255 0)
(-0.282108 0.895534 0)
(-0.246658 0.880688 0)
(-0.215616 0.869144 0)
(-0.191005 0.856348 0)
(-0.171602 0.841725 0)
(-0.155098 0.826503 0)
(-0.139336 0.811468 0)
(-0.123361 0.796861 0)
(-0.10692 0.782603 0)
(-0.0901607 0.768394 0)
(-0.0735498 0.753899 0)
(-0.0577543 0.738938 0)
(-0.0434494 0.723705 0)
(-0.0310906 0.708996 0)
(-0.0207833 0.696326 0)
(-0.0123638 0.688309 0)
(-0.00564066 0.689714 0)
(-0.00197029 0.704314 0)
(0.0182229 0.428991 0)
(0.0421863 0.525261 0)
(-0.0322778 0.750916 0)
(-0.141559 1.07265 0)
(-0.197357 1.21898 0)
(-0.262317 1.33206 0)
(-0.312473 1.29506 0)
(-0.331646 1.22946 0)
(-0.315817 1.15885 0)
(-0.270769 1.09044 0)
(-0.254757 0.998099 0)
(-0.254325 0.889977 0)
(-0.243217 0.850975 0)
(-0.221684 0.843107 0)
(-0.200027 0.839225 0)
(-0.181043 0.832746 0)
(-0.164801 0.822617 0)
(-0.150369 0.809712 0)
(-0.13639 0.795612 0)
(-0.122008 0.781293 0)
(-0.107114 0.767147 0)
(-0.0919466 0.753208 0)
(-0.0768847 0.739387 0)
(-0.0624033 0.72563 0)
(-0.0489921 0.71209 0)
(-0.0370135 0.699345 0)
(-0.026594 0.688609 0)
(-0.0176396 0.682198 0)
(-0.00988531 0.684626 0)
(-0.00370157 0.699592 0)
(-0.0246325 0.391036 0)
(0.00198425 0.506636 0)
(-0.113636 0.807714 0)
(-0.163266 1.08684 0)
(-0.212733 1.23546 0)
(-0.225739 1.3477 0)
(-0.242596 1.30679 0)
(-0.241884 1.22977 0)
(-0.245218 1.12744 0)
(-0.224656 1.04724 0)
(-0.196904 0.971768 0)
(-0.189471 0.865921 0)
(-0.190902 0.822718 0)
(-0.184134 0.817176 0)
(-0.174208 0.816597 0)
(-0.163122 0.813437 0)
(-0.152047 0.80604 0)
(-0.141085 0.794785 0)
(-0.129756 0.781271 0)
(-0.117555 0.767075 0)
(-0.104525 0.753015 0)
(-0.0910002 0.739322 0)
(-0.0774019 0.726035 0)
(-0.0641446 0.713187 0)
(-0.0516265 0.700924 0)
(-0.0401605 0.689697 0)
(-0.0298937 0.680505 0)
(-0.0207842 0.675369 0)
(-0.0125207 0.678332 0)
(-0.00470421 0.692228 0)
(-0.0284713 0.433813 0)
(-0.105163 0.552062 0)
(-0.177193 0.85468 0)
(-0.178213 1.09915 0)
(-0.234538 1.23005 0)
(-0.22814 1.33414 0)
(-0.20908 1.28711 0)
(-0.174 1.21357 0)
(-0.143755 1.12202 0)
(-0.135175 1.01256 0)
(-0.119974 0.941721 0)
(-0.113939 0.857325 0)
(-0.129832 0.813374 0)
(-0.139866 0.80514 0)
(-0.142652 0.803006 0)
(-0.140122 0.799988 0)
(-0.135012 0.793337 0)
(-0.128274 0.78266 0)
(-0.120089 0.769108 0)
(-0.110397 0.754643 0)
(-0.099407 0.7404 0)
(-0.0875982 0.726768 0)
(-0.0754505 0.71382 0)
(-0.0634022 0.701621 0)
(-0.0518247 0.690315 0)
(-0.041011 0.680271 0)
(-0.0311272 0.672325 0)
(-0.0221678 0.668215 0)
(-0.0138012 0.671381 0)
(-0.00509919 0.683634 0)
(-0.0730264 0.572392 0)
(-0.172811 0.709176 0)
(-0.28277 0.921612 0)
(-0.205151 1.13368 0)
(-0.231755 1.23202 0)
(-0.208004 1.31062 0)
(-0.177876 1.25937 0)
(-0.13002 1.18362 0)
(-0.0513876 1.08642 0)
(0.0141258 1.01926 0)
(-0.00278225 0.921244 0)
(-0.0233412 0.858707 0)
(-0.0592512 0.824523 0)
(-0.092194 0.807631 0)
(-0.108968 0.798036 0)
(-0.114553 0.792628 0)
(-0.115345 0.785031 0)
(-0.113019 0.773783 0)
(-0.108185 0.759482 0)
(-0.101092 0.744194 0)
(-0.092171 0.729406 0)
(-0.0820717 0.71556 0)
(-0.0713611 0.702731 0)
(-0.0605225 0.69096 0)
(-0.0499452 0.680367 0)
(-0.0399215 0.671257 0)
(-0.0306313 0.664332 0)
(-0.0220896 0.661061 0)
(-0.0139618 0.664224 0)
(-0.00501961 0.674461 0)
(-0.107251 0.755646 0)
(-0.242024 0.877185 0)
(-0.285184 1.01863 0)
(-0.244221 1.22485 0)
(-0.177746 1.27233 0)
(-0.107317 1.30534 0)
(-0.0309355 1.22261 0)
(0.0537109 1.13001 0)
(0.107505 1.05739 0)
(0.141704 1.03844 0)
(0.133381 1.02678 0)
(0.0570396 0.912286 0)
(0.00592781 0.856159 0)
(-0.0415673 0.82531 0)
(-0.0745291 0.800841 0)
(-0.0876861 0.791042 0)
(-0.094257 0.781204 0)
(-0.0963141 0.768399 0)
(-0.0948079 0.752556 0)
(-0.0902283 0.735827 0)
(-0.0832786 0.72007 0)
(-0.0747715 0.70572 0)
(-0.0654243 0.692791 0)
(-0.0557733 0.681269 0)
(-0.0462439 0.671215 0)
(-0.0371395 0.662864 0)
(-0.0286437 0.656797 0)
(-0.020775 0.654222 0)
(-0.0131996 0.657263 0)
(-0.00458126 0.66552 0)
(-0.0903366 0.940442 0)
(-0.191962 1.00681 0)
(-0.216581 1.09858 0)
(-0.132844 1.20136 0)
(0.00566256 1.23888 0)
(0.094973 1.27761 0)
(0.150062 1.22994 0)
(0.157728 1.17305 0)
(0.142033 1.13934 0)
(0.110647 1.11797 0)
(0.104135 1.09236 0)
(0.0893593 1.02539 0)
(0.0391586 0.919446 0)
(0.00268335 0.861031 0)
(-0.040152 0.813378 0)
(-0.060169 0.795828 0)
(-0.0726935 0.782039 0)
(-0.0790563 0.766592 0)
(-0.0807151 0.748267 0)
(-0.0784148 0.729438 0)
(-0.0731721 0.712236 0)
(-0.0660269 0.697109 0)
(-0.0578667 0.683912 0)
(-0.0493297 0.672534 0)
(-0.0408688 0.662937 0)
(-0.0328019 0.655262 0)
(-0.0253024 0.649964 0)
(-0.0183693 0.648003 0)
(-0.0116622 0.650879 0)
(-0.00387382 0.657414 0)
(-0.0391575 1.02919 0)
(-0.092544 1.03587 0)
(-0.0922049 1.1069 0)
(-0.0553249 1.21849 0)
(-0.000648142 1.28946 0)
(0.0632926 1.34497 0)
(0.118429 1.31724 0)
(0.134921 1.26585 0)
(0.113683 1.2326 0)
(0.0728211 1.20527 0)
(0.0457154 1.15955 0)
(0.0395824 1.08456 0)
(0.0299182 0.970081 0)
(0.0168012 0.908891 0)
(-0.015269 0.83778 0)
(-0.0366812 0.80764 0)
(-0.0528812 0.787657 0)
(-0.0625559 0.768322 0)
(-0.0667915 0.746468 0)
(-0.0662504 0.724776 0)
(-0.0622399 0.705664 0)
(-0.056088 0.689513 0)
(-0.0488359 0.675967 0)
(-0.041251 0.664724 0)
(-0.033842 0.655614 0)
(-0.0269229 0.648637 0)
(-0.0206369 0.6441 0)
(-0.0149314 0.642724 0)
(-0.00943525 0.645453 0)
(-0.00295147 0.65065 0)
(-0.0125806 1.04546 0)
(-0.0165225 1.0238 0)
(-0.000574793 1.09859 0)
(0.00753259 1.21569 0)
(0.00312045 1.31243 0)
(0.0117584 1.35612 0)
(0.0383214 1.33542 0)
(0.0557452 1.29648 0)
(0.0567356 1.27709 0)
(0.0356755 1.26857 0)
(0.0174866 1.20837 0)
(-0.0012558 1.14994 0)
(-0.0189807 1.00231 0)
(-0.00319968 0.940889 0)
(-0.00927162 0.863785 0)
(-0.0236989 0.822348 0)
(-0.0377185 0.796402 0)
(-0.048344 0.772929 0)
(-0.0539694 0.746696 0)
(-0.0543046 0.721373 0)
(-0.0508093 0.699943 0)
(-0.0450886 0.682598 0)
(-0.0383413 0.668724 0)