/*--------------------------------*- C++ -*----------------------------------*\
| =========                 |                                                 |
| \\      /  F ield         | OpenFOAM: The Open Source CFD Toolbox           |
|  \\    /   O peration     | Version:  v1606+                                |
|   \\  /    A nd           | Web:      www.OpenFOAM.com                      |
|    \\/     M anipulation  |                                                 |
\*---------------------------------------------------------------------------*/
FoamFile
{
    version     2.0;
    format      ascii;
    class       volScalarField;
    location    "40";
    object      alpha.water;
}
// * * * * * * * * * * * * * * * * * * * * * * * * * * * * * * * * * * * * * //

dimensions      [0 0 0 0 0 0 0];

internalField   nonuniform List<scalar> 
5080
(
1
1
1
1
1
1
1
1
1
1
1
1
1
1
1
1
1
1
1
1
1
1
1
1
1
1
1
1
1
1
1
1
1
1
1
1
1
1
1
1
1
1
1
1
1
1
1
1
1
1
1
1
1
1
1
1
1
1
1
1
1
1
1
1
1
1
1
1
1
1
1
1
1
1
1
1
1
1
1
1
1
1
1
1
1
1
1
1
1
1
1
1
1
1
1
1
1
1
1
1
1
1
1
1
1
1
1
1
1
1
1
1
1
1
1
1
1
1
1
1
1
1
1
1
1
1
1
1
1
1
1
1
1
1
1
1
1
1
1
1
1
1
1
1
1
1
1
1
1
1
1
1
1
1
1
1
1
1
1
1
1
1
1
1
1
1
1
1
1
1
1
1
1
1
1
1
1
1
1
1
1
1
1
1
1
1
1
1
1
1
1
1
1
1
1
1
1
1
1
1
1
1
1
1
1
1
1
1
1
1
1
1
1
1
1
1
1
1
1
1
1
1
1
1
1
1
1
1
1
1
1
1
1
1
1
1
1
1
1
1
1
1
1
1
1
1
1
1
1
1
1
1
1
1
1
1
1
1
1
1
1
1
1
1
1
1
1
1
1
1
1
1
1
1
1
1
1
1
1
1
1
1
1
1
1
1
1
1
1
1
1
1
1
1
1
1
1
1
1
1
1
1
1
1
1
1
1
1
1
1
1
1
1
1
1
1
1
1
1
1
1
1
1
1
1
1
1
1
1
1
1
1
1
1
1
1
1
1
1
1
1
1
1
1
1
1
1
1
1
1
1
1
1
1
1
1
1
1
1
1
1
1
1
1
1
1
1
1
1
1
1
1
1
1
1
1
1
1
1
1
1
1
1
1
1
1
1
1
1
1
1
1
1
1
1
1
1
1
1
1
0.996211
0.997378
0.997378
0.997378
0.996963
0.995188
0.992167
0.991101
0.991406
0.991748
0.991347
0.991634
0.994054
0.990007
0.975961
0.975883
0.975813
0.975744
0.986323
0.9999
1
0.999994
0.99999
0.999993
0.999993
0.988537
0.930471
0.953793
0.992108
0.999849
1
1
0.999995
0.999995
0.999995
0.999995
0.978818
0.934477
0.934476
0.934477
0.955944
0.998957
1
1
1
1
1
1
0.993112
0.948591
0.946407
0.984182
1
1
1
1
0.998632
0.967598
0.962669
0.980798
0.988852
0.987997
0.98464
0.990383
0.985553
0.957169
0.957078
0.956624
0.956863
0.956404
0.956883
0.956692
0.957109
0.97699
0.999743
1
0.999992
0.999986
0.999991
0.999998
1
1
1
1
0.978505
0.930471
0.930471
0.930468
0.930469
0.983187
1
1
1
1
0.981152
0.934478
0.934477
0.934476
0.934476
0.9603
0.998346
1
1
1
1
1
0.933621
0.875192
0.875193
0.87519
0.875193
0.942386
1
1
1
0.999984
0.999916
0.999853
0.999852
0.991074
0.966367
0.972771
0.972909
0.976136
0.992183
0.997048
0.9948
0.99615
0.999659
1
1
1
1
1
1
1
1
1
1
1
1
1
1
0.998203
0.997282
0.997278
0.997405
0.998064
0.999298
0.999966
1
1
0.999327
0.997076
0.997064
0.997496
0.998304
0.999113
0.999742
0.99999
1
1
1
0.976531
0.94442
0.944422
0.948467
0.979951
0.998516
0.999971
0.999999
1
1
1
1
1
1
0.999515
0.990069
0.988601
1
1
1
1
1
1
1
1
1
1
1
1
1
1
1
1
1
1
1
1
1
0.999999
0.999996
0.999995
1
1
1
1
1
1
1
0.999989
0.999988
0.99999
0.999999
1
1
1
1
1
1
0.99773
0.994778
0.994753
0.995913
0.99811
0.999769
1
1
1
1
1
1
1
1
1
0.999639
0.999312
0.999362
0.999604
0.999932
0.999984
0.999951
0.999933
0.999963
0.999997
1
1
1
1
1
0.999501
0.999402
0.999867
1
1
1
1
0.999902
0.99959
0.999849
1
1
1
1
1
1
1
1
1
1
1
1
1
1
1
1
1
1
1
1
1
1
1
1
1
1
1
1
1
1
1
1
1
1
1
1
1
1
1
0.999842
0.999956
0.999818
0.999818
0.999965
0.999997
0.973961
0.953533
0.932485
0.902959
0.772039
0.567907
0.539648
0.594611
0.695062
0.702245
0.62138
0.516403
0.522902
0.606048
0.680486
0.666689
0.573904
0.508431
0.528659
0.625949
0.704163
0.697419
0.635501
0.586462
0.598238
0.652847
0.677196
0.65648
0.596643
0.583077
0.608196
0.652976
0.652898
0.610302
0.55585
0.559085
0.610456
0.677379
0.68119
0.653825
0.619189
0.623255
0.664053
0.70773
0.707071
0.683315
0.658769
0.659321
0.662041
0.655385
0.631332
0.627333
0.658828
0.730359
0.999962
0.999994
0.999897
0.999983
0.999979
0.717729
0.359778
0.247826
0.125766
0.00136389
2.71218e-19
1.59785e-21
3.37128e-25
1.59788e-21
3.70928e-25
8.21801e-20
0.000194418
0.000186877
2.91601e-05
1.66044e-17
0.000119932
0.00121086
0.00154256
0.00146418
0.00163943
0.00267329
0.00475536
0.00527759
0.00442233
0.00223887
0.00131575
0.00165701
0.00337901
0.00484689
0.00478435
0.00426177
0.0040891
0.00449899
0.00590877
0.00756427
0.0089822
0.0109084
0.0140553
0.0175562
0.018567
0.0180139
0.0153424
0.0108304
0.00797914
0.00775012
0.00838224
0.0105135
0.0141629
0.0192088
0.0256265
0.0328815
0.0399952
0.0458694
0.0506414
0.0522876
1
1
1
1
0.769951
0.0740707
4.63139e-18
3.39109e-18
3.44816e-18
3.39124e-18
3.73377e-18
1.13569e-10
8.96531e-10
1.42103e-09
1.13222e-09
2.89058e-10
1.45486e-17
1.466e-17
1.22447e-17
1.61392e-17
1.44739e-17
1.4475e-17
1.53274e-17
1.28043e-17
1.02923e-17
7.76378e-18
7.76427e-18
1.01723e-17
1.26583e-17
1.31811e-17
1.07222e-17
8.19307e-18
8.20461e-18
1.06716e-17
1.3159e-17
1.55665e-17
1.80783e-17
2.0509e-17
2.30485e-17
2.55045e-17
2.80318e-17
3.04273e-17
3.28638e-17
3.51831e-17
4.04115e-17
4.28482e-17
4.52825e-17
4.76754e-17
5.00838e-17
5.24652e-17
5.48747e-17
5.72655e-17
5.97473e-17
6.23215e-17
6.50386e-17
6.77597e-17
7.05421e-17
7.32274e-17
7.60366e-17
7.88119e-17
1
1
1
0.997748
0.396922
8.79528e-18
5.25685e-18
8.67254e-09
2.15805e-08
1.46854e-08
5.6876e-09
8.42464e-09
1.52856e-08
1.43357e-08
4.99019e-09
1.62292e-10
1.77988e-17
2.85504e-17
3.49354e-17
3.12294e-17
2.40055e-17
1.77144e-17
1.36579e-17
1.17586e-17
1.16532e-17
1.29693e-17
1.56587e-17
2.09022e-17
3.09784e-17
4.69234e-17
7.13204e-17
1.13208e-16
1.85353e-16
3.38243e-16
1.29335e-15
5.95172e-15
2.31195e-14
6.82452e-14
1.54814e-13
2.93285e-13
5.08766e-13
8.3755e-13
1.29156e-12
1.889e-12
2.9445e-12
5.47474e-12
1.11135e-11
2.23542e-11
4.23814e-11
7.44651e-11
1.15903e-10
1.44848e-10
1.48715e-10
1.48704e-10
1.46913e-10
1.41356e-10
1.31495e-10
1.17585e-10
1.01494e-10
6.73448e-11
1
0.999969
1
0.952084
0.251547
9.10192e-18
7.27816e-11
8.52113e-08
9.38218e-08
7.72479e-08
2.14564e-08
1.86403e-08
1.63973e-08
5.01631e-09
4.58134e-11
4.97246e-15
4.96821e-15
3.66898e-15
1.23468e-15
1.29724e-16
5.03728e-17
2.62211e-17
1.86565e-17
2.05133e-17
2.97326e-17
4.58771e-17
6.96495e-17
1.082e-16
1.80375e-16
4.10377e-16
1.79999e-15
7.32069e-15
2.53338e-14
8.23339e-14
2.67693e-13
8.18493e-13
2.12746e-12
4.75092e-12
9.27616e-12
1.59091e-11
2.42003e-11
3.39911e-11
4.71161e-11
6.82644e-11
1.03174e-10
1.46715e-10
1.72951e-10
1.76379e-10
1.76427e-10
1.74628e-10
1.68668e-10
1.56079e-10
1.33293e-10
1.01193e-10
7.78309e-11
7.45709e-11
7.45551e-11
7.96685e-11
9.92147e-11
1.46868e-10
0.996557
0.999379
1
0.978742
0.16646
7.118e-18
3.36558e-08
8.66939e-08
8.32621e-08
1.89134e-08
2.00281e-09
1.46768e-09
3.15678e-10
1.3059e-12
1.94951e-14
1.95058e-14
1.39297e-14
4.87643e-15
5.05164e-16
6.33689e-17
4.18883e-17
4.01955e-17
5.97002e-17
1.02415e-16
1.72309e-16
2.81359e-16
6.77687e-16
2.52287e-15
9.58259e-15
3.33741e-14
1.02604e-13
2.79117e-13
6.87266e-13
1.54328e-12
3.15014e-12
6.02696e-12
1.12905e-11
2.07446e-11
3.67037e-11
5.94997e-11
8.18938e-11
9.22359e-11
9.3185e-11
9.31448e-11
9.06003e-11
8.16002e-11
6.34783e-11
3.91996e-11
2.09298e-11
1.61813e-11
1.62542e-11
1.80028e-11
2.53381e-11
4.96238e-11
1.36669e-10
5.21145e-10
1.79766e-09
2.50554e-09
2.51288e-09
2.00931e-09
0.945342
0.999071
0.990286
0.991513
0.0596953
4.62003e-18
2.81962e-09
1.00105e-08
5.63427e-18
4.30989e-18
4.2054e-18
4.14595e-18
4.04632e-18
3.13754e-14
2.92333e-14
9.65576e-15
6.64281e-16
7.98195e-17
5.34145e-17
6.31391e-17
1.02472e-16
1.72474e-16
2.78955e-16
4.7998e-16
1.37599e-15
4.2568e-15
1.24809e-14
3.45361e-14
9.00726e-14
2.1796e-13
4.89988e-13
1.04051e-12
2.11568e-12
4.02269e-12
6.24673e-12
6.93533e-12
6.92925e-12
6.77653e-12
6.51547e-12
6.12438e-12
5.46087e-12
4.43451e-12
3.30964e-12
2.68249e-12
2.6286e-12
2.66343e-12
2.78775e-12
2.97571e-12
3.0355e-12
3.01299e-12
2.88275e-12
2.49977e-12
1.70576e-12
5.88541e-13
2.14119e-13
2.04931e-13
1.24611e-12
6.62864e-12
1.27494e-11
1.42486e-11
0.933891
0.999557
0.967935
0.736447
0.0126268
2.26465e-18
1.15941e-19
1.22455e-19
7.82819e-11
8.44583e-11
2.79854e-11
2.36776e-12
4.94317e-13
1.15133e-13
9.06956e-15
1.48071e-16
5.86722e-17
6.27649e-17
1.00718e-16
1.68819e-16
2.71176e-16
4.1482e-16
7.57847e-16
2.01115e-15
5.20535e-15
1.22905e-14
2.62703e-14
4.95796e-14
7.85719e-14
1.0215e-13
1.15845e-13
1.26255e-13
1.3967e-13
1.58144e-13
1.79312e-13
2.02063e-13
2.27163e-13
2.60051e-13
3.01393e-13
3.42047e-13
3.67953e-13
3.76867e-13
3.77524e-13
3.73749e-13
3.60035e-13
3.43589e-13
3.39343e-13
3.40938e-13
3.5091e-13
3.78116e-13
4.22547e-13
4.64303e-13
4.79221e-13
4.76778e-13
4.45765e-13
3.5853e-13
2.19342e-13
7.97202e-14
8.95251e-15
1.62717e-17
0.933891
0.999928
0.971208
0.0809566
0.00328555
9.38581e-06
2.19949e-18
5.63608e-19
1.99665e-20
2.04424e-20
1.87898e-20
1.86659e-20
3.2694e-19
1.54747e-18
4.5193e-18
1.10533e-17
2.3165e-17
4.33035e-17
7.3828e-17
1.16512e-16
1.72021e-16
2.3935e-16
3.15537e-16
4.04254e-16
5.21674e-16
6.77991e-16
8.9145e-16
1.5754e-15
3.05241e-15
5.88761e-15
1.13892e-14
2.21027e-14
4.09296e-14
6.34442e-14
7.3029e-14
7.30142e-14
7.11135e-14
6.6528e-14
5.97442e-14
5.19171e-14
4.40703e-14
3.66457e-14
2.96013e-14
2.27296e-14
1.59585e-14
9.5857e-15
4.36863e-15
1.15122e-15
2.48314e-16
1.79533e-16
1.35962e-16
1.03848e-16
8.0214e-17
6.24779e-17
4.87372e-17
3.79223e-17
2.93346e-17
2.25926e-17
1.73567e-17
1.33601e-17
0.933891
0.999939
0.981993
0.0160735
0.0164571
0.000123756
2.61245e-18
5.62658e-19
2.00786e-19
7.74424e-20
3.44172e-20
1.84222e-20
1.19149e-20
9.1462e-21
8.02377e-21
7.74282e-21
7.98374e-21
8.5979e-21
9.51872e-21
1.07096e-20
1.21441e-20
1.37981e-20
1.56447e-20
1.76532e-20
1.97853e-20
2.19893e-20
2.42024e-20
2.63629e-20
2.84301e-20
3.03984e-20
3.2302e-20
3.42149e-20
3.62543e-20
3.85937e-20
4.14426e-20
4.4981e-20
4.93949e-20
5.49325e-20
6.17949e-20
7.01475e-20
8.00908e-20
9.16579e-20
1.04833e-19
1.19576e-19
1.3584e-19
1.53616e-19
1.72966e-19
1.94048e-19
2.171e-19
2.42399e-19
2.70204e-19
3.00728e-19
3.34138e-19
3.70573e-19
4.10162e-19
4.5303e-19
4.99312e-19
5.49134e-19
6.02602e-19
6.59775e-19
0.934175
1
0.973438
0.0896723
0.0247921
4.7673e-05
2.28398e-18
2.76985e-19
6.22533e-20
1.69984e-20
6.23243e-21
3.40988e-21
2.45539e-21
2.1014e-21
2.02513e-21
2.10546e-21
2.33323e-21
2.69244e-21
3.18616e-21
3.82283e-21
4.61133e-21
5.55942e-21
6.66995e-21
7.93829e-21
9.34955e-21
1.08755e-20
1.24756e-20
1.41043e-20
1.57235e-20
1.73154e-20
1.88886e-20
2.0477e-20
2.21329e-20
2.39219e-20
2.59191e-20
2.82078e-20
3.08752e-20
3.40084e-20
3.76919e-20
4.20065e-20
4.70332e-20
5.2856e-20
5.95663e-20
6.72655e-20
7.60699e-20
8.61173e-20
9.75739e-20
1.1064e-19
1.25546e-19
1.42546e-19
1.61907e-19
1.83902e-19
2.08816e-19
2.36965e-19
2.68707e-19
3.04464e-19
3.44738e-19
3.90125e-19
4.41297e-19
4.98963e-19
0.987677
1
0.954361
0.481576
0.00412104
3.33119e-18
1.48434e-18
1.45345e-19
1.69452e-20
2.94754e-21
1.5978e-21
1.16122e-21
8.06194e-22
6.14312e-22
5.34651e-22
4.98862e-22
5.32464e-22
6.1261e-22
7.38801e-22
9.14802e-22
1.14332e-21
1.42722e-21
1.76766e-21
2.16288e-21
2.60768e-21
3.09286e-21
3.60626e-21
4.13496e-21
4.66889e-21
5.20426e-21
5.74557e-21
6.30536e-21
6.90277e-21
7.56177e-21
8.31003e-21
9.17819e-21
1.01992e-20
1.14076e-20
1.2839e-20
1.45301e-20
1.65194e-20
1.88485e-20
2.15626e-20
2.47124e-20
2.83556e-20
3.25592e-20
3.74029e-20
4.29814e-20
4.94057e-20
5.68028e-20
6.53153e-20
7.51032e-20
8.63503e-20
9.92743e-20
1.14141e-19
1.31281e-19
1.51107e-19
1.74141e-19
2.01004e-19
2.32371e-19
1
1
0.95091
0.829517
1.07067e-18
2.04791e-18
3.78503e-19
8.44201e-20
6.03935e-21
1.11543e-21
8.27083e-22
5.33048e-22
3.35636e-22
2.30764e-22
1.6259e-22
1.18446e-22
1.0765e-22
1.12543e-22
1.30752e-22
1.63183e-22
2.08645e-22
2.67162e-22
3.39143e-22
4.24082e-22
5.20857e-22
6.27514e-22
7.41612e-22
8.60651e-22
9.82779e-22
1.10747e-21
1.23593e-21
1.37106e-21
1.51727e-21
1.68016e-21
1.86624e-21
2.08281e-21
2.33787e-21
2.64002e-21
2.99841e-21
3.4228e-21
3.92366e-21
4.5124e-21
5.2016e-21
6.00539e-21
6.93989e-21
8.02389e-21
9.27965e-21
1.07338e-20
1.24182e-20
1.43709e-20
1.66367e-20
1.92701e-20
2.23378e-20
2.5924e-20
3.01378e-20
3.51215e-20
4.10625e-20
4.82098e-20
5.68769e-20
6.74099e-20
1
1
0.980275
0.833863
1.04162e-18
9.94173e-19
3.29547e-19
7.6983e-20
5.35458e-21
7.86537e-22
4.74739e-22
2.89437e-22
1.73696e-22
1.11412e-22
6.78743e-23
3.95782e-23
2.71459e-23
2.02752e-23
1.82142e-23
2.05926e-23
2.5993e-23
3.33214e-23
4.29439e-23
5.44293e-23
6.76032e-23
8.22183e-23
9.79693e-23
1.14541e-22
1.31709e-22
1.49421e-22
1.67841e-22
1.8735e-22
2.08532e-22
2.32135e-22
2.59034e-22
2.90215e-22
3.26768e-22
3.69876e-22
4.2081e-22
4.80943e-22
5.51764e-22
6.34908e-22
7.32195e-22
8.45687e-22
9.77762e-22
1.13122e-21
1.30942e-21
1.51645e-21
1.75735e-21
2.03833e-21
2.36718e-21
2.75383e-21
3.21122e-21
3.75659e-21
4.41331e-21
5.21351e-21
6.20159e-21
7.43959e-21
9.01e-21
1.1007e-20
1
1
0.993126
0.624649
0.000106371
3.23084e-19
3.22799e-19
7.71202e-20
5.51112e-21
6.09166e-22
2.92474e-22
1.71732e-22
1.01406e-22
6.55909e-23
3.8697e-23
1.97215e-23
1.08278e-23
5.67276e-24
3.22289e-24
2.26495e-24
2.04606e-24
2.29836e-24
2.9961e-24
3.83039e-24
4.75301e-24
5.7812e-24
6.88349e-24
8.03687e-24
9.228e-24
1.04532e-23
1.17226e-23
1.30594e-23
1.45003e-23
1.60925e-23
1.78905e-23
1.99558e-23
2.23563e-23
2.51658e-23
2.84638e-23
3.2337e-23
3.68812e-23
4.22034e-23
4.84255e-23
5.56891e-23
6.41624e-23
7.40487e-23
8.55987e-23
9.91276e-23
1.15037e-22
1.33844e-22
1.56234e-22
1.83122e-22
2.1577e-22
2.55942e-22
3.06157e-22
3.7007e-22
4.53047e-22
5.6306e-22
7.11518e-22
9.12595e-22
1
1
0.992146
0.427179
0.0149485
3.23033e-19
3.22734e-19
7.91458e-20
6.02336e-21
5.33374e-22
1.91394e-22
1.03037e-22
5.9386e-23
3.94821e-23
2.42481e-23
1.21458e-23
6.34841e-24
2.91906e-24
1.23413e-24
5.04906e-25
2.09732e-25
1.12882e-25
9.24568e-26
1.00698e-25
1.20694e-25
1.48873e-25
1.76066e-25
2.02033e-25
2.28422e-25
2.55175e-25
2.82591e-25
3.11238e-25
3.41995e-25
3.75933e-25
4.14289e-25
4.58475e-25
5.10087e-25
5.70902e-25
6.42914e-25
7.28434e-25
8.30171e-25
9.51347e-25
1.09587e-24
1.2686e-24
1.47562e-24
1.7247e-24
2.02593e-24
2.39259e-24
2.84249e-24
3.39992e-24
4.09868e-24
4.98695e-24
6.13495e-24
7.64754e-24
9.6852e-24
1.24996e-23
1.64942e-23
2.23285e-23
3.10631e-23
4.42342e-23
1
0.998231
0.989125
0.375149
0.0295792
3.23333e-19
3.26278e-19
8.26344e-20
6.87888e-21
5.32653e-22
1.39656e-22
6.23161e-23
3.46497e-23
2.32355e-23
1.47515e-23
7.52173e-24
3.97754e-24
1.84688e-24
7.55036e-25
2.79042e-25
8.72731e-26
2.33145e-26
5.26442e-27
1.26973e-27
6.72401e-28
6.83217e-28
7.70504e-28
8.69625e-28
9.80598e-28
1.08962e-27
1.19053e-27
1.29633e-27
1.41095e-27
1.53864e-27
1.68495e-27
1.85687e-27
2.0633e-27
2.31586e-27
2.63031e-27
3.0288e-27
3.54273e-27
4.21689e-27
5.11579e-27
6.33246e-27
8.00092e-27
1.03139e-26
1.35489e-26
1.81061e-26
2.45658e-26
3.37772e-26
4.70007e-26
6.61444e-26
9.41679e-26
1.35791e-25
1.98777e-25
2.96299e-25
4.51395e-25
7.05275e-25
1.13086e-24
1.8443e-24
0.999975
0.993981
0.988405
0.426326
0.0396576
3.23633e-19
3.34369e-19
8.81378e-20
8.1441e-21
5.94899e-22
1.19079e-22
3.79506e-23
2.01164e-23
1.35327e-23
8.87244e-24
4.6014e-24
2.43236e-24
1.14699e-24
4.73442e-25
1.76337e-25
5.47841e-26
1.40696e-26
2.78021e-27
3.821e-28
2.87707e-29
3.67553e-31
4.1877e-32
3.09078e-32
3.6024e-32
4.30247e-32
5.14662e-32
6.18486e-32
1.01597e-31
2.14169e-31
4.82973e-31
1.04347e-30
2.10653e-30
3.99117e-30
7.17305e-30
1.23445e-29
2.04973e-29
3.3031e-29
5.18978e-29
7.97936e-29
1.20407e-28
1.78751e-28
2.61637e-28
3.78342e-28
5.41617e-28
7.69282e-28
1.08689e-27
1.53225e-27
2.16333e-27
3.07228e-27
4.41109e-27
6.43912e-27
9.6119e-27
1.47425e-26
2.32365e-26
3.71352e-26
0.999804
0.994039
0.996097
0.633053
0.0501244
3.23934e-19
3.48115e-19
9.68972e-20
9.96794e-21
7.20577e-22
1.19279e-22
2.40162e-23
1.16646e-23
7.72533e-24
5.17975e-24
2.77015e-24
1.47975e-24
7.08284e-25
2.92678e-25
1.08598e-25
3.37751e-26
8.67718e-27
1.71292e-27
2.33175e-28
1.73771e-29
2.68338e-31
1.91991e-32
8.54796e-33
1.00616e-32
1.25413e-32
1.55058e-32
1.90092e-32
2.3191e-32
2.82836e-32
3.4883e-32
4.4052e-32
5.6882e-32
7.30848e-32
9.46404e-32
1.23111e-31
1.60148e-31
2.07766e-31
2.68858e-31
3.46906e-31
4.45918e-31
5.70951e-31
7.28442e-31
9.26893e-31
1.17743e-30
1.49537e-30
1.90301e-30
2.43434e-30
3.1425e-30
4.11291e-30
5.48732e-30
7.50771e-30
1.05915e-29
1.54534e-29
2.32499e-29
3.55669e-29
0.99692
0.997551
1
0.735188
0.0652982
3.24234e-19
3.68071e-19
1.10271e-19
1.25357e-20
9.16678e-22
1.33377e-22
1.65383e-23
6.86356e-24
4.44719e-24
3.00778e-24
1.63779e-24
8.76843e-25
4.27257e-25
1.79661e-25
6.71547e-26
2.08711e-26
5.29537e-27
1.02918e-27
1.38476e-28
1.04405e-29
2.08158e-31
1.23016e-32
2.65939e-33
2.82633e-33
3.61326e-33
4.58418e-33
5.74166e-33
7.1158e-33
8.74432e-33
1.06851e-32
1.30157e-32
1.58418e-32
1.92849e-32
2.3598e-32
2.92336e-32
3.63138e-32
4.49938e-32
5.60775e-32
7.0346e-32
8.8378e-32
1.11362e-31
1.40939e-31
1.79425e-31
2.29829e-31
2.96769e-31
3.87611e-31
5.14623e-31
6.98354e-31
9.74525e-31
1.40918e-30
2.13077e-30
3.39202e-30
5.693e-30
1.0009e-29
1.81709e-29
0.993064
1
1
0.752549
0.0886091
3.24535e-19
3.93983e-19
1.29698e-19
1.60435e-20
1.20395e-21
1.57187e-22
1.27069e-23
3.99806e-24
2.55135e-24
1.75247e-24
9.79399e-25
5.24024e-25
2.55292e-25
1.07749e-25
4.04698e-26
1.27219e-26
3.24653e-27
6.27775e-28
8.32532e-29
6.2614e-30
1.59832e-31
8.85679e-33
9.15112e-34
6.90467e-34
8.91401e-34
1.16386e-33
1.50142e-33
1.91184e-33
2.40561e-33
2.99502e-33
3.6976e-33
4.5361e-33
5.54169e-33
6.75924e-33
8.25227e-33
1.01069e-32
1.24286e-32
1.54297e-32
1.94915e-32
2.46094e-32
3.12521e-32
4.01423e-32
5.22471e-32
6.86972e-32
9.17713e-32
1.25353e-31
1.76323e-31
2.57055e-31
3.91335e-31
6.28866e-31
1.08063e-30
1.99808e-30
3.97061e-30
8.41223e-30
1.86452e-29
0.993061
0.999893
1
0.766573
0.117783
3.24834e-19
4.24541e-19
1.56758e-19
2.06929e-20
1.63672e-21
1.94122e-22
1.15729e-23
2.3303e-24
1.45118e-24
9.98685e-25
5.78007e-25
3.14316e-25
1.55122e-25
6.58635e-26
2.45505e-26
7.65217e-27
1.93952e-27
3.74477e-28
4.9795e-29
3.81583e-30
1.23636e-31
6.78126e-33
4.32125e-34
1.59214e-34
1.95274e-34
2.58323e-34
3.39684e-34
4.42445e-34
5.71113e-34
7.29331e-34
9.22132e-34
1.1548e-33
1.43428e-33
1.77069e-33
2.17809e-33
2.67707e-33
3.29803e-33
4.08709e-33
5.11385e-33
6.47562e-33
8.3332e-33
1.0978e-32
1.49399e-32
2.05915e-32
2.92231e-32
4.31199e-32
6.64018e-32
1.06913e-31
1.81715e-31
3.30413e-31
6.51071e-31
1.39481e-30
3.25124e-30
8.21498e-30
2.18206e-29
0.993055
0.999649
1
0.812933
0.148659
3.25134e-19
4.58185e-19
1.9295e-19
2.65664e-20
2.25336e-21
2.43546e-22
1.21621e-23
1.38058e-24
8.33989e-25
5.68647e-25
3.37108e-25
1.85072e-25
9.27205e-26
4.02669e-26
1.51927e-26
4.74988e-27
1.1908e-27
2.25345e-28
2.9393e-29
2.27554e-30
9.25067e-32
5.1702e-33
2.73529e-34
3.95105e-35
3.93499e-35
5.23479e-35
6.96031e-35
9.16321e-35
1.19682e-34
1.55129e-34
1.99791e-34
2.55591e-34
3.24718e-34
4.09905e-34
5.14842e-34
6.45207e-34
8.10042e-34
1.02411e-33
1.31175e-33
1.71293e-33
2.29403e-33
3.16709e-33
4.52285e-33
6.68404e-33
1.02698e-32
1.65691e-32
2.82276e-32
4.97684e-32
9.27803e-32
1.86224e-31
4.05823e-31
9.61532e-31
2.50958e-30
7.26271e-30
2.22312e-29
0.993046
0.999583
1
0.861673
0.180626
3.2543e-19
4.9295e-19
2.39182e-19
3.38588e-20
3.10917e-21
3.06493e-22
1.36772e-23
8.26331e-25
4.80918e-25
3.25293e-25
1.97862e-25
1.09492e-25
5.51503e-26
2.42569e-26
9.25689e-27
2.9423e-27
7.45854e-28
1.41065e-28
1.81865e-29
1.41158e-30
6.81469e-32
3.82771e-33
1.9194e-34
1.33881e-35
7.4433e-36
9.69513e-36
1.30663e-35
1.74491e-35
2.30419e-35
3.01418e-35
3.91138e-35
5.04569e-35
6.48379e-35
8.31325e-35
1.06555e-34
1.36876e-34
1.76911e-34
2.31564e-34
3.09697e-34
4.27361e-34
6.13455e-34
9.2013e-34
1.44196e-33
2.35287e-33
3.98118e-33
6.96852e-33
1.26214e-32
2.37337e-32
4.681e-32
9.9069e-32
2.29486e-31
5.69196e-31
1.56522e-30
4.89525e-30
1.65097e-29
0.993906
0.9997
1
0.899048
0.217657
3.25728e-19
5.26563e-19
2.94417e-19
4.28694e-20
4.27548e-21
3.89899e-22
1.58899e-23
5.09295e-25
2.75553e-25
1.83912e-25
1.14967e-25
6.48476e-26
3.31466e-26
1.47867e-26
5.67291e-27
1.81415e-27
4.62675e-28
8.81209e-29
1.14388e-29
9.09102e-31
5.04889e-32
2.85211e-33
1.40194e-34
6.94628e-36
1.48194e-36
1.69241e-36
2.27705e-36
3.05972e-36
4.0786e-36
5.39675e-36
7.07886e-36
9.21139e-36
1.19091e-35
1.53411e-35
1.97776e-35
2.56515e-35
3.37001e-35
4.52639e-35
6.29078e-35
9.16563e-35
1.41384e-34
2.31509e-34
4.00137e-34
7.22413e-34
1.34947e-33
2.59423e-33
5.12931e-33
1.04663e-32
2.21674e-32
4.906e-32
1.14242e-31
2.82111e-31
7.50082e-31
2.22176e-30
7.41362e-30
0.999289
0.999832
1
0.930275
0.265056
3.26021e-19
5.57131e-19
3.55434e-19
5.39513e-20
5.75688e-21
4.998e-22
1.87305e-23
3.3972e-25
1.57913e-25
1.03346e-25
6.56544e-26
3.76879e-26
1.96467e-26
8.98105e-27
3.5124e-27
1.13899e-27
2.92625e-28
5.58864e-29
7.2441e-30
5.85915e-31
3.62877e-32
2.07914e-33
1.02585e-34
4.59968e-36
3.86484e-37
2.87968e-37
3.80745e-37
5.11189e-37
6.81275e-37
9.01719e-37
1.18661e-36
1.55288e-36
2.02139e-36
2.62089e-36
3.39177e-36
4.40143e-36
5.77115e-36
7.73727e-36
1.07813e-35
1.59123e-35
2.52917e-35
4.36003e-35
8.09623e-35
1.59137e-34
3.25107e-34
6.81973e-34
1.46213e-33
3.20858e-33
7.23861e-33
1.68714e-32
4.07722e-32
1.01975e-31
2.59354e-31
6.33381e-31
1.25829e-30
0.999985
0.999987
1
0.957195
0.324963
3.26315e-19
5.83349e-19
4.19084e-19
6.81357e-20
7.6126e-21
6.45029e-22
2.19896e-23
2.56749e-25
9.02203e-26
5.80334e-26
3.72818e-26
2.16995e-26
1.14715e-26
5.33932e-27
2.13368e-27
7.08447e-28
1.86171e-28
3.61967e-29
4.73299e-30
3.88028e-31
2.56895e-32
1.47443e-33
7.27969e-35
3.194e-36
1.61687e-37
4.92782e-38
6.02423e-38
8.11734e-38
1.08691e-37
1.44082e-37
1.89388e-37
2.47179e-37
3.20848e-37
4.15175e-37
5.36582e-37
6.94356e-37
9.03543e-37
1.1928e-36
1.61899e-36
2.30378e-36
3.51584e-36
5.86535e-36
1.07743e-35
2.15693e-35
4.59837e-35
1.0174e-34
2.28954e-34
5.17831e-34
1.16883e-33
2.61412e-33
5.72215e-33
1.19941e-32
2.32492e-32
3.95585e-32
5.3971e-32
0.997585
0.999979
1
0.977819
0.393787
3.26606e-19
6.04337e-19
4.84694e-19
8.77167e-20
1.01904e-20
8.59597e-22
2.61446e-23
2.29753e-25
5.08969e-26
3.22306e-26
2.08998e-26
1.23844e-26
6.66076e-27
3.15035e-27
1.28111e-27
4.33347e-28
1.16182e-28
2.3084e-29
3.08738e-30
2.59291e-31
1.80468e-32
1.04035e-33
5.12686e-35
2.22529e-36
9.50183e-38
1.02069e-38
9.07055e-39
1.20835e-38
1.62339e-38
2.16345e-38
2.85689e-38
3.73742e-38
4.84844e-38
6.24648e-38
8.01087e-38
1.0257e-37
1.31571e-37
1.69947e-37
2.22714e-37
2.9951e-37
4.20426e-37
6.29969e-37
1.02782e-36
1.84298e-36
3.60816e-36
7.5562e-36
1.64354e-35
3.59784e-35
7.72459e-35
1.60028e-34
3.15992e-34
5.85399e-34
9.92725e-34
1.48973e-33
1.85704e-33
0.95808
1
1
0.991008
0.46446
3.26897e-19
6.19582e-19
5.55042e-19
1.16573e-19
1.4222e-20
1.22328e-21
3.30788e-23
2.56583e-25
2.83783e-26
1.76798e-26
1.15063e-26
6.93002e-27
3.79851e-27
1.83274e-27
7.61484e-28
2.62997e-28
7.19548e-29
1.45744e-29
1.98776e-30
1.70198e-31
1.22669e-32
7.13839e-34
3.53678e-35
1.53704e-36
6.29067e-38
3.43144e-39
1.36569e-39
1.71002e-39
2.28919e-39
3.04647e-39
4.02201e-39
5.26978e-39
6.85348e-39
8.84518e-39
1.13316e-38
1.44238e-38
1.82891e-38
2.31882e-38
2.95426e-38
3.8077e-38
5.00939e-38
6.81178e-38
9.73054e-38
1.48395e-37
2.44208e-37
4.33986e-37
8.23107e-37
1.62933e-36
3.2595e-36
6.36919e-36
1.1815e-35
2.04109e-35
3.22928e-35
4.59627e-35
5.66532e-35
0.942766
0.999846
1
0.997692
0.530617
3.27184e-19
6.28583e-19
6.34289e-19
1.60444e-19
2.11633e-20
1.92352e-21
4.85037e-23
3.96393e-25
1.56497e-26
9.56149e-27
6.24204e-27
3.81782e-27
2.1286e-27
1.04572e-27
4.42972e-28
1.56228e-28
4.37635e-29
9.07698e-30
1.26642e-30
1.10529e-31
8.14424e-33
4.76749e-34
2.36724e-35
1.02973e-36
4.17489e-38
1.79171e-39
2.35637e-40
2.27727e-40
3.03076e-40
4.04436e-40
5.33935e-40
6.97833e-40
9.04063e-40
1.16273e-39
1.48612e-39
1.88885e-39
2.38814e-39
3.00621e-39
3.7744e-39
4.74254e-39
5.99989e-39
7.70892e-39
1.01675e-38
1.39372e-38
2.00674e-38
3.05522e-38
4.90849e-38
8.24017e-38
1.42753e-37
2.50211e-37
4.30422e-37
7.05295e-37
1.07394e-36
1.48534e-36
1.86855e-36
0.958246
0.999974
1
1
0.585233
3.27471e-19
6.30056e-19
7.23186e-19
2.24652e-19
3.36447e-20
3.37559e-21
9.07875e-23
9.30945e-25
9.073e-27
5.05225e-27
3.30403e-27
2.05576e-27
1.16839e-27
5.86204e-28
2.53603e-28
9.13147e-29
2.61094e-29
5.5282e-30
7.87283e-31
6.99663e-32
5.2479e-33
3.10341e-34
1.55026e-35
6.75696e-37
2.72695e-38
1.09794e-39
6.51597e-41
2.91905e-41
3.67058e-41
4.9026e-41
6.50646e-41
8.5516e-41
1.11207e-40
1.43034e-40
1.82027e-40
2.29528e-40
2.87462e-40
3.58373e-40
4.4568e-40
5.53789e-40
6.88328e-40
8.58006e-40
1.07765e-39
1.37487e-39
1.80369e-39
2.4649e-39
3.53642e-39
5.30394e-39
8.20408e-39
1.28484e-38
2.00182e-38
3.05344e-38
4.45706e-38
6.03414e-38
7.41311e-38
1
0.999999
1
1
0.617073
1.17252e-18
6.20883e-19
8.18928e-19
3.0802e-19
5.55161e-20
6.37235e-21
2.13941e-22
2.98833e-24
1.04468e-26
2.61148e-27
1.70311e-27
1.07694e-27
6.23124e-28
3.19125e-28
1.41187e-28
5.21025e-29
1.52775e-29
3.31681e-30
4.8252e-31
4.34718e-32
3.2888e-33
1.95352e-34
9.78838e-36
4.27979e-37
1.72931e-38
6.86177e-40
3.03913e-41
4.25041e-42
4.09235e-42
5.4055e-42
7.16355e-42
9.39893e-42
1.22186e-41
1.57495e-41
2.01282e-41
2.54822e-41
3.19313e-41
3.95966e-41
4.86418e-41
5.93388e-41
7.21728e-41
8.78638e-41
1.07421e-40
1.32181e-40
1.64055e-40
2.06405e-40
2.65329e-40
3.51806e-40
4.84231e-40
6.87617e-40
9.8798e-40
1.40353e-39
1.9254e-39
2.48947e-39
3.02096e-39
1
1
1
1
0.620933
0.00441023
5.99423e-19
9.21226e-19
4.02674e-19
9.19355e-20
1.22979e-20
5.65042e-22
1.1019e-23
5.05962e-26
1.38159e-27
8.50588e-28
5.47795e-28
3.23607e-28
1.69409e-28
7.65923e-29
2.88896e-29
8.65937e-30
1.92365e-30
2.86403e-31
2.62851e-32
2.014e-33
1.2062e-34
6.06034e-36
2.64575e-37
1.06345e-38
4.17178e-40
1.71363e-41
1.03129e-42
4.15399e-43
5.13768e-43
6.8681e-43
9.10071e-43
1.18993e-42
1.53516e-42
1.9558e-42
2.465e-42
3.07816e-42
3.81204e-42
4.68286e-42
5.70223e-42
6.87857e-42
8.22477e-42
9.76922e-42
1.15719e-41
1.37458e-41
1.64596e-41
1.99423e-41
2.44977e-41
3.06133e-41
3.90312e-41
5.07266e-41
6.66094e-41
8.66365e-41
1.08336e-40
1.28267e-40
1
1
1
1
0.54515
0.00498474
5.99533e-19
1.03883e-18
5.00586e-19
1.47334e-19
2.36607e-20
1.53307e-21
4.30764e-23
3.61872e-25
1.61246e-27
4.09134e-28
2.67883e-28
1.61581e-28
8.66443e-29
4.02333e-29
1.56029e-29
4.80373e-30
1.09233e-30
1.65689e-31
1.53733e-32
1.18562e-33
7.15766e-35
3.6234e-36
1.59224e-37
6.41458e-39
2.50045e-40
9.99326e-42
4.53367e-43
4.99372e-44
4.02428e-44
5.27583e-44
7.03652e-44
9.30042e-44
1.21591e-43
1.57033e-43
2.0005e-43
2.51171e-43
3.10803e-43
3.79351e-43
4.57492e-43
5.46318e-43
6.46912e-43
7.59991e-43
8.85149e-43
1.02142e-42
1.16933e-42
1.33311e-42
1.52334e-42
1.75814e-42
2.06222e-42
2.46304e-42
2.98647e-42
3.63719e-42
4.34832e-42
5.06892e-42
1
1
1
1
0.469276
0.000871552
5.99423e-19
1.19335e-18
6.09372e-19
2.22233e-19
4.50817e-20
4.16059e-21
1.74518e-22
2.53202e-24
1.17346e-26
1.89899e-28
1.26254e-28
7.79316e-29
4.27282e-29
2.02975e-29
8.07076e-30
2.55595e-30
5.98706e-31
9.32935e-32
8.80664e-33
6.84621e-34
4.14831e-35
2.09896e-36
9.21343e-38
3.70661e-39
1.43973e-40
5.68995e-42
2.42726e-43
1.30327e-44
2.70115e-45
2.90409e-45
3.91204e-45
5.25488e-45
6.96022e-45
9.09093e-45
1.17162e-44
1.4902e-44
1.86977e-44
2.31178e-44
2.8124e-44
3.36303e-44
3.95242e-44
4.56974e-44
5.20753e-44
5.86177e-44
6.52581e-44
7.18494e-44
7.81781e-44
8.42919e-44
9.08041e-44
9.8949e-44
1.10245e-43
1.25696e-43
1.44378e-43
1.64416e-43
1
1
1
1
1
1
1
1
1
1
1
1
1
1
1
1
1
1
1
1
1
1
1
1
1
1
1
1
1
1
1
1
1
1
1
1
1
1
1
1
1
1
1
1
1
1
1
1
1
1
1
1
1
1
1
1
1
1
1
1
1
1
1
1
1
1
1
1
1
1
1
1
1
1
1
1
1
1
1
1
1
1
1
1
1
1
1
1
1
1
1
1
1
1
1
1
1
1
1
1
1
1
1
1
1
1
1
1
1
1
1
1
1
1
1
1
1
1
1
1
1
1
1
1
1
1
1
1
1
1
1
1
1
1
1
1
1
1
1
1
1
1
1
1
1
1
1
1
1
1
1
1
1
1
1
1
1
1
1
1
1
1
1
1
1
1
1
1
1
1
1
1
1
1
1
1
1
1
1
1
1
1
1
1
1
1
1
1
1
1
1
1
1
1
1
1
1
1
1
1
1
1
1
1
1
1
1
1
1
1
1
1
1
1
1
1
1
1
1
1
0.999836
1
0.999949
1
1
1
1
1
1
1
0.999308
0.997564
0.993544
0.986286
0.973952
0.954276
0.925521
0.879653
0.823785
0.738115
0.535111
0.540147
0.530366
0.530845
0.517417
0.510803
0.492276
0.476751
0.452391
0.425901
0.393423
0.356462
0.314472
0.268112
0.218237
0.165793
0.114891
0.0659103
0.0157812
9.11957e-19
6.91176e-23
6.91176e-23
6.91176e-23
6.91176e-23
6.91176e-23
6.91176e-23
6.91176e-23
6.91176e-23
6.91176e-23
6.91176e-23
6.91176e-23
6.91176e-23
6.91176e-23
6.91176e-23
6.91176e-23
6.91176e-23
6.91176e-23
6.91176e-23
6.91176e-23
1.76764e-22
5.58922e-22
5.58954e-22
1.02669e-21
1.45739e-21
1.83357e-21
1.98594e-21
2.11169e-21
2.11608e-21
2.04258e-21
1.87121e-21
1.62299e-21
1.31564e-21
9.72033e-22
6.07401e-22
2.76865e-22
1.47828e-22
1.92969e-22
2.90625e-22
3.58978e-22
6.89749e-22
2.99543e-22
1.41348e-22
1.47906e-22
2.06069e-22
3.10714e-22
3.49608e-22
3.69728e-22
3.68074e-22
3.47118e-22
3.10827e-22
2.64098e-22
2.13448e-22
1.62583e-22
1.18662e-22
8.09006e-23
5.26253e-23
3.45429e-23
1.98276e-23
1.07982e-23
4.56039e-24
2.01371e-22
6.90183e-23
2.93181e-23
3.34087e-23
4.51647e-23
5.0323e-23
5.18045e-23
4.86532e-23
4.25891e-23
3.48064e-23
2.66021e-23
1.90588e-23
1.27347e-23
8.04796e-24
4.69742e-24
2.63394e-24
1.24164e-24
4.53816e-25
1.05723e-25
7.72207e-26
7.25724e-23
1.07771e-23
4.95767e-24
5.2163e-24
5.71859e-24
6.00469e-24
5.89842e-24
5.40989e-24
4.6508e-24
3.75998e-24
2.86538e-24
2.05749e-24
1.3975e-24
8.93151e-25
5.4177e-25
3.11743e-25
1.52316e-25
3.80379e-26
8.56091e-27
4.20655e-27
2.85993e-23
6.67943e-24
1.65506e-24
1.03707e-24
9.6122e-25
9.08481e-25
8.1557e-25
6.79245e-25
5.28418e-25
3.84012e-25
2.61157e-25
1.66595e-25
9.97604e-26
5.68078e-26
3.09167e-26
1.66611e-26
9.21281e-27
4.71329e-27
2.47227e-27
1.29672e-27
5.64385e-24
5.15257e-25
1.99632e-25
1.66368e-25
1.41748e-25
1.23956e-25
1.04331e-25
8.32904e-26
6.29276e-26
4.49422e-26
3.03302e-26
1.93154e-26
1.158e-26
6.49494e-27
3.37198e-27
1.5487e-27
5.79897e-28
1.19473e-28
2.89202e-29
1.32004e-29
5.68307e-25
1.46816e-25
4.88134e-26
2.79568e-26
2.05175e-26
1.61117e-26
1.235e-26
8.98601e-27
6.1633e-27
3.97384e-27
2.40821e-27
1.37322e-27
7.40333e-28
3.80563e-28
1.90184e-28
9.39591e-29
4.72118e-29
2.2971e-29
1.15424e-29
5.27144e-30
4.00606e-26
1.13917e-26
4.53668e-27
2.89001e-27
2.04176e-27
1.53521e-27
1.12597e-27
7.9547e-28