/*--------------------------------*- C++ -*----------------------------------*\
| =========                 |                                                 |
| \\      /  F ield         | OpenFOAM: The Open Source CFD Toolbox           |
|  \\    /   O peration     | Version:  v1606+                                |
|   \\  /    A nd           | Web:      www.OpenFOAM.com                      |
|    \\/     M anipulation  |                                                 |
\*---------------------------------------------------------------------------*/
FoamFile
{
    version     2.0;
    format      ascii;
    class       volScalarField;
    location    "0.2";
    object      p;
}
// * * * * * * * * * * * * * * * * * * * * * * * * * * * * * * * * * * * * * //

dimensions      [0 2 -2 0 0 0 0];

internalField   nonuniform List<scalar> 
768
(
0.0226868
0.024108
0.0249686
0.0251733
0.0244239
0.0228983
0.0212961
0.0197113
0.017762
0.0152529
0.0119071
0.00713301
0.0220007
0.0232784
0.02404
0.0242084
0.0236639
0.0225279
0.021167
0.0196909
0.017922
0.015692
0.0127047
0.00861511
0.02131
0.0224817
0.0231789
0.0233573
0.022964
0.0220886
0.0209375
0.0196008
0.0180166
0.0160968
0.0135546
0.0101248
0.020664
0.0217565
0.0224155
0.0226149
0.0223375
0.0216493
0.0206808
0.0195022
0.0181019
0.0164686
0.0143887
0.0111512
-0.000229897
-0.00733021
-0.012419
-0.0145495
-0.0125535
-0.00741988
-0.000655142
0.0057689
0.0111284
0.0151243
0.0182686
0.0207282
0.00146098
-0.00402473
-0.00735712
-0.00828919
-0.00694493
-0.00308325
0.00204269
0.00711969
0.0116538
0.0151368
0.0179586
0.0202047
0.00245603
-0.00131393
-0.00335531
-0.00397703
-0.00290722
9.83976e-06
0.00397234
0.00809737
0.0119443
0.0150258
0.0175809
0.0196477
0.00202286
0.000588136
-0.000646328
-0.00116909
-0.000174891
0.00215241
0.00533233
0.00877442
0.0121001
0.0148638
0.0171983
0.0191122
0.0226367
0.0240566
0.0249154
0.0251176
0.0243655
0.0228365
0.0212296
0.019639
0.0176835
0.0151676
0.0118133
0.00702661
0.0219511
0.0232269
0.0239861
0.0241519
0.0236045
0.0224651
0.0210999
0.0196187
0.0178444
0.0156085
0.0126143
0.00851811
0.0212607
0.0224299
0.0231245
0.0233002
0.022904
0.0220251
0.0208699
0.0195287
0.0179399
0.0160154
0.0134682
0.0100356
0.0206144
0.0217044
0.0223608
0.0225575
0.0222771
0.0215855
0.0206131
0.0194305
0.0180261
0.016389
0.0143056
0.0110645
-0.000219345
-0.00731364
-0.0123982
-0.0145275
-0.0125321
-0.00739751
-0.000629048
0.00580146
0.0111633
0.0151642
0.0183127
0.0207758
0.0014713
-0.0040089
-0.00733709
-0.00826761
-0.00692183
-0.0030581
0.00207139
0.00715329
0.0116898
0.0151772
0.0180025
0.0202518
0.00246632
-0.00129805
-0.00333514
-0.00395452
-0.00288262
3.68533e-05
0.00400258
0.00813148
0.0119814
0.0150665
0.0176248
0.0196946
0.00203274
0.000605052
-0.000625283
-0.00114553
-0.000149156
0.00218063
0.00536352
0.00880896
0.0121378
0.0149047
0.0172424
0.0191591
0.0200768
0.0211088
0.0217448
0.0219713
0.0217867
0.0212429
0.0204304
0.0194098
0.0181977
0.0168334
0.0154186
0.0141465
0.0195562
0.020541
0.0211634
0.021417
0.0213081
0.0208793
0.0201992
0.0193244
0.0182867
0.0171222
0.0159172
0.014719
0.0191029
0.0200502
0.0206644
0.0209434
0.0208973
0.0205617
0.0199928
0.0192445
0.0183587
0.0173765
0.0163871
0.0157241
0.0187141
0.0196316
0.0202411
0.0205429
0.0205486
0.0202896
0.0198134
0.0191715
0.0184117
0.0175777
0.0167862
0.0161333
0.0183856
0.0192793
0.0198865
0.0202081
0.0202567
0.0200602
0.019661
0.0191078
0.0184503
0.0177392
0.0170957
0.0165885
0.0181126
0.0189875
0.0195937
0.0199324
0.0200161
0.0198705
0.0195345
0.0190544
0.0184803
0.017868
0.0173314
0.0169201
0.0178901
0.0187507
0.0193569
0.0197099
0.019822
0.0197174
0.0194322
0.0190112
0.0185047
0.0179715
0.0175194
0.0171592
0.0177135
0.0185636
0.0191707
0.0195355
0.0196702
0.0195976
0.0193524
0.0189779
0.0185246
0.0180525
0.0176571
0.0173433
0.0175787
0.0184217
0.0190305
0.0194047
0.0195566
0.0195085
0.0192934
0.0189541
0.0185407
0.0181138
0.0177577
0.01748
0.0174819
0.0183211
0.018932
0.0193136
0.0194783
0.0194475
0.0192538
0.0189392
0.018554
0.0181582
0.0178282
0.0175762
0.0174201
0.0182582
0.0188705
0.019259
0.0194323
0.0194124
0.019232
0.0189327
0.0185649
0.0181882
0.0178739
0.0176376
0.0173916
0.01823
0.018845
0.0192364
0.0194137
0.019399
0.0192246
0.0189323
0.0185724
0.0182043
0.0178975
0.0176699
0.000413892
0.00167867
0.00101349
0.000776696
0.00172614
0.00367824
0.00633022
0.00927197
0.0121885
0.0146881
0.0168353
0.0186176
0.00172589
0.00247129
0.00212384
0.00217053
0.00308681
0.00479149
0.00707602
0.0096418
0.0122346
0.0145159
0.0165049
0.0181745
0.00263713
0.00302978
0.00294481
0.00318366
0.00408313
0.00561975
0.00764017
0.00992015
0.0122558
0.0143574
0.0162125
0.0177862
0.00315843
0.00347305
0.00356544
0.00393405
0.00482704
0.00624398
0.00807019
0.0101311
0.0122625
0.0142164
0.015959
0.0174517
0.00356847
0.00384512
0.00404406
0.00450103
0.00539004
0.00671879
0.00839964
0.0102917
0.012261
0.0140936
0.0157431
0.0171681
0.00390489
0.00415326
0.00441956
0.00493428
0.00581862
0.00708115
0.008652
0.0104137
0.0122548
0.0139887
0.0155622
0.0169315
0.00417321
0.00440493
0.00471452
0.00526591
0.00614453
0.00735667
0.00884388
0.0105054
0.0122462
0.0139011
0.0154133
0.0167379
0.00438357
0.00460566
0.00494312
0.00551723
0.00638968
0.00756332
0.00898717
0.0105724
0.0122364
0.0138293
0.0152935
0.0165835
0.0045436
0.0047599
0.00511533
0.00570282
0.00656943
0.00771393
0.00909056
0.010619
0.0122263
0.0137722
0.0152003
0.0164647
0.00465917
0.00487193
0.00523858
0.00583294
0.00669478
0.00781781
0.00916037
0.010648
0.0122166
0.0137282
0.0151311
0.0163783
0.00473509
0.00494562
0.00531864
0.00591488
0.00677366
0.00788152
0.00920104
0.010661
0.0122077
0.013696
0.0150842
0.0163217
0.00477588
0.00498352
0.00536044
0.00596914
0.00681191
0.00791007
0.00921687
0.0106685
0.0121956
0.0136774
0.01506
0.0162941
0.0200271
0.0210565
0.0216899
0.0219137
0.0217261
0.021179
0.0203629
0.0193385
0.0181228
0.0167552
0.0153375
0.0140615
0.0195065
0.0204886
0.0211083
0.0213592
0.0212473
0.0208153
0.0201319
0.0192536
0.0182127
0.0170454
0.0158379
0.0146433
0.0190531
0.0199977
0.0206093
0.0208855
0.0208364
0.0204978
0.0199256
0.0191742
0.0182855
0.0173009
0.0163092
0.0156492
0.0186643
0.0195791
0.0201859
0.0204849
0.0204878
0.0202257
0.0197464
0.0191016
0.0183391
0.0175028
0.0167093
0.0160546
0.0183358
0.0192268
0.0198312
0.02015
0.0201958
0.0199964
0.0195943
0.0190382
0.0183782
0.0176649
0.0170196
0.0165112
0.0180627
0.018935
0.0195384
0.0198743
0.0199552
0.0198068
0.019468
0.0189851
0.0184087
0.0177943
0.017256
0.0168438
0.0178402
0.0186981
0.0193016
0.0196518
0.0197612
0.0196537
0.0193658
0.0189422
0.0184334
0.0178983
0.0174446
0.0170837
0.0176636
0.018511
0.0191153
0.0194774
0.0196093
0.0195341
0.0192862
0.0189092
0.0184536
0.0179796
0.0175829
0.0172683
0.0175288
0.0183691
0.0189751
0.0193466
0.0194958
0.019445
0.0192273
0.0188855
0.01847
0.0180412
0.0176838
0.0174055
0.017432
0.0182684
0.0188766
0.0192555
0.0194175
0.019384
0.0191877
0.0188707
0.0184834
0.0180859
0.0177546
0.017502
0.0173702
0.0182055
0.0188151
0.0192009
0.0193715
0.019349
0.019166
0.0188644
0.0184945
0.018116
0.0178005
0.0175636
0.0173417
0.0181773
0.0187896
0.0191783
0.0193529
0.0193356
0.0191586
0.018864
0.018502
0.0181322
0.0178241
0.0175959
0.000425585
0.00169701
0.00103536
0.000800946
0.00175268
0.00370727
0.00636206
0.0093069
0.0122266
0.0147293
0.0168794
0.0186646
0.0017418
0.00249108
0.00214643
0.00219543
0.00311399
0.00482112
0.00710836
0.00967707
0.0122729
0.0145572
0.0165491
0.0182215
0.00265571
0.00305077
0.0029681
0.00320913
0.00411085
0.00564986
0.0076729
0.00995569
0.0122943
0.0143988
0.0162567
0.0178332
0.00317874
0.00349505
0.0035894
0.00396003
0.0048552
0.00627447
0.00810323
0.0101669
0.0123012
0.0142579
0.0160033
0.0174988
0.00359008
0.00386799
0.00406861
0.00452747
0.00541856
0.00674959
0.00843293
0.0103277
0.0122998
0.0141352
0.0157874
0.0172152
0.00392749
0.00417683
0.00444461
0.00496111
0.00584746
0.00711221
0.00868549
0.0104498
0.0122938
0.0140304
0.0156066
0.0169787
0.00419655
0.00442908
0.00473999
0.00529306
0.00617363
0.00738795
0.00887753
0.0105416
0.0122852
0.0139428
0.0154578
0.0167851
0.00440747
0.00463025
0.00496894
0.00554464
0.00641899
0.00759477
0.00902095
0.0106087
0.0122755
0.0138711
0.0153381
0.0166307
0.00456789
0.00478483
0.00514141
0.00573044
0.0065989
0.0077455
0.00912442
0.0106553
0.0122655
0.013814
0.0152448
0.0165119
0.00468374
0.0048971
0.00526485
0.0058607
0.00672438
0.00784947
0.00919429
0.0106843
0.0122559
0.01377
0.0151757
0.0164255
0.00475984
0.00497094
0.00534504
0.00594273
0.00680333
0.00791324
0.009235
0.0106972
0.0122472
0.0137379
0.0151287
0.0163689
0.00480071
0.00500891
0.00538691
0.00599716
0.00684163
0.00794182
0.00925088
0.0107047
0.012235
0.0137193
0.0151046
0.0163414
)
;

boundaryField
{
    rotor
    {
        type            zeroGradient;
    }
    stator
    {
        type            zeroGradient;
    }
    AMI1
    {
        type            cyclicAMI;
        value           nonuniform 0();
    }
    AMI2
    {
        type            cyclicAMI;
        value           nonuniform List<scalar> 
48
(
0.0230223
0.0245332
0.0254902
0.0257326
0.0249548
0.0230839
0.0211929
0.0196459
0.0176938
0.0150508
0.0115632
0.00658565
-0.000900043
-0.00871489
-0.0148607
-0.0177967
-0.0162156
-0.0106501
-0.00290619
0.0045956
0.010671
0.0151018
0.0184275
0.0209811
0.0229723
0.0244817
0.0254373
0.0256774
0.0248966
0.0230227
0.021127
0.0195737
0.017615
0.0149653
0.0114691
0.00647886
-0.00088975
-0.0086981
-0.0148395
-0.0177746
-0.0161949
-0.0106296
-0.00288251
0.00462579
0.0107056
0.0151417
0.0184717
0.0210287
)
;
    }
    front
    {
        type            empty;
    }
    back
    {
        type            empty;
    }
    procBoundary1to0
    {
        type            processor;
        value           nonuniform List<scalar> 8(-8.9778e-05 0.0015668 0.00254846 0.00211254 0.00702195 0.00851301 0.0100304 0.0110614);
    }
}


// ************************************************************************* //
