/*--------------------------------*- C++ -*----------------------------------*\
| =========                 |                                                 |
| \\      /  F ield         | OpenFOAM: The Open Source CFD Toolbox           |
|  \\    /   O peration     | Version:  v1606+                                |
|   \\  /    A nd           | Web:      www.OpenFOAM.com                      |
|    \\/     M anipulation  |                                                 |
\*---------------------------------------------------------------------------*/
FoamFile
{
    version     2.0;
    format      ascii;
    class       volScalarField;
    location    "0.77";
    object      pMean;
}
// * * * * * * * * * * * * * * * * * * * * * * * * * * * * * * * * * * * * * //

dimensions      [1 -1 -2 0 0 0 0];

internalField   nonuniform List<scalar> 
6000
(
108301
108301
108301
108300
108300
108299
108299
108299
108300
108300
108301
108301
108301
108302
108302
108302
108302
108301
108301
108300
108300
108299
108299
108299
108299
108299
108300
108300
108301
108300
108230
108230
108230
108229
108228
108227
108226
108227
108227
108228
108229
108230
108230
108230
108231
108231
108230
108230
108229
108229
108228
108227
108226
108226
108227
108228
108229
108229
108230
108229
108181
108182
108181
108181
108180
108179
108178
108178
108179
108181
108182
108183
108183
108184
108184
108184
108184
108183
108183
108182
108180
108179
108178
108178
108178
108179
108180
108181
108182
108181
108129
108128
108127
108126
108125
108124
108123
108123
108123
108125
108127
108128
108129
108129
108129
108129
108129
108128
108127
108126
108125
108123
108122
108123
108124
108125
108126
108127
108128
108128
108078
108077
108076
108075
108074
108073
108071
108070
108070
108070
108072
108073
108074
108075
108076
108076
108075
108074
108073
108072
108070
108069
108070
108071
108072
108074
108075
108076
108077
108078
108028
108027
108026
108025
108024
108023
108022
108020
108019
108018
108019
108019
108020
108022
108023
108022
108021
108020
108019
108019
108018
108019
108020
108021
108022
108023
108024
108026
108027
108028
107976
107975
107973
107972
107972
107972
107972
107971
107970
107968
107968
107967
107968
107970
107971
107971
107969
107967
107967
107968
107968
107970
107971
107971
107972
107971
107971
107973
107974
107976
107921
107918
107916
107916
107917
107919
107919
107920
107919
107918
107916
107916
107916
107918
107920
107919
107917
107915
107915
107916
107918
107919
107919
107919
107918
107916
107915
107915
107918
107921
107861
107857
107855
107856
107859
107863
107865
107866
107867
107866
107865
107864
107865
107866
107868
107867
107865
107864
107864
107865
107866
107866
107866
107864
107862
107858
107855
107854
107857
107861
107796
107794
107793
107796
107800
107805
107810
107813
107814
107814
107815
107814
107815
107816
107818
107817
107816
107815
107814
107814
107814
107813
107812
107809
107804
107799
107795
107793
107793
107796
107732
107731
107732
107735
107741
107748
107754
107759
107761
107763
107765
107765
107766
107768
107769
107769
107768
107767
107766
107765
107762
107760
107758
107753
107746
107740
107734
107731
107731
107732
107670
107670
107671
107675
107682
107690
107698
107704
107708
107711
107715
107716
107717
107719
107720
107720
107719
107718
107717
107714
107711
107707
107703
107696
107688
107680
107674
107670
107669
107670
107610
107610
107611
107615
107622
107631
107641
107649
107654
107659
107664
107666
107667
107669
107672
107672
107670
107669
107668
107664
107658
107653
107647
107639
107629
107621
107614
107610
107609
107609
107551
107551
107552
107556
107563
107572
107582
107592
107600
107607
107613
107617
107618
107619
107622
107623
107621
107620
107618
107613
107606
107599
107590
107580
107569
107561
107554
107551
107550
107550
107495
107494
107495
107498
107504
107512
107523
107535
107545
107554
107561
107567
107570
107571
107572
107574
107573
107571
107568
107561
107554
107544
107533
107521
107509
107501
107496
107494
107493
107494
107440
107440
107440
107442
107445
107452
107464
107477
107490
107501
107509
107517
107521
107523
107524
107524
107523
107521
107516
107508
107500
107488
107475
107461
107449
107443
107439
107438
107438
107439
107386
107386
107386
107387
107389
107394
107404
107419
107434
107446
107456
107463
107470
107473
107473
107473
107472
107468
107461
107453
107444
107431
107415
107400
107390
107385
107384
107383
107383
107383
107331
107331
107331
107331
107333
107337
107346
107360
107376
107389
107399
107406
107413
107417
107418
107418
107415
107410
107403
107396
107385
107371
107354
107341
107332
107328
107327
107326
107326
107326
107274
107274
107274
107274
107276
107281
107289
107300
107315
107330
107341
107348
107352
107357
107358
107357
107354
107348
107344
107337
107325
107309
107294
107282
107274
107270
107268
107267
107266
107266
107214
107214
107214
107215
107219
107224
107232
107242
107256
107271
107282
107288
107291
107294
107295
107294
107290
107286
107283
107276
107264
107249
107235
107224
107215
107210
107207
107206
107205
107205
107153
107153
107153
107155
107160
107168
107177
107187
107199
107212
107224
107230
107232
107232
107231
107229
107228
107226
107224
107217
107205
107191
107178
107167
107158
107151
107146
107145
107144
107144
107092
107092
107093
107096
107103
107113
107123
107133
107143
107155
107166
107173
107174
107172
107170
107168
107168
107168
107165
107158
107147
107134
107121
107110
107100
107092
107087
107084
107084
107084
107031
107032
107034
107039
107046
107055
107066
107077
107087
107098
107108
107115
107116
107113
107110
107109
107109
107109
107107
107099
107087
107073
107060
107050
107040
107032
107027
107024
107024
107025
106972
106972
106975
106979
106985
106993
107002
107014
107027
107038
107048
107055
107055
107053
107050
107048
107048
107049
107046
107037
107023
107009
106997
106987
106979
106972
106967
106965
106964
106965
106911
106911
106913
106916
106920
106925
106933
106943
106957
106972
106984
106991
106992
106990
106987
106986
106987
106987
106982
106971
106956
106942
106931
106923
106917
106912
106909
106907
106905
106906
106850
106850
106851
106852
106853
106855
106860
106869
106881
106897
106912
106922
106926
106926
106924
106923
106924
106923
106916
106902
106888
106875
106866
106860
106857
106855
106853
106851
106849
106849
106790
106790
106790
106789
106787
106785
106786
106793
106804
106819
106836
106850
106858
106860
106860
106860
106861
106858
106847
106833
106820
106809
106802
106800
106799
106800
106800
106798
106796
106795
106732
106732
106731
106728
106724
106721
106719
106721
106729
106743
106760
106776
106789
106795
106797
106797
106797
106792
106780
106766
106753
106745
106742
106741
106742
106744
106746
106746
106745
106743
106675
106675
106673
106669
106665
106660
106656
106655
106660
106670
106686
106704
106720
106730
106734
106735
106734
106726
106713
106699
106689
106684
106682
106682
106683
106686
106689
106692
106694
106692
106619
106618
106615
106610
106605
106600
106596
106594
106595
106602
106616
106634
106653
106665
106671
106673
106670
106661
106646
106634
106626
106623
106621
106622
106624
106627
106631
106635
106638
106639
106562
106561
106556
106551
106545
106540
106535
106533
106534
106540
106551
106567
106585
106600
106607
106609
106605
106595
106582
106572
106566
106562
106560
106561
106564
106568
106572
106577
106580
106582
106505
106502
106497
106491
106485
106480
106476
106474
106476
106481
106491
106504
106520
106534
106542
106544
106540
106531
106521
106513
106507
106503
106501
106501
106504
106507
106512
106516
106520
106523
106446
106443
106438
106432
106426
106421
106418
106418
106421
106426
106434
106445
106458
106470
106477
106479
106476
106469
106462
106456
106451
106447
106444
106443
106444
106447
106451
106456
106460
106462
106388
106385
106380
106374
106368
106365
106364
106365
106369
106374
106380
106389
106399
106408
106414
106414
106412
106407
106403
106400
106397
106394
106390
106387
106386
106388
106391
106395
106399
106402
106330
106327
106322
106317
106313
106311
106312
106314
106318
106322
106327
106334
106342
106349
106353
106352
106350
106348
106347
106345
106344
106341
106338
106335
106332
106331
106333
106336
106339
106342
106274
106270
106266
106262
106261
106261
106263
106265
106268
106271
106274
106279
106286
106291
106294
106293
106292
106291
106291
106291
106290
106289
106287
106284
106280
106278
106277
106279
106282
106284
106219
106217
106214
106212
106212
106214
106216
106218
106219
106220
106222
106225
106230
106234
106237
106237
106236
106236
106235
106235
106237
106237
106236
106234
106230
106227
106225
106226
106227
106229
106167
106166
106164
106164
106166
106168
106170
106170
106170
106169
106169
106170
106173
106178
106181
106181
106181
106180
106180
106180
106182
106184
106184
106183
106181
106178
106175
106174
106174
106175
106117
106116
106117
106119
106121
106122
106123
106122
106120
106117
106116
106115
106117
106121
106124
106125
106125
106124
106123
106124
106126
106129
106131
106132
106132
106130
106127
106125
106123
106124
106068
106068
106070
106073
106074
106074
106073
106071
106067
106064
106062
106061
106061
106064
106067
106068
106068
106067
106067
106068
106071
106074
106077
106080
106081
106081
106079
106076
106074
106073
106018
106019
106022
106025
106025
106023
106020
106016
106012
106009
106007
106005
106005
106007
106010
106011
106011
106011
106011
106012
106015
106018
106021
106025
106028
106030
106030
106027
106024
106023
105968
105970
105972
105973
105971
105968
105964
105959
105955
105952
105950
105949
105949
105950
105953
105955
105955
105955
105955
105956
105957
105960
105964
105969
105973
105976
105977
105977
105975
105973
105918
105919
105919
105917
105914
105910
105905
105900
105896
105893
105892
105892
105892
105893
105895
105897
105898
105898
105897
105898
105899
105901
105904
105909
105915
105919
105922
105924
105924
105923
105864
105865
105863
105859
105855
105849
105844
105839
105835
105834
105833
105833
105834
105835
105837
105839
105840
105840
105839
105839
105839
105841
105844
105848
105854
105860
105864
105868
105869
105869
105807
105806
105803
105799
105793
105787
105781
105777
105774
105774
105774
105774
105775
105776
105778
105780
105781
105780
105780
105780
105780
105780
105782
105787
105792
105798
105804
105808
105811
105812
105746
105745
105741
105736
105730
105724
105718
105715
105714
105713
105714
105714
105714
105715
105717
105720
105720
105720
105720
105720
105720
105720
105721
105724
105729
105735
105741
105746
105750
105751
105683
105681
105677
105671
105665
105659
105655
105653
105652
105652
105652
105653
105653
105654
105655
105658
105658
105658
105659
105659
105659
105659
105660
105661
105665
105670
105676
105682
105686
105688
105618
105616
105611
105605
105600
105595
105593
105591
105591
105590
105590
105590
105590
105591
105592
105594
105595
105595
105596
105596
105597
105597
105598
105599
105601
105605
105610
105616
105621
105623
105552
105549
105544
105539
105534
105531
105530
105529
105528
105527
105526
105526
105526
105526
105528
105530
105531
105531
105532
105533
105534
105535
105536
105536
105537
105539
105544
105549
105553
105556
105484
105482
105478
105473
105470
105468
105467
105466
105464
105463
105462
105462
105461
105461
105462
105464
105465
105466
105467
105469
105470
105472
105473
105473
105473
105475
105477
105482
105486
105488
105417
105414
105411
105407
105405
105404
105403
105402
105401
105399
105397
105396
105395
105395
105396
105397
105398
105399
105401
105403
105405
105408
105409
105410
105410
105410
105411
105415
105418
105420
105349
105347
105344
105342
105340
105340
105339
105338
105336
105333
105331
105330
105328
105328
105328
105329
105330
105331
105333
105335
105338
105341
105344
105346
105346
105346
105346
105348
105350
105352
105281
105280
105278
105276
105276
105276
105274
105272
105270
105267
105265
105262
105260
105259
105258
105259
105260
105261
105263
105265
105269
105273
105277
105280
105282
105282
105281
105281
105282
105283
105214
105213
105212
105212
105212
105211
105208
105205
105202
105199
105196
105193
105190
105188
105187
105187
105188
105189
105190
105193
105196
105200
105205
105211
105215
105217
105216
105216
105215
105215
105147
105146
105148
105148
105147
105144
105140
105135
105132
105128
105124
105121
105117
105115
105113
105113
105113
105114
105115
105117
105120
105123
105129
105136
105143
105148
105150
105150
105148
105147
105080
105081
105082
105081
105079
105074
105068
105063
105059
105055
105051
105046
105042
105039
105038
105037
105037
105037
105038
105039
105041
105043
105047
105054
105064
105073
105078
105081
105080
105079
105012
105013
105014
105011
105005
104999
104993
104988
104984
104979
104974
104969
104965
104961
104959
104958
104958
104957
104958
104958
104959
104961
104964
104969
104978
104989
105000
105006
105009
105009
104942
104942
104939
104933
104926
104920
104916
104911
104907
104901
104895
104889
104885
104881
104879
104877
104876
104876
104876
104876
104877
104877
104878
104882
104889
104900
104912
104924
104931
104933
104867
104865
104858
104850
104845
104841
104837
104833
104827
104820
104813
104807
104802
104798
104795
104794
104793
104792
104792
104792
104792
104792
104792
104794
104799
104809
104821
104835
104846
104850
104785
104780
104773
104766
104764
104761
104757
104751
104744
104736
104728
104722
104717
104713
104710
104709
104708
104707
104707
104707
104707
104707
104706
104706
104709
104717
104729
104742
104754
104761
104697
104692
104686
104684
104683
104681
104675
104667
104657
104648
104641
104634
104629
104626
104623
104622
104621
104621
104621
104621
104622
104622
104621
104620
104622
104627
104637
104650
104661
104668
104609
104605
104604
104604
104603
104597
104589
104578
104567
104558
104550
104544
104540
104536
104534
104533
104533
104533
104534
104535
104536
104538
104539
104539
104539
104541
104548
104558
104568
104575
104523
104523
104525
104525
104519
104510
104498
104486
104474
104465
104458
104452
104448
104446
104444
104443
104443
104444
104446
104448
104451
104454
104458
104461
104461
104461
104463
104470
104478
104483
104440
104442
104445
104441
104430
104417
104403
104390
104379
104370
104363
104359
104355
104353
104352
104351
104352
104353
104356
104359
104363
104369
104376
104382
104385
104386
104385
104387
104392
104395
104359
104361
104359
104350
104335
104320
104305
104292
104281
104273
104267
104263
104260
104259
104258
104258
104259
104261
104264
104268
104274
104281
104290
104299
104306
104310
104310
104309
104310
104312
104276
104275
104266
104252
104236
104219
104205
104192
104182
104175
104170
104167
104164
104163
104163
104163
104164
104166
104170
104174
104181
104189
104199
104210
104221
104228
104232
104233
104232
104232
104184
104179
104166
104151
104134
104117
104103
104091
104082
104076
104072
104069
104067
104066
104066
104067
104068
104070
104074
104078
104085
104093
104104
104117
104130
104141
104150
104154
104154
104153
104085
104077
104063
104048
104031
104015
104001
103990
103982
103976
103973
103970
103969
103969
103969
103970
103971
103973
103976
103980
103987
103995
104007
104021
104036
104050
104062
104069
104072
104073
103980
103972
103959
103944
103928
103913
103900
103890
103882
103877
103874
103872
103871
103872
103872
103873
103874
103876
103878
103882
103888
103897
103909
103923
103939
103955
103969
103980
103986
103988
103875
103868
103856
103842
103827
103813
103802
103792
103785
103779
103775
103774
103774
103775
103776
103777
103778
103779
103781
103784
103790
103799
103811
103825
103842
103859
103875
103887
103896
103899
103772
103766
103755
103742
103728
103716
103705
103696
103689
103683
103679
103678
103679
103680
103681
103682
103683
103684
103685
103688
103693
103702
103714
103728
103744
103762
103779
103792
103801
103805
103671
103666
103656
103645
103633
103622
103612
103603
103596
103590
103587
103586
103587
103588
103589
103590
103591
103591
103592
103594
103600
103609
103620
103633
103648
103665
103681
103695
103704
103708
103574
103570
103561
103551
103540
103530
103521
103513
103507
103502
103498
103497
103498
103499
103500
103500
103501
103501
103502
103505
103510
103518
103528
103540
103554
103569
103584
103598
103607
103611
103480
103476
103469
103460
103451
103442
103433
103425
103419
103416
103413
103412
103411
103412
103412
103412
103413
103414
103415
103418
103423
103429
103438
103449
103462
103477
103490
103502
103511
103515
103389
103386
103381
103373
103364
103355
103346
103339
103334
103331
103329
103327
103326
103326
103326
103326
103326
103327
103329
103332
103336
103341
103348
103359
103372
103386
103399
103410
103417
103421
103299
103298
103294
103287
103278
103268
103259
103252
103249
103247
103245
103243
103241
103240
103239
103239
103240
103241
103243
103246
103249
103253
103259
103269
103281
103295
103309
103320
103326
103328
103211
103211
103207
103200
103191
103180
103172
103166
103163
103161
103160
103158
103156
103154
103153
103153
103153
103154
103156
103158
103161
103164
103169
103178
103190
103204
103218
103229
103236
103238
103124
103122
103118
103111
103102
103092
103084
103079
103076
103074
103073
103071
103069
103067
103066
103066
103066
103067
103069
103071
103072
103075
103079
103087
103099
103112
103126
103138
103145
103148
103035
103032
103027
103019
103011
103003
102996
102992
102989
102987
102986
102984
102982
102980
102979
102978
102978
102979
102981
102982
102984
102986
102990
102997
103007
103020
103034
103046
103053
103056
102944
102941
102934
102926
102919
102913
102909
102905
102902
102900
102898
102896
102894
102892
102890
102889
102890
102890
102892
102893
102895
102897
102901
102907
102916
102928
102941
102952
102960
102963
102852
102848
102842
102835
102830
102826
102822
102819
102815
102812
102809
102807
102804
102802
102801
102800
102800
102801
102803
102804
102807
102810
102814
102820
102828
102838
102848
102858
102866
102870
102760
102757
102752
102747
102744
102740
102736
102732
102728
102724
102720
102717
102714
102712
102711
102711
102711
102712
102713
102715
102718
102723
102728
102734
102741
102750
102758
102766
102773
102776
102670
102668
102665
102663
102660
102656
102651
102646
102640
102635
102631
102627
102624
102622
102621
102621
102621
102622
102624
102627
102631
102637
102643
102649
102657
102664
102670
102676
102682
102685
102584
102582
102581
102579
102576
102572
102566
102560
102553
102547
102542
102538
102535
102533
102532
102531
102532
102533
102535
102539
102544
102551
102558
102565
102572
102578
102584
102589
102593
102596
102499
102499
102498
102496
102492
102487
102481
102474
102466
102460
102454
102449
102446
102444
102443
102443
102443
102445
102448
102452
102458
102465
102472
102480
102487
102493
102498
102504
102507
102509
102417
102417
102416
102413
102408
102402
102395
102387
102380
102373
102367
102362
102359
102357
102356
102356
102357
102358
102361
102366
102372
102379
102387
102395
102402
102408
102413
102419
102422
102423
102335
102335
102333
102328
102322
102316
102308
102300
102293
102287
102281
102277
102274
102272
102271
102271
102272
102273
102276
102281
102287
102294
102301
102309
102316
102322
102328
102334
102337
102339
102254
102252
102249
102243
102236
102229
102221
102214
102207
102202
102197
102194
102191
102189
102189
102189
102189
102191
102193
102197
102203
102209
102216
102224
102231
102237
102243
102249
102253
102255
102171
102169
102165
102158
102150
102143
102136
102129
102124
102119
102115
102113
102111
102110
102109
102109
102110
102111
102113
102116
102121
102126
102133
102140
102146
102153
102159
102165
102169
102172
102089
102086
102081
102074
102066
102059
102053
102047
102043
102039
102036
102035
102033
102033
102032
102032
102033
102034
102036
102038
102041
102046
102052
102058
102064
102070
102076
102082
102086
102089
102007
102004
101999
101992
101986
101979
101974
101969
101965
101962
101960
101959
101958
101958
101957
101958
101958
101959
101960
101962
101965
101969
101973
101979
101984
101990
101995
102000
102004
102007
101926
101923
101919
101914
101909
101903
101898
101893
101890
101888
101886
101885
101885
101884
101884
101884
101885
101886
101887
101889
101891
101894
101898
101903
101908
101913
101918
101921
101924
101926
101848
101846
101843
101839
101835
101830
101825
101821
101818
101815
101814
101813
101812
101812
101812
101812
101813
101813
101815
101816
101818
101821
101824
101829
101834
101839
101842
101845
101846
101848
101772
101771
101769
101766
101763
101759
101754
101750
101747
101744
101743
101742
101741
101741
101741
101741
101742
101742
101743
101745
101747
101749
101753
101758
101762
101766
101769
101771
101771
101772
101699
101698
101697
101695
101692
101688
101684
101681
101677
101674
101673
101672
101671
101671
101671
101671
101672
101672
101673
101674
101676
101679
101683
101687
101691
101693
101696
101698
101699
101699
101628
101628
101627
101625
101622
101618
101615
101611
101608
101605
101603
101602
101602
101602
101602
101602
101603
101603
101604
101605
101607
101610
101613
101617
101620
101622
101625
101627
101627
101627
101558
101557
101557
101555
101552
101549
101545
101542
101539
101537
101535
101534
101534
101534
101534
101534
101534
101535
101536
101537
101539
101541
101544
101547
101550
101553
101555
101556
101557
101557
101487
101487
101487
101485
101483
101480
101476
101473
101470
101468
101467
101466
101466
101466
101466
101467
101467
101468
101469
101470
101471
101473
101476
101479
101481
101483
101485
101486
101487
101487
101416
101417
101416
101415
101413
101410
101408
101405
101403
101401
101400
101400
101399
101400
101400
101400
101401
101401
101402
101403
101405
101407
101409
101411
101412
101413
101415
101416
101416
101416
101347
101347
101346
101345
101344
101343
101342
101340
101338
101337
101337
101336
101336
101337
101337
101337
101338
101339
101339
101340
101342
101343
101345
101345
101345
101346
101346
101346
101347
101347
101280
101280
101280
101279
101278
101278
101279
101279
101278
101278
101277
101277
101277
101277
101278
101278
101279
101279
101280
101281
101282
101283
101283
101283
101282
101281
101281
101280
101280
101281
101217
101216
101216
101215
101215
101216
101218
101219
101220
101220
101220
101220
101220
101221
101221
101222
101222
101223
101223
101224
101225
101225
101224
101222
101221
101219
101218
101217
101217
101217
101155
101154
101154
101154
101155
101157
101159
101162
101164
101165
101165
101165
101165
101165
101166
101166
101167
101167
101168
101169
101169
101168
101167
101165
101162
101159
101157
101156
101155
101155
101095
101094
101094
101095
101097
101100
101103
101106
101108
101110
101111
101111
101111
101112
101112
101112
101113
101113
101114
101114
101114
101113
101111
101108
101105
101102
101099
101097
101096
101096
101036
101036
101037
101039
101042
101045
101049
101052
101054
101056
101058
101058
101058
101059
101059
101059
101060
101060
101061
101061
101060
101059
101057
101054
101050
101047
101043
101040
101038
101038
100980
100980
100982
100985
100989
100992
100996
100999
101002
101004
101005
101006
101006
101007
101007
101007
101008
101008
101008
101008
101007
101005
101003
101000
100997
100993
100989
100985
100983
100982
100926
100927
100930
100934
100938
100941
100944
100947
100950
100952
100954
100955
100955
100955
100956
100956
100956
100956
100956
100956
100955
100953
100951
100948
100945
100941
100937
100933
100930
100929
100875
100877
100880
100884
100888
100891
100894
100896
100899
100901
100903
100904
100904
100905
100905
100905
100905
100905
100905
100905
100903
100902
100899
100896
100894
100890
100887
100883
100880
100879
100827
100829
100832
100836
100839
100841
100844
100846
100849
100851
100852
100853
100854
100854
100855
100855
100855
100855
100855
100854
100853
100851
100848
100846
100843
100841
100838
100835
100832
100830
100781
100782
100785
100788
100790
100793
100795
100797
100799
100801
100802
100804
100805
100805
100805
100805
100805
100805
100805
100804
100802
100801
100798
100796
100794
100792
100789
100787
100784
100783
100736
100737
100738
100740
100743
100745
100746
100748
100750
100752
100753
100755
100756
100756
100757
100757
100757
100757
100756
100755
100753
100751
100749
100747
100746
100744
100742
100740
100738
100738
100692
100692
100693
100694
100696
100698
100699
100700
100702
100704
100705
100707
100708
100708
100709
100709
100709
100709
100708
100706
100705
100703
100701
100700
100698
100697
100696
100694
100694
100694
100648
100648
100649
100650
100651
100652
100653
100654
100655
100657
100659
100660
100661
100662
100662
100662
100662
100662
100661
100660
100658
100656
100655
100654
100653
100652
100651
100650
100650
100650
100606
100605
100606
100607
100607
100608
100609
100610
100611
100612
100613
100615
100616
100617
100617
100617
100617
100617
100616
100614
100613
100612
100610
100610
100609
100609
100608
100608
100608
100608
100564
100564
100564
100565
100566
100566
100567
100567
100568
100569
100570
100571
100573
100573
100574
100574
100574
100573
100572
100571
100570
100569
100568
100567
100567
100567
100567
100567
100567
100568
100524
100524
100524
100525
100526
100526
100527
100527
100528
100528
100529
100530
100531
100532
100532
100532
100532
100532
100531
100530
100529
100528
100528
100527
100527
100527
100527
100527
100527
100528
100486
100486
100487
100487
100488
100488
100489
100489
100489
100490
100490
100491
100491
100492
100492
100493
100492
100492
100491
100491
100490
100490
100489
100489
100489
100489
100489
100489
100489
100490
100450
100450
100450
100451
100451
100451
100452
100452
100452
100452
100453
100453
100454
100454
100455
100455
100454
100454
100453
100453
100453
100453
100452
100453
100453
100453
100453
100453
100453
100453
100417
100416
100416
100416
100416
100416
100417
100417
100417
100417
100417
100417
100418
100418
100419
100419
100419
100418
100418
100417
100417
100417
100417
100418
100418
100418
100418
100418
100418
100418
100384
100383
100383
100383
100383
100383
100383
100383
100383
100384
100384
100384
100385
100385
100386
100386
100385
100385
100384
100384
100384
100384
100384
100384
100384
100385
100384
100384
100384
100384
100352
100351
100351
100351
100351
100351
100351
100352
100352
100352
100353
100353
100354
100354
100354
100354
100354
100354
100353
100353
100353
100352
100352
100352
100352
100352
100352
100352
100351
100351
100321
100320
100320
100320
100321
100321
100322
100322
100323
100323
100323
100324
100324
100325
100325
100325
100324
100324
100324
100323
100323
100323
100323
100323
100322
100322
100321
100320
100320
100320
100292
100291
100291
100292
100293
100293
100294
100294
100294
100295
100295
100296
100296
100296
100297
100296
100296
100296
100296
100295
100295
100295
100294
100294
100294
100293
100292
100291
100290
100289
100265
100264
100264
100265
100266
100266
100267
100267
100267
100268
100268
100269
100269
100270
100270
100270
100269
100269
100269
100268
100268
100267
100267
100267
100266
100265
100264
100263
100262
100262
100239
100239
100239
100239
100240
100240
100241
100241
100242
100242
100243
100243
100244
100244
100244
100244
100244
100243
100243
100242
100242
100241
100241
100240
100240
100239
100238
100237
100237
100237
100214
100213
100213
100214
100214
100215
100216
100216
100217
100218
100218
100219
100219
100219
100219
100219
100219
100219
100218
100218
100217
100217
100216
100215
100215
100214
100213
100212
100212
100213
100189
100188
100189
100189
100190
100191
100192
100193
100193
100194
100195
100196
100196
100196
100196
100196
100196
100196
100195
100194
100194
100193
100192
100192
100191
100190
100189
100188
100188
100189
100165
100164
100164
100165
100166
100167
100169
100170
100171
100172
100173
100173
100174
100174
100174
100174
100174
100174
100173
100173
100172
100171
100170
100169
100168
100167
100166
100165
100165
100166
100141
100141
100142
100143
100144
100146
100147
100148
100150
100151
100152
100153
100153
100153
100154
100154
100153
100153
100153
100152
100151
100150
100149
100148
100147
100146
100145
100144
100143
100144
100120
100120
100121
100122
100124
100125
100127
100128
100130
100131
100132
100133
100133
100134
100134
100134
100134
100134
100133
100133
100132
100131
100130
100129
100127
100126
100125
100123
100123
100123
100101
100101
100102
100104
100106
100107
100108
100110
100111
100112
100113
100114
100115
100116
100116
100116
100116
100116
100115
100114
100114
100113
100112
100110
100109
100108
100107
100105
100104
100104
100084
100085
100086
100088
100089
100091
100092
100093
100094
100096
100097
100098
100099
100099
100100
100100
100100
100099
100099
100098
100097
100096
100095
100094
100093
100092
100090
100089
100088
100087
100070
100071
100072
100074
100075
100076
100077
100078
100080
100081
100082
100083
100084
100084
100085
100085
100085
100084
100084
100083
100082
100081
100080
100079
100078
100077
100076
100075
100073
100073
100058
100059
100060
100061
100062
100063
100064
100065
100066
100067
100068
100069
100070
100070
100071
100071
100071
100071
100070
100069
100068
100068
100067
100066
100065
100064
100063
100062
100061
100060
100048
100048
100049
100050
100051
100052
100053
100053
100054
100055
100056
100057
100057
100058
100058
100058
100058
100058
100058
100057
100056
100055
100055
100054
100053
100052
100051
100050
100050
100050
100039
100039
100039
100040
100041
100041
100042
100043
100044
100044
100045
100045
100046
100046
100047
100047
100047
100047
100046
100046
100045
100044
100044
100043
100043
100042
100041
100041
100040
100040
100032
100031
100031
100032
100032
100032
100033
100033
100034
100034
100035
100035
100036
100036
100036
100036
100036
100036
100036
100036
100035
100035
100034
100034
100033
100033
100033
100032
100032
100033
100026
100025
100025
100025
100025
100025
100025
100025
100026
100026
100026
100027
100027
100027
100027
100027
100027
100027
100027
100027
100027
100026
100026
100026
100026
100025
100025
100025
100025
100026
100020
100019
100019
100019
100018
100018
100018
100018
100018
100018
100019
100019
100019
100019
100019
100019
100019
100020
100019
100019
100019
100019