/*--------------------------------*- C++ -*----------------------------------*\
| =========                 |                                                 |
| \\      /  F ield         | OpenFOAM: The Open Source CFD Toolbox           |
|  \\    /   O peration     | Version:  v1606+                                |
|   \\  /    A nd           | Web:      www.OpenFOAM.com                      |
|    \\/     M anipulation  |                                                 |
\*---------------------------------------------------------------------------*/
FoamFile
{
    version     2.0;
    format      ascii;
    class       volVectorField;
    location    "1.3";
    object      ddt0(U);
}
// * * * * * * * * * * * * * * * * * * * * * * * * * * * * * * * * * * * * * //

dimensions      [0 1 -2 0 0 0 0];

internalField   nonuniform List<vector> 
11640
(
(-0.0134314589925 -0.0135370262861 0.0185084464004)
(-0.038225350661 -0.0155716295747 0.0186682744061)
(-0.0626264182894 -0.0164976457922 0.018152859284)
(-0.0862704769039 -0.0151102422151 0.019463214575)
(-0.104671093982 -0.0142245475049 0.0205160016547)
(-0.118246979173 -0.0143055458003 0.0184372889345)
(-0.129435568069 -0.0156609689641 0.0142506534308)
(-0.137048450608 -0.0160323163193 0.0124815869994)
(-0.139507943212 -0.0152164468332 0.0107438538042)
(-0.138488647895 -0.0145617565928 0.00920376898141)
(-0.134490856471 -0.0136523305202 0.00783179026442)
(-0.128020937112 -0.0125707626509 0.00648182771301)
(-0.119618154078 -0.0113975562402 0.00523658735146)
(-0.109531492839 -0.0103296403082 0.00401193934409)
(-0.0976453295541 -0.00950553392685 0.00288542085648)
(-0.0837406647736 -0.00900633872326 0.00181390733782)
(-0.0678095095534 -0.00872780740807 0.00102827293343)
(-0.0500197441773 -0.00878942466887 0.000459595837703)
(-0.0310572821808 -0.00916970133914 0.000320866433136)
(-0.010984621627 -0.0098728824243 0.00039958205769)
(-0.0155175598211 -0.0407932485586 0.0183588447853)
(-0.0410260707495 -0.0412245145519 0.0193300309253)
(-0.0619190666569 -0.042195153717 0.019355249032)
(-0.0836823297914 -0.0417915857892 0.0180256547196)
(-0.103338254594 -0.0415657161999 0.0177157037364)
(-0.119047961953 -0.0425876682571 0.0172738024245)
(-0.130527054206 -0.0449800255191 0.0164097868396)
(-0.135971614721 -0.0463642315383 0.0151783403493)
(-0.137436024276 -0.046205815292 0.0118540220624)
(-0.136357915169 -0.0441128630036 0.0101812616019)
(-0.13196213731 -0.0417290777774 0.00892213988592)
(-0.125286846673 -0.0387227091637 0.00794108708371)
(-0.116925876628 -0.0355888852688 0.00698321813534)
(-0.107202951395 -0.0326350616096 0.00617090987488)
(-0.0958422970334 -0.0304270562883 0.00529194417674)
(-0.0824509554351 -0.0290866770649 0.00447124347465)
(-0.0671808757012 -0.0282517658262 0.00359373830663)
(-0.0502668219455 -0.0281159204056 0.00292119617483)
(-0.0321113506195 -0.0286086335902 0.00211516336905)
(-0.011692004429 -0.0295432749303 -0.00010093710318)
(-0.0141724909949 -0.0662799810271 0.0191891225219)
(-0.0397474750474 -0.0638256228986 0.0180557506297)
(-0.0629571667373 -0.0643152129468 0.0181661440855)
(-0.0849925064056 -0.0660547071406 0.0178313626542)
(-0.104518580002 -0.0671979566166 0.0171242507762)
(-0.120751141565 -0.069810636699 0.0164639109292)
(-0.132383144008 -0.0725143707127 0.0153783950423)
(-0.137553234243 -0.0762291861521 0.0136881834985)
(-0.136532229551 -0.0763545553915 0.0130359628452)
(-0.133239566312 -0.0738657377529 0.0093471782853)
(-0.128396754803 -0.0699224654388 0.00785785460178)
(-0.121251842604 -0.0651799237045 0.00677565965385)
(-0.112943893431 -0.0601044938283 0.00606329242999)
(-0.103780746698 -0.0554023748978 0.00568949212586)
(-0.0933599808219 -0.0521180866134 0.00503981387881)
(-0.0807320576893 -0.0499354488803 0.00430042116738)
(-0.0660795812896 -0.0487447835711 0.00339513970107)
(-0.0498669418316 -0.0481292551562 0.00255929279334)
(-0.032566798657 -0.0478892423055 0.00141622862805)
(-0.012157745215 -0.0480038112123 -0.00121873499019)
(-0.0133721700612 -0.0886100212597 0.0189583639908)
(-0.0393775849652 -0.08726991175 0.0181590519326)
(-0.06397193723 -0.0879560392568 0.0179480395265)
(-0.0860212139521 -0.0897640925492 0.0179550139139)
(-0.106295889371 -0.0920679958266 0.0157694005104)
(-0.123712761112 -0.0945502758095 0.0155737334629)
(-0.136603595812 -0.0954799117128 0.0141575153057)
(-0.139835186813 -0.106251991044 0.0112841538222)
(-0.135117983959 -0.104630553544 0.00937559456392)
(-0.129901722999 -0.101048964844 0.00722973066749)
(-0.123346439995 -0.0946594604862 0.00508581106624)
(-0.115677791073 -0.0872638863785 0.00398865292197)
(-0.107408124026 -0.0797095983602 0.00362756063087)
(-0.0994472310274 -0.0732865153518 0.00393004699447)
(-0.0902750316872 -0.0694633963113 0.00352968612867)
(-0.0785145615244 -0.0667026551867 0.00286077940827)
(-0.0645771576532 -0.0653060529151 0.00194827092529)
(-0.0487276449069 -0.0645087023961 0.00097100769286)
(-0.0321664705188 -0.0636784522588 -0.000246364149567)
(-0.012247012436 -0.0632179002371 -0.0025889583116)
(-0.0131043609601 -0.106316659463 0.0191422113086)
(-0.039552745886 -0.107002835304 0.0181855308146)
(-0.0651853181986 -0.107554926776 0.0177114290182)
(-0.0883543496225 -0.109323982291 0.0172479671714)
(-0.10840064359 -0.112139482123 0.0160252926823)
(-0.123637926877 -0.113468972106 0.0145737120992)
(-0.143579075078 -0.113093045062 0.011630761769)
(-0.146730672092 -0.124251789524 0.00581165214367)
(-0.131363526277 -0.124045314113 0.00489465846553)
(-0.1235142175 -0.117057139835 0.00206233680206)
(-0.115121500098 -0.106124619697 -0.000459657325629)
(-0.107159870842 -0.0941493658767 -0.00146342534403)
(-0.0999654626554 -0.0849161656416 -0.00121017779186)
(-0.0946128680327 -0.0807333305445 0.000968449908894)
(-0.087586630316 -0.0790228420884 0.00128795655336)
(-0.076613147459 -0.0768073796772 0.00104745059142)
(-0.0631995903407 -0.0756704398407 0.000176805855072)
(-0.047383891805 -0.0752868195873 -0.000929352452517)
(-0.0314323835854 -0.0740911314598 -0.00229397879922)
(-0.0122305338708 -0.0738077444622 -0.00394229757752)
(-0.0144821369979 -0.120893835293 0.0153508632055)
(-0.0410579967821 -0.121101526324 0.0181450547205)
(-0.0658859233572 -0.122532214785 0.0173780931973)
(-0.0896077092368 -0.123536131127 0.0163576882994)
(-0.109701987736 -0.12609478687 0.0149103898879)
(-0.124350134513 -0.130739596314 0.0136554008757)
(-0.146613102535 -0.141853660809 0.00348546172743)
(-0.150676226584 -0.141215790939 0.000290612035303)
(-0.1278401714 -0.143061967602 0.00182665498775)
(-0.112049235275 -0.136648169752 -0.00143644604885)
(-0.100932492846 -0.127957990325 -0.00363287872172)
(-0.0953030259102 -0.118622958841 -0.00402257862861)
(-0.0950989553829 -0.100425423606 -0.00571919407658)
(-0.0956629088879 -0.0860032480738 -0.000832051492831)
(-0.0884583696625 -0.0832276573226 -0.000793012713839)
(-0.0763320090145 -0.0804086324759 -0.000871457103523)
(-0.0628870408976 -0.0801353344424 -0.00175776419889)
(-0.0462398886969 -0.0812875087646 -0.00277622590807)
(-0.0306941801561 -0.0801514378919 -0.00447746551091)
(-0.0123324251547 -0.0776002535622 -0.00499575521207)
(-0.0137942839718 -0.133464102903 0.0127344656338)
(-0.0413578776431 -0.131607379778 0.0144918357127)
(-0.0670191234031 -0.131290666211 0.0169877415271)
(-0.0907684314076 -0.130955932084 0.0146210137318)
(-0.114891198817 -0.130252255412 0.0111992154455)
(-0.139042668294 -0.129553369434 0.00641770885856)
(-0.153502606702 -0.130420435984 0.0068221862003)
(-0.146270983829 -0.124888107896 -0.0185289523688)
(-0.126681841043 -0.101771014496 -0.0232885249817)
(-0.108702018517 -0.0727990565906 -0.0272249046109)
(-0.0982598900313 -0.0431482900867 -0.0287033432533)
(-0.0807498544898 -0.0320088360728 -0.024267592355)
(-0.0677261664333 -0.02210910756 -0.0206122027903)
(-0.0781150280153 -0.0588625742866 -0.00799167188731)
(-0.083582631393 -0.0719164269655 -0.00629540109168)
(-0.0747904364482 -0.076703941139 -0.00432173260022)
(-0.0643996869144 -0.0797683441717 -0.00476053722329)
(-0.0467674761609 -0.080261770965 -0.00410784411172)
(-0.0275604048965 -0.080460997814 -0.00566782822689)
(-0.00984084953146 -0.0769223074016 -0.00705371471495)
(-0.0130256144108 -0.141727727863 0.010842813929)
(-0.038933204243 -0.139726872161 0.0121987522198)
(-0.0643843659981 -0.136837923391 0.0127633110811)
(-0.0879250355083 -0.134338262435 0.0120644258084)
(-0.108295357064 -0.12959957956 0.0102223340026)
(-0.123859241225 -0.121280626552 0.0099442386442)
(-0.140038222192 -0.107728966296 0.0129615745302)
(-0.119681832728 -0.106687998571 -0.0147546312931)
(-0.0750680423938 -0.0807241949886 -0.0062317888908)
(-0.0544086258451 -0.0549342675459 0.00513644927041)
(-0.0608552348777 -0.0323576794669 0.00111608566046)
(-0.0765060380941 -0.009384664659 0.0170269820364)
(-0.118717230542 -0.0125730332016 0.0276083974403)
(-0.144452834494 -0.0548040588811 -0.00062693190551)
(-0.106796416341 -0.0662882283312 -0.00654431881284)
(-0.0847458591158 -0.074055968151 -0.00497287116212)
(-0.0666559390528 -0.0774566973004 -0.00555755640624)
(-0.0468236575323 -0.0761960321392 -0.00610242387693)
(-0.027167813451 -0.0765794487609 -0.00744877811383)
(-0.00895986484952 -0.0749154458326 -0.00840649894092)
(-0.0121538537587 -0.146111828336 0.00905337463508)
(-0.0366489904904 -0.143909573189 0.0103099261817)
(-0.0607428474762 -0.140616133254 0.0108143294211)
(-0.0827197699753 -0.13643827741 0.00999089643665)
(-0.102040579642 -0.130706221049 0.0081656717022)
(-0.116764851162 -0.122626148298 0.00972636968567)
(-0.135844869378 -0.114513641533 0.011413217925)
(-0.117939093474 -0.111203884897 -0.0190700821668)
(-0.0730868148922 -0.103172412568 -0.0168971275794)
(-0.0577777537932 -0.0975144668338 -0.0114859017077)
(-0.0504326694834 -0.0899689911065 -0.0028515598856)
(-0.0567809229959 -0.0783415028199 0.00273615343514)
(-0.110091838321 -0.0757943010858 0.0259997877056)
(-0.136243975053 -0.0775323348989 -0.00700917823447)
(-0.105508771267 -0.0741562610227 -0.0048108243101)
(-0.0873526979776 -0.0747108963234 -0.00560218973817)
(-0.0670059305554 -0.0746798246944 -0.00676373334962)
(-0.0462753428841 -0.0728054841819 -0.00747745208321)
(-0.0263948443634 -0.0715385925808 -0.0084468728226)
(-0.00837752207758 -0.0697871659481 -0.00817405271698)
(-0.0111532810544 -0.147051483605 0.00734099366868)
(-0.0338348458535 -0.144550994278 0.00866969436134)
(-0.0564507310734 -0.140718168594 0.00865977662214)
(-0.0768590428811 -0.135438862903 0.0076483513456)
(-0.0947404992881 -0.128314150738 0.0058903113122)
(-0.108885370832 -0.118945819454 0.00684251884336)
(-0.127250964003 -0.109147192279 0.00962883897297)
(-0.107304090356 -0.10048632494 -0.0153327777765)
(-0.0599391323698 -0.0977121814206 -0.00915119534058)
(-0.0403143500923 -0.0942392919485 0.00155813965531)
(-0.0403790398879 -0.0779525469151 0.00557593525668)
(-0.0592829184302 -0.0753647662036 0.0140687821798)
(-0.114231177319 -0.0782261107382 0.0263225490689)
(-0.142674209969 -0.0774937093284 -0.00472433091953)
(-0.105443872395 -0.0770531081452 -0.00582907795547)
(-0.0865092814258 -0.0735633608971 -0.00696141743901)
(-0.0656027434527 -0.0706316536251 -0.0083201065642)
(-0.0445818200911 -0.0671291613225 -0.0087188273562)
(-0.0247772812187 -0.0646162833782 -0.00932208672741)
(-0.00766765661453 -0.0624054442555 -0.00835261437568)
(-0.0100293230872 -0.144809938405 0.00565310518885)
(-0.030783394494 -0.142246405438 0.0069871543405)
(-0.0514779857566 -0.138226244298 0.00666510832644)
(-0.0695093254546 -0.132320269445 0.00503305706571)
(-0.0843222655473 -0.123377985604 0.00237762606109)
(-0.0981437495642 -0.10868635402 0.00180975437602)
(-0.117859982358 -0.0860508312084 0.00316737413609)
(-0.104977851327 -0.0381585172614 -0.0220900616562)
(-0.066204784606 -0.0392927910063 -0.0176457032819)
(-0.0362234173551 -0.0491966932265 -0.00627401997618)
(-0.0276982106471 -0.073721622613 0.00720380692206)
(-0.0546324632401 -0.0882147757751 0.0148429107845)
(-0.112763757375 -0.103208755579 0.0244036111049)
(-0.137191037179 -0.0818969904827 -0.00384517364629)
(-0.101529751684 -0.0785731226287 -0.00687318512113)
(-0.0825070581436 -0.0716728434362 -0.00821055776606)
(-0.0619588557958 -0.065670429185 -0.00948272107645)
(-0.0416191156565 -0.0603752663028 -0.00959471696734)
(-0.0225350267635 -0.0566105121917 -0.00977792546857)
(-0.00669385756236 -0.0539824332953 -0.00814984835213)
(-0.0089788697277 -0.139650603554 0.00405366617325)
(-0.0277757388894 -0.137344039967 0.00554612767129)
(-0.0464877924138 -0.13378736503 0.00515459102028)
(-0.0616953748276 -0.129052830866 0.00405413492212)
(-0.0700680602555 -0.122728181118 0.00351114043204)
(-0.0699001729335 -0.113475831937 0.00549568070336)
(-0.0543688104347 -0.100125428436 0.00797227177067)
(-0.0577845472782 -0.0775344521829 0.0225715673713)
(-0.0709650426383 -0.0647014532837 0.0228433390547)
(-0.0729203319582 -0.0696598343675 0.0252765159815)
(-0.0780421844699 -0.0973739516521 0.0246344907147)
(-0.0851779038901 -0.116353677344 0.0188319708416)
(-0.111041045453 -0.12370339681 0.0135167082318)
(-0.11936475633 -0.0934435667693 -0.000754879970885)
(-0.0944120439131 -0.0819100454632 -0.0063724694259)
(-0.0755670832697 -0.0701569339355 -0.00859947119122)
(-0.0561712510802 -0.0604569710966 -0.00960396517259)
(-0.0373613157105 -0.0531640778437 -0.00998146578659)
(-0.0196581989615 -0.0480369663382 -0.00981106866463)
(-0.00542720979911 -0.0450774134249 -0.00759164699231)
(-0.00806607892014 -0.131522179378 0.00251278943287)
(-0.0254425329857 -0.129646154951 0.00410904906094)
(-0.0432885281887 -0.127007761851 0.00347434078819)
(-0.0582471646734 -0.123847221359 0.00163997993387)
(-0.0686136161604 -0.120641339031 -0.000149559328727)
(-0.0768722491272 -0.119528268913 -0.0013884040707)
(-0.0832753497955 -0.121848329729 -0.00516277151317)
(-0.0678407541831 -0.135372704643 0.00515522690411)
(-0.0544138047361 -0.131476941096 0.00126336489689)
(-0.0657744791674 -0.133990268487 -0.000700596759698)
(-0.0731136941088 -0.131850740465 -0.000521902649596)
(-0.0806119019692 -0.130329237918 -0.00104590364415)
(-0.0919022751844 -0.122319886551 -0.00112842981655)
(-0.0929464545735 -0.0965698211416 -0.00587362899751)
(-0.0783642228347 -0.079823052176 -0.0088199237226)
(-0.0630102321777 -0.0657782215955 -0.0098683626904)
(-0.0474134365884 -0.0541034449006 -0.0102258457334)
(-0.0314165299716 -0.0451607999228 -0.0102152708727)
(-0.015860553973 -0.0395050804461 -0.00965237356126)
(-0.00415913182259 -0.0362772618495 -0.00673645314769)
(-0.00733786387517 -0.120399596541 0.00118684914896)
(-0.0236199305916 -0.118964401715 0.00298377539087)
(-0.0408139022691 -0.116956861475 0.00234325671174)
(-0.0553931397114 -0.114507835856 0.000425441254897)
(-0.0654645427683 -0.111733359289 -0.00167415785318)
(-0.0709468343886 -0.10894761759 -0.00289553504562)
(-0.0705882210363 -0.105189083908 -0.00272016670307)
(-0.0688754600794 -0.0972794895513 -0.00368799125201)
(-0.0700189556938 -0.107792714852 -0.00304001096655)
(-0.071792961543 -0.113037191671 -0.00322221359531)
(-0.0743710949221 -0.113506514961 -0.00398414411806)
(-0.0768965129527 -0.110428855969 -0.00416743073015)
(-0.0793944076524 -0.101437136504 -0.005192080363)
(-0.0758120501889 -0.0848252613363 -0.0083840824587)
(-0.0645041779172 -0.0699046859825 -0.0100381063264)
(-0.05175923387 -0.0566271761736 -0.0103479110763)
(-0.0385208160534 -0.0452586887184 -0.0103949225458)
(-0.024998731214 -0.036536531602 -0.0102081818382)
(-0.0120180342362 -0.0310249029613 -0.00904422782033)
(-0.00272547706793 -0.0279062997138 -0.0056379241941)
(-0.00678021924482 -0.1064438949 2.34272420875e-05)
(-0.0222019324748 -0.105398169558 0.00208270379441)
(-0.0388568002235 -0.103931105416 0.00156816571926)
(-0.053213597984 -0.10210188526 -0.000223935300596)
(-0.0634655035439 -0.100032263958 -0.00234163964766)
(-0.0701179154141 -0.0978761078013 -0.00397303601098)
(-0.0717099226304 -0.0974296249786 -0.00490689096468)
(-0.0709773423196 -0.0989420000401 -0.00570125438036)
(-0.0715961615896 -0.100226950282 -0.00653965264125)
(-0.0714907056046 -0.100830024564 -0.00656649328489)
(-0.0706731566884 -0.098365584547 -0.00704950925843)
(-0.0696315952956 -0.0926642881074 -0.00765769883064)
(-0.0674212830611 -0.0834977194535 -0.00847124050921)
(-0.0612913271897 -0.0704656274257 -0.00983197002055)
(-0.0517574431302 -0.0574029468989 -0.0106026306749)
(-0.0410534222085 -0.0456804273171 -0.0105921432676)
(-0.0301680663925 -0.0354519320456 -0.0103420741698)
(-0.0188472982691 -0.0277513516253 -0.0096350119166)
(-0.00816924939689 -0.0227278258739 -0.00823079607263)
(-0.0014408898162 -0.0200664547634 -0.00448475770293)
(-0.00640418423636 -0.0901150678528 -0.000959186936057)
(-0.0211973393133 -0.0893715375639 0.00129325818576)
(-0.0373927943481 -0.088339790869 0.00104113294262)
(-0.0514852416035 -0.0870487157441 -0.000502489285102)
(-0.0614909695368 -0.0857332476618 -0.00244073483495)
(-0.0686832568008 -0.0849839541438 -0.00434609274701)
(-0.0718055317279 -0.0828183830185 -0.0056906140327)
(-0.0717080933801 -0.0828333041959 -0.00715697922426)
(-0.0715901944971 -0.0822302032715 -0.0091851235936)
(-0.0698134597967 -0.0808961512151 -0.00823914307486)
(-0.0664949116756 -0.0775249170305 -0.00884109562221)
(-0.0626572608152 -0.0718973931008 -0.00951132141286)
(-0.0575175679625 -0.0638931302548 -0.0101712958645)
(-0.0503953921568 -0.0538091965375 -0.0106601493796)
(-0.0416260661245 -0.04344554887 -0.0106518286202)
(-0.0321347769418 -0.033908242746 -0.0102062379607)
(-0.0225721400371 -0.0257058422281 -0.00962294259624)
(-0.013227770576 -0.0192620676083 -0.00878499320947)
(-0.0048166123201 -0.0153259948025 -0.00721519613881)
(-0.000422139158216 -0.0134144782014 -0.00349127683169)
(-0.006187358474 -0.0718914025466 -0.0016370233619)
(-0.02053843045 -0.0714976827265 0.00057090100572)
(-0.0363953654121 -0.0707534383165 0.000475212561701)
(-0.050457897436 -0.069701250416 -0.000814451487427)
(-0.0614486276959 -0.0687057233482 -0.00246187997473)
(-0.0673160634309 -0.0680958724332 -0.00395182240634)
(-0.0695882722872 -0.0660030802237 -0.00592935393248)
(-0.0705555390517 -0.0649000095972 -0.00762210099938)
(-0.0699234527227 -0.0634200332131 -0.0095933135551)
(-0.0670801584242 -0.0608478075967 -0.00903482996377)
(-0.0621086417936 -0.0571272277842 -0.00964780362984)
(-0.0564924305402 -0.0520596449311 -0.0100972936705)
(-0.0496780058099 -0.0456089419675 -0.0104433917759)
(-0.041815241802 -0.0379402585894 -0.0105276403969)
(-0.0333132308169 -0.0301076879094 -0.0101553073196)
(-0.024774150097 -0.0228148130431 -0.00949433439518)
(-0.0165520808253 -0.0165112176922 -0.00859844711057)
(-0.00883286896614 -0.0118939163948 -0.00765275989211)
(-0.00238514143486 -0.00920468318792 -0.00612878462261)
(0.000237354541586 -0.00822938993342 -0.00260414639069)
(-0.0061616062574 -0.0522620031943 -0.00199770839839)
(-0.0202170870066 -0.0523388842798 3.44556466156e-05)
(-0.0355924083255 -0.051834686705 -0.000145486008484)
(-0.0493364102199 -0.050666834924 -0.00131402614456)
(-0.0597543138748 -0.0499197977443 -0.00269715245282)
(-0.0659801222154 -0.0480022974207 -0.00433108626086)
(-0.0687210874559 -0.0471308067352 -0.00610398475137)
(-0.06925629343 -0.0457900505101 -0.00776276780612)
(-0.0676772080402 -0.0442894472387 -0.00890121374671)
(-0.0636106315317 -0.0412755415195 -0.00906443919155)
(-0.0578650859287 -0.0378275776621 -0.00964241160595)
(-0.0512041107058 -0.0336661285667 -0.0100059020327)
(-0.0435875589055 -0.0287261482613 -0.0101135212063)
(-0.0354480195827 -0.0232345134994 -0.00990591152885)
(-0.0272594573522 -0.0178026636446 -0.00933568060702)
(-0.0192511367657 -0.0127835049521 -0.00847817604144)
(-0.0120805440981 -0.00854409155404 -0.00755261579738)
(-0.00587299059559 -0.00563552327342 -0.0064794722052)
(-0.000948758662721 -0.0042357804374 -0.00501024141615)
(0.000517068278405 -0.00419663018179 -0.00197125556577)
(-0.00637840466905 -0.0324175260406 -0.0020413760971)
(-0.0202782371364 -0.033378244309 -0.000560162644016)
(-0.034821336788 -0.0339692902781 -0.000991273080361)
(-0.0485749442942 -0.0338425570759 -0.00221589108526)
(-0.0587568698342 -0.0318677885262 -0.00236548424716)
(-0.064461290667 -0.0298336645592 -0.00433888450361)
(-0.0673243007414 -0.0282644952669 -0.00604628957609)
(-0.0676722748208 -0.0269749670332 -0.00755241821978)
(-0.0654149475971 -0.0251758364026 -0.0079482078229)
(-0.0606114491514 -0.022737795941 -0.00845050100568)
(-0.0545024978997 -0.0203068167421 -0.00893876323389)
(-0.0473309823334 -0.0174062907101 -0.00914436709015)
(-0.0393945871073 -0.0141572804992 -0.0090134346937)
(-0.0312189558473 -0.010649082194 -0.0085354480775)
(-0.0232872351631 -0.00735740620354 -0.00781839330044)
(-0.0158671376103 -0.00446601758614 -0.00697864626902)
(-0.00961139868743 -0.00227007271772 -0.00606558864452)
(-0.00448167645415 -0.00082362418187 -0.00502206504291)
(-0.000679888505966 -0.000556918086143 -0.00381787269703)
(0.000394782395003 -0.00156445687179 -0.00148057574824)
(-0.00716964870864 -0.0116062863724 -0.00182747943662)
(-0.0216376214462 -0.0123931351857 -0.00192651664867)
(-0.0357263500321 -0.0132086097977 -0.00228348400981)
(-0.0466837608274 -0.0137169624234 -0.00284278536045)
(-0.0550790198428 -0.0118565944573 -0.0050430678016)
(-0.0616460244933 -0.0106329569134 -0.00557189797201)
(-0.0651270366802 -0.00966932488852 -0.00629724480611)
(-0.0654124199175 -0.00909358544081 -0.00689282018476)
(-0.0627507406026 -0.00803207667794 -0.006910936768)
(-0.0581209805275 -0.00696572275949 -0.00691481406592)
(-0.0518886253372 -0.00599534855703 -0.00691813672523)
(-0.0446137449072 -0.00488634658824 -0.00661181152381)
(-0.0366104802381 -0.00367073767598 -0.00604321582737)
(-0.0285965998869 -0.00239155042601 -0.00532116442115)
(-0.0211221416986 -0.00128669012164 -0.00446577046728)
(-0.0142924417932 -0.00040707610454 -0.00356271737494)
(-0.00865963371246 0.000188324793595 -0.00270606651316)
(-0.00428845935057 0.000515179896062 -0.00208257043883)
(-0.00154866974247 0.000433274254471 -0.00157387765183)
(-0.00016598744359 -0.000162226170695 -0.0013394684683)
(-0.0133194514445 -0.0135787024494 0.0531073970138)
(-0.0385428406041 -0.0150947103491 0.0528406766174)
(-0.0623103170155 -0.0156976442734 0.051116968765)
(-0.0849521020254 -0.0163110465698 0.0512398378081)
(-0.105596232018 -0.0166685047082 0.0511436590889)
(-0.122674133921 -0.0160295725522 0.0460054167995)
(-0.133621036154 -0.015593392932 0.0400642109609)
(-0.139506906565 -0.0160597814245 0.03579189891)
(-0.141776105346 -0.0167153251269 0.0313739493015)
(-0.140475609232 -0.0165904809948 0.0270043276483)
(-0.136315208586 -0.0160742491642 0.0228376888269)
(-0.129747895925 -0.0151827131543 0.0187742471306)
(-0.121212963075 -0.0142088352611 0.0148008670074)
(-0.111066981491 -0.0132713106365 0.0110681790003)
(-0.0991160980909 -0.0126528052882 0.00750402314893)
(-0.0849756290793 -0.0122923043093 0.00420983390835)
(-0.0686843369473 -0.0121492366506 0.00161124132591)
(-0.0504296637788 -0.012001059239 -0.000175320583419)
(-0.0308609482086 -0.011900354467 -0.000908391018666)
(-0.0105619451626 -0.0108903297945 -0.00103089824213)
(-0.0149575853509 -0.0403568709819 0.0523831841158)
(-0.0406182574119 -0.0417722973221 0.0535042970685)
(-0.0630155119395 -0.0422182971254 0.0524862764949)
(-0.0851366426929 -0.0430840898929 0.0497168531132)
(-0.104304756597 -0.0443423863198 0.0468657869301)
(-0.120440093961 -0.0448337178359 0.0451175295782)
(-0.13251339138 -0.0455832348865 0.0417832232889)
(-0.139549960239 -0.0474137971299 0.0376307318331)
(-0.141120997521 -0.0470709772023 0.0321628069204)
(-0.138658497904 -0.0469273963629 0.0279639007223)
(-0.133799105687 -0.045169805849 0.0239973961605)
(-0.126852497476 -0.0424324031821 0.020401853689)
(-0.118319943465 -0.0394903657332 0.0170549050134)
(-0.10849711711 -0.0365335443354 0.0140696500802)
(-0.0971618966838 -0.0345575341411 0.0110461659847)
(-0.0836680525035 -0.0334269307661 0.00806326406232)
(-0.0679639529321 -0.0329201726053 0.00530693572935)
(-0.0502607872721 -0.032682497884 0.00308379451794)
(-0.0313789706912 -0.0324276263428 0.00126134076919)
(-0.0108538155806 -0.0307441614721 -0.00210873608657)
(-0.015103093983 -0.0660771049778 0.0528380892747)
(-0.0405623087966 -0.0648545090231 0.0502988936891)
(-0.0630340838674 -0.0653188634312 0.0501935247471)
(-0.0858648907268 -0.066323376301 0.0488378411579)
(-0.105734355526 -0.0689888088964 0.0465560476841)
(-0.122111142695 -0.0715017106733 0.0438952671218)
(-0.134354459443 -0.0743860779638 0.0402100464262)
(-0.139075168003 -0.0792328937037 0.0352397950526)
(-0.139372017764 -0.0782963898608 0.0301080018604)
(-0.136679952551 -0.0763291328661 0.0248948873655)
(-0.13003773353 -0.0730026145072 0.0208930885401)
(-0.122409195573 -0.0684572003761 0.0173149244533)
(-0.113608669233 -0.0632907263789 0.0145009920663)
(-0.104362763001 -0.0582813804809 0.0125284410233)
(-0.0942628393577 -0.0551333274898 0.00991844050186)
(-0.0817462673232 -0.0531166505124 0.00738268514945)
(-0.0668676388725 -0.052176236166 0.00444543591928)
(-0.0498508510266 -0.0518196403072 0.00168771676302)
(-0.0316428909744 -0.0513308111569 -0.000891605438318)
(-0.0112330521126 -0.0497837879681 -0.0050603178354)
(-0.014352756394 -0.0888854439492 0.0507322179414)
(-0.0402444811571 -0.0877322382803 0.0490171745018)
(-0.0639683350642 -0.0889321274579 0.0489130347757)
(-0.0875321426538 -0.0909793844712 0.0476392524934)
(-0.107862330412 -0.0934791996617 0.0442098479708)
(-0.124068445839 -0.0963600750154 0.0411824508141)
(-0.138582134652 -0.0984847576299 0.0364979527835)
(-0.141876741557 -0.111056054324 0.029810512181)
(-0.136801606024 -0.109031429762 0.0244153497759)
(-0.132112450059 -0.104692088432 0.0184208823186)
(-0.12481598224 -0.099120552657 0.0133037898538)
(-0.116034434874 -0.0920163233167 0.00990473087213)
(-0.106877922239 -0.0843385841551 0.00784059599688)
(-0.0988212172427 -0.076544746916 0.00769992166081)
(-0.0903826688141 -0.0724804385573 0.00586036422334)
(-0.0790904327899 -0.0695822396464 0.00381068617332)
(-0.0653347200484 -0.0683044722082 0.00103448923763)
(-0.0489672085448 -0.0677823345469 -0.00204836216906)
(-0.0312807004765 -0.0669948649012 -0.00512191710062)
(-0.0113133600956 -0.0651326914638 -0.0088757179873)
(-0.0144916294172 -0.108920218075 0.0480275485528)
(-0.0409304924 -0.107866699161 0.0474204460352)
(-0.0657233502183 -0.109151936143 0.0470817451894)
(-0.0893663453481 -0.111504220481 0.0456578674854)
(-0.109883524838 -0.113027802251 0.0421574509469)
(-0.125669919807 -0.115193362257 0.0369057781466)
(-0.147578896796 -0.121693050413 0.027792850087)
(-0.148337323592 -0.132403136892 0.0205203616527)
(-0.13190590344 -0.129840767554 0.0156166863068)
(-0.125834516254 -0.123320248373 0.00746112284388)
(-0.116506549008 -0.11215791758 0.000953692269269)
(-0.106734271983 -0.0996754923888 -0.0033154738118)
(-0.0971658587164 -0.0908386403997 -0.00380278088763)
(-0.0910481159405 -0.083813666967 0.000264389132454)
(-0.0858466415494 -0.082197301379 -0.000351197995317)
(-0.0761477039125 -0.0797919309333 -0.0012612091024)
(-0.0637681138806 -0.0788755493859 -0.00348320283676)
(-0.0479254273148 -0.0784694553799 -0.00652062405626)
(-0.0308778598666 -0.0773616598328 -0.00994368906546)
(-0.0114080317871 -0.07546042455 -0.0128352040864)
(-0.013613385367 -0.125367511853 0.0422905113976)
(-0.0404914408806 -0.124785758126 0.0445325401339)
(-0.0671051680528 -0.124497952201 0.0440571576663)
(-0.090921487416 -0.126415161514 0.0422057235656)
(-0.110799996559 -0.128928848869 0.0383522308802)
(-0.132080737426 -0.135604082159 0.0354178060428)
(-0.156290483917 -0.145213764474 0.013688022205)
(-0.15027888796 -0.15467969936 -0.00149545637838)
(-0.127642785421 -0.158496820827 0.00101920359062)
(-0.114526248551 -0.149638763323 -0.00971372841305)
(-0.101275417314 -0.138146134536 -0.0160212289216)
(-0.0947080447529 -0.12504652699 -0.0190224716352)
(-0.0908917249491 -0.105283668155 -0.0145738124187)
(-0.0893289484384 -0.0899184966193 -0.00568242416349)
(-0.0856865772038 -0.0892239244973 -0.00562324301203)
(-0.0751233089007 -0.0852198170764 -0.00616673375159)
(-0.0633085217879 -0.0844533517524 -0.00836598038191)
(-0.0471068071652 -0.0844507951346 -0.0110639845807)
(-0.0304284537949 -0.0830451465273 -0.0147495894501)
(-0.0115856759317 -0.0796396450858 -0.0163283014497)
(-0.0139966599116 -0.136688435101 0.0368712558456)
(-0.0396914372713 -0.136964370607 0.0383663800842)
(-0.0669691232834 -0.136160414157 0.0392829107317)
(-0.0939964368272 -0.135091600438 0.0361021500915)
(-0.119480996662 -0.13420547898 0.0294916526977)
(-0.141060590394 -0.133490972198 0.0177028526459)
(-0.163862051978 -0.125554959332 0.00729160681895)
(-0.160549116072 -0.136543696988 -0.0426829830331)
(-0.128281548757 -0.110290123274 -0.0513611215174)
(-0.106455582753 -0.0733367905646 -0.0626894628978)
(-0.0916957600146 -0.0468252281106 -0.063526230274)
(-0.0728899850953 -0.0280356129 -0.059744860482)
(-0.0631697766093 -0.0114662340437 -0.0585226532903)
(-0.0741148228431 -0.0604307481431 -0.0180463782386)
(-0.0797046314152 -0.0771439471951 -0.0116125564839)
(-0.0714390767984 -0.0816117685383 -0.0126883325177)
(-0.0632273033967 -0.0835788380105 -0.0141192111777)
(-0.0468155129518 -0.0837438375597 -0.0149382959979)
(-0.0286991956207 -0.0833670365862 -0.0177969119612)
(-0.0104876325023 -0.0791687804657 -0.021304541742)
(-0.0138890033419 -0.144374147579 0.0317215430697)
(-0.0395704812478 -0.143678503027 0.0330503083248)
(-0.0648596683516 -0.142760155678 0.0327503260279)
(-0.0883211009241 -0.138631862533 0.030253193904)
(-0.108731952998 -0.13299792759 0.025471083083)
(-0.12333583 -0.121214155303 0.0222431597127)
(-0.152310222047 -0.108510655892 0.0144427853364)
(-0.133490756308 -0.113160708993 -0.0744134371631)
(-0.0693306161338 -0.086835811853 -0.0392985136527)
(-0.056660096914 -0.0600007260462 -0.00589084244525)
(-0.0612983761703 -0.0321427242235 0.0266937848134)
(-0.0652044010799 -0.0108389672383 0.0597549139412)
(-0.116979820309 -0.00304072266446 0.0968083133813)
(-0.150794069109 -0.0556294493636 0.0131113643747)
(-0.105720040999 -0.0675450396353 -0.0073118156939)
(-0.0823143490121 -0.0779278223569 -0.0128549604225)