/*--------------------------------*- C++ -*----------------------------------*\
| =========                 |                                                 |
| \\      /  F ield         | OpenFOAM: The Open Source CFD Toolbox           |
|  \\    /   O peration     | Version:  v1606+                                |
|   \\  /    A nd           | Web:      www.OpenFOAM.com                      |
|    \\/     M anipulation  |                                                 |
\*---------------------------------------------------------------------------*/
FoamFile
{
    version     2.0;
    format      ascii;
    class       volScalarField;
    location    "0.875";
    object      p;
}
// * * * * * * * * * * * * * * * * * * * * * * * * * * * * * * * * * * * * * //

dimensions      [1 -1 -2 0 0 0 0];

internalField   nonuniform List<scalar> 
3072
(
0
-0.0201162
-0.0134951
0.0107875
0.0452874
0.0998363
0.183189
0.310938
0.567783
0.373965
-0.392199
0.698628
1.46745
1.46665
1.48577
1.52193
1.58713
1.68342
1.80862
1.9159
2.88796
5.04079
5.6469
5.17279
2.61408
2.63282
2.67153
2.7498
2.87891
3.06034
3.28475
3.43174
4.7344
7.96769
5.24651
3.65805
3.95038
3.96503
4.00707
4.10447
4.27574
4.52748
4.89995
5.42655
6.57776
11.0197
5.35736
5.51954
5.39014
5.40324
5.43804
5.52326
5.66426
5.85819
6.17664
6.53155
6.39043
7.49157
7.26683
7.55895
6.94591
6.9866
7.04632
7.1564
7.2942
7.45737
9.27928
10.4962
8.86143
9.80241
9.64103
10.2203
8.58244
8.72008
8.86619
9.08567
9.33761
9.67187
12.1482
13.5623
10.7481
11.7227
12.1186
12.4119
10.2312
10.5713
10.8536
11.223
11.5742
11.9744
13.1377
15.2794
13.4598
13.8415
14.2374
14.355
11.8163
12.512
12.9629
13.5121
13.9604
14.4465
14.8674
15.4004
15.4119
15.9748
16.2984
16.4336
13.2359
14.513
15.1176
15.8332
16.3564
16.897
17.2936
17.5486
17.5361
18.1187
18.3335
18.2251
14.1692
16.4646
17.1589
17.9879
18.5211
19.1072
19.5214
19.4785
19.4132
19.8192
20.097
19.789
13.3676
18.0464
18.774
19.5788
20.0414
20.6129
21.1089
20.9377
20.8363
21.387
21.8689
21.4819
0.367784
1.61742
-0.945603
-0.389495
-0.683213
-0.51506
-0.578
-0.487619
0.130712
0.818685
0.870378
0.942812
1.77117
1.59883
1.49065
1.36406
1.19826
2.14215
3.13543
2.97598
1.62067
1.15521
0.948131
1.19136
3.57924
3.47419
3.33607
3.18647
2.90171
2.69556
2.51322
1.53157
4.11404
6.40111
5.42744
5.72514
5.61326
5.49899
5.42945
5.2823
5.07486
4.89592
4.80184
4.99505
6.41873
6.88523
7.3604
5.80086
7.72172
7.66557
7.55994
7.35712
7.046
6.61685
6.04659
5.6795
5.04779
4.31199
3.63569
5.41162
10.2497
9.83263
9.69128
9.45076
9.07801
8.50764
7.69365
7.43049
8.99157
10.984
10.2351
7.69697
12.6625
12.0116
11.7949
11.556
11.2115
10.6449
9.82159
9.16917
12.5268
13.3788
12.8251
11.7291
14.3301
14.0289
13.831
13.6086
13.406
12.9596
12.324
11.7033
15.3275
15.3031
15.1232
14.5632
16.3909
15.8554
15.6182
15.4519
15.529
15.2783
15.0682
14.8476
15.9497
17.469
17.4816
17.3255
18.156
17.2185
17.0464
16.9725
17.477
17.3697
17.6766
18.0885
18.7832
19.8772
20.0821
20.6118
19.447
18.0239
20.5866
20.1759
19.5066
19.1119
19.8455
21.1211
21.7861
21.8437
22.7521
24.5336
21.0719
20.0658
24.4011
23.9517
21.6774
20.4932
21.4806
23.9258
24.6378
27.4646
25.1894
28.6917
4.33068
4.32374
4.30484
4.25685
4.1805
4.08921
3.98774
3.87374
3.746
3.61103
3.47873
3.36388
5.77935
5.75628
5.72418
5.6766
5.62826
5.5575
5.49174
5.43925
5.40322
5.38231
5.37554
5.38378
7.0177
6.98281
6.92461
6.86276
6.80832
6.79837
6.82591
6.89587
7.00546
7.14331
7.29337
7.43933
8.45529
8.40678
8.34767
8.30234
8.28816
8.33402
8.4516
8.6429
8.89414
9.17791
9.45874
9.70315
10.0083
9.96984
9.93519
9.93052
9.96978
10.0928
10.3118
10.6235
11.0003
11.3972
11.7602
12.0437
11.6396
11.6554
11.6835
11.7534
11.8603
12.068
12.3828
12.7908
13.2519
13.7076
14.0922
14.3559
13.3027
13.4389
13.5828
13.7704
13.9511
14.2396
14.636
15.0968
15.5811
16.0298
16.3775
16.5771
14.9398
15.2941
15.6104
15.9583
16.1996
16.5473
17.0202
17.4806
17.9142
18.2861
18.5482
18.6599
16.4832
17.189
17.724
18.262
18.5173
18.8711
19.4501
19.8644
20.1699
20.3978
20.5405
20.561
17.8407
19.081
19.8412
20.5836
20.8421
21.0185
21.8824
22.1584
22.2572
22.2908
22.3013
22.2454
18.6609
20.8102
21.7295
22.6094
22.7627
22.6251
24.003
24.227
24.0504
23.8914
23.7954
23.697
18.1286
22.9963
25.5693
26.1009
24.9108
23.2726
25.8206
25.9021
25.335
25.1243
25.0014
24.9226
3.28571
3.26452
3.31525
3.43702
3.61796
3.88185
4.10779
4.24852
4.26815
4.16989
4.00728
3.87281
5.41087
5.46324
5.54729
5.66822
5.81873
5.91181
5.95401
5.90217
5.73502
5.47228
5.17511
4.94989
7.56957
7.6798
7.77115
7.84596
7.90114
7.90028
7.81143
7.5985
7.24568
6.77998
6.28413
5.87583
9.88959
10.0128
10.0798
10.1003
10.075
9.98544
9.80041
9.47785
8.98819
8.33685
7.61715
6.99064
12.225
12.3076
12.3128
12.2638
12.1718
12.027
11.8009
11.4425
10.9047
10.1454
9.23645
8.37288
14.4822
14.4893
14.4157
14.2995
14.163
14.0026
13.7932
13.4726
12.9856
12.2305
11.2283
10.1554
16.6212
16.542
16.3935
16.2262
16.0712
15.9329
15.791
15.5731
15.2349
14.6081
13.6692
12.4684
18.6192
18.4652
18.2612
18.0654
17.9217
17.8267
17.7879
17.7219
17.6224
17.2522
16.5911
15.3956
20.4542
20.2536
20.0219
19.818
19.695
19.6557
19.7336
19.8462
20.0615
20.0818
19.9654
18.9715
22.1065
21.8982
21.6711
21.4771
21.3759
21.3783
21.5515
21.8305
22.3957
22.9345
23.6906
23.2661
23.5684
23.394
23.2037
23.0348
22.9461
22.9592
23.1707
23.5505
24.397
25.4763
27.413
28.3103
24.8526
24.7489
24.6224
24.4903
24.4017
24.3877
24.5592
24.9293
25.8371
27.1646
29.9854
33.1574
4.29396
4.292
4.26968
4.21091
4.11769
4.01022
3.89532
3.76496
3.62239
3.47534
3.33519
3.21881
5.72968
5.70476
5.66528
5.60623
5.54959
5.46652
5.39266
5.33733
5.30129
5.28299
5.28153
5.2984
6.99191
6.94738
6.874
6.7964
6.73017
6.71759
6.74701
6.82564
6.94789
7.10009
7.26438
7.42389
8.45165
8.38454
8.30048
8.2342
8.21024
8.25851
8.38858
8.60036
8.87547
9.1817
9.48021
9.73699
10.0413
9.96925
9.89429
9.85935
9.88961
10.0181
10.2567
10.5975
11.0065
11.4305
11.811
12.1027
11.7263
11.6842
11.6487
11.673
11.7705
11.982
12.3164
12.7588
13.2602
13.7494
14.1534
14.4239
13.4747
13.5192
13.5592
13.6759
13.8511
14.1364
14.5355
15.0322
15.5693
16.0656
16.4421
16.6528
15.2358
15.4522
15.6084
15.8505
16.1079
16.4495
16.8695
17.3596
17.8673
18.3147
18.6254
18.7579
16.9558
17.4617
17.7524
18.1364
18.4727
18.849
19.2471
19.6703
20.0856
20.4351
20.6547
20.7078
18.5564
19.5178
19.9121
20.4133
20.8299
21.2028
21.55
21.8722
22.1541
22.3732
22.4894
22.4735
19.7372
21.5403
21.9636
22.5732
22.9476
23.3203
23.604
23.8357
23.993
24.0853
24.1054
24.0389
19.7607
23.3274
23.6369
24.163
24.5158
24.8775
25.1789
25.3847
25.4958
25.5236
25.4906
25.4056
3.14762
3.14359
3.22196
3.38014
3.60542
3.91872
4.18622
4.35779
4.3933
4.29647
4.12581
3.98174
5.33866
5.41025
5.52074
5.67586
5.86437
5.99242
6.06497
6.03229
5.87003
5.59912
5.28603
5.04526
7.56802
7.69447
7.80622
7.90656
7.9914
8.0174
7.9505
7.74944
7.39478
6.91389
6.39421
5.96397
9.93296
10.0667
10.1479
10.1877
10.1848
10.1182
9.95224
9.64034
9.14838
8.48094
7.73171
7.07518
12.2878
12.3759
12.3919
12.3598
12.2888
12.1661
11.9597
11.6144
11.0777
10.306
9.36604
8.4665
14.5516
14.5629
14.5007
14.4032
14.2901
14.1538
13.966
13.6631
13.1828
12.4221
11.3897
10.2791
16.7001
16.6268
16.4924
16.3472
16.2204
16.1084
15.9904
15.7951
15.4681
14.8459
13.8827
12.6456
18.7237
18.5764
18.3869
18.2143
18.0961
18.0346
18.0226
17.986
17.9027
17.5511
16.8759
15.6436
20.6083
20.4101
20.1878
20.0035
19.9049
19.8981
20.004
20.1546
20.3932
20.4538
20.3369
19.3124
22.3357
22.1174
21.8867
21.7007
21.6186
21.6473
21.8493
22.1758
22.7748
23.3849
24.1562
23.7343
23.8933
23.6873
23.4726
23.294
23.2123
23.2429
23.481
23.9154
24.811
25.9977
27.9655
28.9581
25.2837
25.1182
24.9405
24.7778
24.6823
24.6708
24.863
25.2866
26.2618
27.7221
30.6159
34.0181
-10.152
-10.2784
-10.3359
-10.324
-10.2587
-10.1651
-10.0643
-9.95246
-9.87796
-9.82929
-9.79475
-9.75265
-7.10586
-7.20306
-7.15412
-7.01659
-6.835
-6.64986
-6.46656
-6.29655
-6.23979
-6.17533
-6.13546
-6.06633
-4.78572
-4.71052
-4.45008
-4.0879
-3.67925
-3.3345
-3.06823
-2.83149
-2.74764
-2.67441
-2.55976
-2.26203
-2.47901
-2.15122
-1.5683
-0.897341
-0.0298845
0.635964
1.10971
1.65756
1.67147
1.71418
1.7528
1.73126
-0.264437
0.390534
1.31488
2.21842
4.09798
6.00418
7.11624
6.53569
6.53483
6.46554
6.51337
6.13128
1.96376
2.96523
4.18247
5.9769
11.1739
12.4044
12.2471
11.7413
11.4636
10.4523
11.5564
11.0483
4.40086
5.67968
7.00166
10.507
14.5212
14.4824
14.3637
14.0829
13.9241
13.5246
13.4916
13.3619
7.26683
8.71202
9.97145
12.6412
16.5019
16.5483
16.5277
16.3018
16.1844
16.1305
16.1744
16.2841
10.7131
12.2943
13.5606
14.43
17.8324
18.3844
18.6669
18.2606
18.2806
18.4337
18.5794
18.7603
14.6012
16.3985
17.5643
17.7313
17.9848
20.0024
20.9513
19.7241
20.0855
20.424
20.7296
20.9321
18.4712
20.9263
22.0255
22.1529
24.5591
19.5681
23.1566
19.7422
21.7042
22.1055
22.6315
22.7126
21.2593
24.9328
26.1193
26.0511
28.1227
28.9135
26.4016
31.9609
24.9178
22.9697
24.0364
23.7479
-9.69507
-9.62415
-9.59219
-9.64554
-9.87007
-10.0961
-10.1194
-10.0549
-10.0854
-10.1856
-10.309
-10.3882
-6.00417
-5.94731
-5.98099
-6.11879
-6.49086
-6.65236
-6.48207
-7.0034
-7.21423
-7.48113
-7.74838
-7.94232
-2.03917
-1.92695
-1.67772
-0.988846
1.93502
1.76711
-3.40656
-3.89811
-4.40607
-4.86534
-5.29343
-5.62944
1.89251
2.04978
5.09749
6.80306
6.01065
3.63364
0.387074
-0.208455
-1.18665
-1.29877
-2.36316
-2.41224
6.09022
5.83019
5.71988
10.7939
6.71831
4.97029
4.25352
3.49282
2.57417
4.37253
3.01132
0.803125
10.7899
10.6158
9.63953
9.66074
9.28333
8.80948
8.13032
7.34788
6.33707
5.44395
6.61056
5.83842
14.1566
14.5641
14.1463
15.5189
13.7404
12.73
11.9554
11.1578
10.3446
9.31863
8.36211
9.88066
16.2168
16.4613
16.48
15.4921
16.0855
16.0778
15.3825
14.6548
14.1903
13.5002
12.6789
12.0512
18.8942
19.0708
19.4003
19.4844
19.9157
19.5598
18.6369
17.7533
17.7906
17.6625
17.6671
16.3149
21.2052
21.3677
21.8403
22.1619
22.7186
22.5799
21.5176
20.2852
21.0233
21.8465
23.767
23.0113
23.0647
23.2405
23.9975
24.5647
25.3866
25.8288
28.5683
23.4087
23.4032
25.9505
28.8426
29.5336
24.2395
24.5212
25.5769
26.3671
27.3071
27.4636
30.787
32.0377
25.4255
29.0068
34.185
36.3898
18.2162
19.8556
19.8407
20.4199
20.8678
21.312
21.7888
22.2046
22.1856
22.4562
23.6506
23.3329
22.2506
22.032
21.2514
21.4412
22.0081
21.9916
22.755
23.1622
23.2951
23.4357
24.9236
24.0264
23.2067
22.8447
21.986
21.5082
21.4981
21.7669
22.5699
23.3081
24.1068
25.368
27.5537
31.3558
23.8674
23.374
22.4088
21.4681
20.8042
21.1189
21.9637
23.1722
24.3817
25.4831
28.1257
32.5643
23.8039
23.1698
23.0887
23.0636
23.4761
23.0311
22.8624
26.0053
26.1352
28.941
37.184
30.3063
25.2321
26.2826
32.5746
27.7629
25.3322
24.1751
25.5104
25.7092
25.0278
26.9117
28.752
30.0249
32.7873
33.0348
31.6288
29.4249
29.2185
29.7562
31.8962
36.0004
36.1917
34.355
36.9074
36.6753
38.4883
36.7025
34.001
32.088
33.4127
34.4327
37.2033
35.6337
35.2654
33.5875
28.716
27.1435
31.6008
38.6404
34.9138
32.6984
31.6807
32.3218
32.887
30.9473
25.8761
25.8717
25.8868
25.9375
27.5269
24.7869
24.9503
27.7774
29.6839
31.1501
35.7648
39.3226
27.689
26.1104
26.467
26.7731
26.5217
26.4108
26.0477
26.312
26.647
27.0293
24.649
26.1835
26.391
25.918
26.8036
27.4743
26.3671
26.2001
25.6244
25.2994
25.1009
25.0794
23.6859
24.1266
24.1787
25.6217
26.9102
28.0523
25.9886
25.9869
25.942
25.8522
25.7569
25.68
25.7345
25.9796
26.6631
27.7424
29.4663
29.3298
27.0227
27.1524
27.1985
27.142
27.0408
26.8821
26.7618
26.7808
27.1312
27.9636
28.4147
28.3187
28.0256
28.3248
28.5087
28.4601
28.2711
28.0945
27.7718
27.4759
27.324
27.5412
27.3882
27.0735
29.044
29.6008
29.9237
29.9609
29.7381
29.3919
28.8565
28.2028
27.3544
26.6847
25.8321
25.549
23.8536
24.9112
24.7032
24.9527
25.2637
25.6492
26.036
26.3493
26.5436
26.6258
26.6293
26.5842
24.8424
24.8335
24.5948
24.7584
25.0799
25.6061
26.1653
26.6845
27.0894
27.3525
27.5065
27.5889
24.728
24.2924
23.9986
24.0963
24.4138
25.031
25.7824
26.5523
27.2268
27.7507
28.1445
28.4516
24.258
23.5608
23.051
22.97
23.3924
24.1232
25.0788
26.119
27.0869
27.888
28.5507
29.1748
26.5258
26.4238
26.2962
26.1563
26.0445
25.9468
26.0105
26.2921
27.0515
28.241
30.2065
30.7534
27.6538
27.6396
27.5665
27.4412
27.2859
27.1167
26.9901
27.008
27.3039
27.9647
28.827
29.2811
28.7269
28.8385
28.8384
28.7016
28.5574
28.2961
27.9483
27.5994
27.2335
27.1295
26.9802
27.1447
29.7817
30.0939
30.2333
30.1956
29.9235
29.5519
28.9772
28.2275
27.1846
26.2013
25.0135
24.4365
26.8907
27.7848
27.4304
27.1087
26.5352
28.0382
33.934
30.2476
29.7499
31.626
29.6492
30.6382
26.524
26.8803
27.1206
27.4038
27.2344
27.2549
25.6801
30.4568
26.102
32.4172
32.0874
30.3294
25.4248
25.4267
25.8808
26.5508
27.2445
28.18
29.6864
32.951
33.5156
32.0887
30.3255
32.5293
23.1762
23.3241
23.9379
25.0734
26.5802
28.5094
31.2463
33.7077
37.3153
36.6377
31.621
30.3896
30.259
27.3983
27.8006
27.7906
27.3938
25.731
24.1045
24.8918
26.9507
29.1371
31.9381
29.6506
31.1418
30.4791
29.0459
31.7563
35.1534
34.7643
29.4242
27.3367
27.2277
33.232
33.5378
29.2933
34.3354
35.1025
34.4201
37.5698
34.6453
30.8589
29.0401
28.0184
28.2676
31.7166
32.315
32.8606
32.1835
34.8214
33.7543
32.582
33.5739
36.8852
34.3699
27.1037
26.1
25.8359
24.7338
25.6122
24.1302
24.0555
23.3559
22.4438
21.7982
21.8253
22.5426
23.9092
25.1908
25.8916
27.5573
30.5338
24.7862
24.9486
24.6427
24.1892
23.7954
23.7256
23.9752
24.7248
25.471
26.1523
27.3304
29.0648
25.4143
26.0532
26.1178
25.8774
25.1882
24.7378
25.1611
25.6096
26.0661
26.6214
27.299
28.1725
25.9096
26.9455
27.1302
25.9936
25.2662
25.3025
25.6696
26.0415
26.4183
26.8298
27.1523
27.3245
31.2872
30.6625
30.0578
30.9004
31.9847
32.7096
32.0744
33.3346
33.0251
32.047
29.6021
27.9992
30.1199
30.6981
30.8025
31.4243
31.8985
32.2625
32.088
32.5658
32.517
31.5273
29.8843
28.3646
29.7205
30.7026
31.0377
31.5218
31.8311
32.0282
31.9593
32.1211
31.9997
31.1603
29.9673
28.9954
29.7715
30.8627
31.1871
31.5294
31.7449
31.8671
31.8307
31.8393
31.6445
30.957
29.9749
29.1142
26.9025
26.4226
25.8076
25.1913
24.8828
24.8741
24.2342
24.247
24.5285
25.6238
26.8468
28.0505
27.4362
26.9781
26.4028
25.947
25.6559
25.5204
25.285
25.3893
25.6724
26.3685
27.0304
27.8301
28.0843
27.621
27.2968
26.9868
26.7485
26.2453
26.1723
26.2585
26.53
26.9273
27.215
27.618
28.489
27.8914
27.4084
27.1127
26.9828
26.8778
26.8197
26.8836
27.0312
27.2094
27.2957
27.3024
29.2341
29.9184
30.3072
30.3483
30.2312
29.954
29.4492
28.7081
27.7204
26.7216
25.6684
25.0779
28.9171
29.5166
29.7353
29.8949
29.8931
29.7363
29.3782
28.8007
28.0097
27.143
26.281
25.6458
28.7558
29.3694
29.614
29.7342
29.7505
29.6426
29.3666
28.9025
28.2624
27.5348
26.8147
26.2223
28.7741
29.3746
29.5732
29.6676
29.6803
29.5917
29.3687
28.9949
28.4798
27.8824
27.2817
26.76
24.3366
23.6387
23.0953
23.0295
23.3748
24.0628
25.0064
26.063
27.0693
27.9063
28.574
29.2234
24.9878
24.4669
24.2038
24.1232
24.3919
24.9546
25.7195
26.5627
27.3548
27.9938
28.4468
28.8789
25.6595
25.2458
25.0558
25.0762
25.3498
25.8331
26.4443
27.0834
27.6562
28.0885
28.3392
28.5673
26.294
25.9722
25.822
25.8697
26.1121
26.5036
26.9735
27.4445
27.8476
28.1296
28.2349
28.2182
29.9657
30.4105
30.6258
30.6026
30.426
30.1
29.5215
28.6489
27.4212
26.0682
24.5949
23.6072
29.5964
29.9875
30.1534
30.2185
30.149
29.9274
29.4758
28.7459
27.7166
26.5464
25.3804
24.571
29.3995
29.8394
30.0138
30.0785
30.0415
29.872
29.5063
28.9012
28.0562
27.0898
26.1584
25.4614
29.4074
29.8337
29.9763
30.028
29.9974
29.8568
29.5596
29.0735
28.4072
27.6572
26.9514
26.3813
22.8523
22.7962
23.3699
24.5684
26.1867
28.103
29.4769
32.194
34.1618
29.7025
28.1266
28.9427
24.0026
23.9366
24.3965
25.302
26.4499
27.6474
28.6604
30.358
30.6605
29.7943
29.2734
29.2598
25.0277
25.0718
25.5132
26.2024
26.9179
27.8226
28.5154
29.4807
29.8045
29.6665
29.4818
29.2529
25.982
26.0394
26.4698
26.8837
27.4226
28.0272
28.4728
29.1303
29.4128
29.4864
29.3805
29.0205
29.2929
31.4502
32.2332
32.1185
31.0811
28.5594
27.1409
26.8404
26.0265
25.227
24.0656
24.0555
29.7536
30.8698
31.289
31.3057
30.5882
29.1003
27.98
27.3645
26.6219
25.895
25.0614
24.7506
29.9013
30.6771
30.9623
30.9361
30.3972
29.4074
28.5139
27.8407
27.1489
26.4948
25.7338
25.0244
30.0775
30.6489
30.8382
30.7579
30.3204
29.5921
28.8558
28.2037
27.5539
26.9557
26.2151
24.8769
29.2269
28.0116
26.9164
26.0473
25.6969
25.7276
25.9961
26.3017
26.5886
26.8581
26.9362
26.1916
29.689
28.6434
27.3545
26.4329
26.0296
25.9918
26.1912
26.4388
26.6561
26.8292
26.8531
26.4585
27.8008
28.2675
27.3965
26.614
26.2183
26.1496
26.2998
26.5003
26.6689
26.7879
26.8063
26.6012
27.3295
28.0554
27.3495
26.6913
26.3285
26.251
26.3646
26.5259
26.6594
26.7476
26.7655
26.6362
26.9727
28.0416
27.3178
26.7473
26.4131
26.3295
26.4111
26.5384
26.6447
26.7139
26.7324
26.6482
27.0201
27.7766
27.2959
26.8005
26.49
26.398
26.4501
26.547
26.6317
26.6881
26.707
26.6529
27.4437
27.271
27.2745
26.8421
26.5559
26.457
26.4827
26.5543
26.622
26.6696
26.6888
26.6534
27.8173
27.2253
27.2698
26.859
26.6011
26.502
26.5074
26.5598
26.6151
26.6571
26.676
26.6529
28.0201
27.5601
27.1001
26.8365
26.6201
26.5298
26.5231
26.5627
26.6102
26.6492
26.6684
26.6527
28.1835
28.1278
26.941
26.7734
26.6152
26.5423
26.5299
26.5627
26.6065
26.6449
26.6653
26.6544
28.3343
28.9934
27.2706
26.7079
26.6044
26.5442
26.5287
26.5594
26.6034
26.6436
26.6663
26.6586
28.3402
28.8112
27.2191
26.7345
26.6145
26.5419
26.5233
26.5538
26.6008
26.6443
26.6698
26.6648
30.8459
31.1227
31.2997
31.5229
31.6708
31.7433
31.7063
31.6388
31.4039
30.8364
30.0655
29.3302
31.1655
31.2632
31.3664
31.5112
31.6083
31.6425
31.5914
31.4808
31.2287
30.7434
30.1158
29.4943
31.2556
31.3272
31.3984
31.4938
31.5531
31.5574
31.4888
31.3511
31.0932
30.6663
30.1322
29.5907
31.3159
31.3616
31.4108
31.4727
31.5036
31.4844
31.3995
31.2437
30.9847
30.5976
30.1262
29.6405
31.3552
31.3806
31.4128
31.4506
31.4599
31.4224
31.3237
31.1557
30.8974
30.5373
30.1077
29.662
31.3762
31.3897
31.4094
31.4296
31.4224
31.3708
31.2614
31.085
30.8283
30.4874
30.0878
29.6704
31.3857
31.3928
31.4038
31.411
31.3915
31.3294
31.2119
31.0301
30.7754
30.4482
30.0698
29.6734
31.3895
31.393
31.3979
31.3959
31.3675
31.2978
31.1745
30.9894
30.7367
30.4195
30.0563
29.6751
31.3906
31.3922
31.393
31.3847
31.3503
31.2755
31.1485
30.9615
30.7107
30.4006
30.0478
29.677
31.3908
31.3915
31.3897
31.3778
31.3399
31.2622
31.1331
30.9452
30.6959
30.3903
30.0441
29.6796
31.3915
31.3914
31.3884
31.3752
31.3362
31.2575
31.1276
30.9394
30.6908
30.3874
30.0442
29.6823
31.3928
31.3918
31.3886
31.3756
31.3372
31.259
31.1293
30.941
30.6924
30.3893
30.0463
29.6841
28.7274
28.2334
27.845
27.586
27.425
27.2995
27.2423
27.2584
27.3146
27.3655
27.2857
26.7133
28.9544
28.5034
28.1505
27.9021
27.7291
27.5851
27.4968
27.4685
27.4612
27.4379
27.3255
26.9783
29.1007
28.6816
28.3466
28.101
27.9138
27.7556
27.6449
27.5839
27.5384
27.48
27.3764
27.1816
29.1882
28.7922
28.4609
28.2226
28.023
27.8564
27.7318
27.6492
27.5825
27.5102
27.4187
27.2844
29.2387
28.8613
28.5409
28.2868
28.0882
27.9182
27.7864
27.6897
27.6115
27.5346
27.4543
27.352
29.2687
28.9056
28.5931
28.3382
28.132
27.9585
27.8187
27.7171
27.633
27.5555
27.4837
27.404
29.288
28.9356
28.6285
28.3731
28.1627
27.9871
27.8453
27.7376
27.65
27.5732
27.5079
27.443
29.3017
28.957
28.6535
28.3973
28.1842
28.007
27.8641
27.7528
27.6632
27.5878
27.5272
27.4717
29.3119
28.9722
28.6707
28.4135
28.1983
28.0196
27.8765
27.7632
27.673
27.5991
27.5415
27.493
29.3192
28.9819
28.6806
28.4222
28.2054
28.0264
27.8824
27.7692
27.6793
27.6071
27.552
27.5078
29.3231
28.9858
28.6835
28.4235
28.2057
28.0268
27.8832
27.7706
27.6822
27.6119
27.5589
27.5169
29.3239
28.985
28.6809
28.4197
28.2013
28.0229
27.8803
27.7691
27.6824
27.6141
27.5623
27.5212
29.5248
29.4854
29.5642
29.625
29.6268
29.5474
29.3625
29.0595
28.6452
28.1602
27.6638
27.2178
29.5513
29.5184
29.5554
29.5881
29.5772
29.5013
29.3424
29.0914
28.7538
28.3576
27.9463
27.5669
29.5233
29.5197
29.5405
29.5533
29.5304
29.4543
29.3113
29.0957
28.8123
28.4812
28.1341
27.8073
29.5157
29.5137
29.5222
29.5203
29.4872
29.4086
29.2746
29.0816
28.8344
28.5482
28.2465
27.9578
29.5101
29.5045
29.5033
29.4902
29.4486
29.3667
29.2371
29.058
28.8342
28.5779
28.3077
28.0465
29.5009
29.4938
29.4856
29.4639
29.4153
29.3301
29.2026
29.032
28.8231
28.5866
28.3381
28.0969
29.491
29.4834
29.4703
29.4419
29.3879
29.2998
29.1732
29.0078
28.8087
28.5856
28.3523
28.1258
29.4821
29.4746
29.4579
29.4246
29.3664
29.2761
29.1497
28.9879
28.7953
28.5813
28.3588
28.1429
29.4756
29.4681
29.4487
29.412
29.3507
29.2586
29.1325
28.9729
28.7847
28.577
28.3619
28.1532
29.4721
29.4644
29.443
29.4038
29.3405
29.2474
29.1213
28.9631
28.7775
28.5737
28.3636
28.1588
29.472
29.4636
29.4406
29.3998
29.3355
29.2418
29.1157
28.958
28.7737
28.5716
28.3634
28.1614
29.4746
29.4647
29.4405
29.3991
29.3344
29.2406
29.1144
28.9567
28.7724
28.5706
28.3625
28.1612
26.8334
26.5708
26.4508
26.4889
26.6743
26.9673
27.3115
27.6497
27.9296
28.1066
28.103
27.6663
27.2451
27.0204
26.9129
26.9292
27.056
27.2634
27.5085
27.7497
27.9461
28.0592
28.0365
27.7704
27.5312
27.3284
27.2233
27.2168
27.2963
27.4399
27.615
27.7905
27.9334
28.012
27.9979
27.86
27.7056
27.5244
27.4194
27.3949
27.441
27.5412
27.67
27.8027
27.9118
27.9721
27.9667
27.8848
27.8161
27.6457
27.5405
27.504
27.528
27.6
27.6986
27.8032
27.8908
27.9408
27.9417
27.8885
27.8824
27.7207
27.6162
27.5724
27.5825
27.6359
27.7145
27.8003
27.8735
27.9173
27.9228
27.8878
27.9243
27.7682
27.6652
27.6172
27.6183
27.6594
27.7243
27.7971
27.8605
27.9004
27.9092
27.8861
27.9512
27.8003
27.6985
27.6477
27.6428
27.6753
27.7308
27.7947
27.8515
27.8891
27.9002
27.8845
27.9684
27.8215
27.7207
27.6682
27.6592
27.686
27.7352
27.7932
27.8459
27.8822
27.8952
27.8842
27.9784
27.8341
27.7338
27.6802
27.6688
27.6922
27.7377
27.7924
27.843
27.8791
27.8938
27.886
27.9826
27.8392
27.739
27.6848
27.6724
27.6944
27.7385
27.7922
27.8424
27.8792
27.8958
27.8904
27.9824
27.8389
27.7384
27.6841
27.6715
27.6936
27.7381
27.7922
27.8432
27.8814
27.8998
27.8963
29.9832
29.9205
29.9722
30.0004
29.9684
29.8494
29.6097
29.2279
28.7186
28.1669
27.6692
27.2017
30.0016
29.9505
29.9686
29.9773
29.9419
29.8389
29.6448
29.3464
28.9608
28.5616
28.2179
27.8115
29.9732
29.9538
29.9593
29.955
29.9162
29.8245
29.6642
29.4279
29.131
28.8306
28.5756
28.195
29.9629
29.9495
29.9465
29.9333
29.8916
29.8078
29.6718
29.4804
29.2456
29.0043
28.7866
28.5085
29.9553
29.9418
29.9326
29.9129
29.8689
29.7906
29.6723
29.5138
29.325
29.1287
28.9403
28.6879
29.9454
29.9324
29.919
29.8947
29.8489
29.7747
29.6695
29.5359
29.3843
29.232
29.0888
28.9815
29.9348
29.923
29.9068
29.8791
29.832
29.761
29.6657
29.5514
29.4303
29.3208
29.2383
29.2101
29.9255
29.9148
29.8966
29.8664
29.8184
29.7497
29.662
29.5626
29.4661
29.3953
29.3761
29.4262
29.9184
29.9083
29.8888
29.8567
29.8079
29.7409
29.6586
29.57
29.4924
29.4534
29.4916
29.6277
29.9141
29.9042
29.8833
29.8498
29.8004
29.7341
29.6552
29.5737
29.5088
29.4926
29.5745
29.7913
29.9128
29.9025
29.8804
29.8455
29.7956
29.7292
29.6516
29.5733
29.5151
29.5117
29.62
29.8989
29.9142
29.9026
29.8791
29.8434
29.7928
29.7262
29.6483
29.5703
29.5137
29.5144
29.6311
29.8974
26.7742
26.8235
27.1152
27.1381
27.7523
28.1504
28.4537
28.9373
29.1834
29.3013
29.1827
28.2764
27.3511
27.5087
27.5263
27.6086
27.9519
28.1945
28.4332
28.8159
29.0415
29.1636
29.1125
28.6494
28.0308
28.9127
28.299
28.0054
28.0699
28.2212
28.4291
28.756
28.956
29.0709
29.0614
28.84
29.9528
30.3306
28.8136
28.2531
28.1702
28.2701
28.4604
28.7251
28.9047
29.0092
29.021
28.9115
30.2276
30.4708
29.0967
28.4509
28.2876
28.348
28.5079
28.7198
28.8736
28.9664
28.9905
28.9395
29.9436
30.2585
29.2472
28.6296
28.4211
28.4397
28.5614
28.7261
28.8535
28.9347
28.9658
28.9482
29.6845
30.1116
29.3332
28.7852
28.5513
28.5292
28.6106
28.7343
28.8382
28.9093
28.9442
28.9454
29.6915
29.8531
29.3584
28.9002
28.6583
28.6026
28.6481
28.7387
28.8238
28.8875
28.9247
28.9364
29.9108
29.6526
29.317
28.9685
28.7329
28.6529
28.6702
28.7366
28.8086
28.868
28.9075
28.9252
30.1406
29.5245
29.2658
29.0037
28.7767
28.6787
28.6759
28.727
28.7918
28.8501
28.8928
28.9149
30.3506
29.5005
29.2686
29.0255
28.7954
28.682
28.6665
28.7103
28.7733
28.8338
28.8812
28.9079
30.255
29.6963
29.3541
29.0451
28.7972
28.6705
28.6487
28.6913
28.7562
28.8205
28.8734
28.9053
30.7661
30.7429
30.7771
30.6478
30.2713
29.6914
29.0606
28.4414
27.8102
27.2
26.3907
27.3902
30.8671
30.7734
30.7206
30.5589
30.2203
29.7291
29.1691
28.5816
27.9647
27.3324
26.4569
26.9876
30.8101
30.743
30.6541
30.4759
30.1622
29.7267
29.2172
28.6627
28.0754
27.4803
26.7859
26.1596
30.7537
30.6875
30.5811
30.3957
30.0995
29.7013
29.2307
28.7108
28.163
27.6257
27.0955
26.7093
30.6953
30.6242
30.5082
30.32
30.0367
29.6651
29.2262
28.7409
28.236
27.7571
27.3317
27.0098
30.6335
30.5609
30.44
30.251
29.9778
29.6263
29.2135
28.7606
28.2982
27.8747
27.5273
27.2668
30.5742
30.5027
30.3797
30.1908
29.9254
29.5895
29.1982
28.7737
28.3493
27.9749
27.6935
27.5189
30.5225
30.4532
30.3291
30.1405
29.8813
29.5572
29.1832
28.7819
28.3882
28.0531
27.8239
27.7257
30.4817
30.4142
30.2892
30.1009
29.8461
29.5309
29.1697
28.7857
28.4142
28.1071
27.9151
27.8727
30.4536
30.3866
30.2604
30.072
29.8202
29.511
29.1583
28.7855
28.4269
28.1362
27.9677
27.9683
30.4394
30.3709
30.2421
30.0533
29.8035
29.4977
29.1494
28.7816
28.4263
28.1409
27.9828
28.014
30.4379
30.3644
30.2323
30.0433
29.7944
29.4904
29.1434
28.7766
28.4167
28.1289
27.9704
28.013
)
;

boundaryField
{
    rotor
    {
        type            calculated;
        value           nonuniform List<scalar> 
192
(
0
-0.0201162
-0.0134951
0.0107875
0.0452874
0.0998363
0.183189
0.310938
0.567783
0.373965
-0.392199
0.698628
0.367784
1.61742
-0.945603
-0.389495
-0.683213
-0.51506
-0.578
-0.487619
0.130712
0.818685
0.870378
0.942812
4.33068
4.32374
4.30484
4.25685
4.1805
4.08921
3.98774
3.87374
3.746
3.61103
3.47873
3.36388
3.28571
3.26452
3.31525
3.43702
3.61796
3.88185
4.10779
4.24852
4.26815
4.16989
4.00728
3.87281
4.29396
4.292
4.26968
4.21091
4.11769
4.01022
3.89532
3.76496
3.62239
3.47534
3.33519
3.21881
3.14762
3.14359
3.22196
3.38014
3.60542
3.91872
4.18622
4.35779
4.3933
4.29647
4.12581
3.98174
-10.152
-10.2784
-10.3359
-10.324
-10.2587
-10.1651
-10.0643
-9.95246
-9.87796
-9.82929
-9.79475
-9.75265
-9.69507
-9.62415
-9.59219
-9.64554
-9.87007
-10.0961
-10.1194
-10.0549
-10.0854
-10.1856
-10.309
-10.3882
0
1.46745
2.61408
3.95038
5.39014
6.94591
8.58244
10.2312
11.8163
13.2359
14.1692
13.3676
-10.3882
-7.94232
-5.62944
-2.41224
0.803125
5.83842
9.88066
12.0512
16.3149
23.0113
29.5336
36.3898
4.33068
5.77935
7.0177
8.45529
10.0083
11.6396
13.3027
14.9398
16.4832
17.8407
18.6609
18.1286
0.942812
1.19136
5.72514
5.80086
5.41162
7.69697
11.7291
14.5632
17.3255
20.6118
24.5336
28.6917
4.29396
5.72968
6.99191
8.45165
10.0413
11.7263
13.4747
15.2358
16.9558
18.5564
19.7372
19.7607
3.87281
4.94989
5.87583
6.99064
8.37288
10.1554
12.4684
15.3956
18.9715
23.2661
28.3103
33.1574
-10.152
-7.10586
-4.78572
-2.47901
-0.264437
1.96376
4.40086
7.26683
10.7131
14.6012
18.4712
21.2593
3.98174
5.04526
5.96397
7.07518
8.4665
10.2791
12.6456
15.6436
19.3124
23.7343
28.9581
34.0181
)
;
    }
    stator
    {
        type            calculated;
        value           nonuniform List<scalar> 
192
(
28.3402
28.8112
27.2191
26.7345
26.6145
26.5419
26.5233
26.5538
26.6008
26.6443
26.6698
26.6648
31.3928
31.3918
31.3886
31.3756
31.3372
31.259
31.1293
30.941
30.6924
30.3893
30.0463
29.6841
29.3239
28.985
28.6809
28.4197
28.2013
28.0229
27.8803
27.7691
27.6824
27.6141
27.5623
27.5212
29.4746
29.4647
29.4405
29.3991
29.3344
29.2406
29.1144
28.9567
28.7724
28.5706
28.3625
28.1612
27.9824
27.8389
27.7384
27.6841
27.6715
27.6936
27.7381
27.7922
27.8432
27.8814
27.8998
27.8963
29.9142
29.9026
29.8791
29.8434
29.7928
29.7262
29.6483
29.5703
29.5137
29.5144
29.6311
29.8974
30.255
29.6963
29.3541
29.0451
28.7972
28.6705
28.6487
28.6913
28.7562
28.8205
28.8734
28.9053
30.4379
30.3644
30.2323
30.0433
29.7944
29.4904
29.1434
28.7766
28.4167
28.1289
27.9704
28.013
30.8459
31.1655
31.2556
31.3159
31.3552
31.3762
31.3857
31.3895
31.3906
31.3908
31.3915
31.3928
26.1916
26.4585
26.6012
26.6362
26.6482
26.6529
26.6534
26.6529
26.6527
26.6544
26.6586
26.6648
29.5248
29.5513
29.5233
29.5157
29.5101
29.5009
29.491
29.4821
29.4756
29.4721
29.472
29.4746
26.7133
26.9783
27.1816
27.2844
27.352
27.404
27.443
27.4717
27.493
27.5078
27.5169
27.5212
29.9832
30.0016
29.9732
29.9629
29.9553
29.9454
29.9348
29.9255
29.9184
29.9141
29.9128
29.9142
27.6663
27.7704
27.86
27.8848
27.8885
27.8878
27.8861
27.8845
27.8842
27.886
27.8904
27.8963
30.7661
30.8671
30.8101
30.7537
30.6953
30.6335
30.5742
30.5225
30.4817
30.4536
30.4394
30.4379
28.2764
28.6494
28.84
28.9115
28.9395
28.9482
28.9454
28.9364
28.9252
28.9149
28.9079
28.9053
)
;
    }
    front
    {
        type            empty;
    }
    back
    {
        type            empty;
    }
}


// ************************************************************************* //
