/*--------------------------------*- C++ -*----------------------------------*\
| =========                 |                                                 |
| \\      /  F ield         | OpenFOAM: The Open Source CFD Toolbox           |
|  \\    /   O peration     | Version:  v1606+                                |
|   \\  /    A nd           | Web:      www.OpenFOAM.com                      |
|    \\/     M anipulation  |                                                 |
\*---------------------------------------------------------------------------*/
FoamFile
{
    version     2.0;
    format      ascii;
    class       surfaceVectorField;
    location    "0.4";
    object      Uf;
}
// * * * * * * * * * * * * * * * * * * * * * * * * * * * * * * * * * * * * * //

dimensions      [0 1 -1 0 0 0 0];

internalField   nonuniform List<vector> 
33146
(
(-0.00243906810395 -0.000729678077841 0.00153611054344)
(-0.00114851282477 -0.00164035563548 0.00152555981276)
(-0.00130447660044 -0.000886258891922 0.00271960829573)
(-0.00500100271756 -0.000612251537524 0.00145086984943)
(-0.00362716278099 -0.00137739273151 0.00168374181452)
(-0.00380166413158 -0.000831286170477 0.0026262064502)
(-0.00746024321126 -0.00059363746252 0.00137560566897)
(-0.00623812656818 -0.00128360752732 0.00165831391855)
(-0.0063274577629 -0.000805241212551 0.00249521478541)
(-0.00967758266086 -0.00066422535798 0.00131285542436)
(-0.00866795765075 -0.00136150727248 0.00159299951203)
(-0.00868450660379 -0.000869622070473 0.00238569963817)
(-0.0115432521771 -0.000797544982465 0.00125224611564)
(-0.010782118988 -0.00156386448728 0.00153327781495)
(-0.0107518276815 -0.00100013774656 0.0022850032768)
(-0.012949778276 -0.000979829533912 0.00118946114521)
(-0.0124790755346 -0.00186991534128 0.00148117307635)
(-0.0124155525908 -0.00118654158752 0.00218203659589)
(-0.013797271943 -0.00119291496541 0.00112506529756)
(-0.0136529994344 -0.00226601471427 0.00143319679132)
(-0.0135679972918 -0.00142300198063 0.00207488520876)
(-0.0140276175266 -0.0014012268627 0.00106604432519)
(-0.0141873882292 -0.00271269131133 0.00138386709381)
(-0.0141060824282 -0.00168547905242 0.0019643339385)
(-0.0137370691882 -0.00156985136734 0.00101915863064)
(-0.0141141732504 -0.00309095847511 0.00135128475278)
(-0.014066684353 -0.00191590105926 0.00187212619162)
(-0.0130601874939 -0.00168640756637 0.000985208488521)
(-0.0135758457293 -0.00336847949266 0.00133301271811)
(-0.0135620394791 -0.00208868980309 0.00180176468022)
(-0.0121279265779 -0.00175865549685 0.000963195542436)
(-0.012728114199 -0.00354833525039 0.00132845281739)
(-0.0127412968693 -0.00220473647475 0.00175297930401)
(-0.0110364773702 -0.00180269503507 0.000950170972442)
(-0.0116890371061 -0.00365942912564 0.00133509601186)
(-0.0117169891257 -0.00228071459561 0.00172205578007)
(-0.00983894539292 -0.00183449855336 0.000942595496027)
(-0.010532660641 -0.0037353686096 0.00134778291692)
(-0.0105630429908 -0.00233534541969 0.00170288075345)
(-0.0085548642313 -0.0018679195014 0.000938132491918)
(-0.00929105862265 -0.00380411419663 0.00136185145455)
(-0.00931306057147 -0.00238520635021 0.00169068027913)
(-0.00718077304594 -0.00191317858418 0.000939203564503)
(-0.00796747896351 -0.00388776203116 0.00137211324427)
(-0.00797152870779 -0.00244434632643 0.00168325522753)
(-0.00571793882784 -0.00197967534169 0.000956333555671)
(-0.00656044738964 -0.00399556799073 0.00138471208983)
(-0.00653195510404 -0.00251840091309 0.00169118836592)
(-0.00418133547162 -0.00208259559086 0.00101073738337)
(-0.00508588059979 -0.00414062952664 0.00141340772144)
(-0.00499488553734 -0.00261318096966 0.00173623152864)
(-0.00262314215211 -0.00223812743911 0.00113720334872)
(-0.00358662855202 -0.00434723238934 0.00147477565592)
(-0.00338642004894 -0.00272963723888 0.00185933845367)
(-0.00116802570532 -0.00242566726836 0.00136395152989)
(-0.0020798308573 -0.00462516885382 0.00156196315468)
(-0.00172817488707 -0.00281067471918 0.00211335041258)
(-0.000809870082224 -0.00490195459079 0.00150806289349)
(-0.00056680286665 -0.00266087606572 0.0024892728435)
(-0.00217442790762 -0.00240782275891 0.00167319108384)
(-0.00102782962329 -0.00335488696433 0.00142547684008)
(-0.00128023911619 -0.00259513213016 0.00259262889396)
(-0.00488042330387 -0.00225925953067 0.00189105014657)
(-0.00347541408365 -0.00322738320405 0.00188916509748)
(-0.00374674960177 -0.00250488855068 0.00303730848213)
(-0.00752522988473 -0.00229714869815 0.00187472991544)
(-0.0062762878874 -0.00323173984077 0.0019504555978)
(-0.00636305884969 -0.00250339918409 0.00306006524948)
(-0.00987763836433 -0.00253158054637 0.00181044850511)
(-0.00889657513993 -0.00346088630743 0.00187817143382)
(-0.00883809188185 -0.00268938089248 0.0029594643723)
(-0.0118472239812 -0.00293424408867 0.00175627944441)
(-0.0111764947682 -0.00391232147573 0.00180743778694)
(-0.0110049873435 -0.00303808764328 0.00286114564433)
(-0.0133380181993 -0.00348785588849 0.00171601272881)
(-0.0130212844275 -0.0045864633627 0.00175839229353)
(-0.012757847116 -0.00354421187678 0.00278324620152)
(-0.0142365401604 -0.00415899942747 0.00168116143011)
(-0.0143114082381 -0.00547037774371 0.00172275505107)
(-0.013981817189 -0.00419966467454 0.00272075017327)
(-0.0144239002299 -0.00481947598637 0.0016570150349)
(-0.0148396023552 -0.00650269467457 0.00167585727446)
(-0.0145295185135 -0.00496373366051 0.00265472785512)
(-0.0140579695934 -0.00534259243578 0.00165232248374)
(-0.0146327576667 -0.00735605113638 0.00166490176544)
(-0.0144215192926 -0.00560708501626 0.00262020620172)
(-0.0133082147095 -0.00571002756681 0.0016629559279)
(-0.0139546753916 -0.00797843451264 0.00167597813475)
(-0.0138454586336 -0.00608484937033 0.00260887742083)
(-0.0123223339549 -0.00594917694839 0.00168677572401)
(-0.0129932997898 -0.00839236082423 0.00170723247274)
(-0.0129642551695 -0.00640725411647 0.00261979108533)
(-0.0112027590651 -0.00610902576645 0.00171904205856)
(-0.0118858396674 -0.00866434565573 0.00175369469369)
(-0.0119039961196 -0.00662127616702 0.00264877208923)
(-0.0099969234131 -0.0062364297928 0.0017538357732)
(-0.0107026151358 -0.00886816632481 0.00180396324551)
(-0.0107376438368 -0.00678125593332 0.00268700708414)
(-0.00872015804463 -0.00636835090523 0.00178465631931)
(-0.00946335955649 -0.00905866783365 0.00185331834959)
(-0.00949321216808 -0.00693150550807 0.0027274022286)
(-0.00736154944288 -0.0065258994337 0.00181021878691)
(-0.00815673421398 -0.00927541057021 0.00188807798792)
(-0.0081672139349 -0.00711158505674 0.0027559819029)
(-0.00593618257681 -0.00671872580605 0.00183835270153)
(-0.0067780085674 -0.00952181701035 0.00191470576015)
(-0.00675572391945 -0.00732405473246 0.0027830464222)
(-0.0044836689128 -0.0069577566953 0.00187646730613)
(-0.00535365879185 -0.00979573750143 0.00193882931911)
(-0.00527920111164 -0.00756297033026 0.00282313167439)
(-0.00306285379383 -0.00724076041696 0.00189940841138)
(-0.00392912114557 -0.0100860826798 0.0019564145637)
(-0.00378058553266 -0.0077999329942 0.00288253385986)
(-0.00169311077145 -0.00749205095722 0.00170607451829)
(-0.00251023945145 -0.0103524826084 0.00191106128693)
(-0.00229760284183 -0.00793953089649 0.00290502982765)
(-0.00104537060219 -0.0104029152865 0.00145718868519)
(-0.00091235703974 -0.00772266118423 0.00253855364253)
(-0.00206524066654 -0.00415448678141 0.00164151072008)
(-0.00098902955794 -0.00496307875506 0.00134819020484)
(-0.00125237244754 -0.00425911256966 0.00244894188018)
(-0.00488525307535 -0.00417320809378 0.0019485185162)
(-0.0034775822316 -0.00499365362438 0.00187561791965)
(-0.00374320170624 -0.00427385795523 0.00305529098688)
(-0.00773601424887 -0.0043733111603 0.00195350134042)
(-0.00647577652959 -0.00513966951891 0.00195799335)
(-0.00650648399937 -0.00438904192998 0.00315411626442)
(-0.0102986293682 -0.00482436985201 0.00187483542967)
(-0.00933672484421 -0.00553747802393 0.00186345804399)
(-0.00915820059783 -0.00472382449566 0.00304199259429)
(-0.0124702320791 -0.00554745930684 0.00180961050083)
(-0.0118737739245 -0.00623833421215 0.00177153549618)
(-0.0115068410719 -0.00530825067342 0.00291925717846)
(-0.0141415498957 -0.0065517550608 0.00176555434633)
(-0.013980671457 -0.00728675680852 0.00170811333668)
(-0.0134384802686 -0.00617213477079 0.00283040722039)
(-0.0151416242048 -0.00781163591069 0.00171776880223)
(-0.0155066599297 -0.00870731423459 0.00164878583463)
(-0.0148139757761 -0.00732345326635 0.00276392445129)
(-0.0151887051447 -0.00905126169838 0.00168192624964)
(-0.0160016960602 -0.0104682558775 0.00152741247562)
(-0.0153404164039 -0.00872794591973 0.00266572225773)
(-0.0146202849411 -0.00999850211712 0.00168679001878)
(-0.0155073720891 -0.011823073133 0.00149243857276)
(-0.0150437722138 -0.00985287866743 0.00263482571881)
(-0.0136864402439 -0.0106553916834 0.0017191979501)
(-0.0145551126423 -0.0127693417273 0.00150193691694)
(-0.0142766099369 -0.010663865219 0.00264373213777)
(-0.0125740453614 -0.0110896172058 0.00177410560909)
(-0.0133867129784 -0.0133842881484 0.00155057044459)
(-0.0132454364686 -0.0112036983366 0.00268982031047)
(-0.0113939833423 -0.0113962902674 0.00183966209838)
(-0.0121635724397 -0.0137940432053 0.0016258717578)
(-0.012099117311 -0.0115649718547 0.00276541234838)
(-0.0101735852352 -0.0116573954216 0.00190535942317)
(-0.0109395690507 -0.0141258320049 0.00171110305784)
(-0.0109027077848 -0.0118513167645 0.0028528382125)
(-0.00891555612094 -0.0119288585208 0.00195914290212)
(-0.00970637145797 -0.0144543488451 0.00179929909573)
(-0.00966980426027 -0.0121308285357 0.00294211102442)
(-0.00757991367094 -0.0122300775984 0.00199445403609)
(-0.00842011619969 -0.0148231492008 0.00185366456796)
(-0.00837327219745 -0.0124634526833 0.0029914320339)
(-0.00618686357595 -0.0125494684495 0.00201608721711)
(-0.00705756962123 -0.0152118362344 0.00188931059395)
(-0.00699476773679 -0.0128279048046 0.00301510633961)
(-0.00477812884228 -0.0128622667151 0.00201895697758)
(-0.00564360693611 -0.0155921460485 0.00190622472201)
(-0.00555937582413 -0.0131933631265 0.00301747193604)
(-0.00339252683052 -0.0131249251634 0.00196806759274)
(-0.0042097082664 -0.0159123923531 0.00189798863998)
(-0.00409688708062 -0.0134951815154 0.00299433767983)
(-0.00196712629964 -0.013203353093 0.00166217928984)
(-0.00274492885413 -0.01610265065 0.00180908457086)
(-0.00262373523893 -0.0136333928691 0.00288782284264)
(-0.00114508039193 -0.0159075566082 0.00132189842878)
(-0.00107618803139 -0.0133824581513 0.0023583326556)
(-0.00209532129604 -0.00573446571051 0.00158284840517)
(-0.00101162875553 -0.00638849647589 0.0012945929873)
(-0.00128473411875 -0.0057821294426 0.00234694144428)
(-0.00506336264313 -0.00587541769782 0.00188642164826)
(-0.00360520460826 -0.0064994586548 0.00182025502575)
(-0.00387154767509 -0.00588618827554 0.00296822704499)
(-0.00815710273598 -0.00620966323977 0.00187162611842)
(-0.0068244414132 -0.00673014548779 0.00188497833032)
(-0.00682281004375 -0.00609044253774 0.00305635748672)
(-0.0110079401616 -0.00684735637373 0.00176889928735)
(-0.00997700879834 -0.00724025255929 0.00176395623192)
(-0.00971722843646 -0.00654946184233 0.00290312164004)
(-0.0134985484568 -0.00785904096277 0.00168543791218)
(-0.0128686573526 -0.0081200285766 0.0016542046162)
(-0.0123505262448 -0.00734272996963 0.00274258079835)
(-0.015491167937 -0.0093068226009 0.00161329222543)
(-0.0153864650238 -0.0094751507188 0.00157299460948)
(-0.0145913106102 -0.00854818325556 0.00261786952563)
(-0.0167046092146 -0.0112321058523 0.00148585700884)
(-0.0173583156586 -0.0114108457696 0.00144802644708)
(-0.0162690303037 -0.010222776337 0.00249092251465)
(-0.0164574420184 -0.0131107708813 0.00136027942532)
(-0.0177845293037 -0.0140655822935 0.00109983431671)
(-0.0167474478957 -0.0124236803528 0.00222847111066)
(-0.0155192997478 -0.0144360757412 0.00133335597335)
(-0.0167518912232 -0.015849568987 0.00098656559256)
(-0.0160763394829 -0.0140208742228 0.00212951018098)
(-0.0142767386744 -0.0153085476191 0.00136308015254)
(-0.0153701558599 -0.0170004769657 0.000970139062833)
(-0.0149727289395 -0.0151023212225 0.00211472292603)
(-0.0129686366734 -0.0158722445793 0.00143584250426)
(-0.01391093233 -0.0177100683184 0.00102884237651)
(-0.0136944836114 -0.01578683471 0.00217445553719)
(-0.0117055064707 -0.016291765271 0.00153345978403)
(-0.0125516632961 -0.0181986815947 0.00114523943619)
(-0.0124156311604 -0.0162404899696 0.00229356093758)
(-0.0104670388514 -0.0166888648688 0.00164114849667)
(-0.0112993570087 -0.0186669469655 0.0012883147098)
(-0.0111738396691 -0.0166379021686 0.00244001957415)
(-0.00923347222631 -0.0171191364932 0.00172721653692)
(-0.0100870024243 -0.0191881559537 0.0014523408629)
(-0.00995574457029 -0.0170583865936 0.00260502339902)
(-0.00790478591176 -0.0175786708396 0.00177479902634)
(-0.00881755578787 -0.0197576161241 0.00154374575771)
(-0.00868751327729 -0.0175627432084 0.00268332980197)
(-0.00650216835099 -0.0180298716216 0.00179634500543)
(-0.0074427468991 -0.0203179749086 0.00160466712787)
(-0.00731447340267 -0.018083285304 0.00271553168244)
(-0.00505347720347 -0.0184225060728 0.00179320735516)
(-0.00598404295977 -0.020829915526 0.00163046504325)
(-0.00586085163214 -0.0185772225661 0.00270107864424)
(-0.00358811249234 -0.0186852893528 0.00174131759026)
(-0.00445757522557 -0.0212177966062 0.00162893829022)
(-0.00433746215292 -0.0189618055959 0.00264630761674)
(-0.00205052609835 -0.0186419289599 0.00146908510903)
(-0.00286036160147 -0.0213968958627 0.0015632745698)
(-0.00275302488097 -0.0191324738245 0.00252583828225)
(-0.00116909209631 -0.021061322858 0.00114296322162)
(-0.00110965375103 -0.0187942537523 0.00206935860964)
(-0.00219074319261 -0.00708120583645 0.00153348060538)
(-0.00105652063157 -0.00760459267034 0.00125338715111)
(-0.00134798320553 -0.00711050677785 0.00226860894844)
(-0.00533916022231 -0.0072697370243 0.00182194189979)
(-0.00377987768534 -0.00773613872239 0.00177566778827)
(-0.00407039405759 -0.00724767299404 0.0028824166448)
(-0.0087073908916 -0.00766057327602 0.00178572345371)
(-0.00723145190775 -0.00797563280142 0.00182380289805)
(-0.00724149465327 -0.00748125791327 0.00293941679278)
(-0.0119177490751 -0.0083906091424 0.00166854088443)
(-0.0107066348462 -0.00849834649122 0.00168979048343)
(-0.010437567033 -0.00799379253962 0.00275006439537)
(-0.0148604025542 -0.00957809074959 0.00157725387564)
(-0.0140338029495 -0.00942727516722 0.00157916067211)
(-0.0134611487853 -0.00890008774441 0.00255857017563)
(-0.0173762647386 -0.011362130889 0.00146432358879)
(-0.0171289530373 -0.0109401883745 0.00149855044272)
(-0.0161797578855 -0.0103374253512 0.00239011362354)
(-0.0190060561271 -0.0139799730898 0.00114914064653)
(-0.0198975852871 -0.013268752374 0.00126277549682)
(-0.0184298486632 -0.0124495789959 0.0021420677007)
(-0.0181836088505 -0.0164983620983 0.000806326258013)
(-0.0201870647691 -0.017005197877 0.000454801211658)
(-0.0188109264273 -0.0156308042893 0.00145636738765)
(-0.0166517507844 -0.0180369416495 0.000718267972211)
(-0.0182185854851 -0.018979599932 0.000218309324922)
(-0.0174521721274 -0.0175746146797 0.00120613753375)
(-0.0149814661577 -0.0189699399899 0.000740268322888)
(-0.0162662347889 -0.0201064086092 0.000174269980457)
(-0.0158458278747 -0.0187623147999 0.00113819573676)
(-0.0134470503523 -0.0195772941356 0.000846483840709)
(-0.0145013543779 -0.0207490029955 0.000245983356577)
(-0.0142392242262 -0.019468144498 0.00120893849)
(-0.0121286117597 -0.0201248930196 0.00100516987688)
(-0.0130768621031 -0.0212839049502 0.000440559387303)
(-0.0128172639153 -0.019968255329 0.00140266363879)
(-0.0109075823372 -0.0207714250975 0.00119027761479)
(-0.0118872566626 -0.0219753434295 0.000656603264042)
(-0.0115473373496 -0.0205399550813 0.00165043534214)
(-0.00971321322507 -0.0214936978344 0.00134245804911)
(-0.0107246822729 -0.0229033530557 0.00095038332927)
(-0.0103690927356 -0.0212543938076 0.00197333791605)
(-0.00837042589103 -0.0221990951486 0.0014289775461)
(-0.00943339843511 -0.0238209705837 0.00110283837237)
(-0.00913817230364 -0.0220392659089 0.00212089390601)
(-0.0069189004307 -0.0228408870942 0.00147586885346)
(-0.00799750818859 -0.0246534808907 0.00122313410803)
(-0.00774587610556 -0.0227693531453 0.00220570665707)
(-0.00536859703316 -0.0233651469201 0.00148605848047)
(-0.00643721618452 -0.0253727546155 0.00127922598311)
(-0.00623065537034 -0.0234269758437 0.00221288202485)
(-0.0037556762883 -0.0236893065981 0.00145822621094)
(-0.00475180110832 -0.0258944478459 0.0012980180238)
(-0.00458920416589 -0.0239262164722 0.00216794833674)
(-0.0020788502335 -0.0236012745168 0.00123834601713)
(-0.00296871703629 -0.0261252593727 0.00127240314554)
(-0.00285514821885 -0.024163357391 0.00207590654306)
(-0.00117831965817 -0.0256918120759 0.000929094314628)
(-0.00112759064533 -0.0237627605091 0.0017061056946)
(-0.00229544304257 -0.00819983559961 0.00149788060727)
(-0.00109805654219 -0.00862969114218 0.0012211158551)
(-0.00141441621624 -0.0082340558364 0.00220539802728)
(-0.00562460369442 -0.00837687603023 0.00178142575216)
(-0.00393972111567 -0.00874782619675 0.00175041369609)
(-0.00427358988818 -0.00836816336598 0.00282083190571)
(-0.00926814433813 -0.00873797681473 0.00173758149352)
(-0.00760489184525 -0.00893024623064 0.00179447905913)
(-0.00766528534222 -0.00857272288649 0.00286243705515)
(-0.0128769109515 -0.00944752915183 0.00162060167912)
(-0.0114055870699 -0.00934948453919 0.00165310995327)
(-0.011181690609 -0.00904976264844 0.00266014442475)
(-0.0163858393624 -0.0106936095221 0.00153105847044)
(-0.0152383980128 -0.0101325245546 0.00150988319324)
(-0.0146599726494 -0.00996169924685 0.00245893680404)
(-0.0196651802515 -0.0127425465577 0.00133066840822)
(-0.0191349192564 -0.0114756532414 0.00130136583678)
(-0.0180137127602 -0.0115548754916 0.00225276145721)
(-0.0220582314765 -0.0162274089761 0.000633499865199)
(-0.0232237639806 -0.0137096514818 0.000613653768112)
(-0.0212859161207 -0.0141608764165 0.00179621505103)
(-0.0201804055471 -0.0194620065403 -0.000130267544802)
(-0.0232015301928 -0.0183156748734 -0.00166450286438)
(-0.0214879388326 -0.0189326155563 0.000114608950203)
(-0.0178122316257 -0.0209873962313 -0.000309625238235)
(-0.019674960139 -0.0199093831764 -0.00214208069514)
(-0.0189708541675 -0.0210641623718 -0.000366928994297)
(-0.0156752309495 -0.0217849628228 -0.000296035425511)
(-0.0170687258734 -0.0206424123205 -0.00224207795639)
(-0.016743969204 -0.0221773294047 -0.000491307133155)
(-0.0140239399074 -0.0222936836854 -0.000118295431987)
(-0.0150547329325 -0.0210600815751 -0.00210954832212)
(-0.0148319507509 -0.0227427397037 -0.000363727329944)
(-0.0127988352093 -0.0228841470379 0.000161328984811)
(-0.0137002405529 -0.0216701258036 -0.00170367574439)
(-0.013381050137 -0.0231797565287 -9.34104573477e-05)
(-0.0117348725706 -0.0237868548429 0.000507025272907)
(-0.0127671493915 -0.0229209575249 -0.0011279774435)
(-0.0122102674196 -0.0238150763553 0.000327417165888)
(-0.0105124328084 -0.0248953309528 0.000802490187369)
(-0.0117399009427 -0.0252064368773 -8.4397455521e-05)
(-0.0110961179384 -0.0246972742586 0.00104389908758)
(-0.00908242227358 -0.0259635008051 0.000970950246972)
(-0.0103872995444 -0.0268090864986 0.000417210294324)
(-0.00984330483986 -0.0257853620312 0.00132175729767)
(-0.00751919037546 -0.0269015627853 0.00107826457693)
(-0.00883074564462 -0.0281237301853 0.000714240063283)
(-0.00837252121875 -0.0267921780859 0.00152712897458)
(-0.00580227624712 -0.0276387930908 0.0011213741491)
(-0.0070925396652 -0.0291786878365 0.0008443094013)
(-0.00674667235028 -0.0276725228025 0.00159659923864)
(-0.00397737545919 -0.0280823288787 0.00112538832439)
(-0.00516736144646 -0.0299127458681 0.000899700957339)
(-0.00493387098395 -0.0283269117285 0.00158953888312)
(-0.00211225366404 -0.027980910668 0.000966046480376)
(-0.00312724246648 -0.0302333945971 0.000919908028089)
(-0.00300617411167 -0.0286388745937 0.0015447418023)
(-0.00119482770854 -0.029703945878 0.000678464718362)
(-0.00116403583353 -0.0281558710748 0.00127497723017)
(-0.00237462589479 -0.00913210756978 0.00147630217484)
(-0.00112031032935 -0.00950699838928 0.00119761543571)
(-0.00146685969255 -0.00918456303324 0.00215516029546)
(-0.00585219089687 -0.00924384092045 0.0017680959451)
(-0.00403192106123 -0.00959570078495 0.00175113898352)
(-0.00443478190438 -0.00928767025961 0.00278858218769)
(-0.00974234904025 -0.00944824712729 0.00172592153274)
(-0.00782233406618 -0.00966761608818 0.00182728800581)
(-0.00801607596727 -0.00938712023047 0.002836238454)
(-0.0137778978164 -0.009855456448 0.00159205605148)
(-0.0118020124858 -0.00984299023393 0.00176005582953)
(-0.0118507069179 -0.00964467785876 0.00263296215486)
(-0.0180288628697 -0.0105674127084 0.00140187472059)
(-0.0158982529038 -0.0101536167118 0.00178521972884)
(-0.01587377521 -0.0101505643011 0.00237918853535)
(-0.0224087319295 -0.0117799736974 0.000818166077562)
(-0.0203450664197 -0.0106562115416 0.0018172179893)
(-0.0201626698166 -0.0110353422181 0.00190564276679)
(-0.0260008047686 -0.0146559026598 -0.00117235707854)
(-0.0259515382486 -0.0115135032577 0.001415129852)
(-0.0252549935741 -0.012590144733 0.000539609278417)
(-0.0222734358633 -0.0172027592268 -0.00313570161189)
(-0.025575467573 -0.0147022036112 -0.00236519699045)
(-0.0249630305531 -0.0173194894192 -0.0044030391611)
(-0.018802308957 -0.0177116546319 -0.00343670235426)
(-0.0203191175609 -0.0150320385777 -0.0022927220835)
(-0.0204262610794 -0.01822623697 -0.005262684474)
(-0.0162265826603 -0.0178697992717 -0.00337811625533)
(-0.0174481125277 -0.0150843295527 -0.00180771195154)
(-0.0174848493148 -0.0183893435885 -0.0054439256222)
(-0.0145445778201 -0.0183222309205 -0.00301746497949)
(-0.0157232834008 -0.0153560864188 -0.00124929861707)
(-0.0152897464626 -0.0184583866229 -0.00521516780948)
(-0.0135743109071 -0.0197193843994 -0.00237386789848)
(-0.0152045109652 -0.0165288247741 -0.000500793510349)
(-0.0138579876882 -0.0190918439807 -0.00456341871612)
(-0.012951823458 -0.0229616132318 -0.00129651359452)
(-0.0158246693934 -0.0192377829431 9.39296494679e-05)
(-0.0128160408539 -0.0210137373673 -0.0033841337054)
(-0.011728692256 -0.0264099548491 -0.000261820646799)
(-0.0149443790202 -0.0251400099685 -0.000680138662046)
(-0.0118344298387 -0.0257119864032 -0.000800741599255)
(-0.010170112414 -0.028518278483 0.000278756732384)
(-0.0123274442941 -0.0282953591369 -0.000144427755349)
(-0.0107641945717 -0.0281180520804 6.11803392855e-05)
(-0.00841271846607 -0.0300799506347 0.00054799254658)
(-0.0102727064407 -0.0305775704343 0.000203823110549)
(-0.00926913494799 -0.0298718718282 0.000605107054858)
(-0.00643592315473 -0.0311860509203 0.00065994906446)
(-0.00811529241785 -0.0321888859075 0.000351970497257)
(-0.00749418663406 -0.0311842918979 0.000818958199314)
(-0.00430603987393 -0.0318172821963 0.000711520689962)
(-0.00578755201608 -0.0332322562041 0.000424287158068)
(-0.00543813142321 -0.0320821668612 0.00088109120207)
(-0.00217173684705 -0.0317159859443 0.000636861354412)
(-0.00336867169844 -0.0336700581395 0.000494492253993)
(-0.00324273395958 -0.0324862760724 0.000905670734165)
(-0.0012233297544 -0.0330284585495 0.00039146815156)
(-0.00122584689486 -0.0318934336776 0.000775912338653)
(-0.00239598244162 -0.00996823715168 0.00147388300943)
(-0.00113220851429 -0.0103125612037 0.00117432717489)
(-0.00148697248713 -0.010034279757 0.00212042274498)
(-0.0059251666401 -0.0100472924315 0.00180670213863)
(-0.00408730839333 -0.0104188757164 0.00175806608389)
(-0.00448859701482 -0.0101295488554 0.00279995440599)
(-0.00986248591751 -0.0101564275344 0.00184132633547)
(-0.00794830029665 -0.0105042280265 0.00186594403097)
(-0.00810829863325 -0.0101722052105 0.00291557420299)
(-0.0139296597468 -0.0103510429985 0.00189218184995)
(-0.0119925627649 -0.010687170927 0.00185020854387)
(-0.0119506328558 -0.0102893805302 0.00284875172374)
(-0.0182692329274 -0.0106400881214 0.00205974250118)
(-0.0161283400549 -0.0109663811575 0.00199283181265)
(-0.0158940885384 -0.0104897175207 0.0028899866208)
(-0.0230914260515 -0.011125590223 0.00208474152313)
(-0.0207715858265 -0.0113660506506 0.00223501623789)
(-0.0201659477149 -0.0108051181807 0.00307193022512)
(-0.0278644561657 -0.0126195697922 -5.6033370415e-05)
(-0.0273466395444 -0.0120308239927 0.00207188986464)
(-0.0266510136737 -0.0114519130905 0.0028570924453)
(-0.0225431957382 -0.0139793832025 -0.00213005836428)
(-0.0268201941921 -0.0135859289323 -0.00230291550306)
(-0.0262481177114 -0.0142258921745 -0.00402892466385)
(-0.0186682088794 -0.01431737315 -0.0013825368528)
(-0.0207060976944 -0.0142413278712 -0.00172054087389)
(-0.0201093209801 -0.0146210990819 -0.00305134565067)
(-0.0165014055139 -0.0148456134386 -0.000507431487869)
(-0.0181007222432 -0.015167770702 -0.000807642876082)
(-0.0173610862799 -0.0148514917472 -0.00157171124428)
(-0.0160262137501 -0.0160424932715 0.000398576481543)
(-0.0170504245879 -0.0165859946251 5.72518578686e-05)
(-0.0159947405232 -0.0154358027996 0.000233079152598)
(-0.0169969516264 -0.0184625910707 0.0011419262009)
(-0.0177132482741 -0.0186960734476 0.00105347910135)
(-0.0161236943756 -0.0169566267185 0.00185863556025)
(-0.0188570309686 -0.0229854398394 0.000242684254371)
(-0.0203514840196 -0.0218221925798 0.00160422401386)
(-0.0182069852949 -0.0201386646197 0.00281820413925)
(-0.0153319482541 -0.0275790899381 -0.000745789092931)
(-0.0195239819125 -0.0268642722624 -0.00131290820645)
(-0.0173245726576 -0.026524399794 -0.00125408564807)
(-0.0124218124894 -0.0304679951867 -0.000252659324626)
(-0.0150849549706 -0.0301031207147 -0.000707714430789)
(-0.0134098274586 -0.0298724829039 -0.000730435328738)
(-0.00993748161607 -0.0326063175537 2.40366779918e-05)
(-0.0123038394443 -0.0327292435751 -0.000331822111882)
(-0.0110964759556 -0.0322976023422 -0.000188336630533)
(-0.00741668165749 -0.0340801115777 0.00013837523717)
(-0.00951907928733 -0.0346735664119 -0.000192101330378)
(-0.00875101949466 -0.034034650644 1.49468597574e-05)
(-0.00480086450706 -0.0348942098832 0.000221532597214)
(-0.00662057385099 -0.0359386268113 -0.000122505689301)
(-0.00621888006593 -0.0351789149573 9.02162901674e-05)
(-0.00227373199446 -0.0347699387002 0.000253736613945)
(-0.00368412518133 -0.0364354756455 -1.14368085185e-06)
(-0.0036040497992 -0.0356598228297 0.00017360202788)
(-0.00125405375689 -0.0356319617108 7.56384998317e-05)
(-0.00131931575317 -0.0349231341948 0.000223917231189)
(-0.00242894443991 -0.0107400661773 0.00146071522327)
(-0.00115374566908 -0.0110108639998 0.00114118547953)
(-0.00151649849287 -0.0108072185452 0.00207150799849)
(-0.00602963203525 -0.010856656003 0.00181868266974)
(-0.00417272884887 -0.0111545726896 0.00175194999318)
(-0.00457261066094 -0.010937540757 0.00279094219166)
(-0.0100483368885 -0.0110154027345 0.00187729479374)
(-0.00812670797645 -0.0112966223717 0.00187494024105)
(-0.00826517426156 -0.0110290216893 0.00294203922743)
(-0.0142132754024 -0.0112607978733 0.0019644437518)
(-0.0122473385204 -0.0115439791091 0.00187174586752)
(-0.0121750730365 -0.0112102349524 0.00292370875185)
(-0.018715502272 -0.0115889857476 0.00221014360559)
(-0.0164426902827 -0.011842991322 0.00203150227841)
(-0.016180827557 -0.0114684139175 0.00305234048597)
(-0.0238973219392 -0.012038153508 0.00225402145777)
(-0.0212218542453 -0.0121681643696 0.00238157110947)
(-0.0206596618779 -0.0118395358364 0.00339109619583)
(-0.0290452156051 -0.0127121017124 0.00010457511016)
(-0.0280967366005 -0.0124568245518 0.00218820287629)
(-0.0277509250576 -0.0124230921413 0.00314791051457)
(-0.0234247161623 -0.0135624544552 -0.00187067118493)
(-0.0277068754968 -0.0126184161248 -0.00215929125233)
(-0.0274317747742 -0.0134335431658 -0.00413942641798)
(-0.0197548836402 -0.0146682257839 -0.00101715000569)
(-0.021872194904 -0.0136385583571 -0.00148794034067)
(-0.021003222044 -0.0143528325094 -0.00271930524852)
(-0.0180557904632 -0.0162938592684 -6.10611326101e-05)
(-0.0198002431509 -0.0153430145327 -0.000558016189168)
(-0.0186146521527 -0.0157132015856 -0.0010262862006)
(-0.0182398736677 -0.018522611398 0.000926732437524)
(-0.0193286813935 -0.0177159153036 0.000405848599197)
(-0.0178129846232 -0.0175751179566 0.000840733931361)
(-0.02014577819 -0.0214493143415 0.00167056181809)
(-0.0206661466884 -0.020669315474 0.00144410360963)
(-0.0188554251722 -0.0201466244959 0.00265183382571)
(-0.0231034014253 -0.0253751716718 0.000245097829296)
(-0.0241824882309 -0.0241377628081 0.00194135300018)
(-0.0224039547391 -0.0235827756283 0.0036712319118)
(-0.0185993858204 -0.0292777006529 -0.00127213487672)
(-0.0232761813429 -0.0282462113224 -0.00181154451796)
(-0.0214306379328 -0.0284851389147 -0.00229240054166)
(-0.0149358516085 -0.0322673708302 -0.000762323462423)
(-0.0179385179847 -0.0315221425561 -0.00120452625632)
(-0.0161350710091 -0.0317425236966 -0.00161598010558)
(-0.011786356517 -0.0346654848636 -0.000520991220285)
(-0.0146051537406 -0.0343394606574 -0.000874008447981)
(-0.0132605187404 -0.0343468644157 -0.00111742478111)
(-0.00863703691157 -0.0363792477508 -0.000430807255736)
(-0.0111798862461 -0.0365316393743 -0.000779764419611)
(-0.0103139445535 -0.0363156979014 -0.000927607932297)
(-0.00540914965726 -0.0373115577911 -0.000331966277215)
(-0.00761042923764 -0.0379682771504 -0.000732087552722)
(-0.00720643972846 -0.0376207246494 -0.000837479763346)
(-0.00239278044123 -0.0371154251389 -0.000174745687686)
(-0.00403528207319 -0.0384838797882 -0.000558852162022)
(-0.004057044087 -0.0381257490181 -0.000656493931167)
(-0.00126590302283 -0.0374782933693 -0.00025946411929)
(-0.00143156637614 -0.0372045435024 -0.000363877027543)
(-0.0024887106233 -0.0113866513986 0.00143512376216)
(-0.00119409728987 -0.0115456529479 0.00109564899725)
(-0.00156394529392 -0.0114485091489 0.00200319338012)
(-0.00618798154992 -0.0115634287296 0.00181070580355)
(-0.00431027197223 -0.0117398614411 0.00173163932177)
(-0.00470510128947 -0.0116273116156 0.00275938356393)
(-0.0102955502564 -0.0118014724082 0.00187244530194)
(-0.00838329928672 -0.0119683449664 0.0018566327449)
(-0.00849613652717 -0.0117968981973 0.00292690798206)