/*--------------------------------*- C++ -*----------------------------------*\
| =========                 |                                                 |
| \\      /  F ield         | OpenFOAM: The Open Source CFD Toolbox           |
|  \\    /   O peration     | Version:  v1606+                                |
|   \\  /    A nd           | Web:      www.OpenFOAM.com                      |
|    \\/     M anipulation  |                                                 |
\*---------------------------------------------------------------------------*/
FoamFile
{
    version     2.0;
    format      ascii;
    class       surfaceScalarField;
    location    "2";
    object      meshPhi;
}
// * * * * * * * * * * * * * * * * * * * * * * * * * * * * * * * * * * * * * //

dimensions      [0 3 -1 0 0 0 0];

internalField   nonuniform List<scalar> 
5856
(
-0.000312261
-4.71618e-09
-0.00031226
3.24369e-09
-0.000312263
-1.98087e-09
-0.000312262
1.3862e-10
-0.000312259
-1.16839e-09
-0.000312266
3.91695e-10
-0.000312259
-4.30358e-09
-0.000312259
-2.59875e-10
-0.000312265
2.27514e-09
-0.000312266
3.14428e-09
-0.000312262
-2.01688e-09
-2.73135e-09
-0.000312261
-0.000348997
-9.78762e-11
-0.000348994
-6.9357e-10
-0.000348998
2.71124e-09
-0.000348998
2.6601e-10
-0.000348997
-1.67982e-09
-0.000348998
4.04768e-09
-0.000349002
2.3355e-10
-0.000349007
3.465e-09
-0.00034899
-1.52886e-08
-0.000348999
1.17851e-08
-0.000348997
-2.36595e-09
3.22515e-09
-0.000349003
-0.000385736
6.44598e-10
-0.000385734
-3.80026e-09
-0.000385737
7.57417e-09
-0.000385734
-1.37854e-09
-0.000385732
-3.73002e-09
-0.000385732
3.10291e-09
-0.000385734
3.1475e-09
-0.00038573
1.72054e-19
-0.000385744
-1.40061e-09
-0.000385728
-3.19665e-09
-0.000385729
-2.26413e-09
6.75571e-09
-0.000385732
-0.00042247
-3.06443e-09
-0.000422478
4.26162e-09
-0.000422463
-6.28337e-09
-0.000422477
1.00699e-08
-0.000422476
-5.59459e-09
-0.000422475
2.40607e-09
-0.000422471
-2.51e-10
-0.000422466
-4.389e-09
-0.000422477
8.71735e-09
-0.000422472
-9.96078e-09
-0.000422477
2.37564e-09
-2.48751e-09
-0.000422468
-0.00045921
-2.05516e-09
-0.000459211
4.28255e-09
-0.000459216
-2.3103e-09
-0.0004592
-5.6645e-09
-0.000459208
2.112e-09
-0.000459206
1.837e-09
-0.000459208
1.2348e-09
-0.000459217
3.5035e-09
-0.000459201
-7.83035e-09
-0.000459215
4.45531e-09
-0.000459202
-9.49519e-09
1.09654e-09
-0.000459204
-0.000495943
-6.60872e-09
-0.000495943
3.99556e-09
-0.000495939
-5.7231e-09
-0.000495953
1.02805e-08
-0.000495947
-2.16212e-09
-0.000495949
2.65655e-09
-0.000495944
-2.96895e-09
-0.000495939
-1.3475e-09
-0.000495947
-2.3875e-10
-0.000495937
-6.34659e-09
-0.000495952
5.44893e-09
-4.5731e-09
-0.000495946
-0.000532684
-5.62173e-09
-0.000532678
-2.7821e-10
-0.000532691
5.50455e-09
-0.000532672
-8.64684e-09
-0.000532676
8.79175e-10
-0.000532678
3.7521e-09
-0.000532672
-9.3597e-09
-0.000532675
5.775e-10
-0.000532681
7.27215e-09
-0.000532683
-3.91955e-09
-0.000532675
-3.84672e-09
-5.25115e-10
-0.000532679
-0.000569416
1.76915e-09
-0.000569409
-7.2728e-09
-0.000569401
-3.56748e-09
-0.000569416
5.96065e-09
-0.000569422
7.6755e-09
-0.000569414
-6.032e-10
-0.000569425
1.75575e-09
-0.000569429
2.772e-09
-0.000569411
-1.21688e-08
-0.000569417
9.7155e-10
-0.000569417
-6.39973e-09
7.27598e-09
-0.000569425
-0.000606152
-4.79265e-10
-0.000606164
6.13345e-09
-0.000606164
-1.74886e-09
-0.000606164
4.62383e-09
-0.000606148
-7.518e-09
-0.00060616
1.1674e-08
-0.000606145
-1.38572e-08
-0.000606148
5.236e-09
-0.000606163
4.9142e-09
-0.000606162
3.7652e-09
-0.000606168
3.069e-10
2.35257e-09
-0.000606163
-0.000642893
-1.91046e-09
-0.000642889
-4.288e-10
-0.000642903
1.15374e-08
-0.000642894
-6.4176e-09
-0.000642898
-2.44685e-09
-0.000642889
1.28035e-09
-0.00064291
7.9492e-09
-0.000642893
-9.702e-09
-0.000642895
6.1821e-09
-0.00064288
-1.03422e-08
-0.000642889
9.952e-09
1.10133e-09
-0.000642886
-0.000679626
-4.65265e-09
-0.000679631
5.53001e-09
-0.00067962
9.6951e-10
-0.000679617
-7.15658e-09
-0.000679628
9.1897e-09
-0.000679625
-3.8906e-09
-0.000679628
1.34402e-08
-0.00067963
-7.68075e-09
-0.000679618
-8.63415e-09
-0.00067964
1.16278e-08
-0.000679629
-3.06285e-09
1.92127e-09
-0.00067963
-0.000716367
-6.45643e-09
-0.000716361
-2.55235e-09
-0.000716378
1.65358e-08
-0.000716371
-1.43383e-08
-0.000716368
8.8934e-09
-0.00071636
-1.37369e-08
-0.000716353
5.9094e-09
-0.000716356
-5.39e-09
-0.000716377
1.15668e-08
-0.000716361
-3.6811e-09
-0.000716362
-7.6325e-10
-0.00071636
1.29925e-09
-0.00031227
6.41325e-09
-0.000312264
-6.75596e-09
-0.000312261
1.93926e-09
-0.00031226
-5.11251e-09
-0.000312258
-1.44543e-09
-0.000312261
3.16008e-09
-0.000312257
-3.42206e-09
-0.000312263
7.63818e-09
-0.000312259
-5.70531e-09
-0.000312262
3.7832e-10
-0.000312262
1.22231e-09
3.27082e-09
-0.000348994
-1.53851e-09
-0.000348999
-3.17875e-09
-0.000348999
2.03897e-09
-0.000349002
-1.73222e-09
-0.000349002
-4.7793e-10
-0.000348997
-3.99645e-10
-0.000349
-3.7936e-10
-0.000349
8.16169e-09
-0.000349004
-3.2395e-09
-0.000349001
-2.63244e-09
-0.000348999
-1.84148e-09
-3.31557e-09
-0.000385737
3.43502e-09
-0.000385738
-3.66561e-09
-0.000385735
-2.71847e-10
-0.000385732
-2.68997e-09
-0.000385732
-2.34259e-09
-0.000385741
1.01936e-08
-0.000385737
-5.96426e-09
-0.000385729
9.68945e-10
-0.000385731
-9.827e-10
-0.000385728
-5.57659e-09
-0.000385733
5.62524e-09
2.85889e-10
-0.000422466
5.3991e-10
-0.000422471
1.56633e-09
-0.000422469
-3.52389e-09
-0.000422469
-3.65358e-09
-0.000422477
5.35613e-09
-0.000422461
-3.2763e-09
-0.000422465
-2.55169e-09
-0.000422466
7.12155e-10
-0.000422468
2.17535e-09
-0.000422473
-5.7854e-10
-0.000422471
4.48257e-09
-2.3604e-11
-0.000459215
1.17194e-08
-0.000459201
-1.0634e-08
-0.000459207
1.90122e-09
-0.000459213
-7.88815e-10
-0.000459202
-7.57727e-09
-0.000459207
1.78554e-09
-0.000459211
1.56137e-09
-0.000459211
2.6028e-10
-0.000459204
-4.28963e-09
-0.000459211
4.82596e-09
-0.000459208
2.6723e-09
1.55411e-09
-0.000495939
4.75139e-09
-0.000495949
-2.6505e-09
-0.000495954
8.20615e-09
-0.000495952
-1.90507e-09
-0.000495949
-8.49914e-09
-0.000495955
6.6127e-09
-0.000495948
-5.33838e-09
-0.000495948
-1.825e-11
-0.000495951
-9.32065e-10
-0.000495947
1.01e-12
-0.000495946
6.9315e-10
1.55226e-09
-0.000532685
1.20827e-08
-0.000532681
-5.58187e-09
-0.00053267
-1.30741e-09
-0.000532679
6.68917e-09
-0.000532675
-1.13596e-08
-0.000532679
1.0668e-08
-0.000532684
-8.1405e-10
-0.000532673
-1.12358e-08
-0.000532678
4.03535e-09
-0.000532672
-5.37509e-09
-0.000532683
1.09046e-08
1.24379e-09
-0.000569411
-3.22859e-09
-0.000569422
3.44717e-09
-0.000569418
-7.15169e-09
-0.000569413
2.5054e-10
-0.000569424
3.8526e-10
-0.000569416
3.22427e-09
-0.000569409
-9.04374e-09
-0.000569422
1.1902e-09
-0.000569426
8.51873e-09
-0.000569422
-1.00062e-08
-0.000569416
6.5633e-09
-3.62506e-09
-0.000606158
-6.19298e-09
-0.00060616
6.16564e-09
-0.000606167
2.05055e-09
-0.000606163
-1.01557e-09
-0.000606149
-1.40184e-08
-0.000606153
9.09119e-09
-0.000606159
-3.92805e-09
-0.000606158
6.4235e-10
-0.000606151
2.8203e-10
-0.000606157
-5.44792e-09
-0.000606155
4.63026e-09
-4.32691e-09
-0.000642888
-4.87225e-09
-0.000642878
-4.01666e-09
-0.000642892
1.39667e-08
-0.000642884
-8.82045e-09
-0.000642898
-7.7805e-10
-0.00064289
3.51259e-09
-0.000642896
1.0848e-09
-0.000642895
2.13e-11
-0.000642898
3.76566e-09
-0.000642893
-1.01553e-08
-0.000642892
5.15707e-09
-2.39382e-09
-0.000679634
-1.32813e-09
-0.000679633
-5.26457e-09
-0.00067961
-9.65477e-09
-0.000679623
5.22828e-09
-0.000679622
-3.95951e-09
-0.000679627
6.22264e-09
-0.000679618
-8.19325e-09
-0.000679617
1.96605e-09
-0.000679622
1.12478e-08
-0.000679618
-1.57934e-08
-0.00067963
1.51378e-08
-3.05799e-09
-0.000716356
-6.74368e-09
-0.000716364
3.63243e-09
-0.000716378
5.90891e-09
-0.00071636
-1.25069e-08
-0.000716373
9.01823e-09
-0.000716363
-1.6677e-09
-0.00071637
-9.798e-10
-0.00071637
1.943e-09
-0.000716359
3.03529e-09
-0.000716382
9.5649e-09
-0.000716362
-3.2261e-10
3.93186e-09
-0.000312261
-4.71533e-09
-0.00031226
3.24369e-09
-0.000312263
-1.98087e-09
-0.000312262
1.3862e-10
-0.000312259
-1.16839e-09
-0.000312266
3.91695e-10
-0.000312259
-4.30358e-09
-0.000312259
-2.59875e-10
-0.000312265
2.27514e-09
-0.000312266
3.14428e-09
-0.000312262
-2.01688e-09
-2.73135e-09
-0.000312261
-0.000348997
-9.6814e-11
-0.000348994
-6.9357e-10
-0.000348998
2.71124e-09
-0.000348998
2.6601e-10
-0.000348997
-1.67982e-09
-0.000348998
4.04768e-09
-0.000349002
2.3355e-10
-0.000349007
3.465e-09
-0.00034899
-1.52886e-08
-0.000348999
1.17851e-08
-0.000348997
-2.36595e-09
3.22515e-09
-0.000349003
-0.000385736
6.4587e-10
-0.000385734
-3.80026e-09
-0.000385737
7.57417e-09
-0.000385734
-1.37854e-09
-0.000385732
-3.73002e-09
-0.000385732
3.10291e-09
-0.000385734
3.1475e-09
-0.00038573
1.72054e-19
-0.000385744
-1.40061e-09
-0.000385728
-3.19665e-09
-0.000385729
-2.26413e-09
6.75571e-09
-0.000385732
-0.00042247
-3.0629e-09
-0.000422478
4.26162e-09
-0.000422463
-6.75232e-09
-0.000422477
1.05006e-08
-0.000422476
-5.59459e-09
-0.000422475
2.40607e-09
-0.000422471
-2.51e-10
-0.000422466
-4.389e-09
-0.000422477
8.71735e-09
-0.000422472
-9.96078e-09
-0.000422477
2.37564e-09
-2.48751e-09
-0.000422468
-0.00045921
-2.05335e-09
-0.000459211
4.28255e-09
-0.000459216
-2.3103e-09
-0.0004592
-5.6645e-09
-0.000459208
2.112e-09
-0.000459206
1.837e-09
-0.000459208
1.2348e-09
-0.000459217
3.5035e-09
-0.000459201
-7.83035e-09
-0.000459215
4.45531e-09
-0.000459202
-9.49519e-09
1.09654e-09
-0.000459204
-0.000495943
-6.60674e-09
-0.000495943
3.99556e-09
-0.000495939
-5.7231e-09
-0.000495953
1.02805e-08
-0.000495947
-2.16212e-09
-0.000495949
2.65655e-09
-0.000495944
-2.96895e-09
-0.000495939
-1.3475e-09
-0.000495947
-2.3875e-10
-0.000495937
-6.34659e-09
-0.000495952
5.44893e-09
-4.5731e-09
-0.000495946
-0.000532684
-5.61925e-09
-0.000532678
-2.7821e-10
-0.000532691
5.50455e-09
-0.000532672
-8.64684e-09
-0.000532676
8.79175e-10
-0.000532678
3.7521e-09
-0.000532672
-9.3597e-09
-0.000532675
5.775e-10
-0.000532681
7.27215e-09
-0.000532683
-3.91955e-09
-0.000532675
-3.84672e-09
-5.25115e-10
-0.000532679
-0.000569416
1.7718e-09
-0.000569409
-7.2728e-09
-0.000569401
-3.56748e-09
-0.000569416
5.96065e-09
-0.000569422
7.6755e-09
-0.000569414
-6.032e-10
-0.000569425
1.75575e-09
-0.000569429
2.772e-09
-0.000569411
-1.21688e-08
-0.000569417
9.7155e-10
-0.000569417
-6.39973e-09
7.27598e-09
-0.000569425
-0.000606152
-4.76055e-10
-0.000606164
6.13345e-09
-0.000606164
-1.74886e-09
-0.000606164
4.62383e-09
-0.000606148
-7.518e-09
-0.00060616
1.1674e-08
-0.000606145
-1.38572e-08
-0.000606148
5.236e-09
-0.000606163
4.9142e-09
-0.000606162
3.7652e-09
-0.000606168
3.069e-10
2.35257e-09
-0.000606163
-0.000642893
-1.90706e-09
-0.000642889
-4.288e-10
-0.000642903
1.15374e-08
-0.000642894
-6.4176e-09
-0.000642898
-2.44685e-09
-0.000642889
1.28035e-09
-0.00064291
7.9492e-09
-0.000642893
-9.702e-09
-0.000642895
6.1821e-09
-0.00064288
-1.03422e-08
-0.000642889
9.952e-09
1.10133e-09
-0.000642886
-0.000679626
-4.64906e-09
-0.000679631
5.53001e-09
-0.00067962
9.6951e-10
-0.000679617
-7.15658e-09
-0.000679628
9.1897e-09
-0.000679625
-3.8906e-09
-0.000679628
1.34402e-08
-0.00067963
-7.68075e-09
-0.000679618
-8.63415e-09
-0.00067964
1.16278e-08
-0.000679629
-3.06285e-09
1.92127e-09
-0.00067963
-0.000716367
-6.45219e-09
-0.000716361
-2.55235e-09
-0.000716377
1.57542e-08
-0.000716371
-1.36205e-08
-0.000716368
8.8934e-09
-0.00071636
-1.37369e-08
-0.000716353
5.9094e-09
-0.000716356
-5.39e-09
-0.000716377
1.15668e-08
-0.000716361
-3.6811e-09
-0.000716362
-7.6325e-10
-0.00071636
1.29925e-09
-0.00031227
6.41325e-09
-0.000312264
-6.75596e-09
-0.000312261
1.93926e-09
-0.00031226
-5.11251e-09
-0.000312258
-1.44543e-09
-0.000312261
3.16008e-09
-0.000312257
-3.42206e-09
-0.000312263
7.63818e-09
-0.000312259
-5.70531e-09
-0.000312262
3.7832e-10
-0.000312262
1.22231e-09
3.27339e-09
-0.000348994
-1.53851e-09
-0.000348999
-3.17875e-09
-0.000348999
2.03897e-09
-0.000349002
-1.73222e-09
-0.000349002
-4.7793e-10
-0.000348997
-3.99645e-10
-0.000349
-3.7936e-10
-0.000349
8.16169e-09
-0.000349004
-3.2395e-09
-0.000349001
-2.63244e-09
-0.000348999
-1.84148e-09
-3.31239e-09
-0.000385737
3.43502e-09
-0.000385738
-3.66561e-09
-0.000385735
-2.71847e-10
-0.000385732
-2.68997e-09
-0.000385732
-2.34259e-09
-0.000385741
1.01936e-08
-0.000385737
-5.96426e-09
-0.000385729
9.68945e-10
-0.000385731
-9.827e-10
-0.000385728
-5.57659e-09
-0.000385733
5.62524e-09
2.89731e-10
-0.000422466
5.3991e-10
-0.000422471
1.56633e-09
-0.000422469
-3.52389e-09
-0.000422469
-3.65358e-09
-0.000422477
5.35613e-09
-0.000422461
-3.2763e-09
-0.000422465
-2.55169e-09
-0.000422466
7.12155e-10
-0.000422468
2.17535e-09
-0.000422473
-5.7854e-10
-0.000422471
4.48257e-09
-1.9044e-11
-0.000459215
1.17194e-08
-0.000459201
-1.0634e-08
-0.000459207
1.90122e-09
-0.000459213
-7.88815e-10
-0.000459202
-7.57727e-09
-0.000459207
1.78554e-09
-0.000459211
1.56137e-09
-0.000459211
2.6028e-10
-0.000459204
-4.28963e-09
-0.000459211
4.82596e-09
-0.000459208
2.6723e-09
1.55948e-09
-0.000495939
4.75139e-09
-0.000495949
-2.6505e-09
-0.000495954
8.20615e-09
-0.000495952
-1.90507e-09
-0.000495949
-8.49914e-09
-0.000495955
6.6127e-09
-0.000495948
-5.33838e-09
-0.000495948
-1.825e-11
-0.000495951
-9.32065e-10
-0.000495947
1.01e-12
-0.000495946
6.9315e-10
1.55854e-09
-0.000532685
1.20827e-08
-0.000532681
-5.58187e-09
-0.00053267
-1.30741e-09
-0.000532679
6.68917e-09
-0.000532675
-1.13596e-08
-0.000532679
1.0668e-08
-0.000532684
-8.1405e-10
-0.000532673
-1.12358e-08
-0.000532678
4.03535e-09
-0.000532672
-5.37509e-09
-0.000532683
1.09046e-08
1.25087e-09
-0.000569411
-3.22859e-09
-0.000569422
3.44717e-09
-0.000569418
-7.15169e-09
-0.000569413
2.5054e-10
-0.000569424
3.8526e-10
-0.000569416
3.22427e-09
-0.000569409
-9.04374e-09
-0.000569422
1.1902e-09
-0.000569426
8.51873e-09
-0.000569422
-1.00062e-08
-0.000569416
6.5633e-09
-3.61675e-09
-0.000606158
-6.19298e-09
-0.00060616
6.16564e-09
-0.000606167
2.05055e-09
-0.000606163
-1.01557e-09
-0.000606149
-1.40184e-08
-0.000606153
9.09119e-09
-0.000606159
-3.92805e-09
-0.000606158
6.4235e-10
-0.000606151
2.8203e-10
-0.000606157
-5.44792e-09
-0.000606155
4.63026e-09
-4.31768e-09
-0.000642888
-4.87225e-09
-0.000642878
-4.01666e-09
-0.000642892
1.39667e-08
-0.000642884
-8.82045e-09
-0.000642898
-7.7805e-10
-0.00064289
3.51259e-09
-0.000642896
1.0848e-09
-0.000642895
2.13e-11
-0.000642898
3.76566e-09
-0.000642893
-1.01553e-08
-0.000642892
5.15707e-09
-2.38362e-09
-0.000679634
-1.32813e-09
-0.000679633
-5.26457e-09
-0.00067961
-9.65477e-09
-0.000679623
5.22828e-09
-0.000679622
-3.95951e-09
-0.000679627
6.22264e-09
-0.000679618
-8.19325e-09
-0.000679617
1.96605e-09
-0.000679622
1.12478e-08
-0.000679618
-1.57934e-08
-0.00067963
1.51378e-08
-3.04678e-09
-0.000716356
-6.74368e-09
-0.000716364
3.63243e-09
-0.000716378
5.90891e-09
-0.00071636
-1.25069e-08
-0.000716373
9.01823e-09
-0.000716363
-1.6677e-09
-0.00071637
-9.798e-10
-0.00071637
1.943e-09
-0.000716359
3.03529e-09
-0.000716382
9.5649e-09
-0.000716362
-3.2261e-10
3.94461e-09
-0.000312261
-4.7179e-09
-0.00031226
3.24369e-09
-0.000312263
-1.98087e-09
-0.000312262
1.3862e-10
-0.000312259
-1.16839e-09
-0.000312266
3.91695e-10
-0.000312259
-4.30358e-09
-0.000312259
-2.59875e-10
-0.000312265
2.27514e-09
-0.000312266
3.14428e-09
-0.000312262
-2.01688e-09
-2.73135e-09
-0.000312261
-0.000348997
-1e-10
-0.000348994
-6.9357e-10
-0.000348998
2.71124e-09
-0.000348998
2.6601e-10
-0.000348997
-1.67982e-09
-0.000348998
4.04768e-09
-0.000349002
2.3355e-10
-0.000349007
3.465e-09
-0.00034899
-1.52886e-08
-0.000348999
1.17851e-08
-0.000348997
-2.36595e-09
3.22515e-09
-0.000349003
-0.000385736
6.42028e-10
-0.000385734
-3.80026e-09
-0.000385737
7.57417e-09
-0.000385734
-1.37854e-09
-0.000385732
-3.73002e-09
-0.000385732
3.10291e-09
-0.000385734
3.1475e-09
-0.00038573
1.72054e-19
-0.000385744
-1.40061e-09
-0.000385728
-3.19665e-09
-0.000385729
-2.26413e-09
6.75571e-09
-0.000385732
-0.00042247
-3.06746e-09
-0.000422478
4.26162e-09
-0.000422463
-6.28337e-09
-0.000422477
1.00699e-08
-0.000422476
-5.59459e-09
-0.000422475
2.40607e-09
-0.000422471
-2.51e-10
-0.000422466
-4.389e-09
-0.000422477
8.71735e-09
-0.000422472
-9.96078e-09
-0.000422477
2.37564e-09
-2.48751e-09
-0.000422468
-0.00045921
-2.05872e-09
-0.000459211
4.28255e-09
-0.000459216
-2.3103e-09
-0.0004592
-5.6645e-09
-0.000459208
2.112e-09
-0.000459206
1.837e-09
-0.000459208
1.2348e-09
-0.000459217
3.5035e-09
-0.000459201
-7.83035e-09
-0.000459215
4.45531e-09
-0.000459202
-9.49519e-09
1.09654e-09
-0.000459204
-0.000495943
-6.61302e-09
-0.000495943
3.99556e-09
-0.000495939
-5.7231e-09
-0.000495953
1.02805e-08
-0.000495947
-2.16212e-09
-0.000495949
2.65655e-09
-0.000495944
-2.96895e-09
-0.000495939
-1.3475e-09
-0.000495947
-2.3875e-10
-0.000495937
-6.34659e-09
-0.000495952
5.44893e-09
-4.5731e-09
-0.000495946
-0.000532684
-5.62633e-09
-0.000532678
-2.7821e-10
-0.000532691
5.50455e-09
-0.000532672
-8.64684e-09
-0.000532676
8.79175e-10
-0.000532678
3.7521e-09
-0.000532672
-9.3597e-09
-0.000532675
5.775e-10
-0.000532681
7.27215e-09
-0.000532683
-3.91955e-09
-0.000532675
-3.84672e-09
-5.25115e-10
-0.000532679
-0.000569416
1.76349e-09
-0.000569409
-7.2728e-09
-0.000569401
-3.56748e-09
-0.000569416
5.96065e-09
-0.000569422
7.6755e-09
-0.000569414
-6.032e-10
-0.000569425
1.75575e-09
-0.000569429
2.772e-09
-0.000569411
-1.21688e-08
-0.000569417
9.7155e-10
-0.000569417
-6.39973e-09
7.27598e-09
-0.000569425
-0.000606152
-4.85284e-10
-0.000606164
6.71244e-09
-0.000606164
-2.29158e-09
-0.000606164
4.62383e-09
-0.000606148
-7.518e-09
-0.00060616
1.1674e-08
-0.000606145
-1.38572e-08
-0.000606148
5.236e-09
-0.000606163
4.9142e-09
-0.000606162
3.7652e-09
-0.000606168
3.069e-10
2.35257e-09
-0.000606163
-0.000642893
-1.91726e-09
-0.000642888
-4.288e-10
-0.000642903
1.15374e-08
-0.000642894
-6.4176e-09
-0.000642898
-2.44685e-09
-0.000642889
1.28035e-09
-0.00064291
7.9492e-09
-0.000642893
-9.702e-09
-0.000642895
6.1821e-09
-0.00064288
-1.03422e-08
-0.000642889
9.952e-09
1.10133e-09
-0.000642886
-0.000679626
-4.66027e-09
-0.000679631
5.53001e-09
-0.00067962
9.6951e-10
-0.000679617
-7.15658e-09
-0.000679628
9.1897e-09
-0.000679625
-3.8906e-09
-0.000679628
1.34402e-08
-0.00067963
-7.68075e-09
-0.000679618
-8.63415e-09
-0.00067964
1.16278e-08
-0.000679629
-3.06285e-09
1.92127e-09
-0.00067963
-0.000716367
-6.46493e-09
-0.000716361
-2.55235e-09
-0.000716378
1.65358e-08
-0.000716371
-1.43383e-08
-0.000716368
8.8934e-09
-0.00071636
-1.37369e-08
-0.000716353
5.9094e-09
-0.000716356
-5.39e-09
-0.000716377
1.15668e-08
-0.000716361
-3.6811e-09
-0.000716362
-7.6325e-10
-0.00071636
1.29925e-09
-0.00031227
6.41325e-09
-0.000312264
-6.75596e-09
-0.000312261
1.93926e-09
-0.00031226
-5.11251e-09
-0.000312258
-1.44543e-09
-0.000312261
3.16008e-09
-0.000312257
-3.42206e-09
-0.000312263
7.63818e-09
-0.000312259
-5.70531e-09
-0.000312262
3.7832e-10
-0.000312262
1.22231e-09
3.27252e-09
-0.000348994
-1.53851e-09
-0.000348999
-3.17875e-09
-0.000348999
2.03897e-09
-0.000349002
-1.73222e-09
-0.000349002
-4.7793e-10
-0.000348997
-3.99645e-10
-0.000349
-3.7936e-10
-0.000349
8.16169e-09
-0.000349004
-3.2395e-09
-0.000349001
-2.63244e-09
-0.000348999
-1.84148e-09
-3.31345e-09
-0.000385737
3.43502e-09
-0.000385738
-3.69345e-09
-0.000385735
-2.43537e-10
-0.000385732
-2.68997e-09
-0.000385732
-2.34259e-09
-0.000385741
1.01936e-08
-0.000385737
-5.96426e-09
-0.000385729
9.68945e-10
-0.000385731
-9.827e-10
-0.000385728
-5.57659e-09
-0.000385733
5.62524e-09
2.88433e-10
-0.000422466
5.3991e-10
-0.000422471
1.56633e-09
-0.000422469
-3.52389e-09
-0.000422469
-3.65358e-09
-0.000422477
5.35613e-09
-0.000422461
-3.2763e-09
-0.000422465
-2.55169e-09
-0.000422466
7.12155e-10
-0.000422468
2.17535e-09
-0.000422473
-5.7854e-10
-0.000422471
4.48257e-09
-2.05451e-11
-0.000459215
1.17194e-08
-0.000459201
-1.0634e-08
-0.000459207
1.90122e-09
-0.000459213
-7.88815e-10
-0.000459202
-7.57727e-09
-0.000459207
1.78554e-09
-0.000459211
1.56137e-09
-0.000459211
2.6028e-10
-0.000459204
-4.28963e-09
-0.000459211
4.82596e-09
-0.000459208
2.6723e-09
1.5577e-09
-0.000495939
4.75139e-09
-0.000495949
-2.6505e-09
-0.000495954
8.20615e-09
-0.000495952
-1.90507e-09
-0.000495949
-8.49914e-09
-0.000495955
6.6127e-09
-0.000495948
-5.33838e-09
-0.000495948
-1.825e-11
-0.000495951
-9.32065e-10
-0.000495947
1.01e-12
-0.000495946
6.9315e-10
1.55656e-09
-0.000532685
1.20827e-08
-0.000532681
-5.58187e-09
-0.00053267
-1.30741e-09
-0.000532679
6.68917e-09
-0.000532675
-1.13596e-08
-0.000532679
1.0668e-08
-0.000532684
-8.1405e-10
-0.000532673
-1.12358e-08
-0.000532678
4.03535e-09
-0.000532672
-5.37509e-09
-0.000532683
1.09046e-08
1.24875e-09
-0.000569411
-3.22859e-09
-0.000569422
3.44717e-09
-0.000569418
-7.15169e-09
-0.000569413
2.5054e-10
-0.000569424
3.8526e-10
-0.000569416
3.22427e-09
-0.000569409
-9.04374e-09
-0.000569422
1.1902e-09
-0.000569426
8.51873e-09
-0.000569422
-1.00062e-08
-0.000569416
6.5633e-09
-3.61939e-09
-0.000606158
-6.19298e-09
-0.00060616
6.16564e-09
-0.000606167
2.05055e-09
-0.000606163
-1.01557e-09
-0.000606149
-1.40184e-08
-0.000606153
9.09119e-09
-0.000606159
-3.92805e-09
-0.000606158
6.4235e-10
-0.000606151
2.8203e-10
-0.000606157
-5.44792e-09
-0.000606155
4.63026e-09
-4.32049e-09
-0.000642888
-4.87225e-09
-0.000642878
-4.01666e-09
-0.000642892
1.39667e-08
-0.000642884
-8.82045e-09
-0.000642898
-7.7805e-10
-0.00064289
3.51259e-09
-0.000642896
1.0848e-09
-0.000642895
2.13e-11
-0.000642898
3.76566e-09
-0.000642893
-1.01553e-08
-0.000642892
5.15707e-09
-2.38702e-09
-0.000679634
-1.32813e-09
-0.000679633
-5.26457e-09
-0.00067961
-9.65477e-09
-0.000679623
5.22828e-09
-0.000679622
-3.95951e-09
-0.000679627
6.22264e-09
-0.000679618
-8.19325e-09
-0.000679617
1.96605e-09
-0.000679622
1.12478e-08
-0.000679618
-1.57934e-08
-0.00067963
1.51378e-08
-3.05037e-09
-0.000716356
-6.74368e-09
-0.000716364
3.63243e-09
-0.000716378
5.90891e-09
-0.00071636
-1.28399e-08
-0.000716373
9.3171e-09
-0.000716363
-1.6677e-09
-0.00071637
-9.798e-10
-0.00071637
1.943e-09
-0.000716359
3.03529e-09
-0.000716382
9.5649e-09
-0.000716362
-3.2261e-10
3.94036e-09
-0.000312261
-4.71703e-09
-0.00031226
3.24369e-09
-0.000312263
-1.98087e-09
-0.000312262
1.3862e-10
-0.000312259
-1.16839e-09
-0.000312266
3.91695e-10
-0.000312259
-4.30358e-09
-0.000312259
-2.59875e-10
-0.000312265
2.27514e-09
-0.000312266
3.14428e-09
-0.000312262
-2.01688e-09
-2.73135e-09
-0.000312261
-0.000348997
-9.89383e-11
-0.000348994
-6.9357e-10
-0.000348998
2.71124e-09
-0.000348998
2.6601e-10
-0.000348997
-1.67982e-09
-0.000348998
4.04768e-09
-0.000349002
2.3355e-10
-0.000349007
3.465e-09
-0.00034899
-1.52886e-08
-0.000348999
1.17851e-08
-0.000348997
-2.36595e-09
3.22515e-09
-0.000349003
-0.000385736
6.43326e-10
-0.000385734
-3.80026e-09
-0.000385737
7.57417e-09
-0.000385734
-1.37854e-09
-0.000385732
-3.73002e-09
-0.000385732
3.10291e-09
-0.000385734
3.1475e-09
-0.00038573
1.72054e-19
-0.000385744
-1.40061e-09
-0.000385728
-3.19665e-09
-0.000385729
-2.26413e-09
6.75571e-09
-0.000385732
-0.00042247
-3.06596e-09
-0.000422478
4.26162e-09
-0.000422463
-6.28337e-09
-0.000422477
1.00699e-08
-0.000422476
-5.59459e-09
-0.000422475
2.40607e-09
-0.000422471
-2.51e-10
-0.000422466
-4.389e-09
-0.000422477
8.71735e-09
-0.000422472
-9.96078e-09
-0.000422477
2.37564e-09
-2.48751e-09
-0.000422468
-0.00045921
-2.05694e-09
-0.000459211
4.28255e-09
-0.000459216
-2.3103e-09
-0.0004592
-5.6645e-09
-0.000459208
2.112e-09
-0.000459206
1.837e-09
-0.000459208
1.2348e-09
-0.000459217
3.5035e-09
-0.000459201
-7.83035e-09
-0.000459215
4.45531e-09
-0.000459202
-9.49519e-09
1.09654e-09
-0.000459204
-0.000495943
-6.61103e-09
-0.000495943
3.99556e-09
-0.000495939
-5.7231e-09
-0.000495953
1.02805e-08
-0.000495947
-2.16212e-09
-0.000495949
2.65655e-09
-0.000495944
-2.96895e-09
-0.000495939
-1.3475e-09
-0.000495947
-2.3875e-10
-0.000495937
-6.34659e-09
-0.000495952
5.44893e-09
-4.5731e-09
-0.000495946
-0.000532684
-5.6242e-09
-0.000532678
-2.7821e-10
-0.000532691
5.50455e-09
-0.000532672
-8.64684e-09
-0.000532676
8.79175e-10
-0.000532678
3.7521e-09
-0.000532672
-9.3597e-09
-0.000532675
5.775e-10
-0.000532681
7.27215e-09
-0.000532683
-3.91955e-09
-0.000532675
-3.84672e-09
-5.25115e-10
-0.000532679
-0.000569416
1.76613e-09
-0.000569409
-7.2728e-09
-0.000569401
-3.56748e-09
-0.000569416
5.96065e-09
-0.000569422
7.6755e-09
-0.000569414
-6.032e-10
-0.000569425
1.75575e-09
-0.000569429
2.772e-09
-0.000569411
-1.21688e-08
-0.000569417
9.7155e-10
-0.000569417
-6.39973e-09
7.27598e-09
-0.000569425
-0.000606152
-4.82475e-10
-0.000606164
6.71244e-09
-0.000606164
-2.29158e-09
-0.000606164
4.62383e-09
-0.000606148
-7.518e-09
-0.00060616
1.1674e-08
-0.000606145
-1.38572e-08
-0.000606148
5.236e-09
-0.000606163
4.9142e-09
-0.000606162
3.7652e-09
-0.000606168
3.069e-10
2.35257e-09
-0.000606163
-0.000642893
-1.91386e-09
-0.000642888
-4.288e-10
-0.000642903
1.15374e-08
-0.000642894
-6.4176e-09
-0.000642898
-2.44685e-09
-0.000642889
1.28035e-09
-0.00064291
7.9492e-09
-0.000642893
-9.702e-09
-0.000642895
6.1821e-09
-0.00064288
-1.03422e-08
-0.000642889
9.952e-09
1.10133e-09
-0.000642886
-0.000679626
-4.65668e-09
-0.000679631
5.53001e-09
-0.00067962
9.6951e-10
-0.000679617
-7.15658e-09
-0.000679628
9.1897e-09
-0.000679625
-3.8906e-09
-0.000679628
1.34402e-08
-0.00067963
-7.68075e-09
-0.000679618
-8.63415e-09
-0.00067964
1.16278e-08
-0.000679629
-3.06285e-09
1.92127e-09
-0.00067963
-0.000716367
-6.46068e-09
-0.000716361
-2.55235e-09
-0.000716378
1.65358e-08
-0.000716371
-1.43383e-08
-0.000716368
8.8934e-09
-0.00071636
-1.37369e-08
-0.000716353
5.9094e-09
-0.000716356
-5.39e-09
-0.000716377
1.15668e-08
-0.000716361
-3.6811e-09
-0.000716362
-7.6325e-10
-0.00071636
1.29925e-09
-0.00031227
6.41325e-09
-0.000312264
-6.75596e-09
-0.000312261
1.93926e-09
-0.00031226
-5.11251e-09
-0.000312258
-1.44543e-09
-0.000312261
3.16008e-09
-0.000312257
-3.42206e-09
-0.000312263
7.63818e-09
-0.000312259
-5.70531e-09
-0.000312262
3.7832e-10
-0.000312262
1.22231e-09
3.27167e-09
-0.000348994
-1.53851e-09
-0.000348999
-3.17875e-09
-0.000348999
2.03897e-09
-0.000349002
-1.73222e-09
-0.000349002
-4.7793e-10
-0.000348997
-3.99645e-10
-0.000349
-3.7936e-10
-0.000349
8.16169e-09
-0.000349004
-3.2395e-09
-0.000349001
-2.63244e-09
-0.000348999
-1.84148e-09
-3.31451e-09
-0.000385737
3.43502e-09
-0.000385738
-3.69345e-09
-0.000385735
-2.43537e-10
-0.000385732
-2.68997e-09
-0.000385732
-2.34259e-09
-0.000385741
1.01936e-08
-0.000385737
-5.96426e-09
-0.000385729
9.68945e-10
-0.000385731
-9.827e-10
-0.000385728
-5.57659e-09
-0.000385733
5.62524e-09
2.87161e-10
-0.000422466
5.3991e-10
-0.000422471
1.56633e-09
-0.000422469
-3.52389e-09
-0.000422469
-3.65358e-09
-0.000422477
5.35613e-09
-0.000422461
-3.2763e-09
-0.000422465
-2.55169e-09
-0.000422466
7.12155e-10
-0.000422468
2.17535e-09
-0.000422473
-5.7854e-10
-0.000422471
4.48257e-09
-2.20746e-11
-0.000459215
1.17194e-08
-0.000459201
-1.0634e-08
-0.000459207
1.90122e-09
-0.000459213
-7.88815e-10
-0.000459202
-7.57727e-09
-0.000459207
1.78554e-09
-0.000459211
1.56137e-09
-0.000459211
2.6028e-10
-0.000459204
-4.28963e-09
-0.000459211
4.82596e-09
-0.000459208
2.6723e-09
1.55592e-09
-0.000495939
4.75139e-09
-0.000495949
-2.6505e-09
-0.000495954
8.20615e-09
-0.000495952
-1.90507e-09
-0.000495949
-8.49914e-09
-0.000495955
6.6127e-09
-0.000495948
-5.33838e-09
-0.000495948
-1.825e-11
-0.000495951
-9.32065e-10
-0.000495947
1.01e-12
-0.000495946
6.9315e-10
1.55425e-09
-0.000532685
1.20827e-08
-0.000532681
-5.58187e-09
-0.00053267
-1.30741e-09
-0.000532679
6.68917e-09
-0.000532675
-1.13596e-08
-0.000532679
1.0668e-08
-0.000532684
-8.1405e-10
-0.000532673
-1.12358e-08
-0.000532678
4.03535e-09
-0.000532672
-5.37509e-09
-0.000532683
1.09046e-08
1.24627e-09
-0.000569411
-3.22859e-09
-0.000569422
3.44717e-09
-0.000569418
-7.15169e-09
-0.000569413
2.5054e-10
-0.000569424
3.8526e-10
-0.000569416
3.22427e-09
-0.000569409
-9.04374e-09
-0.000569422
1.1902e-09
-0.000569426
8.51873e-09
-0.000569422
-1.00062e-08
-0.000569416
6.5633e-09
-3.62241e-09
-0.000606158
-6.19298e-09
-0.00060616
6.16564e-09
-0.000606167
2.05055e-09
-0.000606163
-1.01557e-09
-0.000606149
-1.40184e-08
-0.000606153
9.09119e-09
-0.000606159
-3.92805e-09
-0.000606158
6.4235e-10
-0.000606151
2.8203e-10
-0.000606157
-5.44792e-09
-0.000606155
4.63026e-09
-4.3237e-09
-0.000642888
-4.87225e-09
-0.000642878
-4.01666e-09
-0.000642892
1.39667e-08
-0.000642884
-8.82045e-09
-0.000642898
-7.7805e-10
-0.00064289
3.51259e-09
-0.000642896
1.0848e-09
-0.000642895
2.13e-11
-0.000642898
3.76566e-09
-0.000642893
-1.01553e-08
-0.000642892
5.15707e-09
-2.39042e-09
-0.000679634
-1.32813e-09
-0.000679633
-5.26457e-09
-0.00067961
-9.65477e-09
-0.000679623
5.22828e-09
-0.000679622
-3.95951e-09
-0.000679627
6.22264e-09
-0.000679618
-8.19325e-09
-0.000679617
1.96605e-09
-0.000679622
1.12478e-08
-0.000679618
-1.57934e-08
-0.00067963
1.51378e-08
-3.05441e-09
-0.000716356
-6.74368e-09
-0.000716364
3.63243e-09
-0.000716378
5.90891e-09
-0.00071636
-1.28399e-08
-0.000716373
9.3171e-09
-0.000716363
-1.6677e-09
-0.00071637
-9.798e-10
-0.00071637
1.943e-09
-0.000716359
3.03529e-09
-0.000716382
9.5649e-09
-0.000716362
-3.2261e-10
3.93611e-09
-0.000753098
-1.02995e-08
0.000753102
-0.00075312
2.15846e-08
-0.000753076
-2.69568e-08
-0.000753103
1.17475e-08
-0.000753084
-1.08354e-08
-0.000753109
1.39691e-08
-0.000753111
1.08409e-08
-0.000753104
-1.33402e-08
-0.000753091
2.1381e-09
-0.000753102
8.1587e-09
-0.00075309
-1.22594e-08
8.35063e-09
-0.000753097
-0.000789842
5.71565e-09
0.000789823
-0.00078982
-1.20573e-09
-0.000789855
8.86992e-09
-0.000789834
-9.85985e-09
-0.000789843
-3.7617e-09
-0.000789833
4.0287e-09
-0.000789825
2.295e-09
-0.000789841
4.96308e-19
-0.000789838
-3.6335e-09
-0.000789824
-7.7568e-09
-0.000789857
1.92005e-08
-1.74505e-08
-0.000789832
-0.000826572
-4.52593e-09
0.000826583
-0.000826571
2.22105e-10
-0.00082657
7.54124e-09
-0.000826591
1.36575e-08
-0.000826591
-5.7195e-09
-0.000826571
-1.964e-08
-0.000826573
6.10005e-09
-0.000826565
-8.41225e-09
-0.000826564
-2.54795e-09
-0.000826575
2.1784e-09
-0.000826562
4.5102e-09
-1.05919e-08
-0.000826569