/*--------------------------------*- C++ -*----------------------------------*\
| =========                 |                                                 |
| \\      /  F ield         | OpenFOAM: The Open Source CFD Toolbox           |
|  \\    /   O peration     | Version:  v1606+                                |
|   \\  /    A nd           | Web:      www.OpenFOAM.com                      |
|    \\/     M anipulation  |                                                 |
\*---------------------------------------------------------------------------*/
FoamFile
{
    version     2.0;
    format      ascii;
    class       volVectorField;
    location    "1.32";
    object      U.airMean;
}
// * * * * * * * * * * * * * * * * * * * * * * * * * * * * * * * * * * * * * //

dimensions      [0 1 -1 0 0 0 0];

internalField   nonuniform List<vector> 
6000
(
(-0.0195752 0.27042 0)
(-0.00350045 0.234286 0)
(0.013126 0.24229 0)
(0.019334 0.237374 0)
(0.0195134 0.230437 0)
(0.0148671 0.223092 0)
(0.0117018 0.220447 0)
(0.00694633 0.220137 0)
(0.00152522 0.221039 0)
(-0.00184927 0.2179 0)
(-0.00459714 0.21326 0)
(-0.00621324 0.211533 0)
(-0.00828103 0.213998 0)
(-0.0105084 0.214866 0)
(-0.0121189 0.217687 0)
(-0.012898 0.217788 0)
(-0.0129623 0.216475 0)
(-0.0127686 0.213876 0)
(-0.0124271 0.208249 0)
(-0.0134173 0.2084 0)
(-0.0158502 0.21341 0)
(-0.0188202 0.216788 0)
(-0.0228086 0.217541 0)
(-0.0283511 0.221599 0)
(-0.0342807 0.229131 0)
(-0.0388828 0.237694 0)
(-0.0352828 0.244756 0)
(-0.0232582 0.246783 0)
(-0.00171122 0.235505 0)
(0.0176678 0.268976 0)
(0.0165219 0.98978 0)
(0.023432 0.969052 0)
(0.0507967 0.984757 0)
(0.0631296 1.00109 0)
(0.0621262 1.01781 0)
(0.0500626 1.02282 0)
(0.0315041 1.02161 0)
(0.0112545 1.02552 0)
(-0.00302576 1.02002 0)
(-0.0076998 1.01906 0)
(-0.0106175 1.02045 0)
(-0.0132237 1.02159 0)
(-0.0160742 1.02125 0)
(-0.0194219 1.01967 0)
(-0.0199265 1.01604 0)
(-0.0181014 1.0141 0)
(-0.0160583 1.01428 0)
(-0.0142093 1.01549 0)
(-0.0140815 1.02043 0)
(-0.0172251 1.02304 0)
(-0.0213014 1.02091 0)
(-0.0274441 1.02087 0)
(-0.0432397 1.02672 0)
(-0.0652078 1.02909 0)
(-0.0842215 1.02344 0)
(-0.0907497 1.00889 0)
(-0.0789205 0.9844 0)
(-0.0571333 0.969812 0)
(-0.0243023 0.960078 0)
(-0.0160702 0.985646 0)
(0.0048875 0.79597 0)
(0.0211588 0.736421 0)
(0.0513196 0.755679 0)
(0.0650281 0.777453 0)
(0.0682922 0.804927 0)
(0.0617587 0.817396 0)
(0.0482232 0.826082 0)
(0.0290509 0.828422 0)
(0.0134836 0.811786 0)
(0.00324308 0.800008 0)
(-0.00185978 0.793666 0)
(-0.00497958 0.792523 0)
(-0.0105733 0.796388 0)
(-0.0161485 0.79538 0)
(-0.0176131 0.792629 0)
(-0.0183512 0.790477 0)
(-0.0199522 0.788705 0)
(-0.0231915 0.787837 0)
(-0.0269356 0.789166 0)
(-0.0308253 0.794009 0)
(-0.0370691 0.801067 0)
(-0.0452879 0.810995 0)
(-0.0574165 0.822308 0)
(-0.076154 0.827707 0)
(-0.0921216 0.814233 0)
(-0.0923646 0.785971 0)
(-0.0778472 0.756926 0)
(-0.057154 0.740719 0)
(-0.0228044 0.728629 0)
(-0.00652692 0.792462 0)
(0.0184772 0.814567 0)
(0.0310047 0.763433 0)
(0.0496364 0.785089 0)
(0.0664902 0.814894 0)
(0.0783619 0.852706 0)
(0.0732579 0.870611 0)
(0.063656 0.883594 0)
(0.0521192 0.888404 0)
(0.0366147 0.878261 0)
(0.0202174 0.865506 0)
(0.00953808 0.859487 0)
(-0.000918996 0.860245 0)
(-0.0115631 0.860964 0)
(-0.0156018 0.852164 0)
(-0.0137729 0.844181 0)
(-0.01155 0.843267 0)
(-0.0124939 0.84711 0)
(-0.0191832 0.852224 0)
(-0.0311383 0.857041 0)
(-0.0431845 0.861237 0)
(-0.0526572 0.864614 0)
(-0.0622465 0.87175 0)
(-0.0756083 0.884868 0)
(-0.0944806 0.890347 0)
(-0.102158 0.864577 0)
(-0.0928275 0.824664 0)
(-0.0749085 0.787891 0)
(-0.0536647 0.767139 0)
(-0.0346392 0.755408 0)
(-0.0184818 0.81079 0)
(0.0147835 0.773512 0)
(0.0236978 0.733194 0)
(0.0405249 0.743815 0)
(0.064916 0.772056 0)
(0.0888803 0.824784 0)
(0.0913057 0.861022 0)
(0.0796101 0.877981 0)
(0.0693994 0.88492 0)
(0.0551076 0.879504 0)
(0.0350736 0.862974 0)
(0.0197579 0.853868 0)
(0.00454629 0.855316 0)
(-0.00851001 0.849755 0)
(-0.0126244 0.832022 0)
(-0.00782315 0.820089 0)
(-0.00145294 0.820814 0)
(0.000530285 0.830504 0)
(-0.00700313 0.843892 0)
(-0.0242628 0.855099 0)
(-0.0417757 0.856312 0)
(-0.0578505 0.859194 0)
(-0.0747551 0.867626 0)
(-0.0940265 0.883174 0)
(-0.112406 0.883046 0)
(-0.114735 0.836144 0)
(-0.0972712 0.783844 0)
(-0.0685678 0.741745 0)
(-0.0416585 0.725275 0)
(-0.0252111 0.724325 0)
(-0.0146988 0.768021 0)
(0.00717799 0.750442 0)
(0.0103049 0.719918 0)
(0.0243979 0.715227 0)
(0.0526048 0.736325 0)
(0.0848847 0.795713 0)
(0.107102 0.85344 0)
(0.0993996 0.879408 0)
(0.0879725 0.883787 0)
(0.0742455 0.88898 0)
(0.0531369 0.878088 0)
(0.03081 0.867267 0)
(0.00713837 0.868941 0)
(-0.0127884 0.855355 0)
(-0.0183912 0.826961 0)
(-0.00816123 0.807245 0)
(0.00853818 0.809533 0)
(0.0178962 0.828007 0)
(0.0110782 0.854301 0)
(-0.00868793 0.87131 0)
(-0.033565 0.872963 0)
(-0.0624998 0.879656 0)
(-0.0912838 0.882632 0)
(-0.114771 0.891927 0)
(-0.128375 0.881473 0)
(-0.120082 0.814107 0)
(-0.0899099 0.748285 0)
(-0.0537597 0.703889 0)
(-0.0232771 0.695363 0)
(-0.00963371 0.710797 0)
(-0.00608786 0.745245 0)
(-0.000123261 0.743868 0)
(-4.28345e-05 0.70768 0)
(0.0059309 0.689509 0)
(0.0273011 0.700079 0)
(0.0651273 0.748875 0)
(0.106618 0.827381 0)
(0.114206 0.879133 0)
(0.102391 0.884266 0)
(0.0854689 0.893182 0)
(0.0651096 0.88783 0)
(0.0375887 0.878392 0)
(0.00491398 0.881526 0)
(-0.0217751 0.859738 0)
(-0.0293284 0.810457 0)
(-0.0136674 0.777046 0)
(0.0130763 0.780034 0)
(0.0285731 0.813027 0)
(0.0229253 0.858276 0)
(0.00129846 0.884923 0)
(-0.027913 0.891998 0)
(-0.0637206 0.902847 0)
(-0.0984508 0.899737 0)
(-0.125545 0.897465 0)
(-0.131767 0.869232 0)
(-0.11096 0.776296 0)
(-0.0681018 0.700678 0)
(-0.0253855 0.663147 0)
(-0.00306034 0.669689 0)
(0.00204686 0.699645 0)
(0.00075939 0.739335 0)
(0.000620062 0.742362 0)
(-0.00476398 0.709879 0)
(-0.0121411 0.678607 0)
(0.00287537 0.670291 0)
(0.0391529 0.702332 0)
(0.0863423 0.789228 0)
(0.108809 0.872163 0)
(0.0995118 0.891742 0)
(0.0804075 0.903446 0)
(0.0586887 0.902895 0)
(0.0303486 0.901066 0)
(-0.00293979 0.897023 0)
(-0.0288467 0.862727 0)
(-0.0351808 0.794801 0)
(-0.017564 0.742986 0)
(0.0103228 0.746975 0)
(0.0288105 0.795354 0)
(0.0249968 0.857407 0)
(0.00519509 0.895794 0)
(-0.023079 0.914239 0)
(-0.0579807 0.931394 0)
(-0.093491 0.926025 0)
(-0.118725 0.907522 0)
(-0.118677 0.854533 0)
(-0.0894683 0.736914 0)
(-0.0422877 0.650111 0)
(-0.0022217 0.632288 0)
(0.0121448 0.660045 0)
(0.00447786 0.703951 0)
(-0.00102541 0.739021 0)
(-0.00225125 0.744155 0)
(-0.00993964 0.719726 0)
(-0.024981 0.671587 0)
(-0.0163843 0.641417 0)
(0.0127559 0.658451 0)
(0.0526304 0.747295 0)
(0.0802832 0.855442 0)
(0.0851279 0.898641 0)
(0.0723346 0.914056 0)
(0.0484053 0.918146 0)
(0.0155184 0.922036 0)
(-0.0118622 0.913556 0)
(-0.0299818 0.862674 0)
(-0.0315294 0.780062 0)
(-0.0163894 0.713932 0)
(0.00328084 0.71855 0)
(0.0212067 0.777687 0)
(0.020119 0.856436 0)
(0.00267568 0.90853 0)
(-0.0190423 0.933114 0)
(-0.0469613 0.954538 0)
(-0.0779737 0.946885 0)
(-0.0918808 0.910716 0)
(-0.0828741 0.829256 0)
(-0.0572886 0.697646 0)
(-0.0191644 0.603328 0)
(0.0119323 0.60383 0)
(0.0189482 0.655023 0)
(0.00517552 0.712714 0)
(0.0009685 0.738098 0)
(-0.00438843 0.749399 0)
(-0.0129236 0.728807 0)
(-0.0272073 0.672492 0)
(-0.0278243 0.620382 0)
(-0.0104488 0.62704 0)
(0.0143539 0.717186 0)
(0.0443493 0.829395 0)
(0.0694457 0.892567 0)
(0.068207 0.922999 0)
(0.0436782 0.945513 0)
(0.00420332 0.942112 0)
(-0.0151288 0.92733 0)
(-0.0225811 0.858303 0)
(-0.0242064 0.767628 0)
(-0.0133724 0.693556 0)
(-0.00222408 0.697293 0)
(0.0140766 0.757932 0)
(0.0173803 0.850997 0)
(0.00920381 0.918795 0)
(-0.00821904 0.945832 0)
(-0.0362686 0.976068 0)
(-0.0558346 0.957542 0)
(-0.0557237 0.902145 0)
(-0.0377735 0.804238 0)
(-0.0180533 0.671721 0)
(0.00357965 0.571439 0)
(0.018593 0.584544 0)
(0.0190839 0.655163 0)
(0.00690969 0.717933 0)
(0.00368498 0.741285 0)
(-0.00536824 0.752426 0)
(-0.012195 0.731809 0)
(-0.0237495 0.674706 0)
(-0.0300019 0.609631 0)
(-0.0307656 0.611625 0)
(-0.0189217 0.692181 0)
(0.0144363 0.796031 0)
(0.0546711 0.875576 0)
(0.0615836 0.927226 0)
(0.0406453 0.977314 0)
(-0.0020028 0.971449 0)
(-0.0183648 0.933074 0)
(-0.0179396 0.85582 0)
(-0.0172838 0.761647 0)
(-0.0117546 0.685792 0)
(-0.00582625 0.684354 0)
(0.0107216 0.739063 0)
(0.0200308 0.840048 0)
(0.026147 0.924504 0)
(0.00844066 0.9597 0)
(-0.0188237 0.996506 0)
(-0.0323557 0.956246 0)
(-0.0218313 0.881218 0)
(0.00688813 0.780045 0)
(0.0224977 0.649588 0)
(0.0259806 0.556162 0)
(0.022887 0.574435 0)
(0.0166745 0.657226 0)
(0.00619474 0.717534 0)
(0.00408429 0.742064 0)
(-0.00311656 0.756543 0)
(-0.00908902 0.732788 0)
(-0.019582 0.679495 0)
(-0.0292316 0.609543 0)
(-0.0401693 0.609111 0)
(-0.0381074 0.669908 0)
(-0.00353788 0.753654 0)
(0.0377026 0.851335 0)
(0.0532079 0.92596 0)
(0.0377761 1.00061 0)
(0.00208543 0.998194 0)
(-0.0171505 0.934724 0)
(-0.0175617 0.855614 0)
(-0.0183426 0.757342 0)
(-0.0115896 0.682763 0)
(-0.00619357 0.6768 0)
(0.00791548 0.726641 0)
(0.020523 0.824789 0)
(0.0406641 0.923269 0)
(0.0268223 0.976217 0)
(0.00101442 1.01239 0)
(-0.0119509 0.952244 0)
(0.00370235 0.85125 0)
(0.0344844 0.749046 0)
(0.0485388 0.636982 0)
(0.0418521 0.55537 0)
(0.0253333 0.574549 0)
(0.0150714 0.660351 0)
(0.00530201 0.716467 0)
(0.00201924 0.742958 0)
(-0.00134327 0.757998 0)
(-0.00720748 0.732568 0)
(-0.0173448 0.681795 0)
(-0.0298502 0.610264 0)
(-0.0433381 0.612421 0)
(-0.0423969 0.65144 0)
(-0.0125595 0.720697 0)
(0.0261536 0.824946 0)
(0.0468438 0.922245 0)
(0.0400007 1.01943 0)
(0.0121471 1.02398 0)
(-0.0128414 0.939122 0)
(-0.0172859 0.855803 0)
(-0.0140368 0.751732 0)
(-0.00869073 0.679212 0)
(-0.005927 0.669924 0)
(0.00230399 0.716922 0)
(0.0207797 0.804753 0)
(0.0465415 0.914874 0)
(0.0385981 0.99165 0)
(0.0196433 1.02669 0)
(0.0114105 0.950763 0)
(0.0259962 0.82549 0)
(0.0501744 0.723117 0)
(0.0600797 0.629153 0)
(0.0467894 0.559732 0)
(0.0259772 0.579566 0)
(0.0136336 0.662214 0)
(0.00467718 0.715627 0)
(0.000647593 0.742164 0)
(-0.000499078 0.758854 0)
(-0.00748194 0.73316 0)
(-0.0191293 0.684709 0)
(-0.0339584 0.612807 0)
(-0.0458767 0.608721 0)
(-0.0412872 0.630629 0)
(-0.00898987 0.687719 0)
(0.0263949 0.793495 0)
(0.0468532 0.910765 0)
(0.047921 1.02188 0)
(0.0327953 1.04239 0)
(0.00525349 0.945756 0)
(-0.00142895 0.846008 0)
(0.00732655 0.743666 0)
(0.00468577 0.677531 0)
(-0.00262335 0.670044 0)
(-0.00727494 0.714893 0)
(0.0117551 0.783137 0)
(0.0409772 0.90738 0)
(0.0433343 1.00484 0)
(0.0291179 1.03397 0)
(0.0261114 0.946284 0)
(0.0395979 0.80438 0)
(0.0540662 0.705901 0)
(0.0624217 0.628119 0)
(0.0475505 0.5675 0)
(0.0259697 0.587758 0)
(0.0108994 0.662817 0)
(0.00362927 0.714583 0)
(0.000945446 0.741126 0)
(-0.000530339 0.756739 0)
(-0.00767635 0.736185 0)
(-0.0180024 0.688345 0)
(-0.0362112 0.618964 0)
(-0.0516384 0.602668 0)
(-0.0414631 0.602963 0)
(-0.00513556 0.653958 0)
(0.0280258 0.764641 0)
(0.0468117 0.900724 0)
(0.0545415 1.01469 0)
(0.0565784 1.05025 0)
(0.0389836 0.954152 0)
(0.0332025 0.831318 0)
(0.04471 0.742372 0)
(0.0299526 0.686495 0)
(0.0108044 0.683871 0)
(-0.00728677 0.721825 0)
(0.00614102 0.760904 0)
(0.0282133 0.898853 0)
(0.0394556 1.01958 0)
(0.031838 1.046 0)
(0.0301064 0.947537 0)
(0.0388276 0.79212 0)
(0.0436067 0.696266 0)
(0.0588683 0.623635 0)
(0.0501997 0.574855 0)
(0.0290176 0.599705 0)
(0.0105334 0.66311 0)
(0.00563454 0.712204 0)
(0.002166 0.739055 0)
(-0.00219149 0.756268 0)
(-0.00760553 0.737251 0)
(-0.00951944 0.689341 0)
(-0.0241813 0.632189 0)
(-0.0429162 0.597681 0)
(-0.0378034 0.578213 0)
(-0.0123801 0.621041 0)
(0.0166746 0.736804 0)
(0.036788 0.885357 0)
(0.0555586 0.993506 0)
(0.0781745 1.03704 0)
(0.0801042 0.955619 0)
(0.070624 0.818257 0)
(0.078987 0.740856 0)
(0.0663064 0.707328 0)
(0.03848 0.706659 0)
(0.0135177 0.736653 0)
(0.00687305 0.755228 0)
(0.0108254 0.890997 0)
(0.0229777 1.02483 0)
(0.026496 1.05313 0)
(0.0315387 0.956041 0)
(0.0311219 0.79438 0)
(0.0295781 0.691913 0)
(0.0503679 0.611584 0)
(0.0517564 0.579671 0)
(0.0355749 0.61941 0)
(0.0137468 0.665751 0)
(0.0109284 0.711805 0)
(0.00535579 0.744368 0)
(-0.00447691 0.761982 0)
(-0.00879709 0.737909 0)
(-0.00548743 0.686492 0)
(-0.0161581 0.648341 0)
(-0.0325478 0.597268 0)
(-0.0322226 0.5662 0)
(-0.0241921 0.597489 0)
(-0.0121081 0.713162 0)
(0.0105482 0.861679 0)
(0.0444332 0.961278 0)
(0.0868754 1.00942 0)
(0.108043 0.951291 0)
(0.10906 0.814963 0)
(0.0987142 0.745783 0)
(0.0956118 0.729116 0)
(0.0724098 0.742411 0)
(0.0462418 0.77067 0)
(0.0108418 0.777279 0)
(-0.0107512 0.895275 0)
(-0.00514576 1.02505 0)
(0.0180522 1.04738 0)
(0.0386503 0.963264 0)
(0.033004 0.806198 0)
(0.0300208 0.691095 0)
(0.0442989 0.596045 0)
(0.0437807 0.582924 0)
(0.0288221 0.635511 0)
(0.0150149 0.676508 0)
(0.0135724 0.713148 0)
(0.00700906 0.757133 0)
(-0.00484055 0.767409 0)
(-0.00563413 0.736606 0)
(0.00123535 0.691852 0)
(-0.00914819 0.66257 0)
(-0.0243337 0.600653 0)
(-0.0364932 0.566439 0)
(-0.0508085 0.595884 0)
(-0.0530102 0.700731 0)
(-0.0311606 0.83575 0)
(0.0140155 0.92232 0)
(0.0708264 0.972461 0)
(0.109538 0.937142 0)
(0.120419 0.822281 0)
(0.112259 0.760875 0)
(0.112815 0.743173 0)
(0.099127 0.766498 0)
(0.0774217 0.810178 0)
(0.0220015 0.828354 0)
(-0.027714 0.915166 0)
(-0.0201645 1.01096 0)
(0.0204371 1.0212 0)
(0.0577823 0.958289 0)
(0.0567514 0.823634 0)
(0.0511069 0.695901 0)
(0.0449174 0.60048 0)
(0.0262347 0.602926 0)
(0.007635 0.652561 0)
(0.00615805 0.685251 0)
(0.0129352 0.7162 0)
(0.00587456 0.770671 0)
(-0.00188583 0.772614 0)
(0.00663854 0.731308 0)
(0.00871943 0.700351 0)
(0.00130719 0.679926 0)
(-0.0176371 0.61982 0)
(-0.0440733 0.585852 0)
(-0.0781871 0.604786 0)
(-0.0926023 0.69697 0)
(-0.0694075 0.809294 0)
(-0.0195767 0.882898 0)
(0.0421998 0.931176 0)
(0.091104 0.915452 0)
(0.110447 0.821796 0)
(0.116846 0.763131 0)
(0.120684 0.762914 0)
(0.111547 0.78734 0)
(0.0904854 0.84872 0)
(0.0293425 0.894085 0)
(-0.0266126 0.936734 0)
(-0.00583523 0.985115 0)
(0.0431925 0.980727 0)
(0.0915547 0.934514 0)
(0.0979339 0.83483 0)
(0.0785179 0.705309 0)
(0.042934 0.625497 0)
(0.00629943 0.6336 0)
(-0.0154754 0.667697 0)
(-0.0113144 0.688119 0)
(0.0014755 0.718694 0)
(0.000992083 0.786125 0)
(0.00532265 0.766208 0)
(0.0279561 0.72735 0)
(0.0264604 0.711468 0)
(0.00703252 0.693741 0)
(-0.0237651 0.641604 0)
(-0.0675087 0.609559 0)
(-0.112368 0.624149 0)
(-0.12451 0.692002 0)
(-0.084148 0.772182 0)
(-0.0273654 0.84269 0)
(0.0325391 0.890171 0)
(0.0826443 0.888963 0)
(0.110061 0.812651 0)
(0.11471 0.755388 0)
(0.116211 0.769308 0)
(0.111854 0.802941 0)
(0.0881533 0.8873 0)
(0.0355044 0.951157 0)
(0.00237909 0.949564 0)
(0.0342366 0.952152 0)
(0.0846263 0.937085 0)
(0.136273 0.899098 0)
(0.144401 0.840701 0)
(0.106041 0.73308 0)
(0.052976 0.66361 0)
(0.00672483 0.65962 0)
(-0.0186592 0.675404 0)
(-0.0279002 0.686082 0)
(-0.0216712 0.715136 0)
(-0.0114466 0.785411 0)
(0.0118501 0.75685 0)
(0.0301801 0.719189 0)
(0.0216311 0.720674 0)
(-0.0063778 0.711901 0)
(-0.0444157 0.675116 0)
(-0.0947008 0.65201 0)
(-0.137312 0.642541 0)
(-0.140206 0.665948 0)
(-0.0940415 0.72618 0)
(-0.0316177 0.796495 0)
(0.0275621 0.850432 0)
(0.0797647 0.856128 0)
(0.113316 0.800211 0)
(0.115563 0.75509 0)
(0.110486 0.770261 0)
(0.102628 0.813243 0)
(0.0793595 0.916098 0)
(0.0485847 0.982156 0)
(0.0395957 0.94833 0)
(0.0771359 0.921207 0)
(0.132681 0.892894 0)
(0.171204 0.867853 0)
(0.17458 0.852334 0)
(0.128702 0.773322 0)
(0.0720405 0.70827 0)
(0.0246371 0.690646 0)
(-0.00949608 0.692659 0)
(-0.0341041 0.693127 0)
(-0.0376638 0.703009 0)
(-0.0188261 0.763576 0)
(0.0130139 0.733583 0)
(0.00313565 0.713214 0)
(-0.0234263 0.741254 0)
(-0.0520122 0.741495 0)
(-0.0833129 0.71009 0)
(-0.116427 0.684947 0)
(-0.140542 0.655399 0)
(-0.147096 0.640416 0)
(-0.11573 0.667834 0)
(-0.053408 0.743187 0)
(0.0150107 0.80587 0)
(0.0740687 0.82243 0)
(0.116593 0.784144 0)
(0.131106 0.756576 0)
(0.130464 0.768962 0)
(0.112826 0.823189 0)
(0.0896146 0.931621 0)
(0.0764982 0.994069 0)
(0.076864 0.945576 0)
(0.109343 0.885826 0)
(0.156189 0.856688 0)
(0.179965 0.850698 0)
(0.178861 0.858607 0)
(0.139816 0.808713 0)
(0.0947516 0.742773 0)
(0.0554539 0.722514 0)
(0.0201876 0.718046 0)
(-0.00765328 0.709376 0)
(-0.0202351 0.690122 0)
(-0.0185445 0.730541 0)
(-0.000545611 0.738918 0)
(-0.0312931 0.751898 0)
(-0.0660975 0.767807 0)
(-0.0856569 0.754573 0)
(-0.101532 0.726383 0)
(-0.112664 0.699414 0)
(-0.125456 0.670152 0)
(-0.144443 0.646794 0)
(-0.146228 0.641763 0)
(-0.10138 0.68773 0)
(-0.0231343 0.747609 0)
(0.0515508 0.77445 0)
(0.108196 0.751239 0)
(0.142137 0.73669 0)
(0.153446 0.766558 0)
(0.135684 0.84086 0)
(0.116732 0.937639 0)
(0.114475 0.998968 0)
(0.119654 0.94536 0)
(0.136843 0.861467 0)
(0.163514 0.833279 0)
(0.177273 0.842653 0)
(0.171708 0.867317 0)
(0.142757 0.839104 0)
(0.106031 0.771912 0)
(0.0753792 0.744085 0)
(0.0488188 0.730283 0)
(0.0310469 0.718428 0)
(0.0119802 0.70477 0)
(-0.00799775 0.719626 0)
(-0.0135753 0.755358 0)
(-0.0515106 0.775239 0)
(-0.0793742 0.78224 0)
(-0.0958374 0.770032 0)
(-0.103619 0.740764 0)
(-0.10373 0.710235 0)
(-0.108928 0.688001 0)
(-0.132454 0.67264 0)
(-0.153724 0.64253 0)
(-0.133544 0.648974 0)
(-0.0681491 0.692352 0)
(0.0164419 0.721975 0)
(0.081468 0.713227 0)
(0.128023 0.70904 0)
(0.15376 0.75908 0)
(0.155899 0.851462 0)
(0.148818 0.943196 0)
(0.158345 0.997656 0)
(0.172522 0.946736 0)
(0.17294 0.861927 0)
(0.173933 0.825972 0)
(0.172262 0.84238 0)
(0.160523 0.876233 0)
(0.14041 0.861166 0)
(0.104524 0.799983 0)
(0.0773913 0.762353 0)
(0.0604983 0.742021 0)
(0.0473711 0.723447 0)
(0.0303582 0.718196 0)
(0.00645367 0.721891 0)
(-0.0147475 0.783753 0)
(-0.049245 0.808438 0)
(-0.0775636 0.804754 0)
(-0.0896993 0.784731 0)
(-0.0910822 0.74873 0)
(-0.0895584 0.715971 0)
(-0.0922046 0.701544 0)
(-0.115058 0.703186 0)
(-0.143725 0.66105 0)
(-0.139032 0.635652 0)
(-0.0969138 0.64468 0)
(-0.0272483 0.665347 0)
(0.0426386 0.674561 0)
(0.0954206 0.676576 0)
(0.13239 0.741209 0)
(0.153333 0.844061 0)
(0.166259 0.938708 0)
(0.193499 0.982488 0)
(0.221539 0.94668 0)
(0.21956 0.880924 0)
(0.197343 0.836173 0)
(0.174686 0.850894 0)
(0.153736 0.883999 0)
(0.138283 0.876498 0)
(0.105526 0.82905 0)
(0.0719178 0.771919 0)
(0.059639 0.748692 0)
(0.0498405 0.732612 0)
(0.0303117 0.737661 0)
(0.0115028 0.738893 0)
(-0.0147517 0.809727 0)
(-0.0444565 0.840926 0)
(-0.0673882 0.820111 0)
(-0.0694004 0.791864 0)
(-0.0694248 0.751566 0)
(-0.0741356 0.721716 0)
(-0.0806468 0.711789 0)
(-0.0953704 0.724667 0)
(-0.122576 0.681304 0)
(-0.131661 0.636463 0)
(-0.107048 0.627016 0)
(-0.0594742 0.626309 0)
(0.00287787 0.630938 0)
(0.0595628 0.639227 0)
(0.0984421 0.713763 0)
(0.130931 0.823448 0)
(0.165157 0.915462 0)
(0.213749 0.951528 0)
(0.257822 0.937384 0)
(0.265555 0.900942 0)
(0.234956 0.866731 0)
(0.187231 0.87424 0)
(0.150379 0.894109 0)
(0.133732 0.884703 0)
(0.109038 0.855426 0)
(0.0704754 0.787868 0)
(0.0518947 0.752194 0)
(0.0472229 0.740086 0)
(0.0296902 0.756225 0)
(0.0123504 0.756192 0)
(-0.0230021 0.833487 0)
(-0.0366403 0.859127 0)
(-0.0487697 0.823073 0)
(-0.0439906 0.789586 0)
(-0.0484346 0.757115 0)
(-0.0596408 0.729663 0)
(-0.0746762 0.720784 0)
(-0.0815024 0.734866 0)
(-0.102911 0.702559 0)
(-0.121438 0.640387 0)
(-0.111528 0.610569 0)
(-0.0756498 0.595152 0)
(-0.0253795 0.589742 0)
(0.0268851 0.605046 0)
(0.0646754 0.682011 0)
(0.0987169 0.788669 0)
(0.148727 0.872422 0)
(0.216879 0.904978 0)
(0.27904 0.91515 0)
(0.30103 0.912138 0)
(0.273553 0.908505 0)
(0.206688 0.919011 0)
(0.150224 0.918191 0)
(0.121991 0.893434 0)
(0.104253 0.87694 0)
(0.0716902 0.816069 0)
(0.0424533 0.757378 0)
(0.0384389 0.74208 0)
(0.0286122 0.768336 0)
(0.0185411 0.774789 0)
(-0.0278007 0.860946 0)
(-0.0308324 0.860483 0)
(-0.0295271 0.818233 0)
(-0.0297199 0.790427 0)
(-0.0362933 0.763805 0)
(-0.0497793 0.742537 0)
(-0.0674945 0.73103 0)
(-0.0710997 0.735518 0)
(-0.0829488 0.721562 0)
(-0.109223 0.653611 0)
(-0.11144 0.599232 0)
(-0.0859276 0.571522 0)
(-0.0453128 0.557268 0)
(-0.00151027 0.573975 0)
(0.035572 0.653362 0)
(0.0670086 0.753695 0)
(0.126112 0.81642 0)
(0.206005 0.84565 0)
(0.280163 0.877676 0)
(0.315654 0.912145 0)
(0.293527 0.949883 0)
(0.221477 0.979509 0)
(0.150964 0.961196 0)
(0.104481 0.918432 0)
(0.0851912 0.896642 0)
(0.0611199 0.844819 0)
(0.0346341 0.777465 0)
(0.0238977 0.746937 0)
(0.0235699 0.771203 0)
(0.0214996 0.798955 0)
(-0.0189032 0.891755 0)
(-0.0172444 0.851382 0)
(-0.012687 0.818967 0)
(-0.0166989 0.793286 0)
(-0.0260986 0.769459 0)
(-0.0406291 0.755917 0)
(-0.0577412 0.742538 0)
(-0.0640008 0.731276 0)
(-0.0697225 0.733933 0)
(-0.098227 0.67412 0)
(-0.111438 0.595724 0)
(-0.0956716 0.553784 0)
(-0.0643706 0.533165 0)
(-0.0288445 0.548194 0)
(0.00832985 0.62678 0)
(0.0490855 0.718384 0)
(0.109965 0.758679 0)
(0.189894 0.783895 0)
(0.263962 0.829509 0)
(0.30533 0.898973 0)
(0.291543 0.983521 0)
(0.225396 1.04246 0)
(0.150224 1.01732 0)
(0.0873873 0.959374 0)
(0.0568416 0.921462 0)
(0.0370815 0.866115 0)
(0.0173153 0.797449 0)
(0.00902327 0.754765 0)
(0.0126904 0.769051 0)
(0.0131829 0.823242 0)
(-0.00575353 0.906784 0)
(-0.00307362 0.848198 0)
(0.00230593 0.821654 0)
(-0.00255952 0.802335 0)
(-0.0135625 0.780896 0)
(-0.0289949 0.772222 0)
(-0.0467823 0.756549 0)
(-0.0611662 0.735449 0)
(-0.0672819 0.741734 0)
(-0.0917055 0.696481 0)
(-0.113014 0.599204 0)
(-0.104532 0.541252 0)
(-0.0799165 0.516504 0)
(-0.0490013 0.528217 0)
(-0.0126897 0.595888 0)
(0.0375987 0.678149 0)
(0.0977644 0.705896 0)
(0.172137 0.723706 0)
(0.238783 0.777865 0)
(0.276933 0.876303 0)
(0.270782 1.00561 0)
(0.218288 1.09504 0)
(0.147254 1.07988 0)
(0.0724804 1.00931 0)
(0.0296018 0.951161 0)
(0.00886001 0.885545 0)
(-0.00426778 0.814507 0)
(-0.00786034 0.759623 0)
(-0.00167218 0.769363 0)
(0.001997 0.834518 0)
(0.0032121 0.915291 0)
(0.00896122 0.846075 0)
(0.0146928 0.82411 0)
(0.0119374 0.810313 0)
(0.00182468 0.793904 0)
(-0.0163728 0.789744 0)
(-0.0372234 0.775815 0)
(-0.061874 0.748704 0)
(-0.0761578 0.744068 0)
(-0.0954062 0.714127 0)
(-0.118478 0.604014 0)
(-0.112212 0.526871 0)
(-0.0903438 0.502153 0)
(-0.0623136 0.511937 0)
(-0.0277393 0.566597 0)
(0.0217838 0.639148 0)
(0.0827149 0.656698 0)
(0.151843 0.664388 0)
(0.211859 0.72775 0)
(0.243805 0.850908 0)
(0.235825 1.00975 0)
(0.196425 1.12658 0)
(0.138301 1.13348 0)
(0.062647 1.06428 0)
(0.00690339 0.980746 0)
(-0.0189035 0.900664 0)
(-0.0284105 0.822601 0)
(-0.0286546 0.76145 0)
(-0.0181471 0.764304 0)
(-0.00792776 0.836398 0)
(0.00925414 0.91048 0)
(0.0186389 0.841299 0)
(0.0269189 0.823753 0)
(0.0271142 0.817014 0)
(0.0141958 0.809201 0)
(-0.008934 0.808879 0)
(-0.0368987 0.793863 0)
(-0.0684732 0.768177 0)
(-0.094244 0.749667 0)
(-0.111446 0.722031 0)
(-0.127331 0.606305 0)
(-0.125399 0.51045 0)
(-0.10155 0.485116 0)
(-0.0725983 0.494276 0)
(-0.0384036 0.541559 0)
(0.00662853 0.598129 0)
(0.0665222 0.604915 0)
(0.12981 0.604997 0)
(0.184099 0.676712 0)
(0.203471 0.825094 0)
(0.18638 1.00951 0)
(0.163964 1.14177 0)
(0.125318 1.17224 0)
(0.0605602 1.11543 0)
(-0.00712512 1.01451 0)
(-0.0432202 0.913726 0)
(-0.0531292 0.824576 0)
(-0.0492552 0.758015 0)
(-0.0330006 0.753742 0)
(-0.0144888 0.822472 0)
(0.0129175 0.897035 0)
(0.0271096 0.832878 0)
(0.0388531 0.820257 0)
(0.0376524 0.824413 0)
(0.0175094 0.826428 0)
(-0.0137739 0.829908 0)
(-0.0512418 0.815782 0)
(-0.0876824 0.789189 0)
(-0.116947 0.758029 0)
(-0.130069 0.721051 0)
(-0.134663 0.599631 0)
(-0.131576 0.495188 0)
(-0.111019 0.457972 0)
(-0.080078 0.469255 0)
(-0.0432693 0.514021 0)
(0.00142208 0.560296 0)
(0.0528803 0.555335 0)
(0.109068 0.551012 0)
(0.149091 0.635726 0)
(0.145811 0.811102 0)
(0.131427 1.00171 0)
(0.124146 1.13931 0)
(0.106578 1.19452 0)
(0.0583379 1.15886 0)
(-0.00738992 1.05656 0)
(-0.0579324 0.930106 0)
(-0.071615 0.820893 0)
(-0.0613475 0.746265 0)
(-0.040611 0.736705 0)
(-0.0181186 0.801573 0)
(0.0189622 0.877547 0)
(0.0382525 0.822715 0)
(0.0472498 0.817245 0)
(0.0354863 0.838046 0)
(0.00325274 0.849707 0)
(-0.0356636 0.855592 0)
(-0.0763784 0.839652 0)
(-0.112682 0.806729 0)
(-0.135091 0.761351 0)
(-0.138041 0.709337 0)
(-0.131171 0.587514 0)
(-0.126104 0.476117 0)
(-0.108302 0.435278 0)
(-0.0792212 0.438308 0)
(-0.0430861 0.480776 0)
(0.000410092 0.522178 0)
(0.047225 0.511238 0)
(0.0869641 0.501003 0)
(0.0977765 0.612405 0)
(0.083599 0.796894 0)
(0.0778292 0.989306 0)
(0.0807071 1.12876 0)
(0.0791073 1.20243 0)
(0.0538624 1.19094 0)
(0.00115247 1.09643 0)
(-0.0493111 0.952965 0)
(-0.0691772 0.815371 0)
(-0.0602345 0.72693 0)
(-0.0421999 0.718704 0)
(-0.0208935 0.776088 0)
(0.0287406 0.847719 0)
(0.0496588 0.813279 0)
(0.0463602 0.824441 0)
(0.0184765 0.8633 0)
(-0.027157 0.878412 0)
(-0.0672626 0.877625 0)
(-0.103287 0.860439 0)
(-0.132671 0.820733 0)
(-0.151055 0.760934 0)
(-0.138758 0.689561 0)
(-0.120006 0.575859 0)
(-0.113934 0.459507 0)
(-0.10067 0.412228 0)
(-0.0748703 0.411616 0)
(-0.0430429 0.446369 0)
(-0.00257652 0.480541 0)
(0.0362883 0.463815 0)
(0.0635721 0.476861 0)
(0.056941 0.606847 0)
(0.0383961 0.786938 0)
(0.0341548 0.979168 0)
(0.0404431 1.11421 0)
(0.0512984 1.19919 0)
(0.0454529 1.20686 0)
(0.0115314 1.12821 0)
(-0.0322304 0.975846 0)
(-0.0456162 0.815431 0)
(-0.0458305 0.717669 0)
(-0.0394389 0.708289 0)
(-0.0216022 0.746972 0)
(0.0342523 0.808434 0)
(0.0514669 0.809171 0)
(0.0328042 0.842621 0)
(-0.0110185 0.896749 0)
(-0.0651657 0.907297 0)
(-0.0984484 0.895989 0)
(-0.125989 0.879426 0)
(-0.152375 0.834824 0)
(-0.166695 0.757681 0)
(-0.144435 0.658082 0)
(-0.114142 0.556822 0)
(-0.102267 0.446782 0)
(-0.0946314 0.393896 0)
(-0.0729112 0.389347 0)
(-0.0452138 0.415193 0)
(-0.00882359 0.443778 0)
(0.0255937 0.430428 0)
(0.0434922 0.457394 0)
(0.0355474 0.606424 0)
(0.0182268 0.780815 0)
(0.0110008 0.969842 0)
(0.0182861 1.09949 0)
(0.0344818 1.18708 0)
(0.0419659 1.21257 0)
(0.0242975 1.14808 0)
(-0.00696448 0.995436 0)
(-0.0215623 0.812834 0)
(-0.0337399 0.723174 0)
(-0.0354916 0.704248 0)
(-0.0214131 0.719143 0)
(0.0276502 0.756109 0)
(0.0390687 0.807193 0)
(0.00351539 0.86035 0)
(-0.0483863 0.924214 0)
(-0.100767 0.930379 0)
(-0.133651 0.909606 0)
(-0.159254 0.892044 0)
(-0.166478 0.839681 0)
(-0.162052 0.741434 0)
(-0.138727 0.624438 0)
(-0.107041 0.529622 0)
(-0.0906234 0.433997 0)
(-0.0879651 0.378877 0)
(-0.0713291 0.371727 0)
(-0.0495837 0.38932 0)
(-0.0194944 0.410499 0)
(0.0146051 0.403382 0)
(0.0312125 0.445624 0)
(0.0293133 0.606438 0)
(0.0184415 0.782916 0)
(0.010823 0.962874 0)
(0.0196222 1.08538 0)
(0.0349417 1.17235 0)
(0.0501944 1.20699 0)
(0.0475234 1.1557 0)
(0.0263266 1.01054 0)
(-0.00168087 0.823733 0)
(-0.0229767 0.73588 0)
(-0.031528 0.701666 0)
(-0.0207431 0.691264 0)
(0.0128864 0.714385 0)
(0.00924949 0.809538 0)
(-0.0398397 0.880074 0)
(-0.0925257 0.951031 0)
(-0.141959 0.94764 0)
(-0.175486 0.91878 0)
(-0.188579 0.882404 0)
(-0.177943 0.824402 0)
(-0.153557 0.713745 0)
(-0.128632 0.591822 0)
(-0.0949922 0.50316 0)
(-0.0759171 0.425363 0)
(-0.0774355 0.369969 0)
(-0.0667654 0.359304 0)
(-0.0505893 0.371111 0)
(-0.0289144 0.383717 0)
(0.00434662 0.382005 0)
(0.0198257 0.437939 0)
(0.0245628 0.601398 0)
(0.025571 0.784146 0)
(0.0236074 0.95308 0)
(0.0336828 1.07358 0)
(0.0519304 1.1555 0)
(0.0736843 1.1937 0)
(0.0819289 1.15719 0)
(0.0669124 1.03226 0)
(0.0273243 0.854312 0)
(-0.00626183 0.751579 0)
(-0.0208107 0.703269 0)
(-0.0154528 0.669934 0)
(-0.00762986 0.694314 0)
(-0.0282256 0.837155 0)
(-0.0949357 0.912151 0)
(-0.131255 0.972984 0)
(-0.170503 0.965123 0)
(-0.202461 0.929375 0)
(-0.213085 0.872942 0)
(-0.186968 0.791272 0)
(-0.141297 0.674895 0)
(-0.110096 0.559613 0)
(-0.0910196 0.473412 0)
(-0.0710963 0.421241 0)
(-0.0675595 0.366187 0)
(-0.0615342 0.350636 0)
(-0.0499839 0.36035 0)
(-0.0315877 0.366748 0)
(-0.00403336 0.366989 0)
(0.00512357 0.432314 0)
(0.0145141 0.58873 0)
(0.0275352 0.779413 0)
(0.0348849 0.941925 0)
(0.0527344 1.05685 0)
(0.0769579 1.1321 0)
(0.103784 1.1731 0)
(0.117142 1.15433 0)
(0.104287 1.05232 0)
(0.057899 0.892444 0)
(0.0149032 0.775886 0)
(-0.00894681 0.709171 0)
(-0.0101343 0.656389 0)
(-0.0311109 0.708605 0)
(-0.0666244 0.877318 0)
(-0.126402 0.940341 0)
(-0.15361 0.991084 0)
(-0.177186 0.981571 0)
(-0.198548 0.930757 0)
(-0.19707 0.845966 0)
(-0.164853 0.748935 0)
(-0.11951 0.634184 0)
(-0.0884619 0.530428 0)
(-0.0807399 0.458706 0)
(-0.0763644 0.408137 0)
(-0.0650433 0.36361 0)
(-0.0577983 0.343416 0)
(-0.0470798 0.352045 0)
(-0.0233092 0.352937 0)
(-0.00513145 0.358292 0)
(-0.00466112 0.427619 0)
(0.00173477 0.573274 0)
(0.0212181 0.764883 0)
(0.043425 0.920056 0)
(0.072252 1.03049 0)
(0.10201 1.10462 0)
(0.129886 1.15003 0)
(0.145654 1.14983 0)
(0.135305 1.07549 0)
(0.0873034 0.936538 0)
(0.0360457 0.81151 0)
(0.0012022 0.724263 0)
(-0.00487263 0.64849 0)
(-0.0423534 0.758805 0)
(-0.0861659 0.923256 0)
(-0.125891 0.967529 0)
(-0.137351 1.00334 0)
(-0.150937 0.994458 0)
(-0.160988 0.933171 0)
(-0.15648 0.827403 0)
(-0.132838 0.716209 0)
(-0.0995195 0.607227 0)
(-0.078964 0.517259 0)
(-0.0723287 0.450812 0)
(-0.0752876 0.404526 0)
(-0.0675626 0.352234 0)
(-0.0572022 0.334601 0)
(-0.0405458 0.339012 0)
(-0.0158279 0.337393 0)
(-0.00537064 0.351898 0)
(-0.00685788 0.428352 0)
(-0.00751462 0.560933 0)
(0.0166753 0.737756 0)
(0.0553016 0.88812 0)
(0.0913198 0.998047 0)
(0.12296 1.0751 0)
(0.148786 1.12761 0)
(0.163779 1.14535 0)
(0.154351 1.09914 0)
(0.108047 0.987027 0)
(0.0532681 0.855892 0)
(0.0140739 0.745751 0)
(-0.000389009 0.649025 0)
(-0.0457005 0.82565 0)
(-0.0766042 0.954302 0)
(-0.0986144 0.988939 0)
(-0.108054 1.02352 0)
(-0.117933 1.01127 0)
(-0.121283 0.936549 0)
(-0.118832 0.817954 0)
(-0.104959 0.694468 0)
(-0.0857794 0.590469 0)
(-0.0749531 0.512315 0)
(-0.0714509 0.449512 0)
(-0.0721568 0.40152 0)
(-0.0678501 0.344965 0)
(-0.0574297 0.321082 0)
(-0.0358459 0.320589 0)
(-0.0152237 0.323044 0)
(-0.00357506 0.34664 0)
(-0.00359202 0.429577 0)
(-0.00990961 0.549224 0)
(0.015384 0.697155 0)
(0.0635658 0.846845 0)
(0.105885 0.961973 0)
(0.138132 1.04672 0)
(0.161102 1.1079 0)
(0.173302 1.14107 0)
(0.163825 1.12106 0)
(0.119286 1.03374 0)
(0.0610428 0.90418 0)