/*--------------------------------*- C++ -*----------------------------------*\
| =========                 |                                                 |
| \\      /  F ield         | OpenFOAM: The Open Source CFD Toolbox           |
|  \\    /   O peration     | Version:  v1606+                                |
|   \\  /    A nd           | Web:      www.OpenFOAM.com                      |
|    \\/     M anipulation  |                                                 |
\*---------------------------------------------------------------------------*/
FoamFile
{
    version     2.0;
    format      ascii;
    class       volScalarField;
    location    "1.6";
    object      alpha.particles;
}
// * * * * * * * * * * * * * * * * * * * * * * * * * * * * * * * * * * * * * //

dimensions      [0 0 0 0 0 0 0];

internalField   nonuniform List<scalar> 
6000
(
0.387691
0.407682
0.424414
0.424416
0.424416
0.424417
0.424418
0.424418
0.424418
0.424418
0.424418
0.424417
0.41284
0.416672
0.421341
0.42266
0.42427
0.425131
0.425131
0.425132
0.425131
0.425131
0.42513
0.425126
0.420192
0.420918
0.417582
0.416883
0.411214
0.426451
0.344094
0.344094
0.346362
0.354019
0.369463
0.39261
0.409376
0.417545
0.423819
0.419064
0.415773
0.411419
0.41125
0.41125
0.41125
0.411251
0.411251
0.413218
0.420729
0.425132
0.419391
0.390472
0.371946
0.36287
0.362514
0.362446
0.362439
0.362437
0.362439
0.362468
0.37213
0.377788
0.375708
0.365272
0.362789
0.360142
0.362706
0.370323
0.399582
0.429348
0.441286
0.441266
0.441357
0.441309
0.441397
0.441359
0.441447
0.441328
0.424602
0.412392
0.393538
0.389665
0.389183
0.392937
0.399496
0.409523
0.416991
0.423926
0.415251
0.42046
0.432928
0.434608
0.417539
0.38236
0.359931
0.341077
0.325887
0.320208
0.33681
0.377899
0.412902
0.441354
0.441322
0.441402
0.441361
0.441465
0.441375
0.439705
0.390042
0.356227
0.350794
0.389645
0.430789
0.451125
0.462044
0.477553
0.490367
0.494596
0.489304
0.49229
0.513086
0.509305
0.489338
0.444994
0.409481
0.378964
0.345102
0.314769
0.29853
0.312558
0.348191
0.412332
0.441442
0.441365
0.441467
0.441397
0.44152
0.422771
0.338138
0.302284
0.310684
0.394593
0.477749
0.498634
0.49864
0.498634
0.498636
0.498631
0.498631
0.498629
0.513087
0.513088
0.513087
0.513085
0.489516
0.458556
0.402178
0.328937
0.283251
0.276535
0.293984
0.347745
0.422064
0.439577
0.434553
0.433774
0.438753
0.383554
0.309736
0.280317
0.283424
0.380463
0.481124
0.49864
0.498634
0.47036
0.439841
0.420834
0.418921
0.453289
0.481778
0.498431
0.507803
0.499952
0.512564
0.51257
0.469083
0.350845
0.276958
0.26392
0.270599
0.296142
0.343304
0.358431
0.338458
0.33142
0.351682
0.333057
0.300158
0.277431
0.277571
0.362677
0.472487
0.473463
0.380424
0.338296
0.314175
0.29069
0.28243
0.304054
0.321527
0.338197
0.354753
0.353788
0.405723
0.504079
0.493477
0.360276
0.274185
0.262972
0.262891
0.270072
0.281212
0.278802
0.25579
0.244426
0.255404
0.276608
0.28907
0.276434
0.277936
0.357306
0.449616
0.375854
0.316711
0.306034
0.296645
0.276895
0.276845
0.276898
0.304642
0.304642
0.304642
0.304643
0.305251
0.385921
0.444597
0.363114
0.280005
0.262805
0.262646
0.262431
0.258101
0.245653
0.230965
0.230469
0.230391
0.236526
0.271038
0.274252
0.282958
0.356859
0.425784
0.376587
0.360462
0.376205
0.37021
0.297725
0.2769
0.276903
0.304643
0.304642
0.312106
0.304643
0.309993
0.367025
0.437086
0.386613
0.30916
0.274698
0.267466
0.262754
0.250946
0.234162
0.230534
0.230467
0.230474
0.230539
0.249228
0.270018
0.294769
0.366633
0.437549
0.42237
0.436962
0.467525
0.475614
0.381179
0.282066
0.276945
0.324196
0.35859
0.367338
0.348756
0.378353
0.424621
0.477104
0.452365
0.381496
0.318514
0.28876
0.269728
0.248833
0.230641
0.230549
0.230528
0.23053
0.230615
0.235149
0.263719
0.309309
0.387672
0.463585
0.486161
0.499863
0.517551
0.524571
0.489494
0.347775
0.296045
0.428704
0.450086
0.444495
0.439543
0.479249
0.506497
0.524092
0.516075
0.474196
0.399785
0.33601
0.290227
0.253656
0.233917
0.231201
0.230568
0.230621
0.230673
0.232955
0.260667
0.322565
0.414245
0.49404
0.522107
0.529529
0.533657
0.533615
0.53362
0.450328
0.378694
0.529199
0.517821
0.519669
0.524474
0.539936
0.545235
0.546489
0.544583
0.533588
0.487561
0.410652
0.334154
0.279525
0.257578
0.252181
0.24892
0.244624
0.240831
0.243387
0.269576
0.340703
0.44118
0.51686
0.533095
0.53366
0.53363
0.533676
0.533593
0.498024
0.465893
0.55223
0.552202
0.551717
0.552198
0.552227
0.55221
0.551815
0.550735
0.549422
0.538903
0.489193
0.406465
0.342042
0.316858
0.313954
0.309938
0.298633
0.285034
0.284576
0.307997
0.37993
0.475274
0.527659
0.533648
0.533628
0.533689
0.533603
0.456639
0.452417
0.470596
0.552256
0.552271
0.552246
0.55226
0.552236
0.552239
0.551408
0.549901
0.549777
0.54975
0.537765
0.485859
0.425975
0.402924
0.41123
0.410324
0.399128
0.379553
0.372964
0.390533
0.446502
0.514067
0.5336
0.533586
0.530528
0.497548
0.424991
0.367625
0.372576
0.412468
0.552195
0.552217
0.552273
0.552241
0.55226
0.550356
0.542559
0.543346
0.545803
0.549033
0.549016
0.533389
0.496488
0.483239
0.503931
0.507805
0.50391
0.48923
0.473677
0.48137
0.50245
0.514523
0.512518
0.452545
0.334326
0.317472
0.332835
0.347009
0.347098
0.350539
0.477459
0.496144
0.551612
0.550387
0.551641
0.515336
0.501454
0.525902
0.535096
0.544301
0.549016
0.546172
0.535177
0.532909
0.532798
0.523238
0.50121
0.469613
0.443241
0.433742
0.420766
0.390914
0.314173
0.238431
0.231824
0.272171
0.342727
0.359509
0.347123
0.347159
0.375226
0.367903
0.454934
0.451837
0.409427
0.351974
0.343601
0.456775
0.525108
0.538037
0.546417
0.546372
0.538442
0.483562
0.422399
0.3871
0.342576
0.295005
0.265367
0.241835
0.207852
0.175021
0.156367
0.16859
0.230489
0.318483
0.388249
0.39185
0.363539
0.366682
0.367367
0.333143
0.340666
0.324275
0.251673
0.17154
0.144165
0.239266
0.43555
0.536922
0.545269
0.54539
0.46956
0.342864
0.276899
0.241092
0.20145
0.16527
0.138746
0.122169
0.11324
0.113337
0.133168
0.193104
0.291359
0.393299
0.444271
0.436621
0.406647
0.417753
0.395577
0.333142
0.334558
0.306969
0.221797
0.119341
0.0730305
0.0823139
0.185978
0.387119
0.474101
0.461331
0.362378
0.29136
0.264617
0.235138
0.196655
0.157138
0.125196
0.112185
0.112185
0.114573
0.160988
0.266319
0.383486
0.457624
0.479191
0.475941
0.460164
0.474943
0.435281
0.368347
0.382227
0.366511
0.264923
0.133791
0.064971
0.0639673
0.0676895
0.172434
0.31133
0.352822
0.335325
0.314745
0.298397
0.272789
0.231302
0.184124
0.142423
0.11977
0.116725
0.14087
0.234337
0.364385
0.454213
0.490473
0.501275
0.504153
0.50262
0.511669
0.478165
0.43024
0.442278
0.443032
0.358983
0.198718
0.078454
0.0639673
0.0639674
0.111823
0.235255
0.320045
0.348391
0.350369
0.345822
0.327965
0.289773
0.237336
0.184125
0.150355
0.1469
0.207446
0.338321
0.447099
0.49532
0.511044
0.51732
0.521594
0.524581
0.528708
0.517782
0.492424
0.496511
0.499275
0.461427
0.326206
0.147032
0.078024
0.067712
0.113113
0.224431
0.314363
0.36429
0.379325
0.382559
0.376154
0.350468
0.301856
0.244109
0.207175
0.21646
0.315489
0.438284
0.504644
0.523728
0.529609
0.532686
0.534839
0.536547
0.537742
0.540291
0.532645
0.533178
0.533302
0.523696
0.465856
0.312628
0.149589
0.100496
0.145612
0.237909
0.325629
0.384979
0.406097
0.413887
0.41533
0.40405
0.368232
0.317696
0.289951
0.329183
0.433346
0.51135
0.53737
0.543864
0.546505
0.547259
0.546858
0.546288
0.545466
0.545849
0.545719
0.545839
0.545836
0.544546
0.536402
0.479584
0.309567
0.189491
0.230777
0.297849
0.374044
0.426232
0.443298
0.447857
0.448872
0.445032
0.42618
0.399643
0.399931
0.45482
0.520218
0.547133
0.553155
0.555614
0.556722
0.556662
0.555695
0.554327
0.552705
0.545855
0.545854
0.545852
0.545845
0.545813
0.544387
0.542158
0.45939
0.343134
0.36023
0.40243
0.454391
0.48391
0.488793
0.48502
0.480036
0.477719
0.477595
0.482584
0.504348
0.536865
0.554344
0.558037
0.559044
0.559521
0.55962
0.559619
0.559493
0.558908
0.557834
0.545855
0.545855
0.545798
0.541228
0.503278
0.503132
0.510192
0.508572
0.486449
0.477677
0.500441
0.520476
0.526146
0.522732
0.514676
0.509124
0.512122
0.524367
0.539663
0.552425
0.558694
0.559523
0.559579
0.559612
0.559631
0.559634
0.559637
0.559658
0.559672
0.559704
0.545812
0.545703
0.467731
0.346273
0.31148
0.315075
0.338168
0.423289
0.532994
0.536705
0.537819
0.538517
0.538382
0.534778
0.530358
0.532144
0.541037
0.551533
0.558052
0.559471
0.559539
0.559568
0.559595
0.55961
0.55961
0.559626
0.559653
0.559672
0.559709
0.559716
0.464152
0.383385
0.288827
0.225164
0.216134
0.21629
0.220014
0.259091
0.398472
0.51457
0.539261
0.539282
0.539318
0.535885
0.538119
0.546885
0.555681
0.559275
0.559481
0.559506
0.55951
0.559535
0.55954
0.556484
0.55138
0.555234
0.553545
0.558695
0.559693
0.559717
0.349174
0.272843
0.247739
0.232933
0.225799
0.223
0.221097
0.222158
0.252521
0.339102
0.433162
0.504775
0.539233
0.538454
0.543875
0.555269
0.559412
0.559459
0.559454
0.559466
0.558951
0.557263
0.553662
0.501822
0.396256
0.388454
0.468199
0.54555
0.550207
0.559689
0.335115
0.283117
0.269421
0.261613
0.258129
0.25633
0.252025
0.246317
0.247051
0.249723
0.275518
0.331533
0.429427
0.526619
0.550687
0.559345
0.559406
0.559403
0.557636
0.553485
0.549791
0.550763
0.484099
0.333504
0.264451
0.26269
0.291899
0.349078
0.467299
0.552066
0.35673
0.309691
0.298052
0.294854
0.295947
0.298331
0.297923
0.293531
0.28158
0.268468
0.261126
0.26121
0.295251
0.426723
0.55568
0.559299
0.555302
0.547239
0.52829
0.506172
0.483966
0.429965
0.314763
0.26264
0.261399
0.255374
0.226233
0.210545
0.274627
0.446571
0.383104
0.340435
0.329728
0.331083
0.335961
0.341771
0.345466
0.343797
0.335855
0.318597
0.296938
0.290369
0.306242
0.374388
0.503898
0.547476
0.511789
0.448171
0.399238
0.351291
0.299244
0.249219
0.237654
0.273003
0.296968
0.281407
0.23672
0.205265
0.205269
0.318879
0.408418
0.375515
0.370706
0.373439
0.379947
0.385877
0.390497
0.390199
0.386247
0.375158
0.361411
0.363868
0.381453
0.403195
0.424365
0.406759
0.312307
0.219777
0.198362
0.178199
0.161834
0.165781
0.221334
0.309631
0.3572
0.321178
0.256432
0.208185
0.205266
0.280022
0.429839
0.410123
0.413963
0.420668
0.429678
0.431907
0.431142
0.429761
0.428182
0.424724
0.427099
0.446228
0.465314
0.437423
0.32157
0.180713
0.0965366
0.0709084
0.0800718
0.0907721
0.102458
0.132118
0.219634
0.354402
0.412481
0.35289
0.275359
0.219416
0.205267
0.284999
0.445851
0.431104
0.454652
0.467544
0.476927
0.474928
0.466419
0.457075
0.456281
0.460646
0.476096
0.493654
0.480934
0.357783
0.16254
0.0578449
0.0334967
0.0338503
0.0420728
0.0548387
0.07107
0.11084
0.232597
0.402854
0.428029
0.364607
0.289847
0.238962
0.224514
0.316256
0.460776
0.431598
0.484444
0.506773
0.51633
0.512647
0.497184
0.476075
0.468272
0.479539
0.493805
0.49356
0.372752
0.159728
0.0562364
0.0293515
0.0275606
0.0280105
0.0317891
0.038741
0.0509464
0.100809
0.271394
0.43052
0.427929
0.36444
0.303068
0.271402
0.269753
0.35621
0.501702
0.432037
0.50172
0.531358
0.538955
0.538852
0.530228
0.501076
0.473972
0.485806
0.493602
0.382973
0.15649
0.0510641
0.0299044
0.0275769
0.0276118
0.0275776
0.0287508
0.0313166
0.0393307
0.0998252
0.303186
0.430527
0.406033
0.358934
0.322608
0.31349
0.330742
0.391145
0.539837
0.484226
0.520248
0.544831
0.548483
0.548483
0.546848
0.53267
0.497752
0.480187
0.394542
0.185166
0.056834
0.0303907
0.0275862
0.0275995
0.0275843
0.0276359
0.0280003
0.0285126
0.0340763
0.0965087
0.303341
0.426731
0.399648
0.370549
0.353866
0.362864
0.387338
0.424741
0.548435
0.539514
0.544173
0.548487
0.548478
0.548501
0.548495
0.548469
0.529353
0.468581
0.283211
0.0959441
0.0367731
0.0276495
0.0276276
0.0275961
0.0276378
0.0277304
0.0278239
0.0278609
0.0326166
0.0952221
0.315253
0.440672
0.428616
0.419268
0.400819
0.412399
0.421488
0.45298
0.548454
0.548453
0.548479
0.548432
0.52929
0.548403
0.548496
0.548492
0.544213
0.482488
0.249603
0.0767514
0.0336234
0.0276676
0.0276493
0.0276439
0.0280315
0.028497
0.0283986
0.0284861
0.0330969
0.100583
0.379077
0.471894
0.470094
0.469689
0.450148
0.4484
0.426333
0.469022
0.528854
0.548466
0.548414
0.514488
0.303945
0.442321
0.540274
0.548487
0.548458
0.511998
0.279523
0.0758765
0.0351307
0.0298739
0.0310162
0.0339701
0.0371411
0.0384773
0.0378375
0.0376182
0.0453225
0.119853
0.442856
0.488033
0.499527
0.496443
0.484922
0.465522
0.427142
0.478629
0.478463
0.548365
0.51813
0.224325
0.0942248
0.174159
0.4144
0.541578
0.548399
0.528259
0.313158
0.100738
0.0546559
0.0483229
0.0528557
0.06507
0.0759877
0.0793173
0.0786653
0.0808729
0.106773
0.219687
0.444974
0.506527
0.519544
0.518925
0.510634
0.47832
0.427704
0.491825
0.466134
0.532179
0.304022
0.0753647
0.0548952
0.0682104
0.165273
0.380261
0.490184
0.486631
0.322127
0.173193
0.117663
0.103705
0.109566
0.132401
0.153337
0.159315
0.163209
0.178328
0.239422
0.380741
0.487319
0.516324
0.527952
0.527961
0.525765
0.501972
0.453202
0.522887
0.465902
0.458668
0.173677
0.0548956
0.0548947
0.0602675
0.0984578
0.192399
0.26323
0.268692
0.290165
0.242975
0.184846
0.170355
0.172995
0.190967
0.212935
0.220589
0.231549
0.26203
0.344286
0.4993
0.520158
0.520161
0.505831
0.519453
0.526275
0.526093
0.51893
0.542772
0.49931
0.432726
0.126821
0.0548953
0.0548953
0.0638089
0.0958634
0.163431
0.20116
0.163393
0.173522
0.202249
0.187858
0.187299
0.190538
0.196204
0.205725
0.211008
0.218888
0.238791
0.273141
0.322803
0.350604
0.312812
0.242596
0.306294
0.486619
0.542163
0.542807
0.542811
0.517136
0.425815
0.118617
0.0548957
0.0549486
0.0697353
0.104407
0.166639
0.20069
0.151561
0.0974876
0.11315
0.134312
0.143217
0.148894
0.152186
0.149674
0.148685
0.147562
0.145427
0.127229
0.103344
0.0994046
0.0845591
0.0807088
0.104239
0.237392
0.510079
0.542832
0.542811
0.522151
0.405105
0.117508
0.0556693
0.0595143
0.0777059
0.117585
0.174207
0.199364
0.150811
0.0813843
0.0620097
0.0720066
0.080696
0.0851551
0.0860686
0.0816651
0.0784235
0.074923
0.0692948
0.0596928
0.0548935
0.057511
0.0616529
0.0698605
0.0806533
0.121303
0.326621
0.542662
0.527224
0.480697
0.366051
0.122203
0.064171
0.0687834
0.0877052
0.13169
0.183683
0.198523
0.150881
0.0773794
0.0496367
0.0487736
0.0511659
0.0528085
0.0530345
0.0517019
0.0505228
0.0496155
0.0494585
0.0502992
0.0526175
0.0576583
0.0662586
0.0772217
0.0886112
0.105256
0.214091
0.428002
0.478843
0.420633
0.352518
0.146521
0.0792771
0.0819402
0.101097
0.147791
0.192935
0.198328
0.147781
0.073139
0.0474252
0.0456889
0.0456663
0.0460413
0.0460994
0.046105
0.0463261
0.0464157
0.0478552
0.0512886
0.0557135
0.0623002
0.0724861
0.0838925
0.0978377
0.117766
0.195561
0.384344
0.470092
0.414247
0.360154
0.165806
0.0968749
0.0975111
0.117272
0.165337
0.203634
0.19728
0.136847
0.0662121
0.0467764
0.0456443
0.0456706
0.0456715
0.0457053
0.0457995
0.0466351
0.047541
0.0496996
0.0543497
0.0603911
0.0681434
0.0784486
0.090309
0.105467
0.132103
0.226412
0.373691
0.472466
0.430397
0.357675
0.176782
0.114957
0.114429
0.135921
0.183376
0.214634
0.194851
0.120376
0.0590562
0.0465721
0.0456895
0.0456711
0.0457024
0.0458542
0.0463064
0.0479026
0.0499536
0.0531511
0.0584591
0.065083
0.0735628
0.0842334
0.0971868
0.114186
0.147658
0.256134
0.377606
0.471992
0.4464
0.354556
0.185708
0.132981
0.132215
0.156538
0.201756
0.225944
0.18905
0.100465
0.0542397
0.0466649
0.0456866
0.0457017
0.0457149
0.0464666
0.0477428
0.0500538
0.0528432
0.0569058
0.0624947
0.0693989
0.0784146
0.0894043
0.10319
0.12339
0.169948
0.29382
0.375108
0.471758
0.456117
0.352767
0.196818
0.151334
0.151487
0.179613
0.22055
0.232521
0.174302
0.0806619
0.0522617
0.0470742
0.0457169
0.0457142
0.0457594
0.0475615
0.0497391
0.052505
0.0557085
0.0604391
0.0663922
0.073606
0.0828993
0.0942706
0.109497
0.134155
0.198083
0.335993
0.372647
0.461494
0.460436
0.339308
0.207428
0.17145
0.173887
0.205813
0.241492
0.233502
0.146197
0.0667272
0.0517603
0.0477984
0.0461662
0.0460743
0.0465946
0.0490464
0.0517799
0.0549051
0.0585764
0.0637828
0.0701446
0.0777114
0.0872755
0.0992123
0.116219
0.144982
0.234029
0.376699
0.372902
0.453711
0.445403
0.311985
0.219401
0.194942
0.200058
0.23348
0.262615
0.227967
0.110194
0.060305
0.0520431
0.0488971
0.0475206
0.0475024
0.0484553
0.0508982
0.0538691
0.0571982
0.0615236
0.0671206
0.0737759
0.0817113
0.0916505
0.104449
0.12344
0.158475
0.270467
0.412609
0.380508
0.452518
0.379119
0.296819
0.238679
0.222921
0.233281
0.267264
0.269648
0.194231
0.0842763
0.0581246
0.0526554
0.0504528
0.0497121
0.0498938
0.0507508
0.0529833
0.0561072
0.0595004
0.064385
0.0703941
0.0772686
0.085725
0.0963124
0.110195
0.131579
0.175019
0.307887
0.43909
0.409015
0.485027
0.332925
0.296043
0.269367
0.258888
0.279865
0.31203
0.269635
0.138067
0.0716935
0.0579946
0.0538571
0.0525803
0.0524952
0.0527519
0.0531483
0.0551853
0.0583379
0.0618146
0.0671232
0.0735004
0.0808009
0.0900078
0.101379
0.116407
0.140287
0.196598
0.34686
0.46262
0.468958
0.516875
0.315916
0.309489
0.304448
0.30617
0.336334
0.348769
0.223192
0.101962
0.0668083
0.0584837
0.0557408
0.0552598
0.0555556
0.0555709
0.0555844
0.0576772
0.0606078
0.0641947
0.0698538
0.0766506
0.0846077
0.0946202
0.106702
0.12292
0.149341
0.224165
0.390491
0.490998
0.514863
0.533156
0.317377
0.318217
0.33378
0.360507
0.394017
0.363835
0.184194
0.090075
0.0658901
0.0598519
0.0584069
0.0584176
0.0585884
0.0581613
0.0582318
0.0604284
0.0630866
0.0668465
0.0726656
0.0799371
0.0885366
0.0992067
0.112022
0.129569
0.158905
0.2528
0.431753
0.518252
0.532555
0.533163
0.318483
0.327118
0.371363
0.413111
0.444148
0.376238
0.178405
0.0893372
0.0660177
0.0619233
0.0619278
0.0618895
0.0614087
0.0607395
0.0613348
0.0633636
0.0658318
0.0697546
0.0756338
0.0832065
0.0923845
0.103692
0.117464
0.136835
0.169975
0.269248
0.452534
0.533139
0.533157
0.533159
0.354518
0.363186
0.410259
0.452527
0.472533
0.41972
0.230765
0.0989221
0.0669364
0.0638615
0.0656766
0.065308
0.0640925
0.0635593
0.0647851
0.0664683
0.0689323
0.0729414
0.0787918
0.0865098
0.0962131
0.10825
0.123266
0.144875
0.182448
0.275628
0.45157
0.531272
0.505175
0.511601
0.420646
0.413803
0.459826
0.48027
0.479082
0.455017
0.311122
0.123467
0.069723
0.0651739
0.0681013
0.0684927
0.0671909
0.0665535
0.0682849
0.0698848
0.0723748
0.0764222
0.0822125
0.0899675
0.10013
0.112873
0.129246
0.153353
0.197007
0.29736
0.448977
0.498871
0.499123
0.520609
0.491397
0.478884
0.502053
0.508042
0.500656
0.477007
0.347822
0.152034
0.0775043
0.0671484
0.0687708
0.0712632
0.0714667
0.069644
0.0716755
0.0737602
0.076195
0.0802606
0.0859629
0.0937126
0.104204
0.117599
0.135371
0.162197
0.214756
0.337598
0.476783
0.496441
0.503178
0.529572
0.529556
0.526688
0.529893
0.528917
0.521386
0.492186
0.350917
0.171396
0.091726
0.0726902
0.0698012
0.0736425
0.0767056
0.0737183
0.0751989
0.0781795
0.0805795
0.0845529
0.0901084
0.0978523
0.108529
0.122475
0.141555
0.171073
0.235323
0.375951
0.501251
0.51351
0.526807
0.540458
0.534732
0.53194
0.530031
0.523079
0.52299
0.469527
0.319808
0.180914
0.110072
0.0833429
0.0751797
0.0777876
0.0829239
0.0797996
0.0800168
0.0834879
0.0860264
0.0896119
0.0948389
0.102513
0.113256
0.12773
0.148106
0.180377
0.256577
0.404592
0.514209
0.527236
0.537426
0.544635
0.522849
0.518784
0.516765
0.511861
0.508825
0.457257
0.328209
0.205676
0.133499
0.100535
0.0887297
0.0878599
0.0920498
0.0890451
0.0880444
0.0911507
0.0937363
0.0966
0.101077
0.108338
0.119127
0.134507
0.156733
0.19281
0.282516
0.43219
0.528372
0.534478
0.543009
0.547174
0.51883
0.518841
0.519899
0.525431
0.525944
0.508714
0.405385
0.261832
0.171043
0.130934
0.114635
0.109299
0.109035
0.1055
0.103144
0.104853
0.106858
0.109075
0.112724
0.119404
0.130959
0.148817
0.175689
0.221173
0.332571
0.484312
0.539241
0.540872
0.547184
0.547303
0.53268
0.541873
0.545769
0.547574
0.543483
0.533652
0.474601
0.338933
0.233426
0.183019
0.159018
0.146562
0.139221
0.133371
0.129032
0.128529
0.129607
0.131452
0.135595
0.144416
0.161352
0.1898
0.234307
0.305323
0.420371
0.524744
0.539785
0.542505
0.546928
0.547302
0.549698
0.5497
0.549677
0.547603
0.541602
0.531269
0.492018
0.407786
0.324743
0.26808
0.229897
0.203545
0.185707
0.174641
0.167445
0.164491
0.164812
0.167194
0.174193
0.189628
0.220228
0.272589
0.346991
0.431322
0.498502
0.527895
0.531895
0.538357
0.542009
0.547296
0.54972
0.549701
0.546532
0.53948
0.531359
0.515423
0.495733
0.471902
0.43446
0.385203
0.334298
0.289596
0.256097
0.234937
0.222438
0.216768
0.21681
0.221429
0.234105
0.259717
0.305306
0.373161
0.449289
0.504013
0.527774
0.535051
0.534533
0.536469
0.537284
0.546391
0.549709
0.542463
0.532286
0.525571
0.519094
0.51671
0.51926
0.525322
0.51642
0.491393
0.451367
0.401595
0.355061
0.321258
0.300774
0.291687
0.291478
0.299868
0.319907
0.354591
0.404245
0.460704
0.503925
0.523492
0.533684
0.541072
0.54317
0.541902
0.538869
0.540474
0.536839
0.531569
0.531426
0.531281
0.534946
0.540663
0.54896
0.552686
0.55052
0.544901
0.531736
0.504485
0.465183
0.427432
0.401083
0.388547
0.387231
0.397992
0.421079
0.454234
0.488939
0.513903
0.524561
0.529323
0.535126
0.54204
0.547019
0.548434
0.545623
0.54085
0.530217
0.532002
0.541432
0.549336
0.555507
0.56012
0.562296
0.561286
0.558941
0.557231
0.555724
0.551003
0.537703
0.51675
0.49591
0.483009
0.479704
0.48674
0.501104
0.517596
0.529743
0.534843
0.535029
0.534753
0.53708
0.541971
0.546669
0.549933
0.550451
0.544731
0.530227
0.545091
0.55698
0.562312
0.565079
0.565068
0.563445
0.560419
0.557397
0.555734
0.555282
0.55528
0.5552
0.551289
0.543719
0.536737
0.533227
0.533698
0.536253
0.539223
0.542019
0.543504
0.542768
0.54103
0.540827
0.543025
0.546484
0.549482
0.550566
0.548335
0.539384
0.55946
0.565316
0.566648
0.566485
0.563795
0.557614
0.551852
0.548044
0.548045
0.55033
0.553376
0.554794
0.555106
0.553645
0.55099
0.548657
0.547291
0.546763
0.546955
0.547831
0.548629
0.548257
0.546708
0.545423
0.545632
0.547194
0.549276
0.550606
0.549055
0.555116
0.565785
0.566724
0.566658
0.561821
0.549382
0.531816
0.523701
0.521108
0.529757
0.539786
0.548852
0.553524
0.555236
0.555482
0.554608
0.553378
0.552366
0.551746
0.551573
0.551866
0.552248
0.552036
0.55097
0.549637
0.54891
0.548974
0.549669
0.550695
0.549111
0.563989
0.566736
0.566686
0.561074
0.539173
0.509147
0.49096
0.489533
0.491568
0.508327
0.528821
0.545291
0.553061
0.555832
0.556708
0.556614
0.556083
0.555529
0.555121
0.554928
0.55496
0.555047
0.554836
0.554093
0.553014
0.552058
0.551384
0.550867
0.55075
0.54916
0.566746
0.566717
0.561953
0.535417
0.490555
0.474427
0.474207
0.474238
0.481464
0.498953
0.529367
0.546575
0.55418
0.55704
0.558006
0.558198
0.55806
0.557824
0.557606
0.557456
0.557388
0.557325
0.55709
0.556527
0.555679
0.554772
0.553901
0.552814
0.551386
0.549203
0.566721
0.562353
0.539989
0.484573
0.458098
0.465553
0.474659
0.476162
0.481461
0.500592
0.533902
0.550713
0.556602
0.558608
0.559319
0.559571
0.559622
0.559577
0.559497
0.559414
0.559336
0.559226
0.558991
0.558534
0.55785
0.557049
0.556199
0.555034
0.552924
0.54954
0.561979
0.542422
0.500586
0.453279
0.45682
0.466898
0.481123
0.490561
0.490253
0.510623
0.544959
0.556118
0.559171
0.560127
0.56055
0.560793
0.560928
0.560992
0.561008
0.56099
0.560941
0.560838
0.560628
0.560248
0.559677
0.558972
0.558187
0.557115
0.554934
0.550799
0.545488
0.505343
0.46903
0.453228
0.457094
0.474938
0.493955
0.511894
0.521216
0.537411
0.556018
0.560176
0.56106
0.561386
0.561657
0.561888
0.562064
0.56219
0.56227
0.562308
0.5623
0.562229
0.56206
0.561747
0.561263
0.560631
0.559902
0.55893
0.55691
0.552697
0.529417
0.474873
0.459806
0.453286
0.465522
0.485504
0.521918
0.542631
0.548343
0.556543
0.561629
0.562228
0.562232
0.562388
0.562629
0.562865
0.563068
0.563234
0.56336
0.563444
0.563478
0.56345
0.563332
0.563085
0.562677
0.562108
0.561418
0.560513
0.558687
0.554791
0.529408
0.486846
0.48135
0.465325
0.490733
0.527507
0.551648
0.558681
0.560585
0.562799
0.563297
0.56301
0.562995
0.563204
0.563475
0.563733
0.563961
0.564157
0.564318
0.564441
0.564518
0.564536
0.564475
0.564299
0.563969
0.563465
0.562809
0.561939
0.560271
0.556822
0.524703
0.506045
0.509824
0.521194
0.542786
0.558702
0.56347
0.563467
0.563301
0.56333
0.563336
0.563367
0.563584
0.563903
0.564222
0.564508
0.56476
0.56498
0.565169
0.565326
0.565444
0.565512
0.565509
0.565408
0.565167
0.564745
0.564137
0.56329
0.561727
0.55869
0.52457
0.529866
0.54698
0.558086
0.564716
0.564718
0.564038
0.562946
0.562827
0.563085
0.563346
0.563706
0.564132
0.564546
0.564908
0.565216
0.565484
0.56572
0.56593
0.566116
0.566272
0.566387
0.566445
0.566422
0.566278
0.565961
0.565437
0.564636
0.563145
0.560411
0.524706
0.553577
0.56439
0.564848
0.564878
0.564253
0.561609
0.561052
0.561732
0.562628
0.563441
0.564118
0.564703
0.565181
0.565564
0.565878
0.566147
0.566386
0.566608
0.566816
0.567007
0.567168
0.567284
0.567337
0.567293
0.567102
0.566707
0.566009
0.564609
0.562076
0.539856
0.56483
0.564881
0.564911
0.563817
0.55804
0.556061
0.558137
0.560495
0.562413
0.563736
0.564668
0.565343
0.565837
0.566207
0.566501
0.566751
0.566979
0.567204
0.567431
0.567656
0.567863
0.568031
0.56815
0.5682
0.568139
0.567908
0.567389
0.566165
0.563809
0.557941
0.564888
0.564938
0.56478
0.55251
0.543548
0.548421
0.555233
0.559882
0.562709
0.564355
0.56539
0.566059
0.566509
0.566829
0.567076
0.567288
0.567492
0.567708
0.567951
0.568219
0.568482
0.568705
0.568873
0.568991
0.569041
0.568978
0.568699
0.567792
0.565724
0.564913
0.56496
0.564818
0.547526
0.519817
0.526335
0.541918
0.554138
0.560442
0.563606
0.565292
0.566242
0.566808
0.567163
0.567401
0.567579
0.567736
0.567897
0.568076
0.568313
0.568627
0.568988
0.56932
0.569538
0.569688
0.5698
0.569865
0.569829
0.569369
0.567852
0.564954
0.56487
0.550309
0.489091
0.489268
0.516634
0.542265
0.555642
0.562033
0.564961
0.566368
0.567102
0.56751
0.567745
0.567884
0.567979
0.568049
0.568112
0.568202
0.56838
0.568704
0.569192
0.569743
0.570149
0.570414
0.570547
0.570679
0.570769
0.570658
0.569882
0.564879
0.550775
0.488284
0.473583
0.482823
0.519945
0.545814
0.558746
0.56408
0.566336
0.567352
0.567849
0.568099
0.568211
0.568247
0.568232
0.568152
0.568035
0.567952
0.567919
0.568022
0.568486
0.569368
0.570361
0.57108
0.571368
0.571602
0.571716
0.571765
0.571558
0.555555
0.484553
0.473565
0.473599
0.48933
0.527215
0.551565
0.561845
0.565829
0.56744
0.568128
0.568434
0.568547
0.568545
0.56847
0.568299
0.568013
0.567571
0.56685
0.565779
0.564571
0.564446
0.566003
0.568452
0.570561
0.571837
0.572496
0.572833
0.572964
0.573016
0.528346
0.473641
0.473605
0.473616
0.502613
0.536856
0.556554
0.564159
0.567101
0.568248
0.568699
0.568857
0.568856
0.568755
0.56855
0.568175
0.567488
0.566109
0.563461
0.558766
0.552275
0.549384
0.552069
0.558292
0.565376
0.569829
0.572396
0.573787
0.574207
0.574305
0.505689
0.47367
0.478638
0.476145
0.515178
0.545554
0.560079
0.565792
0.568006
0.568821
0.569096
0.569138
0.569053
0.568865
0.568512
0.567807
0.566205
0.562643
0.555149
0.540032
0.520379
0.512255
0.515492
0.526401
0.545983
0.55931
0.568218
0.572925
0.574914
0.574972
0.491242
0.473713
0.497544
0.487314
0.527064
0.551713
0.562513
0.566943
0.568631
0.569196
0.56934
0.569307
0.569177
0.568931
0.568393
0.567028
0.563602
0.555603
0.537494
0.508356
0.486113
0.4771
0.480629
0.489971
0.506699
0.525911
0.549498
0.5657
0.572812
0.574954
0.49117
0.494208
0.526288
0.502806
0.536342
0.556135
0.564315
0.567748
0.569016
0.569398
0.569462
0.56941
0.569285
0.569007
0.568129
0.565518
0.55872
0.542077
0.508998
0.484872
0.476377
0.47477
0.473328
0.473221
0.472851
0.484881
0.502909
0.539655
0.562219
0.572755
0.498144
0.53049
0.534623
0.507186
0.541435
0.559511
0.565789
0.568303
0.569194
0.569463
0.569518
0.5695
0.569432
0.569093
0.567554
0.562697
0.549666
0.520747
0.471988
0.471594
0.469092
0.469207
0.464798
0.458751
0.455497
0.462283
0.473174
0.504113
0.532873
0.562265
0.523351
0.534646
0.534638
0.5073
0.542136
0.561839
0.566979
0.568646
0.569207
0.569451
0.569567
0.569631
0.569646
0.569128
0.566384
0.557605
0.534257
0.49
0.45135
0.455236
0.458019
0.458248
0.455188
0.453143
0.454304
0.461834
0.470157
0.493339
0.511188
0.541141
0.534661
0.534657
0.534366
0.512964
0.541967
0.563253
0.567758
0.568764
0.569133
0.569428
0.569647
0.569836
0.569924
0.569007
0.564191
0.547848
0.509015
0.454096
0.451176
0.455576
0.46716
0.462505
0.453169
0.453104
0.455998
0.465625
0.47837
0.497212
0.497348
0.49903
0.534668
0.53466
0.53136
0.52326
0.544985
0.564199
0.56799
0.568651
0.569018
0.569425
0.569764
0.570104
0.57022
0.568602
0.560618
0.533511
0.474423
0.454036
0.456593
0.470374
0.494027
0.494635
0.487038
0.479932
0.47271
0.466158
0.475268
0.4971
0.47747
0.447302
0.513813
0.525582
0.524215
0.526826
0.550963
0.564603
0.56768
0.568366
0.568889
0.569439
0.569902
0.570409
0.570481
0.567897
0.554868
0.51483
0.467804
0.461438
0.486585
0.514521
0.537506
0.541117
0.538894
0.531448
0.520485
0.501958
0.485565
0.475387
0.450415
0.447184
0.436153
0.463646
0.499599
0.527569
0.55435
0.564246
0.566984
0.56794
0.568742
0.569462
0.57005
0.570701
0.570667
0.567242
0.548321
0.501894
0.482982
0.501951
0.537945
0.55565
0.56353
0.565755
0.566127
0.564813
0.561223
0.551309
0.526655
0.483349
0.447187
0.447184
0.406605
0.412552
0.47681
0.531579
0.555841
0.563644
0.566173
0.567434
0.568565
0.569477
0.570169
0.570774
0.570686
0.566212
0.540567
0.508394
0.523813
0.550268
0.565133
0.568406
0.568391
0.567475
0.5665
0.566435
0.566443
0.56637
0.563659
0.533387
0.477591
0.447187
0.412436
0.423683
0.488325
0.538143
0.556931
0.563193
0.565407
0.566861
0.568342
0.569471
0.570232
0.570781
0.570156
0.564235
0.540702
0.532582
0.556636
0.568546
0.56917
0.568439
0.565272
0.560478
0.555967
0.55664
0.561895
0.566347
0.566324
0.566118
0.543032
0.476786
0.446812
0.461279
0.51507
0.545415
0.558184
0.563155
0.564684
0.566168
0.568059
0.569467
0.570286
0.570865
0.569469
0.562948
0.548902
0.556929
0.568776
0.570018
0.569142
0.563944
0.555032
0.545425
0.536829
0.532543
0.528493
0.550457
0.566145
0.566253
0.566003
0.536013
0.489538
0.499687
0.532315
0.550227
0.559742
0.563428
0.563604
0.56508
0.567652
0.56951
0.570441
0.570903
0.569611
0.564934
0.561345
0.567508
0.571106
0.570015
0.565547
0.556913
0.548467
0.544767
0.538375
0.52689
0.519047
0.519113
0.537008
0.566014
0.566222
0.565912
0.512828
0.516846
0.533756
0.552701
0.561502
0.563655
0.560934
0.562865
0.56682
0.569522
0.570847
0.571486
0.571123
0.569474
0.569606
0.571709
0.571449
0.568155
0.560447
0.551644
0.548574
0.55022
0.54931