/*--------------------------------*- C++ -*----------------------------------*\
| =========                 |                                                 |
| \\      /  F ield         | OpenFOAM: The Open Source CFD Toolbox           |
|  \\    /   O peration     | Version:  v1606+                                |
|   \\  /    A nd           | Web:      www.OpenFOAM.com                      |
|    \\/     M anipulation  |                                                 |
\*---------------------------------------------------------------------------*/
FoamFile
{
    version     2.0;
    format      ascii;
    class       volVectorField;
    location    "1.6";
    object      U.air;
}
// * * * * * * * * * * * * * * * * * * * * * * * * * * * * * * * * * * * * * //

dimensions      [0 1 -1 0 0 0 0];

internalField   nonuniform List<vector> 
6000
(
(-0.00138396 0.196982 0)
(0.02804 0.134821 0)
(0.058104 0.161821 0)
(0.0764807 0.206791 0)
(0.0664605 0.232846 0)
(0.058618 0.24499 0)
(0.0557496 0.245506 0)
(0.0400538 0.236485 0)
(0.0231443 0.210402 0)
(-5.12201e-05 0.189035 0)
(-0.0244662 0.183358 0)
(-0.0313437 0.179588 0)
(-0.0303638 0.182342 0)
(-0.0218077 0.171333 0)
(0.00150132 0.164565 0)
(0.0228109 0.168397 0)
(0.0274475 0.171728 0)
(0.0109841 0.187172 0)
(-0.0120683 0.225758 0)
(-0.0323192 0.260278 0)
(-0.0595643 0.270079 0)
(-0.108166 0.273174 0)
(-0.156872 0.271161 0)
(-0.172662 0.255418 0)
(-0.163553 0.239964 0)
(-0.124627 0.23688 0)
(-0.0821453 0.225958 0)
(-0.0461319 0.198052 0)
(-0.0304384 0.184163 0)
(-0.00894797 0.198179 0)
(0.0828279 0.882275 0)
(0.141411 0.926558 0)
(0.197642 0.9473 0)
(0.249741 0.986406 0)
(0.268105 1.02109 0)
(0.264888 1.04119 0)
(0.235145 1.08575 0)
(0.154352 1.13403 0)
(0.0577576 1.14285 0)
(-0.0234577 1.13956 0)
(-0.0620853 1.09553 0)
(-0.0596065 1.05881 0)
(-0.0318322 1.03904 0)
(0.000311045 1.02197 0)
(0.017928 1.017 0)
(0.0291797 1.0302 0)
(0.0344204 1.07045 0)
(0.0229377 1.10709 0)
(-0.0328959 1.13223 0)
(-0.134372 1.14709 0)
(-0.271031 1.15265 0)
(-0.383235 1.13407 0)
(-0.400259 1.02769 0)
(-0.358338 0.954079 0)
(-0.294825 0.902824 0)
(-0.211991 0.862174 0)
(-0.128056 0.870306 0)
(-0.0458237 0.914833 0)
(-0.0160228 0.937562 0)
(-0.0296551 0.913992 0)
(0.0424881 0.549954 0)
(0.132901 0.592562 0)
(0.233166 0.595581 0)
(0.333111 0.684722 0)
(0.393726 0.749352 0)
(0.436543 0.8091 0)
(0.409936 0.891086 0)
(0.310368 0.9877 0)
(0.13864 0.986526 0)
(0.00582718 0.930509 0)
(-0.0586257 0.85701 0)
(-0.0636327 0.776913 0)
(-0.0280105 0.753051 0)
(-0.00288534 0.761441 0)
(0.00966899 0.772955 0)
(0.0116007 0.784641 0)
(0.0289354 0.8134 0)
(0.070403 0.866207 0)
(0.0205877 1.02392 0)
(-0.182367 1.09188 0)
(-0.444252 1.11297 0)
(-0.589564 0.95743 0)
(-0.531092 0.772876 0)
(-0.398237 0.67078 0)
(-0.268401 0.622034 0)
(-0.170805 0.591241 0)
(-0.0908795 0.596816 0)
(-0.0183336 0.629379 0)
(0.00112783 0.754983 0)
(-0.0160369 0.71674 0)
(0.0168538 0.581638 0)
(0.0918935 0.59299 0)
(0.162712 0.593444 0)
(0.270364 0.668672 0)
(0.381906 0.717083 0)
(0.509647 0.786646 0)
(0.59484 0.935357 0)
(0.5819 1.12965 0)
(0.417217 1.20057 0)
(0.196735 1.10531 0)
(0.0143533 1.00495 0)
(-0.0702257 0.869684 0)
(-0.0526787 0.831736 0)
(-0.0143477 0.843767 0)
(0.00628685 0.867551 0)
(0.0116061 0.87603 0)
(0.0351953 0.877488 0)
(0.0690088 0.920323 0)
(-0.00632839 1.18316 0)
(-0.249333 1.33401 0)
(-0.538296 1.34231 0)
(-0.642477 1.00339 0)
(-0.528184 0.681559 0)
(-0.332593 0.588173 0)
(-0.170436 0.599583 0)
(-0.0814454 0.617857 0)
(-0.0275261 0.671152 0)
(-0.0159295 0.757804 0)
(-0.0123162 0.870569 0)
(-0.0101249 0.81495 0)
(-0.0140037 0.589144 0)
(0.00536024 0.58074 0)
(0.0251784 0.531809 0)
(0.0991781 0.545224 0)
(0.217262 0.558162 0)
(0.389709 0.594967 0)
(0.587917 0.782796 0)
(0.700203 1.10614 0)
(0.639064 1.31829 0)
(0.431462 1.27327 0)
(0.197473 1.13162 0)
(0.0184374 0.892484 0)
(-0.0353416 0.798658 0)
(-0.000432564 0.846664 0)
(0.0142331 0.908854 0)
(-0.000864587 0.917592 0)
(0.00946024 0.87389 0)
(-0.00959857 0.932906 0)
(-0.10911 1.3014 0)
(-0.278793 1.49306 0)
(-0.46556 1.43467 0)
(-0.511547 0.89599 0)
(-0.410905 0.491646 0)
(-0.255056 0.427469 0)
(-0.113868 0.516828 0)
(-0.0340948 0.607688 0)
(-0.00791145 0.69234 0)
(-0.0158459 0.80074 0)
(-0.0376271 0.935464 0)
(-0.0159907 0.862114 0)
(-0.0339897 0.722866 0)
(-0.0348123 0.670832 0)
(-0.020113 0.592383 0)
(0.00389346 0.554702 0)
(0.053931 0.489166 0)
(0.192503 0.415995 0)
(0.410191 0.567136 0)
(0.604031 1.01126 0)
(0.641344 1.35861 0)
(0.564442 1.39028 0)
(0.444133 1.27493 0)
(0.283427 1.02615 0)
(0.141622 0.813466 0)
(0.0928384 0.823908 0)
(0.0531754 0.909203 0)
(-0.0221859 0.934492 0)
(-0.0920314 0.870758 0)
(-0.177492 0.993245 0)
(-0.250358 1.34395 0)
(-0.2644 1.53439 0)
(-0.29327 1.47896 0)
(-0.298518 0.838302 0)
(-0.262171 0.37163 0)
(-0.161639 0.337271 0)
(-0.0894587 0.448101 0)
(-0.0639583 0.53256 0)
(-0.0416393 0.622565 0)
(-0.027833 0.7303 0)
(-0.0300303 0.838568 0)
(-0.000411238 0.753444 0)
(-0.00909434 0.702978 0)
(0.002036 0.615237 0)
(0.0218934 0.542038 0)
(0.009749 0.543576 0)
(-0.0174824 0.467594 0)
(0.0577007 0.297163 0)
(0.204042 0.359475 0)
(0.382688 0.843864 0)
(0.493767 1.29844 0)
(0.542829 1.368 0)
(0.574331 1.29964 0)
(0.535727 1.119 0)
(0.418287 0.89984 0)
(0.282012 0.866346 0)
(0.157791 0.958664 0)
(0.0170565 0.992603 0)
(-0.149652 0.924722 0)
(-0.304003 1.05643 0)
(-0.346564 1.29425 0)
(-0.267158 1.45467 0)
(-0.189121 1.39952 0)
(-0.140558 0.787874 0)
(-0.125755 0.303254 0)
(-0.144356 0.25521 0)
(-0.160559 0.414059 0)
(-0.151663 0.48673 0)
(-0.0864263 0.559752 0)
(-0.0177961 0.708454 0)
(0.0201044 0.837267 0)
(0.0344462 0.760357 0)
(0.0284579 0.680046 0)
(0.0635242 0.594343 0)
(0.0613526 0.523988 0)
(0.0653281 0.538997 0)
(0.0475603 0.433377 0)
(0.0419897 0.22293 0)
(0.0546232 0.235002 0)
(0.164905 0.684535 0)
(0.322627 1.15417 0)
(0.459896 1.24047 0)
(0.568214 1.21577 0)
(0.618949 1.11535 0)
(0.560744 0.986391 0)
(0.414899 0.964935 0)
(0.250966 1.05554 0)
(0.102902 1.11164 0)
(-0.0758152 1.09305 0)
(-0.25838 1.1427 0)
(-0.324869 1.23261 0)
(-0.26039 1.34416 0)
(-0.162663 1.28997 0)
(-0.0984612 0.736055 0)
(-0.129093 0.306029 0)
(-0.258418 0.316187 0)
(-0.314789 0.394337 0)
(-0.249498 0.360453 0)
(-0.111973 0.374476 0)
(0.0179452 0.54519 0)
(0.0559005 0.684858 0)
(0.0576302 0.719912 0)
(0.0312107 0.527528 0)
(0.0801731 0.495618 0)
(0.100351 0.45504 0)
(0.136766 0.455034 0)
(0.137439 0.442561 0)
(0.0898354 0.233597 0)
(0.00795753 0.198218 0)
(0.025427 0.53411 0)
(0.208334 0.959167 0)
(0.393546 1.09367 0)
(0.509928 1.09918 0)
(0.573398 1.06896 0)
(0.539383 1.03516 0)
(0.417272 1.06427 0)
(0.278124 1.1321 0)
(0.17721 1.15711 0)
(0.0697774 1.18996 0)
(-0.0722634 1.25362 0)
(-0.181648 1.22528 0)
(-0.205455 1.273 0)
(-0.136646 1.18958 0)
(-0.0903809 0.719632 0)
(-0.152869 0.384388 0)
(-0.265246 0.391891 0)
(-0.283277 0.331094 0)
(-0.219066 0.225328 0)
(-0.105349 0.198312 0)
(0.0490377 0.438635 0)
(0.0957432 0.679105 0)
(0.067712 0.755858 0)
(0.00467662 0.4603 0)
(0.0700041 0.439035 0)
(0.11282 0.377814 0)
(0.151525 0.413616 0)
(0.148056 0.40523 0)
(0.100287 0.301803 0)
(-0.0170214 0.282071 0)
(-0.0472856 0.452644 0)
(0.0935623 0.744285 0)
(0.302507 0.933951 0)
(0.432573 1.00044 0)
(0.488055 1.02769 0)
(0.465128 1.07419 0)
(0.37731 1.15201 0)
(0.291324 1.18757 0)
(0.235068 1.21272 0)
(0.174125 1.25371 0)
(0.103972 1.31905 0)
(-0.0047046 1.30021 0)
(-0.0974382 1.25899 0)
(-0.0748105 1.11391 0)
(-0.0496161 0.720468 0)
(-0.108763 0.448043 0)
(-0.173179 0.418886 0)
(-0.173598 0.311793 0)
(-0.162959 0.188815 0)
(-0.13363 0.129203 0)
(-0.0409966 0.288266 0)
(0.0737327 0.692273 0)
(0.0710872 0.828363 0)
(0.0158535 0.435181 0)
(0.0950353 0.369874 0)
(0.112396 0.336184 0)
(0.0984503 0.4129 0)
(0.0856167 0.413976 0)
(0.0377466 0.381902 0)
(-0.0341167 0.34533 0)
(-0.0794522 0.423342 0)
(-0.0233854 0.579011 0)
(0.139889 0.75927 0)
(0.297592 0.88837 0)
(0.37504 0.98915 0)
(0.37305 1.09873 0)
(0.331977 1.19718 0)
(0.300405 1.21509 0)
(0.285483 1.23585 0)
(0.262061 1.28557 0)
(0.229803 1.35959 0)
(0.153773 1.39106 0)
(0.055237 1.29344 0)
(0.0397383 1.07349 0)
(0.0485189 0.726904 0)
(0.00508607 0.508982 0)
(-0.0449253 0.443913 0)
(-0.0644977 0.326116 0)
(-0.0961925 0.204229 0)
(-0.133888 0.153366 0)
(-0.118002 0.223419 0)
(-0.0535392 0.624735 0)
(0.0156852 0.906312 0)
(0.0150212 0.381748 0)
(0.0590161 0.340217 0)
(0.0377524 0.387487 0)
(0.0106751 0.456611 0)
(0.00824843 0.446705 0)
(-0.0103988 0.440278 0)
(-0.0670805 0.426927 0)
(-0.127518 0.465959 0)
(-0.129081 0.53044 0)
(-0.0525272 0.628771 0)
(0.0757097 0.759344 0)
(0.193948 0.922098 0)
(0.237435 1.09499 0)
(0.253305 1.19531 0)
(0.285018 1.20555 0)
(0.326852 1.22697 0)
(0.350567 1.2862 0)
(0.345649 1.38064 0)
(0.306484 1.45082 0)
(0.235832 1.35198 0)
(0.197958 1.07361 0)
(0.185074 0.747936 0)
(0.139632 0.57102 0)
(0.0833101 0.487601 0)
(0.0359752 0.368335 0)
(-0.0200308 0.253785 0)
(-0.0812838 0.220923 0)
(-0.139601 0.295031 0)
(-0.147961 0.621431 0)
(-0.0680391 0.898557 0)
(0.0107658 0.422908 0)
(0.0143027 0.413378 0)
(-0.0109577 0.433312 0)
(-0.0155543 0.481388 0)
(-0.0162659 0.481499 0)
(-0.0466532 0.493072 0)
(-0.105966 0.502733 0)
(-0.175016 0.527718 0)
(-0.216883 0.556872 0)
(-0.205058 0.596704 0)
(-0.140543 0.668484 0)
(-0.0498621 0.833284 0)
(0.0468167 1.05394 0)
(0.120006 1.15051 0)
(0.213849 1.14537 0)
(0.320108 1.17572 0)
(0.403839 1.26647 0)
(0.445385 1.40135 0)
(0.4465 1.49475 0)
(0.415376 1.41688 0)
(0.374943 1.11576 0)
(0.336473 0.802399 0)
(0.278986 0.647926 0)
(0.209117 0.562412 0)
(0.135395 0.444654 0)
(0.0729777 0.335905 0)
(0.0360348 0.320216 0)
(-0.069189 0.452551 0)
(-0.180217 0.685206 0)
(-0.0966002 0.848604 0)
(0.000449017 0.444286 0)
(-0.0046289 0.440894 0)
(-0.0174581 0.463377 0)
(-0.0258707 0.501586 0)
(-0.0416631 0.521931 0)
(-0.0818129 0.551073 0)
(-0.145758 0.579655 0)
(-0.22126 0.599915 0)
(-0.287 0.611753 0)
(-0.319078 0.621022 0)
(-0.29927 0.655672 0)
(-0.245119 0.778645 0)
(-0.145543 0.98065 0)
(-0.0249782 1.07633 0)
(0.101568 1.05158 0)
(0.234068 1.08485 0)
(0.354855 1.20621 0)
(0.446648 1.38881 0)
(0.500483 1.5258 0)
(0.527803 1.48709 0)
(0.514791 1.19722 0)
(0.4672 0.897115 0)
(0.397485 0.746236 0)
(0.311923 0.657196 0)
(0.231362 0.559182 0)
(0.182589 0.461017 0)
(0.133961 0.428062 0)
(-0.00047317 0.598742 0)
(-0.122659 0.714934 0)
(-0.069898 0.743838 0)
(-0.00100558 0.482685 0)
(-0.0138433 0.485133 0)
(-0.0296597 0.494188 0)
(-0.0439147 0.529678 0)
(-0.0629975 0.562782 0)
(-0.102976 0.6169 0)
(-0.181596 0.666237 0)
(-0.273343 0.676853 0)
(-0.346472 0.672655 0)
(-0.394512 0.664457 0)
(-0.40231 0.675212 0)
(-0.352502 0.761313 0)
(-0.260787 0.926404 0)
(-0.115425 1.0079 0)
(0.00974361 0.975045 0)
(0.11753 1.02274 0)
(0.220341 1.1507 0)
(0.318431 1.37027 0)
(0.405554 1.5403 0)
(0.499479 1.52215 0)
(0.550451 1.28303 0)
(0.517378 1.00285 0)
(0.448336 0.856327 0)
(0.38494 0.788982 0)
(0.278975 0.710773 0)
(0.111121 0.527329 0)
(-0.0334544 0.511626 0)
(-0.0965222 0.669477 0)
(-0.0717075 0.696584 0)
(-0.023787 0.623922 0)
(-0.0074235 0.54412 0)
(-0.0436686 0.528622 0)
(-0.0541223 0.508447 0)
(-0.0521817 0.557046 0)
(-0.0589487 0.59826 0)
(-0.103517 0.692143 0)
(-0.22701 0.77193 0)
(-0.34935 0.750921 0)
(-0.412155 0.721394 0)
(-0.443058 0.693744 0)
(-0.44399 0.689993 0)
(-0.397285 0.744011 0)
(-0.296634 0.870372 0)
(-0.140448 0.948638 0)
(-0.0298663 0.968633 0)
(0.0449962 1.05125 0)
(0.108153 1.19449 0)
(0.189055 1.41393 0)
(0.298158 1.57624 0)
(0.405047 1.5492 0)
(0.475016 1.35955 0)
(0.454642 1.12427 0)
(0.380463 0.961846 0)
(0.236175 0.840001 0)
(-0.012143 0.841616 0)
(-0.216626 0.705432 0)
(-0.273222 0.568684 0)
(-0.177111 0.554535 0)
(-0.0649343 0.583925 0)
(-0.0084142 0.555782 0)
(0.00941186 0.608767 0)
(-0.0462647 0.637917 0)
(-0.0366118 0.484864 0)
(-0.0299478 0.550916 0)
(-0.0371729 0.634413 0)
(-0.112425 0.804725 0)
(-0.31904 0.918938 0)
(-0.461255 0.811279 0)
(-0.488776 0.726912 0)
(-0.478177 0.68256 0)
(-0.441796 0.666173 0)
(-0.370313 0.692731 0)
(-0.251847 0.776152 0)
(-0.112734 0.894877 0)
(-0.0378105 0.986569 0)
(0.0317477 1.06345 0)
(0.090264 1.1779 0)
(0.13908 1.30857 0)
(0.202372 1.42828 0)
(0.258984 1.38201 0)
(0.247213 1.22642 0)
(0.144477 1.0467 0)
(-0.0396711 1.0154 0)
(-0.306839 1.08538 0)
(-0.435752 0.998031 0)
(-0.377775 0.683463 0)
(-0.239181 0.413463 0)
(-0.132346 0.414495 0)
(-0.0574165 0.498331 0)
(-0.0178247 0.487075 0)
(0.0361081 0.564089 0)
(0.138873 0.618983 0)
(0.0792828 0.527706 0)
(0.147993 0.553087 0)
(0.203129 0.593716 0)
(0.0746284 0.840371 0)
(-0.233117 0.997402 0)
(-0.480112 0.807894 0)
(-0.540027 0.689216 0)
(-0.491438 0.62205 0)
(-0.425406 0.598745 0)
(-0.324955 0.589839 0)
(-0.192312 0.656075 0)
(-0.089387 0.809901 0)
(-0.0617632 0.831849 0)
(-0.0413006 0.864783 0)
(-0.0158563 0.978997 0)
(0.0174419 1.16184 0)
(0.0429209 1.30353 0)
(0.00257984 1.33913 0)
(-0.141637 1.34413 0)
(-0.364381 1.23955 0)
(-0.589118 1.21257 0)
(-0.614571 1.06037 0)
(-0.460497 0.804982 0)
(-0.230572 0.444677 0)
(-0.122314 0.293033 0)
(-0.0808347 0.34539 0)
(-0.0515164 0.464271 0)
(-0.0162356 0.447422 0)
(0.0624255 0.431176 0)
(0.22154 0.587189 0)
(0.333622 0.425189 0)
(0.442211 0.363409 0)
(0.51104 0.608046 0)
(0.375871 1.02203 0)
(0.120697 1.24453 0)
(-0.262589 0.953822 0)
(-0.47615 0.608434 0)
(-0.470465 0.563135 0)
(-0.409069 0.523879 0)
(-0.339007 0.493897 0)
(-0.248606 0.585133 0)
(-0.246519 0.727129 0)
(-0.235092 0.852416 0)
(-0.232286 0.886188 0)
(-0.210366 0.983094 0)
(-0.175789 1.06198 0)
(-0.186254 1.22718 0)
(-0.283675 1.32705 0)
(-0.439478 1.35159 0)
(-0.578083 1.2895 0)
(-0.605934 1.11768 0)
(-0.419547 0.807597 0)
(-0.172102 0.519764 0)
(-0.0234936 0.311028 0)
(-0.0153564 0.275858 0)
(-0.0349985 0.341392 0)
(-0.0347811 0.448751 0)
(-0.00446153 0.422871 0)
(0.0278403 0.284546 0)
(0.145009 0.44635 0)
(0.229103 0.331949 0)
(0.299997 0.294969 0)
(0.395132 0.532782 0)
(0.46322 0.994777 0)
(0.418649 1.35339 0)
(0.171621 1.22012 0)
(-0.248593 0.759828 0)
(-0.487668 0.455753 0)
(-0.52165 0.495807 0)
(-0.489242 0.489887 0)
(-0.542355 0.579883 0)
(-0.555322 0.745505 0)
(-0.51911 0.725384 0)
(-0.456279 0.722713 0)
(-0.384706 0.745629 0)
(-0.333612 0.910538 0)
(-0.313602 1.14103 0)
(-0.359921 1.31579 0)
(-0.441076 1.35596 0)
(-0.469167 1.24608 0)
(-0.329411 0.929996 0)
(-0.0907621 0.592177 0)
(0.0645839 0.370385 0)
(0.0830055 0.307781 0)
(0.0406137 0.317281 0)
(-0.00655519 0.369107 0)
(-0.0158031 0.445062 0)
(0.00258406 0.425926 0)
(-0.0186617 0.244532 0)
(0.0210107 0.377891 0)
(0.0457222 0.26068 0)
(0.050811 0.183012 0)
(0.112948 0.349849 0)
(0.302833 0.832423 0)
(0.46009 1.32878 0)
(0.371502 1.34252 0)
(0.0367682 1.11745 0)
(-0.425255 0.672229 0)
(-0.643602 0.464954 0)
(-0.706078 0.509504 0)
(-0.716145 0.627464 0)
(-0.666571 0.675805 0)
(-0.598029 0.654316 0)
(-0.536333 0.659283 0)
(-0.479283 0.750267 0)
(-0.416648 0.877019 0)
(-0.366875 1.14537 0)
(-0.345655 1.3703 0)
(-0.348323 1.39134 0)
(-0.252685 1.14551 0)
(-0.024217 0.756933 0)
(0.151721 0.442113 0)
(0.179655 0.368906 0)
(0.141167 0.358245 0)
(0.0746317 0.37367 0)
(0.0220496 0.405705 0)
(0.00371732 0.447199 0)
(0.004234 0.435446 0)
(-0.039281 0.276071 0)
(-0.0342574 0.363259 0)
(-0.0438001 0.286058 0)
(-0.0893044 0.214806 0)
(-0.117591 0.249045 0)
(0.0224401 0.588792 0)
(0.342788 1.22756 0)
(0.411999 1.46921 0)
(0.201198 1.37181 0)
(-0.168137 0.961167 0)
(-0.464238 0.620897 0)
(-0.563563 0.528328 0)
(-0.588848 0.575712 0)
(-0.550533 0.627565 0)
(-0.519652 0.632357 0)
(-0.506201 0.642937 0)
(-0.479185 0.718728 0)
(-0.434849 0.896727 0)
(-0.367877 1.11242 0)
(-0.312971 1.34605 0)
(-0.223135 1.31911 0)
(-0.0160236 1.02264 0)
(0.198541 0.589788 0)
(0.253601 0.451043 0)
(0.228352 0.429706 0)
(0.162418 0.426161 0)
(0.0972913 0.432355 0)
(0.0484445 0.44366 0)
(0.0230051 0.456701 0)
(0.00809227 0.448092 0)
(-0.0323245 0.327632 0)
(-0.0439111 0.370217 0)
(-0.0658906 0.334466 0)
(-0.12988 0.303736 0)
(-0.198149 0.308738 0)
(-0.205903 0.445935 0)
(0.0717838 0.999734 0)
(0.361678 1.49762 0)
(0.307775 1.61266 0)
(0.0923278 1.20529 0)
(-0.121549 0.764046 0)
(-0.257806 0.5607 0)
(-0.328239 0.562695 0)
(-0.349437 0.620627 0)
(-0.371072 0.656838 0)
(-0.406367 0.681267 0)
(-0.427251 0.740666 0)
(-0.411141 0.891618 0)
(-0.366 1.14639 0)
(-0.276759 1.3488 0)
(-0.0669768 1.24451 0)
(0.185729 0.838691 0)
(0.288639 0.583931 0)
(0.285074 0.520968 0)
(0.229403 0.502556 0)
(0.164704 0.49282 0)
(0.109377 0.486336 0)
(0.0664876 0.481492 0)
(0.0360755 0.476549 0)
(0.0109597 0.46675 0)
(-0.0196968 0.36976 0)
(-0.0394551 0.384775 0)
(-0.0661706 0.382447 0)
(-0.133125 0.397406 0)
(-0.231198 0.440632 0)
(-0.286715 0.494555 0)
(-0.206798 0.767714 0)
(0.148864 1.39799 0)
(0.300863 1.74457 0)
(0.262734 1.36654 0)
(0.174422 0.936685 0)
(0.0475254 0.672336 0)
(-0.0547736 0.618033 0)
(-0.127101 0.663244 0)
(-0.189898 0.711233 0)
(-0.256564 0.748875 0)
(-0.31582 0.80255 0)
(-0.33997 0.925569 0)
(-0.308731 1.12092 0)
(-0.159676 1.23044 0)
(0.120333 1.06565 0)
(0.285646 0.788246 0)
(0.326807 0.657726 0)
(0.287347 0.605 0)
(0.221187 0.576151 0)
(0.161381 0.554407 0)
(0.112602 0.537047 0)
(0.0728966 0.521353 0)
(0.0406711 0.505758 0)
(0.011743 0.491997 0)
(-0.0106975 0.399039 0)
(-0.0245239 0.403197 0)
(-0.0480993 0.430829 0)
(-0.106541 0.487973 0)
(-0.214731 0.583009 0)
(-0.34539 0.670622 0)
(-0.345407 0.747902 0)
(-0.204476 1.273 0)
(0.121215 1.74539 0)
(0.277219 1.45873 0)
(0.325534 1.05031 0)
(0.259467 0.800479 0)
(0.162301 0.722695 0)
(0.070248 0.745694 0)
(-0.0115752 0.788018 0)
(-0.0910382 0.829919 0)
(-0.165683 0.880666 0)
(-0.204972 0.974589 0)
(-0.159055 1.09261 0)
(0.0293482 1.11802 0)
(0.235755 0.987258 0)
(0.340518 0.837374 0)
(0.339309 0.742272 0)
(0.280339 0.685384 0)
(0.21528 0.644317 0)
(0.158885 0.612419 0)
(0.110597 0.586887 0)
(0.0703412 0.562864 0)
(0.03806 0.539917 0)
(0.0104218 0.520903 0)
(-0.000886133 0.41546 0)
(0.00851486 0.41845 0)
(0.00206188 0.482026 0)
(-0.0381541 0.581122 0)
(-0.144789 0.733571 0)
(-0.325722 0.857463 0)
(-0.489855 0.979508 0)
(-0.493275 1.25777 0)
(-0.151626 1.6519 0)
(0.176545 1.3776 0)
(0.317444 1.09603 0)
(0.320461 0.908045 0)
(0.262755 0.837299 0)
(0.187937 0.8429 0)
(0.116605 0.872042 0)
(0.049294 0.90685 0)
(-0.00811192 0.945284 0)
(-0.0248599 1.00232 0)
(0.0413876 1.06147 0)
(0.181998 1.06747 0)
(0.312089 0.994161 0)
(0.357687 0.891093 0)
(0.327401 0.811739 0)
(0.270298 0.754941 0)
(0.211136 0.708666 0)
(0.156781 0.670759 0)
(0.106541 0.639385 0)
(0.0635526 0.605255 0)
(0.0315839 0.574017 0)
(0.00797191 0.548333 0)
(0.0165619 0.404463 0)
(0.0730772 0.409035 0)
(0.100771 0.536013 0)
(0.0372195 0.740936 0)
(-0.0884409 0.946979 0)
(-0.243763 1.09199 0)
(-0.491635 1.27152 0)
(-0.59617 1.40999 0)
(-0.341166 1.49891 0)
(0.0839311 1.29524 0)
(0.243477 1.12052 0)
(0.28982 0.986075 0)
(0.266291 0.921693 0)
(0.225628 0.917577 0)
(0.182149 0.937876 0)
(0.146335 0.959885 0)
(0.130349 0.982827 0)
(0.143511 1.0119 0)
(0.199646 1.04462 0)
(0.281354 1.04793 0)
(0.33829 0.997482 0)
(0.345394 0.92587 0)
(0.315937 0.866347 0)
(0.265209 0.822758 0)
(0.207085 0.7794 0)
(0.151656 0.738703 0)
(0.0958782 0.702732 0)
(0.0490085 0.649837 0)
(0.0207323 0.605718 0)
(0.00444051 0.570104 0)
(0.0590412 0.382308 0)
(0.129444 0.406751 0)
(0.167804 0.561912 0)
(0.139051 0.696465 0)
(0.0146502 0.886677 0)
(-0.0951611 1.03618 0)
(-0.250913 1.21892 0)
(-0.411944 1.27993 0)
(-0.341205 1.33882 0)
(-0.0441764 1.1948 0)
(0.136751 1.08714 0)
(0.209185 1.00963 0)
(0.229252 0.956956 0)
(0.228092 0.954028 0)
(0.219377 0.967888 0)
(0.2231 0.979588 0)
(0.242767 0.995081 0)
(0.270994 1.01645 0)
(0.301899 1.03477 0)
(0.329462 1.03149 0)
(0.344701 0.996201 0)
(0.343142 0.948174 0)
(0.324278 0.911604 0)
(0.277229 0.897312 0)
(0.209501 0.864181 0)
(0.138716 0.827043 0)
(0.0643071 0.784539 0)
(0.0122732 0.691281 0)
(-0.00196305 0.631411 0)
(-0.00333885 0.581805 0)
(0.130067 0.29098 0)
(0.181689 0.344105 0)
(0.145868 0.484967 0)
(0.101991 0.827956 0)
(0.0833363 0.983108 0)
(0.10452 1.13109 0)
(0.117347 1.33819 0)
(0.0482488 1.38586 0)
(-0.0153238 1.07061 0)
(-0.0305263 1.10515 0)
(0.0879358 1.065 0)
(0.142166 0.993957 0)
(0.202043 0.928788 0)
(0.241877 0.942999 0)
(0.272996 0.956084 0)
(0.31102 0.967769 0)
(0.344112 0.992908 0)
(0.35915 1.01924 0)
(0.361581 1.03564 0)
(0.358759 1.03255 0)
(0.355273 1.00284 0)
(0.357559 0.956873 0)
(0.363006 0.928323 0)
(0.326006 0.9461 0)
(0.24119 1.06662 0)
(0.106414 1.0072 0)
(-0.0193364 0.850585 0)
(-0.059865 0.695248 0)
(-0.0413746 0.641444 0)
(-0.0201727 0.570988 0)
(0.0409939 0.107762 0)
(0.0669533 0.403128 0)
(0.006873 0.54915 0)
(0.0390196 0.683604 0)
(0.14894 0.78924 0)
(0.289616 0.910313 0)
(0.468491 1.07942 0)
(0.642895 1.24532 0)
(0.631897 1.22737 0)
(0.471065 1.03161 0)
(0.304255 0.984408 0)
(0.218707 1.02353 0)
(0.221982 0.946073 0)
(0.270906 0.890701 0)
(0.356564 0.898847 0)
(0.423712 0.937757 0)
(0.447144 0.99562 0)
(0.436602 1.03874 0)
(0.412557 1.06067 0)
(0.381047 1.0564 0)
(0.351957 1.01762 0)
(0.351973 0.943184 0)
(0.34649 0.910689 0)
(0.343749 1.11896 0)
(0.166882 1.08278 0)
(0.0396867 1.03909 0)
(-0.0335271 1.01342 0)
(-0.0615192 0.793998 0)
(-0.0784838 0.631526 0)
(-0.0440332 0.511291 0)
(-0.0174094 0.151077 0)
(-0.0204513 0.399514 0)
(-0.00242774 0.495043 0)
(0.067986 0.586879 0)
(0.192721 0.655502 0)
(0.355565 0.73606 0)
(0.562218 0.859512 0)
(0.814554 1.00374 0)
(1.01704 1.1032 0)
(1.06332 1.20886 0)
(0.922938 1.21768 0)
(0.685662 1.10179 0)
(0.473689 0.942898 0)
(0.368889 0.87984 0)
(0.498051 0.811348 0)
(0.576136 0.923825 0)
(0.570417 1.03095 0)
(0.520194 1.08405 0)
(0.457028 1.09731 0)
(0.38111 1.08717 0)
(0.301454 1.03556 0)
(0.213267 0.954307 0)
(0.150161 1.07091 0)
(-0.104958 1.13006 0)
(-0.113224 1.241 0)
(-0.0339764 1.07391 0)
(0.025485 0.856881 0)
(-0.0498069 0.678229 0)
(-0.113849 0.702297 0)
(-0.0385182 0.406139 0)
(-0.0213907 0.155861 0)
(-0.0156048 0.38306 0)
(0.0203378 0.459316 0)
(0.0972053 0.512093 0)
(0.214434 0.552348 0)
(0.35528 0.603538 0)
(0.525468 0.683569 0)
(0.730936 0.790539 0)
(0.950316 0.920009 0)
(1.12772 1.07123 0)
(1.21561 1.23328 0)
(1.17832 1.35248 0)
(1.00535 1.29593 0)
(0.777926 1.04353 0)
(0.735391 0.812246 0)
(0.772154 0.944169 0)
(0.7066 1.08168 0)
(0.579723 1.13933 0)
(0.44381 1.14026 0)
(0.283505 1.13348 0)
(0.0657579 1.11395 0)
(-0.217296 1.13449 0)
(-0.689901 1.28011 0)
(-0.795881 1.27411 0)
(-0.555824 0.946925 0)
(-0.187184 0.789216 0)
(0.0303468 0.862161 0)
(0.0235375 0.908844 0)
(-0.157362 0.584766 0)
(-0.10935 0.390302 0)
(-0.0206976 0.186631 0)
(-0.02117 0.369916 0)
(0.0300567 0.422267 0)
(0.117662 0.434582 0)
(0.22577 0.453442 0)
(0.345879 0.494588 0)
(0.470311 0.560433 0)
(0.60372 0.648678 0)
(0.749789 0.756568 0)
(0.919584 0.917322 0)
(1.09459 1.11517 0)
(1.26505 1.27375 0)
(1.41439 1.41164 0)
(1.4353 1.33811 0)
(1.20129 1.11569 0)
(1.00688 1.11138 0)
(0.814174 1.16293 0)
(0.581598 1.1657 0)
(0.3004 1.17477 0)
(-0.0344662 1.25059 0)
(-0.470645 1.3703 0)
(-1.00517 1.54464 0)
(-1.3285 1.5252 0)
(-1.16527 0.995809 0)
(-0.776031 0.520688 0)
(-0.37342 0.433711 0)
(-0.115651 0.610447 0)
(0.0324685 0.79735 0)
(-0.0602381 0.771893 0)
(-0.0321657 0.119144 0)
(-0.027484 0.221196 0)
(-0.0292139 0.355003 0)
(0.027482 0.359188 0)
(0.122536 0.355844 0)
(0.230672 0.366014 0)
(0.338121 0.41132 0)
(0.430933 0.483567 0)
(0.513281 0.575643 0)
(0.595752 0.672543 0)
(0.7051 0.798946 0)
(0.871031 0.956159 0)
(1.13459 1.08532 0)
(1.48265 1.25664 0)
(1.76805 1.48074 0)
(1.71268 1.40973 0)
(1.31808 1.21653 0)
(0.89078 1.19438 0)
(0.394601 1.37376 0)
(-0.0612601 1.41371 0)
(-0.477679 1.57279 0)
(-0.888664 1.74631 0)
(-1.23807 1.7592 0)
(-1.36621 1.37653 0)
(-1.05907 0.608158 0)
(-0.732485 0.141891 0)
(-0.428172 0.169563 0)
(-0.234553 0.43364 0)
(-0.0731253 0.71202 0)
(-0.0312643 0.721772 0)
(0.0242279 0.197206 0)
(-0.0253037 0.257437 0)
(-0.0299994 0.345644 0)
(0.0139824 0.296341 0)
(0.110353 0.271571 0)
(0.214897 0.276799 0)
(0.315292 0.336827 0)
(0.398716 0.427625 0)
(0.461408 0.532634 0)
(0.512711 0.624636 0)
(0.590611 0.721943 0)
(0.740142 0.820952 0)
(0.998102 0.891447 0)
(1.30521 1.02629 0)
(1.53481 1.26231 0)
(1.48807 1.43617 0)
(1.10132 1.49616 0)
(0.521315 1.59937 0)
(-0.0169903 1.67885 0)
(-0.439789 1.70102 0)
(-0.796251 1.7963 0)
(-1.06845 1.87472 0)
(-1.2048 1.72224 0)
(-1.13795 1.13072 0)
(-0.791871 0.242897 0)
(-0.599572 -0.103311 0)
(-0.424769 0.0282783 0)
(-0.331126 0.316811 0)
(-0.196005 0.607066 0)
(-0.102756 0.671925 0)
(0.00256225 0.12859 0)
(-0.0194741 0.266293 0)
(-0.0201762 0.354886 0)
(0.000644464 0.232771 0)
(0.0908508 0.194577 0)
(0.181194 0.198118 0)
(0.271317 0.259031 0)
(0.358417 0.36192 0)
(0.429351 0.488532 0)
(0.47895 0.585114 0)
(0.557481 0.643162 0)
(0.721125 0.682932 0)
(0.954163 0.722622 0)
(1.10405 0.824158 0)
(1.04071 1.00221 0)
(0.824661 1.41092 0)
(0.416087 1.71697 0)
(-0.00020302 1.85205 0)
(-0.331679 1.91658 0)
(-0.62538 1.92044 0)
(-0.87544 1.94034 0)
(-1.05102 1.89912 0)
(-1.09739 1.55742 0)
(-0.897481 0.784888 0)
(-0.571313 -0.0402665 0)
(-0.508394 -0.196408 0)
(-0.432625 -0.00865412 0)
(-0.411619 0.264981 0)
(-0.305341 0.506656 0)
(-0.148445 0.558239 0)
(0.00597956 0.0614373 0)
(-0.0363777 0.24865 0)
(0.0157762 0.36622 0)
(0.0105164 0.169934 0)
(0.0765289 0.127494 0)
(0.1344 0.139896 0)
(0.194418 0.188864 0)
(0.277326 0.276109 0)
(0.379264 0.416075 0)
(0.46171 0.526327 0)
(0.560701 0.538929 0)
(0.736648 0.538516 0)
(0.862228 0.560528 0)
(0.765628 0.646162 0)
(0.499338 1.05622 0)
(0.102622 1.52522 0)
(-0.179452 1.85627 0)
(-0.365331 2.03748 0)
(-0.528477 2.11032 0)
(-0.692551 2.09745 0)
(-0.836794 2.04868 0)
(-0.938943 1.88149 0)
(-0.941711 1.34903 0)
(-0.666873 0.427838 0)
(-0.481451 -0.210702 0)
(-0.463166 -0.197467 0)
(-0.458846 0.00344075 0)
(-0.450907 0.239398 0)
(-0.336958 0.38638 0)
(-0.130496 0.379635 0)
(0.0206558 0.0174701 0)
(-0.109363 0.251874 0)
(0.0563607 0.326673 0)
(0.0488797 0.128567 0)
(0.0774545 0.0933373 0)
(0.0979387 0.115722 0)
(0.120371 0.146614 0)
(0.17221 0.188905 0)
(0.274449 0.292211 0)
(0.417001 0.417953 0)
(0.55405 0.414525 0)
(0.67428 0.384163 0)
(0.62657 0.424253 0)
(0.402957 0.768927 0)
(-0.0446079 1.21931 0)
(-0.356035 1.65378 0)
(-0.504173 1.9773 0)
(-0.583485 2.15033 0)
(-0.646527 2.2116 0)
(-0.705769 2.18747 0)
(-0.75145 2.09119 0)
(-0.775819 1.82009 0)
(-0.73925 1.1363 0)
(-0.521657 0.161972 0)
(-0.467139 -0.255429 0)
(-0.481547 -0.168798 0)
(-0.483958 0.00892882 0)
(-0.423151 0.181131 0)
(-0.282187 0.246313 0)
(-0.0850647 0.205342 0)
(0.0269378 0.0099322 0)
(-0.0353214 0.289194 0)
(0.0462006 0.24791 0)
(0.0976489 0.106002 0)
(0.0979863 0.087473 0)
(0.0768122 0.128488 0)
(0.0568347 0.139668 0)
(0.07204 0.138568 0)
(0.145049 0.166058 0)
(0.301114 0.249533 0)
(0.489072 0.244259 0)
(0.525606 0.251065 0)
(0.411143 0.499258 0)
(0.0124772 0.956895 0)
(-0.368184 1.41925 0)
(-0.581427 1.80746 0)
(-0.680502 2.06302 0)
(-0.710706 2.19075 0)
(-0.70843 2.23009 0)
(-0.68959 2.19377 0)
(-0.656558 2.06438 0)
(-0.61129 1.72501 0)
(-0.544579 0.972773 0)
(-0.413295 0.0475738 0)
(-0.430605 -0.247937 0)
(-0.443966 -0.158727 0)
(-0.427262 -0.0362899 0)
(-0.31983 0.0789374 0)
(-0.182383 0.104082 0)
(-0.0452252 0.0850216 0)
(0.0210737 0.0145737 0)
(0.00305317 0.289625 0)
(0.0698478 0.166917 0)
(0.144729 0.0939999 0)
(0.146099 0.120078 0)
(0.0628572 0.226385 0)
(-0.0314618 0.178814 0)
(-0.0413557 0.117369 0)
(0.00796271 0.0754692 0)
(0.125036 0.0701952 0)
(0.270315 0.0509792 0)
(0.303816 0.196332 0)
(0.127142 0.651783 0)
(-0.255259 1.20531 0)
(-0.54524 1.65445 0)
(-0.719216 1.94576 0)
(-0.792137 2.10817 0)
(-0.78461 2.17583 0)
(-0.729871 2.18577 0)
(-0.655293 2.13582 0)
(-0.563821 1.98056 0)
(-0.469962 1.60392 0)
(-0.384987 0.839456 0)
(-0.287114 -0.0282134 0)
(-0.306574 -0.230578 0)
(-0.314711 -0.167984 0)
(-0.29604 -0.0991774 0)
(-0.20083 -0.0238416 0)
(-0.0959564 -0.00607652 0)
(-0.0236025 0.0283211 0)
(0.0117593 0.00761554 0)
(0.0507546 0.288119 0)
(0.137235 0.088009 0)
(0.243367 0.0758666 0)
(0.279208 0.174258 0)
(0.0550899 0.388132 0)
(-0.202363 0.221355 0)
(-0.207295 0.0958923 0)
(-0.146872 0.0139694 0)
(-0.0713159 -0.0508172 0)
(0.0141129 -0.0844041 0)
(0.0399394 0.186508 0)
(-0.125678 0.842529 0)
(-0.439763 1.47281 0)
(-0.67868 1.86454 0)
(-0.823133 2.05663 0)
(-0.866026 2.12167 0)
(-0.815654 2.1219 0)
(-0.713175 2.0946 0)
(-0.591555 2.02804 0)
(-0.461612 1.85975 0)
(-0.332081 1.46796 0)
(-0.220756 0.720198 0)
(-0.149749 -0.0990877 0)
(-0.164347 -0.209504 0)
(-0.197302 -0.172082 0)
(-0.196466 -0.138925 0)
(-0.131203 -0.101723 0)
(-0.0576162 -0.0874082 0)
(-0.0245556 -0.00288373 0)
(0.014994 -0.0134824 0)
(0.147633 0.210933 0)
(0.22445 0.00437368 0)
(0.384192 0.0435894 0)
(0.366661 0.227073 0)
(0.00502791 0.629126 0)
(-0.313334 0.285252 0)
(-0.350326 0.0405264 0)
(-0.302444 -0.0488435 0)
(-0.246825 -0.108793 0)
(-0.189238 -0.138975 0)
(-0.180388 0.226879 0)
(-0.342135 1.06917 0)
(-0.593837 1.71838 0)
(-0.778201 2.04347 0)
(-0.875447 2.14586 0)
(-0.870655 2.12012 0)
(-0.774635 2.05343 0)
(-0.632855 1.99554 0)
(-0.485807 1.92026 0)
(-0.340246 1.74196 0)
(-0.183084 1.34422 0)
(-0.0108734 0.650491 0)
(-0.0248055 -0.106841 0)
(-0.0681162 -0.15885 0)
(-0.132278 -0.150678 0)
(-0.143303 -0.164091 0)
(-0.102331 -0.168155 0)
(-0.0449754 -0.152458 0)
(-0.0288712 -0.0372467 0)
(0.0367374 -0.0511865 0)
(0.0884376 0.0231937 0)
(0.262111 -0.118922 0)
(0.42457 -0.0525349 0)
(0.411296 0.425374 0)
(0.00572667 0.860341 0)
(-0.298248 0.423482 0)
(-0.436877 0.0315527 0)
(-0.396364 -0.0916459 0)
(-0.362719 -0.121572 0)
(-0.322491 -0.104636 0)
(-0.370291 0.371562 0)
(-0.584756 1.33564 0)
(-0.716586 1.95289 0)
(-0.78927 2.20767 0)
(-0.802902 2.23063 0)
(-0.739218 2.11861 0)
(-0.610234 2.00335 0)
(-0.468402 1.93768 0)
(-0.339527 1.87169 0)
(-0.214553 1.6913 0)
(-0.0544564 1.26221 0)
(0.184943 0.624075 0)
(0.130102 0.0485478 0)
(0.0215522 -0.056186 0)
(-0.062529 -0.109541 0)
(-0.0944304 -0.166796 0)
(-0.0863121 -0.227035 0)
(-0.037262 -0.224501 0)
(-0.0275004 -0.113453 0)
(0.0918445 -0.0851345 0)
(0.0134933 -0.0803594 0)
(0.289686 -0.31602 0)
(0.382681 -0.198387 0)
(0.213379 0.579131 0)
(-0.0283476 0.860861 0)
(-0.155823 0.582174 0)
(-0.391515 0.103628 0)
(-0.477401 -0.102252 0)
(-0.423249 -0.0603404 0)