/*--------------------------------*- C++ -*----------------------------------*\
| =========                 |                                                 |
| \\      /  F ield         | OpenFOAM: The Open Source CFD Toolbox           |
|  \\    /   O peration     | Version:  2.4.0                                 |
|   \\  /    A nd           | Web:      www.OpenFOAM.org                      |
|    \\/     M anipulation  |                                                 |
\*---------------------------------------------------------------------------*/
FoamFile
{
    version     2.0;
    format      ascii;
    class       volVectorField;
    location    "3.75";
    object      U;
}
// * * * * * * * * * * * * * * * * * * * * * * * * * * * * * * * * * * * * * //

dimensions      [0 1 -1 0 0 0 0];

internalField   nonuniform List<vector> 
4608
(
(0.00622258 0.135995 0)
(0.0164897 0.134854 0)
(0.0258325 0.133266 -2.50858e-26)
(0.0348073 0.131248 -2.49618e-26)
(0.0435458 0.128797 0)
(0.0521646 0.125868 0)
(0.0606235 0.1225 -1.01929e-25)
(0.0689965 0.118715 -5.16796e-26)
(0.0772441 0.11453 -1.0785e-26)
(0.0852334 0.109982 -9.17325e-26)
(0.0930754 0.104932 -9.52298e-26)
(0.100313 0.0995299 -1.60254e-26)
(0.00405035 0.15737 0)
(0.0135857 0.157002 -5.14673e-27)
(0.0237665 0.15596 7.61126e-27)
(0.0343032 0.154353 0)
(0.044925 0.15237 8.94309e-26)
(0.0553069 0.149867 -9.54266e-27)
(0.0660342 0.146615 -1.5009e-25)
(0.0771113 0.142955 0)
(0.0881783 0.139006 1.9751e-25)
(0.0991276 0.13476 3.33438e-26)
(0.109752 0.130097 -1.14011e-25)
(0.119224 0.125295 0)
(0.006301 0.177949 0)
(0.0185284 0.177339 4.66245e-26)
(0.0309322 0.176144 0)
(0.0436745 0.174323 -5.1388e-27)
(0.0562222 0.17187 6.96829e-26)
(0.0683995 0.168949 2.39869e-25)
(0.0813155 0.165163 2.0348e-25)
(0.0946866 0.160527 2.64339e-25)
(0.108064 0.155533 3.45134e-25)
(0.1212 0.150318 0)
(0.133504 0.145039 -2.30609e-25)
(0.144436 0.139987 0)
(0.0066459 0.199087 2.60054e-26)
(0.020326 0.198768 5.63093e-26)
(0.034426 0.197824 0)
(0.0490652 0.195925 2.21764e-25)
(0.0634942 0.19321 -4.26448e-26)
(0.0778528 0.189748 4.78087e-25)
(0.0926244 0.18522 2.45857e-25)
(0.107853 0.179307 2.50996e-25)
(0.12337 0.17251 0)
(0.138643 0.165833 5.27543e-25)
(0.152805 0.159731 -3.96696e-25)
(0.16525 0.154316 -2.49259e-25)
(0.00843168 0.220092 2.62078e-26)
(0.0245062 0.220351 1.33607e-25)
(0.0403735 0.219988 -1.29247e-25)
(0.0565686 0.218359 2.61827e-25)
(0.0725844 0.215594 0)
(0.0880725 0.211485 3.58832e-25)
(0.103644 0.205575 1.70031e-25)
(0.119728 0.19792 -1.17554e-25)
(0.136676 0.18847 -2.1145e-25)
(0.153893 0.178495 1.31321e-24)
(0.170744 0.170223 6.80576e-25)
(0.184948 0.164794 -8.72033e-25)
(0.0105695 0.24118 0)
(0.0292108 0.242093 1.39626e-25)
(0.0468589 0.242352 -1.45119e-25)
(0.0643362 0.241322 -2.975e-25)
(0.0813838 0.238534 -4.82409e-26)
(0.0972597 0.234022 1.19789e-26)
(0.113294 0.227078 2.00252e-25)
(0.129552 0.217733 -1.31646e-25)
(0.147056 0.205456 -2.41349e-25)
(0.165221 0.191259 1.30357e-24)
(0.183374 0.177187 6.34442e-25)
(0.198517 0.168954 -6.57752e-25)
(0.0135564 0.26232 1.43583e-28)
(0.0351315 0.264501 1.7478e-26)
(0.0545055 0.265652 0)
(0.072801 0.265001 -3.33618e-25)
(0.0904367 0.262183 6.12631e-25)
(0.106017 0.257522 -8.15573e-25)
(0.121844 0.249634 -7.09371e-25)
(0.137111 0.238955 -7.26065e-25)
(0.153955 0.223907 -7.2128e-25)
(0.171854 0.206116 7.20213e-25)
(0.191536 0.18596 -1.20698e-24)
(0.208758 0.172795 1.59547e-24)
(0.0178303 0.283651 0)
(0.0423714 0.287769 0)
(0.0627274 0.289341 3.5731e-25)
(0.0811652 0.288724 0)
(0.0988957 0.285076 6.73734e-25)
(0.11361 0.279856 -1.11097e-25)
(0.12881 0.271601 -7.67772e-25)
(0.141996 0.260637 -7.93352e-25)
(0.157809 0.243619 -7.76539e-25)
(0.17437 0.223117 -1.54424e-24)
(0.194626 0.195767 -1.41903e-24)
(0.216925 0.17375 1.26189e-24)
(0.0240739 0.305234 8.86228e-26)
(0.0510454 0.312126 4.02182e-25)
(0.070923 0.313003 1.41625e-34)
(0.0890034 0.311875 -9.13721e-26)
(0.106261 0.307579 -2.11569e-25)
(0.119958 0.30141 -1.09197e-25)
(0.133302 0.290953 -1.58359e-24)
(0.143948 0.279221 5.65226e-26)
(0.158994 0.262416 1.72592e-25)
(0.171921 0.242402 -1.6775e-24)
(0.191229 0.211191 -8.05055e-26)
(0.216593 0.177112 -1.14999e-24)
(0.0323903 0.327028 9.9083e-36)
(0.0599428 0.337048 3.82119e-25)
(0.076399 0.333382 -4.35399e-25)
(0.0942586 0.328473 0)
(0.110142 0.323933 -7.60424e-26)
(0.121693 0.317579 7.11815e-25)
(0.134188 0.306127 -1.60063e-24)
(0.145093 0.294603 0)
(0.158927 0.27661 1.65615e-24)
(0.171486 0.255566 0)
(0.199413 0.230327 9.17963e-26)
(0.228163 0.195174 -2.30803e-24)
(0.04463 0.349251 -6.78674e-26)
(0.0678154 0.358882 3.74286e-25)
(0.074452 0.343315 8.98237e-25)
(0.094344 0.330136 6.92424e-25)
(0.108471 0.325873 -1.12449e-25)
(0.118411 0.319158 2.75368e-24)
(0.129386 0.307659 0)
(0.139418 0.299315 -1.22368e-25)
(0.152076 0.286764 1.68109e-24)
(0.167139 0.261766 0)
(0.195356 0.230129 -1.26405e-24)
(0.22186 0.203561 -1.24719e-24)
(0.0396304 0.367826 1.73126e-25)
(0.0507408 0.365611 -2.43556e-34)
(0.0463063 0.333955 2.57797e-34)
(0.0855519 0.307729 5.52114e-25)
(0.0971303 0.305132 1.93812e-24)
(0.107147 0.297353 1.1424e-24)
(0.117311 0.290299 1.40583e-24)
(0.130471 0.285648 0)
(0.142559 0.284272 0)
(0.156739 0.27453 0)
(0.179439 0.22802 -1.78385e-24)
(0.211087 0.192477 -1.58346e-24)
(0.107121 0.0933832 -5.44975e-26)
(0.1131 0.0868098 -6.74125e-26)
(0.118297 0.0794855 -1.9623e-25)
(0.12261 0.0713626 1.88003e-25)
(0.125886 0.0627322 0)
(0.128347 0.0537157 -3.05634e-26)
(0.130229 0.0445576 3.20057e-26)
(0.131842 0.035337 0)
(0.133405 0.0262051 0)
(0.134851 0.0173155 0)
(0.135904 0.00905456 1.14507e-26)
(0.136155 0.00213117 5.19063e-27)
(0.127768 0.119569 -2.47848e-26)
(0.134808 0.112945 -5.06486e-26)
(0.140404 0.10541 -1.7582e-25)
(0.144659 0.0969432 7.30796e-26)
(0.147679 0.0873962 2.9244e-26)
(0.149787 0.0766628 -9.42189e-26)
(0.151358 0.0649696 4.69933e-26)
(0.152815 0.0526313 -3.99092e-26)
(0.154189 0.04026 -9.42366e-26)
(0.155389 0.0282477 0)
(0.156258 0.0168766 2.12648e-26)
(0.156835 0.00593299 9.78298e-27)
(0.153612 0.134816 -4.93632e-25)
(0.160873 0.128949 0)
(0.166344 0.122004 0)
(0.16978 0.11405 -2.44709e-25)
(0.171613 0.104277 0)
(0.172488 0.0922952 -5.41316e-26)
(0.173159 0.0780974 2.10673e-25)
(0.174233 0.0623116 -1.4456e-25)
(0.175725 0.0463332 -9.30711e-26)
(0.17714 0.0314102 0)
(0.177908 0.017844 4.59437e-26)
(0.178111 0.00540815 -2.0851e-26)
(0.1752 0.149785 -7.48189e-25)
(0.182863 0.145325 -6.5443e-26)
(0.188291 0.139906 -6.762e-25)
(0.191159 0.133233 6.6838e-25)
(0.192126 0.124228 1.37373e-25)
(0.192216 0.111592 -2.72894e-25)
(0.192797 0.0949521 -1.24827e-25)
(0.195014 0.0755451 -1.61959e-25)
(0.197836 0.0560157 2.24605e-25)
(0.199776 0.0382637 0)
(0.200155 0.0229348 4.92047e-26)
(0.19928 0.00770231 -7.6826e-26)
(0.195324 0.160601 6.54474e-25)
(0.202955 0.156884 -6.5782e-25)
(0.207838 0.1534 -6.62379e-25)
(0.209796 0.148968 6.56473e-25)
(0.209419 0.141666 -2.70848e-25)
(0.208395 0.128635 -2.53397e-25)
(0.209171 0.10849 -1.07756e-25)
(0.214598 0.0845694 -3.41201e-26)
(0.220814 0.0638279 2.94831e-25)
(0.223476 0.0451743 1.25662e-25)
(0.223034 0.0288036 -1.59702e-25)
(0.220634 0.0107435 -3.1271e-26)
(0.209864 0.165629 6.89385e-25)
(0.21794 0.163495 -7.00975e-25)
(0.222336 0.162418 -8.09573e-25)
(0.223075 0.161246 -1.19712e-25)
(0.220652 0.15731 0)
(0.217373 0.144896 -1.80163e-25)
(0.217763 0.118751 1.59401e-25)
(0.228185 0.0863799 -3.40143e-25)
(0.240744 0.0668945 0)
(0.247854 0.0512591 1.54052e-25)
(0.24873 0.0378692 -1.5651e-25)
(0.243236 0.0181631 3.91621e-26)
(0.221469 0.167513 0)
(0.228975 0.165892 0)
(0.232593 0.167102 -1.46641e-24)
(0.232193 0.169985 0)
(0.227818 0.171897 -4.15249e-25)
(0.221952 0.164552 -6.08397e-25)
(0.217957 0.133053 1.33164e-24)
(0.231865 0.0788443 1.48051e-25)
(0.253555 0.0569444 4.88046e-26)
(0.265311 0.0490346 -3.34599e-25)
(0.267616 0.0454684 -1.66133e-26)
(0.264325 0.0291997 1.40851e-27)
(0.229454 0.16834 2.1304e-25)
(0.236106 0.165711 1.70539e-24)
(0.239941 0.167796 8.10275e-25)
(0.240424 0.17383 -1.55643e-24)
(0.237639 0.182153 -1.61804e-24)
(0.23393 0.183596 -8.37324e-25)
(0.232867 0.154399 1.23873e-24)
(0.246927 0.0790685 8.7328e-25)
(0.26168 0.0454062 0)
(0.268733 0.0389657 -2.64683e-25)
(0.272383 0.0391261 2.01391e-25)
(0.279508 0.0221829 1.08735e-25)
(0.231468 0.164331 1.18973e-24)
(0.239461 0.161951 1.25835e-24)
(0.244556 0.164101 1.55507e-24)
(0.247079 0.170902 -1.6993e-24)
(0.248638 0.18317 -2.13981e-24)
(0.250583 0.192707 -1.34863e-24)
(0.258696 0.1719 7.28984e-25)
(0.274971 0.0906207 8.28193e-25)
(0.283952 0.0485201 -6.73968e-26)
(0.288131 0.0402322 0)
(0.292722 0.0373351 1.30954e-25)
(0.301274 0.0172107 7.97511e-26)
(0.238552 0.170348 1.1193e-24)
(0.24427 0.158644 -2.62307e-25)
(0.245761 0.157823 0)
(0.248835 0.162414 -1.58855e-24)
(0.254531 0.174389 0)
(0.261031 0.188312 0)
(0.277414 0.181291 1.3757e-24)
(0.296523 0.10529 1.00897e-25)
(0.303221 0.052861 -7.32017e-26)
(0.308066 0.0402389 6.06662e-25)
(0.312124 0.0343435 -1.1899e-26)
(0.321517 0.0124139 -1.05887e-27)
(0.233343 0.180321 -9.13806e-26)
(0.236002 0.161433 -1.48412e-24)
(0.235721 0.149853 0)
(0.243152 0.148599 -1.39311e-24)
(0.251824 0.157919 2.91691e-25)
(0.260902 0.169753 0)
(0.286387 0.170918 -2.21415e-24)
(0.311863 0.116335 -9.36344e-25)
(0.312813 0.0581144 -3.04945e-26)
(0.312546 0.0395415 1.14794e-24)
(0.317191 0.0290904 0)
(0.336528 0.00333037 8.38637e-26)
(0.223476 0.182005 -2.00623e-24)
(0.223116 0.167467 -1.41483e-24)
(0.22675 0.149045 0)
(0.234745 0.136502 0)
(0.240636 0.141571 1.24286e-24)
(0.246605 0.148962 -1.4986e-24)
(0.269411 0.147356 -3.1317e-24)
(0.298381 0.114901 5.45219e-25)
(0.296293 0.0652768 -5.9795e-25)
(0.29511 0.0377577 2.78351e-25)
(0.30259 0.0102418 1.12919e-25)
(0.335356 -0.0300286 7.21944e-26)
(0.136007 -0.00620183 4.71392e-27)
(0.134792 -0.0164395 -1.32556e-26)
(0.133152 -0.02585 4.98557e-26)
(0.13112 -0.0349884 0)
(0.12878 -0.044013 2.04844e-27)
(0.126117 -0.0529756 -1.17168e-26)
(0.123091 -0.0619 3.41804e-26)
(0.119696 -0.0707518 0)
(0.115844 -0.0795654 -5.01458e-26)
(0.111686 -0.087619 -5.2132e-26)
(0.106778 -0.0949069 -9.52695e-26)
(0.100916 -0.101745 -1.53849e-26)
(0.157357 -0.00390729 9.92241e-27)
(0.156905 -0.0133034 -5.89142e-26)
(0.155775 -0.0236129 -6.27588e-26)
(0.15411 -0.0345242 1.01945e-25)
(0.152146 -0.0457736 3.06293e-27)
(0.149974 -0.0573804 -2.91776e-26)
(0.147619 -0.0690838 0)
(0.144946 -0.0806624 0)
(0.141787 -0.0917929 1.56953e-25)
(0.138448 -0.101254 1.21827e-25)
(0.133808 -0.109041 -2.12891e-25)
(0.126798 -0.116137 2.24062e-25)
(0.177937 -0.00604025 -7.62732e-27)
(0.177363 -0.0181607 -9.66391e-26)
(0.176347 -0.0308778 -9.40924e-26)
(0.174743 -0.0443499 9.46727e-26)
(0.172732 -0.058426 0)
(0.17062 -0.0731205 0)
(0.168542 -0.087639 0)
(0.165984 -0.101955 0)
(0.163036 -0.115466 1.94268e-35)
(0.160841 -0.12539 2.51364e-25)
(0.15787 -0.132488 -2.58647e-25)
(0.151509 -0.140288 3.17572e-25)
(0.199099 -0.00649941 2.23202e-26)
(0.198958 -0.0205 -5.38131e-26)
(0.198514 -0.0355754 -5.45865e-27)
(0.197329 -0.0519254 -1.84427e-25)
(0.195456 -0.0699558 5.85696e-26)
(0.194026 -0.0893537 0)
(0.193483 -0.108166 0)
(0.192305 -0.126104 0)
(0.189155 -0.14041 -8.52226e-25)
(0.184773 -0.148505 0)
(0.181476 -0.156455 3.51912e-25)
(0.176542 -0.166225 1.29307e-25)
(0.220042 -0.00835061 8.99884e-26)
(0.220478 -0.0252118 -1.29841e-25)
(0.220558 -0.0426361 0)
(0.219602 -0.0611604 -5.3038e-25)
(0.217278 -0.0824087 3.69875e-26)
(0.21411 -0.107435 -1.27268e-25)
(0.214213 -0.132144 0)
(0.21584 -0.148825 0)
(0.212101 -0.156255 -6.9568e-25)
(0.205522 -0.164468 0)
(0.198994 -0.174527 7.20898e-25)
(0.193531 -0.183265 0)
(0.241185 -0.0107858 4.03182e-37)
(0.242768 -0.031117 -1.48331e-25)
(0.243904 -0.0510983 0)
(0.243631 -0.0724312 6.42404e-35)
(0.24126 -0.0980758 -5.53223e-26)
(0.235515 -0.129937 -1.83981e-25)
(0.229732 -0.152283 0)
(0.227987 -0.157926 -3.95096e-25)
(0.223996 -0.161917 -1.00669e-25)
(0.217391 -0.173094 -6.66989e-25)
(0.209773 -0.186613 -9.11294e-25)
(0.203345 -0.199521 0)
(0.262556 -0.0147065 3.70363e-26)
(0.265637 -0.0389664 2.11613e-26)
(0.267457 -0.0611219 -2.90163e-25)
(0.266998 -0.0837487 6.16737e-25)
(0.260553 -0.108555 3.89931e-25)
(0.249638 -0.133761 -7.96036e-25)
(0.236937 -0.152436 -4.77326e-25)
(0.230646 -0.159049 9.61817e-26)
(0.228281 -0.166547 -9.6785e-25)
(0.222527 -0.181186 -7.83872e-25)
(0.214841 -0.197441 -8.32627e-25)
(0.20775 -0.212758 -1.14494e-25)
(0.283823 -0.0196555 7.82197e-26)
(0.288061 -0.0466209 -1.76658e-25)
(0.289325 -0.0688999 -3.70725e-25)
(0.287976 -0.0885456 1.3027e-24)
(0.279545 -0.109768 1.0869e-24)
(0.264969 -0.132122 -1.03394e-24)
(0.249023 -0.151649 -4.38931e-25)
(0.240078 -0.161141 -1.12331e-25)
(0.233518 -0.172976 -1.04726e-24)
(0.226036 -0.188961 -1.82121e-25)
(0.217018 -0.205732 -6.22939e-26)
(0.20822 -0.221425 -1.37535e-25)
(0.305333 -0.026053 -1.61707e-25)
(0.311238 -0.0542334 -1.89469e-25)
(0.310895 -0.0755074 -2.59482e-25)
(0.308071 -0.0918783 1.01301e-24)
(0.299765 -0.108931 0)
(0.2867 -0.131965 2.7939e-25)
(0.270455 -0.152257 3.68931e-25)
(0.255637 -0.164861 1.42734e-24)
(0.242881 -0.179202 1.3378e-24)
(0.231096 -0.194965 0)
(0.219063 -0.210761 7.19421e-26)
(0.207507 -0.225332 1.01167e-25)
(0.327022 -0.0340663 -1.06009e-25)
(0.335079 -0.0613582 -5.75266e-26)
(0.330947 -0.0805182 2.56547e-25)
(0.326852 -0.0951022 -3.93217e-25)
(0.318092 -0.110392 -4.05245e-25)
(0.303255 -0.129543 6.53983e-25)
(0.283974 -0.148321 1.28174e-25)
(0.266827 -0.164329 1.7673e-24)
(0.251589 -0.18059 3.12199e-24)
(0.236474 -0.196558 1.51956e-24)
(0.221431 -0.21153 -5.51838e-26)
(0.207002 -0.224672 -1.61345e-24)
(0.347555 -0.0481285 1.66246e-25)
(0.35114 -0.0672923 -2.00846e-25)
(0.337721 -0.0810159 8.61647e-25)
(0.330209 -0.092947 0)
(0.319797 -0.105104 1.59831e-24)
(0.305432 -0.12135 2.46691e-25)
(0.287318 -0.141117 1.84678e-25)
(0.271093 -0.159946 1.52765e-24)
(0.25553 -0.177522 1.38103e-24)
(0.239281 -0.193649 1.43302e-24)
(0.222693 -0.207998 -1.37474e-24)
(0.20637 -0.219776 -1.26831e-24)
(0.342484 -0.0233894 -1.85843e-25)
(0.33594 -0.0413723 -9.79809e-25)
(0.310967 -0.0576914 0)
(0.300817 -0.0745383 0)
(0.292396 -0.0883239 1.2751e-24)
(0.282547 -0.104773 -1.41605e-24)
(0.269484 -0.127206 -1.38519e-24)
(0.258729 -0.149476 2.62808e-24)
(0.247515 -0.168322 -1.32518e-24)
(0.234267 -0.185037 0)
(0.219462 -0.199279 -1.24144e-24)
(0.203592 -0.210131 -7.55814e-26)
(0.0946647 -0.107931 4.5802e-27)
(0.0879986 -0.113618 -2.04593e-25)
(0.0799089 -0.119588 6.92189e-26)
(0.0720573 -0.12371 3.35674e-25)
(0.0633652 -0.126388 1.61059e-25)
(0.0541687 -0.128454 2.56552e-36)
(0.0448666 -0.130345 -9.89179e-26)
(0.0357576 -0.132268 -1.21199e-26)
(0.026877 -0.133971 5.58094e-26)
(0.0180807 -0.135219 -2.5372e-26)
(0.00966169 -0.136009 6.97592e-27)
(0.00232139 -0.136159 -2.70941e-27)
(0.118001 -0.124006 2.91494e-25)
(0.109624 -0.132239 -2.09072e-25)
(0.102802 -0.138122 -3.41278e-25)
(0.0961773 -0.140378 4.16133e-25)
(0.0863486 -0.142579 2.03983e-25)
(0.0750061 -0.144865 -1.79928e-25)
(0.0624946 -0.147405 -1.18116e-25)
(0.0503259 -0.150256 -2.22185e-26)
(0.0394131 -0.152573 1.97903e-25)
(0.0283605 -0.154329 3.62215e-26)
(0.0173147 -0.155806 -4.66667e-26)
(0.00606356 -0.156814 1.2143e-26)
(0.14068 -0.150206 -3.84339e-26)
(0.127358 -0.158515 1.83272e-25)
(0.118839 -0.161274 -2.16435e-25)
(0.112801 -0.160934 2.46453e-25)
(0.101745 -0.161532 0)
(0.0876498 -0.162431 -2.07504e-25)
(0.070431 -0.163988 1.80982e-25)
(0.0533958 -0.166696 -3.42446e-26)
(0.0415033 -0.168931 1.0506e-26)
(0.0286663 -0.171778 9.05599e-26)
(0.0159025 -0.175157 -8.9362e-26)
(0.00459099 -0.177697 1.04908e-26)
(0.168222 -0.173628 6.62482e-25)
(0.155693 -0.178667 3.87988e-25)
(0.144243 -0.180081 -7.29935e-26)
(0.136142 -0.180376 -1.96485e-25)
(0.124161 -0.18227 5.14985e-25)
(0.110359 -0.18169 -5.13986e-25)
(0.0892415 -0.179735 3.42405e-25)
(0.0654887 -0.177088 2.96251e-25)
(0.0441544 -0.178408 1.53141e-25)
(0.0269712 -0.185445 -4.32188e-27)
(0.0126206 -0.191843 -2.36961e-27)
(0.00142887 -0.197341 -5.13688e-27)
(0.189342 -0.190958 1.52365e-24)
(0.182033 -0.199853 -7.00833e-25)
(0.171813 -0.205969 0)
(0.162472 -0.208711 0)
(0.150457 -0.208377 1.2376e-24)
(0.138035 -0.20486 2.23547e-25)
(0.116913 -0.202252 1.93994e-25)
(0.0874174 -0.199425 6.71546e-26)
(0.0510152 -0.200575 1.66887e-25)
(0.0253713 -0.205442 8.76157e-27)
(0.00957708 -0.20983 5.63029e-26)
(-0.0063362 -0.216258 -6.52979e-27)
(0.198386 -0.211309 7.91092e-25)
(0.19381 -0.222041 -7.86526e-25)
(0.188223 -0.230278 -2.31298e-25)
(0.182904 -0.23489 1.02429e-25)
(0.17573 -0.236526 1.148e-24)
(0.165486 -0.235295 -1.27501e-25)
(0.14682 -0.232818 9.60341e-25)
(0.114916 -0.229065 5.32569e-26)
(0.0674585 -0.227863 4.44713e-25)
(0.0282167 -0.231944 0)
(0.00605832 -0.239893 0)
(-0.0117196 -0.241107 0)
(0.202151 -0.226445 0)
(0.198074 -0.238415 1.64977e-24)
(0.194841 -0.248366 0)
(0.192762 -0.25583 0)
(0.190369 -0.26119 -4.69609e-25)
(0.185373 -0.264441 -5.20991e-25)
(0.172639 -0.265637 5.08637e-25)
(0.143968 -0.264141 -2.99227e-25)
(0.0893273 -0.26025 3.22705e-25)
(0.0321602 -0.255596 -2.39934e-25)
(0.00441135 -0.25963 1.43054e-25)
(-0.0100238 -0.261587 -5.2019e-26)
(0.200808 -0.235374 -1.61974e-24)
(0.195467 -0.247526 1.674e-24)
(0.192135 -0.25833 1.68049e-24)
(0.19106 -0.268139 1.73798e-24)
(0.191437 -0.277346 1.82219e-24)
(0.191411 -0.286245 1.93353e-24)
(0.186592 -0.29406 -3.34453e-25)
(0.167961 -0.298683 -5.94459e-25)
(0.120291 -0.296625 -1.5896e-25)
(0.0536084 -0.284692 -6.95589e-25)
(0.00868727 -0.278903 1.67477e-25)
(-0.0109805 -0.280351 -6.56395e-26)
(0.197298 -0.238216 -1.65394e-24)
(0.189338 -0.24944 7.16881e-26)
(0.183714 -0.259779 3.13539e-24)
(0.180885 -0.270263 1.63546e-24)
(0.18066 -0.281742 1.76915e-24)
(0.182487 -0.295166 9.61473e-25)
(0.183975 -0.309972 -2.2783e-25)
(0.178206 -0.322669 7.62425e-26)
(0.147631 -0.326817 1.57811e-24)
(0.0823279 -0.316672 -2.62978e-25)
(0.0175141 -0.307988 -8.09463e-27)
(-0.0108422 -0.303963 1.59222e-26)
(0.193778 -0.235972 0)
(0.182735 -0.245379 -1.47237e-24)
(0.173628 -0.254048 1.02965e-35)
(0.167173 -0.263239 0)
(0.162925 -0.274353 7.73784e-26)
(0.161989 -0.289507 4.34469e-26)
(0.164618 -0.310409 0)
(0.169241 -0.334406 0)
(0.158501 -0.35226 2.69041e-24)
(0.106198 -0.354533 -9.82365e-25)
(0.0381141 -0.340465 0)
(0.00764498 -0.329118 -9.73234e-26)
(0.190821 -0.229438 -6.53425e-27)
(0.177276 -0.236572 -8.48117e-26)
(0.164954 -0.242699 -2.69239e-24)
(0.154409 -0.248837 0)
(0.144247 -0.256125 0)
(0.135738 -0.267327 0)
(0.131645 -0.287886 1.29105e-24)
(0.140433 -0.315223 0)
(0.151778 -0.338288 2.25142e-24)
(0.127455 -0.352109 -5.56468e-34)
(0.0549032 -0.327372 -5.48425e-25)
(0.00310951 -0.332701 -1.95536e-25)
(0.187415 -0.218635 0)
(0.17287 -0.223756 2.377e-24)
(0.158871 -0.227345 -1.18561e-24)
(0.146789 -0.230138 1.17667e-24)
(0.133371 -0.231617 0)
(0.116023 -0.230948 1.12964e-24)
(0.0964756 -0.237768 7.38421e-25)
(0.0939414 -0.254313 2.53387e-26)
(0.110249 -0.276345 7.97461e-25)
(0.115658 -0.313611 1.99785e-24)
(0.0621818 -0.316791 -9.72557e-26)
(-0.0281354 -0.328938 -5.5418e-26)
(-0.00651284 -0.136084 8.57319e-27)
(-0.0173822 -0.135371 8.87904e-27)
(-0.0273923 -0.134638 -2.11272e-27)
(-0.037071 -0.133649 -5.13791e-27)
(-0.0466433 -0.13238 6.62988e-26)
(-0.0560967 -0.130859 -6.99457e-26)
(-0.0654225 -0.129114 -1.25223e-25)
(-0.0751277 -0.126718 0)
(-0.0848401 -0.123316 2.93405e-27)
(-0.0939929 -0.119029 4.72223e-26)
(-0.102677 -0.114038 1.01972e-25)
(-0.109785 -0.108873 1.52116e-25)
(-0.00501182 -0.1575 1.01814e-26)
(-0.0165289 -0.158209 4.63084e-26)
(-0.0285913 -0.159046 -9.52889e-26)
(-0.0409217 -0.159581 0)
(-0.053635 -0.159556 9.68381e-26)
(-0.0669224 -0.158849 -1.38036e-25)
(-0.0813572 -0.157816 -1.51348e-26)
(-0.0943544 -0.157366 1.44423e-25)
(-0.104234 -0.156399 4.64031e-25)
(-0.114691 -0.152254 0)
(-0.124707 -0.14715 2.42545e-25)
(-0.132542 -0.142262 0)
(-0.00908373 -0.178097 5.1801e-26)
(-0.0255209 -0.178914 1.05129e-25)
(-0.040907 -0.179945 -2.00912e-25)
(-0.0557385 -0.180685 4.23801e-26)
(-0.0705055 -0.180684 2.91766e-26)
(-0.0853791 -0.179315 -1.54979e-26)
(-0.100123 -0.175708 -3.30455e-25)
(-0.113075 -0.171443 -1.26381e-25)
(-0.123059 -0.170252 5.22295e-25)
(-0.134994 -0.167385 7.60703e-26)
(-0.145866 -0.162978 4.00711e-25)
(-0.15479 -0.158186 -5.35074e-25)
(-0.0115211 -0.199185 2.57451e-26)
(-0.0317444 -0.200025 1.27525e-25)
(-0.0499396 -0.200943 -6.14083e-26)
(-0.0667092 -0.201464 -3.54237e-25)
(-0.0825296 -0.201292 0)
(-0.0972552 -0.199847 4.81339e-25)
(-0.111683 -0.196261 5.54752e-25)
(-0.127494 -0.190334 1.62933e-25)
(-0.141045 -0.186558 -6.31085e-26)
(-0.154015 -0.182976 6.02245e-25)
(-0.165489 -0.178804 5.25039e-25)
(-0.175549 -0.174417 -1.43247e-24)
(-0.0142237 -0.220075 4.66549e-36)
(-0.0379811 -0.220793 2.15038e-25)
(-0.0585784 -0.221266 5.89741e-26)
(-0.0768469 -0.221122 -2.72572e-25)
(-0.0935812 -0.219948 -9.57277e-26)
(-0.109176 -0.217946 -1.21466e-25)
(-0.125764 -0.215371 3.14371e-25)
(-0.143182 -0.210331 0)
(-0.158395 -0.203724 -1.29017e-24)
(-0.171642 -0.197747 6.65377e-25)
(-0.183521 -0.192 6.84733e-25)
(-0.194346 -0.186447 -1.40455e-24)
(-0.0168921 -0.241046 1.00187e-25)
(-0.0438516 -0.241826 1.6785e-25)
(-0.0666307 -0.241935 -1.45457e-25)
(-0.0864644 -0.241518 -4.25698e-25)
(-0.104434 -0.240034 1.70382e-26)
(-0.121245 -0.237302 8.64846e-26)
(-0.137898 -0.232949 3.42011e-25)
(-0.154538 -0.226596 -2.46667e-25)
(-0.170169 -0.218597 -3.29883e-25)
(-0.183921 -0.210419 7.18601e-25)
(-0.196339 -0.202478 1.74716e-25)
(-0.207708 -0.194929 -5.08989e-25)
(-0.0198153 -0.262123 1.4139e-25)
(-0.0496261 -0.263234 -4.75582e-26)
(-0.0743979 -0.263057 -8.52684e-26)
(-0.095299 -0.262111 -1.88686e-25)
(-0.113764 -0.25954 3.94511e-25)
(-0.130865 -0.255385 2.41198e-25)
(-0.14736 -0.249176 -6.38547e-25)
(-0.163204 -0.241145 -6.0303e-25)
(-0.178214 -0.231512 4.20123e-25)
(-0.191919 -0.221213 1.39854e-34)
(-0.204404 -0.210918 -1.33376e-24)
(-0.215811 -0.201033 2.37722e-25)
(-0.0232372 -0.283361 7.74896e-26)
(-0.0551226 -0.285044 5.75689e-26)
(-0.081483 -0.283922 5.89802e-25)
(-0.102866 -0.282438 1.10753e-24)
(-0.121312 -0.27876 4.94289e-26)
(-0.137842 -0.273115 5.74376e-25)
(-0.153635 -0.265006 0)
(-0.168753 -0.255059 0)
(-0.183078 -0.243482 0)
(-0.196442 -0.231036 -2.31684e-24)
(-0.208746 -0.218463 -3.05296e-24)
(-0.219985 -0.206293 1.50885e-24)
(-0.0276582 -0.304952 -1.67658e-25)
(-0.0596883 -0.307855 -3.84233e-25)
(-0.0868303 -0.304226 3.82753e-25)
(-0.108889 -0.301296 1.76638e-25)
(-0.126484 -0.296479 2.2598e-25)
(-0.141931 -0.289367 -2.99219e-25)
(-0.156828 -0.279261 1.02874e-24)
(-0.171162 -0.267417 -3.16576e-25)
(-0.184845 -0.254009 -1.72618e-25)
(-0.197908 -0.23967 -1.794e-24)
(-0.210124 -0.225168 -2.92395e-24)
(-0.221335 -0.211074 2.75981e-25)
(-0.0343473 -0.327615 -8.82388e-26)
(-0.0639164 -0.334289 -7.77753e-25)
(-0.0913108 -0.32592 1.04622e-25)
(-0.112559 -0.31834 -1.43693e-24)
(-0.129342 -0.308345 5.33186e-26)
(-0.142733 -0.299524 -1.83196e-25)
(-0.155858 -0.288006 1.63994e-24)
(-0.169257 -0.274815 0)
(-0.182562 -0.26035 1.55921e-24)
(-0.195704 -0.244975 1.51269e-24)
(-0.208217 -0.229365 -1.40822e-24)
(-0.219795 -0.214137 -1.27606e-24)
(-0.0487786 -0.351361 7.96976e-26)
(-0.0704157 -0.361255 -5.77613e-25)
(-0.0905396 -0.344584 -1.23781e-25)
(-0.108642 -0.329149 -9.59716e-25)
(-0.123844 -0.311172 -1.51165e-25)
(-0.13611 -0.29732 0)
(-0.148034 -0.283853 -1.02835e-25)
(-0.160691 -0.270238 -2.4744e-25)
(-0.174393 -0.256533 1.26737e-24)
(-0.188286 -0.242172 1.37838e-24)
(-0.201495 -0.227193 1.34382e-24)
(-0.213936 -0.21235 0)
(-0.0443524 -0.360133 3.8327e-25)
(-0.049903 -0.357651 4.70407e-25)
(-0.0655042 -0.331876 -9.69381e-25)
(-0.084684 -0.315564 -2.96899e-25)
(-0.101682 -0.295739 -1.54113e-25)
(-0.116497 -0.280343 -1.53526e-25)
(-0.129659 -0.267347 -1.57448e-25)
(-0.143271 -0.254149 -5.95021e-26)
(-0.157978 -0.240957 -1.13404e-25)
(-0.172836 -0.227943 0)
(-0.187534 -0.2145 1.10351e-24)
(-0.201137 -0.20127 2.17734e-24)
(-0.116074 -0.102312 6.66461e-26)
(-0.120189 -0.0949051 1.49664e-25)
(-0.125885 -0.0836015 3.94175e-26)
(-0.129167 -0.0755478 5.54441e-26)
(-0.131154 -0.066595 0)
(-0.133731 -0.0557092 1.78442e-26)
(-0.135808 -0.0462309 -3.08683e-26)
(-0.137436 -0.0368741 2.27255e-28)
(-0.13846 -0.0277889 0)
(-0.138433 -0.0189305 -4.87398e-26)
(-0.137526 -0.010276 1.07587e-26)
(-0.136401 -0.00251055 -4.37122e-27)
(-0.138893 -0.136142 -2.33589e-25)
(-0.143725 -0.130228 4.05491e-25)
(-0.147354 -0.11871 -7.35801e-26)
(-0.150163 -0.105139 -4.06743e-25)
(-0.154058 -0.094086 0)
(-0.157349 -0.0806253 0)
(-0.158832 -0.0678995 -3.74067e-26)
(-0.16042 -0.0555274 6.74598e-27)
(-0.161628 -0.0452851 -9.52721e-26)
(-0.161257 -0.0355891 3.33794e-26)
(-0.15942 -0.0239711 -3.03794e-26)
(-0.157449 -0.00947768 -1.10065e-26)
(-0.16172 -0.15356 -2.44029e-25)
(-0.167191 -0.148637 2.95002e-25)
(-0.173143 -0.142954 0)
(-0.180499 -0.129577 1.12251e-36)
(-0.182986 -0.115862 0)
(-0.183377 -0.101191 0)
(-0.18226 -0.0844584 0)
(-0.182719 -0.0640792 0)
(-0.184936 -0.0486632 -7.91587e-26)
(-0.185158 -0.0421229 1.07059e-25)
(-0.181785 -0.0325982 -1.08891e-26)
(-0.178844 -0.013776 2.41194e-26)
(-0.184312 -0.169844 -6.29637e-27)
(-0.192312 -0.164952 -3.74613e-25)
(-0.199872 -0.159274 0)
(-0.206669 -0.15062 1.0393e-24)
(-0.211061 -0.140083 0)
(-0.21375 -0.12712 3.42507e-25)
(-0.215272 -0.110413 -3.39445e-25)
(-0.214009 -0.0866657 2.25257e-26)
(-0.207211 -0.0649173 4.60501e-25)
(-0.200812 -0.052722 1.70153e-25)
(-0.197685 -0.041703 2.00574e-25)
(-0.197925 -0.0165045 4.69702e-26)
(-0.204301 -0.18104 0)
(-0.21362 -0.175672 -7.37465e-25)
(-0.222465 -0.169824 0)
(-0.230495 -0.162769 7.6596e-25)
(-0.237171 -0.154414 0)
(-0.242235 -0.144077 3.91894e-25)
(-0.24513 -0.130701 -4.89833e-25)
(-0.244826 -0.11257 4.95231e-26)
(-0.240053 -0.0901563 7.12053e-25)
(-0.231689 -0.0689605 0)
(-0.226215 -0.0475203 2.17799e-25)
(-0.222781 -0.0190168 -6.77028e-26)
(-0.218271 -0.187823 0)
(-0.228181 -0.181069 8.0588e-25)
(-0.237622 -0.174416 8.82731e-25)
(-0.246424 -0.16751 -1.03934e-25)
(-0.254174 -0.160149 -2.52552e-28)
(-0.260756 -0.151854 0)
(-0.265547 -0.141901 -9.22505e-25)
(-0.267657 -0.129364 -4.64297e-26)
(-0.264942 -0.113371 -1.45241e-34)
(-0.258943 -0.0936628 0)
(-0.249649 -0.0653772 1.77454e-25)
(-0.242605 -0.028481 -8.83333e-26)
(-0.226309 -0.191753 1.02636e-25)
(-0.236041 -0.183088 9.29055e-25)
(-0.24511 -0.174992 7.75094e-25)
(-0.253521 -0.167282 -1.96959e-26)
(-0.261149 -0.159867 1.05061e-25)
(-0.267969 -0.152433 8.19713e-25)
(-0.273445 -0.144645 -8.146e-26)
(-0.277131 -0.13578 -1.00405e-24)
(-0.277724 -0.124558 -9.3419e-25)
(-0.275215 -0.109203 5.15368e-25)
(-0.269026 -0.0834636 1.04792e-25)
(-0.263927 -0.038867 1.15653e-33)
(-0.230165 -0.194845 9.61441e-26)
(-0.239412 -0.184185 1.66392e-25)
(-0.247854 -0.174377 3.87473e-26)
(-0.255562 -0.165382 1.16316e-25)
(-0.262593 -0.157076 7.44725e-26)
(-0.269267 -0.149338 8.55907e-25)
(-0.275425 -0.142219 1.68847e-24)
(-0.281099 -0.135162 -7.22393e-25)
(-0.285596 -0.127326 -1.22812e-24)
(-0.288673 -0.115817 4.50431e-25)
(-0.288365 -0.0930207 2.30179e-25)
(-0.28615 -0.0449727 0)
(-0.231286 -0.197807 9.52555e-26)
(-0.240083 -0.185379 -1.54104e-25)
(-0.247935 -0.173978 0)
(-0.254902 -0.163628 -1.41978e-24)
(-0.261068 -0.154069 1.01842e-25)
(-0.267266 -0.145117 1.66954e-26)
(-0.273457 -0.137212 -6.16161e-26)
(-0.280211 -0.129793 0)
(-0.287687 -0.122897 -7.97306e-25)
(-0.296176 -0.114372 5.47906e-25)
(-0.302787 -0.0966178 2.54432e-25)
(-0.307132 -0.0503355 1.26148e-25)
(-0.229762 -0.199815 1.42909e-24)
(-0.238252 -0.186151 1.33689e-25)
(-0.245577 -0.173557 0)
(-0.251865 -0.162073 -2.70853e-24)
(-0.256972 -0.15137 -2.94611e-26)
(-0.262467 -0.140921 -1.1406e-25)
(-0.268141 -0.131653 -7.00271e-25)
(-0.274814 -0.122326 8.87833e-26)
(-0.283571 -0.113439 6.41174e-26)
(-0.295982 -0.104475 -4.44579e-25)
(-0.310334 -0.0900688 -3.26501e-26)
(-0.325865 -0.0499912 1.2854e-25)
(-0.224226 -0.198456 1.23602e-24)
(-0.232549 -0.184704 1.13954e-24)
(-0.239425 -0.171515 0)
(-0.24501 -0.159611 -1.19701e-24)
(-0.248925 -0.148352 -1.13103e-24)
(-0.253632 -0.136549 -4.13985e-26)
(-0.25858 -0.126175 -1.69755e-25)
(-0.264377 -0.114756 -1.33435e-24)
(-0.272991 -0.102077 0)
(-0.287134 -0.0886251 -8.84295e-25)
(-0.308054 -0.0723993 4.67944e-25)
(-0.338666 -0.0396324 -2.97758e-25)
(-0.211974 -0.189675 1.72255e-26)
(-0.22023 -0.177848 1.18096e-24)
(-0.2271 -0.165427 0)
(-0.232565 -0.154622 1.13338e-24)
(-0.235696 -0.144173 -2.07298e-24)
(-0.239773 -0.13153 1.10024e-24)
(-0.243941 -0.120327 1.04062e-24)
(-0.247758 -0.107779 -1.02854e-24)
(-0.254601 -0.0914169 0)
(-0.268007 -0.0704613 0)
(-0.293222 -0.0409075 7.10369e-25)
(-0.334988 4.78924e-05 2.89735e-26)
(-0.134137 0.00184239 -9.87924e-27)
(-0.129391 0.0125688 -1.36057e-26)
(-0.126234 0.0243102 0)
(-0.12524 0.0343424 0)
(-0.125172 0.0424793 0)
(-0.124392 0.0539399 9.82799e-26)
(-0.123314 0.0659091 3.93216e-26)
(-0.121923 0.07552 0)
(-0.119352 0.0836023 -2.10189e-25)
(-0.115363 0.091133 1.39531e-25)
(-0.109987 0.0986739 1.36476e-25)
(-0.104009 0.105274 5.46545e-26)
(-0.159026 -0.00380392 -1.79305e-26)
(-0.161584 0.00797217 2.91208e-26)
(-0.161002 0.0237829 0)
(-0.158448 0.0430753 3.16997e-26)
(-0.158993 0.0611586 -8.3682e-26)
(-0.161524 0.0768583 -4.53611e-25)
(-0.162192 0.0842919 -3.84248e-25)
(-0.158416 0.0914842 1.28761e-25)
(-0.154706 0.0993791 2.47152e-25)
(-0.150165 0.107505 1.48019e-25)
(-0.14399 0.115454 6.71376e-26)
(-0.137132 0.12165 8.15116e-26)
(-0.178128 0.00601628 1.29032e-26)
(-0.181169 0.0232006 8.66781e-36)
(-0.186606 0.0397004 0)
(-0.186304 0.0562363 0)
(-0.178938 0.0749883 6.25654e-26)
(-0.173305 0.088265 6.26439e-26)
(-0.174519 0.0941262 6.48483e-26)
(-0.174703 0.105112 2.5176e-25)
(-0.172539 0.116407 2.54262e-25)
(-0.169119 0.126897 -2.55584e-25)
(-0.164445 0.136013 0)
(-0.158767 0.143226 5.03869e-25)
(-0.199087 0.00895223 -2.59359e-26)
(-0.20096 0.0332551 -7.53887e-26)
(-0.203306 0.0477165 0)
(-0.202672 0.0575588 -2.99245e-25)
(-0.199278 0.0787141 2.17411e-26)
(-0.195459 0.0985899 3.44008e-25)
(-0.194087 0.112203 0)
(-0.193248 0.124821 3.84525e-25)
(-0.191475 0.136468 -4.97072e-25)
(-0.188767 0.147017 4.57024e-25)
(-0.185093 0.156177 6.13033e-25)