/*--------------------------------*- C++ -*----------------------------------*\
| =========                 |                                                 |
| \\      /  F ield         | OpenFOAM: The Open Source CFD Toolbox           |
|  \\    /   O peration     | Version:  2.4.0                                 |
|   \\  /    A nd           | Web:      www.OpenFOAM.org                      |
|    \\/     M anipulation  |                                                 |
\*---------------------------------------------------------------------------*/
FoamFile
{
    version     2.0;
    format      ascii;
    class       surfaceScalarField;
    location    "1.1";
    object      phiAlpha;
}
// * * * * * * * * * * * * * * * * * * * * * * * * * * * * * * * * * * * * * //

dimensions      [0 3 -1 0 0 0 0];

internalField   nonuniform List<scalar> 
5952
(
-6.34913e-22
3.19878e-23
-2.3094e-20
2.33348e-21
-5.27073e-19
2.97155e-20
-4.83754e-18
4.17434e-19
-7.62453e-18
2.96681e-18
-2.45678e-17
1.6943e-17
-2.32134e-09
2.32134e-09
-2.40278e-10
2.31305e-09
-1.45674e-08
1.40646e-09
-4.23736e-08
2.51339e-09
-4.2091e-08
-2.82583e-10
1.27326e-10
-8.20786e-16
-1.22187e-20
1.61348e-21
-1.84017e-19
4.56326e-20
-1.54674e-18
3.00153e-19
-1.08913e-17
1.62617e-18
-3.036e-17
9.46331e-18
-1.51656e-08
3.17706e-09
-1.03579e-07
7.82649e-08
-3.17017e-09
8.96698e-08
-1.76371e-09
7.11107e-18
-1.18602e-09
-3.11241e-11
-1.35296e-10
-8.68196e-13
-6.44468e-12
-8.44813e-13
-1.66194e-19
3.43735e-20
-2.33087e-19
7.07782e-19
-4.52325e-19
4.48098e-19
-1.85809e-17
1.96629e-17
-4.18488e-17
1.6152e-17
-1.86493e-07
5.46228e-08
-2.51902e-07
1.70383e-07
-7.14881e-11
1.13292e-07
-7.14881e-11
1.39091e-17
-2.61836e-10
-1.53351e-12
-4.09866e-10
-2.17988e-12
7.75801e-13
-3.4253e-16
-2.69348e-18
4.46029e-19
-3.98358e-17
1.41018e-17
-2.10364e-13
2.76121e-13
1.96181e-13
6.89837e-13
1.96105e-13
4.09432e-17
-1.69072e-07
5.88608e-08
-2.0591e-07
1.77968e-07
-2.76394e-11
1.20107e-07
-2.76394e-11
2.58838e-17
-1.1343e-10
1.62034e-12
-1.70637e-10
2.59532e-11
3.66396e-12
-4.89757e-15
-9.95361e-17
3.42459e-18
-2.74265e-14
3.58137e-16
-3.07923e-13
3.89457e-13
3.19317e-13
5.46737e-13
3.19207e-13
7.73535e-17
-2.16842e-07
6.29201e-08
-1.79027e-07
1.71949e-07
-2.73385e-13
7.45576e-08
-2.73389e-13
3.12067e-17
3.69372e-15
6.22186e-14
-1.43373e-16
2.59565e-11
3.66388e-12
-1.66739e-16
-4.44592e-17
3.19277e-18
-1.22025e-14
3.17156e-16
-3.44106e-13
1.86202e-13
3.10225e-13
4.04909e-13
3.10113e-13
9.72339e-17
-8.40494e-08
1.32526e-08
-1.62452e-07
2.18445e-08
-6.32006e-17
2.72324e-08
-6.26399e-17
2.98895e-17
-3.06293e-10
3.06355e-10
-3.78462e-10
7.24627e-10
1.79189e-09
-3.9516e-10
4.16607e-16
7.70017e-17
-2.58866e-14
1.42193e-14
-6.39031e-14
7.22177e-17
3.68076e-14
5.79829e-17
3.6826e-14
7.34013e-17
-1.40257e-08
1.44114e-08
-3.07617e-08
1.11442e-07
-3.66419e-09
4.0101e-08
-2.18571e-10
3.1866e-09
-1.05733e-08
3.83764e-09
-1.28478e-08
7.79964e-09
3.28263e-09
-9.08498e-09
-2.83739e-18
7.96995e-17
-1.65934e-17
1.42012e-14
-3.31716e-17
5.31818e-17
-4.31333e-17
6.00739e-17
-1.72085e-17
5.07862e-17
1.48674e-08
1.74984e-08
1.19816e-08
1.02416e-07
-6.77593e-09
1.15191e-07
-1.48204e-09
7.03015e-09
-1.7703e-09
8.32993e-10
-2.11739e-09
1.05152e-09
3.82746e-10
-1.92521e-09
-2.70059e-13
1.03832e-12
-1.52288e-17
6.04146e-13
-2.17456e-17
5.96068e-17
-3.13262e-17
3.65525e-17
-1.81683e-11
1.81683e-11
1.18311e-08
6.84396e-11
3.47443e-08
6.77568e-08
-4.28125e-10
1.75013e-07
1.06746e-10
2.3157e-08
9.32298e-12
1.21277e-10
2.18954e-10
-4.88983e-11
-5.77175e-11
2.79053e-10
3.60225e-14
1.0074e-12
6.40083e-13
6.10125e-17
-6.04563e-11
6.97509e-11
-4.63531e-11
2.72681e-10
-1.35579e-11
1.52445e-09
4.42628e-10
1.20222e-09
3.82285e-08
1.12182e-08
8.84125e-08
7.96592e-08
1.48438e-08
3.56008e-08
-3.63716e-09
2.23499e-09
-2.55214e-10
1.63439e-10
2.15519e-10
1.96368e-09
5.39501e-18
1.00739e-12
1.22207e-17
2.65914e-17
1.50943e-17
6.97509e-11
3.68959e-12
2.68991e-10
1.86336e-08
-5.58013e-09
4.47841e-08
-1.09978e-07
3.79379e-08
-6.68282e-08
3.07914e-08
1.69977e-08
9.10824e-09
2.55475e-08
4.40198e-16
1.13432e-08
4.13938e-16
1.63439e-10
2.15519e-10
4.1914e-16
8.07025e-09
-3.84696e-08
1.51282e-09
6.55743e-09
1.33488e-07
1.15853e-07
9.99937e-07
4.41795e-08
2.06074e-06
-2.84553e-07
2.18976e-06
-4.26783e-07
2.05819e-06
-4.58412e-07
1.74798e-06
-1.77159e-07
1.40062e-06
2.24974e-10
7.64226e-07
2.5612e-08
2.11514e-07
-1.22264e-08
2.12877e-07
1.18298e-08
-1.5027e-17
-8.05759e-16
-4.4343e-17
-4.62769e-19
-9.80796e-17
-4.89879e-18
-1.53831e-08
-2.41288e-09
-2.9264e-08
-6.69592e-09
-2.41703e-08
1.50145e-09
-1.1699e-08
-1.24713e-08
-2.18107e-09
-1.78064e-08
-4.63008e-10
1.98659e-11
-7.74049e-11
-1.49049e-09
-2.54321e-11
-2.26998e-10
-5.37564e-10
-2.05256e-16
-5.78722e-18
-1.28452e-16
-9.6572e-18
6.25993e-16
-1.52909e-17
-1.85136e-08
-1.08067e-15
-2.36857e-08
-3.18536e-17
-6.6102e-09
-9.26977e-11
-2.68052e-11
-2.1818e-09
2.52046e-08
-2.18769e-08
4.12041e-08
-7.32794e-09
8.84938e-09
1.01318e-08
1.30064e-10
8.23051e-09
-6.60031e-09
-9.90738e-17
-1.26572e-17
-9.32529e-17
-6.32805e-16
-2.37334e-17
-4.96599e-17
-1.99854e-17
-1.08432e-15
-1.5665e-17
-3.62712e-17
-1.41082e-17
-9.26977e-11
-2.00739e-09
-1.74403e-10
-1.65029e-09
-1.83469e-09
4.46922e-08
-2.1264e-08
5.32731e-08
-4.58661e-09
6.59773e-08
1.66378e-09
6.39109e-08
-4.0342e-15
-1.2018e-17
-4.83844e-15
-2.59217e-15
-4.61254e-15
1.75836e-15
1.21446e-15
-2.47712e-15
-2.94511e-12
-4.35703e-17
-1.23961e-10
-4.2365e-16
2.53555e-11
-8.31853e-17
-1.80933e-09
-4.14632e-17
-1.37153e-09
-3.45108e-09
8.6778e-09
-1.75846e-08
9.8448e-09
2.40665e-09
8.12925e-08
-1.07308e-14
1.00877e-14
-1.85014e-14
-1.33538e-16
-1.07137e-14
2.21893e-14
-7.81815e-17
1.5529e-15
-4.41421e-17
-8.82752e-17
-4.90697e-17
-4.27729e-16
-6.89011e-18
-1.44922e-16
1.63346e-17
-6.46878e-17
4.47331e-08
-3.12145e-09
8.94419e-08
-5.25349e-09
5.59106e-10
1.73648e-07
2.38136e-07
-1.99992e-13
-3.64339e-11
-2.00077e-13
-1.30566e-16
5.8649e-17
-4.34885e-13
-7.48693e-17
1.59458e-15
-2.5027e-16
4.77702e-17
-6.98397e-17
-1.68904e-16
-2.39187e-18
-1.41802e-16
2.39102e-17
-9.09899e-17
7.9975e-08
-2.70619e-08
2.67912e-07
5.33778e-08
1.18901e-07
5.50016e-07
4.16696e-07
-3.85473e-10
-1.67099e-10
-4.08684e-13
-3.85065e-10
3.46726e-13
-5.05891e-13
-9.38345e-12
-1.50384e-11
-9.497e-13
-9.26633e-11
-2.89125e-17
-9.49858e-13
-3.58453e-18
-1.70697e-16
2.21925e-17
-1.16767e-16
1.39543e-07
-2.14823e-08
3.6691e-07
1.60322e-07
1.34665e-07
7.8226e-07
5.51362e-07
-7.81316e-10
-4.61079e-11
-5.298e-11
-1.35963e-10
-2.35709e-12
-5.05717e-11
-1.05524e-11
-1.58109e-11
-1.24995e-12
-7.24671e-11
-1.04236e-12
-8.82701e-11
1.18771e-13
-1.42131e-10
6.08215e-11
-6.07029e-11
1.05928e-07
-3.74877e-13
4.322e-07
1.45387e-07
1.81586e-07
1.03287e-06
7.32948e-07
2.42423e-10
-4.3106e-12
8.69945e-11
-3.46159e-10
-1.13217e-11
-2.07775e-11
1.10609e-11
-1.25267e-12
5.47179e-11
-2.50934e-16
3.17587e-11
-1.77531e-10
1.10404e-11
-3.13339e-10
5.4165e-12
-1.82303e-10
5.0417e-12
-7.47066e-17
4.82238e-07
4.70513e-08
2.30916e-07
1.2842e-06
9.63864e-07
2.38534e-09
2.10378e-10
2.05393e-10
8.37502e-11
1.25301e-12
1.77135e-12
2.7418e-16
-1.88491e-16
2.08839e-16
-2.31018e-16
1.02226e-10
5.78998e-11
6.14297e-11
1.46406e-10
3.21797e-11
-2.48975e-10
3.21797e-11
-8.39824e-17
4.52977e-07
-1.14357e-08
2.95853e-07
1.46458e-06
1.25849e-06
3.90615e-16
2.10378e-10
3.64613e-16
8.37502e-11
4.59529e-16
1.77193e-12
4.93359e-16
-2.37596e-16
4.49391e-16
-2.40371e-16
3.64918e-16
5.78998e-11
-9.21695e-13
1.47328e-10
4.42031e-11
4.24486e-11
4.4203e-11
-9.92952e-17
1.34275e-07
-3.21503e-17
5.01417e-07
1.15342e-06
1.75867e-06
3.10077e-07
1.12225e-07
7.88667e-07
1.34086e-07
1.2534e-06
-2.07462e-07
1.11425e-06
-4.20966e-07
6.86223e-07
-2.66626e-07
2.59432e-07
-1.4738e-07
1.22608e-08
-1.40265e-07
8.00487e-17
1.23032e-08
4.85672e-17
-9.27952e-17
6.11746e-17
-5.35364e-17
9.18413e-07
5.03699e-07
2.67581e-06
-3.24294e-28
1.33736e-30
-5.89733e-26
4.74506e-27
-3.68534e-25
8.52807e-26
-6.42195e-25
2.60758e-25
-1.70667e-23
3.08848e-25
-6.20584e-22
6.44933e-24
-1.18417e-20
2.01082e-22
-1.24441e-19
3.4596e-21
-7.86263e-19
3.35009e-20
-3.25719e-18
1.94734e-19
-1.08367e-17
1.94386e-18
2.1002e-18
-2.54195e-17
-1.44042e-25
2.77803e-27
-9.09398e-24
3.12415e-25
-5.21619e-22
1.00871e-23
-1.86053e-20
3.86035e-22
-3.6389e-19
1.05073e-20
-4.29467e-18
1.71767e-19
-3.3247e-17
1.79902e-18
-1.72025e-16
1.27806e-17
-5.62825e-16
6.13248e-17
-1.08927e-15
1.84374e-16
-8.06585e-16
3.41508e-16
3.58624e-15
-6.99421e-17
-7.21045e-24
1.18993e-25
-8.23368e-22
2.75741e-23
-2.75518e-20
1.29721e-21
-4.23548e-19
2.68948e-20
-3.69265e-18
3.07312e-19
-2.10967e-17
2.22175e-18
-8.66528e-17
1.13016e-17
-2.5882e-16
4.30502e-17
-5.17975e-16
1.2088e-16
-3.98825e-16
2.2508e-16
-2.19142e-16
1.56696e-16
1.12229e-13
-6.24e-12
-2.40012e-22
8.98749e-24
-1.28643e-20
1.0004e-21
-2.18562e-19
2.28853e-20
-1.88082e-18
2.41245e-19
-1.00375e-17
1.54003e-18
-3.77564e-17
6.8193e-18
-1.09665e-16
2.30815e-17
-2.50091e-16
6.36618e-17
-4.03777e-16
1.41067e-16
-4.09056e-16
2.19131e-16
-5.26843e-16
2.06392e-16
2.67129e-12
-3.38418e-11
-2.10383e-21
1.72872e-22
-6.40543e-20
9.40679e-21
-7.00417e-19
1.22194e-19
-4.23835e-18
8.2213e-19
-1.68382e-17
3.65462e-18
-4.8409e-17
1.1908e-17
-1.09207e-16
3.08273e-17
-2.03211e-16
6.78375e-17
-3.01347e-16
1.2936e-16
-3.62899e-16
1.96304e-16
-4.81996e-16
2.31936e-16
4.09656e-13
-1.6689e-11
-7.79676e-21
1.15813e-21
-1.5939e-19
3.6028e-20
-1.29745e-18
3.15834e-19
-6.25373e-18
1.57e-18
-2.07669e-17
5.49456e-18
-5.08599e-17
1.45287e-17
-9.67138e-17
3.11564e-17
-1.50627e-16
5.85469e-17
-1.75584e-16
1.00785e-16
-1.42451e-16
1.33691e-16
-1.18758e-13
5.08596e-15
-5.35016e-14
-3.0378e-13
-1.55787e-20
3.66857e-21
-2.30855e-19
7.26482e-20
-1.492e-18
4.66651e-19
-6.11241e-18
1.84615e-18
-1.82875e-17
5.50644e-18
-4.17074e-17
1.25497e-17
-7.42671e-17
2.30193e-17
-1.11143e-16
3.88746e-17
-1.56046e-16
7.14563e-17
-2.19653e-17
1.38912e-16
-7.60506e-15
6.21382e-16
1.16069e-16
-2.13619e-15
-1.99797e-20
9.80504e-21
-1.99546e-19
9.15758e-20
-9.93645e-19
4.03789e-19
-3.43167e-18
1.26847e-18
-9.46435e-18
3.37928e-18
-2.10866e-17
6.86514e-18
-3.67791e-17
1.02075e-17
-4.85629e-17
1.3393e-17
-5.21785e-17
2.63392e-17
-8.52945e-17
6.51573e-17
-1.18207e-17
2.44384e-16
1.02018e-16
4.71695e-18
-5.81337e-19
9.75005e-19
-1.61228e-18
2.50323e-18
-2.53071e-18
3.12472e-18
-2.81383e-18
3.41745e-18
-1.91593e-18
3.75522e-18
-3.76135e-18
2.02474e-18
-6.04644e-18
1.84568e-18
-4.60143e-18
-2.10837e-19
5.51909e-18
6.53078e-19
2.50899e-17
1.731e-17
6.42165e-17
5.28602e-17
6.41605e-17
8.92576e-17
-1.07007e-18
3.80938e-18
-1.00471e-18
3.99242e-18
-2.1431e-19
1.61897e-18
1.40425e-20
3.24654e-18
1.30953e-19
3.58077e-18
1.54979e-19
2.05825e-18
2.56984e-19
1.68614e-18
1.7084e-17
-3.16084e-17
4.50813e-17
-5.79196e-17
3.42249e-17
2.00393e-18
5.78571e-17
1.40689e-17
1.93986e-17
9.97285e-17
-1.49461e-22
2.00313e-18
-1.16958e-22
3.99238e-18
7.36104e-20
1.54524e-18
1.06756e-08
7.43133e-11
8.79089e-08
-1.73957e-10
2.11015e-07
8.05408e-08
3.3889e-07
2.4231e-08
3.58448e-07
-4.32099e-07
4.1613e-08
-3.29612e-07
1.19983e-09
5.48995e-09
1.95333e-18
1.19983e-09
1.7208e-17
1.97381e-18
-2.41941e-10
2.41941e-10
1.9951e-09
1.02013e-07
1.04879e-08
2.54697e-09
4.71687e-09
1.39613e-08
2.14979e-08
-9.36674e-09
2.51607e-06
-1.22018e-07
2.87166e-06
-2.3092e-07
2.74399e-06
-3.06359e-07
2.5915e-06
-1.78153e-07
1.59084e-06
6.64063e-08
4.1149e-07
1.31947e-07
3.32285e-08
-1.51733e-09
-2.946e-17
4.03243e-18
-3.8345e-17
8.96577e-18
-1.0695e-13
1.06892e-13
-8.51931e-13
3.40532e-15
-8.6836e-13
-3.24094e-13
-1.08778e-14
-1.2583e-16
-7.7008e-15
-3.19454e-15
-3.50119e-15
-4.19898e-15
-2.34071e-15
-1.01719e-15
-4.22178e-18
-1.03388e-17
-4.3895e-21
-2.85184e-18
-7.60238e-20
-9.1201e-13
9.11858e-13
-1.57488e-11
9.28198e-13
-5.86664e-11
8.68245e-12
-2.28969e-11
8.41044e-13
-3.39393e-14
-1.60584e-17
-3.41845e-14
-4.54939e-17
-1.2313e-13
-4.55865e-15
-6.49413e-14
-4.41823e-13
-3.01199e-16
-8.35162e-13
-9.35535e-18
-3.04383e-16
-2.74449e-19
-1.50282e-17
-1.4916e-18
-8.78683e-11
2.43563e-11
-1.10494e-10
2.38887e-11
-1.11534e-10
9.38684e-12
-3.22257e-16
7.3457e-13
-3.79997e-16
-6.67686e-17
-3.85829e-16
-2.13171e-16
-4.98338e-15
-1.45854e-16
-3.74629e-12
-6.48743e-13
-8.56602e-12
-1.2031e-11
-1.68987e-12
-9.12999e-12
-1.0942e-14
-8.0062e-14
-1.10164e-14
-8.37404e-11
2.02107e-11
-8.38526e-11
2.36331e-11
-7.35378e-13
2.2929e-12
-8.23784e-16
9.33305e-18
-1.12459e-15
-1.48662e-16
-4.72406e-16
-5.37952e-16
-5.03205e-16
-3.28685e-16
-2.87283e-12
-1.95143e-16
-1.08551e-11
-4.04748e-12
-1.60703e-11
-2.08163e-11
-9.23439e-13
1.37633e-12
-2.28993e-12
-4.82484e-11
7.1045e-13
-2.71397e-11
1.82687e-12
-1.33935e-15
4.26856e-14
-1.37029e-15
1.6913e-17
-1.98859e-15
-4.34556e-17
-1.26902e-15
-3.03925e-16
-1.4712e-16
-2.74999e-16
-1.93434e-16
-1.11547e-16
-4.0471e-12
-1.86739e-16
-1.12029e-11
-3.55325e-11
-8.73801e-12
-2.16616e-11
-2.07136e-11
-3.09131e-13
2.18765e-15
-4.28242e-14
1.0375e-16
-1.92497e-16
6.36343e-17
-3.13063e-16
2.83938e-17
-4.43868e-16
-1.07697e-17
-4.25518e-16
-2.97892e-17
-1.22652e-16
-3.90035e-17
-6.07445e-17
-8.78309e-17
1.38748e-13
-1.39002e-13
-2.20538e-11
-1.20126e-10
-6.67683e-12
-2.02407e-10
-3.58365e-12
-7.44389e-17
1.22395e-16
-6.44186e-17
9.14536e-17
-5.54021e-17
5.31744e-17
-4.92172e-17
1.99773e-17
-3.98792e-17
-5.03587e-18
-3.19826e-17
-2.95982e-17
-5.42299e-17
-2.70272e-17
-7.37036e-17
-8.34768e-17
-2.35661e-12
-9.49112e-14
-7.49712e-11
-9.08426e-11
-1.26529e-12
-2.44625e-10
-4.84895e-12
1.27657e-17
1.15915e-16
1.44659e-17
8.65083e-17
1.59882e-17
4.52779e-17
1.43876e-17
1.49296e-17
8.99251e-18
-4.22183e-18
4.08593e-18
-1.82198e-17
-5.31873e-18
-2.5159e-17
-2.40456e-17
-6.90544e-17
-9.30415e-14
-1.62914e-15
-3.28324e-11
-4.71914e-13
-1.50556e-11
-2.7173e-10
-2.37529e-11
1.01709e-16
8.73852e-17
9.95995e-17
7.46446e-17
9.79232e-17
3.37979e-17
9.1679e-17
6.31487e-18
7.55844e-17
-6.36912e-18
5.07855e-17
-1.60654e-17
2.79217e-17
-2.4532e-17
3.19033e-17
-2.76849e-17
2.36107e-16
-1.19614e-15
-3.90263e-13
-8.12846e-14
-2.5099e-12
-2.02742e-14
-1.4314e-10
1.25216e-16
4.9174e-17
1.30159e-16
5.3064e-17
1.39791e-16
1.36759e-17
1.47706e-16
-7.78026e-18
1.41913e-16
-1.38088e-17
1.16833e-16
-1.07859e-17
7.99848e-17
-1.26822e-17
4.39317e-17
-2.54471e-17
1.17755e-14
-1.06012e-16
3.83949e-14
-1.0583e-13
4.5869e-15
-1.15551e-14
-1.38456e-10
2.08861e-17
5.03015e-18
1.75602e-17
1.00329e-16
1.53648e-17
3.23665e-19
1.56525e-16
7.44564e-16
2.11321e-16
-1.39969e-16
1.54393e-16
-1.12508e-16
1.02929e-16
-2.92506e-18
1.03211e-16
-5.59548e-17
2.13497e-16
-7.45249e-16
1.59174e-13
-1.05466e-15
9.36579e-13
-7.62485e-13
-2.86392e-11
8.80644e-09
2.4422e-08
2.22041e-07
2.26431e-07
1.15514e-06
6.18527e-08
1.03958e-06
-3.49152e-07
4.90374e-08
-1.71422e-07
1.50267e-15
-7.35785e-11
8.22157e-17
1.37631e-18
8.06305e-16
1.45781e-18
8.01019e-15
-1.78456e-14
1.43345e-14
-1.65449e-14
2.96819e-12
-1.07204e-14
-8.72396e-15
2.49881e-31
-1.40245e-29
1.38398e-28
-5.10753e-28
1.86259e-27
1.88148e-28
2.67722e-27
2.74901e-27
-5.53954e-28
3.80038e-27
-1.0446e-25
1.81847e-27
-1.51296e-23
1.21961e-25
-4.51594e-22
1.16201e-23
-3.01714e-21
2.66836e-22
-9.87245e-21
1.44092e-21
-2.2986e-20
3.85761e-21
7.27896e-21
-4.3642e-20
-2.17449e-27
7.96563e-30
-5.35841e-26
1.56477e-27
-3.26341e-25
3.89249e-26
-1.89416e-24
2.37645e-25
-7.88676e-23
1.38634e-24
-1.53262e-21
5.71266e-23
-9.40132e-21
1.06634e-21
-2.98599e-20
6.06315e-21
-7.06513e-20
1.73694e-20
-1.38808e-19
3.62478e-20
-2.38823e-19
6.13494e-20
8.81937e-20
-3.70449e-19
-2.37262e-26
3.75523e-28
-1.04492e-24
7.26696e-26
-1.86769e-23
1.28967e-24
-3.1997e-22
1.56381e-23
-3.06848e-21
2.31341e-22
-1.35661e-20
2.16353e-21
-4.02182e-20
9.67992e-21
-9.28043e-20
2.86315e-20
-1.81674e-19
6.36487e-20
-3.15128e-19
1.15378e-19
-4.96093e-19
1.78076e-19
2.38952e-19
-7.18623e-19
-9.26109e-25
3.53647e-26
-3.55116e-23
2.94166e-24
-4.68916e-22
4.8087e-23
-3.10235e-21
4.0515e-22
-1.21881e-20
2.18004e-21
-3.44059e-20
8.26266e-21
-7.76669e-20
2.46588e-20
-1.50549e-19
5.97313e-20
-2.61895e-19
1.20126e-19
-4.18075e-19
2.05437e-19
-6.18764e-19
3.04297e-19
3.94391e-19
-8.53461e-19
-1.7082e-23
1.48384e-24
-3.43338e-22
6.08061e-23
-2.35055e-21
5.03717e-22
-9.14741e-21
2.06192e-21
-2.52308e-20
6.05931e-21
-5.52476e-20
1.55254e-20
-1.03092e-19
3.70951e-20
-1.72753e-19
8.09652e-20
-2.69286e-19
1.56218e-19
-3.96758e-19
2.62622e-19
-5.53599e-19
3.84274e-19
4.90508e-19
-7.29065e-19
-9.44446e-23
1.70914e-23
-1.16429e-21
3.63304e-22
-5.55163e-21
1.82625e-21
-1.63826e-20
4.92162e-21
-3.63064e-20
1.00479e-20
-6.63215e-20
1.91522e-20
-1.0553e-19
3.83502e-20
-1.527e-19
7.88566e-20
-2.08935e-19
1.52846e-19
-2.77692e-19
2.63046e-19
-3.60341e-19
3.92443e-19
5.03966e-19
-4.50628e-19
-2.43139e-22
7.59262e-23
-2.15396e-21
1.00133e-21
-8.09352e-21
3.63363e-21
-1.97611e-20
7.36503e-21
-3.74278e-20
1.12898e-20
-5.95073e-20
1.61547e-20
-8.22447e-20
2.68739e-20
-1.00546e-19
5.41158e-20
-1.11672e-19
1.12467e-19
-1.19097e-19
2.10608e-19
-1.31006e-19
3.36652e-19
4.51986e-19
-1.52524e-19
-3.42559e-22
1.63859e-22
-2.27996e-21
1.51184e-21
-6.85939e-21
4.25502e-21
-1.3738e-20
6.75926e-21
-2.08822e-20
7.67684e-21
-3.23538e-20
7.14924e-21
-3.79267e-20
9.92461e-21
-3.31278e-20
2.15417e-20
-9.84683e-21
5.72991e-20
2.42152e-20
1.32956e-19
6.37285e-20
2.41584e-19
3.55273e-19
9.55352e-20
-4.43092e-20
1.04526e-20
-7.40819e-19
2.13218e-19
-4.65535e-18
1.68934e-18
-3.47861e-20
5.89368e-18
-4.48854e-17
4.75834e-17
-1.60279e-17
7.22009e-15
1.58397e-17
-6.22053e-19
2.9594e-18
2.52999e-19
4.83632e-19
1.72574e-19
1.59961e-19
9.51996e-20
1.82074e-19
1.44273e-19
2.37238e-19
2.51287e-19
-5.6025e-20
7.2287e-20
-3.46343e-20
3.35445e-19
5.22364e-20
2.62222e-19
1.48671e-16
1.08015e-18
7.59519e-13
2.59116e-13
9.92983e-13
-3.03259e-11
3.79335e-17
9.93023e-13
2.07361e-17
3.67847e-17
3.36871e-19
2.46377e-17
1.9416e-19
3.4245e-20
2.03881e-19
7.02801e-20
1.0243e-19
2.26071e-19
4.08164e-24
7.22781e-20
2.17024e-23
3.35424e-19
4.67149e-23
2.61512e-19
4.81258e-16
-1.3902e-17
9.96965e-10
1.91647e-11
8.61986e-10
-9.69396e-12
6.97206e-10
-4.78914e-10
7.99931e-11
-5.3841e-10
3.7554e-12
5.16695e-13
-3.8988e-15
3.75931e-12
1.82251e-13
7.42365e-14
1.82338e-13
4.16675e-17
2.80868e-11
-1.23095e-17
7.36398e-11
-2.54346e-11
7.05783e-12
-2.42955e-10
2.40484e-16
7.05916e-12
2.52016e-11
-6.03711e-12
7.46343e-10
-2.37621e-11
1.01377e-08
-1.8597e-10
1.07105e-08
-6.49851e-13
3.55545e-09
6.89599e-10
3.37762e-10
6.1581e-11
1.43472e-13
3.37919e-10
3.86058e-12
1.41886e-12
-7.21176e-20
1.08604e-20
-1.07331e-19
1.32574e-20
-1.4671e-19
1.287e-20
-1.86686e-19
8.48335e-21
-2.20088e-19
-3.68771e-21
-2.18328e-19
-4.24879e-20
-1.82274e-19
-7.85441e-20
-1.21946e-19
-1.02917e-19
-5.70271e-20
-1.05591e-19
-1.21373e-20
-8.00669e-20
-3.84025e-23
-3.42526e-20
-9.16133e-22
-5.26448e-19
1.09213e-19
-6.91132e-19
1.14778e-19
-8.40962e-19
9.55435e-20
-9.47785e-19
4.57246e-20
-9.80613e-19
-4.14475e-20
-9.332e-19
-1.60126e-19
-8.00507e-19
-2.81363e-19
-5.93038e-19
-3.81184e-19
-3.4478e-19
-4.2604e-19
-1.21282e-19
-3.76238e-19
-4.80755e-21
-2.16053e-19
-2.45892e-20
-9.65608e-19
2.79539e-19
-1.20926e-18
2.79559e-19
-1.41511e-18
2.22796e-19
-1.54878e-18
1.03158e-19
-1.59306e-18
-6.95925e-20
-1.55071e-18
-2.721e-19
-1.40757e-18
-4.93535e-19
-1.14673e-18
-7.1378e-19
-7.7109e-19
-8.80326e-19
-3.47116e-19
-8.89498e-19
-3.80299e-20
-6.23267e-19
-1.3423e-19
-1.1013e-18
4.4708e-19
-1.33534e-18
4.35711e-19
-1.52963e-18
3.4429e-19
-1.66465e-18
1.72039e-19
-1.73708e-18
-5.65157e-20
-1.76873e-18
-2.95209e-19
-1.73283e-18
-5.83227e-19
-1.57117e-18
-9.33878e-19
-1.21353e-18
-1.3089e-18
-6.6041e-19
-1.53445e-18
-1.24528e-19
-1.2748e-18
-3.88219e-19
-9.04833e-19
5.45362e-19
-1.06268e-18
5.21824e-19
-1.19382e-18
4.12219e-19
-1.30227e-18
2.26977e-19
-1.39095e-18
-1.22877e-20
-1.50859e-18
-2.15509e-19
-1.63651e-18
-4.91594e-19
-1.69692e-18
-9.16891e-19
-1.5342e-18
-1.53648e-18
-1.0002e-18
-2.16931e-18
-2.67098e-19
-2.13973e-18
-8.13659e-19
-5.34293e-19
5.54604e-19
-5.97448e-19
5.17927e-19
-6.40077e-19
3.9919e-19
-6.85295e-19
2.29392e-19
-7.65863e-19
3.58704e-20
-9.1099e-19
-9.5364e-20
-1.14788e-18
-2.77223e-19
-1.43823e-18
-6.61545e-19
-1.59247e-18
-1.46046e-18
-1.26033e-18
-2.65525e-18
-4.30459e-19
-3.15888e-18
-1.40619e-18
-1.7838e-19
5.05289e-19
-1.94587e-19
4.63319e-19
-1.91358e-19
3.36362e-19
-1.83885e-19
1.78649e-19
-2.22703e-19
4.79394e-20
-3.16195e-19
-1.81851e-20
-5.20115e-19
-8.72594e-20
-8.91871e-19
-3.25664e-19
-1.32782e-18
-1.15404e-18
-1.32586e-18
-2.97316e-18
-5.5387e-19
-4.31689e-18
-2.13052e-18
1.04461e-19
4.24058e-19
8.53983e-20
4.06377e-19
4.75493e-20
2.99209e-19
9.95356e-21
1.46811e-19
-5.18372e-21
2.73796e-20
-2.38058e-20
-8.50584e-21
-8.8348e-20
-3.29588e-20
-3.12048e-19
-1.40216e-19
-7.8874e-19
-8.97635e-19
-1.1001e-18
-3.32893e-18
-5.61439e-19
-5.75484e-18
-2.92899e-18
3.03165e-19
3.143e-19
3.10467e-19
3.29177e-19
2.65506e-19
2.65226e-19
1.81096e-19
1.50942e-19
9.44287e-20
5.00998e-20
4.26267e-20
7.86965e-22
2.4164e-20
-4.22367e-20
2.92251e-20
-1.93718e-19
5.84336e-21
-1.19459e-18
-4.23461e-19
-4.12859e-18
-3.62844e-19
-7.75989e-18
-3.79158e-18
3.63871e-19
1.94249e-19
4.23631e-19
2.38038e-19
4.08276e-19
2.17246e-19
3.35593e-19
1.48797e-19
2.42864e-19
7.1623e-20
1.67609e-19
1.4399e-20
1.24377e-19
-1.24346e-19
2.2082e-19
-6.94614e-19
6.07895e-19
-2.17109e-18
7.83452e-19
-6.1838e-18
2.83482e-19
-1.0798e-17
-4.81264e-18
1.09676e-18
3.72629e-19
6.0607e-19
8.2102e-19
8.29532e-19
2.6621e-18
6.06783e-19
1.8094e-19
4.35148e-19
9.06757e-20
3.20022e-19
2.83454e-20
9.91272e-19
-3.30628e-18
1.96336e-18
-9.29097e-18
3.07398e-18
-6.88407e-18
4.41795e-18
-1.04757e-17
2.98464e-18
-1.46104e-17
-5.05209e-18
4.24407e-12
1.80278e-12
2.87564e-13
7.76216e-13
1.56519e-14
4.17345e-15
3.2032e-19
1.56328e-14
3.17262e-19
4.99182e-20
3.22296e-19
2.43608e-20
7.3447e-17
-6.92328e-17
5.63861e-17
-6.96757e-17
2.21139e-17
-1.06211e-17
2.08497e-17
-1.98301e-17
1.57735e-17
-1.28863e-17
3.99973e-18
-1.88285e-08
1.88285e-08
-7.35374e-08
5.47089e-08
-1.47694e-07
7.41566e-08
-2.23879e-07
7.61848e-08
-2.8736e-07
6.3481e-08
-3.27777e-07
4.04171e-08
-3.426e-07
1.48233e-08
-3.26507e-07
-1.60928e-08
-2.80655e-07
-4.58103e-08
-2.25752e-07
-5.49052e-08
-1.88635e-07
-3.71211e-08
-1.39e-08
-1.74735e-07
-6.89056e-08
8.77341e-08
-2.11188e-07
1.96991e-07
-3.84031e-07
2.47e-07
-5.5242e-07
2.44573e-07
-6.86153e-07
1.97214e-07
-7.63434e-07
1.17747e-07
-7.75205e-07
2.75736e-08
-7.27541e-07
-6.30795e-08
-6.3075e-07
-1.43913e-07
-5.07815e-07
-1.7784e-07
-4.14494e-07
-1.28303e-07
-3.85069e-08
-3.64237e-07
-1.00004e-07
1.87738e-07
-3.08443e-07
4.0543e-07
-5.58225e-07
4.96782e-07
-7.99613e-07
4.85961e-07
-9.88468e-07
3.86069e-07
-1.08834e-06
2.22022e-07
-1.11223e-06
5.22423e-08
-1.05669e-06
-1.19487e-07
-9.4485e-07
-2.62498e-07
-7.78148e-07
-3.44542e-07
-5.41867e-07
-2.62003e-07
-5.54552e-08
-3.71377e-07
-1.18726e-07
3.06464e-07
-3.63072e-07
6.49777e-07
-6.60946e-07
7.94656e-07
-9.5577e-07
7.80785e-07
-1.18457e-06
6.14866e-07
-1.29468e-06
3.32134e-07
-1.34159e-06
9.91537e-08
-1.34108e-06
-1.2e-07
-1.26528e-06
-3.38298e-07
-1.16114e-06
-4.48677e-07
-7.98195e-07
-4.74142e-07
-1.96037e-07
-5.79396e-07
-1.05373e-07
4.11837e-07
-3.29228e-07
8.73632e-07
-6.12487e-07
1.07791e-06
-9.02584e-07
1.07088e-06
-1.05337e-06
7.65648e-07
-9.37824e-07
2.03521e-07
-8.1625e-07
3.67708e-08
-8.50193e-07
-4.78297e-09
-1.02138e-06
-8.48255e-08
-1.15024e-06
-2.39904e-07
-1.05869e-06
-4.88055e-07
-4.83187e-07
-7.0043e-07
-4.93452e-08
4.61182e-07
-1.66128e-07
9.90415e-07
-3.11813e-07
1.2236e-06
-4.44392e-07
1.1827e-06
-1.82196e-07
3.29992e-07
-3.11085e-08
-1.08391e-09
-4.71474e-10
9.33034e-18
-5.25444e-09
-9.43072e-18
-2.70376e-08
-3.33441e-17
-9.90077e-08
-4.5793e-17
-2.7458e-07
-2.63687e-09
-1.35401e-07
-3.52251e-07
1.2122e-08
4.4906e-07
3.07003e-08
9.71837e-07
6.73395e-08
1.18696e-06
1.13981e-07
1.02072e-06
1.08391e-09
1.83368e-07
4.23992e-17
7.48554e-17
1.96393e-17
2.63664e-17
5.05184e-18
4.618e-20
-3.04519e-18
-2.04268e-17
-1.00924e-17
-2.94064e-17
-2.63687e-09
-2.9246e-17
-2.77615e-17
-2.35955e-08
4.94385e-08
3.99622e-07
1.79339e-07
8.41936e-07
3.68361e-07
9.97938e-07
4.80561e-07
8.13619e-07
1.21829e-08
2.95885e-07
1.43373e-16
1.21829e-08
9.43163e-17
5.40846e-17
6.13133e-17
1.62036e-17
3.78741e-17
-7.85706e-18
1.93274e-17
-2.30667e-17
2.94153e-18
-2.35721e-17
-1.98142e-17
-8.88665e-18
4.94351e-08
3.50186e-07
2.33025e-07
6.58346e-07
4.73444e-07
7.57519e-07
7.126e-07
5.74464e-07
4.0229e-07
2.73782e-07
4.60384e-09
1.8475e-07
1.39014e-16
4.60384e-09
1.09771e-16
2.3749e-17
8.32652e-17
1.85966e-18
6.75849e-17
-2.17474e-17
4.57018e-17
-1.08519e-17
-3.9899e-19
1.86078e-17
4.98174e-08
3.00369e-07
2.75263e-07
4.329e-07
5.14998e-07
5.17784e-07
6.97586e-07
3.91876e-07
9.9135e-07
-1.99822e-08
2.81265e-07
5.17807e-07
1.64374e-08
1.03927e-07
1.32928e-16
1.64374e-08
1.0418e-16
8.64931e-18
1.38305e-16
-1.15612e-16
1.04369e-16
-4.85726e-18
1.47383e-17
6.31982e-17
1.46346e-07
1.54023e-07
4.80126e-07
9.91197e-08
7.40482e-07
2.57429e-07
7.79456e-07
3.52901e-07
9.73934e-07
-2.1446e-07
9.15879e-07
5.38796e-07
8.82579e-07
-7.23562e-09
3.70798e-07
-9.8927e-09
1.77652e-07
1.42812e-07
1.67777e-07
-3.812e-07
2.11924e-08
-7.83994e-08
2.11924e-08
1.2022e-16
1.30215e-07
-1.09026e-17
2.40157e-07
-1.52875e-17
5.57126e-07
-5.9026e-18
9.16982e-07
1.05942e-16
1.23969e-06
-8.67948e-19
1.28067e-06
5.4967e-07
1.43782e-06
-1.32127e-07
1.61806e-06
-8.49875e-08
1.53207e-06
2.66222e-07
1.31791e-06
-1.55464e-07
1.07143e-06
-9.51904e-08
4.21085e-07
-7.87892e-08
-1.52477e-07
-2.22578e-08
-1.3328e-07
-1.91975e-08
-1.27977e-07
-5.30274e-09
-1.16109e-07
-1.16802e-08
-9.86394e-08
-1.74791e-08
-8.12055e-08
-1.73703e-08
-6.97294e-08
-1.15162e-08
-6.40142e-08
-5.74291e-09
-5.82145e-08
-5.80192e-09
-4.78221e-08
-1.03924e-08
-1.97428e-08
-2.80792e-08
-1.97427e-08
-3.51267e-07
-1.64681e-08
-3.57133e-07
-1.0796e-08
-3.59779e-07
-1.10304e-08
-3.10612e-07
-7.39245e-08
-2.56694e-07
-7.43272e-08
-2.06887e-07
-6.7177e-08
-1.65344e-07
-5.27321e-08
-1.43832e-07
-2.72383e-08
-1.24857e-07
-2.4777e-08
-1.01762e-07
-3.34874e-08
-4.23859e-08
-8.74552e-08
-6.21293e-08
-3.27324e-07
-6.06629e-08
-2.69166e-07
-6.88124e-08
-3.49372e-07
-7.0949e-08
-3.08738e-07
-1.14559e-07
-2.65376e-07
-1.17689e-07
-2.16573e-07
-1.1598e-07
-1.58826e-07
-1.09521e-07
-1.10829e-07
-6.94247e-08
-1.09658e-07
-2.34781e-08
-1.4145e-07
-3.21315e-09
-6.3243e-08
-1.61802e-07
-1.25372e-07
-4.0903e-07
-2.30873e-07
-3.52055e-07
-1.25943e-07
-4.29517e-07
-2.20125e-07
-3.27288e-07
-2.16788e-07
-2.77287e-07
-1.6769e-07
-2.45184e-07
-1.48083e-07
-2.12298e-07
-1.42407e-07
-1.31519e-07
-1.36987e-07
-4.49112e-08
-1.09532e-07
1.77596e-08
-6.64384e-08
3.638e-08
-1.55331e-07
-6.46296e-08
-5.30149e-07
-4.0301e-07
-3.1607e-07
-4.4475e-07
-2.34566e-07
-3.7724e-07
-1.94758e-07
-2.56596e-07
-1.84522e-07
-1.77926e-07
-1.87702e-07
-1.44903e-07
-1.81991e-07
-1.48118e-07
-1.56265e-07
-1.62712e-07
-1.1633e-07
-1.54522e-07
-4.914e-08
-1.38072e-07
-2.93318e-08
-1.75139e-07
-9.39614e-08
-3.01754e-07
-2.41277e-07
-2.10113e-07
-3.92039e-07
-7.05006e-08
-5.25577e-07
-3.8036e-08
-3.01165e-07
-5.07077e-08
-1.65254e-07
-8.89148e-08
-1.06696e-07
-1.20733e-07
-1.163e-07
-1.28733e-07
-1.54712e-07
-1.11538e-07
-1.71715e-07
-7.06733e-08
-1.78938e-07
-4.57632e-08
-2.19092e-07
-1.46129e-07
-3.90988e-08
-3.58336e-17
-9.53506e-08
-3.42809e-17
-1.35027e-07
-4.70657e-08
-7.88315e-08
-2.05756e-07
-2.06859e-08
-2.08916e-07
-2.85709e-08
-9.8811e-08
-4.72697e-08
-9.76012e-08
-4.21348e-08
-1.59848e-07
-2.26578e-08
-1.9117e-07
1.74979e-08
-2.18755e-07
3.93943e-08
-2.43662e-07
-1.36143e-07
-1.80718e-17
-2.27676e-17
-2.71061e-17
-2.91274e-17
-4.70657e-08
-2.82231e-17
-6.29662e-08
-3.09237e-17
-9.21354e-08
-2.45853e-08
-5.07194e-08
-8.12432e-08
-2.47693e-09
-1.45844e-07
4.16448e-08
-2.0397e-07
4.2256e-08
-1.91782e-07
1.23352e-08
-1.89745e-07
-1.56837e-08
-2.18499e-07
-1.51785e-07
-2.09368e-18
-4.02862e-18
-1.23476e-17
-2.39527e-17
-1.7933e-17
-3.41859e-17
-2.48894e-17
-3.55073e-17
-2.45853e-08
-3.59891e-17
-6.2177e-08
-1.43112e-17
3.76417e-08
-8.71069e-08
1.35127e-07
-2.62176e-07
1.2713e-07
-1.83785e-07
1.3366e-08
-7.6624e-08
-3.03273e-08
-1.77415e-07
-1.81174e-07
3.75675e-17
1.55099e-17
2.37908e-17
-1.48921e-17
7.27714e-18
-3.00359e-17
-6.07314e-18
-3.47207e-17
-8.92635e-18
-4.79801e-17
1.09193e-18
-3.95218e-17
1.44584e-08
-1.81146e-10
1.94645e-07
-8.4873e-08
2.70533e-07
-1.0661e-07
6.30763e-08
1.07803e-07
-2.52838e-08
-9.04358e-08
-2.09737e-07
9.26659e-17
3.72664e-17
3.58202e-09
1.28469e-08
4.33012e-09
-8.45943e-09
2.61796e-09
2.12843e-09
3.66972e-10
-5.14368e-09
2.89533e-17
3.66972e-10
2.20044e-11
-2.03151e-10
2.79287e-08
-2.42739e-09
1.77332e-07
-1.90696e-08
8.26963e-08
3.87597e-08
9.82726e-09
4.32651e-09
-1.9991e-07
5.49075e-07
-5.98878e-08
1.21594e-06
-9.83107e-08
1.08719e-06
8.06188e-08
8.48616e-07
3.76049e-07
7.00322e-07
2.09468e-07
1.35713e-07
-2.6879e-07
1.41745e-10
7.24532e-08
-1.37164e-11
-3.43979e-08
2.45965e-09
1.39733e-08
3.7038e-08
1.3871e-08
2.37574e-07
1.80533e-08
2.91034e-07
6.8446e-07
1.50621e-08
-3.30726e-07
2.18194e-06
5.18988e-10
3.77691e-06
-1.80148e-09
4.49757e-06
-6.21272e-08
4.69511e-06
-1.96181e-07
4.62083e-06
-3.52507e-07
4.53167e-06
-3.69249e-07
4.57568e-06
-2.21173e-07
4.67395e-06
-9.80403e-08
4.30218e-06
-1.88568e-08
2.94427e-06
3.76929e-08
2.11855e-07
2.97015e-06
1.25413e-07
-1.93047e-08
-8.93018e-08
1.13527e-07
6.54413e-10
1.55405e-07
-4.42217e-08
3.44806e-07
-2.50986e-07
3.19882e-06
-2.71612e-07
5.27669e-06
-4.95796e-07
5.39461e-06
-4.87171e-07
5.47884e-06
-3.05404e-07
5.51564e-06
-1.34838e-07
5.47082e-06
2.59631e-08
5.27277e-06
2.35739e-07
3.53898e-07
3.56088e-06
2.07185e-06
-6.00944e-07
-1.58548e-06
2.20251e-06
-2.20452e-08
2.83072e-06
-2.62743e-07
3.32116e-06
-5.30437e-07
3.87132e-06
-7.80598e-07
5.89803e-06
-8.90955e-07
6.12561e-06
-7.14747e-07
6.10798e-06
-4.16114e-07
6.06069e-06
-1.38867e-07
6.07209e-06
1.06684e-07
5.86028e-06
4.47545e-07
5.22238e-07
4.43255e-06
6.25149e-06
-6.16876e-06
-7.52263e-07
6.5744e-06
-3.71034e-07
6.92985e-06
-6.01899e-07
6.98883e-06
-5.89411e-07
6.92472e-06
-7.1649e-07
6.79398e-06
-7.60218e-07
6.72449e-06
-6.4525e-07
6.30031e-06