/*--------------------------------*- C++ -*----------------------------------*\
| =========                 |                                                 |
| \\      /  F ield         | OpenFOAM: The Open Source CFD Toolbox           |
|  \\    /   O peration     | Version:  v1606+                                |
|   \\  /    A nd           | Web:      www.OpenFOAM.com                      |
|    \\/     M anipulation  |                                                 |
\*---------------------------------------------------------------------------*/
FoamFile
{
    version     2.0;
    format      ascii;
    class       surfaceScalarField;
    location    "1.19";
    object      phi.air;
}
// * * * * * * * * * * * * * * * * * * * * * * * * * * * * * * * * * * * * * //

dimensions      [0 3 -1 0 0 0 0];

internalField   nonuniform List<scalar> 
11770
(
6.1087e-06
7.78826e-05
1.07743e-05
7.92791e-05
1.12661e-05
8.24579e-05
9.62016e-06
8.58142e-05
6.32999e-06
8.98108e-05
3.46583e-06
9.20521e-05
1.45564e-06
9.35557e-05
-2.81914e-06
9.58696e-05
-5.8959e-06
9.42379e-05
-5.89007e-06
9.1277e-05
-3.29919e-06
8.8692e-05
5.16066e-07
8.70991e-05
3.60293e-06
8.70336e-05
3.97679e-06
8.83707e-05
3.0647e-06
8.88689e-05
2.64862e-06
8.7678e-05
1.76927e-06
8.76594e-05
7.997e-07
8.79022e-05
-1.60167e-06
8.99107e-05
-4.74502e-06
9.18435e-05
-6.49361e-06
9.18094e-05
-6.73847e-06
9.00639e-05
-9.76353e-06
9.06406e-05
-1.29694e-05
8.91381e-05
-1.56442e-05
8.62091e-05
-1.6767e-05
8.30857e-05
-1.27577e-05
7.82146e-05
-7.59769e-06
7.71851e-05
-3.84191e-06
7.93527e-05
8.02493e-05
1.02981e-05
5.81888e-05
1.88705e-05
6.04412e-05
2.47173e-05
6.62218e-05
2.60877e-05
7.38495e-05
2.1638e-05
8.26846e-05
1.30914e-05
8.76739e-05
2.27688e-06
8.92312e-05
-4.83095e-06
8.76548e-05
-8.93067e-06
8.38592e-05
-1.07648e-05
7.91426e-05
-9.71615e-06
7.45284e-05
-6.96372e-06
7.16912e-05
-4.46061e-06
7.16153e-05
-2.25771e-06
7.3119e-05
9.19474e-07
7.35901e-05
4.40775e-06
7.27926e-05
7.6501e-06
7.33369e-05
7.67189e-06
7.56502e-05
5.60978e-06
7.88192e-05
1.32112e-06
8.21445e-05
-5.48138e-06
8.3931e-05
-1.5297e-05
8.54237e-05
-2.28026e-05
8.56249e-05
-2.78318e-05
8.24234e-05
-2.73681e-05
7.52301e-05
-2.2492e-05
6.87145e-05
-1.44222e-05
6.22534e-05
-5.98028e-06
6.1984e-05
-2.33936e-06
6.84292e-05
7.04857e-05
1.84942e-06
6.51324e-05
8.87037e-06
6.27781e-05
1.73824e-05
6.44676e-05
2.35793e-05
7.18101e-05
2.31482e-05
8.51689e-05
1.42355e-05
9.6278e-05
2.69406e-06
9.98878e-05
-4.74563e-06
9.49163e-05
-9.97481e-06
8.85992e-05
-1.34685e-05
8.16954e-05
-1.44968e-05
7.47166e-05
-1.3168e-05
6.99346e-05
-1.07987e-05
6.87214e-05
-6.09721e-06
6.83327e-05
-4.265e-07
6.81487e-05
4.4685e-06
6.81591e-05
8.20964e-06
6.99162e-05
8.54479e-06
7.53813e-05
7.73594e-06
8.05685e-05
4.2951e-06
8.6709e-05
-3.41166e-06
9.19733e-05
-1.47866e-05
9.62917e-05
-2.26028e-05
9.36284e-05
-2.3417e-05
8.49369e-05
-1.57983e-05
7.18126e-05
-5.59302e-06
6.58483e-05
-1.09481e-07
6.55005e-05
3.41124e-06
7.04718e-05
3.09074e-06
8.28814e-05
8.72034e-05
-3.92605e-06
7.76285e-05
-6.21609e-06
7.14087e-05
-2.85011e-06
6.53247e-05
6.36099e-06
6.45417e-05
1.2472e-05
7.8339e-05
7.14618e-06
9.89219e-05
-1.10574e-06
0.000106294
-8.568e-06
0.000100645
-1.50197e-05
9.29117e-05
-1.96562e-05
8.40241e-05
-2.06249e-05
7.36536e-05
-1.78346e-05
6.53912e-05
-1.25237e-05
6.21392e-05
-5.71064e-06
6.12064e-05
6.03294e-07
6.18832e-05
5.74919e-06
6.28564e-05
9.94042e-06
6.52473e-05
1.23966e-05
7.18136e-05
1.18395e-05
7.90293e-05
7.30812e-06
8.85391e-05
-1.82207e-08
9.67316e-05
-7.94599e-06
0.00010176
-1.25865e-05
9.60437e-05
-5.71956e-06
7.87496e-05
6.06029e-06
6.39472e-05
1.27261e-05
6.41219e-05
1.40255e-05
6.96524e-05
1.18662e-05
7.92409e-05
7.58446e-06
9.77135e-05
0.000105995
-1.16054e-05
0.0001022
-1.98624e-05
9.07395e-05
-2.17289e-05
7.56624e-05
-1.80511e-05
6.68381e-05
-7.06448e-06
7.12712e-05
2.98271e-07
9.21986e-05
-5.65746e-06
0.000109198
-1.40011e-05
0.00010617
-2.07524e-05
9.76088e-05
-2.30683e-05
8.529e-05
-1.96843e-05
7.0771e-05
-1.30597e-05
6.12712e-05
-5.84095e-06
5.87737e-05
-2.78553e-07
5.91474e-05
3.70978e-06
6.0867e-05
6.61399e-06
6.30143e-05
9.08592e-06
6.60591e-05
1.2758e-05
7.17927e-05
1.50375e-05
7.89251e-05
1.30005e-05
9.05453e-05
6.19352e-06
0.000101912
1.85869e-06
0.00010553
4.4313e-06
9.54819e-05
1.4412e-05
7.46385e-05
2.19513e-05
6.2952e-05
2.52924e-05
6.46929e-05
2.80762e-05
7.2208e-05
2.48608e-05
8.81204e-05
1.21294e-05
0.00010892
0.000112929
-1.92705e-05
0.000118459
-3.3213e-05
0.000108798
-3.60491e-05
8.99092e-05
-3.68829e-05
7.73721e-05
-2.89148e-05
7.21968e-05
-1.22151e-05
8.29022e-05
-1.01942e-05
0.000107654
-1.84632e-05
0.00011234
-2.20751e-05
0.000100216
-1.71363e-05
8.16601e-05
-9.24903e-06
6.7136e-05
-2.78641e-06
6.09141e-05
2.60485e-06
5.91261e-05
5.77706e-06
6.02246e-05
7.60718e-06
6.25239e-05
8.34736e-06
6.55021e-05
8.2069e-06
6.95392e-05
9.58953e-06
7.49387e-05
1.20824e-05
8.20669e-05
1.39249e-05
9.39663e-05
1.18207e-05
0.000107576
1.41152e-05
0.000107975
2.194e-05
9.48641e-05
2.87069e-05
7.50977e-05
3.05185e-05
6.30928e-05
3.44038e-05
6.38367e-05
3.24183e-05
7.77704e-05
1.7738e-05
9.46359e-05
6.52678e-06
0.000105531
0.000105691
-1.07348e-05
0.000110941
-2.72343e-05
0.000107157
-4.32855e-05
9.78776e-05
-4.72332e-05
8.95873e-05
-4.34717e-05
8.14582e-05
-2.90287e-05
8.06821e-05
-1.5032e-05
0.000101665
-1.65798e-05
0.000115768
-1.31105e-05
9.99549e-05
-4.47864e-06
7.92377e-05
1.68152e-06
6.7854e-05
3.97898e-06
6.30319e-05
5.36749e-06
6.05266e-05
7.1526e-06
6.08207e-05
8.87954e-06
6.30886e-05
9.60462e-06
6.70546e-05
8.9732e-06
7.29704e-05
7.43908e-06
8.08355e-05
6.08156e-06
9.0047e-05
7.24395e-06
0.000101963
1.13803e-05
0.000112976
1.95426e-05
0.000108997
2.84062e-05
9.43843e-05
3.00546e-05
7.60614e-05
3.27222e-05
6.14006e-05
3.39451e-05
6.58228e-05
1.48963e-05
8.58287e-05
1.47672e-07
9.64006e-05
-1.86478e-06
9.96123e-05
9.78902e-05
9.35484e-07
0.000102364
-7.46962e-06
0.000103779
-2.68922e-05
9.85431e-05
-4.3115e-05
9.15024e-05
-4.98487e-05
8.99179e-05
-4.05349e-05
8.34978e-05
-2.08136e-05
9.48628e-05
-1.13957e-05
0.000114378
-1.72541e-06
9.84979e-05
4.62317e-06
8.04255e-05
5.37966e-06
7.09052e-05
5.31694e-06
6.49265e-05
5.90006e-06
6.08851e-05
7.73694e-06
5.96779e-05
9.99371e-06
6.15025e-05
1.16123e-05
6.64607e-05
1.17757e-05
7.47993e-05
8.57216e-06
8.70945e-05
3.98428e-06
9.97135e-05
5.05165e-07
0.000112996
6.18883e-06
0.000118626
1.47848e-05
0.000110197
2.00398e-05
9.39505e-05
2.15268e-05
7.41238e-05
2.56711e-05
6.02566e-05
9.12e-06
7.74191e-05
-1.00448e-05
9.55701e-05
-1.10074e-05
9.44702e-05
-5.97936e-06
9.29792e-05
9.05924e-05
6.23293e-06
9.4815e-05
9.24654e-06
9.85261e-05
1.45839e-06
0.000100626
-1.94066e-05
9.95894e-05
-4.51152e-05
9.87826e-05
-3.95092e-05
7.97747e-05
-2.4244e-05
8.80937e-05
-6.93091e-06
0.00010605
4.98307e-06
9.47497e-05
6.39291e-06
8.28678e-05
4.4107e-06
7.40803e-05
3.95487e-06
6.59586e-05
5.42788e-06
5.97526e-05
8.52567e-06
5.67155e-05
1.22687e-05
5.77589e-05
1.58026e-05
6.31818e-05
1.83634e-05
7.35118e-05
1.40273e-05
9.24856e-05
5.86284e-06
0.000109676
-3.28075e-06
0.000124113
-1.58859e-06
0.000122078
3.52019e-06
0.00010938
4.94488e-06
9.46511e-05
6.0956e-06
7.61316e-05
-4.67828e-06
7.64935e-05
-2.63609e-05
9.75756e-05
-2.53803e-05
9.70442e-05
-1.78556e-05
8.94605e-05
-9.69926e-06
8.63176e-05
8.25103e-05
9.82499e-06
8.63731e-05
1.67966e-05
9.24496e-05
2.15019e-05
9.75728e-05
1.46956e-05
0.000105962
-1.2485e-05
0.000117385
-2.8259e-05
9.17812e-05
-1.91854e-05
8.20308e-05
-2.23662e-06
9.25478e-05
6.19631e-06
8.99316e-05
4.37978e-06
8.58983e-05
9.60742e-07
7.84291e-05
8.36908e-07
6.71135e-05
3.6144e-06
5.79871e-05
8.71641e-06
5.24709e-05
1.48163e-05
5.22179e-05
2.17589e-05
5.69815e-05
2.93895e-05
6.81438e-05
2.3289e-05
9.59615e-05
7.64307e-06
0.000122898
-6.39832e-06
0.000135526
-1.1845e-05
0.00012509
-7.06011e-06
0.000104942
-8.21352e-06
9.66066e-05
-1.69856e-05
9.2797e-05
-4.24689e-05
0.000105478
-4.58987e-05
0.000105251
-3.61492e-05
9.2684e-05
-2.48999e-05
8.34201e-05
-1.29011e-05
7.90119e-05
7.40671e-05
1.22987e-05
7.83342e-05
2.40177e-05
8.5204e-05
3.28673e-05
9.33537e-05
3.41831e-05
0.00010828
2.403e-05
0.000128996
-4.35225e-06
0.000118002
-4.61707e-06
8.51812e-05
6.20249e-06
8.28211e-05
9.51223e-06
8.79437e-05
3.90788e-06
9.24676e-05
-5.25446e-06
8.91457e-05
-5.15259e-06
7.01481e-05
-6.75488e-07
5.65725e-05
7.35553e-06
4.72281e-05
1.66173e-05
4.47455e-05
2.93651e-05
4.69588e-05
4.07572e-05
6.04573e-05
4.36129e-05
8.98097e-05
2.17661e-05
0.000123673
1.41843e-06
0.000136233
-1.58883e-05
0.00012897
-1.55634e-05
0.000101857
-2.51178e-05
0.000104057
-5.05772e-05
0.000112881
-6.37656e-05
0.000113748
-5.35739e-05
9.5633e-05
-4.14685e-05
8.29428e-05
-2.97555e-05
7.50493e-05
-1.55665e-05
6.87625e-05
6.24023e-05
1.42756e-05
6.80331e-05
2.8193e-05
7.54965e-05
3.77121e-05
8.71717e-05
4.23347e-05
0.000105582
4.25289e-05
0.000129816
2.23813e-05
0.000137949
1.25563e-05
0.000102408
1.82547e-05
7.9188e-05
1.97671e-05
8.64879e-05
8.68713e-06
0.000101647
-1.73698e-05
0.000110516
-1.5824e-05
7.47881e-05
-9.38886e-06
5.53441e-05
2.50004e-06
4.02372e-05
1.50763e-05
3.59478e-05
4.23034e-05
3.11423e-05
6.62899e-05
3.30294e-05
7.54294e-05
6.19055e-05
5.52946e-05
0.000116033
2.28331e-05
0.000141878
-7.30939e-06
0.000134121
-2.99142e-05
0.000107415
-5.32259e-05
0.000111766
-7.65087e-05
0.000118269
-7.24505e-05
9.86019e-05
-5.72412e-05
7.45322e-05
-4.33599e-05
6.54763e-05
-3.04521e-05
6.06497e-05
-1.73287e-05
5.54956e-05
4.64241e-05
1.58114e-05
5.39885e-05
2.8402e-05
6.35115e-05
3.86881e-05
7.61914e-05
4.74658e-05
9.44231e-05
5.77804e-05
0.000117167
5.6535e-05
0.000136051
3.97748e-05
0.0001215
3.40399e-05
9.28232e-05
3.12712e-05
8.76426e-05
1.31958e-05
0.000111015
-2.32307e-05
0.000126827
-3.26957e-05
7.70649e-05
-2.41781e-05
5.23349e-05
-8.76823e-06
3.53301e-05
1.43522e-05
2.88276e-05
3.78225e-05
1.47227e-05
5.891e-05
7.15712e-06
6.92076e-05
3.78409e-05
6.19692e-05
0.000108113
3.79664e-05
0.00015415
7.34698e-06
0.000152405
-3.60941e-05
0.000134066
-6.95351e-05
0.000128489
-8.22653e-05
0.000114882
-7.3999e-05
7.87229e-05
-5.76283e-05
5.11132e-05
-4.10772e-05
4.37606e-05
-2.66003e-05
4.21222e-05
-1.66236e-05
4.18376e-05
2.94466e-05
1.54629e-05
3.85503e-05
2.54604e-05
5.10349e-05
3.77284e-05
6.05591e-05
5.36645e-05
7.44006e-05
7.41734e-05
9.34424e-05
8.95376e-05
0.0001179
7.7722e-05
0.000127527
5.55364e-05
0.000111068
3.52761e-05
0.000100505
8.31884e-06
0.000115538
-2.32839e-05
0.000129507
-4.94342e-05
7.98569e-05
-4.43935e-05
4.74085e-05
-2.70571e-05
3.2252e-05
-6.46692e-06
1.92971e-05
3.72821e-06
4.09488e-06
1.68599e-05
-7.05218e-06
3.70019e-05
1.38699e-05
4.16772e-05
9.73358e-05
2.99714e-05
0.000162474
8.83775e-06
0.00017139
-2.5893e-05
0.00016332
-5.55328e-05
0.000150272
-6.71117e-05
0.000115854
-6.34518e-05
6.58363e-05
-4.88392e-05
3.20794e-05
-3.29344e-05
2.53899e-05
-1.86929e-05
2.56902e-05
-1.14859e-05
3.09108e-05
1.72598e-05
1.21574e-05
2.58959e-05
1.96884e-05
3.99894e-05
3.53428e-05
4.23785e-05
5.70178e-05
5.06394e-05
8.43266e-05
6.47157e-05
0.000108479
8.96677e-05
0.000106951
0.000118105
8.28652e-05
0.000119017
4.79244e-05
0.000116164
1.79456e-05
0.000127078
1.23379e-06
0.000134431
-3.64302e-05
9.80845e-05
-5.6453e-05
5.18228e-05
-4.14522e-05
1.46818e-05
-2.43706e-05
-6.16114e-07
-1.32395e-05
-8.71485e-06
-8.4883e-06
-1.16739e-05
5.38481e-06
1.30357e-06
1.87954e-05
8.50517e-05
1.65651e-05
0.00016334
3.49015e-06
0.000183222
-1.43377e-05
0.000180762
-3.37778e-05
0.00016718
-4.60799e-05
0.000121585
-4.21567e-05
5.53549e-05
-3.04881e-05
1.81386e-05
-1.95661e-05
1.40486e-05
-9.11871e-06
1.50363e-05
-4.58897e-06
2.39646e-05
1.20116e-05
6.31783e-06
1.88967e-05
1.20445e-05
3.15501e-05
2.75695e-05
2.66857e-05
4.83418e-05
3.01939e-05
7.42117e-05
3.8617e-05
9.90162e-05
5.91979e-05
0.000100344
0.000102543
8.02696e-05
0.000124025
5.21338e-05
0.000132945
3.40112e-05
0.00013992
2.67007e-05
0.000139299
1.93196e-06
0.000116209
-3.18132e-05
6.8199e-05
-3.57044e-05
7.72303e-06
-2.49761e-05
-1.44579e-05
-1.77918e-05
-1.6918e-05
-1.89312e-05
-9.25752e-06
-1.90475e-05
6.64562e-06
-7.55723e-06
8.18604e-05
1.85411e-07
0.000161247
-2.74732e-06
0.000189394
-6.67899e-06
0.00018843
-1.61852e-05
0.000177941
-2.37225e-05
0.00012682
-1.6145e-05
4.60411e-05
-1.15341e-05
1.25513e-05
-8.6488e-06
1.08516e-05
-4.07491e-06
1.01771e-05
3.44928e-07
1.8132e-05
1.17106e-05
5.80454e-07
1.76427e-05
6.58501e-06
2.42713e-05
1.64862e-05
1.75175e-05
2.84218e-05
1.89756e-05
4.4702e-05
2.15185e-05
6.51863e-05
3.3703e-05
7.20883e-05
8.47626e-05
6.10323e-05
0.000127111
4.83575e-05
0.000142823
4.26615e-05
0.000145064
3.87697e-05
0.000141462
2.77506e-05
0.000124606
4.06163e-06
8.48254e-05
-2.15087e-05
2.41259e-05
-1.91959e-05
-2.01906e-05
-1.28448e-05
-2.02177e-05
-2.16078e-05
4.03642e-06
-4.02711e-05
3.31052e-05
-3.75233e-05
9.30957e-05
-2.19527e-05
0.000160446
-1.27363e-05
0.00019128
-5.97649e-06
0.000192047
-4.69513e-06
0.000184703
-3.96291e-06
0.000131519
2.87377e-06
4.36375e-05
-7.53965e-07
1.75132e-05
-3.47916e-06
1.26744e-05
-2.57427e-06
8.37543e-06
2.33636e-06
1.20746e-05
1.35018e-05
-1.54179e-06
1.8523e-05
4.41667e-06
1.8313e-05
8.17027e-06
1.4828e-05
1.06673e-05
1.71056e-05
1.48572e-05
1.70172e-05
2.41969e-05
2.24632e-05
3.64548e-05
6.99183e-05
3.31182e-05
0.000129101
3.34537e-05
0.000144641
3.74936e-05
0.000143876
3.88452e-05
0.000141494
3.68173e-05
0.000127168
2.86507e-05
9.26768e-05
5.88977e-06
4.21967e-05
-4.78599e-06
-5.05686e-06
1.06879e-06
-1.8662e-05
-2.16718e-05
2.55427e-05
-5.95912e-05
6.46589e-05
-6.5907e-05
0.000104959
-4.48244e-05
0.000155223
-2.46382e-05
0.00018648
-1.14729e-05
0.000192973
2.09047e-06
0.000185955
1.27807e-05
0.000135772
1.25844e-05
5.36456e-05
4.23196e-06
2.72315e-05
-1.88603e-06
1.91183e-05
-2.38627e-06
9.15246e-06
7.8061e-07
8.82128e-06
1.41777e-05
7.10307e-07
1.77278e-05
4.8727e-06
1.52694e-05
3.60497e-06
1.91559e-05
-1.46589e-06
2.40281e-05
-3.99183e-06
2.16735e-05
-4.17283e-06
2.66487e-05
5.88866e-06
6.80967e-05
8.36574e-06
0.000132153
1.30728e-05
0.000146419
2.08544e-05
0.000143065
2.62471e-05
0.000141882
3.18565e-05
0.000127284
3.62034e-05
9.44225e-05
2.82723e-05
5.49295e-05
6.96904e-06
1.84433e-05
3.06892e-07
-6.49433e-06
-2.12552e-05
3.97526e-05
-5.08241e-05
7.96121e-05
-6.4626e-05
0.000105274
-4.86181e-05
0.000137019
-2.7041e-05
0.000168456
-1.02173e-05
0.000180288
1.52244e-05
0.000169513
3.63098e-05
0.000125493
2.05346e-05
7.10706e-05
5.68146e-06
4.43378e-05
-7.30256e-06
3.13825e-05
-5.58979e-06
1.14031e-05
-2.4658e-06
6.19228e-06
1.20457e-05
6.05594e-06
1.10551e-05
1.1813e-05
1.18432e-05
-5.47967e-07
3.31462e-05
-1.07687e-05
3.6649e-05
-1.71371e-05
3.1021e-05
-2.90416e-05
3.94161e-05
-3.00617e-05
7.35386e-05
-1.4542e-05
0.000125666
-3.87633e-06
0.000144143
4.34422e-06
0.000143287
1.25142e-05
0.000142304
2.36102e-05
0.000125805
3.1332e-05
9.71834e-05
2.97905e-05
6.5736e-05
9.89282e-06
3.87591e-05
-7.40124e-06
8.82998e-06
-1.56988e-05
4.70486e-05
-2.56726e-05
8.45429e-05
-3.64532e-05
0.000105032
-3.22558e-05
0.000120735
-1.57827e-05
0.000141311
5.30431e-06
0.000149546
3.14605e-05
0.000136008
4.36703e-05
0.0001037
2.58116e-05
7.34942e-05
4.06771e-06
5.26426e-05
-8.4904e-06
3.69656e-05
-1.281e-05
1.77143e-05
-6.48275e-06
7.29886e-07
3.97384e-06
1.29615e-05
2.41881e-07
1.53127e-05
1.08718e-05
1.8494e-06
3.40886e-05
-8.80107e-06
3.56294e-05
-2.08002e-05
3.26441e-05
-3.80076e-05
4.4494e-05
-4.89383e-05
7.16904e-05
-3.1506e-05
0.000106575
-1.42124e-05
0.000128652
-5.70101e-06
0.000136035
3.13279e-06
0.000135974
1.24894e-05
0.00012032
1.18285e-05
0.000100849
4.22174e-06
7.29502e-05
-4.6266e-06
4.71595e-05
-1.21293e-05
1.60793e-05
-1.46917e-05
4.99197e-05
-1.47448e-05
8.41099e-05
-1.61652e-05
0.000103441
-1.37805e-05
0.000112645
-9.1264e-07
0.000121095
1.74306e-05
0.000123471
3.21593e-05
0.000111772
3.29028e-05
9.17233e-05
2.23118e-05
7.4673e-05
7.33713e-06
5.93098e-05
-2.80311e-06
3.99821e-05
-1.73079e-05
2.29986e-05
-1.02735e-05
-2.87613e-06
-4.83605e-06
1.25719e-05
-7.92904e-06
1.55085e-06
1.58863e-05
-4.77138e-06
3.4597e-05
-8.63639e-06
3.52647e-05
-1.47513e-05
3.45514e-05
-2.25191e-05
4.65681e-05
-3.0009e-05
6.91725e-05
-2.61036e-05
9.1093e-05
-1.7154e-05
0.00010965
-1.25947e-05
0.000121362
-9.55198e-06
0.000123168
-1.10052e-05
0.000111863
-1.66122e-05
9.72426e-05
-2.32098e-05
7.13005e-05
-1.88157e-05
4.17332e-05
-1.81348e-05
1.66044e-05
-1.77639e-05
4.94143e-05
-1.30547e-05
7.94513e-05
-8.88745e-06
9.8605e-05
-3.67067e-06
0.000106207
5.05658e-06
0.000110362
1.61641e-05
0.000110082
2.21784e-05
0.000102561
2.00859e-05
9.06616e-05
1.4133e-05
7.87011e-05
8.0997e-06
6.43605e-05
3.1152e-06
4.36828e-05
-4.20715e-06
2.65606e-05
-7.88757e-06
2.98296e-07
-8.28715e-06
-2.09703e-06
-4.30575e-06
-9.08439e-06
2.03941e-05
-1.05092e-05
3.69262e-05
-1.10992e-05
3.67417e-05
-1.28024e-05
3.68276e-05
-1.23481e-05
4.59176e-05
-1.08233e-05
6.57062e-05
-1.30826e-05
8.69775e-05
-1.61556e-05
0.000104025
-1.89968e-05
0.000115006
-2.33364e-05
0.000117874
-2.99573e-05
0.000109208
-3.33607e-05
9.22165e-05
-3.06549e-05
6.40988e-05
-2.38195e-05
3.33402e-05
-2.292e-05
1.5852e-05
-1.98022e-05
4.68436e-05
-1.29131e-05
7.31972e-05
-6.38836e-06
9.19063e-05
-1.28382e-06
0.00010024
4.32606e-06
0.000103745
1.00462e-05
0.000103337
1.26534e-05
9.89087e-05
1.07617e-05
9.14659e-05
7.28933e-06
8.14507e-05
6.3218e-06
6.60195e-05
4.96624e-06
4.60138e-05
7.79971e-06
2.47935e-05
2.61563e-06
3.79415e-06
-4.64544e-06
-1.03481e-05
5.32416e-06
-1.09538e-05
2.27757e-05
-1.22652e-05
3.99854e-05
-1.51872e-05
4.10191e-05
-1.80593e-05
4.08415e-05
-1.47848e-05
4.42744e-05
-9.13537e-06
6.12983e-05
-8.69646e-06
8.56866e-05
-1.31712e-05
0.000106008
-1.80437e-05
0.000117178
-2.33171e-05
0.000120062
-2.78715e-05
0.000110503
-2.79068e-05
8.92369e-05
-2.38252e-05
5.74355e-05
-2.02373e-05
2.76708e-05
-2.10908e-05
1.72013e-05
-1.93271e-05
4.67951e-05
-1.43326e-05
6.96308e-05
-7.27884e-06
8.58789e-05
-2.24458e-06
9.51853e-05
1.56814e-06
9.93641e-05
4.47511e-06
9.95757e-05
5.4058e-06
9.70653e-05
4.622e-06
9.15606e-05
5.78353e-06
8.05502e-05
7.06749e-06
6.61e-05
8.92567e-06
4.54932e-05
1.11531e-05
2.34595e-05
7.82384e-06
7.67743e-06
2.62701e-06
-1.15706e-05
1.70697e-05
-1.4823e-05
2.73424e-05
-1.45159e-05
4.13987e-05
-1.76226e-05
4.54153e-05
-2.04589e-05
4.53499e-05
-2.02278e-05
4.66851e-05
-1.46135e-05
5.84803e-05
-9.67473e-06
8.25177e-05
-9.72368e-06
0.000106385
-1.27213e-05
0.000119907
-1.57757e-05
0.000122903
-1.68443e-05
0.000111283
-1.42527e-05
8.64351e-05
-1.27383e-05
5.48415e-05
-1.41274e-05
2.84384e-05
-1.81776e-05
2.19704e-05
-1.83234e-05
4.78965e-05
-1.69588e-05
6.9732e-05
-1.07356e-05
8.13763e-05
-5.32026e-06
9.1099e-05
-1.61489e-06
9.64293e-05
1.19417e-06
9.70837e-05
2.6871e-06
9.57703e-05
4.08483e-06
9.08481e-05
8.48798e-06
7.77968e-05
1.14212e-05
6.51483e-05
1.49563e-05
4.35778e-05
1.41351e-05
2.51861e-05
8.39472e-06
1.3769e-05
1.10296e-05
-1.17527e-05
2.89595e-05
-1.68991e-05
3.39581e-05
-1.79126e-05
4.46856e-05
-1.99063e-05
4.93759e-05
-2.20544e-05
4.93088e-05
-2.37365e-05
5.06636e-05
-2.08383e-05
5.9104e-05
-1.29188e-05
7.85046e-05
-7.19691e-06
0.000103284
-5.89876e-06
0.000119944
-5.33439e-06
0.000123566
-2.94125e-06
0.000110591
-2.45492e-07
8.56501e-05
-2.67013e-06
5.81598e-05
-8.14569e-06
3.36383e-05
-1.54068e-05
2.93702e-05
-1.78031e-05
5.09508e-05
-1.74006e-05
7.07053e-05
-1.40999e-05
7.98594e-05
-9.85505e-06
8.8993e-05
-6.26354e-06
9.50244e-05
-1.14861e-06
9.38789e-05
3.518e-06
9.30575e-05
6.95956e-06
8.98796e-05
1.19221e-05
7.54088e-05
1.81862e-05
6.13033e-05
2.01502e-05
4.35088e-05
1.64998e-05
2.98622e-05
8.94368e-06
2.17148e-05
1.9846e-05
-1.10065e-05
4.0042e-05
-1.67779e-05
4.1105e-05
-1.86556e-05
4.91088e-05
-2.04853e-05
5.39069e-05
-2.30051e-05
5.4346e-05
-2.45603e-05
5.50522e-05
-2.33733e-05
6.18507e-05
-1.7154e-05
7.72885e-05
-7.33511e-06
9.82812e-05
-6.44483e-07
0.000117189
4.21448e-06
0.000122463
8.78748e-06
0.000109996
8.58818e-06
8.93366e-05
4.65856e-06
6.41507e-05
-3.70764e-06
4.23836e-05
-1.38539e-05
3.94651e-05
-1.84622e-05
5.62821e-05
-1.76535e-05
7.15236e-05
-1.61323e-05
8.03429e-05
-1.21085e-05
8.75206e-05
-6.83548e-06
9.27402e-05
-1.73001e-06
9.17119e-05
4.23657e-06
9.02703e-05
1.15122e-05
8.62427e-05
1.76167e-05
7.26728e-05
2.32607e-05
5.88216e-05
2.31378e-05
4.61195e-05
1.75521e-05
3.68171e-05
8.91162e-06
3.08512e-05
2.86113e-05
-8.98366e-06
4.89508e-05
-1.44068e-05
4.74368e-05
-1.65734e-05
5.349e-05
-1.80004e-05
5.83691e-05
-2.05529e-05
6.01795e-05
-2.31635e-05
6.15047e-05
-2.2678e-05
6.61456e-05
-1.7506e-05
7.79149e-05
-7.54637e-06
9.46022e-05
1.64413e-06
0.000114185
8.31943e-06
0.000121718
1.21635e-05
0.000111551
1.18913e-05
9.40135e-05
8.50173e-06
7.03198e-05
-1.43363e-06
5.31308e-05
-1.32018e-05
5.11003e-05
-1.90323e-05
6.30122e-05
-1.92984e-05
7.37973e-05
-1.71572e-05
8.07214e-05
-1.24675e-05
8.58425e-05
-5.67621e-06
8.94419e-05
-8.55598e-07
9.0587e-05
5.40435e-06
8.80998e-05
1.49422e-05
8.12333e-05
2.18855e-05
7.01829e-05
2.51711e-05
5.95693e-05
2.32524e-05
5.0956e-05
1.6792e-05
4.46647e-05
8.1454e-06
3.99007e-05
3.67137e-05
-6.04465e-06
5.45374e-05
-1.01904e-05
5.15583e-05
-1.20241e-05
5.60485e-05
-1.27349e-05
6.10185e-05
-1.46542e-05
6.51114e-05
-1.78891e-05
6.90077e-05
-1.99322e-05
7.40637e-05
-1.68128e-05
8.20061e-05
-9.70916e-06
9.51489e-05
2.27742e-07
0.000111902
8.18984e-06
0.000121006
1.15909e-05
0.000114477
1.29203e-05
9.77399e-05
8.70312e-06
7.77008e-05
-1.61308e-06
6.4491e-05
-1.31809e-05
6.27106e-05
-1.87628e-05
6.97737e-05
-1.92267e-05
7.66279e-05
-1.69313e-05
8.14615e-05
-1.24516e-05
8.49833e-05
-6.38587e-06
8.74933e-05
2.93447e-07
8.85421e-05
8.11648e-06
8.54466e-05
1.62174e-05
7.86656e-05
2.16393e-05
7.00648e-05
2.31972e-05
6.22148e-05
2.05262e-05
5.59595e-05
1.45655e-05
5.13666e-05
7.12679e-06
4.75322e-05
4.39255e-05
-3.02141e-06
5.68806e-05
-5.40663e-06
5.33567e-05
-6.72985e-06
5.73096e-05
-7.76229e-06
6.30016e-05
-9.92824e-06
6.9373e-05
-1.37726e-05
7.66463e-05
-1.79448e-05
8.47554e-05
-1.96189e-05
9.30989e-05
-1.62824e-05
0.000102016
-7.37057e-06
0.000112321
2.34635e-06
0.000119433
8.25838e-06
0.000115514
9.89502e-06
0.000101629
5.56181e-06
8.5294e-05
-3.80014e-06
7.50443e-05
-1.34018e-05
7.28567e-05
-1.78148e-05
7.57566e-05
-1.80582e-05
7.9485e-05
-1.57389e-05
8.25186e-05
-1.15064e-05
8.4818e-05
-5.89231e-06
8.65137e-05
1.14351e-06
8.68502e-05
8.63794e-06
8.37197e-05
1.50811e-05
7.78682e-05
1.86279e-05
7.09926e-05
1.87188e-05
6.46369e-05
1.60705e-05
5.95226e-05
1.17012e-05
5.59486e-05
6.17657e-06
5.31437e-05
5.01415e-05
-4.47996e-07
5.68291e-05
-1.5173e-06
5.43369e-05
-2.6997e-06
5.88295e-05
-4.54424e-06
6.54438e-05
-7.70094e-06
7.35553e-05
-1.32964e-05
8.36544e-05
-1.98577e-05
9.42152e-05
-2.42033e-05
0.000104517
-2.3011e-05
0.00011308
-1.64106e-05
0.000118511
-7.03715e-06
0.000120323
6.27134e-07
0.00011569
3.33224e-06
0.000104451
-5.80559e-08
9.16941e-05
-7.119e-06
8.34406e-05
-1.35873e-05
8.03994e-05
-1.65186e-05
8.03955e-05
-1.64181e-05
8.18142e-05
-1.41703e-05
8.34042e-05
-1.03493e-05
8.47061e-05
-5.14262e-06
8.54815e-05
1.44587e-06
8.48812e-05
7.74552e-06
8.18101e-05
1.2173e-05
7.67778e-05
1.39054e-05
7.10686e-05
1.33813e-05
6.5798e-05
1.15054e-05
6.15937e-05
8.79571e-06
5.87698e-05
5.10604e-06
5.69092e-05
5.5222e-05
1.79149e-06
5.51417e-05
1.44131e-06
5.49484e-05
4.06488e-08
6.0192e-05
-1.92165e-06
6.76792e-05
-6.60254e-06
7.81002e-05
-1.52409e-05
9.17185e-05
-2.48372e-05
0.000103334
-3.17299e-05
0.000112365
-3.25541e-05
0.000118992
-2.64323e-05
0.000122147
-1.69591e-05
0.00012138
-8.63269e-06
0.000115246
-5.08233e-06
0.000105363
-6.61032e-06
9.53166e-05
-1.04236e-05
8.83293e-05
-1.36347e-05
8.4577e-05
-1.50824e-05
8.29837e-05
-1.45642e-05
8.27892e-05
-1.24686e-05
8.31169e-05
-9.12084e-06
8.33841e-05
-4.58888e-06
8.31752e-05
6.2661e-07
8.18504e-05
5.10181e-06
7.89376e-05
7.86821e-06
7.4803e-05
8.93951e-06
7.02678e-05
8.78819e-06
6.60585e-05
7.79306e-06
6.26633e-05
6.2165e-06
6.0415e-05
3.90132e-06
5.9305e-05
5.9105e-05
3.13347e-06
5.24412e-05
3.02499e-06
5.50286e-05
2.09743e-06
6.12739e-05
-6.87387e-07
6.95881e-05
-7.57872e-06
8.27468e-05
-1.93434e-05
9.913e-05
-3.02941e-05
0.00010957
-3.723e-05
0.000114948
-3.94383e-05
0.000118502
-3.46747e-05
0.000118524
-2.56846e-05
0.000116095
-1.75172e-05
0.000110625
-1.30274e-05
0.000103107
-1.21872e-05
9.55325e-05
-1.29689e-05
8.96739e-05
-1.37742e-05
8.58092e-05
-1.39279e-05
8.35214e-05
-1.30454e-05
8.23347e-05
-1.11405e-05
8.16921e-05
-8.34217e-06
8.11126e-05
-4.84013e-06
8.0195e-05
-1.17215e-06
7.85646e-05
1.93717e-06
7.60356e-05
4.04931e-06
7.27898e-05
5.13208e-06
6.9247e-05
5.35939e-06
6.58743e-05
4.9593e-06
6.30961e-05
4.11611e-06
6.1286e-05
2.74789e-06
6.07328e-05
6.18435e-05
3.20739e-06
4.91943e-05
4.16331e-06
5.44679e-05
9.95541e-07
6.31995e-05
-6.34885e-06
7.38637e-05
-1.47291e-05
8.61938e-05
-2.43488e-05
0.000103623
-3.19505e-05
0.000112492
-3.74988e-05
0.000115727
-3.93318e-05
0.000115582
-3.60069e-05
0.000112383
-2.95804e-05
0.000108777
-2.31377e-05
0.000104199
-1.85283e-05
9.87456e-05
-1.60191e-05
9.3261e-05
-1.48321e-05
8.86574e-05
-1.41355e-05
8.52163e-05
-1.33708e-05
8.28195e-05
-1.21698e-05
8.11855e-05
-1.03911e-05
7.99808e-05
-8.09377e-06
7.88847e-05
-5.44927e-06
7.76054e-05
-2.75585e-06
7.59187e-05
-3.98837e-07
7.37191e-05
1.34853e-06
7.10744e-05
2.40722e-06
6.82079e-05
2.84838e-06
6.54407e-05
2.82439e-06
6.31239e-05
2.47223e-06
6.16415e-05
1.75672e-06
6.14807e-05
6.35902e-05
3.78055e-06
4.5355e-05
3.89576e-06
5.31829e-05
-6.88823e-06
7.05282e-05
-2.03053e-05
8.46802e-05
-2.55825e-05
9.06161e-05
-2.9372e-05
0.000105614
-3.12921e-05
0.000113192
-3.36033e-05
0.000116232
-3.55151e-05
0.000114688
-3.38439e-05
0.000107781
-2.94262e-05
0.000102457
-2.46918e-05
9.86986e-05
-2.06612e-05
9.44718e-05
-1.77196e-05
9.02986e-05
-1.57143e-05
8.67042e-05
-1.42775e-05
8.38251e-05
-1.30065e-05
8.15864e-05
-1.16155e-05
7.98302e-05
-9.96917e-06
7.83645e-05
-8.05077e-06
7.69947e-05
-5.95729e-06
7.55369e-05
-3.86579e-06
7.38466e-05
-1.99455e-06
7.18587e-05
-5.23298e-07
6.96006e-05
4.72098e-07
6.71972e-05
1.02227e-06
6.48698e-05
1.23065e-06
6.29e-05
1.20162e-06
6.16623e-05
9.39091e-07
6.17673e-05
6.45176e-05
3.84715e-06
4.07269e-05
8.5185e-07
5.28429e-05
-1.62076e-05
8.18531e-05
-3.22942e-05
9.88871e-05
-3.25824e-05
9.44273e-05
-3.19404e-05
0.000105863
-3.06269e-05
0.000111797
-2.92291e-05
0.000114669
-3.05192e-05
0.000114613
-2.99123e-05
0.000105398
-2.68608e-05
9.79932e-05
-2.37487e-05
9.46388e-05
-2.04142e-05
9.08663e-05
-1.75677e-05
8.74807e-05
-1.54238e-05
8.46587e-05
-1.38069e-05
8.2301e-05
-1.24307e-05
8.02828e-05
-1.10714e-05
7.85254e-05
-9.60282e-06
7.69357e-05
-7.99173e-06
7.54112e-05
-6.28973e-06
7.38496e-05
-4.60826e-06
7.21646e-05
-3.07722e-06
7.03131e-05
-1.81672e-06
6.83118e-05
-8.9005e-07
6.62327e-05
-2.87159e-07
6.42289e-05
6.1071e-08
6.2524e-05
2.34953e-07
6.14734e-05
2.82796e-07
6.1747e-05
6.47951e-05
1.16631e-06
3.78707e-05
-7.32875e-06
5.82808e-05
-2.09162e-05
9.20076e-05
-3.26704e-05
0.000107546
-3.53163e-05
9.88647e-05
-3.17568e-05
0.000104852
-2.83895e-05
0.000109314
-2.59146e-05
0.000112914
-2.45435e-05
0.000113279
-2.53277e-05
0.000104886
-2.34665e-05
9.52656e-05
-2.11602e-05
9.13356e-05
-1.85222e-05
8.80045e-05
-1.60238e-05
8.51803e-05
-1.41347e-05
8.29954e-05
-1.27232e-05
8.10589e-05
-1.1539e-05
7.92139e-05
-1.03894e-05
7.74516e-05
-9.16633e-06
7.57629e-05
-7.84286e-06
7.41171e-05
-6.4526e-06
7.24694e-05
-5.07252e-06
7.07754e-05
-3.79283e-06
6.90062e-05
-2.69374e-06
6.71731e-05
-1.82995e-06
6.53211e-05
-1.20449e-06
6.3557e-05
-7.74556e-07
6.20591e-05
-4.79039e-07
6.11586e-05
-2.2504e-07
6.15268e-05
6.45804e-05
-7.51182e-06
4.58394e-05
-1.72695e-05
6.53518e-05
-2.06079e-05
9.11103e-05
-2.28164e-05
0.000106433
-3.32029e-05
0.000107799
-2.94289e-05
0.000103756
-2.47357e-05
0.000105851
-2.19582e-05
0.000109814
-1.8553e-05
0.000109994
-1.99653e-05
0.00010572
-1.96943e-05
9.44236e-05
-1.72149e-05
8.84996e-05
-1.50744e-05
8.60936e-05
-1.33721e-05
8.39338e-05
-1.21188e-05
8.21407e-05
-1.1198e-05
8.04111e-05
-1.03974e-05
7.85882e-05
-9.57046e-06
7.67341e-05
-8.64084e-06
7.49011e-05
-7.59612e-06
7.3112e-05
-6.47017e-06
7.13594e-05
-5.32562e-06
6.96252e-05
-4.23702e-06
6.78914e-05
-3.2647e-06
6.61602e-05
-2.45632e-06
6.44637e-05
-1.82416e-06
6.2877e-05
-1.34691e-06
6.15438e-05
-9.77772e-07
6.07677e-05
-5.92136e-07
6.11768e-05
6.40152e-05
-1.6719e-05
6.07179e-05
-2.65182e-05
7.59212e-05
-2.06891e-05
8.52812e-05
-1.75713e-05
9.94958e-05
-2.45938e-05
0.000112118
-2.51024e-05
0.000104615
-2.07641e-05
0.000102754
-1.55099e-05
0.000104182
-1.20722e-05
0.000104817
-1.29983e-05
0.000104917
-1.37088e-05
9.46462e-05
-1.15929e-05
8.75117e-05
-1.04709e-05
8.60695e-05
-1.00478e-05
8.43402e-05
-9.76967e-06
8.2435e-05
-9.51369e-06
8.05282e-05
-9.18412e-06
7.84927e-05
-8.71072e-06
7.64089e-05
-8.07323e-06
7.43555e-05
-7.28219e-06
7.23768e-05
-6.37875e-06
7.04847e-05
-5.42271e-06
6.86739e-05
-4.48048e-06
6.69323e-05
-3.60888e-06
6.52538e-05
-2.8484e-06
6.3659e-05
-2.21795e-06
6.22023e-05
-1.71358e-06
6.10021e-05
-1.29751e-06
6.03298e-05
-8.29642e-07
6.07424e-05
6.3225e-05
-2.2856e-05
8.26567e-05
-3.28176e-05
8.74704e-05
-2.25615e-05
8.29895e-05
-1.25849e-05
9.40462e-05
-1.24427e-05
0.000112147
-1.77252e-05
0.000109167
-1.37551e-05
0.000100847
-4.44686e-06
9.85764e-05
-1.1258e-06
0.000103096
-2.35532e-06
0.000107304
-4.17084e-06
9.97312e-05
-4.84436e-06
9.18665e-05
-5.95216e-06
8.91119e-05
-6.97094e-06
8.65119e-05
-7.66591e-06
8.38253e-05
-8.02833e-06
8.13318e-05
-8.11249e-06
7.8858e-05
-7.94004e-06
7.6417e-05
-7.53857e-06
7.40718e-05
-6.94927e-06
7.1862e-05
-6.21913e-06
6.97988e-05
-5.40782e-06
6.78813e-05
-4.57712e-06
6.60974e-05
-3.78269e-06
6.44356e-05
-3.06281e-06
6.29037e-05
-2.43976e-06
6.15418e-05
-1.92049e-06
6.04499e-05
-1.47333e-06
5.98634e-05
-9.55657e-07
6.02546e-05
6.23165e-05
-2.06182e-05
0.000102858
-2.29302e-05
9.21775e-05
-1.98885e-05
8.93565e-05
-9.9049e-06
0.000102301
-2.33148e-06
0.000116628
-2.66663e-06
0.000115218
-1.48221e-06
0.000107204
9.48235e-07
0.000106818
1.14434e-06
0.000111302
2.29125e-06
0.000113725
1.64713e-06
0.000106553
-1.18677e-06
9.79629e-05
-3.58282e-06
9.31989e-05
-5.24912e-06
8.9291e-05