/*--------------------------------*- C++ -*----------------------------------*\
| =========                 |                                                 |
| \\      /  F ield         | OpenFOAM: The Open Source CFD Toolbox           |
|  \\    /   O peration     | Version:  v1606+                                |
|   \\  /    A nd           | Web:      www.OpenFOAM.com                      |
|    \\/     M anipulation  |                                                 |
\*---------------------------------------------------------------------------*/
FoamFile
{
    version     2.0;
    format      ascii;
    class       volScalarField;
    location    "1.84";
    object      nut.particles;
}
// * * * * * * * * * * * * * * * * * * * * * * * * * * * * * * * * * * * * * //

dimensions      [0 2 -1 0 0 0 0];

internalField   nonuniform List<scalar> 
6000
(
1.2616e-05
1.42622e-05
1.51989e-05
1.42832e-05
1.25397e-05
1.09988e-05
8.89478e-06
8.37423e-06
8.73035e-06
9.29319e-06
1.10466e-05
1.15344e-05
1.09525e-05
1.16382e-05
1.24467e-05
1.26186e-05
1.22857e-05
1.12868e-05
9.38336e-06
8.41378e-06
7.29901e-06
6.64915e-06
6.30907e-06
6.73654e-06
7.39142e-06
9.28982e-06
1.01423e-05
1.06595e-05
1.21282e-05
1.46839e-05
4.42258e-06
4.53719e-06
4.548e-06
4.43508e-06
4.1168e-06
3.64111e-06
3.44503e-06
3.32721e-06
3.3514e-06
3.47665e-06
3.68356e-06
3.78706e-06
3.66973e-06
3.69117e-06
3.88494e-06
4.03594e-06
4.03672e-06
3.93557e-06
3.86021e-06
3.74052e-06
3.59911e-06
3.48654e-06
3.4733e-06
3.53812e-06
3.66375e-06
3.80498e-06
4.11849e-06
4.4444e-06
4.64532e-06
4.58306e-06
4.40005e-06
4.56518e-06
4.66369e-06
4.52606e-06
4.37158e-06
4.22612e-06
4.46729e-06
4.33801e-06
4.1122e-06
4.26236e-06
4.09667e-06
4.16014e-06
4.13535e-06
4.03491e-06
4.21962e-06
4.38318e-06
4.34567e-06
4.28513e-06
4.16614e-06
4.05643e-06
4.28072e-06
4.39734e-06
4.37895e-06
4.38952e-06
4.2243e-06
4.18224e-06
4.58858e-06
4.30574e-06
4.12437e-06
4.09626e-06
4.43733e-06
4.42783e-06
4.38805e-06
4.52376e-06
4.83858e-06
5.29929e-06
6.44739e-06
7.44244e-06
6.953e-06
6.10328e-06
4.99333e-06
3.94232e-06
3.66941e-06
3.75576e-06
3.73631e-06
3.70946e-06
3.78025e-06
3.74384e-06
3.7461e-06
4.4201e-06
6.22614e-06
8.6032e-06
9.93215e-06
9.56007e-06
7.84455e-06
7.07551e-06
6.94822e-06
5.68859e-06
5.02944e-06
5.03635e-06
6.8247e-06
6.43445e-06
6.57487e-06
7.89688e-06
9.78843e-06
1.31558e-05
9.95816e-05
0.000472261
0.000388709
2.78128e-05
8.66382e-06
4.78182e-06
3.6542e-06
3.69968e-06
3.7265e-06
3.71338e-06
3.76221e-06
3.97636e-06
4.69121e-06
7.83905e-06
4.87388e-05
0.00123508
0.00191611
0.00160609
0.000287041
3.27568e-05
1.52988e-05
1.26898e-05
1.03948e-05
1.12695e-05
1.55328e-05
1.5689e-05
1.77125e-05
3.22726e-05
0.000444944
0.00049421
0.000492044
0.000492077
0.000486591
0.000484742
0.000168145
8.0331e-06
4.25696e-06
3.66686e-06
3.65707e-06
3.7067e-06
4.12733e-06
5.13435e-06
8.20201e-06
0.000223095
0.00199666
0.00196524
0.00200682
0.00196193
0.00198201
0.00194646
0.0019497
0.00180288
0.000193623
0.000190978
1.96101e-05
2.06411e-05
2.06202e-05
2.03298e-05
1.94287e-05
1.94452e-05
2.69667e-05
0.000499443
0.000497018
0.000489404
0.000484162
1.99337e-05
6.87836e-06
4.5879e-06
4.26272e-06
4.4742e-06
5.61431e-06
8.28845e-06
0.000102155
0.00199197
0.00196618
0.00202361
0.00196682
0.000139799
2.73825e-05
2.54977e-05
2.59545e-05
1.92665e-05
1.66079e-05
1.80806e-05
6.51106e-06
6.31831e-06
5.81089e-06
4.76285e-06
3.71906e-06
3.16269e-06
3.70157e-06
7.86911e-06
2.26298e-05
0.000499008
0.000489999
0.000483117
1.34e-05
8.08528e-06
6.90699e-06
6.98433e-06
9.11291e-06
1.52812e-05
0.00175866
0.00196439
0.00202121
0.00196199
1.92263e-05
6.01591e-06
4.45957e-06
4.38797e-06
4.24756e-06
3.16912e-06
2.39479e-06
2.44836e-06
1.96133e-06
1.9547e-06
1.97805e-06
1.78513e-06
1.52496e-06
1.35498e-06
1.41228e-06
1.57725e-06
2.44956e-06
7.24411e-06
2.75087e-05
0.00049047
0.000453628
1.54812e-05
1.3127e-05
1.20076e-05
1.39193e-05
0.000288763
0.00195305
0.00199804
0.000602211
1.00794e-05
2.51135e-06
1.94169e-06
2.23487e-06
2.33363e-06
2.07363e-06
1.61749e-06
1.08414e-06
1.16275e-06
1.59095e-06
1.54096e-06
1.63193e-06
1.55338e-06
1.4466e-06
1.33249e-06
1.27136e-06
1.31315e-06
1.35881e-06
1.47759e-06
3.01498e-06
1.12927e-05
2.90487e-05
0.000207844
0.000202811
2.7353e-05
1.31704e-05
0.000122672
0.00194871
0.000632023
8.34151e-06
1.70016e-06
1.36819e-06
1.72537e-06
2.59866e-06
3.22812e-06
3.01794e-06
2.08556e-06
1.14244e-06
1.06281e-06
1.94602e-06
2.20438e-06
2.16167e-06
2.07553e-06
1.9467e-06
1.72825e-06
1.48986e-06
1.34942e-06
1.29659e-06
1.34149e-06
1.37973e-06
1.81489e-06
5.05584e-06
1.71151e-05
0.000205059
1.48723e-05
1.02582e-05
3.12048e-05
0.000786073
9.70066e-06
1.62457e-06
1.21784e-06
1.24635e-06
1.84568e-06
3.60909e-06
5.33407e-06
5.4678e-06
3.94129e-06
1.8197e-06
1.13047e-06
4.42953e-06
6.00996e-06
4.68497e-06
4.00648e-06
3.55786e-06
2.95541e-06
2.29983e-06
1.82241e-06
1.46783e-06
1.29895e-06
1.34848e-06
1.36303e-06
1.45949e-06
3.45396e-06
1.14849e-05
1.04515e-05
8.69304e-06
4.45551e-05
1.18562e-05
1.96722e-06
1.15685e-06
1.19892e-06
1.2188e-06
2.1444e-06
4.91962e-06
7.8627e-06
9.88004e-06
9.08542e-06
4.49231e-06
2.15148e-06
1.4118e-05
0.000166228
1.33091e-05
1.06425e-05
8.37793e-06
6.47312e-06
4.70976e-06
3.35487e-06
2.38821e-06
1.66586e-06
1.33492e-06
1.34913e-06
1.31349e-06
1.55669e-06
4.13264e-06
7.71716e-06
7.31362e-06
4.33315e-05
4.23147e-06
1.12754e-06
1.13869e-06
1.1471e-06
1.25323e-06
2.64021e-06
7.06344e-06
9.90468e-05
0.000659055
0.000716309
1.4308e-05
8.62921e-06
0.00153201
0.00152854
0.00153012
0.00108113
0.00027706
2.69493e-05
1.17463e-05
8.14542e-06
5.24541e-06
3.17403e-06
1.76031e-06
1.35838e-06
1.29617e-06
1.54266e-06
3.1319e-06
6.51335e-06
6.61581e-06
3.15706e-05
2.17079e-06
1.03965e-06
1.09942e-06
1.08004e-06
1.35586e-06
3.35807e-06
1.06229e-05
0.000774861
0.00077707
0.000780618
0.000783007
0.000787227
0.00153596
0.00154063
0.00153117
0.00153314
0.00152316
0.00144608
0.000860587
0.000158967
1.34303e-05
8.33819e-06
3.72103e-06
1.87051e-06
1.59349e-06
1.88951e-06
3.7065e-06
6.74605e-06
8.25826e-06
1.08863e-05
1.60904e-06
1.0287e-06
1.11179e-06
1.12407e-06
1.75688e-06
5.07563e-06
0.00035574
0.00077886
0.00078428
0.000787658
2.7784e-05
2.26596e-05
0.0015447
0.0015439
0.00154312
0.00153195
0.00153288
0.00152357
0.00152327
0.00151457
0.00146665
0.000338854
1.05745e-05
4.27599e-06
2.81594e-06
3.08325e-06
4.90857e-06
7.00998e-06
9.09423e-06
6.9138e-06
1.71894e-06
1.13375e-06
1.27165e-06
1.55655e-06
3.18591e-06
1.00219e-05
0.000376804
0.000320533
1.72301e-05
7.97455e-06
3.76992e-06
4.05059e-06
2.47466e-05
1.29476e-05
1.84321e-05
2.38529e-05
3.63065e-05
0.000262248
0.0005813
0.00050271
0.000954831
0.000909229
0.000433158
1.29333e-05
7.01928e-06
5.84617e-06
8.73091e-06
1.08443e-05
9.68162e-06
7.10801e-06
2.22548e-06
1.65966e-06
2.11316e-06
3.47699e-06
8.45657e-06
1.66903e-05
1.62075e-05
4.57616e-06
1.82401e-06
1.35675e-06
1.30514e-06
1.68627e-06
3.04095e-06
1.71085e-06
2.10744e-06
2.65553e-06
3.7867e-06
5.11288e-06
6.39101e-06
7.46333e-06
1.0025e-05
1.73429e-05
2.88021e-05
2.49162e-05
1.75062e-05
1.34989e-05
0.000236198
0.00100949
0.000431128
1.16118e-05
4.60354e-06
3.31344e-06
4.9537e-06
9.79213e-06
1.31195e-05
9.03269e-06
2.47601e-06
1.29627e-06
1.23246e-06
1.20803e-06
1.16941e-06
1.59704e-06
1.56226e-06
1.16958e-06
1.19507e-06
1.20405e-06
1.33257e-06
1.69005e-06
2.02949e-06
2.24107e-06
2.47721e-06
3.45375e-06
7.21001e-06
2.48392e-05
0.000893601
0.00129611
0.00212736
0.00419686
0.00446737
0.00105856
1.33581e-05
9.44923e-06
1.05351e-05
1.16154e-05
6.03211e-06
2.12609e-06
1.30058e-06
1.26332e-06
1.24838e-06
1.22372e-06
1.25102e-06
2.03904e-06
1.56433e-06
1.14351e-06
1.18024e-06
1.19017e-06
1.28326e-06
1.61832e-06
1.9562e-06
2.14146e-06
2.1174e-06
2.27759e-06
2.96563e-06
1.11929e-05
0.00062456
0.000802969
0.000917571
0.00323797
0.00615289
0.00614074
0.00212657
0.000374022
1.47541e-05
6.62981e-06
2.0873e-06
1.37392e-06
1.2625e-06
1.26491e-06
1.25794e-06
1.22825e-06
1.49647e-06
2.85215e-06
1.69711e-06
1.11369e-06
1.16747e-06
1.17745e-06
1.35183e-06
1.7254e-06
2.19587e-06
2.62851e-06
2.52159e-06
2.484e-06
2.78655e-06
8.63686e-06
0.000161138
0.000206471
0.000529092
0.00369474
0.00927618
0.0131301
0.0103781
0.00396408
0.000320872
4.10879e-06
1.7067e-06
1.4286e-06
1.44607e-06
1.36313e-06
1.29391e-06
1.37091e-06
2.06064e-06
3.92144e-06
1.99196e-06
1.12889e-06
1.17187e-06
1.24866e-06
1.51129e-06
1.92023e-06
2.50292e-06
3.30709e-06
3.55587e-06
3.36642e-06
3.59013e-06
6.62187e-06
0.000241183
0.000981789
0.00321515
0.0125651
0.0256812
0.0344738
0.0337313
0.0213141
0.00167476
7.2682e-06
2.57638e-06
1.69781e-06
1.87659e-06
1.80052e-06
1.67266e-06
1.95763e-06
3.14582e-06
5.56861e-06
2.59776e-06
1.42314e-06
1.4077e-06
1.56293e-06
1.83344e-06
2.2916e-06
3.02787e-06
4.16679e-06
5.03857e-06
4.53118e-06
5.99221e-06
7.66359e-06
0.00114405
0.00929448
0.028276
0.0511044
0.0730695
0.077142
0.0774682
0.0742371
0.0300939
0.000189805
6.58774e-06
3.05633e-06
2.4959e-06
2.58988e-06
2.70884e-06
3.36524e-06
5.0804e-06
8.19479e-06
3.79673e-06
2.33891e-06
2.07413e-06
2.22047e-06
2.47093e-06
3.05249e-06
4.12563e-06
5.57012e-06
6.14541e-06
5.39535e-06
6.4526e-06
1.41222e-05
0.00739641
0.0478905
0.0729713
0.0732873
0.0733507
0.0712514
0.0785683
0.0787382
0.0787563
0.0494226
0.000566988
8.31415e-06
4.55493e-06
3.89988e-06
4.40346e-06
5.98052e-06
7.51305e-06
1.08668e-05
6.81458e-06
4.53087e-06
3.62218e-06
3.51114e-06
3.7514e-06
4.53575e-06
6.00165e-06
6.93532e-06
6.35478e-06
6.33561e-06
7.58123e-06
0.0010898
0.0505761
0.072476
0.0724895
0.0521421
0.0247996
0.00301639
0.0170177
0.0651129
0.0788337
0.078938
0.0703974
0.00186145
1.11062e-05
7.08707e-06
6.74652e-06
8.52139e-06
9.21269e-06
1.27425e-05
4.01039e-05
1.03954e-05
7.22551e-06
6.23506e-06
6.11356e-06
6.87402e-06
7.70209e-06
7.15993e-06
6.44267e-06
6.99502e-06
1.88568e-05
0.0345801
0.0684318
0.067977
0.0276418
0.00495273
6.39203e-05
1.25286e-05
1.66821e-05
0.00195536
0.0448251
0.0789585
0.0790374
0.0753433
0.00362795
1.4854e-05
1.03378e-05
9.46799e-06
1.07113e-05
2.14621e-05
0.0010556
0.000890954
1.6355e-05
1.10773e-05
9.45245e-06
8.75475e-06
7.83759e-06
7.09803e-06
7.28295e-06
1.31719e-05
0.0171455
0.0677554
0.0675428
0.0235305
0.00146026
1.53727e-05
9.25326e-06
6.96366e-06
6.63948e-06
1.15644e-05
0.00158672
0.0441643
0.0791106
0.0791492
0.0629696
0.00478042
1.76007e-05
1.12389e-05
1.36934e-05
0.000137769
0.00107771
0.00164909
0.00164484
0.000124892
1.27954e-05
9.38438e-06
7.9166e-06
8.07621e-06
1.23263e-05
0.00857272
0.0670593
0.0679123
0.0307472
0.00104904
1.36964e-05
9.07523e-06
6.41815e-06
6.33664e-06
5.85305e-06
7.51563e-06
1.48108e-05
0.0084538
0.0608527
0.0792462
0.079341
0.0441641
0.00217256
1.68749e-05
3.88531e-05
0.000591882
0.000961244
0.00138395
0.00289722
0.00189795
0.000122109
1.16609e-05
1.01326e-05
1.34091e-05
0.00510362
0.0672291
0.0683519
0.0537677
0.00122578
1.549e-05
1.19792e-05
7.46945e-06
6.49116e-06
6.48106e-06
6.7229e-06
8.82282e-06
1.42696e-05
0.00363944
0.0373723
0.0780389
0.0795139
0.0769078
0.0209129
0.00122404
0.000521629
0.000898358
0.00095826
2.22359e-05
0.00288454
0.00289853
0.00159108
2.64855e-05
3.50619e-05
0.00354271
0.0516776
0.0684412
0.0677978
0.00949058
0.000136786
0.000130386
2.19657e-05
9.0034e-06
8.9258e-06
1.01487e-05
1.01268e-05
1.17017e-05
0.00011327
0.00187675
0.0121672
0.0752427
0.0796529
0.0795506
0.0559099
0.0102154
0.0019188
0.000996149
0.000159956
7.6903e-06
0.000148976
0.00288914
0.0028484
0.000129154
0.00215091
0.0274997
0.0681527
0.0683297
0.0455435
0.000932487
0.000153536
0.000171687
3.37235e-05
1.87425e-05
4.28596e-05
0.000132815
0.000101429
0.000119635
0.000136765
2.20462e-05
3.59319e-05
0.0173985
0.0794517
0.079743
0.0778662
0.0285139
0.00441477
0.00105623
9.4302e-06
4.13958e-06
7.85249e-06
0.00104641
0.0012314
0.000135761
0.00577099
0.0508358
0.0683143
0.0677486
0.00652376
2.31171e-05
3.16055e-05
2.87915e-05
8.97851e-06
1.65015e-05
4.86659e-05
0.000158816
5.87325e-05
4.26036e-05
1.46262e-05
3.04754e-06
7.51195e-06
5.87226e-05
0.0611852
0.0796287
0.0797365
0.0505147
0.00883476
0.000943657
6.4369e-06
3.53316e-06
3.85432e-06
9.04287e-06
3.24998e-05
0.000205868
0.0145609
0.0678085
0.0678635
0.0211273
2.2695e-05
7.31011e-06
4.97625e-06
2.65989e-06
1.67243e-06
2.95767e-06
6.51006e-06
1.11813e-05
8.75827e-06
4.3904e-06
1.71169e-06
1.08106e-06
1.76011e-06
1.24065e-05
0.00875523
0.0797942
0.0796684
0.0700491
0.0147377
0.000633378
3.09267e-05
4.1505e-06
3.65145e-06
4.95306e-06
1.32411e-05
0.00196707
0.0305384
0.0675068
0.0531021
3.44975e-05
4.52851e-06
1.31055e-06
1.08249e-06
9.51903e-07
9.54522e-07
9.94044e-07
1.11898e-06
1.30498e-06
1.26085e-06
1.05904e-06
9.59837e-07
8.92596e-07
1.14853e-06
4.98023e-06
0.00262819
0.0794963
0.0799108
0.076282
0.0197142
0.000338404
0.0127139
1.19449e-05
5.41056e-06
5.42171e-06
2.08349e-05
0.0066992
0.0292517
0.0501744
0.0154412
2.0415e-05
2.1284e-06
9.48319e-07
9.37109e-07
9.3844e-07
9.18548e-07
8.94422e-07
9.01879e-07
9.32464e-07
9.66263e-07
9.64583e-07
9.31524e-07
9.07761e-07
1.18002e-06
3.58404e-06
0.00208041
0.0773698
0.0796732
0.0770019
0.0223896
0.000172446
0.0184206
0.0102655
1.35665e-05
7.18199e-06
1.49879e-05
0.00882256
0.0230402
0.0303332
0.0166016
1.54717e-05
1.88192e-06
1.02867e-06
1.01553e-06
9.87192e-07
9.60475e-07
9.47689e-07
9.71105e-07
1.0158e-06
1.06379e-06
1.11187e-06
1.12724e-06
1.12348e-06
1.71699e-06
4.11061e-06
0.00273154
0.060807
0.0798704
0.0771882
0.0237076
0.000106811
0.0151393
0.0260803
0.00844514
1.39568e-05
1.15682e-05
1.89792e-05
0.00104881
0.00100675
0.000879606
1.22374e-05
1.61577e-06
1.10389e-06
1.08025e-06
1.04623e-06
1.04972e-06
1.09133e-06
1.15534e-06
1.24463e-06
1.25277e-06
1.34565e-06
1.40609e-06
1.55701e-06
2.73248e-06
6.91482e-06
0.00420044
0.0506036
0.079594
0.077789
0.024479
5.55123e-05
0.00313281
0.0267511
0.0226467
0.00351526
1.24973e-05
1.27366e-05
1.76165e-05
1.65387e-05
1.91889e-05
8.13541e-06
1.44745e-06
1.16432e-06
1.13127e-06
1.14299e-06
1.23241e-06
1.3515e-06
1.37732e-06
1.51549e-06
1.66336e-06
1.81441e-06
1.98208e-06
2.24666e-06
3.92103e-06
1.71687e-05
0.00669987
0.0447091
0.0784994
0.0783002
0.02219
3.51364e-05
0.000162083
0.0267088
0.0282036
0.0120773
0.000677244
1.13886e-05
1.11092e-05
1.08039e-05
1.9946e-05
5.56988e-06
1.42882e-06
1.21722e-06
1.19792e-06
1.2766e-06
1.46212e-06
1.58858e-06
1.74877e-06
1.9335e-06
2.19807e-06
2.55002e-06
2.9947e-06
3.40761e-06
4.64721e-06
2.27026e-05
0.00709008
0.0369064
0.0783329
0.0781401
0.0140904
3.68919e-05
1.8522e-05
0.0108238
0.0282551
0.0185973
0.00349347
9.13565e-05
1.18814e-05
1.22318e-05
1.69564e-05
4.24479e-06
1.52346e-06
1.29823e-06
1.29012e-06
1.40536e-06
1.6306e-06
1.8193e-06
2.09134e-06
2.40605e-06
2.82804e-06
3.41302e-06
4.40616e-06
5.13365e-06
5.48575e-06
9.93231e-06
0.00171192
0.0305825
0.0781433
0.0779928
0.00650503
3.81578e-05
1.26049e-05
0.00105722
0.028093
0.0206507
0.00436831
0.00119797
0.00012525
1.26378e-05
7.74815e-06
3.41408e-06
1.67483e-06
1.41425e-06
1.39271e-06
1.47037e-06
1.64845e-06
1.8697e-06
2.44026e-06
3.25473e-06
3.96563e-06
4.60563e-06
6.67592e-06
7.71383e-06
7.7063e-06
8.35323e-06
0.000629089
0.0335624
0.0720511
0.0749845
0.00524827
3.81319e-05
1.1091e-05
0.000359678
0.0280854
0.0148347
0.00254882
0.00207952
0.000457006
8.07429e-06
4.30199e-06
2.8245e-06
1.84051e-06
1.54954e-06
1.47698e-06
1.49879e-06
1.61021e-06
2.00481e-06
3.47921e-06
5.81996e-06
7.11457e-06
7.68611e-06
1.86303e-05
3.68448e-05
3.79986e-05
1.41577e-05
0.000640397
0.0257553
0.0297379
0.0603081
0.0113522
0.000192958
1.03271e-05
0.00133941
0.0280055
0.00741755
0.00119039
2.14222e-05
8.35351e-06
3.32915e-06
2.69975e-06
2.476e-06
1.9315e-06
1.65763e-06
1.57326e-06
1.60362e-06
1.79343e-06
3.01043e-06
6.55766e-06
1.99903e-05
8.5467e-05
0.000102948
0.000343064
0.000290399
0.000328628
0.000280149
0.000469849
0.000472536
0.00253004
0.0342676
0.0116077
4.59112e-05
1.07278e-05
0.00296926
0.0231184
0.0020713
1.8736e-05
2.79267e-06
1.28729e-06
1.62832e-06
2.00479e-06
2.23046e-06
1.94455e-06
1.70595e-06
1.70166e-06
2.0261e-06
3.11962e-06
5.94201e-06
9.85964e-06
7.85125e-05
0.000210143
0.000406311
0.000406164
0.000406048
0.000407474
0.000380148
1.49113e-05
8.96826e-06
1.16745e-05
0.00115395
0.000255338
1.52738e-05
1.44574e-05
0.00369961
0.0133995
0.000747302
3.59784e-06
6.82843e-07
6.99752e-07
9.79476e-07
1.49378e-06
1.95596e-06
1.88332e-06
1.69971e-06
1.84049e-06
2.89707e-06
5.53888e-06
8.43313e-06
1.06309e-05
6.63458e-05
0.000157873
0.000226255
0.000406507
0.000407822
1.36771e-05
8.80856e-06
5.93434e-06
4.45765e-06
4.52705e-06
1.005e-05
9.3039e-06
1.36837e-05
0.0001205
2.01348e-05
0.00355951
1.43145e-05
1.10154e-06
5.81841e-07
6.72876e-07
8.12868e-07
1.16326e-06
1.6668e-06
1.7773e-06
1.64587e-06
1.83134e-06
3.1301e-06
6.14952e-06
9.17486e-06
1.17429e-05
8.08798e-05
0.000148561
0.000113823
0.000152166
1.12589e-05
5.75794e-06
4.30217e-06
3.87981e-06
4.05885e-06
4.14329e-06
4.85532e-06
6.05845e-06
1.30662e-05
0.000148069
4.10557e-06
1.27119e-05
3.82241e-06
2.28497e-06
7.66101e-07
6.68822e-07
8.13679e-07
9.98898e-07
1.39733e-06
1.61135e-06
1.49467e-06
1.56641e-06
2.47802e-06
5.35844e-06
9.16128e-06
1.1521e-05
4.39738e-05
0.000121906
7.87747e-05
9.77712e-06
6.42604e-06
4.54492e-06
3.78332e-06
3.56579e-06
3.77132e-06
3.83763e-06
4.21428e-06
5.36429e-06
1.28912e-05
1.94403e-05
1.20528e-06
2.52804e-06
3.92825e-06
7.44646e-06
2.27542e-06
7.72679e-07
8.66774e-07
1.00169e-06
1.18563e-06
1.38176e-06
1.30786e-06
1.27024e-06
1.83096e-06
3.97494e-06
7.2381e-06
9.37253e-06
1.04933e-05
2.54857e-05
4.22709e-05
1.01958e-05
7.99114e-06
6.66257e-06
5.34397e-06
4.14386e-06
3.63559e-06
3.63534e-06
4.48131e-06
5.4854e-06
1.49024e-05
5.9296e-06
1.03186e-06
1.3712e-06
4.7287e-06
8.61874e-06
1.23045e-05
2.07024e-06
9.86722e-07
1.05932e-06
1.12082e-06
1.18772e-06
1.15163e-06
1.07816e-06
1.38663e-06
2.27685e-06
3.62037e-06
4.78499e-06
5.46425e-06
7.734e-06
9.18532e-06
9.83824e-06
9.89398e-06
9.37413e-06
8.07662e-06
6.34567e-06
5.02229e-06
4.75162e-06
6.31421e-06
7.03859e-06
1.85098e-05
3.32024e-06
9.2885e-07
1.09935e-06
2.68033e-06
7.46105e-06
9.39784e-06
9.56911e-06
2.2394e-06
1.1415e-06
1.11333e-06
1.11763e-06
1.05938e-06
9.5407e-07
1.00995e-06
1.12317e-06
1.36947e-06
1.65015e-06
2.17207e-06
4.02588e-06
5.98257e-06
8.10238e-06
9.40757e-06
9.65084e-06
9.68073e-06
8.57658e-06
7.1388e-06
6.71576e-06
8.51674e-06
1.01857e-05
0.000168098
2.90846e-06
7.89249e-07
9.25997e-07
1.48257e-06
3.77123e-06
5.98019e-06
9.02433e-06
5.19168e-06
1.42755e-06
1.11201e-06
1.08825e-06
1.02737e-06
9.07636e-07
8.11592e-07
7.49766e-07
7.24067e-07
7.05513e-07
8.50072e-07
1.34083e-06
3.66994e-06
7.65315e-06
8.90586e-06
8.29121e-06
8.70254e-06
8.77186e-06
8.17568e-06
7.72156e-06
8.31085e-06
4.62788e-06
3.58047e-05
4.75373e-06
1.01998e-06
1.19763e-06
1.27411e-06
2.13915e-06
3.12083e-06
4.0054e-06
3.06666e-06
1.35276e-06
1.11047e-06
1.06599e-06
1.01516e-06
9.02834e-07
7.60227e-07
6.41582e-07
5.50142e-07
5.06482e-07
5.41374e-07
6.87983e-07
1.66099e-06
8.49995e-06
7.88007e-06
5.15567e-06
6.75713e-06
7.62237e-06
7.4799e-06
7.27645e-06
6.66141e-06
2.0174e-06
1.71023e-05
8.34004e-06
2.08574e-06
2.18543e-06
1.63386e-06
1.73385e-06
2.56091e-06
3.7172e-06
2.08163e-06
1.08464e-06
1.07408e-06
1.03813e-06
1.00176e-06
8.96919e-07
7.55586e-07
6.36255e-07
5.46148e-07
4.85493e-07
4.775e-07
5.60824e-07
1.33933e-06
8.17229e-06
5.65906e-06
4.45879e-06
6.29516e-06
6.58894e-06
6.42487e-06
6.38092e-06
5.57138e-06
1.82288e-06
1.42773e-05
0.000235838
3.39438e-06
3.278e-06
2.16918e-06
1.94947e-06
2.5549e-06
2.07888e-06
1.87229e-06
9.44287e-07
9.8053e-07
9.71017e-07
9.68693e-07
8.87575e-07
7.60617e-07
6.68255e-07
5.9167e-07
5.24664e-07
5.04742e-07
5.71728e-07
1.00769e-06
3.71975e-06
6.17202e-06
7.97378e-06
0.000119291
0.000133045
3.90715e-05
1.77269e-05
4.84432e-06
1.61548e-06
1.23504e-05
0.00737312
5.851e-06
3.18208e-06
2.50618e-06
2.36302e-06
2.97944e-06
1.04968e-06
1.19186e-06
8.8951e-07
9.09501e-07
9.32345e-07
9.2858e-07
8.75351e-07
7.78424e-07
7.02112e-07
6.33964e-07
5.75646e-07
5.53308e-07
6.28027e-07
8.95781e-07
2.07414e-06
6.42097e-06
7.31919e-06
0.000151239
0.00153543
0.00118958
0.000793306
4.93576e-06
1.42195e-06
1.07231e-05
0.0141008
0.00344499
3.4542e-06
2.61823e-06
3.0144e-06
2.86793e-06
7.88307e-07
7.46574e-07
8.19781e-07
8.74444e-07
9.21605e-07
9.19225e-07
8.75806e-07
7.86071e-07
7.13869e-07
6.55917e-07
6.16651e-07
6.10539e-07
7.05889e-07
9.20642e-07
1.45858e-06
3.07148e-06
4.70725e-06
1.41551e-05
0.00401193
0.00401345
0.00357172
5.7849e-06
1.38972e-06
1.30066e-05
0.01416
0.0141065
0.000127086
2.65851e-06
5.75034e-06
6.91897e-06
7.21094e-07
4.8908e-07
6.674e-07
7.58137e-07
8.49716e-07
8.78765e-07
8.52039e-07
7.78114e-07
7.15636e-07
6.66907e-07
6.42013e-07
6.59205e-07
7.72333e-07
9.72697e-07
1.32404e-06
1.76029e-06
3.02515e-06
1.31168e-05
0.00400152
0.0040368
0.00400229
7.01548e-06
3.31778e-06
0.000160478
0.0142516
0.0141935
0.00687809
5.02528e-06
0.000266282
2.10409e-05
1.1049e-06
4.73933e-07
5.42006e-07
5.49344e-07
6.19137e-07
6.99427e-07
7.157e-07
7.08877e-07
7.01247e-07
6.91761e-07
6.83796e-07
7.28779e-07
8.683e-07
1.07091e-06
1.49837e-06
2.10298e-06
3.58257e-06
2.32499e-05
5.48905e-05
0.00399936
0.00401449
8.65686e-06
9.39342e-06
0.00214744
0.0141758
0.0142819
0.014216
0.0141624
0.0121417
0.00268282
6.13073e-06
2.56911e-06
1.979e-06
1.43109e-06
9.35068e-07
7.85079e-07
7.42493e-07
7.58018e-07
7.84173e-07
8.14237e-07
8.55284e-07
9.59292e-07
1.16507e-06
1.65092e-06
2.53951e-06
4.43406e-06
9.94136e-06
2.67189e-05
5.28837e-06
2.01153e-05
0.00395938
0.000310615
0.000960591
0.00215407
0.00659285
0.0141344
0.0143215
0.0142043
0.0138476
0.0100239
0.00333788
0.000616882
0.00054738
3.71302e-05
1.00864e-05
4.06909e-06
2.31067e-06
1.73033e-06
1.56615e-06
1.60385e-06
1.70666e-06
1.97191e-06
2.57118e-06
4.00977e-06
8.10996e-06
1.40664e-05
1.96203e-05
4.48232e-06
1.1357e-06
1.39492e-06
1.52669e-05
0.0014706
0.00215986
0.00216676
0.00584035
0.00126443
0.0138272
0.000418771
1.27108e-05
1.93245e-05
2.09762e-05
2.35708e-05
4.6347e-05
6.2261e-05
5.84747e-05
4.17056e-05
1.74794e-05
7.48205e-06
5.27723e-06
5.1465e-06
5.35197e-06
6.37289e-06
8.67825e-06
1.25268e-05
1.75541e-05
1.00727e-05
2.80715e-06
9.73765e-07
7.86551e-07
7.10781e-07
2.84232e-06
1.55537e-05
1.92594e-05
4.67705e-05
3.79848e-05
9.54328e-06
1.91695e-05
4.44903e-06
1.2961e-06
1.50493e-06
1.38415e-06
1.38723e-06
2.05308e-06
3.8022e-06
8.95117e-06
1.38052e-05
1.64695e-05
1.37127e-05
1.23517e-05
1.18214e-05
1.15154e-05
1.22898e-05
1.25036e-05
8.72307e-06
3.27557e-06
1.36253e-06
8.63034e-07
8.02294e-07
7.54606e-07
6.71406e-07
7.90418e-07
1.9301e-06
2.11048e-06
2.1842e-05
1.13939e-05
4.50417e-06
5.8848e-06
1.50083e-06
7.56163e-07
7.61135e-07
7.59768e-07
7.78029e-07
8.13049e-07
8.48097e-07
9.35174e-07
1.18602e-06
2.13392e-06
3.79924e-06
4.87061e-06
4.66235e-06
4.15609e-06
3.38575e-06
2.31632e-06
1.36822e-06
8.93207e-07
8.306e-07
8.07627e-07
7.84416e-07
7.32626e-07
6.65774e-07
7.19163e-07
1.10923e-06
9.30362e-07
1.08284e-05
1.31448e-05
4.15268e-06
4.67493e-06
1.19957e-06
6.89665e-07
7.06728e-07
7.38535e-07
7.59001e-07
7.65861e-07
7.45119e-07
7.64336e-07
8.17761e-07
8.70972e-07
9.80547e-07
1.09943e-06
1.07976e-06
1.02068e-06
9.37709e-07
8.68228e-07
8.38527e-07
8.2839e-07
8.19838e-07
7.98013e-07
7.59718e-07
7.03869e-07
6.45791e-07
8.12688e-07
1.07932e-06
8.39796e-07
9.44604e-06
1.56131e-05
6.938e-06
5.6291e-06
9.79346e-07
6.48665e-07
6.97257e-07
7.29845e-07
7.42383e-07
7.34466e-07
7.30242e-07
7.81926e-07
8.34201e-07
8.56419e-07
8.61887e-07
8.6086e-07
8.55222e-07
8.48154e-07
8.41493e-07
8.36766e-07
8.31794e-07
8.255e-07
8.08225e-07
7.79383e-07
7.40395e-07
6.84174e-07
6.24896e-07
8.27967e-07
1.16398e-06
8.17177e-07
8.65225e-06
1.89188e-05
9.8983e-06
6.16251e-06
8.59247e-07
6.78239e-07
7.09351e-07
7.10467e-07
6.99255e-07
6.93763e-07
7.30645e-07
7.89252e-07
8.37588e-07
8.58544e-07
8.62716e-07
8.60386e-07
8.55623e-07
8.49847e-07
8.4383e-07
8.37987e-07
8.2747e-07
8.13816e-07
7.94351e-07
7.65579e-07
7.19927e-07
6.62561e-07
6.06342e-07
8.29224e-07
1.14276e-06
8.05765e-07
9.51327e-06
2.26719e-05
1.19123e-05
3.59754e-06
7.78741e-07
7.04118e-07
6.86802e-07
6.54934e-07
6.36741e-07
6.77797e-07
7.48794e-07
7.98187e-07
8.38715e-07
8.55071e-07
8.58291e-07
8.57832e-07
8.54026e-07
8.49033e-07
8.41336e-07
8.31399e-07
8.18971e-07
8.0368e-07
7.82574e-07
7.48407e-07
7.01019e-07
6.45036e-07
5.86133e-07
8.72001e-07
1.21778e-06
7.6083e-07
9.51955e-06
2.71231e-05
1.23206e-05
2.1676e-06
7.39975e-07
6.90131e-07
6.43227e-07
5.83991e-07
5.99824e-07
6.82831e-07
7.58204e-07
8.00356e-07
8.34488e-07
8.48222e-07
8.51974e-07
8.51419e-07
8.48195e-07
8.43537e-07
8.34982e-07
8.2409e-07
8.09111e-07
7.90824e-07
7.64937e-07
7.29298e-07
6.8718e-07
6.28675e-07
5.76608e-07
9.50751e-07
1.44571e-06
7.876e-07
9.25032e-06
2.84182e-05
7.64771e-06
1.58785e-06
7.1554e-07
6.5639e-07
5.63967e-07
5.38143e-07
5.91229e-07
6.84973e-07
7.62874e-07
8.00897e-07
8.27641e-07
8.39728e-07
8.42833e-07
8.42725e-07
8.40724e-07
8.35295e-07
8.25639e-07
8.12824e-07
7.95714e-07
7.75648e-07
7.51805e-07
7.20137e-07
6.75103e-07
6.12629e-07
5.76379e-07
1.09253e-06
1.56595e-06
1.12797e-06
1.26476e-05
2.801e-05
4.12088e-06
1.39016e-06
6.89813e-07
5.58282e-07
4.99839e-07
5.20341e-07
5.91045e-07
6.86496e-07
7.64334e-07
8.00447e-07
8.20999e-07
8.30826e-07
8.33499e-07
8.33207e-07
8.30261e-07
8.24575e-07
8.14982e-07
8.01275e-07
7.84062e-07
7.63958e-07
7.40838e-07
7.06417e-07
6.6208e-07
6.02314e-07
5.92323e-07
1.38293e-06
1.97851e-06
1.8923e-06
1.58368e-05
2.59704e-05
3.08013e-06
1.44694e-06
6.55621e-07
4.75633e-07
4.65647e-07
5.06691e-07
5.94367e-07
6.88119e-07
7.62464e-07
7.98441e-07
8.13759e-07
8.21402e-07
8.24679e-07
8.24303e-07
8.19545e-07
8.13559e-07
8.03112e-07
7.88807e-07
7.71326e-07
7.49427e-07
7.27632e-07
6.95678e-07
6.56551e-07
5.97135e-07
6.09856e-07
1.84011e-06
2.45507e-06
4.75682e-06
0.000317638
2.20599e-05
3.27393e-06
1.79636e-06
6.21522e-07
4.31047e-07
4.46903e-07
5.03372e-07
5.91579e-07
6.90492e-07
7.58458e-07
7.94725e-07
8.06898e-07
8.11446e-07
8.1413e-07
8.13758e-07
8.06844e-07
8.00211e-07
7.89512e-07
7.74158e-07
7.57566e-07
7.36981e-07
7.1736e-07
6.87838e-07
6.51854e-07
5.95972e-07
6.24651e-07
2.60218e-06
3.65582e-06
0.000182054
0.00122435
2.21149e-05
5.65491e-06
2.20011e-06
5.97815e-07
4.15548e-07
4.59518e-07
5.15802e-07
5.8884e-07
6.92885e-07
7.5789e-07
7.90304e-07
8.00252e-07
8.01817e-07
8.01688e-07
8.01501e-07
7.93987e-07
7.85721e-07
7.7527e-07
7.60727e-07
7.4498e-07
7.25859e-07
7.06935e-07
6.79767e-07
6.50158e-07
5.97214e-07
6.29279e-07
3.23261e-06
0.000101761
0.00121789
0.00122554
0.000338812
9.54893e-06
2.66803e-06
6.28335e-07
4.58033e-07
4.96244e-07
5.25779e-07
5.87886e-07
6.93979e-07
7.59124e-07
7.86362e-07
7.93452e-07
7.93503e-07
7.8821e-07
7.86766e-07
7.80534e-07
7.69419e-07
7.59301e-07
7.46762e-07
7.30522e-07
7.14626e-07
6.96706e-07
6.74626e-07
6.4952e-07
5.99132e-07
5.98525e-07
2.88582e-06
0.00114035
0.00122022
0.000339793
0.000420347
0.000207551
3.8254e-06
9.43621e-07
5.61886e-07
5.32849e-07
5.29739e-07
5.86251e-07
6.93068e-07
7.59354e-07
7.81255e-07
7.84617e-07
7.85359e-07
7.76479e-07
7.71575e-07
7.67613e-07
7.54761e-07
7.45042e-07
7.33863e-07
7.18954e-07
7.05754e-07
6.88365e-07
6.68569e-07
6.47157e-07
5.9877e-07
5.63303e-07
1.59948e-06
0.00104145
0.000661919
0.000301999
0.000370777
0.0003569
5.62699e-06
1.71578e-06
7.05519e-07
5.53859e-07
5.31716e-07
5.90401e-07
6.94753e-07
7.56771e-07
7.73817e-07
7.73716e-07
7.73607e-07
7.64522e-07
7.54156e-07
7.5199e-07
7.39838e-07
7.29586e-07
7.1951e-07
7.06849e-07
6.94288e-07
6.78687e-07
6.6348e-07
6.42858e-07
6.0001e-07
5.53871e-07
8.51656e-07
1.1825e-05
1.35949e-05
0.000307314
0.000372804
0.00037177
7.06223e-06
2.91254e-06
8.86454e-07
5.59425e-07
5.28291e-07
6.00934e-07
6.95649e-07
7.49337e-07
7.63436e-07
7.62301e-07
7.56612e-07
7.48414e-07
7.35293e-07
7.33248e-07
7.22778e-07
7.12524e-07
7.0428e-07
6.94007e-07
6.82199e-07
6.71046e-07
6.58257e-07
6.38021e-07
6.01321e-07
5.579e-07
7.60609e-07
3.87775e-06
3.79694e-06
7.04777e-05
0.000392047
0.000423911
0.00011912
4.05756e-06
1.01759e-06
5.44878e-07
5.26263e-07
6.07322e-07
6.92203e-07
7.36911e-07
7.51331e-07
7.50172e-07
7.36706e-07
7.27402e-07
7.17052e-07
7.11959e-07
7.04612e-07
6.94964e-07
6.88417e-07
6.79618e-07
6.69617e-07
6.62456e-07
6.51564e-07
6.35254e-07
6.02217e-07
5.61738e-07
8.79167e-07
3.66601e-06
2.60683e-06
1.66099e-05
0.000730822
0.000728065
0.000480804
4.55192e-06
1.07217e-06
5.17595e-07
5.23422e-07
6.07609e-07
6.84095e-07
7.21012e-07
7.36501e-07
7.3542e-07
7.16e-07
7.01319e-07
6.98101e-07
6.90824e-07
6.84329e-07
6.76367e-07
6.70932e-07
6.65153e-07
6.56973e-07
6.51506e-07
6.44902e-07
6.29952e-07
6.00963e-07
5.6673e-07
1.02823e-06
4.0632e-06
2.45334e-06
1.22134e-05
0.000735967
0.000729226
0.00072567
4.10681e-06
8.67364e-07
4.93471e-07
5.21625e-07
6.04395e-07
6.74589e-07
7.0624e-07
7.19087e-07
7.16696e-07
6.95085e-07
6.77901e-07
6.74651e-07
6.70853e-07
6.63421e-07
6.57406e-07
6.53492e-07
6.4874e-07
6.43856e-07
6.39513e-07
6.36117e-07
6.24524e-07
6.00232e-07
5.75449e-07
1.28924e-06
4.25879e-06
2.294e-06
1.30887e-05
0.000736544
0.000729615
0.000396769
2.62034e-06
6.71648e-07
4.83414e-07
5.17216e-07
5.91855e-07
6.61037e-07
6.92121e-07
7.02005e-07
6.95445e-07
6.74222e-07
6.59624e-07
6.52538e-07
6.51825e-07
6.44997e-07
6.39319e-07
6.35845e-07
6.32846e-07
6.28242e-07
6.26075e-07
6.28521e-07
6.18577e-07
5.9862e-07
5.86803e-07
1.55777e-06
5.36303e-06
2.14186e-06
1.49763e-05
0.000737534
0.000729983
1.46315e-05
1.78408e-06
6.06055e-07
4.80494e-07
5.07881e-07
5.6785e-07
6.34839e-07
6.70033e-07
6.80614e-07
6.74567e-07
6.55564e-07
6.45166e-07
6.36994e-07
6.33568e-07
6.27655e-07
6.22129e-07
6.18275e-07
6.17009e-07
6.12103e-07
6.1275e-07
6.19031e-07
6.11818e-07
5.96229e-07
6.06377e-07
1.79699e-06
5.30018e-06
5.35213e-06
0.000953115
0.000740596
1.26212e-05
6.86719e-06
1.55072e-06
6.1158e-07
5.04926e-07
5.08375e-07
5.4747e-07
6.0229e-07
6.41086e-07
6.55075e-07
6.55507e-07
6.44036e-07
6.34807e-07
6.24234e-07
6.18316e-07
6.12039e-07
6.05789e-07
6.01617e-07
5.99585e-07
5.96581e-07
5.98954e-07
6.07561e-07
6.05451e-07
5.94833e-07
6.2302e-07
1.86687e-06
0.000221653
0.000709881
0.00103604
0.000661284
5.87616e-06
5.6921e-06