/*--------------------------------*- C++ -*----------------------------------*\
| =========                 |                                                 |
| \\      /  F ield         | OpenFOAM: The Open Source CFD Toolbox           |
|  \\    /   O peration     | Version:  v1606+                                |
|   \\  /    A nd           | Web:      www.OpenFOAM.com                      |
|    \\/     M anipulation  |                                                 |
\*---------------------------------------------------------------------------*/
FoamFile
{
    version     2.0;
    format      ascii;
    class       surfaceScalarField;
    location    "1.84";
    object      phi;
}
// * * * * * * * * * * * * * * * * * * * * * * * * * * * * * * * * * * * * * //

dimensions      [0 3 -1 0 0 0 0];

internalField   nonuniform List<scalar> 
11770
(
-6.02939e-06
5.25947e-05
-6.71589e-06
4.74011e-05
-6.48717e-06
4.66011e-05
-6.34423e-06
4.67624e-05
-6.70906e-06
4.73582e-05
-7.50669e-06
4.77618e-05
-7.12243e-06
4.62948e-05
-5.09118e-06
4.42666e-05
-2.34379e-06
4.31587e-05
1.84587e-08
4.33091e-05
2.09552e-06
4.33783e-05
2.66246e-06
4.49333e-05
6.77187e-07
4.77174e-05
-1.23305e-06
4.77864e-05
-2.12603e-06
4.66548e-05
-2.68369e-06
4.63218e-05
-2.74384e-06
4.61739e-05
-2.269e-06
4.60483e-05
-2.27595e-06
4.66593e-05
-1.04605e-06
4.5361e-05
1.09848e-06
4.42838e-05
4.14263e-06
4.3165e-05
6.77397e-06
4.35281e-05
8.59901e-06
4.4506e-05
8.63144e-06
4.65673e-05
8.31963e-06
4.71773e-05
8.06943e-06
4.71555e-05
6.68579e-06
4.82253e-05
4.64393e-06
4.8681e-05
5.1079e-05
2.56836e-06
5.37299e-05
-3.05273e-06
5.59277e-05
-7.77729e-06
5.40529e-05
-1.12466e-05
5.29452e-05
-1.37477e-05
5.25712e-05
-1.4827e-05
5.15899e-05
-1.10451e-05
4.53057e-05
-4.57519e-06
4.06369e-05
1.5407e-06
4.0022e-05
5.7642e-06
4.21544e-05
5.7375e-06
4.62956e-05
3.83237e-06
4.96693e-05
2.04075e-06
5.25453e-05
-5.01012e-07
5.33989e-05
-3.53573e-06
5.26934e-05
-7.23086e-06
5.31576e-05
-1.02629e-05
5.2589e-05
-1.2149e-05
5.13306e-05
-1.17206e-05
4.96111e-05
-8.99441e-06
4.58107e-05
-3.25148e-06
4.15882e-05
3.49085e-06
3.93056e-05
9.76041e-06
4.00806e-05
1.44179e-05
4.26641e-05
1.70196e-05
4.68547e-05
1.64627e-05
5.0544e-05
1.50794e-05
5.1261e-05
1.02669e-05
5.5814e-05
2.66018e-06
5.9162e-05
5.69751e-05
-1.93721e-06
5.62326e-05
-4.60019e-06
5.90848e-05
-8.22251e-06
5.80597e-05
-1.09562e-05
5.60452e-05
-1.26779e-05
5.46279e-05
-1.25662e-05
5.176e-05
-9.34315e-06
4.23279e-05
-4.62489e-06
3.61591e-05
1.312e-06
3.43767e-05
7.59658e-06
3.62687e-05
1.01222e-05
4.44968e-05
7.48541e-06
5.30181e-05
3.3272e-06
5.73607e-05
-5.28504e-07
5.78946e-05
-4.83746e-06
5.77084e-05
-9.35249e-06
5.86016e-05
-1.28019e-05
5.67694e-05
-1.42153e-05
5.319e-05
-1.43e-05
5.00495e-05
-1.22604e-05
4.40765e-05
-7.65958e-06
3.72613e-05
-2.14812e-06
3.40424e-05
3.25238e-06
3.49249e-05
8.54326e-06
3.76249e-05
1.23593e-05
4.33102e-05
1.37683e-05
4.942e-05
1.40757e-05
5.12393e-05
1.08251e-05
5.94228e-05
5.40557e-06
6.50605e-05
6.2949e-05
-1.22211e-06
5.76103e-05
-2.78388e-06
6.08439e-05
-5.40261e-06
6.07792e-05
-5.95048e-06
5.66787e-05
-4.56806e-06
5.33225e-05
-1.61602e-06
4.88683e-05
8.52087e-07
3.99069e-05
1.4371e-06
3.56168e-05
2.37384e-06
3.34879e-05
5.214e-06
3.35062e-05
9.72811e-06
4.02728e-05
9.14785e-06
5.40736e-05
3.29202e-06
6.36109e-05
-1.83577e-06
6.33584e-05
-6.50637e-06
6.27042e-05
-1.07651e-05
6.3196e-05
-1.40523e-05
6.02034e-05
-1.55716e-05
5.47773e-05
-1.45507e-05
4.90842e-05
-9.93132e-06
3.95077e-05
-6.12783e-06
3.35031e-05
-4.88625e-06
3.28424e-05
-4.94611e-06
3.50268e-05
-4.25138e-06
3.69747e-05
-1.76748e-06
4.08772e-05
3.07756e-06
4.46386e-05
7.40612e-06
4.70035e-05
8.42627e-06
5.85595e-05
3.72099e-06
6.99947e-05
6.68637e-05
4.19547e-07
5.72782e-05
1.42937e-06
5.99514e-05
2.9786e-06
5.93014e-05
5.8711e-06
5.38389e-05
9.65557e-06
4.95841e-05
1.11167e-05
4.74466e-05
8.37445e-06
4.26819e-05
4.6577e-06
3.93634e-05
1.39546e-06
3.67786e-05
-4.30406e-07
3.53678e-05
2.1661e-06
3.77908e-05
6.2299e-06
5.03206e-05
4.47087e-06
6.57197e-05
9.99271e-08
6.80495e-05
-4.36873e-06
6.74511e-05
-8.67144e-06
6.75771e-05
-1.03873e-05
6.19149e-05
-8.42772e-06
5.28217e-05
-2.73182e-06
4.34069e-05
2.04982e-06
3.475e-05
2.21994e-06
3.33574e-05
1.78928e-07
3.49108e-05
-2.48796e-06
3.77251e-05
-5.35449e-06
3.98755e-05
-6.19534e-06
4.17555e-05
-4.16886e-06
4.26565e-05
-1.6091e-06
4.45029e-05
1.94567e-06
5.50937e-05
1.14902e-06
7.09125e-05
6.81077e-05
1.53541e-06
5.58055e-05
5.64633e-06
5.59138e-05
1.07969e-05
5.42139e-05
1.45503e-05
5.01375e-05
1.56464e-05
4.85348e-05
1.2163e-05
5.09719e-05
5.54839e-06
4.93327e-05
2.53723e-07
4.4693e-05
-4.79832e-06
4.18614e-05
-8.48404e-06
3.90862e-05
-9.48742e-06
3.88535e-05
-4.28934e-06
4.52584e-05
2.25714e-07
6.14191e-05
-3.51127e-07
6.88894e-05
-1.81507e-06
6.91845e-05
-3.07051e-06
6.8888e-05
-1.07461e-06
5.9902e-05
4.5383e-06
4.72086e-05
1.11604e-05
3.67989e-05
1.28272e-05
3.31032e-05
1.0976e-05
3.52328e-05
7.31323e-06
3.8603e-05
2.31212e-06
4.27623e-05
-3.61433e-06
4.58394e-05
-7.04728e-06
4.52257e-05
-6.55436e-06
4.2203e-05
-4.16673e-06
4.21599e-05
-1.3722e-06
5.23619e-05
1.30631e-06
6.8324e-05
6.94954e-05
2.34634e-06
5.35058e-05
7.56074e-06
5.07473e-05
1.30908e-05
4.87305e-05
1.56385e-05
4.76354e-05
1.37284e-05
5.04909e-05
7.50603e-06
5.72393e-05
-1.44642e-06
5.83251e-05
-7.95701e-06
5.12347e-05
-1.14411e-05
4.53786e-05
-1.45323e-05
4.22151e-05
-1.80234e-05
4.23955e-05
-1.65784e-05
4.39017e-05
-9.50709e-06
5.44924e-05
-3.42359e-06
6.29937e-05
1.89329e-06
6.40351e-05
6.13949e-06
6.46896e-05
1.09837e-05
5.50559e-05
1.73106e-05
4.08946e-05
2.1539e-05
3.25908e-05
2.11683e-05
3.34983e-05
1.92551e-05
3.7175e-05
1.57861e-05
4.21083e-05
6.25308e-06
5.23315e-05
-5.47813e-06
5.76086e-05
-1.04902e-05
5.02765e-05
-8.55026e-06
4.02995e-05
-2.21135e-06
3.58584e-05
3.50176e-06
4.66975e-05
3.73402e-06
6.81596e-05
7.32965e-05
3.76617e-06
4.97761e-05
8.3368e-06
4.6212e-05
1.4278e-05
4.28245e-05
1.80391e-05
4.39107e-05
1.76213e-05
5.09468e-05
1.2599e-05
6.23022e-05
4.71991e-06
6.62457e-05
-3.65245e-06
5.96448e-05
-1.15461e-05
5.33083e-05
-1.83508e-05
4.90541e-05
-2.10213e-05
4.51176e-05
-2.25346e-05
4.54987e-05
-1.69642e-05
4.90527e-05
-7.22089e-06
5.33986e-05
4.12951e-06
5.27977e-05
1.35569e-05
5.53186e-05
2.02047e-05
4.84154e-05
2.56346e-05
3.54901e-05
2.81291e-05
3.0124e-05
2.89669e-05
3.26918e-05
2.85494e-05
3.76319e-05
1.6735e-05
5.39584e-05
-7.37811e-06
7.64868e-05
-2.4802e-05
7.50764e-05
-2.54185e-05
5.09337e-05
-1.75832e-05
3.24992e-05
-6.92136e-06
2.52285e-05
4.4341e-06
3.53772e-05
2.3329e-06
7.03045e-05
7.56737e-05
6.31405e-06
4.34941e-05
1.09521e-05
4.1605e-05
1.62291e-05
3.75783e-05
2.02503e-05
3.9921e-05
2.46721e-05
4.65582e-05
2.93033e-05
5.77072e-05
2.9758e-05
6.58294e-05
2.05736e-05
6.8868e-05
6.11444e-06
6.78062e-05
-7.23414e-06
6.24407e-05
-1.70092e-05
5.49356e-05
-2.12537e-05
4.98097e-05
-1.8287e-05
4.6199e-05
-9.05284e-06
4.42925e-05
3.79953e-06
4.00361e-05
1.64043e-05
4.27654e-05
2.38725e-05
4.09675e-05
2.95363e-05
2.98574e-05
3.31356e-05
2.65611e-05
3.55068e-05
3.03629e-05
2.57085e-05
4.74737e-05
-9.22746e-06
8.89397e-05
-4.46432e-05
0.000111953
-5.4072e-05
8.45544e-05
-4.47505e-05
4.16527e-05
-3.22496e-05
2.00319e-05
-2.03894e-05
1.33978e-05
-6.11595e-06
2.11332e-05
4.7335e-07
6.37505e-05
7.61832e-05
4.7573e-06
3.87661e-05
1.05251e-05
3.5866e-05
1.29881e-05
3.51441e-05
1.57609e-05
3.71778e-05
2.17111e-05
4.06393e-05
3.07379e-05
4.87146e-05
3.78273e-05
5.87771e-05
4.07861e-05
6.59489e-05
3.74308e-05
7.1201e-05
2.27115e-05
7.71989e-05
3.41733e-06
7.42669e-05
-1.00177e-05
6.32919e-05
-1.48444e-05
5.11044e-05
-8.20934e-06
3.77555e-05
2.61136e-06
2.92928e-05
1.48876e-05
3.05341e-05
2.32294e-05
3.26629e-05
3.0379e-05
2.27446e-05
3.53997e-05
2.159e-05
3.0926e-05
3.48855e-05
-3.85489e-06
8.23035e-05
-4.3044e-05
0.000128182
-5.76896e-05
0.000126657
-5.08158e-05
7.77297e-05
-3.5775e-05
2.66482e-05
-2.53194e-05
9.60602e-06
-1.93828e-05
7.48757e-06
-1.17127e-05
1.34893e-05
1.75936e-06
5.03107e-05
7.79775e-05
1.81456e-06
3.69809e-05
5.80238e-06
3.19056e-05
5.68073e-06
3.52941e-05
6.59676e-06
3.62911e-05
1.06716e-05
3.65953e-05
1.91361e-05
4.02834e-05
2.99901e-05
4.796e-05
3.97898e-05
5.61897e-05
4.54097e-05
6.56224e-05
4.52898e-05
7.73586e-05
3.45019e-05
8.50915e-05
1.41643e-05
8.36667e-05
-2.30129e-06
6.76187e-05
-5.19362e-06
4.07185e-05
2.51765e-06
2.16498e-05
1.23843e-05
2.07131e-05
2.14291e-05
2.36596e-05
2.92621e-05
1.49563e-05
3.13965e-05
1.95083e-05
4.68873e-06
6.16394e-05
-3.22363e-05
0.000119276
-4.57116e-05
0.00014171
-4.5624e-05
0.000126625
-3.07134e-05
6.28637e-05
-1.75974e-05
1.35634e-05
-1.29139e-05
4.94869e-06
-1.32338e-05
7.83175e-06
-1.39642e-05
1.42442e-05
-3.81046e-06
4.01874e-05
7.42029e-05
7.26765e-07
3.62837e-05
-9.58168e-07
3.36178e-05
-3.22021e-06
3.7585e-05
-3.81204e-06
3.69126e-05
-2.68435e-06
3.54982e-05
1.89076e-06
3.57406e-05
1.09577e-05
3.89284e-05
2.35641e-05
4.36224e-05
3.69654e-05
5.22623e-05
4.54665e-05
6.88996e-05
4.41256e-05
8.6474e-05
3.60917e-05
9.17403e-05
1.76433e-05
8.61081e-05
3.22308e-06
5.51903e-05
5.41858e-06
1.95133e-05
1.20801e-05
1.40982e-05
1.93459e-05
1.64353e-05
2.47737e-05
9.5748e-06
1.93713e-05
2.49589e-05
-1.51449e-05
9.61908e-05
-2.95567e-05
0.000133713
-3.1632e-05
0.000143825
-2.53748e-05
0.000120411
-1.04482e-05
4.79738e-05
-3.36171e-06
6.5032e-06
-3.11479e-06
4.72479e-06
-6.22373e-06
1.09636e-05
-1.12939e-05
1.93386e-05
-9.91249e-06
3.88369e-05
6.43281e-05
7.53594e-08
3.62404e-05
-4.51385e-06
3.82375e-05
-7.97608e-06
4.10797e-05
-1.02744e-05
3.92437e-05
-1.13434e-05
3.65996e-05
-1.0431e-05
3.48608e-05
-6.35048e-06
3.48818e-05
1.38189e-06
3.59259e-05
1.45173e-05
3.91651e-05
3.25735e-05
5.08859e-05
3.98531e-05
7.92433e-05
3.63427e-05
9.53005e-05
2.86963e-05
9.38039e-05
1.53746e-05
6.8559e-05
1.09119e-05
2.40193e-05
1.33909e-05
1.16599e-05
1.71876e-05
1.2675e-05
1.90966e-05
7.7042e-06
2.62852e-06
4.14695e-05
-1.5497e-05
0.000114345
-1.63207e-05
0.000134553
-1.32892e-05
0.000140817
-5.38613e-06
0.000112538
4.35901e-06
3.82598e-05
5.80114e-06
5.08414e-06
3.34987e-06
7.19678e-06
-9.91506e-07
1.53272e-05
-7.13431e-06
2.55085e-05
-9.94981e-06
4.16899e-05
5.44259e-05
-1.43371e-06
3.77108e-05
-6.54795e-06
4.33904e-05
-9.69664e-06
4.42689e-05
-1.20301e-05
4.16164e-05
-1.36898e-05
3.82964e-05
-1.43611e-05
3.55681e-05
-1.36859e-05
3.42423e-05
-1.18819e-05
3.41575e-05
-6.69614e-06
3.4015e-05
7.77374e-06
3.64553e-05
2.40715e-05
6.29954e-05
2.82295e-05
9.12006e-05
2.71505e-05
9.49423e-05
2.28385e-05
7.29219e-05
1.70977e-05
2.97925e-05
1.42749e-05
1.45136e-05
1.35501e-05
1.34313e-05
1.03912e-05
1.08955e-05
-7.13185e-06
5.90387e-05
-1.027e-05
0.000117525
-4.75289e-06
0.00012907
3.34192e-06
0.000132751
1.42218e-05
0.000101692
1.74847e-05
3.50296e-05
1.46427e-05
7.95067e-06
1.02737e-05
1.15869e-05
4.32242e-06
2.13029e-05
-1.73282e-06
3.15963e-05
-5.45253e-06
4.54559e-05
4.90315e-05
-1.91182e-06
3.96644e-05
-6.49404e-06
4.80215e-05
-9.94159e-06
4.77664e-05
-1.25318e-05
4.42542e-05
-1.37351e-05
3.95433e-05
-1.42599e-05
3.6134e-05
-1.46927e-05
3.47151e-05
-1.56497e-05
3.51542e-05
-1.61865e-05
3.45907e-05
-1.3088e-05
3.33956e-05
1.15727e-06
4.87978e-05
1.38074e-05
7.86097e-05
2.15982e-05
8.72122e-05
2.44459e-05
7.01261e-05
1.97919e-05
3.44753e-05
1.27729e-05
2.15615e-05
7.53354e-06
1.86997e-05
-8.27982e-09
1.84661e-05
-9.3922e-06
6.8469e-05
-3.57724e-06
0.000111761
6.33285e-06
0.000119211
2.06007e-05
0.000118531
3.46026e-05
8.77394e-05
3.03466e-05
3.93295e-05
2.31707e-05
1.51583e-05
1.76522e-05
1.71317e-05
1.08965e-05
2.80863e-05
4.70593e-06
3.78184e-05
-1.05392e-06
5.12614e-05
4.80309e-05
1.26942e-06
3.84324e-05
-6.43728e-06
5.57776e-05
-9.83436e-06
5.12134e-05
-1.22791e-05
4.67493e-05
-1.27401e-05
4.00526e-05
-1.27407e-05
3.61818e-05
-1.3203e-05
3.52242e-05
-1.52791e-05
3.72792e-05
-1.83392e-05
3.77006e-05
-2.21729e-05
3.72771e-05
-1.63767e-05
4.30539e-05
-1.87375e-06
6.41661e-05
1.35341e-05
7.18622e-05
2.21187e-05
6.159e-05
1.96557e-05
3.69653e-05
1.12731e-05
2.99771e-05
2.13229e-06
2.78729e-05
-8.85589e-06
2.94812e-05
-9.26318e-06
6.89184e-05
2.2357e-06
0.000100318
1.89502e-05
0.000102555
3.94968e-05
9.80468e-05
5.1994e-05
7.53138e-05
4.35314e-05
4.78606e-05
3.0456e-05
2.82781e-05
1.76249e-05
2.99947e-05
6.89048e-06
3.88525e-05
-1.24407e-06
4.59868e-05
-5.32196e-06
5.53802e-05
4.27483e-05
3.03708e-06
3.54327e-05
-3.58683e-06
6.24501e-05
-6.77567e-06
5.44488e-05
-8.8376e-06
4.8858e-05
-9.12366e-06
4.03853e-05
-8.30822e-06
3.54126e-05
-8.13727e-06
3.51003e-05
-1.07721e-05
3.99653e-05
-1.72826e-05
4.42685e-05
-2.41346e-05
4.41915e-05
-2.38201e-05
4.28046e-05
-1.22198e-05
5.26313e-05
5.63929e-06
5.40574e-05
1.47444e-05
5.25255e-05
1.06521e-05
4.10849e-05
2.52848e-06
3.81395e-05
-6.14864e-06
3.6595e-05
-1.52686e-05
3.86387e-05
-9.80269e-06
6.34949e-05
6.83806e-06
8.3737e-05
2.77124e-05
8.17468e-05
4.87098e-05
7.71306e-05
5.63679e-05
6.77546e-05
4.97657e-05
5.45471e-05
3.20277e-05
4.607e-05
1.53182e-05
4.6743e-05
1.80673e-06
5.23979e-05
-9.24598e-06
5.70736e-05
-1.05516e-05
5.67211e-05
3.22284e-05
1.41552e-07
3.53329e-05
-1.48866e-06
6.41258e-05
-5.61267e-06
5.86157e-05
-9.65646e-06
5.29437e-05
-1.55262e-05
4.63013e-05
-1.62168e-05
3.615e-05
-1.46695e-05
3.36012e-05
-1.301e-05
3.83574e-05
-1.46878e-05
4.60034e-05
-2.0569e-05
5.0138e-05
-2.65729e-05
4.8881e-05
-1.5209e-05
4.13318e-05
-1.29284e-06
4.01881e-05
3.58114e-06
4.76881e-05
-7.32012e-07
4.54303e-05
-5.5103e-06
4.29595e-05
-1.08659e-05
4.20029e-05
-1.59956e-05
4.38177e-05
-9.15127e-06
5.67032e-05
8.95122e-06
6.56943e-05
2.90491e-05
6.17197e-05
4.49914e-05
6.12783e-05
4.7979e-05
6.48605e-05
4.23382e-05
6.02565e-05
2.56035e-05
6.28533e-05
7.25965e-06
6.51233e-05
-3.95478e-06
6.36456e-05
-1.0607e-05
6.37589e-05
-9.84207e-06
5.59889e-05
2.24138e-05
-1.36519e-06
3.67413e-05
1.10347e-06
6.17049e-05
-2.46651e-06
6.22323e-05
-1.01286e-05
6.06517e-05
-2.21836e-05
5.84038e-05
-2.77014e-05
4.17142e-05
-2.80397e-05
3.39864e-05
-2.4764e-05
3.51303e-05
-2.27718e-05
4.40626e-05
-2.37101e-05
5.11336e-05
-2.56317e-05
5.08696e-05
-1.47742e-05
3.05294e-05
-7.30368e-06
3.27556e-05
-4.26238e-06
4.4685e-05
-6.55611e-06
4.7763e-05
-9.48572e-06
4.59301e-05
-1.23361e-05
4.48972e-05
-1.40985e-05
4.56286e-05
-7.88873e-06
5.05472e-05
4.12407e-06
5.37354e-05
1.95914e-05
4.63093e-05
3.24173e-05
4.8522e-05
3.40324e-05
6.33109e-05
2.36606e-05
7.06789e-05
1.27654e-05
7.37891e-05
4.0417e-06
7.38816e-05
-4.74875e-06
7.24692e-05
-1.18051e-05
7.08485e-05
-7.45717e-06
5.16721e-05
1.49811e-05
4.17065e-06
3.26127e-05
2.37447e-06
6.35524e-05
-1.61353e-06
6.6272e-05
-8.09056e-06
6.71782e-05
-1.45839e-05
6.49464e-05
-1.88738e-05
4.60503e-05
-1.96236e-05
3.47812e-05
-1.60034e-05
3.1555e-05
-1.26687e-05
4.07746e-05
-1.27768e-05
5.12915e-05
-1.51546e-05
5.33018e-05
-1.2124e-05
2.75454e-05
-9.27014e-06
2.99361e-05
-9.12621e-06
4.45782e-05
-1.02895e-05
4.89662e-05
-1.15402e-05
4.72215e-05
-1.27886e-05
4.61877e-05
-1.29793e-05
4.58637e-05
-8.71959e-06
4.63347e-05
-2.40026e-07
4.52999e-05
7.23644e-06
3.88704e-05
1.30029e-05
4.27993e-05
1.1428e-05
6.49301e-05
7.02976e-06
7.51177e-05
5.98848e-06
7.48673e-05
2.12826e-06
7.77759e-05
-5.34453e-06
7.99754e-05
-9.20927e-06
7.47464e-05
-2.75835e-06
4.52506e-05
1.22442e-05
7.50191e-06
2.51525e-05
5.75907e-06
6.53474e-05
2.44862e-06
6.96364e-05
-1.68752e-06
7.13678e-05
-2.49159e-06
6.58015e-05
-5.07343e-06
4.86797e-05
-5.83398e-06
3.55865e-05
-3.06001e-06
2.8824e-05
1.27383e-06
3.64854e-05
3.4282e-06
4.91852e-05
5.25055e-06
5.15286e-05
-1.00492e-06
3.38419e-05
-6.65768e-06
3.56203e-05
-8.64295e-06
4.65971e-05
-9.05855e-06
4.94196e-05
-1.00524e-05
4.8255e-05
-1.13465e-05
4.75236e-05
-1.22188e-05
4.67796e-05
-1.13578e-05
4.55176e-05
-8.79481e-06
4.2776e-05
-8.67808e-06
3.87832e-05
-1.05094e-05
4.46578e-05
-6.44177e-06
6.08956e-05
-3.88591e-06
7.25977e-05
-1.19945e-06
7.22154e-05
-6.84433e-07
7.72943e-05
-3.8879e-06
8.32124e-05
-1.88695e-06
7.27785e-05
2.07377e-06
4.13171e-05
1.43373e-05
5.3492e-06
1.98434e-05
9.15185e-06
6.15973e-05
9.4333e-06
6.94081e-05
9.83656e-06
7.10198e-05
1.11253e-05
6.4565e-05
9.35144e-06
5.05022e-05
8.44723e-06
3.65353e-05
9.60907e-06
2.77034e-05
1.36481e-05
3.24889e-05
1.62424e-05
4.66378e-05
2.08081e-05
4.70092e-05
1.06157e-05
4.40724e-05
1.7568e-06
4.45118e-05
-1.40144e-06
4.97914e-05
-3.07778e-06
5.11354e-05
-5.65876e-06
5.08778e-05
-8.56671e-06
5.04764e-05
-1.15414e-05
4.98018e-05
-1.40828e-05
4.81066e-05
-1.66754e-05
4.54128e-05
-2.06452e-05
4.27901e-05
-2.34528e-05
4.74939e-05
-1.8013e-05
5.54801e-05
-1.08019e-05
6.54173e-05
-7.72612e-06
6.91726e-05
-4.79674e-06
7.43985e-05
-9.14063e-07
7.93638e-05
5.20409e-06
6.6693e-05
4.5925e-06
4.19547e-05
1.89479e-05
2.88787e-08
1.98522e-05
1.03683e-05
5.13069e-05
1.6843e-05
6.29853e-05
2.17861e-05
6.61302e-05
2.33159e-05
6.30877e-05
2.23015e-05
5.1566e-05
2.15713e-05
3.73105e-05
2.10946e-05
2.82208e-05
2.17299e-05
3.1895e-05
2.27888e-05
4.56252e-05
2.10633e-05
4.87779e-05
1.12997e-05
5.38697e-05
6.12215e-06
4.97264e-05
4.41357e-06
5.1543e-05
2.27405e-06
5.33214e-05
-1.12217e-06
5.43234e-05
-5.43722e-06
5.48445e-05
-1.07446e-05
5.51672e-05
-1.56609e-05
5.30815e-05
-2.05651e-05
5.0374e-05
-2.56548e-05
4.79347e-05
-2.60334e-05
4.79196e-05
-2.27107e-05
5.21871e-05
-1.56834e-05
5.84149e-05
-1.08873e-05
6.4404e-05
-6.82388e-06
7.03682e-05
6.12868e-07
7.19624e-05
7.62179e-06
5.9717e-05
4.8425e-06
4.47604e-05
2.38081e-05
-2.25485e-06
2.21428e-05
8.5541e-06
4.05437e-05
1.87868e-05
5.28034e-05
2.6325e-05
5.86454e-05
3.00347e-05
5.94319e-05
3.10516e-05
5.06005e-05
3.10933e-05
3.7315e-05
2.89953e-05
3.03606e-05
2.59925e-05
3.49422e-05
2.60814e-05
4.55806e-05
1.7123e-05
5.77749e-05
1.4534e-05
5.64964e-05
1.25265e-05
5.178e-05
1.03705e-05
5.375e-05
7.74427e-06
5.60025e-05
4.02731e-06
5.80988e-05
-1.34856e-06
6.02836e-05
-1.04864e-05
6.43773e-05
-1.7681e-05
6.03509e-05
-2.29917e-05
5.57584e-05
-2.67714e-05
5.17865e-05
-2.80628e-05
4.92792e-05
-2.43518e-05
4.8529e-05
-1.78449e-05
5.19403e-05
-1.17233e-05
5.83091e-05
-5.97224e-06
6.4646e-05
9.68863e-07
6.50567e-05
5.92939e-06
5.47899e-05
3.77406e-06
4.69435e-05
2.76001e-05
-3.24698e-06
2.54238e-05
4.29579e-06
3.30428e-05
1.52397e-05
4.19079e-05
2.48213e-05
4.91165e-05
3.15143e-05
5.27942e-05
3.48579e-05
4.73106e-05
3.49199e-05
3.73013e-05
3.09476e-05
3.43797e-05
2.60278e-05
3.99031e-05
1.96575e-05
5.19916e-05
1.74719e-05
6.00001e-05
2.03647e-05
5.36527e-05
1.85106e-05
5.36904e-05
1.63265e-05
5.59938e-05
1.3762e-05
5.86295e-05
1.04456e-05
6.14796e-05
3.97807e-06
6.68174e-05
-1.06211e-05
7.90533e-05
-2.13359e-05
7.11477e-05
-2.65712e-05
6.10796e-05
-2.88959e-05
5.41952e-05
-2.96532e-05
5.01168e-05
-2.8475e-05
4.74229e-05
-2.28779e-05
4.63975e-05
-1.38365e-05
4.93043e-05
-4.3764e-06
5.52163e-05
1.51798e-06
5.91945e-05
2.69982e-06
5.36415e-05
2.36102e-06
4.7311e-05
2.99797e-05
-3.55926e-06
2.9018e-05
-1.14876e-07
2.96383e-05
9.30018e-06
3.25385e-05
2.01328e-05
3.83347e-05
2.9101e-05
4.3881e-05
3.38004e-05
4.26658e-05
3.27704e-05
3.83804e-05
2.8358e-05
3.88347e-05
2.2225e-05
4.6073e-05
1.84486e-05
5.58086e-05
2.39424e-05
5.4556e-05
2.47219e-05
5.29351e-05
2.3222e-05
5.52562e-05
2.14015e-05
5.78809e-05
1.90415e-05
6.10542e-05
1.55162e-05
6.50647e-05
4.66313e-06
7.77271e-05
-1.13026e-05
9.50816e-05
-2.48026e-05
8.47169e-05
-3.10654e-05
6.74222e-05
-3.17141e-05
5.49286e-05
-3.0955e-05
4.94401e-05
-2.97518e-05
4.62963e-05
-2.69862e-05
4.36994e-05
-2.0097e-05
4.24658e-05
-8.90451e-06
4.40614e-05
7.19389e-08
5.02503e-05
-5.20752e-07
5.42662e-05
1.34452e-06
4.54745e-05
3.13435e-05
-2.67368e-06
3.17324e-05
-2.6121e-06
2.96184e-05
3.39878e-06
2.65703e-05
1.35429e-05
2.82368e-05
2.36968e-05
3.37776e-05
2.85315e-05
3.78825e-05
2.66033e-05
4.03557e-05
2.19433e-05
4.35326e-05
1.82485e-05
4.98076e-05
2.31607e-05
5.09432e-05
2.76025e-05
5.01759e-05
2.73849e-05
5.32222e-05
2.62658e-05
5.64451e-05
2.41979e-05
6.0015e-05
2.17979e-05
6.35104e-05
1.49664e-05
7.19428e-05
-3.87766e-06
9.66148e-05
-1.9183e-05
0.000110425
-3.00621e-05
9.56421e-05
-3.52324e-05
7.26502e-05
-3.3989e-05
5.37529e-05
-3.17288e-05
4.72532e-05
-2.97392e-05
4.43785e-05
-2.7554e-05
4.15803e-05
-2.36806e-05
3.86488e-05
-1.66242e-05
3.70485e-05
-6.65786e-06
4.03197e-05
-1.60884e-06
4.92502e-05
1.39869e-06
4.2496e-05
3.27639e-05
-7.22357e-07
3.24989e-05
-2.30397e-06
3.12434e-05
5.04342e-07
2.38016e-05
7.15725e-06
2.16234e-05
1.57705e-05
2.52069e-05
1.921e-05
3.44886e-05
1.78947e-05
4.17146e-05
1.62653e-05
4.52031e-05
2.09092e-05
4.52087e-05
2.69056e-05
4.50034e-05
2.81463e-05
4.90033e-05
2.82384e-05
5.32007e-05
2.63133e-05
5.84379e-05
2.33773e-05
6.30074e-05
2.02088e-05
6.67209e-05
6.58146e-06
8.56094e-05
-9.92682e-06
0.000113161
-1.7649e-05
0.00011818
-2.25713e-05
0.000100597
-2.90302e-05
7.91462e-05
-3.15529e-05
5.63201e-05
-3.02934e-05
4.60487e-05
-2.88393e-05
4.29854e-05
-2.67119e-05
3.95124e-05
-2.40004e-05
3.59907e-05
-1.99695e-05
3.30631e-05
-1.31103e-05
3.34993e-05
-3.23387e-06
3.94111e-05
1.19664e-06
3.80961e-05
3.39867e-05
2.26986e-06
3.02716e-05
-2.26967e-06
3.58285e-05
-8.76695e-07
2.24458e-05
2.72079e-06
1.80599e-05
7.57622e-06
2.03873e-05
9.65362e-06
3.24537e-05
1.15227e-05
3.98894e-05
1.67824e-05
3.99886e-05
2.31062e-05
3.89364e-05
2.56073e-05
4.25641e-05
2.68775e-05
4.77998e-05
2.64443e-05
5.37009e-05
2.22752e-05
6.26687e-05
1.80491e-05
6.72814e-05
1.20377e-05
7.27706e-05
-5.66184e-06
0.000103356
-1.18595e-05
0.000119404
-7.96784e-06
0.00011433
-6.26536e-06
9.89319e-05
-1.18236e-05
8.47402e-05
-1.97514e-05
6.42817e-05
-2.45399e-05
5.08771e-05
-2.65934e-05
4.50884e-05
-2.55313e-05
3.85022e-05
-2.30022e-05
3.35096e-05
-1.97268e-05
2.983e-05
-1.45928e-05
2.84033e-05
-5.8168e-06
3.06724e-05
-3.02382e-07
3.26135e-05
3.37141e-05
5.76684e-06
2.45436e-05
-4.60723e-06
4.62538e-05
-3.14435e-06
2.1017e-05
4.74417e-07
1.44714e-05
3.37193e-06
1.75222e-05
4.96069e-06
3.09072e-05
1.04066e-05
3.44878e-05
1.71997e-05
3.32417e-05
2.11197e-05
3.50685e-05
2.34273e-05
4.03155e-05
2.43406e-05
4.69493e-05
2.05478e-05
5.75592e-05
1.35343e-05
6.97445e-05
7.94764e-06
7.29218e-05
-5.00696e-06
8.57811e-05
-1.82123e-05
0.000116638
-1.01461e-05
0.000111408
1.03239e-06
0.000103216
7.49956e-06
9.25188e-05
9.01508e-06
8.32706e-05
1.85999e-06
7.14795e-05
-1.64973e-05
6.92785e-05
-2.48283e-05
5.34614e-05
-2.4941e-05
3.86608e-05
-2.20967e-05
3.07086e-05
-1.84943e-05
2.62654e-05
-1.39392e-05
2.38818e-05
-7.57416e-06
2.43395e-05
-2.09417e-06
2.71639e-05
3.16506e-05
6.28906e-06
1.82896e-05
-1.57946e-06
5.41807e-05
-5.39927e-06
2.48738e-05
-5.26456e-07
9.62564e-06
1.65911e-06
1.53675e-05
3.77154e-06
2.88356e-05
1.00353e-05
2.82648e-05
1.54894e-05
2.783e-05
1.9285e-05
3.13207e-05
2.20604e-05
3.75952e-05
2.16402e-05
4.74324e-05
1.31542e-05
6.61159e-05
6.52326e-06
7.64452e-05
-1.97918e-06
8.14894e-05
-2.58277e-05
0.000109722
-2.56076e-05
0.000116538
-7.94576e-06
9.38477e-05
4.18108e-06
9.11752e-05
1.21736e-05
8.45961e-05
1.92873e-05
7.62152e-05
1.36104e-05
7.72054e-05
-1.72846e-05
0.000100237
-2.72542e-05
6.34807e-05
-2.63022e-05
3.77518e-05
-2.22567e-05
2.67029e-05
-1.77239e-05
2.17665e-05
-1.32503e-05
1.94372e-05
-8.16898e-06
1.92851e-05
-3.12144e-06
2.21435e-05
2.85591e-05
2.21231e-06
1.61134e-05
7.99997e-06
4.84497e-05
-1.64912e-06
3.45698e-05
-1.52281e-06
9.52957e-06
3.84516e-07
1.34923e-05
4.52135e-06
2.47368e-05
1.0129e-05
2.2693e-05
1.48561e-05
2.31404e-05
1.9213e-05
2.70075e-05
2.24697e-05
3.43907e-05
1.87115e-05
5.12525e-05
7.04473e-06
7.78555e-05
-4.62034e-06
8.81867e-05
-2.38982e-05
0.000100861
-4.24359e-05
0.00012838
-3.44616e-05
0.000108688
-1.91994e-05
7.86768e-05
-3.91828e-06
7.59668e-05
5.32096e-06
7.54206e-05
5.15362e-06
7.64413e-05
-1.1372e-05
9.3787e-05
-3.48087e-05
0.000123748
-4.0891e-05
6.96276e-05
-3.05198e-05
2.74278e-05
-2.352e-05
1.97403e-05
-1.7576e-05
1.58529e-05
-1.28183e-05
1.4705e-05
-8.25623e-06
1.47463e-05
-3.56046e-06
1.74715e-05
2.50269e-05
3.50265e-06
1.26465e-05
1.59149e-05
3.6088e-05
1.23372e-05
3.81986e-05
3.61422e-06
1.82926e-05
2.05146e-06
1.50891e-05
7.45626e-06
1.93667e-05
1.18416e-05
1.83403e-05
1.62474e-05
1.877e-05
2.19181e-05
2.13775e-05
2.8542e-05
2.78153e-05
2.00237e-05
5.98294e-05
-3.07946e-06
0.000101033
-2.91813e-05
0.000114361
-5.68405e-05
0.000128606
-6.30665e-05
0.000134705
-6.02826e-05
0.000106001
-5.55932e-05
7.40691e-05
-4.71249e-05
6.75663e-05
-4.7389e-05
7.57498e-05
-5.9104e-05
8.82206e-05
-6.86973e-05
0.00010345
-5.674e-05
0.000111861
-5.01867e-05
6.31333e-05
-3.48407e-05
1.21232e-05
-2.41697e-05
9.10253e-06
-1.73459e-05
9.0561e-06
-1.24698e-05
9.85202e-06
-8.20628e-06
1.05037e-05
-3.82375e-06
1.31105e-05
2.123e-05
1.28812e-06
1.13902e-05
1.5877e-05
2.15439e-05
2.04414e-05
3.3685e-05
1.12023e-05
2.75785e-05
8.00417e-06
1.8323e-05
1.14765e-05
1.59263e-05
1.4593e-05
1.52563e-05
1.93375e-05
1.40598e-05
2.82023e-05
1.25483e-05
3.94408e-05
1.66233e-05
2.13644e-05
7.79781e-05
-1.75285e-05
0.000140002
-5.67995e-05
0.000153706
-8.3583e-05
0.000155461
-9.26854e-05
0.000143887
-0.000100612
0.000114007
-0.000111918
8.54541e-05
-0.000118073
7.38015e-05
-0.000117828
7.55857e-05
-0.000111107
8.15754e-05
-9.32779e-05
8.5692e-05
-6.2629e-05
8.12739e-05
-4.15385e-05
4.20949e-05
-3.12634e-05
1.88351e-06
-2.28616e-05
7.29398e-07
-1.69103e-05
3.1293e-06
-1.2257e-05
5.22043e-06
-8.21036e-06
6.477e-06
-4.06983e-06
8.99038e-06
1.71859e-05
-2.43307e-06
1.38543e-05
6.68706e-06
1.24612e-05
1.83167e-05
2.21027e-05
1.43798e-05
3.15658e-05
1.28003e-05
1.99423e-05
1.54192e-05
1.33401e-05
1.76474e-05
1.30631e-05
2.2388e-05
9.3586e-06
3.28199e-05
2.15384e-06
4.04101e-05
9.07961e-06
9.62353e-06
0.00010884
-3.31514e-05
0.000182858
-7.16454e-05
0.00019228
-9.77344e-05
0.000181629
-0.000110579
0.000156813
-0.000120066
0.000123573
-0.000128947
9.44134e-05
-0.00013188
7.68117e-05
-0.000125914
6.96972e-05
-0.000110335
6.60699e-05
-8.57493e-05
6.11734e-05
-5.62717e-05
5.18561e-05
-3.21139e-05
1.79847e-05
-2.49589e-05
-5.23812e-06
-2.01931e-05
-4.01022e-06
-1.59419e-05
-1.09816e-06
-1.18691e-05
1.16907e-06
-8.10005e-06
2.72799e-06
-4.2193e-06
5.12995e-06
1.2992e-05
-2.47238e-06
1.63602e-05
2.97707e-07
9.72419e-06
1.15603e-05
1.08793e-05
2.0341e-05
2.28339e-05
1.9409e-05
2.09078e-05
1.88987e-05
1.38893e-05
2.08737e-05
1.11243e-05
2.51998e-05
5.074e-06
3.61368e-05
-8.73654e-06
3.04265e-05
1.4836e-05
-8.0329e-06
0.00014738
-4.75818e-05
0.000222498
-8.23813e-05
0.000227172
-0.000104761
0.000204099
-0.000113896
0.000166035
-0.00011728
0.000127038
-0.000118378
9.55892e-05
-0.000114104
7.26132e-05
-0.000104578
6.0243e-05
-8.85905e-05
5.01503e-05
-6.78246e-05
4.04696e-05
-4.39422e-05
2.80288e-05
-2.42356e-05
-1.67804e-06
-2.00587e-05
-9.38338e-06
-1.73185e-05
-6.72561e-06
-1.43749e-05
-4.01844e-06
-1.10548e-05
-2.12903e-06
-7.69632e-06
-6.09335e-07
-4.14045e-06
1.59533e-06
8.87725e-06
-7.1851e-07
1.71145e-05
9.15025e-07
8.1226e-06
6.32496e-06
5.50159e-06
1.87977e-05
1.03999e-05
2.2047e-05
1.77025e-05
2.17082e-05
1.42645e-05
2.63517e-05
6.51139e-06
3.46952e-05
-3.24057e-06
3.95611e-05
-1.35668e-05
1.65204e-05
3.79307e-05
-2.54684e-05
0.00018946
-6.12415e-05
0.000258377
-9.01208e-05
0.000256156
-0.000104461
0.000218539
-0.000106297
0.000167962
-0.000103163
0.000123988
-9.98866e-05
9.23902e-05
-9.41883e-05
6.69874e-05
-8.43185e-05
5.04408e-05
-6.94669e-05
3.53609e-05
-5.0908e-05
2.19674e-05
-3.09913e-05
8.16249e-06
-1.93566e-05
-1.32721e-05
-1.62642e-05
-1.24457e-05
-1.46364e-05
-8.32839e-06
-1.26069e-05
-6.02377e-06
-1.00553e-05
-4.65692e-06
-7.16652e-06
-3.47485e-06
-4.02538e-06
-1.5226e-06
4.87869e-06
1.38364e-06
1.57677e-05
3.812e-06
5.72507e-06
6.79259e-06
2.55064e-06
1.44529e-05
2.77257e-06
2.29573e-05
9.24068e-06
2.6457e-05
1.08033e-05
3.21694e-05
8.3586e-07
3.62978e-05
-7.33573e-06
3.20378e-05
-9.27471e-06
-3.49735e-06
7.35274e-05
-4.21085e-05
0.000228175
-7.18138e-05
0.000288201
-9.19309e-05
0.00027639
-9.82127e-05
0.000224929
-9.52386e-05
0.000165083
-9.21516e-05
0.000120986
-8.70809e-05
8.73959e-05
-7.80756e-05
5.80515e-05
-6.4769e-05
3.71973e-05
-5.03746e-05
2.10234e-05
-3.48975e-05
6.5411e-06
-2.14393e-05
-5.25026e-06
-1.64e-05
-1.82732e-05
-1.32752e-05
-1.55409e-05
-1.24318e-05
-9.14541e-06
-1.11141e-05
-7.31511e-06
-9.21236e-06
-6.53213e-06
-6.85e-06
-5.8108e-06
-4.30003e-06
-4.0463e-06
6.08505e-07
3.29666e-06
1.2508e-05
5.96373e-06
3.08769e-06
8.78734e-06
-2.44414e-07
1.22779e-05
-6.88189e-07
1.97246e-05
1.83023e-06
2.53883e-05
5.1816e-06
2.802e-05
-1.75322e-06
2.60283e-05
-5.30274e-06
1.36066e-05
3.18729e-06
-2.78357e-05
0.000115044
-5.75858e-05
0.000258043
-7.80391e-05
0.000308786
-8.90045e-05
0.000287484
-9.10356e-05
0.000227074
-8.82906e-05
0.000162436
-8.49039e-05
0.000117685
-7.51193e-05
7.76865e-05
-6.18327e-05
4.48302e-05
-4.7652e-05
2.30743e-05
-3.52256e-05
8.648e-06
-2.38515e-05
-4.78806e-06
-1.59011e-05
-1.316e-05
-1.48675e-05
-1.927e-05
-1.11931e-05
-1.91857e-05
-1.1013e-05
-9.29702e-06
-9.93745e-06
-8.36146e-06
-8.53522e-06
-7.90437e-06
-6.65555e-06
-7.66061e-06
-4.64639e-06
-6.02564e-06
-4.00585e-06
5.72788e-06
6.81668e-06
7.85865e-06
9.8586e-07
1.08692e-05
-3.22745e-06
1.30858e-05
-2.87586e-06
1.58076e-05
-8.59212e-07
2.12361e-05
-2.09712e-07
2.33002e-05
-3.77763e-06
1.7001e-05
1.03795e-06
-1.14578e-05
3.16946e-05
-5.36268e-05
0.000157308
-7.31193e-05
0.000277671
-8.2495e-05
0.000318306
-8.59533e-05
0.000291077
-8.61117e-05
0.000227351
-8.41745e-05
0.000160599
-7.77032e-05
0.000111299
-6.41301e-05
6.41851e-05
-4.79627e-05
2.87225e-05
-3.40033e-05
9.16597e-06
-2.43076e-05
-1.0027e-06
-1.6924e-05
-1.21324e-05
-1.28558e-05
-1.7192e-05
-1.22343e-05
-1.98564e-05
-1.02522e-05
-2.11352e-05
-9.65903e-06
-9.85716e-06
-8.52066e-06
-9.46711e-06
-7.70353e-06
-8.68763e-06
-6.07898e-06
-9.25178e-06
-3.46313e-06
-8.6087e-06
-7.435e-06
6.12889e-06
7.24299e-07
9.66772e-06
-2.52342e-06
1.28127e-05
-6.34573e-06
1.45526e-05
-4.58676e-06
1.56331e-05
-1.90736e-06
1.81388e-05
-2.68049e-06
1.84324e-05
-4.03391e-06
1.84626e-06
1.76702e-05
-4.49229e-05
7.85329e-05
-8.10999e-05
0.000193604
-8.98548e-05
0.000286578
-8.92456e-05
0.000317851
-8.73473e-05
0.00028932
-8.50847e-05
0.000225208
-8.04971e-05
0.000156111
-6.77781e-05
9.86629e-05
-4.85764e-05
4.50488e-05