/*--------------------------------*- C++ -*----------------------------------*\
| =========                 |                                                 |
| \\      /  F ield         | OpenFOAM: The Open Source CFD Toolbox           |
|  \\    /   O peration     | Version:  v1606+                                |
|   \\  /    A nd           | Web:      www.OpenFOAM.com                      |
|    \\/     M anipulation  |                                                 |
\*---------------------------------------------------------------------------*/
FoamFile
{
    version     2.0;
    format      ascii;
    class       volScalarField;
    location    "1.85";
    object      Theta.particles;
}
// * * * * * * * * * * * * * * * * * * * * * * * * * * * * * * * * * * * * * //

dimensions      [0 2 -2 0 0 0 0];

internalField   nonuniform List<scalar> 
6000
(
0.00149507
0.00087457
0.000791995
0.000712973
0.000578733
0.000531507
0.000526548
0.000587367
0.000716227
0.000759992
0.000847057
0.000928879
0.000867263
0.00097139
0.00106929
0.00108143
0.00100899
0.000872456
0.000824514
0.000844718
0.000836217
0.000788225
0.000730064
0.000707741
0.000709527
0.000740623
0.000738663
0.000790814
0.00100381
0.00156196
0.000262979
0.000259932
0.000246903
0.000234713
0.000226031
0.00021478
0.000196023
0.00018622
0.000190525
0.00020244
0.000223185
0.000230602
0.000231478
0.000240615
0.000239757
0.000246131
0.000243956
0.000239469
0.000234864
0.000224998
0.000209509
0.000194171
0.000186108
0.000188234
0.000199354
0.000214879
0.000226221
0.000249747
0.00027802
0.000279973
0.000240647
0.0002517
0.000250514
0.000233236
0.000220051
0.000207758
0.000185485
0.000158927
0.000155027
0.000174789
0.000200552
0.000240784
0.000288571
0.000302489
0.000294543
0.000285869
0.000271036
0.000269332
0.000257178
0.000227776
0.000192146
0.000158746
0.000141398
0.000143657
0.000158898
0.000170867
0.000186577
0.000206423
0.000219377
0.000214387
0.000216205
0.00021801
0.000211906
0.000201539
0.000190434
0.000170167
0.000139524
0.000121173
0.000119609
0.000128085
0.000160406
0.000212724
0.000244731
0.000254639
0.000250321
0.000247438
0.000243471
0.000235881
0.000223567
0.000189436
0.000147175
0.000123091
0.000118134
0.000123063
0.000139027
0.00015876
0.000167675
0.000188335
0.000212326
0.000219695
0.000209993
0.000203858
0.000201498
0.000190692
0.000177357
0.000168116
0.000145334
0.000123399
0.00011433
0.00011267
0.000133456
0.000196912
0.000247191
0.000252013
0.000253825
0.000251442
0.000242831
0.000229689
0.000203166
0.000152422
0.000117006
0.000114767
0.00012596
0.000135865
0.000147481
0.000160743
0.000165617
0.000190663
0.00021989
0.000246863
0.000246677
0.000234928
0.000245071
0.000250639
0.000243166
0.000237254
0.000210696
0.000183739
0.000158766
0.0001307
0.000118395
0.000172782
0.000237032
0.00024566
0.000245915
0.000243774
0.00023297
0.000207191
0.000163862
0.000121806
0.000123004
0.000144457
0.000165586
0.000182503
0.000193156
0.000191695
0.000193523
0.000225262
0.000300077
0.000334152
0.000445862
0.000451095
0.000479157
0.000525055
0.000563663
0.000561306
0.000427909
0.000293452
0.000222116
0.000174799
0.0001455
0.000157573
0.000217855
0.000238895
0.000236192
0.000234087
0.000215221
0.000178684
0.000135692
0.000132923
0.000154099
0.000180971
0.000207352
0.000236886
0.00031013
0.000343484
0.000365848
0.000597467
0.000726732
0.000864569
0.000534263
0.000467465
0.000463372
0.000469276
0.000523033
0.000577063
0.000635513
0.000598698
0.00043336
0.000265656
0.00018934
0.000170662
0.000205657
0.000229277
0.000223762
0.000218421
0.000199401
0.000157354
0.00014213
0.000160536
0.000183177
0.000216236
0.000293603
0.000747447
0.000780597
0.000612452
0.000536772
0.000581313
0.00062729
0.000788203
0.000318699
0.000266032
0.000273222
0.000284431
0.000313901
0.000354717
0.000411278
0.000499789
0.000660545
0.000692813
0.00039255
0.000240139
0.000206482
0.000213387
0.000207412
0.000202364
0.00020016
0.000160882
0.000158153
0.000172846
0.000195474
0.000334581
0.000981303
0.000815452
0.000466279
0.000335004
0.000252763
0.000230884
0.000326369
0.000407246
0.00018989
0.000172498
0.000187438
0.000198465
0.00022244
0.000265171
0.000305431
0.00033707
0.000388077
0.000517106
0.000763983
0.000616548
0.000330357
0.00021091
0.000186585
0.000191229
0.000206803
0.000179222
0.000161602
0.000170161
0.000330531
0.000956951
0.000787557
0.000492727
0.000334765
0.000231152
0.000165348
0.000148424
0.000212091
0.000259797
0.000149567
0.000134247
0.000152482
0.000166521
0.000181094
0.000210238
0.000251898
0.000290228
0.00031767
0.000335711
0.000406654
0.000528355
0.000598254
0.000361768
0.000198381
0.000177506
0.000185901
0.000163197
0.000157383
0.000292022
0.0007171
0.000798476
0.00067338
0.000426215
0.000251529
0.000174015
0.000134837
0.000123757
0.000166975
0.000224819
0.000136598
0.000120971
0.000135829
0.000145151
0.000152917
0.000166361
0.000190583
0.000228606
0.000270024
0.000306308
0.000326729
0.000348456
0.000384302
0.000360853
0.000224693
0.000144507
0.000143974
0.000126433
0.000242429
0.000440467
0.000618953
0.000690102
0.000625645
0.000330381
0.000165381
0.000117839
0.000110097
0.000116469
0.000150463
0.000197822
0.000140354
0.000129334
0.000141809
0.000142758
0.000141865
0.000145391
0.00015404
0.000170481
0.000199959
0.000252535
0.000303534
0.000323642
0.000312966
0.000271579
0.000174588
0.000110734
9.94276e-05
0.000108023
0.000247405
0.000427214
0.000596896
0.00064234
0.000568333
0.000258578
0.000106526
8.43299e-05
0.000100721
0.000120347
0.000164941
0.000202174
0.000176238
0.000171562
0.000170701
0.000162831
0.000151369
0.000146816
0.000146251
0.000147362
0.000155306
0.000181176
0.000247421
0.000302195
0.000296673
0.000253751
0.000147722
8.26394e-05
7.02247e-05
0.000100845
0.000208836
0.000483906
0.000574344
0.000580401
0.000490536
0.000212925
8.34615e-05
8.48754e-05
0.000123427
0.000156282
0.000198315
0.000236749
0.000207753
0.000203003
0.000202582
0.000204495
0.000192266
0.000178627
0.000165681
0.000154631
0.000150574
0.000150437
0.000193566
0.000261457
0.000285171
0.000243866
0.000145668
8.0821e-05
6.81755e-05
0.000112157
0.000212657
0.000457298
0.000520418
0.000503205
0.000374236
0.000186865
9.80743e-05
0.000127382
0.000177821
0.000257514
0.000406352
0.000548562
0.000240167
0.000241832
0.000233726
0.000234043
0.000225148
0.000215802
0.000207215
0.000199816
0.000186358
0.000166713
0.000180056
0.000225082
0.000254251
0.000225249
0.000138502
8.50108e-05
8.33138e-05
0.000110544
0.000216094
0.000397134
0.000417609
0.000392232
0.000290938
0.0002142
0.00019083
0.000287016
0.000487981
0.000687519
0.000655726
0.000661468
0.000416223
0.000644231
0.00058597
0.000478195
0.000378747
0.000336374
0.000318342
0.000305764
0.000277671
0.000247803
0.000211349
0.0002273
0.000227863
0.00019221
0.000132983
9.86603e-05
7.95854e-05
0.000101801
0.000190353
0.000291493
0.00028827
0.000290451
0.000315178
0.000403637
0.00061211
0.000731049
0.000520889
0.000411446
0.000335551
0.000338689
0.000769688
0.000745025
0.000839625
0.000841243
0.000819609
0.000756857
0.000714713
0.000703976
0.000693993
0.000589775
0.00038688
0.000243036
0.000209415
0.000182883
0.000137574
9.9976e-05
8.09383e-05
0.000102829
0.000169006
0.000227843
0.000252487
0.000336227
0.000618375
0.000918966
0.000621679
0.00036603
0.000288491
0.000261174
0.000245062
0.000208786
0.000439617
0.000407825
0.000422488
0.000434677
0.000438097
0.000444533
0.00045191
0.000476741
0.000535708
0.000697695
0.000725107
0.000332446
0.000203905
0.000185091
0.000148338
0.000121021
0.00010919
0.000112106
0.000165234
0.000198325
0.000247288
0.000521864
0.000727267
0.000518528
0.000343072
0.000281848
0.00026572
0.000255464
0.000217008
0.000153535
0.000284776
0.000322867
0.000347397
0.000363849
0.000362797
0.000312873
0.000295931
0.000298089
0.000315134
0.000370859
0.000540409
0.000419776
0.000192474
0.000180153
0.000150639
0.00013496
0.000133387
0.00014035
0.00014868
0.000163269
0.00021835
0.000435881
0.000395658
0.000335906
0.000290919
0.000280147
0.000271349
0.000260332
0.000188945
0.000112361
0.000229783
0.000305428
0.000340228
0.000359627
0.000353379
0.000298349
0.000265187
0.000250802
0.000254002
0.000279085
0.000349647
0.000413207
0.00017867
0.000156187
0.000152349
0.000142409
0.000144985
0.000152663
0.000156152
0.000142624
0.000153829
0.000251277
0.00027837
0.00028574
0.000279707
0.000278799
0.000273079
0.00025438
0.000164311
9.06172e-05
0.00017203
0.000265446
0.000314843
0.000331556
0.000309718
0.000283833
0.000246579
0.00022179
0.000222885
0.00025026
0.00029737
0.000330942
0.000147964
0.000133832
0.000154846
0.000154576
0.000160382
0.00016672
0.000167057
0.000150531
0.000122431
0.000198493
0.000242388
0.000244066
0.000268207
0.000276972
0.000274909
0.000235206
0.000150245
8.22346e-05
0.000127529
0.000211668
0.000257302
0.000281213
0.00029017
0.000273448
0.000236951
0.000206646
0.000209996
0.000240975
0.000327419
0.000303107
0.000115037
0.000126724
0.000155884
0.000171443
0.00018376
0.000193844
0.00019539
0.000189294
0.000178547
0.000189352
0.000208919
0.000214467
0.000239114
0.000267497
0.000271424
0.00021748
0.000150502
8.73951e-05
0.000103651
0.000173947
0.000230982
0.00026306
0.000279813
0.000270178
0.000237797
0.00020853
0.000216531
0.000241857
0.000316394
0.000298854
0.000119644
0.000148004
0.000172905
0.00019333
0.000213043
0.000234543
0.000239484
0.000234263
0.000233654
0.000227221
0.000199852
0.0002018
0.000219501
0.000248137
0.000260351
0.000217184
0.000161697
0.000102245
9.39033e-05
0.000146952
0.000206727
0.000247021
0.000272346
0.000271431
0.000249145
0.000230301
0.000236297
0.000275451
0.000255815
0.000203107
0.000163646
0.00018208
0.000199285
0.000218231
0.000241143
0.000273121
0.000289054
0.000279284
0.000269374
0.000267281
0.000249043
0.000206294
0.000210001
0.000232819
0.000249761
0.000228908
0.000176691
0.000120095
0.000103195
0.000134955
0.000182969
0.000228582
0.000261481
0.000275972
0.000266203
0.000253234
0.00024193
0.000263481
0.000227797
0.000187062
0.000200282
0.000208013
0.000218514
0.000221071
0.000217618
0.000248652
0.000283301
0.000292033
0.000288087
0.000278319
0.000270977
0.000253511
0.000220328
0.000222308
0.000236787
0.000234293
0.000186349
0.000135575
0.000135057
0.000141907
0.000163737
0.000201784
0.000241234
0.000273026
0.000273963
0.000254569
0.000251575
0.000203694
0.000208401
0.000217479
0.000218334
0.000218518
0.000203122
0.000177944
0.000218391
0.000292791
0.000282467
0.000238895
0.000266465
0.000271862
0.000264352
0.000257351
0.000245992
0.000223649
0.000228251
0.000235264
0.000195874
0.000152796
0.000151449
0.000163355
0.000160211
0.000171219
0.000206825
0.000249374
0.000266501
0.000251713
0.000209958
0.000208065
0.000221816
0.000223739
0.000219276
0.000197097
0.000156036
0.000173292
0.000288655
0.000335303
0.000258874
0.000216323
0.000191047
0.000232242
0.000244879
0.000242428
0.000238169
0.000232046
0.000229243
0.000239243
0.000200338
0.000182533
0.0001643
0.000178998
0.000172607
0.000164837
0.00017646
0.000232473
0.000257008
0.000225986
0.000195699
0.000221608
0.000224474
0.00022283
0.00020336
0.000154631
0.000141753
0.000197843
0.00028624
0.000291251
0.000239308
0.000201241
0.000155169
0.00017133
0.000209448
0.000222149
0.000222176
0.000221607
0.000221456
0.000229529
0.000218981
0.000200242
0.000170625
0.000239286
0.000184066
0.000167106
0.000172017
0.000234046
0.00023407
0.000196697
0.000214048
0.000220455
0.000221936
0.000209949
0.000184375
0.000145165
0.000144491
0.000211596
0.000256476
0.000237018
0.000224041
0.000203457
0.000158567
0.000155103
0.000186226
0.000204527
0.000207718
0.000205772
0.000205565
0.000206621
0.000211637
0.000205434
0.00020587
0.000446766
0.000207638
0.000162645
0.000172083
0.000227022
0.000199997
0.000197786
0.000208185
0.000215826
0.000220359
0.000215572
0.000196335
0.000209965
0.000273185
0.000228923
0.000229109
0.00022376
0.000222816
0.000207559
0.000212973
0.000289921
0.000217623
0.000208992
0.000200355
0.000191575
0.000186984
0.000186222
0.000192289
0.000202942
0.000246071
0.000398438
0.000409483
0.000181416
0.000163255
0.000194583
0.0001711
0.000180733
0.000197051
0.000218965
0.000236134
0.000289043
0.00031336
0.000704892
0.00108577
0.000689425
0.000378741
0.000296869
0.000292074
0.000405459
0.000738707
0.00177392
0.000852903
0.000233475
0.000199809
0.000180361
0.000168868
0.000166304
0.000172573
0.000193474
0.000179678
0.000253085
0.000338692
0.000374459
0.000146493
0.000150633
0.000144693
0.000166691
0.000193268
0.000229571
0.000279608
0.000734099
0.00140193
0.00196509
0.00197815
0.00197103
0.00170311
0.0014713
0.00167656
0.00233048
0.0028263
0.00158929
0.00106528
0.000264221
0.000192369
0.000167279
0.000150144
0.000146074
0.000151785
0.000178838
0.000112449
0.000197141
0.000237265
0.000266641
0.000168685
0.000119349
0.000137743
0.000160201
0.000190991
0.000230425
0.000855937
0.00167652
0.00149919
0.00158053
0.00136742
0.00138567
0.00187765
0.00217368
0.00213023
0.00175531
0.00116961
0.000726456
0.000483951
0.000301497
0.000157722
0.000145809
0.000130101
0.00012575
0.000130354
0.000159705
0.000105825
0.000150387
0.00020352
0.000216834
0.000151693
0.000119889
0.000138588
0.000154318
0.000180957
0.000270808
0.0013418
0.00137098
0.00115033
0.00108151
0.000933368
0.00082808
0.000855984
0.000927436
0.00084826
0.000746057
0.000648997
0.000506538
0.000299025
0.000184242
0.000110142
0.000114626
0.000108715
0.000107284
0.000112427
0.000142569
0.000130363
0.00013417
0.000157745
0.000203814
0.000170904
0.000133046
0.000136807
0.000143823
0.000150806
0.000418763
0.00131619
0.00141525
0.00120154
0.001123
0.00092713
0.000761967
0.000669975
0.000624296
0.000585492
0.000544009
0.000458409
0.000292333
0.000199476
0.000109055
7.25012e-05
8.52837e-05
8.86258e-05
9.15355e-05
9.8624e-05
0.000128613
0.000143267
0.000140716
0.00014341
0.000170971
0.000245597
0.000153506
0.000131769
0.00013032
0.000122184
0.000506611
0.00152214
0.00156774
0.00138674
0.00115667
0.000896492
0.00071439
0.000592642
0.000508928
0.00038922
0.000335384
0.000268127
0.000198065
0.000124678
8.20215e-05
5.66574e-05
6.56972e-05
7.30229e-05
7.86728e-05
8.65649e-05
0.000115873
0.000150706
0.000137996
0.000138018
0.000152887
0.000212619
0.000244918
0.000147269
0.000124179
0.000109371
0.000812155
0.00191839
0.00163039
0.00150402
0.00115121
0.00084876
0.000646313
0.000500947
0.000365928
0.000306133
0.000240672
0.000184015
0.000136183
8.88629e-05
6.46094e-05
5.1158e-05
5.62915e-05
6.26879e-05
6.8687e-05
7.59794e-05
0.000104087
0.000154241
0.000125255
0.000124789
0.000137557
0.000153698
0.000233899
0.000298681
0.000209179
0.000167916
0.00079046
0.0020006
0.001766
0.00154025
0.00113095
0.000798765
0.000533464
0.000385597
0.000300395
0.00023027
0.000174891
0.000129972
0.000103984
9.60385e-05
5.59557e-05
4.69219e-05
5.13355e-05
5.62017e-05
6.13414e-05
6.79073e-05
9.65026e-05
0.000201134
0.000117294
0.000113889
0.000122318
0.000138568
0.000158372
0.000251284
0.000322437
0.000521423
0.000958241
0.00183108
0.00187338
0.00155172
0.0011305
0.000772086
0.000467406
0.00032041
0.000221164
0.000161379
0.000122028
9.25355e-05
7.8702e-05
0.000100436
7.28222e-05
4.66314e-05
4.95313e-05
5.24983e-05
5.64758e-05
6.32932e-05
9.4864e-05
0.000253179
0.000116953
0.000107255
0.000111981
0.000127184
0.000142898
0.000170614
0.000330729
0.000526498
0.00113435
0.00182252
0.00190022
0.00155757
0.00110387
0.000718603
0.000401791
0.000248287
0.000156196
0.000111585
9.03978e-05
7.44993e-05
6.75848e-05
6.85697e-05
8.46909e-05
5.53556e-05
5.05703e-05
5.03285e-05
5.31044e-05
5.94362e-05
9.39889e-05
0.000206122
0.000108768
9.91812e-05
0.000102114
0.00011583
0.00015684
0.000292009
0.000445969
0.000705059
0.00126745
0.00181871
0.00187975
0.00153813
0.00105995
0.000606044
0.000332059
0.00018335
0.000109388
8.7382e-05
7.91414e-05
7.16461e-05
6.73441e-05
6.1693e-05
8.24273e-05
6.50728e-05
5.28932e-05
4.9453e-05
5.00452e-05
5.41465e-05
9.20565e-05
0.000191949
9.60547e-05
8.8715e-05
9.15305e-05
0.000119379
0.000406347
0.00081029
0.000616356
0.00082278
0.00144283
0.00179304
0.00183727
0.00149847
0.000982737
0.000492985
0.000264091
0.000137546
9.79934e-05
9.31711e-05
8.94962e-05
8.22583e-05
8.074e-05
8.05854e-05
8.52595e-05
8.50237e-05
8.43978e-05
6.75967e-05
5.00766e-05
5.27212e-05
0.000110602
0.000204567
8.89488e-05
7.60413e-05
7.97853e-05
0.000277336
0.000670393
0.000743463
0.00095433
0.00106647
0.00145639
0.00173441
0.00177239
0.00139847
0.000791807
0.000402925
0.000194923
0.000116229
0.000100577
9.94453e-05
9.78193e-05
9.31874e-05
0.000102653
0.000156802
0.000158896
0.000320069
0.000496841
0.000359758
9.37781e-05
8.2768e-05
0.00021753
0.000208926
0.000119862
6.70096e-05
0.000136941
0.000610155
0.000560784
0.000809499
0.00112416
0.00117413
0.0014094
0.00164115
0.00169714
0.00132592
0.000683316
0.000297987
0.000156231
0.000112032
0.000101594
9.81004e-05
9.8262e-05
0.000104131
0.00013466
0.0002299
0.000314955
0.000393822
0.000427225
0.00056983
0.00044933
0.000333976
0.000286316
0.000276018
0.000423272
0.00015028
0.000532166
0.00025575
0.000573932
0.000911333
0.00129347
0.00130942
0.00137343
0.00157868
0.00164423
0.00122428
0.000551472
0.000252014
0.000147213
0.000114903
0.000104964
0.000100724
9.9594e-05
0.000109026
0.000138584
0.000167446
0.000214933
0.000189128
0.000179182
0.000212053
0.000420201
0.00031075
0.000311418
0.000653452
0.000555731
0.000580625
0.000308647
0.000164146
0.000652532
0.000979561
0.00138131
0.00146024
0.00141303
0.00153677
0.00155836
0.0010866
0.00049446
0.000244343
0.000149948
0.000120191
0.000112435
0.000107796
0.00010622
0.000114558
0.000124642
0.000129906
0.000136414
0.000145393
0.000155325
0.000157604
0.000152227
0.000159563
0.00030438
0.000909279
0.000266386
0.000260865
0.000170109
0.000155039
0.000518958
0.00119034
0.00163449
0.00166206
0.0015324
0.00156424
0.0015069
0.00105081
0.000500905
0.000259301
0.000161452
0.000139047
0.000129063
0.000117737
0.000114108
0.000112963
0.000110163
0.000110504
0.000114413
0.000125433
0.000137258
0.000139921
0.000126123
0.000150849
0.000299098
0.000462291
0.000188057
0.000170271
0.000149974
0.000138327
0.000195612
0.000970279
0.00202422
0.00211258
0.00176995
0.00165766
0.00152385
0.00108853
0.000639075
0.00030096
0.000175584
0.000144102
0.000144809
0.00013773
0.000120965
0.000108404
0.00010411
0.000101902
0.000102023
0.000111097
0.000120962
0.000124612
0.000127047
0.000206921
0.00029292
0.000250895
0.000155506
0.00014864
0.000113255
0.000109064
0.000115098
0.000286546
0.00170789
0.00261839
0.00208973
0.00186148
0.00158726
0.00116406
0.000761317
0.000420271
0.000196701
0.000132313
0.000125895
0.000155989
0.000137074
0.000102757
9.33671e-05
9.36243e-05
9.35002e-05
9.92636e-05
0.000109134
0.000112131
0.000133718
0.000341396
0.000453695
0.000174261
0.000127487
0.000119931
0.000100251
8.51535e-05
8.7352e-05
0.0001407
0.000642917
0.00264589
0.00249236
0.0021017
0.00171723
0.00128731
0.000892654
0.000543864
0.000318283
0.000189596
0.000125187
0.000107784
0.000137405
0.000128888
9.26693e-05
8.44081e-05
7.82799e-05
8.3454e-05
9.20774e-05
9.24562e-05
0.000110965
0.000373872
0.000786274
0.000141281
0.000116547
0.000101059
9.14332e-05
7.3148e-05
6.8276e-05
9.84378e-05
0.000270825
0.00194232
0.00261191
0.00216134
0.00183562
0.00144415
0.00106004
0.000712735
0.000446693
0.000275733
0.000185163
0.000122311
9.78832e-05
0.000130492
0.000133545
7.95456e-05
5.74321e-05
6.34126e-05
6.9186e-05
6.67609e-05
7.61192e-05
0.000266424
0.000814719
0.000108825
9.44689e-05
8.50896e-05
7.93397e-05
6.06041e-05
5.90036e-05
9.37852e-05
0.000203381
0.00129625
0.00252862
0.00212231
0.00185155
0.00154648
0.00118629
0.000839183
0.000575729
0.000388265
0.00026543
0.000174121
0.000110283
0.00011931
0.000124582
9.39595e-05
4.72235e-05
4.32237e-05
5.01657e-05
4.71727e-05
5.71808e-05
0.000213434
0.000749996
4.42381e-05
6.56958e-05
7.38124e-05
6.61026e-05
4.89826e-05
5.83451e-05
0.000126823
0.000319407
0.00116881
0.00223221
0.00198601
0.00182266
0.00154505
0.00120147
0.000912649
0.000697376
0.000502591
0.000362047
0.000252877
0.000153492
9.04192e-05
0.000143762
0.000178488
6.36454e-05
3.25365e-05
3.32002e-05
3.204e-05
4.65968e-05
0.000166693
0.000665062
1.82575e-05
3.68656e-05
5.66981e-05
5.57918e-05
4.42228e-05
7.10616e-05
0.000152717
0.000397609
0.00112634
0.00170825
0.00166908
0.00167545
0.00151273
0.00120938
0.000992763
0.0008052
0.000612436
0.000450852
0.000333264
0.000223261
0.000122606
0.000157198
0.000196655
0.00012154
3.1502e-05
2.49163e-05
2.45545e-05
3.91646e-05
0.000132318
0.000518533
1.46523e-05
1.7074e-05
3.58597e-05
4.96169e-05
4.93381e-05
0.000100568
0.000151427
0.000409584
0.00109106
0.00154443
0.00160585
0.00157961
0.00146813
0.00124233
0.00105788
0.000876189
0.000701386
0.000534921
0.000416769
0.000309822
0.000183522
0.000131603
0.000213961
0.00026533
4.4244e-05
3.43107e-05
2.53028e-05
3.64654e-05
0.000107359
0.000337865
1.41576e-05
1.25421e-05
2.10276e-05
3.75147e-05
5.4033e-05
0.000237675
0.000150144
0.000305641
0.000902266
0.00141571
0.00159301
0.00158625
0.00148307
0.00125869
0.00107129
0.000896653
0.000750386
0.000601514
0.000491858
0.000372167
0.000261524
0.000151075
0.000200109
0.000250915
7.60031e-05
0.000129206
7.05444e-05
4.06557e-05
9.33207e-05
0.000165692
1.38297e-05
1.37901e-05
1.42509e-05
2.18638e-05
3.68527e-05
0.000230143
0.000364644
0.000246223
0.000529346
0.000835455
0.0011479
0.00135435
0.00132366
0.00116677
0.00100749
0.000868564
0.000736544
0.000608336
0.000511019
0.000397511
0.00029211
0.000183347
0.000169414
0.00019065
0.000233258
0.000666198
0.000230483
6.50779e-05
9.06806e-05
0.000100977
1.61799e-05
1.8052e-05
1.65576e-05
1.84236e-05
3.66078e-05
7.62036e-05
0.000475484
0.00065277
0.000455436
0.000383824
0.000395984
0.000552392
0.000674061
0.000732875
0.000740991
0.000719011
0.000656998
0.000567126
0.000484555
0.000381317
0.000272759
0.000211173
0.000198117
0.000287495
0.00215322
0.00263968
0.000489471
0.000191063
0.00011682
0.000147438
2.08971e-05
2.85219e-05
3.35754e-05
4.30533e-05
0.000113293
0.00015673
0.000171399
0.000255438
0.000353187
0.000547119
0.000428585
0.000364269
0.000357791
0.000448434
0.000502546
0.000509057
0.000493166
0.000457282
0.000392689
0.000309251
0.000277789
0.000311874
0.000714368
0.00342556
0.00659184
0.00205931
0.00101218
0.000816488
0.000471889
0.000364377
4.16115e-05
6.84757e-05
8.88299e-05
0.000190142
0.000644534
0.00239415
0.00266017
0.00273751
0.00216017
0.00214845
0.00164516
0.00091544
0.000561446
0.000458045
0.000443357
0.000439727
0.000433291
0.000420398
0.000397162
0.000414442
0.00068539
0.00175313
0.0049368
0.00622907
0.00315689
0.00103178
0.000511509
0.00098015
0.00157756
0.00157809
0.000251049
0.000224692
0.000316313
0.00108909
0.00224448
0.00251168
0.00241881
0.00176295
0.00189162
0.00260648
0.00323282
0.0030636
0.00216919
0.00124019
0.00094735
0.000937882
0.000955842
0.00101002
0.00121015
0.00208905
0.00409022
0.00525438
0.00461874
0.00194759
0.00126454
0.000966069
0.000313349
0.000118867
0.000330782
0.00277487
0.000710195
0.000923679
0.00137997
0.00198329
0.000797153
0.000630236
0.000679878
0.000753294
0.000914931
0.00110974
0.00138958
0.00208322
0.00279922
0.00301958
0.00292585
0.00300572
0.00313755
0.0034145
0.00401447
0.00454116
0.00415991
0.00284406
0.00152233
0.00130018
0.0011657
0.000918296
0.000287948
8.7617e-05
0.000125197
0.00155658
0.000931812
0.000692729
0.00128258
0.000467088
0.000420955
0.000515749
0.000601036
0.000721399
0.000894673
0.00105739
0.00120163
0.00135369
0.00169074
0.0023347
0.00272222
0.00282096
0.00288642
0.00298249
0.00296248
0.00238955
0.00156206
0.00139942
0.00132211
0.00124212
0.00107302
0.000828235
0.000253911
7.92409e-05
0.000109734
0.0012813
0.000742248
0.000205255
0.00023983
0.000245201
0.000348843
0.000450148
0.000560658
0.000717925
0.000911995
0.00112195
0.00126839
0.0013801
0.00142371
0.00146207
0.00150786
0.00151268
0.00150125
0.00147892
0.00144644
0.00139847
0.00137248
0.00135028
0.00128162
0.00116825
0.00099585
0.000760782
0.000212346
7.00229e-05
0.000105189
0.00117013
0.000830193
0.000146538
0.000155838
0.000227152
0.000294479
0.000405334
0.000541419
0.000728863
0.000976247
0.00116646
0.00128741
0.0013907
0.00142183
0.00141973
0.00141464
0.00140832
0.00140386
0.00139347
0.00138364
0.00137391
0.00135155
0.00130804
0.00122695
0.00108976
0.000912737
0.000691665
0.000169498
5.74193e-05
8.92054e-05
0.00111538
0.000929416
0.000150499
0.000141804
0.000184911
0.000264545
0.000375123
0.000531613
0.000738661
0.0010053
0.00119981
0.00130478
0.00139357
0.00141821
0.0014212
0.00141795
0.00141163
0.00140664
0.00139275
0.00137351
0.00134727
0.0013139
0.0012573
0.00115706
0.00102875
0.000855657
0.000632198
0.000138444
5.3296e-05
8.14552e-05
0.000853134
0.000975543
0.000119969
0.000110117
0.000170243
0.000247415
0.0003603
0.000526573
0.000754399
0.00101796
0.00121241
0.00130499
0.00137357
0.00140164
0.00140608
0.00140304
0.00139905
0.00139107
0.00137319
0.00134941
0.00131118
0.00126184
0.00119721
0.00110719
0.000981861
0.000801808
0.000585355
0.000114842
4.78361e-05
7.83325e-05
0.000692707
0.000934527
8.72991e-05
9.64957e-05
0.000162357
0.000231531
0.000341052
0.000512189
0.000759335
0.00102633
0.00121801
0.00130544
0.00135734
0.00138025
0.00138444
0.00138378
0.00137904
0.00136673
0.00134391
0.00131032
0.00126744
0.00121482
0.00115759
0.001071
0.000936706
0.000763698
0.000559788
9.47741e-05
4.05509e-05
6.80678e-05
0.000592136
0.000834954
7.09646e-05
8.80175e-05
0.00015096
0.000210508
0.000313667
0.000480075
0.000756428
0.00102969
0.00121406
0.00129915
0.00133833
0.00135699
0.00136338
0.00136098
0.00134873
0.00133531
0.00131051
0.00127353
0.00122897
0.00117248
0.00111212
0.00102015
0.000902562
0.000741607
0.000548806
8.73809e-05
3.68675e-05
6.08343e-05
0.00033545
0.000670194
5.7453e-05
7.71017e-05
0.000135114
0.000188985
0.000285159
0.000445227
0.000733206
0.00103284
0.001205
0.00128915
0.00131613
0.00132935
0.00133693
0.00133448
0.00131584
0.00129899
0.0012699
0.00122897
0.00118241
0.00112292
0.00106646
0.000989015
0.00088455
0.000729757
0.000555328
8.67696e-05
2.6786e-05
5.41814e-05
0.000172955
0.000470389
5.3977e-05
6.73754e-05
0.000109119
0.000169803
0.000271731
0.000434966
0.000722935
0.00104057
0.00120228
0.00127635
0.00129453
0.00129852
0.00129993
0.00129827
0.00127494
0.00125291
0.00122408
0.0011823
0.00113742
0.00108406
0.00103103
0.000958325
0.000864534
0.000725042
0.000588776
0.000111931
2.13105e-05
4.64024e-05
0.000143714
0.000318697
5.85396e-05
5.89013e-05
7.97572e-05
0.000156381
0.000268168
0.000434525
0.000722231
0.00104761
0.00120159
0.00125989
0.00127067
0.00126875
0.00125788
0.0012557
0.00123416
0.00120378
0.00117591
0.00113943
0.00109448
0.00104499
0.000992471
0.000929193
0.000853711
0.000728442
0.00059175
0.00014535
2.51397e-05
7.7561e-05
0.000188402
0.000250438
6.91614e-05
5.0805e-05
6.37687e-05
0.000138672
0.000269543
0.000446147
0.000734272
0.00104992
0.00119856
0.00124059
0.00124266
0.00123939
0.00121548
0.00120641
0.00119128
0.00115267
0.00112607
0.0010944
0.0010503
0.00100842
0.000958365
0.000905952
0.000841873
0.000723199
0.00060266
0.000221028
9.22482e-05
0.000127277
0.000342195
0.000251583
7.50111e-05
4.65896e-05
5.87846e-05
0.0001261
0.000277273
0.000476474
0.000769329
0.00104871
0.00118444
0.00121514
0.00120817
0.00120303
0.00117432
0.00115578
0.00114682
0.00110622
0.00107992
0.00105094
0.0010142
0.000975494
0.000927972
0.000880458
0.000825649
0.000716836
0.000585843
0.000243164
0.000220429
0.000174524
0.000448147
0.000278317
7.76251e-05
3.7541e-05
5.78079e-05
0.000123172
0.000291694
0.000520807
0.000814396
0.00104127
0.00115821
0.00118403
0.00117071
0.00115043
0.0011241
0.00109881
0.00109224
0.00105482
0.00102748
0.00100278
0.000973023
0.000935999
0.000895813
0.000859243
0.000808863
0.000719315
0.000585981
0.000205906
0.000113155
0.000207859
0.000609386
0.000280963
6.25988e-05
2.32229e-05
6.46394e-05
0.000135082
0.000311096
0.000560608
0.000830841
0.00102293
0.0011219
0.00114938
0.00113163
0.00108693
0.00106247
0.00104187
0.00103225
0.00099989
0.000974121
0.000954778
0.000931235
0.00089958
0.000870462
0.000837199
0.00079519
0.00071914
0.000592818
0.000205841
4.86283e-05
8.30113e-05
0.000826042
0.00023533
5.15811e-05
1.77669e-05
8.17912e-05
0.000158795
0.000326712
0.000574724
0.000832785
0.000995004
0.0010806
0.00111363
0.00108662
0.001022
0.000992163
0.000986349
0.000970168
0.000944105
0.000920947
0.000905192
0.000887191
0.000863071
0.000840072
0.000813632
0.000783164
0.000717598
0.000596095
0.000196679
4.32576e-05
4.58572e-05
0.000791488
0.000198097
4.67879e-05
1.83833e-05
0.000101127
0.000169756
0.000330654
0.000575844
0.000825573
0.000969446
0.0010412
0.00106923
0.00103525
0.000959526
0.000921528
0.000923785
0.000911042
0.000885368
0.000866389
0.000853291
0.000842572
0.000826341
0.000806746
0.000791587
0.000765915
0.000710137
0.000600267
0.00019125
4.68831e-05
3.92907e-05
0.000546608
0.000192058
4.8536e-05
3.18736e-05
0.000105807
0.000170284
0.000325014
0.000556572
0.000794429
0.000941471
0.00100472
0.0010202
0.000977965
0.00090406
0.000864724
0.000855365
0.00085339
0.000829515
0.000812885
0.000802739
0.000794297
0.000785306
0.000772023
0.000765723
0.000749264
0.000705052
0.000608593
0.000200043
4.22963e-05
3.54709e-05
0.000412222
0.00018743
5.3526e-05
5.94093e-05
9.05867e-05
0.000158591
0.000301734
0.000498712
0.000719951
0.000886961
0.000957116
0.000969408
0.000921521
0.00085276
0.000818324
0.000800344
0.000796116
0.000777663
0.000760891
0.00075027
0.000747404
0.000738997
0.000732663
0.000739941
0.000730818
0.000695834
0.00062179
0.000214812
3.45409e-05
3.23553e-05
0.000201797
0.000179571
7.37533e-05
8.7827e-05
7.74147e-05
0.000152122
0.000269736
0.000420801
0.000613043
0.000794478
0.000882883
0.000905391
0.000873364
0.000811783
0.000777196
0.000755389
0.000741428
0.000724704
0.000708253
0.00069712
0.00069564
0.000690705
0.000692005
0.000705563
0.00070629
0.000684981
0.00065523
0.000234158
1.92917e-05
2.62336e-05
8.92791e-05
0.000176532
8.83078e-05
6.98229e-05
7.51459e-05
0.00015394
0.000246846
0.000357716
0.000511305
0.000682172
0.000798867
0.000839644
0.000832299
0.000785044
0.000739955
0.000711779
0.000693937
0.000674318
0.000655755
0.000643532
0.000639096
0.00063922
0.000644015
0.000662417