/*--------------------------------*- C++ -*----------------------------------*\
| =========                 |                                                 |
| \\      /  F ield         | OpenFOAM: The Open Source CFD Toolbox           |
|  \\    /   O peration     | Version:  v1606+                                |
|   \\  /    A nd           | Web:      www.OpenFOAM.com                      |
|    \\/     M anipulation  |                                                 |
\*---------------------------------------------------------------------------*/
FoamFile
{
    version     2.0;
    format      ascii;
    class       volScalarField;
    location    "1.06";
    object      p_rgh;
}
// * * * * * * * * * * * * * * * * * * * * * * * * * * * * * * * * * * * * * //

dimensions      [1 -1 -2 0 0 0 0];

internalField   nonuniform List<scalar> 
6000
(
108134
108136
108136
108139
108146
108153
108158
108160
108157
108153
108147
108143
108140
108138
108139
108140
108144
108148
108152
108156
108160
108163
108163
108161
108157
108154
108157
108160
108163
108163
108119
108117
108112
108108
108111
108119
108124
108121
108112
108103
108097
108093
108091
108090
108091
108095
108099
108104
108109
108112
108117
108123
108127
108126
108122
108122
108128
108137
108145
108148
108141
108137
108125
108114
108108
108119
108129
108114
108089
108076
108071
108067
108065
108064
108066
108070
108077
108084
108091
108093
108097
108109
108122
108122
108120
108125
108137
108154
108168
108168
108174
108167
108143
108121
108109
108108
108115
108083
108046
108037
108034
108032
108031
108031
108034
108038
108044
108051
108057
108058
108060
108073
108092
108105
108118
108132
108147
108179
108198
108199
108222
108215
108187
108147
108116
108096
108079
108043
108027
108025
108025
108025
108026
108028
108030
108033
108038
108043
108045
108047
108050
108055
108070
108098
108127
108152
108186
108229
108250
108253
108267
108264
108243
108201
108154
108098
108053
108040
108037
108036
108036
108037
108039
108042
108047
108055
108060
108061
108059
108060
108062
108065
108071
108105
108153
108202
108250
108281
108294
108298
108296
108295
108289
108258
108225
108132
108055
108050
108047
108046
108047
108049
108054
108068
108088
108106
108114
108108
108088
108073
108073
108075
108080
108130
108208
108270
108304
108314
108318
108321
108311
108311
108310
108296
108288
108214
108077
108058
108057
108057
108058
108068
108093
108132
108169
108191
108198
108187
108151
108106
108086
108083
108103
108186
108265
108311
108327
108330
108331
108332
108313
108318
108320
108315
108316
108308
108146
108086
108088
108088
108092
108122
108182
108239
108271
108282
108282
108270
108238
108177
108122
108108
108154
108262
108309
108320
108335
108339
108337
108334
108307
108317
108325
108327
108332
108344
108252
108182
108184
108183
108189
108237
108305
108344
108355
108351
108342
108334
108322
108275
108199
108169
108232
108322
108339
108328
108338
108344
108339
108331
108237
108311
108322
108322
108317
108310
108308
108294
108301
108301
108301
108344
108368
108372
108376
108375
108369
108362
108362
108344
108293
108260
108307
108340
108341
108333
108342
108345
108339
108285
108031
108208
108324
108306
108256
108136
108201
108230
108244
108248
108236
108228
108246
108324
108355
108360
108346
108324
108317
108331
108336
108322
108338
108323
108308
108316
108339
108350
108300
108094
107967
108066
108229
108170
107986
107829
107929
107990
108016
108045
107994
107942
107954
108091
108292
108336
108297
108142
108070
108120
108186
108229
108261
108200
108132
108246
108322
108364
108220
108003
108038
108110
108143
107993
107746
107649
107669
107683
107691
107709
107690
107693
107777
107947
108156
108200
107978
107825
107758
107766
107827
107907
107946
107837
107763
107908
108176
108335
108178
108027
108151
108222
108207
107983
107707
107626
107615
107593
107583
107586
107587
107638
107793
108041
108235
108075
107824
107732
107683
107642
107626
107630
107634
107604
107598
107661
107883
108121
108193
108125
108250
108294
108248
107987
107723
107650
107640
107599
107586
107586
107587
107648
107851
108161
108276
108066
107834
107752
107706
107657
107616
107602
107602
107602
107602
107640
107780
108055
108255
108227
108350
108379
108236
107959
107763
107700
107687
107619
107589
107589
107590
107673
107914
108221
108318
108083
107902
107827
107777
107716
107656
107620
107609
107609
107621
107687
107836
108078
108303
108309
108449
108441
108206
107964
107825
107765
107734
107649
107593
107592
107593
107709
107961
108241
108360
108161
108024
107952
107891
107819
107745
107684
107649
107652
107696
107800
107968
108185
108376
108403
108545
108476
108213
108009
107910
107852
107789
107687
107600
107596
107611
107746
107985
108235
108395
108275
108184
108120
108056
107979
107896
107820
107771
107785
107863
108007
108195
108376
108479
108488
108606
108518
108288
108129
108060
108004
107910
107771
107634
107611
107651
107789
108012
108272
108444
108430
108381
108340
108291
108220
108133
108051
108002
108036
108144
108305
108456
108538
108557
108547
108617
108575
108421
108316
108280
108243
108156
107982
107764
107674
107726
107895
108186
108443
108546
108569
108554
108541
108521
108482
108422
108361
108330
108374
108470
108566
108610
108608
108592
108574
108603
108611
108563
108526
108526
108520
108457
108299
108053
107861
107917
108168
108507
108629
108631
108636
108636
108638
108643
108643
108635
108622
108617
108639
108663
108663
108640
108613
108592
108572
108567
108614
108635
108659
108688
108713
108711
108639
108435
108213
108268
108517
108707
108699
108657
108637
108631
108632
108641
108655
108670
108682
108687
108682
108663
108636
108608
108583
108565
108547
108523
108580
108613
108646
108679
108713
108749
108778
108729
108588
108599
108688
108699
108664
108628
108597
108583
108579
108582
108590
108600
108608
108610
108605
108591
108572
108551
108533
108517
108504
108460
108507
108533
108558
108585
108615
108651
108693
108729
108719
108696
108667
108602
108574
108560
108532
108514
108505
108503
108504
108507
108510
108513
108513
108508
108497
108484
108469
108457
108446
108370
108407
108425
108443
108464
108489
108520
108553
108585
108605
108590
108555
108491
108464
108467
108449
108430
108419
108413
108409
108406
108405
108409
108416
108420
108417
108409
108398
108387
108377
108256
108285
108299
108313
108329
108350
108375
108401
108424
108446
108447
108427
108375
108347
108362
108353
108337
108324
108315
108305
108295
108288
108294
108312
108327
108332
108329
108321
108311
108301
108124
108148
108159
108169
108182
108199
108219
108242
108262
108287
108300
108295
108253
108225
108252
108250
108237
108224
108211
108195
108175
108154
108161
108196
108229
108244
108245
108239
108229
108219
107977
107998
108006
108013
108023
108037
108053
108073
108095
108125
108150
108160
108133
108103
108138
108143
108134
108122
108106
108081
108037
107970
107989
108054
108126
108155
108158
108152
108142
108133
107818
107835
107842
107847
107855
107866
107879
107895
107919
107959
107997
108023
108014
107989
108022
108034
108030
108020
108001
107963
107835
107763
107807
107855
108014
108064
108069
108060
108049
108041
107647
107661
107666
107671
107680
107690
107698
107707
107730
107780
107836
107878
107892
107882
107906
107925
107928
107920
107894
107816
107688
107725
107781
107768
107883
107968
107975
107963
107950
107942
107464
107475
107479
107487
107499
107512
107517
107511
107516
107571
107669
107726
107764
107775
107795
107819
107829
107819
107767
107596
107639
107789
107829
107782
107773
107860
107870
107857
107843
107835
107268
107274
107280
107294
107314
107337
107349
107333
107307
107282
107482
107576
107634
107663
107688
107717
107732
107714
107580
107353
107671
107816
107782
107736
107694
107745
107754
107742
107729
107723
107052
107054
107064
107084
107120
107165
107203
107208
107165
107057
107253
107433
107505
107551
107587
107622
107640
107595
107315
107236
107635
107709
107675
107635
107619
107631
107632
107620
107607
107604
106817
106815
106819
106842
106904
106981
107059
107110
107087
106952
106968
107265
107379
107443
107491
107535
107552
107448
107101
107148
107515
107596
107570
107535
107522
107516
107506
107491
107480
107478
106576
106559
106528
106534
106647
106769
106889
106992
107033
106943
106855
107100
107259
107339
107400
107453
107463
107295
107026
107168
107425
107486
107463
107431
107410
107394
107375
107358
107348
107346
106341
106245
106140
106093
106328
106523
106690
106833
106941
106915
106744
106916
107130
107235
107310
107373
107372
107180
106985
107287
107338
107371
107348
107316
107289
107264
107241
107221
107210
107206
106089
105821
105685
105608
105926
106251
106485
106663
106810
106855
106694
106721
107000
107134
107221
107290
107281
107121
107047
107297
107266
107257
107229
107196
107163
107133
107104
107081
107067
107058
105823
105400
105426
105402
105544
105935
106277
106505
106667
106783
106701
106627
106882
107037
107126
107195
107173
107035
107110
107187
107167
107141
107110
107074
107038
107001
106966
106937
106918
106906
105582
105110
105353
105343
105321
105626
106071
106358
106536
106679
106685
106564
106766
106941
107026
107088
107063
106935
107022
107043
107041
107022
106992
106955
106913
106868
106823
106783
106758
106745
105418
104860
105310
105303
105178
105418
105878
106219
106422
106566
106620
106566
106683
106847
106928
106981
106949
106823
106834
106893
106914
106906
106879
106839
106789
106731
106670
106617
106583
106575
105340
104716
105230
105194
104971
105289
105737
106109
106331
106466
106539
106554
106621
106755
106834
106876
106834
106693
106651
106758
106803
106803
106776
106728
106663
106585
106506
106424
106376
106396
105328
104685
105002
104864
104585
105126
105647
106024
106243
106384
106463
106510
106572
106674
106750
106777
106724
106536
106485
106645
106712
106716
106683
106621
106532
106429
106314
106176
106106
106176
105350
104665
104768
104455
104222
104831
105531
105937
106171
106310
106398
106462
106529
106612
106678
106696
106613
106272
106346
106562
106645
106646
106601
106514
106395
106249
106081
105835
105727
105912
105421
104656
104676
104277
104207
104458
105320
105860
106113
106251
106347
106422
106494
106566
106624
106634
106495
105870
106232
106516
106603
106594
106524
106404
106241
106023
105810
105561
105370
105698
105468
104709
104703
104318
104200
104213
104952
105878
106082
106205
106303
106389
106465
106533
106584
106571
106304
105755
106150
106497
106580
106550
106448
106299
106040
105688
105153
105156
104894
105641
105483
104870
104812
104494
104194
104085
104474
105481
105996
106158
106257
106357
106443
106510
106552
106505
106043
105721
106138
106496
106564
106502
106376
106164
105705
104889
103983
103921
103893
104735
105391
104983
104944
104729
104218
103986
104109
104003
105294
106067
106194
106314
106425
106496
106537
106477
105916
105694
106159
106529
106561
106459
106318
105968
105391
104218
103155
102920
103080
103579
104498
104665
104788
104615
104117
103802
103669
103109
104097
105708
106148
106242
106410
106493
106536
106473
105870
105676
106217
106595
106548
106428
106218
105791
105033
103769
102832
102676
102843
103395
103341
103679
103912
103815
103648
103409
103148
102843
103370
105124
106083
106028
106387
106504
106549
106483
105827
105701
106348
106640
106544
106409
106101
105601
104588
103293
102702
102661
102805
103420
102831
102916
102990
102979
103014
102952
102828
102762
102994
104364
105747
105778
106336
106524
106578
106517
105817
105701
106396
106652
106539
106399
105974
105257
103948
102945
102673
102659
102782
103517
102749
102753
102755
102754
102763
102759
102743
102742
102815
103578
105321
105573
106314
106556
106612
106565
105747
105714
106497
106652
106539
106345
105860
104694
103195
102807
102688
102666
102772
103604
102743
102741
102738
102734
102733
102733
102733
102738
102781
103051
104341
105577
106350
106595
106647
106655
106096
106123
106582
106651
106533
106220
105396
103634
102763
102769
102728
102699
102821
103514
102743
102741
102738
102734
102731
102731
102732
102739
102783
102951
103650
105662
106377
106640
106682
106701
106498
106485
106673
106648
106485
105912
104168
102843
102625
102727
102762
102759
102897
103249
102743
102741
102738
102734
102731
102731
102731
102741
102795
102959
103523
105681
106432
106643
106710
106699
106630
106640
106720
106654
106267
104908
103235
102630
102582
102662
102763
102803
102929
103032
102743
102741
102738
102735
102732
102731
102732
102743
102807
103009
103536
105617
106487
106694
106719
106721
106714
106736
106737
106611
105950
104252
102952
102586
102561
102598
102706
102787
102875
102869
102742
102741
102738
102735
102734
102733
102734
102748
102829
103055
103585
105708
106545
106753
106754
106756
106782
106806
106763
106489
105606
103939
102835
102567
102549
102560
102617
102699
102742
102736
102742
102740
102738
102738
102738
102738
102738
102759
102862
103116
103558
104794
106371
106798
106783
106792
106840
106844
106738
106345
105241
103631
102707
102553
102542
102543
102562
102602
102626
102640
102741
102740
102740
102742
102744
102745
102746
102778
102904
103188
103629
104296
106118
106799
106786
106836
106904
106867
106688
106230
104827
103196
102603
102545
102539
102538
102542
102555
102571
102588
102741
102740
102743
102749
102754
102753
102757
102802
102949
103249
103695
104254
105698
106773
106721
106907
106970
106908
106628
105959
104123
102791
102559
102542
102538
102537
102538
102542
102553
102567
102741
102741
102748
102760
102764
102762
102769
102826
102991
103307
103769
104328
105245
106345
106437
106980
107030
106926
106520
105197
103256
102607
102549
102541
102537
102537
102537
102539
102548
102561
102741
102743
102754
102770
102773
102769
102779
102845
103029
103368
103833
104379
104998
105841
106456
107058
107079
106851
106159
104033
102768
102571
102548
102541
102537
102537
102537
102539
102547
102560
102741
102746
102760
102777
102778
102774
102785
102858
103061
103425
103905
104461
105080
105691
106580
107093
107065
106721
104976
103134
102635
102567
102549
102541
102537
102537
102537
102539
102547
102560
102742
102749
102763
102780
102781
102776
102789
102868
103088
103483
103993
104558
105182
105843
106800
107138
106990
106101
103991
102824
102615
102568
102551
102541
102537
102536
102537
102539
102549
102561
102744
102750
102763
102779
102781
102778
102792
102875
103114
103542
104083
104673
105299
105916
106685
107115
106800
105399
103522
102725
102613
102575
102557
102544
102539
102538
102539
102544
102556
102569
102745
102750
102762
102777
102782
102780
102796
102886
103142
103602
104174
104792
105433
106010
106530
106904
106463
104911
103254
102674
102614
102588
102568
102552
102546
102545
102550
102562
102580
102591
102745
102749
102759
102773
102782
102782
102802
102903
103179
103663
104276
104922
105563
106126
106538
106732
106194
104603
103058
102645
102618
102607
102589
102572
102565
102567
102580
102604
102628
102636
102745
102747
102754
102769
102783
102787
102814
102931
103230
103747
104398
105082
105723
106265
106647
106705
106094
104327
102880
102621
102620
102625
102616
102605
102600
102606
102628
102661
102682
102685
102744
102744
102749
102766
102786
102795
102832
102971
103302
103869
104572
105292
105948
106448
106768
106739
105947
104001
102751
102609
102619
102635
102640
102640
102640
102650
102671
102699
102709
102708
102742
102742
102746
102765
102791
102808
102859
103029
103414
104045
104818
105585
106232
106657
106888
106793
105740
103655
102673
102609
102615
102637
102650
102659
102664
102671
102687
102706
102710
102709
102742
102742
102745
102767
102802
102828
102897
103113
103575
104293
105138
105942
106542
106865
106987
106820
105497
103335
102632
102609
102610
102632
102649
102661
102668
102671
102677
102685
102698
102696
102742
102742
102747
102776
102822
102859
102952
103232
103790
104600
105508
106304
106815
107029
107052
106790
105182
103087
102620
102609
102610
102622
102637
102649
102654
102655
102650
102649
102665
102670
102741
102742
102757
102803
102857
102905
103027
103386
104052
104941
105871
106603
106998
107129
107105
106682
104774
102892
102619
102617
102613
102618
102624
102630
102632
102631
102626
102625
102638
102649
102742
102749
102786
102853
102913
102968
103120
103562
104331
105276
106167
106793
107096
107188
107156
106460
104236
102769
102632
102634
102621
102619
102619
102619
102619
102618
102615
102616
102628
102640
102750
102774
102845
102932
102992
103050
103227
103736
104583
105545
106358
106884
107151
107241
107168
106074
103663
102713
102654
102648
102631
102622
102620
102618
102617
102616
102615
102616
102626
102638
102781
102836
102942
103040
103095
103150
103338
103882
104769
105710
106447
106922
107159
107295
107164
105617
103234
102694
102672
102657
102641
102632
102626
102624
102623
102621
102619
102619
102628
102638
102861
102949
103079
103178
103222
103266
103449
103989
104861
105773
106449
106833
107114
107328
107140
105206
103015
102692
102684
102665
102654
102648
102642
102640
102639
102636
102629
102626
102630
102639
103009
103115
103252
103340
103371
103398
103561
104055
104877
105638
106158
106605
107018
107338
107115
104917
102929
102701
102693
102674
102670
102670
102667
102666
102663
102653
102640
102631
102632
102639
103210
103317
103439
103511
103528
103536
103665
104078
104711
105266
105747
106313
106897
107353
107076
104715
102892
102714
102701
102689
102692
102695
102691
102689
102679
102661
102644
102633
102632
102639
103416
103521
103612
103663
103670
103662
103741
104034
104472
104927
105444
106118
106818
107370
106982
104488
102863
102728
102715
102710
102717
102718
102710
102700
102683
102662
102642
102629
102628
102636
103585
103681
103743
103770
103773
103759
103789
103958
104278
104705
105295
106068
106818
107404
106794
104151
102838
102749
102739
102738
102747
102738
102721
102703
102678
102653
102632
102619
102618
102627
103692
103770
103811
103817
103819
103812
103813
103896
104140
104581
105264
106100
106868
107462
106541
103786
102827
102785
102776
102779
102785
102759
102730
102702
102668
102638
102617
102605
102606
102617
103733
103795
103824
103823
103824
103822
103815
103841
104043
104534
105294
106225
107013
107554
106292
103537
102853
102837
102830
102836
102836
102789
102745
102703
102662
102628
102606
102594
102596
102606
103729
103764
103789
103780
103785
103786
103765
103779
103995
104544
105408
106395
107186
107625
106133
103414
102909
102907
102904
102913
102902
102837
102778
102716
102663
102626
102602
102593
102593
102599
103652
103684
103711
103718
103727
103725
103711
103744
103995
104639
105574
106560
107340
107680
106049
103354
102979
102994
103000
103011
102988
102914
102841
102756
102681
102633
102602
102592
102593
102594
103550
103608
103640
103683
103709
103709
103708
103746
104071
104810
105755
106715
107501
107734
105925
103300
103053
103089
103113
103125
103098
103027
102940
102833
102733
102659
102610
102592
102592
102592
103511
103565
103599
103677
103716
103716
103715
103811
104239
105012
105931
106867
107681
107785
105551
103241
103123
103180
103228
103250
103234
103178
103083
102960
102832
102720
102638
102598
102592
102592
103515
103546
103588
103687
103775
103758
103761
103935
104432
105201
106103
107020
107855
107661
104939
103214
103181
103250
103324
103372
103383
103352
103269
103142
102992
102835
102702
102621
102594
102591
103520
103543
103598
103749
103889
103878
103891
104095
104604
105369
106279
107179
107987
107347
104335
103218
103226
103292
103382
103462
103510
103520
103475
103374
103221
103026
102827
102676
102606
102592
103526
103549
103648
103853
104016
104035
104059
104262
104756
105528
106476
107394
108065
106862
103860
103242
103260
103308
103402
103498
103583
103640
103656
103618
103505
103305
103039
102793
102645
102600
103532
103578
103726
103964
104140
104190
104228
104426
104908
105705
106706
107657
108111
106230
103548
103279
103286
103312
103405
103502
103598
103690
103773
103815
103783
103635
103347
103004
102741
102630
103537
103635
103816
104080
104279
104341
104389
104585
105079
105914
106963
107907
107793
105543
103386
103306
103304
103312
103394
103483
103573
103681
103812
103924
103978
103924
103703
103319
102933
102716
103575
103716
103928
104214
104437
104502
104551
104746
105286
106188
107236
108081
107470
104722
103310
103315
103314
103315
103376
103450
103529
103636
103785
103949
104053
104077
103989
103684
103236
102910
103672
103827
104065
104366
104600
104673
104718
104929
105559
106562
107599
108190
106896
103936
103277
103317
103317
103318
103364
103429
103508
103608
103741
103909
104048
104098
104103
103962
103600
103239
103817
103967
104219
104537
104779
104860
104911
105183
105929
107017
108021
108232
106044
103463
103279
103319
103320
103319
103358
103427
103512
103615
103727
103847
103967
104054
104083
104054
103888
103644
103983
104130
104386
104735
105018
105097
105188
105560
106409
107485
108364
107972
105138
103299
103282
103311
103322
103319
103357
103435
103532
103641
103737
103803
103842
103884
103930
103976
103981
103959
104159
104307
104578
104976
105335
105430
105565
106039
106974
107916
108536
107640
104446
103284
103284
103304
103324
103318
103358
103448
103558
103666
103744
103764
103720
103672
103686
103768
103939
104048
104354
104502
104804
105274
105684
105785
105956
106547
107541
108280
108598
107182
103933
103287
103287
103304
103322
103319
103363
103459
103573
103677
103730
103709
103614
103499
103462
103514
103701
103883
104577
104723
105073
105618
106052
106129
106352
107060
108040
108563
108644
106464
103611
103293
103295
103314
103321
103320
103368
103466
103577
103666
103693
103654
103535
103387
103315
103321
103409
103542
104825
104994
105433
106023
106468
106537
106841
107613
108417
108754
108496
105525
103519
103339
103330
103338
103326
103320
103370
103461
103561
103637
103659
103618
103487
103327
103238
103214
103212
103226
105134
105371
105881
106480
106896
107029
107428
108139
108630
108835
108176
104784
103545
103422
103388
103367
103332
103317
103364
103440
103534
103619
103650
103607
103457
103290
103201
103164
103116
103042
105567
105834
106376
106957
107366
107639
108092
108583
108738
108884
107758
104472
103630
103504
103444
103389
103334
103312
103349
103413
103523
103623
103660
103608
103433
103258
103175
103138
103079
102961
106087
106350
106924
107481
107934
108339
108679
108866
108804
108934
107276
104444
103731
103574
103486
103397
103322
103312
103334
103396
103527
103647
103685
103612
103409
103233
103157
103122
103062
102932
106642
106917
107498
108038
108521
108856
108940
108967
108866
108985
106911
104459
103818
103635
103508
103394
103315
103314
103325
103394
103545
103683
103722
103622
103390
103219
103148
103110
103052
102927
107219
107467
108063
108578
108942
109049
109022
109044
108928
109014
106548
104479
103900
103682
103517
103386
103316
103318
103323
103403
103587
103732
103766
103635
103378
103214
103145
103101
103041
102926
107758
107974
108586
108968
109121
109141
109136
109120
109051
108726
106104
104497
103989
103717
103516
103376
103321
103320
103325
103431
103647
103783
103809
103649
103376
103215
103146
103096
103031
102927
108221
108425
108974
109170
109223
109250
109250
109210
109209
108127
105759
104551
104078
103742
103506
103366
103323
103324
103333
103484
103710
103829
103849
103668
103385
103226
103152
103095
103025
102927
108606
108795
109194
109280
109315
109329
109327
109288
109262
107532
105685
104705
104170
103760
103493
103359
103327
103327
103355
103551
103768
103874
103889
103695
103409
103252
103169
103100
103024
102928
108906
109026
109312
109355
109385
109381
109378
109374
108869
107119
105727
104930
104266
103775
103484
103354
103331
103332
103398
103615
103812
103912
103928
103736
103453
103293
103201
103117
103029
102929
109083
109126
109371
109372
109395
109396
109318
109200
108255
107034
106072
105202
104383
103798
103482
103354
103335
103342
103457
103672
103846
103948
103970
103792
103515
103347
103246
103154
103049
102931
109142
109072
109296
109263
109283
109250
109036
108698
108196
107473
106582
105527
104541
103837
103487
103359
103339
103375
103526
103724
103881
103990
104024
103866
103591
103411
103299
103209
103089
102931
109178
108953
109129
109152
109165
109113
108866
108679
108480
107980
107125
105931
104748
103901
103507
103381
103366
103435
103606
103800
103974
104097
104138
103977
103686
103485
103361
103277
103150
102933
109142
108979
108991
109051
109112
109225
109009
108745
108625
108429
107687
106401
105000
103990
103551
103428
103418
103529
103754
104026
104274
104390
104386
104152
103815
103579
103437
103351
103227
102956
109016
109017
109019
109028
109127
109267
109371
109145
108905
108793
108227
106901
105297
104106
103612
103492
103503
103714
104096
104495
104757
104840
104711
104373
104000
103731
103543
103427
103308
103030
109054
109053
109059
109164
109393
109549
109662
109693
109552
109234
108692
107418
105656
104245
103691
103574
103662
104067
104612
105005
105190
105217
104954
104594
104244
103951
103703
103520
103385
103158
109441
109093
109406
109572
109753
109855
109895
109879
109832
109646
109110
107878
106024
104400
103798
103699
103930
104522
105092
105403
105529
105488
105141
104792
104483
104196
103924
103653
103460
103318
109902
109679
109822
109888
109957
109967
109951
109900
109839
109696
109306
108271
106367
104561
103942
103870
104264
104946
105470
105768
105874
105749
105369
105025
104729
104434
104142
103831
103536
103487
110058
110013
110010
110017
110025
109993
109920
109850
109780
109669
109382
108643
106695
104729
104113
104074
104600
105314
105845
106167
106246
106073
105691
105344
105030
104691
104334
104006
103628
103640
110096
110088
110067
110056
109993
109917
109831
109761
109715
109657
109484
109126
107032
104898
104292
104288
104924
105698
106297
106652
106723
106527
106148
105782
105417
105003
104549
104152
103742
103772
110131
110096
110054
110012
109893
109837
109790
109797
109799
109761
109666
109574
107343
105094
104468
104520
105264
106162
106882
107276
107357
107162
106770
106364
105921
105403
104837
104320
103911
103891
110149
110102
110029
109967
109903
109906
109948
109980
109989
109951
109907
109794
107391
105286
104646
104814
105684
106749
107620
108074
108168
108009
107593
107107
106556
105916
105238
104617
104191
104025
110098
110078
110028
110002
110054
110127
110167
110178
110168
110119
110108
109852
107349
105445
104865
105205
106257
107500
108486
108989
109102
109016
108605
108017
107317
106551
105791
105112
104635
104232
110140
110104
110098
110180
110259
110291
110295
110286
110262
110198
110212
109735
107375
105651
105210
105737
107018
108394
109376
109784
109881
109880
109612
109020
108158
107288
106501
105809
105257
104599
110175
110197
110283
110345
110361
110353
110340
110323
110289
110220
110253
109599
107508
106023
105765
106484
107944
109274
109993
110155
110178
110182
110173
109773
108936
108071
107327
106659
106046
105209
110317
110377
110410
110408
110388
110370
110354
110333
110293
110251
110309
109762
107880
106630
106564
107487
108888
109890
110176
110187
110192
110135
110074
109798
109358
108761
108168
107567
106964
106084
110454
110456
110448
110423
110401
110387
110373
110351
110324
110324
110379
109989
108440
107466
107590
108624
109667
110151
110168
110120
110054
109923
109765
109583
109373
109128
108836
108390
107878
107066
110474
110472
110459
110435
110425
110422
110412
110393
110387
110424
110408
109961
108955
108398
108711
109592
110144
110243
110189
110171
110189
110043
109767
109581
109456
109368
109267
108996
108557
107853
110483
110485
110462
110444
110450
110450
110436
110414
110418
110448
110341
109793
109368
109195
109636
110165
110348
110296
110283
110293
110415
110332
110099
109920
109812
109748
109674
109446
108981
108322
110490
110483
110435
110431
110442
110413
110389
110370
110380
110428
110118
109577
109637
109732
110161
110406
110421
110316
110329
110335
110474
110515
110490
110424
110353
110271
110170
109949
109422
108673
110492
110416
110369
110375
110335
110136
110045
110279
110329
110297
109782
109401
109717
110066
110402
110486
110412
110249
110272
110367
110488
110554
110582
110605
110615
110597
110543
110440
110015
109159
110353
110317
110296
110298
109860
108865
108682
109431
110031
110068
109429
109356
109777
110294
110509
110496
110338
110045
110011
110411
110517
110537
110513
110569
110604
110649
110661
110656
110513
109826
108967
109343
109614
109426
108556
107799
107738
107957
108717
109233
109030
109342
109980
110461
110520
110464
110103
109763
109922
110469
110547
110516
110470
110487
110527
110599
110644
110669
110667
110399
107292
107580
107909
107934
107739
107742
107752
107759
107768
108169
108736
109530
110290
110510
110512
110378
109710
109714
110097
110543
110546
110475
110448
110460
110463
110524
110596
110619
110623
110606
107207
107210
107217
107413
107760
107884
107863
107779
107784
108025
108903
110002
110493
110509
110504
110190
109697
109702
110376
110544
110529
110443
110429
110462
110463
110479
110537
110554
110554
110557
107226
107228
107248
107601
108070
108344
108296
108118
108117
108467
109609
110408
110515
110508
110400
109892
109686
109988
110536
110522
110492
110403
110421
110471
110482
110469
110475
110427
110374
110476
107243
107276
107578
108061
108534
108814
108814
108773
108953
109529
110314
110525
110518
110489
110231
109854
109843
110383
110515
110494
110424
110340
110384
110466
110462
110437
110374
109975
109452
109836
107260
107618
108144
108599
108937
109161
109346
109582
109923
110336
110514
110519
110483
110377
110142
109953
110261
110514
110487
110458
110324
110287
110329
110423
110443
110416
109569
107770
106761
106584
107565
108181
108704
109070
109340
109613
109937
110220
110422
110503
110508
110477
110411
110311
110187
110260
110513
110490
110435
110265
109916
109598
109468
109697
110268
109664
107258
105252
104590
104264
108177
108755
109196
109531
109830
110128
110361
110476
110498
110496
110472
110419
110355
110313
110320
110476
110498
110395
109845
108682
107521
106940