/*--------------------------------*- C++ -*----------------------------------*\
| =========                 |                                                 |
| \\      /  F ield         | OpenFOAM: The Open Source CFD Toolbox           |
|  \\    /   O peration     | Version:  v1606+                                |
|   \\  /    A nd           | Web:      www.OpenFOAM.com                      |
|    \\/     M anipulation  |                                                 |
\*---------------------------------------------------------------------------*/
FoamFile
{
    version     2.0;
    format      ascii;
    class       volVectorField;
    location    "4.3";
    object      ddt0(rho,U);
}
// * * * * * * * * * * * * * * * * * * * * * * * * * * * * * * * * * * * * * //

dimensions      [1 -2 -2 0 0 0 0];

internalField   nonuniform List<vector> 
11640
(
(-6.34463023512 -2.80437703219 5.69203695583)
(-18.3767889197 -3.16983490188 5.59023815037)
(-29.4233333135 -3.35214836654 5.36514135035)
(-39.3493444506 -3.29585550013 4.9291300499)
(-47.8027721656 -3.04357665106 4.25267249708)
(-54.4461859286 -2.62886244046 3.3924933886)
(-59.3917262916 -2.14577720211 2.47934040988)
(-62.837825762 -1.5579808504 1.54320090585)
(-64.7055068921 -0.854086091281 0.686184063338)
(-64.9224576029 -0.0490612305675 -0.362271158984)
(-63.6112724107 0.711075961663 -1.27588139799)
(-60.924453384 1.51405644913 -2.18564936508)
(-56.9427474235 2.29015315691 -3.04662406432)
(-51.6521025506 2.99854915935 -3.93215105714)
(-45.8491569469 3.70775659947 -5.25077334368)
(-39.2185891231 4.25740349225 -5.36118039094)
(-31.3897529597 4.66038501065 -5.72636352985)
(-23.1248369496 4.93532814749 -6.07157096868)
(-14.3296818703 5.06217572645 -6.32233118912)
(-4.84460338653 5.02192344781 -6.51415466275)
(-6.70685022904 -7.88857290573 5.66815215763)
(-18.8287994046 -8.36710187909 4.36648811728)
(-29.2730271128 -8.43339809996 3.72666754242)
(-38.1456345534 -7.77137599749 2.99765522318)
(-45.1070102091 -6.5967790042 2.05726523914)
(-50.4441324375 -5.24693315855 1.1186509906)
(-54.7893600618 -3.86829846734 0.350360827718)
(-58.3139347187 -2.38931824785 -0.273065457976)
(-60.6939278938 -0.820661673326 -0.825697453701)
(-61.5120194015 1.00537408908 -1.55119818712)
(-60.8971397997 2.97953692399 -2.19956665297)
(-58.9454654994 5.07056133873 -2.81960747827)
(-55.7523522667 7.10405151055 -3.4382736963)
(-50.9798273531 8.98785628714 -4.13768824742)
(-45.3453976916 10.8038064898 -5.48145173646)
(-38.6649079546 12.4194720263 -5.48937374666)
(-30.733312543 13.6636635331 -5.74807124443)
(-22.5750930579 14.5090673645 -5.99250052143)
(-14.0741769572 14.9962398084 -6.25692719538)
(-4.81001395056 15.0463929617 -6.62029731091)
(-6.88826377952 -12.3597690043 5.5717200226)
(-18.875577838 -12.1752502124 3.8576712143)
(-28.2225503795 -11.0887722744 2.77870098386)
(-35.1586793029 -8.91848829284 1.54278387072)
(-40.0227240136 -6.37525662354 0.30136730715)
(-43.9220164477 -4.021803275 -0.660098648879)
(-47.8812618275 -2.04236935916 -1.23513784494)
(-51.8898852616 -0.0345816523423 -1.42191377826)
(-55.3751495363 1.93523210582 -1.71221366348)
(-57.3458642602 4.31180107962 -2.13992542457)
(-57.9776820208 6.93822150932 -2.57675426272)
(-57.3093395288 9.70782890499 -3.00712320155)
(-55.3680190028 12.5059230748 -3.50003064105)
(-51.587124356 15.1569371436 -4.14059491499)
(-46.2715339401 17.7407139965 -5.38239674915)
(-39.2372231064 20.3655708013 -5.5067367519)
(-30.6149079328 22.6109705467 -5.7662636122)
(-22.0188680195 24.2830036083 -5.93248713275)
(-13.6711028886 25.2035521038 -6.21090456234)
(-4.70478205454 25.4687746511 -6.64959794105)
(-6.78553437307 -16.2056434031 5.3063175743)
(-18.1114667303 -14.8702377645 3.34435403457)
(-25.86830886 -11.7381958885 1.75219779273)
(-30.4991722809 -7.5786554241 0.115679910451)
(-33.3041639887 -3.63386420446 -1.37164757692)
(-36.1150668743 -0.531583315777 -2.36201623822)
(-39.7847491947 1.61397811236 -2.64913353949)
(-44.5750856173 3.76722632769 -2.21354889065)
(-49.2595235611 5.86573970556 -2.27900815666)
(-52.6035674265 8.44446298912 -2.36977458889)
(-54.6360153376 11.5059236673 -2.55576379911)
(-55.3363610626 14.890783155 -2.87318893318)
(-54.7745784484 18.2040963801 -3.3155595308)
(-52.2638475961 21.1283356218 -4.05364575035)
(-47.5832366834 24.0478252228 -5.11588362773)
(-40.4710761061 27.4002878798 -5.44839671006)
(-31.1660490756 30.6691541081 -5.59131188621)
(-21.7636367495 33.5691341546 -5.77055578862)
(-13.1721760766 35.3821155208 -6.06686409801)
(-4.51213034824 36.0161071673 -6.54550402614)
(-6.43666274192 -19.2613708257 4.84205239575)
(-16.707146504 -16.3162855206 2.71539837088)
(-22.6844139244 -10.8654029364 0.77786566356)
(-25.259247454 -4.91902217588 -1.15640649663)
(-26.5482838251 -0.0766558743238 -2.87224957218)
(-28.6648164742 3.13278922763 -3.93389800193)
(-31.8364139081 4.8547768499 -3.8602307408)
(-37.4018066655 7.20506726613 -2.70652056741)
(-42.8435495074 8.79275034696 -2.60907107923)
(-47.1371933801 11.1691301256 -2.48820610776)
(-50.0518959509 14.0777897182 -2.75987755967)
(-51.8126779344 17.8866841426 -3.29813219262)
(-52.8164138847 21.6802640818 -3.61722745675)
(-51.9329170112 25.5341514674 -4.51305742496)
(-47.9904497002 29.1768213843 -4.76203347443)
(-41.1168906709 33.3216124896 -5.10774439494)
(-31.6830363604 37.7813898481 -5.57375897707)
(-21.6948734247 41.9829488422 -5.70133249072)
(-12.6741432819 45.119625865 -5.85249767354)
(-4.23619803996 46.4322759231 -6.3241558806)
(-5.89503471503 -21.5294542628 4.29137099323)
(-14.9914603426 -16.8744808311 2.10929673558)
(-19.4495038645 -9.55091039136 0.101386587051)
(-20.6108480773 -2.44619239541 -1.95593701794)
(-20.9811123493 2.69962774088 -3.77778494806)
(-22.8050115487 5.86670173271 -4.81636370506)
(-25.0258713208 7.36090635706 -4.77681024825)
(-31.0123259265 11.9283292763 -3.56611398414)
(-36.9914114967 15.0452930412 -3.66497306612)
(-41.9279046351 20.797819318 -3.66733987646)
(-44.9055998671 25.8490971928 -3.66507835676)
(-46.4344734123 30.1943844076 -3.55131153032)
(-48.4401181191 33.7919249969 -3.85022654478)
(-48.3209965268 35.1424344151 -4.37087277783)
(-45.9403009289 37.0167567258 -4.27210920599)
(-40.5089261171 40.2062014814 -4.90520480663)
(-31.4059949689 44.7727221751 -5.38403408945)
(-21.2284833157 49.9243551067 -5.51024639665)
(-12.0596794076 54.3005592333 -5.53080064237)
(-3.94526559966 56.476927475 -5.97476209388)
(-5.30340086923 -23.2131018012 3.72256046172)
(-13.2700011472 -17.4859457362 1.7107172191)
(-16.7358981909 -9.07762558967 -0.10719602714)
(-17.0576007425 -1.5610201235 -2.09140543873)
(-16.8539718364 3.58106571334 -3.56752632294)
(-18.4186780685 6.75200411808 -4.37525617993)
(-17.5811308655 7.67013227423 -3.80573469694)
(-22.4252104864 14.1785856466 -0.324459268207)
(-27.551100377 18.0044826232 -0.472776790528)
(-31.1197541623 24.8533217547 -1.29287309727)
(-35.1682498448 32.1747851488 -1.66091366754)
(-40.5522807522 39.7983837972 -1.45131253702)
(-46.185091475 40.8862046341 -1.67116266327)
(-48.0438482063 44.1358003807 -3.67550732969)
(-46.0092639369 43.8364262287 -3.65816015398)
(-39.9938225656 46.572550591 -4.55597416595)
(-30.3891870083 51.6101127355 -4.93763569646)
(-20.1655131298 57.6161072299 -5.15215777884)
(-11.1506465306 63.0050798598 -5.08336566049)
(-3.55418743291 65.9743918421 -5.48256929184)
(-4.71988752475 -24.3532906162 3.1287892117)
(-11.65247528 -18.1844413399 1.4385682828)
(-14.4736135502 -9.17953883334 -0.154316954879)
(-14.4799363219 -1.25627454583 -1.96665133122)
(-14.3223149568 4.41105459474 -3.43170772504)
(-16.9524771979 7.98719248537 -5.73272763859)
(-12.7835124999 9.29462772147 -7.30545644366)
(-17.1724673758 17.1014224786 -2.61949822447)
(-23.2042948607 19.9526516511 -3.10683408813)
(-23.6430789398 24.9886749797 -1.95630479979)
(-25.9768181497 32.7544272084 0.633346983139)
(-34.0517301786 41.8864048148 2.35586988039)
(-36.8928155486 44.8350028332 0.641573997453)
(-40.0492946545 51.3006872949 0.283001060191)
(-42.0619565271 49.7945708628 -2.40398660439)
(-35.5912190103 52.8633618896 -3.76201538413)
(-27.2741182923 58.5026268134 -4.28166797784)
(-17.9583355892 65.1939317964 -4.57752132749)
(-9.74928304476 71.3111423663 -4.43907165318)
(-3.06375670912 74.7669397596 -4.81992307728)
(-4.05532107409 -24.8368330513 2.57367284318)
(-9.87896849222 -18.4570202315 1.16966047388)
(-11.9682961866 -9.03479512886 -0.146319561895)
(-11.4815960811 -0.474202962634 -1.56445299966)
(-10.8237026616 6.26318838549 -2.78222597021)
(-13.1050934541 11.1014755513 -5.10615520226)
(-7.68234128975 14.3057728178 -7.10420422328)
(-10.280911913 21.3447243351 -3.33666246924)
(-13.6293061493 25.7369546629 -3.65123847012)
(-10.3465513749 30.7800384124 -1.48564858373)
(-12.2209353159 37.2936006213 1.5797084265)
(-23.2367456767 43.706763007 4.05298631487)
(-32.4854304885 48.9167829322 3.07381376371)
(-38.4921600587 53.6621080283 1.85348420364)
(-40.0595500326 54.6623707337 -1.32003492486)
(-32.6823351561 58.4969589526 -2.74749176166)
(-24.0538392816 64.7336950125 -3.38559255524)
(-15.3139438575 72.0295534022 -3.70735878709)
(-8.03647783806 78.7016875348 -3.55795668092)
(-2.48770853326 82.4708889447 -3.95618123666)
(-3.30333997417 -24.7736022536 1.91209340286)
(-7.94207035776 -18.3395799952 0.832542241166)
(-9.21096235791 -8.73943653163 -0.156627809741)
(-8.10111238978 0.241476309533 -1.18741180404)
(-6.67108597105 7.76698138082 -2.07524847175)
(-7.47168477003 13.4609675858 -4.33348347516)
(-1.86451946132 19.0637513895 -6.47954759866)
(-3.69276046784 27.0968146614 -2.68966350459)
(-5.76265937732 31.4906777206 -3.01456633808)
(-2.09535154791 33.1011031729 -1.01537741275)
(-4.4224563007 34.4143097397 2.12407831985)
(-15.0358386932 35.8952138379 4.76982026861)
(-22.9407384906 41.3339619041 3.11200303905)
(-28.3578912549 49.0851580722 3.46295033073)
(-32.9574130694 54.7156234666 -0.0261609805763)
(-26.8691528065 61.2695339727 -1.75347850462)
(-19.5926424934 69.0361175157 -2.38103223447)
(-12.0395332516 77.2826284813 -2.68128681971)
(-6.01321987949 84.5516577517 -2.47649896138)
(-1.81302133235 88.6160615978 -2.89860601102)
(-2.5528412516 -24.0796961261 1.27914280497)
(-5.90387794163 -17.761328648 0.465127498781)
(-6.28419909454 -8.2255690075 -0.248659304545)
(-4.50892010572 0.881914990149 -0.828565136429)
(-2.11079571003 8.57913614066 -1.34896303235)
(-0.388001045229 14.0683483501 -3.0920861124)
(6.57114597962 20.5402174882 -5.10064596804)
(5.12022776942 22.8947241996 -1.96142981469)
(1.03805798071 26.8901891642 -3.09048373211)
(2.83202027396 28.6289246254 -1.16928190248)
(0.125097998039 30.0635142239 2.09498578362)
(-7.92468511512 31.6429057861 4.08252675192)
(-14.5729809987 38.6954797864 2.63065987049)
(-18.9459088434 45.3457760582 3.93717838752)
(-24.7474691375 54.2690483234 1.0509677313)
(-20.2101849664 62.5904895797 -0.77511462303)
(-14.2065191659 71.6085827889 -1.3035609204)
(-8.11987010908 80.7674206293 -1.48861091556)
(-3.62706164641 88.5582108974 -1.20480276053)
(-1.03533885153 92.850439684 -1.65452420929)
(-1.81782379118 -23.1333605813 0.6916155186)
(-3.97592623512 -17.3012464894 0.0804245634328)
(-3.58613256466 -8.24279935806 -0.363610218423)
(-1.31566598712 0.766260602423 -0.483075370163)
(1.38171180087 8.51890505657 -0.684456217718)
(3.70249597792 14.4140883421 -2.00448479673)
(3.62550433224 19.8078762801 -2.11965989176)
(5.65114741864 18.1630959693 -4.60110882766)
(9.9277029337 22.3316328667 -3.7348613864)
(11.022968208 24.4403159318 -1.56196723852)
(9.13601509956 27.6735829355 0.825364284702)
(3.26688327918 29.4394167257 2.2281571872)
(-3.5724248734 36.5671072704 2.19631740226)
(-9.03355320779 42.9686765104 2.43253342784)
(-13.4584306175 53.1100163134 1.04152789418)
(-11.5760835152 62.9697602431 0.0978082052166)
(-7.53933346359 72.9126439155 -0.222914045735)
(-3.34558738077 82.5808993002 -0.185387900493)
(-0.857037992109 90.5243077472 0.110540459621)
(-0.146004143256 94.8171550326 -0.216560398766)
(-1.12406109505 -21.9744656153 0.106661136887)
(-2.1979755689 -17.3507647156 -0.310254588815)
(-1.00242419105 -9.43283903461 -0.541000679497)
(1.99217531818 -1.08671475772 -0.471288129493)
(5.96491399296 6.27947841613 -0.221288863377)
(10.4665836765 12.4594861605 -0.173784184125)
(14.7715675126 17.3336674404 0.216719055325)
(16.7621971755 21.6986438189 0.878091455312)
(16.8869626847 24.015422812 0.896203561701)
(16.0390699463 25.9982705268 1.12865236956)
(13.7687391322 27.7430979488 1.51375009543)
(9.39557387026 30.3956562656 1.41933078862)
(4.59771055268 36.4924202522 1.19327586689)
(0.308826017387 43.2406709123 1.40602121026)
(-2.61358946585 53.0024339501 1.10362542846)
(-2.12165748852 63.3685410563 0.882927347757)
(0.139823536453 73.5573002323 1.04437699903)
(2.10392818474 83.0136977235 1.44479666656)
(2.26126243042 90.4932021796 1.75511496292)
(0.809858898525 94.3454724682 1.35564158914)
(-0.455723428247 -20.4353331304 -0.414400824582)
(-0.586555122285 -17.3622425471 -0.721612740376)
(1.17854013708 -11.3066418087 -0.882407062622)
(4.61846041838 -4.20079185639 -0.797320191271)
(8.97355330981 2.2572020521 -0.553637857462)
(13.538819522 7.43400855471 -0.420549804049)
(17.3029010073 10.8882562995 -0.414073148261)
(19.8326213651 12.7834944716 -0.932415643998)
(21.7815381426 15.1871918214 -0.934112166708)
(22.6855181769 18.6982384705 -0.584284654162)
(21.8516319991 22.8354105028 -0.198739827265)
(19.2855148478 27.8400914629 0.272687582366)
(15.9481778157 34.9251842194 0.692670892197)
(12.4135375094 43.0494339154 1.25448092756)
(9.76566034727 52.7724642566 1.64061911995)
(9.03290706122 63.0189191912 2.00581401365)
(9.06253610411 72.8288809002 2.633879206)
(8.25221378141 81.5042298661 3.35411233171)
(5.61085215563 87.9565375095 3.66993699126)
(1.80617819418 90.9767125581 3.092280336)
(0.176345883132 -18.2642089841 -0.899266643019)
(0.901566831395 -16.5188352844 -1.126272643)
(3.09473281522 -12.6515913704 -1.28535738421)
(6.77773712348 -7.17758891645 -1.26365477622)
(11.392180258 -1.68409164329 -1.09930667231)
(16.2705722305 3.16427125247 -0.867999175402)
(20.714099917 7.19573858483 -0.648378378538)
(24.2913282222 10.8436807338 -0.583213550419)
(27.0327635214 14.7052844662 -0.43769068848)
(28.8228448487 19.0127720011 -0.165736653819)
(29.4279774558 23.6507114098 0.286336659206)
(28.7043151282 29.3056760985 0.771231869952)
(26.8559564236 36.0565775264 1.31806807596)
(24.3410560711 43.5808789687 2.05723306929)
(21.9916689054 52.2501578566 2.81698310465)
(20.1394215128 61.2806630922 3.63371198705)
(17.9383446619 69.8525017751 4.52532687371)
(14.256250138 77.148688275 5.30775639072)
(8.73773028222 82.15632727 5.60177761099)
(2.69695104409 84.3110923193 4.82509562025)
(0.709913593929 -15.6388329672 -1.33806997165)
(2.31964262672 -14.5195008534 -1.47315205904)
(4.92837033877 -12.3075187446 -1.62185210575)
(8.66986481567 -8.77974697186 -1.65926624471)
(13.3634534115 -4.51752100057 -1.59597036976)
(18.4893605365 -0.278323873127 -1.43796634055)
(23.4594731934 3.70605136931 -1.20582456242)
(27.9892479364 7.59731376837 -0.977530557339)
(32.0061698915 11.7625595651 -0.594214211673)
(35.2577968916 16.4471743252 -0.0555310124219)
(37.3797860085 21.7725887451 0.597467602325)
(38.1642088554 27.7192767228 1.37460564941)
(37.6163229214 34.2790136932 2.22514912864)
(35.8522980655 41.3468001048 3.13787032349)
(33.3385868805 48.9009316543 4.14602435956)
(30.1854316157 56.483397559 5.23084193825)
(25.7685426922 63.4302140331 6.29038447739)
(19.4035739563 69.0369700673 7.09725086429)
(11.4060549486 72.6747043409 7.34988764523)
(3.51212802049 74.2626427391 6.44949770854)
(1.16785741795 -12.7335304464 -1.70668758884)
(3.56812096807 -11.8680492232 -1.78536743942)
(6.71076548495 -10.4265754006 -1.86919307461)
(10.6143795702 -8.28678351959 -1.87748347248)
(15.3209533396 -5.45554179804 -1.84802760737)
(20.6516890731 -2.17923003942 -1.71806116832)
(26.2198202475 1.35017941845 -1.46290518539)
(31.6908565014 5.12836088488 -1.10048762806)
(36.7989284385 9.25693784879 -0.563634137655)
(41.2127884263 13.7889942238 0.134618308661)
(44.5402363373 18.8140661083 0.953636258506)
(46.4754642238 24.2388576335 1.9312989534)
(46.7798517283 29.9987208208 3.00879255768)
(45.433005805 35.9397110712 4.20698411105)
(42.5804302968 42.0304194997 5.45404933123)
(38.1378463279 47.8973593403 6.71351139687)
(31.7713052414 53.0770181653 7.78816019005)
(23.3500763306 57.0493195333 8.56406010082)
(13.6278652173 59.7808579292 8.79123041846)
(4.25603443241 61.1697804467 7.93510547258)
(1.49244646015 -9.574010977 -2.00566116628)
(4.49043287055 -8.97367629513 -2.02955591578)
(8.16736908798 -8.00223727211 -2.0824245434)
(12.4967213867 -6.59047932558 -2.05375175166)
(17.4723043612 -4.75327499776 -1.97764134181)
(23.0989533448 -2.47818275099 -1.81074919797)
(29.1300561962 0.175620077009 -1.51877048753)
(35.2530897207 3.13655056512 -1.07379167782)
(41.1367396303 6.44023520796 -0.440975270375)
(46.3186480312 10.0606324253 0.380817586892)
(50.4016492096 14.0474071834 1.34876738489)
(52.9622537402 18.2598816465 2.52128639854)
(53.71002846 22.6624816797 3.78622520887)
(52.441271696 27.1364822743 5.11057435232)
(49.0797154036 31.5240236908 6.44143766156)
(43.5775562004 35.6202971089 7.69543330499)
(35.8603946404 39.1474460624 8.78398436866)
(26.2545142883 42.0072548194 9.57489682783)
(15.5191860644 44.2006646972 9.88730389392)
(4.94177763788 45.4895743469 9.17409473068)
(1.6608046467 -6.09887916305 -2.24478018115)
(5.01862253612 -5.77158980586 -2.28452575586)
(9.05892266557 -5.25719031584 -2.34714125484)
(13.74444865 -4.48929202548 -2.34493072421)
(19.0768373637 -3.44932456353 -2.27275484804)
(25.0463959734 -2.10100467302 -2.08072489166)
(31.4123605111 -0.518568579758 -1.7688428771)
(37.9115337608 1.30938043389 -1.2768738177)
(44.1706257972 3.36355192053 -0.612060970402)
(49.701456368 5.61675322059 0.278388542933)
(54.087882504 8.0506869777 1.32638830518)
(56.9051595234 10.6621650168 2.58294953452)
(57.795707395 13.3661434212 3.92150681775)
(56.4481318483 16.0630313945 5.31012050204)
(52.7566439892 18.679241928 6.70485724439)
(46.7452723996 21.1246208297 8.01228961511)
(38.5245174373 23.3046204003 9.19089058852)
(28.4439052351 25.2144946333 10.0565070138)
(17.096725027 26.8223557396 10.5107117334)
(5.57503027791 27.9333502503 10.064562325)
(1.67156341607 -2.08216729188 -2.44770305504)
(5.13558625489 -1.99177507212 -2.61622467681)
(9.33467994715 -1.84501255791 -2.75602276649)
(14.1969883393 -1.63375202322 -2.82472294384)
(19.7452824481 -1.31843294753 -2.80734063619)
(25.8855971009 -0.88616075671 -2.70415309059)
(32.4030577587 -0.386667499298 -2.42069799941)
(39.0689517852 0.206166840982 -1.98386270477)
(45.4499589432 0.872341995317 -1.36686812554)
(51.1150192364 1.61702847899 -0.491236406876)
(55.6004290301 2.38927522642 0.510646876158)
(58.5184619351 3.26002984474 1.69713404959)
(59.4274900022 4.15140860168 3.02510305448)
(58.0768687445 5.04118102209 4.40161147574)
(54.3383809655 5.91529192542 5.80551095728)
(48.2331694746 6.75123598795 7.15345974334)
(39.8965969638 7.51986449029 8.38426095394)
(29.7206195951 8.21603612638 9.4196552222)
(18.2099501512 8.86351375586 10.1482732289)
(6.0767769151 9.36461233024 10.5215253656)
(-6.12357883079 -2.53996085627 18.1206057139)
(-18.4009324757 -2.3485060272 17.6079195932)
(-29.6931956933 -2.33104651941 16.7709084329)
(-39.8397134084 -2.19669346014 15.3335889939)
(-48.4681086668 -1.93364166247 13.2761022856)
(-55.2197197393 -1.53711806244 10.720219971)
(-60.1859514196 -1.0525100636 7.92750111041)
(-63.5704950453 -0.479247983644 5.05019769771)
(-65.3712566908 0.147790096639 2.14495307348)
(-65.5412689492 0.820486531522 -0.848196616846)
(-64.136763309 1.51688110818 -3.83179808401)
(-61.3221439899 2.20550297411 -6.65603554354)
(-57.2720610817 2.85698408812 -9.32639460207)
(-52.2969572903 3.46638602227 -11.8677866997)
(-46.1744634403 3.97549827179 -14.4804924088)
(-39.2260565567 4.46652483127 -15.9073648066)
(-31.7388708609 4.85708921573 -17.2581870713)
(-23.42371314 5.12581165913 -18.3708656621)
(-14.5278210251 5.18732675938 -19.1829135637)
(-4.84219482778 4.99493472921 -19.7546433226)
(-5.88723914342 -7.79109424347 17.8476511696)
(-17.9520239481 -7.4269668544 15.6047576751)
(-29.0227569534 -7.1972784389 14.0698641766)
(-38.3821558908 -6.46552009104 12.1227788595)
(-45.9016357778 -5.34751529675 9.64085878701)
(-51.6589486151 -4.0545186323 6.98591533936)
(-55.9091929419 -2.65499318669 4.40449084229)
(-58.9282935361 -1.0499392259 1.96263217857)
(-60.6510953929 0.67354658394 -0.516145870847)
(-60.8605561226 2.53817283326 -3.10586878727)
(-59.6003935764 4.46766970115 -5.65538865171)
(-57.0520131192 6.45281521064 -8.10930712586)
(-53.4060182533 8.40978068548 -10.3791763552)
(-48.8853898699 10.1656428124 -12.5895084765)
(-43.2092852545 11.704303866 -15.0140936215)
(-36.8550847882 12.9850163388 -16.1937966603)
(-30.120334147 14.0038286267 -17.3175732557)
(-22.3871555071 14.7869630468 -18.2438833992)
(-13.6608324807 15.2059400622 -19.0726185966)
(-4.37937730765 15.0299635978 -19.8913317894)
(-5.86713246167 -12.4575324083 17.4248388562)
(-17.7289059318 -11.8315319402 14.4413884095)
(-28.1682771726 -10.8341352925 12.1507492858)
(-36.6114842552 -9.10547073533 9.6084758156)
(-43.3702584095 -7.09301363035 6.93354554226)
(-48.4975997771 -4.95766526639 4.35269374411)
(-52.1687600963 -2.71567411904 2.06910521231)
(-54.8237906013 -0.0200216731611 0.0864923907037)
(-56.4742126179 2.71182408883 -2.05779527274)
(-56.676313871 5.65152638466 -4.38158693483)
(-55.5403865644 8.73928269753 -6.67936087354)
(-53.1940827963 11.8163924019 -8.91143826382)
(-49.9026383351 14.8930963991 -10.9324141192)
(-45.7441475296 17.6178952932 -13.0166884722)
(-40.4254509929 20.2357772615 -15.1730564959)
(-34.4772265547 22.1573579961 -16.2930007275)
(-28.202225933 23.6892571482 -17.2594480415)
(-21.1124363126 24.8162127952 -18.0735703908)
(-12.9889491352 25.5105691523 -18.9135914053)
(-4.13979304685 25.6161944101 -19.8527640671)
(-5.72009595301 -16.5034224036 16.5348152649)
(-17.1363328729 -15.1247411482 13.1490096798)
(-26.9469720391 -13.0705035182 10.330168508)
(-34.8451793391 -10.502004835 7.61358215096)
(-41.190958934 -7.77573598255 5.00189730243)
(-45.9630879742 -5.07491951174 2.7826047408)
(-49.0625787987 -2.19478931611 0.938408060815)
(-51.4023554919 1.87422304692 -0.570374195437)
(-53.0636382329 5.75935373972 -2.64094714286)
(-53.1530037868 10.0577150237 -4.88556457626)
(-52.0365611887 14.3398888479 -7.11133890016)
(-49.7826452674 18.3399657635 -9.25067242652)
(-46.7472663169 22.4152187395 -11.1520277508)
(-42.8052765681 25.6964376986 -13.2943906496)
(-37.7867936226 29.2297858645 -15.0403936498)
(-32.3172347167 31.6822799784 -16.1570447473)
(-26.3655908338 33.6807186448 -17.1322797732)
(-19.6985601003 35.1478710225 -17.7763742895)
(-12.1890870277 36.0770418893 -18.4990837075)
(-3.90523404525 36.3333332819 -19.4940025202)
(-5.44765315665 -19.7754325669 15.1406543945)
(-16.3028215189 -17.7496604626 11.6183125112)
(-25.6263755287 -14.9971269167 8.61553285634)
(-33.139003701 -11.9552399282 5.98772363514)
(-39.3020226568 -8.99269779799 3.88147182364)
(-44.1420883856 -6.09303809949 2.20196161506)
(-46.4569634399 -3.21046586818 0.734474173721)
(-48.3693613233 2.0657425859 -0.281166649681)
(-49.7827917044 6.66530357806 -2.56770330988)
(-49.851909728 12.4290158667 -5.08014148134)
(-48.9481612213 17.9276158892 -7.92877900811)
(-46.9505026599 24.1577693159 -11.053599623)
(-44.3907327693 29.102430009 -12.927440726)
(-40.7854867509 33.9310665437 -14.3711002507)
(-35.7402171591 38.4090606026 -15.0487705559)
(-30.4318493705 41.2377503596 -16.1189772379)
(-24.5040385733 43.5122398289 -16.7280137705)
(-18.2343129081 45.318365029 -17.2808234764)
(-11.2737048914 46.5841797334 -17.9081405395)
(-3.60300760441 47.025096489 -18.832484776)
(-5.09286620066 -22.46439629 13.5008460017)
(-15.2965331746 -20.0151494504 10.0583169357)
(-24.0638206092 -16.9631446553 7.16403380236)
(-31.2764151725 -13.7264551296 4.85368843848)
(-37.5909820406 -10.4715446954 3.33383193714)
(-43.2279099865 -7.30224956008 1.75439837232)
(-44.9192347034 -4.066607205 -0.209762150552)
(-46.8694665173 5.15093506672 -2.02796825353)
(-47.5950948752 11.7774191052 -5.54647193177)
(-46.1547560716 19.2697336677 -8.44592203431)
(-43.8729177082 26.3845931655 -11.0275674277)
(-42.1179818873 33.1263683905 -13.6643078958)
(-39.6043209249 37.5614219307 -14.6248829285)
(-36.507162846 43.220406324 -15.8330554413)
(-32.8851525722 48.2078720501 -14.952421542)
(-28.1167595478 50.7823931884 -15.7539719216)
(-22.4393840055 53.1843342388 -16.1049950151)
(-16.6147598458 55.2080743277 -16.4932711055)
(-10.2068701636 56.8120489089 -17.0271813031)
(-3.24514155689 57.4697295195 -17.7668196323)
(-4.65046657017 -24.6289865938 11.7430192084)
(-14.0501274369 -22.1158900266 8.56763801699)
(-22.1111734408 -19.1400763641 5.96431961554)
(-28.7903691091 -15.991931088 4.21112342367)
(-34.8385485544 -12.5838357461 3.13573793353)
(-40.6949650858 -9.503286501 1.42078379839)
(-40.1987906131 -7.46159219836 -0.525662338982)
(-40.03626593 0.96321378464 1.67272622834)
(-39.444297372 9.00538950049 -3.740622908)
(-37.7729384735 22.0853435131 -8.68739231066)
(-36.9704524719 35.7523495515 -13.0892270264)
(-36.5085554991 47.0491437543 -13.4706813634)
(-34.794780705 50.1726866778 -13.2075942494)
(-33.0068906698 52.9275334187 -15.6705195361)
(-30.6876548954 56.4839562579 -14.0749678081)
(-26.4053264331 59.2905305255 -14.8686659096)
(-20.4938984477 61.9569618736 -14.9407605274)
(-14.934469421 64.3428502049 -15.2549284828)
(-9.04040254295 66.3777522655 -15.6407385977)
(-2.82877967883 67.3257800972 -16.2703888875)
(-4.13345522747 -26.0241631152 9.85224089575)
(-12.5815459219 -23.5422281825 7.06348247783)
(-19.8412185002 -20.638327706 4.71012255494)
(-25.8886053954 -17.3618505413 3.06740668589)
(-31.6994196922 -13.8466371752 1.89868142684)
(-39.5846438941 -10.4964966253 -0.765173165631)
(-42.7637955083 -7.38763340783 -2.36216750431)
(-36.4085007283 -0.593364172606 -13.5125942443)
(-29.5237538334 8.56373307324 -13.4727872288)
(-21.4693144848 23.962835068 -5.85563173331)
(-21.3059737276 40.1195982668 0.551830318709)
(-29.1325896007 55.144495115 3.22335356867)
(-35.3283575622 61.2421612228 1.15975529125)
(-32.6692465627 60.9355484983 -14.7846301024)
(-29.5007211722 64.3423034468 -12.4884494781)
(-23.7035868017 67.3286882731 -13.8266158075)
(-17.580901329 70.0044873893 -13.4911930412)
(-12.5392941346 72.7761771453 -13.5999119842)
(-7.51112909928 75.2122722618 -13.7602795217)
(-2.30950426864 76.4174288169 -14.2840335576)
(-3.53954470136 -26.5714868047 7.92219145957)
(-10.7878557228 -24.0653375549 5.51534246112)
(-16.9035308447 -20.9955605589 3.44017662406)
(-21.8006107491 -17.4206295531 1.94321386726)
(-26.6246204944 -13.5225747467 1.06589030294)
(-33.5304689916 -8.88671375142 -1.60803033666)
(-36.3763891564 -3.28747098886 -3.16408829847)
(-28.6701123349 4.23566361768 -14.9285110191)
(-18.0294630309 15.1499949634 -13.3870324755)
(-7.67797491104 27.8812562231 -3.74015144224)
(-8.10030323693 39.2688880988 2.76521897423)
(-18.5151736468 50.9523540392 13.6663723865)
(-30.920967346 59.16355448 16.2128509267)
(-31.3105938168 65.2569595445 -8.22892522539)
(-26.1661952054 69.8865795354 -9.15182469557)
(-19.8999904326 73.6642646448 -11.3930470473)
(-14.0786583848 77.0292463798 -11.1381393488)
(-9.71907039859 80.2672642637 -11.2210086969)
(-5.71232305153 83.0405138724 -11.2374649347)
(-1.69941325315 84.4169324047 -11.7016004527)
(-2.89675159407 -26.4870331359 5.94897994371)
(-8.81313487238 -23.9731477507 3.84995942534)
(-13.6694016877 -20.822890453 2.11833909335)
(-17.3886507134 -17.1001088983 0.729079759622)
(-21.1638599991 -12.9046655502 -0.219934835436)
(-26.9246953136 -7.02826945309 -2.64575884584)
(-28.5090658284 1.85755193623 -4.49319685129)
(-20.7103729148 10.5084696605 -14.8914052602)
(-9.11719230189 21.0200780341 -12.2247365994)
(0.710705160212 28.9520513472 -2.02781478912)
(0.141699586033 37.1136701738 4.97280786028)
(-10.9466811297 44.7997013971 14.0012580968)
(-22.0521118005 54.276737767 14.3396848395)
(-24.2436270889 65.0697060656 -3.38860385844)
(-20.3085825871 72.405971786 -5.56068984629)
(-14.5958125972 77.8099557607 -8.53730218726)
(-9.56952175122 82.1320161084 -8.49817425688)
(-6.27646186933 86.0529413824 -8.34488977094)
(-3.56420745525 89.2851254816 -8.14576769234)
(-0.978865604591 90.8534443956 -8.52637728975)
(-2.18401941986 -25.8118043931 3.9584034129)
(-6.71331099278 -23.3583068649 2.25869952127)
(-10.2159150955 -20.255192303 0.755357229808)
(-12.4425018856 -16.5766680189 -0.419716605211)
(-14.4378934227 -12.5907353717 -1.19691959275)
(-17.2230205025 -6.86715899205 -3.1690721925)
(-17.5783477008 3.71287349885 -3.60413246794)
(-10.2073023242 15.6881013489 -13.9667129176)
(-0.558655826954 27.3402962784 -11.7998495285)
(7.13908559323 31.85681968 -2.7848369667)
(6.22461104515 36.8755080258 4.85722124057)
(-3.46514838313 42.193873608 13.6785512912)
(-12.3737978525 53.3489145024 13.8593235509)
(-15.52062685 64.7681974239 0.405770746125)
(-12.3913258471 73.3099147529 -2.16321587725)
(-7.90982642211 80.0533461771 -5.18599259814)
(-4.09549169444 85.2802401928 -5.31547008148)
(-2.17514397075 89.8953476213 -4.9280737541)
(-1.02979580354 93.5964069975 -4.48267325472)
(-0.134041071917 95.3471328219 -4.79449794066)
(-1.49859278842 -24.7041607431 2.0828302122)
(-4.66829548064 -22.5672856467 0.686235644322)
(-6.89249107761 -19.7084883421 -0.600202263812)
(-8.07950051301 -16.1949371029 -1.70207930351)
(-9.23984211951 -12.1575848192 -2.38862792366)
(-8.92374089805 -5.9607859465 -3.54997324253)
(-7.58932044469 4.33455038118 -0.27946144913)
(-2.24901050318 13.8689756313 0.192415229064)
(4.40604526775 25.5164696661 2.96586378945)
(8.01024052514 30.1805519306 5.06029873911)
(8.81462419758 35.5484029855 6.14138938768)
(4.81296866286 42.6302663054 6.75002091117)
(0.44477117767 54.221255658 4.15816092014)
(-2.09760649459 63.4555750966 2.20571061676)
(-2.81682445077 72.8224351744 0.114072663415)
(-0.028058146662 80.2746492891 -2.07087912082)
(2.07964307695 86.2836280658 -1.88444907689)
(2.40812164349 91.4997834334 -1.12409553708)