/*--------------------------------*- C++ -*----------------------------------*\
| =========                 |                                                 |
| \\      /  F ield         | OpenFOAM: The Open Source CFD Toolbox           |
|  \\    /   O peration     | Version:  v1606+                                |
|   \\  /    A nd           | Web:      www.OpenFOAM.com                      |
|    \\/     M anipulation  |                                                 |
\*---------------------------------------------------------------------------*/
FoamFile
{
    version     2.0;
    format      ascii;
    class       volScalarField;
    location    "4.3";
    object      p;
}
// * * * * * * * * * * * * * * * * * * * * * * * * * * * * * * * * * * * * * //

dimensions      [1 -1 -2 0 0 0 0];

internalField   nonuniform List<scalar> 
11640
(
5115.15178809
5115.90533611
5117.36030416
5119.45921155
5122.15276717
5125.37523771
5129.00789476
5132.91294635
5136.98800675
5141.13506235
5145.24894879
5149.23624876
5153.01059741
5156.45064144
5159.41460975
5161.88837226
5164.00203013
5165.71008421
5166.89220841
5167.50392327
5115.5732858
5116.36501673
5117.83918145
5119.95624247
5122.62930271
5125.79685663
5129.44935785
5133.45915092
5137.65969139
5141.92388493
5146.15008452
5150.24451631
5154.1280839
5157.6349142
5160.49203795
5162.58419224
5164.10284561
5165.37364584
5166.44405175
5167.05221541
5116.37127016
5117.1754211
5118.55674175
5120.30768633
5122.53115758
5125.49572884
5129.20400349
5133.41846872
5137.85792341
5142.34771977
5146.78650625
5151.0873783
5155.18012745
5158.86700758
5161.75518851
5163.64313601
5164.62670163
5165.10839938
5165.63175915
5166.1269524
5117.50565814
5118.18163647
5119.01324478
5120.0352316
5121.79944035
5124.60702706
5128.40973065
5132.84714501
5137.54441243
5142.26748139
5146.91959454
5151.42966332
5155.73767362
5159.64413669
5162.66224095
5164.50506333
5165.12813175
5164.92725715
5164.64508157
5164.7330316
5118.91009936
5119.14672422
5119.16509791
5119.52167751
5120.8997662
5123.58322611
5127.45779287
5132.03268955
5136.89695801
5141.74397865
5146.47841787
5151.0613691
5155.47244007
5159.54358352
5162.76107099
5164.65875008
5165.08652645
5164.40278857
5163.41491162
5162.97536228
5120.44443471
5120.1274023
5119.43320979
5119.2577517
5120.33667697
5122.91912559
5126.80846264
5131.35908466
5136.22758987
5141.01314477
5145.66312736
5150.13069179
5154.45621314
5158.4959176
5161.78630806
5163.75488619
5164.09620797
5163.11910205
5161.66167791
5160.77868879
5122.16361354
5121.39509089
5120.20215393
5119.63172814
5120.4615909
5122.92730827
5126.75981179
5131.02378361
5135.62429923
5139.89295733
5143.97325304
5148.01980453
5152.17146051
5156.26459647
5159.66708885
5161.65692005
5161.93638936
5160.80811276
5159.13681594
5158.03906982
5124.11603283
5123.13715767
5121.69031334
5120.87028544
5121.47870222
5123.76082303
5127.51055205
5131.41494583
5135.76727909
5139.47681977
5142.93434863
5146.3953702
5150.33207033
5153.84862211
5157.08065717
5158.89798755
5159.01046541
5157.74207326
5155.96423037
5154.80010793
5126.20967926
5125.15432025
5123.57246829
5122.56086568
5122.92333042
5124.914524
5128.35276562
5131.873372
5135.756836
5138.7494252
5141.47127807
5144.28808848
5147.83748404
5151.17880389
5154.23771109
5155.86140506
5155.75959594
5154.31142655
5152.40500347
5151.17726098
5128.31892586
5127.18335343
5125.45699943
5124.23824061
5124.33204336
5125.98601299
5128.9974021
5132.1317615
5135.48304027
5137.97117939
5140.25475585
5142.66577748
5145.77455052
5148.6095092
5151.32367075
5152.6258248
5152.25558725
5150.59586448
5148.54303583
5147.24231738
5130.39076483
5129.17375476
5127.29887111
5125.86477529
5125.66982733
5126.9522476
5129.42012223
5131.93314656
5134.67197548
5136.87719764
5138.94707897
5141.0861216
5143.716031
5146.08369757
5148.36021898
5149.27692378
5148.59112299
5146.6836447
5144.46127158
5143.0773836
5132.38733947
5131.09955398
5129.07057445
5127.40560492
5126.89921461
5127.83445568
5129.85394201
5132.2702453
5134.40780863
5136.25548749
5137.94127496
5139.66398137
5141.64836747
5143.5460014
5145.08750208
5145.4699307
5144.42922644
5142.32489159
5140.0470165
5138.71324661
5134.33351101
5133.13694028
5131.08051875
5129.20802363
5128.32495614
5128.71002474
5130.04464059
5131.68623448
5133.27910535
5134.73544162
5136.09629227
5137.44894498
5138.90387327
5140.23604167
5141.06265832
5140.85914063
5139.49606799
5137.3482257
5135.2692152
5134.2275642
5136.21086762
5135.35020684
5133.54540107
5131.64845469
5130.44234642
5130.25590262
5130.93666039
5132.01684279
5133.04452282
5133.87550723
5134.56939402
5135.21695593
5135.89339102
5136.4491395
5136.52776295
5135.76305954
5134.15782418
5132.13155029
5130.48847191
5129.8560782
5137.87151645
5137.44328349
5136.15527695
5134.46084767
5133.08441464
5132.40722507
5132.41873203
5132.7737292
5133.06599416
5133.16168888
5133.10240332
5132.95261569
5132.77689892
5132.49842656
5131.85779322
5130.63681493
5128.94113046
5127.22202494
5126.15562335
5125.84792938
5139.2075735
5139.10934022
5138.467549
5137.21483367
5135.88950346
5134.8975019
5134.33761283
5133.99519518
5133.54975741
5132.88674285
5132.04316784
5131.07765474
5130.05391067
5128.9629811
5127.68006165
5126.13439143
5124.50755291
5123.22734193
5122.52120554
5122.25133466
5140.30422843
5140.26054394
5140.04375569
5139.39065962
5138.35043123
5137.27001975
5136.31982521
5135.4133967
5134.34429658
5133.03560423
5131.52375615
5129.86586827
5128.13120909
5126.37147556
5124.60421551
5122.89306178
5121.41845181
5120.28315658
5119.52324989
5119.1824509
5141.1565562
5141.07986489
5140.89390153
5140.55498669
5139.94136859
5139.02495344
5137.93663851
5136.69944951
5135.23384646
5133.50986257
5131.56439601
5129.45619271
5127.25777727
5125.06442638
5122.97503638
5121.05614216
5119.38330134
5118.06040854
5117.17768295
5116.76884596
5141.74842265
5141.65297504
5141.42991599
5141.04593686
5140.4666497
5139.6554827
5138.57985603
5137.22142943
5135.57475798
5133.65714458
5131.5046686
5129.17860477
5126.75392326
5124.32155254
5121.98437356
5119.8455199
5118.00711749
5116.56132809
5115.58300539
5115.11342924
5142.06130964
5141.96068646
5141.72334695
5141.31803457
5140.70739439
5139.8532476
5138.72773137
5137.30996606
5135.59662338
5133.60555605
5131.37336191
5128.95967368
5126.44430952
5123.92074664
5121.49417689
5119.27085019
5117.35527713
5115.84087404
5114.8012104
5114.28008982
4788.15635898
4788.91535023
4790.39058571
4792.51812751
4795.16039668
4798.26816855
4801.87784556
4805.88351711
4810.10375716
4814.39506179
4818.65258003
4822.77936083
4826.68723778
4830.26164082
4833.34822735
4835.8941257
4838.01247699
4839.73418926
4840.93787473
4841.56372286
4788.57929834
4789.36391792
4790.75467808
4792.46657663
4794.50136197
4797.21791439
4800.83297764
4805.12273658
4809.69868455
4814.33693867
4818.93531623
4823.39740679
4827.64042849
4831.48298445
4834.57693646
4836.75471635
4838.24566292
4839.4597538
4840.50068509
4841.11928964
4789.3916573
4790.07621264
4790.79279612
4791.32397953
4792.43690959
4794.86721743
4798.74959925
4803.61074683
4808.82689268
4814.09271027
4819.30608455
4824.37465826
4829.22235695
4833.60315945
4836.9421206
4838.8051191
4839.38455122
4839.43882075
4839.74962812
4840.19489107
4790.54073765
4790.63406895
4789.95358518
4789.13704527
4789.55583905
4791.94041949
4796.26676872
4801.80362487
4807.74620512
4813.71623371
4819.61212025
4825.35343169
4830.8749407
4835.90019608
4839.65682664
4841.45428885
4841.33909461
4840.05691373
4838.98181686
4838.81545399
4791.82498132
4790.89138754
4788.71392711
4786.86131232
4786.86336198
4789.3857639
4794.19397602
4800.28731921
4806.81622108
4813.32668985
4819.71543148
4825.93741976
4831.94507812
4837.55081773
4841.75056996
4843.694344
4843.17057286
4840.85348247
4838.3066348
4837.11866848
4793.18778174
4791.23412593
4787.95445928
4785.41256016
4785.22580481
4787.98161443
4793.2083826
4799.60332691
4806.42559361
4813.14985893
4819.68797208
4825.97893389
4832.14413181
4837.90709893
4842.4551446
4844.64131442
4843.93330868
4840.92850914
4837.28401475
4835.08980426
4794.84626839
4792.24309382
4788.34599529
4785.40834439
4785.09873819
4787.96969334
4793.4113988
4799.6821749
4806.26369186
4812.47236617
4818.46283921
4824.36326568
4830.37325058
4836.51806164
4841.38842375
4843.77586038
4842.97233243
4839.58073447
4835.32312877
4832.49957888
4796.84342586
4794.01151071
4789.86985528
4786.71593326
4786.23115372
4788.98218655
4794.52010741
4800.75102716
4807.04456629
4812.40087772
4817.49029292
4822.63961733
4828.46872003
4834.19111459
4839.14423507
4841.44012341
4840.45662226
4836.83728008
4832.32911375
4829.28650559
4799.00183179
4796.09799919
4791.8236586
4788.47858991
4787.74131998
4790.1843207
4795.42021352
4801.32699362
4807.09958306
4811.64319279
4815.98291583
4820.50116258
4825.97064001
4831.43187624
4836.26918511
4838.37142789
4837.17670594
4833.36940487
4828.72362684
4825.60886811
4801.17480146
4798.19670293
4793.78090925
4790.2306309
4789.22285796
4791.3330632
4796.1565839
4801.62627488
4806.83686471
4810.8555062
4814.73122068
4818.80566566
4823.85068093
4828.79527825
4833.29709465
4835.09853782
4833.63506108
4829.60657306
4824.80306259
4821.60725607
4803.30830768
4800.25296688
4795.69317452
4791.92712249
4790.62590306
4792.35100342
4796.57443904
4801.33658555
4805.93302109
4809.73723458
4813.39540996
4817.25188008
4821.84649962
4826.25187352
4830.28551116
4831.70981028
4829.92238611
4825.63629902
4820.65199744
4817.36479491
4805.42967824
4802.45095233
4797.87538432
4793.95376321
4792.36046918
4793.67857887
4797.16143838
4801.45867443
4805.44088385
4809.13555197
4812.68634092
4816.28923592
4820.24034745
4824.02900407
4827.14769041
4827.91365224
4825.7028931
4821.17408509
4816.11627838
4812.893133
4807.61063977
4805.12772726
4800.91474322
4797.03169599
4795.08636363
4795.66316646
4798.21511344
4801.52753466
4804.92450021
4808.18222185
4811.33419245
4814.52314368
4817.85253377
4820.94020428
4823.02897194
4822.93622546
4820.24884292
4815.66042527
4810.91453882
4808.18817531
4809.72687399
4808.13099857
4804.78709853
4801.26509184
4799.09662337
4798.94640932
4800.56673834
4803.09999226
4805.67258254
4808.0481091
4810.28874788
4812.48795037
4814.72629363
4816.70345516
4817.62700581
4816.62263252
4813.56220703
4809.23940658
4805.32144043
4803.48485856
4811.50444644
4810.8323958
4808.75762504
4805.97811373
4803.84908052
4803.11161732
4803.76105322
4805.16307842
4806.58847607
4807.81481797
4808.88667043
4809.8657259
4810.81807443
4811.52031581
4811.29524639
4809.55286792
4806.41673238
4802.76749502
4800.1182925
4799.20408549
4812.89672662
4812.75976613
4811.90810694
4810.21912478
4808.46865874
4807.40471749
4807.20498332
4807.48115036
4807.70125945
4807.69583728
4807.50360312
4807.18057759
4806.79497178
4806.21153605
4804.97286113
4802.77450564
4799.92770309
4797.33313351
4795.89998534
4795.49034231
4814.02045412
4813.99638256
4813.74964145
4813.02883163
4811.93878497
4810.87595571
4810.09018587
4809.44048423
4808.63419744
4807.57638762
4806.30429115
4804.87506601
4803.36130724
4801.72771015
4799.77674308
4797.47808427
4795.24259352
4793.60476901
4792.70367269
4792.32979504
4814.89416997
4814.8341194
4814.66313035
4814.31758882
4813.68119493
4812.78046878
4811.74892904
4810.56352279
4809.12966702
4807.42477755
4805.48566371
4803.37119395
4801.15851172
4798.90480659
4796.63561359
4794.45537928
4792.60428056
4791.20939532
4790.28092663
4789.8386909
4815.50247409
4815.42168763
4815.21102963
4814.83504616
4814.26060372
4813.44827828
4812.36401425
4810.98594056
4809.30848936
4807.34615016
4805.13625893
4802.73983614
4800.23716269
4797.72226225
4795.30052187
4793.08041781
4791.16682821
4789.65593523
4788.62874314
4788.12492761
4815.82849462
4815.74058325
4815.51450635
4815.1156059
4814.50664074
4813.64976964
4812.51036582
4811.06893457
4809.32016908
4807.27899806
4804.98451164
4802.49755776
4799.90029703
4797.29049349
4794.77628076
4792.46892824
4790.47711703
4788.89771895
4787.80872522
4787.25769493
4460.6105089
4461.39305967
4462.91982559
4465.11186658
4467.81841587
4471.01862575
4474.768474
4478.94663174
4483.35191982
4487.83021746
4492.27131527
4496.57188768
4500.64167709
4504.36360601
4507.57695829
4510.22024263
4512.41023064
4514.18733122
4515.43572298
4516.08865408
4461.04896271
4461.85635996
4463.24807361
4464.93704501
4466.99464927
4469.81094854
4473.59533055
4478.09582189
4482.89709442
4487.76211736
4492.58144033
4497.25374394
4501.69183665
4505.70919638
4508.93517875
4511.18252638
4512.70592419
4513.93591602
4515.00159832
4515.64685785
4461.89873542
4462.55146473
4463.17286713
4463.63067036
4464.77170154
4467.33208492
4471.42321494
4476.53438218
4482.01726511
4487.54885371
4493.02040424
4498.33276672
4503.40489191
4507.98763339
4511.47121043
4513.42438091
4514.01316097
4514.00613761
4514.26819284
4514.71556877
4463.08764607
4463.05964469
4462.20993333
4461.31760517
4461.7912989
4464.34872443
4468.92427568
4474.73836983
4480.98080307
4487.24668213
4493.43058316
4499.442746
4505.2052654
4510.4409623
4514.33925207
4516.24720421
4516.14622497
4514.77934624
4513.57068761
4513.32956366
4464.40060137
4463.26913379
4460.90344925
4458.99238485
4459.09483114
4461.85193311
4466.95380913
4473.32161364
4480.16099762
4486.9818199
4493.67909576
4500.21200531
4506.47369835
4512.22028968
4516.54509561
4518.60947603
4518.11322007
4515.71158882
4512.98715946
4511.6417213
4465.81652542
4463.61486146
4460.14935256
4457.57648963
4457.54254981
4460.62384662
4466.26455603
4473.01593709
4480.20220125
4487.26806505
4494.17309677
4500.83734907
4507.0861254
4512.73787491
4517.29616371
4519.61231691
4518.94993048
4515.86759812
4512.03453176
4509.61928296
4467.56603109
4464.69446961
4460.61618902
4457.66035409
4457.51139373
4460.71932261
4466.61685374
4473.32656361
4480.37783596
4486.71100052
4492.79862882
4498.64210759
4504.58557415
4511.14184412
4516.09646513
4518.70549147
4517.9831784
4514.52602346
4510.07655595
4506.99355718
4469.68127173
4466.58031435
4462.26319726
4459.09795724
4458.76879248
4461.86287115
4467.66484929
4474.18730348
4481.28978411
4486.36388552
4491.25611168
4496.25484068
4502.37303771
4508.57221707
4513.91067113
4516.34443666
4515.4125833
4511.72548484
4507.0184792
4503.70116533
4471.96426428
4468.79381142
4464.34466122
4460.9829239
4460.37927682
4463.1366231
4468.57885309
4474.87576534
4481.37807524
4485.48037529
4489.52904198
4493.67158589
4499.35810045
4505.54224122
4510.92862369
4513.17715209
4512.03145166
4508.15422474
4503.30399923
4499.90977406
4474.26012377
4471.01654495
4466.42556688
4462.85232835
4461.96581815
4464.37948306
4469.4053804
4475.20415655
4481.03386221
4484.59599873
4488.19926571
4491.9050598
4497.21787446
4502.74518273
4507.84515724
4509.79099736
4508.37345521
4504.26796514
4499.25197743
4495.76992208
4476.51116902
4473.19088267
4468.45339228
4464.65666906
4463.46895552
4465.46754399
4469.79991538
4474.05449862
4479.26289188
4482.89555062
4486.57640937
4490.32119456
4495.30639137
4499.94244778
4504.6293166
4506.24471407
4504.52263675
4500.15312502
4494.94770968
4491.36583429
4478.75176933
4475.51912396
4470.76250517
4466.80067536
4465.31151581
4466.90904253
4470.45467103
4474.57114175
4478.46745518
4482.18648034
4485.78986306
4489.44515566
4493.65084026
4497.70950122
4501.29373662
4502.30668979
4500.15867019
4495.52591221
4490.23147631
4486.7073298
4481.06503884
4478.36264204
4473.96248208
4470.00512999
4468.10819954
4468.83288988
4471.44434813
4474.68340754
4478.09003649
4481.38501324
4484.67157814
4487.9755419
4491.46689063
4494.72964302
4497.09848392
4497.18379107
4494.51622829
4489.7910747
4484.79154276
4481.77779669
4483.32660911
4481.57205683
4478.04291975
4474.42469245
4472.26354693
4472.20617279
4473.93131691
4476.58560162
4479.23888275
4481.68811693
4484.00273758
4486.26721119
4488.58714137
4490.6396747
4491.67098078
4490.71364854
4487.59049723
4483.08445709
4478.89489165
4476.81271256
4485.22336662
4484.47375125
4482.25260466
4479.36348381
4477.20701217
4476.51366486
4477.24081629
4478.7361797
4480.23513383
4481.52351188
4482.64553354
4483.66711765
4484.66257712
4485.39764247
4485.19041115
4483.40522939
4480.13943619
4476.27150399
4473.35331968
4472.26145475
4486.69258567
4486.55434385
4485.6368708
4483.85111751
4482.05160632
4480.99705628
4480.84441568
4481.18292376
4481.44890225
4481.46919978
4481.28417242
4480.95387375
4480.55250782
4479.94106633
4478.64474308
4476.33258805
4473.30374912
4470.47011648
4468.82637443
4468.31944851
4487.86892459
4487.86448132
4487.62097557
4486.87322553
4485.74582258
4484.66423825
4483.88850366
4483.25628022
4482.45028014
4481.36988711
4480.05379585
4478.56205476
4476.97300275
4475.24908298
4473.17767109
4470.71218527
4468.2685299
4466.42435967
4465.39745215
4464.97320598
4488.78394
4488.73996089
4488.58656803
4488.24716058
4487.60806779
4486.70506721
4485.66689511
4484.45974631
4482.98062491
4481.20571549
4479.17306185
4476.94432818
4474.60215324
4472.20429229
4469.76970124
4467.39970711
4465.36595054
4463.83711201
4462.82293862
4462.32740611
4489.42330987
4489.35683408
4489.16125588
4488.79540243
4488.22446138
4487.40399414
4486.29482039
4484.87150267
4483.12361541
4481.06516712
4478.73464934
4476.19544826
4473.53392068
4470.8506639
4468.25944831
4465.87639313
4463.81493398
4462.17897676
4461.05926288
4460.5011235
4489.77016408
4489.69668196
4489.48450583
4489.09505497
4488.48798829
4487.62028079
4486.4527614
4484.96062267
4483.13605745
4480.99268863
4478.570093
4475.93255166
4473.16782366
4470.38046651
4467.6878442
4465.21013305
4463.06498355
4461.35825592
4460.17582397
4459.57183055
4132.49099674
4133.31783704
4134.93054239
4137.24364605
4140.09969006
4143.48433675
4147.45364996
4151.87584587
4156.53719074
4161.2749648
4165.96899857
4170.50892773
4174.79967424
4178.72141199
4182.10973432
4184.90292106
4187.21556651
4189.08581819
4190.39989169
4191.09035808
4132.96276366
4133.82512987
4135.2885676
4137.07011113
4139.26757546
4142.27286257
4146.28592192
4151.04045851
4156.10742404
4161.23984362
4166.31925621
4171.23659934
4175.8981539
4180.1157196
4183.50724747
4185.88921327
4187.51856925
4188.83252461
4189.96275977
4190.64732682
4133.87659154
4134.56903429
4135.23648856
4135.77866465
4137.06235135
4139.82030253
4144.14984507
4149.52338553
4155.28205004
4161.08915684
4166.82620186
4172.3852554
4177.67673996
4182.45777415
4186.0957406
4188.17889454
4188.86089505
4188.90963167
4189.2168181
4189.70234481
4135.15398543
4135.14136635
4134.32046379
4133.51088942
4134.13398651
4136.90111004
4141.72182209
4147.79621571
4154.3232732
4160.8721042
4167.32431207
4173.57514246
4179.53799413
4184.97369793
4189.00786641
4191.0392423
4191.02343285
4189.70056971
4188.51043085
4188.28697352
4136.5791323
4135.44175405
4133.09932795
4131.27360859
4131.5364827
4134.52468278
4139.87835079
4146.48239848
4153.59735029
4160.69152647
4167.64407136
4174.3423047
4180.74109354
4186.77609067
4191.23382703
4193.41768325
4192.9977961
4190.63193525
4187.91017547
4186.559286
4138.13596594
4135.91384785
4132.46997437
4129.9868293
4130.12616679
4133.4846013
4139.4747604
4146.63466319
4154.16914418
4161.48700933
4168.5681208
4175.37454749
4181.725656
4187.38257277
4191.97294616
4194.40871624
4193.81087435
4190.75634039
4186.91746782
4184.47674736
4140.05095733
4137.15245973
4133.09367995
4130.22450357
4130.23341195
4133.68801159
4139.61135593
4145.34098526
4152.97738675
4159.82237546
4166.30641362
4172.53128496
4178.00716282
4185.6633515
4190.51466762
4193.40097281
4192.7672232
4189.33904451
4184.87913996
4181.75660506
4142.34745088
4139.21916396
4134.92271194
4131.85000745
4131.69121495
4135.2634847
4141.07493422
4182.71212926
4188.06191392
4190.89825375
4190.08581646
4186.42328061
4181.69730006
4178.3313905
4144.81592691
4141.61663688
4137.18534573
4133.91165852
4133.46635927
4136.72449568
4142.03017967
4179.57045253
4184.93139937
4187.57201693
4186.54926161
4182.69247498
4177.81526725
4174.36665385
4147.29438623
4144.01953037
4139.44246978
4135.95093084
4135.21716732
4138.13956025
4143.09522135
4176.38782123
4181.6539381
4184.01553204
4182.7150544
4178.61613386
4173.5599323
4170.01527579
4149.72025654
4146.36536522
4141.63514376
4137.90829939
4136.85995467
4139.35682962
4143.8040836
4172.86973805
4178.31154546
4180.29322407
4178.66144718
4174.27909175
4169.01650364
4165.36252363
4152.12748592
4148.86042154
4144.10382721
4140.19564184
4138.8112902
4140.67502037
4144.23192316
4149.49158796
4152.94984906
4156.58161546
4160.04268833
4163.56976635
4167.7753194
4171.24319591
4175.10891478
4176.2298035
4174.08909354
4169.40615058
4164.02977245
4160.42085334
4154.5994738
4151.86889535
4147.4586991
4143.52681596
4141.69017259
4142.5268281
4145.15849869
4148.52386737
4151.80119266
4154.98347764
4158.0757126
4161.2524096
4164.71491299
4168.1629123
4170.73747813
4170.88511768
4168.19057366
4163.38406254
4158.28050841
4155.17534916
4157.00974843
4155.24126308
4151.69855629
4148.0916005
4145.96809003
4145.97366351
4147.73606124
4150.48811593
4153.1181463
4155.52425674
4157.7647563
4159.94839597
4162.20609068
4164.20098212
4165.21231117
4164.20234582
4160.98683917
4156.35822543
4152.04205602
4149.87007411
4159.03325272
4158.28886387
4156.06072354
4153.17228921
4151.03356681
4150.3695372
4151.11209354
4152.62654058
4154.09478464
4155.32772007
4156.37239088
4157.30310374
4158.20704941
4158.84251185
4158.53813938
4156.63290243
4153.22394965
4149.20099717
4146.14314124
4144.97177697
4160.60058722
4160.48487923
4159.57947024
4157.79225523
4155.99849491
4154.9544874
4154.80305786
4155.13043258
4155.34966452
4155.29184522
4155.00070021
4154.54173006
4153.99785558
4153.23164407
4151.77281662
4149.28422671
4146.07042385
4143.05794466
4141.2747487
4140.70310687
4161.85539885
4161.87102711
4161.65248607
4160.92058569
4159.79648841
4158.70997695
4157.91693838
4157.24682112
4156.36847089
4155.18049778
4153.72410979
4152.06417522
4150.28714141
4148.36165212
4146.07912483
4143.39586259
4140.73764817
4138.70269673
4137.54890483
4137.07149131
4162.83123611
4162.80331099
4162.67002232
4162.34641483
4161.71678353
4160.80975186
4159.74372926
4158.47766593
4156.90226541
4154.9929591
4152.78990058
4150.35939405
4147.79218535
4145.15402062
4142.47058874
4139.85208074
4137.59043992
4135.8813529
4134.74638541
4134.19109006
4163.51529493
4163.46330049
4163.28553456
4162.93218872
4162.36355028
4161.52784314
4160.37765992
4158.88092196
4157.02121628
4154.81094489
4152.29041417
4149.52769399
4146.6170152
4143.67098749
4140.81527207
4138.18039114
4135.89357481
4134.07241537
4132.82148036
4132.19699904
4163.88897199
4163.83217187
4163.63741798
4163.26046724
4162.6544573
4161.7689334
4160.55703983
4158.98631493
4157.04368076
4154.74139036
4152.12019935
4149.24949832
4146.22490082
4143.16307309
4140.19430032
4137.45422601
4135.07490046
4133.17608238
4131.85581165
4131.17892475
3803.7553379
3804.64677591
3806.38220398
3808.87572463
3811.96236818
3815.61939475
3819.89337218
3824.64263991
3829.64369516
3834.72385202
3839.75212715
3844.608943
3849.19173913
3853.37594746
3856.99222802
3859.98063562
3862.4535098
3864.44762559
3865.84843468
3866.5866413
3804.27733524
3805.21767899
3806.8098963
3808.77056263
3811.19546273
3814.47024072
3818.78544709
3823.86468467
3829.26822192
3834.73925286
3840.14889879
3845.37750038
3850.3221641
3854.79336499
3858.40209994
3860.97072786
3862.75454913
3864.1880124
3865.4040808
3866.13930336
3805.28406587
3806.06090337
3806.8584146
3807.57735716
3809.08543122
3812.11027378
3816.73722237
3822.43095491
3828.52291391
3834.66462559
3840.72608736
3846.58698994
3852.14622621
3857.16612649
3860.9996883
3863.25647229
3864.08362018
3864.24587455
3864.63703866
3865.17383561
3806.6991773
3806.76971934
3806.07469221
3805.43659119
3806.27902785
3809.30843929
3814.41541083
3820.79969992
3827.65771776
3834.54141948
3841.3172107
3847.86408668
3854.07518313
3859.72241014
3863.91148331
3866.10014932
3866.21617521
3864.99825854
3863.8890857
3863.71696804
3808.30036135
3807.24178831
3805.01917313
3803.35820399
3803.83309005
3807.07787975
3812.69516285
3819.57792741
3827.01549351
3834.45448839
3841.75490626
3848.80074662
3855.48616087
3861.5955823
3866.12465647
3868.44719167
3868.14142326
3865.86887469
3863.2222508
3861.9214256
3810.06454183
3807.91621227
3804.58649915
3802.2613704
3802.60398795
3806.22369273
3812.47815586
3819.97415111
3827.88629208
3835.59259871
3843.07402239
3850.24826335
3856.70337983
3862.36979024
3866.84555103
3869.39668209
3868.88254484
3865.90532539
3862.13284815
3859.73899108
3812.20959991
3809.38054131
3805.42969348
3802.70782279
3802.89342195
3806.58286734
3812.63334718
3818.66970644
3826.83974925
3834.38467939
3841.66452133
3848.56155964
3854.07450333
3860.68146555
3865.21860424
3868.28645352
3867.72112293
3864.36149207
3859.96048358
3856.88029667
3814.75072932
3811.68994255
3807.49856151
3804.57115597
3804.57865639
3808.44484305
3814.16944754
3857.99921145
3862.68316354
3865.65170125
3864.89005849
3861.28294661
3856.60350282
3853.27255204
3817.46876041
3814.33434551
3810.00309528
3806.8670524
3806.56494454
3810.09139993
3815.28354338
3854.65521436
3859.345658
3862.12317271
3861.14925749
3857.3373745
3852.49512298
3849.07408246
3820.19361948
3816.97887034
3812.49579303
3809.1335514
3808.53108261
3811.70658284
3816.51986933
3851.31971853
3855.84949218
3858.3423012
3857.07779473
3853.00224222
3847.96289157
3844.4353338
3822.85495025
3819.55475948
3814.90911472
3811.29664353
3810.36399327
3813.10307154
3817.26850353
3847.60303842
3852.29328464
3854.35681639
3852.74652607
3848.359908
3843.09146597
3839.44190183
3825.48351693
3822.26487224
3817.58349602
3813.77475081
3812.4991651
3814.57665315
3818.03014849
3823.24600959
3826.46194471
3830.02549205
3833.38668345
3836.85335552
3841.18562395
3845.01797698
3848.92593744
3850.04813968
3847.8710848
3843.14218919
3837.73054671
3834.11058966
3828.15631329
3825.46868736
3821.12016886
3817.26260546
3815.50195722
3816.43334603
3819.00073985
3822.35527464
3825.5131309
3828.62792835
3831.65320084
3834.74247896
3838.16505888
3841.71185584
3844.28879546
3844.39265984
3841.62068391
3836.73079632
3831.56501299
3828.43420931
3830.74690028
3829.01718642
3825.52774876
3821.98233702
3819.92398493
3819.99871732
3821.77341067
3824.5602395
3827.12253052
3829.4525334
3831.5868311
3833.64491372
3835.77967078
3837.64920426
3838.53966024
3837.39759168
3834.04335141
3829.28838594
3824.88330477
3822.673395
3832.92669355
3832.21641221
3830.03423309
3827.19396885
3825.10103792
3824.47334147
3825.21518217
3826.71474494
3828.10639145
3829.22957195
3830.13139234
3830.8939778
3831.62139113
3832.07207349
3831.58016149
3829.48152742
3825.88513529
3821.70099537
3818.53256551
3817.31367679
3834.6252213
3834.53819135
3833.67156496
3831.92230443
3830.16024816
3829.13287862
3828.96734258
3829.25085651
3829.3758821
3829.1799368
3828.70959756
3828.03745393
3827.25848956
3826.24307163
3824.53105396
3821.79281502
3818.34810554
3815.14477603
3813.23280086
3812.60367867
3835.98554665
3836.02480284
3835.83787356
3835.13497747
3834.0307775
3832.94500824
3832.1210973
3831.38228322
3830.3858191
3829.03014428
3827.35919766
3825.44462936
3823.38405255
3821.15818716
3818.57163512
3815.59501284
3812.67204778
3810.42143786
3809.12172077
3808.57667926
3837.04216859
3837.03341765
3836.92555567
3836.62343211
3836.00410999
3835.08575149
3833.97481132
3832.62125179
3830.90731489
3828.80597583
3826.35965542
3823.6412854
3820.75289003
3817.77452366
3814.74832271
3811.80258474
3809.24885015
3807.30256322
3806.00452387
3805.37169983
3837.78375995
3837.74929971
3837.5939318
3837.25829567
3836.69408692
3835.83922493
3834.63447354
3833.03764401
3831.02479645
3828.60515235
3825.8211823
3822.74713778
3819.48965074
3816.17574159
3812.95083749
3809.96462732
3807.36476397
3805.28910484
3803.8605262
3803.14824751
3838.19052451
3838.15250898
3837.98019989
3837.62042855
3837.01658906
3836.10814785
3834.83694748
3833.15981723
3831.05605619
3828.53521608
3825.63980973
3822.44557477
3819.06069583
3815.61688254
3812.26512244
3809.16072461
3806.45656491
3804.29332646
3802.78554277
3802.01050633
3474.34717687
3475.32448307
3477.22239876
3479.95250611
3483.33908227
3487.34792848
3492.01304155
3497.18144404
3502.61553108
3508.13090036
3513.58486234
3518.84600498
3523.80189176
3528.32122611
3532.22802502
3535.46652178
3538.14301618
3540.29374452
3541.80347566
3542.60021673
3474.93664141
3475.9765935
3477.73733804
3479.93346965
3482.6542559
3486.27629208
3490.97791319
3496.4710058
3502.30173583
3508.20227269
3514.03157104
3519.65701586
3524.96422146
3529.76102722
3533.65017256
3536.45859146
3538.43942754
3540.02478977
3541.34856798
3542.14552984
3476.06755228
3476.95053596
3477.91755032
3478.86880089
3480.66784807
3484.03422876
3489.03838568
3495.13780111
3501.6482931
3508.21118208
3514.68326733
3520.92848463
3526.83133941
3532.1616897
3536.25377603
3538.7366153
3539.75017894
3540.05773559
3540.55458146
3541.15400842
3477.66442468
3477.83991994
3477.30916991
3476.89595286
3478.02110069
3481.38341422
3486.85072225
3493.62627719
3500.89028693
3508.18670548
3515.36449369
3522.28137639
3528.8028066
3534.74568697
3539.15910034
3541.55745462
3541.84481993
3540.76253949
3539.75561782
3539.64593545
3479.49536371
3478.53608452
3476.46971604
3475.02410902
3475.7706686
3479.33690589
3485.28286209
3492.52120568
3500.33877906
3508.18267599
3515.8847633
3523.2954437
3530.20200623
3536.63297256
3541.34307683
3543.86207815
3543.70822369
3541.55836146
3539.00726567
3537.76732326
3481.52739939
3479.47189068
3476.29080922
3474.17187531
3474.77520108
3478.71518135
3485.25957129
3493.09282629
3501.38318068
3509.49810735
3517.36082111
3524.84847971
3531.48313557
3537.44990293
3542.01590921
3544.75082719
3544.35774163
3541.48634036
3537.79911427
3535.46217413
3483.96791917
3481.22648009
3477.41692878
3474.89007501
3475.3147743
3479.3294751
3485.62521627
3491.76538331
3500.1889048
3508.13655574
3515.72292365
3523.12458425
3528.72093368
3535.42700482
3540.18830106
3543.51130601
3543.05059589
3539.78701413
3535.46116257
3532.43212213
3486.82261973
3483.84596211
3479.79110021
3477.05397923
3477.28666985
3481.55771017