/*--------------------------------*- C++ -*----------------------------------*\
| =========                 |                                                 |
| \\      /  F ield         | OpenFOAM: The Open Source CFD Toolbox           |
|  \\    /   O peration     | Version:  v1606+                                |
|   \\  /    A nd           | Web:      www.OpenFOAM.com                      |
|    \\/     M anipulation  |                                                 |
\*---------------------------------------------------------------------------*/
FoamFile
{
    version     2.0;
    format      ascii;
    class       volScalarField;
    location    "4.3";
    object      rAU;
}
// * * * * * * * * * * * * * * * * * * * * * * * * * * * * * * * * * * * * * //

dimensions      [-1 3 1 0 0 0 0];

internalField   nonuniform List<scalar> 
11640
(
1.05219128887e-05
1.05164817394e-05
1.05148683815e-05
1.05146778798e-05
1.05163220646e-05
1.05195394036e-05
1.05238614614e-05
1.05286090551e-05
1.04966382988e-05
1.04759853214e-05
1.04945335527e-05
1.05028804632e-05
1.05065909925e-05
1.0508225942e-05
1.05093177696e-05
1.05106811695e-05
1.05121576868e-05
1.05135663027e-05
1.05159323633e-05
1.05222814354e-05
1.05164460239e-05
1.04933621917e-05
1.04852537272e-05
1.04841589956e-05
1.04879876301e-05
1.04931311152e-05
1.04976759369e-05
1.04998336214e-05
1.04724056071e-05
1.04544864119e-05
1.04664447108e-05
1.04713949591e-05
1.04747794379e-05
1.04764803901e-05
1.04772879719e-05
1.04782946499e-05
1.04797108088e-05
1.0483679295e-05
1.04932348729e-05
1.05165614079e-05
1.05152945115e-05
1.04860084884e-05
1.04781332667e-05
1.04803219287e-05
1.04867702921e-05
1.0492482512e-05
1.04964597227e-05
1.04852056852e-05
1.04631011721e-05
1.04586151499e-05
1.04639740092e-05
1.04675733548e-05
1.04692222069e-05
1.04693685746e-05
1.04692851083e-05
1.04695519184e-05
1.04701155135e-05
1.04741471699e-05
1.04857047123e-05
1.05150024068e-05
1.05154191549e-05
1.04850411917e-05
1.04809529393e-05
1.04872751544e-05
1.04949630544e-05
1.04988056503e-05
1.05012831141e-05
1.04636712701e-05
1.04402298847e-05
1.04603486414e-05
1.04648165204e-05
1.04687526002e-05
1.04702216724e-05
1.04667543967e-05
1.04619766884e-05
1.04576440275e-05
1.04254997764e-05
1.04501524259e-05
1.04813039901e-05
1.05147657369e-05
1.05172762157e-05
1.04890253845e-05
1.0488789546e-05
1.04966451989e-05
1.04991045817e-05
1.04968105967e-05
1.04935436419e-05
1.04577648241e-05
1.04419570325e-05
1.04630892198e-05
1.04617518982e-05
1.04440201925e-05
1.0422825083e-05
1.03955307806e-05
1.03766762565e-05
1.03780662201e-05
1.03974113053e-05
1.04300967574e-05
1.04723603514e-05
1.05144565956e-05
1.05202249466e-05
1.04950388721e-05
1.04967303159e-05
1.04995674602e-05
1.04941229737e-05
1.04907077783e-05
1.04781319736e-05
1.0441226042e-05
1.04388794911e-05
1.04655794024e-05
1.04663905612e-05
1.04431207389e-05
1.04521961192e-05
1.03856621425e-05
1.03579160644e-05
1.03539910107e-05
1.03732607252e-05
1.04116131103e-05
1.04568397958e-05
1.05135240477e-05
1.05241909456e-05
1.05002230757e-05
1.05003382225e-05
1.04947457377e-05
1.04913390695e-05
1.04907924576e-05
1.04667696803e-05
1.04375256644e-05
1.04651321583e-05
1.04869557625e-05
1.04726854758e-05
1.0450590843e-05
1.03964851404e-05
1.03593808542e-05
1.03472168077e-05
1.03330516771e-05
1.03574423421e-05
1.04005080148e-05
1.04501762175e-05
1.05129051828e-05
1.05294617364e-05
1.0504345268e-05
1.04999575021e-05
1.0490871929e-05
1.04914558621e-05
1.04890090546e-05
1.04623765476e-05
1.04509564802e-05
1.04853177561e-05
1.05030273977e-05
1.04920855372e-05
1.04646750302e-05
1.04118451216e-05
1.04107072593e-05
1.03373253093e-05
1.03279424566e-05
1.03567749983e-05
1.03972158999e-05
1.04484641621e-05
1.05136704231e-05
1.05149315847e-05
1.0500582045e-05
1.04955224178e-05
1.04874456495e-05
1.04919406576e-05
1.0488263734e-05
1.04598308464e-05
1.04694126125e-05
1.05058749793e-05
1.05183267188e-05
1.04963664019e-05
1.04637454407e-05
1.04513450171e-05
1.04479922058e-05
1.03265284034e-05
1.03247257156e-05
1.03563932027e-05
1.03976062009e-05
1.04489512214e-05
1.05148036865e-05
1.04958863785e-05
1.04890686244e-05
1.04849149576e-05
1.04814087593e-05
1.04883657917e-05
1.04845562522e-05
1.04660708641e-05
1.04789519322e-05
1.05141339491e-05
1.05208183505e-05
1.04921101403e-05
1.0459172766e-05
1.04358807721e-05
1.03976953969e-05
1.0340465669e-05
1.03331174811e-05
1.03580660769e-05
1.03987917419e-05
1.04503984663e-05
1.05163628531e-05
1.050144898e-05
1.0485579743e-05
1.04762755522e-05
1.04758064192e-05
1.04859351949e-05
1.04832167956e-05
1.04827015332e-05
1.05077980424e-05
1.05060806713e-05
1.04944718434e-05
1.0479333521e-05
1.04514325993e-05
1.04099097749e-05
1.03696873412e-05
1.03484707652e-05
1.03386246557e-05
1.03574202646e-05
1.03864303801e-05
1.04509846038e-05
1.05175122114e-05
1.05101217832e-05
1.04884175455e-05
1.0471642927e-05
1.04704528267e-05
1.04801042856e-05
1.04700521486e-05
1.04638622849e-05
1.0507539526e-05
1.04909641583e-05
1.04681924683e-05
1.04706643681e-05
1.04265365932e-05
1.03832348012e-05
1.03582555732e-05
1.03408370686e-05
1.03318143746e-05
1.03480286868e-05
1.0373945314e-05
1.04405239076e-05
1.05003937639e-05
1.05110812109e-05
1.04865626096e-05
1.04688443416e-05
1.04649739934e-05
1.04701839347e-05
1.04721638627e-05
1.04671790801e-05
1.0471142374e-05
1.04668988183e-05
1.04505282887e-05
1.04290811025e-05
1.04065732487e-05
1.03787978877e-05
1.03517895867e-05
1.03343093646e-05
1.03319503721e-05
1.03509788805e-05
1.03867734252e-05
1.04440258053e-05
1.04912661997e-05
1.05098203133e-05
1.04805175346e-05
1.04692724185e-05
1.04618581754e-05
1.04635248887e-05
1.04653118914e-05
1.04612177961e-05
1.04574217797e-05
1.04574245034e-05
1.04468136873e-05
1.04238516927e-05
1.04056681606e-05
1.03841946114e-05
1.03620623666e-05
1.03499880256e-05
1.03536917284e-05
1.03750619933e-05
1.04091591211e-05
1.04590781256e-05
1.05030224325e-05
1.05095824953e-05
1.04750561237e-05
1.04669683046e-05
1.04621632538e-05
1.0459485794e-05
1.04594455805e-05
1.04577401236e-05
1.0454273207e-05
1.04528585485e-05
1.04492030617e-05
1.04289010141e-05
1.0410019683e-05
1.03922718607e-05
1.03779525608e-05
1.03729494993e-05
1.03806265212e-05
1.0401074688e-05
1.04382229779e-05
1.04668566058e-05
1.05083870179e-05
1.05109388195e-05
1.04747013655e-05
1.04627949307e-05
1.04600214249e-05
1.04596029457e-05
1.04584459307e-05
1.04573788463e-05
1.0455907804e-05
1.04537228485e-05
1.04429942889e-05
1.04267285058e-05
1.04157261043e-05
1.04067315609e-05
1.04125057863e-05
1.04147287933e-05
1.04228388078e-05
1.04357078265e-05
1.0451598493e-05
1.04709768497e-05
1.05101324613e-05
1.05126504642e-05
1.04777115965e-05
1.04647016304e-05
1.04584546057e-05
1.04567218951e-05
1.04563749296e-05
1.04560958565e-05
1.04554274962e-05
1.04560171147e-05
1.04395519504e-05
1.04251805475e-05
1.04321465756e-05
1.04367968521e-05
1.04378761966e-05
1.04394802535e-05
1.0443348182e-05
1.04500318552e-05
1.04584898832e-05
1.04725086363e-05
1.05103622505e-05
1.0514366188e-05
1.04831157657e-05
1.04713315534e-05
1.04653814837e-05
1.04627776333e-05
1.0461795632e-05
1.04617858477e-05
1.04630963178e-05
1.0466687173e-05
1.04469541228e-05
1.04312996771e-05
1.04429596689e-05
1.04494981922e-05
1.04518104005e-05
1.04538235127e-05
1.04563991865e-05
1.04592251045e-05
1.04639835079e-05
1.04763583589e-05
1.05111454245e-05
1.05165355031e-05
1.04929701743e-05
1.04841888486e-05
1.0479698972e-05
1.04777503842e-05
1.04771072885e-05
1.04775398786e-05
1.04793936986e-05
1.04828687473e-05
1.04634633828e-05
1.0447916277e-05
1.04596798487e-05
1.04673075119e-05
1.04698137164e-05
1.04707612748e-05
1.04716612197e-05
1.04725213486e-05
1.04762621308e-05
1.04855261564e-05
1.05143415382e-05
1.0522216145e-05
1.05161271825e-05
1.05144977489e-05
1.05144469962e-05
1.0514563299e-05
1.05149053554e-05
1.05158484395e-05
1.05176834307e-05
1.05205087982e-05
1.05169125845e-05
1.05015977482e-05
1.0497730144e-05
1.05059479993e-05
1.05090341981e-05
1.05101625026e-05
1.05106787077e-05
1.05107505512e-05
1.05116446268e-05
1.05146223015e-05
1.0522040569e-05
1.04994857031e-05
1.04820828673e-05
1.04763236684e-05
1.04740797349e-05
1.04744196427e-05
1.04767642992e-05
1.04800164192e-05
1.04811942752e-05
1.04739512637e-05
1.04640621674e-05
1.0461845879e-05
1.04644342458e-05
1.04670369461e-05
1.04683773867e-05
1.0468864156e-05
1.04688366302e-05
1.04704240061e-05
1.04742536922e-05
1.04812754187e-05
1.05000398821e-05
1.04818423205e-05
1.03848037182e-05
1.03438869157e-05
1.03290964474e-05
1.03260155962e-05
1.03270821668e-05
1.0328738492e-05
1.03270490333e-05
1.03171102404e-05
1.03072898839e-05
1.03057350527e-05
1.03094496248e-05
1.03152820277e-05
1.03196624314e-05
1.03209679842e-05
1.03202633767e-05
1.03239882735e-05
1.03396986704e-05
1.03815264978e-05
1.04811849478e-05
1.04763025635e-05
1.0344363287e-05
1.0288810401e-05
1.02688562117e-05
1.0263773861e-05
1.02641261269e-05
1.0265873401e-05
1.02623242396e-05
1.02493171874e-05
1.02412113137e-05
1.0243933277e-05
1.0255424267e-05
1.02670633833e-05
1.02761534679e-05
1.02788673303e-05
1.02737843618e-05
1.02729953037e-05
1.02883679116e-05
1.03414642967e-05
1.04746864786e-05
1.0474429253e-05
1.03297292359e-05
1.02697176704e-05
1.02491860393e-05
1.02441091393e-05
1.02430449465e-05
1.02446198514e-05
1.02405839624e-05
1.02262396395e-05
1.02246334235e-05
1.02339084825e-05
1.02544576053e-05
1.02718037054e-05
1.02831334383e-05
1.02821176936e-05
1.02691708296e-05
1.02285820561e-05
1.02575952096e-05
1.03272193197e-05
1.04724501054e-05
1.04750535359e-05
1.03266280169e-05
1.02668772879e-05
1.02470625963e-05
1.02367721844e-05
1.02278821676e-05
1.02276045323e-05
1.02339086222e-05
1.02232672191e-05
1.022059759e-05
1.02303584816e-05
1.02329114925e-05
1.02223842679e-05
1.02236161487e-05
1.02192693284e-05
1.02114494202e-05
1.02141414553e-05
1.02455210722e-05
1.03200787404e-05
1.04724717463e-05
1.04763347036e-05
1.03283493475e-05
1.02707217404e-05
1.02469378854e-05
1.02309130018e-05
1.02199671131e-05
1.02081511736e-05
1.02509144482e-05
1.02600067199e-05
1.02587417569e-05
1.02517206321e-05
1.02315514498e-05
1.02376209337e-05
1.01958990265e-05
1.01972711886e-05
1.02124120887e-05
1.021152719e-05
1.02406515354e-05
1.03109903483e-05
1.0472790519e-05
1.04773444749e-05
1.03307601194e-05
1.02739601095e-05
1.02434878633e-05
1.02317986433e-05
1.02384504037e-05
1.02447846308e-05
1.02644225857e-05
1.0318129108e-05
1.03410524151e-05
1.03224512122e-05
1.03081713827e-05
1.0251463794e-05
1.02189820236e-05
1.02139617288e-05
1.02188882181e-05
1.02148020069e-05
1.02401575206e-05
1.03096662436e-05
1.04731754191e-05
1.0478170115e-05
1.03328967919e-05
1.02747903588e-05
1.024128571e-05
1.0226495963e-05
1.02348529631e-05
1.02856354455e-05
1.03338236285e-05
1.03899681329e-05
1.03954260126e-05
1.03932824758e-05
1.03730447005e-05
1.03246601546e-05
1.03114169887e-05
1.02396996093e-05
1.02406691534e-05
1.02240380042e-05
1.0242466058e-05
1.03102092945e-05
1.04739909484e-05
1.04759889126e-05
1.03328356155e-05
1.02728964799e-05
1.02383970885e-05
1.02226771342e-05
1.02338136578e-05
1.02950945263e-05
1.03793813985e-05
1.04349102448e-05
1.04566683415e-05
1.04085745797e-05
1.03882587136e-05
1.03648298669e-05
1.03193426542e-05
1.02209846169e-05
1.02306725489e-05
1.02221919093e-05
1.02433187717e-05
1.03105832988e-05
1.0474799296e-05
1.04701442714e-05
1.03297854265e-05
1.02667481717e-05
1.02317024305e-05
1.02125987136e-05
1.02291102999e-05
1.02990491253e-05
1.0357514412e-05
1.04110435601e-05
1.04483760453e-05
1.04086270032e-05
1.04374933054e-05
1.0398004583e-05
1.02907953224e-05
1.02282547966e-05
1.02280060954e-05
1.02183324775e-05
1.02412288143e-05
1.03095799988e-05
1.04752269812e-05
1.04670700459e-05
1.03260478491e-05
1.02579280243e-05
1.02212730941e-05
1.01969109902e-05
1.02050515037e-05
1.02743442775e-05
1.03245766758e-05
1.03586936208e-05
1.03881777995e-05
1.0387907303e-05
1.04358481925e-05
1.03808943921e-05
1.02745769752e-05
1.02252032245e-05
1.02202856096e-05
1.02127488534e-05
1.02359259711e-05
1.03112804834e-05
1.04736558475e-05
1.04672883915e-05
1.03211454581e-05
1.02468712767e-05
1.02082640369e-05
1.01832501521e-05
1.01754831401e-05
1.02385286979e-05
1.02791207657e-05
1.02848533745e-05
1.02796754492e-05
1.03166488934e-05
1.03273641866e-05
1.02755945324e-05
1.02430502243e-05
1.02271237134e-05
1.02042625387e-05
1.02035985281e-05
1.02272644861e-05
1.03051219742e-05
1.046646976e-05
1.04664598458e-05
1.03134135131e-05
1.02370047189e-05
1.01970502029e-05
1.01748110596e-05
1.01613916467e-05
1.01920590794e-05
1.02234446368e-05
1.02247660897e-05
1.02236119214e-05
1.02317020557e-05
1.02100912754e-05
1.01776648674e-05
1.0198654896e-05
1.01939568705e-05
1.01848058263e-05
1.01902504459e-05
1.02169631546e-05
1.02974914099e-05
1.04604557938e-05
1.04648361457e-05
1.03029872121e-05
1.02306486542e-05
1.01892765233e-05
1.01682539232e-05
1.01609203064e-05
1.01623301657e-05
1.01787201553e-05
1.01866045648e-05
1.01923254556e-05
1.01981787779e-05
1.01922630158e-05
1.01728672545e-05
1.01701654475e-05
1.01691114859e-05
1.01667651617e-05
1.01775266394e-05
1.02084585384e-05
1.02926865712e-05
1.04609900558e-05
1.04644970195e-05
1.02952737338e-05
1.02238712418e-05
1.01879843592e-05
1.01666890833e-05
1.01580427877e-05
1.01576053161e-05
1.01561245382e-05
1.01621951972e-05
1.01641272895e-05
1.01549959035e-05
1.01430003195e-05
1.01379622603e-05
1.0142010616e-05
1.01462425745e-05
1.01523026868e-05
1.01680169825e-05
1.02113322696e-05
1.02884522027e-05
1.04631397467e-05
1.04660377556e-05
1.02967774205e-05
1.02209159461e-05
1.01875782549e-05
1.01711363376e-05
1.01618977641e-05
1.01578267997e-05
1.01550628136e-05
1.01512108386e-05
1.01450615294e-05
1.01326189546e-05
1.01246832279e-05
1.01273449226e-05
1.01431273187e-05
1.01513153725e-05
1.01605066514e-05
1.0175995035e-05
1.02105207377e-05
1.02897213816e-05
1.0464808855e-05
1.04692052166e-05
1.03079622278e-05
1.02338523503e-05
1.0197360618e-05
1.01795189453e-05
1.01701557703e-05
1.01647362713e-05
1.01607472579e-05
1.0158016839e-05
1.01552032966e-05
1.0145386061e-05
1.01420619809e-05
1.01498663061e-05
1.01558318038e-05
1.0161300404e-05
1.01691037829e-05
1.01860641631e-05
1.02218454582e-05
1.02985095667e-05
1.04667114227e-05
1.04738290024e-05
1.03306923211e-05
1.02654803861e-05
1.02333073101e-05
1.02159008761e-05
1.0205888877e-05
1.02007697267e-05
1.01988109483e-05
1.01984936697e-05
1.0194902508e-05
1.0183893339e-05
1.01798300215e-05
1.01850646961e-05
1.01892519452e-05
1.01945714754e-05
1.02036074016e-05
1.02201842455e-05
1.0252463849e-05
1.03207305777e-05
1.04707054252e-05
1.04813187135e-05
1.03771497334e-05
1.03308763797e-05
1.03080017533e-05
1.02957051042e-05
1.02889031429e-05
1.02857575453e-05
1.02850321492e-05
1.02853151572e-05
1.02821251289e-05
1.02720242734e-05
1.02677920458e-05
1.02718575367e-05
1.02752458596e-05
1.02792686545e-05
1.0285824787e-05
1.02972501415e-05
1.03203361621e-05
1.03684201508e-05
1.04796018435e-05
1.04999293381e-05
1.04802242682e-05
1.04729268035e-05
1.04698852499e-05
1.04683133415e-05
1.04674520808e-05
1.04675818245e-05
1.04685936738e-05
1.04696975771e-05
1.04676934751e-05
1.04602305489e-05
1.0456654764e-05
1.0459269014e-05
1.04614227057e-05
1.04630840949e-05
1.04648110597e-05
1.04668821745e-05
1.04710976627e-05
1.04797744908e-05
1.05006504292e-05
1.04925508941e-05
1.04690688426e-05
1.04608036085e-05
1.04570291149e-05
1.04564143033e-05
1.04580329292e-05
1.0459999583e-05
1.04592905848e-05
1.04551946354e-05
1.04506975143e-05
1.04486762867e-05
1.04492737003e-05
1.04503985603e-05
1.04507325655e-05
1.04501987428e-05
1.04499467028e-05
1.04520069311e-05
1.04575663826e-05
1.04681780067e-05
1.04932041264e-05
1.04687471292e-05
1.03190748158e-05
1.02522583484e-05
1.02250882572e-05
1.02157742851e-05
1.02135980315e-05
1.02133798554e-05
1.02114591157e-05
1.02062005337e-05
1.02008389987e-05
1.01983660581e-05
1.01987571325e-05
1.01997798656e-05
1.01995834033e-05
1.01986125818e-05
1.02009900353e-05
1.02135804268e-05
1.02436774659e-05
1.03124038973e-05
1.04680398826e-05
1.0460722589e-05
1.02525960325e-05
1.01553457653e-05
1.01145938309e-05
1.00995591379e-05
1.00958001788e-05
1.00968612701e-05
1.00965267168e-05
1.00907056951e-05
1.00859415386e-05
1.00854719919e-05
1.00886935901e-05
1.00903383296e-05
1.00906691086e-05
1.00884281036e-05
1.008799606e-05
1.01043846521e-05
1.01477764353e-05
1.02452530981e-05
1.04585629644e-05
1.04571963547e-05
1.02250767905e-05
1.01152642059e-05
1.00704370849e-05
1.00556628121e-05
1.00549428164e-05
1.00620174187e-05
1.00701575373e-05
1.0064853216e-05
1.00611637564e-05
1.00632820011e-05
1.00676938717e-05
1.00652211251e-05
1.00628578347e-05
1.00571244407e-05
1.00502074036e-05
1.00608516124e-05
1.01074573321e-05
1.02168021819e-05
1.0454019805e-05
1.04565741115e-05
1.02153095076e-05
1.01028952295e-05
1.0060143691e-05
1.0049379699e-05
1.0046677757e-05
1.00629470897e-05
1.00951470306e-05
1.00903935797e-05
1.00790602344e-05
1.00776210797e-05
1.00731523627e-05
1.00526000371e-05
1.00365202508e-05
1.00356791739e-05
1.00450911593e-05
1.00487330475e-05
1.00939160614e-05
1.0206350536e-05
1.04527608025e-05
1.04567066839e-05
1.02139963487e-05
1.01045600846e-05
1.00675646541e-05
1.00663016707e-05
1.00576116284e-05
1.0088253381e-05
1.01572963445e-05
1.01649302813e-05
1.01569122741e-05
1.01456624621e-05
1.01223450525e-05
1.00838885019e-05
1.00372810504e-05
1.00050201459e-05
1.00487785783e-05
1.0058499899e-05
1.00945500128e-05
1.02044490108e-05
1.045215921e-05
1.0456274271e-05
1.02153356884e-05
1.01108228588e-05
1.00801694876e-05
1.0087651669e-05
1.00927611423e-05
1.01582648339e-05
1.02732644627e-05
1.03172864189e-05
1.03112927518e-05
1.02844678077e-05
1.0263023207e-05
1.02005434035e-05
1.01352240412e-05
1.0048058819e-05
1.00590100592e-05
1.00769290283e-05
1.01009203478e-05
1.02058508118e-05
1.04519099488e-05
1.04558384468e-05
1.02172026634e-05
1.01169379621e-05
1.00904960451e-05
1.0078821664e-05
1.0064980751e-05
1.02281186521e-05
1.04022389355e-05
1.04293223276e-05
1.04307784792e-05
1.04395012104e-05
1.04123994635e-05
1.03621939676e-05
1.02117908607e-05
1.00852822889e-05
1.00756350957e-05
1.00912566715e-05
1.0107208249e-05
1.02079848664e-05
1.0452454411e-05
1.04551137721e-05
1.02179756792e-05
1.01195241308e-05
1.00943248628e-05
1.00601815565e-05
1.00827779397e-05
1.02447395524e-05
1.04329249972e-05
1.04273822852e-05
1.04454824191e-05
1.04541402119e-05
1.04676003381e-05
1.04383085253e-05
1.02307487458e-05
1.00932287494e-05
1.00816850755e-05
1.00886776647e-05
1.01081921253e-05
1.02083495215e-05
1.04527722277e-05
1.04534415308e-05
1.02153405182e-05
1.01164323428e-05
1.00886096331e-05
1.00163450998e-05
1.00840823345e-05
1.02524958509e-05
1.04188633563e-05
1.04200797532e-05
1.04410401441e-05
1.04379483305e-05
1.0506611861e-05
1.04625892023e-05
1.02337086919e-05
1.00776819597e-05
1.00873165372e-05
1.00831413247e-05
1.01039581655e-05
1.0205972646e-05
1.04526000718e-05
1.04516022911e-05
1.02098522137e-05
1.01080525077e-05
1.00731707611e-05
9.99428623533e-06
1.00495688793e-05
1.02130932667e-05
1.03577330048e-05
1.04004645199e-05
1.04231142976e-05
1.04231103911e-05
1.0461703128e-05
1.04056309706e-05
1.02024815994e-05
1.00486274851e-05
1.00863259247e-05
1.00711776153e-05
1.00941853116e-05
1.01999149471e-05
1.04514418306e-05
1.04497894477e-05
1.02012929425e-05
1.0094074411e-05
1.00503456426e-05
1.00131890742e-05
9.98264202835e-06
1.01165997473e-05
1.01913192362e-05
1.02361302472e-05
1.0262635505e-05
1.0295688735e-05
1.02991422787e-05
1.02354596938e-05
1.01542461758e-05
1.00838394972e-05
1.00566541618e-05
1.0046539009e-05
1.00788088379e-05
1.01884787385e-05
1.04476382357e-05
1.04476969613e-05
1.01899824172e-05
1.00755108686e-05
1.00248020249e-05
1.00010666422e-05
1.00017336264e-05
9.9935460903e-06
1.00630820318e-05
1.00948919133e-05
1.00905066614e-05
1.00937036006e-05
1.00746497715e-05
1.00449501213e-05
1.00617339099e-05
1.00346175812e-05
1.001320523e-05
1.001686705e-05
1.00587694159e-05
1.01752657379e-05
1.04432176023e-05
1.04456115113e-05
1.01786167068e-05
1.00561649006e-05
9.99995371245e-06
9.97159556309e-06
9.96545533422e-06
9.98303652476e-06
9.97585245563e-06
9.98307997142e-06
9.98477105831e-06
9.98435370671e-06
9.99221358722e-06
9.9842924697e-06
9.9803945909e-06
9.97712113239e-06
9.97317850069e-06
9.98802735253e-06
1.00388134636e-05
1.01655062997e-05
1.04416551468e-05
1.0444849027e-05
1.01718550184e-05
1.0041763091e-05
9.98248573334e-06
9.95297439946e-06
9.94133723376e-06
9.93945032716e-06
9.93248565725e-06
9.93094422494e-06
9.9248795803e-06
9.92413062507e-06
9.92182496338e-06
9.91854971321e-06
9.92450250544e-06
9.93111305234e-06
9.94012942182e-06
9.96510995725e-06
1.00253321943e-05
1.01614325501e-05
1.04429874552e-05
1.04464048632e-05
1.01755894636e-05
1.00412664174e-05
9.97754002484e-06
9.94628877267e-06
9.93071813205e-06
9.92240712991e-06
9.91562923839e-06
9.90827296018e-06
9.90252159336e-06
9.89775925195e-06
9.89353121149e-06
9.8948325938e-06
9.90204377054e-06
9.91195170084e-06
9.92762390746e-06
9.95972099165e-06
1.00269470041e-05
1.01671536459e-05
1.04455794627e-05
1.04502859075e-05
1.01933065444e-05
1.00644317599e-05
9.9993478849e-06
9.96536721895e-06
9.94703425703e-06
9.93635991621e-06
9.92903940921e-06
9.92405497657e-06
9.92035431417e-06
9.91385495405e-06
9.90892132093e-06
9.91140610929e-06
9.91814582872e-06
9.92887581053e-06
9.94766518599e-06
9.98337085999e-06
1.00516401789e-05
1.01859943348e-05
1.04496701198e-05
1.04567490283e-05
1.02302181973e-05
1.01188382524e-05
1.00619042102e-05
1.00305033697e-05
1.00126312909e-05
1.00026505081e-05
9.99714890316e-06
9.99400304443e-06
9.99082247873e-06
9.98406114304e-06
9.97912782008e-06
9.98108756897e-06
9.98687733803e-06
9.99717992675e-06
1.00155478721e-05
1.00485385045e-05
1.01084920175e-05
1.02244840204e-05
1.04563367238e-05
1.04679389412e-05
1.03054384415e-05
1.02297562678e-05
1.01914407349e-05
1.01700962072e-05
1.01578979374e-05
1.01513467345e-05
1.01480904448e-05
1.01463911977e-05
1.01439393228e-05
1.01381932569e-05
1.01339909233e-05
1.01353738951e-05
1.01399737066e-05
1.01477503406e-05
1.01609559234e-05
1.01837942258e-05
1.02241580754e-05
1.0302489756e-05
1.04680644139e-05
1.04934698477e-05
1.04674649374e-05
1.04566333287e-05
1.04508347289e-05
1.04477338785e-05
1.04459279831e-05
1.04454714664e-05
1.04457126914e-05
1.0445812094e-05
1.04447182327e-05
1.04409207506e-05
1.043772885e-05
1.04379243088e-05
1.04396797052e-05
1.04419771139e-05
1.04451282357e-05
1.04495764416e-05
1.04564529024e-05
1.0468166691e-05
1.04947615836e-05
1.04899887635e-05
1.04629377387e-05
1.04531080192e-05
1.04483400876e-05
1.04470796977e-05
1.04481159102e-05
1.04491315059e-05
1.04481806384e-05
1.04455914373e-05
1.04430722797e-05
1.04415813597e-05
1.04414310861e-05
1.04420268469e-05
1.04417067309e-05
1.04406935225e-05
1.04403948443e-05
1.04427924555e-05
1.04492948342e-05
1.04618388816e-05
1.04905722911e-05
1.04624571731e-05
1.02826582767e-05
1.01990922135e-05
1.01630768694e-05
1.01489798134e-05
1.01445559452e-05
1.01437924637e-05
1.01431747744e-05
1.01411245015e-05
1.01385547808e-05
1.01365635114e-05
1.01351670197e-05
1.01338635331e-05
1.01308968125e-05
1.01285533523e-05
1.01327680377e-05
1.01496297124e-05
1.0188522422e-05
1.02743019169e-05
1.04614400884e-05
1.04531702643e-05
1.01994797068e-05
1.00728632622e-05
1.00155996042e-05
9.99193412878e-06
9.98508974249e-06
9.98695195953e-06
9.99055766801e-06
9.99068068399e-06
9.99011363452e-06
9.99025800266e-06
9.99024893892e-06
9.98717123441e-06
9.97966801297e-06
9.97314397837e-06
9.97763945601e-06
1.0002991195e-05
1.006256665e-05
1.01897283864e-05
1.04500595852e-05
1.0448421393e-05
1.01624789338e-05
1.00154067214e-05
9.94939483609e-06
9.92482895871e-06
9.92320588567e-06
9.93621344454e-06
9.95298953696e-06
9.95681522591e-06
9.95781878391e-06
9.9597913686e-06
9.95807055446e-06
9.94857413682e-06
9.92965442159e-06
9.91509512147e-06
9.91333576508e-06
9.93786423451e-06
1.00046712457e-05
1.01513886953e-05
1.0444400099e-05
1.04467430512e-05
1.01468330844e-05
9.99296631814e-06
9.92780081547e-06
9.90958725811e-06
9.90730072719e-06
9.93680165439e-06
9.97389589427e-06
9.98470582217e-06
9.98792586828e-06
9.98880368895e-06
9.97476365286e-06
9.95160814213e-06
9.91440357585e-06
9.88880437869e-06
9.89732050538e-06
9.91715915194e-06
9.98222359271e-06
1.01346108553e-05
1.04422962881e-05
1.04461581725e-05
1.01422318719e-05
9.99013663521e-06
9.93281054684e-06
9.93125226734e-06
9.93391818192e-06
9.99493944061e-06
1.00821277221e-05
1.01108746886e-05
1.01128679402e-05
1.01164163845e-05
1.01054479478e-05
1.00734171739e-05
9.98027196685e-06
9.87911297665e-06
9.89807377804e-06
9.92290177822e-06
9.97897668442e-06
1.01293724123e-05
1.0441111229e-05
1.04453823887e-05
1.01424120536e-05
9.9961985252e-06
9.94962745252e-06
9.96404220017e-06
1.00014949184e-05
1.01334076894e-05
1.03281008446e-05
1.03898755475e-05
1.04097063391e-05
1.03663857108e-05
1.03349798792e-05
1.03004446999e-05
1.01190687861e-05
9.86528458802e-06
9.94389449788e-06
9.93974209821e-06
9.983732675e-06
1.0129296025e-05
1.04404094739e-05
1.04449068871e-05
1.01442557886e-05
1.00040008152e-05
9.96851590375e-06
9.98282589031e-06
1.00207768005e-05
1.02722203913e-05
1.03204508344e-05
9.97470780261e-06
9.86909322276e-06
9.95528355592e-06
9.98980075963e-06
1.01310163248e-05
1.04407822152e-05
1.04449323037e-05
1.01451893287e-05
1.00071158683e-05
9.97672727697e-06
9.9766589895e-06
1.00482567644e-05
1.03203912303e-05
1.03406991406e-05
9.9896830288e-06
9.9891900521e-06
9.95547662936e-06
9.98972034796e-06
1.01306144856e-05
1.04408000774e-05
1.04443921433e-05
1.0142114832e-05
1.00030174753e-05
9.97244159572e-06
9.93904409183e-06
1.00536930325e-05
1.03263210293e-05
1.03115988619e-05
9.96216028565e-06
9.97861344671e-06
9.94725962298e-06
9.98293278116e-06
1.01268950809e-05
1.0440447379e-05
1.04431191433e-05
1.01351126421e-05
9.99154763704e-06
9.95504625079e-06
9.91865617765e-06
1.00241580955e-05
1.02938423719e-05
1.02459251107e-05
9.92162815408e-06
9.95001966606e-06
9.9231508365e-06
9.96916245836e-06
1.01193568406e-05
1.04395094931e-05
1.04409026143e-05
1.01246217782e-05
9.97325815391e-06
9.92470453661e-06
9.92104061763e-06
9.9359018801e-06
1.01002636877e-05
1.03022456918e-05
1.03458621036e-05
1.0373780279e-05
1.03922687358e-05
1.03736033657e-05
1.03092545046e-05
1.00849715253e-05
9.94490852608e-06
9.89075387329e-06
9.89155332145e-06
9.95014004733e-06
1.01075049493e-05
1.04366696464e-05
1.04380051324e-05
1.01120822166e-05
9.9511063214e-06
9.88857312817e-06
9.87984381932e-06
9.91484899621e-06
9.92212182572e-06
1.00091301889e-05
1.00383972188e-05
1.00377822192e-05
1.00351885984e-05
1.00251052776e-05
1.00001945915e-05
9.93253536633e-06
9.87238961972e-06
9.84513208377e-06
9.85861290844e-06
9.92737708321e-06
1.00941799454e-05
1.04326169061e-05
1.0435507259e-05
1.01010705952e-05
9.93092559783e-06
9.85604830616e-06
9.82998715227e-06
9.83629998221e-06
9.86496727955e-06
9.85189897484e-06
9.85947402944e-06
9.85692235183e-06
9.84226453706e-06
9.83801066663e-06
9.82859794909e-06
9.81349366068e-06
9.80132481273e-06
9.80041331854e-06
9.82826051143e-06
9.90792570715e-06
1.00849274092e-05
1.04306253413e-05
1.04346920011e-05
1.00960944452e-05
9.91938221385e-06
9.83531951736e-06
9.79709498032e-06
9.78448572848e-06
9.78242396916e-06
9.77834824682e-06
9.7720715678e-06
9.76518243789e-06
9.76009441698e-06
9.75642579853e-06
9.75050473346e-06
9.74868385245e-06
9.75364304674e-06
9.76858581752e-06
9.80928050088e-06
9.89868039749e-06
1.00829763769e-05
1.04316169295e-05
1.04362712701e-05
1.01027547856e-05
9.92483309703e-06
9.83552059685e-06
9.78976130637e-06
9.76690954351e-06
9.75511200157e-06
9.74717680276e-06
9.74026158612e-06
9.73513263309e-06
9.73115616036e-06
9.72703095822e-06
9.7251801878e-06
9.72976019447e-06
9.74156127131e-06
9.76510774784e-06
9.81319318291e-06
9.90754259593e-06
1.00924402022e-05
1.04344326152e-05
1.04407099706e-05
1.0125554961e-05
9.95749523331e-06
9.86997081278e-06
9.82241698949e-06
9.79630967275e-06
9.78152618639e-06
9.7727372318e-06
9.76706541456e-06
9.76314776882e-06
9.75873342799e-06
9.75429691918e-06
9.75422017218e-06
9.7607248578e-06
9.77494223801e-06
9.8017001362e-06
9.85147757455e-06
9.94320045559e-06
1.01173404714e-05
1.04392268985e-05
1.04483675864e-05
1.01720509639e-05
1.00289838141e-05
9.95408403464e-06
9.91207480905e-06
9.88803927386e-06
9.87439282994e-06
9.86672244467e-06
9.86217198985e-06
9.85882584809e-06
9.85443135683e-06
9.8503536703e-06
9.85087152808e-06
9.8573677134e-06
9.87101856662e-06
9.89589179602e-06
9.93996726748e-06
1.00183360923e-05
1.01661688137e-05
1.04472611325e-05
1.04617108264e-05
1.02656672032e-05
1.0171140144e-05
1.01225615595e-05
1.00950604764e-05
1.00792025599e-05
1.00703248774e-05
1.00654851067e-05
1.0062739238e-05
1.00604158939e-05
1.00569119232e-05
1.00535677812e-05
1.0053926646e-05
1.00589426552e-05
1.00688231961e-05
1.00859175706e-05
1.01151755129e-05
1.01659900363e-05
1.02630681629e-05
1.046133836e-05
1.04912665061e-05
1.04610217382e-05
1.04478994711e-05
1.04408921115e-05
1.0436931705e-05
1.04347358328e-05
1.04338975206e-05
1.04336210712e-05
1.04334720631e-05
1.04328731462e-05
1.04306297886e-05
1.04278137111e-05
1.04267846624e-05
1.04278675441e-05
1.0430133669e-05
1.04336163876e-05
1.04389208131e-05
1.04472446233e-05
1.04613939481e-05
1.04922827637e-05
1.04882151761e-05
1.04586773687e-05
1.04478928699e-05
1.04424434763e-05
1.04406849271e-05
1.04413491509e-05
1.04420161986e-05
1.04412575222e-05
1.04394362672e-05
1.04375663164e-05
1.0436256209e-05
1.04361129225e-05
1.043627629e-05
1.04355021258e-05
1.04339220142e-05
1.04336695078e-05
1.04365125121e-05
1.04437759546e-05
1.04575743282e-05
1.0488579119e-05
1.04579517003e-05
1.02592959529e-05
1.01647760488e-05
1.01227549779e-05
1.01054915031e-05
1.00998217217e-05
1.00991615645e-05
1.00996979937e-05
1.00995948257e-05
1.00984636973e-05
1.00965069458e-05
1.00942083768e-05
1.00911511637e-05
1.00864352279e-05
1.0082918626e-05
1.00877946363e-05
1.01075870498e-05
1.01527104841e-05
1.02499383839e-05
1.04567356077e-05
1.04481518925e-05
1.01654282477e-05
1.00190528723e-05
9.95029994417e-06
9.9206533693e-06
9.91195710714e-06
9.91473710802e-06
9.92106590284e-06
9.92491198816e-06
9.92675903234e-06
9.92698157992e-06
9.92514359186e-06