/*--------------------------------*- C++ -*----------------------------------*\
| =========                 |                                                 |
| \\      /  F ield         | OpenFOAM: The Open Source CFD Toolbox           |
|  \\    /   O peration     | Version:  v1606+                                |
|   \\  /    A nd           | Web:      www.OpenFOAM.com                      |
|    \\/     M anipulation  |                                                 |
\*---------------------------------------------------------------------------*/
FoamFile
{
    version     2.0;
    format      ascii;
    class       volScalarField;
    location    "2";
    object      alpha.water;
}
// * * * * * * * * * * * * * * * * * * * * * * * * * * * * * * * * * * * * * //

dimensions      [0 0 0 0 0 0 0];

internalField   nonuniform List<scalar> 
5080
(
1
1
1
1
1
1
1
1
1
1
1
1
1
1
1
1
1
1
1
1
1
1
1
1
1
1
1
1
1
1
1
1
1
1
1
1
1
1
1
1
1
1
1
1
1
1
1
1
1
1
1
1
1
1
1
1
1
1
1
1
1
1
1
1
1
1
1
1
1
1
1
1
1
1
1
1
1
1
1
1
1
1
1
1
1
1
1
1
1
1
1
1
1
1
1
1
1
1
1
1
1
1
1
1
1
1
1
1
1
1
1
1
1
1
1
1
1
1
1
1
1
1
1
1
1
1
1
1
1
1
1
1
1
1
1
1
1
1
1
1
1
1
1
1
1
1
1
1
1
1
1
1
1
1
1
1
1
1
1
1
1
1
1
1
1
1
1
1
1
1
1
1
1
1
1
1
1
1
1
1
1
1
1
1
1
1
1
1
1
1
1
1
1
1
1
1
1
1
1
1
1
1
1
1
1
1
1
1
1
1
1
1
1
1
1
1
1
1
1
1
1
1
1
1
1
1
1
1
1
1
1
1
1
1
1
1
1
1
1
1
1
1
1
1
1
1
1
1
1
1
1
1
1
1
1
1
1
1
1
1
1
1
1
1
1
1
1
1
1
1
1
1
1
1
1
1
1
1
1
1
1
1
1
1
1
1
1
1
1
1
1
1
1
1
1
1
1
1
1
1
1
1
1
1
1
1
1
1
1
1
1
1
1
1
1
1
1
1
1
1
0.67242
0.752463
0.955082
1
1
1
1
1
1
1
1
1
1
1
1
1
1
1
1
1
0.041763
0.0851448
0.385962
0.770112
0.948218
1
1
1
1
1
1
1
1
1
1
1
1
1
1
1
2.53227e-17
1.90956e-17
0.0010797
0.087403
0.288928
0.522063
0.704502
0.818943
0.886785
0.924125
0.944826
0.962515
0.983257
1
1
1
1
1
1
1
2.16063e-17
1.33502e-17
1.36279e-17
1.60937e-17
1.91521e-17
0.00556948
0.0430932
0.100021
0.157609
0.20351
0.237165
0.273209
0.325997
0.420512
0.571836
0.687207
0.700043
0.632866
0.588862
0.555654
1.92618e-117
2.47837e-120
4.35568e-123
8.3076e-126
1.67903e-128
3.44171e-131
6.7077e-134
1.23873e-136
2.15378e-139
3.50059e-142
5.3466e-145
7.65192e-148
1.02943e-150
1.30203e-153
1.54806e-156
1.77847e-159
1.99461e-162
2.17417e-165
2.29478e-168
2.33682e-171
2.28821e-174
2.15069e-177
1.93386e-180
1.65875e-183
1.35633e-186
1.05453e-189
7.77415e-193
5.4337e-196
3.59669e-199
2.2489e-202
1.32819e-205
7.41516e-209
3.90701e-212
1.93961e-215
9.07874e-219
4.00782e-222
1.66487e-225
6.49237e-229
2.3762e-232
8.16219e-236
2.62491e-239
7.87376e-243
2.19862e-246
5.71552e-250
1.38249e-253
3.10201e-257
6.42663e-261
1.22395e-264
2.13397e-268
3.38826e-272
4.86467e-276
6.26428e-280
7.17564e-284
7.2496e-288
6.39139e-292
4.84265e-296
3.08498e-300
1.60159e-304
6.49007e-309
1.8909e-313
6.03319e-114
8.21595e-117
1.64202e-119
3.57288e-122
7.85353e-125
1.70592e-127
3.48038e-130
6.66313e-133
1.195e-135
2.00117e-138
3.14538e-141
4.64119e-144
6.45432e-147
8.47536e-150
1.05339e-152
1.25284e-155
1.45985e-158
1.65886e-161
1.83123e-164
1.95627e-167
2.01586e-170
1.99893e-173
1.90147e-176
1.73042e-179
1.50419e-182
1.24611e-185
9.81333e-189
7.33701e-192
5.20142e-195
3.48975e-198
2.21302e-201
1.32571e-204
7.49403e-208
3.99234e-211
2.00298e-214
9.4572e-218
4.19681e-221
1.74805e-224
6.82714e-228
2.49656e-231
8.52613e-235
2.71218e-238
8.02486e-242
2.20735e-245
5.6364e-249
1.33168e-252
2.89868e-256
5.78951e-260
1.05695e-263
1.75542e-267
2.6352e-271
3.54737e-275
4.24511e-279
4.47403e-283
4.10647e-287
3.23323e-291
2.13759e-295
1.15107e-299
4.82532e-304
1.46493e-308
1.02182e-110
1.49981e-113
3.35238e-116
8.1342e-119
1.91197e-121
4.34136e-124
9.16686e-127
1.80044e-129
3.29385e-132
5.60751e-135
8.92805e-138
1.33191e-140
1.86954e-143
2.47464e-146
3.09992e-149
3.68517e-152
4.2981e-155
4.8949e-158
5.42298e-161
5.82387e-164
6.04363e-167
6.04426e-170
5.81036e-173
5.3558e-176
4.72362e-179
3.97785e-182
3.19179e-185
2.43588e-188
1.76557e-191
1.21355e-194
7.89653e-198
4.85853e-201
2.82463e-204
1.55006e-207
8.01689e-211
3.90321e-214
1.78757e-217
7.69188e-221
3.10345e-224
1.17131e-227
4.12771e-231
1.35659e-234
4.15334e-238
1.18239e-241
3.12131e-245
7.61593e-249
1.71193e-252
3.53284e-256
6.66577e-260
1.14384e-263
1.77346e-267
2.46556e-271
3.04781e-275
3.31811e-279
3.14431e-283
2.55343e-287
1.73915e-291
9.63857e-296
4.15452e-300
1.29868e-304
1.21437e-107
1.94427e-110
4.78679e-113
1.27327e-115
3.1847e-118
7.53721e-121
1.64494e-123
3.31364e-126
6.18424e-129
1.07024e-131
1.72577e-134
2.60099e-137
3.68126e-140
4.90422e-143
6.17493e-146
7.36955e-149
8.58286e-152
9.77138e-155
1.08328e-157
1.16524e-160
1.21285e-163
1.21839e-166
1.17814e-169
1.0944e-172
9.74568e-176
8.30057e-179
6.74975e-182
5.23138e-185
3.85708e-188
2.70093e-191
1.79408e-194
1.12907e-197
6.72384e-201
3.78414e-204
2.00997e-207
1.00624e-210
4.74056e-214
2.09779e-217
8.70283e-221
3.37971e-224
1.22728e-227
4.16173e-231
1.31511e-234
3.86234e-238
1.05133e-241
2.64535e-245
6.13514e-249
1.30677e-252
2.54465e-256
4.50539e-260
7.207e-264
1.03407e-267
1.31979e-271
1.4837e-275
1.45131e-279
1.21563e-283
8.53242e-288
4.86887e-292
2.15966e-296
6.93762e-301
1.12283e-104
1.9762e-107
5.30424e-110
1.52716e-112
4.05578e-115
1.00056e-117
2.25886e-120
4.67512e-123
8.91747e-126
1.57178e-128
2.57261e-131
3.92524e-134
5.61188e-137
7.53805e-140
9.55553e-143
1.14658e-145
1.33619e-148
1.52339e-151
1.69292e-154
1.82706e-157
1.91019e-160
1.9303e-163
1.8801e-166
1.76137e-169
1.58448e-172
1.36574e-175
1.12569e-178
8.85705e-182
6.64153e-185
4.73917e-188
3.21366e-191
2.06806e-194
1.26117e-197
7.27746e-201
3.9671e-204
2.03928e-207
9.86671e-211
4.48536e-214
1.91319e-217
7.64865e-221
2.86228e-224
1.0006e-227
3.25899e-231
9.86311e-235
2.76706e-238
7.179e-242
1.71732e-245
3.77281e-249
7.57554e-253
1.38276e-256
2.28059e-260
3.37513e-264
4.44497e-268
5.15671e-272
5.20358e-276
4.49345e-280
3.24911e-284
1.90863e-288
8.70956e-293
2.87396e-297
8.51563e-102
1.65503e-104
4.82216e-107
1.4895e-109
4.19374e-112
1.07965e-114
2.52528e-117
5.38246e-120
1.05206e-122
1.89367e-125
3.155e-128
4.88782e-131
7.07939e-134
9.61516e-137
1.23052e-139
1.48819e-142
1.73979e-145
1.99101e-148
2.22262e-151
2.41214e-154
2.53846e-157
2.58457e-160
2.53959e-163
2.40346e-166
2.18709e-169
1.90986e-172
1.59729e-175
1.27717e-178
9.74883e-182
7.09387e-185
4.91262e-188
3.23209e-191
2.01706e-194
1.19215e-197
6.6604e-201
3.51077e-204
1.74309e-207
8.14055e-211
3.57138e-214
1.46969e-217
5.66262e-221
2.03799e-224
6.83415e-228
2.1302e-231
6.15791e-235
1.64676e-238
4.06049e-242
9.19285e-246
1.9017e-249
3.57591e-253
6.07699e-257
9.27045e-261
1.25888e-264
1.50596e-268
1.56654e-272
1.39377e-276
1.03775e-280
6.27319e-285
2.94375e-289
9.97506e-294
5.47467e-99
1.17901e-101
3.72476e-104
1.22744e-106
3.65867e-109
9.84451e-112
2.3905e-114
5.26145e-117
1.05711e-119
1.94966e-122
3.31827e-125
5.23972e-128
7.71933e-131
1.0645e-133
1.38096e-136
1.6901e-139
1.98977e-142
2.2949e-145
2.58354e-148
2.82972e-151
3.00811e-154
3.09651e-157
3.07944e-160
2.95321e-163
2.72623e-166
2.41805e-169
2.05698e-172
1.67525e-175
1.30408e-178
9.68827e-182
6.85655e-185
4.61335e-188
2.94607e-191
1.78284e-194
1.02064e-197
5.51786e-201
2.81291e-204
1.35025e-207
6.09315e-211
2.57984e-214
1.02267e-217
3.78709e-221
1.30718e-224
4.19614e-228
1.24974e-231
3.44353e-235
8.7468e-239
2.03932e-242
4.34369e-246
8.41015e-250
1.472e-253
2.31338e-257
3.23695e-261
3.98986e-265
4.27528e-269
3.91664e-273
3.0012e-277
1.86605e-281
9.00026e-286
3.13059e-290
3.05187e-96
7.30306e-99
2.50195e-101
8.77026e-104
2.7643e-106
7.78617e-109
1.96705e-111
4.48313e-114
9.28782e-117
1.76122e-119
3.07358e-122
4.96628e-125
7.47216e-128
1.0506e-130
1.38757e-133
1.72622e-136
2.0557e-139
2.39983e-142
2.73608e-145
3.03655e-148
3.27315e-151
3.41908e-154
3.45318e-157
3.3659e-160
3.16067e-163
2.85431e-166
2.47473e-169
2.05601e-172
1.63389e-175
1.24002e-178
8.97105e-182
6.17434e-185
4.03585e-188
2.50176e-191
1.46838e-194
8.14674e-198
4.26558e-201
2.10431e-204
9.76228e-208
4.24993e-211
1.7325e-214
6.59997e-218
2.3447e-221
7.75027e-225
2.37726e-228
6.74517e-232
1.76373e-235
4.23206e-239
9.27642e-243
1.84854e-246
3.33057e-250
5.38906e-254
7.76391e-258
9.85237e-262
1.08666e-265
1.02434e-269
8.07305e-274
5.15999e-278
2.55655e-282
9.12381e-287
1.49941e-93
3.99623e-96
1.48538e-98
5.53275e-101
1.84257e-103
5.44053e-106
1.43271e-108
3.38979e-111
7.26237e-114
1.42026e-116
2.54952e-119
4.22913e-122
6.51963e-125
9.37724e-128
1.26516e-130
1.60523e-133
1.94004e-136
2.29944e-139
2.66278e-142
3.00289e-145
3.29072e-148
3.49629e-151
3.59345e-154
3.56599e-157
3.41059e-160
3.1388e-163
2.77498e-166
2.35201e-169
1.90773e-172
1.47861e-175
1.09324e-178
7.69619e-182
5.15004e-185
3.27106e-188
1.96881e-191
1.12087e-194
6.02494e-198
3.05215e-201
1.45435e-204
6.50508e-208
2.72574e-211
1.06788e-214
3.90337e-218
1.32786e-221
4.19155e-225
1.22361e-228
3.29091e-232
8.12106e-236
1.83079e-239
3.75269e-243
6.95558e-247
1.15782e-250
1.71592e-254
2.23975e-258
2.54049e-262
2.46217e-266
1.99437e-270
1.30945e-274
6.65995e-279
2.4371e-283
6.5765e-91
1.95633e-93
7.89152e-96
3.12368e-98
1.09876e-100
3.40531e-103
9.36429e-106
2.30526e-108
5.12072e-111
1.03557e-113
1.91747e-116
3.27454e-119
5.18699e-122
7.65337e-125
1.05777e-127
1.3725e-130
1.68807e-133
2.03661e-136
2.40121e-139
2.75786e-142
3.07878e-145
3.333e-148
3.49129e-151
3.53167e-154
3.44343e-157
3.23127e-160
2.91374e-163
2.51972e-166
2.08605e-169
1.65125e-172
1.2479e-175
8.98753e-179
6.1582e-182
4.00812e-185
2.47358e-188
1.4445e-191
7.96617e-195
4.14108e-198
2.02542e-201
9.30326e-205
4.00548e-208
1.61327e-211
6.06431e-215
2.12162e-218
6.88629e-222
2.06651e-225
5.71251e-229
1.44891e-232
3.35761e-236
7.07512e-240
1.3481e-243
2.3067e-247
3.51369e-251
4.7134e-255
5.4936e-259
5.46974e-263
4.55006e-267
3.06663e-271
1.59998e-275
5.99955e-280
2.60054e-88
8.64764e-91
3.78574e-93
1.59346e-95
5.91972e-98
1.92774e-100
5.54431e-103
1.42284e-105
3.28423e-108
6.88419e-111
1.31805e-113
2.32314e-116
3.79083e-119
5.75221e-122
8.16373e-125
1.08586e-127
1.36245e-130
1.67716e-133
2.01779e-136
2.36529e-139
2.69535e-142
2.97869e-145
3.18558e-148
3.29017e-151
3.27523e-154
3.13794e-157
2.88954e-160
2.55254e-163
2.1595e-166
1.74771e-169
1.35124e-172
9.96271e-176
6.99248e-179
4.66411e-182
2.95097e-185
1.76719e-188
9.99599e-192
5.33091e-195
2.6759e-198
1.26203e-201
5.58197e-205
2.31045e-208
8.92647e-212
3.20944e-215
1.07033e-218
3.29967e-222
9.3701e-226
2.44161e-229
5.81324e-233
1.25856e-236
2.4636e-240
4.32992e-244
6.77383e-248
9.3312e-252
1.1167e-255
1.1414e-259
9.74405e-264
6.73658e-268
3.60306e-272
1.38357e-276
9.33835e-86
3.47475e-88
1.65051e-90
7.39331e-93
2.90128e-95
9.93571e-98
2.99274e-100
8.01955e-103
1.9274e-105
4.19677e-108
8.32874e-111
1.51887e-113
2.55961e-116
4.00454e-119
5.85076e-122
7.99766e-125
1.02838e-127
1.29465e-130
1.59316e-133
1.9101e-136
2.22622e-139
2.51653e-142
2.75357e-145
2.91029e-148
2.96477e-151
2.90706e-154
2.74018e-157
2.4785e-160
2.14764e-163
1.78065e-166
1.41072e-169
1.06602e-172
7.66953e-176
5.24459e-179
3.40239e-182
2.08965e-185
1.21256e-188
6.63598e-192
3.41941e-195
1.65609e-198
7.52397e-202
3.19923e-205
1.26967e-208
4.68846e-212
1.60564e-215
5.08285e-219
1.48219e-222
3.9663e-226
9.69798e-230
2.156e-233
4.33291e-237
7.81705e-241
1.25512e-244
1.7743e-248
2.17875e-252
2.28453e-256
2.00013e-260
1.41752e-264
7.7671e-269
3.05238e-273
3.06172e-83
1.27572e-85
6.57229e-88
3.13535e-90
1.30016e-92
4.68618e-95
1.48028e-97
4.14857e-100
1.04034e-102
2.35858e-105
4.86446e-108
9.20417e-111
1.60658e-113
2.59965e-116
3.9224e-119
5.52824e-122
7.32038e-125
9.45588e-128
1.19388e-130
1.46866e-133
1.75616e-136
2.03656e-139
2.28632e-142
2.47956e-145
2.59215e-148
2.60851e-151
2.52377e-154
2.34357e-157
2.08508e-160
1.77498e-163
1.44356e-166
1.11954e-169
8.26474e-173
5.79813e-176
3.85891e-179
2.43179e-182
1.44827e-185
8.13722e-189
4.30581e-192
2.14174e-195
9.99296e-199
4.36308e-202
1.7777e-205
6.73846e-209
2.36875e-212
7.69711e-216
2.30406e-219
6.32914e-223
1.58845e-226
3.62412e-230
7.47318e-234
1.38311e-237
2.27782e-241
3.30233e-245
4.15811e-249
4.46985e-253
4.01079e-257
2.91201e-261
1.63362e-265
6.56612e-270
9.20117e-81
4.29556e-83
2.39926e-85
1.21973e-87
5.34819e-90
2.03053e-92
6.73581e-95
1.97756e-97
5.18538e-100
1.22692e-102
2.63679e-105
5.19143e-108
9.41464e-111
1.58084e-113
2.47162e-116
3.60466e-119
4.93343e-122
6.56248e-125
8.53116e-128
1.08055e-130
1.33023e-133
1.58806e-136
1.83538e-139
2.04919e-142
2.20515e-145
2.28374e-148
2.27337e-151
2.17155e-154
1.98694e-157
1.73891e-160
1.45331e-163
1.1578e-166
8.77686e-170
6.32125e-173
4.31845e-176
2.79354e-179
1.70811e-182
9.855e-186
5.3551e-189
2.73501e-192
1.30996e-195
5.86958e-199
2.45377e-202
9.54259e-206
3.44163e-209
1.14745e-212
3.52421e-216
9.93216e-220
2.55705e-223
5.98345e-227
1.26517e-230
2.40058e-234
4.05248e-238
6.02142e-242
7.76923e-246
8.5563e-250
7.86338e-254
5.84494e-258
3.3549e-262
1.37826e-266
2.54142e-78
1.33027e-80
8.05332e-83
4.36507e-85
2.02537e-87
8.10682e-90
2.82785e-92
8.71042e-95
2.39268e-97
5.92093e-100
1.32898e-102
2.72941e-105
5.15624e-108
9.00973e-111
1.46391e-113
2.21609e-116
3.14468e-119
4.32193e-122
5.80297e-125
7.59001e-128
9.64655e-131
1.18865e-133
1.41766e-136
1.63306e-139
1.81266e-142
1.93556e-145
1.98561e-148
1.95367e-151
1.84049e-154
1.65762e-157
1.42501e-160
1.16728e-163
9.0957e-167
6.73195e-170
4.72503e-173
3.13975e-176
1.97185e-179
1.16835e-182
6.51851e-186
3.41709e-189
1.67922e-192
7.71738e-196
3.30848e-199
1.31937e-202
4.87952e-206
1.66824e-209
5.25368e-213
1.51796e-216
4.00582e-220
9.60632e-224
2.08127e-227
4.04562e-231
6.99531e-235
1.06446e-238
1.40628e-242
1.58545e-246
1.49118e-250
1.13392e-254
6.65428e-259
2.79205e-263
6.46456e-76
3.79768e-78
2.49147e-80
1.44021e-82
7.0768e-85
2.98839e-87
1.09734e-89
3.55061e-92
1.02322e-94
2.65237e-97
6.22853e-100
1.33685e-102
2.63613e-105
4.80357e-108
8.12904e-111
1.28047e-113
1.8887e-116
2.68966e-119
3.74022e-122
5.06505e-125
6.66265e-128
8.49367e-131
1.04762e-133
1.24753e-136
1.43085e-139
1.57788e-142
1.67051e-145
1.69508e-148
1.64585e-151
1.52689e-154
1.35141e-157
1.13929e-160
9.13459e-164
6.95496e-167
5.02033e-170
3.42959e-173
2.21345e-176
1.34722e-179
7.71756e-183
4.15195e-186
2.09307e-189
9.86484e-193
4.33621e-196
1.77285e-199
6.72167e-203
2.35561e-206
7.60296e-210
2.25094e-213
6.08545e-217
1.49476e-220
3.31645e-224
6.60047e-228
1.16829e-231
1.81942e-235
2.45951e-239
2.83663e-243
2.72853e-247
2.12106e-251
1.27168e-255
5.44561e-260
1.51667e-73
1.00108e-75
7.11558e-78
4.3867e-80
2.28392e-82
1.01802e-84
3.93815e-87
1.33972e-89
4.05448e-92
1.1022e-94
2.71147e-97
6.09066e-100
1.25569e-102
2.39036e-105
4.22125e-108
6.93405e-111
1.06559e-113
1.57673e-116
2.27704e-119
3.20116e-122
4.36946e-125
5.77733e-128
7.38647e-131
9.11219e-134
1.08211e-136
1.23473e-139
1.35155e-142
1.41689e-145
1.42038e-148
1.35958e-151
1.24079e-154
1.07808e-157
8.90539e-161
6.9832e-164
5.18911e-167
3.64721e-170
2.42032e-173
1.51371e-176
8.90454e-180
4.91663e-183
2.54265e-186
1.22895e-189
5.53855e-193
2.32126e-196
9.0202e-200
3.2392e-203
1.07105e-206
3.24779e-210
8.99141e-214
2.26121e-217
5.13567e-221
1.04607e-224
1.89452e-228
3.01817e-232
4.17271e-236
4.92066e-240
4.83801e-244
3.84259e-248
2.35233e-252
1.0274e-256
3.28462e-71
2.43841e-73
1.87707e-75
1.23379e-77
6.80808e-80
3.20417e-82
1.30646e-84
4.67604e-87
1.48733e-89
4.24461e-92
1.09526e-94
2.57831e-97
5.56648e-100
1.10888e-102
2.04718e-105
3.51397e-108
5.63768e-111
8.68927e-114
1.30636e-116
1.91089e-119
2.7124e-122
3.72732e-125
4.94915e-128
6.33587e-131
7.80278e-134
9.22676e-137
1.04589e-139
1.13467e-142
1.17639e-145
1.16384e-148
1.09705e-151
9.83814e-155
8.38247e-158
6.77568e-161
5.18651e-164
3.75237e-167
2.56122e-170
1.64632e-173
9.94664e-177
5.63718e-180
2.99086e-183
1.48247e-186
6.84937e-190
2.94204e-193
1.17134e-196
4.30837e-200
1.45872e-203
4.52829e-207
1.28315e-210
3.30233e-214
7.67406e-218
1.59898e-221
2.96159e-225
4.82396e-229
6.81721e-233
8.21538e-237
8.25178e-241
6.69249e-245
4.18075e-249
1.86121e-253
6.56638e-69
5.48763e-71
4.57241e-73
3.20286e-75
1.87328e-77
9.31215e-80
4.00403e-82
1.50898e-84
5.04959e-87
1.51473e-89
4.1057e-92
1.01445e-94
2.29744e-97
4.79728e-100
9.27399e-103
1.6661e-105
2.79455e-108
4.49471e-111
7.04586e-114
1.0738e-116
1.58686e-119
2.2687e-122
3.13141e-125
4.16355e-128
5.32134e-131
6.52548e-134
7.66518e-137
8.61205e-140
9.2421e-143
9.45928e-146
9.218e-149
8.53929e-152
7.50934e-155
6.25915e-158
4.93609e-161
3.6761e-164
2.58076e-167
1.70492e-170
1.05792e-173
6.15395e-177
3.34942e-180
1.70229e-183
8.06078e-187
3.54709e-190
1.4462e-193
5.44532e-197
1.88674e-200
5.99239e-204
1.73696e-207
4.57197e-211
1.08641e-214
2.31417e-218
4.38072e-222
7.29078e-226
1.05248e-229
1.29524e-233
1.32814e-237
1.09914e-241
7.0015e-246
3.17471e-250
1.21084e-66
1.14032e-68
1.02774e-70
7.66889e-73
4.75492e-75
2.49794e-77
1.13352e-79
4.50307e-82
1.58748e-84
5.01325e-87
1.4298e-89
3.7144e-92
8.8393e-95
1.93778e-97
3.92834e-100
7.39565e-103
1.29811e-105
2.18185e-108
3.57036e-111
5.67425e-114
8.73685e-117
1.30044e-119
1.86717e-122
2.58028e-125
3.42479e-128
4.35794e-131
5.30742e-134
6.17789e-137
6.86455e-140
7.27023e-143
7.32617e-146
7.01225e-149
6.3654e-152
5.47132e-155
4.44513e-158
3.40738e-161
2.46014e-164
1.67022e-167
1.06435e-170
6.3544e-174
3.54745e-177
1.84822e-180
8.96661e-184
4.04041e-187
1.68607e-190
6.49514e-194
2.30172e-197
7.47496e-201
2.21505e-204
5.95941e-208
1.44712e-211
3.14924e-215
6.08881e-219
1.03469e-222
1.52469e-226
1.91479e-230
2.00291e-234
1.69011e-238
1.09695e-242
5.06201e-247
2.05656e-64
2.18554e-66
2.12924e-68
1.69217e-70
1.1126e-72
6.18192e-75
2.96361e-77
1.24278e-79
4.62269e-82
1.53951e-84
4.62812e-87
1.26637e-89
3.17239e-92
7.31401e-95
1.55754e-97
3.07766e-100
5.66117e-103
9.96416e-106
1.70532e-108
2.83122e-111
4.54957e-114
7.06151e-117
1.05638e-119
1.51977e-122
2.09834e-125
2.77503e-128
3.50901e-131
4.23662e-134
4.87817e-137
5.34894e-140
5.57559e-143
5.51541e-146
5.16935e-149
4.58303e-152
3.83677e-155
3.0278e-158
2.24875e-161
1.56929e-164
1.0272e-167
6.29475e-171
3.60458e-174
1.925e-177
9.56649e-181
4.41296e-184
1.88419e-187
7.42306e-191
2.68931e-194
8.9264e-198
2.70292e-201
7.42922e-205
1.84258e-208
4.0943e-212
8.0802e-216
1.40114e-219
2.1062e-223
2.69743e-227
2.87632e-231
2.47297e-235
1.63419e-239
7.66878e-244
3.21044e-62
3.85771e-64
4.06018e-66
3.4367e-68
2.39728e-70
1.41012e-72
7.14997e-75
3.16956e-77
1.24586e-79
4.38325e-82
1.39145e-84
4.01812e-87
1.06183e-89
2.58022e-92
5.78562e-95
1.20272e-97
2.32415e-100
4.29719e-103
7.71538e-106
1.34206e-108
2.25691e-111
3.66212e-114
5.72139e-117
8.58808e-120
1.23608e-122
1.70246e-125
2.23952e-128
2.80951e-131
3.35703e-134
3.81506e-137
4.1167e-140
4.21108e-143
4.07719e-146
3.7303e-149
3.21956e-152
2.61702e-155
2.00034e-158
1.4355e-161
9.65489e-165
6.07464e-168
3.56862e-171
1.9536e-174
9.94465e-178
4.69567e-181
2.05099e-184
8.26187e-188
3.05932e-191
1.03756e-194
3.2093e-198
9.00821e-202
2.28091e-205
5.1725e-209
1.04143e-212
1.84171e-216
2.82244e-220
3.68388e-224
4.00171e-228
3.50306e-232
2.35517e-236
1.12306e-240
4.59417e-60
6.25965e-62
7.11339e-64
6.41397e-66
4.74907e-68
2.96026e-70
1.58945e-72
7.4595e-75
3.10355e-77
1.15572e-79
3.88208e-82
1.1858e-84
3.31354e-87
8.50759e-90
2.01399e-92
4.41592e-95
8.9886e-98
1.75178e-100
3.3102e-103
6.05095e-106
1.06784e-108
1.8157e-111
2.96841e-114
4.6566e-117
6.99614e-120
1.00468e-122
1.37638e-125
1.79601e-128
2.22915e-131
2.62767e-134
2.9371e-137
3.10839e-140
3.11024e-143
2.93775e-146
2.61505e-149
2.19032e-152
1.72364e-155
1.27237e-158
8.7952e-162
5.68233e-165
3.42477e-168
1.92184e-171
1.00201e-174
4.84241e-178
2.16337e-181
8.90892e-185
3.37105e-188
1.16787e-191
3.6888e-195
1.05698e-198
2.73106e-202
6.31758e-206
1.29698e-209
2.33783e-213
3.65039e-217
4.85261e-221
5.3663e-225
4.77961e-229
3.26694e-233
1.58179e-237
6.00865e-58
9.31818e-60
1.14272e-61
1.09798e-63
8.63511e-66
5.71058e-68
3.25146e-70
1.61835e-72
7.14062e-75
2.82065e-77
1.00486e-79
3.25447e-82
9.63867e-85
2.62064e-87
6.56376e-90
1.52089e-92
3.26713e-95
6.72897e-98
1.34143e-100
2.5827e-103
4.79297e-106
8.55598e-109
1.46602e-111
2.40636e-114
3.77691e-117
5.65776e-120
8.07434e-123
1.09614e-125
1.41351e-128
1.72875e-131
2.00216e-134
2.19281e-137
2.26805e-140
2.21211e-143
2.0313e-146
1.75348e-149
1.42085e-152
1.07901e-155
7.66601e-159
5.08578e-162
3.14465e-165
1.80878e-168
9.65853e-172
4.7769e-175
2.18264e-178
9.18759e-182
3.55193e-185
1.25671e-188
4.05222e-192
1.18484e-195
3.12261e-199
7.36427e-203
1.54065e-206
2.82868e-210
4.49698e-214
6.08379e-218
6.84346e-222
6.1963e-226
4.30195e-230
2.11296e-234
7.15961e-56
1.26972e-57
1.67955e-59
1.72072e-61
1.43887e-63
1.01111e-65
6.11601e-68
3.2353e-70
1.51736e-72
6.37299e-75
2.41368e-77
8.30747e-80
2.61309e-82
7.53764e-85
2.00086e-87
4.90644e-90
1.11379e-92
2.42924e-95
5.11869e-98
1.03991e-100
2.03308e-103
3.81696e-106
6.86655e-109
1.18129e-111
1.93978e-114
3.03465e-117
4.51561e-120
6.38231e-123
8.55638e-126
1.08642e-128
1.30458e-131
1.47962e-134
1.58299e-137
1.59523e-140
1.51192e-143
1.34572e-146
1.12323e-149
8.77775e-153
6.41094e-156
4.36788e-159
2.77092e-162
1.6337e-165
8.9341e-169
4.52164e-172
2.11267e-175
9.08827e-179
3.58864e-182
1.29616e-185
4.26439e-189
1.27157e-192
3.41574e-196
8.20655e-200
1.74815e-203
3.26658e-207
5.2828e-211
7.26687e-215
8.3072e-219
7.63919e-223
5.38214e-227
2.67906e-231
7.74603e-54
1.58003e-55
2.25353e-57
2.46413e-59
2.19412e-61
1.6416e-63
1.05728e-65
5.9587e-68
2.97817e-70
1.33329e-72
5.38196e-75
1.97327e-77
6.60677e-80
2.02623e-82
5.71149e-85
1.48474e-87
3.567e-90
8.25777e-93
1.84323e-95
3.9599e-98
8.1728e-101
1.61695e-103
3.05989e-106
5.52737e-109
9.51204e-112
1.5565e-114
2.41808e-117
3.56187e-120
4.96831e-123
6.5532e-126
8.16293e-129
9.59125e-132
1.06171e-134
1.10569e-137
1.08174e-140
9.92804e-144
8.53554e-147
6.86337e-150
5.15245e-153
3.60462e-156
2.34578e-159
1.41747e-162
7.9377e-166
4.1105e-169
1.96367e-172
8.63107e-176
3.48008e-179
1.28273e-182
4.3042e-186
1.30821e-189
3.5799e-193
8.75675e-197
1.8981e-200
3.60716e-204
5.92992e-208
8.28749e-212
9.62008e-216
8.97707e-220
6.41256e-224
3.2319e-228
7.58269e-52
1.79132e-53
2.75389e-55
3.21823e-57
3.0574e-59
2.44143e-61
1.67871e-63
1.01081e-65
5.39998e-68
2.58435e-70
1.11519e-72
4.36831e-75
1.56099e-77
5.10293e-80
1.53084e-82
4.22689e-85
1.08046e-87
2.66208e-90
6.30911e-93
1.43578e-95
3.13147e-98
6.53165e-101
1.3003e-103
2.46609e-106
4.4474e-109
7.61281e-112
1.23502e-114
1.89645e-117
2.75295e-120
3.77293e-123
4.87612e-126
5.93631e-129
6.79972e-132
7.31834e-135
7.3905e-138
6.99333e-141
6.19209e-144
5.12217e-147
3.95167e-150
2.83817e-153
1.89437e-156
1.17301e-159
6.72546e-163
3.56296e-166
1.73997e-169
7.81234e-173
3.21548e-176
1.20903e-179
4.13565e-183
1.28052e-186
3.56742e-190
8.87822e-194
1.95679e-197
3.77907e-201
6.30997e-205
8.952e-209
1.05423e-212
9.97369e-217
7.21651e-221
3.67891e-225
6.69227e-50
1.84573e-51
3.05752e-53
3.82518e-55
3.88685e-57
3.32235e-59
2.4469e-61
1.5796e-63
9.05277e-66
4.64802e-68
2.15152e-70
9.0327e-73
3.45451e-75
1.20661e-77
3.8601e-80
1.13401e-82
3.09967e-85
8.14555e-88
2.0537e-90
4.95908e-93
1.14464e-95
2.52022e-98
5.2834e-101
1.05286e-103
1.99096e-106
3.56681e-109
6.04537e-112
9.68161e-115
1.46321e-117
2.08434e-120
2.79561e-123
3.5269e-126
4.18051e-129
4.64967e-132
4.84617e-135
4.72715e-138
4.30964e-141
3.6666e-144
2.90627e-147
2.14245e-150
1.4664e-153
9.30302e-157
5.4603e-160
2.95883e-163
1.47679e-166
6.77151e-170
2.8441e-173
1.09043e-176
3.8005e-180
1.19811e-183
3.39594e-187
8.5928e-191
1.92431e-194
3.77379e-198
6.39477e-202
9.20164e-206
1.09839e-209
1.05253e-213
7.70656e-218
3.96992e-222
5.30554e-48
1.72387e-49
3.07545e-51
4.12802e-53
4.50061e-55
4.13308e-57
3.27406e-59
2.27569e-61
1.40515e-63
7.77108e-66
3.87267e-68
1.74816e-70
7.17472e-73
2.68363e-75
9.17188e-78
2.87103e-80
8.41276e-83
2.36354e-85
6.35405e-88
1.6317e-90
3.9946e-93
9.30411e-96
2.05813e-98
4.31683e-101
8.57171e-104
1.60903e-106
2.8518e-109
4.76677e-112
7.50496e-115
1.11174e-117
1.54803e-120
2.02425e-123
2.48312e-126
2.854e-129
3.06973e-132
3.08619e-135
2.89646e-138
2.53398e-141
2.06316e-144
1.56079e-147
1.0953e-150
7.11828e-154
4.27633e-157
2.3698e-160
1.2086e-163
5.65791e-167
2.42415e-170
9.47314e-174
3.36245e-177
1.07864e-180
3.10867e-184
7.99213e-188
1.81727e-191
3.61622e-195
6.21386e-199
9.06119e-203
1.09539e-206
1.0622e-210
7.86275e-215
4.08866e-219
3.76321e-46
1.45509e-47
2.79352e-49
4.03407e-51
4.73831e-53
4.69658e-55
4.02163e-57
3.02468e-59
2.02165e-61
1.20963e-63
6.51538e-66
3.17336e-68
1.40186e-70
5.62923e-73
2.05947e-75
6.87888e-78
2.16606e-80
6.5194e-83
1.87195e-85
5.119e-88
1.33067e-90
3.28212e-93
7.66845e-96
1.6945e-98
3.53603e-101
6.95952e-104
1.2905e-106
2.25204e-109
3.69436e-112
5.69124e-115
8.22645e-118
1.11477e-120
1.41478e-123
1.67976e-126
1.86373e-129
1.93033e-132
1.86414e-135
1.67623e-138
1.40132e-141
1.08745e-144
7.82134e-148
5.20519e-151
3.19944e-154
1.81251e-157
9.44139e-161
4.51037e-164
1.97029e-167
7.84322e-171
2.83338e-174
9.24281e-178
2.70661e-181
7.06494e-185
1.62986e-188
3.28835e-192
5.7252e-196
8.45347e-200
1.03404e-203
1.0138e-207
7.57986e-212
3.97496e-216
2.37753e-44
1.1062e-45
2.28269e-47
3.55925e-49
4.52667e-51
4.86938e-53
4.53284e-55
3.70941e-57
2.69764e-59
1.7547e-61
1.02591e-63
5.41159e-66
2.58152e-68
1.11591e-70
4.38038e-73
1.56441e-75
5.31276e-78
1.71884e-80
5.28789e-83
1.5442e-85
4.2729e-88
1.11847e-90
2.76532e-93
6.44831e-96
1.41625e-98
2.92646e-101
5.6836e-104
1.03642e-106
1.77268e-109
2.84142e-112
4.26509e-115
5.99074e-118
7.86683e-121
9.64867e-124
1.10427e-126
1.1782e-129
1.17065e-132
1.08182e-135
9.28503e-139
7.39055e-142
5.44734e-145
3.71191e-148
2.33403e-151
1.35141e-154
7.18801e-158
3.50298e-161
1.55952e-164
6.32074e-168
2.3226e-171
7.6996e-175
2.28928e-178
6.06222e-182
1.4177e-185
2.89736e-189
5.10618e-193
7.62629e-197
9.42895e-201
9.33609e-205
7.042e-209
3.71949e-213
1.33144e-42
7.54287e-44
1.67043e-45
2.82557e-47
3.91455e-49
4.59894e-51
4.68348e-53
4.19525e-55
3.33737e-57
2.37099e-59
1.51068e-61
8.65881e-64
4.47345e-66
2.08716e-68
8.81173e-71
3.40728e-73
1.25376e-75
4.37972e-78
1.44956e-80
4.53661e-83
1.34018e-85
3.73156e-88
9.78025e-91
2.40998e-93
5.57711e-96
1.21098e-98
2.46498e-101
4.69927e-104
8.38307e-107
1.39836e-109
2.17979e-112
3.17325e-115
4.31074e-118
5.46022e-121
6.44387e-124
7.07971e-127
7.23441e-130
6.86756e-133
6.04844e-136
4.93547e-139
3.72586e-142
2.59797e-145
1.67007e-148
9.87616e-152
5.35998e-155
2.66268e-158
1.20718e-161
4.97757e-165
1.85895e-168
6.2574e-172
1.8874e-175
5.06601e-179
1.19989e-182
2.48171e-186
4.42299e-190
6.67547e-194
8.33382e-198
8.32486e-202
6.32786e-206
3.36243e-210
6.57646e-41
4.58864e-42
1.08892e-43
2.01083e-45
3.05636e-47
3.94945e-49
4.42906e-51
4.36771e-53
3.81899e-55
2.975e-57
2.0721e-59
1.29362e-61
7.25208e-64
3.65776e-66
1.66306e-68
7.01086e-71
2.80049e-73
1.05767e-75
3.76953e-78
1.26547e-80
3.99509e-83
1.18448e-85
3.29421e-88
8.58515e-91
2.09481e-93
4.78215e-96
1.02058e-98
2.03452e-101
3.78574e-104
6.57158e-107
1.06368e-109
1.60451e-112
2.25421e-115
2.94778e-118
3.58583e-121
4.05506e-124
4.25945e-127
4.15144e-130
3.7498e-133
3.13489e-136
2.42231e-139
1.72714e-142
1.13421e-145
6.84521e-149
3.78761e-152
1.91642e-155
8.84046e-159
3.70523e-162
1.40516e-165
4.79831e-169
1.46688e-172
3.98702e-176
9.55465e-180
1.99789e-183
3.59705e-187
5.48006e-191
6.90027e-195
6.94572e-199
5.31385e-203
2.83689e-207
2.85263e-39
2.47242e-40
6.28581e-42
1.27805e-43
2.14858e-45
3.07619e-47
3.82222e-49
4.16977e-51
4.02209e-53
3.44514e-55
2.62858e-57
1.79041e-59
1.09071e-61
5.95488e-64
2.91998e-66
1.34624e-68
5.85342e-71
2.39551e-73
9.21153e-76
3.32275e-78
1.12272e-80
3.54918e-83
1.04863e-85
2.89329e-88
7.45e-91
1.78925e-93
4.00555e-96
8.35297e-99
1.6217e-101
2.93009e-104
4.92518e-107
7.69872e-110
1.11859e-112
1.51006e-115
1.89324e-118
2.20336e-121
2.37857e-124
2.37949e-127
2.20348e-130
1.88656e-133
1.49132e-136
1.08671e-139
7.28576e-143
4.48443e-146
2.52801e-149
1.30181e-152
6.10563e-156
2.5991e-159
1.0001e-162
3.46168e-166
1.07167e-169
2.94706e-173
7.13933e-177
1.50784e-180
2.73981e-184
4.20913e-188
5.33987e-192
5.41024e-196
4.16109e-200
2.22907e-204
1.084e-37
1.1677e-38
3.19307e-40
7.22782e-42
1.35521e-43
2.16378e-45
2.99303e-47
3.62414e-49
3.86549e-51
3.64651e-53
3.05139e-55
2.27011e-57
1.50469e-59
8.90396e-62
4.79277e-64
2.42585e-66
1.15188e-68
5.12153e-71
2.12866e-73
8.25894e-76
2.98805e-78
1.00722e-80
3.16097e-83
9.23092e-86
2.50741e-88
6.33274e-91
1.4864e-93
3.2408e-96
6.56124e-99
1.23322e-101
2.15139e-104
3.48266e-107
5.22983e-110
7.28349e-113
9.4049e-116
1.12554e-118
1.24762e-121
1.27984e-124
1.21379e-127
1.06307e-130
8.58695e-134
6.38676e-137
4.36584e-140
2.73695e-143
1.56983e-146
8.21662e-150
3.91297e-153
1.68962e-156
6.58817e-160
2.30852e-163
7.22803e-167
2.00847e-170
4.91211e-174
1.04647e-177
1.91637e-181
2.96457e-185
3.78365e-189
3.85263e-193
2.97401e-197
1.59587e-201
3.61644e-36
4.76165e-37
1.41894e-38
3.62184e-40
7.62719e-42
1.36383e-43
2.10497e-45
2.83198e-47
3.34166e-49
3.47285e-51
3.18846e-53
2.59245e-55
1.87101e-57
1.20161e-59
7.15297e-62
3.97773e-64
2.06279e-66
9.96126e-69
4.47361e-71
1.86661e-73
7.23069e-76
2.5989e-78
8.66351e-81
2.67778e-83
7.67278e-86
2.03764e-88
5.01383e-91
1.14276e-93
2.41226e-96
4.7157e-99
8.53663e-102
1.43084e-104
2.22026e-107
3.18924e-110
4.24015e-113
5.2162e-116
5.93432e-119
6.23887e-122
6.05578e-125
5.42138e-128
4.47068e-131
3.39066e-134
2.36067e-137
1.50562e-140
8.77641e-144
4.66367e-147
2.25254e-150
9.85485e-154
3.88948e-157
1.37818e-160
4.35945e-164
1.2227e-167
3.01559e-171
6.47279e-175
1.1932e-178
1.85634e-182
2.38032e-186
2.43234e-190
1.88166e-194
1.00978e-198
1.0721e-34
1.64186e-35
5.49e-37
1.59743e-38
3.78996e-40
7.5913e-42
1.30589e-43
1.94928e-45
2.54167e-47
2.90831e-49
2.93015e-51
2.60643e-53
2.05175e-55
1.45812e-57
9.62887e-60
5.89817e-62
3.34712e-64
1.7578e-66
8.53601e-69
3.83086e-71
1.58839e-73
6.08354e-76
2.15214e-78
7.03277e-81
2.12305e-83
5.92058e-86
1.52514e-88
3.62896e-91
7.97648e-94
1.61973e-96
3.03878e-99
5.26733e-102
8.43582e-105
1.24832e-107
1.70674e-110
2.1555e-113
2.51343e-116
2.70421e-119
2.68236e-122
2.45061e-125
2.05959e-128
1.58994e-131
1.12535e-134
7.28826e-138
4.30939e-141
2.32046e-144
1.13458e-147
5.02013e-151
2.00193e-154
7.16076e-158
2.28449e-161
6.45651e-165