/*--------------------------------*- C++ -*----------------------------------*\
| =========                 |                                                 |
| \\      /  F ield         | OpenFOAM: The Open Source CFD Toolbox           |
|  \\    /   O peration     | Version:  v1606+                                |
|   \\  /    A nd           | Web:      www.OpenFOAM.com                      |
|    \\/     M anipulation  |                                                 |
\*---------------------------------------------------------------------------*/
FoamFile
{
    version     2.0;
    format      ascii;
    class       surfaceScalarField;
    location    "2";
    object      phi;
}
// * * * * * * * * * * * * * * * * * * * * * * * * * * * * * * * * * * * * * //

dimensions      [0 3 -1 0 0 0 0];

internalField   nonuniform List<scalar> 
9981
(
5.86905
0.017723
5.80976
0.0592901
5.76156
0.0481944
5.70992
0.0516439
5.58753
0.122388
5.36013
0.2274
5.0446
0.315529
4.677
0.367599
4.2867
0.390302
3.89003
0.396668
3.49354
0.396494
3.09895
0.394594
2.70637
0.392572
2.31556
0.390817
1.92614
0.389417
1.53769
0.388447
1.14979
0.3879
0.761847
0.387945
0.375403
0.386445
0.375402
5.65321
0.0403997
5.59793
0.114572
5.54801
0.0981127
5.48584
0.113819
5.35897
0.249257
5.13962
0.446741
4.84027
0.614884
4.49168
0.71619
4.12041
0.761568
3.7415
0.775572
3.36148
0.776523
2.98258
0.773491
2.60537
0.76978
2.22985
0.766335
1.85588
0.763389
1.48333
0.760999
1.11208
0.759144
0.742188
0.757841
0.372517
0.756115
0.74792
5.45075
0.0622013
5.39694
0.168382
5.349
0.146052
5.28547
0.177347
5.15549
0.379241
4.93622
0.666009
4.64243
0.908666
4.30493
1.05369
3.9487
1.1178
3.58663
1.13765
3.22359
1.13956
2.86119
1.13589
2.49996
1.13101
2.14007
1.12623
1.78152
1.12193
1.42425
1.11827
1.06811
1.11529
0.712938
1.11302
0.357865
1.11119
1.10579
5.25585
0.0828516
5.20266
0.221577
5.15135
0.197363
5.0844
0.244295
4.95862
0.50502
4.75137
0.87326
4.4705
1.18953
4.14094
1.38325
3.78865
1.47009
3.43097
1.49533
3.07577
1.49476
2.72511
1.48655
2.37861
1.47751
2.03527
1.46957
1.69413
1.46308
1.35446
1.45794
1.01576
1.45398
0.677732
1.45104
0.339875
1.44904
1.44566
5.06794
0.102393
5.0206
0.268917
4.96652
0.251434
4.88488
0.325934
4.73331
0.656593
4.49699
1.10958
4.2024
1.48412
3.88932
1.69633
3.57779
1.78163
3.26652
1.8066
2.94982
1.81145
2.62655
1.80982
2.29884
1.80522
1.9692
1.79921
1.63929
1.79299
1.30992
1.78731
0.981312
1.78259
0.653243
1.77911
0.325078
1.77721
1.77074
4.88534
0.122281
4.83923
0.315025
4.78108
0.30958
4.69975
0.407266
4.57495
0.781394
4.38923
1.29531
4.13301
1.74034
3.812
2.01734
3.453
2.14063
3.08964
2.16996
2.74232
2.15877
2.41455
2.13758
2.10137
2.1184
1.79675
2.10384
1.49635
2.09339
1.19765
2.086
0.899437
2.08081
0.601543
2.07701
0.304158
2.0746
2.0749
4.71422
0.137561
4.67605
0.353194
4.59848
0.387149
4.46677
0.53898
4.2733
0.974861
4.01917
1.54943
3.72961
2.0299
3.44773
2.29921
3.19389
2.39447
2.95073
2.41312
2.69451
2.41499
2.41788
2.41421
2.12575
2.41052
1.82532
2.40427
1.52144
2.39727
1.21643
2.39101
0.911041
2.3862
0.604924
2.38312
0.297358
2.38216
2.37226
4.54636
0.151266
4.51431
0.385245
4.41142
0.490043
4.23949
0.710912
4.0264
1.18795
3.78142
1.79441
3.51764
2.29368
3.24586
2.571
2.96376
2.67657
2.6754
2.70148
2.39166
2.69873
2.11793
2.68794
1.85227
2.67618
1.59024
2.6663
1.32843
2.65908
1.06525
2.65419
0.800452
2.651
0.534438
2.64914
0.269037
2.64756
2.64129
4.39008
0.157898
4.36121
0.414116
4.22276
0.628494
4.00198
0.931688
3.79503
1.3949
3.63573
1.95371
3.4755
2.45391
3.25787
2.78863
2.98035
2.95408
2.6806
3.00124
2.39168
2.98765
2.12085
2.95877
1.86013
2.9369
1.60167
2.92476
1.34188
2.91887
1.07969
2.91638
0.81513
2.91556
0.549374
2.91489
0.280836
2.9161
2.92213
4.22779
0.169306
4.14716
0.494746
3.94524
0.830422
3.65841
1.21851
3.3686
1.6847
3.11505
2.20726
2.8791
2.68986
2.65923
3.0085
2.47945
3.13386
2.33024
3.15046
2.17322
3.14466
1.98664
3.14535
1.77307
3.15047
1.53994
3.15788
1.29389
3.16493
1.04009
3.17017
0.780828
3.17483
0.516912
3.17881
0.250409
3.1826
3.17254
4.04342
0.21322
3.91602
0.622151
3.70749
1.03895
3.44785
1.47816
3.18753
1.94502
2.96978
2.42501
2.79916
2.86048
2.64209
3.16558
2.46679
3.30916
2.27032
3.34693
2.06443
3.35055
1.85384
3.35594
1.63628
3.36803
1.41543
3.37874
1.19134
3.38901
0.961367
3.40015
0.726065
3.41013
0.485449
3.41942
0.243213
3.42484
3.41575
3.87437
0.279763
3.73849
0.758026
3.54756
1.22988
3.33065
1.69507
3.12306
2.1526
2.95259
2.59549
2.81945
2.99362
2.68462
3.3004
2.50492
3.48887
2.27512
3.57673
2.02527
3.6004
1.78941
3.5918
1.57809
3.57935
1.3744
3.58243
1.16584
3.59757
0.94862
3.61736
0.723134
3.63561
0.491527
3.65103
0.251968
3.6644
3.66772
3.71686
0.362639
3.55358
0.921298
3.33552
1.44794
3.116
1.9146
2.92523
2.34337
2.77381
2.74691
2.653
3.11443
2.53407
3.41933
2.38831
3.63463
2.2175
3.74754
2.04101
3.77689
1.86056
3.77226
1.6701
3.76981
1.47474
3.77779
1.26694
3.80537
1.04043
3.84387
0.795486
3.88056
0.539921
3.9066
0.276208
3.92811
3.94393
3.52584
0.500414
3.23835
1.20878
2.92474
1.76155
2.6735
2.16584
2.4974
2.51947
2.38414
2.86017
2.31141
3.18715
2.25013
3.48061
2.17271
3.71205
2.06814
3.85211
1.95593
3.8891
1.85102
3.87717
1.71916
3.90167
1.53491
3.96205
1.32056
4.01972
1.08861
4.07582
0.835131
4.13404
0.561284
4.18044
0.27879
4.21061
4.22272
3.20556
0.827217
2.64066
1.77368
2.21517
2.18705
1.9617
2.41931
1.84137
2.6398
1.8118
2.88974
1.83365
3.1653
1.87087
3.44339
1.89072
3.6922
1.86508
3.87774
1.78144
3.97274
1.67138
3.98723
1.5659
4.00715
1.4367
4.09125
1.25253
4.20389
1.03009
4.29825
0.790861
4.37328
0.535052
4.43625
0.26679
4.47887
4.48951
2.28979
1.94325
1.50221
2.56126
1.15591
2.53334
1.03449
2.54073
1.0521
2.6222
1.15559
2.78625
1.3019
3.01899
1.45711
3.28818
1.59089
3.55842
1.67268
3.79595
1.6686
3.97682
1.57392
4.0819
1.42723
4.15384
1.29171
4.22677
1.15756
4.33804
0.978894
4.47692
0.75465
4.59752
0.49545
4.69545
0.223913
4.75041
4.71342
0.605791
3.54556
0.22224
2.94481
0.133236
2.62235
0.213426
2.46054
0.382109
2.45352
0.601156
2.5672
0.844487
2.77566
1.09311
3.03956
1.32544
3.32609
1.51615
3.60523
1.64265
3.85033
1.67207
4.05248
1.57973
4.24618
1.42472
4.38177
1.25947
4.50329
1.09871
4.63768
0.882207
4.81402
0.608202
4.96946
0.288599
5.07001
5.00202
-0.800672
4.47846
-0.493898
2.63804
-0.330272
2.45872
-0.159077
2.28934
0.0384741
2.25597
0.268973
2.3367
0.532027
2.51261
0.815184
2.7564
1.10097
3.0403
1.36806
3.33814
1.59317
3.62522
1.77164
3.87402
1.92905
4.08877
1.85187
4.45896
1.67769
4.67747
1.46076
4.8546
1.17813
5.09665
0.789718
5.35787
0.423085
5.43664
5.4251
-0.61309
5.09154
-0.312315
2.33728
-0.391349
2.53775
-0.309766
2.20776
-0.135428
2.08163
0.0722897
2.12898
0.316878
2.26802
0.587503
2.48578
0.877201
2.75061
1.17169
3.04365
1.44816
3.34875
1.67363
3.64854
1.86714
3.89526
2.25064
4.07546
2.31215
4.61597
1.94572
5.22104
1.55966
5.48271
1.11646
5.80107
0.538658
6.01445
5.96376
0.661076
4.43046
0.112178
2.88617
0.0618356
2.58811
-0.123828
2.39343
-0.190647
2.14845
-0.144236
2.08258
0.0411444
2.08264
0.281739
2.24518
0.562145
2.4702
0.863798
2.742
1.16139
3.05116
1.44107
3.36886
1.60533
3.73101
1.75369
3.92709
2.07188
4.29778
2.47222
4.82069
1.81797
6.13695
1.1332
6.48584
0.848551
6.2991
6.81231
0.00640054
-0.0064005
0.0111258
-0.00473185
0.0151073
-0.00397676
0.0183531
-0.00324866
0.0212233
-0.00287062
0.0237956
-0.0025723
0.0260076
-0.00221343
0.0279045
-0.0018966
0.0294935
-0.00159038
0.0307734
-0.00127975
0.0317758
-0.0010036
0.0325083
-0.000732492
0.032998
-0.000490992
0.0332665
-0.000268841
0.0333346
-6.87679e-05
0.0332335
9.93104e-05
0.0329807
0.000252712
0.0326001
0.000379367
0.0320971
0.000500733
0.0314876
0.000608688
0.0308267
0.000659853
0.0300721
0.000752174
0.0292485
0.000821516
0.0284286
0.000818705
0.0275606
0.000866296
0.0266439
0.000914161
0.0257538
0.00088787
0.0248638
0.000888535
0.0239406
0.000921629
0.0230472
0.000891333
0.0222026
0.000842343
0.0213527
0.000848104
0.0204997
0.000851484
0.0196927
0.000805354
0.0189217
0.000768903
0.0181383
0.000781079
0.0173449
0.000791372
0.0165814
0.000761641
0.0158502
0.000729368
0.0151131
0.000734921
0.0143555
0.00075509
0.0136084
0.0007446
0.0129011
0.000704954
0.0122243
0.000675042
0.0115476
0.000675312
0.0108579
0.000688528
0.0101646
0.000692315
0.0094766
0.000687129
0.00878939
0.00068652
0.00809501
0.00069402
0.00739545
0.000699644
0.00670172
0.000694317
0.00602218
0.000680617
0.00535486
0.000668807
0.00469027
0.000666403
0.00402
0.000672296
0.00334091
0.000681276
0.00266104
0.000682153
0.00195424
0.000709139
0.000747517
0.00542821
-0.0118234
0.00982
-0.00913366
0.0138768
-0.00803035
0.0174448
-0.00681838
0.0205617
-0.00598954
0.023354
-0.00536421
0.0257961
-0.00465806
0.0279102
-0.00401033
0.0297077
-0.00339016
0.0311977
-0.00276987
0.0323945
-0.00220248
0.0333152
-0.00165349
0.0339784
-0.00115627
0.0344051
-0.000697513
0.0346223
-0.000286367
0.0346507
6.80625e-05
0.0345105
0.000390155
0.0342302
0.000658199
0.0338098
0.000918687
0.0332772
0.00113765
0.0326669
0.00126695
0.0319615
0.00145495
0.0311828
0.00159712
0.0303738
0.00162372
0.0295183
0.00171789
0.0286132
0.00181601
0.0276976
0.00180034
0.0267754
0.00180735
0.0258311
0.00186207
0.0248855
0.00183334
0.0239584
0.00176624
0.0230392
0.00176421
0.0221248
0.00176258
0.0212296
0.0016968
0.0203551
0.00163961
0.0194895
0.00164295
0.018634
0.00164332
0.0177972
0.00159478
0.0169721
0.00155041
0.0161426
0.00156007
0.015312
0.00158132
0.0145035
0.00154929
0.0137299
0.00147526
0.0129792
0.00142326
0.0122291
0.00142323
0.0114731
0.00144279
0.0107203
0.00144358
0.00997885
0.00142755
0.00924524
0.00141968
0.00851088
0.0014287
0.00777349
0.00143821
0.0070393
0.00143049
0.00631585
0.00140676
0.00560439
0.00138352
0.00489935
0.0013751
0.0041935
0.00138208
0.00348299
0.00139589
0.00276669
0.00140266
0.00204718
0.0014329
0.0014851
0.00500206
-0.0168206
0.00914382
-0.0132836
0.0131541
-0.012039
0.0168549
-0.0105201
0.0200719
-0.00920875
0.0229305
-0.00822237
0.0254367
-0.00716658
0.0276039
-0.00617742
0.0294498
-0.00523796
0.0309894
-0.00430951
0.0322335
-0.00344862
0.0332052
-0.00262603
0.0339219
-0.00187376
0.0344006
-0.00117817
0.0346741
-0.000561676
0.0347596
-1.87071e-05
0.0346703
0.000478028
0.0344428
0.000883002
0.0340829
0.00127605
0.0336099
0.00160879
0.0330471
0.0018275
0.0324021
0.00209679
0.0316896
0.00230642
0.0309256
0.00238498
0.0301162
0.00252456
0.0292648
0.00266426
0.0283842
0.0026777
0.0274877
0.00270074
0.0265752
0.0027715
0.0256462
0.00275929
0.0247178
0.00269176
0.0238043
0.00267487
0.0228981
0.00266578
0.0219911
0.00260056
0.0210931
0.00253431
0.0202146
0.00251814
0.0193489
0.00250571
0.0184812
0.00245912
0.0176091
0.00241887
0.0167462
0.00241929
0.0159058
0.00241811
0.0150898
0.00236205
0.0142891
0.00227312
0.0134935
0.00221659
0.012701
0.00221388
0.0119157
0.00222654
0.0111405
0.00221754
0.0103731
0.00219406
0.00960799
0.00218449
0.00884149
0.00219552
0.00807512
0.00220561
0.00731395
0.00219338
0.00656225
0.00216078
0.00581986
0.0021287
0.00508252
0.00211557
0.00434512
0.00212286
0.00360528
0.00213926
0.00286106
0.0021505
0.00212005
0.00217755
0.00223356
0.00475131
-0.0215683
0.0087952
-0.0173339
0.0127062
-0.0159499
0.0164356
-0.0142498
0.0197268
-0.0125024
0.0226313
-0.0111266
0.0251821
-0.00971938
0.0273844
-0.00837991
0.0292596
-0.00711515
0.0308277
-0.00587814
0.0320968
-0.00471869
0.033093
-0.00362384
0.0338415
-0.00262382
0.0343548
-0.00169207
0.0346602
-0.000868889
0.0347805
-0.000141057
0.0347372
0.000519981
0.0345523
0.00106597
0.0342323
0.00159363
0.0338122
0.00202691
0.0333016
0.00233585
0.0327032
0.00269235
0.0320462
0.00296065
0.0313341
0.00309463
0.0305664
0.00328956
0.0297631
0.00346429
0.0289306
0.00350701
0.0280652
0.00356319
0.0271786
0.00365524
0.026284
0.00365086
0.0253854
0.00358736
0.0244847
0.00357264
0.0235832
0.00356429
0.0226824
0.00349829
0.0217844
0.003429
0.0208881
0.00341112
0.0199893
0.00340109
0.019091
0.00335415
0.0182046
0.00330184
0.0173391
0.00328141
0.0164916
0.00326222
0.0156521
0.00319853
0.0148153
0.00310738
0.0139844
0.00304525
0.0131652
0.00303132
0.0123582
0.00303215
0.0115589
0.00301572
0.0107623
0.00298995
0.00996611
0.00298052
0.00917079
0.00299124
0.00837858
0.00299886
0.00759203
0.0029816
0.00681262
0.0029424
0.00603965
0.00290431
0.00527037
0.00288782
0.00450165
0.00289476
0.00373188
0.00291236
0.00295992
0.00292585
0.00219016
0.00295071
0.0030075
0.00465205
-0.0262179
0.00868049
-0.0213672
0.0124978
-0.0197681
0.0161893
-0.0179413
0.0195201
-0.0158357
0.0224591
-0.0140657
0.0250451
-0.0123076
0.0272791
-0.0106143
0.0291774
-0.00901483
0.0307663
-0.00746851
0.032058
-0.0060113
0.0330739
-0.00464081
0.0338406
-0.00339254
0.03438
-0.00223214
0.034715
-0.0012055
0.0348647
-0.000292868
0.034855
0.00052846
0.034709
0.00121031
0.0344238
0.00187655
0.0340441
0.0024047
0.033583
0.00279489
0.033027
0.00324577
0.0324081
0.00357718
0.0317442
0.00375624
0.0310265
0.00400455
0.0302627
0.00422491
0.0294656
0.00430105
0.0286399
0.00438617
0.0277922
0.0045001
0.0269293
0.00451074
0.0260541
0.00445937
0.0251689
0.00445479
0.024275
0.00445522
0.0233723
0.00439785
0.0224608
0.00433717
0.0215423
0.00432612
0.0206234
0.00431658
0.0197151
0.00425905
0.0188252
0.00418851
0.0179506
0.00415272
0.017081
0.00412878
0.0162097
0.00406686
0.0153413
0.00397334
0.0144845
0.00389992
0.0136429
0.00387118
0.0128118
0.00386198
0.0119837
0.0038429
0.0111554
0.00381775
0.0103284
0.00380744
0.00950564
0.00381454
0.00868827
0.00381735
0.00787604
0.00379551
0.00706831
0.00375231
0.00626435
0.00371086
0.00546299
0.00369207
0.00466281
0.00369803
0.0038627
0.00371567
0.00306169
0.00373014
0.00226192
0.00375375
0.00381019
0.00460504
-0.0308219
0.00866176
-0.0254272
0.0124357
-0.023544
0.0160683
-0.0215738
0.0194115
-0.0191815
0.0223751
-0.0170296
0.0249884
-0.0149228
0.0272523
-0.0128794
0.0291773
-0.0109407
0.0307874
-0.00908022
0.0320999
-0.00732501
0.0331398
-0.0056815
0.0339279
-0.0041827
0.0344909
-0.00279599
0.0348564
-0.00157248
0.035036
-0.000474345
0.0350539
0.000509486
0.0349401
0.00132252
0.0346945
0.00212004
0.0343499
0.00274769
0.0339218
0.00322123
0.0334063
0.00375893
0.0328287
0.00415258
0.032204
0.00437881
0.0315282
0.00467777
0.0308043
0.00494583
0.0300422
0.00506028
0.0292532
0.00517253
0.028441
0.00530944
0.0276013
0.00534733
0.0267363
0.00532105
0.0258555
0.00533238
0.0249614
0.00534629
0.0240508
0.00530523
0.023127
0.00525764
0.0221998
0.0052497
0.0212786
0.0052343
0.0203674
0.00516688
0.0194652
0.00508763
0.0185668
0.00504799
0.0176679
0.00502473
0.0167692
0.00496282
0.0158775
0.00486267
0.014999
0.00477636
0.0141333
0.00473532
0.0132735
0.00472064
0.0124134
0.00470222
0.0115529
0.00467792
0.0106962
0.00466427
0.00984661
0.00466481
0.00900363
0.00466152
0.00816469
0.00463618
0.00732779
0.00459139
0.0064925
0.00454869
0.00565907
0.00452832
0.0048273
0.00453279
0.00399644
0.00454963
0.00316543
0.00456429
0.00233515
0.00458718
0.00464241
0.0045837
-0.0354055
0.00868776
-0.0295333
0.0124687
-0.0273278
0.0160562
-0.0251611
0.0193978
-0.0225257
0.0223835
-0.0200161
0.0250248
-0.0175654
0.0273195
-0.0151759
0.0292765
-0.0128985
0.030918
-0.0107232
0.0322574
-0.00866578
0.0333265
-0.00675139
0.0341469
-0.005005
0.0347402
-0.00339008
0.0351324
-0.00196609
0.035342
-0.000685586
0.0353941
0.000456536
0.0353084
0.00140672
0.0350927
0.00233389
0.0347802
0.00305876
0.0343808
0.00361919
0.0338988
0.00423892
0.0333572
0.00469216
0.0327637
0.0049704
0.0321198
0.00531932
0.0314311
0.00563184
0.0306997
0.00578897
0.029934
0.00593574
0.0291391
0.00610146
0.0283089
0.00617421
0.0274443
0.00618224
0.0265582
0.00621522
0.0256582
0.00624317
0.0247437
0.00621667
0.0238178
0.00618004
0.02289
0.00617399
0.0219653
0.00615543
0.0210421
0.0060868
0.0201171
0.00600964
0.0191903
0.00597199
0.0182643
0.00594792
0.0173432
0.00588124
0.0164312
0.00577241
0.0155296
0.00567599
0.0146355
0.00562797
0.0137431
0.00561202
0.0128495
0.0055953
0.0119573
0.00557008
0.0110716
0.0055503
0.0101949
0.00554228
0.00932512
0.00553265
0.00845796
0.0055051
0.00759087
0.00546065
0.00672394
0.00541812
0.0058584
0.0053966
0.00499485
0.00539922
0.00413275
0.00541471
0.00327098
0.00542908
0.00240975
0.00545141
0.00550475
0.00458696
-0.0399933
0.00874604
-0.0336933
0.0125673
-0.0311524
0.0161411
-0.0287348
0.0194824
-0.0258694
0.0224916
-0.0230267
0.0251663
-0.020241
0.0274995
-0.0175111
0.029494
-0.0148938
0.0311754
-0.0124061
0.0325555
-0.010047
0.033662
-0.00785892
0.0345165
-0.00586111
0.035145
-0.00401911
0.0355697
-0.00239218
0.0358058
-0.000923118
0.0358897
0.000371957
0.0358295
0.00146552
0.0356353
0.00252654
0.0353483
0.00334461
0.0349733
0.00399291
0.0345148
0.00469566
0.0339952
0.00520986
0.0334223
0.00554164
0.0328011
0.00593853
0.0321348
0.00629569
0.0314194
0.00650186
0.030662
0.0066906
0.0298713
0.00688934
0.0290429
0.00699931
0.0281771
0.00704449
0.0272879
0.0071011
0.0263857
0.00714226
0.0254706
0.0071286
0.0245433
0.00710396
0.0236092
0.00710452
0.0226713
0.00708989
0.0217276
0.00702733
0.0207775
0.00695693
0.0198252
0.00692157
0.0188768
0.00689371
0.0179355
0.00682005
0.0170014
0.00670429
0.0160728
0.00660289
0.0151464
0.00655307
0.0142194
0.00653816
0.0132923
0.00652213
0.0123692
0.00649332
0.0114549
0.00646519
0.0105503
0.00644782
0.00965202
0.00643238
0.0087551
0.00640383
0.00785701
0.00636089
0.00695825
0.00631933
0.0060606
0.0062969
0.00516508
0.0062975
0.00427128
0.00631134
0.00337814
0.00632507
0.00248556
0.00634684
0.00639775
0.00458303
-0.0445781
0.00880062
-0.0379109
0.0126831
-0.0350385
0.0162767
-0.0323289
0.019634
-0.0292286
0.0226757
-0.0260702
0.0253884
-0.0229545
0.0277689
-0.0198935
0.0298122
-0.016938
0.0315403
-0.0141357
0.0329659
-0.0114736
0.0341166
-0.00901063
0.0350087
-0.00675465
0.035672
-0.00468281
0.0361312
-0.00285272
0.0363936
-0.00118669
0.0365017
0.000263269
0.0364631
0.0015029
0.0362876
0.00270059
0.0360182
0.00361302
0.0356579
0.00435204
0.035213
0.00513883
0.0347035
0.00571763
0.0341382
0.00610537
0.0335275
0.00654739
0.0328708
0.00695003
0.032159
0.00721109
0.0314022
0.007445
0.0306136
0.00767507
0.02979
0.00781956
0.0289294
0.00790146
0.0280438
0.00798328
0.027143
0.00803989
0.0262257
0.00804272
0.0252902
0.00803614
0.0243408
0.00805037
0.0233825
0.00804485
0.0224164
0.00799035
0.0214446
0.00792606
0.0204725
0.0078912
0.0195051
0.00785869
0.0185429
0.00777995
0.0175831
0.00766202
0.0166233
0.00756114
0.0156623
0.00751294
0.0147009
0.00749908
0.0137415
0.00748142
0.0127886
0.00744664
0.0118455
0.00740913
0.0109117
0.00738277
0.00998315
0.00736239
0.00905524
0.00733358
0.00812564
0.00729263
0.00719499
0.00725235
0.00626521
0.00722921
0.00533752
0.00722784
0.00441165
0.00723988
0.00348669
0.00725272
0.00256236
0.00727383
0.0073219
0.00459733
-0.0491777
0.00888005
-0.0421932
0.0128408
-0.0390029
0.016486
-0.0359748
0.0198799
-0.0326241
0.0229681
-0.0291604
0.0257272
-0.0257144
0.0281583
-0.0223264
0.0302541
-0.0190346
0.0320312
-0.0159144
0.0335002
-0.0129433
0.0346922
-0.0102038
0.0356224
-0.00768612
0.0363168
-0.00537756
0.0368041
-0.00334126
0.0370893
-0.001473
0.0372169
0.000135141
0.0371941
0.00152457
0.0370331
0.00286028
0.0367737
0.00387148
0.036418
0.00470653
0.0359776
0.00557743
0.0354689
0.00622457
0.0348999
0.00667287
0.0342878
0.00715756
0.0336318
0.0076036
0.032919
0.00792133
0.0321612
0.00820022
0.0313763
0.00845717
0.0305606
0.0086318
0.0297082
0.00875019
0.0288272
0.00886083
0.0279255
0.00893828
0.0270008
0.00896424
0.0260505
0.00898313
0.0250805
0.00901691
0.0240996
0.00902248
0.0231127
0.00897432
0.022123
0.00891325
0.0211342
0.00887772
0.020148
0.00884268
0.019162
0.00876388
0.0181725
0.00864968
0.0171787
0.00855356
0.0161828
0.00850799
0.0151881
0.00849348
0.014198
0.00847174
0.0132156
0.00842967
0.0122427
0.00838308
0.011278
0.00834874
0.0103178
0.00832415
0.00935809
0.00829521
0.00839664
0.00825618
0.00743402
0.00821728
0.006472
0.00819366
0.00551187
0.00819046
0.00455359
0.00820067
0.00359642
0.0082124
0.00264001
0.00823272
0.00827767
0.00465482
-0.0538353
0.00901873
-0.0465567
0.0130749
-0.0430625
0.0168017
-0.039703
0.020253
-0.0360767
0.0233987
-0.0323084
0.0262114
-0.0285279
0.0286925
-0.0248096
0.0308355
-0.0211782
0.0326562
-0.0177367
0.0341648
-0.0144526
0.0353909
-0.011431
0.0363527
-0.00864914
0.037074
-0.00609921
0.0375828
-0.00385131
0.0378877
-0.00177885
0.0380329
-1.05949e-05
0.0380222
0.00153414
0.0378719
0.00300926
0.0376177
0.00412473
0.0372619
0.00506106
0.0368217
0.00601574
0.0363091
0.00673539
0.0357306
0.00724969
0.0351109
0.0077753
0.0344515
0.00826046
0.0337368
0.00863333
0.0329775
0.0089568
0.0321931
0.00923873
0.0313799
0.00944164
0.0305285
0.00959784
0.0296441
0.00974165
0.028734
0.0098451
0.0277959
0.00989918
0.0268274
0.00994828
0.0258362
0.0100048
0.0248338
0.0100217
0.0238277
0.00997772
0.0228206
0.00991797
0.0218136
0.00988261
0.0208052
0.00984919
0.0197911
0.0097761
0.0187687
0.00967044
0.01774
0.0095811
0.0167101
0.00953734
0.0156835
0.00951996
0.0146633
0.00949252
0.0136507
0.00944314
0.0126464
0.00938859
0.0116493
0.00934736
0.0106563
0.00931882
0.00966402
0.00928938
0.00867038
0.00925189
0.00767552
0.00921435
0.00668096
0.00919051
0.00568807
0.00918569
0.00469703
0.00919406
0.00370727
0.00920448
0.0027184
0.00922388
0.00926553
0.00475006
-0.0585881
0.00922113
-0.0510276
0.0133917
-0.0472363
0.0172256
-0.0435387
0.0207539
-0.0396062
0.0239658
-0.0355229
0.026835
-0.0313979
0.0293645
-0.0273412
0.0315501
-0.0233647
0.0334074
-0.0195959
0.0349516
-0.0159973
0.0362076
-0.0126884
0.0371956
-0.00963829
0.0379423
-0.00684632
0.0384718
-0.00438209
0.0387965
-0.00210452
0.0389597
-0.000174202
0.0389606
0.00153202
0.038821
0.00314752
0.0385711
0.00437363
0.0382154
0.00541552
0.0377761
0.00645311
0.0372594
0.00725019
0.0366708
0.00783652
0.0360413
0.00840274
0.0353757
0.0089233
0.0346567
0.00934951
0.0338914
0.00971934
0.033098
0.0100293
0.0322734
0.0102629
0.0314081
0.0104596
0.0305066
0.0106396
0.0295773
0.010771
0.0286195
0.0108539
0.0276313
0.0109332
0.0266203
0.0110126
0.0255981
0.0110409
0.024572
0.0110012
0.0235439
0.0109439
0.022513
0.0109117
0.0214762
0.0108842
0.0204299
0.0108209
0.019373
0.0107259
0.01831
0.0106432
0.0172473
0.0105997
0.0161896
0.0105779
0.0151384
0.0105445
0.014094
0.0104887
0.0130566
0.0104274
0.0120256
0.01038
0.0109989
0.0103473
0.00997353
0.0103167
0.00894722
0.0102802
0.00791966
0.010244
0.00689215
0.0102202
0.00586611
0.0102139
0.00484193
0.0102204
0.00381919
0.0102293
0.00279745
0.0102477
0.0102859
0.0048914
-0.0634823
0.0094996
-0.055636
0.013804
-0.0515436
0.0177645
-0.0475015
0.0213873
-0.0432303
0.0246754
-0.0388136
0.0276061
-0.0343297
0.0301842
-0.0299216
0.0324135
-0.0255949
0.0343062
-0.0214906
0.0358837
-0.0175754
0.0371698
-0.0139761
0.0381835
-0.0106531
0.0389564
-0.00761963
0.0395074
-0.00493447
0.0398527
-0.00245087
0.0400328
-0.000354685
0.0400441
0.00151955
0.0399148
0.00327548
0.039668
0.00461949
0.0393113
0.00577092
0.0388724
0.00689005
0.0383511
0.00776964
0.0377511
0.00843465
0.0371081
0.00904367
0.0364301
0.00959848
0.0356993
0.0100775
0.0349186
0.0104972
0.0341036
0.0108415
0.0332523
0.011111
0.0323576
0.0113508
0.0314258
0.0115679
0.0304672
0.0117264
0.0294832
0.0118348
0.0284726
0.0119408
0.0274414
0.0120409
0.0263985
0.012081
0.0253489
0.0120485
0.0242932
0.0119976
0.0232307
0.0119725
0.0221596
0.0119539
0.0210778
0.0119014
0.0199862
0.0118164
0.0188901
0.0117387
0.0177955
0.0116941
0.0167061
0.0116678
0.0156224
0.0116291
0.0145443
0.0115681
0.0134723
0.0115011
0.0124065
0.0114475
0.0113455
0.0114101
0.0102866
0.0113775
0.00922702
0.0113418
0.00816624
0.0113068
0.00710534
0.0112831
0.00604579
0.0112755
0.00498813
0.01128
0.00393204
0.0112874
0.00287703
0.0113046
0.0113393
0.00508257
-0.0685675
0.00985762
-0.0604121
0.0143154
-0.0560039
0.0184207
-0.0516098
0.0221582
-0.046969
0.0255373
-0.0421957
0.0285423
-0.0373359
0.0311768
-0.0325586
0.0334565
-0.0278758
0.0353897
-0.0234259
0.0370019
-0.0191885
0.0383196
-0.0152955
0.0393594
-0.0116941
0.040157
-0.00841775
0.0407264
-0.00550539
0.0410889
-0.00281432
0.0412802
-0.000546495
0.0412962
0.00150235
0.0411722
0.00339818
0.0409229
0.00486794
0.0405595
0.00613307
0.040115
0.00733263
0.0395837
0.00829904
0.0389674
0.00904926
0.0383029
0.00970604
0.0376016
0.0102971
0.036847
0.0108292
0.0360397
0.0113018
0.0351924
0.0116861
0.0343046
0.0119957
0.0333723
0.0122798
0.0324037
0.0125332
0.0314101
0.0127169
0.0303945
0.0128477
0.0293565
0.0129759
0.0283006
0.0130941
0.0272321
0.013147
0.0261527
0.0131257
0.0250625
0.0130862
0.0239622
0.0130715
0.0228527
0.0130623
0.0217342
0.0130189
0.0206085
0.0129413
0.01948
0.0128669
0.0183533
0.012821
0.0172309
0.0127909
0.016113
0.0127483
0.0149997
0.0126829
0.0138922
0.0126103
0.0127912
0.0125503
0.0116956
0.0125075
0.0106026
0.0124725
0.00950924
0.012437
0.00841476
0.0124032
0.00732011
0.0123797
0.00622678
0.0123707
0.00513537
0.0123733
0.0040456
0.0123789
0.00295695
0.0123949
0.0124261
0.00530511
-0.0738751
0.0102779
-0.0653869
0.014915
-0.0606431
0.0191895
-0.0558878
0.0230694
-0.0508503
0.0265619
-0.0456915
0.0296609
-0.0404365
0.0323668
-0.035267
0.0347059
-0.0302164
0.0366855
-0.0254078
0.0383334
-0.0208374
0.0396799
-0.016644
0.0407417
-0.0127573
0.0415568
-0.0092335
0.0421361
-0.00608632
0.0425076
-0.00318693
0.0427012
-0.000740586
0.0427141
0.00148821
0.0425877
0.00352333
0.0423278
0.00512698
0.0419494
0.00651027
0.0414894
0.00779076
0.0409393
0.00884728
0.0402987
0.00968806
0.0396031
0.0103996
0.0388658
0.0110318
0.0380744
0.0116178
0.0372299
0.0121436
0.036343
0.0125703
0.0354147
0.0129211
0.0344439
0.0132474
0.0334391
0.013535
0.0324098
0.0137433
0.0313586
0.0138963
0.0302865
0.0140456
0.0291975
0.0141807
0.0280948
0.0142476
0.0269781
0.0142407
0.0258474
0.0142155
0.0247056
0.0142123
0.0235561
0.014211
0.0224007
0.0141736
0.021241
0.0141006
0.0200796
0.0140283
0.0189195
0.0139815
0.0177623
0.0139491
0.0166086
0.0139034
0.0154592
0.013834
0.0143158
0.0137556
0.0131795
0.0136886
0.0120489
0.01364
0.0109212
0.0136021
0.00979356
0.0135665
0.00866493
0.0135337
0.00753623
0.0135101
0.00640887
0.0134997
0.00528343
0.0135003
0.00415967
0.0135042
0.00303706
0.013519
0.0135465
0.00555534
-0.0794326
0.0107643
-0.070599
0.0156194
-0.0655
0.0200962
-0.0603687
0.0241523
-0.054908
0.0277841
-0.0493268
0.0309964
-0.0436508
0.0337864
-0.0380599
0.0361886
-0.0326205
0.0382131
-0.0274349
0.0398908
-0.0225164
0.0412563
-0.0180117
0.0423303
-0.0138328
0.0431513
-0.0100555
0.0437301
-0.00666696
0.0441031
-0.00356109
0.0442914
-0.000929475
0.0442961
0.00148218
0.0441613
0.00365675
0.0438846
0.00540271
0.0434842
0.00690945
0.0429986
0.00827449
0.0424197
0.00942423
0.0417469
0.010359
0.0410115
0.011133
0.0402274
0.0118133
0.0393882
0.0124543
0.0384971
0.013032
0.0375641
0.0135006
0.0365915
0.013891
0.035581
0.014255
0.0345402
0.0145728
0.0334743
0.0148066
0.0323832
0.0149849
0.0312687
0.0151579
0.0301361
0.0153112
0.0289889
0.0153929
0.0278269
0.0154013
0.0266507
0.0153907
0.0254651
0.0153973
0.0242748
0.0154009
0.023082
0.0153661
0.021887
0.0152956
0.0206906
0.0152249
0.0194946
0.0151782
0.0183006
0.0151443
0.0171097
0.0150959
0.0159236
0.015022
0.014744
0.0149371
0.0135718
0.0148628
0.0124058
0.014808
0.0112428
0.0147669
0.0100802
0.0147309
0.00891692
0.0146986
0.00775377
0.0146749
0.00659206
0.014663
0.00543227
0.0146616
0.00427416
0.0146637
0.00311726
0.0146773
0.014701
0.00585805
-0.0852924
0.0113545
-0.0760999
0.0164777
-0.0706248
0.0211948
-0.0650902
0.0254581
-0.0591734
0.0292498
-0.053122
0.0325851
-0.0469886
0.0354613
-0.040939
0.0379197
-0.0350812
0.0399781
-0.029496
0.0416738
-0.0242137
0.0430448
-0.0193854
0.0441208
-0.0149105
0.0449384
-0.0108743
0.0455098
-0.00724048
0.0458806
-0.00393335
0.0460597
-0.00110941
0.0460546
0.00148586
0.0459075
0.00380224
0.0456097
0.00569941
0.0451817
0.0073362
0.0446609
0.00879345
0.0440428
0.0100403
0.0433295
0.0110704
0.0425476
0.0119127
0.0417101
0.0126483
0.0408164
0.0133454
0.0398727
0.0139732
0.0388871
0.0144836
0.0378627
0.0149126
0.0368047
0.0153101
0.0357204
0.0156543
0.0346108
0.0159137
0.0334722
0.0161214
0.0323062
0.0163219
0.0311202
0.0164954
0.0299195
0.0165921
0.0287051
0.0166146
0.0274793
0.0166159
0.0262475
0.0166289
0.0250147
0.0166337
0.0237821
0.0165988
0.0225487
0.0165293
0.021314
0.0164602
0.0200792
0.016414
0.0188462
0.0163787
0.017617
0.0163268
0.0163935
0.0162475
0.0151773
0.0161554
0.0139689
0.0160732
0.0127666
0.0160121
0.0115677
0.0159676
0.0103694
0.0159308
0.00917086
0.0158987
0.00797282
0.0158744
0.00677635
0.0158608
0.00558182
0.0158574
0.00438899
0.0158577
0.00319744
0.01587
0.0158899
0.00623729
-0.091531
0.0120833
-0.0819514
0.0175287
-0.0760716
0.0225211
-0.0700872
0.0270129
-0.0636678
0.0309742
-0.0570867
0.0344304
-0.0504478
0.0373848
-0.0438965
0.0398872
-0.0375863
0.0419666
-0.0315785
0.04367
-0.0259189
0.0450372
-0.0207557
0.0461092
-0.0159844
0.0469184
-0.0116851
0.0474785
-0.00780296
0.0478436
-0.00430005
0.0480087
-0.00127563
0.0479893
0.00150363
0.0478226
0.00396726
0.047497
0.0060238
0.0470345
0.00779747
0.0464686
0.00935748
0.0458008
0.0107062
0.0450386
0.0118306
0.0442047
0.0127445
0.0433109
0.0135398
0.0423616
0.0142922
0.0413643
0.014968
0.040323
0.0155224
0.0392395
0.0159935
0.0381224
0.0164245
0.036981
0.0167931
0.0358146
0.0170778
0.0346176
0.0173165
0.0333915
0.0175463
0.032145
0.0177403
0.0308851
0.0178509
0.0296142
0.0178847
0.0283355
0.0178942
0.0270548
0.0179097
0.0257763
0.0179124
0.0245005
0.0178751
0.0232248
0.0178056
0.0219482
0.0177377
0.0206718
0.0176916
0.0193982
0.0176539
0.0181298
0.0175971
0.0168684
0.017511
0.0156152
0.0174107
0.0143699
0.0173205
0.0131307
0.0172531
0.0118951
0.017205
0.0106605
0.0171669
0.00942629
0.0171344
0.00819295
0.0171091
0.00696136
0.0170937
0.00573176
0.0170881
0.0045039
0.0170866
0.00327743
0.0170974
0.0171133
0.00670425
-0.0982362
0.0129664
-0.08822
0.0187854
-0.0818922
0.0240824
-0.0753888
0.028815
-0.0684036
0.0329482
-0.0612235
0.0365187
-0.0540219
0.0395426
-0.0469237
0.0420808
-0.0401277
0.0441741
-0.033675
0.0458796
-0.0276267
0.0472377
-0.0221172
0.0483002
-0.0170491
0.0490937
-0.0124806
0.0496337
-0.00834561
0.0499808
-0.00464896
0.0501192
-0.00141534
0.0500733
0.0015478
0.0498731
0.00416577