/*--------------------------------*- C++ -*----------------------------------*\
| =========                 |                                                 |
| \\      /  F ield         | OpenFOAM: The Open Source CFD Toolbox           |
|  \\    /   O peration     | Version:  v1606+                                |
|   \\  /    A nd           | Web:      www.OpenFOAM.com                      |
|    \\/     M anipulation  |                                                 |
\*---------------------------------------------------------------------------*/
FoamFile
{
    version     2.0;
    format      ascii;
    class       volVectorField;
    location    "2";
    object      U;
}
// * * * * * * * * * * * * * * * * * * * * * * * * * * * * * * * * * * * * * //

dimensions      [0 1 -1 0 0 0 0];

internalField   nonuniform List<vector> 
5080
(
(2.91631 0.00202289 0)
(2.81112 0.0277202 0)
(2.76965 0.0213264 0)
(2.82113 0.02051 0)
(2.74855 0.0609478 0)
(2.6194 0.124725 0)
(2.50853 0.178352 0)
(2.35911 0.209253 0)
(2.16558 0.222226 0)
(1.96847 0.225599 0)
(1.77794 0.225252 0)
(1.58823 0.22399 0)
(1.3985 0.222709 0)
(1.20967 0.221605 0)
(1.02174 0.220714 0)
(0.834327 0.220079 0)
(0.64741 0.219686 0)
(0.459955 0.219734 0)
(0.273304 0.21887 0)
(0.0926123 0.208982 0)
(2.9116 0.0345496 0)
(2.81216 0.0998907 0)
(2.77039 0.0851621 0)
(2.80897 0.0942448 0)
(2.73543 0.207981 0)
(2.60884 0.37656 0)
(2.49541 0.518858 0)
(2.34696 0.60325 0)
(2.15792 0.640221 0)
(1.96354 0.65097 0)
(1.77407 0.651138 0)
(1.58517 0.648368 0)
(1.39616 0.645282 0)
(1.20797 0.642537 0)
(1.02075 0.640264 0)
(0.834046 0.638518 0)
(0.648419 0.637286 0)
(0.460246 0.636689 0)
(0.279622 0.634994 0)
(0.100499 0.623157 0)
(2.91088 0.0575176 0)
(2.81218 0.15721 0)
(2.77109 0.135115 0)
(2.80688 0.16064 0)
(2.73173 0.34694 0)
(2.60253 0.615471 0)
(2.48398 0.845403 0)
(2.3329 0.985687 0)
(2.14458 1.04961 0)
(1.9519 1.06996 0)
(1.76417 1.07164 0)
(1.57688 1.06719 0)
(1.38927 1.06141 0)
(1.20226 1.05584 0)
(1.01612 1.05096 0)
(0.830419 1.04692 0)
(0.645788 1.04375 0)
(0.457922 1.04144 0)
(0.27885 1.03911 0)
(0.10134 1.03201 0)
(2.91003 0.0807553 0)
(2.81299 0.217262 0)
(2.77081 0.191401 0)
(2.80099 0.234756 0)
(2.72415 0.492209 0)
(2.59752 0.853558 0)
(2.4812 1.15534 0)
(2.32941 1.33136 0)
(2.13709 1.40594 0)
(1.93927 1.4276 0)
(1.74766 1.42955 0)
(1.55873 1.42632 0)
(1.37142 1.42243 0)
(1.186 1.41891 0)
(1.00215 1.41588 0)
(0.819007 1.41331 0)
(0.636961 1.41118 0)
(0.45139 1.40945 0)
(0.274886 1.408 0)
(0.100212 1.40222 0)
(2.90837 0.103454 0)
(2.81487 0.274409 0)
(2.77355 0.247642 0)
(2.7964 0.310262 0)
(2.70823 0.637903 0)
(2.56244 1.10273 0)
(2.4253 1.51192 0)
(2.26639 1.7736 0)
(2.08502 1.89748 0)
(1.90687 1.93521 0)
(1.73286 1.93306 0)
(1.55514 1.9172 0)
(1.37331 1.89874 0)
(1.18969 1.88156 0)
(1.00573 1.86685 0)
(0.821716 1.85488 0)
(0.638517 1.84559 0)
(0.452109 1.83891 0)
(0.273646 1.8348 0)
(0.0987469 1.83329 0)
(2.90492 0.125636 0)
(2.81807 0.327537 0)
(2.77526 0.310051 0)
(2.78577 0.401802 0)
(2.70242 0.793015 0)
(2.58093 1.31749 0)
(2.47007 1.72531 0)
(2.31519 1.92291 0)
(2.10666 1.97899 0)
(1.88813 1.9897 0)
(1.68216 1.99834 0)
(1.48858 2.00918 0)
(1.30426 2.01846 0)
(1.12622 2.02504 0)
(0.951717 2.02955 0)
(0.778473 2.03271 0)
(0.606284 2.03494 0)
(0.430002 2.03633 0)
(0.263674 2.03694 0)
(0.0973642 2.02151 0)
(2.89935 0.145892 0)
(2.82652 0.372476 0)
(2.78395 0.380866 0)
(2.76412 0.514218 0)
(2.64275 0.9659 0)
(2.47597 1.59397 0)
(2.32265 2.18502 0)
(2.15881 2.61528 0)
(1.99123 2.84755 0)
(1.84074 2.91515 0)
(1.69402 2.89115 0)
(1.53501 2.83865 0)
(1.36348 2.78879 0)
(1.18487 2.74956 0)
(1.00328 2.72011 0)
(0.820429 2.69817 0)
(0.637599 2.68202 0)
(0.451601 2.67056 0)
(0.270742 2.66478 0)
(0.0959604 2.68462 0)
(2.88996 0.1629 0)
(2.84026 0.411148 0)
(2.78894 0.469419 0)
(2.72686 0.663744 0)
(2.58828 1.1761 0)
(2.42119 1.82886 0)
(2.26928 2.30912 0)
(2.10941 2.4693 0)
(1.932 2.43001 0)
(1.75071 2.38372 0)
(1.57326 2.39593 0)
(1.40094 2.43616 0)
(1.23377 2.47186 0)
(1.07006 2.4943 0)
(0.907441 2.50708 0)
(0.744131 2.51506 0)
(0.580139 2.52085 0)
(0.411604 2.52565 0)
(0.251408 2.52767 0)
(0.0920341 2.48136 0)
(2.88016 0.172736 0)
(2.86144 0.435141 0)
(2.7956 0.60272 0)
(2.67351 0.887349 0)
(2.51153 1.41206 0)
(2.37934 2.07584 0)
(2.2978 2.6777 0)
(2.19311 3.12747 0)
(2.02191 3.42252 0)
(1.8223 3.5564 0)
(1.63009 3.56523 0)
(1.45107 3.51987 0)
(1.28156 3.47034 0)
(1.11546 3.43445 0)
(0.948969 3.41196 0)
(0.780518 3.39786 0)
(0.611246 3.38849 0)
(0.436055 3.38185 0)
(0.27067 3.37997 0)
(0.100199 3.41659 0)
(2.88831 0.174031 0)
(2.84576 0.485296 0)
(2.72809 0.804447 0)
(2.55574 1.20285 0)
(2.35313 1.7253 0)
(2.16425 2.33355 0)
(2.00488 2.88166 0)
(1.84731 3.20997 0)
(1.70686 3.30066 0)
(1.60517 3.27529 0)
(1.5095 3.23354 0)
(1.39466 3.20822 0)
(1.25946 3.2009 0)
(1.10917 3.20142 0)
(0.948179 3.20315 0)
(0.780515 3.20511 0)
(0.608902 3.20745 0)
(0.432468 3.20972 0)
(0.254893 3.21199 0)
(0.0902147 3.19169 0)
(2.89062 0.201246 0)
(2.79534 0.613369 0)
(2.65542 1.04497 0)
(2.48921 1.51249 0)
(2.30593 2.02889 0)
(2.13452 2.57588 0)
(1.99611 3.07387 0)
(1.88333 3.40854 0)
(1.77284 3.54913 0)
(1.64185 3.57428 0)
(1.50145 3.57817 0)
(1.35846 3.5927 0)
(1.20973 3.60855 0)
(1.05727 3.62703 0)
(0.903949 3.64507 0)
(0.746939 3.65847 0)
(0.58531 3.66919 0)
(0.417683 3.6772 0)
(0.254986 3.68173 0)
(0.0901041 3.67203 0)
(2.88412 0.265724 0)
(2.76502 0.763088 0)
(2.62661 1.26079 0)
(2.47678 1.76537 0)
(2.32223 2.27899 0)
(2.18366 2.78893 0)
(2.07461 3.25188 0)
(1.98385 3.60308 0)
(1.87578 3.80882 0)
(1.72694 3.90378 0)
(1.54249 3.93852 0)
(1.36129 3.95143 0)
(1.20366 3.96729 0)
(1.05853 3.9718 0)
(0.912509 3.97465 0)
(0.760547 3.98568 0)
(0.602115 3.998 0)
(0.43262 4.01125 0)
(0.273852 4.02336 0)
(0.0957079 4.0185 0)
(2.88137 0.33588 0)
(2.73546 0.911972 0)
(2.57095 1.46796 0)
(2.40453 1.99278 0)
(2.25056 2.49296 0)
(2.12302 2.96757 0)
(2.02453 3.39527 0)
(1.94104 3.73886 0)
(1.84506 3.96632 0)
(1.71815 4.07042 0)
(1.58415 4.08736 0)
(1.44932 4.06217 0)
(1.30834 4.02553 0)
(1.16718 4.0336 0)
(1.01888 4.06539 0)
(0.858163 4.09534 0)
(0.685565 4.12297 0)
(0.49597 4.14441 0)
(0.301391 4.15786 0)
(0.125141 4.17945 0)
(2.86277 0.416025 0)
(2.63247 1.13779 0)
(2.37571 1.74678 0)
(2.15428 2.25011 0)
(1.99037 2.70146 0)
(1.8819 3.1246 0)
(1.81499 3.51455 0)
(1.76893 3.84793 0)
(1.71926 4.09391 0)
(1.64687 4.22406 0)
(1.55341 4.23475 0)
(1.47549 4.20661 0)
(1.39561 4.2139 0)
(1.26902 4.21869 0)
(1.11294 4.25285 0)
(0.936878 4.31639 0)
(0.74483 4.37537 0)
(0.53944 4.41609 0)
(0.3292 4.44802 0)
(0.106077 4.44443 0)
(2.69225 0.692045 0)
(2.34529 1.62708 0)
(1.92899 2.18889 0)
(1.64929 2.56319 0)
(1.50591 2.89296 0)
(1.45474 3.22545 0)
(1.45912 3.56117 0)
(1.48913 3.87799 0)
(1.51731 4.14278 0)
(1.51949 4.31872 0)
(1.47897 4.37905 0)
(1.39347 4.3487 0)
(1.30793 4.34984 0)
(1.22749 4.44404 0)
(1.10068 4.52272 0)
(0.929261 4.58356 0)
(0.737547 4.65899 0)
(0.534526 4.72041 0)
(0.317736 4.75571 0)
(0.122495 4.79377 0)
(1.83886 1.43113 0)
(1.60461 2.3708 0)
(1.07832 2.66742 0)
(0.872765 2.80503 0)
(0.844435 2.9667 0)
(0.90762 3.19236 0)
(1.0193 3.47217 0)
(1.15064 3.77491 0)
(1.27616 4.06271 0)
(1.37092 4.29714 0)
(1.41213 4.44577 0)
(1.38216 4.49848 0)
(1.27018 4.49278 0)
(1.14813 4.53529 0)
(1.0437 4.67861 0)
(0.915752 4.80813 0)
(0.738319 4.89368 0)
(0.529454 4.9793 0)
(0.313426 5.02873 0)
(0.0703708 5.01357 0)
(0.313316 2.39266 0)
(0.442314 2.9731 0)
(0.0997482 2.88433 0)
(0.118534 2.81192 0)
(0.23901 2.83964 0)
(0.415285 2.98399 0)
(0.620525 3.22678 0)
(0.837594 3.52522 0)
(1.04972 3.83891 0)
(1.23664 4.13187 0)
(1.37617 4.37496 0)
(1.45304 4.55083 0)
(1.45351 4.66286 0)
(1.34055 4.71648 0)
(1.18715 4.76859 0)
(1.05427 4.9197 0)
(0.890546 5.09088 0)
(0.641561 5.21255 0)
(0.386778 5.28797 0)
(0.126391 5.26094 0)
(-1.71241 3.51741 0)
(-0.252029 3.18868 0)
(-0.32302 2.80857 0)
(-0.214489 2.64209 0)
(-0.063368 2.62268 0)
(0.12844 2.72649 0)
(0.351935 2.9338 0)
(0.600581 3.2135 0)
(0.859301 3.53304 0)
(1.11033 3.86159 0)
(1.33317 4.17235 0)
(1.51196 4.44358 0)
(1.65403 4.66339 0)
(1.735 4.84643 0)
(1.66178 4.97738 0)
(1.46651 5.0617 0)
(1.23936 5.25497 0)
(0.918507 5.48138 0)
(0.551359 5.58512 0)
(0.166442 5.56765 0)
(-3.23026 5.65642 0)
(0.419664 3.19672 0)
(-0.313195 2.7784 0)
(-0.300271 2.56048 0)
(-0.20025 2.4788 0)
(-0.0357983 2.5495 0)
(0.173718 2.72531 0)
(0.41374 2.97884 0)
(0.676614 3.28371 0)
(0.949781 3.61626 0)
(1.21561 3.95393 0)
(1.46127 4.27392 0)
(1.68852 4.56344 0)
(1.92319 4.80719 0)
(2.06918 5.05632 0)
(2.01074 5.29209 0)
(1.74631 5.49381 0)
(1.26798 5.756 0)
(0.730879 5.86096 0)
(0.314212 6.09374 0)
(0.0128666 6.70363 0)
(0.548255 2.42332 0)
(0.0758539 2.76498 0)
(-0.0835202 2.48858 0)
(-0.193862 2.41193 0)
(-0.191159 2.48682 0)
(-0.0519177 2.61141 0)
(0.151981 2.82498 0)
(0.402778 3.10722 0)
(0.682175 3.43575 0)
(0.968653 3.79069 0)
(1.2373 4.1485 0)
(1.48304 4.48085 0)
(1.73483 4.74338 0)
(2.00054 5.04215 0)
(2.141 5.44322 0)
(2.04455 5.77074 0)
(1.55594 5.99731 0)
(0.883222 6.1019 0)
(0.491646 6.7046 0)
(0.00887201 -0.00364473 2.28855e-22)
(0.0188984 -0.00267294 0)
(0.0264434 -0.00217595 0)
(0.0331966 -0.00171117 0)
(0.038867 -0.00153104 0)
(0.0440268 -0.00137025 0)
(0.0485326 -0.00116592 0)
(0.0523916 -0.000993631 0)
(0.055666 -0.000825157 0)
(0.0583436 -0.000651182 0)
(0.0604686 -0.000502218 0)
(0.0620706 -0.000352657 0)
(0.0631873 -0.000222513 0)
(0.063865 -0.000102388 0)
(0.0641417 7.8753e-06 0)
(0.0640762 8.86671e-05 0)
(0.063704 0.000167873 0)
(0.0630693 0.000234525 0)
(0.0621989 0.000296017 0)
(0.0611055 0.000355087 7.23558e-22)
(0.0598765 0.000376459 6.87548e-22)
(0.0585033 0.000426846 0)
(0.0569709 0.000464147 0)
(0.0553926 0.000454003 0)
(0.0537667 0.00048129 0)
(0.052043 0.000507514 0)
(0.0503105 0.000483041 0)
(0.0486032 0.000482409 0)
(0.0468564 0.000504447 0)
(0.045114 0.000479117 0)
(0.0434531 0.000443725 0)
(0.0418265 0.00045134 0)
(0.0401885 0.000455671 0)
(0.038599 0.000422671 0)
(0.0370899 0.000398296 -2.17266e-22)
(0.0355962 0.000411439 -2.13248e-22)
(0.0340784 0.00042314 0)
(0.032585 0.000403731 0)
(0.0311547 0.000380117 2.07172e-22)
(0.0297457 0.000383367 -2.51093e-25)
(0.0283069 0.000399567 -4.1599e-22)
(0.0268591 0.000397005 2.21411e-25)
(0.0254644 0.000374278 2.09969e-22)
(0.0241394 0.000355879 0)
(0.0228411 0.000356078 0)
(0.0215276 0.000364977 0)
(0.0201978 0.000368791 0)
(0.0188708 0.000367572 0)
(0.0175503 0.000369176 0)
(0.0162233 0.000375022 0)
(0.0148839 0.000378604 0)
(0.0135451 0.000374866 0)
(0.0122261 0.00036635 0)
(0.0109331 0.000359792 -2.78288e-23)
(0.00965451 0.000359504 -4.53994e-23)
(0.00837255 0.000364045 -3.48956e-23)
(0.00708704 0.000369845 -1.20669e-23)
(0.00564737 0.000369219 0)
(0.00481737 0.000387645 0)
(0.00243223 0.000413269 0)
(0.0102495 -0.00931172 0)
(0.018229 -0.00702517 0)
(0.0253281 -0.00600643 0)
(0.0321394 -0.00498569 0)
(0.0380862 -0.00439007 -1.53502e-21)
(0.0434087 -0.00393476 -1.68408e-21)
(0.048091 -0.00339957 9.10204e-22)
(0.0521526 -0.00291846 9.50216e-22)
(0.0556251 -0.00245547 -9.77637e-22)
(0.0585134 -0.00198888 -9.83788e-22)
(0.0608589 -0.0015684 0)
(0.0626776 -0.00115844 9.67521e-22)
(0.0640145 -0.000790494 1.88391e-21)
(0.0649018 -0.0004525 1.82816e-21)
(0.0653851 -0.000148758 1.75824e-21)
(0.0655157 0.000109545 8.4195e-22)
(0.065319 0.000346713 -8.08273e-22)
(0.0648501 0.000542897 -7.68269e-22)
(0.0641247 0.000732623 -7.33978e-22)
(0.0631679 0.000895024 -6.99441e-22)
(0.0620624 0.00098108 0)
(0.0607819 0.00112193 6.39374e-22)
(0.0593487 0.00122729 6.12204e-22)
(0.0578518 0.0012327 5.89727e-22)
(0.0562693 0.00130345 -1.07292e-24)
(0.0545911 0.00137638 -5.48359e-22)
(0.0528838 0.00134832 0)
(0.0511578 0.00135008 0)
(0.0493918 0.00139543 0)
(0.0476207 0.00135969 0)
(0.0458754 0.00129547 0)
(0.0441412 0.00129928 -4.59244e-22)
(0.0424167 0.00130124 -8.90793e-22)
(0.0407274 0.00123972 -4.33607e-22)
(0.0390751 0.00118958 2.12834e-22)
(0.0374389 0.00120106 4.19035e-22)
(0.0358194 0.00120974 4.1405e-22)
(0.0342359 0.00116791 4.10477e-22)
(0.032682 0.00112554 4.0901e-22)
(0.0311258 0.0011337 2.04894e-22)
(0.0295598 0.00115876 0)
(0.0280198 0.00113961 0)
(0.0265414 0.00108089 -2.08718e-22)
(0.025117 0.00103794 -4.16697e-22)
(0.023708 0.00103818 -2.06709e-22)
(0.0222899 0.00105619 0)
(0.0208703 0.00106 0)
(0.019467 0.00105045 9.71415e-23)
(0.0180818 0.00104748 1.86551e-22)
(0.0167019 0.00105697 -2.45416e-26)
(0.0153175 0.001065 2.19873e-26)
(0.0139338 0.001058 7.38285e-23)
(0.0125645 0.00103856 -6.49489e-23)
(0.0112174 0.00102091 -5.52367e-23)
(0.00988759 0.00101615 0)
(0.00856221 0.00102355 0)
(0.00723959 0.00103588 -5.97336e-24)
(0.00578184 0.00103862 -3.63301e-24)
(0.00487103 0.0010721 0)
(0.00258747 0.00112055 0)
(0.0121332 -0.0141704 8.04189e-23)
(0.0188034 -0.011037 6.14641e-22)
(0.0254339 -0.00988612 -1.08716e-21)
(0.0320324 -0.0085201 7.27697e-24)
(0.0379015 -0.00746249 1.50388e-21)
(0.0430882 -0.00667513 1.6804e-21)
(0.0476293 -0.00581041 1.80242e-21)
(0.051565 -0.00500741 -1.89813e-21)
(0.054917 -0.00424202 -2.91446e-21)
(0.0577024 -0.00348104 -9.7996e-22)
(0.0599645 -0.00277935 -9.78339e-22)
(0.0617209 -0.00210491 2.67725e-24)
(0.0630232 -0.00149011 9.37457e-22)
(0.0638954 -0.000922995 0)
(0.0643873 -0.000417449 -8.77296e-22)
(0.0645459 3.07285e-05 -1.68103e-21)
(0.0643905 0.000433856 -8.02449e-22)
(0.0639778 0.000764312 0)
(0.0633233 0.00108626 0)
(0.0624598 0.00135953 -6.98224e-22)
(0.0614498 0.00153018 -6.64032e-22)
(0.0602664 0.00175538 -6.36108e-22)
(0.0589595 0.00193043 -6.0953e-22)
(0.0575861 0.00198061 -5.86564e-22)
(0.0561073 0.00209426 9.7523e-25)
(0.0545443 0.00221282 -9.46077e-25)
(0.0529513 0.00221112 -5.27361e-22)
(0.0513154 0.00222326 0)
(0.0496354 0.00228463 4.96947e-22)
(0.0479455 0.00226495 4.82277e-22)
(0.0462543 0.00219764 0)
(0.0445641 0.00218674 4.57545e-22)
(0.042892 0.0021807 4.44517e-22)
(0.041239 0.00211531 0)
(0.0395932 0.00205333 0)
(0.037962 0.00204568 2.10139e-22)
(0.0363594 0.00203845 2.07523e-22)
(0.0347742 0.00199066 2.06004e-22)
(0.033182 0.00194971 2.05097e-22)
(0.0315852 0.00195631 0)
(0.0300161 0.00196685 -2.06523e-22)
(0.0284991 0.00192223 -4.15257e-22)
(0.0270253 0.00183987 -2.08168e-22)
(0.0255666 0.00178576 0)
(0.0241072 0.00178504 0)
(0.0226539 0.00180173 0)
(0.0212189 0.00179773 0)
(0.0198028 0.00177769 0)
(0.0183955 0.00176876 9.23328e-23)
(0.0169868 0.00177874 8.71027e-23)
(0.0155761 0.00178869 8.05967e-23)
(0.0141714 0.00177898 7.2794e-23)
(0.0127816 0.00175106 0)
(0.0114098 0.00172355 -2.72181e-23)
(0.0100508 0.00171276 -2.21651e-23)
(0.00869549 0.00171982 0)
(0.0073452 0.00173476 0)
(0.00586888 0.00174448 0)
(0.00492234 0.0017707 0)
(0.00265965 0.00182868 0)
(0.0141451 -0.0189322 0)
(0.0199537 -0.0150818 0)
(0.0261847 -0.0137829 0)
(0.0324342 -0.0121824 0)
(0.0380802 -0.0106679 0)
(0.0430892 -0.00950829 0)
(0.0474414 -0.00829805 -1.80902e-21)
(0.0512052 -0.00715409 -1.89118e-21)
(0.0543946 -0.00607148 1.94753e-21)
(0.0570337 -0.00500709 1.96047e-21)
(0.0591665 -0.00401409 9.7786e-22)
(0.0608121 -0.00307136 9.60131e-22)
(0.0620317 -0.0022095 0)
(0.0628487 -0.00140887 0)
(0.0633082 -0.000699416 -8.74768e-22)
(0.063452 -6.97632e-05 -8.38027e-22)
(0.0633096 0.000498223 -8.02392e-22)
(0.0629357 0.000965348 -7.62936e-22)
(0.0623227 0.00141703 7.29528e-22)
(0.0615249 0.00179581 6.9449e-22)
(0.0606027 0.00205598 -6.62525e-22)
(0.059507 0.00236226 -6.32297e-22)
(0.0583022 0.00259808 6.07631e-22)
(0.0570405 0.00270295 -9.07139e-25)
(0.0556637 0.00286636 -5.59465e-22)
(0.0542068 0.00302103 0)
(0.0527288 0.00304855 0)
(0.0511933 0.00308576 5.09122e-22)
(0.0495983 0.00316519 4.93325e-22)
(0.0479991 0.00315762 0)
(0.0464028 0.0030922 0)
(0.0447899 0.0030742 0)
(0.0431736 0.00306417 -4.46719e-22)
(0.0415684 0.00299918 5.65813e-25)
(0.0399647 0.00293143 4.28684e-22)
(0.0383545 0.00291273 0)
(0.036743 0.00290061 -2.09302e-22)
(0.0351355 0.00285477 -2.07438e-22)
(0.033537 0.00281072 -2.06574e-22)
(0.0319617 0.00280193 -2.06423e-22)
(0.0304233 0.00279103 -2.07024e-22)
(0.028917 0.00273038 -2.07722e-22)
(0.0274233 0.00264072 0)
(0.0259311 0.00258243 -2.07111e-22)
(0.0244472 0.00257498 -2.0507e-22)
(0.0229835 0.00258203 -2.01645e-22)
(0.0215408 0.0025692 -1.96896e-22)
(0.0201088 0.00254443 -9.52479e-23)
(0.0186774 0.0025349 -9.10858e-23)
(0.0172447 0.00254588 0)
(0.0158157 0.00255494 7.92394e-23)
(0.0143965 0.00254048 7.15006e-23)
(0.0129903 0.0025049 6.28468e-23)
(0.0115964 0.00247002 5.33721e-23)
(0.0102105 0.00245526 0)
(0.00882749 0.0024623 -1.6691e-23)
(0.0074514 0.00247909 -5.69762e-24)
(0.00595303 0.00249194 3.41751e-24)
(0.00498735 0.00251571 0)
(0.00269723 0.00257543 0)
(0.0161935 -0.0234361 -9.98627e-23)
(0.0214327 -0.0189862 -5.46675e-22)
(0.0273466 -0.0175317 0)
(0.0332291 -0.0157995 0)
(0.0385676 -0.0138992 0)
(0.0433616 -0.0123543 0)
(0.0475092 -0.0108017 -1.81674e-21)
(0.0510869 -0.00931415 7.53588e-24)
(0.0541037 -0.00790984 -6.86547e-24)
(0.0565838 -0.00654492 -1.96581e-21)
(0.0585771 -0.00526157 -1.96104e-21)
(0.0601061 -0.00405221 -2.88562e-21)
(0.0612275 -0.00294922 2.26618e-24)
(0.0619699 -0.00192245 -2.01431e-24)
(0.0623869 -0.00101317 -8.71876e-22)
(0.0625089 -0.00020697 -8.38454e-22)
(0.0623632 0.000518844 -7.99313e-22)
(0.0620107 0.00112186 7.62168e-22)
(0.0614269 0.00170757 7.25859e-22)
(0.0606796 0.00217923 0)
(0.059829 0.00252295 0)
(0.0588089 0.00291875 0)
(0.0576835 0.00321263 -6.04098e-22)
(0.0565116 0.00336691 7.89601e-25)
(0.0552357 0.00358468 5.55586e-22)
(0.0538797 0.00377756 0)
(0.0524941 0.00383522 0)
(0.0510509 0.00390473 0)
(0.0495551 0.00400561 -4.91611e-22)
(0.0480531 0.00400758 -4.78684e-22)
(0.0465414 0.0039498 0)
(0.0449978 0.00393904 0)
(0.0434363 0.00393429 0)
(0.0418713 0.00387315 0)
(0.0402899 0.00380862 4.33225e-22)
(0.0386832 0.00379359 2.13488e-22)
(0.0370684 0.00378405 -4.22969e-22)
(0.0354698 0.00373325 -2.09627e-22)
(0.0338982 0.00367326 2.0839e-22)
(0.0323516 0.00364505 2.07797e-22)
(0.0308228 0.0036229 2.07769e-22)
(0.0293023 0.00356065 4.15951e-22)
(0.0277846 0.00347005 2.07778e-22)
(0.0262745 0.00340389 0)
(0.0247825 0.00338312 0)
(0.0233122 0.00337876 0)
(0.0218555 0.00336091 0)
(0.0204011 0.0033357 -9.39069e-23)
(0.0189453 0.00332615 -8.95523e-23)
(0.0174926 0.00333522 0)
(0.0160491 0.00334055 0)
(0.014617 0.0033213 0)
(0.0131947 0.0032806 0)
(0.0117792 0.00324128 0)
(0.0103678 0.00322383 -2.12506e-23)
(0.00895865 0.00323019 -1.62389e-23)
(0.00755801 0.00324755 5.57927e-24)
(0.00603705 0.00326163 3.30645e-24)
(0.00505474 0.00328409 0)
(0.00273009 0.00334339 0)
(0.0182326 -0.0278421 1.30261e-22)
(0.0230361 -0.0228434 1.12062e-21)
(0.0286929 -0.02115 -1.103e-23)
(0.0342482 -0.0193011 -1.26128e-21)
(0.0392599 -0.0170986 -1.5149e-21)
(0.043808 -0.0151805 -1.6922e-21)
(0.0477422 -0.0132927 1.83237e-21)
(0.0511263 -0.011468 1.91409e-21)
(0.0539725 -0.00974076 0)
(0.0562986 -0.00807758 0)
(0.0581523 -0.00650923 0)
(0.0595681 -0.00503763 0)
(0.0605989 -0.00369624 0)
(0.0612696 -0.00245223 0)
(0.061644 -0.00135227 -8.73113e-22)
(0.0617431 -0.000368171 1.44377e-24)
(0.0615892 0.000511424 7.97289e-22)
(0.0612471 0.0012407 -7.59511e-22)
(0.0606894 0.00195597 -7.22989e-22)
(0.0599895 0.00252 0)
(0.0591897 0.00294143 -6.5612e-22)
(0.0582261 0.00342477 -6.25555e-22)
(0.0571768 0.0037789 0)
(0.0560874 0.00397663 0)
(0.0548957 0.00424407 -5.52093e-22)
(0.0536285 0.00448237 -5.32744e-22)
(0.0523296 0.00457481 0)
(0.0509738 0.00467096 5.02814e-22)
(0.0495695 0.004793 4.88591e-22)
(0.0481486 0.00481544 -4.78309e-22)
(0.0466958 0.0047763 6.18972e-25)
(0.045196 0.0047789 9.22527e-22)
(0.0436704 0.00478555 -5.02618e-25)
(0.0421312 0.00473719 -4.44416e-22)
(0.0405654 0.0046841 0)
(0.0389745 0.00467476 0)
(0.0373864 0.00466273 2.14151e-22)
(0.0358217 0.00460154 2.12136e-22)
(0.0342757 0.00452772 -2.10459e-22)
(0.0327345 0.00448999 -2.09355e-22)
(0.0311933 0.00446647 -2.08633e-22)
(0.0296561 0.00440615 -4.16534e-22)
(0.0281282 0.00431189 -2.07559e-22)
(0.0266147 0.00423396 0)
(0.0251184 0.00419957 -2.0262e-22)
(0.023636 0.00418742 -1.98232e-22)
(0.0221586 0.0041688 0)
(0.02068 0.00414471 1.84561e-22)
(0.0192023 0.00413329 2.63091e-22)
(0.017733 0.00413729 8.21381e-23)
(0.0162768 0.00413715 -7.55766e-23)
(0.0148317 0.00411399 -6.80278e-23)
(0.0133926 0.00407078 0)
(0.0119558 0.00402947 0)
(0.0105203 0.00401025 0)
(0.00908678 0.00401537 -1.57918e-23)
(0.00766287 0.00403225 5.1795e-26)
(0.00611942 0.00404678 6.37416e-24)
(0.00512113 0.00406821 0)
(0.00276221 0.00412649 0)
(0.0202614 -0.0321731 -1.53174e-23)
(0.0247033 -0.0267006 1.34776e-23)
(0.0301458 -0.0247171 2.01973e-21)
(0.0354301 -0.0227133 1.28432e-21)
(0.0401369 -0.0202681 -1.53821e-21)
(0.0444274 -0.0179998 1.03393e-23)
(0.0481528 -0.0157842 1.84683e-21)
(0.0513477 -0.0136295 0)
(0.054028 -0.0115808 0)
(0.0562138 -0.00961981 1.9975e-21)
(0.0579426 -0.00776724 1.97614e-21)
(0.0592557 -0.00603838 0)
(0.06021 -0.00446151 -1.88711e-21)
(0.0608245 -0.00300269 -3.63786e-21)
(0.0611588 -0.00171582 3.00853e-24)
(0.0612308 -0.000557769 1.66775e-21)
(0.0610726 0.000474448 -7.95697e-22)
(0.0607413 0.0013296 9.68524e-25)
(0.0601976 0.00216738 -8.50649e-25)
(0.0595316 0.00282478 -6.84703e-22)
(0.0587723 0.00332689 0)
(0.0578543 0.00388964 -6.21673e-22)
(0.0568688 0.00430124 -5.94591e-22)
(0.0558465 0.00454598 0)
(0.0547201 0.00486095 5.47664e-22)
(0.0535258 0.00514321 -5.47842e-25)
(0.052302 0.00527459 -5.1336e-22)
(0.0510148 0.00539973 0)
(0.0496707 0.00554626 0)
(0.0482977 0.00559939 -4.77612e-22)
(0.046879 0.00558988 5.23538e-25)
(0.0454037 0.00561104 4.63594e-22)
(0.0438995 0.00563129 4.56849e-22)
(0.0423834 0.00559846 4.49221e-22)
(0.0408452 0.00555753 4.43305e-22)
(0.0392873 0.00555066 4.38172e-22)
(0.037733 0.0055339 -4.3391e-22)
(0.0361926 0.0054672 -2.14848e-22)
(0.0346527 0.00539044 8.5126e-26)
(0.0331016 0.00535236 -2.11009e-22)
(0.0315463 0.00532941 0)
(0.0300013 0.00526724 -2.08426e-22)
(0.028473 0.00516579 -1.97165e-25)
(0.0269587 0.00507671 2.04857e-22)
(0.0254534 0.00503289 0)
(0.023952 0.0050176 0)
(0.0224504 0.00500048 1.88975e-22)
(0.0209485 0.00497663 1.80916e-22)
(0.0194522 0.00496065 0)
(0.0179686 0.00495717 7.98469e-23)
(0.0164996 0.00495088 7.32888e-23)
(0.0150401 0.00492504 -6.5888e-23)
(0.0135833 0.0048815 -5.7684e-23)
(0.0121256 0.00483996 -4.89946e-23)
(0.0106674 0.00481955 -5.96783e-23)
(0.0092112 0.004823 -1.51762e-23)
(0.00776518 0.00483872 -1.03862e-23)
(0.00619961 0.00485312 -3.02668e-24)
(0.00518598 0.00487378 2.1652e-25)
(0.00279375 0.00493048 0)
(0.0222994 -0.036455 1.96955e-22)
(0.026425 -0.0305701 6.11712e-22)
(0.0316762 -0.0282754 0)
(0.0367358 -0.0260634 1.3287e-21)
(0.0411815 -0.023404 3.12708e-21)
(0.0452235 -0.0208135 1.74699e-21)
(0.0487502 -0.0182803 0)
(0.0517707 -0.0158038 0)
(0.0542969 -0.0134366 0)
(0.0563545 -0.0111816 0)
(0.057977 -0.00904587 0)
(0.0592065 -0.00706195 0)
(0.060092 -0.00525153 0)
(0.0606547 -0.00357977 0)
(0.0609557 -0.00210404 0)
(0.0610011 -0.000773289 1.66522e-21)
(0.060834 0.000404516 7.90053e-22)
(0.0605054 0.00139167 8.25621e-25)
(0.0599638 0.00235258 7.14729e-22)
(0.0593175 0.00309883 -6.80359e-22)
(0.0585867 0.00368313 5.62426e-25)
(0.0577012 0.00432262 6.16044e-22)
(0.0567567 0.00479025 0)
(0.0557768 0.00508495 0)
(0.0546964 0.00544582 0)
(0.0535542 0.00576978 0)
(0.0523784 0.00594497 0)
(0.0511305 0.00610664 -4.97277e-22)
(0.0498186 0.00628268 4.46146e-25)
(0.0484727 0.00637104 -4.36162e-25)
(0.0470782 0.00639666 4.1545e-25)
(0.0456272 0.00643978 4.66374e-22)
(0.0441493 0.00647308 0)
(0.0426626 0.0064536 0)
(0.0411557 0.00642375 0)
(0.0396264 0.00642069 4.44041e-22)
(0.0380913 0.00640415 4.39732e-22)
(0.0365572 0.00634026 0)
(0.0350128 0.00626858 2.14936e-22)
(0.0334531 0.00623322 2.12691e-22)
(0.0318926 0.00620824 2.10431e-22)
(0.030348 0.00614044 4.17357e-22)
(0.0288207 0.00603162 4.13081e-22)
(0.0273009 0.00593548 2.03618e-22)
(0.0257799 0.00588768 -1.98937e-22)
(0.0242555 0.00587258 -3.86116e-22)
(0.0227298 0.00585688 -3.71088e-22)
(0.0212076 0.00583101 -3.5326e-22)
(0.0196957 0.005808 -3.32711e-22)
(0.018199 0.00579575 -7.73847e-23)
(0.0167163 0.00578355 4.15811e-27)
(0.0152409 0.00575631 -6.34483e-23)
(0.0137657 0.00571396 -5.55375e-23)
(0.0122878 0.00567324 -9.40805e-23)
(0.0108086 0.00565195 -5.7274e-23)
(0.0093312 0.00565349 -1.45403e-23)
(0.00786421 0.00566766 9.92696e-24)
(0.00627714 0.00568155 5.83305e-24)
(0.0052489 0.0057015 0)
(0.00282447 0.00575604 0)
(0.0243041 -0.0406935 2.27459e-22)
(0.0281445 -0.0344545 6.49243e-22)
(0.0332199 -0.0318482 1.06147e-21)
(0.0380874 -0.0293836 -1.49827e-23)
(0.0423221 -0.0265147 -1.59318e-21)
(0.0461458 -0.0236257 0)
(0.0494878 -0.0207851 0)
(0.052348 -0.0179977 0)
(0.0547378 -0.0153155 0)
(0.0566826 -0.0127697 0)
(0.0582074 -0.0103534 0)
(0.0593615 -0.00811522 -1.95877e-21)
(0.060184 -0.00606833 -1.89249e-21)
(0.0606958 -0.00418501 -1.82045e-21)
(0.0609631 -0.00252109 -3.4741e-21)
(0.06098 -0.00101235 -1.65613e-21)
(0.0607964 0.000308257 0)
(0.0604574 0.00143044 0)
(0.0599099 0.0025171 0)
(0.0592735 0.00334968 0)
(0.0585545 0.004017 0)
(0.0576832 0.00473371 0)
(0.0567588 0.0052594 0)
(0.055798 0.00560537 0)
(0.0547418 0.00600928 5.39398e-22)
(0.0536289 0.00637509 1.04353e-21)
(0.0524768 0.00659971 5.07567e-22)
(0.0512483 0.00680289 0)
(0.049959 0.00700941 0)
(0.0486404 0.00713224 0)
(0.0472776 0.00719355 0)
(0.0458616 0.00725997 0)
(0.0444185 0.0073067 4.64642e-22)
(0.0429624 0.00730113 4.59046e-22)
(0.0414788 0.00728563 4.54099e-22)
(0.039963 0.00729222 4.49771e-22)
(0.038432 0.00728213 0)
(0.0368959 0.00722569 4.4026e-22)
(0.0353488 0.00716095 4.34684e-22)
(0.0337899 0.00712726 0)
(0.0322338 0.0070982 0)
(0.0306928 0.00702463 0)
(0.029163 0.00691172 0)
(0.0276311 0.0068139 -2.01823e-22)
(0.0260899 0.00676645 -1.96909e-22)
(0.0245423 0.00675264 0)
(0.0229957 0.00673665 -1.81554e-22)
(0.0214573 0.00670624 -1.72137e-22)
(0.0199323 0.00667469 0)
(0.0184225 0.00665357 0)
(0.0169247 0.00663624 0)
(0.0154322 0.00660857 0)
(0.0139387 0.00656818 0)
(0.0124417 0.00652879 0)
(0.0109431 0.00650683 0)
(0.00944602 0.00650643 0)
(0.00795921 0.00651886 9.42466e-24)
(0.00635151 0.00653195 5.53014e-24)
(0.00530951 0.00655116 0)
(0.0028541 0.00660309 0)
(0.0263124 -0.044892 0)
(0.0299114 -0.0383561 0)
(0.0348274 -0.0354513 0)
(0.0395331 -0.032705 0)
(0.0436015 -0.0296182 0)
(0.0472421 -0.026447 0)
(0.0504187 -0.0233047 0)
(0.0531304 -0.0202162 0)
(0.0553893 -0.0172242 0)
(0.0572247 -0.0143881 0)
(0.0586495 -0.0116906 0)
(0.0597218 -0.00919928 0)
(0.0604762 -0.00691337 0)
(0.060932 -0.00481583 0)
(0.0611551 -0.00296429 0)
(0.0611313 -0.00127158 0)
(0.0609229 0.000192736 0)
(0.0605627 0.00145112 0)
(0.0599996 0.00266421 0)
(0.0593617 0.00358503 0)
(0.0586374 0.00433846 0)
(0.0577634 0.00513225 0)
(0.0568421 0.00571905 0)
(0.0558817 0.00611908 0)
(0.0548305 0.00656297 0)
(0.0537289 0.00696967 0)
(0.0525872 0.00724692 0)
(0.0513724 0.00749251 0)
(0.0501063 0.00772598 0)
(0.0488193 0.00787917 0)
(0.0474928 0.0079752 0)
(0.0461138 0.00806711 0)
(0.0447031 0.00813091 0)
(0.0432698 0.00814428 0)
(0.041798 0.00814973 0)
(0.0402846 0.00817231 0)
(0.038751 0.00817215 0)
(0.0372133 0.00812309 0)
(0.0356695 0.00806324 0)
(0.0341186 0.00802958 -2.1556e-22)
(0.0325704 0.00799704 -2.12207e-22)
(0.0310311 0.00792118 0)
(0.0294929 0.00780954 0)
(0.0279437 0.00771487 0)
(0.026381 0.00766991 0)
(0.0248128 0.00765647 0)
(0.0232498 0.0076378 0)
(0.0216985 0.00760107 0)
(0.0201613 0.00756073 -1.55709e-22)
(0.0186375 0.00753155 -2.15262e-22)
(0.0171234 0.00750994 -6.51486e-23)
(0.0156133 0.00748228 5.80815e-23)
(0.014102 0.00744401 5.05524e-23)
(0.0125873 0.00740609 0)
(0.0110707 0.00738368 1.73045e-23)
(0.00955524 0.00738145 2.62528e-23)
(0.00804973 0.00739208 8.81819e-24)
(0.00642241 0.00740416 -2.63942e-24)
(0.00536752 0.00742252 -5.36717e-26)
(0.00288242 0.00747153 0)
(0.028364 -0.0490813 2.75901e-22)
(0.0317809 -0.0422855 7.21543e-22)
(0.0365604 -0.0390992 0)
(0.0411349 -0.036056 1.44051e-21)
(0.045074 -0.032734 1.66581e-21)
(0.0485592 -0.0292888 0)
(0.0515835 -0.0258457 0)
(0.054152 -0.0224598 0)
(0.0562734 -0.0191607 0)
(0.0579879 -0.0160341 0)
(0.0593025 -0.0130534 -2.03033e-21)
(0.0602818 -0.0103081 3.9248e-24)
(0.0609545 -0.00778283 1.8933e-21)
(0.0613428 -0.00546762 0)
(0.0615105 -0.0034262 0)
(0.0614359 -0.00154792 -1.63566e-21)
(0.0611972 6.12906e-05 -1.54688e-21)
(0.0608091 0.0014586 0)
(0.0602236 0.00279798 0)
(0.0595753 0.00381097 0)
(0.0588357 0.00465472 0)
(0.0579515 0.00552468 0)
(0.0570246 0.00617573 -5.75956e-22)
(0.0560548 0.00663401 1.54171e-25)
(0.0549995 0.00711543 -1.36264e-25)
(0.0539011 0.00755947 -5.17256e-22)
(0.0527655 0.00788879 0)
(0.0515634 0.00817586 -4.94314e-22)
(0.0503183 0.00843265 -4.85216e-22)
(0.049056 0.00861263 0)
(0.0477545 0.00874346 -4.76093e-22)
(0.0463986 0.00886449 -4.74049e-22)
(0.0450058 0.00895043 0)
(0.0435826 0.00898837 0)
(0.0421137 0.0090206 0)
(0.0405993 0.00906349 0)
(0.0390644 0.00907415 0)
(0.0375286 0.00903032 4.49789e-22)
(0.0359911 0.00897281 4.42725e-22)
(0.0344483 0.00893893 -4.33601e-22)
(0.032904 0.008906 -4.25416e-22)
(0.0313598 0.00883321 0)
(0.0298075 0.00872812 0)
(0.0282388 0.00863962 0)
(0.0266563 0.00859714 1.91204e-22)
(0.0250716 0.0085821 3.6599e-22)
(0.0234957 0.00855876 1.73276e-22)
(0.0219328 0.00851515 -1.61979e-22)
(0.0203828 0.00846684 -3.00359e-22)
(0.0188437 0.00843072 -1.18837e-25)
(0.0173125 0.00840538 1.24327e-22)
(0.0157848 0.0083776 0)
(0.0142565 0.00834118 -4.79354e-23)
(0.0127251 0.00830476 -4.03175e-23)
(0.0111917 0.00828213 0)
(0.00965889 0.00827827 0)
(0.00813571 0.0082871 0)
(0.00648978 0.00829797 0)
(0.0054228 0.00831537 1.63559e-26)
(0.00290933 0.00836126 -4.5241e-25)
(0.0304614 -0.0532979 0)
(0.033757 -0.046262 0)
(0.0384323 -0.0428072 0)
(0.0429041 -0.0394614 1.46998e-21)
(0.0467394 -0.0358802 1.69366e-21)
(0.0500889 -0.0321591 0)
(0.0529657 -0.0284117 0)
(0.0553887 -0.024726 0)
(0.057365 -0.0211189 0)
(0.0589466 -0.0177004 0)
(0.0601404 -0.0144369 -2.03322e-21)
(0.0610181 -0.0114353 -1.96315e-21)
(0.0615996 -0.00867012 -1.88949e-21)
(0.0619133 -0.00613707 -1.79767e-21)
(0.0620215 -0.00390285 -1.7073e-21)
(0.0618949 -0.0018397 -1.61816e-21)
(0.0616253 -8.54558e-05 0)
(0.0612069 0.00145477 0)
(0.060598 0.0029202 0)