/*--------------------------------*- C++ -*----------------------------------*\
| =========                 |                                                 |
| \\      /  F ield         | OpenFOAM: The Open Source CFD Toolbox           |
|  \\    /   O peration     | Version:  2.4.0                                 |
|   \\  /    A nd           | Web:      www.OpenFOAM.org                      |
|    \\/     M anipulation  |                                                 |
\*---------------------------------------------------------------------------*/
FoamFile
{
    version     2.0;
    format      ascii;
    class       surfaceScalarField;
    location    "3.3";
    object      phi;
}
// * * * * * * * * * * * * * * * * * * * * * * * * * * * * * * * * * * * * * //

dimensions      [0 3 -1 0 0 0 0];

internalField   nonuniform List<scalar> 
5952
(
0.000351307
-0.000351307
0.000490396
-0.000139089
0.000425253
6.51433e-05
0.00037101
5.42429e-05
0.000198478
0.000172532
-0.000430696
0.000629175
-0.000822547
0.000391851
-0.001059
0.000236457
-0.00118161
0.000122605
-0.00121214
3.05313e-05
-0.00122874
1.65976e-05
-6.98582e-05
-0.00115888
-3.87192e-05
-0.000312588
-0.000279021
0.000101212
-0.000644321
0.000430444
-0.00104931
0.000459231
-0.00130732
0.000430539
-0.00120276
0.000524619
-0.00118513
0.000374222
-0.00125407
0.000305396
-0.00124763
0.000116162
-0.00128416
6.70584e-05
-0.0012119
-5.56589e-05
-0.000132684
-0.00114907
-0.000189827
-0.00012276
-0.000460053
0.000371438
-0.000660352
0.000630743
-0.000916717
0.000715597
-0.00110425
0.000618069
-0.00107564
0.000496012
-0.00103638
0.000334964
-0.0011007
0.000369714
-0.00113511
0.000150576
-0.00122445
0.000156396
-0.0012301
-5.00087e-05
-0.000160395
-0.00120239
-0.000213331
9.05704e-05
-0.00052071
0.000678817
-0.000842333
0.000952366
-0.000995853
0.000869117
-0.0010808
0.000703016
-0.00109006
0.000505272
-0.0011503
0.000395204
-0.0011466
0.000366011
-0.00109525
9.92251e-05
-0.000982008
4.31569e-05
-0.000892604
-0.000139412
-0.000219989
-0.000833011
-0.000630628
0.000721198
-0.000881631
0.000929821
-0.00101916
0.0010899
-0.00110973
0.000959683
-0.00112292
0.000716204
-0.00118499
0.000567346
-0.00126838
0.000478593
-0.00126253
0.000360165
-0.00122186
5.85515e-05
-0.00107118
-0.000107525
-0.000922814
-0.000287775
-0.000338287
-0.000804515
-0.00021286
0.000934058
-0.000445638
0.0011626
-0.000701741
0.001346
-0.000801993
0.00105994
-0.000837733
0.000751943
-0.000890957
0.00062057
-0.000930337
0.000517973
-0.00086733
0.000297158
-0.000787259
-2.15195e-05
-0.000679737
-0.000215047
-0.000619956
-0.000347556
-0.000404239
-0.000554004
-0.0003387
0.00127276
-0.00065843
0.00148233
-0.000852223
0.00153979
-0.000913752
0.00112146
-0.0010024
0.000840594
-0.00109652
0.000714685
-0.00110571
0.000527169
-0.000986156
0.000177601
-0.000824389
-0.000183287
-0.000650968
-0.000388468
-0.000507865
-0.000490659
-0.000503686
-0.000408418
-0.000223492
0.00149625
-0.000389495
0.00164833
-0.000539527
0.00168982
-0.000699669
0.00128161
-0.000817447
0.000958372
-0.000863753
0.000760992
-0.000859788
0.000523204
-0.000819854
0.000137667
-0.000758644
-0.000244497
-0.000745856
-0.000401256
-0.000591286
-0.000645228
-0.000749452
-0.00034552
-0.000222046
0.0017183
-0.000464743
0.00189103
-0.000634154
0.00185923
-0.000766056
0.00141351
-0.000932444
0.00112476
-0.00105152
0.00088007
-0.00102911
0.000500793
-0.000974927
8.34822e-05
-0.000851611
-0.000367814
-0.00073189
-0.000520977
-0.000581698
-0.000795421
-0.00100714
-0.000324007
-0.00011008
0.00182838
-0.000262273
0.00204322
-0.000368107
0.00196507
-0.000512045
0.00155745
-0.000815343
0.00142806
-0.000886913
0.00095164
-0.0008809
0.000494781
-0.000864176
6.67577e-05
-0.000758653
-0.000473337
-0.000577959
-0.00070167
-0.000315843
-0.00105754
-0.0011812
-0.000141785
-6.60804e-05
0.00189446
-0.000235004
0.00221215
-0.000410584
0.00214065
-0.000576649
0.00172351
-0.000730633
0.00158204
-0.000836429
0.00105744
-0.000793659
0.00045201
-0.000772862
4.59614e-05
-0.000658778
-0.000587421
-0.000444274
-0.000916174
-0.000218667
-0.00128314
-0.00145589
5.60211e-05
7.69741e-05
0.00181748
9.35111e-06
0.00227977
-0.000105841
0.00225584
-0.000261686
0.00187936
-0.000513482
0.00183384
-0.000581147
0.0011251
-0.000536328
0.000407192
-0.000539247
4.88802e-05
-0.000400969
-0.000725699
-0.000204347
-0.0011128
7.18741e-05
-0.00155937
0.000267211
-0.00165123
-0.00115982
9.4395e-07
-0.00103413
-0.000125693
-0.00100686
-2.72691e-05
-0.00088275
-0.000124112
-0.000772287
-0.000110463
-0.000622377
-0.00014991
-0.000580925
-4.14513e-05
-0.000396225
-0.0001847
-0.000328196
-6.8029e-05
-0.000223301
-0.000104896
-9.39392e-05
-0.000129362
-9.39392e-05
-0.00101158
-0.00013655
-0.00087709
-0.000260182
-0.000740663
-0.000163696
-0.000610586
-0.000254189
-0.000519286
-0.000201764
-0.000460727
-0.000208469
-0.000457611
-4.45672e-05
-0.000398462
-0.000243849
-0.000313197
-0.000153294
-0.000177861
-0.000240232
-0.000115608
-0.000191615
-0.000209547
-0.00114834
-0.000190604
-0.000983836
-0.000424684
-0.000848443
-0.000299088
-0.000645024
-0.000457609
-0.000443135
-0.000403653
-0.000272053
-0.00037955
-0.000265975
-5.06456e-05
-0.000209093
-0.000300731
-0.000191607
-0.00017078
-0.000157955
-0.000273884
-8.60036e-05
-0.000263567
-0.00029555
-0.000793075
-0.00023054
-0.000710317
-0.000507442
-0.000595846
-0.000413559
-0.000573479
-0.000479976
-0.000440746
-0.000536385
-0.000211732
-0.000608565
-5.07191e-05
-0.000211659
-5.43816e-05
-0.000297068
-4.39046e-05
-0.000181257
-1.13586e-06
-0.000316653
-2.27091e-05
-0.000241993
-0.00031826
-0.00073996
-0.000295095
-0.000650728
-0.000596674
-0.000422077
-0.000642209
-0.000251693
-0.00065036
-0.000205162
-0.000582916
-9.92955e-05
-0.000714431
-1.73684e-05
-0.000293586
2.02255e-05
-0.000334662
1.89264e-05
-0.000179958
7.56798e-05
-0.000373406
4.7443e-05
-0.000213756
-0.000270817
-0.000518318
-0.00033078
-0.000478758
-0.000636235
-0.000309398
-0.000811569
-0.000130174
-0.000829584
5.10034e-05
-0.000764094
0.000155779
-0.000819207
0.000174002
-0.000311809
0.000105032
-0.000265692
0.000124569
-0.000199495
0.000105264
-0.0003541
3.57628e-05
-0.000144256
-0.000235054
-0.000268764
-0.000470434
-0.000126274
-0.000778725
3.44812e-05
-0.000972325
0.000178053
-0.000973155
0.000220936
-0.000806978
0.000278894
-0.000877164
0.000304279
-0.000337195
0.000354104
-0.000315516
0.000314007
-0.000159398
0.000164795
-0.000204888
-1.55669e-05
3.61057e-05
-0.000250621
-0.000196802
-0.000619152
-7.47033e-06
-0.000968057
0.000130325
-0.00111012
0.000226152
-0.00106898
0.000399987
-0.000980813
0.000465975
-0.000943153
0.000492914
-0.000364133
0.000606383
-0.000428986
0.00056217
-0.000115185
0.000543426
-0.000186143
0.000448843
0.000130689
0.000198222
-8.79368e-06
-0.000934366
0.000196636
-0.00117349
0.00038346
-0.00129694
0.000563768
-0.00124929
0.00067242
-0.00108946
0.000594687
-0.000865421
0.000702259
-0.000471705
0.000750639
-0.000477365
0.000752415
-0.000116962
0.0004858
8.0472e-05
0.00026777
0.000348719
0.000465992
0.000129871
-0.00120602
0.000384422
-0.00142804
0.000538469
-0.00145099
0.00067646
-0.00138728
0.000845882
-0.00125889
0.00109058
-0.00111012
0.00127905
-0.000660169
0.00117133
-0.000369651
0.00100329
5.1086e-05
0.000780055
0.000303702
0.00034277
0.000786004
0.000808762
0.000350197
-0.0015002
0.000562214
-0.00164005
0.000779794
-0.00166857
0.00106013
-0.00166762
0.00136687
-0.00156562
0.00154358
-0.00128683
0.00154025
-0.000656843
0.00142873
-0.000258131
0.00123416
0.000245657
0.000865327
0.000672534
0.000569245
0.00108209
0.00137801
0.000507684
-0.00174067
0.000754535
-0.00188691
0.000978955
-0.00189299
0.00123715
-0.00192581
0.00145241
-0.00178089
0.00143525
-0.00126966
0.00145531
-0.000676899
0.00136284
-0.000165665
0.00124781
0.000360686
0.001009
0.000911349
0.000582705
0.00150838
0.00196071
0.000386938
-0.000386938
0.000650199
-0.000263261
0.000665147
-1.49484e-05
0.000581486
8.3661e-05
0.000478131
0.000103356
0.000192892
0.000285239
-0.00052958
0.000722472
-0.000918544
0.000388963
-0.0012236
0.000305053
-0.00138213
0.000158538
-0.00155035
0.000168214
4.6706e-05
-0.00159705
3.34862e-05
-0.000420424
-0.000177827
-5.19477e-05
-0.000440675
0.0002479
-0.000774413
0.000417399
-0.00109523
0.000424176
-0.00134782
0.00053783
-0.00128077
0.000655422
-0.00130866
0.000416854
-0.00136406
0.000360447
-0.00136412
0.000158602
-0.00134311
0.000147198
-1.3537e-05
-0.00128286
-0.000256172
-0.000164252
-0.000607106
0.000298985
-0.000820891
0.000461685
-0.00100618
0.00060269
-0.00122504
0.000643031
-0.00140595
0.000718743
-0.00128394
0.000533417
-0.00128859
0.000421494
-0.00119319
0.000265047
-0.00114841
0.00011383
-0.00106205
6.08349e-05
-7.60221e-05
-0.000999565
-0.000225184
6.09327e-05
-0.000497526
0.000571328
-0.00079024
0.000754399
-0.00094911
0.00076156
-0.00110483
0.000798753
-0.00112903
0.000742945
-0.00102329
0.000427675
-0.000932268
0.00033047
-0.000811547
0.000144327
-0.000739593
4.18761e-05
-0.000659358
-1.94005e-05
-0.000159421
-0.000575959
-0.000604234
0.000665166
-0.000853469
0.000820563
-0.00100019
0.000901124
-0.00112285
0.000884211
-0.00113297
0.000808881
-0.0010397
0.000649674
-0.000938554
0.000326527
-0.000855842
0.000247758
-0.000772948
6.14321e-05
-0.000667222
-6.38496e-05
-0.000585893
-0.000100729
-0.000279542
-0.000465772
-7.42464e-05
0.000739413
-0.000281912
0.00102823
-0.000622198
0.00124141
-0.000727453
0.000989466
-0.000730351
0.000811779
-0.000660898
0.000580221
-0.000637239
0.000302868
-0.000651081
0.0002616
-0.000657115
6.74665e-05
-0.000667322
-5.36432e-05
-0.000648461
-0.00011959
-0.000468144
-0.00045986
-0.000349966
0.00108938
-0.000620613
0.00129888
-0.000714543
0.00133534
-0.000650722
0.000925645
-0.0005684
0.000729457
-0.000526806
0.000538627
-0.000582488
0.000358549
-0.000619661
0.000298773
-0.000628881
7.66863e-05
-0.000605674
-7.68509e-05
-0.000653579
-7.16846e-05
-0.000529077
-0.000592646
-0.000154081
0.00124346
-0.000241433
0.00138623
-0.000273477
0.00136738
-0.000248079
0.000900248
-0.000358762
0.00084014
-0.00052025
0.000700115
-0.000679544
0.000517843
-0.000735154
0.000354384
-0.000613815
-4.4653e-05
-0.00035917
-0.000331496
-0.000232613
-0.000198242
-0.000520309
-0.00024138
-0.000190445
0.0014339
-0.000370999
0.00156678
-0.000440181
0.00143657
-0.000435376
0.000895443
-0.000589754
0.000994517
-0.000854862
0.000965223
-0.00105917
0.000722155
-0.00105918
0.000354387
-0.000860951
-0.000242879
-0.000539102
-0.000653345
-0.000218839
-0.000518505
-0.000656965
-8.21836e-05
-8.50155e-05
0.00151892
-0.000128883
0.00161065
-0.000103974
0.00141166
-0.000292897
0.00108437
-0.000717416
0.00141904
-0.000911188
0.001159
-0.000994062
0.00080503
-0.000936568
0.000296893
-0.000859181
-0.000320266
-0.000623327
-0.000889199
-0.000301178
-0.000840654
-0.000808599
-0.000149544
-6.98152e-05
0.00158873
-0.00021528
0.00175611
-0.000372666
0.00156904
-0.000637149
0.00134885
-0.000920942
0.00170283
-0.0011596
0.00139765
-0.00120818
0.000853609
-0.00112037
0.000209087
-0.000907845
-0.000532792
-0.00054245
-0.00125459
-0.000212555
-0.00117055
-0.0010762
5.50416e-05
3.16441e-05
0.00155709
-4.48861e-05
0.00183264
-0.000144973
0.00166913
-0.000438511
0.00164239
-0.000852419
0.00211674
-0.000967891
0.00151312
-0.00095428
0.000839997
-0.000924681
0.000179488
-0.0007046
-0.000752874
-0.000407705
-0.00155149
-1.33233e-05
-0.00156493
0.000278494
-0.00136801
-0.00165324
5.61803e-05
-0.00154683
-0.000106408
-0.00149951
-4.73198e-05
-0.00130124
-0.000198267
-0.00117703
-0.000124208
-0.000916312
-0.000260721
-0.000755538
-0.000160774
-0.000487112
-0.000268426
-0.000351501
-0.000135611
-0.000215453
-0.000136048
-2.9164e-05
-0.000186289
-2.9164e-05
-0.00119441
-3.22764e-05
-0.0011122
-0.000188615
-0.0010228
-0.000136723
-0.000930736
-0.000290328
-0.000831529
-0.000223416
-0.000723584
-0.000368666
-0.000569068
-0.000315289
-0.000494213
-0.000343281
-0.000327404
-0.00030242
-0.000183675
-0.000279777
-0.000151473
-0.000218491
-0.000180637
-0.000964015
-6.78265e-05
-0.000878297
-0.000274333
-0.000855017
-0.000160003
-0.000760164
-0.00038518
-0.00067038
-0.0003132
-0.000578336
-0.000460711
-0.000430715
-0.000462909
-0.000297322
-0.000476675
-0.000255106
-0.000344636
-0.000143246
-0.000391638
-5.85392e-05
-0.000303197
-0.000239176
-0.000553274
-9.05109e-05
-0.000498704
-0.000328903
-0.000463235
-0.000195472
-0.000465924
-0.000382492
-0.000357003
-0.00042212
-0.000303441
-0.000514273
-0.000288192
-0.000478158
-0.000153381
-0.000611485
-1.12346e-05
-0.000486782
-9.25809e-06
-0.000393615
-1.00846e-05
-0.00030237
-0.000249261
-0.000375882
-0.000180401
-0.000297339
-0.000407446
-0.000209653
-0.000283157
-0.000161197
-0.000430948
-0.000129377
-0.00045394
-6.77707e-05
-0.00057588
1.3901e-05
-0.00055983
2.55106e-05
-0.000623095
4.7405e-05
-0.000508677
0.000118269
-0.000464479
7.05176e-05
-0.000254619
-0.000178743
-0.000305546
-0.000334715
-0.000195106
-0.000517885
-1.93661e-05
-0.000458898
4.6922e-05
-0.000497236
0.00011922
-0.000526239
0.000150016
-0.000606675
0.000162202
-0.000572017
0.000162537
-0.000623429
0.000206363
-0.000552503
0.000212963
-0.000471078
0.000111653
-0.000153309
-6.70903e-05
-0.00033814
-0.00058922
-0.000202142
-0.000653883
-3.27831e-05
-0.000628257
0.000119122
-0.000649142
0.000223166
-0.000630283
0.000285268
-0.000668777
0.000361405
-0.000648153
0.000439293
-0.000701317
0.000354173
-0.000467384
0.000222829
-0.000339733
5.07217e-05
1.87978e-05
-1.63686e-05
-0.000136747
-0.000693853
-7.28809e-07
-0.000789901
9.55064e-05
-0.000724492
0.000211165
-0.0007648
0.000328263
-0.000747381
0.000419977
-0.000760491
0.000536673
-0.000764849
0.000570686
-0.00073533
0.00044862
-0.000345318
0.000397152
-0.000288265
0.000275345
0.000140604
0.000258977
8.26644e-06
-0.000784304
9.02941e-05
-0.000871929
0.000238701
-0.000872898
0.000346237
-0.000872337
0.00053475
-0.000935894
0.000727722
-0.000953463
0.000888896
-0.000926023
0.000685854
-0.000532288
0.000553689
-0.000213153
0.000329351
-6.3927e-05
0.000234077
0.000235879
0.000493053
6.11351e-05
-0.000994983
0.000239107
-0.0010499
0.000342259
-0.00097605
0.000553154
-0.00108323
0.000810017
-0.00119276
0.00105784
-0.00120129
0.000870004
-0.000738186
0.000787555
-0.000449839
0.000660695
-8.62929e-05
0.000479176
0.000117593
0.000270221
0.000444833
0.000763274
0.000256067
-0.00119601
0.000384162
-0.001178
0.000557645
-0.00114953
0.00079954
-0.00132513
0.00108044
-0.00147365
0.00100554
-0.00112639
0.000954239
-0.000686888
0.000915644
-0.000411244
0.000816017
1.33347e-05
0.000547684
0.000385926
0.000361424
0.000631094
0.0011247
0.000414476
-0.00133199
0.000544126
-0.00130765
0.000768874
-0.00137428
0.00102185
-0.0015781
0.00109547
-0.00154728
0.00105755
-0.00108846
0.00121436
-0.000843694
0.00115004
-0.000346927
0.00106814
9.52342e-05
0.000849773
0.000604291
0.000465899
0.00101497
0.0015906
0.000289777
-0.000289777
0.00045501
-0.000165233
0.000550532
-9.55224e-05
0.000483182
6.73506e-05
0.0003477
0.000135481
0.000228889
0.000118811
-8.7353e-05
0.000316242
-0.000596905
0.000509552
-0.000790003
0.000193098
-0.00101785
0.000227846
-0.00108049
6.26451e-05
8.40774e-05
-0.00116457
0.000177968
-0.000467745
0.000193381
-0.000180646
4.5776e-05
5.20831e-05
-0.000214958
0.000328085
-0.000533793
0.000454316
-0.000896428
0.000481446
-0.00103888
0.000458694
-0.00107742
0.000548091
-0.00119508
0.000310756
-0.00128231
0.000315083
-0.0013398
0.000120131
0.000109133
-0.00136486
-3.6384e-05
-0.000431361
-0.000203854
-1.31766e-05
-0.00046777
0.000315999
-0.000684549
0.000544865
-0.000886844
0.00065661
-0.00104691
0.000641517
-0.0011389
0.000550683
-0.00111609
0.000525282
-0.00116213
0.000356789
-0.00116509
0.000318049
-0.00117482
0.00012986
0.000100321
-0.00116601
-0.000263844
-0.000167517
-0.000387003
0.000109982
-0.000621777
0.000550773
-0.000761657
0.000684744
-0.000842679
0.000737633
-0.000899429
0.000698268
-0.000983692
0.000634946
-0.000958556
0.000500146
-0.000937359
0.000335592
-0.000869328
0.000250018
-0.000831871
9.24031e-05
6.98302e-05
-0.000801381
-0.00048668
0.000319163
-0.000706588
0.00032989
-0.000863887
0.000708073
-0.00103901
0.000859871
-0.00112103
0.000819645
-0.0011584
0.000735643
-0.00115878
0.00063532
-0.00108587
0.000427242
-0.000994645
0.000244364
-0.000885854
0.000141226
-0.000824317
3.08662e-05
5.31635e-05
-0.00080765
-5.82546e-05
0.000377418
-0.000283617
0.000555252
-0.00062435
0.00104881
-0.000732118
0.00096764
-0.000767752
0.000855279
-0.000752813
0.000720705
-0.000718308
0.000600815
-0.00068285
0.000391783
-0.000621328
0.000182842
-0.000487182
7.08006e-06
-0.000450349
-5.96656e-06
0.000109568
-0.000506754
-0.000287742
0.000665159
-0.000612267
0.000879777
-0.000737002
0.00117354
-0.000785587
0.00101622
-0.000812711
0.000882402
-0.000751426
0.000659421
-0.000690089
0.000539478
-0.000612935
0.00031463
-0.000516978
8.68851e-05
-0.000344037
-0.000165861
-0.000109323
-0.000240681
0.000212249
-0.000212004
-0.00020802
0.00087318
-0.000398156
0.00106991
-0.000553736
0.00132912
-0.000620221
0.00108271
-0.000678738
0.00094092
-0.000661164
0.000641846
-0.000639019
0.000517333
-0.000644891
0.000320501
-0.000603772
4.57666e-05
-0.000533758
-0.000235875
-0.000195689
-0.00057875
8.60477e-06
7.95517e-06
-0.000235402
0.00110858
-0.000485365
0.00131988
-0.000574303
0.00141806
-0.000584313
0.00109272
-0.000551179
0.000907786
-0.00048196
0.000572627
-0.000456188
0.000491561
-0.000490234
0.000354547
-0.000638544
0.000194077
-0.000694885
-0.000179534
-0.000402431
-0.000871204
-0.000155624
-0.000238202
-0.000126315
0.0012349
-0.000260175
0.00145374
-0.000360808
0.00151869
-0.000341533
0.00107344
-0.000293143
0.000859396
-0.000233165
0.000512648
-0.000249909
0.000508305
-0.000141085
0.000245723
-0.000176533
0.000229525
-0.000432146
7.60784e-05
-0.000317382
-0.000985968
-0.000339449
-0.000133558
-0.000107474
0.00134237
-0.000262551
0.00160881
-0.000282099
0.00153824
-0.000325027
0.00111637
-0.000361313
0.000895683
-0.000494906
0.000646241
-0.000538201
0.0005516
-0.000452032
0.000159555
-0.000250951
2.84434e-05
-0.000200898
2.60258e-05
-0.000196766
-0.0009901
-0.000534561
-1.65358e-06
5.62108e-05
0.00128616
-7.63135e-07
0.00166579
-0.000163399
0.00170088
-0.000267323
0.00122029
-0.000382348
0.00101071
-0.000649636
0.000913529
-0.000782818
0.000684782
-0.000802565
0.000179302
-0.000523106
-0.000251015
-0.000252595
-0.000244485
-0.000152104
-0.00109059
4.16301e-05
-0.000728295
-0.00114121
-2.33616e-05
-0.00113791
-3.29869e-06
-0.00106861
-6.93021e-05
-0.00100985
-5.8758e-05
-0.000918078
-9.17735e-05
-0.000818933
-9.91443e-05
-0.000684241
-0.000134692
-0.000516356
-0.000167885
-0.000318244
-0.000198113
-0.000188379
-0.000129865
-2.09892e-05
-0.000167389
-2.09892e-05
-0.00133491
-5.33106e-05
-0.00125964
-7.85689e-05
-0.00116551
-0.000163429
-0.00102848
-0.000195787
-0.000886728
-0.000233527
-0.000750102
-0.00023577
-0.000626645
-0.000258149
-0.000523999
-0.00027053
-0.000372622
-0.00034949
-0.000235096
-0.000267391
-9.40869e-05
-0.000308399
-0.000115076
-0.0011602
-5.91162e-05
-0.00112864
-0.00011013
-0.0010656
-0.000226475
-0.000991821
-0.000269562
-0.00089103
-0.000334318
-0.000851598
-0.000275202
-0.000729934
-0.000379813
-0.000610201
-0.000390263
-0.000526072
-0.000433619
-0.000328846
-0.000464617
-0.00018113
-0.000456115
-0.000296206
-0.000762108
-9.83882e-05
-0.000740057
-0.000132182
-0.000671946
-0.000294585
-0.000606827
-0.000334682
-0.000487626
-0.000453519
-0.000395159
-0.000367669
-0.000417471
-0.000357501
-0.000369352
-0.000438382
-0.000319998
-0.000482973
-0.000285223
-0.000499393
-0.000215394
-0.000525944
-0.0005116
-0.000775708
-0.000130331
-0.000749595
-0.000158294
-0.000704035
-0.000340145
-0.000620335
-0.000418382
-0.000465186
-0.000608668
-0.000296055
-0.0005368
-0.000221804
-0.000431752
-0.000175746
-0.000484441
-0.000169453
-0.000489265
-0.000137575
-0.000531271
-9.53092e-05
-0.000568209
-0.000606909
-0.000495444
-0.00014164
-0.000489468
-0.000164271
-0.000488367
-0.000341246
-0.00041036
-0.000496389
-0.000270364
-0.000748664
-0.000135215
-0.000671949
-6.36452e-05
-0.000503323
-2.37405e-05
-0.000524345
-2.88178e-05
-0.000484188
-3.41167e-05
-0.000525972
-4.17877e-05
-0.000560538
-0.000648697
-0.00025188
-0.000101763
-0.000198372
-0.000217779
-0.000186075
-0.000353544
-0.000136655
-0.000545808
-5.23074e-05
-0.000833012
-6.10469e-06
-0.000718152
-2.10101e-07
-0.000509217
5.47828e-05
-0.000579338
0.000134213
-0.000563618
0.000176319
-0.000568078
9.0043e-05
-0.000474262
-0.000558654
-6.0123e-05
-3.3685e-05
-2.47952e-05
-0.000253107
-6.29384e-06
-0.000372045
8.19373e-05
-0.000634039
0.000167678
-0.000918752
0.000214843
-0.000765317
0.000239783
-0.000534157
0.000240945
-0.0005805
0.000226895
-0.000549568
0.0002019
-0.000543084
0.00016089
-0.000433251
-0.000397764
-0.000193451
-7.84355e-05
-5.11711e-05
-0.000395387
0.000110438
-0.000533654
0.000286949
-0.00081055
0.000380156
-0.00101196
0.000402335
-0.000787496
0.000431794
-0.000563617
0.000468754
-0.00061746
0.000420178
-0.000500993
0.000315995
-0.0004389
0.000167538
-0.000284795
-0.000230226
-4.05046e-05
-0.000171489
0.000133429
-0.000569321
0.000347063
-0.000747288
0.000570476
-0.00103396
0.000676248
-0.00111773
0.000657866
-0.000769114
0.000717514
-0.000623265
0.00075607
-0.000656016
0.00070503
-0.000449953
0.00056173
-0.000295599
0.00032355
-4.66156e-05
9.33247e-05
0.000158831
-0.000331973
0.000380169
-0.000790659
0.000649376
-0.0010165
0.000832831
-0.00121742
0.000897948
-0.00118285
0.00097759
-0.000848756
0.00119626
-0.000841932
0.00108049
-0.000540248
0.000950455
-0.000319919
0.00069503
-4.01744e-05
0.000409441
0.000238973
0.000502766
0.000325517
-0.00061586
0.000644419
-0.00110956
0.000926786
-0.00129886
0.0011349
-0.00142554
0.00117733
-0.00122527
0.00139021
-0.00106164
0.00140792
-0.000859641
0.00132116
-0.00045349
0.00120101
-0.000199766
0.000940961
0.000219877
0.000585541
0.000594393
0.00108831
0.000349799
-0.000349799
0.000552748
-0.00020295
0.000466424
8.63246e-05
0.000333273
0.000133151
0.000150258
0.000183014
-0.000471955
0.000622214
-0.000968943
0.000496987
-0.00116382
0.000194878
-0.00137743
0.000213605
-0.00141232
3.48972e-05
-0.00149198
7.9661e-05
-9.30277e-05
-0.00139896
-4.2847e-05
-0.000306952
-0.000171328
-7.44685e-05
-0.000500014
0.00041501
-0.000948515
0.000581653
-0.00131851
0.000553012
-0.00129362
0.000597317
-0.00127538
0.000478753
-0.00137319
0.000292684
-0.0014046
0.000245021
-0.00144157
7.18603e-05
-0.00137702
1.51177e-05
-0.000159335
-0.00131072
-0.000353202
4.62505e-05
-0.00068071
0.00025304
-0.000921487
0.000655786
-0.00108904
0.000749208
-0.00121051
0.000674476
-0.00120989
0.000596698
-0.00115752
0.000426389
-0.00127277
0.000407932
-0.00133994
0.000312195
-0.00143725
0.000169166
-0.00143141
9.27241e-06
-0.000275057
-0.00131568
-0.000123043
0.000169294
-0.000364931
0.000494927
-0.000705305
0.00099616
-0.00088686
0.000930764
-0.00102882
0.000816431
-0.00108424
0.000652124
-0.00115711
0.000499257
-0.00124307
0.000493887
-0.0012863
0.000355434
-0.00124615
0.000129016
-0.00114353
-9.33523e-05
-0.000395974
-0.00102261
-0.000451795
0.000621089
-0.00087596
0.000919092
-0.00107209
0.00119229
-0.00117245
0.00103113
-0.00123401
0.000877989
-0.00124682
0.000664935
-0.00131328
0.000565715
-0.00131572
0.000496321
-0.00127992
0.000319642
-0.00118186
3.09556e-05
-0.0010524
-0.000222813
-0.000518565
-0.000929811
-0.000288675
0.000909764
-0.00044704
0.00107746
-0.000604007
0.00134926
-0.00082254
0.00124966
-0.000903602
0.000959051
-0.000917081
0.000678414
-0.000944623
0.000593257
-0.000894252
0.00044595
-0.000856814
0.000282205
-0.000733934
-9.19251e-05
-0.00066359
-0.000293156
-0.000565074
-0.000617081
-0.000216008
0.00112577
-0.000565407
0.00142686
-0.000760266
0.00154412
-0.000854639
0.00134403
-0.000835955
0.000940366
-0.00079045
0.000632909
-0.000720133
0.00052294
-0.000726224
0.000452041
-0.000721468
0.000277449
-0.000583354
-0.000230039
-0.000548513
-0.000327997
-0.00065859
-0.000454997
-0.000223382
0.00134915
-0.000384078
0.00158755
-0.000507548
0.00166759
-0.0005513
0.00138779
-0.00059248
0.000981546
-0.000589148
0.000629578
-0.000749014
0.000682806
-0.00078187
0.000484897
-0.000653152
0.000148731
-0.000396616
-0.000486575
-0.000208646
-0.000515967
-0.000653382
-0.000213854
-9.02295e-05
0.00143938
-0.000291157
0.00178848
-0.000503262
0.00187969
-0.000679711
0.00156424
-0.000859479
0.00116131
-0.00104038
0.000810476
-0.00108538
0.00072781
-0.00092905
0.000328567
-0.000817877
3.75582e-05
-0.000576057
-0.000728395
-0.000242398
-0.000849627
-0.000854612
-4.11684e-05
-2.17779e-05
0.00146116
-6.75401e-05
0.00183424
-0.000176692
0.00198884
-0.000304254
0.0016918
-0.000476477
0.00133354
-0.000643043
0.000977041
-0.000775627
0.000860394
-0.000753678
0.000306618
-0.00069408
-2.20405e-05
-0.000464112
-0.000958362
-0.00019369
-0.00112005
-0.000996806
-5.14954e-05
0.000175358
0.0012858
0.000109252
0.00190035
-3.52103e-05
0.00213331
-0.00019414
0.00185073
-0.000368991
0.00150839
-0.000445962
0.00105401
-0.000375972
0.000790404
-0.000201232
0.000131878
-0.000199365
-2.39069e-05
-2.30078e-05
-0.00113472
0.000180272
-0.00132333
-0.00108597
0.000269436
0.000234087
0.00105172
0.000370611
0.00176382
0.000320377
0.00218354
0.000184283
0.00198682
7.94505e-05
0.00161322
0.000198779
0.000934683
0.000160065
0.000829118
0.000373727
-8.17842e-05
0.000396635
-4.68154e-05
0.000219007
-0.000957091
0.00027171
-0.00137603
0.000334672
-0.00114893
-0.00135998
-3.89736e-05
-0.00119219
-0.000167796
-0.00106306
-0.000129129
-0.000876733
-0.000186325
-0.000679519
-0.000197214
-0.000560694
-0.000118825
-0.000455835
-0.000104859
-0.000331801
-0.000124034
-0.000234285
-9.75161e-05
-8.68215e-05
-0.000147464
-6.07051e-05
-2.61164e-05
-6.07051e-05
-0.00115214
-0.000197551
-0.000991969
-0.000327966
-0.000831493
-0.000289605
-0.000654153
-0.000363664
-0.000541353
-0.000310015
-0.000382641
-0.000277536
-0.000317508
-0.000169992
-0.000247484
-0.000194058
-0.000251623
-9.33771e-05
-0.000160264
-0.000238823
-4.16082e-05
-0.000144772
-0.000102313
-0.00117885
-0.000334381
-0.000990151
-0.000516668
-0.000849781
-0.000429976
-0.000641159
-0.000572286
-0.00047408
-0.000477094
-0.000346365
-0.000405251
-0.000173614
-0.000342743
-0.000115081
-0.000252591
-5.94207e-05
-0.000149037
-9.82927e-05
-0.000199951
-8.30746e-05
-0.00015999
-0.000185388
-0.000877271
-0.000479723
-0.000723096
-0.000670842
-0.000553082
-0.00059999
-0.000483639
-0.000641729
-0.000296498
-0.000664235
-0.000147161
-0.000554588
-8.06096e-05
-0.000409294
-7.32124e-06
-0.00032588
-4.43642e-05
-0.000111994
-5.14622e-05
-0.000192853
-4.02504e-05
-0.000171202
-0.000225638
-0.000778593
-0.000630941
-0.000589737
-0.000859698
-0.000368518
-0.000821209
-0.000179595
-0.000830652
-6.97435e-05
-0.000774086
2.96966e-05
-0.000654028
6.60651e-05
-0.000445663
4.88645e-05
-0.000308679
8.02684e-05
-0.000143398
0.00010165
-0.000214234
6.36141e-05
-0.000133166
-0.000162024
-0.000561761
-0.000686262
-0.000399385
-0.00102207
-0.000192353
-0.00102824
6.85748e-06
-0.00102986
0.000194538
-0.000961767
0.0002731
-0.00073259
0.000293466
-0.000466028
0.000258812
-0.000274025
0.000244052
-0.000128639
0.000238615
-0.000208797
0.00016087
-5.54206e-05
-1.15469e-06
-0.000320639
-0.000820619
-0.000185448
-0.00115727
-5.8885e-05
-0.0011548
0.000115352
-0.0012041
0.000233885
-0.0010803
0.000359294
-0.000857998
0.000399651
-0.000506385
0.000346005
-0.00022038
0.000362128
-0.000144761
0.000199114
-4.57832e-05
4.01872e-05
0.000103506
3.90325e-05
-0.000128702
-0.000905771
2.19165e-06
-0.00128816
0.000119123
-0.00127174
0.000223516
-0.00130849
0.000345488
-0.00120227
0.000421776
-0.000934287
0.000431839
-0.000516447
0.000581188
-0.000369729
0.000548787
-0.00011236
0.0004415
6.15038e-05
0.000253528
0.000291478
0.000292561
6.41364e-05
-0.00101108
0.000124821
-0.00134884
0.000199065
-0.00134598
0.000315425
-0.00142485
0.000426461
-0.00131331
0.0004672
-0.000975026
0.000625913
-0.00067516
0.000675198
-0.000419014
0.000630223
-6.73859e-05
0.000452737
0.00023899
0.000261376
0.000482839
0.000553937
0.000150237
-0.00121281
0.000213602
-0.00141221
0.000339991
-0.00147237
0.000469392
-0.00155425
0.000537515
-0.00138143
0.000647174
-0.00108468
0.0007316
-0.000759586
0.000724541
-0.000411955
0.000697132
-3.9977e-05
0.000624869
0.000311253
0.000347787
0.000759921
0.000901724
0.000334364
-0.00127774
0.000372635
-0.00145048
0.000530902
-0.00163064
0.000659004
-0.00168235
0.000740889
-0.00146332
0.000752368
-0.00109616
0.000694574
-0.000701792
0.00069052
-0.000407901
0.000649889
6.54463e-07
0.000500672
0.00046047
0.000392101
0.000868493
0.00129382
0.000425148
-0.00136821
0.000577526
-0.00160286
0.000771875
-0.00182499
0.000924218
-0.0018347
0.000970524
-0.00150962
0.000902629
-0.00102827
0.000894142
-0.000693306
0.000829502
-0.000343261
0.000748739
8.14172e-05
0.000622777
0.000586433
0.000385734
0.00110554
0.00167956
0.00017411
0.00201333
-0.000369953
6.21455e-05
0.00239173
-0.00010821
0.00242619
-0.00030006
0.00207121
-0.000380437
0.00191422
-0.000390137
0.0011348
-0.000396004
0.000413059
-0.000361603
1.44793e-05
-0.000213393
-0.000873908
-3.1186e-05
-0.001295
0.000213754
-0.00180431
-0.00190525
0.000467775
0.000422889
0.00218785
-0.000597413
0.000345981
0.00246864
0.000238521
0.00253365
3.3149e-05
0.00227658
-0.000199232
0.0021466
-0.000222176
0.00115774
-0.000125516
0.000316399
-0.000155237
4.41996e-05
-3.12971e-05
-0.000997848
0.000122051
-0.00144835
0.000384106
-0.00206636
-0.00213264
0.0006115
0.000485487
0.00235956
-0.000657203
0.000338827
0.0026153
0.000178058
0.00269442
-2.3776e-05
0.00247841
-9.24694e-05
0.00221529
-5.99001e-05
0.00112517
-0.000158487
0.000414986
-9.71588e-05
-1.71282e-05
0.000164149
-0.00125916
0.000295765
-0.00157997
0.000499746
-0.00227034
-0.00233278
0.000699883
0.000673628
-0.000829603
0.00251554
0.000542846
0.00274608
0.000403486
0.00283378
0.000198095
0.0026838
-5.34202e-05
0.0024668
-0.000253354
0.00132511
-0.000149779
0.000311411
0.000143955
-0.000310863
0.000272314
-0.00138751
0.000383357
-0.00169101
0.000601858
-0.00248884
0.000822778
-0.0025537
0.000679716
-0.00195261
0.000912623
-0.00211981
0.00121267
-0.00219303
0.00147853
-0.00219168
0.00150083
-0.00180319
0.00139204
-0.00116088