/*--------------------------------*- C++ -*----------------------------------*\
| =========                 |                                                 |
| \\      /  F ield         | OpenFOAM: The Open Source CFD Toolbox           |
|  \\    /   O peration     | Version:  v1606+                                |
|   \\  /    A nd           | Web:      www.OpenFOAM.com                      |
|    \\/     M anipulation  |                                                 |
\*---------------------------------------------------------------------------*/
FoamFile
{
    version     2.0;
    format      ascii;
    class       surfaceScalarField;
    location    "1.1";
    object      phi.air;
}
// * * * * * * * * * * * * * * * * * * * * * * * * * * * * * * * * * * * * * //

dimensions      [0 3 -1 0 0 0 0];

internalField   nonuniform List<scalar> 
11770
(
-7.47772e-06
0.000102844
-5.08616e-06
9.54476e-05
-4.77882e-06
9.85995e-05
-4.48281e-06
9.95336e-05
-3.68888e-06
9.70941e-05
-4.99796e-06
9.44566e-05
-4.35677e-06
8.99177e-05
-3.26552e-06
8.90906e-05
4.71862e-07
8.78407e-05
3.17184e-06
8.94992e-05
4.40171e-06
9.11934e-05
3.84958e-06
9.28548e-05
1.91451e-06
9.39699e-05
-3.92433e-07
9.40502e-05
-2.92212e-06
9.36865e-05
-5.14151e-06
9.28577e-05
-6.26805e-06
9.13741e-05
-6.35259e-06
9.00034e-05
-5.84507e-06
8.92502e-05
-4.31152e-06
8.84603e-05
-2.94978e-06
8.86184e-05
-2.68434e-06
9.002e-05
-2.65931e-06
9.1777e-05
-5.039e-06
9.65706e-05
-4.68727e-06
9.76286e-05
-4.71231e-06
9.90667e-05
-2.72355e-06
9.64568e-05
7.62474e-07
9.32897e-05
5.45279e-06
9.1312e-05
9.90396e-05
2.74245e-08
9.09614e-05
3.12523e-06
8.21859e-05
2.76562e-06
8.71823e-05
-2.50911e-06
9.30928e-05
-1.11859e-05
9.48473e-05
-1.18488e-05
8.60139e-05
-6.79819e-06
7.57293e-05
-1.05259e-06
7.34089e-05
3.53778e-06
7.25449e-05
6.35056e-06
7.59629e-05
7.24331e-06
7.99127e-05
5.75114e-06
8.45121e-05
2.52468e-06
8.79602e-05
-1.66751e-06
8.97881e-05
-6.03413e-06
9.04346e-05
-9.54702e-06
8.91988e-05
-1.13477e-05
8.62184e-05
-1.10171e-05
8.2439e-05
-9.87819e-06
7.99113e-05
-7.69624e-06
7.74042e-05
-4.01505e-06
7.60059e-05
9.2217e-08
7.71605e-05
2.05225e-06
8.07734e-05
-8.51307e-07
9.02344e-05
-8.39875e-06
9.45782e-05
-1.27548e-05
9.21068e-05
-1.12062e-05
8.42106e-05
-6.4865e-06
7.92244e-05
-1.89727e-06
7.79941e-05
8.66294e-05
6.07353e-06
7.98653e-05
6.81322e-06
7.62605e-05
6.20023e-06
8.28786e-05
6.21237e-08
9.44747e-05
-1.47163e-05
0.000106063
-1.44273e-05
9.14445e-05
-3.99473e-06
7.49389e-05
1.9138e-06
7.6391e-05
6.7206e-06
7.87141e-05
9.09798e-06
8.50752e-05
9.46311e-06
9.1407e-05
6.75966e-06
0.000100281
3.18812e-06
0.000106614
-1.88147e-06
0.000110771
-8.15977e-06
0.000112176
-1.29977e-05
0.000109433
-1.63711e-05
0.000104705
-1.67513e-05
9.77278e-05
-1.56027e-05
9.26243e-05
-1.29611e-05
8.77866e-05
-8.37888e-06
8.34259e-05
-2.33452e-06
8.17473e-05
4.28429e-06
8.44485e-05
2.0205e-06
9.75418e-05
-1.09104e-05
0.000104379
-1.77746e-05
9.40804e-05
-1.70228e-05
7.93006e-05
-1.38121e-05
7.12017e-05
-9.68549e-06
6.87996e-05
7.22762e-05
1.09182e-05
6.58956e-05
1.41914e-05
6.84437e-05
1.62336e-05
7.6386e-05
1.53909e-05
9.00604e-05
7.6363e-06
0.000106797
-3.20572e-06
9.62892e-05
4.22319e-06
6.97716e-05
1.15465e-05
7.33943e-05
1.57944e-05
7.96593e-05
1.76398e-05
9.02972e-05
1.9148e-05
9.8557e-05
1.32916e-05
0.000110959
4.90624e-06
0.000114866
-3.28494e-06
0.00011393
-9.69228e-06
0.000110907
-1.39334e-05
0.000106083
-1.76536e-05
0.000102564
-2.1404e-05
9.95342e-05
-2.15017e-05
9.58116e-05
-1.96487e-05
9.11334e-05
-1.42586e-05
8.43529e-05
-7.99302e-06
8.04173e-05
-1.24774e-05
8.77822e-05
-2.30687e-05
0.000101838
-2.99993e-05
0.000104017
-3.14982e-05
8.91131e-05
-2.85008e-05
7.14984e-05
-2.20947e-05
6.10327e-05
-1.40086e-05
5.72726e-05
5.64924e-05
1.20116e-05
5.37327e-05
2.15599e-05
5.83312e-05
2.85723e-05
6.85654e-05
3.11653e-05
8.59703e-05
3.16718e-05
0.000104429
1.92303e-05
0.000105001
1.44043e-05
7.68423e-05
2.11832e-05
7.50517e-05
2.68659e-05
8.38218e-05
2.41087e-05
9.79187e-05
1.43996e-05
0.000103428
4.28075e-06
0.000106935
-4.9481e-06
0.000104828
-1.0709e-05
9.96648e-05
-1.14818e-05
9.32778e-05
-9.99424e-06
8.73186e-05
-7.83236e-06
8.42898e-05
-8.53507e-06
8.51162e-05
-1.16233e-05
8.73572e-05
-1.63581e-05
8.90605e-05
-2.03502e-05
8.57077e-05
-2.52638e-05
8.44862e-05
-4.0925e-05
9.89076e-05
-5.21417e-05
0.00010894
-4.95894e-05
9.96277e-05
-4.23021e-05
8.05185e-05
-3.31923e-05
6.18572e-05
-2.25518e-05
5.05433e-05
-1.24976e-05
4.75964e-05
4.48911e-05
1.12482e-05
4.43631e-05
2.29469e-05
4.83514e-05
3.60199e-05
5.65546e-05
4.46866e-05
7.6734e-05
5.07201e-05
9.85002e-05
4.82051e-05
0.000109035
3.02991e-05
9.55922e-05
2.74559e-05
8.30632e-05
1.82201e-05
8.82242e-05
4.69317e-06
9.60809e-05
-9.17055e-06
9.74636e-05
-1.9194e-05
9.96811e-05
-2.31567e-05
9.4963e-05
-2.01043e-05
8.54769e-05
-1.13e-05
7.60383e-05
1.0351e-06
6.76119e-05
1.23328e-05
6.55791e-05
1.70316e-05
7.1282e-05
1.03782e-05
8.11032e-05
-3.94324e-06
8.83613e-05
-2.37339e-05
9.08937e-05
-4.66839e-05
9.62536e-05
-6.45448e-05
0.000109471
-6.76196e-05
0.000108691
-5.83661e-05
8.93911e-05
-4.30791e-05
6.55402e-05
-2.84831e-05
4.80727e-05
-1.7176e-05
4.03831e-05
-9.29777e-06
4.07868e-05
3.73868e-05
7.44031e-06
3.88314e-05
1.55823e-05
4.17741e-05
2.98169e-05
4.46389e-05
4.79294e-05
6.03307e-05
6.39814e-05
8.40797e-05
7.24082e-05
0.000102032
5.43936e-05
0.000108948
2.94326e-05
9.59112e-05
1.06584e-06
9.81186e-05
-1.98131e-05
0.000102809
-3.34854e-05
0.000102622
-3.81586e-05
9.88267e-05
-3.43986e-05
8.76796e-05
-2.46634e-05
7.43232e-05
-8.51766e-06
5.97554e-05
9.65433e-06
5.0042e-05
2.52508e-05
5.0238e-05
3.41382e-05
6.14361e-05
3.03995e-05
8.15584e-05
1.18218e-05
0.000100806
-1.49189e-05
0.000109889
-4.4621e-05
0.000116844
-6.15857e-05
0.000119338
-6.23947e-05
0.000105491
-4.99638e-05
7.61631e-05
-3.12976e-05
4.81148e-05
-1.78723e-05
3.6088e-05
-9.93359e-06
3.38004e-05
-5.36508e-06
3.67249e-05
3.32744e-05
4.51575e-06
3.51155e-05
9.04589e-06
3.75243e-05
1.81535e-05
3.67617e-05
3.64883e-05
4.41434e-05
5.75599e-05
6.34145e-05
7.34199e-05
8.34168e-05
5.92319e-05
0.000112623
2.30205e-05
0.000117974
-8.24512e-06
0.000120857
-2.68065e-05
0.000117717
-3.97449e-05
0.000113875
-4.49379e-05
0.000102244
-3.98896e-05
8.24048e-05
-2.40955e-05
6.07274e-05
-4.06855e-06
4.24596e-05
1.25914e-05
3.61382e-05
2.65405e-05
3.86822e-05
3.69329e-05
5.25188e-05
3.81994e-05
8.05057e-05
2.37301e-05
0.000113739
1.66878e-06
0.00013018
-2.27777e-05
0.000138468
-3.99787e-05
0.000132716
-4.30559e-05
0.000104121
-3.28796e-05
6.33244e-05
-1.88767e-05
3.46688e-05
-1.0429e-05
2.81293e-05
-6.01908e-06
2.94863e-05
-2.90058e-06
3.28573e-05
3.0251e-05
3.03807e-06
3.20376e-05
6.19842e-06
3.35951e-05
1.07408e-05
3.22694e-05
2.04244e-05
3.52552e-05
3.53368e-05
4.74073e-05
5.03789e-05
6.51553e-05
3.83324e-05
0.000117495
1.00857e-05
0.00014038
-1.02076e-05
0.000139726
-2.91399e-05
0.000135852
-4.50908e-05
0.000128277
-4.82142e-05
0.000104726
-3.17331e-05
6.8334e-05
-1.22623e-05
4.45053e-05
2.58968e-06
3.06056e-05
1.24061e-05
2.85517e-05
2.11248e-05
3.18984e-05
3.04742e-05
4.45197e-05
3.73315e-05
7.44546e-05
3.05617e-05
0.000120062
1.24318e-05
0.000147051
-4.59001e-06
0.000155054
-1.8988e-05
0.000145012
-2.22121e-05
0.00010376
-1.67518e-05
5.47156e-05
-1.0835e-05
2.7875e-05
-6.56807e-06
2.3619e-05
-4.24109e-06
2.64786e-05
-1.74245e-06
2.90955e-05
2.77316e-05
2.4674e-06
2.91438e-05
5.04957e-06
2.98532e-05
6.66229e-06
2.99692e-05
7.91407e-06
3.34405e-05
1.33728e-05
4.10354e-05
2.60968e-05
5.21104e-05
2.39864e-05
0.000117046
4.62577e-06
0.000157075
-1.38577e-05
0.000157159
-3.38499e-05
0.000154459
-5.06639e-05
0.00014322
-3.87282e-05
9.49523e-05
-1.30083e-05
4.71741e-05
-1.32193e-06
3.52946e-05
5.87635e-06
2.47184e-05
9.93252e-06
2.50329e-05
1.38631e-05
2.83759e-05
2.00232e-05
3.86494e-05
3.01828e-05
6.50069e-05
3.25805e-05
0.000117804
1.83013e-05
0.000159588
5.2151e-06
0.000167839
-6.248e-06
0.000154907
-6.59379e-06
0.00010202
-3.31039e-06
4.94896e-05
-4.19612e-06
2.74626e-05
-3.3851e-06
2.24257e-05
-2.82729e-06
2.47954e-05
-1.15085e-06
2.60335e-05
2.56889e-05
2.21113e-06
2.64552e-05
4.19536e-06
2.65547e-05
3.69909e-06
2.91301e-05
3.92573e-07
3.48353e-05
-1.37201e-07
4.06674e-05
7.64197e-06
4.62128e-05
1.53317e-05
0.000110887
2.17738e-06
0.000168513
-1.44017e-05
0.000172167
-3.23456e-05
0.000170561
-4.49107e-05
0.000154507
-1.90243e-05
7.45189e-05
-1.64774e-06
3.35471e-05
3.04679e-06
2.99467e-05
5.41586e-06
2.19868e-05
6.33106e-06
2.32183e-05
7.00117e-06
2.69814e-05
9.49774e-06
3.57224e-05
1.88593e-05
5.59208e-05
2.87063e-05
0.000108113
1.94029e-05
0.000166451
7.905e-06
0.000178299
-1.65568e-07
0.000161585
3.65594e-06
9.82092e-05
6.62713e-06
4.63016e-05
2.5141e-06
3.01835e-05
-4.30365e-07
2.42181e-05
-1.45896e-06
2.42774e-05
-6.935e-07
2.38398e-05
2.4059e-05
2.23177e-06
2.38121e-05
3.67566e-06
2.35994e-05
2.14632e-06
2.84483e-05
-1.85139e-06
3.65212e-05
-6.05253e-06
4.38642e-05
-7.08627e-06
5.0239e-05
4.22913e-06
0.000105577
9.08274e-07
0.000173702
-1.04683e-05
0.000183843
-2.26651e-05
0.000183236
-2.56781e-05
0.000159081
-3.61513e-06
5.98083e-05
2.93399e-07
3.02967e-05
2.68908e-06
2.52077e-05
3.43705e-06
1.97184e-05
3.23237e-06
2.20095e-05
8.42631e-07
2.89907e-05
-1.06337e-06
3.8167e-05
3.17029e-06
5.24488e-05
1.62556e-05
9.64851e-05
1.64266e-05
0.000165453
6.80015e-06
0.000185972
5.10293e-06
0.000163416
1.05207e-05
9.46549e-05
1.17571e-05
4.65765e-05
6.80212e-06
3.43738e-05
1.67398e-06
2.72679e-05
-2.60884e-07
2.41824e-05
-3.56803e-07
2.23515e-05
2.27312e-05
2.81293e-06
2.09804e-05
3.95338e-06
2.14067e-05
2.03191e-06
2.87697e-05
-2.43038e-06
4.06726e-05
-1.19148e-05
5.31923e-05
-2.12489e-05
6.28218e-05
-1.63171e-05
0.000110685
-4.19515e-06
0.000171822
-8.02229e-07
0.000187513
2.26223e-06
0.00018838
7.02687e-06
0.000164045
4.62617e-06
7.04303e-05
7.12847e-08
3.50846e-05
1.07665e-06
2.31464e-05
1.74254e-06
1.79318e-05
1.42106e-06
2.23086e-05
-5.5784e-06
3.64625e-05
-1.37714e-05
4.81606e-05
-1.66703e-05
5.96456e-05
-6.04042e-06
9.18289e-05
7.15602e-06
0.000158047
7.67033e-06
0.000187942
1.54757e-05
0.000161081
1.76636e-05
9.75518e-05
1.3592e-05
5.46332e-05
6.80529e-06
4.25389e-05
2.51093e-06
3.10962e-05
4.71109e-07
2.46756e-05
-2.25627e-07
2.1659e-05
2.16805e-05
4.43424e-06
1.82719e-05
6.54303e-06
2.04673e-05
4.55845e-06
3.0987e-05
-2.98518e-06
4.90882e-05
-2.1463e-05
7.15182e-05
-3.67064e-05
8.22734e-05
-3.57772e-05
0.000121733
-1.08517e-05
0.000164714
7.80245e-06
0.000184095
2.84239e-05
0.000184543
4.00034e-05
0.00016954
8.17874e-06
0.000106508
-1.10933e-06
4.76658e-05
-8.08544e-08
2.44692e-05
2.0983e-06
1.74829e-05
4.19189e-06
2.4381e-05
-1.08602e-05
5.18551e-05
-2.519e-05
6.42476e-05
-3.55628e-05
7.4726e-05
-2.99388e-05
9.94048e-05
-7.33638e-06
0.000150187
9.44975e-06
0.000182682
2.75053e-05
0.000155213
2.9334e-05
0.000105521
1.89651e-05
6.9048e-05
6.31538e-06
5.55695e-05
1.7359e-06
3.77244e-05
-2.73333e-07
2.67003e-05
-8.32691e-07
2.15248e-05
2.0352e-05
8.17608e-06
1.74854e-05
1.29086e-05
2.01393e-05
1.35571e-05
3.27542e-05
-3.52432e-06
6.22588e-05
-3.142e-05
9.75292e-05
-4.85724e-05
0.000102834
-3.95599e-05
0.000123168
-1.21706e-05
0.00015494
9.68293e-06
0.000178605
3.62515e-05
0.000174344
5.49439e-05
0.000163801
9.53948e-06
0.000140695
-1.09156e-05
6.76678e-05
-3.01178e-06
2.39799e-05
5.86895e-06
1.32179e-05
4.20964e-06
2.84571e-05
-1.21399e-05
6.43225e-05
-3.19461e-05
7.73558e-05
-4.84281e-05
8.61404e-05
-4.9519e-05
0.000104573
-2.1537e-05
0.000138642
8.92709e-06
0.000168509
3.43987e-05
0.000143879
4.12495e-05
0.00010709
2.97125e-05
8.39017e-05
8.29584e-06
8.06242e-05
-4.79237e-06
5.80082e-05
-4.89982e-06
2.7387e-05
-3.24995e-06
1.91868e-05
1.65367e-05
1.32292e-05
1.8077e-05
1.88238e-05
1.97319e-05
1.65108e-05
3.40788e-05
-1.60782e-06
6.75566e-05
-2.29294e-05
9.8852e-05
-3.72238e-05
9.93782e-05
-3.20383e-05
0.000112917
-1.27334e-05
0.000137168
8.09646e-06
0.000158942
3.16937e-05
0.00015177
4.18858e-05
0.000145361
1.0036e-05
0.000144996
-1.65173e-05
7.59184e-05
-1.18753e-05
1.77692e-05
-4.30352e-06
5.43995e-06
-2.6215e-06
2.62523e-05
-8.72898e-06
6.14664e-05
-2.36857e-05
7.81728e-05
-3.79654e-05
8.35309e-05
-4.5477e-05
9.28171e-05
-2.84913e-05
0.000112625
7.18104e-06
0.00013398
3.04023e-05
0.000120887
3.24523e-05
9.91043e-05
2.12611e-05
8.29701e-05
3.46761e-06
8.3083e-05
-1.59579e-05
6.38944e-05
-1.05247e-05
2.88636e-05
-6.96148e-06
1.36975e-05
1.0659e-05
1.58534e-05
9.35935e-06
2.85751e-05
1.13903e-05
1.20291e-05
3.68045e-05
-1.46994e-06
6.73803e-05
-4.01128e-06
8.92641e-05
-1.10141e-05
9.0086e-05
-1.40424e-05
9.52814e-05
-7.37189e-06
0.000109669
5.13162e-06
0.000126164
1.32953e-05
0.000124341
7.46937e-06
0.000129603
-4.58846e-06
0.000137828
-2.68193e-05
7.98974e-05
-3.87556e-05
2.00887e-05
-3.47666e-05
5.14442e-06
-2.63318e-05
2.0741e-05
-1.77414e-05
5.18494e-05
-1.27946e-05
6.97241e-05
-1.30021e-05
7.65998e-05
-1.75698e-05
8.40145e-05
-1.25222e-05
9.01118e-05
6.96332e-06
9.76942e-05
1.75751e-05
9.26333e-05
1.22555e-05
8.64795e-05
5.64933e-07
8.0395e-05
-4.17181e-06
7.73015e-05
-1.06588e-05
5.93958e-05
-2.04645e-05
3.07929e-05
-1.09401e-05
1.25725e-05
7.53871e-06
9.95041e-06
-3.0443e-07
1.64127e-05
2.96519e-06
-7.16832e-07
4.33178e-05
-6.76568e-06
6.94218e-05
1.97987e-06
7.88994e-05
9.94573e-06
7.8966e-05
1.08921e-05
8.52034e-05
5.60134e-06
0.000100538
1.93971e-06
0.000114371
-8.1388e-06
0.000119205
-1.84135e-05
0.000127619
-1.645e-05
0.000130027
-2.71317e-05
8.16508e-05
-4.59588e-05
2.83546e-05
-4.76865e-05
7.55943e-06
-3.86038e-05
1.61739e-05
-2.54226e-05
4.28609e-05
-1.62501e-05
6.26401e-05
-8.57935e-06
6.92566e-05
-2.11795e-06
7.61277e-05
1.86663e-06
8.10751e-05
4.8292e-06
8.55162e-05
1.70787e-06
8.64277e-05
-3.29631e-06
8.48693e-05
-4.94268e-06
7.94591e-05
1.20999e-06
7.06891e-05
4.9004e-06
5.61321e-05
-5.18822e-06
3.5745e-05
-4.80603e-06
1.35966e-05
9.06639e-06
-2.78188e-06
3.31589e-06
-8.49402e-06
7.34819e-06
-1.48906e-05
4.84672e-05
-1.52884e-05
7.02692e-05
-7.34843e-06
7.1909e-05
3.38431e-06
6.9278e-05
1.10073e-05
7.70627e-05
1.03986e-05
9.84838e-05
2.66621e-06
0.000118414
-9.21668e-06
0.000127557
-1.62449e-05
0.000132323
-1.34451e-05
0.000125912
-1.89169e-05
8.28808e-05
-3.47029e-05
3.50232e-05
-4.14785e-05
1.02908e-05
-3.63103e-05
1.47793e-05
-2.66753e-05
3.79492e-05
-1.97172e-05
5.94696e-05
-1.41325e-05
6.65935e-05
-6.32577e-06
7.09104e-05
-1.00246e-06
7.71903e-05
9.57071e-07
8.39343e-05
-4.69781e-07
8.81817e-05
-5.93036e-07
8.62442e-05
3.60304e-06
7.76229e-05
1.05157e-05
6.74287e-05
1.6689e-05
5.37968e-05
1.78271e-05
3.76515e-05
8.17079e-06
2.27074e-05
1.64433e-05
-1.15246e-05
1.44036e-05
-2.07629e-05
1.93532e-05
-2.22731e-05
5.4061e-05
-2.32376e-05
7.3849e-05
-1.80654e-05
6.91665e-05
-9.53626e-06
6.31997e-05
1.58387e-06
6.84839e-05
9.26914e-06
9.24455e-05
5.52586e-06
0.00012169
-3.39821e-06
0.000135994
-8.91101e-06
0.000137476
-6.45919e-06
0.000122797
-5.04491e-06
7.9967e-05
-1.52757e-05
4.02764e-05
-2.54107e-05
1.61554e-05
-2.76702e-05
1.89834e-05
-2.56667e-05
3.97678e-05
-2.05734e-05
5.85287e-05
-1.65607e-05
6.6677e-05
-1.09598e-05
6.95504e-05
-5.49002e-06
7.60908e-05
-1.0485e-06
8.38545e-05
2.06727e-06
8.95216e-05
5.94411e-06
8.72175e-05
1.15415e-05
7.72569e-05
1.80029e-05
6.66498e-05
2.3963e-05
5.3076e-05
2.33954e-05
4.2499e-05
1.385e-05
3.45596e-05
3.0927e-05
-1.77353e-05
3.26863e-05
-3.07357e-05
3.76487e-05
-2.76103e-05
5.85424e-05
-2.51046e-05
7.64088e-05
-2.31063e-05
7.09102e-05
-1.94019e-05
6.29398e-05
-1.07495e-05
6.41773e-05
2.20529e-06
8.33346e-05
6.42468e-06
0.00011883
1.14501e-07
0.000141881
-5.0171e-06
0.000142028
4.60921e-07
0.000117703
8.72986e-06
7.36988e-05
4.01039e-06
4.57141e-05
-9.03827e-06
2.76231e-05
-1.86369e-05
2.87631e-05
-2.24644e-05
4.5986e-05
-2.06805e-05
6.07941e-05
-1.68844e-05
6.7654e-05
-1.35999e-05
7.16487e-05
-8.52472e-06
7.73365e-05
-1.79957e-06
8.43264e-05
5.50427e-06
8.99778e-05
1.20722e-05
8.84675e-05
1.71664e-05
7.98252e-05
2.31404e-05
6.80571e-05
2.52666e-05
5.78329e-05
2.20779e-05
5.13651e-05
1.32463e-05
4.65539e-05
4.47239e-05
-1.96678e-05
5.21041e-05
-3.30618e-05
5.57141e-05
-3.23646e-05
6.93894e-05
-2.7378e-05
8.19523e-05
-2.83468e-05
7.85272e-05
-2.80767e-05
6.78641e-05
-2.23513e-05
6.36714e-05
-1.18542e-05
7.84684e-05
-1.18775e-06
0.000113085
-1.20403e-06
0.000144253
-1.16087e-06
0.000143751
1.18943e-05
0.000109127
2.33617e-05
6.89216e-05
2.36567e-05
5.09663e-05
9.48815e-06
4.43187e-05
-6.00279e-06
4.69017e-05
-1.47366e-05
5.97909e-05
-1.67927e-05
7.0155e-05
-1.6228e-05
7.5454e-05
-1.45602e-05
7.8944e-05
-1.07756e-05
8.31226e-05
-4.25601e-06
8.80239e-05
4.21289e-06
9.2323e-05
1.24766e-05
9.10459e-05
1.94396e-05
8.37636e-05
2.36733e-05
7.462e-05
2.34139e-05
6.74306e-05
1.86454e-05
6.19907e-05
1.03084e-05
5.77674e-05
5.64418e-05
-1.78003e-05
7.00321e-05
-3.02715e-05
7.19673e-05
-3.18134e-05
8.15566e-05
-2.53418e-05
9.03477e-05
-2.42958e-05
8.93727e-05
-2.70272e-05
8.03677e-05
-2.88183e-05
7.47428e-05
-2.4959e-05
8.43231e-05
-1.37988e-05
0.00011159
-4.20705e-06
0.000143245
6.32345e-06
0.000141735
2.46592e-05
0.000102472
3.35854e-05
7.28136e-05
2.80427e-05
6.93769e-05
1.37677e-05
6.83509e-05
-2.79803e-06
6.7657e-05
-1.15383e-05
7.39297e-05
-1.37788e-05
8.04324e-05
-1.36911e-05
8.48851e-05
-1.24024e-05
8.82936e-05
-9.27085e-06
9.18598e-05
-3.6462e-06
9.54873e-05
4.37958e-06
9.84333e-05
1.25361e-05
9.73426e-05
1.89939e-05
9.13393e-05
2.183e-05
8.31348e-05
1.99015e-05
7.60131e-05
1.46171e-05
7.06585e-05
7.50244e-06
6.69644e-05
6.57707e-05
-1.32316e-05
8.4365e-05
-2.37543e-05
8.50217e-05
-2.74714e-05
9.15686e-05
-2.41448e-05
9.89165e-05
-2.25149e-05
0.000101512
-2.70598e-05
9.76226e-05
-3.33643e-05
9.43055e-05
-3.22285e-05
9.9688e-05
-2.24355e-05
0.000120463
-3.77303e-06
0.000143117
1.73727e-05
0.0001403
3.03382e-05
0.000112556
3.1507e-05
9.2987e-05
2.47432e-05
8.82217e-05
1.34414e-05
8.46866e-05
8.01397e-07
8.25447e-05
-7.04161e-06
8.44394e-05
-1.06486e-05
8.7779e-05
-1.19567e-05
9.10546e-05
-1.16143e-05
9.41103e-05
-9.14366e-06
9.71553e-05
-4.08031e-06
9.98345e-05
3.75767e-06
0.000101299
1.19382e-05
9.94175e-05
1.68907e-05
9.37268e-05
1.71642e-05
8.65308e-05
1.44107e-05
8.04611e-05
1.02438e-05
7.60458e-05
5.23388e-06
7.31724e-05
7.22749e-05
-8.91748e-06
9.47199e-05
-1.67007e-05
9.45359e-05
-2.17093e-05
9.89528e-05
-2.31761e-05
0.000104756
-2.39227e-05
0.0001093
-2.86747e-05
0.000111241
-3.50628e-05
0.000113511
-3.53951e-05
0.000120872
-2.4266e-05
0.000136992
-1.8964e-06
0.000151798
2.30293e-05
0.0001487
3.53787e-05
0.000127333
3.06151e-05
0.000109965
2.1728e-05
0.000101548
1.21705e-05
9.61245e-05
3.03877e-06
9.27027e-05
-3.43077e-06
9.18155e-05
-7.18461e-06
9.2569e-05
-8.83092e-06
9.40149e-05
-8.70422e-06
9.56733e-05
-6.70862e-06
9.72972e-05
-2.7828e-06
9.84449e-05
2.81078e-06
9.841e-05
8.16314e-06
9.62469e-05
1.10548e-05
9.2041e-05
1.11246e-05
8.70725e-05
9.46568e-06
8.26788e-05
6.8145e-06
7.9366e-05
3.50331e-06
7.72637e-05
7.6704e-05
-5.85049e-06
0.000101918
-1.13873e-05
0.000101434
-1.58819e-05
0.000104815
-1.92991e-05
0.000109701
-2.25628e-05
0.000114629
-2.76686e-05
0.000119228
-3.41019e-05
0.000124788
-3.58819e-05
0.000133788
-2.36165e-05
0.000147404
8.32573e-07
0.000157672
2.41986e-05
0.00015236
2.99263e-05
0.000135238
2.38984e-05
0.000120364
1.63367e-05
0.000110787
9.33829e-06
0.000104169
3.01084e-06
9.97046e-05
-1.85809e-06
9.71595e-05
-4.955e-06
9.6085e-05
-6.3935e-06
9.58725e-05
-6.35611e-06
9.60556e-05
-4.9471e-06
9.62975e-05
-2.33669e-06
9.6225e-05
1.0559e-06
9.53894e-05
4.26129e-06
9.33936e-05
6.26458e-06
9.03817e-05
6.70088e-06
8.69917e-05
5.91337e-06
8.3872e-05
4.32634e-06
8.14403e-05
2.21876e-06
7.99514e-05
7.966e-05
-3.65454e-06
0.00010691
-7.5793e-06
0.000106604
-1.13257e-05
0.000109729
-1.4864e-05
0.000114333
-1.84417e-05
0.000119286
-2.25079e-05
0.000124435
-2.65671e-05
0.000130204
-2.75627e-05
0.000137198
-1.94183e-05
0.000145139
-2.26406e-06
0.000150023
1.20115e-05
0.000145763
1.57157e-05
0.000135073
1.33302e-05
0.000124467
9.39575e-06
0.00011595
5.15758e-06
0.000109314
1.13977e-06
0.000104381
-2.15098e-06
0.000100933
-4.36696e-06
9.86938e-05
-5.42825e-06
9.72839e-05
-5.39648e-06
9.63469e-05
-4.39379e-06
9.55947e-05
-2.62593e-06
9.47348e-05
-4.42797e-07
9.34663e-05
1.62131e-06
9.15773e-05
3.06698e-06
8.91935e-05
3.64158e-06
8.67065e-05
3.39447e-06
8.44459e-05
2.53669e-06
8.26758e-05
1.28805e-06
8.16501e-05
8.15417e-05
-1.96406e-06
0.000110297
-4.69322e-06
0.000110552
-7.76437e-06
0.000113838
-1.09357e-05
0.000118396
-1.41294e-05
0.000123262
-1.7261e-05
0.000128264
-1.9757e-05
0.000133308
-2.00667e-05
0.000138065
-1.59962e-05
0.000141752
-7.72079e-06
0.000142771
-3.15136e-07
0.000139359
3.10807e-06
0.000132602
3.50837e-06
0.000125089
2.31927e-06
0.000118103
3.56318e-07
0.000112071
-1.78563e-06
0.000107146
-3.67004e-06
0.000103297
-4.98354e-06
0.000100387
-5.57585e-06
9.81956e-05
-5.42467e-06
9.64777e-05
-4.60638e-06
9.50339e-05
-3.29172e-06
9.36549e-05
-1.73927e-06
9.21243e-05
-2.712e-07
9.02942e-05
8.48634e-07
8.82524e-05
1.47445e-06
8.62887e-05
1.57614e-06
8.45939e-05
1.23989e-06
8.33068e-05
6.20005e-07
8.26243e-05
8.26369e-05
-6.80098e-07
0.000112488
-2.57188e-06
0.000113541
-5.10146e-06
0.000117152
-7.82108e-06
0.000121727
-1.06047e-05
0.000126559
-1.33861e-05
0.000131481
-1.57501e-05
0.000136049
-1.68387e-05
0.000139483
-1.56531e-05
0.000140902
-1.2192e-05
0.000139731
-8.36375e-06
0.000136071
-5.70739e-06
0.0001306
-4.36192e-06
0.000124497
-4.05822e-06
0.000118546
-4.44872e-06
0.000113119
-5.16138e-06
0.0001084
-5.88023e-06
0.000104444
-6.36132e-06
0.000101203
-6.45074e-06
9.85507e-05
-6.08713e-06
9.63324e-05
-5.29057e-06
9.44269e-05
-4.17422e-06
9.2707e-05
-2.92099e-06
9.10164e-05
-1.74049e-06
8.92321e-05
-7.82247e-07
8.73989e-05
-1.112e-07
8.57509e-05
2.39718e-07
8.44256e-05
2.90966e-07
8.34849e-05
1.39885e-07
8.30555e-05
8.31533e-05
1.55301e-07
0.000113682
-1.16581e-06
0.000115676
-3.17724e-06
0.00011966
-5.36521e-06
0.000124304
-7.74708e-06
0.00012927
-1.04924e-05
0.000134417
-1.34223e-05
0.000139031
-1.59477e-05
0.000142048
-1.71001e-05
0.000142251
-1.63848e-05
0.000139356
-1.44942e-05
0.000134631
-1.24747e-05
0.000129099
-1.08168e-05
0.000123403
-9.67443e-06
0.000117968
-8.99796e-06
0.000112969
-8.63977e-06
0.000108494
-8.41924e-06
0.000104589
-8.16987e-06
0.000101237
-7.766e-06
9.83623e-05
-7.13477e-06
9.58636e-05
-6.25535e-06
9.36769e-05
-5.18049e-06
9.17446e-05
-4.03095e-06
8.99637e-05
-2.95035e-06
8.8227e-05
-2.03426e-06
8.65408e-05
-1.2988e-06
8.50939e-05
-7.55075e-07
8.4009e-05
-4.09274e-07
8.33131e-05
-2.06914e-07
8.30718e-05
8.32392e-05
5.636e-07
0.000114104
-3.02033e-07
0.000117044
-1.72535e-06
0.000121407
-3.31619e-06
0.000126144
-5.36204e-06
0.000131297
-8.11341e-06
0.000136734
-1.16644e-05
0.000141747
-1.58152e-05
0.000145198
-1.9556e-05
0.000145261
-2.10408e-05
0.000140791
-2.02749e-05
0.00013417
-1.84786e-05
0.000127665
-1.64976e-05
0.000121836
-1.47045e-05
0.000116605
-1.32238e-05
0.000111897
-1.2032e-05
0.000107668
-1.10481e-05
0.000103908
-1.01694e-05
0.000100595
-9.30275e-06
9.76706e-05
-8.38032e-06
9.50619e-05
-7.35656e-06
9.2738e-05
-6.23365e-06
9.06911e-05
-5.07656e-06
8.88694e-05
-3.98405e-06
8.71852e-05
-3.02845e-06
8.56177e-05
-2.20503e-06
8.43125e-05
-1.50176e-06
8.33877e-05
-9.27553e-07
8.28642e-05
-4.56576e-07
8.27655e-05
8.30026e-05
7.52952e-07
0.000114068
2.36445e-07
0.000117913
-8.18023e-07
0.000122661
-2.17539e-06
0.000127397
-4.12875e-06
0.000132453
-6.59541e-06
0.000137576
-9.97809e-06
0.000142651
-1.4962e-05
0.000147007
-2.15225e-05
0.000148579
-2.62681e-05
0.000143653
-2.66048e-05
0.000134227
-2.43901e-05
0.000125782
-2.18195e-05
0.000119521
-1.93066e-05
0.000114412
-1.71032e-05
0.000110002
-1.52152e-05
0.000106059
-1.35957e-05
0.000102526
-1.21784e-05
9.9366e-05
-1.08937e-05
9.65222e-05
-9.6801e-06
9.39345e-05
-8.48094e-06
9.15864e-05
-7.26301e-06
8.95037e-05
-6.04185e-06
8.76781e-05
-4.87912e-06
8.60501e-05
-3.83635e-06
8.45872e-05
-2.90685e-06
8.33957e-05
-2.06476e-06
8.2587e-05
-1.30966e-06
8.21896e-05
-6.33637e-07
8.22058e-05
8.25264e-05
8.24237e-07
0.000113844
1.70655e-07
0.000118872
-1.33802e-06
0.000124135
-3.5176e-06
0.00012885
-5.81749e-06
0.000132986
-7.6023e-06
0.000136439
-9.36987e-06
0.000140208
-1.28861e-05
0.000144862
-1.96157e-05
0.000148352
-2.9924e-05
0.000147707
-3.32842e-05
0.000134901
-3.05768e-05
0.000122848
-2.68902e-05
0.000116101
-2.35234e-05
0.000111236
-2.0588e-05
0.000107282
-1.80785e-05
0.000103741
-1.59203e-05
0.000100531
-1.40481e-05
9.76234e-05
-1.24016e-05
9.49648e-05
-1.09176e-05
9.24969e-05
-9.53559e-06
9.021e-05
-8.20058e-06
8.81521e-05
-6.8913e-06
8.63539e-05
-5.63711e-06
8.47887e-05
-4.48987e-06
8.34266e-05
-3.44896e-06
8.23418e-05
-2.48529e-06
8.16333e-05
-1.58778e-06
8.13371e-05
-7.58731e-07
8.14545e-05
8.18778e-05
8.81457e-07
0.00011344
-1.28121e-06
0.000121263
-4.59289e-06
0.000127078
-9.21011e-06
0.000132135
-1.25027e-05
0.000134303
-1.37607e-05
0.000135124
-1.28274e-05
0.000135994
-1.18081e-05
0.000139318
-1.40589e-05
0.000144104
-2.64274e-05
0.000148896
-3.78012e-05
0.000138986
-3.62122e-05
0.000119161
-3.15323e-05
0.000111429
-2.72306e-05
0.000107028
-2.35755e-05
0.000103734
-2.05071e-05
0.000100774
-1.78928e-05
9.80006e-05
-1.56476e-05
9.5437e-05
-1.37039e-05
9.30478e-05
-1.19919e-05
9.07738e-05
-1.04425e-05
8.86151e-05
-8.98907e-06
8.6637e-05
-7.58963e-06
8.49006e-05
-6.2486e-06
8.34111e-05
-5.00398e-06
8.215e-05
-3.86109e-06
8.11703e-05
-2.79461e-06
8.05586e-05
-1.78827e-06
8.03563e-05
-8.49208e-07
8.05735e-05
8.11123e-05
2.35003e-06
0.000112213
-4.78499e-06
0.000127591
-1.11087e-05
0.00013215
-1.95051e-05
0.000138588
-2.4271e-05
0.000137882
-2.59129e-05
0.000136466
-2.3485e-05
0.000134245
-1.80665e-05
0.000134182
-1.37727e-05
0.000138208
-1.87969e-05
0.000147997
-3.39419e-05
0.000147061
-3.89868e-05
0.000118959
-3.51568e-05
0.000106441
-3.0127e-05
0.000102086
-2.5911e-05
9.95244e-05
-2.23932e-05
9.72631e-05
-1.94179e-05
9.50253e-05
-1.6886e-05
9.28932e-05
-1.47233e-05
9.08524e-05
-1.28418e-05
8.88328e-05
-1.11536e-05
8.68446e-05
-9.59002e-06
8.4984e-05
-8.10448e-06
8.33385e-05
-6.68793e-06
8.19404e-05
-5.36671e-06
8.07879e-05
-4.14988e-06
7.992e-05
-3.01449e-06
7.94092e-05
-1.93897e-06
7.92982e-05
-9.25241e-07
7.96095e-05
8.02608e-05
6.34517e-06
0.000105111
-1.11983e-05
0.000138327
-1.95078e-05
0.000135861
-3.21435e-05
0.000146106
-3.74976e-05
0.000141052
-3.88104e-05
0.000137581
-3.67665e-05
0.00013364
-3.05604e-05
0.000131198
-2.14721e-05
0.000132637
-1.2322e-05
0.000141878
-2.42943e-05
0.000149764
-3.85515e-05
0.000125931
-3.68909e-05
0.000102276
-3.19941e-05
9.68294e-05
-2.74593e-05
9.49414e-05
-2.36484e-05
9.33828e-05
-2.04218e-05
9.17285e-05
-1.76928e-05
9.00925e-05
-1.53973e-05
8.84759e-05
-1.34153e-05
8.67596e-05
-1.16262e-05
8.4957e-05
-9.96766e-06
8.32243e-05
-8.40326e-06
8.16837e-05
-6.92288e-06
8.0391e-05
-5.54748e-06
7.93599e-05
-4.28864e-06
7.86193e-05
-3.12406e-06
7.82231e-05
-2.02588e-06
7.82092e-05
-9.79362e-07
7.86078e-05
7.93578e-05
7.61206e-06
9.19428e-05
-1.74191e-05
0.000145897
-2.63993e-05
0.000133627
-4.26196e-05
0.000148688
-4.85732e-05
0.000139733
-4.94513e-05
0.000135105
-4.74173e-05
0.000130784
-4.23613e-05
0.000127356
-3.22984e-05
0.000126322
-1.74469e-05
0.000132131
-2.18227e-05
0.000148595
-3.48555e-05
0.000133709
-3.63803e-05
9.99816e-05
-3.26212e-05
9.20397e-05
-2.813e-05
9.03199e-05
-2.41964e-05
8.93283e-05
-2.08304e-05
8.82421e-05
-1.79962e-05
8.71427e-05
-1.56648e-05
8.60235e-05
-1.36619e-05
8.46348e-05
-1.18092e-05
8.29904e-05
-1.00661e-05
8.1372e-05
-8.4255e-06
7.99446e-05
-6.89132e-06
7.87771e-05
-5.48563e-06
7.7892e-05
-4.22183e-06
7.73071e-05
-3.07829e-06
7.70516e-05
-2.01536e-06
7.71492e-05
-9.91647e-07
7.76256e-05
7.84469e-05
-4.55113e-06
8.87206e-05
-1.26179e-05
0.000140756
-2.13502e-05
0.000132003
-3.92046e-05
0.00015158
-5.10154e-05
0.000139583
-5.56455e-05
0.000132378
-5.48566e-05
0.000126702
-5.0646e-05
0.000122546
-4.30376e-05
0.000120069
-2.94885e-05
0.000123379
-2.07592e-05
0.00014322
-2.90514e-05
0.000138355
-3.39433e-05
0.000101669
-3.18722e-05
8.8653e-05
-2.79066e-05
8.60396e-05
-2.40092e-05
8.52831e-05
-2.05968e-05
8.46751e-05
-1.7742e-05
8.41417e-05
-1.54893e-05
8.36179e-05
-1.35504e-05
8.25534e-05
-1.16608e-05
8.09803e-05
-9.82863e-06
7.94325e-05
-8.10249e-06
7.81222e-05
-6.51589e-06
7.71098e-05
-5.1008e-06
7.6412e-05
-3.87376e-06
7.60296e-05
-2.81254e-06
7.59598e-05
-1.85971e-06
7.6196e-05
-9.35384e-07
7.6743e-05
7.75996e-05
-1.34467e-05
9.49902e-05
-4.30241e-06
0.000127438
-7.73225e-06
0.000135087
-2.17356e-05
0.000160194
-4.17824e-05
0.00014945
-5.52299e-05
0.000136018
-5.86588e-05
0.000124685
-5.5999e-05
0.00011791
-4.99323e-05
0.000114301
-3.77393e-05
0.000114606
-2.12959e-05
0.000130871
-2.82092e-05
0.000137714
-3.26136e-05
0.000102857
-3.07956e-05
8.54123e-05
-2.70573e-05
8.18676e-05
-2.31656e-05
8.11968e-05
-1.97181e-05
8.10427e-05
-1.69089e-05
8.11635e-05
-1.48822e-05
8.14212e-05
-1.3089e-05
8.06178e-05
-1.11557e-05
7.89339e-05
-9.19678e-06
7.73805e-05
-7.35364e-06
7.61962e-05
-5.7019e-06
7.53868e-05
-4.29086e-06
7.4942e-05
-3.14316e-06
7.48356e-05
-2.23481e-06
7.50221e-05
-1.48676e-06
7.54462e-05
-7.70487e-07
7.60684e-05
7.69216e-05
-1.83816e-05
0.000114546
1.25177e-06
0.000114813
8.70283e-06
0.000132458
-2.26553e-06
0.000172316
-2.77195e-05
0.000168895
-4.94916e-05
0.000147941
-5.92545e-05
0.000127066
-5.93585e-05
0.000114724
-5.3898e-05
0.000108738
-4.3833e-05
0.000106532
-2.47929e-05
0.000115919
-2.76766e-05
0.000131787
-3.18782e-05
0.000102671
-2.94777e-05
8.14581e-05
-2.56157e-05
7.74903e-05
-2.16702e-05
7.70076e-05
-1.81558e-05
7.73147e-05
-1.54645e-05
7.82651e-05
-1.39276e-05
7.96861e-05
-1.23532e-05
7.89042e-05
-1.02825e-05
7.67799e-05
-8.10028e-06
7.51356e-05
-6.07705e-06
7.41163e-05
-4.32978e-06
7.35899e-05
-2.9255e-06
7.34959e-05
-1.89641e-06
7.37723e-05
-1.21884e-06
7.43203e-05
-7.92422e-07
7.50137e-05
-4.3664e-07
7.57412e-05
7.65576e-05
-1.36084e-05
0.000115879
8.50609e-06
0.000115531
2.68049e-05
0.000136985
1.14864e-05
0.000189137
-1.80415e-05
0.000193553
-4.2506e-05
0.00016412
-5.77802e-05
0.000133149
-6.08656e-05
0.000112925
-5.68636e-05
0.000103771
-4.92363e-05
0.000100766
-3.19e-05
0.000104404
-2.57651e-05