/*--------------------------------*- C++ -*----------------------------------*\
| =========                 |                                                 |
| \\      /  F ield         | OpenFOAM: The Open Source CFD Toolbox           |
|  \\    /   O peration     | Version:  v1606+                                |
|   \\  /    A nd           | Web:      www.OpenFOAM.com                      |
|    \\/     M anipulation  |                                                 |
\*---------------------------------------------------------------------------*/
FoamFile
{
    version     2.0;
    format      ascii;
    class       volScalarField;
    location    "1.1";
    object      Theta.particles;
}
// * * * * * * * * * * * * * * * * * * * * * * * * * * * * * * * * * * * * * //

dimensions      [0 2 -2 0 0 0 0];

internalField   nonuniform List<scalar> 
6000
(
0.000773298
0.000611675
0.000664508
0.000701318
0.000589727
0.000433085
0.000361477
0.000407963
0.000392147
0.00039725
0.000388018
0.000368289
0.000347985
0.000329203
0.000308403
0.000297083
0.000293895
0.000301324
0.000323082
0.000358311
0.000382667
0.000386583
0.000376607
0.000471079
0.000589422
0.000649984
0.000618842
0.000550474
0.000529933
0.000656183
0.000269565
0.000245441
0.000249012
0.000263568
0.000261984
0.000240845
0.000212628
0.000206474
0.000201641
0.000208615
0.000214159
0.000219528
0.00022266
0.000221881
0.000218985
0.000214727
0.000209125
0.000203361
0.000200399
0.000200352
0.000202139
0.000207487
0.000218344
0.000245116
0.000253224
0.000251998
0.000239311
0.000236898
0.0002397
0.00026648
0.000346387
0.000307251
0.000331468
0.00037251
0.000435923
0.00037417
0.000257018
0.000236713
0.000272606
0.000296362
0.000326156
0.000380742
0.000463385
0.000552847
0.000596313
0.000593712
0.000538516
0.000456196
0.000399286
0.000362432
0.000324291
0.000290194
0.000324083
0.000409199
0.000424348
0.000373952
0.000326548
0.000286614
0.000274338
0.000319921
0.000238885
0.000222564
0.000249223
0.000279151
0.000322565
0.000299606
0.000218145
0.00022891
0.000268216
0.000330863
0.000408162
0.000505517
0.000579963
0.000590794
0.000566626
0.000539856
0.000515311
0.000488124
0.00044419
0.000378728
0.000333873
0.000295676
0.000297135
0.000333316
0.000332879
0.000293693
0.000252555
0.000215206
0.000195951
0.000217498
0.000184459
0.000179782
0.000212042
0.000260248
0.000298096
0.000294158
0.000240068
0.000312218
0.000401164
0.000495209
0.00056745
0.000578376
0.00052062
0.000459546
0.000436346
0.00041861
0.000416775
0.000436002
0.000471341
0.000482745
0.000439363
0.000393563
0.000369961
0.00037048
0.00032416
0.000267429
0.000213892
0.00017307
0.000156399
0.000166693
0.000142244
0.000145402
0.000175698
0.000232601
0.000300884
0.000328671
0.000337979
0.000437917
0.000444949
0.000458498
0.000435764
0.000391747
0.00034587
0.000303417
0.000267075
0.000248614
0.000250146
0.000275097
0.000310634
0.000347183
0.000381697
0.000425049
0.000425653
0.000387572
0.000307797
0.000227486
0.000166733
0.00013554
0.000126598
0.000126724
0.000117405
0.000119819
0.000137287
0.000186561
0.000268766
0.000355416
0.000448388
0.000441211
0.000380401
0.000380923
0.000388872
0.000342197
0.000299876
0.000255041
0.000184155
0.000167411
0.000173631
0.000204972
0.00025916
0.000309166
0.000356739
0.000419931
0.000428998
0.000364174
0.000263963
0.000170219
0.000125038
0.00011038
0.000109494
0.000104273
0.000100374
0.000104528
0.000107391
0.000136755
0.000203866
0.000310656
0.000426062
0.000427018
0.000413898
0.000406243
0.000369485
0.000320719
0.000264893
0.000177759
0.000142568
0.000130949
0.000140202
0.000172177
0.000239435
0.000315859
0.000366574
0.000428326
0.000418873
0.000308439
0.00019832
0.000124011
9.58742e-05
9.43241e-05
9.6245e-05
8.71725e-05
8.92896e-05
9.22531e-05
9.15662e-05
0.000103461
0.000139607
0.000210999
0.000345305
0.000465434
0.000448018
0.000428637
0.000386417
0.000308785
0.000186637
0.000136537
0.000112986
0.000110525
0.000117635
0.000142109
0.000206146
0.000321086
0.000398591
0.000459155
0.000415611
0.000268122
0.000152549
9.43887e-05
7.99362e-05
8.37244e-05
8.37013e-05
7.95391e-05
8.31221e-05
8.45464e-05
8.73115e-05
9.01529e-05
0.000101404
0.000137816
0.000300567
0.000473348
0.000469125
0.000447986
0.000401106
0.000227284
0.000141993
0.000113168
9.97792e-05
0.000100889
0.00010369
0.000117595
0.000166977
0.00029257
0.000417252
0.000480387
0.00041826
0.000239274
0.000122793
8.14462e-05
7.43198e-05
7.67601e-05
7.54856e-05
7.33777e-05
7.70377e-05
7.8005e-05
8.1827e-05
8.58501e-05
8.84968e-05
0.000103326
0.000266235
0.000463325
0.000468213
0.000453889
0.000361607
0.000179215
0.000108043
0.000102228
9.20166e-05
9.17827e-05
9.13548e-05
9.74343e-05
0.000129967
0.000238028
0.000403071
0.000472955
0.000405036
0.000213205
0.000104254
7.77444e-05
7.0378e-05
7.10621e-05
6.93952e-05
6.81713e-05
7.12179e-05
7.11986e-05
7.48849e-05
8.13588e-05
8.46453e-05
9.59293e-05
0.000236871
0.000402871
0.000441237
0.000436277
0.000323243
0.000154998
8.55932e-05
8.9366e-05
8.25975e-05
8.23141e-05
8.414e-05
8.81918e-05
0.000105015
0.000187617
0.000358473
0.000432937
0.000371326
0.00018732
9.45132e-05
7.82217e-05
6.72232e-05
6.51944e-05
6.4055e-05
6.37966e-05
6.69409e-05
6.89519e-05
7.65295e-05
9.11592e-05
0.000101906
0.000108641
0.000227669
0.000353151
0.000377732
0.000383877
0.000317531
0.000183345
9.7922e-05
8.62715e-05
8.17934e-05
8.89809e-05
0.000104406
0.000108237
0.000109148
0.000161318
0.000302392
0.000387237
0.000327859
0.000179076
9.88416e-05
8.78573e-05
7.38379e-05
6.5146e-05
6.15284e-05
6.07992e-05
8.15435e-05
7.9576e-05
9.25105e-05
0.000123568
0.000165083
0.000169899
0.000230185
0.000319412
0.000360209
0.00037119
0.000359831
0.000303877
0.000156565
0.000114192
0.000100839
0.00013516
0.000227547
0.000275706
0.000224829
0.000252246
0.000309993
0.000372399
0.000295152
0.000193658
0.000131368
0.00012619
0.000106881
7.57292e-05
6.29351e-05
5.87018e-05
0.000194659
0.000107368
0.000125025
0.000248212
0.000806706
0.000685452
0.000439047
0.000451051
0.000487644
0.000494381
0.000621074
0.000642791
0.000433817
0.000183343
0.000121274
0.000292677
0.00074513
0.000910183
0.00100252
0.00104243
0.000826788
0.000617934
0.000456304
0.000357065
0.000421389
0.000839863
0.000788657
9.96279e-05
6.04116e-05
5.2795e-05
0.000301576
0.000161518
0.000331269
0.000605908
0.000873321
0.00131022
0.00164756
0.00128255
0.00110513
0.00106008
0.00121051
0.000933032
0.000529711
0.000247511
0.000117001
0.000296892
0.000374958
0.000464986
0.00066279
0.000959275
0.00149602
0.00149507
0.00134007
0.0012775
0.00124105
0.000995031
0.000801853
0.000668535
6.75618e-05
7.96534e-05
0.000201351
0.000288996
0.000380388
0.000390105
0.000470849
0.000577405
0.000998083
0.00112639
0.00103444
0.00100672
0.00103836
0.000815807
0.000422032
0.000262631
0.000202869
0.000168168
0.000223627
0.000299625
0.000346365
0.000421796
0.000643018
0.000882958
0.000908963
0.000773494
0.000542257
0.000399231
0.00029272
0.000333214
0.000383377
0.000179837
0.000168086
0.000165576
0.000193096
0.000297889
0.000346391
0.000360915
0.000413056
0.000579034
0.000736465
0.000785713
0.000768635
0.0006695
0.000385917
0.000190795
0.000213822
0.000150052
0.000163344
0.000230512
0.000268585
0.000300612
0.000341974
0.000383461
0.000390143
0.000363338
0.000330392
0.000281096
0.000205215
0.000130221
0.000140253
0.000196167
0.000109425
0.000101256
0.000182727
0.000261028
0.000283703
0.000291095
0.000323844
0.000417437
0.000594147
0.000690489
0.000679739
0.000618962
0.000360732
0.000165128
0.000171547
0.000148922
0.000142299
0.000171727
0.000217381
0.000245645
0.000277747
0.00030693
0.00032569
0.000314391
0.000283252
0.000223788
0.0001521
0.000117372
8.72549e-05
9.38674e-05
6.40878e-05
0.000101409
0.000166926
0.000225671
0.000232223
0.00022723
0.00026259
0.000372564
0.000500832
0.000642952
0.000663831
0.000562988
0.00031776
0.000157041
0.000121596
0.000129651
0.000133672
0.000158642
0.000171284
0.000187362
0.00022775
0.000256093
0.00027778
0.000268057
0.000230444
0.000169637
0.000137344
0.000114099
9.46695e-05
8.57906e-05
7.54651e-05
0.000112502
0.000150995
0.000178311
0.000188853
0.000184567
0.000208465
0.000304702
0.000461786
0.000553935
0.000563182
0.000474093
0.000276799
0.000139531
0.000101328
0.000102364
0.000123305
0.000147876
0.000158787
0.000168222
0.000180133
0.000198171
0.000213316
0.000209137
0.000187308
0.000159267
0.000138182
0.000123673
0.000107671
9.49293e-05
0.000105825
0.000123228
0.000177027
0.000187969
0.000173807
0.00015614
0.000154249
0.000226424
0.000404701
0.000515891
0.000493698
0.000386772
0.000217953
0.000129811
0.000104659
0.000107397
0.000132375
0.000154652
0.000166224
0.000173973
0.000182691
0.000194216
0.000204917
0.000202653
0.000187954
0.000172166
0.000158257
0.000144114
0.000137064
0.000129264
0.000152333
0.00016598
0.000189051
0.000213922
0.00019637
0.000175284
0.000169741
0.000194967
0.000313831
0.000446722
0.000431552
0.000297404
0.000178614
0.000176011
0.000166296
0.000134644
0.000149366
0.000169901
0.000184282
0.000195476
0.000207097
0.000218331
0.000227868
0.000228417
0.00021905
0.000205177
0.000198789
0.000185992
0.000173725
0.0001683
0.00020427
0.000213261
0.000233481
0.000241303
0.000225881
0.000209104
0.000201952
0.000224464
0.00028774
0.000341165
0.000337086
0.00030574
0.00025468
0.000199939
0.000192042
0.000185834
0.000196276
0.000210879
0.000222114
0.000230866
0.000239039
0.000247256
0.000256078
0.000260521
0.00025512
0.000240645
0.000223833
0.000209759
0.000200272
0.00019718
0.000250025
0.000252094
0.000266995
0.000283859
0.000288403
0.000279243
0.00026975
0.000276887
0.000338671
0.000386542
0.00039746
0.000326557
0.000264607
0.000253502
0.000238969
0.000229497
0.00023137
0.000239339
0.000248702
0.000257956
0.000266772
0.000274288
0.000278605
0.00027568
0.000264488
0.000249526
0.000235798
0.000225072
0.000218503
0.000217188
0.000284877
0.000282693
0.000291821
0.000306131
0.000319115
0.000328661
0.000342057
0.000364154
0.000390399
0.000404361
0.000394755
0.000360407
0.000322307
0.000292679
0.000272362
0.000259584
0.000255246
0.000256767
0.000261135
0.00026631
0.000271449
0.000275219
0.000276069
0.000272204
0.000263832
0.000253372
0.000243504
0.000235775
0.000231428
0.000231192
0.000311188
0.000307066
0.000312725
0.000324218
0.000337434
0.000351749
0.00037024
0.000397596
0.000431876
0.000448724
0.000431192
0.00038797
0.000346362
0.000316371
0.000294886
0.000280536
0.00027268
0.000269807
0.000269897
0.00027137
0.000273044
0.000273823
0.000272812
0.000269125
0.000262984
0.000255743
0.000248828
0.000243384
0.000240585
0.000240889
0.000331307
0.000326919
0.000330629
0.000339942
0.000351597
0.000365052
0.000380799
0.000399014
0.000416919
0.000424724
0.000409947
0.00038155
0.00035248
0.000327991
0.000308545
0.000294293
0.000284823
0.000279263
0.000276395
0.000275186
0.000274262
0.000273232
0.00027116
0.000267524
0.000262607
0.000257332
0.000252463
0.000248698
0.000246943
0.000247445
0.000347083
0.000342893
0.000344927
0.000352347
0.000362437
0.000374316
0.000387085
0.000398994
0.000406652
0.000405477
0.000393526
0.000373735
0.000352334
0.000332552
0.000315688
0.000302303
0.000292352
0.000285394
0.000280692
0.000277429
0.000274973
0.000272695
0.000270008
0.000266509
0.000262378
0.000258325
0.000254829
0.000252249
0.000251176
0.000251643
0.000358106
0.000354393
0.000355267
0.000361511
0.000370623
0.000381474
0.00039262
0.000401639
0.000404918
0.000398522
0.000385224
0.000368093
0.000350113
0.00033316
0.000318342
0.000305976
0.000296138
0.00028861
0.000282927
0.000278469
0.00027502
0.000271982
0.00026898
0.000265659
0.000262077
0.000258799
0.000256191
0.000254414
0.000253769
0.000254187
0.000363644
0.000360912
0.000362202
0.000368015
0.000375961
0.000385305
0.000395419
0.000404536
0.000407501
0.000398984
0.000382157
0.000363843
0.000346765
0.000331364
0.000317829
0.000306368
0.000296942
0.00028937
0.00028332
0.0002784
0.000274334
0.000270892
0.000267781
0.000264677
0.000261525
0.000258762
0.000256715
0.000255456
0.00025507
0.000255479
0.000365541
0.000364311
0.000366619
0.000371002
0.000375509
0.000380366
0.000387406
0.000396883
0.000406058
0.000402531
0.000382494
0.000360224
0.000341999
0.000327263
0.000314775
0.000304158
0.00029532
0.000288061
0.000282087
0.000277072
0.000272812
0.000269222
0.000266133
0.000263262
0.000260476
0.000258092
0.000256419
0.00025551
0.000255309
0.000255595
0.000365958
0.000366832
0.000368845
0.000369048
0.000364861
0.000359061
0.000356542
0.000361383
0.000372662
0.000396705
0.00038336
0.000355885
0.000335311
0.000320528
0.00030912
0.000299584
0.000291563
0.000284899
0.000279311
0.000274503
0.00027032
0.000266788
0.000263855
0.000261273
0.000258866
0.000256845
0.000255482
0.000254821
0.00025475
0.000254983
0.000367079
0.000373125
0.000372812
0.000366977
0.000352206
0.000335526
0.0003207
0.000315531
0.00032251
0.000337443
0.000378673
0.000346389
0.000325493
0.00031087
0.000300842
0.000292746
0.000285861
0.000280059
0.000275123
0.000270797
0.000266977
0.000263742
0.000261112
0.000258906
0.000256923
0.00025528
0.0002542
0.000253739
0.000253777
0.000254045
0.000370071
0.000392668
0.000385391
0.000377565
0.000359043
0.000339628
0.000318948
0.000299601
0.000290774
0.000303053
0.000355066
0.000327125
0.000310959
0.000298784
0.000290232
0.00028392
0.000278496
0.000273851
0.000269851
0.000266263
0.000263031
0.000260268
0.000258048
0.000256271
0.00025475
0.000253517
0.000252739
0.000252467
0.000252592
0.000252837
0.000358298
0.000420807
0.000397265
0.000392786
0.000372386
0.00035188
0.000332261
0.000311162
0.000296273
0.000308202
0.000303029
0.000320654
0.000295024
0.00028478
0.000278102
0.00027375
0.000269931
0.000266627
0.000263787
0.000261135
0.000258594
0.000256362
0.000254613
0.000253309
0.000252292
0.000251531
0.000251119
0.00025108
0.000251307
0.000251557
0.000305265
0.00037514
0.000349792
0.000349288
0.000352481
0.000342802
0.00032964
0.000314724
0.000298656
0.000300527
0.000283406
0.000323357
0.000274921
0.00026851
0.000265089
0.000262648
0.00026054
0.000258697
0.000257171
0.000255544
0.000253704
0.000252036
0.000250816
0.000250055
0.00024962
0.000249427
0.000249478
0.000249742
0.000250092
0.000250341
0.000236995
0.000371282
0.000313069
0.000315202
0.000300902
0.000312192
0.000312789
0.000304663
0.000293848
0.000291824
0.000313215
0.000314687
0.000264883
0.000254796
0.000252342
0.000251362
0.00025071
0.000250365
0.000250324
0.000249761
0.000248505
0.000247337
0.000246692
0.000246566
0.000246825
0.00024733
0.00024798
0.000248655
0.000249173
0.000249413
0.000226264
0.000293113
0.000338491
0.000341167
0.000286902
0.000278849
0.00028952
0.000289014
0.000282643
0.000280658
0.00030363
0.000289048
0.000264757
0.000244649
0.000240256
0.000240081
0.000240634
0.000241876
0.000243633
0.000244084
0.000243097
0.000242278
0.000242233
0.000242873
0.000243991
0.000245377
0.000246813
0.000248052
0.000248823
0.000249082
0.000403933
0.000287265
0.000324045
0.000399342
0.000335852
0.000271174
0.000269177
0.000272447
0.000269266
0.000265047
0.000275032
0.000262273
0.000259265
0.000234477
0.000228352
0.000228624
0.000230281
0.000233419
0.000237662
0.00023882
0.000237484
0.000236748
0.000237388
0.00023899
0.0002412
0.000243717
0.00024619
0.000248205
0.000249395
0.000249719
0.000289718
0.000608981
0.000634046
0.000466697
0.00042862
0.000310735
0.000253217
0.000254606
0.000255742
0.000255737
0.000264872
0.000253077
0.000242588
0.000222381
0.000215981
0.000216848
0.000219528
0.000225363
0.000233696
0.000234163
0.000231393
0.000230477
0.00023204
0.00023492
0.000238548
0.000242529
0.000246373
0.000249479
0.000251361
0.000252011
0.000249091
0.00036568
0.000759212
0.000636035
0.000525552
0.000364125
0.000253888
0.000235884
0.000241975
0.000248914
0.000257108
0.00025598
0.00022752
0.000210288
0.000203976
0.000204931
0.000208293
0.000217954
0.000234376
0.000229641
0.000224049
0.000223037
0.000226064
0.000230703
0.000236182
0.000242081
0.000247778
0.000252427
0.00025535
0.00025646
0.000294539
0.000322002
0.000597252
0.000681312
0.000595399
0.000406823
0.000271794
0.000223532
0.000227844
0.000236907
0.000244632
0.000246934
0.000219775
0.00020138
0.0001937
0.000193251
0.000196805
0.000210596
0.000240027
0.000223147
0.000214063
0.000214211
0.000219488
0.000226488
0.000234366
0.000242823
0.000251095
0.000257945
0.000262268
0.000263846
0.000289493
0.000304848
0.000525981
0.000721998
0.000656897
0.000436931
0.000287199
0.000221914
0.000218095
0.000223142
0.000230442
0.000231935
0.00021341
0.000193623
0.000184785
0.000182078
0.000185649
0.000204774
0.00024057
0.000213797
0.000201496
0.000204421
0.00021265
0.000222566
0.000233511
0.000245473
0.000257408
0.00026747
0.000273586
0.00027496
0.00031391
0.000316175
0.000399948
0.000765494
0.000758543
0.000469046
0.000298159
0.000226945
0.000215378
0.000213268
0.000217981
0.000218636
0.000204171
0.000185576
0.000175754
0.000171219
0.00017646
0.00021233
0.000230324
0.000198391
0.00018837
0.000194618
0.000206053
0.000219244
0.000234085
0.000250936
0.000268283
0.000283412
0.000291369
0.000288635
0.000292267
0.000349136
0.0003233
0.000755682
0.000910582
0.000515498
0.00029908
0.000226794
0.000214667
0.00020811
0.000207583
0.000205228
0.000193333
0.000177533
0.000165724
0.000159678
0.000166255
0.000225144
0.000216987
0.000181798
0.000176173
0.000185559
0.000199969
0.000216553
0.00023618
0.000260214
0.000287037
0.000309873
0.000315927
0.000299215
0.000401102
0.000323181
0.000316394
0.000734439
0.00100977
0.000538958
0.000292025
0.000214121
0.000207885
0.000203264
0.000197274
0.000190915
0.000182028
0.000168864
0.000156331
0.000149204
0.000155321
0.00023523
0.000202909
0.000166485
0.000165368
0.000177543
0.000194138
0.000213792
0.000239769
0.000276015
0.000316997
0.000347771
0.000342791
0.000293422
0.000487426
0.000307596
0.000315557
0.000660265
0.000985254
0.00052677
0.00027836
0.000190482
0.000191465
0.000192575
0.000185783
0.00017707
0.000170538
0.000160222
0.000148534
0.000142335
0.000152543
0.000238715
0.000185156
0.000155088
0.000157821
0.000170639
0.000187745
0.00020966
0.000243527
0.000290574
0.000348989
0.000629882
0.000490795
0.000262489
0.000403516
0.000286427
0.000288202
0.000560508
0.000909212
0.0005755
0.00030973
0.000186292
0.000170111
0.000179364
0.000173437
0.000163149
0.000159568
0.000152391
0.000142713
0.000139064
0.000151593
0.000203527
0.000173978
0.000151953
0.000153091
0.000163019
0.000178808
0.000201739
0.00023679
0.000286641
0.000367447
0.000715468
0.00171924
0.00123926
0.000339974
0.00022463
0.000248877
0.000465145
0.000773852
0.000635369
0.000427358
0.0002533
0.000247958
0.000188654
0.000164153
0.000149547
0.000151809
0.000145353
0.000137448
0.000136681
0.000145647
0.000174612
0.00016429
0.000145215
0.000144057
0.000151762
0.000164963
0.000185825
0.00020898
0.000194795
0.000340985
0.000636714
0.00165117
0.0032904
0.000389557
0.000211301
0.000240989
0.000412837
0.000634858
0.000677988
0.000512366
0.000845874
0.00254523
0.00331884
0.000289804
0.000223652
0.000158361
0.000134098
0.000129238
0.000126849
0.000135298
0.000160889
0.00014865
0.000133002
0.000131171
0.000136734
0.000147688
0.000163733
0.000156126
0.000176604
0.000244231
0.000704145
0.00228887
0.0019195
0.000472522
0.000327391
0.000318286
0.000506441
0.00057614
0.000680266
0.000755007
0.00387759
0.0207423
0.014645
0.0108084
0.00228238
0.000227024
0.000119108
0.000113303
0.000107514
0.000116552
0.00013704
0.000127948
0.000118341
0.000116754
0.000120881
0.00012981
0.000136028
0.0001155
0.000185026
0.000460646
0.00144628
0.00277166
0.00194864
0.000602366
0.000700963
0.000744924
0.00117513
0.000812463
0.00128144
0.00511313
0.0378227
0.0255118
0.0024622
0.00291399
0.00799765
0.000653824
0.000116115
8.98998e-05
8.59779e-05
9.57846e-05
0.000105317
0.000103484
0.000101088
0.000102326
0.000107158
0.000114991
0.000116126
0.000132109
0.000367838
0.00201859
0.00300182
0.00260259
0.00234726
0.00196305
0.00297324
0.00326051
0.00488059
0.00395603
0.0100474
0.0352496
0.0338469
0.00542128
0.00121072
0.000582689
0.00115918
0.00114204
0.000129965
6.58073e-05
6.53756e-05
7.43949e-05
7.99887e-05
8.24023e-05
8.51994e-05
8.90121e-05
9.46822e-05
0.000102085
9.20621e-05
0.000186424
0.00113628
0.00734288
0.00430646
0.00252987
0.00329807
0.0104285
0.0136821
0.0141155
0.0164096
0.0186177
0.0274257
0.0239123
0.00764185
0.00247989
0.00109146
0.000527592
0.000756669
0.00082127
0.000114787
4.257e-05
4.62866e-05
5.50988e-05
5.91496e-05
6.49966e-05
7.15229e-05
7.67875e-05
8.13432e-05
8.22482e-05
9.27586e-05
0.00029844
0.00198052
0.0126678
0.00588707
0.00359113
0.00527491
0.0243139
0.0220371
0.0191132
0.014707
0.0144632
0.00997817
0.00542725
0.00358568
0.00215896
0.000978321
0.000515462
0.000712405
0.000447218
7.25896e-05
2.70317e-05
2.96734e-05
3.79986e-05
4.29455e-05
5.19478e-05
6.08734e-05
6.72148e-05
7.04579e-05
7.01637e-05
0.000166343
0.000672218
0.00364273
0.0146031
0.00691515
0.00406456
0.00826329
0.0262991
0.0220931
0.0176711
0.0127476
0.00845327
0.00516546
0.00356963
0.00306633
0.00203724
0.000873914
0.000518996
0.000804534
0.000171242
5.835e-05
2.55272e-05
2.63461e-05
2.51198e-05
3.21824e-05
4.46562e-05
5.4132e-05
5.94092e-05
5.95945e-05
8.07415e-05
0.000361092
0.00166974
0.00786963
0.0125734
0.00655635
0.00499312
0.0113265
0.0260317
0.0222248
0.0176837
0.0125111
0.0077397
0.00457676
0.00320951
0.00272665
0.00185596
0.000776031
0.000511654
0.001748
0.00015074
4.53118e-05
5.71948e-05
9.61225e-05
2.54673e-05
3.08511e-05
4.34826e-05
5.20257e-05
5.34357e-05
5.22727e-05
0.000187616
0.000929165
0.00431479
0.011577
0.00997961
0.0060386
0.00668271
0.0127878
0.0255142
0.0223988
0.0179425
0.0124821
0.00745013
0.00429477
0.00294603
0.00252462
0.00159407
0.00066198
0.000518499
0.003873
0.000906513
0.000161128
0.00066658
0.000188487
4.78624e-05
4.66955e-05
5.01132e-05
5.22855e-05
4.72303e-05
6.76978e-05
0.000453435
0.00228561
0.00943292
0.0120133
0.00812242
0.00580449
0.00717073
0.012324
0.0250604
0.022601
0.0182074
0.0125363
0.00735334
0.0041735
0.00279247
0.00229505
0.00132958
0.000540836
0.00023945
0.00122791
0.00704276
0.00175395
0.00109016
0.000182574
6.63658e-05
6.08509e-05
5.87076e-05
5.3408e-05
4.2817e-05
0.000191282
0.00111635
0.00526364
0.0131554
0.00999963
0.00628461
0.00507278
0.00671857
0.0112986
0.0247118
0.0227171
0.0184086
0.0126565
0.00734996
0.00412055
0.00266101
0.00207615
0.00112187
0.000433472
0.000199803
0.000117869
0.000676478
0.00353559
0.000982994
0.000208868
7.27065e-05
6.80053e-05
6.3106e-05
5.18793e-05
5.88983e-05
0.000430828
0.00247863
0.0102459
0.0126507
0.00736237
0.00461675
0.00426541
0.00587501
0.0100321
0.0243892
0.0227136
0.0185354
0.0128221
0.00739721
0.00408958
0.00250568
0.00183497
0.000910569
0.000343437
0.000152205
8.55595e-05
8.82256e-05
0.00023166
0.000237211
0.000153852
6.18421e-05
6.57648e-05
6.08259e-05
4.99734e-05
0.000168861
0.00100638
0.005224
0.0136492
0.00902594
0.0049112
0.00377411
0.00405443
0.00556486
0.00950589
0.0240148
0.0225839
0.0185757
0.0129788
0.00746875
0.00402482
0.00232671
0.00159317
0.000723601
0.000282152
0.000129855
7.09059e-05
7.91454e-05
0.000163453
0.000159362
8.3056e-05
5.97464e-05
6.16432e-05
5.74297e-05
6.02971e-05
0.000379982
0.00230519
0.00904885
0.00973506
0.00508642
0.00370924
0.0038219
0.00467671
0.00597769
0.0100013
0.0235608
0.0223076
0.0184299
0.0130241
0.00749421
0.0038971
0.00213727
0.00135633
0.000607504
0.000255226
0.000116308
6.45586e-05
8.16558e-05
0.00016654
0.000111811
5.77859e-05
6.17946e-05
5.99984e-05
5.39535e-05
0.000148834
0.00109629
0.00479521
0.00818217
0.00439025
0.00351797
0.00375406
0.00483228
0.00589153
0.00712731
0.0116543
0.0230191
0.0218904
0.0181493
0.0130258
0.00746238
0.00367119
0.00193836
0.00115381
0.000553604
0.000245581
0.000112462
6.41916e-05
0.000101782
0.000146968
7.32933e-05
5.3126e-05
5.93863e-05
5.8662e-05
6.53401e-05
0.000577366
0.00322155
0.0064035
0.00377481
0.0032318
0.00364391
0.00461298
0.00560577
0.00633596
0.00811433
0.0139553
0.0224153
0.0214006
0.0179193
0.0129557
0.00717087
0.00330482
0.0017222
0.00103021
0.000531891
0.000244532
0.000112739
6.79946e-05
0.000133004
0.000122452
4.86213e-05
5.24287e-05
5.89755e-05
6.00278e-05
0.000215682
0.00166271
0.00526555
0.00420574
0.00319881
0.00357076
0.00426771
0.00504476
0.00576555
0.0062355
0.00850004
0.0167478
0.0218395
0.0210447
0.0178562
0.0126674
0.00644514
0.00283063
0.00151687
0.000960693
0.000526495
0.000257496
0.000123621
7.89292e-05
0.000163059
0.00010498
4.37578e-05
5.46862e-05
6.43693e-05
8.97588e-05
0.00096651
0.00356731
0.00600416
0.00367454
0.00338812
0.0038427
0.00444499
0.00506521
0.00527826
0.00526031
0.00867829
0.0194814
0.0214534
0.0209647
0.0178636
0.0117988
0.00522011
0.00231045
0.00134632
0.000916206
0.000533561
0.000290312
0.000150849
9.89418e-05
0.000232483
0.000100984
4.3979e-05
5.53212e-05
7.44249e-05
0.000269066
0.00142209
0.00417234
0.00545334
0.00369119
0.00346061
0.00381741
0.00418646
0.00422588
0.00388495
0.00484429
0.00946051
0.0218731
0.021428
0.021209
0.0175531
0.00976019
0.00372402
0.001811
0.00120725
0.000888489
0.000566729
0.000339878
0.000195765
0.000127578
0.000395387
0.000148913
5.02017e-05
5.96934e-05
0.000104584
0.000688691
0.00149214
0.00400146
0.00528024
0.00386949
0.0032552
0.0030697
0.00296832
0.00282511
0.00298934
0.00499025
0.0115109
0.0245471
0.0219536
0.0214864
0.0158361
0.00639552
0.00232912
0.00139782
0.00109264
0.00086555
0.000610047
0.000402772
0.000256382
0.000170696
0.000519067
0.000467608
8.87657e-05
7.16609e-05
0.000175387
0.000973112
0.0013408
0.00265933
0.00445084
0.00399064
0.00313913
0.00267665
0.00243511
0.00236233
0.00275954
0.00526655
0.013101
0.0271958
0.022982
0.0208115
0.0113125
0.0031702
0.00146418
0.00112109
0.00100043
0.000846235
0.000651917
0.000467827
0.000328794
0.000230428
0.000299477
0.00204641
0.000366135
0.000122797
0.000441616
0.00123083
0.00131812
0.00213063
0.0034551
0.00394992
0.00341447
0.00277104
0.00241879
0.00231624
0.0027188
0.00526865
0.0134719
0.0283165
0.0234328
0.0169987
0.00527865
0.00172302
0.00108713
0.00097389
0.000922167
0.000824747
0.000686198
0.000534295
0.00040169
0.000300137
0.000218472
0.00119635
0.0017384
0.000551436
0.00137427
0.0012518
0.00128966
0.00166271
0.00232069
0.00344384
0.00355553
0.00318065
0.00276927
0.00248785
0.0027558
0.00506228
0.0132939
0.028402
0.0208643
0.00944211
0.00243945
0.00117507
0.000918174
0.000875196
0.000849173
0.000793658
0.000696025
0.000588048
0.000447601
0.000328188
0.000239404
0.000203983
0.000686447
0.00108135
0.00100809
0.000979974
0.00124759
0.00147219
0.00179201
0.00245145
0.00328218
0.0032637
0.00303889
0.00281484
0.00288545
0.00471692
0.0124848
0.0276348
0.0140907
0.00382237
0.00147564
0.000979996
0.000851269
0.000817352
0.000792769
0.000753304
0.000692518
0.00060654
0.000465765
0.000338099
0.000245063
0.000182387
0.000195056
0.000331166
0.000503083
0.00094407
0.00118515
0.00136415
0.00158192
0.00189907
0.0025458
0.00307261
0.00306987
0.00295033
0.00300482
0.00439353
0.011387
0.0261135
0.00678253
0.00210711
0.00116189
0.000918483
0.000834853
0.000803033
0.000776794
0.000735863
0.000689396
0.000612585
0.000469378
0.000337788
0.000224061
0.00017031
0.000177312
0.000246958
0.000516455
0.000995956
0.0011159
0.00124326
0.00147084
0.00168215
0.00204353
0.00263481
0.00295225
0.00297262
0.00306331
0.00424578
0.0103624
0.0241807
0.00394221
0.00156002
0.00104716
0.000906801
0.000837282
0.00080573
0.00077997
0.000738356
0.000694424
0.000614711
0.000460281
0.00031515
0.000190503
0.000147289
0.000157602
0.000244412
0.000690271
0.00101523
0.000960168
0.00113568
0.00132742
0.00154709
0.00181619
0.00221919
0.00267457
0.00291128
0.00308418
0.00420944
0.00957359
0.0220204
0.0032835
0.00135526
0.00100098
0.000907255
0.00084122
0.000807897
0.000783857
0.000740245
0.000693687
0.000594938
0.000422226
0.000278017
0.000172311
0.000132205
0.000139178
0.000267436
0.000814092
0.000969249
0.000832012
0.000999719
0.00116248
0.00138846
0.00166474
0.00196207
0.0023633
0.00272996
0.00307552
0.00425455
0.00905687
0.0197769
0.00321859
0.00127096
0.000975851
0.000891475
0.000824959
0.000782818
0.000754811
0.000708411
0.000651784
0.000529181
0.000363168
0.000240763
0.00015205
0.000116219
0.000126611
0.000327688
0.000938192
0.000892205
0.000756158
0.000882781
0.00103178
0.00124772
0.00152539
0.0018535
0.00224678
0.00262609
0.0030685
0.00439138
0.00877403
0.0176376
0.00348308
0.00124708
0.000929046
0.000839657
0.000766701
0.000714118
0.000683769
0.000643776
0.000576936
0.000449369
0.00031367
0.000211412
0.000135681
0.000104734
0.000119211
0.000399752
0.000995831
0.000816038
0.000700853
0.000813253
0.00094342
0.00116287
0.00144727
0.00180776
0.00222438
0.00260983
0.00309582
0.00451492
0.00861338
0.0158484
0.00424302
0.00125377
0.000870689
0.000768526
0.000680338
0.000636489
0.000611641
0.000579891
0.000509868
0.000395069
0.000280266
0.000191421
0.000123877
9.53705e-05
0.000116887
0.000488774
0.00101931
0.000736776
0.00065018
0.000738672
0.000867165
0.00108782
0.00138704
0.00178491
0.00223935
0.00264631
0.00314931
0.00455316
0.00837436
0.0143391
0.00534116
0.00125728
0.00082904
0.00070769
0.000606448
0.000572421
0.00055313
0.000525202
0.000465211
0.000359286
0.000258571
0.000177901
0.000114187
8.95157e-05
0.000122283
0.000616747
0.00102471
0.000672955
0.000626463
0.000663357
0.000771692
0.000960891
0.00125787
0.00171328
0.00225941
0.00277515
0.00325619
0.00451164
0.00790487
0.0128758
0.00604586
0.0012251
0.000787669
0.000653354
0.000546631
0.000510867
0.000499502
0.000476826
0.000427642
0.000331243
0.000245567
0.000164934
0.000106123
8.70606e-05
0.000145953
0.000812468
0.000996594
0.000651722
0.000620303
0.000630829
0.000677069
0.000814161
0.00106534
0.0015146
0.00218899
0.002882
0.00346483
0.00447227
0.00727035
0.0112967
0.0062085
0.00117963
0.000736846
0.000595577
0.0004831
0.000444503
0.000440434
0.0004289
0.000391274
0.000309478
0.000233295
0.000149938
0.00010044
8.76691e-05
0.000200857
0.000952549
0.000960768
0.000649288
0.000624286
0.00062156
0.000632221
0.000689782
0.000863915
0.00122172
0.00189403
0.00288316
0.00370241
0.00448089
0.00659127
0.00960316
0.0061347
0.00112249
0.000690961
0.000542651
0.00042708
0.000387927
0.000385789
0.000381098
0.000355122
0.000289001
0.000218552
0.000141461
9.77697e-05
9.44359e-05