/*--------------------------------*- C++ -*----------------------------------*\
| =========                 |                                                 |
| \\      /  F ield         | OpenFOAM: The Open Source CFD Toolbox           |
|  \\    /   O peration     | Version:  2.4.0                                 |
|   \\  /    A nd           | Web:      www.OpenFOAM.org                      |
|    \\/     M anipulation  |                                                 |
\*---------------------------------------------------------------------------*/
FoamFile
{
    version     2.0;
    format      ascii;
    class       surfaceScalarField;
    location    "2.7";
    object      phiAlpha;
}
// * * * * * * * * * * * * * * * * * * * * * * * * * * * * * * * * * * * * * //

dimensions      [0 3 -1 0 0 0 0];

internalField   nonuniform List<scalar> 
5952
(
8.83613e-07
-8.83613e-07
6.24011e-07
3.59011e-08
4.08641e-16
1.59299e-07
3.57201e-16
8.11176e-17
1.86701e-16
1.705e-16
-3.13631e-05
8.89924e-05
-9.50293e-10
9.5215e-05
-9.50293e-10
4.41465e-17
-2.486e-09
1.20031e-10
-2.45924e-09
1.2816e-10
-2.69164e-09
2.32403e-10
-2.18355e-10
-2.47329e-09
-5.74854e-08
-1.06933e-07
-3.76168e-12
-2.21284e-06
-5.25501e-16
1.59295e-07
-1.45161e-05
1.45161e-05
-0.000220908
3.64531e-05
-0.000373057
0.0002243
-4.41116e-09
0.0002068
-8.20916e-11
-4.32907e-09
-1.4209e-09
1.51787e-11
-3.43875e-09
1.84395e-10
2.15159e-10
2.54601e-11
-2.36617e-10
2.3342e-10
-1.06081e-07
-8.51938e-10
-9.09085e-05
1.44279e-05
-0.000184191
0.000254349
-7.65251e-05
0.000235839
-0.000429801
0.000194315
-0.000582997
0.000359816
-4.57913e-05
0.000145615
-2.49183e-08
2.05739e-06
-2.54317e-08
-1.50935e-12
-3.44249e-08
1.13252e-09
-2.91031e-09
2.64465e-10
3.86571e-11
-3.18558e-09
3.66972e-06
2.8378e-07
-0.000150043
4.29346e-05
-0.00029454
0.000394611
-0.000446654
0.000384069
-0.000653195
0.000396535
-0.000567714
0.000233108
-2.05788e-06
4.05867e-05
-4.91596e-10
1.54603e-16
-1.72965e-09
1.16652e-10
-1.415e-09
2.30075e-10
-7.12438e-07
7.10925e-07
-3.21222e-05
-3.91271e-05
3.21018e-06
1.13017e-06
-0.000305845
6.06067e-05
-0.000328705
0.000419596
-0.000342747
0.000393508
-0.000340469
0.000364785
-0.000193979
0.000216197
-3.5986e-08
1.75472e-05
-3.59804e-08
-4.19272e-12
7.78001e-09
7.72175e-09
-8.32958e-08
9.09114e-08
-0.000124831
-6.08067e-05
-0.00020792
-0.000416169
2.75906e-08
5.38331e-06
-8.06541e-06
4.41389e-07
-0.000251111
3.31634e-05
-0.000352411
0.000462952
-0.000456277
0.00046992
-1.75482e-05
8.80617e-05
-1.012e-09
3.20407e-17
3.25493e-10
2.88185e-10
8.17445e-09
5.41581e-12
-0.000341889
-1.09787e-05
-0.000562456
-0.000197432
-0.000315124
-0.000445683
-3.93396e-07
5.65791e-06
3.075e-08
1.21221e-15
-3.41072e-05
-2.39192e-09
-0.00024414
0.000109116
-0.00030687
0.000531122
-2.04185e-10
0.00011009
-2.04185e-10
2.00616e-17
6.32952e-11
4.40682e-11
-1.904e-07
1.90222e-07
-0.000412539
-3.42159e-05
-0.000352781
-0.000274561
-0.00034865
-0.000341497
-1.42878e-16
4.67377e-06
-2.76072e-16
1.17526e-15
-2.39192e-09
1.6189e-15
-0.00021853
0.000132271
-0.000184233
0.000498458
-2.00436e-17
0.00015706
-6.90529e-17
1.90592e-17
4.40682e-11
5.23165e-17
-6.90391e-05
8.19752e-06
-0.000345406
-0.000176014
-0.000179477
-0.000436232
-0.000386234
-0.000155525
-6.55019e-07
5.67976e-06
7.41062e-07
5.8588e-05
-1.71893e-05
1.79303e-05
-0.000198441
0.000268959
-0.000180883
0.000412445
-1.19045e-16
5.8033e-05
-7.0877e-17
2.41291e-17
6.4266e-09
-6.4266e-09
-0.000350298
3.88622e-05
-0.000208763
-0.000301745
-0.000151032
-0.000519613
-0.000469255
-5.34997e-05
-5.4732e-07
9.37343e-07
-1.32746e-07
7.12708e-05
-2.02792e-05
0.000154165
-7.03809e-05
0.000144527
-5.45049e-05
4.19403e-05
-4.37433e-07
1.28809e-06
-4.37433e-07
2.46123e-17
-1.37872e-05
2.76663e-07
-0.000193562
6.65328e-06
-8.0082e-05
-0.000413342
-2.71037e-05
-5.91078e-05
-2.37796e-05
2.46183e-05
6.7709e-07
-5.17908e-08
-1.14042e-06
7.4421e-06
-2.60931e-05
9.11751e-05
-1.76609e-05
2.05258e-05
-1.2881e-06
3.41718e-07
-1.13742e-14
-1.61917e-13
2.08415e-13
-2.19716e-13
-8.57703e-06
1.93416e-08
-5.91369e-05
-4.11249e-06
-6.16051e-06
-0.000174322
1.9871e-07
-1.91602e-05
-6.83588e-06
4.59972e-07
2.20191e-07
2.01069e-06
2.00342e-07
5.87166e-07
-6.26069e-07
2.11216e-05
-3.41718e-07
2.06701e-06
-1.57385e-13
3.10927e-16
-4.19044e-12
1.12767e-12
-3.58932e-16
1.23559e-11
-1.22016e-07
8.45596e-09
-8.91289e-08
-5.48619e-06
5.65948e-06
-2.94346e-05
-3.30689e-07
-7.93536e-06
1.00681e-06
3.24967e-08
-0.000391788
-3.26869e-06
-0.000370515
-2.14557e-05
-0.000333014
-3.75426e-05
-0.000311259
-2.19383e-05
-0.000122687
-4.7562e-05
-7.01481e-05
-2.25209e-05
-3.63181e-05
-4.47212e-05
-4.15433e-05
-2.34401e-05
-5.30997e-06
-4.58295e-05
-1.54345e-09
-5.02803e-06
-1.78535e-08
1.631e-08
-6.15492e-07
-0.000157162
-2.16065e-07
-0.000276282
-9.6282e-06
-0.000296647
-2.4942e-05
-0.000265273
-5.33576e-05
-0.000241253
-7.21301e-05
-0.000208303
-5.51284e-05
-0.00018162
-7.20812e-05
-0.000157984
-4.69341e-05
-0.000102836
-0.000102631
-2.88001e-05
-7.71148e-05
-6.26935e-06
-2.3553e-05
-1.22844e-05
-1.7158e-09
-2.17534e-07
-6.24708e-06
-3.34031e-06
-7.80231e-05
-4.37675e-06
-0.000131653
-3.83021e-05
-0.000188229
-1.51755e-05
-9.77733e-05
-4.0376e-05
-4.48445e-05
-6.34965e-06
-3.63035e-05
-6.37137e-06
-5.81725e-05
-2.9127e-05
-4.17268e-05
-7.87742e-05
-1.14962e-05
-7.08211e-05
-1.79246e-05
-0.000106735
-0.000196419
-0.000118185
-0.000220885
-8.93181e-05
-0.000209577
-9.99821e-05
-0.000161587
-0.000104919
-0.00025593
-9.96168e-06
-4.61388e-05
-2.51777e-07
-1.16511e-05
-8.0832e-07
-1.02233e-05
-2.21471e-05
-4.6695e-06
-1.66069e-05
-5.87969e-05
-1.15986e-05
-5.15475e-05
-1.73994e-05
-0.000343059
-0.000290686
-0.00031416
-0.000261167
-0.000222583
-0.000301678
-0.00018036
-0.000248048
-6.81135e-05
-0.000288398
-1.745e-05
-0.000249085
-3.36437e-06
-0.000212169
8.22616e-07
-0.000111147
1.36137e-06
-1.57536e-06
2.64823e-06
-1.80106e-05
-1.17246e-06
-3.1071e-05
-1.85719e-05
-0.000290455
-0.000455483
-0.000179776
-0.000370498
-0.000132429
-0.000358175
-3.79318e-05
-0.000274066
2.12779e-05
-7.34129e-05
4.9058e-05
-8.11519e-06
8.04975e-05
-8.41464e-05
2.54518e-05
-0.000203732
2.01424e-05
-0.000133594
-8.31385e-08
-3.58204e-05
2.87183e-06
-6.44085e-06
-2.55786e-05
-0.000243038
-0.000553337
-0.000126606
-0.00049657
-1.20972e-05
-0.000344916
9.29147e-06
-0.00014782
3.11161e-06
-4.9333e-05
4.03791e-06
-1.6378e-05
0.000142808
-2.16515e-05
0.000128468
-2.54925e-05
0.000153956
-0.000125098
2.0745e-05
-2.98805e-05
6.7277e-06
2.00996e-06
-1.53318e-05
-0.000119167
-0.000592595
-3.89934e-05
-0.000594464
1.03649e-05
-0.000529419
2.14516e-05
-0.00051877
1.74157e-05
-0.000457269
7.30932e-06
-0.000157913
7.63298e-06
-4.0231e-05
2.10467e-05
-2.06504e-05
0.000151919
-6.32923e-05
4.06676e-05
-3.03475e-05
3.79147e-05
1.07133e-05
2.40978e-05
1.3966e-05
-0.000674572
8.76255e-05
-0.000665557
0.000173574
-0.000641487
0.000270539
-0.000615455
0.000307605
-0.000497061
0.000160338
-0.000440434
1.00275e-06
-0.000301632
2.42737e-05
-2.54463e-05
6.40914e-05
-2.8523e-06
8.47901e-05
5.44837e-06
2.62542e-05
1.99258e-06
5.03521e-05
0.000112355
-1.6538e-06
0.000219881
-0.000730746
0.000310211
-0.000732273
0.000390542
-0.000697051
0.000437573
-0.000542884
0.000438776
-0.000452866
0.000263523
-0.000394185
5.96414e-06
-2.79601e-05
3.11184e-06
-2.80375e-17
5.74465e-05
-1.97736e-06
3.49712e-05
1.83919e-05
9.54666e-06
3.44808e-07
-7.27513e-07
0.000262182
-2.69372e-05
0.000385572
-0.000393009
0.000269734
-0.000121286
0.00018002
-9.12916e-06
0.0001942
-1.17317e-16
0.000158001
-1.42431e-17
-1.03757e-06
-1.05274e-05
-1.04442e-06
6.85066e-09
5.80145e-06
-6.76507e-07
7.07989e-06
4.12258e-06
-1.18576e-05
2.55213e-07
-8.30876e-07
1.51892e-06
-2.7346e-05
3.5727e-05
-6.6977e-05
3.81994e-06
-3.60457e-05
3.16381e-17
-5.30922e-06
2.19908e-17
-6.84595e-17
1.89731e-17
-5.04357e-17
6.81466e-06
-1.74421e-17
6.40037e-07
5.65101e-07
1.41659e-16
-3.64701e-08
4.12258e-06
1.55161e-16
5.10326e-05
0.000131016
-0.000131016
0.000166501
-3.54843e-05
0.000155391
1.11098e-05
1.4984e-05
2.21363e-05
5.02711e-06
1.51401e-05
-1.42275e-05
8.95322e-05
-9.52135e-05
8.0986e-05
-0.000807356
6.00603e-05
-0.00111614
0.000164643
-0.00111635
2.08006e-07
-0.00114348
2.71312e-05
-0.000108344
-0.000490021
1.04019e-05
-2.92885e-05
-1.93838e-05
-5.35022e-07
-3.33713e-05
3.45109e-05
-2.90066e-05
1.86778e-05
-4.153e-05
2.74986e-05
-0.000516228
0.000243306
-0.000953136
0.000413511
-0.00109882
0.000194432
-0.00114155
0.000152777
-0.00109862
-4.27299e-05
-0.00103544
-3.60474e-05
-0.000171264
-0.000950409
-6.86511e-06
-2.24234e-05
-2.39481e-05
1.6548e-05
-2.82917e-05
3.92752e-05
-5.19322e-05
4.1903e-05
-0.000393658
0.000106435
-0.00110633
0.000505233
-0.00104566
0.000352833
-0.00105341
0.000202183
-0.00096857
6.79303e-05
-0.000934
-7.73152e-05
-0.000850221
-0.000114767
-0.00026261
-0.00076779
-1.24143e-05
1.30929e-06
-2.728e-05
3.22227e-05
-4.54801e-05
5.70145e-05
-7.96938e-05
7.68375e-05
-0.00094588
0.000273159
-0.00112593
0.00056958
-0.00109627
0.000323167
-0.00109222
0.000198138
-0.00100056
2.08608e-05
-0.000943648
-9.02527e-05
-0.00095924
-0.000177144
-0.000387534
-0.000834709
-8.84736e-05
4.04887e-05
-0.000184963
0.00023218
-5.12195e-05
0.000557256
-0.000126867
0.000224832
-0.000788628
0.000506835
-0.000788564
0.000569516
-0.000785796
0.000320397
-0.000744406
0.000189733
-0.000462116
-1.74344e-08
-0.000513016
-6.03597e-05
-0.00069381
-0.000230326
-0.000469431
-0.000611875
3.88166e-06
2.94e-05
-0.000312172
0.000249171
-0.000572835
0.00122422
-0.000643294
0.000941528
-0.000845434
0.000779648
-0.000860699
0.00058478
-0.000898236
0.000357934
-0.00035101
9.81025e-05
-0.000164944
-1.1926e-06
-0.000477995
-1.48006e-05
-0.000714806
-0.000231772
-0.000571676
-0.000609834
-5.94961e-06
3.53496e-05
-0.000412108
0.000109565
-0.000658505
0.00111961
-0.00064898
0.000932005
-0.000702008
0.000832674
-0.000688336
0.000571108
-0.000229259
0.000180894
-5.55155e-06
7.6357e-06
-6.74415e-06
-2.00736e-16
-8.52148e-05
-1.354e-06
-0.000304017
-0.000176266
-0.000609231
-0.000330272
-2.91292e-07
4.36108e-05
-3.55248e-05
3.96155e-05
-0.00031024
0.00017777
-0.000509072
0.000839248
-0.000659852
0.000983457
-0.000403459
0.000272049
-7.6357e-06
1.45699e-05
-4.18652e-15
2.41773e-16
-3.75354e-15
-7.19941e-16
-6.2151e-06
-2.06205e-06
-0.000187629
-0.00024947
-0.000784512
-0.000139053
-6.55641e-06
5.01672e-05
-9.52341e-06
5.55582e-05
-0.000169007
5.72764e-05
-0.000281035
3.76609e-05
-0.000193561
4.88241e-05
-1.45699e-05
-1.04466e-10
-1.64764e-14
-9.47741e-14
3.54633e-15
4.58623e-15
4.31299e-15
-1.34227e-15
-2.85915e-05
-5.30743e-06
-9.80031e-05
-0.000152713
-0.000275379
-0.000132885
-3.64868e-06
5.38159e-05
-5.84516e-06
5.78262e-05
-2.36117e-05
7.50167e-05
-8.83278e-06
-1.67032e-05
-3.47691e-16
1.08387e-16
-3.6094e-13
-1.04105e-10
-3.24826e-13
2.49972e-13
1.50216e-13
3.31498e-14
1.84125e-07
-1.84125e-07
-2.01846e-05
-2.11235e-06
-2.66179e-06
-2.44165e-05
-8.67612e-06
-1.11023e-05
-2.88306e-06
5.67745e-05
-8.17741e-06
6.30928e-05
-1.92755e-05
8.61426e-05
-2.58933e-10
4.82427e-05
-2.58933e-10
2.27269e-17
-3.9751e-13
2.25036e-10
-8.44659e-16
-1.39083e-13
-1.28566e-08
9.38807e-12
-4.87393e-07
-1.55696e-07
1.2641e-09
-7.50234e-07
-8.27523e-12
-2.43909e-05
-1.70651e-05
8.36461e-06
1.28657e-05
0.000984681
-1.49292e-05
0.00151957
-3.43627e-05
0.00157148
-4.99306e-10
5.05642e-05
-4.99306e-10
1.1965e-18
1.58922e-10
5.67856e-10
4.67865e-10
8.75624e-12
-8.32314e-08
6.33963e-10
2.55856e-08
-3.83654e-07
3.35758e-06
-2.15524e-07
8.05939e-06
-0.000217646
8.47447e-05
-0.00113929
-0.000320118
-5.17283e-05
-0.000197917
-0.000122201
-0.000169778
-5.24985e-05
-5.97664e-05
-0.000121466
-4.06564e-05
-1.11659e-05
-3.82108e-05
-1.83417e-05
-4.22441e-05
4.03325e-06
-2.82263e-05
-1.40178e-05
1.15107e-05
-3.9737e-05
4.06441e-06
1.34223e-06
2.84094e-07
3.2335e-06
2.84094e-07
-0.000790607
-0.000147546
-0.000685505
-0.000309974
-0.000577006
-0.00026895
-0.000217666
-0.000250826
-1.95512e-05
-4.06443e-05
-1.29599e-05
-2.36889e-05
-4.06098e-06
-8.36543e-06
-4.5969e-07
-1.99116e-05
-2.44257e-05
-6.87537e-06
-3.9911e-06
-1.90903e-05
-1.51358e-05
1.28601e-05
-1.7717e-05
-0.0007012
-0.000214781
-0.000633179
-0.000378964
-0.000542138
-0.000356509
-0.000188106
-0.000212819
-2.3827e-05
-2.98449e-05
-1.52201e-05
-3.36708e-05
-5.50262e-06
-3.00305e-05
-4.70175e-08
-5.7462e-05
-1.39945e-05
6.75147e-07
-2.75752e-05
-5.37774e-06
-9.02081e-06
8.0959e-06
-1.88812e-06
-0.000723572
-0.000327083
-0.000634442
-0.000467983
-0.000465017
-0.000453736
-0.000135738
-0.000502274
-3.3519e-05
-0.000203321
-2.94859e-05
-3.70485e-06
3.34379e-06
-6.16462e-05
1.0879e-05
-6.52688e-05
3.12893e-06
3.77774e-06
-3.21374e-06
1.05945e-07
-7.8209e-07
7.20167e-08
-2.67021e-06
-0.00056017
-0.000379213
-0.000515339
-0.000518439
-0.000429327
-0.00053632
-0.000312801
-0.000739554
-8.90651e-05
-0.000710596
2.05111e-06
-0.000522852
9.50453e-06
-7.51183e-05
1.23636e-05
-6.72667e-05
5.48334e-06
3.629e-06
1.46845e-06
1.52278e-06
5.17758e-07
1.0227e-06
-2.15245e-06
-0.000443586
-0.000547801
-0.000374059
-0.000587731
-0.000292496
-0.000621916
-0.00016493
-0.000867504
-2.81423e-05
-0.000850909
3.52299e-05
-0.000783691
-1.76684e-06
-0.000184474
1.36635e-05
-1.60806e-05
1.96105e-05
9.24065e-07
5.24848e-07
-1.65823e-07
3.62335e-06
2.44635e-06
1.03703e-05
-0.000300804
-0.000585761
-0.000177054
-0.00071401
-9.72457e-05
-0.000701491
3.3401e-05
-0.00100194
0.000173473
-0.000991147
0.000209526
-0.000788771
6.1391e-05
-0.000220586
-1.13027e-07
-8.0091e-06
1.02618e-05
6.70131e-09
5.82826e-06
-2.04032e-07
5.30576e-06
1.92801e-06
2.9828e-05
-0.000179167
-0.000751342
-7.17865e-05
-0.000843822
8.0448e-05
-0.000857264
0.000225501
-0.00114731
0.000244441
-0.00078911
0.000106834
-7.76048e-05
7.725e-05
-7.12567e-05
1.45414e-05
-1.04803e-05
3.74879e-07
1.32118e-08
6.53023e-06
-3.52345e-07
8.45824e-06
1.02645e-16
4.75448e-05
-3.06283e-05
-0.000899337
0.000107384
-0.00101016
0.000258077
-0.00101018
0.000317869
-0.00111011
7.68852e-05
-0.000180025
-7.19575e-07
-2.65066e-16
1.36334e-05
-4.28204e-11
1.24929e-05
-5.20858e-17
-2.20711e-07
3.07149e-07
1.17433e-06
-2.5209e-07
1.17433e-06
1.37477e-16
5.47695e-05
5.34862e-05
-0.000413369
0.000222999
-0.0011341
0.000354175
-0.00104824
6.00864e-05
-0.000276261
2.9222e-16
-5.38369e-06
1.1086e-16
-1.05765e-16
1.165e-16
-4.28204e-11
1.11856e-16
-4.87709e-17
6.87524e-07
-2.91794e-08
1.86246e-07
-4.41379e-08
1.86246e-07
2.36597e-16
4.39702e-05
0.000145521
-0.000304616
0.000281262
-0.000919723
0.000132407
-0.000302734
5.38369e-06
-1.15929e-05
1.15471e-16
-2.10223e-16
9.71776e-17
-1.1982e-16
8.48626e-11
-1.13358e-10
1.12758e-10
-2.78958e-11
3.69539e-08
-6.40152e-11
8.4243e-09
1.88897e-16
8.4243e-09
2.79541e-16
1.30463e-05
0.000131208
-0.00101706
0.000111417
-0.00128483
-1.09119e-05
-0.000391241
1.86446e-16
-2.25048e-05
1.58723e-16
-2.4363e-16
1.10205e-16
-1.18481e-16
1.80726e-10
-6.25351e-17
6.40156e-11
-2.36258e-09
3.17554e-16
7.7819e-17
2.62796e-16
2.49167e-16
1.84989e-16
3.57343e-16
-3.32186e-06
1.12111e-05
-6.17624e-05
2.86398e-05
-1.31019e-05
4.42045e-05
-2.49646e-06
4.33194e-05
3.19379e-06
2.62842e-05
1.70352e-05
5.15111e-06
2.93702e-05
-2.71049e-05
3.2256e-05
-0.000396986
0.000358966
-0.000199987
0.000171475
-0.000139097
4.07271e-05
-0.000137492
-1.60559e-06
9.97032e-06
-0.000317491
2.80366e-05
-8.9799e-05
-1.23576e-06
-5.20321e-08
-6.12849e-07
2.75533e-07
4.33513e-06
3.04155e-07
-8.68471e-05
5.19209e-05
-0.000407905
0.000355338
-0.000621088
0.000386594
-0.000583604
0.000363922
-0.000595128
0.000111711
-0.000835755
0.000161455
-0.00097593
-2.44756e-05
-2.60053e-05
-0.00093995
-1.24871e-07
-4.97289e-05
-1.46035e-07
5.15109e-08
-7.99473e-08
1.27066e-07
-1.72485e-06
2.09361e-06
-0.000827264
0.000407828
-0.0010938
0.000532863
-0.00101
0.000347746
-0.000820667
0.000301531
-0.000818674
0.000152575
-0.000845276
0.000125369
-0.000825813
-4.39329e-05
-8.8123e-05
-0.000763711
-1.60761e-05
-2.41833e-06
-2.65392e-07
9.70988e-05
-1.72885e-05
1.73085e-05
-0.000380938
0.000136869
-0.00115914
0.000576971
-0.00110816
0.000481963
-0.00108302
0.000322409
-0.00101469
0.000233214
-0.000983891
0.000121763
-0.000928451
6.99518e-05
-0.000883023
-9.01053e-05
-9.60022e-05
-0.000875347
-7.40387e-05
1.15299e-06
-0.000313872
0.000221065
-0.000351514
0.000736869
-0.000455632
0.000764423
-0.000684723
0.00064502
-0.000627844
0.000419127
-0.000534467
0.000251587
-0.000634338
8.17126e-05
-0.00070351
7.7961e-05
-0.000634842
1.27856e-06
-0.000567282
-0.000157665
-0.000155112
-0.000508181
4.4422e-07
7.08765e-07
-0.000214582
7.1235e-05
-0.000592192
0.000944682
-0.000734708
0.000906937
-0.000653457
0.000754709
-0.000312782
0.000285675
-0.000323592
0.000117914
-0.000471453
3.46198e-05
-0.00073911
7.72678e-06
-0.000686431
-5.13971e-05
-0.00061585
-0.000228256
-0.000288584
-0.000482374
-2.26692e-05
2.33779e-05
-0.000386503
3.46595e-05
-0.000787615
0.000869975
-0.000828254
0.000947578
-0.000814266
0.000753849
-0.00063557
0.000408236
-0.000429819
0.000198596
-0.000200644
3.86833e-05
-0.000348186
-1.30557e-05
-0.000386683
-4.49538e-05
-0.000329481
-6.64171e-05
-1.53945e-06
-0.00031159
-4.27761e-06
0.000367238
-9.4902e-06
2.86721e-05
-0.000308899
0.000132493
-0.00049981
0.00098587
-0.000489879
0.00074392
-0.000460125
0.000378466
-0.000401338
0.000267331
-0.000250209
3.58897e-05
-0.000152091
-1.47066e-06
-3.84304e-05
-1.80713e-05
-1.0075e-06
-1.66097e-05
-4.73743e-06
-1.65473e-05
-7.22051e-06
0.000377756
-2.90373e-05
4.44658e-05
-0.000308846
0.000166151
-0.000578361
0.000858048
-0.000577691
0.000743235
-0.0002807
0.000149443
-3.23202e-05
1.15448e-05
-7.67728e-08
-2.24454e-09
-1.54743e-06
-1.68673e-17
-7.14648e-06
-3.11103e-05
-7.70411e-06
-0.000127547
-0.000101178
-1.02913e-07
-1.36991e-05
0.000391455
2.33392e-06
0.00023214
-0.000172802
0.000152855
-0.000262639
0.000790603
-0.000172439
0.000685199
-1.15534e-05
3.39119e-05
-2.10239e-16
-8.63426e-09
-1.79159e-16
-2.24455e-09
-1.98748e-16
-1.83616e-17
-0.00019629
-3.9551e-05
-0.000265289
-0.000508246
-0.000720989
-5.48373e-05
-7.65388e-06
4.16139e-05
-3.92859e-06
7.77041e-05
-0.000168888
0.000381385
-0.000424191
0.000936904
-3.39516e-05
0.000447124
-3.96797e-08
2.5617e-16
-2.69741e-08
1.87706e-08
1.21045e-08
1.89425e-09
1.21045e-08
-5.65969e-17
-0.000140614
-1.08314e-05
-0.000247956
-0.000394412
-0.000822511
-4.50825e-05
5.63544e-07
-6.19998e-07
9.62903e-08
1.23696e-06
-7.4048e-05
0.000414556
-0.000156695
0.000919726
-3.38024e-08
0.000446013
-3.38024e-08
2.91681e-16
-1.89425e-09
7.62296e-09
-2.03117e-16
1.39039e-17
-2.44887e-16
-1.26837e-16
3.21355e-06
-1.43433e-05
-3.04326e-05
-0.000448439
0.00010745
-0.000867282
-0.00033428
-8.33582e-05
-0.000105186
-8.52177e-05
-3.20617e-05
-1.42922e-05
7.79118e-06
2.43301e-08
-4.15603e-05
-1.0747e-18
-9.91834e-05
-1.29362e-06
-9.22525e-05
-9.94313e-06
-7.2025e-05
-7.29535e-06
-4.59366e-05
-2.21907e-05
-7.02144e-05
2.42779e-05
-8.09542e-06
-4.62737e-05
-8.09542e-06
-0.000891527
-0.000131796
-0.00064128
-0.000196504
-2.09108e-05
-0.000169644
-4.72989e-18
-2.08864e-05
-1.03542e-17
-4.23225e-18
-2.87785e-17
-1.29362e-06
-2.11117e-17
-9.94313e-06
-5.11717e-06
-2.17817e-06
-1.96979e-05
-4.02582e-07
2.97063e-05
-9.08824e-09
1.93508e-05
-2.20201e-08
1.30739e-05
-0.000708694
-0.000186812
-0.000649775
-0.00025544
-0.000201017
-0.000279093
-1.91754e-06
-2.15322e-05
-1.91754e-06
-2.69329e-18
-3.66703e-06
-1.32949e-06
-7.12262e-06
-9.23521e-06
-7.64009e-08
-7.71856e-06
-1.21039e-17
-4.78983e-07
-3.43214e-18
-9.08824e-09
3.91822e-08
-6.12022e-08
4.06698e-05
-0.000839639
-0.000222528
-0.000801677
-0.000293399
-0.000275784
-0.000449304
-1.70869e-06
-8.20107e-05
-1.70869e-06
4.11966e-17
-4.25834e-06
-1.28184e-07
-6.08274e-06
-8.68368e-07
-1.62552e-06
-5.62866e-06
-5.9975e-08
-1.58067e-06
5.02974e-09
-5.20618e-08
-1.1418e-06
-8.22792e-08
3.81824e-05
-0.000547283
-0.000183425
-0.000600503
-0.000240188
-0.000342472
-0.000488599
-5.12836e-09
-0.000109106
-5.12836e-09
-2.80463e-18
2.31551e-10
-3.22679e-07
-8.68137e-07
-1.37575e-16
-5.94342e-07
-6.38033e-09
-1.41045e-08
-1.23586e-07
2.10927e-08
-4.45649e-08
4.99166e-06
-9.68465e-06
5.03935e-05
-0.000361205
-0.000304605
-0.000329711
-0.000271676
-0.000183693
-0.000259708
-1.41972e-06
-1.39877e-08
-1.29109e-06
-1.28636e-07
-6.81729e-08
-3.50442e-06
-6.22168e-17
-6.81729e-08
-6.38032e-09
-4.00197e-16
2.8709e-09
-1.72499e-15
-4.1694e-08
-1.67318e-16
-1.16981e-05
-1.44196e-05
4.1811e-05
-0.000403505
-0.000152634
-0.000172402
-0.000284171
-1.28773e-08
-1.82591e-05
-2.6865e-08
-1.8123e-16
-4.52713e-07
6.92016e-08
1.41513e-07
-2.14224e-06
3.43022e-16
3.49548e-08
5.31512e-17
-3.76921e-16
4.44385e-18
-2.17494e-15
1.61996e-09
-1.61996e-09
-2.50582e-05
-4.80915e-10
3.53795e-07
-7.85197e-05
-8.26494e-06
-5.02107e-06
-6.15842e-05
-2.30207e-17
-2.32801e-05
2.09295e-17
-8.13401e-15
7.0812e-09
6.21204e-08
8.17963e-07
-2.72041e-06
2.53896e-16
8.52918e-07
2.20984e-16
-9.15299e-16
1.38909e-15
-2.81049e-17
2.25143e-09
8.9446e-10
1.77052e-09
-1.81543e-18
-5.71788e-07
-1.25629e-16
-8.36786e-06
-3.13507e-06
-5.84491e-05
2.48643e-05
-0.000339033
4.07974e-05
-0.000626831
2.16809e-06
-0.000186086
-1.38329e-06
-1.21297e-06
9.63851e-06
-2.419e-05
5.31209e-07
-6.84114e-06
7.06653e-17
5.31209e-07
2.54247e-17
8.9446e-10
5.54098e-18
3.26666e-18
6.58286e-07
-7.6843e-06
-0.000314425
0.000153428
-0.00066516
0.000263967
-0.000726797
0.000371543
-0.000764699
-1.13565e-05
-0.000294287
-1.52451e-05
-8.14212e-16
6.71246e-05
-1.33715e-05
4.67462e-05
-2.74803e-05
4.1903e-06
-1.08084e-05
8.85576e-08
1.85461e-06
8.85576e-08
1.27845e-17
9.35515e-07
0.000146268
-0.00052439
0.000342644
-0.000912397
0.000435992
-0.000769283
0.000295391
-0.00029973
-2.34868e-06
-1.2559e-05
-2.316e-06
-3.26743e-08
5.31418e-05
-2.0255e-08
0.000100563
-1.09089e-05
0.000100269
-5.53869e-06
3.72484e-06
3.02335e-05
-2.93631e-07
4.01847e-06
-5.67398e-08
0.000241593
-0.000721398
0.000251035
-0.000320683
5.20979e-05
-1.91845e-05
1.25586e-05
-6.88994e-09
-3.96091e-10
-2.81353e-16
4.34642e-08
-1.92813e-16
2.32092e-08
-8.908e-16
3.56806e-05
-1.19183e-16
0.000169208
-1.02149e-06
0.000104861
8.43394e-05
2.07908e-06
8.39866e-05
2.02234e-06
2.17821e-06
-2.55187e-06
4.67129e-06
-2.2798e-06
4.95092e-06
-2.79628e-07
3.78281e-06
1.16811e-06
2.88669e-06
8.96121e-07
-5.85739e-09
6.87431e-06
-1.0137e-08
4.27963e-09
-1.16581e-08
1.52105e-09
-4.93305e-06
7.37693e-07
-1.49485e-05
5.36882e-07
-1.54604e-06
1.36259e-06
-1.54604e-06
-2.53725e-15
3.31714e-06
-2.70763e-05
4.98957e-07
-6.54935e-07
-7.11866e-06
7.33799e-06
-2.18414e-05
6.45939e-05
-6.86188e-06
7.19899e-06
-6.62463e-08
1.24013e-09
1.23507e-08
2.41524e-08
-3.13166e-06
1.01278e-08
-3.52913e-05
4.64637e-06
-3.62205e-05
1.47874e-06
-3.68035e-05
1.93288e-06
-1.83913e-06
-6.63396e-11
-4.22895e-06
-2.28473e-05
-3.4059e-05
7.87309e-06
-0.00010087
5.59289e-05
-1.67653e-05
9.90724e-05
-2.83306e-08
6.02196e-07
-2.87203e-08
1.62978e-09
2.16779e-09
6.26426e-09
-2.5031e-07
1.75331e-07
-6.87013e-06
1.2992e-07
-2.81442e-05
5.6554e-07
-2.67489e-05
5.5156e-07
-3.16028e-16
-1.48159e-09
-1.48226e-07
-4.25825e-06
-6.21649e-05
1.36459e-05
-0.000114615
0.000116702
-6.0348e-07
8.01476e-05
-3.37259e-09
2.08914e-09
-3.46443e-09
1.72162e-09
-8.36234e-07
5.03884e-07
-3.77092e-06
5.84084e-07
-2.87681e-06
6.05048e-07
-5.85824e-07
9.13553e-08
-2.39859e-15
1.53153e-12
-4.57864e-16
-2.34105e-15
-4.61475e-06
1.09883e-06
-6.11963e-05
8.4262e-06
-0.000107689
4.41354e-05
-2.50999e-09
6.67852e-06
-2.48418e-09
2.06334e-09
-1.85905e-06
1.85828e-06
-2.91063e-05
4.75356e-05
-2.92101e-07
8.77124e-06
-9.10253e-08
7.70701e-09
-1.89486e-15
3.29992e-10
-1.82844e-15
1.53139e-12
-4.50878e-06
-3.88621e-08
-4.03283e-07
4.37304e-09
-3.40231e-06
2.80859e-09
-2.15513e-06
2.83941e-06
-4.56316e-08
2.43607e-06
-0.000110432
0.000110784
-0.00023347
0.000371122
-8.7767e-06
0.000188701
-3.29631e-09
1.84221e-09
3.02662e-09
4.86212e-12
-8.55458e-06
4.28062e-06
-0.000256443
-6.91621e-05
-0.000328638
-0.000362547
-5.95967e-10
4.96901e-09
-1.45188e-09
3.66451e-09
-1.06222e-06
3.90018e-06
-0.000112119
0.000139689
-0.00067344
0.000703779
-0.000682979
0.000650322
-2.98575e-08
0.000222167
-1.18253e-09
8.0551e-10
-4.57085e-06
4.57115e-06
-0.00053217
-2.5926e-05
-0.000691432
-0.00024591
-0.000482556
-0.000537514
-8.29536e-10
5.79856e-09
-5.8227e-08
6.1062e-08
-5.56813e-05
0.000159719
-0.000523369
0.000997412
-0.000680865
0.000863856
-0.000605686
0.000619681
-4.70984e-05
0.000247061
-5.29548e-05
5.87034e-06
-0.000364481
4.05368e-05
-0.00058979
-0.000102905
-0.000504789
-0.000330912
-0.000564
-0.000423345
2.45517e-06
0.000138525
5.69043e-06
5.04878e-06
-0.000320767
0.000790088
-0.000476353
0.00119293
-0.000515731
0.000903249
-0.000575691
0.000745755
-0.00026972
0.000281267
-0.00037425
4.88631e-05
-0.000448641
7.98159e-06
-0.000382009
-9.64947e-05
-0.00022569
-0.000377994
-0.000343274
-0.000169749
2.85807e-06
0.000135667
-1.47906e-05
4.70452e-05
-0.000231524
0.000951549
-0.000387575
0.001349
-0.000606365
0.00112202
-0.000572053
0.000749183
-0.000437805
0.000233786
-0.000331449
4.64812e-05
-0.000240511
7.04907e-07
-0.000289978
-0.000160552
-0.00024862
-0.000583288
-0.00029353
-3.87997e-05
2.07613e-05
4.9342e-05
-1.49314e-06
0.000111095
-0.000164806
0.000844307
-0.00033146
0.00151564
-0.000524346
0.00131492
-0.000413979
0.000801591
-0.000138708
0.00031193
-0.000107155
7.25883e-06
-0.000113026
1.42449e-05
-0.000418865
-0.000464433
-0.000150211
-0.00117898
-0.00100016
-3.72736e-05
9.69011e-06
-3.36096e-07
4.70701e-05
3.62326e-05
2.24827e-05
0.000402663
-0.000170351
0.00170068
-0.000363785
0.00151118
-0.000352239
0.00107906
-0.00021412
0.000567051
-7.23585e-05
-9.63882e-06
-0.000312524
4.70392e-06
-0.000202257
-0.000842919
1.72023e-06
-0.00138298
0.000166075
-0.00116452
-2.04739e-15
-3.37367e-17
1.33089e-12
-1.33262e-12
-3.27226e-08
1.09329e-10
-4.132e-09
-1.08697e-08
7.78e-07
-7.62088e-07
-2.90558e-05
-7.7347e-06
-0.000112205
-2.06294e-06
-0.000110632
-1.57219e-06
-4.85853e-05
-7.72208e-09
-1.91205e-05
-6.61299e-06
9.21661e-06
-2.60615e-05
9.21661e-06
-6.63395e-11
-1.11729e-16
6.15117e-13
-3.09152e-10
-5.93161e-16
1.09944e-10
6.09119e-09
-1.69609e-08
-2.98596e-05
-1.28328e-06
-2.3804e-05
-2.45012e-06
-9.82225e-06
-2.21675e-06
-1.06695e-08
-3.91821e-07
-1.04535e-08
-7.93817e-09
-6.60984e-06
-1.36069e-08
-1.26354e-05
-1.80043e-05
-1.01361e-05
-1.48159e-09
-3.19746e-16
7.5598e-09
1.52079e-11
1.19001e-07
-1.92846e-07
-2.5945e-06
4.57018e-08
-5.02532e-06
2.40687e-07
-7.77108e-07
3.16216e-06
-2.34397e-08
-2.97042e-06
-1.11536e-08
-4.04107e-07
-8.54594e-09
-1.05457e-08
-1.29866e-08
-9.16625e-09
-1.36645e-05
-5.28305e-10
-3.38485e-09
-8.66974e-16
-1.81306e-15
-7.34306e-09
7.35827e-09
-1.62388e-06
-7.26113e-08
-4.51651e-06
-1.22464e-05
-1.6259e-05
-2.30664e-05
-1.23554e-05
-2.38909e-05
-5.12193e-06
2.8795e-06
-2.19473e-07
-2.14312e-06
-1.0867e-08
-2.19152e-07
-2.46325e-10
1.2064e-06
-2.27432e-10
-5.47198e-10
-3.61229e-09
-1.22294e-07
-1.4622e-05
2.78503e-09
-5.03351e-06
-6.98263e-08
-5.44221e-16
-2.99155e-05
-1.0968e-05
-6.78504e-05
-0.000141756
-4.51001e-05
-0.000148287
-1.95417e-05
-0.000181334
-6.11888e-06
-1.01545e-05
-1.22051e-07
-1.00824e-05
5.39656e-08
-9.6159e-06
-4.99895e-11
5.34683e-08
-4.89853e-10
-0.000344099
-0.000401726
-3.42447e-05
-0.000417113
-1.9622e-06
-3.22825e-05
-2.47061e-05
-1.56114e-05
-3.82307e-05
-0.00012708
-7.15887e-06
-0.000253984
1.81422e-05
-0.000160677
6.18113e-06
-8.08405e-05
5.92716e-06
-1.14791e-05
2.53325e-06
-2.19264e-05
-1.23692e-07
-1.94305e-05
-7.60124e-07
-0.000402374
-0.000536866
-0.000180413
-0.000635617
-4.79255e-05
-0.000260519
-9.54623e-06
-0.000157286
-9.00954e-08
-1.30768e-05
1.50746e-05
-8.90907e-07
2.48067e-05
-0.000219771
2.61516e-05
-0.000174386
1.48261e-05
-5.87978e-05
1.2293e-05
-3.2489e-05
1.89578e-06
-2.37928e-05
-3.02649e-06
-0.000185516
-0.000479372
-0.000131149
-2.79263e-07
5.16055e-07
-0.000253702
7.61128e-06
-0.000141181
1.39721e-07
-5.8414e-06
2.8286e-07
-7.97832e-07
6.19567e-05
-8.76756e-06
8.57371e-05
-0.000161506
4.89757e-05
-0.000122517
6.57706e-06
-3.65652e-05
4.21173e-06
-8.17209e-06
-8.033e-08
-5.40634e-08
-8.9998e-05
-1.66572e-06
-7.31183e-06
8.70351e-06
-2.37384e-05
8.71545e-06
-2.08586e-16
6.66228e-07
-4.09658e-06
3.22907e-07
-7.05964e-07
5.08091e-06
-3.62179e-08
8.55382e-05
-7.83986e-05
0.000110442
-0.000131585
1.61103e-05
-4.27735e-05
8.2854e-08
5.70758e-06
2.52397e-09
-1.04688e-06
-0.000260284
2.15845e-07
-0.000123752
6.91159e-17
-2.35225e-05
8.14759e-17
-2.22405e-16
1.01354e-06
-1.7363e-16
4.66077e-07
1.16657e-07
4.29859e-07
-2.26129e-16
8.54666e-05
-2.01011e-06
0.000155736
-9.53885e-05
0.00013067
-1.50351e-05
8.32535e-08
4.70474e-05
8.57775e-08
8.52988e-05
-0.00105213
5.86287e-05
-0.000973599
9.87234e-17
-0.000140939
1.14004e-16
-2.35372e-16
9.67085e-17
-1.56119e-16
7.95668e-07
-4.65101e-06
3.14149e-16
6.23876e-07
1.03172e-05
-1.23273e-05
0.000150028
-6.49218e-06
0.000119539
1.26294e-05
1.00638e-05
0.000106323
5.82087e-06
0.000348312
-0.00123439
0.000264852
-0.00111385
1.44334e-16
-0.000155541
1.51644e-16
-2.53988e-16
1.69191e-16
-1.73892e-16
2.73671e-05
-1.40547e-09
8.22293e-05
-9.22536e-05
4.72982e-05
-6.49822e-05
2.09007e-05
-9.75281e-06
0.000267501
1.38516e-05
0.000146775
0.000238501
0.00013593
1.11384e-08
5.97948e-05
-5.72211e-05
2.89402e-17
5.98304e-07
5.00979e-18
2.11216e-05
-2.38271e-17
2.06701e-06
-2.48031e-14
2.44311e-14
1.28569e-14
9.73746e-14
1.23683e-11
1.3477e-16
-1.48316e-06
4.41091e-08
1.40148e-06
-6.06169e-06
7.44656e-07
-5.40246e-06
1.06528e-06
8.859e-07
5.1195e-06
1.12528e-06
7.35124e-05
0.000647294
-0.000236806
9.62521e-05
0.00105092
3.22978e-05
0.00123091
-7.79384e-07
6.52604e-05
-1.24331e-17
8.56843e-06
-3.40303e-17
9.70916e-14
-2.1665e-06
2.1665e-06
-2.20025e-06
-5.40456e-06
8.54638e-06
-2.75563e-06
1.91938e-06
4.32288e-06
3.65804e-06
-3.3939e-05
-6.25584e-05
4.20136e-05
0.000330591
0.000472882
-0.000460985
0.000206832
0.00117203
9.75843e-05
0.0013368
-8.21884e-07
0.000104225
-6.09353e-06
1.97977e-05
-5.53911e-06
0.000412634
-1.88026e-06
8.45634e-05
3.80958e-06
-3.67679e-06
2.21462e-05
-1.04335e-05
3.98635e-05
-0.000219024
0.000169662
-0.000730487
-9.69266e-05
0.000163951
0.000263938
-0.000268465
2.91046e-05
0.000275949
0.000881945