/*--------------------------------*- C++ -*----------------------------------*\
| =========                 |                                                 |
| \\      /  F ield         | OpenFOAM: The Open Source CFD Toolbox           |
|  \\    /   O peration     | Version:  v1606+                                |
|   \\  /    A nd           | Web:      www.OpenFOAM.com                      |
|    \\/     M anipulation  |                                                 |
\*---------------------------------------------------------------------------*/
FoamFile
{
    version     2.0;
    format      ascii;
    class       volScalarField;
    location    "1.12";
    object      nut.air;
}
// * * * * * * * * * * * * * * * * * * * * * * * * * * * * * * * * * * * * * //

dimensions      [0 2 -1 0 0 0 0];

internalField   nonuniform List<scalar> 
6000
(
0.000528865
0.0049019
0.00780494
0.00846469
0.0086752
0.00878799
0.00884323
0.00886627
0.0088884
0.00891048
0.00893384
0.00895616
0.00897481
0.00898774
0.00898829
0.00898193
0.00897239
0.0089566
0.00893534
0.00891478
0.00889925
0.00888874
0.00887601
0.0088339
0.00877274
0.00867259
0.0084536
0.00778704
0.00488555
0.00052905
0.000449829
0.00320233
0.00611795
0.00779325
0.00859854
0.00901838
0.00923611
0.00936538
0.0094883
0.00960305
0.0097064
0.00978964
0.00985181
0.00987957
0.00987359
0.00984712
0.00979828
0.00973465
0.00966765
0.009598
0.00952784
0.00946738
0.00940033
0.00927227
0.00903149
0.00860599
0.00776069
0.0060394
0.00314272
0.0004444
0.000393587
0.00268973
0.00533722
0.00715816
0.0082147
0.00884371
0.00928123
0.00960909
0.00986921
0.0100949
0.010281
0.0104155
0.010501
0.0105479
0.010562
0.01054
0.0104784
0.0103854
0.0102726
0.010138
0.00998334
0.00980223
0.00957964
0.0093157
0.00892561
0.00825208
0.0070544
0.00516305
0.0025567
0.00038677
0.000356358
0.00236117
0.00482716
0.00673516
0.00806875
0.00890143
0.00951798
0.0100723
0.0105623
0.0109941
0.0113605
0.0116406
0.011807
0.0119303
0.0120031
0.0119875
0.0118617
0.0116504
0.0114207
0.0111451
0.0108172
0.0104555
0.0100679
0.0096519
0.0090391
0.00804284
0.00658004
0.00459379
0.00215314
0.000345128
0.000322623
0.0021261
0.00442157
0.00636409
0.00785881
0.00900176
0.00991131
0.0107334
0.0114804
0.0121473
0.0127215
0.013228
0.013663
0.0139514
0.014022
0.0139421
0.0137355
0.0133941
0.0129343
0.0124406
0.0119218
0.0113658
0.0107748
0.0100237
0.00910219
0.00788717
0.00626034
0.0042056
0.00192425
0.000304558
0.000292175
0.00195588
0.0041753
0.00614412
0.00776004
0.00912525
0.0103896
0.0114928
0.0125211
0.0134619
0.0143625
0.0150616
0.0154518
0.0155772
0.0155403
0.0154021
0.0152017
0.014923
0.014509
0.0139597
0.0132543
0.0124313
0.0115353
0.010401
0.00921405
0.00784901
0.00617691
0.00413826
0.00190916
0.000273747
0.000271817
0.00199308
0.00422601
0.00619448
0.00789221
0.00942974
0.0110683
0.0124768
0.0138143
0.0150675
0.015941
0.0163571
0.0164985
0.0164857
0.0163904
0.0162271
0.0160199
0.0157815
0.0154981
0.0151099
0.0145054
0.0135603
0.0123553
0.0109236
0.00959175
0.00813268
0.00644278
0.00443399
0.00213052
0.000265287
0.000271519
0.0022231
0.00456865
0.00660112
0.0084048
0.0101166
0.0119949
0.0137658
0.0152716
0.0163218
0.0168189
0.0170022
0.0170517
0.0170192
0.0169045
0.0167238
0.0165089
0.0162765
0.0160061
0.0156881
0.0151762
0.0143061
0.0131065
0.0116889
0.0103223
0.00878711
0.0070083
0.00488349
0.00239653
0.000270472
0.000281236
0.00255049
0.00516324
0.00739806
0.00934187
0.011184
0.0130479
0.0149346
0.0162218
0.0168938
0.0172285
0.017371
0.0174239
0.0173818
0.0172441
0.0170631
0.016864
0.016644
0.0163699
0.016011
0.0154731
0.0147158
0.0136832
0.0124934
0.0111964
0.00962175
0.00773664
0.00544819
0.00272568
0.000285532
0.000301227
0.00288809
0.00579832
0.00826602
0.0103422
0.0122172
0.0139456
0.0155308
0.0165971
0.0171851
0.0175138
0.0176702
0.0177148
0.0176432
0.0175078
0.0173566
0.0171802
0.0169788
0.0167004
0.0163057
0.0157134
0.0149794
0.0141326
0.0131675
0.0119796
0.0104172
0.00845078
0.00599867
0.00300331
0.000303013
0.000320575
0.00316256
0.00635212
0.00899922
0.0111418
0.0129901
0.0145661
0.0158059
0.0167114
0.01737
0.0177466
0.0179099
0.0179148
0.0178465
0.0177435
0.017619
0.0174593
0.017259
0.0169993
0.0165982
0.0159756
0.0152775
0.0145472
0.0137087
0.0125797
0.0110301
0.00902298
0.00645639
0.0032461
0.000319336
0.000339281
0.00341504
0.00681723
0.00954638
0.0117195
0.0135711
0.0150635
0.0160741
0.0168543
0.0174884
0.0179415
0.0181098
0.0180772
0.0180199
0.0179488
0.0178407
0.0176779
0.017463
0.0172169
0.0168382
0.0162595
0.0155981
0.0149146
0.0141372
0.013016
0.0114601
0.00944916
0.00681932
0.00345697
0.000334366
0.000356608
0.00364123
0.0071587
0.00993051
0.0121469
0.0140146
0.0154412
0.0163414
0.0170152
0.0176012
0.0180966
0.0182863
0.0182383
0.0181831
0.0181222
0.0180247
0.0178627
0.0176141
0.0173319
0.0169655
0.0164442
0.0158365
0.0151775
0.0144303
0.0133137
0.0117326
0.0097151
0.00707411
0.00362621
0.000346863
0.000370638
0.00380255
0.00739269
0.0102262
0.012491
0.0143312
0.0156849
0.0165134
0.0171265
0.0176741
0.0181944
0.018472
0.0184394
0.0183651
0.0182906
0.0182064
0.0180711
0.0178007
0.0174036
0.0169954
0.0165077
0.015953
0.015325
0.0145785
0.0134863
0.0119097
0.00986658
0.00720201
0.00370841
0.000355144
0.000382623
0.0039079
0.0075951
0.0105175
0.0128035
0.0145626
0.015847
0.0166741
0.0172903
0.017812
0.0183264
0.018745
0.0187706
0.0186267
0.0184934
0.0184144
0.0183428
0.018097
0.0176102
0.0170542
0.0165491
0.0160141
0.0154173
0.0146597
0.0135753
0.0120381
0.00998216
0.00727439
0.00374247
0.000359867
0.000395934
0.00400101
0.00783624
0.0108536
0.0130969
0.0147758
0.0159894
0.0168377
0.0174772
0.018049
0.0185824
0.0191382
0.0193262
0.0190458
0.0187589
0.0186928
0.0186735
0.018474
0.0180403
0.017398
0.0167695
0.0162084
0.0155661
0.0147472
0.0136542
0.0121413
0.0101006
0.00734216
0.0037436
0.000364391
0.000411196
0.00412148
0.00822725
0.011246
0.01338
0.0150141
0.0162164
0.0170964
0.0177683
0.0183968
0.0190092
0.0196365
0.0199639
0.0195545
0.0190574
0.0189281
0.0189051
0.0187513
0.0184294
0.0179076
0.0172246
0.0165544
0.0158064
0.0149159
0.0137921
0.0122853
0.010315
0.00751808
0.00374372
0.000369499
0.000427127
0.00438848
0.00849542
0.0113944
0.0135206
0.0151956
0.0164802
0.0174655
0.0181596
0.018779
0.0193575
0.0198543
0.0200692
0.0197939
0.0192552
0.0189511
0.018815
0.0186097
0.0183212
0.0179086
0.0173454
0.0166475
0.0158376
0.0148938
0.0137139
0.0122037
0.0102848
0.00765117
0.00388086
0.000372568
0.000438733
0.00432314
0.00834068
0.0111261
0.0132659
0.014991
0.0163758
0.0174453
0.0182018
0.0187898
0.0192423
0.0195216
0.0196191
0.0195019
0.0191343
0.018793
0.0185511
0.0182547
0.0179002
0.0174676
0.0169478
0.0162783
0.0154733
0.014512
0.013312
0.0118358
0.00997133
0.00746455
0.00384034
0.000378083
0.000437691
0.0042504
0.00807473
0.0107881
0.0128921
0.0145777
0.0159484
0.0170404
0.0178494
0.01842
0.0187817
0.0189582
0.0190445
0.0190004
0.0187894
0.0184974
0.0181915
0.0178181
0.0173811
0.0168778
0.016304
0.0156307
0.0148429
0.0139069
0.012774
0.0113819
0.00961459
0.00720639
0.00383665
0.000379685
0.000439778
0.0042311
0.00784568
0.010479
0.0125155
0.0141357
0.0154323
0.0164694
0.0172561
0.0178189
0.0181715
0.0183549
0.0184444
0.0184319
0.0183281
0.0181063
0.0177789
0.0173479
0.016849
0.0162877
0.0156653
0.0149721
0.0141944
0.0132993
0.0122373
0.010936
0.00926121
0.00694311
0.00371921
0.000375319
0.000438204
0.00414332
0.00763827
0.010187
0.012153
0.0137013
0.0149251
0.0158926
0.0166311
0.0171691
0.0175193
0.0177183
0.0178117
0.0178233
0.0178016
0.0176424
0.0173055
0.0168435
0.0163141
0.0157232
0.0150717
0.0143627
0.0135911
0.0127314
0.0117309
0.0104991
0.0088842
0.00663928
0.00352651
0.000359694
0.000425671
0.00397892
0.00738257
0.00986117
0.0117627
0.0132504
0.0144025
0.0152929
0.0159755
0.0164697
0.0168063
0.0170139
0.0171188
0.0171889
0.0172268
0.017123
0.0168053
0.0163434
0.0158073
0.0152055
0.0145416
0.0138248
0.0130573
0.0122195
0.0112549
0.0100668
0.00849231
0.00631201
0.00332186
0.000343311
0.000407814
0.00377193
0.00706396
0.00948221
0.0113327
0.0127678
0.0138509
0.0146542
0.0152623
0.0157141
0.0160318
0.0162422
0.0163954
0.0165568
0.0166495
0.016576
0.016289
0.0158579
0.0153402
0.014749
0.0140908
0.0133778
0.0126164
0.0117938
0.0108583
0.00970176
0.00814565
0.00601072
0.00314161
0.000331254
0.000394447
0.00358463
0.00677346
0.0091399
0.0109232
0.012271
0.0132599
0.0139715
0.0145057
0.0149135
0.0152225
0.0154814
0.0157403
0.0159708
0.0160983
0.0160423
0.0157957
0.0154148
0.0149385
0.0143806
0.0137499
0.0130591
0.0123151
0.011506
0.0105724
0.00940019
0.0078358
0.00573534
0.00298043
0.000320422
0.000383083
0.00341634
0.00650564
0.00884699
0.010596
0.0118748
0.012772
0.0133661
0.0137889
0.0141516
0.0144937
0.0148538
0.0152215
0.015503
0.0156348
0.0155863
0.0153808
0.0150558
0.0146334
0.0141236
0.0135333
0.0128711
0.0121396
0.0113202
0.0103517
0.00913673
0.00755499
0.00548615
0.00283478
0.000309966
0.000371536
0.00326219
0.00625739
0.00857869
0.0103209
0.0115839
0.0124573
0.01301
0.0133596
0.0136803
0.0140644
0.0145057
0.0149104
0.0151691
0.015277
0.0152288
0.0150543
0.0147741
0.0143999
0.0139358
0.0133837
0.0127447
0.0120137
0.0111678
0.0101566
0.00890329
0.0073088
0.00526876
0.00270736
0.000300233
0.000360173
0.00312277
0.00603379
0.00833217
0.010077
0.0113582
0.0122651
0.0128738
0.0132819
0.0136305
0.0140196
0.0144228
0.014752
0.0149495
0.0150231
0.014974
0.014819
0.014569
0.0142284
0.0137962
0.0132693
0.0126428
0.0119061
0.0110362
0.00999114
0.00870802
0.00710373
0.00508763
0.00260064
0.000291598
0.000349403
0.00300294
0.00584161
0.00812141
0.00988013
0.0111996
0.0121617
0.0128433
0.0133341
0.0137354
0.0141083
0.01444
0.0146904
0.0148377
0.0148826
0.0148286
0.0146829
0.0144497
0.014128
0.0137132
0.0131984
0.0125745
0.0118282
0.0109367
0.00986374
0.00855591
0.00694253
0.00494427
0.00251545
0.000284315
0.000340454
0.00288533
0.00568303
0.00796457
0.00975898
0.0111411
0.0121809
0.012943
0.0134982
0.013924
0.0142734
0.0145446
0.0147391
0.0148451
0.0148646
0.0147997
0.0146529
0.0144235
0.014107
0.013696
0.0131811
0.0125509
0.0117903
0.0108772
0.00977868
0.00844838
0.00682493
0.00483772
0.00245128
0.000278525
0.000333136
0.00279319
0.00557472
0.00788771
0.00975296
0.0112302
0.0123762
0.0132291
0.0138317
0.0142523
0.0145622
0.0147772
0.0149208
0.0149863
0.0149764
0.0148922
0.0147328
0.0144942
0.0141696
0.0137496
0.0132235
0.0125785
0.0117984
0.0108616
0.00973781
0.00838492
0.00674891
0.0047654
0.00240652
0.000274293
0.000327014
0.00273738
0.00554722
0.00793796
0.00991624
0.0115079
0.0127303
0.0136377
0.0142773
0.0147122
0.0149857
0.015152
0.0152433
0.0152646
0.0152186
0.0151052
0.0149214
0.0146612
0.0143159
0.0138752
0.0133275
0.0126597
0.0118548
0.0108916
0.00974117
0.0083642
0.00671174
0.00472416
0.00237871
0.000271705
0.000323361
0.00274582
0.00565892
0.00816236
0.0102435
0.0119022
0.0131853
0.0141342
0.0148272
0.015268
0.0155144
0.0156549
0.0156982
0.015671
0.0155816
0.0154296
0.0152109
0.0149182
0.014542
0.0140705
0.0134901
0.0127893
0.0119534
0.0109613
0.00978435
0.00838373
0.00671189
0.00471261
0.00236616
0.000270862
0.000323418
0.00280672
0.00587631
0.00852541
0.0106836
0.012329
0.0135718
0.0145327
0.0152811
0.0158238
0.0160983
0.0162077
0.0162167
0.0161503
0.0160184
0.0158219
0.0155577
0.0152201
0.0148018
0.014295
0.0136883
0.0129625
0.0120998
0.0110789
0.00987261
0.00844364
0.0067474
0.00472882
0.00236844
0.000271046
0.000327593
0.00301169
0.00635556
0.00910589
0.0111478
0.0126675
0.0138912
0.0148785
0.0156733
0.0163521
0.0167822
0.0168809
0.0168329
0.0167062
0.0165218
0.0162824
0.0159826
0.015614
0.0151664
0.0146272
0.0139826
0.0132181
0.0123177
0.0112606
0.0100192
0.00855616
0.00682655
0.00477623
0.00238574
0.000272346
0.000341702
0.00339585
0.00691574
0.00959333
0.0115373
0.0130777
0.0143227
0.01533
0.0161425
0.0168304
0.0173591
0.0175853
0.0175419
0.0173775
0.0171439
0.0168524
0.0164994
0.0160772
0.0155769
0.0149876
0.0142979
0.0134947
0.0125595
0.0114697
0.010197
0.00870292
0.00694049
0.00485411
0.00242275
0.000275767
0.000370954
0.00375618
0.00730949
0.00997673
0.0119504
0.0135317
0.0147834
0.0158073
0.0166441
0.0173209
0.0178856
0.0182074
0.018177
0.017995
0.0177282
0.0173954
0.0169997
0.0165361
0.0159957
0.0153685
0.0146434
0.0138064
0.0128393
0.0117194
0.0104171
0.00889206
0.00709427
0.00496499
0.00247922
0.000280751
0.000408763
0.00388172
0.00749284
0.0102168
0.0122795
0.0139256
0.0152241
0.0162731
0.0171312
0.0178218
0.0183971
0.0187676
0.0187727
0.0185827
0.0182952
0.0179341
0.017506
0.0170083
0.0164339
0.0157737
0.0150171
0.0141504
0.0131553
0.0120084
0.0106786
0.00912375
0.00728892
0.00511048
0.00255649
0.00028719
0.000427258
0.00387205
0.00750763
0.0103198
0.0124705
0.0142085
0.0155969
0.0167133
0.0176094
0.0183224
0.0188846
0.0192675
0.0193283
0.0191463
0.0188483
0.0184671
0.0180143
0.01749
0.0168883
0.0162007
0.0154174
0.0145251
0.0135057
0.0123349
0.01098
0.00939635
0.00752332
0.00529
0.00265446
0.000295315
0.000429453
0.00383058
0.00740727
0.010263
0.0125215
0.0143759
0.0158832
0.0170975
0.018062
0.0188186
0.0193809
0.0197948
0.0198862
0.0197045
0.0193952
0.0189982
0.0185269
0.0179827
0.01736
0.0166504
0.0158448
0.0149307
0.0138898
0.0126972
0.0113186
0.00970669
0.00779452
0.00550146
0.00277263
0.00030532
0.000431697
0.00363294
0.0071558
0.0101497
0.0125565
0.0145056
0.0161334
0.0174522
0.0184889
0.0192874
0.0198773
0.020312
0.0204519
0.0202679
0.0199444
0.0195338
0.0190488
0.0184906
0.0178525
0.0171255
0.0163012
0.0153677
0.014307
0.0130936
0.0116919
0.0100514
0.00809915
0.00574252
0.00291091
0.000317389
0.000427129
0.00342192
0.00703574
0.0102696
0.0128457
0.0148479
0.0164946
0.0178559
0.0189304
0.0197519
0.0203615
0.0207948
0.0209993
0.0208305
0.0204985
0.0200789
0.0195852
0.0190184
0.0183699
0.0176291
0.0167888
0.0158374
0.0147574
0.013523
0.0120976
0.0104276
0.0084341
0.00601077
0.00306918
0.000331611
0.000407272
0.0031
0.00711126
0.0106047
0.0133551
0.0154269
0.0170734
0.0183898
0.0194386
0.0202529
0.0208608
0.0212848
0.0215183
0.0213841
0.0210571
0.0206364
0.0201398
0.0195697
0.0189148
0.0181635
0.0173092
0.0163408
0.0152412
0.0139848
0.0125342
0.010833
0.00879605
0.00630215
0.00324074
0.000348265
0.000401136
0.00310035
0.00749831
0.0112179
0.0140646
0.0161813
0.0178086
0.0190451
0.0200277
0.0208098
0.0214043
0.021816
0.0220479
0.0219431
0.0216272
0.0212105
0.0207148
0.0201461
0.0194869
0.0187289
0.0178626
0.0168779
0.0157578
0.0144774
0.0129992
0.0112651
0.00918318
0.00661675
0.00342734
0.000367467
0.000416054
0.00358957
0.00829794
0.012103
0.0149227
0.0170288
0.0186171
0.0197678
0.0206809
0.0214203
0.0219995
0.0224024
0.0226173
0.0225262
0.0222197
0.021807
0.0213097
0.0207394
0.0200814
0.0193229
0.0184476
0.0174469
0.0163049
0.0149979
0.0134893
0.0117206
0.00959381
0.0069567
0.00363374
0.000389329
0.000455749
0.00435865
0.00929686
0.0130221
0.0158047
0.0179026
0.0194213
0.0205111
0.0213781
0.0220861
0.0226488
0.023043
0.0232317
0.023142
0.0228426
0.0224327
0.021931
0.0213461
0.020697
0.0199432
0.0190613
0.0180444
0.0168782
0.015541
0.0139987
0.0121938
0.0100245
0.0073227
0.00386435
0.000413538
0.000528072
0.00488376
0.00994414
0.0137117
0.0166372
0.0187353
0.0202079
0.0212864
0.022128
0.0228117
0.0233563
0.0237426
0.0239059
0.0238023
0.0235024
0.0230925
0.022588
0.021996
0.021345
0.020592
0.0197015
0.0186651
0.0174707
0.0160994
0.0145191
0.0126768
0.0104702
0.00771155
0.00411954
0.000440984
0.000608695
0.00527493
0.0102368
0.0143225
0.0174676
0.0195739
0.0210466
0.0221354
0.0229556
0.0236092
0.0241239
0.0244973
0.024642
0.0245116
0.0242002
0.0237863
0.0232826
0.0226947
0.0220341
0.0212708
0.0203634
0.0193009
0.0180727
0.0166637
0.0150403
0.0131575
0.0109192
0.00812313
0.00440767
0.000474074
0.000641132
0.00550777
0.0105726
0.0150498
0.0184006
0.0205457
0.022001
0.0230881
0.0238875
0.0244962
0.0249589
0.0253013
0.0254315
0.0252636
0.0249292
0.0245059
0.0240043
0.0234209
0.0227522
0.0219692
0.0210351
0.0199381
0.0186731
0.0172191
0.0155477
0.0136257
0.011369
0.00854872
0.00473702
0.000510761
0.000646276
0.00556255
0.010922
0.0157659
0.0192522
0.0215642
0.0230844
0.0241558
0.0249478
0.0254992
0.0258828
0.0261574
0.0262689
0.0260495
0.0256769
0.0252372
0.0247383
0.0241571
0.0234762
0.0226663
0.0216972
0.0205586
0.0192526
0.0177483
0.0160262
0.0140769
0.0118107
0.00898808
0.00506502
0.000566
0.000649479
0.005602
0.0112986
0.0163644
0.019909
0.0224155
0.0242226
0.0253708
0.026169
0.0266522
0.0269345
0.0271029
0.0271492
0.0268605
0.0264261
0.025965
0.0254688
0.0248842
0.0241818
0.0233368
0.0223267
0.0211406
0.0197876
0.0182261
0.0164596
0.0144794
0.0122446
0.00959139
0.00555732
0.000659438
0.000659734
0.00583178
0.0118448
0.0169338
0.0204893
0.0231236
0.0252669
0.02671
0.0275739
0.0280124
0.0281544
0.0281428
0.0280599
0.0276918
0.027168
0.026677
0.0261827
0.0255885
0.0248475
0.0239584
0.0229021
0.021663
0.0202537
0.018627
0.0167999
0.0148101
0.0125329
0.0098253
0.0057197
0.000720773
0.000673552
0.00632626
0.0125793
0.0175855
0.0211615
0.0239046
0.0261954
0.0279692
0.0290259
0.0294067
0.0294376
0.0293375
0.0290624
0.0284883
0.0278632
0.0273466
0.0268539
0.0262374
0.0254461
0.0245104
0.0234056
0.0221085
0.020634
0.0189254
0.0170159
0.0149256
0.0125913
0.00973746
0.00561124
0.000718594
0.000703764
0.00685453
0.0133064
0.0182959
0.0219269
0.0247214
0.027061
0.0289537
0.030214
0.0307629
0.0308019
0.0305914
0.0300366
0.0292316
0.0284652
0.0279232
0.0274259
0.0267837
0.0259509
0.0249739
0.0238222
0.0224659
0.0209224
0.0191294
0.0171406
0.0149387
0.0125356
0.00963035
0.00547177
0.000697258
0.00076104
0.00721268
0.0138831
0.0189674
0.0226551
0.0254638
0.0277546
0.029585
0.0307258
0.0312241
0.031233
0.03105
0.0304531
0.0296029
0.0288524
0.0283245
0.0278398
0.0271811
0.0263334
0.0253298
0.0241385
0.0227274
0.0211153
0.019233
0.0171423
0.0149127
0.0125259
0.00962363
0.00540422
0.000672879
0.00078817
0.00749834
0.0143627
0.0195201
0.0232456
0.0260187
0.028173
0.0298009
0.0308388
0.0313248
0.0312728
0.0309861
0.0303294
0.0295972
0.0290185
0.0285626
0.0280669
0.0273832
0.0265661
0.0255614
0.0243462
0.0228956
0.021224
0.0192758
0.017136
0.0149526
0.0126088
0.00965297
0.00537234
0.000656715
0.000801494
0.00775975
0.0147493
0.0199059
0.0236266
0.0262898
0.0282377
0.0297143
0.0307158
0.0311543
0.0310207
0.0306106
0.0299965
0.0294238
0.0289582
0.0285736
0.0281185
0.0274653
0.0266697
0.0256756
0.0244512
0.0229814
0.0212692
0.0192842
0.0171737
0.0150717
0.0127368
0.00965302
0.00533152
0.000646453
0.000821456
0.00796396
0.0149825
0.0200432
0.023676
0.0262153
0.0280492
0.0294173
0.030327
0.0306706
0.0304524
0.0300132
0.0295202
0.0291092
0.0287362
0.0283564
0.0280216
0.0274252
0.0266556
0.0256819
0.0244659
0.0229982
0.0212638
0.0192841
0.0172842
0.0152364
0.0128161
0.00958897
0.00522921
0.000635046
0.000838826
0.00799133
0.0149672
0.0199349
0.0234431
0.0258748
0.0275815
0.0288077
0.0295708
0.0298763
0.0296629
0.0292313
0.0289315
0.0286466
0.0283583
0.0281769
0.0278539
0.0272729
0.0265451
0.0255975
0.0244125
0.0229667
0.0212332
0.0193195
0.0174411
0.0154065
0.0128434
0.00947322
0.00509207
0.000623518
0.000842674
0.00787193
0.0147134
0.0195548
0.0229313
0.0252758
0.0268821
0.0279962
0.0286385
0.0289286
0.0288898
0.0284969
0.0282395
0.0282019
0.0281291
0.0279589
0.0276613
0.0270689
0.0263591
0.0254491
0.024318
0.0228933
0.0211826
0.0194167
0.0176297
0.0155181
0.0127804
0.00930254
0.00492341
0.000610839
0.000837558
0.00756457
0.014171
0.0189022
0.0221894
0.0244771
0.0260235
0.0270151
0.0276214
0.0279347
0.0280597
0.027985
0.0278274
0.027831
0.0278271
0.027708
0.0273987
0.0268187
0.0261329
0.0252734
0.024203
0.0228064
0.0211906
0.0195952
0.0178355
0.0155827
0.0126906
0.00911886
0.00475997
0.000597438
0.000822806
0.00715113
0.0134726
0.0180725
0.0212806
0.0235115
0.0250095
0.0259474
0.0265407
0.0268992
0.027122
0.0272495
0.0272903
0.0273841
0.0274351
0.0273419
0.0270399
0.0265402
0.0259071
0.0251043
0.024075
0.0227395
0.0213154
0.0198394
0.0180099
0.0156191
0.0126231
0.00897918
0.00462324
0.000583422
0.000799862
0.00672742
0.0127098
0.0171423
0.0202648
0.0224277
0.0238609
0.024783
0.0253878
0.0257987
0.0260982
0.0263308
0.0265362
0.0267501
0.0268777
0.0268413
0.0265955
0.0262177
0.0256553
0.0249391
0.0239581
0.0227766
0.0215749
0.020118
0.0181921
0.0157092
0.0126497
0.00894818
0.00455364
0.000570417
0.000774474
0.00631589
0.011947
0.0161763
0.019177
0.0212407
0.0226155
0.0235237
0.0241708
0.0246423
0.0250157
0.0253256
0.0256269
0.0259672
0.0262079
0.0262498
0.0261064
0.0258374
0.0253988
0.0247656
0.023916
0.0229834
0.0218807
0.0203901
0.0183936
0.0158804
0.0127966
0.00905283
0.00459532
0.000561204
0.000748641
0.00594544
0.0112314
0.0152169
0.0180365
0.0199684
0.0212775
0.0221991
0.0229011
0.0234553
0.0239059
0.0242794
0.0246359
0.0250747
0.0254359
0.0255666
0.0255716
0.0254342
0.0251329
0.0246458
0.024009
0.0232832
0.0221843
0.0206702
0.0186411
0.01613
0.0130469
0.00927153
0.00472187
0.000556017
0.000724261
0.00563515
0.0105838
0.0142702
0.0168444
0.0186152
0.0198645
0.0208285
0.0216085
0.0222609
0.0227947
0.0232289
0.0236175
0.0241068
0.0245681
0.0248337
0.0249986
0.0250219
0.0248927
0.0245833
0.0242103
0.0235443
0.0224632
0.0209243
0.0189129
0.0164242
0.013357
0.00955892
0.0048959
0.000556021
0.000702749
0.00539047
0.00998977
0.0133071
0.0155872
0.0171883
0.0184106
0.0194335
0.0203205
0.021073
0.0216897
0.0221979
0.022613
0.0231174
0.0236576
0.0240751
0.0244148
0.0246323
0.024703
0.0246117
0.0243802
0.0237306
0.0226874
0.0211452
0.0191767
0.0167224
0.0136723
0.00983731
0.00507506
0.000558155
0.000685453
0.0051866
0.00938643
0.0122771
0.0142516
0.0157123
0.0169502
0.0180595
0.0190443
0.0199073
0.0206065
0.0211712
0.0216405
0.0221246
0.0227475
0.0233193
0.0238607
0.0242658
0.0245516
0.0246535
0.0244884
0.0238821
0.0228628
0.0213552
0.0194257
0.0170046
0.0139634
0.0101032
0.00523156
0.000563513
0.000670785
0.00496485
0.00868384
0.0111312
0.0128495
0.0142432
0.015526
0.0167253
0.0178123
0.0187623
0.0195394
0.0201675
0.0207055
0.0211565
0.0218388
0.0225838
0.0233123
0.0239173
0.0244148
0.0246741
0.0245927
0.0240405
0.0230196
0.021558
0.0196635
0.0172635
0.0142276
0.0103287
0.00536586
0.000571223
0.000657694
0.00464948
0.00781287
0.00986983
0.0114337
0.0128341
0.0141828
0.0154677
0.0166417
0.0176552
0.0185028
0.0192157
0.0198391
0.0203402
0.0209325
0.0218471
0.0227649
0.0235841
0.0242892
0.0247319
0.0247427
0.0242161
0.02319
0.0217457
0.0198709
0.0174916
0.0144532
0.010507
0.00545323
0.00057877
0.000638032
0.00407582
0.00673045
0.00854997
0.0100775
0.0115335
0.0129595
0.0143165
0.0155469
0.0166125
0.0175253
0.0183312
0.0190652
0.0196931
0.0201864
0.0210979
0.0222349
0.0232949
0.0242149
0.0248812
0.0249081
0.0243675
0.0233455
0.0219348
0.0200832
0.0177032
0.0146447
0.0106498
0.00551002
0.000585343
0.000610859
0.00323665
0.0055355
0.00727244
0.00884508
0.010372
0.0118618
0.0132715
0.0145456
0.0156569
0.0166295
0.0175159
0.0183506
0.0191183
0.0197758
0.0204978
0.0217505
0.023098
0.024293
0.025019
0.0249825
0.0244371
0.0234383
0.0220669
0.0202534
0.0178959
0.0148175
0.0107562
0.00554309
0.000590725
0.00057282
0.00237132
0.00440633
0.00614046
0.00777049
0.00935239
0.0108882
0.0123363
0.013645
0.0147986
0.015827
0.0167793
0.017687
0.0185702
0.0194247
0.0202745
0.0214894
0.0230325
0.0243407
0.0249567
0.0248779
0.0243611
0.02342
0.0221156
0.020363
0.0180345
0.01495
0.0108407
0.00556131
0.000594867
0.000527253
0.00176056
0.00353876
0.00523587
0.00688295
0.00848995
0.0100479
0.0115155
0.0128464
0.014034
0.0151058
0.016103
0.0170658
0.0180541
0.019023
0.0200695
0.0213687
0.0229603
0.0241891
0.0246845
0.0245991
0.0241453
0.0232963
0.0220804
0.0203964
0.0181235
0.0150537
0.010914
0.00557646
0.000597905
0.000479711
0.00139645
0.00296196
0.00458519
0.00620576
0.00779547
0.00933807
0.0107968
0.0121312
0.0133363
0.0144332
0.0154625
0.0164862
0.0175247
0.0185732
0.0197558
0.0212169
0.0227999
0.0239123
0.0243288
0.0242519
0.0238426
0.0231134
0.0219761
0.0203771
0.018163
0.0151286
0.0109845
0.00560311
0.000600341
0.00043343
0.0011799
0.00260496
0.00416024
0.00572529
0.00725561
0.00874544
0.010166
0.0114811
0.0126935
0.0138053
0.0148726
0.0159358
0.0170052
0.0181152
0.0193842
0.0209148
0.0225144
0.0235872
0.023951
0.0238911
0.0235293
0.0228958
0.0218313
0.0203059
0.0181584
0.0151772
0.0110581
0.00565386
0.000603371
0.00039
0.0010623
0.00242399
0.00392031
0.00540385
0.00684567
0.00825813
0.0096208
0.0109069
0.0121104
0.0132376
0.0143384
0.0154371
0.016537
0.0176791
0.0190048
0.0206469
0.022244
0.0232202
0.0235624
0.023533
0.0232277
0.0226511
0.0216823
0.0202131
0.0181322
0.0152028
0.0111329
0.00572768
0.000608347
0.000351733
0.00104866
0.00238851
0.00380704
0.00518499
0.00652883
0.0078572
0.00915437
0.0104097
0.0115935
0.0127411
0.0138793
0.0150117
0.0161317
0.017291
0.0187006
0.0203864
0.0219529
0.0228694
0.0231814
0.0231807
0.0229313
0.0224043
0.0215282
0.0201239
0.0181035
0.0152298
0.0112109
0.00581235
0.000615259
0.000320801
0.00113009
0.00242013
0.00374351
0.0050269
0.00627153
0.0075223
0.0087631
0.00997422
0.0111527
0.0123281
0.0135043
0.0146588
0.0157813
0.0169844
0.0184256
0.0201723
0.0216942
0.0225173
0.0228069
0.0228313
0.022636
0.0221618
0.0213594
0.0200565
0.018089
0.0152715
0.0112929
0.00589378
0.000623763
0.000297838
0.00122501
0.00245534
0.00369118
0.00488517
0.00605298
0.00724131
0.00842803
0.00960593
0.0107918
0.0119955
0.0131987
0.0143651
0.0154979
0.0167143
0.0182232
0.0200277
0.0214797
0.0222008
0.0224628
0.0224972
0.0223257
0.0219111
0.0211697
0.0199961
0.0180907
0.0153195
0.0113765
0.00596092
0.000632237
0.000278996
0.00128593
0.00247605
0.00363634
0.00475002
0.00585378
0.00699328
0.00814095
0.00930765
0.0105048
0.0117256
0.0129341
0.0140889
0.0152382
0.0165093
0.018127
0.0199835
0.0213503
0.0219451
0.0221737
0.0221787
0.0219958
0.0216202
0.0209805
0.0199166
0.0181206
0.0154085
0.0114756
0.00602374
0.000641106
0.000263774
0.00131278
0.0024837
0.00357412
0.00461465
0.00566556
0.00677244
0.00790346
0.00907214
0.0102787
0.0115015
0.0126993
0.0138434
0.0150123
0.0163807
0.0181497
0.0200407
0.0212868
0.0217656
0.0219224
0.0218696
0.0216395
0.0212599
0.0206811
0.0197464
0.0181462
0.0155335
0.0115952
0.0060882
0.00064983
0.000251174
0.00132573
0.00247552
0.00349721
0.00447595
0.0054886
0.00658262
0.0077141
0.00889114
0.0100998
0.0113096
0.0124799
0.0136248
0.0148447
0.016357
0.0182985
0.0201779
0.0212522
0.0216146
0.0216909
0.0215369
0.021222
0.0207736
0.0202289
0.0194249
0.0180563
0.0156105
0.0117126
0.00615678
0.000658849
0.000240365
0.00131884
0.00244122
0.00340065
0.00433426
0.00532635
0.00642604
0.00756929
0.00875463
0.00995648
0.0111438
0.0122978
0.01345
0.0147592
0.0164482
0.0185246
0.020315
0.0211817
0.0214383
0.021442
0.0211767
0.0207429
0.0201739
0.0195941
0.0189145
0.0177668
0.0155868
0.0118322
0.00622893
0.000667736
0.000230473
0.00127817
0.00237006
0.00328285
0.00419059
0.00518132
0.00630313
0.00746357
0.00865129
0.00983723
0.0109991
0.012142
0.0133429
0.0147813
0.0166534
0.0187952
0.0203962
0.0210112
0.0211918
0.0211397
0.0207743
0.0202062
0.0194844
0.0188144
0.0181502
0.0172262
0.0154022
0.0118966
0.00629208
0.000678063
0.000220411
0.00119413
0.00225978
0.00314628
0.00404737
0.00505807
0.00621537
0.00739079
0.00857028
0.00972823
0.0108744
0.0120315
0.0133173
0.0149297
0.0169822
0.0190733
0.0203571
0.020764
0.0208964
0.0207951
0.0203343
0.0196067
0.0187196
0.0178714
0.0172049
0.0164495
0.0149632
0.0118362
0.00634053
0.000687599
0.000209379
0.00108134
0.0021186
0.0029973
0.00391059
0.00496407
0.00616204
0.00734265
0.00850045
0.00963885
0.0107788
0.011988
0.0134043
0.0152211
0.0173778
0.0192581
0.020154
0.0203925
0.0204719
0.0203216
0.0198039
0.0189522
0.0179202
0.0168779
0.0160984
0.0153805
0.0142262
0.0115819
0.00633095
0.000699661
0.000197175
0.000963809
0.0019634
0.00284765
0.00379322
0.00490419
0.00613577
0.00730763
0.0084449
0.00956862
0.0107333
0.0120292
0.0136216
0.0156259
0.0177736
0.019307
0.0198377
0.0199897
0.0200215
0.0198128
0.019224
0.0182835
0.0171192
0.0158821
0.0148873
0.0141484
0.0131778
0.0110169
0.00623478
0.000707814
0.000183891
0.00085328
0.00181162
0.00271239
0.00370812
0.00488266
0.00613002
0.00728597
0.00840793
0.00954558
0.0107692
0.0121932
0.0139879
0.0161259
0.0181119
0.0191846
0.01946
0.0195651
0.0195453
0.0192732
0.0186115
0.0176155
0.0163444
0.0149402
0.0137171
0.0128099
0.0119464
0.0100915
0.00597653
0.000717205
0.000169666
0.000753666
0.00167884
0.00261183
0.00367475
0.00491005
0.00613794
0.00728254
0.00841089
0.00959382
0.0109137
0.0125146
0.0145051
0.0166624
0.018301
0.0189182
0.0190656
0.0191367
0.0190628
0.0187261
0.0179922
0.0169583
0.015615
0.0140948
0.0126618
0.0115081
0.0103975
0.00899832
0.00541136
0.000715941
0.000154756
0.00066759
0.00157998
0.002572
0.00371961
0.0049797
0.00617316
0.00731443
0.0084742
0.00973237
0.011193
0.0130022
0.0151353
0.0171483
0.0182855
0.0185779
0.0186765
0.0187146
0.0185884
0.0181895
0.0174024
0.0163229
0.0149305
0.0133634
0.0117421
0.0102588
0.00896019
0.00759668
0.00455841
0.000709335
0.000139487
0.000596057
0.00153574
0.0026257
0.0038579
0.00510802
0.00626949
0.00741675
0.0086276
0.0099928
0.0116279
0.0136243
0.0157905
0.0174556
0.0180809
0.0182188
0.018299
0.0183048
0.0181309
0.0176775
0.0168547
0.015724
0.0142966
0.0126959
0.0109722
0.00919005
0.00754267
0.0059657
0.00347867
0.000692435
0.000124449
0.000546268
0.00158397
0.0028132
0.0040477
0.00525976
0.00641984
0.00760069
0.00888945
0.0103844
0.0122068
0.0143332
0.01635
0.0174884
0.0177744
0.0178659
0.0179322
0.0179067
0.0176917
0.0171954
0.0163488
0.0151808
0.0137229
0.0121051
0.0103437
0.00834445
0.00633107
0.0045272
0.00246868
0.000656522
0.000110187
0.00054164
0.00176827
0.00304337
0.00428925
0.00546763
0.00664212
0.0078778
0.00926303
0.0108973
0.0128663
0.0150124
0.016684
0.0173008
0.0174398
0.0175217
0.0175729
0.0175187
0.0172713
0.0167457
0.0158883
0.0147049
0.0132342
0.011579
0.00979459
0.00772605
0.00548625
0.00350213
0.00171015
0.000606562
9.8551e-05
0.000639065
0.00202867
0.00333388
0.00454588
0.00572367
0.00693797
0.00824559
0.00974061
0.0115126
0.0135568
0.0155366
0.016716
0.0170112
0.0171052
0.0171833
0.0172194
0.0171413
0.0168706
0.0163301
0.0154765