/*--------------------------------*- C++ -*----------------------------------*\
| =========                 |                                                 |
| \\      /  F ield         | OpenFOAM: The Open Source CFD Toolbox           |
|  \\    /   O peration     | Version:  v1606+                                |
|   \\  /    A nd           | Web:      www.OpenFOAM.com                      |
|    \\/     M anipulation  |                                                 |
\*---------------------------------------------------------------------------*/
FoamFile
{
    version     2.0;
    format      ascii;
    class       volScalarField;
    location    "1.12";
    object      nut.particles;
}
// * * * * * * * * * * * * * * * * * * * * * * * * * * * * * * * * * * * * * //

dimensions      [0 2 -1 0 0 0 0];

internalField   nonuniform List<scalar> 
6000
(
1.54042e-05
1.32014e-05
1.3501e-05
1.34814e-05
1.27808e-05
1.19257e-05
1.01923e-05
8.75241e-06
9.64709e-06
9.93691e-06
1.03775e-05
1.05385e-05
1.06663e-05
1.09318e-05
1.07186e-05
1.04627e-05
1.03175e-05
9.55979e-06
8.89109e-06
8.73544e-06
8.53443e-06
9.11534e-06
1.15623e-05
1.24471e-05
1.28866e-05
1.31046e-05
1.2994e-05
1.25414e-05
1.25708e-05
1.45075e-05
9.51605e-06
1.00346e-05
9.74589e-06
9.77838e-06
8.42355e-06
6.38494e-06
5.57601e-06
5.54373e-06
5.36552e-06
5.42043e-06
5.50508e-06
5.58464e-06
5.62498e-06
5.58989e-06
5.62973e-06
5.60628e-06
5.50638e-06
5.46423e-06
5.51429e-06
5.57225e-06
5.65067e-06
5.72801e-06
5.80647e-06
7.28354e-06
8.65909e-06
9.42441e-06
9.73799e-06
9.96929e-06
1.01333e-05
9.45126e-06
7.06976e-06
8.46088e-06
9.53038e-06
1.15032e-05
1.42625e-05
1.20858e-05
9.51576e-06
7.77399e-06
8.83984e-06
9.13642e-06
9.23388e-06
9.76701e-06
1.08331e-05
1.28156e-05
1.47548e-05
1.5311e-05
1.43211e-05
1.21758e-05
1.10396e-05
1.03573e-05
9.70792e-06
9.73793e-06
1.18864e-05
1.4389e-05
1.47971e-05
1.25529e-05
1.12074e-05
9.14441e-06
8.06359e-06
7.16429e-06
3.37718e-06
3.37114e-06
3.76324e-06
4.43044e-06
6.69391e-06
1.14315e-05
1.25366e-05
1.11392e-05
1.2531e-05
1.39623e-05
1.5023e-05
1.66407e-05
1.94679e-05
2.27126e-05
2.42486e-05
2.40979e-05
2.24362e-05
1.97637e-05
1.69923e-05
1.52754e-05
1.45879e-05
1.45672e-05
1.5953e-05
1.14388e-05
6.73634e-06
5.22982e-06
4.63373e-06
3.85808e-06
3.43976e-06
3.54811e-06
2.98813e-06
2.85508e-06
2.98854e-06
3.2252e-06
3.46697e-06
5.96811e-06
1.28058e-05
1.40356e-05
1.47632e-05
1.6342e-05
1.99809e-05
2.55388e-05
2.90765e-05
2.26067e-05
1.76904e-05
1.62573e-05
1.93669e-05
2.75326e-05
2.61962e-05
2.26734e-05
1.90805e-05
1.75861e-05
1.38728e-05
5.7828e-06
3.57104e-06
3.11495e-06
2.85596e-06
2.67012e-06
2.58207e-06
2.80917e-06
2.73355e-06
2.6444e-06
2.7964e-06
2.99966e-06
3.30968e-06
3.91837e-06
9.76284e-06
1.53155e-05
1.76525e-05
2.23608e-05
2.66771e-05
1.52364e-05
6.78102e-06
3.53878e-06
2.90376e-06
2.80539e-06
3.28765e-06
4.9078e-06
9.6504e-06
1.63839e-05
2.29131e-05
1.96336e-05
6.98963e-06
3.89393e-06
3.28674e-06
2.91884e-06
2.8193e-06
2.80916e-06
2.76135e-06
3.06348e-06
3.51758e-06
3.19662e-06
3.15716e-06
3.07347e-06
3.23197e-06
4.00538e-06
7.90874e-06
1.89317e-05
2.26427e-05
1.97684e-05
5.72959e-06
2.16072e-06
1.45568e-06
1.3255e-06
1.14951e-06
1.21363e-06
1.33225e-06
1.53581e-06
1.91694e-06
2.65552e-06
4.69146e-06
6.15053e-06
4.27089e-06
3.53922e-06
3.55823e-06
3.61625e-06
3.88438e-06
4.08388e-06
3.95379e-06
4.67675e-06
5.68122e-06
4.94297e-06
4.70898e-06
4.17426e-06
3.71616e-06
4.44231e-06
6.69918e-06
1.41997e-05
1.00277e-05
2.6508e-06
1.34664e-06
1.14658e-06
1.06972e-06
1.09425e-06
1.19591e-06
1.30097e-06
1.37432e-06
1.37838e-06
1.26709e-06
1.29262e-06
1.44383e-06
2.12407e-06
2.72454e-06
3.11778e-06
4.1645e-06
5.56859e-06
6.04374e-06
6.16118e-06
5.66901e-06
7.08491e-06
8.44556e-06
7.03517e-06
7.52703e-06
6.93988e-06
5.36825e-06
4.78638e-06
4.34563e-06
3.61094e-06
1.9614e-06
1.16167e-06
1.10082e-06
1.09083e-06
1.13382e-06
1.45472e-06
1.84767e-06
1.98846e-06
1.97371e-06
1.72629e-06
1.38416e-06
1.25268e-06
1.1825e-06
1.52603e-06
1.90818e-06
2.47078e-06
4.17275e-06
7.2996e-06
8.28846e-06
7.94964e-06
7.10913e-06
9.05539e-06
1.04149e-05
8.39676e-06
9.53374e-06
9.37195e-06
6.63436e-06
4.48154e-06
2.72248e-06
1.62954e-06
1.21808e-06
1.14006e-06
1.1176e-06
1.20562e-06
1.68063e-06
2.19297e-06
2.95188e-06
2.90572e-06
2.73926e-06
2.25911e-06
1.63472e-06
1.25716e-06
1.21854e-06
1.41944e-06
1.58547e-06
1.90782e-06
3.42987e-06
6.89684e-06
8.39784e-06
8.45867e-06
7.98608e-06
1.00452e-05
1.63856e-05
8.88664e-06
9.18939e-06
8.31968e-06
5.97091e-06
4.24276e-06
2.24208e-06
1.33913e-06
1.23246e-06
1.19182e-06
1.31385e-06
1.84401e-06
2.65589e-06
2.9411e-06
4.03613e-06
3.68121e-06
3.36055e-06
2.74571e-06
1.90338e-06
1.24457e-06
1.21666e-06
1.35258e-06
1.4642e-06
1.66243e-06
2.90863e-06
5.52342e-06
7.75097e-06
8.02854e-06
8.41323e-06
1.24239e-05
9.42952e-05
8.96855e-06
8.5255e-06
6.5684e-06
5.43874e-06
4.84649e-06
2.22022e-06
1.28465e-06
1.25258e-06
1.21145e-06
1.48576e-06
3.25661e-06
4.31363e-06
4.11656e-06
5.03059e-06
4.75976e-06
4.62564e-06
3.67146e-06
2.21258e-06
1.22227e-06
1.18948e-06
1.29092e-06
1.33345e-06
1.5767e-06
2.95479e-06
4.90171e-06
6.98893e-06
7.28224e-06
8.36152e-06
4.42425e-05
0.000323463
9.21354e-06
7.18459e-06
6.36787e-06
6.1796e-06
5.80451e-06
2.25976e-06
1.25615e-06
1.23225e-06
1.20217e-06
1.57564e-06
5.82256e-06
7.37645e-06
6.20597e-06
6.67083e-06
7.62443e-06
8.48406e-06
6.96162e-06
3.13299e-06
1.29043e-06
1.12663e-06
1.20754e-06
1.2413e-06
1.53876e-06
4.02816e-06
6.14597e-06
6.02968e-06
6.63019e-06
8.40816e-06
0.000172175
0.00090685
6.40719e-05
8.74693e-06
9.10922e-06
9.6684e-06
7.09421e-06
2.52263e-06
1.257e-06
1.19505e-06
1.2226e-06
1.72122e-06
6.67617e-06
5.6401e-05
1.07378e-05
5.51513e-05
0.000685295
0.000997328
0.000224277
6.69741e-06
2.12612e-06
1.16244e-06
1.19137e-06
1.24019e-06
1.97176e-06
6.54915e-06
1.18222e-05
8.86016e-06
8.75284e-06
4.31609e-05
0.000573693
0.00208289
0.00114508
0.00119655
0.00179209
0.00107681
1.05762e-05
3.68045e-06
1.52518e-06
1.35195e-06
1.47667e-06
2.41528e-06
7.21342e-06
0.000737322
0.00138337
0.00183321
0.0018393
0.00183428
0.00183335
0.000368634
6.89318e-06
2.14902e-06
1.66523e-06
1.80482e-06
3.90377e-06
1.14557e-05
0.00119203
0.00176669
0.00140212
0.000829309
0.00130146
0.00272008
0.0030007
0.00300023
0.00298956
0.0029834
0.000837511
7.47769e-06
3.39035e-06
2.73041e-06
3.03705e-06
4.43024e-06
8.97424e-06
2.38325e-05
0.00182982
0.00183895
0.00182917
1.7797e-05
2.1599e-05
2.39319e-05
1.78965e-05
8.24703e-06
4.67654e-06
5.05767e-06
1.13753e-05
0.000948686
0.0018692
0.00186822
0.00186886
0.00186351
0.00131783
0.00271523
0.00299495
0.00162331
1.48027e-05
1.81006e-05
2.91082e-05
2.30472e-05
1.23379e-05
8.03769e-06
8.46219e-06
8.97801e-06
9.84845e-06
4.55378e-06
1.4413e-05
0.000302165
4.81528e-06
1.92439e-06
2.17977e-06
3.33386e-06
6.35625e-06
1.00485e-05
9.48387e-06
1.20225e-05
1.73168e-05
1.5892e-05
1.17327e-05
1.2018e-05
0.000687891
0.00140844
0.00132694
0.00206297
0.00206352
5.63353e-06
1.2624e-06
1.50585e-06
3.50292e-06
1.04083e-05
1.13948e-05
9.15153e-06
9.51737e-06
8.91436e-06
2.92905e-06
9.43367e-07
1.87826e-06
4.21515e-06
2.06982e-06
9.72573e-07
8.22339e-07
9.03684e-07
1.16423e-06
2.26975e-06
3.28097e-06
4.0524e-06
3.09512e-06
1.56872e-06
1.16035e-06
1.16028e-06
4.38348e-06
0.00120316
0.00234885
0.00131216
1.43786e-05
9.73037e-07
5.88377e-07
6.01882e-07
6.99133e-07
1.16083e-06
1.86381e-06
2.24244e-06
2.34251e-06
1.84407e-06
8.65175e-07
6.18776e-07
7.09757e-07
1.992e-06
2.89064e-06
1.25139e-06
8.44414e-07
7.71598e-07
7.93578e-07
8.48341e-07
9.51344e-07
9.31158e-07
7.7226e-07
7.00523e-07
6.42873e-07
7.01191e-07
9.47848e-07
5.82756e-06
0.0020105
0.00100254
4.07916e-06
6.83965e-07
5.72873e-07
5.80553e-07
5.75118e-07
5.68324e-07
6.17551e-07
6.61039e-07
7.15351e-07
6.96143e-07
6.29598e-07
5.59306e-07
6.16778e-07
1.59884e-06
3.13272e-06
1.69623e-06
9.81576e-07
8.32342e-07
7.70977e-07
7.39098e-07
7.07181e-07
6.8331e-07
6.72722e-07
6.75742e-07
7.14008e-07
8.41411e-07
1.26357e-06
2.60173e-06
1.02002e-05
2.8939e-05
2.40998e-06
8.51046e-07
6.6496e-07
6.5953e-07
6.29753e-07
5.74559e-07
5.4065e-07
5.59e-07
5.79964e-07
5.9627e-07
5.78208e-07
5.47044e-07
6.26727e-07
1.50173e-06
3.15006e-06
2.08508e-06
1.36024e-06
1.08013e-06
9.43193e-07
8.77351e-07
8.17688e-07
7.87111e-07
7.98494e-07
8.73261e-07
1.08405e-06
1.63494e-06
2.78923e-06
4.78714e-06
7.3542e-06
8.34259e-06
4.15737e-06
1.8113e-06
1.04696e-06
8.82703e-07
8.2439e-07
6.97361e-07
5.50307e-07
5.60829e-07
5.78158e-07
5.71289e-07
5.59458e-07
5.91566e-07
8.17873e-07
1.70301e-06
4.04357e-06
3.41394e-06
2.3842e-06
1.93416e-06
1.66462e-06
1.43533e-06
1.28197e-06
1.21985e-06
1.30407e-06
1.63429e-06
2.52246e-06
4.47319e-06
7.75847e-06
1.07722e-05
1.08911e-05
1.14865e-05
1.02726e-05
5.24871e-06
2.67885e-06
1.83003e-06
1.53505e-06
1.1187e-06
7.47041e-07
5.99599e-07
5.82495e-07
5.77826e-07
6.30086e-07
8.70179e-07
1.70535e-06
4.01461e-06
6.42567e-06
5.67472e-06
4.65249e-06
3.99209e-06
3.52003e-06
3.12215e-06
2.86552e-06
2.81135e-06
3.21891e-06
4.5967e-06
7.82309e-06
1.25366e-05
0.000111853
0.000594349
0.00048634
0.000185517
0.000402636
1.48082e-05
9.27192e-06
5.97159e-06
4.16481e-06
2.49263e-06
1.36091e-06
9.0005e-07
7.26839e-07
7.33946e-07
1.0633e-06
2.27499e-06
4.73409e-06
8.45386e-06
1.09304e-05
1.06826e-05
9.80408e-06
8.95385e-06
8.24514e-06
7.66962e-06
7.40672e-06
7.69064e-06
9.30603e-06
1.28789e-05
5.20816e-05
0.000656959
0.00150952
0.0024108
0.002412
0.00113572
0.00243723
0.0013278
0.000275256
2.02251e-05
1.33801e-05
8.88867e-06
4.53718e-06
2.25798e-06
1.5876e-06
1.75479e-06
3.13527e-06
6.84004e-06
1.26689e-05
8.60089e-05
0.000342996
0.000387239
0.000253031
0.000128254
5.81746e-05
2.7918e-05
2.06654e-05
2.70236e-05
0.000123004
0.000620919
0.00153633
0.0025062
0.00334974
0.00404249
0.00383558
0.0022747
0.00576677
0.00664428
0.00638906
0.0051409
0.00281416
0.000507337
1.64286e-05
9.25273e-06
6.43579e-06
6.92175e-06
1.10607e-05
3.03667e-05
0.00108571
0.00271654
0.0037021
0.00418178
0.00395094
0.00337468
0.00277521
0.00229057
0.00202482
0.00204646
0.00241237
0.00303471
0.00377004
0.00456469
0.0052794
0.00561692
0.00498503
0.00416764
0.0120607
0.0173913
0.0209185
0.0240319
0.0253689
0.0227861
0.0106148
0.00135192
0.000135674
0.000186345
0.00162663
0.00667822
0.00938229
0.0100835
0.0102348
0.0100224
0.00931846
0.00833981
0.00731276
0.00639534
0.0057003
0.00532685
0.00530324
0.00562365
0.00619753
0.00688468
0.00740141
0.00730548
0.00616478
0.00847187
0.0242819
0.0352641
0.0413026
0.0473676
0.0535783
0.0606141
0.0664099
0.06322
0.0473746
0.0405045
0.0369718
0.0297612
0.0239019
0.0205693
0.0182981
0.0164641
0.0148305
0.0132659
0.0117703
0.0104275
0.00934034
0.00862632
0.00834529
0.00849161
0.0089359
0.00945272
0.009686
0.00911149
0.00745093
0.0186951
0.0444915
0.0580766
0.0632922
0.0685016
0.0717048
0.0716529
0.0703137
0.069864
0.0680477
0.0633698
0.055822
0.046087
0.0377711
0.0317739
0.0272687
0.0237944
0.02106
0.0187598
0.0167227
0.0149189
0.0134171
0.0123423
0.0117851
0.011707
0.011941
0.0122049
0.0120931
0.0110182
0.00888202
0.039179
0.0686837
0.0754743
0.0760152
0.0762307
0.0755045
0.0688007
0.0619818
0.0614362
0.0623421
0.0612386
0.0589858
0.0548272
0.0483889
0.0418126
0.0361527
0.0315262
0.0278028
0.0247468
0.0221371
0.0198526
0.0179132
0.0164407
0.0155455
0.0151893
0.0151616
0.0151341
0.0146396
0.0130567
0.0105027
0.0657325
0.0773791
0.0778693
0.0777695
0.0762418
0.0640405
0.0431064
0.0323896
0.0368436
0.0473913
0.0551934
0.0576515
0.0575035
0.0544337
0.0492356
0.0437132
0.0387197
0.0344296
0.0308097
0.0277172
0.0250108
0.0226682
0.0208062
0.0195604
0.0189059
0.0186015
0.0182645
0.0173668
0.0152887
0.0123759
0.0773649
0.0791018
0.0788441
0.0766857
0.0562337
0.0220112
0.00693796
0.00357511
0.00694394
0.0202275
0.0398687
0.0520776
0.0559517
0.0558075
0.0532873
0.0491622
0.0446718
0.040418
0.036605
0.0332452
0.0302544
0.0276027
0.0254052
0.023828
0.022874
0.0222878
0.0216339
0.0203324
0.017792
0.0145847
0.0795619
0.0795464
0.0771776
0.0506406
0.0126632
0.000720803
5.56362e-05
2.20001e-05
8.95265e-05
0.0021704
0.017389
0.0394462
0.0514668
0.0545731
0.0541842
0.0521899
0.049026
0.0454305
0.0418796
0.038556
0.0354813
0.0326633
0.0302256
0.028364
0.0271238
0.0262579
0.0252917
0.0236072
0.020661
0.0172448
0.0795911
0.0784413
0.0503187
0.0106275
0.000265352
1.56996e-05
1.38398e-05
1.41741e-05
1.46096e-05
2.0859e-05
0.00300729
0.0219523
0.0431111
0.0517866
0.0533511
0.0529914
0.0516092
0.0492475
0.0464224
0.0434881
0.0405794
0.0377782
0.0352364
0.0331757
0.0316893
0.0305624
0.0293065
0.0272842
0.0240203
0.0205198
0.0794962
0.0506229
0.011728
0.000391513
1.62216e-05
1.49653e-05
1.37759e-05
1.31487e-05
1.34973e-05
1.39766e-05
6.82114e-05
0.00754473
0.0309948
0.0471722
0.0517032
0.0524756
0.052362
0.0517292
0.0500662
0.0478923
0.0454326
0.0428636
0.0403911
0.0382607
0.0366086
0.0352706
0.0337749
0.0314933
0.0280442
0.0246444
0.0564701
0.0059086
0.000786025
2.17288e-05
3.26369e-05
5.39509e-05
1.75604e-05
1.46965e-05
1.38554e-05
1.34106e-05
1.35891e-05
0.00141757
0.0182494
0.0402262
0.0492347
0.0513908
0.0523619
0.0528667
0.0526997
0.0516509
0.0499389
0.0478379
0.0456397
0.0436157
0.0419333
0.0404845
0.0388453
0.0364328
0.0329926
0.029956
0.00701555
1.7056e-05
2.35043e-05
1.57468e-05
0.000149451
0.000728334
0.00072425
5.90519e-05
1.63983e-05
1.38965e-05
1.34567e-05
5.54996e-05
0.00767673
0.0309856
0.0453677
0.0497877
0.0515293
0.0529767
0.0542986
0.0546919
0.0540272
0.0526403
0.0509516
0.0492673
0.0477675
0.0463931
0.0447886
0.042454
0.039294
0.0369499
1.77524e-05
1.05697e-05
1.36763e-05
1.30208e-05
6.90801e-05
0.00075273
0.00234903
0.0015198
0.000152134
1.61379e-05
1.37055e-05
1.42896e-05
0.00229658
0.0214861
0.0398337
0.047476
0.0502802
0.0524198
0.0549407
0.0570347
0.0576838
0.0572692
0.0563768
0.0553613
0.0543906
0.053429
0.0521908
0.0502798
0.0477641
0.0464263
1.00678e-05
9.37979e-06
1.33795e-05
1.19684e-05
1.53542e-05
0.000372318
0.00239046
0.00444239
0.00174868
4.13693e-05
1.39347e-05
1.373e-05
0.00119659
0.0150818
0.0340669
0.0447338
0.0488266
0.0512981
0.0547269
0.0587564
0.0610382
0.0618749
0.0621821
0.062372
0.0625557
0.0626663
0.0624449
0.0615783
0.0602253
0.0600588
1.17707e-05
8.83018e-06
1.36145e-05
1.46343e-05
3.84764e-05
0.000117983
0.00184203
0.00520684
0.00536155
0.000371584
1.49691e-05
1.35844e-05
0.000860555
0.0114
0.0298144
0.0425445
0.0476948
0.0498898
0.0538878
0.0600379
0.0643653
0.0668975
0.0690974
0.0713994
0.0737327
0.0750843
0.0754854
0.0757537
0.0759293
0.0762774
1.17579e-05
9.71663e-06
5.00482e-05
0.00227548
0.0026746
0.00127537
0.00196775
0.00562398
0.00815975
0.0015448
1.66237e-05
1.34023e-05
0.000234986
0.00811972
0.0268684
0.041657
0.0475113
0.0484534
0.052166
0.0610402
0.0681737
0.0731462
0.0755487
0.0766693
0.0777802
0.0788346
0.0798014
0.0806782
0.0815333
0.082454
1.13801e-05
2.21323e-05
0.011576
0.0221192
0.0210544
0.00837348
0.00462898
0.00643452
0.00953264
0.00440437
1.93037e-05
1.37026e-05
1.81981e-05
0.00484712
0.024402
0.0419892
0.0485379
0.0470805
0.0489535
0.0616632
0.0729121
0.0761807
0.0778309
0.0795611
0.0813028
0.0830019
0.084641
0.0862617
0.0880027
0.0897405
2.09404e-05
0.0148094
0.0223329
0.0225357
0.0165213
0.00613482
0.00289773
0.00463242
0.00958513
0.0081634
0.000136545
1.44298e-05
1.5364e-05
0.00327349
0.0233869
0.0439189
0.0518349
0.0450478
0.0424846
0.061299
0.0756339
0.0780653
0.0802676
0.0826607
0.0851326
0.0875934
0.0900259
0.0925264
0.0953352
0.0980664
0.00342328
0.0224438
0.02272
0.0222758
0.00868956
0.00239468
0.000372425
0.00196629
0.00960438
0.00969188
0.000613725
1.57715e-05
1.52885e-05
0.00292827
0.0245444
0.0488608
0.0568091
0.0388023
0.0304652
0.0585606
0.0767915
0.0800614
0.0828997
0.0860637
0.0894041
0.0927518
0.0960683
0.0995074
0.103385
0.107101
0.0224124
0.0228958
0.0223921
0.00668208
0.00283752
0.000257523
2.16055e-05
0.000907971
0.00910275
0.00984896
0.00135931
1.70945e-05
1.53423e-05
0.00309206
0.0282611
0.0570898
0.0574452
0.0180448
0.015908
0.0533675
0.077856
0.0822446
0.085852
0.0899282
0.0942917
0.098602
0.102769
0.106909
0.111403
0.115489
0.0227422
0.0223547
0.00305254
0.000120155
0.000328234
2.10154e-05
1.75843e-05
0.000712271
0.00859634
0.00991939
0.00179992
1.81856e-05
1.61536e-05
0.00382646
0.0345792
0.0671128
0.0574134
0.00359264
0.0087856
0.0508267
0.0793662
0.0848231
0.089293
0.09443
0.0999214
0.105077
0.109735
0.113509
0.117218
0.120534
0.0223988
0.000243232
1.63988e-05
2.41063e-05
2.28837e-05
1.5062e-05
1.7218e-05
0.000659126
0.00890464
0.00996912
0.00174721
2.36848e-05
1.75483e-05
0.00536856
0.0430756
0.0729301
0.049381
0.00342981
0.00918684
0.0561017
0.0819949
0.0879784
0.093299
0.0996136
0.106144
0.111491
0.115256
0.117022
0.117681
0.120818
0.0055993
8.87011e-06
1.59933e-05
2.58863e-05
1.94129e-05
1.47622e-05
1.73016e-05
0.000501938
0.0089603
0.0100087
0.00166057
2.25686e-05
2.07425e-05
0.00710685
0.0531419
0.0751522
0.0422309
0.00335899
0.0127089
0.0708695
0.0856346
0.0915661
0.097686
0.105183
0.112104
0.115497
0.115523
0.112487
0.105103
0.114656
2.342e-05
7.82672e-06
1.72074e-05
2.13283e-05
1.19203e-05
1.31218e-05
1.78171e-05
0.000526867
0.00826118
0.0100264
0.00206658
2.01784e-05
1.67154e-05
0.00827604
0.0653112
0.0758545
0.0375052
0.00340639
0.0203745
0.0792344
0.0896988
0.0952443
0.102058
0.110472
0.115517
0.115567
0.10919
0.0876556
0.0276208
0.0856199
1.72281e-05
8.10926e-06
1.7217e-05
1.42595e-05
6.06003e-06
7.19886e-06
1.54063e-05
0.000918792
0.00586831
0.00977902
0.00409013
4.35058e-05
1.45835e-05
0.00871363
0.0758393
0.0760466
0.0324664
0.00337832
0.0279079
0.0834914
0.0928589
0.0983191
0.105863
0.114374
0.115582
0.109501
0.058617
0.0065127
6.78409e-05
0.00662419
1.41512e-05
8.09889e-06
1.67848e-05
8.98694e-06
3.31655e-06
3.00561e-06
7.63124e-06
0.000160084
0.00294083
0.00501829
0.00473349
0.000122466
1.25583e-05
0.00844117
0.0763276
0.075992
0.0242952
0.0033694
0.0351647
0.0857118
0.0945456
0.100543
0.108469
0.114379
0.113221
0.0649061
0.000206423
1.24779e-05
1.00659e-05
3.00334e-05
1.37568e-05
8.03989e-06
1.34189e-05
5.98586e-06
2.29106e-06
1.68698e-06
2.5924e-06
9.27365e-06
7.56168e-05
0.0041958
0.00442786
0.00261595
1.344e-05
0.0018984
0.0760292
0.0765158
0.0135082
0.00427554
0.0427084
0.0868406
0.095716
0.102245
0.109818
0.112995
0.0883615
0.000956655
1.41447e-05
3.93802e-06
1.73832e-06
3.57173e-06
1.47658e-05
1.18647e-05
1.20423e-05
4.99032e-06
1.92376e-06
1.3584e-06
1.39634e-06
3.22539e-06
1.58298e-05
4.84634e-05
9.27298e-05
6.49889e-05
1.2683e-05
0.0133823
0.0768179
0.0760233
0.00310394
0.0025616
0.0462279
0.0887816
0.0974432
0.103537
0.108868
0.101212
0.0161463
1.59265e-05
5.23593e-06
2.13706e-06
1.3081e-06
1.45707e-06
1.58685e-05
1.45291e-05
1.16936e-05
6.18021e-06
1.84802e-06
1.3108e-06
1.60794e-06
4.3128e-06
5.17104e-06
3.19542e-06
4.17364e-06
5.64654e-06
8.68223e-06
0.0161721
0.0761491
0.064347
0.000132026
0.000528986
0.0522795
0.0928072
0.0997192
0.103341
0.103043
0.0824959
0.000767997
7.86917e-06
2.7037e-06
1.78664e-06
1.46904e-06
1.66212e-06
8.3955e-06
6.71715e-06
6.9683e-06
5.82732e-06
2.23031e-06
2.09895e-06
3.58472e-06
4.72716e-06
2.76732e-06
9.37492e-07
1.25463e-06
1.40925e-06
5.67254e-06
0.0331732
0.0769713
0.00825324
8.12256e-06
7.38837e-05
0.0659579
0.0982134
0.10194
0.10246
0.0958669
0.040102
5.94197e-05
3.66412e-06
1.34101e-06
1.8705e-06
1.71901e-06
2.06986e-06
2.37951e-06
2.60707e-06
3.00369e-06
3.25325e-06
3.14575e-06
3.65801e-06
4.16761e-06
3.05121e-06
1.29003e-06
8.83967e-07
2.26916e-06
3.89237e-06
0.00069828
0.0757025
0.0754453
6.28422e-06
5.73063e-06
0.000173894
0.080888
0.103264
0.103376
0.100414
0.084909
0.00586678
9.16695e-06
2.23825e-06
9.76856e-07
2.11902e-06
1.87999e-06
2.474e-06
3.042e-06
3.39175e-06
3.14427e-06
2.86193e-06
3.1184e-06
3.24056e-06
2.58265e-06
1.56855e-06
1.07967e-06
8.75449e-07
3.81186e-06
1.21306e-05
0.0381156
0.0752551
0.0219438
5.66965e-06
4.28051e-06
7.3423e-06
0.0748436
0.105139
0.104153
0.0960079
0.0548445
0.000682152
5.08507e-06
1.27468e-06
1.28601e-06
2.54463e-06
2.29459e-06
2.81288e-06
4.111e-06
3.69538e-06
3.18776e-06
2.69396e-06
2.41746e-06
2.05494e-06
1.57454e-06
1.28686e-06
1.00733e-06
8.51054e-07
6.17205e-06
0.00342983
0.0479129
0.0482501
0.017798
0.0013094
6.02576e-06
6.96238e-06
0.0772193
0.108255
0.104693
0.0877759
0.0101901
1.00885e-05
2.76882e-06
1.01643e-06
2.13358e-06
2.81438e-06
2.513e-06
2.96615e-06
4.07843e-06
3.63567e-06
3.18303e-06
2.71063e-06
2.24394e-06
1.82151e-06
1.46998e-06
1.21773e-06
8.93137e-07
7.1384e-07
6.16688e-06
0.00398832
0.0470396
0.010685
0.000234728
8.57115e-06
4.83336e-06
1.15643e-05
0.0990993
0.110692
0.105291
0.07492
0.00110297
5.99083e-06
1.51805e-06
1.39409e-06
2.90524e-06
2.67853e-06
2.47429e-06
2.9827e-06
3.91799e-06
3.57518e-06
3.19532e-06
2.75034e-06
2.26791e-06
1.82218e-06
1.44281e-06
1.12272e-06
8.10271e-07
5.74493e-07
1.29725e-06
2.48769e-05
0.00423504
2.71764e-05
7.08186e-06
2.27089e-06
2.31118e-06
2.74551e-05
0.110121
0.110839
0.107418
0.0270509
2.1256e-05
3.56054e-06
1.16083e-06
2.42144e-06
2.83052e-06
2.19835e-06
2.36233e-06
3.0004e-06
3.76002e-06
3.51891e-06
3.20106e-06
2.78109e-06
2.30385e-06
1.82721e-06
1.3985e-06
1.05744e-06
7.64982e-07
5.61889e-07
4.72078e-07
1.16311e-06
9.03202e-06
4.57232e-06
1.5857e-06
1.17485e-06
2.20368e-06
0.00160028
0.11048
0.110742
0.100665
0.00463075
8.64398e-06
1.91346e-06
1.67401e-06
2.88441e-06
2.08849e-06
1.92116e-06
2.29766e-06
3.0827e-06
3.63017e-06
3.47327e-06
3.20354e-06
2.8121e-06
2.3374e-06
1.81827e-06
1.34401e-06
9.86929e-07
7.22164e-07
5.50624e-07
4.65481e-07
5.23161e-07
1.23075e-06
1.08082e-06
1.11187e-06
9.17189e-07
3.34342e-06
0.0219823
0.110504
0.110661
0.0786927
0.000416741
4.98931e-06
1.42965e-06
2.58952e-06
2.0129e-06
1.74252e-06
1.83822e-06
2.25219e-06
3.1753e-06
3.52946e-06
3.43514e-06
3.20717e-06
2.84815e-06
2.34934e-06
1.76757e-06
1.26294e-06
9.21603e-07
7.00273e-07
5.47136e-07
4.67551e-07
5.12776e-07
9.57274e-07
1.22272e-06
1.21273e-06
1.73658e-06
4.23723e-05
0.0891746
0.110522
0.106478
0.0114736
1.2615e-05
2.36743e-06
1.8434e-06
1.86827e-06
1.63367e-06
1.68379e-06
1.83042e-06
2.25924e-06
3.24808e-06
3.45434e-06
3.41229e-06
3.22984e-06
2.90054e-06
2.33594e-06
1.66968e-06
1.1569e-06
8.64927e-07
6.8107e-07
5.51686e-07
4.8792e-07
5.03012e-07
1.05311e-06
1.61385e-06
2.02632e-06
3.89425e-06
0.00755535
0.101564
0.110315
0.0826465
0.000555631
6.05961e-06
1.51371e-06
1.6246e-06
1.5297e-06
1.57997e-06
1.68397e-06
1.80581e-06
2.29716e-06
3.37421e-06
3.40799e-06
3.41459e-06
3.27563e-06
2.9236e-06
2.2385e-06
1.50281e-06
1.04052e-06
8.16806e-07
6.72005e-07
5.69122e-07
5.12423e-07
5.05851e-07
1.06774e-06
1.97226e-06
2.68193e-06
7.07207e-06
0.0430656
0.103007
0.103342
0.0113105
1.51002e-05
2.23584e-06
1.49054e-06
1.42055e-06
1.47865e-06
1.57041e-06
1.615e-06
1.72128e-06
2.33947e-06
3.51905e-06
3.39607e-06
3.44943e-06
3.32715e-06
2.87062e-06
1.98733e-06
1.27305e-06
9.27271e-07
7.72982e-07
6.67877e-07
5.84771e-07
5.38371e-07
5.22578e-07
1.01808e-06
2.381e-06
4.36863e-06
0.000854176
0.0857172
0.10279
0.0801018
4.47499e-05
5.45292e-06
1.55355e-06
1.39064e-06
1.38586e-06
1.44429e-06
1.46472e-06
1.44378e-06
1.70763e-06
2.45706e-06
3.64562e-06
3.42687e-06
3.51946e-06
3.31505e-06
2.59394e-06
1.56058e-06
1.01024e-06
8.22447e-07
7.34972e-07
6.6607e-07
6.05862e-07
5.65286e-07
5.6164e-07
9.66483e-07
2.87181e-06
6.33967e-06
0.00626796
0.0951447
0.102587
0.0118759
1.31077e-05
2.13877e-06
1.52319e-06
1.3708e-06
1.31354e-06
1.28454e-06
1.25629e-06
1.32715e-06
1.76823e-06
2.66426e-06
3.78082e-06
3.511e-06
3.57071e-06
3.12854e-06
2.00926e-06
1.09309e-06
8.06856e-07
7.41004e-07
7.08467e-07
6.68521e-07
6.33027e-07
6.1564e-07
6.37478e-07
9.39562e-07
4.83944e-06
1.00329e-05
0.0189082
0.0939708
0.0892296
0.00139751
6.21071e-06
1.32706e-06
1.50587e-06
1.35969e-06
1.25487e-06
1.19251e-06
1.17305e-06
1.29573e-06
1.82751e-06
2.81227e-06
3.92163e-06
3.62148e-06
3.49053e-06
2.5852e-06
1.31074e-06
8.45917e-07
7.39868e-07
7.24197e-07
7.08355e-07
6.85628e-07
6.78404e-07
6.99647e-07
7.6758e-07
9.38614e-07
8.44409e-06
5.56149e-05
0.0348451
0.086163
0.0793008
0.000781413
5.60281e-06
1.16715e-06
1.34682e-06
1.3499e-06
1.26e-06
1.18894e-06
1.16743e-06
1.28932e-06
1.83175e-06
2.84712e-06
3.98399e-06
3.6358e-06
3.08098e-06
1.69368e-06
9.57083e-07
7.84665e-07
7.66926e-07
7.68735e-07
7.53076e-07
7.36452e-07
7.45426e-07
8.01057e-07
9.06179e-07
9.50143e-07
5.08419e-06
0.000304743
0.0321995
0.0766325
0.068921
0.00132423
7.01829e-06
1.09361e-06
1.1533e-06
1.32529e-06
1.3031e-06
1.25303e-06
1.20865e-06
1.29824e-06
1.80128e-06
2.83231e-06
3.98379e-06
3.3607e-06
2.25344e-06
1.14927e-06
8.69802e-07
8.37971e-07
8.46182e-07
8.45664e-07
8.28577e-07
8.12029e-07
8.37352e-07
9.20999e-07
1.00428e-06
1.00301e-06
1.36719e-06
2.44569e-05
0.00640827
0.0458627
0.0418453
0.000355599
4.77933e-06
1.00403e-06
1.01427e-06
1.23502e-06
1.3082e-06
1.2988e-06
1.28146e-06
1.32881e-06
1.74926e-06
2.76175e-06
3.93157e-06
2.70174e-06
1.44223e-06
9.9698e-07
9.33679e-07
9.28793e-07
9.26592e-07
9.18764e-07
9.03575e-07
8.94365e-07
9.36655e-07
1.02031e-06
1.05147e-06
1.03368e-06
9.86418e-07
2.75156e-06
4.35791e-05
0.00946247
0.00650209
2.18654e-05
1.76625e-06
8.81554e-07
9.61373e-07
1.08562e-06
1.25525e-06
1.30195e-06
1.30652e-06
1.35523e-06
1.69999e-06
2.6604e-06
3.83445e-06
1.93825e-06
1.19758e-06
1.045e-06
1.02409e-06
9.99637e-07
9.8224e-07
9.68651e-07
9.51362e-07
9.46701e-07
9.86774e-07
1.04457e-06
1.02742e-06
9.86482e-07
9.6479e-07
1.1226e-06
5.40601e-06
2.71868e-05
2.34759e-05
4.28428e-06
8.85756e-07
8.35973e-07
9.42255e-07
1.03397e-06
1.15591e-06
1.27176e-06
1.31178e-06
1.36971e-06
1.67466e-06
2.55829e-06
3.71078e-06
1.69036e-06
1.22908e-06
1.10719e-06
1.06844e-06
1.0228e-06
9.9208e-07
9.63362e-07
9.32567e-07
9.30592e-07
9.50334e-07
9.33073e-07
8.89613e-07
8.68122e-07
9.14389e-07
1.16938e-06
2.28534e-06
8.13006e-06
6.94503e-06
1.83758e-06
7.55821e-07
8.28796e-07
9.32876e-07
1.01873e-06
1.12158e-06
1.23228e-06
1.31008e-06
1.38634e-06
1.67463e-06
2.47273e-06
3.56591e-06
1.8059e-06
1.26915e-06
1.10689e-06
1.05032e-06
9.8559e-07
9.2737e-07
8.88393e-07
8.54852e-07
8.44837e-07
8.33074e-07
7.89031e-07
7.76001e-07
8.0272e-07
8.65702e-07
1.2516e-06
2.68959e-06
5.5989e-06
5.26761e-06
1.42067e-06
7.17818e-07
7.97023e-07
9.05909e-07
1.00943e-06
1.11861e-06
1.22585e-06
1.31202e-06
1.41303e-06
1.69823e-06
2.41287e-06
3.40005e-06
1.91657e-06
1.24193e-06
1.04534e-06
9.52939e-07
8.84978e-07
8.34693e-07
8.02164e-07
7.77004e-07
7.62754e-07
7.4294e-07
7.23601e-07
7.31677e-07
7.6584e-07
8.64832e-07
1.30523e-06
3.09515e-06
7.04615e-06
5.68003e-06
1.13709e-06
6.72263e-07
7.77385e-07
8.81358e-07
9.97835e-07
1.12283e-06
1.23276e-06
1.32324e-06
1.4451e-06
1.74468e-06
2.38104e-06
3.21799e-06
2.0477e-06
1.16194e-06
9.23444e-07
8.46565e-07
7.94562e-07
7.62625e-07
7.42331e-07
7.29331e-07
7.15219e-07
7.01616e-07
6.92716e-07
7.16591e-07
7.68637e-07
8.66372e-07
1.43113e-06
3.75431e-06
8.5793e-06
4.88274e-06
9.0714e-07
6.44486e-07
7.49197e-07
8.62153e-07
9.91655e-07
1.13208e-06
1.24433e-06
1.33583e-06
1.4741e-06
1.79143e-06
2.36791e-06
3.04956e-06
2.1169e-06
1.06183e-06
8.38386e-07
7.8494e-07
7.39523e-07
7.17845e-07
7.04872e-07
6.9388e-07
6.89634e-07
6.88833e-07
6.93623e-07
7.35455e-07
7.86047e-07
8.74257e-07
1.57015e-06
4.58588e-06
9.66359e-06
4.00044e-06
7.56966e-07
6.10531e-07
7.02961e-07
8.20687e-07
9.75125e-07
1.1373e-06
1.26982e-06
1.35864e-06
1.49545e-06
1.81855e-06
2.35626e-06
2.90941e-06
2.2038e-06
1.00604e-06
7.94385e-07
7.47302e-07
7.05985e-07
6.92362e-07
6.84853e-07
6.77354e-07
6.87459e-07
7.00773e-07
7.25709e-07
7.61027e-07
7.90988e-07
8.99916e-07
1.76241e-06
5.9441e-06
1.1242e-05
2.75763e-06
6.3844e-07
5.77621e-07
6.5122e-07
7.56795e-07
9.21236e-07
1.12347e-06
1.2951e-06
1.40372e-06
1.52359e-06
1.8268e-06
2.32374e-06
2.78839e-06
2.21759e-06
9.81129e-07
7.67629e-07
7.17024e-07
6.79565e-07
6.72084e-07
6.72335e-07
6.78989e-07
6.98342e-07
7.20735e-07
7.53269e-07
7.73202e-07
7.90667e-07
9.43506e-07
2.09112e-06
8.05326e-06
1.15024e-05
1.8475e-06
5.9664e-07
5.67376e-07
6.02282e-07
6.83869e-07
8.28153e-07
1.05175e-06
1.29127e-06
1.46229e-06
1.56541e-06
1.82215e-06
2.26479e-06
2.66749e-06
2.21848e-06
9.53526e-07
7.4349e-07
6.91323e-07
6.58865e-07
6.58635e-07
6.69382e-07
6.85241e-07
7.07841e-07
7.34567e-07
7.62291e-07
7.66205e-07
7.93568e-07
1.0519e-06
2.59256e-06
1.00681e-05
9.62977e-06
1.30026e-06
6.01952e-07
5.81836e-07
5.81721e-07
6.23629e-07
7.28139e-07
9.2951e-07
1.23066e-06
1.48112e-06
1.62168e-06
1.81907e-06
2.18773e-06
2.52463e-06
2.1996e-06
9.31959e-07
7.22735e-07
6.72394e-07
6.46131e-07
6.54531e-07
6.73619e-07
6.90912e-07
7.11962e-07
7.40512e-07
7.62144e-07
7.65722e-07
8.15396e-07
1.22457e-06
3.36693e-06
1.17762e-05
7.22388e-06
1.01601e-06
6.25972e-07
6.127e-07
5.95623e-07
5.95786e-07
6.52394e-07
7.98026e-07
1.08977e-06
1.45875e-06
1.676e-06
1.82668e-06
2.10686e-06
2.35995e-06
2.15701e-06
9.17135e-07
7.06988e-07
6.58601e-07
6.41553e-07
6.54524e-07
6.79754e-07
6.97625e-07
7.16398e-07
7.4791e-07
7.70877e-07
7.77752e-07
8.65268e-07
1.49808e-06
4.34996e-06
1.15688e-05
4.5227e-06
8.64652e-07
6.65308e-07
6.52384e-07
6.3473e-07
6.13559e-07
6.15607e-07
6.95272e-07
9.24926e-07
1.34405e-06
1.68716e-06
1.84928e-06
2.0401e-06
2.20224e-06
2.11831e-06
9.10048e-07
6.88014e-07
6.43061e-07
6.36645e-07
6.5469e-07
6.85488e-07
7.07235e-07
7.27866e-07
7.64447e-07
7.87141e-07
8.00403e-07
9.54677e-07
1.92898e-06
5.38663e-06
9.5657e-06
2.85413e-06
8.17503e-07
7.11809e-07
6.97463e-07
6.80587e-07
6.6472e-07
6.4125e-07
6.45046e-07
7.81078e-07
1.16058e-06
1.65108e-06
1.88048e-06
2.00254e-06
2.07595e-06
2.0844e-06
9.00357e-07
6.68194e-07
6.29727e-07
6.32652e-07
6.59774e-07
6.97441e-07
7.21222e-07
7.45455e-07
7.85248e-07
8.06448e-07
8.32092e-07
1.15523e-06
2.54374e-06
6.14262e-06
7.7509e-06
1.74903e-06
7.84063e-07
7.5592e-07
7.38785e-07
7.29302e-07
7.27734e-07
7.13439e-07
6.781e-07
6.97298e-07
9.74058e-07
1.52314e-06
1.88874e-06
1.99174e-06
1.99657e-06
2.0298e-06
8.70192e-07
6.54605e-07
6.26518e-07
6.40116e-07
6.77878e-07
7.20634e-07
7.40333e-07
7.63637e-07
8.0308e-07
8.29325e-07
8.93893e-07
1.52248e-06
3.45833e-06
6.93823e-06
5.00025e-06
1.15779e-06
7.93273e-07
7.77723e-07
7.62595e-07
7.67419e-07
7.90334e-07
8.0139e-07
7.72734e-07