/*--------------------------------*- C++ -*----------------------------------*\
| =========                 |                                                 |
| \\      /  F ield         | OpenFOAM: The Open Source CFD Toolbox           |
|  \\    /   O peration     | Version:  v1606+                                |
|   \\  /    A nd           | Web:      www.OpenFOAM.com                      |
|    \\/     M anipulation  |                                                 |
\*---------------------------------------------------------------------------*/
FoamFile
{
    version     2.0;
    format      ascii;
    class       volScalarField;
    location    "1.12";
    object      pMean;
}
// * * * * * * * * * * * * * * * * * * * * * * * * * * * * * * * * * * * * * //

dimensions      [1 -1 -2 0 0 0 0];

internalField   nonuniform List<scalar> 
6000
(
107871
107872
107872
107871
107871
107871
107872
107872
107872
107873
107873
107873
107874
107874
107874
107875
107875
107876
107876
107876
107876
107876
107876
107876
107876
107876
107877
107878
107878
107878
107800
107800
107800
107799
107798
107798
107798
107798
107799
107800
107800
107801
107801
107802
107802
107803
107803
107803
107804
107804
107803
107803
107803
107802
107803
107804
107805
107806
107807
107806
107752
107752
107752
107751
107751
107751
107751
107752
107753
107754
107754
107755
107755
107756
107756
107757
107757
107758
107758
107758
107758
107757
107756
107756
107756
107757
107758
107759
107759
107759
107698
107697
107697
107696
107696
107696
107696
107697
107698
107699
107700
107701
107701
107702
107703
107703
107704
107704
107704
107704
107703
107702
107702
107702
107702
107703
107703
107703
107704
107704
107646
107646
107645
107645
107644
107644
107644
107644
107644
107646
107647
107648
107649
107651
107652
107653
107653
107652
107652
107652
107651
107650
107650
107650
107651
107651
107651
107652
107651
107652
107596
107595
107595
107595
107594
107593
107593
107593
107592
107593
107594
107596
107597
107599
107601
107602
107602
107602
107601
107601
107600
107599
107600
107600
107600
107600
107601
107601
107601
107601
107545
107544
107544
107544
107544
107544
107543
107543
107542
107542
107543
107544
107545
107547
107550
107551
107551
107551
107551
107550
107549
107550
107550
107550
107549
107549
107549
107549
107549
107550
107492
107490
107490
107490
107491
107492
107492
107492
107493
107493
107493
107493
107494
107495
107498
107499
107498
107499
107499
107499
107499
107499
107498
107498
107497
107496
107494
107494
107494
107496
107436
107434
107433
107434
107437
107439
107441
107441
107442
107443
107444
107444
107444
107445
107447
107447
107447
107447
107448
107448
107448
107447
107446
107444
107442
107440
107438
107436
107437
107440
107377
107376
107376
107378
107381
107385
107389
107391
107391
107393
107394
107395
107395
107396
107397
107398
107398
107398
107398
107398
107397
107395
107393
107390
107387
107384
107381
107379
107379
107381
107318
107318
107318
107321
107325
107331
107336
107339
107340
107342
107344
107345
107346
107347
107348
107349
107350
107350
107349
107348
107346
107343
107340
107336
107331
107327
107324
107322
107322
107323
107260
107259
107260
107263
107269
107275
107282
107285
107287
107289
107291
107292
107293
107295
107297
107299
107300
107301
107300
107298
107295
107291
107288
107283
107276
107270
107267
107265
107265
107265
107201
107201
107202
107204
107210
107218
107225
107230
107233
107234
107236
107237
107238
107240
107243
107246
107248
107250
107251
107248
107244
107240
107236
107229
107221
107214
107210
107208
107208
107208
107143
107142
107143
107146
107151
107159
107168
107174
107177
107180
107182
107183
107183
107185
107188
107190
107192
107197
107199
107197
107193
107188
107182
107174
107166
107158
107153
107151
107151
107151
107085
107085
107086
107088
107093
107100
107109
107116
107121
107125
107128
107130
107131
107131
107132
107134
107135
107139
107142
107142
107139
107134
107127
107118
107110
107103
107098
107095
107094
107095
107029
107029
107030
107032
107036
107042
107049
107058
107065
107071
107075
107078
107079
107079
107078
107077
107078
107080
107082
107081
107079
107075
107068
107060
107053
107048
107043
107040
107038
107038
106973
106973
106974
106977
106979
106982
106989
106999
107008
107016
107021
107023
107025
107025
107023
107021
107020
107019
107019
107018
107016
107012
107005
106999
106995
106991
106987
106983
106981
106980
106915
106915
106917
106919
106920
106923
106929
106939
106950
106959
106965
106967
106968
106967
106965
106963
106960
106959
106958
106956
106952
106946
106939
106935
106932
106930
106927
106923
106921
106919
106856
106856
106857
106859
106861
106865
106870
106879
106890
106901
106907
106908
106907
106906
106903
106900
106898
106897
106897
106895
106889
106880
106873
106869
106866
106864
106862
106859
106857
106855
106796
106796
106797
106798
106801
106806
106812
106820
106830
106839
106845
106846
106843
106840
106837
106835
106833
106834
106835
106832
106825
106815
106806
106800
106796
106793
106791
106789
106787
106786
106733
106734
106735
106736
106740
106747
106755
106763
106771
106778
106783
106783
106779
106774
106770
106767
106767
106769
106769
106766
106758
106748
106738
106730
106724
106719
106716
106714
106713
106712
106666
106668
106670
106674
106679
106687
106695
106703
106711
106718
106723
106722
106717
106710
106703
106700
106700
106701
106700
106695
106687
106676
106666
106656
106648
106643
106639
106637
106636
106636
106592
106595
106600
106606
106613
106620
106629
106637
106647
106655
106660
106659
106653
106644
106637
106632
106631
106630
106627
106620
106610
106599
106588
106577
106568
106562
106559
106557
106556
106557
106513
106516
106522
106529
106536
106544
106551
106560
106573
106583
106589
106589
106583
106574
106567
106562
106559
106556
106550
106541
106528
106516
106504
106494
106484
106479
106477
106476
106476
106477
106432
106433
106439
106445
106452
106459
106466
106474
106488
106502
106511
106512
106507
106500
106493
106488
106483
106478
106470
106457
106442
106429
106418
106408
106401
106396
106395
106396
106396
106397
106349
106349
106353
106359
106364
106369
106375
106384
106396
106410
106423
106428
106426
106421
106415
106410
106405
106398
106387
106371
106355
106341
106332
106325
106320
106317
106317
106318
106318
106319
106267
106267
106269
106272
106276
106280
106284
106292
106302
106315
106329
106338
106341
106339
106335
106330
106325
106316
106301
106283
106266
106254
106248
106245
106243
106242
106243
106244
106244
106244
106188
106188
106188
106189
106191
106194
106197
106202
106209
106220
106234
106247
106255
106256
106254
106249
106243
106232
106214
106193
106177
106167
106164
106165
106167
106168
106170
106172
106174
106173
106111
106111
106110
106108
106109
106110
106113
106116
106120
106128
106141
106156
106168
106173
106172
106167
106160
106145
106124
106103
106088
106080
106080
106084
106088
106093
106097
106101
106104
106104
106033
106033
106030
106028
106026
106027
106029
106031
106034
106040
106052
106067
106081
106089
106090
106084
106074
106057
106035
106015
106002
105995
105995
106000
106008
106016
106022
106028
106032
106033
105953
105952
105949
105946
105943
105943
105944
105946
105950
105955
105965
105979
105994
106004
106006
106000
105988
105970
105949
105931
105920
105915
105914
105918
105927
105937
105946
105953
105958
105961
105870
105869
105866
105862
105858
105857
105858
105861
105866
105872
105882
105895
105909
105919
105922
105917
105905
105887
105869
105855
105847
105843
105841
105843
105850
105860
105870
105879
105885
105888
105787
105785
105782
105778
105773
105771
105773
105778
105784
105792
105802
105814
105827
105836
105839
105834
105824
105809
105795
105785
105780
105778
105776
105775
105778
105786
105796
105805
105812
105816
105703
105702
105698
105693
105689
105689
105692
105699
105707
105715
105724
105736
105748
105756
105759
105755
105746
105735
105726
105721
105719
105718
105715
105713
105713
105717
105725
105734
105740
105744
105620
105617
105612
105607
105606
105609
105616
105626
105635
105643
105651
105661
105672
105681
105683
105680
105673
105666
105661
105660
105659
105659
105657
105654
105652
105652
105658
105665
105671
105674
105536
105531
105526
105523
105526
105534
105545
105556
105567
105576
105581
105589
105600
105608
105612
105610
105605
105602
105600
105600
105601
105601
105599
105597
105593
105591
105594
105599
105603
105606
105456
105450
105446
105446
105453
105464
105477
105490
105501
105510
105515
105521
105531
105539
105544
105544
105542
105541
105540
105541
105543
105543
105542
105539
105536
105532
105532
105534
105538
105540
105387
105383
105383
105385
105391
105400
105414
105427
105439
105448
105453
105457
105465
105473
105479
105481
105481
105481
105482
105483
105484
105484
105483
105481
105479
105475
105473
105473
105475
105477
105332
105331
105333
105336
105339
105345
105356
105368
105379
105388
105393
105396
105402
105409
105416
105419
105420
105421
105423
105424
105425
105425
105425
105423
105422
105419
105416
105414
105415
105416
105286
105286
105289
105292
105293
105295
105301
105311
105321
105329
105335
105337
105341
105348
105355
105359
105361
105363
105364
105365
105366
105366
105366
105365
105364
105362
105359
105357
105356
105357
105243
105244
105247
105248
105247
105247
105249
105255
105263
105271
105278
105281
105284
105289
105296
105302
105304
105306
105307
105308
105308
105307
105307
105306
105305
105303
105301
105300
105299
105298
105200
105201
105202
105202
105200
105198
105197
105200
105207
105214
105221
105225
105228
105233
105240
105246
105249
105250
105250
105250
105250
105249
105247
105246
105245
105243
105241
105240
105240
105240
105157
105157
105156
105154
105151
105148
105145
105147
105152
105159
105165
105170
105174
105179
105185
105192
105194
105195
105194
105194
105192
105190
105188
105186
105185
105183
105181
105180
105181
105181
105111
105110
105108
105105
105101
105097
105094
105094
105098
105104
105111
105117
105121
105125
105132
105138
105140
105139
105139
105138
105136
105132
105129
105126
105125
105123
105122
105121
105122
105123
105063
105061
105058
105055
105050
105046
105043
105043
105046
105052
105058
105064
105068
105072
105079
105084
105086
105085
105085
105083
105080
105076
105071
105068
105066
105064
105064
105063
105064
105066
105013
105011
105008
105004
105000
104996
104993
104993
104996
105001
105007
105012
105016
105020
105026
105031
105032
105032
105031
105030
105026
105021
105015
105010
105007
105006
105005
105006
105008
105011
104963
104961
104958
104954
104949
104946
104944
104944
104947
104951
104956
104960
104964
104968
104973
104978
104979
104979
104979
104977
104972
104967
104960
104955
104950
104949
104949
104950
104953
104956
104914
104912
104909
104904
104900
104897
104896
104896
104898
104901
104906
104909
104913
104916
104921
104925
104927
104927
104927
104925
104920
104914
104907
104901
104896
104894
104894
104896
104899
104902
104865
104863
104859
104855
104852
104849
104849
104849
104850
104852
104856
104858
104861
104865
104869
104873
104874
104875
104875
104873
104867
104861
104855
104849
104844
104842
104842
104844
104847
104849
104816
104814
104811
104807
104805
104803
104802
104802
104802
104803
104806
104808
104810
104814
104817
104821
104822
104823
104824
104820
104815
104810
104804
104799
104794
104792
104792
104794
104797
104799
104768
104766
104763
104760
104759
104758
104757
104756
104755
104755
104756
104759
104760
104762
104765
104768
104770
104771
104771
104768
104763
104758
104753
104750
104746
104744
104744
104746
104748
104750
104719
104718
104716
104714
104713
104712
104712
104711
104709
104708
104708
104709
104710
104711
104714
104715
104716
104717
104717
104714
104710
104706
104703
104701
104699
104697
104697
104698
104699
104701
104671
104670
104669
104668
104668
104667
104666
104665
104663
104662
104660
104660
104660
104660
104662
104662
104662
104663
104662
104659
104656
104653
104652
104652
104652
104651
104650
104650
104651
104651
104624
104623
104622
104623
104623
104622
104620
104618
104616
104614
104612
104610
104610
104609
104609
104609
104608
104608
104606
104603
104601
104599
104600
104602
104603
104604
104604
104603
104603
104603
104577
104577
104578
104578
104577
104575
104573
104570
104567
104565
104563
104560
104559
104558
104556
104554
104552
104551
104550
104546
104544
104543
104545
104548
104552
104555
104557
104557
104555
104555
104531
104531
104533
104532
104530
104527
104523
104520
104517
104514
104511
104509
104506
104504
104502
104499
104497
104495
104492
104489
104487
104486
104487
104491
104497
104503
104507
104508
104507
104507
104484
104484
104485
104483
104479
104475
104471
104468
104465
104462
104458
104455
104453
104450
104447
104443
104440
104437
104434
104431
104429
104428
104428
104431
104437
104444
104452
104456
104458
104458
104435
104436
104433
104429
104424
104420
104417
104415
104411
104408
104404
104401
104398
104395
104391
104387
104383
104379
104375
104372
104370
104369
104369
104371
104375
104383
104391
104399
104404
104405
104384
104382
104377
104372
104368
104366
104363
104360
104356
104351
104347
104344
104341
104338
104334
104329
104325
104320
104316
104313
104311
104309
104309
104310
104313
104320
104328
104337
104345
104348
104327
104324
104318
104314
104312
104311
104308
104304
104299
104293
104288
104285
104282
104279
104275
104271
104266
104260
104256
104253
104251
104250
104249
104249
104251
104256
104264
104274
104282
104286
104266
104262
104258
104257
104257
104255
104251
104245
104239
104233
104228
104223
104220
104218
104215
104211
104206
104200
104195
104192
104191
104191
104190
104189
104190
104194
104201
104209
104217
104222
104205
104202
104201
104202
104201
104197
104191
104184
104177
104170
104165
104161
104157
104155
104152
104149
104143
104137
104133
104132
104132
104132
104133
104133
104133
104134
104139
104146
104153
104158
104145
104145
104147
104147
104143
104136
104128
104120
104112
104106
104101
104096
104093
104091
104088
104085
104080
104074
104071
104071
104072
104074
104077
104079
104079
104079
104081
104085
104090
104095
104088
104090
104091
104089
104081
104072
104063
104054
104046
104040
104035
104031
104028
104025
104023
104020
104014
104009
104008
104009
104012
104015
104020
104024
104027
104027
104026
104028
104031
104034
104032
104033
104032
104025
104016
104005
103995
103986
103979
103973
103969
103965
103962
103959
103957
103953
103948
103944
103944
103946
103949
103954
103960
103967
103971
103974
103974
103974
103975
103976
103974
103974
103968
103958
103947
103936
103926
103917
103910
103905
103901
103898
103895
103892
103889
103885
103880
103878
103878
103881
103885
103890
103897
103905
103912
103918
103921
103921
103920
103921
103911
103908
103899
103888
103876
103865
103855
103847
103841
103836
103833
103830
103827
103824
103821
103817
103812
103810
103811
103814
103818
103824
103832
103840
103849
103857
103863
103866
103866
103866
103842
103837
103828
103817
103805
103794
103785
103777
103771
103767
103764
103761
103759
103756
103753
103749
103744
103742
103743
103746
103750
103756
103764
103774
103784
103794
103802
103807
103809
103810
103770
103765
103756
103745
103734
103724
103715
103708
103703
103698
103695
103693
103690
103688
103685
103680
103676
103674
103675
103677
103681
103688
103696
103706
103717
103728
103738
103745
103750
103751
103697
103693
103684
103674
103664
103655
103647
103640
103635
103630
103627
103624
103622
103620
103617
103612
103608
103607
103607
103609
103613
103619
103628
103638
103649
103661
103672
103680
103686
103689
103626
103622
103614
103605
103596
103587
103580
103574
103569
103564
103560
103557
103556
103554
103550
103546
103542
103540
103540
103542
103546
103552
103560
103570
103581
103593
103605
103614
103620
103623
103556
103553
103546
103538
103530
103522
103515
103509
103504
103499
103495
103493
103491
103488
103485
103481
103478
103476
103475
103477
103481
103487
103495
103504
103514
103526
103537
103547
103553
103556
103489
103486
103480
103473
103466
103459
103452
103446
103442
103437
103433
103430
103427
103425
103421
103417
103414
103413
103413
103415
103419
103424
103431
103439
103449
103459
103470
103479
103485
103488
103424
103421
103416
103410
103404
103397
103391
103385
103381
103377
103373
103369
103366
103363
103359
103355
103352
103351
103352
103354
103357
103362
103368
103376
103385
103395
103404
103412
103418
103421
103360
103358
103355
103349
103343
103336
103330
103324
103321
103317
103314
103310
103305
103301
103297
103293
103290
103290
103291
103294
103297
103300
103306
103313
103322
103331
103341
103348
103353
103355
103298
103297
103294
103289
103283
103276
103269
103264
103260
103257
103254
103249
103245
103240
103236
103232
103229
103229
103230
103233
103235
103239
103243
103250
103259
103268
103278
103285
103289
103291
103237
103236
103234
103229
103222
103214
103208
103203
103199
103196
103193
103188
103183
103178
103174
103170
103167
103167
103169
103171
103173
103176
103180
103187
103195
103205
103214
103222
103227
103228
103175
103174
103171
103166
103159
103152
103146
103141
103137
103134
103130
103126
103121
103116
103111
103108
103105
103106
103107
103109
103111
103114
103117
103123
103131
103141
103151
103159
103164
103166
103113
103111
103107
103102
103095
103089
103083
103078
103075
103071
103067
103063
103058
103053
103048
103045
103043
103043
103044
103046
103048
103051
103054
103060
103067
103077
103086
103094
103099
103102
103049
103047
103042
103036
103030
103025
103020
103016
103012
103008
103003
102999
102994
102989
102984
102981
102979
102980
102981
102983
102985
102988
102992
102997
103004
103012
103021
103029
103034
103037
102984
102981
102976
102971
102966
102962
102957
102953
102948
102943
102939
102934
102929
102924
102920
102917
102915
102916
102917
102920
102922
102926
102930
102935
102942
102949
102957
102964
102969
102972
102919
102916
102912
102908
102904
102900
102895
102890
102885
102879
102874
102869
102864
102859
102855
102852
102851
102851
102853
102856
102860
102864
102869
102875
102881
102887
102894
102899
102904
102907
102854
102852
102850
102847
102843
102839
102833
102827
102821
102815
102809
102803
102799
102794
102790
102787
102786
102787
102790
102793
102798
102803
102809
102815
102821
102827
102832
102837
102841
102843
102791
102790
102788
102786
102782
102778
102771
102764
102757
102750
102744
102738
102733
102729
102725
102723
102722
102724
102726
102730
102736
102742
102748
102755
102761
102766
102771
102775
102778
102780
102729
102729
102727
102725
102721
102715
102708
102701
102693
102686
102679
102673
102668
102664
102660
102658
102658
102660
102663
102668
102674
102681
102688
102694
102700
102705
102710
102714
102717
102719
102668
102668
102666
102663
102658
102652
102644
102636
102628
102621
102614
102608
102603
102598
102595
102594
102595
102597
102600
102605
102612
102619
102626
102633
102639
102644
102649
102654
102656
102657
102607
102606
102603
102599
102594
102587
102579
102571
102563
102556
102549
102544
102539
102534
102531
102530
102532
102534
102538
102543
102549
102557
102564
102571
102577
102583
102588
102592
102596
102597
102545
102543
102540
102535
102529
102522
102514
102506
102499
102492
102486
102481
102476
102471
102469
102469
102470
102472
102476
102481
102487
102495
102502
102509
102515
102521
102526
102531
102534
102536
102481
102479
102475
102470
102463
102456
102449
102442
102435
102429
102424
102419
102415
102410
102408
102409
102410
102412
102416
102421
102427
102433
102440
102447
102453
102458
102464
102469
102473
102475
102417
102415
102411
102404
102398
102391
102385
102379
102373
102369
102364
102360
102355
102351
102350
102350
102352
102354
102357
102362
102367
102373
102379
102385
102391
102397
102402
102408
102411
102413
102353
102351
102346
102341
102335
102329
102323
102318
102314
102310
102306
102301
102297
102293
102293
102294
102295
102297
102300
102304
102309
102314
102319
102325
102331
102337
102342
102346
102350
102352
102289
102287
102284
102280
102274
102269
102264
102260
102256
102252
102248
102244
102239
102237
102236
102237
102239
102241
102244
102247
102251
102255
102260
102266
102272
102278
102282
102286
102289
102291
102227
102225
102223
102220
102216
102211
102207
102203
102199
102196
102192
102187
102182
102181
102181
102182
102183
102185
102188
102191
102194
102198
102203
102208
102214
102219
102223
102226
102229
102230
102167
102166
102164
102162
102159
102155
102151
102147
102143
102139
102135
102130
102126
102125
102125
102126
102128
102130
102132
102135
102138
102141
102146
102151
102156
102160
102164
102167
102169
102170
102108
102108
102107
102105
102102
102099
102095
102091
102088
102083
102078
102073
102070
102069
102070
102071
102073
102075
102077
102079
102082
102085
102090
102094
102098
102101
102104
102108
102109
102110
102051
102051
102050
102048
102046
102043
102039
102036
102032
102027
102022
102017
102015
102014
102015
102016
102018
102020
102022
102024
102027
102030
102034
102037
102040
102043
102045
102048
102050
102051
101994
101994
101993
101992
101990
101987
101983
101980
101976
101971
101966
101962
101960
101960
101961
101962
101963
101965
101967
101969
101971
101974
101978
101980
101983
101985
101987
101989
101990
101991
101937
101937
101937
101935
101933
101930
101927
101923
101920
101915
101910
101906
101905
101905
101906
101907
101909
101910
101912
101914
101916
101919
101922
101924
101926
101928
101929
101930
101931
101931
101879
101880
101879
101878
101876
101873
101870
101867
101864
101859
101855
101852
101851
101852
101852
101853
101855
101856
101858
101859
101861
101864
101866
101868
101869
101870
101871
101871
101872
101871
101822
101822
101821
101820
101819
101817
101815
101813
101809
101805
101801
101799
101799
101800
101801
101802
101803
101804
101805
101807
101809
101811
101812
101813
101814
101814
101814
101814
101814
101813
101766
101766
101765
101764
101763
101762
101761
101760
101757
101754
101751
101750
101750
101750
101751
101752
101753
101754
101756
101757
101759
101760
101761
101761
101760
101760
101760
101759
101759
101758
101712
101711
101710
101709
101708
101708
101708
101708
101706
101704
101702
101701
101701
101702
101703
101704
101705
101706
101707
101708
101710
101710
101710
101710
101708
101707
101706
101706
101705
101705
101658
101657
101656
101655
101655
101656
101656
101656
101656
101654
101654
101653
101654
101655
101656
101657
101657
101659
101660
101661
101662
101662
101661
101660
101658
101656
101655
101654
101653
101653
101604
101603
101603
101603
101603
101604
101605
101606
101606
101606
101606
101606
101607
101608
101609
101610
101611
101612
101613
101614
101614
101614
101613
101611
101609
101607
101604
101603
101602
101602
101551
101550
101551
101551
101553
101554
101556
101556
101557
101558
101559
101559
101560
101561
101562
101563
101564
101565
101566
101567
101567
101567
101566
101564
101561
101559
101556
101554
101553
101553
101499
101499
101500
101501
101503
101505
101506
101508
101509
101510
101512
101513
101514
101515
101516
101517
101518
101519
101520
101521
101521
101520
101519
101517
101514
101512
101509
101506
101505
101504
101449
101449
101451
101453
101455
101456
101458
101460
101461
101463
101465
101467
101468
101469
101470
101471
101472
101473
101474
101475
101474
101474
101472
101470
101468
101466
101463
101460
101458
101458
101400
101401
101403
101405
101407
101409
101410
101412
101414
101416
101419
101421
101422
101423
101425
101426
101427
101428
101428
101429
101429
101428
101426
101425
101423
101420
101418
101416
101413
101413
101353
101354
101356
101358
101360
101361
101363
101365
101368
101370
101372
101375
101376
101378
101379
101380
101381
101382
101383
101383
101383
101382
101381
101379
101377
101376
101374
101372
101370
101369
101306
101307
101309
101311
101313
101315
101317
101319
101321
101324
101327
101329
101331
101332
101334
101335
101336
101337
101337
101337
101337
101336
101335
101334
101332
101331
101330
101328
101327
101326
101260
101261
101263
101265
101267
101269
101271
101273
101275
101278
101281
101283
101285
101287
101288
101290
101291
101292
101292
101292
101291
101291
101290
101289
101288
101287
101286
101285
101284
101283
101215
101216
101217
101219
101221
101223
101225
101227
101230
101232
101235
101237
101240
101242
101243
101245
101246
101247
101247
101247
101246
101245
101245
101244
101244
101243
101242
101242
101241
101241
101171
101171
101172
101174
101176
101179
101180
101182
101184
101187
101189
101192
101195
101197
101199
101200
101201
101202
101202
101202
101202
101201
101200
101200
101200
101200
101200
101199
101199
101199
101128
101128
101129
101130
101132
101134
101136
101138
101140
101142
101145
101147
101150
101152
101154
101156
101157
101158
101158
101158
101158
101157
101157
101157
101157
101157
101157
101157
101157
101157
101085
101085
101086
101088
101089
101091
101092
101094
101096
101098
101101
101103
101106
101109
101111
101112
101114
101115
101115
101115
101115
101114
101114
101114
101114
101115
101116
101116
101116
101116
101043
101043
101044
101045
101047
101048
101049
101051
101053
101055
101058
101060
101063
101066
101068
101070
101071
101072
101072
101072
101072
101071
101071
101071
101072
101074
101075
101076
101076
101076
101002
101002
101003
101004
101005
101006
101007
101009
101011
101013
101016
101018
101021
101023
101026
101027
101029
101029
101030
101029
101029
101028
101029
101029
101030
101032
101034
101036
101036
101036
100963
100962
100962
100963
100964
100964
100966
100967
100970
100972
100974
100977
100980
100982
100984
100986
100987
100988
100987
100987
100986
100986
100987
100987
100989
100991
100993
100995
100997
100997
100923
100923
100922
100922
100923
100924
100925
100927
100929
100931
100934
100937
100939
100942
100944
100946
100946
100946
100946
100945
100945
100945
100945
100946
100948
100950
100952
100955
100957
100958
100883
100883
100883
100883
100883
100884
100885
100887
100889
100892
100895
100898
100901
100903
100905
100906
100907
100906
100906
100905
100904
100904
100904
100905
100907
100909
100911
100914
100917
100918
100844
100843
100843
100843
100844
100845
100846
100849
100851
100855
100858
100861
100863
100865
100867
100868
100868
100868
100867
100866
100865
100865
100865
100866
100867
100868
100871
100874
100876
100877
100805
100804
100805
100805
100806
100807
100809
100812
100815
100818
100821
100825
100827
100829
100830
100831
100830
100829
100828
100827
100827
100827
100827
100827
100828
100829
100831
100833
100835
100837
100766
100766
100767
100767
100769
100771
100773
100776
100779
100782
100786
100789
100791
100793
100794
100794
100793
100792
100791
100790
100790
100790
100790
100790
100790
100791
100792
100794
100796
100797
100729
100729
100729
100731
100733
100735
100738
100741
100744
100748
100751
100754
100756
100757
100758
100758
100757
100756
100755
100754
100754
100754
100755
100754
100754
100753
100754
100755
100757
100758
100692
100692
100693
100695
100698
100700
100703
100706
100710
100713
100717
100720
100721
100723
100723
100722
100721
100720
100719
100719
100719
100719
100719
100719
100718
100718
100718
100719
100720
100722
100656
100656
100658
100660
100663
100666
100669
100672
100675
100679
100683
100685
100687
100688
100688
100688
100686
100685
100685
100685
100685
100685
100685
100685
100684
100683
100683
100683
100684
100685
100621
100621
100623
100626
100629
100632
100635
100638
100641
100645
100648
100651
100653
100654
100654
100653
100652
100651
100651
100651
100651
100651
100651
100650
100650
100649
100648
100648
100649
100650
100586
100587
100590
100592
100595
100598
100601
100604
100608
100611
100615
100617
100619
100620
100620
100619
100619
100618
100617
100618
100618
100618
100617
100617
100616
100615
100614
100614
100615
100615
100554
100555
100557
100559
100562
100565
100568
100571
100574
100578
100581
100584
100586
100586
100587
100586
100586
100585
100585
100585
100585
100585
100584
100584
100583
100582
100581
100581
100581
100581
100522
100523
100525
100527
100530
100533
100536
100539
100542
100546
100549
100551
100553
100554
100554
100554
100553
100553
100553
100553
100552
100552
100552
100551
100550
100550
100549
100549
100548
100548
100492
100493
100495
100497
100499
100502
100505
100508
100511
100514
100518
100520
100521
100522
100523
100522
100522
100521
100521
100521
100520
100520
100520
100520
100519
100518
100518
100517
100517
100516
100463
100464
100466
100468
100470
100473
100475
100478
100481
100484
100487
100489
100491
100492
100492
100492
100491
100491
100490
100490
100489
100489
100489
100489
100489
100488
100487
100486
100485
100485
100435
100436
100438
100440
100443
100445
100447
100450
100453
100456
100458
100460
100461
100462
100462
100462
100461
100461
100461
100460
100459
100459
100459
100459
100459
100458
100457
100456
100455
100455
100409
100409
100411
100413
100416
100418
100420
100422
100425
100428
100430
100431
100432
100433
100433
100433
100432
100432
100431
100431
100430
100430
100430
100430
100429
100429
100427
100426
100425
100425
100383
100384
100386
100388
100390
100392
100394
100396
100398
100400
100402
100404
100404
100405
100405
100404
100404
100403
100403
100402
100402
100402
100402
100401
100401
100400
100398
100397
100395
100395
100359
100359
100361
100363
100365
100367
100368
100370
100372
100374
100375
100376
100377
100377
100377
100376
100376
100376
100375
100375
100374
100374
100374
100374
100373
100371
100369
100368
100367
100367
100336
100336
100337
100339
100340
100342
100343
100344
100346
100347
100348
100349
100350
100349
100349
100349
100349
100349
100348
100348
100348
100348
100347
100347
100346
100344
100342
100341
100339
100339
100313
100313
100315
100316
100317
100318
100318
100319
100320
100321
100322
100323
100323
100323
100323
100323
100323
100322
100322
100322
100322
100322
100321
100321
100320
100318
100316
100315
100314
100313
100291
100291
100292
100293
100293
100294
100294
100295
100296
100296
100297
100297
100297
100297
100297
100297
100297
100297
100297
100297
100297
100297