/*--------------------------------*- C++ -*----------------------------------*\
| =========                 |                                                 |
| \\      /  F ield         | OpenFOAM: The Open Source CFD Toolbox           |
|  \\    /   O peration     | Version:  v1606+                                |
|   \\  /    A nd           | Web:      www.OpenFOAM.com                      |
|    \\/     M anipulation  |                                                 |
\*---------------------------------------------------------------------------*/
FoamFile
{
    version     2.0;
    format      ascii;
    class       volScalarField;
    location    "0.0048";
    object      epsilon;
}
// * * * * * * * * * * * * * * * * * * * * * * * * * * * * * * * * * * * * * //

dimensions      [0 2 -3 0 0 0 0];

internalField   nonuniform List<scalar> 
2450
(
69.8369
64.5227
56.7961
50.5874
47.5687
47.0984
47.284
51.934
67.1664
89.1659
91.8808
93.0274
92.4346
90.3229
88.1398
86.2718
84.889
83.9111
83.1959
82.6837
82.3119
82.0364
81.8284
81.669
81.5453
81.4481
81.3709
81.309
81.2589
81.2182
81.1847
81.157
81.134
81.1147
81.0985
81.0847
81.073
81.0631
81.0545
81.047
81.0406
81.035
81.0301
81.0258
81.0219
81.0186
81.0156
81.0129
81.0106
81.0085
81.0066
81.005
81.0036
81.0023
81.0012
81.0003
80.9995
80.9989
80.9983
80.9979
80.9975
80.9972
80.9969
80.9964
80.9956
80.9944
80.9925
80.9902
80.9883
80.9893
63.808
60.0537
54.2955
49.411
47.2041
47.1671
47.1005
48.5233
60.1512
81.7789
92.9717
93.9359
92.752
90.2025
87.9609
86.1042
84.7658
83.821
83.1321
82.6377
82.2783
82.0113
81.8095
81.6546
81.5342
81.4395
81.3642
81.3038
81.255
81.2151
81.1823
81.1552
81.1327
81.1138
81.0978
81.0843
81.0729
81.063
81.0546
81.0473
81.0409
81.0354
81.0306
81.0263
81.0226
81.0192
81.0163
81.0137
81.0114
81.0093
81.0075
81.0059
81.0045
81.0032
81.0022
81.0012
81.0005
80.9998
80.9993
80.9988
80.9985
80.9982
80.9978
80.9973
80.9965
80.9951
80.9929
80.9901
80.9877
80.9888
55.6554
53.7482
50.6413
47.8793
46.6849
46.8126
46.0769
50.2519
63.3997
85.6247
93.1881
93.9607
92.5125
89.9203
87.667
85.8852
84.6137
83.716
83.0609
82.5894
82.2446
81.9875
81.7923
81.6421
81.5251
81.4328
81.3593
81.3003
81.2525
81.2135
81.1814
81.1548
81.1327
81.1141
81.0985
81.0852
81.0739
81.0643
81.056
81.0488
81.0426
81.0372
81.0324
81.0282
81.0245
81.0212
81.0183
81.0158
81.0135
81.0114
81.0096
81.0081
81.0067
81.0055
81.0044
81.0035
81.0028
81.0021
81.0016
81.0012
81.0008
81.0005
81.0002
80.9997
80.9988
80.9972
80.9946
80.9911
80.9879
80.9885
49.537
48.9352
47.7864
46.7831
46.7474
47.3667
49.1865
56.2796
74.9385
90.0237
94.0362
93.9488
92.0721
89.4385
87.2609
85.5972
84.4316
83.5796
82.9683
82.5262
82.2004
81.9557
81.7691
81.6249
81.5122
81.4231
81.352
81.2947
81.2482
81.2103
81.179
81.1531
81.1315
81.1134
81.0981
81.0852
81.0742
81.0648
81.0567
81.0496
81.0435
81.0382
81.0336
81.0295
81.0259
81.0226
81.0198
81.0173
81.015
81.013
81.0113
81.0097
81.0084
81.0072
81.0062
81.0053
81.0046
81.0039
81.0034
81.003
81.0026
81.0023
81.002
81.0015
81.0006
80.9989
80.9961
80.9921
80.9883
80.9886
46.3131
46.1207
45.9997
46.3993
47.3406
49.6018
55.0711
77.5623
87.3621
92.3325
94.2711
93.7048
91.3171
88.7759
86.748
85.2474
84.1894
83.4158
82.8572
82.4492
82.1456
81.9159
81.7397
81.6028
81.4952
81.41
81.3417
81.2866
81.2418
81.2052
81.1749
81.1499
81.1289
81.1114
81.0966
81.084
81.0733
81.0641
81.0562
81.0494
81.0435
81.0383
81.0338
81.0298
81.0262
81.0231
81.0203
81.0179
81.0157
81.0138
81.012
81.0105
81.0092
81.0081
81.0071
81.0062
81.0055
81.0049
81.0044
81.004
81.0036
81.0033
81.003
81.0025
81.0015
80.9998
80.9968
80.9926
80.9885
80.9886
45.1132
44.8051
45.3287
46.9722
49.7034
53.523
66.1563
83.2925
88.2716
93.556
94.3773
93.0058
90.2951
87.9663
86.1705
84.8598
83.9249
83.2349
82.7324
82.3612
82.0822
81.8692
81.7046
81.576
81.4746
81.3937
81.3288
81.2762
81.2334
81.1982
81.1692
81.1451
81.1249
81.108
81.0937
81.0816
81.0713
81.0624
81.0548
81.0482
81.0425
81.0375
81.0331
81.0292
81.0258
81.0228
81.0201
81.0177
81.0156
81.0137
81.012
81.0106
81.0093
81.0082
81.0072
81.0064
81.0057
81.0051
81.0046
81.0042
81.0039
81.0036
81.0033
81.0027
81.0018
81
80.997
80.9927
80.9885
80.9884
47.0017
46.7064
47.7783
50.3968
53.5482
63.0044
83.4304
85.8027
92.0914
94.8169
94.1614
91.7744
89.1999
87.1208
85.5844
84.4736
83.6477
83.0438
82.599
82.2659
82.0125
81.8173
81.6653
81.5457
81.4508
81.3749
81.3137
81.2639
81.2233
81.1898
81.1621
81.1391
81.1199
81.1037
81.09
81.0784
81.0684
81.06
81.0526
81.0463
81.0408
81.036
81.0318
81.0281
81.0248
81.0219
81.0193
81.017
81.015
81.0132
81.0116
81.0102
81.0089
81.0079
81.0069
81.0061
81.0055
81.0049
81.0044
81.004
81.0037
81.0034
81.0031
81.0026
81.0016
80.9999
80.9969
80.9925
80.9882
80.9881
53.571
52.7635
53.8778
56.4235
70.4153
87.925
90.063
91.5891
94.8493
94.7257
92.9462
90.2944
88.0226
86.2899
85.0251
84.0724
83.3704
82.8516
82.4627
82.167
81.9394
81.7623
81.6232
81.513
81.425
81.3542
81.2969
81.2502
81.2119
81.1803
81.1541
81.1323
81.114
81.0986
81.0856
81.0745
81.0651
81.057
81.05
81.044
81.0387
81.0341
81.0301
81.0266
81.0234
81.0207
81.0182
81.016
81.0141
81.0124
81.0108
81.0095
81.0083
81.0073
81.0064
81.0057
81.005
81.0045
81.004
81.0036
81.0034
81.0031
81.0027
81.0022
81.0013
80.9995
80.9965
80.9921
80.9878
80.9877
64.8374
69.4745
81.6685
81.9288
88.7387
91.3396
93.0131
94.0851
94.6556
93.483
91.0246
88.7417
86.8965
85.5102
84.4787
83.6931
83.1067
82.665
82.3279
82.0678
81.8651
81.7058
81.5795
81.4788
81.3978
81.3324
81.2791
81.2355
81.1997
81.17
81.1454
81.1248
81.1076
81.093
81.0807
81.0702
81.0613
81.0537
81.047
81.0413
81.0364
81.032
81.0282
81.0248
81.0219
81.0193
81.0169
81.0149
81.013
81.0114
81.0099
81.0087
81.0076
81.0066
81.0058
81.005
81.0044
81.0039
81.0035
81.0032
81.0029
81.0026
81.0023
81.0018
81.0008
80.9991
80.996
80.9916
80.9873
80.9872
86.7651
87.0966
90.2765
91.9306
93.744
93.9684
94.122
94.0265
93.2193
91.2265
89.1336
87.3199
85.9056
84.8277
83.9878
83.3485
82.8623
82.4884
82.1981
81.9708
81.7916
81.6492
81.5354
81.4439
81.3699
81.3097
81.2605
81.2201
81.1868
81.1592
81.1361
81.1169
81.1007
81.087
81.0755
81.0656
81.0572
81.05
81.0438
81.0384
81.0338
81.0297
81.0261
81.023
81.0202
81.0177
81.0155
81.0136
81.0118
81.0103
81.009
81.0078
81.0067
81.0058
81.005
81.0044
81.0038
81.0033
81.0029
81.0026
81.0023
81.002
81.0017
81.0012
81.0003
80.9986
80.9955
80.9911
80.9868
80.9867
94.7318
94.7602
94.4252
94.8257
94.9197
94.3839
93.7558
92.6292
90.9853
89.1742
87.5096
86.1524
85.0823
84.2248
83.558
83.0418
82.6397
82.3244
82.0756
81.878
81.7203
81.5938
81.4917
81.4091
81.3418
81.2868
81.2416
81.2044
81.1735
81.1479
81.1265
81.1086
81.0935
81.0808
81.07
81.0608
81.0529
81.0462
81.0404
81.0354
81.031
81.0272
81.0239
81.0209
81.0183
81.016
81.014
81.0122
81.0106
81.0091
81.0079
81.0068
81.0058
81.005
81.0042
81.0036
81.0031
81.0026
81.0023
81.002
81.0017
81.0015
81.0012
81.0007
80.9997
80.998
80.9949
80.9905
80.9863
80.9861
96.0652
95.6675
94.7303
94.6669
93.9878
92.9957
91.7842
90.3721
88.8814
87.4522
86.2207
85.2156
84.3826
83.7169
83.1901
82.7724
82.44
82.1745
81.9617
81.7906
81.6523
81.5403
81.4492
81.3749
81.314
81.264
81.2227
81.1885
81.1601
81.1365
81.1167
81.1001
81.0861
81.0743
81.0642
81.0557
81.0484
81.0422
81.0368
81.0322
81.0281
81.0246
81.0215
81.0188
81.0164
81.0142
81.0124
81.0107
81.0092
81.0079
81.0067
81.0057
81.0048
81.004
81.0034
81.0028
81.0023
81.0019
81.0016
81.0013
81.0011
81.0008
81.0005
81.0001
80.9992
80.9974
80.9944
80.99
80.9857
80.9855
94.6198
94.1192
93.325
92.6963
91.6936
90.6779
89.5401
88.333
87.1661
86.1145
85.2169
84.447
83.812
83.2958
82.8773
82.538
82.2627
82.0392
81.8574
81.7093
81.5884
81.4895
81.4085
81.3418
81.2869
81.2415
81.2039
81.1727
81.1467
81.1249
81.1067
81.0914
81.0785
81.0676
81.0584
81.0505
81.0438
81.0381
81.0331
81.0288
81.0251
81.0219
81.019
81.0165
81.0143
81.0124
81.0107
81.0091
81.0078
81.0066
81.0055
81.0046
81.0038
81.0031
81.0025
81.002
81.0015
81.0012
81.0009
81.0006
81.0004
81.0002
80.9999
80.9995
80.9985
80.9968
80.9938
80.9894
80.9851
80.9849
91.5848
91.223
90.7292
90.1332
89.372
88.5351
87.623
86.7079
85.8701
85.0935
84.416
83.8371
83.3518
82.9476
82.6125
82.3354
82.1067
81.9181
81.7627
81.6346
81.529
81.4418
81.3698
81.3102
81.2608
81.2198
81.1856
81.1572
81.1334
81.1135
81.0968
81.0828
81.071
81.061
81.0525
81.0453
81.0391
81.0339
81.0293
81.0254
81.022
81.0191
81.0165
81.0142
81.0122
81.0104
81.0089
81.0075
81.0063
81.0052
81.0043
81.0034
81.0027
81.0021
81.0015
81.0011
81.0007
81.0004
81.0001
80.9999
80.9997
80.9995
80.9993
80.9988
80.9979
80.9962
80.9932
80.9888
80.9845
80.9843
89.1211
88.838
88.4661
87.9939
87.4351
86.8073
86.1403
85.4949
84.8681
84.2977
83.7937
83.3557
82.9796
82.6595
82.3888
82.161
81.9702
81.8107
81.6776
81.5667
81.4744
81.3975
81.3336
81.2803
81.2359
81.1989
81.168
81.1421
81.1205
81.1023
81.0871
81.0743
81.0634
81.0543
81.0466
81.04
81.0344
81.0296
81.0255
81.022
81.0189
81.0162
81.0139
81.0118
81.0101
81.0085
81.0071
81.0059
81.0048
81.0038
81.003
81.0022
81.0016
81.0011
81.0006
81.0002
80.9999
80.9996
80.9994
80.9992
80.999
80.9989
80.9986
80.9982
80.9973
80.9956
80.9925
80.9882
80.9839
80.9837
87.1926
86.9824
86.7209
86.3828
85.9756
85.5349
85.0515
84.5718
84.113
83.691
83.3107
82.9731
82.6772
82.4207
82.2001
82.0116
81.8514
81.7158
81.6015
81.5053
81.4245
81.3567
81.2998
81.2523
81.2124
81.179
81.1511
81.1276
81.108
81.0914
81.0776
81.0659
81.056
81.0477
81.0407
81.0347
81.0297
81.0253
81.0216
81.0185
81.0157
81.0134
81.0113
81.0095
81.0079
81.0065
81.0052
81.0042
81.0032
81.0024
81.0016
81.001
81.0005
81
80.9996
80.9993
80.999
80.9988
80.9986
80.9984
80.9983
80.9982
80.998
80.9975
80.9967
80.995
80.9919
80.9876
80.9833
80.9831
85.7884
85.6505
85.4605
85.2135
84.9169
84.5847
84.2339
83.8823
83.5429
83.2244
82.9315
82.6666
82.4305
82.2225
82.0409
81.8837
81.7484
81.6326
81.5339
81.4501
81.3792
81.3193
81.2688
81.2262
81.1904
81.1603
81.135
81.1138
81.096
81.081
81.0683
81.0577
81.0488
81.0413
81.0349
81.0296
81.025
81.0211
81.0178
81.015
81.0126
81.0105
81.0086
81.007
81.0057
81.0045
81.0034
81.0025
81.0016
81.0009
81.0003
80.9998
80.9993
80.9989
80.9986
80.9983
80.9981
80.9979
80.9978
80.9977
80.9976
80.9975
80.9973
80.9969
80.9961
80.9944
80.9914
80.987
80.9827
80.9825
84.7754
84.6574
84.5202
84.3422
84.1272
83.8844
83.6264
83.3642
83.1067
82.8607
82.6307
82.4195
82.2284
82.0577
81.9067
81.7744
81.6592
81.5597
81.4742
81.4009
81.3384
81.2853
81.2403
81.2022
81.17
81.1428
81.12
81.1007
81.0845
81.0709
81.0595
81.0499
81.0418
81.035
81.0293
81.0245
81.0204
81.017
81.0141
81.0116
81.0094
81.0076
81.006
81.0047
81.0035
81.0024
81.0015
81.0008
81.0001
80.9995
80.999
80.9985
80.9982
80.9979
80.9976
80.9974
80.9972
80.9971
80.997
80.9969
80.9969
80.9968
80.9967
80.9963
80.9955
80.9938
80.9908
80.9864
80.9822
80.9819
84.0259
83.9342
83.8338
83.7036
83.5449
83.364
83.1691
82.9682
82.7681
82.5741
82.3902
82.219
82.0621
81.9203
81.7934
81.681
81.5823
81.4962
81.4216
81.3572
81.3019
81.2546
81.2144
81.1801
81.1511
81.1266
81.1059
81.0884
81.0738
81.0614
81.0511
81.0424
81.0351
81.029
81.0239
81.0196
81.016
81.0129
81.0104
81.0082
81.0064
81.0048
81.0034
81.0023
81.0013
81.0004
80.9997
80.9991
80.9985
80.998
80.9976
80.9973
80.997
80.9968
80.9966
80.9965
80.9964
80.9963
80.9962
80.9962
80.9962
80.9962
80.996
80.9957
80.9949
80.9932
80.9902
80.9859
80.9816
80.9814
83.4745
83.4029
83.3276
83.2295
83.1089
82.9701
82.8188
82.661
82.5019
82.3459
82.1963
82.0554
81.9248
81.8055
81.6977
81.6014
81.516
81.4409
81.3753
81.3184
81.2693
81.227
81.1909
81.16
81.1338
81.1116
81.0928
81.077
81.0636
81.0525
81.0431
81.0353
81.0287
81.0232
81.0187
81.0148
81.0117
81.009
81.0068
81.0049
81.0034
81.002
81.0009
81
80.9992
80.9985
80.9979
80.9974
80.997
80.9966
80.9963
80.9961
80.9959
80.9958
80.9956
80.9956
80.9955
80.9955
80.9955
80.9955
80.9955
80.9955
80.9954
80.9951
80.9943
80.9927
80.9897
80.9853
80.9811
80.9808
83.062
83.0046
82.9465
82.8704
82.7762
82.6668
82.5464
82.4197
82.2906
82.1628
82.039
81.9212
81.811
81.7094
81.6169
81.5334
81.4589
81.3929
81.3349
81.2843
81.2403
81.2023
81.1697
81.1418
81.118
81.0978
81.0808
81.0664
81.0542
81.0441
81.0356
81.0285
81.0226
81.0177
81.0137
81.0103
81.0075
81.0052
81.0033
81.0018
81.0005
80.9994
80.9985
80.9977
80.9971
80.9966
80.9961
80.9958
80.9955
80.9952
80.995
80.9949
80.9948
80.9947
80.9947
80.9947
80.9947
80.9947
80.9947
80.9948
80.9949
80.9949
80.9948
80.9945
80.9938
80.9921
80.9892
80.9848
80.9806
80.9803
82.7473
82.7003
82.6542
82.5937
82.5182
82.4299
82.332
82.2281
82.1214
82.0148
81.9106
81.8107
81.7165
81.6289
81.5485
81.4755
81.4098
81.3513
81.2996
81.2542
81.2146
81.1803
81.1508
81.1254
81.1037
81.0853
81.0697
81.0566
81.0455
81.0363
81.0286
81.0222
81.0169
81.0126
81.009
81.006
81.0036
81.0016
81
80.9987
80.9977
80.9968
80.9961
80.9955
80.9951
80.9947
80.9944
80.9942
80.994
80.9939
80.9938
80.9937
80.9937
80.9937
80.9937
80.9938
80.9939
80.9939
80.994
80.9941
80.9942
80.9943
80.9943
80.994
80.9932
80.9916
80.9887
80.9844
80.9802
80.9799
82.5034
82.4641
82.4268
82.3775
82.3157
82.2429
82.1616
82.0746
81.9848
81.8944
81.8053
81.7194
81.6377
81.5613
81.4906
81.426
81.3677
81.3154
81.2689
81.2279
81.192
81.1608
81.1339
81.1107
81.0908
81.074
81.0597
81.0476
81.0376
81.0292
81.0222
81.0164
81.0116
81.0077
81.0046
81.002
80.9999
80.9982
80.9969
80.9958
80.995
80.9943
80.9938
80.9934
80.9931
80.9929
80.9927
80.9926
80.9926
80.9926
80.9926
80.9926
80.9927
80.9927
80.9928
80.9929
80.9931
80.9932
80.9934
80.9935
80.9936
80.9937
80.9937
80.9935
80.9928
80.9912
80.9883
80.984
80.9798
80.9795
82.312
82.2786
82.2477
82.2068
82.1551
82.0938
82.0249
81.9509
81.8739
81.7959
81.7187
81.6437
81.572
81.5045
81.4417
81.384
81.3316
81.2844
81.2422
81.2049
81.1722
81.1436
81.1189
81.0975
81.0793
81.0637
81.0506
81.0395
81.0303
81.0226
81.0162
81.011
81.0067
81.0032
81.0004
80.9982
80.9964
80.995
80.994
80.9931
80.9925
80.992
80.9917
80.9914
80.9913
80.9912
80.9912
80.9912
80.9912
80.9913
80.9914
80.9915
80.9917
80.9918
80.992
80.9921
80.9923
80.9925
80.9927
80.9929
80.9931
80.9932
80.9932
80.993
80.9923
80.9908
80.9878
80.9836
80.9794
80.9791
82.1602
82.1315
82.1054
82.0707
82.0266
81.974
81.9146
81.8505
81.7835
81.7152
81.6473
81.5809
81.5171
81.4567
81.4003
81.3482
81.3007
81.2577
81.2192
81.185
81.1548
81.1285
81.1056
81.0859
81.069
81.0546
81.0424
81.0322
81.0237
81.0166
81.0108
81.0061
81.0022
80.9991
80.9966
80.9947
80.9932
80.992
80.9912
80.9906
80.9901
80.9898
80.9896
80.9896
80.9895
80.9896
80.9897
80.9898
80.99
80.9901
80.9903
80.9905
80.9907
80.9909
80.9912
80.9914
80.9916
80.9919
80.9921
80.9923
80.9925
80.9927
80.9927
80.9926
80.9919
80.9904
80.9875
80.9832
80.979
80.9787
82.0391
82.0139
81.9915
81.9615
81.9233
81.8774
81.8253
81.7688
81.7095
81.6489
81.5883
81.5288
81.4713
81.4167
81.3655
81.3179
81.2744
81.2349
81.1994
81.1677
81.1398
81.1153
81.094
81.0756
81.0599
81.0465
81.0351
81.0257
81.0178
81.0112
81.0059
81.0015
80.9981
80.9953
80.9931
80.9915
80.9902
80.9893
80.9886
80.9882
80.9879
80.9878
80.9877
80.9878
80.9879
80.9881
80.9883
80.9885
80.9887
80.989
80.9893
80.9896
80.9898
80.9901
80.9904
80.9907
80.9909
80.9912
80.9915
80.9918
80.992
80.9922
80.9923
80.9921
80.9915
80.99
80.9871
80.9828
80.9787
80.9784
81.9419
81.9195
81.9
81.8737
81.8399
81.7992
81.7528
81.7022
81.649
81.5944
81.5396
81.4855
81.4332
81.3832
81.3361
81.2923
81.2521
81.2154
81.1824
81.1529
81.1267
81.1038
81.0839
81.0666
81.0518
81.0393
81.0287
81.0198
81.0124
81.0064
81.0014
80.9975
80.9943
80.9918
80.9899
80.9885
80.9875
80.9867
80.9862
80.986
80.9859
80.9859
80.986
80.9861
80.9864
80.9866
80.9869
80.9873
80.9876
80.9879
80.9883
80.9886
80.989
80.9893
80.9896
80.99
80.9903
80.9906
80.9909
80.9912
80.9915
80.9917
80.9919
80.9917
80.9911
80.9896
80.9868
80.9825
80.9783
80.978
81.8638
81.8437
81.8264
81.8029
81.7725
81.7358
81.6939
81.648
81.5996
81.5497
81.4994
81.4498
81.4015
81.3552
81.3115
81.2708
81.2331
81.1988
81.1678
81.1401
81.1155
81.0939
81.075
81.0588
81.0448
81.0329
81.0229
81.0146
81.0077
81.002
80.9974
80.9938
80.9909
80.9886
80.987
80.9857
80.9849
80.9843
80.984
80.9839
80.9839
80.984
80.9842
80.9845
80.9849
80.9852
80.9856
80.986
80.9865
80.9869
80.9873
80.9877
80.9881
80.9885
80.9888
80.9892
80.9896
80.99
80.9903
80.9906
80.991
80.9912
80.9914
80.9912
80.9906
80.9892
80.9863
80.9821
80.9779
80.9776
81.8011
81.7828
81.7672
81.7458
81.7182
81.6846
81.6461
81.6039
81.5592
81.513
81.4664
81.4202
81.3752
81.3319
81.2909
81.2526
81.2171
81.1847
81.1554
81.1291
81.1057
81.0852
81.0673
81.0518
81.0385
81.0272
81.0177
81.0098
81.0033
80.9979
80.9937
80.9903
80.9876
80.9856
80.9841
80.9831
80.9824
80.982
80.9818
80.9818
80.9819
80.9821
80.9825
80.9829
80.9833
80.9837
80.9842
80.9847
80.9852
80.9857
80.9861
80.9866
80.987
80.9875
80.9879
80.9883
80.9887
80.9891
80.9895
80.9899
80.9902
80.9905
80.9907
80.9906
80.99
80.9885
80.9857
80.9815
80.9773
80.977
81.751
81.734
81.7198
81.7001
81.6745
81.6433
81.6074
81.568
81.5262
81.483
81.4392
81.3957
81.3533
81.3124
81.2735
81.2372
81.2035
81.1726
81.1446
81.1194
81.0971
81.0774
81.0602
81.0454
81.0326
81.0219
81.0128
81.0052
80.999
80.994
80.9899
80.9867
80.9843
80.9825
80.9811
80.9802
80.9797
80.9794
80.9793
80.9794
80.9797
80.98
80.9804
80.9809
80.9814
80.9819
80.9825
80.983
80.9836
80.9841
80.9846
80.9851
80.9856
80.9861
80.9866
80.987
80.9875
80.9879
80.9883
80.9887
80.9891
80.9894
80.9896
80.9895
80.9889
80.9875
80.9847
80.9804
80.9763
80.976
81.7112
81.6952
81.6819
81.6634
81.6393
81.61
81.5761
81.5389
81.4993
81.4583
81.4168
81.3754
81.3349
81.2958
81.2587
81.2238
81.1915
81.1618
81.1348
81.1106
81.089
81.0701
81.0535
81.0391
81.0269
81.0164
81.0077
81.0004
80.9945
80.9897
80.9858
80.9828
80.9805
80.9788
80.9776
80.9769
80.9764
80.9762
80.9762
80.9764
80.9768
80.9772
80.9777
80.9782
80.9788
80.9794
80.98
80.9806
80.9812
80.9818
80.9824
80.9829
80.9834
80.984
80.9845
80.9849
80.9854
80.9859
80.9863
80.9867
80.9871
80.9875
80.9877
80.9876
80.9871
80.9856
80.9828
80.9786
80.9744
80.9741
81.68
81.6645
81.6517
81.6339
81.6109
81.5828
81.5505
81.5149
81.477
81.4377
81.3978
81.358
81.319
81.2813
81.2454
81.2117
81.1804
81.1516
81.1255
81.102
81.0811
81.0626
81.0464
81.0325
81.0206
81.0105
81.002
80.9949
80.9892
80.9846
80.9809
80.978
80.9759
80.9743
80.9732
80.9725
80.9722
80.9721
80.9722
80.9725
80.9729
80.9734
80.9739
80.9745
80.9752
80.9758
80.9765
80.9771
80.9778
80.9784
80.979
80.9796
80.9801
80.9807
80.9812
80.9817
80.9822
80.9827
80.9832
80.9836
80.984
80.9844
80.9846
80.9845
80.984
80.9826
80.9797
80.9755
80.9714
80.971
81.6565
81.6411
81.6281
81.6105
81.588
81.5608
81.5296
81.4951
81.4584
81.4203
81.3815
81.3429
81.305
81.2683
81.2334
81.2005
81.1699
81.1418
81.1163
81.0933
81.0728
81.0548
81.039
81.0254
81.0137
81.0038
80.9956
80.9887
80.9831
80.9786
80.9751
80.9724
80.9703
80.9689
80.9679
80.9673
80.967
80.967
80.9671
80.9675
80.968
80.9685
80.9691
80.9698
80.9705
80.9712
80.9719
80.9726
80.9732
80.9739
80.9745
80.9751
80.9757
80.9763
80.9769
80.9774
80.9779
80.9784
80.9789
80.9794
80.9798
80.9801
80.9804
80.9803
80.9798
80.9784
80.9756
80.9714
80.9673
80.967
81.6434
81.6278
81.6141
81.5964
81.574
81.5471
81.5163
81.4825
81.4464
81.4089
81.3708
81.3328
81.2955
81.2593
81.2249
81.1925
81.1623
81.1345
81.1093
81.0866
81.0663
81.0485
81.0329
81.0194
81.0079
80.9981
80.99
80.9832
80.9777
80.9733
80.9698
80.9672
80.9652
80.9638
80.9628
80.9623
80.9621
80.9621
80.9623
80.9627
80.9632
80.9638
80.9644
80.9651
80.9659
80.9666
80.9673
80.9681
80.9688
80.9694
80.9701
80.9707
80.9713
80.9719
80.9725
80.973
80.9736
80.9741
80.9746
80.9751
80.9755
80.9759
80.9761
80.9761
80.9755
80.9741
80.9713
80.9672
80.9632
80.963
81.6553
81.6397
81.6255
81.6071
81.5841
81.5567
81.5255
81.4911
81.4544
81.4164
81.3777
81.339
81.301
81.2642
81.2292
81.1961
81.1654
81.137
81.1113
81.0881
81.0674
81.0491
81.0331
81.0193
81.0075
80.9974
80.989
80.9821
80.9764
80.9718
80.9682
80.9654
80.9633
80.9618
80.9608
80.9602
80.96
80.96
80.9601
80.9605
80.961
80.9616
80.9622
80.9629
80.9636
80.9644
80.9651
80.9658
80.9665
80.9672
80.9679
80.9685
80.9692
80.9698
80.9703
80.9709
80.9714
80.9719
80.9724
80.9729
80.9734
80.9737
80.974
80.9739
80.9734
80.972
80.9692
80.9651
80.9614
80.9614
)
;

boundaryField
{
    left
    {
        type            symmetryPlane;
    }
    right
    {
        type            symmetryPlane;
    }
    top
    {
        type            symmetryPlane;
    }
    bottom
    {
        type            symmetryPlane;
    }
    frontAndBack
    {
        type            empty;
    }
}


// ************************************************************************* //
