/*--------------------------------*- C++ -*----------------------------------*\
| =========                 |                                                 |
| \\      /  F ield         | OpenFOAM: The Open Source CFD Toolbox           |
|  \\    /   O peration     | Version:  v1606+                                |
|   \\  /    A nd           | Web:      www.OpenFOAM.com                      |
|    \\/     M anipulation  |                                                 |
\*---------------------------------------------------------------------------*/
FoamFile
{
    version     2.0;
    format      ascii;
    class       volScalarField;
    location    "5.5";
    object      epsilon_0;
}
// * * * * * * * * * * * * * * * * * * * * * * * * * * * * * * * * * * * * * //

dimensions      [0 2 -3 0 0 0 0];

internalField   nonuniform List<scalar> 
11640
(
0.000130547091615
0.000172713322669
0.000202200006116
0.000219771917538
0.00022878488808
0.000231648507295
0.000230594230618
0.000227698193561
0.000224164013073
0.000220503868589
0.000217145597701
0.000214773184413
0.000214096552832
0.000214831603409
0.000215147610635
0.000212529194048
0.000204522705744
0.000188131272875
0.000160474099701
0.00012170925074
0.000174189027693
0.000366719911684
0.000491647741558
0.000567126866345
0.000609566596553
0.000628281443022
0.000629845132523
0.000621036661571
0.000609276848959
0.000598132329221
0.000589200741516
0.00058944062154
0.000598826071427
0.00060807736568
0.000607935956804
0.000589447171452
0.000548495357966
0.000476613558287
0.000353206153775
0.000162145435923
0.000204069424524
0.000491602974177
0.000687730508944
0.000815589927943
0.000888924875445
0.00091630960176
0.000909417606506
0.000885004374828
0.000856721229444
0.000828629241203
0.000807265198489
0.000825184071268
0.000853641345286
0.000883856017262
0.000897310486954
0.000872380138686
0.000797286048146
0.000669292647125
0.000476814090832
0.000189940406096
0.000221332125732
0.000568582530137
0.000819229301772
0.000983585862097
0.00106754671137
0.00108431064958
0.00105529896486
0.00100693074947
0.000957862495401
0.000910682557304
0.00088449061257
0.000923219286375
0.000979077458012
0.00104471944674
0.00109029662028
0.00107726270565
0.00098332824394
0.000807128573959
0.000553188977217
0.00020643804496
0.000231193381762
0.000616315789808
0.000900017435839
0.00107588754505
0.0011488924756
0.00113754188231
0.00107271161625
0.000994950361443
0.000924590254956
0.000860969103981
0.00083624203778
0.000891707988434
0.000976216802797
0.0010891656137
0.00118755574429
0.0012091733605
0.00111600662092
0.000909030085517
0.000606579663776
0.000216747004102
0.000236870675
0.000640736246836
0.000934768343318
0.00110162780101
0.00114549577326
0.00108697900442
0.000963456862636
0.000842770340324
0.000754466048576
0.000683602426626
0.000665944498924
0.000723716089012
0.00082836853756
0.00100235574658
0.00118049319929
0.00126271638061
0.0011930883481
0.000974841015588
0.000642353428049
0.000224718985087
0.000238263549367
0.000645269078732
0.000934351522802
0.00108116734439
0.00108564411397
0.000963086643897
0.000753662718596
0.000578324130441
0.00048813400525
0.000431692290969
0.000432672904125
0.000475298537252
0.000579685910189
0.00080929609928
0.00108432062637
0.00124392434032
0.00121450882213
0.001003353489
0.0006601794364
0.000229719765321
0.000236075792548
0.000637874600369
0.00091561516956
0.00104148101851
0.00100978435005
0.000830877379101
0.000549595655205
0.000362956776347
0.000291862920387
0.000262603900537
0.000260481454711
0.000291483279251
0.000385093854561
0.00062379617745
0.000972528355659
0.00119440882388
0.0012019746668
0.00100521175049
0.000663582355582
0.000231202260851
0.000232773479959
0.000629941139675
0.000899541395104
0.00101258102265
0.000961475007367
0.000756611017652
0.000454971064321
0.000274333447092
0.000207536173113
0.000187034523535
0.000189377300734
0.00021989568168
0.000311759105448
0.000542490468662
0.00091520515864
0.00116662879776
0.00119436301999
0.00100586594396
0.000665566899407
0.000232005895916
0.000230516020913
0.000629253281865
0.000899081411713
0.00101027899836
0.000956087714033
0.000745318217805
0.000436064472291
0.000250657219514
0.000184547118675
0.000168402072345
0.000174567074555
0.000207364429201
0.000303896113722
0.000543392245859
0.000929256248887
0.00118759594358
0.00121539393609
0.0010214612417
0.000673866340762
0.000233556951494
0.000229744052541
0.000637819851938
0.000916281448298
0.00103867539079
0.000999413474004
0.000805802246816
0.000502254452643
0.00030023134464
0.000231595017996
0.000212355589962
0.000218701067482
0.000258488214288
0.000367488485102
0.000633109606279
0.00102168892707
0.00126292398413
0.00126895192841
0.00105469103313
0.000690316851766
0.000236407263104
0.000229327009604
0.000651757980271
0.000947745565209
0.0010942739115
0.00109324540777
0.000959224577311
0.000726435214918
0.000532466302478
0.000457324472025
0.000425549309345
0.000406573289942
0.000469321502765
0.000609813669445
0.000890336294953
0.00121231176881
0.00138776086993
0.00134406359973
0.00109682893658
0.000710186811862
0.00023913993783
0.000227240152798
0.000661882577211
0.000978058848191
0.00115602669558
0.0012029118704
0.00114109816512
0.00100503478867
0.00087361086465
0.00079944676151
0.000746616909767
0.0007505586765
0.000847807547031
0.000997922551424
0.00121663723058
0.00142721333735
0.00150807267633
0.00140273071358
0.00112409871909
0.000722736284096
0.000239886615851
0.000223004618444
0.000660462374057
0.00098874151794
0.00119634906588
0.00128850178905
0.00128931398991
0.00123077724334
0.0011600510626
0.00110363035002
0.00105498972164
0.00108371774884
0.00118619242951
0.00131388074222
0.00146028712173
0.00156943242979
0.0015652659485
0.00141130949703
0.00111873452821
0.000721813818048
0.000238265914727
0.000218737106422
0.000646576015206
0.000968610075332
0.00119155467965
0.00131832427934
0.00136532138441
0.00135788678419
0.00132777520353
0.0012956408608
0.00126592468882
0.00130941943531
0.00139137319774
0.00148038138535
0.00156316957444
0.00159870187173
0.00153823466909
0.00136249832337
0.00108078952288
0.000708791466026
0.000235649100329
0.000213327909459
0.000621552969736
0.000917289151107
0.00112849292894
0.00126735324536
0.00134135932651
0.00136670194307
0.00136566908776
0.00135620138968
0.00135010190447
0.00139128244851
0.00144293733157
0.00149154495637
0.00152485696847
0.00151420385053
0.0014304100578
0.0012632847902
0.00101715899414
0.000683405244683
0.000231130543962
0.000203059190511
0.000575312758081
0.000837843838174
0.00101478013022
0.00113578122505
0.00121123159626
0.00124998515954
0.00126587795373
0.00127273432554
0.0012901682191
0.00131644105404
0.00134153968232
0.00136093774042
0.00136541979799
0.00133672468315
0.00125877157525
0.00112435394965
0.000924784767057
0.000633197137656
0.000220580719902
0.000185046110798
0.000491132568227
0.00070635728483
0.000848410637072
0.000939773958839
0.000996800231595
0.00103081875941
0.0010541693552
0.00107088393451
0.0010856947777
0.00109894964185
0.00110955850775
0.00111540427819
0.00111079767708
0.00108550069777
0.00102947335989
0.000932258059962
0.000777519518313
0.000540479267861
0.000200253654241
0.000156983024669
0.000356213817143
0.000494446551295
0.000585665204668
0.00064439601003
0.000681597685922
0.000704760061988
0.000719172918459
0.000729101956256
0.000736972786551
0.000743642609443
0.000749033323109
0.000751902929434
0.000748755463048
0.000734461312915
0.000701930045942
0.000641709612266
0.000542795928731
0.000389366897843
0.000167283512597
0.000119418071591
0.000159318653055
0.000188742113076
0.00020799570498
0.000220294050312
0.000227904423677
0.000232832117435
0.000236181825848
0.00023854848524
0.000240476217671
0.000242217972141
0.000243659018101
0.000244611370569
0.000244284074837
0.000241727573283
0.00023522850018
0.000222753061136
0.000201502238087
0.000168064328188
0.000122667479641
0.000180280043134
0.000283267876346
0.000356685411049
0.000399770002814
0.000420791898798
0.000428027325046
0.000429077787683
0.00042833463591
0.000427693657762
0.000427526067022
0.000427282515389
0.000425780945192
0.000424260122658
0.00042341504517
0.000421643626594
0.000414256042014
0.000393336506052
0.000350068299385
0.000276211385234
0.000173697198335
0.000286062868449
0.000380233761992
0.000467204922063
0.000522033879432
0.000551280627835
0.000563448655487
0.00056465048701
0.000559960249713
0.000553955565706
0.000549129103131
0.00054637501632
0.000546838576184
0.000550443615221
0.000554455385654
0.000553614498582
0.000542028274283
0.000513357502191
0.000459142608239
0.000372041344351
0.000278846794406
0.00036052960537
0.000468858007807
0.000576487839388
0.000648029082852
0.000687835559828
0.000701706470636
0.000697787405934
0.000685452682778
0.000671943674516
0.00066083516528
0.000655063517088
0.000661092447846
0.000673702456601
0.000688047483057
0.00069488996622
0.00068166750232
0.00064071582705
0.000567846904394
0.000459878177272
0.00035237132379
0.000402455162016
0.000525608380919
0.000651013875297
0.000734695845111
0.000776634129229
0.000784111873396
0.00076891273107
0.000744784149418
0.000721138071676
0.000702563633425
0.000695217638811
0.000709049170033
0.000734318722986
0.000765792882241
0.000789218280351
0.000784451982744
0.000737118982141
0.000645896350549
0.000516339577139
0.000394561206658
0.000420956785538
0.000557270220878
0.000694152319696
0.000781328121278
0.000817618635014
0.000811524794229
0.000778578243776
0.000738774141446
0.000702493908879
0.000675970392807
0.000667702078892
0.000687149648947
0.000725990728873
0.000780317732837
0.000830604343635
0.000844956160127
0.000801414801263
0.000698089310723
0.000549702040637
0.000413839325071
0.000425521839782
0.000570268235306
0.000711138804349
0.000794630466116
0.000818248974439
0.000790446098538
0.000730331451478
0.00066970200113
0.000616753934254
0.000582629991609
0.00057279047365
0.000592085304659
0.000643026521314
0.000726775388743
0.000816652858658
0.000862782902895
0.000833634029955
0.000727558960377
0.000566833246349
0.000419508657594
0.000422803125356
0.000570544227217
0.00070966622663
0.000784705314243
0.000790663588432
0.000733630987234
0.000633126284104
0.000537349869331
0.000460339436197
0.000426132820061
0.000420016301619
0.00043636677615
0.000500408895141
0.000619114205202
0.000758901967983
0.000844932926184
0.000837910134971
0.000737646744683
0.000572893437215
0.000419749510738
0.000418053295558
0.000564972775271
0.000699765949345
0.000765321901043
0.000753954002796
0.000669472844329
0.000532486781483
0.000386654993858
0.000305149852108
0.000282874001389
0.000278539710746
0.000292714578192
0.000363143291068
0.000507127839488
0.00069291395089
0.00081392566192
0.000827725433129
0.000736331930322
0.000573006179248
0.000418785493624
0.000414743562828
0.000560397752867
0.000692078253988
0.000751413875486
0.00072863652692
0.000623879044035
0.000451575584607
0.000292465801837
0.000214513052416
0.000196843429344
0.000195965317046
0.000210683699415
0.000281090051137
0.000438579818948
0.000653689507859
0.000796239995319
0.000822590139446
0.000736486449412
0.000574056840828
0.000419541151917
0.000415232759118
0.000561245969344
0.000693417803183
0.000752530448141
0.000728569328976
0.000621626162799
0.000446360373614
0.000284728622541
0.000205882599428
0.000189515041962
0.000188625334022
0.000201921839221
0.000274197982939
0.000440389319757
0.000663343851448
0.000809120307966
0.000835203919851
0.000746328417288
0.000580186019798
0.000423133657843
0.000420701387734
0.000568682994939
0.000705485756068
0.000771183945758
0.00075724098873
0.000667191970711
0.000522957129115
0.000373476245355
0.000289669845489
0.000269744424328
0.000264958407038
0.000275828729699
0.000349807247609
0.00051963877394
0.00072727787116
0.000856645440112
0.000868339172291
0.000767638836274
0.000592597136945
0.000430679784336
0.00043029833
0.000580753928891
0.000725359521356
0.000803069245745
0.000807914140266
0.000746183256967
0.000640620852828
0.000555169219575
0.000480371747705
0.000450507026804
0.000437146251055
0.000455937659353
0.000535599545131
0.000680766068222
0.000840625087271
0.00093173287438
0.00091535082701
0.000795820774452
0.000609149825916
0.000441783258235
0.000441807288762
0.000592581266597
0.000745405214467
0.000837572944312
0.000865238867315
0.000837407057959
0.000775046192386
0.000713625921942
0.000668541547122
0.000646737872138
0.000650480750184
0.000691107845673
0.000764490532503
0.000866090026007
0.00096587826309
0.00100686760237
0.000956752332892
0.000818811412277
0.000624347479002
0.000455437089884
0.000451292726747
0.00059867697632
0.00075665916834
0.000862087720254
0.000911424902795
0.000914147726199
0.000887671189743
0.000854878150847
0.000829306391488
0.000816278012396
0.00083069944428
0.000874405627092
0.000934724577081
0.00100272751273
0.00105388374452
0.00105102649548
0.000973336170018
0.000825915183793
0.000632598106099
0.000466968348515
0.000453679344474
0.000594925589166
0.000751925720536
0.000864819250955
0.000930899372715
0.000957155391397
0.000956955568578
0.00094612680627
0.000935765983959
0.00093174139828
0.000950854462984
0.00098671944547
0.00102849500377
0.00106651667117
0.00108117228457
0.00104849969782
0.000957476977621
0.000813249589052
0.000629793236271
0.000469727903582
0.000443344997033
0.00057764911458
0.000727143244893
0.000837952640363
0.000910687435636
0.000951197562892
0.00096822900595
0.000972660148298
0.000973501777797
0.000977299934608
0.000994248448731
0.00101709819452
0.00103932794189
0.00105325104385
0.00104457759113
0.000999059350171
0.000910476926597
0.00078041040572
0.000611681713535
0.000459065925291
0.000414435125401
0.000540837604063
0.000678731135747
0.000779684977547
0.000847992161899
0.000890490689866
0.000913993332198
0.000925973134109
0.000933198877532
0.000942025591805
0.00095351595175
0.0009651277847
0.00097369491962
0.000973685363771
0.000956030878204
0.000911949590235
0.000836098713369
0.000723926743734
0.000571720699573
0.000428712700192
0.00036208294766
0.000476689400247
0.000598090379234
0.000686093629872
0.000744873712543
0.000781906909995
0.000804179205028
0.000818019700485
0.000827304836155
0.00083488449359
0.000841579433526
0.000846816595976
0.000848865784508
0.000844078714158
0.000826814108356
0.00079059796071
0.000728888846927
0.000634309657261
0.000501999905838
0.000372729690704
0.000280972343995
0.000381087496507
0.000479615225513
0.000549767923198
0.000596216229539
0.00062556747405
0.000643483775134
0.000654262703706
0.00066109263719
0.000665981524736
0.000669711092326
0.000672204703378
0.000672302078742
0.000667486030351
0.000653892711904
0.000626423847686
0.000578888296234
0.000504444536702
0.000397899616355
0.000285965362962
0.000174124298338
0.000284535012603
0.000368343362623
0.000425127159187
0.000462298823317
0.000485931189181
0.000500266241103
0.000508738247147
0.00051334115671
0.000515953000608
0.000517023106331
0.000516576573763
0.000514169506422
0.000507803491483
0.000495295517948
0.000472398105438
0.000434734643767
0.000375569456729
0.000287309397045
0.00017227784699
0.000225428371016
0.000388166917226
0.000506094012869
0.000576837644867
0.000612728401777
0.00062606771168
0.000628130885953
0.000625778254899
0.000623136312145
0.00062169523031
0.000621408468478
0.000621498660564
0.000622476064952
0.000623633445256
0.00062099847853
0.000607206748635
0.000570974027064
0.000499447822336
0.000380106971651
0.000216489583674
0.000392047805814
0.000457241480972
0.000545741093022
0.000605057346585
0.000637637652784
0.000651069446451
0.000652193405128
0.00064706903857
0.000640622988997
0.000635681367364
0.000633267178311
0.000633607106659
0.000636210293586
0.000638925998827
0.00063718004242
0.000624557900427
0.000593190158953
0.00053472265415
0.000446308208812
0.000383803059935
0.000511604673652
0.000547947520638
0.000638119518743
0.00070291436684
0.000739507178669
0.000752036274436
0.000748207544171
0.000736754982656
0.000724257279325
0.000714635830842
0.000709935499332
0.00071142301767
0.000718324857727
0.000726821150448
0.000730477946257
0.000719726977669
0.000686174791427
0.000624463244488
0.000535498174325
0.000503182112885
0.000580997652051
0.000608932488986
0.000705587397306
0.000775578636839
0.000811422556455
0.000817731225508
0.000804605342218
0.000783824151013
0.000762849045834
0.000747442748996
0.00074069852258
0.000745335039198
0.000759448825385
0.000777655928601
0.000791721719317
0.000788328303624
0.000755649216949
0.000689289262479
0.000595251776241
0.000573778043827
0.000613462385784
0.000642825701409
0.000745053568132
0.000815830003255
0.000846202090446
0.00084153967994
0.00081527869558
0.000783899373171
0.000750920471948
0.00072852052504
0.000720066517647
0.000728654504922
0.000753211573613
0.000784023282328
0.00081399456412
0.000823485884071
0.000796516477445
0.000728040281107
0.000628410413826
0.000608376264312
0.000622665261064
0.000656226863039
0.000760519132507
0.000827940999512
0.000848411264287
0.000828093933637
0.000785805959417
0.000749490991549
0.000693127743487
0.000660505232067
0.00064992356769
0.00066230802105
0.000705980936909
0.000748275165628
0.000799761254621
0.000828728015237
0.00081255708582
0.00074604614548
0.000642977912298
0.000620838202628
0.00061969143134
0.000656175463689
0.000759236251053
0.000820196757494
0.000827813470095
0.000789402971103
0.000734859741025
0.000709354647608
0.00057843823341
0.000533180667411
0.000523693592434
0.000539964611363
0.000634095926583
0.000687762034172
0.000760929816969
0.000812820180804
0.000811180412111
0.000750237201409
0.000646826029066
0.000623383710578
0.000613456497497
0.000650472636345
0.00075048671706
0.000804168853316
0.000799231820919
0.00074648234105
0.000719677068415
0.000652735948597
0.000445188208276
0.000415844710867
0.000410268034672
0.000436253696768
0.000621565248014
0.000627018679587
0.000720242232597
0.000791269726323
0.000803170377903
0.000748654292133
0.000646700413584
0.000622906161827
0.000609866257814
0.000646256374293
0.000744047694007
0.000792791092926
0.000777830520864
0.000702156742025
0.000594600189576
0.000437190338748
0.000252070760716
0.000223615871626
0.000226610902261
0.000257599113334
0.000424451164007
0.000525036350967
0.000682502177597
0.00077796831574
0.000800292138605
0.000749792481567
0.00064838292734
0.00062523532711
0.000612673226484
0.00064799032379
0.000746349248356
0.000795606797148
0.000781052100468
0.000706279149833
0.00060123240583
0.000452167630281
0.000262843393994
0.000233964544996
0.000233049908318
0.000256836566396
0.000421176081568
0.000532013404068
0.000694493539783
0.000790815450248
0.000812200582051
0.000759500878569
0.000655432874661
0.00063249308133
0.000623443287996
0.00065684706308
0.000758900836135
0.000814553657113
0.000811238652723
0.000761199522194
0.000742734259752
0.000744339096116
0.000515086678561
0.000485996120066
0.000478804329227
0.000481147801016
0.000646494188249
0.00065485730721
0.00076101119384
0.000833056553246
0.000841124722827
0.000779275786675
0.000668977491881
0.000646145167134
0.000641067125812
0.000670840307907
0.000778485136151
0.000844074586122
0.000855519173405
0.000821411742218
0.00077491571727
0.000818364932861
0.000694064423531
0.000646185186401
0.000616028248633
0.000610375293243
0.000700936486545
0.000766578234561
0.000844004646976
0.000892552423243
0.000881306690581
0.000805989220482
0.000687488316519
0.000665529765081
0.00066110827404
0.000685081657921
0.000798301972018
0.000875286740956
0.000904225899101
0.000892143737494
0.000859689910628
0.000836110161116
0.000793091845819
0.000771960494994
0.000769568126158
0.000791948672384
0.000840892290036
0.000887163687304
0.000935749043658
0.000954928941396
0.000921399280682
0.00083217561657
0.000706713251537
0.000687278892641
0.000676390089045
0.000693472128379
0.000810043824845
0.000897116769257
0.000942576565881
0.000951720007003
0.000938786325039
0.000920616517986
0.000901168899729
0.000891823384403
0.00089742302506
0.00091939838019
0.000952317452894
0.000984813672456
0.00100792411711
0.00100064213161
0.000947944361044
0.000848832857882
0.000720210830579
0.0007039498111
0.000678224297018
0.000690431695682
0.000806530484736
0.000899475890306
0.000957640495833
0.00098410295297
0.00098895172292
0.000984265452372
0.000977896617744
0.000976295300907
0.000984963518113
0.00100244105807
0.00102328295205
0.00103991001938
0.0010420994765
0.0010155418208
0.000950964502957
0.000848526742669
0.000720815192997
0.000705748607526
0.000658906148426
0.000670903051998
0.000783232633737
0.000875696763569
0.0009393652786
0.00097670389469
0.000994234281949
0.00100059596164
0.00100308045801
0.00100705979554
0.00101573224908
0.00102727252596
0.00103768239676
0.00104121869342
0.00102943021614
0.000992928284173
0.000925467056351
0.000825645169627
0.000701920075093
0.000684978991864
0.000609904284251
0.00062920277207
0.000736566374709
0.000824211699816
0.000886035442115
0.000925603812096
0.000948352204319
0.000960578351327
0.000968181680658
0.000974922728329
0.000982144583537
0.000988900196564
0.000992622353145
0.000988920781177
0.000971502509608
0.000933519651315
0.000869296006555
0.00077533793611
0.000657490371631
0.000632445334834
0.000523305492729
0.000559466557429
0.000662101036562
0.000743787601761
0.000800895076292
0.000837940507428
0.000860624892186
0.000874304894593
0.000883115173919
0.000889679409879
0.00089503520689
0.000898803975377
0.000899205734987
0.000892868263359
0.000874948471244
0.000839589126092
0.000780769559862
0.000693884575734
0.000582280122654
0.000539903989506
0.000390242358581
0.000461523653774
0.000562642596124
0.000638927512579
0.000691037231175
0.000724562405378
0.000745225747206
0.00075766465328
0.000765355989277
0.000770492016088
0.00077408836564
0.000776009168247
0.000774886396909
0.000767980580816
0.000751160992205
0.000719106843362
0.000665710581603
0.000585132261137
0.00047647902772
0.000398556868375
0.000216672530491
0.000394802468164
0.00053197673985
0.000626081702686
0.000688762099321
0.000729220626555
0.00075427751375
0.000769082237388
0.000777924760674
0.000782727181297
0.000784910081418
0.000784330464841
0.000779517904561
0.000768239978113
0.000745456979441
0.000705990402678
0.000641772078571
0.000543525301724
0.000399933598277
0.000216920174296
0.000255983513187
0.000466806179818
0.000622057196201
0.000716929981549
0.000766364135347
0.00078519576578
0.000787252221631
0.00078198327013
0.000776024908994
0.000772275145171
0.000771463152605
0.000773183430187
0.000777178479948
0.000781259825902
0.000778814536159
0.000759564025298
0.00070960861028
0.000613896427058
0.000456756729087
0.000243842535515
0.000471519559184
0.000526787192462
0.000622194693601
0.000688359623967
0.000725421302125
0.000740553880214
0.000741461136926
0.000735273812197
0.000727700406113
0.000722095108876
0.000719755190609
0.000720712805193
0.00072410241229
0.000727218480326
0.000724943049442
0.000710070307051
0.000673956620162
0.000608594418427
0.000513316827264
0.000461358999058
0.000628847227323
0.000624763802117
0.000708751222867
0.000772685241693
0.000809366607209
0.000821971057121
0.00081817431169
0.000806662763208
0.000794022022266
0.000784702802381
0.000780622266788
0.000782036690366
0.000788001610701
0.000795008577628
0.000797188199313
0.000785766168135
0.000752515969518
0.000692247588022
0.000609560513391
0.000619134544648
0.000722535695942
0.000692487574995
0.000775201434491
0.000839668516178
0.000873556759254
0.000879943906655
0.000868189091264
0.000849050637853
0.000828619333256
0.000814314989036
0.000808672153323
0.000812178337443
0.000824239527779
0.000837776073663
0.000847647139147
0.000843144816667
0.000813789821422
0.000755176679793
0.000676153515536
0.000714901472377
0.000768226179952
0.000730511482344
0.000814687821362
0.000877921115365
0.000906319118985
0.000903644657191
0.000882801845931
0.000858900759679
0.000825789458627
0.00080481918926
0.000797724699412
0.000805807537196
0.000829060260734
0.000847196165767
0.000866689231759
0.00087182656395
0.0008488742269
0.000792328273239
0.000713630320376
0.000764313108
0.000782638294936
0.00074571820917
0.000830538068164
0.000890419410811
0.000910869771701
0.000897880391355
0.000875281170244
0.0008803388815
0.000809187751563
0.000775878719603
0.000767185684669
0.000783199877481
0.0008400617795
0.000834761009333
0.000858864569371
0.000876005882758
0.00086175698756
0.000808946654315
0.000730361122367
0.000784359854042
0.000780324834798
0.000746174380885
0.000829907980939
0.000884552802787
0.000895953099866
0.000876837402635
0.000901658069159
0.00129114742061
0.000996008075254
0.000928938260247
0.000917146885123
0.000948167060677
0.00117349031497
0.00085442291448
0.000839589979072
0.000865141143965
0.000860757019736
0.00081301120631
0.000735364789133
0.000790235905066
0.000773298743478
0.000740576402058
0.000821927934471
0.000870604454773
0.000873275820383
0.000857296660447
0.00119395538205
0.00116954505805
0.00083618359581
0.000852370418407
0.000855731087102
0.000812829204879
0.000736413867443
0.000791502270604
0.000769712575747
0.000736696813726
0.000816264018092
0.000860688852911
0.00085395823244
0.000809787737201
0.000937066244759
0.000936699371009
0.000796894331901
0.000842843723142
0.000855414159124
0.000815685439208
0.000739533869052
0.000796081464734
0.00077480711599
0.000739369209809
0.000819463206848
0.000864815814829
0.000859584013944
0.000818778617078
0.000960943289459
0.000967987100589
0.0008152995889
0.000858308970031
0.000868898444753
0.00082690479675
0.000748492320718
0.000807488318144
0.000790359847833
0.000749850733318
0.000832922479034
0.000884555346204
0.000891582511192
0.000884799712914
0.00132916571254
0.00133655942146
0.000897392877602
0.0009014181962
0.00089804525146
0.000847831824126
0.000764444457676
0.00082724491848
0.000814533128795
0.00076591961955
0.000853159326875
0.000913295869004
0.0009315199372
0.000921942755958
0.000947372359929
0.00143764151464
0.00119023661232
0.00115262994175
0.00115791040997
0.00121847103704
0.00150408506883
0.00098425519977
0.000940682771076
0.000953068916024
0.000936619852212
0.000875517790026
0.000785745046642
0.000853953628864
0.000841129832656
0.000782339794659
0.000873603338771
0.000943291531743
0.000975134286977
0.000976260839826
0.000971218412451
0.000988393820163
0.000941977252813
0.000923113968129
0.000924969349064
0.000946762641305
0.00099631922878
0.000991836918067
0.00100492529568
0.00100763081626
0.000975947764385
0.00090354065267
0.000807840868029
0.000882529477979
0.000860015660856
0.000792162997292
0.000885935442623
0.000964121188759
0.00100922737613
0.00102467784518
0.00102335938026
0.00101850175306
0.00100338101212
0.000996509854451
0.00100173868618
0.00101835699074
0.00104236423682
0.00105681178668
0.00106436471514
0.00105124481578
0.00100509262138
0.000923337487953
0.000823511531166
0.000902672206035
0.000859752324461
0.000788645642447
0.000882651517535
0.000966285992659
0.00102201565495
0.0010508050826
0.00106097070599
0.00106222304293
0.00105950806551
0.00106010528663
0.00106708768162
0.00107950946946
0.00109328521021
0.00110098267645
0.00109652551586
0.00106992460376
0.00101328320638
0.000926103695514
0.000824200969184
0.000901822723402
0.000831089251931
0.000765810889404
0.000858757262383
0.000943318118685
0.00100434055902
0.00104215357732
0.00106205170953
0.00107137829849
0.00107619611738
0.0010814154589
0.0010887117638
0.00109726080433
0.00110388024092
0.00110342077725
0.00108948931132
0.00105469957285
0.000993402699189
0.000904642729153
0.000802216896329
0.000870559989777
0.000763889989781
0.0007178669318
0.000810765790713
0.000893837718221
0.000954847475619
0.000995266798285
0.00101965570493
0.00103371893334
0.00104278945843
0.00105002401773
0.00105678111133
0.00106249626582
0.00106478701425
0.00105952991933
0.00104124430323
0.00100385599041
0.0009420883776
0.000853970973545
0.000751296498146
0.000798252611144
0.000647891609847
0.000639784298397
0.000736349331473
0.000818560492233
0.000878093884562
0.000917838062168
0.000942857349022
0.000958315816638
0.000968355540396
0.000975632436053
0.00098130157591
0.000985037823323
0.000984943349575
0.000977555916204
0.0009580839727
0.000920786779792
0.000860012633025
0.000772686638627
0.000666960452716
0.000673265375357
0.000471438715863
0.000533652546853
0.00064327225164
0.000728722920222
0.000788460007399
0.00082770032301
0.000852373589375
0.000867545601229
0.000877053130062
0.000883379957732
0.000887703070274
0.000889856795527
0.000888210320166
0.000879615459651
0.000859493077324
0.000821992095964
0.000760732948608
0.000670249733163
0.000552011887286
0.000485091196164
0.000243687095694
0.000476827865858
0.000658515168856
0.000784541618794
0.000869516714439
0.00092494750549
0.00095965024161
0.000980985612809
0.000993626226098
0.00100125584246
0.00100472382542
0.00100461089368
0.000998341990547
0.000982476973531
0.000951457552948
0.000896772866319
0.000809473446299
0.000677319185233
0.000486351869521
0.000246553772117
0.000279926188021
0.00052928868765
0.000715619473609
0.000831135070373
0.000892264554617
0.000915563108134
0.000916601979362
0.000907832468459
0.000898309476286
0.000892027714093
0.000890450819186
0.000893557049065
0.000900544107075
0.000907940510477
0.000906458754489
0.000882863845322
0.000821354807304
0.000704974225307
0.000516570699639
0.000264254840195
0.000534656402724
0.000586051066281
0.000689881541665
0.000763328706118
0.000804930818762
0.00082165012047
0.000821964349142
0.00081417099765
0.000804943197447
0.000798278179632
0.000795828727108
0.000797594555928
0.000802253548895
0.000806354642375
0.000803972822148
0.000786959372507
0.000746058048152
0.000673432006497
0.000569811538479
0.00052224812129
0.000723511589571
0.000692813552489
0.000775755921454
0.000841448850578
0.000879578181767
0.00089264036112
0.000888432187376
0.000875928645233
0.00086216314554
0.000852319224114
0.00084853405681
0.000850830358022
0.000857605328991
0.000864587203785
0.00086611814362
0.000853432153588
0.000818526501315
0.000756481784754
0.000674711846478
0.000712060803959
0.000837996059278
0.000767975895887
0.000844123768951
0.000907117644824
0.000940990981564
0.00094772446643