/*--------------------------------*- C++ -*----------------------------------*\
| =========                 |                                                 |
| \\      /  F ield         | OpenFOAM: The Open Source CFD Toolbox           |
|  \\    /   O peration     | Version:  v1606+                                |
|   \\  /    A nd           | Web:      www.OpenFOAM.com                      |
|    \\/     M anipulation  |                                                 |
\*---------------------------------------------------------------------------*/
FoamFile
{
    version     2.0;
    format      ascii;
    class       volVectorField;
    location    "5.5";
    object      U;
}
// * * * * * * * * * * * * * * * * * * * * * * * * * * * * * * * * * * * * * //

dimensions      [0 1 -1 0 0 0 0];

internalField   nonuniform List<vector> 
11640
(
(0.000513197586106 0.000285583524969 -0.000586266811563)
(0.00146943087185 0.000307542187514 -0.000557359304997)
(0.0023524513158 0.000326584283495 -0.000529546477565)
(0.0031649610632 0.000396023460162 -0.000558320853631)
(0.00388138933238 0.000524544857316 -0.000595842762728)
(0.00443217841075 0.00069537742912 -0.000645222717788)
(0.0046974950003 0.000924152698364 -0.000708025621232)
(0.00462301601022 0.00118632083181 -0.00076493002806)
(0.00428425131575 0.00136707707021 -0.000771607856679)
(0.0037739986206 0.00150081030282 -0.000799811630922)
(0.00322142000764 0.00162017951814 -0.000873377692414)
(0.00271709007179 0.00168889734505 -0.000929755702462)
(0.00227564142526 0.00173156113055 -0.000995732797155)
(0.00192469747573 0.0017704179086 -0.00105724360656)
(0.00167515496662 0.00177782199232 -0.00112189361421)
(0.0014731262654 0.00175823419581 -0.00114120677986)
(0.00127505228964 0.00175786322875 -0.0011210012201)
(0.00105541215466 0.00177894325797 -0.00109121949669)
(0.000746618015726 0.00180911402393 -0.00107046979635)
(0.00032814733559 0.00190192042347 -0.00107566815704)
(0.00043255826399 0.00108888625678 -0.000604980387842)
(0.00137023996747 0.00114876434721 -0.00067710996346)
(0.00231592342143 0.00123531159147 -0.000726166633168)
(0.00325124167937 0.00144818919703 -0.000821763010193)
(0.00410825423104 0.00189575124667 -0.000945666223126)
(0.00473954029446 0.00253954776022 -0.00106174548035)
(0.00503260627435 0.00326957672412 -0.0011211384294)
(0.00492738474269 0.00395453931648 -0.00111479340789)
(0.00448289350714 0.00440113236988 -0.00105369057192)
(0.00388195847315 0.00470804240477 -0.00102672487205)
(0.00325021507793 0.00489875899282 -0.0010136653719)
(0.00270250841201 0.00501243045633 -0.00100875608364)
(0.00226968620923 0.00510365914879 -0.00102893445124)
(0.00196079559884 0.0052175169534 -0.00108134716261)
(0.00173823808803 0.00530542039851 -0.00113198607142)
(0.00153598813658 0.00534841013669 -0.00115555272504)
(0.00130782268743 0.00536944616235 -0.00114282099314)
(0.00102259547264 0.00540966412156 -0.00111536691946)
(0.000687680095228 0.0054703998193 -0.00107127402116)
(0.000297210132357 0.00562067762745 -0.00106056121932)
(0.000429321917046 0.00195948623303 -0.000576149344926)
(0.00139901194512 0.00204638779949 -0.000710283255298)
(0.00246516279794 0.002263766834 -0.000846097737983)
(0.00362503490307 0.00278378336806 -0.00104247385008)
(0.00469625858907 0.00371516057931 -0.00127238602866)
(0.00545139360534 0.00492813737599 -0.0014540526913)
(0.00576949427506 0.00623879104389 -0.00148375150426)
(0.00552724130404 0.00741886278659 -0.00140110007493)
(0.00481720303094 0.0081446068165 -0.00129575586708)
(0.00399743957907 0.00850739299067 -0.00117470264036)
(0.00322292979436 0.00861849093091 -0.00106342866661)
(0.0026314731169 0.00859287035746 -0.000994960552536)
(0.00223785604074 0.00859403238456 -0.000987198041999)
(0.00201291789773 0.00868398147484 -0.00104350946137)
(0.00187126698073 0.00879771779443 -0.00108693676325)
(0.00171230967378 0.00888931534548 -0.00109294297531)
(0.00147786177765 0.00892574302602 -0.00105191102978)
(0.00112126979693 0.00895520561869 -0.00102183630725)
(0.00071146308893 0.00901485358846 -0.00100629553743)
(0.000281422754107 0.00914231782489 -0.000958825607175)
(0.000475156657623 0.00270533259265 -0.000550119178292)
(0.00149034214053 0.00284021095907 -0.000740590501148)
(0.00279535905134 0.00326154042424 -0.000981992790714)
(0.00420246133032 0.0042226299191 -0.00132388230321)
(0.00543416764912 0.00578481961336 -0.00165111676152)
(0.00632855317377 0.00766504963112 -0.00184198000812)
(0.00674960625241 0.00957402434251 -0.00182391703275)
(0.00629279329504 0.0112920482964 -0.00163062116338)
(0.005194865553 0.0121193718241 -0.00147410793995)
(0.00401381065653 0.0121939696435 -0.00129675886398)
(0.0030090595072 0.0118863992397 -0.00109810217864)
(0.00237307531448 0.0115508171102 -0.000956221891802)
(0.00211002057669 0.0114366619832 -0.000927286709816)
(0.00205428604686 0.0116752151902 -0.00100260211848)
(0.00207722124695 0.011935527171 -0.00105365614962)
(0.00201123231214 0.0121119804846 -0.00102425510389)
(0.00178435473827 0.0121602363897 -0.000951774815327)
(0.00138556251862 0.012214130991 -0.000867652651996)
(0.000856891043213 0.0122637315696 -0.000841496070734)
(0.000299700005536 0.012334868965 -0.000810645365291)
(0.000504087038758 0.00331256677854 -0.000499351545298)
(0.00161769751552 0.00358327897582 -0.00078930081836)
(0.00315116737751 0.00427107356932 -0.00113339208312)
(0.004732055763 0.00578557072387 -0.00156540744208)
(0.00609735632255 0.00804410079757 -0.00192637569241)
(0.00717823928599 0.010513712635 -0.00208113689697)
(0.00785027788223 0.0130993666903 -0.00195728034427)
(0.00703613383105 0.0157176787644 -0.00168564789895)
(0.00524135322912 0.0168164438532 -0.00151008752349)
(0.00354553913445 0.0166341016075 -0.00133155462933)
(0.00244619524158 0.0157273089389 -0.00114119724444)
(0.00206246931595 0.0147135107831 -0.000997136008563)
(0.00225121743551 0.0142937224412 -0.000942891200818)
(0.0024959207684 0.0145830425196 -0.00101385903647)
(0.00264407090525 0.0149462649158 -0.000999835738327)
(0.00260128136809 0.0151444332776 -0.000938000394938)
(0.0023339175984 0.0151232407511 -0.000820888987308)
(0.00185009670759 0.0151305494814 -0.000711827143612)
(0.0011883148357 0.0151808032035 -0.000629987440039)
(0.000386654736139 0.0152027163835 -0.000597087700499)
(0.000477885482354 0.00383355820845 -0.00048192545878)
(0.00174072789722 0.0042405856282 -0.000839631601059)
(0.00339631423812 0.00525937124844 -0.00121652835935)
(0.00508018883104 0.00730991194031 -0.00164129708249)
(0.00656036565505 0.0100225590385 -0.00190062374602)
(0.00800235962209 0.012710703187 -0.00199556335862)
(0.00938067707657 0.0156940355071 -0.00171910113451)
(0.0083610431394 0.0196014119529 -0.00116411232637)
(0.00560520329742 0.0208007248507 -0.00100446835712)
(0.00308657146182 0.0201466573332 -0.000893547930107)
(0.00171532749466 0.0187342211424 -0.000750979976682)
(0.00158153563406 0.0173589914191 -0.000689866758668)
(0.00234817022487 0.01660342288 -0.000724868911809)
(0.00297457374605 0.0168264243638 -0.000887131819812)
(0.00334088499787 0.0173032698211 -0.000900543547206)
(0.00336902405533 0.0176552140614 -0.000809966327036)
(0.00304626465489 0.0176562514003 -0.000672776372232)
(0.00245346492191 0.0175951423078 -0.000514481569781)
(0.00161392635473 0.0176408821721 -0.000402199907182)
(0.000556811177709 0.0176383645376 -0.000367062928006)
(0.000471836492082 0.00427581621043 -0.000474242887645)
(0.00186043590882 0.00478605880864 -0.00082366196992)
(0.00350774398811 0.0061252836814 -0.0011900781358)
(0.00519605187694 0.00853356705895 -0.00150980629172)
(0.00671872692947 0.0114808114765 -0.00165236684346)
(0.0084669855526 0.0140291133338 -0.00177933165993)
(0.0111523387705 0.0168642702978 -0.00125538977387)
(0.00942837420195 0.022308190581 0.000504073673306)
(0.00480668297555 0.022622867425 0.000698948153163)
(0.00200467821629 0.0199055720179 0.000818880838005)
(0.00152987309644 0.0165451059955 0.000784668799369)
(0.00178415377647 0.0140683666534 0.000904715202275)
(0.00322716507546 0.0135726553303 0.000860288972814)
(0.00395130496585 0.0170492934324 -0.000150823182129)
(0.00458002431768 0.019070982707 -0.000653615355986)
(0.00464764117993 0.0197913264319 -0.000615582732904)
(0.00413564903515 0.0198260922752 -0.000488662629052)
(0.00329880194704 0.019689461564 -0.000287321492064)
(0.00215635973794 0.0196801363343 -0.00015477576652)
(0.000771072964173 0.0196896581973 -0.000110564348583)
(0.00053832224147 0.00460224167579 -0.00047427133644)
(0.00197535009489 0.00519138155554 -0.000738282267793)
(0.00355000095011 0.00677654942422 -0.00102425050821)
(0.00513656967288 0.00951494552264 -0.00125368321097)
(0.00650614908496 0.0126403121397 -0.00136396989695)
(0.00820570690123 0.0150665064583 -0.00184781791587)
(0.0130490269464 0.0173993379343 -0.00136106935507)
(0.0108288673152 0.0218660624349 0.00213184676867)
(0.00413139575605 0.0221236325272 0.000986463802194)
(0.00158525003896 0.0202493379559 -0.000913908353753)
(0.0016370115405 0.0180336098349 -0.00195052160712)
(0.0021167274881 0.0164272177991 -0.00147378044686)
(0.00466616654889 0.0161665850212 -0.0011831772234)
(0.00574396434446 0.0192448444193 -0.000662111896855)
(0.00603974216631 0.0209997062457 -0.000854469327965)
(0.00581880775568 0.0216794894424 -0.000551618900563)
(0.0051826626359 0.0215807593586 -0.000306485568883)
(0.00414034937038 0.021337635476 -4.07581004391e-05)
(0.00267211005242 0.0212640925377 0.000126760397138)
(0.000947979771705 0.0212975861542 0.000176491616551)
(0.000646270809335 0.00480111325646 -0.000484512377307)
(0.00212759245742 0.0054618837991 -0.000656014456713)
(0.00364166477556 0.0072518648833 -0.00083402537498)
(0.00514401331728 0.0103030169265 -0.000991289659184)
(0.00645372821088 0.0136451193872 -0.00106934627095)
(0.00794196642369 0.0160285150394 -0.00159471431192)
(0.0131766124892 0.0178341408252 -0.00130533583765)
(0.0111152805361 0.0198870309143 0.00215222805094)
(0.00441493886916 0.0199676483546 0.00116983601997)
(0.00255411556864 0.019265041957 -0.000426385188363)
(0.00296204583884 0.0187810481976 -0.000912291304783)
(0.00346668757476 0.0189919132108 -0.000173384899595)
(0.00636753147835 0.0198772223507 7.78630632803e-05)
(0.00762765824486 0.0216764011967 9.96340384173e-05)
(0.00787865069034 0.0226152439916 -0.000606966670583)
(0.0074772745844 0.0231055912648 -0.000301668867847)
(0.0065230232541 0.0228421428341 -3.86715288627e-05)
(0.00514753036261 0.0224587445562 0.000244246948197)
(0.0032754049483 0.0223393922116 0.000431241493275)
(0.00115413845449 0.0223984515742 0.000480750834904)
(0.000748817089492 0.00489947790703 -0.000519267472432)
(0.00228037785832 0.00560775015273 -0.000592266310418)
(0.0037249647256 0.00752214665999 -0.000699890484192)
(0.00517007179958 0.0107631352739 -0.000755369811438)
(0.00652318808498 0.0141719936103 -0.000785040819486)
(0.00810362849474 0.0163296258957 -0.00118229943572)
(0.0131673687865 0.0173993210677 -0.000816508229755)
(0.0113960996967 0.0173326093801 0.00288457474591)
(0.00576908518398 0.0176318228961 0.00202702131647)
(0.00455796349287 0.0187090556745 0.000279201722393)
(0.00488692896841 0.0198868575822 -0.000471589453805)
(0.00529330978351 0.0210616826268 -0.000153941517052)
(0.00819394824868 0.022535541842 -0.000148424331463)
(0.00957441567612 0.0235545079412 0.000278288125992)
(0.00951945928074 0.0240743200474 -0.000310047969383)
(0.00884669572747 0.0242674385124 -3.4651692247e-05)
(0.00766559975338 0.0237068428309 0.000196830223796)
(0.0060245528651 0.0230923232437 0.000528961283899)
(0.00384378291817 0.0229014545549 0.000735290391445)
(0.00135738693347 0.0229831777405 0.000790768079925)
(0.000831351553251 0.00503028322446 -0.000590766646764)
(0.00237611404569 0.00573116119261 -0.000557112523936)
(0.00375781563273 0.00766020975562 -0.000553400211447)
(0.00514341031512 0.0109657457506 -0.000539062799906)
(0.00645244870906 0.014405782196 -0.000516627395301)
(0.00789666907813 0.0163712808504 -0.000860169867074)
(0.0122506996121 0.0165121723973 -0.000510631622033)
(0.0112162523308 0.0109693551577 0.00248290094415)
(0.00705969623326 0.0106885498022 0.0014844212949)
(0.00652551513085 0.0139407138739 0.000213316948772)
(0.00730333353687 0.0184125249751 -0.000525658672115)
(0.00800467453633 0.0223986819702 -0.000403153348484)
(0.0108885854116 0.0252460911958 -0.000476941324832)
(0.0117548352409 0.0249228757656 0.000383826635458)
(0.0111136761678 0.0250460383544 1.32039162779e-06)
(0.0100953814037 0.0247609382048 0.000256404746534)
(0.00866641619932 0.0239077699988 0.000484000746734)
(0.00681633773685 0.0231284085517 0.000825947933114)
(0.00438613382604 0.0228746292104 0.00103035850457)
(0.00157950089929 0.0230186678089 0.00111666171137)
(0.000912215338301 0.00523812375907 -0.000670691501179)
(0.00246656972792 0.00586783994315 -0.000508655855811)
(0.00380351271499 0.00770039235427 -0.000409521624154)
(0.00518773262735 0.0109152143604 -0.000288227338825)
(0.00639990861736 0.0144126097786 -0.000269653554313)
(0.00749735694169 0.0167875063729 -0.000673494874251)
(0.0082829205071 0.0175561448628 -0.000974932967809)
(0.00878233941213 0.0146680763881 -0.00294571076781)
(0.0100488108184 0.0159745588974 -0.00347944669982)
(0.0110876694066 0.0192611859337 -0.00303440291353)
(0.011738671278 0.0230633813026 -0.00200346563169)
(0.0118896394714 0.0256411997325 -0.000997852586439)
(0.0128928586571 0.0271517940563 -0.000335976210228)
(0.0129053039474 0.0259496568172 0.000110701500948)
(0.0122321835154 0.0252522512907 0.000319976275293)
(0.0109702364156 0.024389543835 0.000617714218482)
(0.00946177776715 0.023317609882 0.000851869190343)
(0.00744953223688 0.0224759020199 0.00114729315446)
(0.00482314951093 0.0222231581391 0.00131695627568)
(0.00178177698163 0.0224841266654 0.00142149739996)
(0.00102882896182 0.00547746724235 -0.000718663385296)
(0.00268460263759 0.00594899060934 -0.000474834352125)
(0.00410382310049 0.00752115157517 -0.000279385629123)
(0.00561447544705 0.0104005113576 -2.56061140324e-05)
(0.00714642301073 0.0138054206718 0.00017605060876)
(0.00872582612868 0.0166875875772 0.000130342117084)
(0.0102809104931 0.0186563136547 0.000136381161824)
(0.0113234246271 0.0200981911358 -6.67138220497e-05)
(0.0119687394965 0.0216307994359 -1.22562080771e-05)
(0.0125963599516 0.0232046074658 0.000300856214468)
(0.013278530795 0.0243602904213 0.000685309166623)
(0.0138351059808 0.0250621776651 0.000858849040676)
(0.0143474755391 0.0254018239262 0.000890394617909)
(0.014155484171 0.024742116412 0.000908321878287)
(0.0132442655013 0.0239220965308 0.000889418002312)
(0.0118327503561 0.0229474184141 0.00106424138051)
(0.0101297991387 0.0218955142617 0.00124285194957)
(0.00792455447603 0.0211276470825 0.0014513172164)
(0.00513139404923 0.0209630596397 0.00158166499579)
(0.00192718122095 0.021398938467 0.00171432914467)
(0.00120488608858 0.00560346152811 -0.000772797291711)
(0.00312647943796 0.00590333879664 -0.000506745853773)
(0.00478518199921 0.00709150666505 -0.000265534944511)
(0.00651964984463 0.00935724010472 6.99465001973e-05)
(0.00836032983315 0.0122533491653 0.000430880524847)
(0.0102931284938 0.0149458689749 0.000651424555313)
(0.012027173398 0.016895704878 0.000780635842454)
(0.013325368765 0.0180278053314 0.000676146761112)
(0.0143172247409 0.0193069207846 0.000793308487923)
(0.0150329267919 0.0207089241023 0.00111039163167)
(0.0155376004896 0.0217437931909 0.00134194521711)
(0.0157487684127 0.0223309170244 0.00145532324702)
(0.0156233413055 0.0225721212903 0.0014564540155)
(0.0149997706022 0.0222447303378 0.00144021448813)
(0.0139154976735 0.0215362590585 0.00147163046033)
(0.0124165166334 0.0206611113309 0.00151252419049)
(0.0105163199542 0.0198038278143 0.00159182607302)
(0.0081226253786 0.0192276817182 0.00165942623889)
(0.00525890257884 0.0192050300964 0.00179258806986)
(0.00202480761973 0.019763284229 0.00195236463391)
(0.00138965082164 0.00548761847819 -0.000814820365571)
(0.00372672307277 0.00566017453168 -0.00056835603691)
(0.00575924756103 0.00647551726304 -0.000356075786035)
(0.00776273387439 0.00805622419349 -3.18722286734e-05)
(0.00982353716927 0.0102085964119 0.000371653768843)
(0.0119185714868 0.0123672065955 0.000727192222893)
(0.013789209038 0.0140362966308 0.001004275154)
(0.0152808098731 0.0152234732183 0.00116127215565)
(0.0163966097469 0.0162585602614 0.00133908271495)
(0.017101447727 0.017239141296 0.00153364537943)
(0.0173984734279 0.0179786788328 0.00167259433586)
(0.0172788572334 0.0185267619946 0.00173267977857)
(0.0167652396038 0.0188200858726 0.00178003172389)
(0.0158132065988 0.0187824966814 0.00177397111868)
(0.0144600743315 0.0184253310751 0.00176169523042)
(0.012738235103 0.0178319873519 0.00177793201867)
(0.0106107649184 0.0172535862643 0.0017706872522)
(0.0080745687626 0.016922294237 0.0018035460659)
(0.00518437246526 0.017025245984 0.00188237600239)
(0.00206501737018 0.0176545564704 0.00211651680007)
(0.00156547295709 0.00503477132373 -0.000833073485334)
(0.00428726314994 0.00513438503946 -0.000636643770024)
(0.00675341651401 0.00566802717813 -0.000462019068514)
(0.00908396533199 0.006686836111 -0.000192310917653)
(0.0113440231288 0.00813778625698 0.000157713297814)
(0.0135254153218 0.00969200651688 0.000535315972871)
(0.0154655370826 0.011041909731 0.000861021967211)
(0.0169798250158 0.0121413313953 0.00111006449692)
(0.0180040644468 0.0130802541731 0.00133239714276)
(0.0185434825643 0.0138990618753 0.00152155750599)
(0.0186162277198 0.0145490210187 0.00166094246321)
(0.0182060051779 0.0150461915513 0.00174724681959)
(0.0173837860455 0.0153377242397 0.00180034435287)
(0.016203881876 0.0153694791681 0.00184663976124)
(0.0146553516773 0.0151800100218 0.00181916335146)
(0.012730169786 0.0148207629496 0.00180373806135)
(0.0104576832096 0.0144704792106 0.00180903770947)
(0.00785789775244 0.0143210917295 0.00183215355481)
(0.00506477716724 0.0144966888373 0.00187325547292)
(0.0021349730182 0.0151825473937 0.00221984865486)
(0.00166859057364 0.00425294202182 -0.000813323068881)
(0.00467072670397 0.00429715253332 -0.000648713027608)
(0.00749671164847 0.00463345446505 -0.000520627966163)
(0.0101501320938 0.00527764729138 -0.000310757045104)
(0.0125921899519 0.00618309700036 -3.26886593084e-05)
(0.0148185589995 0.00721981090325 0.000298884325169)
(0.0167262926799 0.00820353939204 0.00061085371197)
(0.0181759751104 0.00907640156472 0.000888488238587)
(0.0191276573555 0.00985291962021 0.00113796701803)
(0.0195545539296 0.0105446917215 0.00134858281158)
(0.0194624135692 0.0111224770609 0.0015297749465)
(0.0188887418812 0.0115650768526 0.00166490488812)
(0.0178730333361 0.0118573782552 0.00176256086027)
(0.0164770247438 0.0119692103911 0.0018257355214)
(0.0147303496233 0.0119011771785 0.00182810177857)
(0.0126509942428 0.0117280014724 0.00185125255883)
(0.0102830083188 0.0115582333751 0.00184993864938)
(0.00769401790831 0.0115438779068 0.00182310830734)
(0.00499269740252 0.0117701860158 0.00183844116417)
(0.00213668424643 0.0124152492342 0.00229345664452)
(0.00172059032289 0.00321853250735 -0.000766010593239)
(0.00490142498433 0.0031973303155 -0.000639970013666)
(0.00794508508042 0.00338273495202 -0.00052927284973)
(0.0107988513318 0.00375596653794 -0.000354898266072)
(0.0134059375059 0.00431596915326 -0.000120774706409)
(0.0156956788637 0.00496391169207 0.000159599056008)
(0.0175971210649 0.00560767071568 0.000456855474872)
(0.0190246084835 0.00623476337283 0.000740360485193)
(0.0199371048598 0.00681899268284 0.000999509348003)
(0.0203090234079 0.00735080420717 0.00124717752688)
(0.0201391899477 0.00782871496286 0.00146053769067)
(0.019467911548 0.00819505018802 0.00162934896826)
(0.0183224474135 0.00845774982827 0.00174682883992)
(0.0167844698528 0.00860608890283 0.00182432543297)
(0.0148926300436 0.00864090559727 0.001831965414)
(0.0126988690247 0.00861377580296 0.00183822932156)
(0.0102828459218 0.00860073399441 0.00183468983645)
(0.00768870843472 0.00866769144429 0.00184453638868)
(0.00499245593839 0.00889034262 0.00191322856507)
(0.00209862311015 0.00940903528071 0.00239058904573)
(0.00175009587766 0.00196292900087 -0.000728250006189)
(0.00504214727018 0.00189225483797 -0.000637442943272)
(0.00820638683407 0.00194674970203 -0.000550577335083)
(0.0111682807479 0.00209921195127 -0.000396182129128)
(0.0138630848198 0.00237262864594 -0.000189006213194)
(0.0162006643951 0.00270101428552 5.30956721072e-05)
(0.0181463841836 0.00305918190098 0.00033444748937)
(0.0196041797022 0.00341551956503 0.000606929227328)
(0.0205258384503 0.00378000463484 0.0008901493227)
(0.0209070488488 0.00413510259023 0.00115597530963)
(0.0207141594956 0.00448517339742 0.00139367446765)
(0.0200020587915 0.00478362397684 0.00158251757644)
(0.0188054696424 0.00503924512923 0.00172646823089)
(0.0171951734894 0.00524834649116 0.00181075510057)
(0.0152352659844 0.00538901016218 0.00185514475948)
(0.0129867074265 0.00549570960835 0.00186071442328)
(0.0105110673526 0.00558036943074 0.00188120949395)
(0.00786937221372 0.00566033162307 0.00194205979706)
(0.00511412590889 0.00579932380423 0.00211534104039)
(0.00203810971164 0.00606087141589 0.00256734150736)
(0.00176605165685 0.000677711223303 -0.00074659712551)
(0.00513625044765 0.000593380015553 -0.00072518454002)
(0.00836073054396 0.000560029292984 -0.000669086798582)
(0.0113409923078 0.000570022853657 -0.000577565647697)
(0.0140547682652 0.000619997664554 -0.000424671853765)
(0.0164301640249 0.000696520540158 -0.000252356335924)
(0.0184209188026 0.000799229268318 -3.55792341132e-05)
(0.0199385318104 0.000905402960633 0.000205751360071)
(0.0209355768916 0.00104252862255 0.000473867349159)
(0.0213876386888 0.00119125736315 0.000749939307658)
(0.0212834634582 0.0013730019815 0.00104714116939)
(0.0206346402999 0.00155476391941 0.00134020665293)
(0.0194851382307 0.00174209272754 0.00160992928026)
(0.017894848144 0.001942233642 0.00185946015791)
(0.0159287513909 0.00212607080224 0.00207080606338)
(0.0136528898734 0.00226284851264 0.00222991560025)
(0.0111209208714 0.00233904572938 0.00235057987561)
(0.00835750444785 0.00234950582031 0.00243076086296)
(0.00539724318142 0.00228868030431 0.00257245297996)
(0.00200594626003 0.00223596816943 0.00282419196844)
(0.00051391997573 0.000324669424955 -0.00167185274758)
(0.00144207968067 0.000423878052338 -0.00166306549161)
(0.00235063398604 0.000495311292135 -0.00165042984809)
(0.00318700490391 0.000609192684983 -0.001731082519)
(0.00390714426221 0.000787782754628 -0.00188339207474)
(0.00440067839456 0.00101352707366 -0.0020662779832)
(0.00460135034224 0.00125674158764 -0.00224900541648)
(0.00448334753611 0.0014843758946 -0.00240129955248)
(0.00410732938331 0.00163408580127 -0.00249803512514)
(0.00359419307041 0.00173223106269 -0.00262029975735)
(0.00304852328105 0.00178159940421 -0.00277927662589)
(0.00255062048326 0.00180402131975 -0.00293650476027)
(0.00214360871223 0.00182088461188 -0.00309813779929)
(0.00182409343476 0.00184022040602 -0.0032512914711)
(0.00158440243468 0.00185866494609 -0.00336434778793)
(0.00138939066175 0.00186211658645 -0.00342203655101)
(0.00118796463612 0.00187636249951 -0.00341000063108)
(0.000951621329593 0.00188749918682 -0.00336543725478)
(0.000647324490516 0.00188547049312 -0.00331511545653)
(0.000279190758656 0.00190645164157 -0.00328750969679)
(0.000484822630558 0.00114486906944 -0.00172836013126)
(0.00147762709492 0.00131077083697 -0.00191558540451)
(0.00245747600108 0.00150366497179 -0.00204664595648)
(0.00340304058081 0.00182172889966 -0.00224057100699)
(0.00419803985405 0.00230174403725 -0.00247632717133)
(0.00473433738145 0.00289094909338 -0.00269265569566)
(0.00494784853985 0.00354131171836 -0.00282995104778)
(0.00480402562476 0.00415464364789 -0.00289722647875)
(0.00435844171333 0.00460242356372 -0.00291013405219)
(0.00376179118356 0.00488876587201 -0.00293080125398)
(0.00314924163506 0.00504128693006 -0.00296889484664)
(0.00262445151557 0.00511915410134 -0.00303158497183)
(0.00222512961859 0.00517732316849 -0.0031337149697)
(0.00194443889164 0.0052451806284 -0.00326363884401)
(0.00172587927166 0.00533429165776 -0.0033563462516)
(0.00151029131956 0.00542886446983 -0.00338932476926)
(0.00126235055817 0.00551563068362 -0.00336995469454)
(0.00097029512558 0.00558977116053 -0.00332765923579)
(0.000646144486219 0.00561715090113 -0.00327462530411)
(0.000258527570394 0.00566417215303 -0.00322307463305)
(0.000514429064685 0.00203102867572 -0.00170410434204)
(0.00161872035446 0.00220812164019 -0.00201621458142)
(0.00274413531407 0.00252141357013 -0.00227441943981)
(0.00385023734076 0.00304455655817 -0.00258739654802)
(0.00476700239373 0.00380287005695 -0.00289665994506)
(0.00538497968291 0.00472873965341 -0.00312903926793)
(0.00562874199057 0.00579266769562 -0.00320677950691)
(0.00539901755898 0.00685955921851 -0.00317278926593)
(0.00476905079557 0.00763376353232 -0.00308614287784)
(0.00398451409839 0.00807355353919 -0.00298320078832)
(0.00324453854492 0.00827015482933 -0.00289631378809)
(0.00267384595376 0.00832252106641 -0.00286658650948)
(0.00229681283483 0.00835318726073 -0.00291866216026)
(0.00207939141122 0.00840860577704 -0.00303952213552)
(0.00192284729656 0.00855278339348 -0.00310807255111)
(0.001721763999 0.00875544104433 -0.00312429955274)
(0.00144102972583 0.00894092611351 -0.00309834257015)
(0.00106442294801 0.00909859978945 -0.00305167942666)
(0.00068372559128 0.00919611033846 -0.00301504255486)
(0.000253372520554 0.00925410796752 -0.00295032760153)
(0.000612558444201 0.00279682477567 -0.00169139682425)
(0.00186853772479 0.00301364317718 -0.00211060414907)
(0.00318463494126 0.00343090294162 -0.00248938412981)
(0.004461816082 0.00413236875076 -0.00288453121418)
(0.00551361657241 0.00511737994709 -0.00321961317181)
(0.00627724785857 0.00633655507047 -0.0034134475107)
(0.00664534144595 0.00780737036041 -0.00336468204746)
(0.00630479577762 0.00939366841134 -0.0031440665195)
(0.00535191834842 0.0104078050467 -0.00293372357919)
(0.0042567535721 0.0108484172409 -0.00273402597736)
(0.00330937574591 0.0109349240459 -0.00257003288569)
(0.00265924251596 0.0108970894383 -0.00248574444339)
(0.00232603711219 0.0109035159712 -0.00252512834815)
(0.00222724771331 0.0110396890532 -0.00269720381815)
(0.00220620095299 0.0113473672131 -0.00276085951757)
(0.00205441325383 0.0117102107779 -0.00274033981209)
(0.0017510815867 0.0120278315261 -0.00267937162068)
(0.00131000767193 0.012298091192 -0.00260691161761)
(0.000814126963489 0.0124721303929 -0.00255761485168)
(0.000273584069871 0.0125227967191 -0.00251939068864)
(0.00072948952396 0.00342836168574 -0.00165718960542)
(0.00215428425334 0.00367668936189 -0.0021868253647)
(0.00365606031301 0.00416338945078 -0.00263437141703)
(0.00509623177028 0.00497977405616 -0.00303686109994)
(0.00629254309412 0.0061597208749 -0.00334083090292)
(0.00728088411862 0.00763068023737 -0.00347689032008)
(0.00791804513652 0.00955698030054 -0.00321234793426)
(0.00738628002274 0.0119456787231 -0.00268490581423)
(0.00588046795326 0.0132382935982 -0.00233224256388)
(0.00436785582764 0.0136009074739 -0.00206685541963)
(0.00324676108457 0.0134030547735 -0.00192893078823)
(0.00263697202078 0.0130394881344 -0.00196307310979)
(0.00251012990448 0.0129509201204 -0.00208868348285)
(0.00264544624603 0.0132784075894 -0.00235144830146)
(0.00277020389334 0.0137897044533 -0.00237876522804)
(0.00263383732145 0.0143090421913 -0.00231524233063)
(0.00227438423334 0.0147438952245 -0.00219237697614)
(0.00172865438454 0.0151232090386 -0.00205575867682)
(0.00108835692257 0.0153817160043 -0.00196850886996)
(0.000357240849652 0.0154400543584 -0.0019214805731)
(0.000819760512428 0.0038936058749 -0.00163597784953)
(0.00240610525271 0.00416094360063 -0.00219670536758)
(0.00406002220747 0.00467947272535 -0.00261807719277)
(0.00563479077691 0.00555757425291 -0.00295304441891)
(0.0069811407518 0.00683522191745 -0.00317107257113)
(0.00832811156547 0.00830851347524 -0.00322710450256)
(0.00966205833619 0.0104961247073 -0.0025701431988)
(0.00893416395574 0.0143930173589 -0.00128598755859)
(0.00651758407992 0.0159333469014 -0.000895286436289)
(0.00440317454351 0.0161330357121 -0.000851353291969)
(0.0030575721586 0.0157963445572 -0.00131993148441)
(0.00256621408277 0.0153236499116 -0.00192247212866)
(0.00290751316507 0.0150550552926 -0.00221904036096)
(0.00331648489841 0.0150391130856 -0.00216968888435)
(0.003544948408 0.0156680698924 -0.0019927744762)
(0.00341261332948 0.0163894168936 -0.00183606757839)
(0.00298210177124 0.0169838216492 -0.00165223711467)
(0.00230453176854 0.0174884500772 -0.00144122715279)
(0.00146461862075 0.0178456395258 -0.00129814407387)
(0.000488619007946 0.0179256754377 -0.00123546132125)
(0.000891461238801 0.00421883547149 -0.00159342550525)
(0.00257748951525 0.00450806840867 -0.00212260164554)
(0.00429820809328 0.00505510148989 -0.00248017899403)
(0.00592952885211 0.00597760375675 -0.00274551876354)
(0.00733107913368 0.00720221396784 -0.0029101499982)
(0.00893565053977 0.00827161069797 -0.00296236236654)
(0.0116631473472 0.00976737700991 -0.00143068323992)
(0.0108129937113 0.0149596692268 0.00379201342776)
(0.00713824362202 0.0150504372078 0.0043052136013)
(0.00487567519892 0.0135800818564 0.0038059751931)
(0.00376217275906 0.0119726873471 0.00241088601909)
(0.00316802887705 0.010758275031 0.00106973840172)
(0.00334286293108 0.010744170324 0.000140699753204)
(0.00361848482715 0.0147006494373 -0.00135082711711)
(0.00453761621089 0.0167605407087 -0.00147925922246)
(0.00455514329585 0.0180135823039 -0.00132196835158)
(0.00400508615779 0.0188260897074 -0.00107369188734)
(0.00309807060975 0.0194458998014 -0.000768723112155)
(0.00196814237942 0.0198739898064 -0.000549406866925)
(0.000686485662708 0.0200102686076 -0.00046214285443)
(0.000929386253276 0.00444642987813 -0.00156742840715)
(0.00267025798947 0.00476919649841 -0.00198910532699)
(0.00438639343269 0.00539138819708 -0.00225510882081)
(0.00599884086518 0.00643161447472 -0.00251204325665)
(0.00724899551555 0.00766205384339 -0.00283032375363)
(0.008424594422 0.00836070181534 -0.00387295761244)
(0.0127173590433 0.00864982286052 -0.00287838437564)