/*--------------------------------*- C++ -*----------------------------------*\
| =========                 |                                                 |
| \\      /  F ield         | OpenFOAM: The Open Source CFD Toolbox           |
|  \\    /   O peration     | Version:  v1606+                                |
|   \\  /    A nd           | Web:      www.OpenFOAM.com                      |
|    \\/     M anipulation  |                                                 |
\*---------------------------------------------------------------------------*/
FoamFile
{
    version     2.0;
    format      ascii;
    class       surfaceScalarField;
    location    "0.1";
    object      phi;
}
// * * * * * * * * * * * * * * * * * * * * * * * * * * * * * * * * * * * * * //

dimensions      [0 3 -1 0 0 0 0];

internalField   nonuniform List<scalar> 
5856
(
-1.71041e-07
1.71041e-07
-5.34481e-07
3.6344e-07
-1.02313e-06
4.88647e-07
-1.57604e-06
5.52912e-07
-2.1294e-06
5.53358e-07
-2.62938e-06
4.99981e-07
-3.04162e-06
4.12242e-07
-3.35109e-06
3.09473e-07
-3.55821e-06
2.07113e-07
-3.67482e-06
1.1661e-07
-3.72131e-06
4.64891e-08
-3.5298e-09
-3.71778e-06
-8.0824e-07
9.79282e-07
-1.70268e-06
1.25788e-06
-2.50573e-06
1.2917e-06
-3.16372e-06
1.2109e-06
-3.65226e-06
1.0419e-06
-3.97517e-06
8.22891e-07
-4.15254e-06
5.89613e-07
-4.21099e-06
3.67922e-07
-4.17698e-06
1.73099e-07
-4.06105e-06
6.83751e-10
-3.88967e-06
-1.24897e-07
-1.95412e-07
-3.69778e-06
-9.1017e-07
1.88945e-06
-1.77718e-06
2.12488e-06
-2.4275e-06
1.94203e-06
-2.85962e-06
1.64301e-06
-3.10605e-06
1.28833e-06
-3.21085e-06
9.27687e-07
-3.21415e-06
5.92912e-07
-3.14831e-06
3.02089e-07
-3.04242e-06
6.72071e-08
-2.93294e-06
-1.08798e-07
-2.78518e-06
-2.72656e-07
-3.74488e-07
-2.6061e-06
-7.89886e-07
2.67934e-06
-1.53014e-06
2.86513e-06
-2.06481e-06
2.47671e-06
-2.435e-06
2.0132e-06
-2.67806e-06
1.53139e-06
-2.80641e-06
1.05604e-06
-2.82191e-06
6.08411e-07
-2.72897e-06
2.09155e-07
-2.53708e-06
-1.24691e-07
-2.29575e-06
-3.50122e-07
-2.05707e-06
-5.11342e-07
-6.09431e-07
-1.82212e-06
-6.59462e-07
3.3388e-06
-1.29699e-06
3.50266e-06
-1.78384e-06
2.96355e-06
-2.15194e-06
2.3813e-06
-2.39426e-06
1.77372e-06
-2.48407e-06
1.14585e-06
-2.41501e-06
5.39345e-07
-2.21931e-06
1.34554e-08
-1.93945e-06
-4.04545e-07
-1.61039e-06
-6.79189e-07
-1.28614e-06
-8.35583e-07
-9.02924e-07
-9.92651e-07
-5.46876e-07
3.88568e-06
-1.11238e-06
4.06817e-06
-1.59722e-06
3.44839e-06
-2.00503e-06
2.78911e-06
-2.28101e-06
2.0497e-06
-2.35759e-06
1.22243e-06
-2.21344e-06
3.95198e-07
-1.86558e-06
-3.34409e-07
-1.41914e-06
-8.50987e-07
-9.55745e-07
-1.14258e-06
-5.35042e-07
-1.25629e-06
-1.25377e-06
-1.84196e-07
-4.34448e-07
4.32012e-06
-9.41236e-07
4.57496e-06
-1.45125e-06
3.95841e-06
-1.94715e-06
3.28501e-06
-2.3193e-06
2.42185e-06
-2.41607e-06
1.3192e-06
-2.17869e-06
1.57819e-07
-1.62269e-06
-8.90405e-07
-9.4214e-07
-1.53154e-06
-2.88427e-07
-1.79629e-06
2.52992e-07
-1.7977e-06
-1.66174e-06
6.60964e-07
-2.94426e-07
4.61455e-06
-7.29849e-07
5.01038e-06
-1.29163e-06
4.52019e-06
-1.9719e-06
3.96527e-06
-2.55297e-06
3.00292e-06
-2.71846e-06
1.48469e-06
-2.30858e-06
-2.52057e-07
-1.48866e-06
-1.71032e-06
-5.03464e-07
-2.51674e-06
3.96003e-07
-2.69576e-06
1.0837e-06
-2.4854e-06
-2.12674e-06
1.5487e-06
-7.0511e-08
4.68506e-06
-4.18564e-07
5.35843e-06
-1.05695e-06
5.15858e-06
-1.95884e-06
4.86717e-06
-2.70528e-06
3.74936e-06
-2.81692e-06
1.59632e-06
-2.22451e-06
-8.4447e-07
-1.1248e-06
-2.81003e-06
1.13693e-07
-3.75523e-06
1.19198e-06
-3.77405e-06
1.97527e-06
-3.26868e-06
-2.62031e-06
2.46884e-06
2.51449e-07
4.43361e-06
5.36658e-08
5.55622e-06
-5.31737e-07
5.74398e-06
-1.42758e-06
5.76301e-06
-2.0546e-06
4.37639e-06
-1.95746e-06
1.49918e-06
-1.19029e-06
-1.61164e-06
1.43385e-08
-4.01466e-06
1.25712e-06
-4.99801e-06
2.27375e-06
-4.79068e-06
2.98126e-06
-3.9762e-06
-3.04992e-06
3.41087e-06
8.17922e-07
3.61569e-06
9.20274e-07
5.45386e-06
5.73324e-07
6.09093e-06
7.37958e-08
6.26254e-06
-1.40266e-07
4.59045e-06
1.51699e-07
1.20721e-06
1.00765e-06
-2.46759e-06
2.04892e-06
-5.05593e-06
2.98636e-06
-5.93544e-06
3.67713e-06
-5.48145e-06
4.11848e-06
-4.41755e-06
-3.30287e-06
4.37143e-06
1.05968e-06
2.55601e-06
1.9595e-06
4.55405e-06
2.25945e-06
5.79097e-06
2.39631e-06
6.12568e-06
2.70137e-06
4.28539e-06
3.23553e-06
6.73056e-07
3.95619e-06
-3.18825e-06
4.5898e-06
-5.68955e-06
5.00454e-06
-6.35018e-06
5.2114e-06
-5.68832e-06
5.29344e-06
-4.49958e-06
5.32122e-06
-3.33066e-06
-3.66905e-06
-4.87206e-08
-3.59022e-06
-7.88304e-08
-3.48797e-06
-1.02254e-07
-3.36178e-06
-1.26187e-07
-3.18759e-06
-1.74189e-07
-2.9508e-06
-2.36791e-07
-2.63207e-06
-3.18731e-07
-2.20746e-06
-4.24612e-07
-1.65852e-06
-5.4894e-07
-1.001e-06
-6.57519e-07
-3.48165e-07
-6.52837e-07
-3.48165e-07
-3.494e-06
-2.52502e-07
-3.27418e-06
-2.98656e-07
-3.03836e-06
-3.38076e-07
-2.78751e-06
-3.77036e-07
-2.53788e-06
-4.23812e-07
-2.28941e-06
-4.85261e-07
-2.03657e-06
-5.71577e-07
-1.76372e-06
-6.97461e-07
-1.43593e-06
-8.76731e-07
-1.00273e-06
-1.09071e-06
-4.5335e-07
-1.20222e-06
-8.01515e-07
-2.41821e-06
-4.404e-07
-2.23324e-06
-4.8362e-07
-2.05536e-06
-5.15958e-07
-1.88362e-06
-5.48779e-07
-1.71521e-06
-5.92218e-07
-1.54626e-06
-6.54216e-07
-1.37555e-06
-7.42284e-07
-1.20597e-06
-8.67035e-07
-1.03552e-06
-1.04718e-06
-8.23794e-07
-1.30244e-06
-4.85774e-07
-1.54024e-06
-1.28729e-06
-1.60118e-06
-6.61342e-07
-1.40041e-06
-6.84393e-07
-1.22243e-06
-6.93939e-07
-1.06809e-06
-7.03117e-07
-9.36984e-07
-7.23323e-07
-8.26406e-07
-7.64795e-07
-7.31114e-07
-8.37576e-07
-6.4518e-07
-9.52969e-07
-5.74287e-07
-1.11807e-06
-5.04648e-07
-1.37208e-06
-3.85999e-07
-1.65889e-06
-1.67329e-06
-7.4191e-07
-9.12084e-07
-5.37042e-07
-8.8926e-07
-3.76667e-07
-8.54314e-07
-2.57589e-07
-8.22194e-07
-1.75966e-07
-8.04946e-07
-1.27844e-07
-8.12916e-07
-1.08933e-07
-8.56487e-07
-1.13083e-07
-9.48819e-07
-1.35866e-07
-1.09529e-06
-1.64272e-07
-1.34367e-06
-2.113e-07
-1.61186e-06
-1.88459e-06
9.16428e-08
-1.18792e-06
2.98051e-07
-1.09567e-06
4.43261e-07
-9.99524e-07
5.34567e-07
-9.135e-07
5.76997e-07
-8.47376e-07
5.73946e-07
-8.09865e-07
5.2684e-07
-8.09381e-07
4.39322e-07
-8.61302e-07
3.15908e-07
-9.71876e-07
1.70016e-07
-1.19778e-06
6.56173e-09
-1.44841e-06
-1.87803e-06
9.51397e-07
-1.47836e-06
1.14858e-06
-1.29286e-06
1.2718e-06
-1.12274e-06
1.3328e-06
-9.74501e-07
1.33737e-06
-8.51951e-07
1.28742e-06
-7.59907e-07
1.18245e-06
-7.04412e-07
1.02082e-06
-6.99671e-07
8.01522e-07
-7.52581e-07
5.2979e-07
-9.26051e-07
2.30391e-07
-1.14901e-06
-1.64763e-06
1.8397e-06
-1.76936e-06
2.01206e-06
-1.46522e-06
2.10339e-06
-1.21407e-06
2.13188e-06
-1.00299e-06
2.10306e-06
-8.23131e-07
2.016e-06
-6.72844e-07
1.86502e-06
-5.53432e-07
1.64257e-06
-4.77223e-07
1.3379e-06
-4.47915e-07
9.45631e-07
-5.33779e-07
4.74079e-07
-6.77455e-07
-1.17356e-06
2.74427e-06
-2.04479e-06
2.88076e-06
-1.6017e-06
2.93368e-06
-1.26698e-06
2.92912e-06
-9.98434e-07
2.87261e-06
-7.66625e-07
2.7589e-06
-5.59131e-07
2.57719e-06
-3.71719e-07
2.31003e-06
-2.10064e-07
1.93796e-06
-7.5843e-08
1.43371e-06
-2.953e-08
7.76161e-07
-1.99089e-08
-3.97395e-07
3.63622e-06
-2.27014e-06
3.73093e-06
-1.69642e-06
3.74837e-06
-1.28441e-06
3.71592e-06
-9.65987e-07
3.63967e-06
-6.90371e-07
3.5124e-06
-4.31867e-07
3.31832e-06
-1.77636e-07
3.03478e-06
7.34755e-08
2.623e-06
3.35936e-07
2.02073e-06
5.72739e-07
1.14839e-06
8.52433e-07
7.50996e-07
4.49794e-06
-2.39665e-06
4.54209e-06
-1.74057e-06
4.53192e-06
-1.27425e-06
4.48236e-06
-9.16428e-07
4.39682e-06
-6.04831e-07
4.26886e-06
-3.039e-07
4.08297e-06
8.25494e-09
3.81248e-06
3.4396e-07
3.41602e-06
7.32399e-07
2.79251e-06
1.19625e-06
1.83081e-06
1.81413e-06
2.58181e-06
5.3263e-06
-2.40173e-06
5.31377e-06
-1.72804e-06
5.28008e-06
-1.24055e-06
5.22185e-06
-8.58205e-07
5.13639e-06
-5.19368e-07
5.01789e-06
-1.85403e-07
4.85625e-06
1.69898e-07
4.62991e-06
5.70296e-07
4.30651e-06
1.0558e-06
3.75882e-06
1.74394e-06
2.78506e-06
2.7879e-06
5.36686e-06
-1.73086e-07
1.73086e-07
-5.38773e-07
3.65687e-07
-1.02748e-06
4.88712e-07
-1.58004e-06
5.52558e-07
-2.13271e-06
5.52666e-07
-2.63187e-06
4.99159e-07
-3.04329e-06
4.11417e-07
-3.35204e-06
3.08754e-07
-3.55859e-06
2.06551e-07
-3.67478e-06
1.16194e-07
-3.72099e-06
4.62024e-08
-3.70567e-09
-3.71728e-06
-8.1147e-07
9.84556e-07
-1.70476e-06
1.25898e-06
-2.50743e-06
1.29138e-06
-3.16447e-06
1.2096e-06
-3.65211e-06
1.04031e-06
-3.97435e-06
8.21394e-07
-4.15132e-06
5.88393e-07
-4.2096e-06
3.67026e-07
-4.17554e-06
1.72498e-07
-4.05963e-06
2.75817e-10
-3.88846e-06
-1.24959e-07
-1.95351e-07
-3.69682e-06
-9.08562e-07
1.89312e-06
-1.77424e-06
2.12466e-06
-2.42387e-06
1.94101e-06
-2.85572e-06
1.64145e-06
-3.10227e-06
1.28686e-06
-3.2074e-06
9.26523e-07
-3.21114e-06
5.92131e-07
-3.14577e-06
3.01656e-07
-3.0403e-06
6.70231e-08
-2.93117e-06
-1.08848e-07
-2.78361e-06
-2.7252e-07
-3.74238e-07
-2.60472e-06
-7.86848e-07
2.67997e-06
-1.52622e-06
2.86403e-06
-2.0608e-06
2.4756e-06
-2.43139e-06
2.01203e-06
-2.67494e-06
1.53041e-06
-2.80364e-06
1.05523e-06
-2.81934e-06
6.07832e-07
-2.72652e-06
2.08831e-07
-2.53475e-06
-1.24747e-07
-2.29364e-06
-3.49951e-07
-2.05519e-06
-5.10976e-07
-6.0893e-07
-1.8205e-06
-6.57165e-07
3.33713e-06
-1.29446e-06
3.50132e-06
-1.78148e-06
2.96262e-06
-2.14978e-06
2.38033e-06
-2.39205e-06
1.77268e-06
-2.48168e-06
1.14486e-06
-2.41247e-06
5.38619e-07
-2.21675e-06
1.31143e-08
-1.93701e-06
-4.04487e-07
-1.60819e-06
-6.7877e-07
-1.28425e-06
-8.3492e-07
-9.0213e-07
-9.91049e-07
-5.45657e-07
3.88279e-06
-1.11121e-06
4.06688e-06
-1.59605e-06
3.44745e-06
-2.00365e-06
2.78794e-06
-2.27922e-06
2.04824e-06
-2.35532e-06
1.22097e-06
-2.21082e-06
3.94111e-07
-1.86282e-06
-3.34878e-07
-1.41657e-06
-8.50742e-07
-9.53551e-07
-1.14179e-06
-5.33278e-07
-1.25519e-06
-1.25259e-06
-1.82816e-07
-4.34109e-07
4.3169e-06
-9.40957e-07
4.57373e-06
-1.45076e-06
3.95726e-06
-1.94634e-06
3.28352e-06
-2.31798e-06
2.41988e-06
-2.41406e-06
1.31704e-06
-2.17601e-06
1.56061e-07
-1.61976e-06
-8.91121e-07
-9.39474e-07
-1.53103e-06
-2.86335e-07
-1.79493e-06
2.5446e-07
-1.79599e-06
-1.66007e-06
6.61938e-07
-2.94638e-07
4.61153e-06
-7.30064e-07
5.00915e-06
-1.29172e-06
4.51892e-06
-1.97194e-06
3.96373e-06
-2.55259e-06
3.00053e-06
-2.71703e-06
1.48149e-06
-2.30603e-06
-2.54938e-07
-1.48557e-06
-1.71158e-06
-5.00666e-07
-2.51594e-06
3.97982e-07
-2.69358e-06
1.0848e-06
-2.4828e-06
-2.12445e-06
1.54918e-06
-7.09239e-08
4.68246e-06
-4.19054e-07
5.35728e-06
-1.05782e-06
5.15768e-06
-1.96012e-06
4.86603e-06
-2.70608e-06
3.7465e-06
-2.81609e-06
1.5915e-06
-2.22226e-06
-8.48765e-07
-1.12181e-06
-2.81203e-06
1.16349e-07
-3.7541e-06
1.19362e-06
-3.77084e-06
1.97586e-06
-3.26504e-06
-2.61735e-06
2.46875e-06
2.51085e-07
4.43137e-06
5.29901e-08
5.55538e-06
-5.33234e-07
5.74391e-06
-1.4295e-06
5.76229e-06
-2.05576e-06
4.37276e-06
-1.95725e-06
1.49299e-06
-1.18847e-06
-1.61754e-06
1.6803e-08
-4.0173e-06
1.25905e-06
-4.99635e-06
2.27458e-06
-4.78637e-06
2.98111e-06
-3.97156e-06
-3.04642e-06
3.41018e-06
8.17699e-07
3.61367e-06
9.19699e-07
5.45338e-06
5.72014e-07
6.09159e-06
7.23724e-08
6.26193e-06
-1.40951e-07
4.58608e-06
1.51987e-07
1.20005e-06
1.009e-06
-2.47456e-06
2.0503e-06
-5.05861e-06
2.987e-06
-5.93305e-06
3.67681e-06
-5.47618e-06
4.11746e-06
-4.41222e-06
-3.29914e-06
4.37018e-06
1.05948e-06
2.55419e-06
1.95922e-06
4.55363e-06
2.2589e-06
5.79191e-06
2.39598e-06
6.12486e-06
2.70184e-06
4.28022e-06
3.23573e-06
6.66164e-07
3.95668e-06
-3.19551e-06
4.58961e-06
-5.69154e-06
5.00357e-06
-6.347e-06
5.20993e-06
-5.68255e-06
5.2918e-06
-4.49408e-06
5.31972e-06
-3.32706e-06
-3.66852e-06
-4.87614e-08
-3.58973e-06
-7.87895e-08
-3.48757e-06
-1.02163e-07
-3.36149e-06
-1.26076e-07
-3.18745e-06
-1.74043e-07
-2.95077e-06
-2.36681e-07
-2.63211e-06
-3.18654e-07
-2.20754e-06
-4.2457e-07
-1.6586e-06
-5.4894e-07
-1.00104e-06
-6.5756e-07
-3.48156e-07
-6.52886e-07
-3.48156e-07
-3.49321e-06
-2.52376e-07
-3.27353e-06
-2.98464e-07
-3.03785e-06
-3.37844e-07
-2.78714e-06
-3.76785e-07
-2.53762e-06
-4.2356e-07
-2.28928e-06
-4.85029e-07
-2.03655e-06
-5.7138e-07
-1.7638e-06
-6.97319e-07
-1.43607e-06
-8.76676e-07
-1.00285e-06
-1.09078e-06
-4.53369e-07
-1.20236e-06
-8.01525e-07
-2.41704e-06
-4.40062e-07
-2.23228e-06
-4.83223e-07
-2.05459e-06
-5.15532e-07
-1.88303e-06
-5.48348e-07
-1.71478e-06
-5.91803e-07
-1.54597e-06
-6.53839e-07
-1.3754e-06
-7.41954e-07
-1.20595e-06
-8.66768e-07
-1.03561e-06
-1.04701e-06
-8.23937e-07
-1.30246e-06
-4.8585e-07
-1.54045e-06
-1.28738e-06
-1.59979e-06
-6.60763e-07
-1.39924e-06
-6.83781e-07
-1.22145e-06
-6.93324e-07
-1.06727e-06
-7.02527e-07
-9.363e-07
-7.22769e-07
-8.2585e-07
-7.64289e-07
-7.30686e-07
-8.37119e-07
-6.44884e-07
-9.52569e-07
-5.74128e-07
-1.11777e-06
-5.04627e-07
-1.37196e-06
-3.8605e-07
-1.65903e-06
-1.67342e-06
-7.40561e-07
-9.11251e-07
-5.35901e-07
-8.88441e-07
-3.75695e-07
-8.5353e-07
-2.5675e-07
-8.21472e-07
-1.75229e-07
-8.0429e-07
-1.27198e-07
-8.1232e-07
-1.08367e-07
-8.5595e-07
-1.12601e-07
-9.48335e-07
-1.35478e-07
-1.09489e-06
-1.64021e-07
-1.34341e-06
-2.11227e-07
-1.61182e-06
-1.88465e-06
9.27253e-08
-1.18679e-06
2.98928e-07
-1.09464e-06
4.44027e-07
-9.98629e-07
5.35266e-07
-9.12711e-07
5.77653e-07
-8.46678e-07
5.7457e-07
-8.09236e-07
5.27433e-07
-8.08813e-07
4.39889e-07
-8.60791e-07
3.16415e-07
-9.71417e-07
1.70404e-07
-1.1974e-06
6.75481e-09
-1.44817e-06
-1.8779e-06
9.52061e-07
-1.47692e-06
1.14909e-06
-1.29167e-06
1.27224e-06
-1.12178e-06
1.33324e-06
-9.73712e-07
1.33785e-06
-8.51281e-07
1.28792e-06
-7.5931e-07
1.18298e-06
-7.03873e-07
1.02135e-06
-6.99162e-07
8.02027e-07
-7.52094e-07
5.30202e-07
-9.25577e-07
2.30623e-07
-1.14859e-06
-1.64727e-06
1.83986e-06
-1.7676e-06
2.01213e-06
-1.46394e-06
2.10347e-06
-1.21312e-06
2.13203e-06
-1.00227e-06
2.10329e-06
-8.22543e-07
2.01632e-06
-6.72335e-07
1.8654e-06
-5.52958e-07
1.64299e-06
-4.7675e-07
1.33832e-06
-4.47423e-07
9.4598e-07
-5.33237e-07
4.7428e-07
-6.76892e-07
-1.17299e-06
2.74392e-06
-2.04277e-06
2.88041e-06
-1.60043e-06
2.93345e-06
-1.26616e-06
2.92903e-06
-9.97851e-07
2.87266e-06
-7.6617e-07
2.75906e-06
-5.58739e-07
2.57744e-06
-3.71334e-07
2.31033e-06
-2.0964e-07
1.93827e-06
-7.53641e-08
1.43399e-06
-2.89608e-08
7.76379e-07
-1.92785e-08
-3.96615e-07
3.63541e-06
-2.26801e-06
3.73026e-06
-1.69528e-06
3.74791e-06
-1.28381e-06
3.71567e-06
-9.65614e-07
3.63959e-06
-6.90089e-07
3.51246e-06
-4.31612e-07
3.31849e-06
-1.77357e-07
3.03501e-06
7.38389e-08
2.62323e-06
3.36415e-07
2.02092e-06
5.73349e-07
1.14847e-06
8.5317e-07
7.51855e-07
4.49682e-06
-2.39464e-06
4.54124e-06
-1.73969e-06
4.53135e-06
-1.27392e-06
4.48203e-06
-9.16299e-07
4.39669e-06
-6.04747e-07
4.26887e-06
-3.03797e-07
4.0831e-06
8.41435e-09
3.81268e-06
3.44266e-07
3.41619e-06
7.32905e-07
2.79259e-06
1.19695e-06
1.83084e-06
1.81492e-06
2.58269e-06
5.3251e-06
-2.40002e-06
5.31289e-06
-1.72748e-06
5.27948e-06
-1.2405e-06
5.22149e-06
-8.5831e-07
5.13623e-06
-5.19489e-07
5.01792e-06
-1.85484e-07
4.85642e-06
1.69914e-07
4.63015e-06
5.70533e-07
4.30668e-06
1.05637e-06
3.75883e-06
1.7448e-06
2.78495e-06
2.7888e-06
5.36764e-06
-1.71664e-07
1.71664e-07
-5.3582e-07
3.64156e-07
-1.02448e-06
4.88663e-07
-1.57731e-06
5.52828e-07
-2.1305e-06
5.5319e-07
-2.63028e-06
4.99783e-07
-3.04232e-06
4.12038e-07
-3.35161e-06
3.09288e-07
-3.55857e-06
2.06958e-07
-3.67505e-06
1.16478e-07
-3.72143e-06
4.63865e-08
-3.6208e-09
-3.71781e-06
-8.09315e-07
9.80979e-07
-1.70341e-06
1.25825e-06
-2.50641e-06
1.29166e-06
-3.16415e-06
1.21057e-06
-3.65245e-06
1.04149e-06
-3.97515e-06
8.2248e-07
-4.15236e-06
5.89247e-07
-4.21069e-06
3.67618e-07
-4.17658e-06
1.72854e-07
-4.06055e-06
4.48141e-10
-3.88918e-06
-1.24989e-07
-1.95489e-07
-3.69731e-06
-9.09679e-07
1.89066e-06
-1.77629e-06
2.12486e-06
-2.42644e-06
1.94181e-06
-2.85848e-06
1.64261e-06
-3.10492e-06
1.28793e-06
-3.20975e-06
9.27308e-07
-3.2131e-06
5.92596e-07
-3.14733e-06
3.01853e-07
-3.04153e-06
6.705e-08
-2.93212e-06
-1.08966e-07
-2.78437e-06
-2.72734e-07
-3.74536e-07
-2.60532e-06
-7.88918e-07
2.67958e-06
-1.52891e-06
2.86485e-06
-2.06355e-06
2.47646e-06
-2.43383e-06
2.01289e-06
-2.67698e-06
1.53107e-06
-2.80536e-06
1.05569e-06
-2.82084e-06
6.08077e-07
-2.72787e-06
2.08879e-07
-2.53597e-06
-1.2485e-07
-2.29472e-06
-3.50212e-07
-2.0561e-06
-5.11353e-07
-6.09391e-07
-1.82125e-06
-6.58745e-07
3.33832e-06
-1.29622e-06
3.50233e-06
-1.7831e-06
2.96334e-06
-2.15121e-06
2.381e-06
-2.39343e-06
1.77329e-06
-2.48308e-06
1.14533e-06
-2.41387e-06
5.38874e-07
-2.2181e-06
1.31027e-08
-1.93824e-06
-4.04707e-07
-1.60926e-06
-6.79191e-07
-1.28514e-06
-8.35472e-07
-9.02754e-07
-9.91781e-07
-5.4652e-07
3.88484e-06
-1.11206e-06
4.06787e-06
-1.59689e-06
3.44817e-06
-2.00459e-06
2.7887e-06
-2.28033e-06
2.04903e-06
-2.35663e-06
1.22163e-06
-2.21223e-06
3.9448e-07
-1.86424e-06
-3.3489e-07
-1.41782e-06
-8.51127e-07
-9.54567e-07
-1.14244e-06
-5.34057e-07
-1.25598e-06
-1.25341e-06
-1.83403e-07
-4.34372e-07
4.31921e-06
-9.41214e-07
4.57471e-06
-1.45118e-06
3.95814e-06
-1.94696e-06
3.28449e-06
-2.31887e-06
2.42094e-06
-2.41524e-06
1.318e-06
-2.17744e-06
1.56677e-07
-1.62124e-06
-8.91093e-07
-9.40736e-07
-1.53163e-06
-2.87254e-07
-1.79592e-06
2.53879e-07
-1.79711e-06
-1.66113e-06
6.61605e-07
-2.94512e-07
4.61373e-06
-7.29984e-07
5.01018e-06
-1.29181e-06
4.51997e-06
-1.97216e-06
3.96483e-06
-2.55307e-06
3.00185e-06
-2.71799e-06
1.48293e-06
-2.30747e-06
-2.53846e-07
-1.48716e-06
-1.7114e-06
-5.02016e-07
-2.51678e-06
3.97104e-07
-2.69504e-06
1.0844e-06
-2.48441e-06
-2.12585e-06
1.54911e-06
-7.06394e-08
4.68436e-06
-4.1878e-07
5.35832e-06
-1.05749e-06
5.15868e-06
-1.95973e-06
4.86706e-06
-2.70599e-06
3.74811e-06
-2.81669e-06
1.59363e-06
-2.22341e-06
-8.47127e-07
-1.1232e-06
-2.81161e-06
1.1517e-07
-3.75515e-06
1.19294e-06
-3.77281e-06
1.97569e-06
-3.26716e-06
-2.6191e-06
2.46894e-06
2.51387e-07
4.43298e-06
5.34479e-08
5.55626e-06
-5.32473e-07
5.7446e-06
-1.42862e-06
5.76321e-06
-2.05522e-06
4.37471e-06
-1.95723e-06
1.49565e-06
-1.18907e-06
-1.61529e-06
1.59754e-08
-4.01665e-06
1.25845e-06
-4.99763e-06
2.27442e-06
-4.78878e-06
2.98133e-06
-3.97408e-06
-3.04841e-06
3.41064e-06
8.17991e-07
3.61499e-06
9.20226e-07
5.45403e-06
5.72904e-07
6.09192e-06
7.33374e-08
6.26278e-06
-1.40275e-07
4.58833e-06
1.52265e-07
1.20311e-06
1.00885e-06
-2.47187e-06
2.05015e-06
-5.05795e-06
2.98714e-06
-5.93462e-06
3.6773e-06
-5.47893e-06
4.11816e-06
-4.41494e-06
-3.30117e-06
4.37092e-06
1.0603e-06
2.55469e-06
1.96007e-06
4.55426e-06
2.25972e-06
5.79227e-06
2.39666e-06
6.12583e-06
2.70216e-06
4.28283e-06
3.2361e-06
6.69166e-07
3.95686e-06
-3.19263e-06
4.59004e-06
-5.69113e-06
5.00433e-06
-6.34892e-06
5.2109e-06
-5.68549e-06
5.29276e-06
-4.4968e-06
5.32057e-06
-3.32897e-06
-3.66902e-06
-4.87882e-08
-3.59013e-06
-7.88897e-08
-3.48783e-06
-1.02308e-07
-3.36159e-06
-1.26232e-07
-3.18735e-06
-1.74238e-07
-2.95054e-06
-2.36811e-07
-2.63182e-06
-3.18724e-07
-2.20724e-06
-4.24579e-07
-1.65836e-06
-5.48883e-07
-1.00091e-06
-6.57447e-07
-3.48137e-07
-6.52774e-07
-3.48137e-07
-3.49352e-06
-2.52574e-07
-3.27369e-06
-2.98718e-07
-3.03787e-06
-3.38127e-07
-2.78703e-06
-3.77074e-07
-2.53744e-06
-4.23832e-07
-2.289e-06
-4.85254e-07
-2.03618e-06
-5.71536e-07
-1.76339e-06
-6.97376e-07
-1.43567e-06
-8.76596e-07
-1.00258e-06
-1.09054e-06
-4.53308e-07
-1.20205e-06
-8.01445e-07
-2.41747e-06
-4.40428e-07
-2.23255e-06
-4.83635e-07
-2.05471e-06
-5.15965e-07
-1.88301e-06
-5.48775e-07
-1.71465e-06
-5.92197e-07
-1.54573e-06
-6.5417e-07
-1.37507e-06
-7.42202e-07
-1.20554e-06
-8.66904e-07
-1.03515e-06
-1.04698e-06
-8.2353e-07
-1.30216e-06
-4.8567e-07
-1.53991e-06
-1.28712e-06
-1.6004e-06
-6.61277e-07
-1.39971e-06
-6.84321e-07
-1.22181e-06
-6.93869e-07
-1.06753e-06
-7.03052e-07
-9.36474e-07
-7.23255e-07
-8.25931e-07
-7.64712e-07
-7.30669e-07
-8.37464e-07
-6.44766e-07
-9.52807e-07
-5.73906e-07
-1.11784e-06
-5.04325e-07
-1.37174e-06
-3.85823e-07
-1.65841e-06
-1.67294e-06
-7.41161e-07
-9.11897e-07
-5.36401e-07
-8.8908e-07
-3.76116e-07
-8.54154e-07
-2.57114e-07
-8.22054e-07
-1.75547e-07
-8.04821e-07
-1.27467e-07
-8.12793e-07
-1.08586e-07
-8.56344e-07
-1.12758e-07
-9.48634e-07
-1.35565e-07
-1.09503e-06
-1.63997e-07
-1.34331e-06
-2.11093e-07
-1.61132e-06
-1.88403e-06
9.22766e-08
-1.18758e-06
2.98565e-07
-1.09537e-06
4.43684e-07
-9.99274e-07
5.34923e-07
-9.13292e-07
5.773e-07
-8.47199e-07
5.74209e-07
-8.09702e-07
5.27076e-07
-8.09211e-07
4.39542e-07
-8.611e-07
3.16115e-07
-9.71606e-07
1.70206e-07
-1.1974e-06
6.72362e-09
-1.44783e-06
-1.87731e-06
9.51862e-07
-1.47783e-06
1.14894e-06
-1.29244e-06
1.27208e-06
-1.12242e-06
1.33304e-06
-9.74252e-07
1.33759e-06
-8.51745e-07
1.28761e-06
-7.5972e-07
1.18262e-06
-7.04223e-07
1.02097e-06
-6.99451e-07
8.01665e-07
-7.523e-07
5.29924e-07
-9.25659e-07
2.30494e-07
-1.1484e-06
-1.64681e-06
1.83995e-06
-1.76868e-06
2.01224e-06
-1.46473e-06
2.10354e-06
-1.21372e-06
2.13203e-06
-1.00274e-06
2.10321e-06
-8.22927e-07
2.01615e-06
-6.72659e-07
1.86516e-06
-5.53236e-07
1.6427e-06
-4.76988e-07
1.33801e-06
-4.47611e-07
9.45723e-07
-5.3337e-07
4.7415e-07
-6.76829e-07
-1.17266e-06
2.74426e-06
-2.04399e-06
2.88075e-06
-1.60122e-06
2.93371e-06
-1.26668e-06
2.92919e-06
-9.98223e-07
2.87272e-06
-7.66457e-07
2.75904e-06
-5.58973e-07
2.57734e-06
-3.71533e-07
2.31016e-06
-2.09814e-07
1.93806e-06
-7.55051e-08
1.43376e-06
-2.90788e-08
7.76222e-07
-1.92874e-08
-3.96442e-07
3.63595e-06
-2.2693e-06
3.73075e-06
-1.69602e-06
3.74829e-06
-1.28422e-06
3.71594e-06
-9.6587e-07
3.63976e-06
-6.90274e-07
3.51254e-06
-4.3176e-07
3.31849e-06
-1.77481e-07
3.03494e-06
7.37326e-08
2.62311e-06
3.36329e-07
2.02077e-06
5.73265e-07
1.14835e-06
8.53131e-07
7.51906e-07
4.49749e-06
-2.39587e-06
4.54179e-06
-1.74032e-06
4.53178e-06
-1.27421e-06
4.48234e-06
-9.16438e-07
4.3969e-06
-6.04833e-07
4.26901e-06
-3.03867e-07
4.08317e-06
8.36004e-09
3.81268e-06
3.44221e-07
3.41614e-06
7.3287e-07
2.7925e-06
1.19691e-06
1.83071e-06
1.81492e-06
2.58262e-06
5.32579e-06
-2.4011e-06
5.31343e-06
-1.72796e-06
5.27989e-06
-1.24067e-06
5.22181e-06
-8.58349e-07
5.13646e-06
-5.19489e-07
5.01807e-06
-1.85479e-07
4.85651e-06
1.69924e-07
4.63019e-06
5.70542e-07
4.30669e-06
1.05637e-06
3.75877e-06
1.74483e-06
2.78484e-06
2.78884e-06
5.36746e-06
-1.72982e-07
1.72982e-07
-5.38633e-07
3.65651e-07
-1.02741e-06
4.88776e-07
-1.58009e-06
5.52676e-07
-2.13288e-06
5.52793e-07
-2.63214e-06
4.99266e-07
-3.04364e-06
4.11496e-07
-3.35244e-06
3.08801e-07
-3.55901e-06
2.06568e-07
-3.67519e-06
1.16183e-07
-3.72136e-06
4.61685e-08
-3.77445e-09
-3.71759e-06
-8.11536e-07
9.84519e-07
-1.70496e-06
1.25908e-06
-2.50775e-06
1.29156e-06
-3.16484e-06
1.20977e-06
-3.65247e-06
1.04042e-06
-3.97464e-06
8.21438e-07
-4.15152e-06
5.88382e-07
-4.20969e-06
3.66972e-07
-4.17554e-06
1.72411e-07
-4.05949e-06
1.34388e-10
-3.88827e-06
-1.25051e-07
-1.95459e-07
-3.69658e-06
-9.08694e-07
1.89321e-06
-1.77446e-06
2.12485e-06
-2.42408e-06
1.94118e-06
-2.85583e-06
1.64152e-06
-3.10225e-06
1.28684e-06
-3.20726e-06
9.26449e-07
-3.21091e-06
5.92031e-07
-3.14548e-06
3.01544e-07
-3.03999e-06
6.69166e-08
-2.93083e-06
-1.09022e-07
-2.78323e-06
-2.72652e-07
-3.74372e-07
-2.60432e-06
-7.86922e-07
2.68013e-06
-1.5263e-06
2.86422e-06
-2.0608e-06
2.47569e-06
-2.43128e-06
2.012e-06
-2.67477e-06
1.53032e-06
-2.80345e-06
1.05513e-06
-2.81914e-06
6.07719e-07
-2.72628e-06
2.08686e-07
-2.53448e-06
-1.24886e-07
-2.29338e-06
-3.5012e-07
-2.0549e-06
-5.11138e-07
-6.0908e-07
-1.82019e-06
-6.5718e-07
3.33731e-06
-1.29444e-06
3.50148e-06
-1.78139e-06
2.96264e-06
-2.14968e-06
2.38028e-06
-2.39199e-06
1.77264e-06
-2.48166e-06
1.14481e-06
-2.41248e-06
5.3853e-07
-2.21674e-06
1.29461e-08
-1.93694e-06
-4.04684e-07
-1.60807e-06
-6.78985e-07
-1.28409e-06
-8.35121e-07
-9.02301e-07
-9.90869e-07
-5.45647e-07
3.88296e-06
-1.11117e-06
4.067e-06
-1.59599e-06
3.44746e-06
-2.00366e-06
2.78796e-06
-2.27934e-06
2.04831e-06
-2.35555e-06
1.22102e-06
-2.21108e-06
3.94063e-07
-1.86304e-06
-3.35087e-07
-1.41669e-06
-8.51037e-07
-9.53579e-07
-1.1421e-06
-5.33237e-07
-1.25546e-06
-1.25279e-06
-1.82746e-07
-4.34106e-07
4.31707e-06
-9.40932e-07
4.57383e-06
-1.45077e-06
3.9573e-06
-1.94651e-06
3.28369e-06
-2.31838e-06
2.42018e-06
-2.41465e-06
1.31728e-06
-2.17665e-06
1.56068e-07
-1.62032e-06
-8.91418e-07
-9.39847e-07
-1.53151e-06
-2.86515e-07
-1.79543e-06
2.54412e-07
-1.79639e-06
-1.66032e-06
6.61944e-07
-2.94642e-07
4.61171e-06
-7.30069e-07
5.00925e-06
-1.29183e-06
4.51907e-06
-1.97231e-06
3.96417e-06
-2.5533e-06
3.00117e-06
-2.71802e-06
1.48201e-06
-2.30712e-06
-2.54834e-07
-1.48654e-06
-1.712e-06
-5.01344e-07
-2.51671e-06
3.97623e-07
-2.6944e-06
1.08467e-06
-2.48344e-06
-2.12481e-06
1.54916e-06
-7.09146e-08
4.68262e-06
-4.19107e-07
5.35745e-06
-1.05801e-06
5.15797e-06
-1.96055e-06
4.86671e-06
-2.70683e-06
3.74745e-06
-2.81716e-06
1.59234e-06
-2.22348e-06
-8.48513e-07
-1.12294e-06
-2.81254e-06
1.15527e-07
-3.75517e-06
1.19316e-06
-3.77203e-06
1.97568e-06
-3.26596e-06
-2.61784e-06
2.46871e-06
2.51108e-07
4.43152e-06
5.2892e-08
5.55566e-06
-5.33384e-07
5.74424e-06
-1.42976e-06
5.76309e-06
-2.05625e-06
4.37395e-06
-1.95805e-06
1.49414e-06
-1.18951e-06
-1.61706e-06
1.58171e-08
-4.01787e-06
1.25835e-06
-4.9977e-06
2.27419e-06
-4.78788e-06
2.98094e-06
-3.97271e-06
-3.04702e-06
3.41011e-06
8.17731e-07
3.61379e-06
9.19638e-07
5.45375e-06
5.71939e-07
6.09194e-06
7.22675e-08
6.26276e-06
-1.41248e-07
4.58746e-06
1.51409e-07
1.20148e-06
1.00823e-06
-2.47388e-06
2.0496e-06
-5.05924e-06
2.98652e-06
-5.93463e-06
3.67656e-06
-5.47791e-06
4.11734e-06
-4.41349e-06
-3.29976e-06
4.37009e-06
1.05881e-06
2.55497e-06
1.95872e-06
4.55384e-06
2.25869e-06
5.79197e-06
2.39583e-06
6.12562e-06
2.7015e-06
4.2818e-06
3.23533e-06
6.6764e-07
3.95616e-06
-3.19471e-06
4.58921e-06
-5.69229e-06
5.00333e-06
-6.34874e-06
5.2098e-06
-5.68438e-06
5.29168e-06
-4.49537e-06
5.31955e-06
-3.32764e-06
-3.66874e-06
-4.8849e-08
-3.58985e-06
-7.88915e-08
-3.48758e-06
-1.02267e-07
-3.36141e-06
-1.26166e-07
-3.18728e-06
-1.74131e-07
-2.95057e-06
-2.36717e-07
-2.63192e-06
-3.1865e-07
-2.20738e-06
-4.24537e-07
-1.65849e-06
-5.48889e-07
-1.00098e-06
-6.57508e-07
-3.48134e-07
-6.52848e-07
-3.48134e-07
-3.49294e-06
-2.52497e-07
-3.27324e-06
-2.98592e-07
-3.03754e-06
-3.37966e-07
-2.78681e-06
-3.7689e-07
-2.53731e-06
-4.23635e-07
-2.28897e-06
-4.8506e-07
-2.03626e-06
-5.7136e-07
-1.76355e-06
-6.97246e-07
-1.43588e-06
-8.76558e-07
-1.00275e-06
-1.09064e-06
-4.53356e-07
-1.20224e-06
-8.0149e-07
-2.41662e-06
-4.40196e-07
-2.23185e-06
-4.83355e-07
-2.05417e-06
-5.15654e-07
-1.88261e-06
-5.4845e-07
-1.71437e-06
-5.91871e-07
-1.54557e-06
-6.53858e-07
-1.37502e-06
-7.41916e-07
-1.20559e-06
-8.66668e-07
-1.03531e-06
-1.04685e-06
-8.2372e-07
-1.30222e-06
-4.85778e-07
-1.54018e-06
-1.28727e-06
-1.59949e-06
-6.60898e-07
-1.39894e-06
-6.839e-07
-1.22117e-06
-6.93428e-07
-1.067e-06
-7.02613e-07
-9.36045e-07
-7.22831e-07
-8.25589e-07
-7.64314e-07
-7.3041e-07
-8.37095e-07
-6.44598e-07
-9.5248e-07
-5.73832e-07
-1.11761e-06
-5.04354e-07
-1.3717e-06
-3.85898e-07
-1.65864e-06
-1.67317e-06
-7.4038e-07
-9.11387e-07
-5.35736e-07
-8.88544e-07
-3.75556e-07
-8.53608e-07
-2.56636e-07
-8.21533e-07
-1.75133e-07
-8.04334e-07
-1.27104e-07
-8.12343e-07
-1.08257e-07
-8.55942e-07
-1.12458e-07
-9.48279e-07
-1.35305e-07
-1.09477e-06
-1.63825e-07
-1.34318e-06
-2.11052e-07
-1.61141e-06
-1.88422e-06
9.27915e-08
-1.18692e-06
2.98968e-07
-1.09472e-06
4.44032e-07
-9.98672e-07
5.35236e-07
-9.12736e-07
5.77598e-07
-8.46696e-07
5.74506e-07
-8.0925e-07
5.27379e-07
-8.08815e-07
4.39867e-07
-8.60767e-07
3.16435e-07
-9.71334e-07
1.70467e-07
-1.19721e-06
6.85223e-09
-1.4478e-06
-1.87737e-06
9.52059e-07
-1.47704e-06
1.14905e-06
-1.29171e-06
1.27215e-06
-1.12178e-06
1.33311e-06
-9.73695e-07
1.33768e-06
-8.51268e-07
1.28774e-06
-7.59309e-07
1.18281e-06
-7.0388e-07
1.0212e-06
-6.99162e-07
8.01925e-07
-7.52056e-07
5.30161e-07
-9.25447e-07
2.30628e-07
-1.14826e-06
-1.64674e-06
1.83985e-06
-1.76773e-06
2.01205e-06
-1.46392e-06
2.10333e-06
-1.21305e-06
2.13183e-06
-1.00219e-06
2.10306e-06
-8.22492e-07
2.01606e-06
-6.72315e-07
1.86515e-06
-5.52965e-07
1.64275e-06
-4.7677e-07
1.33812e-06
-4.47424e-07
9.45864e-07
-5.33189e-07
4.74233e-07
-6.76633e-07
-1.1725e-06
2.74389e-06
-2.0429e-06
2.88032e-06
-1.60035e-06
2.93327e-06
-1.266e-06
2.92878e-06
-9.97707e-07
2.87236e-06
-7.66072e-07
2.75875e-06
-5.58697e-07
2.57712e-06
-3.71342e-07
2.31004e-06
-2.09682e-07
1.93802e-06
-7.54067e-08
1.43379e-06
-2.89569e-08
7.76282e-07
-1.91278e-08
-3.96223e-07
3.63534e-06
-2.26813e-06
3.73012e-06
-1.69513e-06
3.74769e-06
-1.28357e-06
3.71537e-06
-9.65396e-07
3.63924e-06
-6.89942e-07
3.51209e-06
-4.31547e-07
3.31812e-06
-1.77365e-07
3.03466e-06
7.37797e-08
2.62291e-06
3.36337e-07
2.02067e-06
5.73283e-07
1.14831e-06
8.53232e-07
7.52088e-07
4.49668e-06
-2.39473e-06
4.54102e-06
-1.73947e-06
4.53106e-06
-1.2736e-06
4.48168e-06
-9.16016e-07
4.39629e-06
-6.04555e-07
4.26845e-06
-3.03707e-07
4.08267e-06
8.41355e-09
3.81226e-06
3.44197e-07
3.4158e-06
7.32796e-07
2.79226e-06
1.19682e-06
1.83059e-06
1.8149e-06
2.58268e-06
5.32487e-06
-2.40004e-06
5.31259e-06
-1.72719e-06
5.27911e-06
-1.24013e-06
5.22107e-06
-8.57979e-07
5.13578e-06
-5.19264e-07
5.01744e-06
-1.8537e-07
4.85593e-06
1.69926e-07
4.62967e-06
5.70462e-07
4.30623e-06
1.05623e-06
3.7584e-06
1.74465e-06
2.78464e-06
2.78867e-06
5.36731e-06
3.54747e-06
4.13723e-06
-5.12869e-06
3.68535e-06
4.41617e-06
4.23734e-06
5.23898e-06
4.9883e-06
5.37471e-06
5.7468e-06
3.52689e-06
6.47354e-06
-5.36815e-08
6.9532e-06
-3.66791e-06
7.06448e-06
-5.80082e-06
6.88881e-06
-6.17451e-06
6.60839e-06
-5.4079e-06
6.36631e-06
-4.2575e-06
-3.17192e-06
6.20757e-06
6.65464e-06
4.56143e-06
-7.07884e-06
6.42995e-06
4.64085e-06
6.77058e-06
4.89835e-06
7.64063e-06
4.50467e-06
8.64949e-06
2.51802e-06
9.3419e-06
-7.46089e-07
9.43608e-06
-3.76209e-06
8.99587e-06
-5.36061e-06
8.31772e-06
-5.49635e-06
7.69467e-06
-4.78486e-06
7.25832e-06
-3.82115e-06
-2.91098e-06
6.99739e-06
8.69498e-06
4.06305e-06
-8.1966e-06
9.01905e-06
4.31678e-06
9.54758e-06
4.36983e-06
1.03841e-05
3.66816e-06
1.11718e-05
1.73035e-06
1.1443e-05
-1.01735e-06
1.10163e-05
-3.33539e-06
1.01409e-05
-4.48524e-06
9.20439e-06
-4.5598e-06
8.46863e-06
-4.04909e-06
7.98374e-06
-3.33626e-06
-2.61918e-06
7.69194e-06
9.53425e-06
-8.79951e-06
1.0294e-05