/*--------------------------------*- C++ -*----------------------------------*\
| =========                 |                                                 |
| \\      /  F ield         | OpenFOAM: The Open Source CFD Toolbox           |
|  \\    /   O peration     | Version:  v1606+                                |
|   \\  /    A nd           | Web:      www.OpenFOAM.com                      |
|    \\/     M anipulation  |                                                 |
\*---------------------------------------------------------------------------*/
FoamFile
{
    version     2.0;
    format      ascii;
    class       volScalarField;
    location    "1.29";
    object      epsilon.air;
}
// * * * * * * * * * * * * * * * * * * * * * * * * * * * * * * * * * * * * * //

dimensions      [0 2 -3 0 0 0 0];

internalField   nonuniform List<scalar> 
6000
(
133.678
16.5615
10.7171
9.97504
9.77118
9.70428
9.71179
9.69742
9.72364
9.76585
9.81813
9.89878
9.97002
9.99943
9.99108
9.96878
9.93111
9.88331
9.84286
9.84009
9.90207
9.96008
9.99245
10.0001
10.0311
10.0074
10.0592
10.6869
16.4813
134.23
84.1459
23.5472
14.2946
11.8676
11.0886
10.7873
10.6405
10.5718
10.5855
10.667
10.8296
11.1294
11.4849
11.7322
11.7643
11.6274
11.4157
11.2147
11.0671
11.0424
11.274
11.7186
12.0425
12.236
12.229
12.0835
12.3296
14.2595
23.1358
81.1792
54.0986
22.3284
14.6796
12.0834
11.0893
10.7007
10.4337
10.2792
10.2483
10.2716
10.3525
10.5131
10.7023
10.8412
10.8738
10.8088
10.7098
10.6429
10.6576
10.8227
11.1985
11.7512
12.4261
13.2611
13.721
13.8924
14.2477
16.0594
22.8235
50.3245
37.8568
19.848
14.585
12.525
11.4338
10.9029
10.5854
10.3959
10.3544
10.3836
10.4246
10.4866
10.514
10.5405
10.5743
10.5956
10.6055
10.6341
10.7615
11.0818
11.6675
12.5764
14.2193
16.3934
16.9882
16.4162
15.8095
16.36
20.2824
33.0429
28.1309
17.0813
14.1731
12.8643
12.1076
11.746
11.3293
11.0034
10.8597
10.7917
10.7914
10.7915
10.7644
10.7478
10.7563
10.7913
10.8559
10.9929
11.3179
11.9465
12.9545
14.486
17.0891
19.0899
19.1698
17.9413
16.4059
15.794
16.5185
22.7516
21.3348
14.6911
13.7831
13.4791
13.2133
13.4212
13.0586
12.6009
12.3328
12.0881
11.8004
11.4734
11.2159
11.0401
10.9456
10.9598
11.1109
11.4646
12.1218
13.1482
14.5797
16.5599
18.5308
19.3146
19.672
18.243
16.1779
14.6863
14.1975
19.4951
18.1374
13.2587
13.68
14.4633
14.7159
15.3238
16.016
15.7507
14.7866
13.6227
12.6152
11.9012
11.4007
11.0745
10.8984
10.8889
11.0735
11.5333
12.4189
13.8718
15.7702
17.6161
18.7375
18.9291
19.4183
17.8375
15.6251
13.9326
13.433
20.1622
18.5016
13.1571
13.8887
15.3926
16.3041
17.0999
18.7574
18.8749
16.6012
14.3598
12.9372
12.0408
11.3891
10.8661
10.6338
10.6227
10.8681
11.4344
12.4079
13.9151
15.9587
18.0524
19.2204
18.6279
18.8665
17.1479
15.1452
13.7388
13.717
23.0375
21.7938
14.0819
14.5462
16.0114
17.3243
18.2624
19.269
18.9587
16.6505
14.4104
12.92
11.9915
11.3199
10.7271
10.438
10.4478
10.7456
11.3732
12.3618
13.7888
15.6892
17.9262
19.2362
18.4626
18.8001
17.1144
15.2084
14.027
14.5537
26.5666
27.4703
15.9807
15.6532
16.8357
18.5112
19.0772
18.8206
18.1468
16.3307
14.4192
12.9507
11.9225
11.2272
10.7001
10.3727
10.3575
10.6973
11.3808
12.3119
13.622
15.4798
17.7272
19.0431
18.3821
18.9748
17.8336
15.8187
14.7503
15.694
29.9974
33.2216
18.0401
17.0553
18.1734
20.2775
19.9317
18.4153
17.4611
15.9871
14.4057
12.9903
11.9034
11.184
10.6889
10.3928
10.3657
10.6828
11.3387
12.21
13.3873
15.2313
17.2223
18.5783
18.2033
19.0368
18.8867
16.8175
15.7581
17.0583
33.6277
38.8047
20.0938
18.6068
19.7995
22.1413
20.7444
18.3891
17.2059
15.9205
14.5384
13.092
12.0005
11.2915
10.8141
10.5359
10.4824
10.6983
11.1865
11.9423
13.0298
14.4169
15.9614
17.5542
17.8484
18.6863
19.501
17.8716
16.8221
18.458
37.089
44.1102
22.138
20.1445
21.3273
23.4647
21.2405
18.5058
17.2467
16.1421
14.708
13.2216
12.2265
11.5612
11.1257
10.8756
10.7835
10.8391
11.1427
11.7693
12.6001
13.5844
14.87
16.3379
17.3477
18.0167
19.2312
18.6777
17.7655
19.6762
39.9381
48.6092
24.0113
21.5437
22.6195
24.3012
21.3271
18.7979
17.6827
16.5039
14.7967
13.4833
12.5967
11.9825
11.5943
11.3659
11.2197
11.1185
11.2784
11.7722
12.3606
13.1787
14.236
15.4214
16.6328
17.4582
18.4026
18.9123
18.459
20.5646
41.9303
52.133
25.6458
22.7575
23.5793
24.4216
21.4077
19.5321
18.2923
16.5458
15.0128
13.9166
13.1215
12.5587
12.2098
11.991
11.7748
11.5731
11.6626
11.9703
12.4297
13.1719
14.0219
14.8835
15.9079
16.9396
17.6535
18.5574
18.7279
21.0553
43.0934
54.8128
27.149
23.7879
24.1913
24.0216
21.8093
20.4548
18.5073
16.7365
15.4888
14.5726
13.8656
13.3437
13.0143
12.7968
12.5235
12.3025
12.3242
12.4702
12.8716
13.5103
14.1845
14.8251
15.5365
16.4124
17.1909
17.8737
18.6146
21.1679
43.1671
57.4719
27.7552
24.3683
24.5437
23.9198
22.6399
20.7464
18.6364
17.1997
16.2548
15.5193
14.9178
14.4471
14.1311
13.9078
13.6262
13.4099
13.3168
13.4191
13.7847
14.2755
14.7579
15.2139
15.7205
16.3437
17.0078
17.6492
18.3591
21.1254
42.6268
59.5816
28.4511
25.1164
24.8038
24.2452
22.8422
20.6236
18.9354
17.9683
17.3443
16.8298
16.3695
15.9811
15.7079
15.5086
15.2478
14.9713
14.7881
14.848
15.0951
15.4342
15.7897
16.132
16.4769
16.8624
17.2742
17.7625
18.4487
21.3207
41.4626
55.3442
27.8606
24.7043
24.0678
23.5716
22.177
20.6105
19.5964
19.0952
18.8304
18.6034
18.3339
18.0635
17.8654
17.7197
17.4493
17.0546
16.7641
16.6841
16.7704
16.9743
17.2516
17.5699
17.8799
18.1314
18.259
18.36
18.6542
20.7739
37.8022
45.6729
25.5038
22.9214
22.2605
22.0484
21.6112
21.0414
20.7577
20.7378
20.8644
20.9816
20.9533
20.8133
20.6701
20.5335
20.1828
19.6332
19.161
18.8999
18.8272
18.9188
19.1645
19.5557
19.9286
20.1694
20.146
19.9022
19.5361
20.692
35.6207
37.21
22.6204
21.2135
21.2196
21.693
22.0399
22.3096
22.7005
23.1599
23.6778
24.1644
24.4098
24.3457
24.1427
23.8651
23.3397
22.5908
21.9066
21.4793
21.283
21.278
21.4679
21.8794
22.3635
22.7639
23.0297
22.7321
21.9225
22.6222
36.7592
36.4191
23.4534
21.7571
22.0586
22.7894
23.7546
24.804
25.7034
26.5336
27.3857
28.2239
28.8247
28.6856
28.1693
27.5342
26.7265
25.7265
24.8899
24.2347
23.8976
23.8345
23.956
24.4005
25.0376
25.6756
26.1927
26.3995
26.2499
27.3266
42.7488
43.8415
28.396
25.3365
24.6428
25.2405
26.5854
28.1182
29.406
30.5228
31.6296
32.6603
33.3149
33.2417
32.244
31.0854
29.91
28.6794
27.4853
26.6633
26.0906
25.7449
25.5348
25.5945
26.0689
26.9455
28.2359
29.6424
30.4361
32.4664
51.6763
48.0433
33.3456
28.4654
26.8788
27.155
28.3712
30.0202
31.617
33.1786
34.7741
35.9926
36.5787
36.4521
35.5202
33.9141
32.3393
30.7111
29.2755
27.9932
26.9634
26.2197
25.7204
25.5443
25.8183
26.5314
27.7579
29.5317
31.5472
34.5092
57.8958
51.5505
33.6025
29.0663
27.1116
26.9011
27.6956
29.2606
31.2374
33.3874
35.4809
36.83
37.4708
37.4882
36.6255
35.3335
33.5408
31.6595
29.7527
28.1323
26.9276
26.09
25.5405
25.2723
25.3811
25.9483
27.0821
28.7826
30.3807
33.2982
59.0565
56.1716
31.9119
27.5924
26.2369
26.1534
26.8841
28.476
30.7524
33.2614
35.6711
37.4436
38.6639
38.525
37.0404
35.4629
33.8909
31.8676
29.8053
28.0759
26.789
25.8811
25.261
24.9113
24.9178
25.4268
26.6004
28.4104
30.0139
32.8652
60.5831
59.3219
30.803
26.3376
25.127
25.2861
26.2815
28.1053
30.7037
33.3225
35.8054
38.4246
40.8767
40.6198
38.0406
35.9351
34.1799
32.0926
29.8082
27.9176
26.5103
25.5151
24.8318
24.4391
24.4144
24.9155
26.0754
27.9306
29.9537
33.2801
62.6724
62.1437
30.5045
25.7533
24.4552
24.7403
25.977
28.0797
30.9806
33.7017
36.0994
39.4953
42.9605
42.3825
38.9634
36.271
34.3921
32.0576
29.6337
27.6383
26.1394
25.0612
24.3243
23.9171
23.8937
24.3611
25.4365
27.2175
29.6073
33.7744
64.2993
63.7961
30.3869
25.4709
24.1977
24.536
25.9406
28.2586
31.4373
34.2963
36.5476
40.3512
44.1721
43.0567
39.1879
36.2435
34.1185
31.6844
29.2469
27.2357
25.698
24.5695
23.7989
23.3895
23.364
23.7762
24.7223
26.2847
28.6845
34.042
66.7749
65.1137
30.4006
25.2567
24.1957
24.5765
26.0702
28.5371
31.8623
34.7813
36.9233
40.7689
44.3679
42.778
38.7512
35.7261
33.4467
31.0242
28.6667
26.7062
25.1812
24.0422
23.2611
22.8503
22.8074
23.1534
23.9719
25.3673
27.5079
32.986
68.3745
66.4399
30.526
25.1505
24.1991
24.7237
26.2272
28.7106
32.0066
34.8638
36.9894
40.6431
43.6331
41.7431
37.7669
34.7694
32.4701
30.1414
27.9168
26.0521
24.5799
23.4618
22.6862
22.2698
22.1988
22.4832
23.2041
24.4655
26.387
31.6086
68.0129
67.4559
30.6936
25.1028
24.1558
24.7791
26.2694
28.667
31.7776
34.4881
36.6414
39.9186
42.0838
40.0044
36.2756
33.4637
31.2638
29.0864
27.0261
25.2839
23.8892
22.8117
22.0506
21.6234
21.5131
21.7271
22.3371
23.4978
25.2106
30.2295
65.9207
68.4753
30.925
25.1288
24.0846
24.7151
26.18
28.3873
31.1612
33.6095
35.7329
38.4379
39.7849
37.7171
34.4224
31.9029
29.8882
27.8955
26.0219
24.4193
23.1148
22.0875
21.3452
20.903
20.7458
20.8893
21.4071
22.3989
23.8339
28.7156
62.732
69.6008
31.2603
25.2818
24.057
24.5347
25.9702
27.9427
30.2874
32.3974
34.3601
36.413
37.0248
35.1015
32.342
30.1839
28.4094
26.6148
24.934
23.4755
22.2679
21.2953
20.5732
20.1153
19.9051
19.9531
20.3701
21.1772
22.4371
27.2398
59.579
70.7702
31.655
25.5499
24.0934
24.3078
25.751
27.4742
29.3161
30.9794
32.6427
34.0074
34.0551
32.4066
30.18
28.3758
26.8407
25.2501
23.7706
22.4611
21.3577
20.4431
19.7426
19.2681
18.9951
18.991
19.2964
19.8362
21.0986
25.8499
56.5228
71.1295
31.674
25.4629
23.8463
23.9438
25.4634
26.9458
28.1805
29.3112
30.5771
31.3636
31.087
29.7655
28.0179
26.5037
25.1668
23.7963
22.5243
21.3714
20.3808
19.5261
18.8493
18.368
18.0867
18.0332
18.148
18.5742
19.9112
24.6054
53.7025
69.3283
30.8239
24.7782
23.2622
23.3403
24.5553
25.8368
26.5584
27.3076
28.1815
28.5696
28.1999
27.2325
25.9327
24.6671
23.4996
22.3186
21.2109
20.2113
19.3515
18.5937
17.9523
17.4849
17.1903
17.0282
17.0533
17.4689
18.8679
23.4737
51.2424
63.2734
28.9912
23.644
22.4584
22.6568
23.476
24.2812
24.8052
25.3576
25.904
26.0426
25.6767
24.9999
24.0571
22.9691
21.8613
20.8177
19.8848
19.0395
18.2894
17.6376
17.0625
16.6023
16.2686
16.0629
16.0742
16.5011
17.8893
22.2894
48.6101
56.2765
26.9603
22.4183
21.5855
21.9789
22.6547
22.9277
23.3358
23.607
23.7768
23.7347
23.4472
23.023
22.3563
21.4051
20.3361
19.3655
18.5458
17.8377
17.214
16.6632
16.1614
15.7289
15.3936
15.1855
15.1972
15.5995
16.8845
20.9835
45.7696
52.7922
25.2775
21.2137
20.5925
21.0213
21.4674
21.5926
21.7105
21.6649
21.6221
21.5695
21.4531
21.2103
20.6952
19.8628
18.8835
17.9891
17.2502
16.6405
16.124
15.6769
15.2668
14.8835
14.5679
14.3689
14.3594
14.6817
15.7968
19.5437
42.6247
49.7601
23.7263
19.9687
19.392
19.6748
20.0035
20.1252
20.0125
19.8097
19.7402
19.7178
19.6667
19.4832
19.0377
18.3189
17.4732
16.6814
16.0188
15.4821
15.0445
14.6794
14.3524
14.0341
13.747
13.5448
13.4831
13.6991
14.6325
18.0037
39.0929
45.7579
22.0801
18.6614
18.0764
18.2236
18.4861
18.6099
18.4972
18.3036
18.2263
18.1955
18.1239
17.9167
17.4896
16.8604
16.1422
15.4586
14.8727
14.3957
14.0124
13.6968
13.4162
13.1407
12.8706
12.646
12.527
12.6548
13.4345
16.4413
35.4666
41.0996
20.3548
17.3489
16.8024
16.8975
17.1176
17.2323
17.1724
17.0394
16.9615
16.9018
16.7837
16.5343
16.1135
15.5534
14.9367
14.3458
13.8277
13.3963
13.0425
12.7436
12.469
12.1937
11.9169
11.6705
11.5161
11.5881
12.2471
14.9156
31.9808
36.6826
18.7824
16.143
15.6827
15.7867
15.9886
16.0937
16.0674
15.9771
15.8908
15.786
15.6086
15.3144
14.8942
14.3835
13.8414
13.3207
12.854
12.4523
12.1088
11.8044
11.5145
11.2219
10.932
10.6746
10.5052
10.5428
11.1049
13.4614
28.6929
33.0031
17.4371
15.1186
14.7636
14.9143
15.1366
15.2309
15.2054
15.1147
14.9899
14.8199
14.5762
14.2392
13.8153
13.3357
12.8406
12.3653
11.9311
11.5442
11.1995
10.8825
10.5759
10.27
9.97338
9.71304
9.53737
9.55038
10.0313
12.1031
25.6257
30.4568
16.4013
14.3323
14.0925
14.3159
14.5733
14.6273
14.524
14.3666
14.1745
13.9357
13.6346
13.2656
12.8399
12.3815
11.918
11.4721
11.0573
10.6776
10.3289
10.0013
9.68377
9.3719
9.07462
8.81561
8.63743
8.63061
9.04157
10.8571
22.8036
29.4742
15.8207
13.8955
13.724
14.0027
14.1733
14.0552
13.8052
13.5742
13.3389
13.0652
12.7388
12.3586
11.9393
11.5005
11.0615
10.6374
10.2368
9.86275
9.51221
9.1792
8.85732
8.54529
8.25165
7.99677
7.8188
7.7959
8.14651
9.7375
20.2698
29.7995
15.8599
13.9143
13.6788
13.794
13.5955
13.3125
12.9978
12.7325
12.4776
12.1979
11.8736
11.5032
11.1006
10.6835
10.2671
9.86232
9.47553
9.10874
8.76069
8.42789
8.10732
7.79965
7.51283
7.26446
7.08878
7.0543
7.35421
8.7558
18.0781
31.6336
16.5451
14.4044
13.8557
13.3727
12.8895
12.5413
12.2231
11.9405
11.6748
11.3881
11.0652
10.7091
10.3271
9.93286
9.53854
9.15279
8.78068
8.42405
8.08268
7.75512
7.44042
7.14055
6.86289
6.62292
6.45154
6.41006
6.67167
7.92567
16.2598
36.1292
18.3225
15.6269
14.1271
12.9102
12.3017
11.8925
11.5537
11.2444
10.9614
10.6675
10.3434
9.99561
9.63118
9.25787
8.88423
8.51697
8.16031
7.81614
7.48485
7.16631
6.86089
6.57127
6.30442
6.07425
5.90888
5.86418
6.09779
7.24045
14.7764
42.0306
21.0695
17.2461
14.4058
12.6619
11.9217
11.4313
11.0202
10.6666
10.3524
10.0467
9.72053
9.37672
9.02458
8.66818
8.31259
7.96256
7.62143
7.29098
6.972
6.665
6.37113
6.09341
5.83845
5.61898
5.46093
5.41592
5.62926
6.68433
13.592
48.1216
24.097
18.2602
14.5
12.5281
11.6836
11.1312
10.6376
10.2223
9.86318
9.53491
9.20272
8.86006
8.51507
8.17093
7.82996
7.49514
7.16883
6.85248
6.54693
6.25294
5.97197
5.70715
5.46469
5.25646
5.10669
5.06369
5.2633
6.2517
12.6884
52.1594
25.3225
18.022
14.2863
12.299
11.4245
10.8935
10.3754
9.90281
9.50119
9.14302
8.79721
8.45045
8.10747
7.77041
7.43998
7.11771
6.80484
6.50225
6.21047
5.93018
5.66282
5.4114
5.18176
4.98507
4.84431
4.80533
4.99721
5.93856
12.0456
54.4886
24.5571
17.2029
13.8082
11.9972
11.1657
10.6688
10.1649
9.68187
9.25997
8.87475
8.50985
8.1521
7.80432
7.46835
7.14373
6.83077
6.5295
6.23983
5.96169
5.69534
5.44191
5.2041
4.98742
4.80246
4.67134
4.63832
4.82834
5.74253
11.6528
52.9539
22.8544
16.3817
13.3439
11.7752
10.9103
10.416
9.97226
9.52339
9.13011
8.73214
8.34391
7.96715
7.60567
7.26384
6.93981
6.63265
6.34087
6.06309
5.79824
5.54591
5.30661
5.08259
4.87893
4.70578
4.58476
4.55963
4.75383
5.66175
11.5105
47.5774
21.0656
15.6752
12.9278
11.5941
10.7032
10.2133
9.82187
9.42736
9.0921
8.71944
8.29707
7.89186
7.50746
7.15289
6.82441
6.51972
6.23548
5.96861
5.71672
5.47861
5.25389
5.04412
4.85381
4.6925
4.58093
4.56229
4.7603
5.668
11.5258
39.5665
18.7943
14.6729
12.4378
11.3439
10.6362
10.1005
9.73952
9.43123
9.10546
8.79966
8.34753
7.91134
7.50069
7.12807
6.7912
6.48661
6.20877
5.95237
5.7131
5.48764
5.27563
5.07816
4.89925
4.7482
4.64545
4.63454
4.83848
5.7519
11.6837
33.7569
16.6782
13.5833
11.8728
11.0657
10.6833
10.1232
9.75932
9.51458
9.16908
8.92724
8.48243
8.00732
7.56378
7.17075
6.82481
6.51979
6.24771
6.00133
5.7751
5.56561
5.37071
5.19022
5.02755
4.89163
4.80254
4.80468
5.02416
5.96919
12.1149
28.2081
14.8372
12.4576
11.2968
10.8747
10.6923
10.1965
9.84316
9.62549
9.2767
9.04274
8.6688
8.16601
7.69537
7.27925
6.92337
6.61936
6.35621
6.12403
5.91516
5.72409
5.54736
5.38469
5.239
5.11886
5.04426
5.06168
5.30234
6.29681
12.7503
23.2625
13.4033
11.5179
10.8725
10.7795
10.6448
10.2748
9.97299
9.77218
9.39078
9.10484
8.85682
8.34937
7.86281
7.43528
7.0772
6.77969
6.52923
6.31371
6.12373
5.95262
5.79635
5.65373
5.52712
5.42483
5.36704
5.40233
5.66822
6.72277
13.5594
22.2164
12.9133
11.1446
10.7726
10.8499
10.8358
10.3586
10.1725
9.99821
9.5667
9.15145
8.99472
8.5296
8.04315
7.62026
7.27197
6.98957
6.75822
6.56435
6.39742
6.24994
6.11727
5.99763
5.89297
5.81136
5.77343
5.82985
6.12601
7.25408
14.5571
23.642
12.9864
11.1775
11.0091
11.2981
10.9437
10.4337
10.4062
10.293
9.82535
9.26798
9.11221
8.70193
8.22932
7.82604
7.50186
7.24553
7.04142
6.87542
6.73653
6.6169
6.51156
6.41842
6.33914
6.28171
6.26727
6.34889
6.68154
7.89803
15.7531
28.6365
13.4413
11.5289
11.7431
11.3911
10.7493
10.5707
10.6774
10.5867
10.0482
9.47505
9.26252
8.86983
8.42357
8.05388
7.76758
7.54886
7.38086
7.24952
7.14412
7.05696
6.98308
6.92032
6.87028
6.84099
6.85411
6.96579
7.34193
8.6645
17.1648
32.6254
14.1496
12.2596
11.7424
11.0237
10.6833
10.7649
11.0664
10.9479
10.267
9.75712
9.45526
9.03959
8.63039
8.31171
8.07696
7.90655
7.7831
7.69321
7.62689
7.57697
7.53884
7.51054
7.49379
7.49681
7.54201
7.68915
8.1159
9.56073
18.7998
32.5738
14.6518
12.2299
11.2597
10.7608
10.7101
11.0851
11.6425
11.2814
10.4971
10.0519
9.65087
9.21085
8.85852
8.61167
8.44275
8.33062
8.25952
8.21746
8.19561
8.18755
8.18926
8.19944
8.22014
8.2599
8.34224
8.53012
9.01432
10.5955
20.6609
29.756
14.2768
11.7814
10.8504
10.598
10.7853
11.434
12.0817
11.3411
10.6686
10.2353
9.78712
9.38727
9.12808
8.97241
8.88158
8.83673
8.82556
8.83752
8.86563
8.90397
8.94953
9.00189
9.06395
9.14482
9.26888
9.50256
10.0507
11.7813
22.759
22.8651
13.4757
11.1617
10.4968
10.4564
10.8199
11.6268
11.9701
11.2315
10.711
10.2649
9.86948
9.6007
9.46898
9.41778
9.41473
9.44575
9.5032
9.57721
9.66121
9.75061
9.84356
9.94105
10.0473
10.1723
10.3415
10.6249
11.2428
13.1362
25.1249
17.7968
11.9394
10.4845
10.1622
10.3209
10.8493
11.6852
11.6418
11.09
10.6346
10.2489
10.0169
9.9159
9.91906
9.9782
10.0735
10.1934
10.3305
10.4757
10.6227
10.7678
10.9108
11.0547
11.2056
11.3747
11.5893
11.9241
12.6164
14.6886
27.8185
16.0603
10.7948
9.93925
9.91359
10.2876
11.029
11.8917
11.5643
11.1627
10.6652
10.3901
10.3275
10.3814
10.5186
10.7022
10.9116
11.137
11.3693
11.5981
11.8164
12.0216
12.2156
12.4043
12.5955
12.8032
13.0585
13.4433
14.2152
16.4916
30.9714
16.3099
10.2926
9.68026
9.86711
10.4562
11.4936
12.3478
11.8497
11.4091
10.9399
10.7938
10.866
11.0643
11.3434
11.6666
12.0126
12.3678
12.7176
13.0473
13.3484
13.619
13.8635
14.0904
14.311
14.5454
14.8312
15.2613
16.1198
18.6446
34.8411
17.5916
10.3774
9.75046
10.0664
10.8953
12.1856
12.9428
12.5013
11.9281
11.5608
11.5261
11.7158
12.0637
12.4994
12.9877
13.5038
14.0252
14.5262
14.9846
15.389
15.7367
16.0331
16.2894
16.5232
16.767
17.0696
17.5372
18.4866
21.3149
39.7545
20.1276
10.8764
10.1421
10.6143
11.676
13.0781
13.7624
13.3224
12.7764
12.5581
12.6658
13.005
13.5158
14.137
14.8319
15.5704
16.3158
17.0225
17.6572
18.2043
18.6575
19.019
19.3019
19.5378
19.7781
20.0885
20.5902
21.6355
24.8246
46.2823
22.5854
11.8536
11.009
11.6541
12.9519
14.3753
14.7272
14.3114
14.0785
14.1233
14.4108
14.9249
15.623
16.4712
17.4332
18.4728
19.5303
20.5296
21.4239
22.1916
22.8166
23.2889
23.6235
23.8759
24.1245
24.4616
25.0326
26.2329
29.8633
55.1113
23.3305
12.7779
12.3043
13.3437
15.0246
16.3282
16.3676
16.2634
16.3509
16.6137
17.0752
17.7599
18.6709
19.797
21.1091
22.5553
24.0368
25.4568
26.7571
27.8927
28.8266
29.5165
29.9762
30.2949
30.6069
31.0658
31.8892
33.6171
38.5507
72.4569
22.3936
13.3921
13.9932
16.1113
18.5992
19.925
19.8733
19.9342
20.1154
20.4565
21.0339
21.8863
23.0284
24.4728
26.2493
28.2388
30.22
32.2171
34.1943
35.937
37.4361
38.5431
39.2349
39.6643
40.108
40.8775
42.3733
45.4522
53.7113
105.896
22.2503
14.248
16.1016
20.3005
24.4089
26.4379
26.3637
25.9541
25.807
26.1128
26.7707
27.7933
29.1773
30.9353
33.1767
35.8854
38.4558
41.1338
44.0421
46.617
49.2731
51.1686
52.1536
52.572
53.068
54.2987
57.0455
62.6928
76.2875
158.964
23.4943
16.7861
20.0274
26.9371
33.4984
36.7407
36.0524
34.4931
33.8397
33.9844
34.6912
35.9166
37.5549
39.6836
41.8575
43.9822
46.9317
49.9513
53.5379
58.7608
63.9422
66.9916
68.1181
68.2634
68.5749
69.991
73.4585
79.9502
98.1485
227.058
20.1376
19.3283
27.1031
41.0997
47.1833
47.2893
45.4138
43.3313
42.2498
42.8923
44.4117
45.9948
47.277
48.5286
50.0659
51.4983
53.075
56.2731
62.5999
71.1604
78.7164
82.5243
83.3767
82.8119
82.6917
83.9593
87.1092
93.4576
111.21
244.454
18.3363
29.4366
45.8973
57.7002
60.6559
58.6674
52.9165
49.3971
49.2978
51.5448
54.1152
55.3674
55.0599
53.8894
53.3826
53.7359
55.3816
60.0804
67.7992
76.5843
84.2813
88.3414
89.5157
90.1091
91.9956
95.7464
101.057
107.161
122.158
250.21
37.9732
60.8607
70.5288
69.9385
65.8148
59.6677
53.5287
51.6696
52.1992
53.2343
53.7608
53.4946
52.7901
52.5068
53.0328
54.15
56.502
62.3254
71.0404
79.3139
85.7891
88.6716
88.7984
89.7785
93.9056
101.864
111.475
120.807
138.088
276.031
94.2844
83.6044
76.7533
70.6393
63.5884
57.9247
54.6096
53.7424
53.1431
52.236
51.2036
50.2297
49.9214
50.579
52.0267
53.9727
57.7236
65.2077
74.4439
81.4326
86.6264
89.4655
89.0391
89.0211
92.8322
101.868
114.024
127.075
151.759
323.692
137.155
86.9194
76.4752
74.4659
66.3691
59.9111
57.7797
56.8237
54.699
52.0636
49.8144
48.3749
48.1622
49.0229
50.7466
53.3463
58.2983
67.2648
77.6306
83.9052
87.1841
89.851
90.3055
89.3402
91.3018
98.7944
111.088
126.304
157.879
355.924
160.753
86.1051
76.8588
78.6907
71.9653
64.6342
61.749
59.6364
56.109
52.3391
49.3128
47.4985
47.1643
47.9583
49.6998
52.6047
58.0898
67.7034
79.6209
86.8516
88.5073
89.4487
90.5938
90.1646
90.5514
95.2381
105.764
122.284
157.525
366.952
172.094
84.1186
75.8318
79.0904
75.163
68.4636
64.6917
61.3366
56.7856
52.3183
48.869
46.8838
46.4613
47.1665
48.8882
51.9202
57.4599
66.9243
79.6141
89.795
92.0057
90.6989
90.5966
90.9428
90.7873
93.1663
100.97
116.68
153.966
361.33
174.704
81.5322
72.8572
75.0314
74.3251
70.0255
65.9357
61.6744
56.5478
51.7637
48.1936
46.2321
45.8108
46.4857
48.2228
51.307
56.6835
65.6356
78.2785
90.9568
96.8833
94.7866
91.9609
91.8051
91.7389
92.6197
97.7777
111.274
147.122
345.56
170.46
78.1559
69.0013
68.9549
70.3716
69.2738
65.5531
60.8168
55.4868
50.7022
47.2647
45.4829
45.1503
45.8512
47.6237
50.7204
55.8999
64.3104
76.4297
90.2569
100.133
100.379
94.9789
92.8173
92.8179
92.935
95.9934
106.804
139.451
321.026
163.714
74.7768
65.6437
63.2376
64.9411
66.6763
64.0239
59.1279
53.8524
49.2941
46.1799
44.6926
44.5105
45.2655
47.0584
50.1141
55.0623
62.9245
74.3484
88.2437
100.388
104.464
98.9041
93.9537
93.3543
93.4315
95.0979
103.342
131.977
295.046
157.227
72.0056
63.1671
59.0778
59.8277
62.7204
61.6849
57.025
51.9197
47.7479
45.0908
43.9607
43.9561
44.7723
46.5466
49.4876
54.1409
61.3809
71.9026
85.1207
98.0402
105.003
102.009
95.145
93.1104
93.4271
94.5635
100.678
124.938
269.757
151.146
70.1335
61.569
56.3588
55.7858
57.8721
58.5095
54.7093
49.9509
46.2841
44.1512
43.3934
43.5576
44.4296
46.1361
48.8947
53.1793
59.7106
69.1266
81.1522
93.6772
102.534
102.754
96.2313
92.4687
92.6985
94.1267
98.9942
119.309
246.586
145.739
68.9333
59.9414
54.0338
52.5354
53.2997
54.3622
52.1442
48.1393
45.0752
43.4829
43.0759
43.3881
44.2835
45.8757
48.3989
52.2561
58.0196
66.2181
76.7441
88.1778
97.6607
101.083
96.809
91.8824
91.1863
93.4832
98.13
114.826
225.6
141.199
67.9482
57.0187
51.3429
49.7914
49.3278
49.8101
49.1979
46.5486
44.2237
43.1765
43.0694
43.4903
44.3628
45.8005
48.0405
51.4279
56.4003
63.3594
72.2703
82.2075
91.3374
96.9107
95.9678
91.3983
89.4641
91.9132
96.9261
110.947
204.027
136.435
65.5113
52.6767
47.9133
47.1336
46.1058
45.72
46.0773
45.1428
43.7723
43.2492
43.3874
43.8691
44.6611
45.9012
47.8202
50.7075
54.8916
60.652
67.9704
76.2395
84.2905
90.5505
92.8375
90.4439
87.6884
88.7862
94.2484
107.043
182.05
130.319
61.3497
47.9324
44.1464
44.0799
43.4592
42.5311
43.0868
43.8378
43.6775
43.6948
44.0207
44.4945
45.1514
46.1433
47.6968
50.0589
53.4707
58.1112
63.9583
70.6058
77.2817
83.0931
87.0037
87.6882
85.6887
85.0949
89.0235
101.745
157.94
123.332
55.8401
43.4398
40.565
40.7581
41.0666
40.1954
40.5853
42.4818
43.7713
44.4466
44.925
45.3078
45.7646
46.4626
47.6075
49.4209
52.0825
55.7035
60.2644
65.4875
70.8373
75.7462
79.7677
82.3182
82.7427
81.7938
82.5645
92.3551
132.705
110.445
49.5722
39.3973
37.2109
37.4142
38.4259
38.3497
38.7772
41.1532
43.8125
45.3991
46.0428
46.2563
46.4394
46.7945
47.4966
48.7443
50.6834
53.397
56.8783
60.9215
65.1381
69.1285
72.6546
75.5747
77.4977
77.4732
75.9725
79.7588
109.938
96.8703
43.881
35.6512
34.0529
34.3331
35.5779
36.6697
37.3861
39.9248
43.5685
46.3827
47.3365
47.3019
47.1299
47.0931
47.3249
48.0014
49.2582
51.1831
53.7764
56.8658
60.1532
63.3357
66.2462
68.8283
70.8569
71.3372
69.4011
68.778
93.9769
85.2464
39.0084
32.3648
31.2591
31.6581
32.9165
34.8781
36.1149
38.8253
42.9382
47.0634
48.7092
48.3915
47.7877
47.3126
47.0609
47.1789
47.8069
49.0599
50.9291
53.2522
55.7825
58.2765
60.5991
62.696
64.3372
64.6977
63.0757
61.4207
88.037
74.008
35.0819
29.5686
28.7438
29.2398
30.5845
32.838
34.7846
37.7042
42.0346
47.1862
49.9735
49.4383
48.3557
47.41
46.6699
46.2608
46.3409
47.026
48.3038
50.0104
51.9253
53.8399
55.6437
57.2927
58.5467
58.7385
57.6523
57.8028
91.3799
62.8168
31.7354
27.2068
26.4904
27.2018
28.726
30.9533
33.3655
36.4701
41.0008
46.7028
50.7693
50.2905
48.7555
47.3415
46.1301
45.2443
44.858
45.0798
45.8707
47.0792
48.4936
49.9285
51.2961
52.5791
53.5693
53.7545
53.4009
56.0221
99.0766
53.535
29.1804
25.5864
24.9748
25.7457
27.2983
29.499
32.0091
35.2087
39.7955
45.7634
50.8002
50.7071
48.8652
47.0545
45.4258
44.1359
43.3672
43.2116
43.608
44.4091
45.415
46.4586
47.4742
48.479
49.3135
49.607
49.991
54.659
104.867
50.1697
28.5754
24.8704
24.2332
24.8686
26.3148
28.4611
30.9709
34.1551
38.6052
44.5213
49.9719
50.4189
48.5343
46.4786
44.5459
42.9471
41.8801
41.4195
41.4973
41.9608
42.6326
43.3616
44.1038
44.9108
45.6669
46.1156
47.1179
53.2293
106.67
53.9812
29.2537
24.6437
23.894
24.4357
25.7479
27.7767
30.2637
33.4184
37.6637
43.2502
48.7114
49.4218
47.7189
45.613
43.5099
41.702
40.4114
39.7075
39.5206
39.7058
40.1023
40.5821
41.1201
41.7965
42.5265
43.1296
44.5791
51.5273
105.569
59.5001
28.49
24.3365
23.6088
24.1493
25.4571
27.4283
29.8734
32.9812
36.9645
42.1807
47.3605
48.0264
46.5866
44.5585
42.3856
40.4434
38.9843
38.0811
37.6705
37.6195
37.7884
38.0725
38.4614
39.0548
39.7884
40.5248
42.2713
49.6186
102.546
51.6221
26.3363
23.238
23.1254
23.8411
25.2734
27.2979
29.7609
32.8317
36.5204
41.3204
45.9535
46.5248
45.374
43.468
41.2652
39.225
37.6286
36.5536
35.9449
35.6878
35.6653
35.7943
36.0729
36.6087
37.3561
38.1988
40.1136
47.4782
97.4247
44.8759
23.9503
21.9074
22.3277
23.5061
25.1478
27.2785
29.8317
32.8757
36.3985
40.7945
44.5854
45.2308
44.3125
42.4819
40.2301
38.0945
36.3752
35.1472
34.3589
33.9152
33.728
33.7285
33.9172
34.3973
35.1488
36.0694
38.0507
45.1557
91.5072
35.7708
21.4937
20.6164
21.6174
23.126
25.0485
27.3515
30.0371
33.0369
36.621
40.8508
43.8398
44.4429
43.5803
41.6906
39.325
37.0786
35.2487
33.8897
32.9453
32.3372
32.0041
31.8949
31.9994
32.4031
33.1236
34.0937
36.0997
42.9122
85.6092
31.7469
20.4583
20.1125
21.3327
22.9233
24.9043
27.3284
30.1679
33.2832
37.1246
41.4447
43.8114
44.1879
43.169
41.0732
38.5297
36.1651
34.2526
32.8042
31.7452
31.0093
30.5557
30.3549
30.3798
30.6738
31.2918
32.2673
34.2724
40.7116
79.5083
32.259
21.1748
20.6541
21.6925
23.1483
24.9925
27.2889
30.0825
33.365
37.5082
41.9317
43.9608
44.1019
42.8397
40.4846
37.7548
35.2999
33.3598
31.8908
30.7842
29.9757
29.4381
29.1679
29.1314
29.2997
29.719
30.5823
32.5665
38.6244
73.18
37.0852
23.6486
22.2454
22.7517
23.8933
25.4973
27.5765
30.0707
33.3042
37.3896
41.7747
43.7411
43.7238
42.2685
39.7315
36.8866
34.4092
32.5172
31.1145
30.0469
29.2345
28.6592
28.3428
28.2621
28.3164
28.4852
29.0594
30.8554
36.5266
66.5758
46.7268
27.605
24.5043
24.3472
25.0897
26.3987
28.2487
30.371
33.246
36.8379
40.8213
42.7844
42.7492
41.249
38.687
35.852
33.4387
31.6643
30.4048
29.4626
28.7175
28.1477
27.8001
27.677
27.6446
27.5821
27.7564
29.0903
34.1101
60.097
57.2205
30.9755
26.9363
26.3018
26.6636
27.6396
29.107
30.8301
33.2321
36.6779
39.7903
41.4745
41.374
39.8796
37.3896
34.6644
32.3799
30.7596
29.6805
28.9222
28.3121
27.7939
27.4199
27.2155
27.0707
26.8315
26.6527
27.3675
31.4067
54.2385
63.321
33.9324
29.6246
28.6652
28.705
29.2599
30.2432
31.5822
33.9381
36.7775
39.2548
40.427
40.0258
38.4065
35.9748
33.3951
31.2647
29.7963
28.8854
28.3241
27.8997
27.491
27.1106
26.7784
26.4546
26.0618
25.6717
25.8856
28.7674
49.2803
72.6581
37.5167
32.7099
31.58
31.2866
31.3745
31.9495
32.7669
34.7634
37.2453
39.22
39.7327
38.8445
36.9729
34.5577
32.1228
30.1464
28.8028
28.0114
27.6132
27.3923
27.1513
26.8192
26.3679
25.8189
25.23
24.7036
24.6612
26.6719
46.9504
84.3205
42.1676
36.3045
35.2192
34.5202
34.0114
33.9976
34.2104
35.8467
38.035
39.3932
39.2588
37.8473
35.6754
33.2332
30.92
29.0803
27.8281
27.0954
26.794
26.7494
26.7121
26.5083
26.0205
25.2694
24.4542
23.7801
23.6278
25.5379
47.6702
100.244
48.5483
40.6182
38.7151
38.0577
36.9868
36.2538
35.9648
37.2309
38.9415
39.677
38.9698
37.0703
34.5939
32.0775
29.842
28.1071
26.9193
26.1944
25.9106
25.9731
26.1364
26.1417
25.7631
24.9145
23.8723
23.0168
22.8192
24.9822
49.815
107.994
51.7829
43.5587
41.4706
40.7917
39.7063
38.6657
38.0784
38.8684
39.98
40.1261
38.8943
36.5468
33.7784
31.1437
28.9248
27.2475
26.0996
25.3528
25.0216
25.0976
25.4132
25.6857
25.5744
24.8217
23.6001
22.5102
22.2629
24.8646
53.156
110.848
53.1403
45.186
43.5548
43.1266
42.1447
41.3233
40.5172
40.8392
41.3345
40.8592
39.0935
36.313
33.2548
30.4586
28.1854
26.5057
25.3657
24.5861
24.1758
24.1832
24.5603
25.089
25.3788
24.9219
23.6997
22.3814
21.9844
24.949
56.3442
113.628
54.9483
46.7524
45.1904
45.2119
44.8714
43.8915
43.2469
43.4225
43.3477
42.1184
39.7126
36.4093
33.0151
30.0164
27.6218
25.8763
24.6999
23.887
23.3883
23.289
23.6304
24.3168
25.0234
25.1275
24.1469
22.6289
22.0387
25.1796
59.2001
115.597
57.1157
48.8717
47.5514
48.0325
48.5783
47.7379
46.8518
46.7914
46.1302
43.9517
40.7524
36.8158
33.0185
29.7752
27.2139
25.3492
24.0888
23.2296
22.6529
22.4479
22.6893
23.3936
24.411
25.2068
24.9965
23.4324
22.4044
25.6225
61.7891
117.078
59.8606
52.2694
51.3114
52.238
53.2956
53.03
51.7041
51.1813
49.5339
46.1449
42.0367
37.4463
33.1859
29.6774
26.9284
24.9102
23.5277
22.5962
21.954
21.6631
21.7934
22.4342
23.5758
25.0123
25.9362
25.0549
23.3894
26.3305
64.3759
126.818
64.4129
57.2875
56.4948
57.7941
59.3033
59.612
58.0682
56.8642
53.7583
48.7375
43.4745
38.2019
33.4733
29.6805
26.7335
24.5462
23.0185
21.9857
21.2805
20.9239
20.9623
21.5268
22.6888
24.4866
26.5243
27.271
25.4506
27.5439
67.0583
145.352
72.0509
63.8373
63.0777
64.7754
66.8991
67.893
66.2056
64.2367
59.2751
52.0597
45.1749
39.0847
33.8612
29.7646
26.6169
24.2552
22.5705
21.4126
20.6324
20.2185
20.1922
20.6985
21.8518
23.7969
26.6107
29.3048
28.9535
29.6923
70.7087
161.576
80.9337
71.5973
71.2384
73.6226
76.5948
78.5344
76.8803
73.7248
66.2683
56.4558
47.3863
40.2017
34.4326
29.9781
26.6053
24.056
22.2038
20.9042
20.0263
19.5491
19.475
19.9409
21.094