/*--------------------------------*- C++ -*----------------------------------*\
| =========                 |                                                 |
| \\      /  F ield         | OpenFOAM: The Open Source CFD Toolbox           |
|  \\    /   O peration     | Version:  v1606+                                |
|   \\  /    A nd           | Web:      www.OpenFOAM.com                      |
|    \\/     M anipulation  |                                                 |
\*---------------------------------------------------------------------------*/
FoamFile
{
    version     2.0;
    format      ascii;
    class       volVectorField;
    location    "1.29";
    object      Ur;
}
// * * * * * * * * * * * * * * * * * * * * * * * * * * * * * * * * * * * * * //

dimensions      [0 1 -1 0 0 0 0];

internalField   nonuniform List<vector> 
6000
(
(0.0410173 -0.680738 0)
(0.0666387 -0.655758 0)
(0.0655105 -0.658045 0)
(0.0397288 -0.639121 0)
(0.000380055 -0.61833 0)
(-0.0280682 -0.602687 0)
(-0.0394492 -0.661366 0)
(-0.0452651 -0.654786 0)
(-0.0555393 -0.64768 0)
(-0.0573831 -0.616078 0)
(-0.0548751 -0.57934 0)
(-0.0447829 -0.583488 0)
(-0.0268507 -0.594646 0)
(-0.0123676 -0.604917 0)
(-0.00655715 -0.608528 0)
(-0.00349234 -0.60883 0)
(0.00205331 -0.606588 0)
(0.00736209 -0.60804 0)
(0.0121346 -0.619747 0)
(0.0171812 -0.643356 0)
(0.0288145 -0.663123 0)
(0.0418679 -0.633195 0)
(0.0422076 -0.62803 0)
(0.0110403 -0.631587 0)
(-0.0298793 -0.64585 0)
(-0.0547381 -0.646987 0)
(-0.0741474 -0.645558 0)
(-0.0787534 -0.641451 0)
(-0.0837851 -0.630411 0)
(-0.0549745 -0.661342 0)
(0.0374419 -1.14394 0)
(0.0768895 -1.03573 0)
(0.101554 -1.0211 0)
(0.123887 -0.959678 0)
(0.106041 -0.898823 0)
(0.0574748 -0.857515 0)
(-4.93258e-05 -0.8793 0)
(-0.0470218 -0.870737 0)
(-0.0775108 -0.874432 0)
(-0.0957455 -0.87264 0)
(-0.0989619 -0.876459 0)
(-0.0898222 -0.893599 0)
(-0.0713643 -0.907743 0)
(-0.0478424 -0.914806 0)
(-0.0245099 -0.915432 0)
(-0.00275173 -0.916443 0)
(0.0165352 -0.912682 0)
(0.0315161 -0.902423 0)
(0.0367599 -0.893084 0)
(0.0257486 -0.896672 0)
(-0.000557529 -0.912061 0)
(-0.0234154 -0.910628 0)
(-0.0377886 -0.921282 0)
(-0.0509179 -0.942438 0)
(-0.0541786 -1.00433 0)
(-0.0515758 -1.01338 0)
(-0.0520582 -1.01838 0)
(-0.049524 -1.02435 0)
(-0.051646 -1.01263 0)
(-0.0296915 -1.13683 0)
(0.00937784 -1.10013 0)
(0.0390186 -0.979239 0)
(0.0993778 -0.966406 0)
(0.164163 -0.893202 0)
(0.170476 -0.774161 0)
(0.0901486 -0.661709 0)
(0.00398967 -0.685841 0)
(-0.0409533 -0.692924 0)
(-0.0720425 -0.715597 0)
(-0.0897102 -0.743425 0)
(-0.0941367 -0.780096 0)
(-0.083976 -0.819199 0)
(-0.0644684 -0.842636 0)
(-0.0447992 -0.851595 0)
(-0.0251984 -0.860491 0)
(-0.00320384 -0.864378 0)
(0.0181235 -0.855894 0)
(0.0349789 -0.830717 0)
(0.0383838 -0.797924 0)
(0.0231402 -0.772732 0)
(-0.00428692 -0.764385 0)
(-0.0473887 -0.764793 0)
(-0.109778 -0.810272 0)
(-0.114855 -0.902259 0)
(-0.0473542 -0.979432 0)
(0.01017 -0.956071 0)
(0.0268568 -0.931444 0)
(0.027451 -0.929848 0)
(0.0380143 -0.934424 0)
(0.0247662 -1.03175 0)
(-0.024422 -1.02258 0)
(-0.0373822 -1.01247 0)
(-0.00742589 -1.05273 0)
(0.0577681 -1.00914 0)
(0.127267 -0.870357 0)
(0.0932811 -0.688263 0)
(0.000652631 -0.714044 0)
(-0.0642238 -0.738862 0)
(-0.108956 -0.77877 0)
(-0.14173 -0.844047 0)
(-0.159244 -0.929285 0)
(-0.145867 -1.02305 0)
(-0.102978 -1.07312 0)
(-0.064716 -1.09259 0)
(-0.032417 -1.1063 0)
(0.0058397 -1.1077 0)
(0.0495052 -1.08708 0)
(0.0834283 -1.03626 0)
(0.090338 -0.966562 0)
(0.0637765 -0.90252 0)
(0.00561682 -0.871513 0)
(-0.0865505 -0.875508 0)
(-0.13551 -0.955941 0)
(-0.0216068 -1.12549 0)
(0.172109 -1.15179 0)
(0.254446 -1.02463 0)
(0.228851 -0.917632 0)
(0.16893 -0.885444 0)
(0.124359 -0.878143 0)
(0.0549709 -0.884 0)
(-0.0252316 -0.909993 0)
(-0.0628042 -0.918816 0)
(-0.0866606 -0.963487 0)
(-0.0881064 -1.00594 0)
(-0.0478905 -0.911623 0)
(-0.0155855 -0.700702 0)
(-0.043762 -0.737287 0)
(-0.107094 -0.777271 0)
(-0.180606 -0.840317 0)
(-0.247211 -0.944409 0)
(-0.24904 -1.03992 0)
(-0.191551 -1.14002 0)
(-0.120197 -1.17955 0)
(-0.0677416 -1.18262 0)
(-0.0259505 -1.19545 0)
(0.0210346 -1.20116 0)
(0.0715267 -1.17926 0)
(0.113159 -1.11479 0)
(0.135871 -1.02646 0)
(0.114514 -0.941537 0)
(0.0294065 -0.894416 0)
(-0.044982 -0.902986 0)
(0.0309313 -1.10467 0)
(0.297664 -1.35745 0)
(0.495038 -1.23365 0)
(0.465658 -0.943999 0)
(0.356828 -0.785254 0)
(0.245758 -0.736098 0)
(0.150452 -0.73853 0)
(0.0553665 -0.7222 0)
(-0.0357379 -0.794729 0)
(-0.104069 -0.814804 0)
(-0.168075 -0.866455 0)
(-0.239542 -0.928948 0)
(-0.289801 -0.925452 0)
(-0.217944 -0.836289 0)
(-0.136603 -0.838385 0)
(-0.175745 -0.868491 0)
(-0.246764 -0.916113 0)
(-0.248647 -1.00261 0)
(-0.190392 -1.1347 0)
(-0.125679 -1.25008 0)
(-0.0612904 -1.29176 0)
(-0.00803836 -1.29341 0)
(0.0188786 -1.31192 0)
(0.0459161 -1.32198 0)
(0.0714762 -1.30057 0)
(0.0976106 -1.22933 0)
(0.120001 -1.10812 0)
(0.136987 -0.960236 0)
(0.141334 -0.892291 0)
(0.185871 -1.01579 0)
(0.354979 -1.34283 0)
(0.584259 -1.5101 0)
(0.623639 -1.16332 0)
(0.483883 -0.773268 0)
(0.339509 -0.617937 0)
(0.222173 -0.577111 0)
(0.129863 -0.596493 0)
(0.045274 -0.56895 0)
(-0.0408364 -0.65251 0)
(-0.120913 -0.676349 0)
(-0.219013 -0.711564 0)
(-0.354327 -0.778659 0)
(-0.490919 -0.884595 0)
(-0.482976 -0.999679 0)
(-0.310679 -0.965406 0)
(-0.199112 -0.903318 0)
(-0.150509 -0.951719 0)
(-0.0624079 -1.12163 0)
(0.0313893 -1.19252 0)
(0.0539982 -1.19652 0)
(0.0527403 -1.2155 0)
(0.0572283 -1.12354 0)
(0.0556827 -1.11981 0)
(0.053325 -1.12504 0)
(0.0575758 -1.12314 0)
(0.0741399 -1.11062 0)
(0.11087 -1.06462 0)
(0.192614 -1.05548 0)
(0.308545 -1.02004 0)
(0.438778 -1.16829 0)
(0.49334 -1.42576 0)
(0.563013 -1.49418 0)
(0.501131 -0.996013 0)
(0.357987 -0.57554 0)
(0.241015 -0.469229 0)
(0.153124 -0.458415 0)
(0.0894718 -0.494288 0)
(0.0311177 -0.462522 0)
(-0.0352526 -0.537123 0)
(-0.106812 -0.556959 0)
(-0.20322 -0.56068 0)
(-0.352758 -0.602688 0)
(-0.527316 -0.753043 0)
(-0.600612 -1.06828 0)
(-0.440756 -1.20529 0)
(-0.187447 -1.12817 0)
(0.021687 -1.10567 0)
(0.148454 -1.11998 0)
(0.168618 -1.06425 0)
(0.123316 -1.02632 0)
(0.0573525 -1.05992 0)
(0.034593 -0.991914 0)
(0.0437621 -1.00204 0)
(0.0500949 -1.02284 0)
(0.0725594 -1.02757 0)
(0.107108 -1.02088 0)
(0.160947 -0.99159 0)
(0.219054 -0.964359 0)
(0.318247 -1.04976 0)
(0.380389 -1.14278 0)
(0.349843 -1.3397 0)
(0.344775 -1.43177 0)
(0.293069 -0.863127 0)
(0.229186 -0.422467 0)
(0.156759 -0.367717 0)
(0.103065 -0.385197 0)
(0.0605075 -0.420014 0)
(0.0195133 -0.391996 0)
(-0.0277894 -0.452018 0)
(-0.087179 -0.464075 0)
(-0.164993 -0.441658 0)
(-0.280756 -0.438542 0)
(-0.408586 -0.579943 0)
(-0.456047 -1.07523 0)
(-0.25534 -1.29268 0)
(-0.0529704 -1.19153 0)
(0.0877436 -1.08082 0)
(0.166347 -0.998281 0)
(0.189324 -0.965634 0)
(0.130551 -0.902665 0)
(0.0480552 -0.929698 0)
(-0.00379738 -0.973141 0)
(-0.00137719 -0.932597 0)
(0.025709 -0.970707 0)
(0.0631574 -0.994485 0)
(0.115389 -1.00899 0)
(0.182609 -0.996427 0)
(0.24615 -0.978376 0)
(0.303029 -1.05464 0)
(0.240712 -1.08125 0)
(0.157261 -1.24549 0)
(0.110434 -1.33954 0)
(0.121725 -0.829923 0)
(0.130186 -0.333596 0)
(0.0966444 -0.297238 0)
(0.0631201 -0.332103 0)
(0.0362716 -0.357084 0)
(0.0106352 -0.337864 0)
(-0.0201848 -0.380295 0)
(-0.064882 -0.384587 0)
(-0.118985 -0.352566 0)
(-0.189625 -0.314774 0)
(-0.241065 -0.462706 0)
(-0.240124 -1.11488 0)
(-0.0687245 -1.31025 0)
(0.0214355 -1.25066 0)
(0.105855 -1.136 0)
(0.206143 -1.06762 0)
(0.199292 -0.877151 0)
(0.131977 -0.781687 0)
(0.0624182 -0.79297 0)
(-0.00271362 -0.855556 0)
(-0.0278132 -0.915076 0)
(-0.0157036 -0.978923 0)
(0.0227181 -0.957559 0)
(0.106951 -0.989008 0)
(0.197773 -0.975151 0)
(0.274156 -0.958893 0)
(0.281886 -0.970584 0)
(0.129396 -0.934066 0)
(-0.00991611 -1.12481 0)
(-0.0686026 -1.24316 0)
(-0.0115179 -0.866658 0)
(0.0443255 -0.316374 0)
(0.0405009 -0.245832 0)
(0.0224524 -0.294864 0)
(0.0125678 -0.310958 0)
(0.0029966 -0.301291 0)
(-0.0113831 -0.321736 0)
(-0.0373776 -0.31984 0)
(-0.0681703 -0.288917 0)
(-0.111031 -0.234548 0)
(-0.117681 -0.446588 0)
(-0.0647294 -1.09998 0)
(0.0329871 -1.3149 0)
(0.101766 -1.27188 0)
(0.161182 -1.14127 0)
(0.196343 -1.01172 0)
(0.150353 -0.776396 0)
(0.0984215 -0.683635 0)
(0.0589093 -0.698668 0)
(0.022738 -0.75433 0)
(-0.00588626 -0.82693 0)
(-0.0159443 -0.906185 0)
(0.0156006 -0.990259 0)
(0.10779 -1.05591 0)
(0.20383 -0.967321 0)
(0.298901 -0.937197 0)
(0.250014 -0.808673 0)
(0.0740508 -0.703629 0)
(-0.111561 -0.925709 0)
(-0.20257 -1.13715 0)
(-0.142348 -0.891462 0)
(-0.0549835 -0.37656 0)
(-0.0243784 -0.221353 0)
(-0.0228066 -0.271491 0)
(-0.0129984 -0.286263 0)
(-0.00465285 -0.282973 0)
(-0.00156399 -0.278753 0)
(-0.00607654 -0.273285 0)
(-0.0123306 -0.245065 0)
(-0.0379714 -0.183054 0)
(-0.0428524 -0.491413 0)
(0.0227058 -1.12194 0)
(0.114711 -1.29057 0)
(0.16812 -1.23349 0)
(0.19499 -1.08111 0)
(0.164921 -0.892958 0)
(0.0822074 -0.657099 0)
(0.039033 -0.593759 0)
(0.0246968 -0.63146 0)
(0.0198602 -0.686255 0)
(0.014919 -0.77314 0)
(0.0261961 -0.859093 0)
(0.0673849 -0.971557 0)
(0.137843 -1.05401 0)
(0.227519 -1.01661 0)
(0.240401 -0.848673 0)
(0.121046 -0.616061 0)
(0.013859 -0.547269 0)
(-0.103388 -0.757293 0)
(-0.246727 -1.02089 0)
(-0.256421 -0.914508 0)
(-0.15463 -0.493196 0)
(-0.0877258 -0.241965 0)
(-0.0669806 -0.267772 0)
(-0.0377331 -0.283922 0)
(-0.0118494 -0.282431 0)
(0.00775045 -0.253087 0)
(0.0242485 -0.247435 0)
(0.0432877 -0.221257 0)
(0.0324454 -0.163849 0)
(0.0216696 -0.525155 0)
(0.0748554 -1.11736 0)
(0.186107 -1.25904 0)
(0.238286 -1.15496 0)
(0.216198 -0.980333 0)
(0.0670963 -0.692639 0)
(-0.0226129 -0.541793 0)
(-0.0347694 -0.533301 0)
(-0.0214128 -0.588544 0)
(-0.00102732 -0.64598 0)
(0.0212405 -0.742821 0)
(0.0579962 -0.848409 0)
(0.118285 -0.979872 0)
(0.18172 -1.03912 0)
(0.18369 -0.920777 0)
(0.0785966 -0.68846 0)
(-0.00579133 -0.496151 0)
(-0.0227998 -0.472426 0)
(-0.0578101 -0.633805 0)
(-0.187965 -0.881682 0)
(-0.279307 -0.89264 0)
(-0.222942 -0.606688 0)
(-0.143088 -0.319353 0)
(-0.0989425 -0.290476 0)
(-0.0558732 -0.299222 0)
(-0.017479 -0.297319 0)
(0.0146427 -0.246898 0)
(0.0485024 -0.244592 0)
(0.0890009 -0.220894 0)
(0.0915672 -0.186026 0)
(0.089703 -0.578667 0)
(0.139407 -1.12377 0)
(0.256904 -1.24114 0)
(0.258456 -1.08653 0)
(0.075511 -0.767738 0)
(-0.0539032 -0.557234 0)
(-0.0793622 -0.491877 0)
(-0.0607931 -0.502426 0)
(-0.0379198 -0.558133 0)
(-0.0111433 -0.622155 0)
(0.0214144 -0.726339 0)
(0.0762381 -0.862896 0)
(0.144207 -0.978094 0)
(0.160926 -0.970449 0)
(0.0729799 -0.781521 0)
(-0.0280477 -0.57181 0)
(-0.0562724 -0.446443 0)
(-0.033267 -0.434762 0)
(-0.0327215 -0.536462 0)
(-0.118854 -0.71889 0)
(-0.236952 -0.817597 0)
(-0.257873 -0.67603 0)
(-0.190568 -0.446787 0)
(-0.115098 -0.339008 0)
(-0.0654151 -0.325005 0)
(-0.0212447 -0.324027 0)
(0.018296 -0.262685 0)
(0.0645503 -0.268334 0)
(0.121678 -0.24526 0)
(0.145802 -0.249298 0)
(0.18554 -0.678376 0)
(0.244585 -1.17227 0)
(0.258529 -1.21103 0)
(0.0951834 -0.877305 0)
(-0.0614908 -0.607255 0)
(-0.106838 -0.493297 0)
(-0.091281 -0.468223 0)
(-0.0593106 -0.484446 0)
(-0.0306439 -0.534751 0)
(-0.000952767 -0.605533 0)
(0.03484 -0.721525 0)
(0.0884509 -0.872742 0)
(0.12949 -0.94429 0)
(0.0843676 -0.850499 0)
(-0.0186045 -0.647319 0)
(-0.0840054 -0.497574 0)
(-0.0815498 -0.435348 0)
(-0.0424823 -0.436662 0)
(-0.0212964 -0.488572 0)
(-0.0693131 -0.59026 0)
(-0.175382 -0.701572 0)
(-0.250392 -0.68006 0)
(-0.216656 -0.581484 0)
(-0.123055 -0.425636 0)
(-0.0683473 -0.358778 0)
(-0.0230876 -0.360017 0)
(0.0176897 -0.302393 0)
(0.0770035 -0.322307 0)
(0.14682 -0.295574 0)
(0.193371 -0.375829 0)
(0.26973 -0.790353 0)
(0.29503 -1.10014 0)
(0.140481 -0.997102 0)
(-0.0401883 -0.698325 0)
(-0.112809 -0.530792 0)
(-0.108375 -0.468501 0)
(-0.076366 -0.458137 0)
(-0.0407566 -0.471451 0)
(-0.0108691 -0.513116 0)
(0.0164008 -0.586852 0)
(0.0501897 -0.711456 0)
(0.0867002 -0.858317 0)
(0.0808853 -0.867947 0)
(-0.00222109 -0.72065 0)
(-0.0896812 -0.558747 0)
(-0.118918 -0.480527 0)
(-0.0974703 -0.459629 0)
(-0.0567177 -0.466567 0)
(-0.0251471 -0.49117 0)
(-0.0319923 -0.532725 0)
(-0.100915 -0.590438 0)
(-0.192227 -0.622203 0)
(-0.208963 -0.635289 0)
(-0.1457 -0.535388 0)
(-0.0753423 -0.407489 0)
(-0.0247437 -0.42291 0)
(0.0239998 -0.375473 0)
(0.0921416 -0.468675 0)
(0.158254 -0.417233 0)
(0.252203 -0.583049 0)
(0.325939 -0.842498 0)
(0.246038 -0.960427 0)
(0.0442974 -0.795975 0)
(-0.0931404 -0.609538 0)
(-0.116726 -0.519261 0)
(-0.0881353 -0.481407 0)
(-0.0497406 -0.468374 0)
(-0.0147915 -0.472414 0)
(0.0138805 -0.502385 0)
(0.0364338 -0.571129 0)
(0.0574693 -0.693989 0)
(0.062262 -0.816177 0)
(0.00953678 -0.768866 0)
(-0.0828158 -0.629603 0)
(-0.139215 -0.536551 0)
(-0.136342 -0.506082 0)
(-0.103641 -0.499999 0)
(-0.0674193 -0.505312 0)
(-0.0374147 -0.516068 0)
(-0.020867 -0.527563 0)
(-0.0374418 -0.533796 0)
(-0.0935091 -0.538057 0)
(-0.155088 -0.5969 0)
(-0.156765 -0.569885 0)
(-0.0977648 -0.525643 0)
(-0.0299661 -0.541306 0)
(0.0363752 -0.509171 0)
(0.128491 -0.695377 0)
(0.214462 -0.616414 0)
(0.320566 -0.754843 0)
(0.302203 -0.778707 0)
(0.133436 -0.780372 0)
(-0.0330566 -0.674544 0)
(-0.106548 -0.593674 0)
(-0.0977961 -0.547263 0)
(-0.0607212 -0.51753 0)
(-0.0219204 -0.496157 0)
(0.0101213 -0.488756 0)
(0.0336563 -0.504835 0)
(0.0472899 -0.562801 0)
(0.0510786 -0.677048 0)
(0.0217166 -0.756301 0)
(-0.0602627 -0.686372 0)
(-0.13736 -0.59312 0)
(-0.157393 -0.552759 0)
(-0.13631 -0.541005 0)
(-0.105243 -0.538684 0)
(-0.07346 -0.542819 0)
(-0.0431957 -0.547249 0)
(-0.0158921 -0.546292 0)
(0.00258106 -0.527216 0)
(-0.000890178 -0.496892 0)
(-0.0541289 -0.511105 0)
(-0.129023 -0.518252 0)
(-0.101645 -0.677756 0)
(-0.0151378 -0.636666 0)
(0.0260265 -0.649344 0)
(0.0931754 -0.75018 0)
(0.183699 -0.772934 0)
(0.22637 -0.757302 0)
(0.144853 -0.649285 0)
(0.00705716 -0.652887 0)
(-0.0769499 -0.631347 0)
(-0.0909033 -0.608725 0)
(-0.0699953 -0.584232 0)
(-0.0370884 -0.560826 0)
(-8.54699e-05 -0.533649 0)
(0.0292527 -0.513531 0)
(0.0449437 -0.514387 0)
(0.0463664 -0.555876 0)
(0.0305335 -0.650123 0)
(-0.023153 -0.689083 0)
(-0.104193 -0.632427 0)
(-0.153311 -0.585361 0)
(-0.154081 -0.573732 0)
(-0.133148 -0.569949 0)
(-0.108208 -0.570555 0)
(-0.0806516 -0.577032 0)
(-0.0470499 -0.583642 0)
(-0.00772066 -0.582526 0)
(0.0319825 -0.555959 0)
(0.0568481 -0.514479 0)
(0.0462481 -0.478246 0)
(0.00740103 -0.452921 0)
(0.000352489 -0.635003 0)
(0.00743393 -0.605738 0)
(0.00267149 -0.654861 0)
(0.0279977 -0.719901 0)
(0.0628359 -0.784762 0)
(0.023847 -0.683988 0)
(-0.0400374 -0.588397 0)
(-0.0695304 -0.615368 0)
(-0.0841216 -0.622904 0)
(-0.0764966 -0.625345 0)
(-0.0522843 -0.618093 0)
(-0.0200916 -0.604142 0)
(0.0181032 -0.576316 0)
(0.0467139 -0.538749 0)
(0.0548668 -0.519152 0)
(0.0418616 -0.534376 0)
(0.0046063 -0.598382 0)
(-0.0580674 -0.61877 0)
(-0.120586 -0.590633 0)
(-0.153804 -0.577744 0)
(-0.153201 -0.58638 0)
(-0.133586 -0.59231 0)
(-0.11441 -0.594877 0)
(-0.0953361 -0.601059 0)
(-0.0581622 -0.619387 0)
(-0.00123325 -0.625714 0)
(0.0603652 -0.604841 0)
(0.10325 -0.563603 0)
(0.125105 -0.509004 0)
(0.129998 -0.445961 0)
(0.0651545 -0.529667 0)
(-1.41027e-05 -0.550011 0)
(-0.00598433 -0.651515 0)
(-0.0129597 -0.718713 0)
(-0.0311713 -0.775994 0)
(-0.0808746 -0.684878 0)
(-0.102047 -0.614846 0)
(-0.0876591 -0.614968 0)
(-0.0873419 -0.6232 0)
(-0.0787245 -0.642035 0)
(-0.0485951 -0.651495 0)
(-0.00792384 -0.645634 0)
(0.0399698 -0.623038 0)
(0.0774929 -0.56849 0)
(0.0791773 -0.5139 0)
(0.045061 -0.490134 0)
(-0.0134053 -0.520696 0)
(-0.079833 -0.540685 0)
(-0.133623 -0.545057 0)
(-0.166213 -0.560075 0)
(-0.167546 -0.587681 0)
(-0.140049 -0.609425 0)
(-0.112207 -0.632482 0)
(-0.0955803 -0.643499 0)
(-0.0622099 -0.711446 0)
(-0.00149614 -0.727885 0)
(0.0568103 -0.711746 0)
(0.125607 -0.647727 0)
(0.18923 -0.535268 0)
(0.188989 -0.464815 0)
(0.114967 -0.466491 0)
(0.0303824 -0.472159 0)
(-0.0476873 -0.739594 0)
(-0.0574295 -0.893394 0)
(-0.0391594 -0.855284 0)
(-0.0628232 -0.709252 0)
(-0.0695251 -0.623123 0)
(-0.0802841 -0.61267 0)
(-0.0915753 -0.646766 0)
(-0.0865595 -0.705472 0)
(-0.0521148 -0.72843 0)
(-0.00104758 -0.721938 0)
(0.0581078 -0.707259 0)
(0.125376 -0.641019 0)
(0.139652 -0.490346 0)
(0.0700399 -0.424563 0)
(-0.0220576 -0.42741 0)
(-0.101179 -0.452222 0)
(-0.164215 -0.486963 0)
(-0.185795 -0.5596 0)
(-0.169025 -0.642291 0)
(-0.134799 -0.687429 0)
(-0.113406 -0.761032 0)
(-0.106011 -0.809817 0)
(-0.0727558 -1.0353 0)
(0.01399 -1.08874 0)
(0.1083 -1.01614 0)
(0.197776 -0.826875 0)
(0.221199 -0.608455 0)
(0.21266 -0.441523 0)
(0.151314 -0.385965 0)
(0.0476722 -0.379732 0)
(-0.0893182 -0.791082 0)
(-0.179567 -1.11922 0)
(-0.117877 -1.05259 0)
(-0.0693684 -0.79876 0)
(-0.084685 -0.697988 0)
(-0.123148 -0.696581 0)
(-0.167761 -0.774678 0)
(-0.182307 -0.918387 0)
(-0.127976 -0.980341 0)
(-0.02486 -0.968023 0)
(0.0892492 -0.941714 0)
(0.199443 -0.811219 0)
(0.209866 -0.508383 0)
(0.108645 -0.340064 0)
(-0.0255076 -0.331093 0)
(-0.131394 -0.357437 0)
(-0.200089 -0.487288 0)
(-0.242152 -0.654243 0)
(-0.26527 -0.936682 0)
(-0.232022 -1.19088 0)
(-0.150536 -1.32207 0)
(-0.0525029 -1.38498 0)
(0.0435953 -1.5178 0)
(0.133051 -1.52259 0)
(0.23486 -1.46286 0)
(0.376249 -1.35492 0)
(0.499726 -1.05314 0)
(0.326985 -0.455304 0)
(0.169642 -0.291423 0)
(0.0488808 -0.277436 0)
(-0.113995 -0.684275 0)
(-0.321485 -1.1395 0)
(-0.400615 -1.38386 0)
(-0.378127 -1.26935 0)
(-0.398271 -1.17893 0)
(-0.453514 -1.20661 0)
(-0.481967 -1.26195 0)
(-0.465583 -1.41993 0)
(-0.337649 -1.49739 0)
(-0.137668 -1.50977 0)
(0.0831224 -1.49526 0)
(0.311994 -1.34937 0)
(0.326572 -0.750984 0)
(0.141936 -0.301357 0)
(-0.0275394 -0.228526 0)
(-0.171475 -0.336643 0)
(-0.320845 -0.695361 0)
(-0.362306 -1.18551 0)
(-0.233241 -1.38219 0)
(-0.115658 -1.42304 0)
(-0.0172062 -1.40082 0)
(0.0892206 -1.37238 0)
(0.168565 -1.38242 0)
(0.214483 -1.37431 0)
(0.275637 -1.34308 0)
(0.356532 -1.28838 0)
(0.510169 -1.11673 0)
(0.402964 -0.660583 0)
(0.153221 -0.190296 0)
(0.0357507 -0.174135 0)
(-0.0647298 -0.40396 0)
(-0.239212 -0.820292 0)
(-0.398264 -1.07128 0)
(-0.490997 -1.13601 0)
(-0.518983 -1.10713 0)
(-0.547976 -1.10023 0)
(-0.568907 -1.16084 0)
(-0.550267 -1.32496 0)
(-0.447541 -1.4877 0)
(-0.253513 -1.55155 0)
(-0.043216 -1.5435 0)
(0.140085 -1.41742 0)
(0.236696 -1.04091 0)
(0.113329 -0.508159 0)
(-0.0778433 -0.208601 0)
(-0.296431 -0.603024 0)
(-0.358752 -1.06749 0)
(-0.215203 -1.22842 0)
(-0.117176 -1.29477 0)
(-0.0468703 -1.32656 0)
(0.0205529 -1.33688 0)
(0.0980844 -1.34308 0)
(0.16839 -1.35983 0)
(0.227222 -1.35321 0)
(0.282987 -1.32362 0)
(0.302132 -1.23432 0)
(0.331583 -0.996825 0)
(0.276804 -0.56994 0)
(0.0890539 -0.111651 0)
(0.00931161 -0.0907725 0)
(-0.0241786 -0.292608 0)
(-0.129371 -0.612949 0)
(-0.251357 -0.868187 0)
(-0.335312 -0.961272 0)
(-0.388556 -0.963332 0)
(-0.412775 -0.969797 0)
(-0.444118 -1.04458 0)
(-0.471745 -1.26315 0)
(-0.425588 -1.52721 0)
(-0.276392 -1.65078 0)
(-0.113034 -1.62391 0)
(-0.0297438 -1.4051 0)
(-0.0482779 -0.959978 0)
(-0.0994503 -0.694207 0)
(-0.18692 -0.485936 0)
(-0.288925 -0.754302 0)
(-0.190807 -1.00771 0)
(-0.115206 -1.18987 0)
(-0.0732085 -1.29335 0)
(-0.0298183 -1.34835 0)
(0.030872 -1.36995 0)
(0.102242 -1.37644 0)
(0.170869 -1.37902 0)
(0.223238 -1.36539 0)
(0.250214 -1.304 0)
(0.238417 -1.17186 0)
(0.231949 -0.9271 0)
(0.218183 -0.514733 0)
(0.0602251 -0.0851594 0)
(-0.00413907 -0.0435793 0)
(-0.00577518 -0.241348 0)
(-0.0584263 -0.468645 0)
(-0.161756 -0.788266 0)
(-0.212872 -0.855906 0)
(-0.251724 -0.896594 0)
(-0.260999 -0.917936 0)
(-0.275544 -0.991772 0)
(-0.332198 -1.22109 0)
(-0.349082 -1.56686 0)
(-0.246644 -1.75955 0)
(-0.126672 -1.71077 0)
(-0.0965072 -1.39978 0)
(-0.15916 -0.884027 0)
(-0.228369 -0.618149 0)
(-0.233965 -0.569889 0)
(-0.196584 -0.723891 0)
(-0.127783 -1.01076 0)
(-0.0767721 -1.18729 0)
(-0.0400527 -1.29238 0)
(-0.00651759 -1.34954 0)
(0.0412887 -1.38202 0)
(0.100494 -1.39138 0)
(0.157152 -1.38184 0)
(0.196438 -1.34132 0)
(0.207398 -1.2487 0)
(0.191977 -1.09864 0)
(0.179017 -0.8652 0)
(0.207889 -0.495436 0)
(0.0682616 -0.0811375 0)
(-0.001407 -0.0116374 0)
(-0.00136883 -0.214872 0)
(-0.0209844 -0.373418 0)
(-0.0917558 -0.659887 0)
(-0.135105 -0.770724 0)
(-0.146194 -0.841496 0)
(-0.152473 -0.87932 0)
(-0.16262 -0.935095 0)
(-0.206793 -1.14882 0)
(-0.247822 -1.54983 0)
(-0.192267 -1.80152 0)
(-0.112041 -1.74452 0)
(-0.112381 -1.35419 0)
(-0.167454 -0.816048 0)
(-0.209117 -0.578566 0)
(-0.212431 -0.557847 0)
(-0.165503 -0.75673 0)
(-0.0916643 -1.01883 0)
(-0.0465849 -1.18176 0)
(-0.0136317 -1.27416 0)
(0.0124651 -1.33806 0)
(0.0477535 -1.38086 0)
(0.0895344 -1.39358 0)
(0.128642 -1.37353 0)
(0.150173 -1.31072 0)
(0.150641 -1.19623 0)
(0.150436 -1.04195 0)
(0.15695 -0.810419 0)
(0.220594 -0.511992 0)
(0.109907 -0.0985425 0)
(0.0248315 -0.00338857 0)
(0.00378056 -0.207006 0)
(0.000934215 -0.314429 0)
(-0.0411983 -0.551005 0)
(-0.0909207 -0.73912 0)
(-0.0888874 -0.778776 0)
(-0.0810687 -0.836385 0)
(-0.0808853 -0.882035 0)
(-0.114429 -1.07889 0)
(-0.153508 -1.51796 0)
(-0.130279 -1.81497 0)
(-0.0967333 -1.752 0)
(-0.126323 -1.31178 0)
(-0.168811 -0.781929 0)
(-0.196731 -0.566545 0)
(-0.190411 -0.586182 0)
(-0.126379 -0.795998 0)
(-0.0605081 -1.02879 0)
(-0.0232944 -1.17415 0)
(0.00783868 -1.25876 0)
(0.0294148 -1.31712 0)
(0.0530388 -1.36143 0)
(0.0778639 -1.37387 0)
(0.0991031 -1.34307 0)
(0.109741 -1.26435 0)
(0.114561 -1.14497 0)
(0.125124 -0.992597 0)
(0.13839 -0.775648 0)
(0.19423 -0.515918 0)
(0.131545 -0.136135 0)
(0.0485241 -0.0351425 0)
(0.00576858 -0.209128 0)
(0.0161102 -0.287183 0)
(0.0051072 -0.462501 0)
(-0.042816 -0.637811 0)
(-0.073496 -0.76835 0)
(-0.0472112 -0.798136 0)
(-0.0244716 -0.845486 0)
(-0.0371566 -1.02663 0)
(-0.0752281 -1.46233 0)
(-0.0898337 -1.78042 0)
(-0.0945058 -1.71706 0)
(-0.138834 -1.25131 0)
(-0.15804 -0.756043 0)
(-0.156914 -0.56342 0)
(-0.144507 -0.609496 0)
(-0.0957714 -0.813888 0)
(-0.0476688 -1.0242 0)
(-0.0146174 -1.15773 0)
(0.012523 -1.2351 0)
(0.0301245 -1.29175 0)
(0.046919 -1.33282 0)
(0.0613138 -1.34204 0)
(0.0716017 -1.30343 0)
(0.0766485 -1.21811 0)
(0.0813375 -1.09891 0)
(0.0920564 -0.950701 0)
(0.110034 -0.738303 0)
(0.118674 -0.469796 0)
(0.0884221 -0.150906 0)
(0.0401154 -0.0821609 0)
(0.0100308 -0.220708 0)
(0.0295636 -0.278431 0)
(0.0342491 -0.402403 0)
(0.00413635 -0.541428 0)
(-0.0408757 -0.6822 0)
(-0.0341505 -0.821278 0)
(0.00966354 -0.833643 0)
(0.0250566 -1.01189 0)
(-0.000731771 -1.41436 0)
(-0.045246 -1.72135 0)
(-0.086056 -1.65942 0)
(-0.136383 -1.19674 0)
(-0.153585 -0.793203 0)
(-0.13452 -0.558351 0)
(-0.12189 -0.632597 0)
(-0.0741825 -0.821412 0)
(-0.0382915 -1.01375 0)
(-0.0120067 -1.13617 0)
(0.00921906 -1.20678 0)
(0.023085 -1.25861 0)
(0.0350402 -1.29482 0)
(0.0436038 -1.29943 0)
(0.0482477 -1.25507 0)
(0.0501015 -1.16613 0)
(0.0532558 -1.04757 0)
(0.0553346 -0.897126 0)
(0.0728323 -0.683782 0)
(0.0603376 -0.398438 0)
(0.0309261 -0.137696 0)
(0.0142033 -0.10132 0)
(0.0146166 -0.237675 0)
(0.0407661 -0.277263 0)
(0.0497847 -0.352456 0)
(0.0299286 -0.451292 0)
(-0.00197966 -0.593849 0)
(-0.00421732 -0.781856 0)
(0.0352154 -0.82974 0)
(0.0725716 -1.01026 0)
(0.0544764 -1.35975 0)
(-0.00566366 -1.63429 0)
(-0.0729912 -1.58411 0)
(-0.118462 -1.14196 0)
(-0.133418 -0.787551 0)
(-0.11323 -0.558223 0)
(-0.0988074 -0.644122 0)
(-0.062441 -0.816198 0)
(-0.0360323 -0.994192 0)
(-0.0151587 -1.10725 0)
(2.14046e-05 -1.17198 0)
(0.0103214 -1.21752 0)
(0.0190794 -1.25028 0)
(0.0247283 -1.25037 0)
(0.0269455 -1.20144 0)
(0.027838 -1.1105 0)
(0.0305817 -0.991996 0)
(0.0348567 -0.840088 0)
(0.0436672 -0.668675 0)
(0.0168487 -0.322676 0)
(-0.00202773 -0.125432 0)
(-0.00105187 -0.1073 0)
(0.0199252 -0.261218 0)
(0.0493242 -0.276177 0)
(0.0584231 -0.311358 0)
(0.0520228 -0.3803 0)
(0.0408475 -0.525545 0)
(0.0473975 -0.74718 0)
(0.0732392 -0.823851 0)
(0.0962383 -1.00248 0)
(0.0849345 -1.30882 0)
(0.0220224 -1.53838 0)
(-0.0591765 -1.49633 0)
(-0.105175 -1.07732 0)
(-0.116973 -0.768868 0)
(-0.0954619 -0.55917 0)
(-0.0826752 -0.64483 0)
(-0.0560028 -0.803049 0)
(-0.0361175 -0.966995 0)
(-0.0211064 -1.07143 0)
(-0.0113856 -1.13071 0)
(-0.00482395 -1.17358 0)
(0.00123102 -1.20239 0)
(0.00466582 -1.19676 0)
(0.00510789 -1.14391 0)
(0.00428353 -1.05234 0)
(0.00586594 -0.934353 0)
(0.0253683 -0.776413 0)
(0.0183757 -0.578114 0)
(-0.0187737 -0.258715 0)
(-0.0259122 -0.121014 0)
(-0.0116374 -0.119214 0)
(0.0247726 -0.292124 0)
(0.0570978 -0.275725 0)
(0.0735568 -0.286477 0)
(0.0924593 -0.339472 0)
(0.104792 -0.471599 0)
(0.101919 -0.690461 0)
(0.0897286 -0.802367 0)
(0.115009 -1.00501 0)
(0.106299 -1.26354 0)
(0.0407275 -1.43261 0)
(-0.0521598 -1.38954 0)
(-0.103049 -1.01048 0)
(-0.113492 -0.748202 0)
(-0.0878769 -0.557704 0)
(-0.0757956 -0.633523 0)
(-0.0544211 -0.783321 0)
(-0.0369195 -0.93232 0)
(-0.0282797 -1.0285 0)
(-0.0236923 -1.0831 0)
(-0.0214451 -1.12316 0)
(-0.0185134 -1.14987 0)
(-0.0163937 -1.13909 0)
(-0.0184557 -1.08194 0)
(-0.0221371 -0.989489 0)
(-0.00888598 -0.872158 0)
(0.0093605 -0.75587 0)
(-0.0146741 -0.489227 0)
(-0.0415921 -0.220469 0)
(-0.0402841 -0.123978 0)
(-0.0168238 -0.127917 0)
(0.0272549 -0.328047 0)
(0.0674581 -0.28987 0)
(0.108896 -0.299266 0)
(0.165209 -0.337499 0)
(0.190992 -0.417305 0)
(0.141929 -0.594167 0)
(0.0827853 -0.756669 0)
(0.0893914 -0.978904 0)
(0.0837232 -1.19118 0)
(0.0312181 -1.33028 0)
(-0.0508748 -1.27848 0)
(-0.113434 -0.946015 0)
(-0.118669 -0.729276 0)
(-0.0893334 -0.556077 0)
(-0.0794617 -0.613253 0)
(-0.0597517 -0.760123 0)
(-0.0419779 -0.891123 0)
(-0.0383128 -0.981187 0)
(-0.0370553 -1.03089 0)
(-0.0408472 -1.06768 0)
(-0.0411235 -1.09565 0)
(-0.0374605 -1.07911 0)
(-0.0413358 -1.01424 0)
(-0.0333194 -0.922633 0)
(-0.0162507 -0.855384 0)
(-0.0285182 -0.660923 0)
(-0.0560919 -0.417184 0)
(-0.0621136 -0.210876 0)
(-0.0500632 -0.141468 0)
(-0.0193574 -0.143306 0)
(0.0249448 -0.373092 0)
(0.0727922 -0.331886 0)
(0.139189 -0.353461 0)
(0.214122 -0.360407 0)
(0.228035 -0.346474 0)
(0.129327 -0.429662 0)
(0.0254638 -0.678972 0)
(0.0390276 -0.942115 0)
(0.0601828 -1.11257 0)
(2.24768e-05 -1.18229 0)
(-0.0833137 -1.13749 0)
(-0.132169 -0.865368 0)
(-0.130622 -0.69154 0)
(-0.101589 -0.547618 0)
(-0.083492 -0.585713 0)
(-0.0793607 -0.75841 0)
(-0.0655162 -0.835659 0)
(-0.0545654 -0.919002 0)
(-0.0511022 -0.962742 0)
(-0.0650979 -0.995191 0)
(-0.0692705 -1.02379 0)
(-0.0561691 -1.00191 0)
(-0.0468921 -0.935539 0)
(-0.041438 -0.901154 0)
(-0.054651 -0.756824 0)
(-0.0858782 -0.572535 0)
(-0.0956929 -0.376832 0)
(-0.0846814 -0.227078 0)
(-0.0596161 -0.179417 0)
(-0.0211417 -0.177469 0)
(0.0247877 -0.424006 0)
(0.0754514 -0.381564 0)
(0.14337 -0.40731 0)
(0.205594 -0.384486 0)
(0.220667 -0.329686 0)
(0.151464 -0.32136 0)
(0.0241299 -0.643743 0)
(0.00649938 -0.945324 0)
(0.0313263 -1.0364 0)
(-0.0255903 -1.04572 0)
(-0.103648 -0.996573 0)
(-0.13466 -0.800067 0)
(-0.122734 -0.654037 0)
(-0.0976392 -0.524323 0)
(-0.0793577 -0.538598 0)
(-0.081849 -0.685317 0)
(-0.087638 -0.809609 0)
(-0.0825471 -0.902272 0)
(-0.0820969 -0.902511 0)
(-0.0826478 -0.915122 0)
(-0.0903344 -1.00941 0)
(-0.0882714 -0.986197 0)
(-0.079604 -0.908372 0)
(-0.0884812 -0.801051 0)
(-0.118254 -0.66011 0)
(-0.136168 -0.508172 0)
(-0.130789 -0.363161 0)
(-0.107792 -0.261779 0)
(-0.0698837 -0.232661 0)
(-0.0230364 -0.22637 0)
(0.022864 -0.461013 0)
(0.07008 -0.421037 0)
(0.116877 -0.431091 0)
(0.154139 -0.391307 0)
(0.196455 -0.354545 0)
(0.222773 -0.371256 0)
(0.181354 -0.621415 0)
(0.0780476 -0.950715 0)
(0.0607161 -0.968045 0)
(0.00318233 -0.982814 0)
(-0.0934774 -0.934074 0)
(-0.129523 -0.785747 0)
(-0.108483 -0.62413 0)
(-0.0793781 -0.511694 0)
(-0.0518055 -0.511182 0)
(-0.0416661 -0.619699 0)
(-0.0549275 -0.720606 0)
(-0.0777731 -0.799189 0)
(-0.0952544 -0.842082 0)
(-0.0954134 -0.874372 0)
(-0.103473 -0.906318 0)
(-0.124949 -0.887455 0)
(-0.137886 -0.816402 0)
(-0.153274 -0.711542 0)
(-0.169798 -0.588585 0)
(-0.173313 -0.472532 0)
(-0.157699 -0.374125 0)
(-0.124221 -0.309953 0)
(-0.0755946 -0.291331 0)
(-0.0238209 -0.279575 0)
(0.015425 -0.49814 0)
(0.0552254 -0.463042 0)
(0.0953355 -0.457287 0)
(0.137812 -0.426079 0)
(0.20546 -0.414132 0)
(0.293376 -0.467693 0)
(0.32116 -0.630859 0)
(0.232655 -0.835337 0)
(0.136742 -0.879232 0)
(0.0517766 -0.810635 0)
(-0.0505325 -0.773628 0)
(-0.109426 -0.69924 0)
(-0.107793 -0.593245 0)
(-0.0726198 -0.512441 0)
(-0.0294587 -0.505974 0)
(-0.00501481 -0.576744 0)
(-0.00984575 -0.650383 0)
(-0.0337407 -0.71056 0)
(-0.0616968 -0.749852 0)
(-0.0865526 -0.779231 0)
(-0.115913 -0.805398 0)
(-0.149058 -0.797373 0)
(-0.174624 -0.739111 0)
(-0.19202 -0.647105 0)
(-0.200082 -0.547867 0)
(-0.194967 -0.465308 0)
(-0.171618 -0.403556 0)
(-0.129661 -0.36339 0)
(-0.0766236 -0.348974 0)
(-0.0241088 -0.332988 0)
(0.0194614 -0.540116 0)
(0.058016 -0.499423 0)
(0.0950614 -0.487066 0)
(0.145796 -0.48167 0)
(0.225648 -0.504002 0)
(0.319406 -0.560619 0)
(0.35121 -0.644353 0)
(0.269694 -0.745726 0)
(0.142849 -0.769393 0)
(0.0499549 -0.711772 0)
(-0.0190385 -0.684665 0)
(-0.0703483 -0.646196 0)
(-0.0812395 -0.580813 0)
(-0.0536878 -0.525885 0)
(-0.0102437 -0.515792 0)
(0.0178372 -0.554532 0)
(0.01801 -0.601943 0)
(-0.00142648 -0.645383 0)
(-0.0288549 -0.678861 0)
(-0.0588686 -0.704236 0)
(-0.0959437 -0.721228 0)
(-0.140772 -0.71411 0)
(-0.179929 -0.674513 0)
(-0.203753 -0.609534 0)
(-0.209297 -0.53715 0)
(-0.197726 -0.479838 0)
(-0.16822 -0.43961 0)
(-0.12467 -0.412255 0)
(-0.0747546 -0.399873 0)
(-0.0243199 -0.384279 0)
(0.0230038 -0.568913 0)
(0.0615755 -0.522739 0)
(0.0967221 -0.516488 0)
(0.14655 -0.534686 0)
(0.213142 -0.571146 0)
(0.260342 -0.614931 0)
(0.260603 -0.664 0)
(0.212217 -0.738065 0)
(0.125834 -0.766599 0)
(0.0539116 -0.727567 0)
(0.00970697 -0.699399 0)
(-0.0240477 -0.664738 0)
(-0.0360632 -0.613488 0)
(-0.0195499 -0.5686 0)
(0.011321 -0.551794 0)
(0.0326777 -0.565656 0)
(0.0331731 -0.590688 0)
(0.0172163 -0.618703 0)
(-0.00785066 -0.645255 0)
(-0.0373593 -0.665996 0)
(-0.072689 -0.676129 0)
(-0.116487 -0.667245 0)
(-0.161991 -0.639714 0)
(-0.192163 -0.597018 0)
(-0.196752 -0.547045 0)
(-0.180031 -0.503561 0)
(-0.149899 -0.472263 0)