/*--------------------------------*- C++ -*----------------------------------*\
| =========                 |                                                 |
| \\      /  F ield         | OpenFOAM: The Open Source CFD Toolbox           |
|  \\    /   O peration     | Version:  2.4.0                                 |
|   \\  /    A nd           | Web:      www.OpenFOAM.org                      |
|    \\/     M anipulation  |                                                 |
\*---------------------------------------------------------------------------*/
FoamFile
{
    version     2.0;
    format      ascii;
    class       volScalarField;
    location    "1.85";
    object      alpha.water;
}
// * * * * * * * * * * * * * * * * * * * * * * * * * * * * * * * * * * * * * //

dimensions      [0 0 0 0 0 0 0];

internalField   nonuniform List<scalar> 
3072
(
1.06765e-13
4.81949e-12
5.83806e-11
9.49244e-05
0.0331509
0.0580802
0.0712186
0.126661
0.126661
0.0399666
8.65379e-11
2.7537e-10
1.38217e-12
2.52618e-11
9.22637e-11
0.012754
0.0284564
0.0489067
0.0792008
0.0715147
0.000214381
0.00600866
8.65516e-11
8.6733e-11
1.32428e-07
7.83915e-11
0.00367531
0.0133169
0.0195641
0.0476944
0.0354461
1.34431e-09
1.38421e-09
3.68044e-08
2.52161e-05
3.93294e-06
4.97729e-09
0.000400902
0.00650552
0.00913034
0.0165714
0.0239732
1.33722e-09
1.29588e-09
1.34459e-09
3.28695e-06
7.8834e-06
2.39793e-10
4.97571e-09
0.000920888
0.00464365
0.00191757
0.0039823
0.00182427
1.32831e-09
1.33916e-09
9.62268e-07
1.8031e-06
2.07984e-10
2.01587e-10
3.49408e-05
0.000681761
0.000373524
2.29232e-10
1.91801e-10
1.77636e-10
1.35768e-09
3.74825e-10
1.4909e-07
4.33642e-05
7.79096e-05
1.36441e-05
1.99076e-05
9.95661e-05
2.16329e-08
1.31825e-07
1.52311e-10
1.36969e-10
1.3852e-10
1.37908e-10
1.88845e-07
4.82805e-05
8.02233e-05
7.45178e-05
5.05516e-06
8.23146e-10
2.18699e-08
1.08131e-07
1.94765e-10
9.67902e-07
1.87221e-06
3.43547e-06
5.32541e-08
1.05147e-05
4.67245e-05
4.2451e-05
5.8543e-06
7.91508e-10
7.90743e-10
3.38849e-09
2.22491e-10
2.50321e-07
2.21547e-05
3.7166e-05
3.4111e-05
3.35566e-06
1.06053e-07
5.9599e-08
8.00264e-06
7.69467e-05
6.78042e-05
2.1285e-10
2.11911e-10
2.73799e-08
6.16405e-06
3.31778e-05
3.77648e-05
1.54047e-05
1.14963e-10
7.66047e-11
4.0773e-06
4.16331e-05
4.03819e-05
0.00108932
0.00392711
0.00399562
3.91776e-05
7.69765e-11
7.68822e-11
7.66977e-11
7.66047e-11
7.66014e-11
8.51949e-11
8.52072e-11
8.52177e-11
0.00782033
0.00127066
0.00109916
0.00804222
0.0340963
0.0343715
0.0202815
0.00186773
7.98799e-11
3.5945e-05
0.0955882
0.176936
0.176936
0.17682
0.12843
0.0242696
0.0420583
0.11488
0.108667
0.0690983
0.0504715
1.52987e-10
0.0751504
0.176143
0.0306348
2.04996e-06
0.000161867
5.27521e-05
0.0589584
0.133036
0.197665
0.242847
0.242847
6.03112e-06
3.10589e-10
7.97773e-11
7.99992e-11
2.24567e-06
2.24075e-05
5.41378e-05
1.83809e-10
1.64411e-10
1.61747e-10
0.006705
0.119103
6.67087e-07
5.10254e-06
9.67906e-06
1.26483e-10
1.72958e-10
2.13288e-10
0.000127201
0.00139457
0.00128334
2.05934e-10
2.00176e-10
1.72604e-10
2.31345e-10
2.41317e-10
0.000255357
0.00149921
0.00233907
0.000514557
2.82026e-10
3.22921e-10
0.0144358
0.0414933
0.0063298
0.00100287
1.73826e-10
2.04782e-10
0.000231647
0.00667577
0.00841736
0.00549545
2.74884e-10
2.7923e-10
0.141031
0.320447
0.394743
0.384369
1.705e-10
2.30311e-10
3.67771e-05
0.00451453
0.00830172
0.0076928
2.41856e-10
2.26519e-10
0.29061
0.73968
0.751051
0.830758
1.36058e-05
6.02079e-06
6.54261e-06
7.80824e-05
0.00179369
0.00114287
0.000113441
1.76742e-10
0.295276
0.88697
0.946737
0.95941
1.44787e-10
1.33627e-10
0.0114059
0.0116943
0.000393174
1.05603e-10
1.05083e-10
1.36837e-10
0.0855035
0.741384
0.80931
0.999747
0.0050925
0.0253335
0.0255504
0.0251776
0.00301976
1.35833e-10
1.17994e-10
1.07082e-10
0.00822766
0.569398
0.785695
0.912818
0.00141536
0.00648834
0.00818081
0.00305263
0.000781691
1.49365e-10
1.29293e-10
1.1319e-10
1.05082e-10
0.255169
0.930004
0.788933
8.66087e-11
1.17354e-10
1.0248e-10
1.02491e-10
1.0248e-10
1.15654e-10
1.25552e-10
1.22322e-10
1.05216e-10
0.181555
0.907907
0.941638
3.43841e-14
2.55499e-13
1.64947e-14
1.37706e-13
1.37706e-13
1.37706e-13
1.38631e-13
1.38679e-13
2.23005e-12
3.95844e-11
4.79799e-07
2.66362e-05
8.00615e-13
1.20838e-11
4.43587e-11
7.05244e-11
3.06322e-07
6.53119e-07
5.20873e-10
2.72778e-05
6.04424e-05
1.51278e-05
1.30828e-10
1.7544e-06
4.29011e-12
4.2446e-11
9.09483e-11
1.0961e-07
7.3657e-07
6.66161e-07
3.08865e-05
0.000129692
2.81384e-05
9.47109e-11
1.0926e-10
1.52836e-10
1.02852e-10
4.86033e-10
1.49547e-10
3.88511e-07
7.85519e-07
3.75997e-06
0.00010074
0.000143684
2.33821e-05
8.48329e-11
3.20748e-10
1.96716e-10
3.07286e-10
4.23229e-10
2.32092e-09
4.07045e-07
6.09757e-07
7.90424e-06
0.000120645
0.000143826
2.24904e-05
8.46319e-11
3.60963e-10
2.33272e-10
1.12404e-09
6.20907e-09
1.22696e-08
1.33713e-07
7.54867e-08
3.09869e-06
7.64875e-05
0.000109812
7.16149e-06
8.48317e-11
9.33978e-11
2.95697e-10
4.05021e-09
5.7243e-08
3.5185e-10
3.49369e-10
3.62544e-10
2.60883e-07
2.63381e-06
5.74586e-06
8.71605e-07
5.27357e-09
1.09183e-08
3.3696e-10
8.49156e-11
8.63462e-08
5.26735e-07
3.54218e-10
1.55099e-06
3.23312e-10
3.23995e-10
3.20578e-10
3.39518e-10
1.74112e-08
3.70702e-08
1.28817e-07
4.90002e-11
7.99095e-11
6.97209e-06
3.90197e-05
4.00419e-05
2.12864e-05
1.58546e-06
8.91524e-08
1.55128e-09
9.91643e-10
5.84588e-09
4.38745e-08
4.48058e-11
7.33476e-11
3.06974e-06
2.52687e-05
3.97742e-05
4.42584e-05
4.38387e-05
3.70166e-05
6.63029e-06
1.7053e-10
1.41052e-10
1.43252e-10
3.95646e-11
5.88571e-11
5.76476e-08
1.91334e-07
1.78737e-10
1.55318e-10
2.03237e-10
5.83675e-06
1.18608e-05
1.19435e-05
2.57219e-06
1.00468e-10
2.39843e-11
2.39843e-11
2.39845e-11
2.39845e-11
0.0361037
0.0607613
0.00990864
3.37534e-10
3.33792e-10
3.33924e-10
1.81179e-07
1.56402e-07
4.02067e-05
1.30433e-05
2.93114e-07
1.29079e-09
1.25896e-09
1.5841e-05
2.52632e-05
2.34327e-06
2.33922e-06
2.90256e-07
2.94445e-07
3.62399e-08
1.11127e-06
3.109e-10
0.000143486
0.000365613
0.000373055
0.000154486
2.86766e-05
2.34736e-06
9.80823e-06
3.07844e-07
9.83479e-07
4.78805e-07
2.04271e-10
2.48006e-10
0.000150734
0.00181095
0.00387385
0.00513192
0.0052214
0.00180836
2.90175e-07
2.90178e-07
2.90165e-07
2.90237e-07
8.72997e-08
9.25036e-07
1.47061e-06
1.35231e-06
0.000906102
0.00503887
0.00679518
0.0391856
0.05446
0.120499
0.233679
0.284208
1.09191e-06
1.09219e-05
1.583e-05
1.87913e-05
2.37628e-05
9.96722e-10
9.94678e-10
0.022506
0.199615
0.553384
0.834238
0.840467
3.38589e-10
5.88863e-06
2.92642e-05
0.000204487
0.000261602
8.6285e-05
1.03295e-09
0.0592696
0.579335
0.849463
0.848156
0.848366
1.15367e-07
2.47689e-07
4.82279e-06
0.000241647
0.000328776
0.000246617
1.06522e-09
0.0684647
0.683648
0.848197
0.848211
0.848156
1.45165e-07
1.40048e-07
1.20626e-07
3.40619e-05
0.000236979
6.60862e-05
1.09426e-09
0.0374944
0.580858
0.848254
0.848657
0.848156
8.44669e-08
7.94475e-08
1.19708e-07
5.35642e-11
2.19117e-11
5.76711e-11
5.99708e-07
8.6898e-11
0.193655
0.784658
0.848181
0.848657
6.66489e-10
8.32027e-11
9.78259e-09
1.13107e-08
2.78427e-09
7.9631e-11
3.23507e-11
5.58532e-11
0.021261
0.353992
0.64697
0.840856
7.58208e-11
4.84734e-11
4.10369e-11
2.84053e-11
1.45195e-09
1.20987e-08
3.4642e-10
7.82313e-11
0.0240057
0.230763
0.371237
0.570914
1.36398e-08
1.69432e-11
8.51199e-08
2.14131e-06
2.21651e-06
1.58058e-06
2.40967e-08
5.27383e-11
2.89382e-11
2.9177e-11
0.331346
0.588921
1.39173e-17
6.92102e-18
3.23121e-16
4.1324e-15
2.32719e-14
7.71426e-14
1.7748e-13
3.22222e-13
5.18536e-13
8.22682e-13
1.38282e-12
2.48042e-12
8.9847e-16
1.64052e-14
9.10585e-14
2.67033e-13
5.71272e-13
1.12287e-12
2.25969e-12
4.60586e-12
9.06617e-12
1.67268e-11
2.86711e-11
4.57855e-11
4.89702e-15
6.3632e-14
2.62287e-13
6.93715e-13
1.61517e-12
3.67375e-12
8.01688e-12
1.62314e-11
3.0104e-11
5.1291e-11
8.13015e-11
1.23241e-10
1.2122e-14
1.17666e-13
4.28715e-13
1.11776e-12
2.68552e-12
6.1834e-12
1.32288e-11
2.58041e-11
4.58747e-11
7.49417e-11
1.13648e-10
1.61335e-10
1.98024e-14
1.59852e-13
5.29505e-13
1.31365e-12
3.05395e-12
6.80344e-12
1.40631e-11
2.65417e-11
4.57912e-11
7.27717e-11
1.07321e-10
1.47511e-10
2.72899e-14
1.85695e-13
5.55378e-13
1.261e-12
2.7087e-12
5.66615e-12
1.11599e-11
2.0248e-11
3.37018e-11
5.15943e-11
7.27673e-11
9.46409e-11
3.4665e-14
1.97627e-13
5.3134e-13
1.08066e-12
2.07934e-12
4.01078e-12
7.59811e-12
1.38224e-11
2.39298e-11
3.89175e-11
5.74042e-11
7.2551e-11
4.17451e-14
1.97418e-13
4.79322e-13
8.71123e-13
1.46096e-12
2.4623e-12
4.15025e-12
6.65754e-12
9.15557e-12
5.712e-12
4.56526e-12
4.55287e-12
5.72955e-14
1.89455e-13
4.24558e-13
7.43944e-13
1.38574e-12
4.94481e-12
3.42441e-11
2.11829e-10
7.1692e-10
1.3157e-08
9.62968e-08
1.43729e-07
8.73426e-14
1.82173e-13
3.63404e-13
5.93145e-13
1.01399e-12
3.11721e-12
1.9132e-11
1.20107e-10
5.199e-10
2.06341e-09
7.30134e-09
9.46546e-08
8.70983e-14
3.22624e-11
2.61781e-11
2.10828e-12
3.84049e-13
7.20082e-13
6.61847e-13
2.11963e-11
1.64363e-13
1.64857e-13
1.64367e-13
3.12499e-11
0.241164
0.229395
0.050751
7.08695e-05
0.0103357
0.0158849
0.00780762
3.94374e-11
3.27613e-11
0.0422863
0.0581216
0.199066
4.56658e-12
8.30112e-12
1.46278e-11
2.49509e-11
4.13908e-11
5.5462e-11
6.88053e-11
7.4948e-11
7.01044e-11
5.14009e-11
2.0502e-11
2.44253e-13
6.87176e-11
9.83917e-11
1.37638e-10
1.89488e-10
2.16894e-10
1.07013e-10
2.35054e-10
2.57954e-10
2.48752e-10
2.09285e-10
1.26455e-10
4.38279e-12
1.89699e-10
3.2224e-10
5.82821e-10
7.71482e-10
6.64623e-09
2.57739e-08
2.80774e-10
3.92762e-10
3.85319e-10
3.47124e-10
2.66329e-10
3.11307e-11
2.15166e-10
2.68661e-10
3.1072e-10
3.3792e-10
7.05856e-09
5.96041e-07
1.3614e-06
6.34904e-08
3.93734e-10
3.48734e-10
3.06091e-10
1.14804e-10
1.8925e-10
2.27757e-10
2.62397e-10
3.0185e-10
3.34749e-10
8.53766e-08
8.43067e-06
2.4279e-05
3.66828e-05
1.71988e-05
2.75207e-10
2.21213e-10
1.14485e-10
1.35565e-10
1.91635e-10
8.35572e-10
3.24753e-09
1.07072e-09
6.93243e-10
3.9137e-05
0.000288661
0.000423841
0.00021327
2.21213e-10
7.46398e-11
8.03485e-11
2.43584e-08
6.36023e-08
1.08441e-07
5.13626e-07
4.83477e-06
3.08349e-06
0.000235482
0.000493287
0.000472684
2.29813e-10
4.57749e-12
3.87147e-11
1.58956e-08
8.68747e-08
1.1518e-07
1.20619e-06
7.90165e-05
0.000360097
0.000141234
0.000126956
0.000103604
2.26573e-05
1.53612e-07
7.57388e-08
1.24825e-08
1.53162e-09
6.57047e-11
3.60403e-12
2.82151e-12
0.00295137
0.0122211
0.00614791
0.000126956
0.000177038
1.63251e-07
1.63924e-07
7.30407e-08
6.07136e-10
5.94852e-10
4.69657e-10
7.93312e-11
1.83663e-13
0.136173
0.434087
0.182708
0.000181176
6.63351e-11
9.64462e-11
1.20346e-10
1.37434e-09
2.07182e-09
1.95969e-09
6.23425e-10
2.36919e-13
0.0210583
0.720441
0.860681
0.169309
0.322709
0.235651
0.0496612
7.7119e-10
7.17688e-10
6.63636e-10
4.33687e-10
3.93968e-11
6.96775e-13
0.580711
0.996892
0.560074
1
0.946736
0.232444
1.00623e-10
0.0339844
0.14643
0.161169
0.111705
0.12724
0.0946794
0.0581467
0.0820621
1
0.8493
0.0925137
7.70767e-11
0.000917701
6.04526e-11
6.04456e-11
6.04456e-11
6.04455e-11
6.04455e-11
6.04454e-11
0.0162072
1
0.758999
1.33425e-10
7.52189e-11
9.1778e-11
4.684e-06
6.19095e-11
3.12137e-08
4.10601e-08
6.0789e-11
1.04423e-10
0.00185504
0.999634
0.553686
9.2961e-11
5.80804e-06
1.60022e-05
6.79485e-06
6.64994e-11
1.83511e-07
2.11689e-07
6.81281e-11
1.22484e-10
1.68531e-10
0.999855
0.564293
8.63703e-11
5.99917e-07
2.04879e-06
9.64995e-11
4.88882e-08
2.54279e-07
2.54032e-07
1.54842e-08
1.20807e-10
1.56897e-10
1
0.741103
0.00278698
1.21132e-10
1.21211e-10
9.5554e-11
3.65019e-10
1.12591e-07
2.45089e-07
6.02386e-09
1.37078e-10
1.68253e-10
1
0.986252
0.363523
0.00576106
8.40521e-11
8.33118e-11
2.21682e-10
2.29644e-09
3.15745e-08
4.2642e-08
3.88514e-09
4.684e-05
0.999999
0.999999
0.939911
0.590585
0.294414
0.0935615
2.21856e-10
1.11193e-05
1.22272e-10
1.22528e-10
1.51902e-10
2.12777e-05
1
0.999968
0.999967
0.999571
0.958972
0.853813
0.667719
0.576729
0.3493
0.276744
0.00725743
2.08223e-10
0.999998
0.999952
0.999966
0.999981
1
1
1
1
0.977372
0.9908
0.903319
0.331222
1
1
1
1
1
1
1
0.999078
0.972412
0.958091
0.983205
0.921356
0.835707
0.763656
0.622513
0.612424
0.663099
0.702199
0.754519
0.595675
0.363949
0.286367
0.855941
0.934423
0.561749
0.998615
1
1
1
1
0.99956
0.999476
0.999854
1
1
0.999999
0.346445
0.937324
1
1
0.999999
1
0.999881
0.999828
1
1
1
1
0.405515
0.843715
0.976059
1
1
1
1
1
0.996567
0.997203
0.999884
1
0.153951
0.766892
0.99852
1
1
1
1
0.999788
0.995556
0.995551
0.99989
0.981407
0.00122566
0.277476
0.618968
0.83247
0.989645
1
1
0.999943
0.99784
0.9985
0.987365
0.775534
0.0137555
0.0664031
0.0536835
0.182627
0.592347
0.896484
0.99092
1
1
1
0.800943
0.757229
0.0182375
0.0268118
1.01885e-10
9.79579e-11
0.0328488
0.353327
0.720915
0.955264
1
0.972791
0.757229
0.757229
0.00565699
0.0119603
0.00309208
7.6027e-11
7.96043e-11
1.20754e-10
0.129471
0.568947
0.941965
0.965167
0.835037
0.905774
2.08414e-10
0.00244393
0.00708569
7.55479e-11
0.000491572
1.87149e-08
8.97202e-11
0.0378796
0.539415
0.985005
0.997053
1
0.0634097
0.00264571
0.0133026
5.97269e-11
6.09364e-11
6.05894e-11
6.89028e-11
9.44927e-11
0.0344262
0.54512
0.998344
0.99961
0.917148
0.867013
0.273883
9.35254e-11
9.11586e-11
8.59948e-11
9.50141e-11
1.20263e-10
1.37199e-10
0.00956128
0.88098
0.999604
0.847987
0.906087
0.934791
0.531487
0.214115
0.0648609
0.0641386
0.0420978
0.0203687
0.00692758
0.0736279
0.879311
0.535487
0.281042
0.265365
0.326139
0.212316
0.0145419
0.0010405
0.00104003
0.0401877
0.146973
0.148916
0.133911
0.138478
0.110498
0.198228
0.389385
0.411895
0.412969
0.357047
0.160524
0.0259059
0.0259149
0.0313387
0.0457673
0.0455526
5.35773e-10
0.00695903
0.00580945
0.0926151
0.130415
0.207428
0.168332
0.0627448
0.0259745
0.0259267
0.0259205
0.169419
4.85153e-10
4.95616e-10
0.0370024
0.431003
0.623217
0.462013
0.11242
0.081247
0.0838987
0.0753433
0.0404571
0.0286941
0.000444995
1.32509e-10
1.33136e-10
1.30735e-10
1.38608e-10
1.48043e-10
1.48461e-10
1.29186e-10
0.109961
0.837278
1
0.104941
0.155679
0.196907
0.237371
0.167757
0.011246
1.73998e-10
0.103227
0.343997
0.550922
0.907684
1
0.0259267
0.0517693
0.513176
0.637143
0.57279
0.28981
0.295185
0.572402
0.97176
0.989715
0.941954
0.960903
0.0721181
0.128554
0.298436
0.620104
0.715994
0.769434
0.855997
0.964812
0.997197
0.99763
0.984741
0.965746
0.950829
0.679764
0.552143
0.672348
0.856318
0.924326
0.682361
0.156626
0.0229208
0.000598603
1.45041e-11
1.68224e-11
1
0.978815
0.493643
0.43243
0.442152
0.876802
0.993624
0.993624
0.780999
0.200046
0.230255
0.274974
0.997425
0.999408
0.913431
0.466421
0.428794
0.425051
0.877824
0.993624
0.87751
0.469739
0.598487
0.89156
0.978223
0.997429
0.998505
0.999001
0.627742
0.587287
0.943562
0.993523
0.929731
0.957929
1
1
1.28584e-11
1.32149e-11
1.28963e-11
2.63545e-07
2.99927e-07
1.59352e-07
1.67215e-08
5.3901e-11
2.9177e-11
5.39621e-11
0.0267697
0.590328
0.222278
0.0756166
0.00179462
3.33498e-11
3.0701e-11
3.04634e-11
3.07009e-11
3.04634e-11
4.56707e-11
0.185317
0.288845
0.582577
0.887694
0.885186
0.844339
0.728996
0.654264
0.659667
0.664188
0.591927
0.567765
0.62791
0.636407
0.582327
1
0.930955
0.794928
0.661212
0.654705
0.665774
0.640674
0.573438
0.508483
0.375581
0.158933
0.0385166
0.698895
0.698894
0.695318
0.226131
0.000856949
0.00104298
2.77841e-07
0.0987424
0.69734
0.749312
0.743343
0.805951
0.698888
0.698894
0.698887
0.698894
0.33872
2.7787e-07
2.7669e-07
2.7785e-07
0.0686121
0.60412
0.83812
0.838077
0.335282
0.19789
0.439785
0.57594
0.350128
0.00799434
4.39983e-06
0.00516097
0.0261132
0.0175149
0.0100972
0.113014
0.00466179
0.00400543
0.0133994
0.00381457
0.0039601
0.0166436
0.0176277
0.0176283
0.0160564
0.00472814
0.000205605
0.000272214
0.838073
0.838107
0.765426
0.308658
0.0287603
7.65362e-11
4.90589e-11
9.82616e-12
1.83826e-13
0.46044
0.994325
0.996892
0.838098
0.83808
0.838085
0.838052
0.546113
0.014303
4.45949e-11
2.59135e-11
6.96775e-13
0.228554
0.941237
0.996892
0.702059
0.838085
0.838052
0.836767
0.511731
0.0235069
6.22181e-11
1.02051e-07
1.84469e-13
2.66079e-11
0.618347
0.996892
0.0959591
0.505828
0.519308
0.289386
0.0194445
1.45822e-06
1.4393e-06
1.94118e-06
9.36142e-12
8.67367e-12
0.00953928
0.497527
0.787702
0.0931627
8.96133e-11
6.46337e-11
7.34554e-11
0.0028466
0.0106841
5.9872e-11
6.10109e-11
5.6774e-11
0.152511
0.203874
0.996892
0.513804
0.0041094
7.91859e-11
6.0315e-11
1.04173e-05
4.96651e-11
4.97757e-11
6.76287e-05
0.000193346
2.8756e-07
1.13714e-10
0.996892
0.836977
0.135651
1.00921e-10
9.36885e-11
4.8181e-11
4.83649e-11
4.6121e-07
7.59629e-11
1.16033e-05
3.29401e-05
3.21904e-05
0.984963
0.988463
0.74741
0.0463051
1.12742e-10
9.65197e-11
7.82683e-11
5.22336e-11
5.64898e-11
3.66486e-11
3.66435e-11
3.66332e-11
0.0671538
0.420752
0.926159
0.949935
0.949895
0.901923
0.538523
0.478883
0.596124
0.534615
0.132536
0.638801
6.41278e-11
3.92203e-11
0.461898
0.926738
0.870393
0.775099
0.472555
0.359874
0.654838
0.847008
0.850984
0.484645
9.64841e-06
3.66513e-11
0.0689987
0.261859
0.227676
0.188147
0.174542
0.154335
0.121643
0.277249
0.847008
0.606126
3.66313e-11
3.66279e-11
0.0478378
0.0733577
0.116629
0.165465
0.310676
0.179561
0.0952285
0.27082
0.792711
0.797534
0.396608
0.483829
0.599181
0.623203
0.623217
0.623203
0.622923
0.614762
0.241204
0.0210068
0.0384153
0.372896
0.100491
0.0313389
0.000710425
0.0664667
0.163006
0.147176
1.63265e-10
1.76307e-10
0.0145654
0.0199015
1.77777e-10
1.78692e-10
1.03908e-10
1.21032e-10
1.19985e-10
2.04306e-10
2.0808e-10
1.93557e-10
1.78372e-10
1.74251e-10
1.71251e-10
1.42755e-05
3.9085e-07
1.94216e-05
2.57725e-10
6.42887e-10
1.41109e-09
2.34533e-09
2.89712e-09
2.62863e-09
1.79524e-09
9.37038e-10
5.14683e-10
4.07447e-10
6.15812e-08
3.34131e-05
0.636039
0.919294
1
1
1
1
1
0.980975
0.979499
0.998467
0.999657
0.997397
1.8866e-10
0.241324
0.797426
0.918837
0.94146
0.977588
0.999758
1
1
1
1
0.929677
3.89538e-05
3.76709e-05
0.0291504
0.19061
0.283123
0.415737
0.58956
0.729105
0.810211
0.811625
0.4527
0.132246
6.11418e-05
5.9448e-05
1.28951e-10
1.28334e-10
1.27984e-10
1.27604e-10
0.000609969
0.0464638
0.0919036
0.103334
0.0066749
1.06591e-10
0.996819
0.909918
0.826294
0.810251
0.825353
0.822632
0.712485
0.681424
0.646238
0.58219
0.498833
0.300674
0.522234
0.30033
0.247788
0.231431
0.180404
0.130617
0.0693024
0.0564377
0.0377354
0.0147994
0.00366867
6.31623e-11
0.00217688
9.41646e-11
9.50034e-11
7.78518e-11
7.77146e-11
9.91355e-11
8.21094e-11
6.39609e-11
4.59635e-11
2.84996e-11
4.5233e-11
5.00116e-08
8.91136e-11
7.23535e-11
7.22945e-11
8.93033e-11
3.08934e-08
2.03083e-07
2.45855e-07
1.27074e-07
2.10467e-08
1.14608e-11
1.87935e-10
1.90334e-09
0.0720488
1.50451e-12
1.51535e-12
1.64613e-12
1.78439e-12
5.71784e-06
2.06391e-12
2.12763e-12
2.2119e-12
2.27816e-12
2.58527e-12
0.000483261
4.07886e-11
2.23303e-11
0.000121285
0.000496223
0.00050108
0.000194445
2.04545e-11
0.000265395
0.000498309
0.000372313
8.52688e-06
2.53253e-05
6.64521e-07
6.70514e-07
1.8263e-09
2.76189e-11
2.8661e-11
3.74759e-11
6.26171e-07
2.29113e-05
0.000512682
0.000789529
0.000784742
0.000271701
4.64595e-12
5.68686e-12
5.82069e-12
1.08507e-09
8.38649e-06
1.56682e-05
1.19837e-05
6.41911e-06
5.98677e-05
0.000292962
0.000469138
0.000460903
0.00705374
0.00910331
0.00698147
2.54384e-06
3.64596e-05
0.000497377
0.000809729
0.000491841
0.000871399
0.00215103
0.00439787
0.00485796
0.00157262
0.00478073
0.00538021
0.000873831
1.22828e-10
1.4545e-10
1.62717e-10
7.62137e-06
0.000210547
0.000481488
0.00055034
0.000128244
3.99729e-05
4.59652e-05
0.000138782
0.000206633
9.02117e-05
1.43916e-10
1.25279e-07
7.69554e-07
1.02551e-10
7.84868e-11
5.96813e-11
4.01252e-11
9.33925e-05
5.87069e-09
5.80779e-09
8.85733e-08
1.02687e-05
6.72737e-06
1.33135e-10
1.1422e-10
1.03555e-10
8.79129e-11
1.12202e-10
4.51456e-11
0.00365262
0.00195753
9.93984e-12
9.93116e-12
8.67415e-11
1.11942e-05
6.21544e-06
1.02581e-10
0.00276266
0.0536022
0.22453
0.331979
2.03033e-11
2.02757e-11
3.9157e-11
2.88927e-11
7.02809e-08
1.03016e-06
1.62598e-06
7.51766e-11
0.000531572
0.198766
0.588285
0.789355
2.22148e-11
2.94014e-11
3.57073e-11
3.98563e-11
3.98335e-11
3.94852e-11
3.94594e-11
5.73328e-11
0.0364489
0.594456
1
1
1.38872e-11
2.29861e-11
3.30096e-11
4.28102e-11
5.22079e-11
6.0899e-11
6.84364e-11
7.4256e-11
0.0285596
0.6593
1
1
0.166944
0.106744
0.0603121
0.0238826
0.00420589
9.73935e-11
7.21154e-11
4.75442e-11
6.42155e-11
0.0501027
0.290966
0.499177
0.875486
0.890646
0.763225
0.549585
0.391306
0.317623
0.286467
0.392285
0.594051
0.782665
0.942668
1
1
1
0.998981
0.993372
0.982217
0.964585
0.949673
0.958002
1
1
1
1
1
1
1
1
1
1
1
1
1
1
1
1
0.607155
0.617934
0.60384
0.479557
0.630693
0.631088
0.405648
0.010084
0.100016
0.231316
0.326119
0.383631
1
0.997078
0.740217
0.373931
0.389266
0.624982
0.185015
0.000550807
0.0012863
0.00727207
0.0403744
0.0779754
1
1
0.961603
0.505912
0.254672
0.254853
0.327604
0.0998174
6.25334e-11
6.21687e-11
6.49429e-11
8.39842e-11
1
1
1
1
0.813251
0.445157
0.0967054
0.0384261
0.0142098
4.59897e-11
4.72186e-11
1.1191e-10
3.70523e-11
1.16987e-10
1.69976e-10
3.80282e-10
7.85114e-10
9.55544e-10
6.97281e-10
5.19011e-10
4.55159e-10
3.82766e-10
2.55677e-10
1.79082e-13
2.3119e-11
2.37578e-11
3.06e-11
5.78313e-11
1.15566e-10
1.4142e-10
5.46266e-11
1.66327e-11
7.13083e-12
2.37001e-12
8.41005e-13
1.99683e-13
4.5024e-05
4.40259e-05
1.42193e-11
1.98029e-11
2.59238e-11
2.45174e-11
1.35782e-11
1.49269e-11
5.85133e-12
2.86804e-12
1.16416e-12
2.64638e-13
4.61215e-05
8.64758e-05
9.82042e-06
3.01236e-11
1.34259e-11
1.36771e-11
2.31904e-11
1.41937e-10
1.45479e-11
4.44823e-12
1.63561e-12
3.54914e-13
1.43275e-09
8.62914e-05
3.88168e-05
2.54916e-11
5.7518e-12
5.28998e-12
2.15485e-11
2.20366e-09
9.09231e-11
8.82543e-12
2.25903e-12
4.14395e-13
1.41815e-09
2.10423e-05
1.82645e-05
2.0622e-06
1.69752e-11
7.59246e-07
5.83047e-07
3.26197e-08
2.39642e-11
9.31391e-12
2.65985e-12
4.25156e-13
0.0130472
4.55738e-11
3.77459e-11
2.64893e-09
3.17323e-06
5.06774e-06
2.75118e-06
3.11975e-09
2.33147e-11
8.71236e-12
2.51765e-12
3.65285e-13
0.0533192
3.21171e-11
1.81829e-11
2.62562e-06
5.06774e-06
5.06328e-06
1.66217e-06
3.73089e-11
1.88064e-11
7.56619e-12
1.99812e-12
2.47621e-13
0.166988
3.33398e-11
1.81878e-11
2.70185e-06
3.66104e-06
1.87568e-06
1.59561e-07
3.16475e-11
1.51406e-11
5.49335e-12
1.22491e-12
1.21262e-13
0.253468
2.01204e-11
9.11571e-08
2.67773e-07
8.66606e-08
1.22479e-08
7.97482e-11
1.72708e-11
5.20267e-12
1.6725e-12
3.54533e-13
2.99695e-14
0.301549
4.28581e-12
1.77204e-08
2.30176e-11
1.78996e-11
2.12709e-11
9.26596e-12
3.86167e-12
1.39432e-12
3.51587e-13
4.95948e-14
2.41006e-15
0.373179
4.28581e-12
1.83005e-11
8.61257e-12
5.89637e-12
2.74862e-12
8.87411e-13
1.92516e-13
2.76287e-14
2.45507e-15
1.11729e-16
1.56907e-18
4.79303e-05
0.000158458
0.000133427
1.50586e-05
3.00707e-06
1.26819e-10
1.26837e-10
1.26808e-10
1.26806e-10
1.44771e-10
1.6099e-10
3.56128e-06
8.60289e-10
6.87921e-05
0.000203443
0.000203215
4.92241e-05
1.29216e-10
1.00289e-06
4.41518e-06
4.37436e-06
1.0754e-06
1.83886e-10
2.42429e-05
8.43763e-10
8.64235e-10
1.81498e-05
4.54143e-05
5.15742e-05
2.34021e-05
3.57453e-07
7.58991e-07
3.55631e-06
5.04263e-06
6.43887e-06
1.02209e-05
1.13103e-09
6.42062e-09
1.20467e-10
7.65009e-11
1.63353e-07
5.79006e-07
1.96561e-06
8.98737e-07
1.85975e-07
8.73963e-07
1.32618e-06
6.88867e-07
1.59622e-10
5.19925e-10
1.6156e-10
5.91112e-11
4.51818e-11
1.55893e-09
3.68029e-08
1.49214e-07
7.69666e-08
4.01333e-11
4.8016e-11
5.41864e-11
2.05987e-11
3.35292e-10
2.04562e-10
6.10378e-11
3.08342e-11
5.84409e-11
1.00925e-10
2.72365e-11
3.79474e-09
2.52395e-11
3.18321e-11
3.94541e-11
2.07923e-12
8.7991e-11
8.43768e-11
3.86928e-11
1.72181e-11
1.02129e-11
1.39215e-11
1.14749e-11
1.7381e-10
2.11387e-11
1.58638e-11
1.74237e-11
1.61632e-13
1.32635e-11
1.9478e-11
1.19017e-11
5.75858e-12
3.13288e-12
3.23095e-12
3.53266e-12
7.06614e-12
5.14521e-12
5.49179e-12
5.65759e-12
8.78413e-15
1.22225e-12
2.64013e-12
1.91989e-12
9.65461e-13
5.29962e-13
5.47367e-13
6.6952e-13
8.80367e-13
1.07361e-12
1.23837e-12
1.24232e-12
2.89264e-16
6.47098e-14
1.89993e-13
1.53363e-13
7.6076e-14
4.3109e-14
5.03264e-14
7.00308e-14
9.82334e-14
1.29389e-13
1.51589e-13
1.46426e-13
4.45873e-18
1.61962e-15
5.82027e-15
4.98279e-15
2.32668e-15
1.41728e-15
2.0639e-15
3.30053e-15
4.97863e-15
6.69791e-15
7.67125e-15
6.78706e-15
1.77846e-20
1.13262e-17
4.4475e-17
3.879e-17
1.61727e-17
1.14318e-17
2.21778e-17
4.0806e-17
6.30642e-17
8.04368e-17
8.48254e-17
6.37439e-17
2.08097e-05
2.4906e-05
8.77646e-06
8.51629e-07
5.62317e-08
6.74561e-07
1.4719e-06
1.45836e-06
2.14416e-07
1.1031e-11
1.61922e-10
2.93697e-11
5.76144e-05
5.77299e-05
5.76144e-05
2.82452e-05
3.57557e-08
1.51463e-07
1.00394e-06
1.02053e-06
2.14542e-10
2.59151e-10
3.08831e-10
1.19195e-11
1.67867e-05
2.11994e-05
1.8477e-05
6.45055e-06
5.53047e-07
8.36841e-12
8.37967e-12
8.38602e-12
2.21788e-10
1.49591e-09
2.22796e-10
1.58316e-11
1.0343e-10
8.68586e-11
6.76198e-11
6.76655e-11
6.76508e-11
8.20494e-11
2.74395e-10
1.09855e-11
7.24486e-12
1.85719e-12
1.62613e-12
4.07254e-13
1.20222e-10
1.98192e-10
3.54102e-10
2.31568e-10
1.31233e-10
5.98739e-11
1.82209e-11
1.01612e-11
6.49507e-12
3.24997e-12
1.04176e-12
1.74527e-13
5.85432e-11
9.11985e-11
1.15887e-10
7.38708e-11
3.27348e-11
1.2205e-11
4.05355e-12
1.22635e-12
3.53013e-13
1.02928e-13
2.86161e-14
5.86557e-15
1.90802e-11
2.18376e-11
1.9997e-11
1.19714e-11
5.54266e-12
2.23962e-12
8.25697e-13
2.72168e-13
7.51706e-14
1.5671e-14
2.07354e-15
1.41705e-16
5.24417e-12
4.63812e-12
3.44221e-12
2.09368e-12
1.10486e-12
5.2208e-13
2.18745e-13
7.80179e-14
2.21882e-14
4.54328e-15
5.57218e-16
2.5655e-17
1.07922e-12
8.53487e-13
5.83331e-13
3.42111e-13
1.7543e-13
7.92157e-14
3.12234e-14
1.04052e-14
2.75425e-15
5.18764e-16
5.63598e-17
2.30004e-18
1.19595e-13
8.61307e-14
5.27379e-14
2.68214e-14
1.16041e-14
4.3235e-15
1.39047e-15
3.7797e-16
8.16922e-17
1.24046e-17
1.02977e-18
5.77127e-20
4.94671e-15
3.08915e-15
1.55025e-15
6.0624e-16
1.89447e-16
4.824e-17
1.01862e-17
1.77755e-18
2.43796e-19
2.31363e-20
2.60294e-21
5.67336e-22
3.66202e-17
1.87295e-17
6.41391e-18
1.51756e-18
2.34185e-19
2.50376e-20
1.90493e-21
1.0225e-22
3.98866e-24
1.11168e-25
2.50493e-24
1.60371e-24
5.1554e-12
1.22051e-11
1.98143e-11
2.57945e-11
2.60241e-11
6.15456e-09
5.25717e-11
5.08923e-07
9.26007e-11
9.1549e-11
9.35061e-11
1.07459e-05
4.15886e-13
3.27991e-12
1.25025e-11
3.07641e-11
4.98807e-11
3.71046e-11
3.99693e-11
4.48012e-11
9.9366e-09
3.69125e-08
8.23538e-11
7.88578e-11
6.54739e-15
8.86782e-14
6.2381e-13
2.86556e-12
1.00459e-11
3.11528e-11
9.40857e-11
2.4026e-10
4.08586e-10
5.66228e-10
5.31776e-10
6.47804e-11
5.12256e-16
4.15805e-15
1.8432e-14
1.00031e-13
4.98336e-13
1.99972e-12
6.92066e-12
2.33767e-11
7.36337e-11
1.66185e-10
1.77294e-10
1.54988e-11
5.00069e-17
2.8977e-16
9.23211e-16
4.23705e-15
2.12224e-14
9.94396e-14
4.0108e-13
1.39451e-12
4.53747e-12
1.27981e-11
2.22668e-11
1.97667e-12
4.4558e-18
2.25406e-17
5.15041e-17
1.99593e-16
9.85241e-16
4.68314e-15
2.10386e-14
9.10088e-14
2.69662e-13
6.2829e-13
1.47203e-12
1.77514e-13
3.11675e-19
1.62873e-18
2.82233e-18
9.30336e-18
4.93019e-17
2.5558e-16
1.20905e-15
5.75516e-15
1.81966e-14
3.05506e-14
5.86384e-14
1.59719e-14
1.54164e-20
9.32456e-20
1.29953e-19
3.7365e-19
2.30796e-18
1.51668e-17
8.35632e-17
3.84267e-16
1.13809e-15
1.72664e-15
2.042e-15
1.24236e-15
4.91788e-22
3.72467e-21
4.40098e-21
1.17209e-20
8.90453e-20
7.78924e-19
5.23851e-18
2.34246e-17
6.23817e-17
9.3658e-17
9.62666e-17
8.39024e-17
8.9351e-24
9.06456e-23
9.5278e-23
2.56836e-22
2.48267e-21
2.80506e-20
2.21108e-19
9.96934e-19
2.48796e-18
3.75567e-18
4.01063e-18
3.86722e-18
7.41668e-26
1.08695e-24
1.06302e-24
3.13099e-24
3.7969e-23
5.23754e-22
4.61606e-21
2.11908e-20
5.05946e-20
7.60499e-20
8.30399e-20
8.10965e-20
1.64515e-28
3.85423e-27
3.62974e-27
1.19743e-26
1.75178e-25
2.82797e-24
2.66664e-23
1.22201e-22
2.68574e-22
4.08317e-22
4.30694e-22
4.17801e-22
2.15212e-05
2.47637e-05
2.44187e-05
3.98448e-06
2.8546e-07
3.1983e-07
2.44775e-07
3.65743e-08
4.11897e-09
5.03466e-11
1.66007e-10
3.13839e-10
1.07688e-07
3.25163e-06
6.37146e-06
6.50701e-06
1.36407e-06
2.26177e-09
3.34369e-09
1.7195e-08
3.76094e-09
4.88725e-11
3.37317e-11
1.66141e-12
5.04623e-11
6.69447e-11
8.97856e-11
2.99073e-07
4.54217e-07
4.37279e-08
1.44691e-09
3.3366e-09
2.8459e-10
6.47817e-11
8.62502e-12
4.2485e-13
3.56445e-11
6.92641e-11
9.66515e-11
8.06953e-11
9.90799e-11
9.17762e-09
1.43855e-09
1.03174e-09
1.26841e-10
3.04048e-11
4.34802e-12
5.04516e-13
5.5318e-12
1.81832e-11
3.95267e-11
6.60276e-11
1.19643e-10
9.88395e-11
4.43896e-10
2.19347e-10
7.07211e-11
1.63539e-11
2.78864e-12
3.0939e-13
4.45491e-13
2.35627e-12
8.12644e-12
1.99453e-11
4.81708e-11
8.09618e-11
9.89318e-11
4.26591e-11
1.52744e-11
4.10248e-12
7.58267e-13
7.8022e-14
2.60704e-14
1.9164e-13
1.02443e-12
3.5819e-12
1.06058e-11
1.87103e-11
1.54131e-11
6.21874e-12
2.0709e-12
5.44298e-13
9.84516e-14
8.95861e-15
1.528e-15
1.04197e-14
8.04257e-14
3.96842e-13
1.39653e-12
2.4286e-12
1.46654e-12
5.50075e-13
1.63891e-13
3.828e-14
6.0932e-15
4.53933e-16
9.21032e-17
3.8794e-16
3.80485e-15
2.60271e-14
1.07322e-13
1.79769e-13
7.80184e-14
2.55825e-14
6.60643e-15
1.29179e-15
1.63427e-16
8.87517e-18
4.22354e-18
1.01397e-17
9.89932e-17
9.12527e-16
4.36392e-15
6.83276e-15
2.03117e-15
5.20309e-16
1.08266e-16
1.66872e-17
1.55294e-18
5.46462e-20
9.10051e-20
1.62202e-19
1.1657e-18
1.37928e-17
7.56909e-17
1.06057e-16
1.93585e-17
3.20482e-18
4.53213e-19
4.74019e-20
2.81614e-21
5.48576e-23
4.44342e-22
8.06269e-22
3.69881e-21
5.15156e-20
3.18572e-19
3.69084e-19
2.70467e-20
1.77254e-21
1.04225e-22
4.43267e-24
9.66848e-26
5.47105e-28
6.73883e-12
1.36413e-11
2.24807e-11
3.2307e-11
4.27619e-11
5.39559e-11
6.66051e-11
8.26668e-11
0.0126775
0.594328
1
1
2.60374e-12
6.94064e-12
1.32446e-11
2.11057e-11
2.99836e-11
3.98088e-11
5.12976e-11
6.69181e-11
0.00975846
0.565063
1
1
8.09986e-13
2.93444e-12
6.69776e-12
1.21081e-11
1.88207e-11
2.67859e-11
3.68171e-11
5.1813e-11
0.00249027
0.482987
1
1
1.85673e-13
9.78798e-13
2.83003e-12
6.07044e-12
1.07401e-11
1.69798e-11
2.55184e-11
3.80821e-11
5.89766e-11
0.363645
1
1
2.83662e-14
2.39019e-13
9.53182e-13
2.60339e-12
5.58078e-12
1.0344e-11
1.77383e-11
2.91497e-11
4.7266e-11
0.253511
0.975221
1
2.5495e-15
3.81587e-14
2.3461e-13
9.01401e-13
2.55943e-12