/*--------------------------------*- C++ -*----------------------------------*\
| =========                 |                                                 |
| \\      /  F ield         | OpenFOAM: The Open Source CFD Toolbox           |
|  \\    /   O peration     | Version:  v1606+                                |
|   \\  /    A nd           | Web:      www.OpenFOAM.com                      |
|    \\/     M anipulation  |                                                 |
\*---------------------------------------------------------------------------*/
FoamFile
{
    version     2.0;
    format      ascii;
    class       volScalarField;
    location    "0.59";
    object      Theta.particles;
}
// * * * * * * * * * * * * * * * * * * * * * * * * * * * * * * * * * * * * * //

dimensions      [0 2 -2 0 0 0 0];

internalField   nonuniform List<scalar> 
6000
(
0.000492547
0.000270246
0.000276562
0.000265562
0.000271364
0.000294017
0.000330202
0.00036712
0.000401672
0.000441681
0.000461921
0.000504744
0.000608214
0.000672017
0.000693255
0.000691791
0.000658235
0.000597524
0.000487234
0.000451162
0.000429763
0.000391684
0.000359665
0.000324457
0.000289436
0.000268253
0.000264806
0.000279245
0.000271339
0.000488914
0.000211379
0.000198067
0.000198876
0.000199775
0.000204072
0.000211876
0.000218591
0.000223496
0.000227065
0.000234439
0.000240089
0.000230671
0.000222161
0.000214252
0.000210203
0.000210754
0.000215531
0.000224262
0.000232666
0.000240605
0.000232632
0.000226016
0.000223008
0.000218031
0.000211139
0.000203554
0.000199371
0.000198308
0.000197028
0.000209502
0.000400554
0.00041979
0.000436998
0.000448841
0.000464669
0.000463036
0.000431821
0.000383334
0.000327963
0.000277992
0.000248057
0.000220888
0.000212376
0.000207358
0.000202039
0.000202278
0.000209018
0.000212633
0.000226072
0.00025539
0.00028885
0.00034251
0.000398166
0.000442492
0.000468095
0.000463373
0.00044504
0.000431058
0.000410963
0.000392469
0.000498823
0.000436907
0.000465991
0.000495538
0.000535466
0.000586689
0.00062794
0.000636581
0.000606458
0.000503394
0.000344379
0.00024151
0.000203989
0.00018532
0.000176078
0.000177099
0.00018854
0.000209181
0.000257637
0.000377224
0.000537161
0.000623
0.000640345
0.000626033
0.00058137
0.00053103
0.000491044
0.000459461
0.000428314
0.000489506
0.000511829
0.000384804
0.00039316
0.00041163
0.000444487
0.00049374
0.000545934
0.000601005
0.000688091
0.000776522
0.000750431
0.00051481
0.00029566
0.000215869
0.000198472
0.000199915
0.000225949
0.000330504
0.000577448
0.000779757
0.000761664
0.000667344
0.000585218
0.000536747
0.000487561
0.000441572
0.000410323
0.000391679
0.000381184
0.000508035
0.000329586
0.000245615
0.000235246
0.000248188
0.000274797
0.000314103
0.000371183
0.000432919
0.000472846
0.000523164
0.000609804
0.000667141
0.000498404
0.000275342
0.000202088
0.000209697
0.000320719
0.000550227
0.000662825
0.000585214
0.00050724
0.000463051
0.000425027
0.000363584
0.000310658
0.000274282
0.000248272
0.000234956
0.000242732
0.000326031
0.000240483
0.000181558
0.000165541
0.000171111
0.000192738
0.000233562
0.000331424
0.000404098
0.000450567
0.000474229
0.000484021
0.000468387
0.0004239
0.000335207
0.000207876
0.000228484
0.000377175
0.000432321
0.000465813
0.000474046
0.000464175
0.000436564
0.000392428
0.000324035
0.000230412
0.000192674
0.000171469
0.00016554
0.000180338
0.000237469
0.000211494
0.000155956
0.000133918
0.000135864
0.000155423
0.000200174
0.000279982
0.000366232
0.000417933
0.000437124
0.000434052
0.000434577
0.000386556
0.000273476
0.000218937
0.00021802
0.000290625
0.000400602
0.000427954
0.000427755
0.000428063
0.000406693
0.000354928
0.000271719
0.000197222
0.000155441
0.000136398
0.00013399
0.000154172
0.000210119
0.000172304
0.000136683
0.000113178
0.000112887
0.000126283
0.000160004
0.000209326
0.00032233
0.000399204
0.000425014
0.000419843
0.000405092
0.000370092
0.000246544
0.000193364
0.000196276
0.000288751
0.00037653
0.000402367
0.000415718
0.000416868
0.000387564
0.000309862
0.000206614
0.000159701
0.000126593
0.000113153
0.000113211
0.000134578
0.000171248
0.000150098
0.000125445
0.000104041
9.97769e-05
0.00010356
0.000122601
0.000166716
0.000235422
0.000368658
0.000408773
0.000406903
0.000389736
0.000359831
0.000244266
0.000163395
0.000169255
0.000284968
0.000365008
0.000385759
0.000404455
0.000398213
0.000354737
0.000230298
0.000163873
0.000122576
0.000104699
0.000100533
0.000103968
0.000124183
0.000149574
0.000139031
0.000117833
9.97642e-05
9.34815e-05
9.31661e-05
0.000101092
0.00012689
0.000189284
0.000317505
0.000390522
0.000403627
0.000381563
0.000355055
0.000238865
0.000162471
0.00016137
0.000273593
0.000359877
0.000380547
0.000398325
0.000380159
0.00029751
0.000182355
0.000126457
0.000102179
9.41378e-05
9.39058e-05
9.93571e-05
0.000116536
0.000138756
0.000130427
0.000111152
9.64934e-05
9.00912e-05
8.74634e-05
9.2167e-05
0.000107381
0.000148281
0.000232552
0.000364719
0.000390256
0.000380106
0.000350007
0.000214779
0.000157421
0.000156813
0.000252261
0.00035237
0.000380156
0.00037989
0.000346506
0.000219175
0.000144456
0.000107722
9.2525e-05
8.79016e-05
9.02151e-05
9.59639e-05
0.000109987
0.000130175
0.000123194
0.000105236
9.42856e-05
8.87395e-05
8.58892e-05
8.64097e-05
9.89186e-05
0.000128012
0.000191836
0.000318813
0.000378334
0.000382871
0.000333531
0.000187834
0.000139173
0.000138709
0.000217024
0.000336855
0.00037445
0.000363544
0.000293298
0.000181412
0.000125211
9.83216e-05
8.70996e-05
8.677e-05
8.97994e-05
9.49938e-05
0.000104864
0.000123208
0.00012146
0.000113367
0.000106725
0.000101126
9.62745e-05
9.18279e-05
9.47711e-05
0.000120495
0.000169198
0.000249728
0.000362182
0.000382301
0.000304266
0.000147664
0.00017759
0.000153348
0.000163504
0.000313031
0.000367435
0.00033832
0.000232045
0.000160013
0.000118016
9.53425e-05
9.5156e-05
9.99792e-05
0.000104713
0.000109811
0.000115965
0.000123907
0.000132148
0.000127517
0.000123254
0.000119941
0.000116739
0.000113036
0.000107058
0.00011623
0.000157372
0.000231331
0.000322201
0.000362772
0.000245658
0.000149602
8.37375e-05
0.00010915
0.00015829
0.00025787
0.000340735
0.000290072
0.0002132
0.000149861
0.000115286
0.000113074
0.00011986
0.000123147
0.000125417
0.00012773
0.000131215
0.000135462
0.000146101
0.000142925
0.000141252
0.000141901
0.00014289
0.000143545
0.000144118
0.000130859
0.000150114
0.00021517
0.000304589
0.000343166
0.000211104
0.000126715
7.06829e-05
7.75556e-05
0.000153363
0.000224839
0.000328366
0.000282289
0.000197519
0.000147322
0.000141429
0.000155368
0.000153539
0.000151318
0.000148725
0.000146828
0.000147648
0.000149966
0.00015863
0.000157613
0.000159403
0.000163644
0.00016878
0.000176647
0.000185008
0.000190271
0.000166647
0.000201687
0.000291951
0.000341833
0.000205644
0.000111338
9.33195e-05
9.58899e-05
0.000122561
0.00021956
0.000330082
0.000269266
0.0001946
0.000181452
0.000209238
0.000201686
0.000189112
0.00017923
0.000172063
0.000166303
0.000163538
0.000163195
0.000166721
0.000166916
0.000170086
0.000174401
0.000180974
0.000187583
0.000205381
0.000223963
0.000236118
0.000217159
0.000281751
0.00033973
0.000220437
0.000129534
0.000116461
0.000117768
0.000137016
0.000250918
0.000332687
0.000271705
0.000224523
0.000258295
0.000244768
0.000216388
0.000196115
0.000184988
0.000179391
0.000176547
0.000173136
0.000172493
0.000174607
0.000173068
0.000175039
0.000179475
0.000185513
0.000195346
0.000198769
0.000228084
0.000254259
0.000250512
0.000268517
0.000337485
0.000245459
0.000146632
0.000133476
0.000134497
0.000151791
0.000267934
0.000346475
0.000269202
0.000257593
0.000259381
0.000231429
0.00019412
0.000188516
0.000182088
0.000177377
0.000175293
0.000174918
0.00017839
0.000205188
0.000193802
0.00019333
0.00019626
0.000193684
0.00019474
0.000198836
0.000221394
0.000242704
0.000247488
0.000254425
0.000312435
0.000239009
0.000156547
0.000143348
0.000143903
0.000158739
0.000248431
0.000313183
0.000252864
0.000250189
0.000238533
0.00020559
0.000188918
0.000187018
0.000189405
0.00019349
0.000190295
0.000190465
0.000203236
0.000291923
0.000235877
0.000221487
0.000218534
0.00021065
0.00020408
0.000213885
0.000215564
0.000226629
0.000234122
0.000230545
0.00024998
0.000225647
0.000157786
0.000146747
0.000147095
0.000158952
0.000230305
0.000237658
0.000225725
0.000231902
0.000224439
0.000201323
0.000207351
0.000204951
0.000211133
0.000220291
0.000221433
0.000231665
0.000285344
0.000665068
0.000288749
0.000219371
0.000208135
0.000207771
0.000213034
0.000227419
0.000220617
0.000217334
0.000221303
0.000214061
0.000210522
0.000196941
0.000156603
0.000146939
0.00014703
0.000156487
0.000195741
0.000205419
0.000211269
0.000217015
0.000215128
0.000209999
0.000222125
0.00021405
0.00020604
0.000204644
0.000221487
0.000314092
0.000756641
0.00239133
0.00116013
0.000299204
0.000196286
0.000188437
0.000209405
0.000243084
0.000234456
0.000205961
0.000210714
0.000203275
0.000190868
0.000176044
0.000148604
0.000143104
0.000142695
0.000146251
0.000172004
0.000186539
0.000199935
0.000207137
0.000206042
0.000236898
0.000233943
0.000205499
0.000188371
0.000203427
0.000351943
0.00140964
0.00272498
0.00735557
0.0042644
0.00307881
0.00126708
0.000568679
0.00047945
0.000646701
0.000561228
0.000228274
0.000204843
0.000191667
0.000168515
0.000148774
0.000134674
0.000133786
0.00013377
0.000132717
0.000144345
0.000164163
0.000188897
0.000203289
0.000240551
0.00075197
0.000696751
0.000517011
0.00066701
0.00156751
0.00346534
0.0044927
0.0081443
0.0151226
0.00434285
0.00394308
0.00462335
0.00436256
0.00374939
0.00359373
0.0031885
0.00105856
0.000205764
0.000178618
0.000148715
0.000125989
0.000118733
0.000125324
0.000127241
0.000115648
0.000121898
0.000147502
0.000179093
0.000210239
0.00138246
0.00351315
0.00376001
0.00390557
0.00452353
0.0046455
0.00383941
0.00436948
0.0152958
0.0132978
0.00356308
0.00167585
0.00172858
0.00254306
0.00277613
0.00242315
0.00244183
0.00398509
0.00143115
0.000168008
0.000133189
0.000107178
0.000102486
0.000144613
0.000163844
0.00010077
0.000105794
0.000141847
0.00017443
0.00153949
0.00359714
0.00193807
0.00217077
0.00253841
0.00228751
0.00157875
0.00169129
0.00368246
0.0131107
0.010869
0.00334679
0.00156274
0.00115923
0.00104115
0.00101136
0.000979139
0.000943243
0.0014005
0.00272702
0.000449448
0.000121792
8.71588e-05
8.24834e-05
0.000510077
0.000853612
9.66518e-05
9.81811e-05
0.000144926
0.000351996
0.00229724
0.00120764
0.000915337
0.000964255
0.000999154
0.00104025
0.00117691
0.00160313
0.00345227
0.0109643
0.00896679
0.00298448
0.00152212
0.00114316
0.00100703
0.000964455
0.000943589
0.000902215
0.000822714
0.00138045
0.00259689
0.000245414
7.83202e-05
0.000203401
0.00169516
0.00145592
0.000210798
9.70548e-05
0.000169287
0.00119555
0.00129962
0.000796018
0.000888795
0.000937093
0.000963537
0.00101346
0.00116367
0.00156644
0.00307137
0.00894466
0.0070062
0.00278409
0.00149642
0.00111619
0.000989489
0.000958141
0.000943191
0.000911669
0.000813568
0.000694236
0.00161887
0.00244866
0.000282562
0.00196432
0.000872228
0.000706405
0.00087275
0.000192214
0.000488401
0.00208444
0.00077925
0.000777323
0.000890661
0.00093403
0.000956279
0.000992638
0.00113023
0.00153991
0.00288851
0.00699601
0.00592464
0.00251903
0.00139939
0.00107771
0.00098473
0.00096154
0.000958169
0.000928968
0.000830226
0.000651827
0.000457757
0.00162024
0.0018462
0.000953824
0.000430998
0.000462215
0.000925043
0.000521514
0.0019288
0.000594679
0.00059129
0.00078884
0.000905472
0.000945511
0.000957837
0.000987398
0.00109095
0.0014354
0.00259957
0.00593313
0.00500005
0.00230428
0.00133373
0.00106028
0.000985491
0.000981765
0.000979727
0.000947352
0.000850887
0.000676999
0.00038461
0.000264683
0.000833608
0.00019511
0.000361652
0.000386028
0.00025952
0.000925933
0.000439707
0.000330951
0.000612763
0.000806398
0.000925044
0.000969989
0.000976186
0.000987594
0.00107313
0.00137048
0.00238934
0.00494549
0.00471719
0.00208376
0.00121501
0.00101576
0.000994566
0.00100424
0.00100149
0.000967517
0.000858992
0.000690213
0.000399373
0.000200891
0.000147487
0.000142178
0.00027581
0.000300777
0.000147026
0.000203568
0.00018341
0.000325828
0.000633704
0.000814262
0.000944754
0.000992546
0.00100211
0.000996175
0.00102886
0.00124317
0.00214908
0.00461467
0.00458756
0.00171437
0.00106696
0.000987242
0.00101074
0.00102476
0.00101617
0.000974174
0.000860497
0.000702013
0.000435658
0.000187214
0.000120586
0.000108389
0.000197135
0.000234927
0.00011451
0.000104601
0.000163696
0.000347895
0.000651465
0.000816393
0.000952493
0.00100851
0.00102247
0.001019
0.00100671
0.00111212
0.00180413
0.00449408
0.0041205
0.00132995
0.000958521
0.000964899
0.00101611
0.00103377
0.00102052
0.000972972
0.000864136
0.000701288
0.000469434
0.000185666
0.000114519
8.85097e-05
0.000146085
0.000184524
9.15779e-05
9.56834e-05
0.000158471
0.000378193
0.000653702
0.000819345
0.000952454
0.00101373
0.0010316
0.00102697
0.000986489
0.000991598
0.0014097
0.00416118
0.00347269
0.00115548
0.000917228
0.000957054
0.00102813
0.00103695
0.00101717
0.000966046
0.000859979
0.000690034
0.000503421
0.000195442
0.000113365
7.31208e-05
0.000114882
0.000134693
7.56072e-05
9.51227e-05
0.000161166
0.000418992
0.000643883
0.000817992
0.000945433
0.00100871
0.00103502
0.00103733
0.000979916
0.000942482
0.00120163
0.00353897
0.00319239
0.00107981
0.000898393
0.000959338
0.00102961
0.00102976
0.00100669
0.000949285
0.000833355
0.000683905
0.000509672
0.000205222
0.000111856
6.55585e-05
9.25189e-05
0.000104092
6.38778e-05
9.50168e-05
0.000163054
0.000438115
0.000637496
0.000791193
0.000928986
0.000998042
0.0010308
0.00103731
0.000980727
0.000920348
0.00111477
0.00321768
0.00296103
0.00101
0.000887638
0.000971476
0.00101922
0.00101341
0.000981756
0.000912895
0.000798761
0.000650348
0.000500235
0.000245627
0.000120482
6.48235e-05
7.76128e-05
8.76822e-05
5.97694e-05
0.000106441
0.000178463
0.000439361
0.000611424
0.000759501
0.00089093
0.000975905
0.00101511
0.00102399
0.000985266
0.000905769
0.00105678
0.00303129
0.0025264
0.000889351
0.000886053
0.000975145
0.000998525
0.000984492
0.000944505
0.000860504
0.000745136
0.000614905
0.000485902
0.000262528
0.00011971
7.22838e-05
6.97394e-05
7.64421e-05
5.99477e-05
0.000108109
0.000198196
0.000433862
0.000578871
0.000714747
0.000838161
0.000939498
0.000988621
0.00100345
0.000983007
0.000901642
0.000949661
0.00267149
0.00199758
0.000812292
0.000894814
0.000974265
0.000975562
0.000955725
0.000895659
0.000790548
0.000690712
0.000573882
0.000461076
0.000267901
0.000116186
8.59044e-05
6.71594e-05
7.15083e-05
7.00619e-05
0.00010609
0.000208653
0.000417924
0.000539629
0.000662333
0.000774309
0.000890861
0.000959507
0.000980838
0.000976639
0.000903986
0.000856039
0.00215856
0.00158644
0.000778489
0.000913428
0.000959523
0.000960816
0.000923557
0.000835433
0.000728107
0.000628385
0.000528378
0.000433687
0.000267762
0.000105216
8.965e-05
6.8766e-05
7.0713e-05
7.98118e-05
9.75604e-05
0.000210556
0.00039304
0.000497097
0.000604672
0.000713535
0.000830273
0.000927636
0.000965382
0.000961083
0.000917446
0.000805135
0.00171668
0.00130902
0.000767708
0.000920118
0.000950828
0.000943534
0.000882714
0.000773738
0.000662258
0.000567833
0.000483247
0.000398207
0.000257517
9.14364e-05
8.40355e-05
7.5153e-05
7.43109e-05
7.9286e-05
8.09527e-05
0.00020686
0.000362371
0.000454478
0.000548068
0.000649992
0.000768107
0.000887378
0.000951098
0.000953167
0.000925697
0.000783876
0.00140347
0.00114832
0.000781927
0.000922214
0.000946385
0.000912484
0.00082303
0.000704099
0.000597891
0.00051157
0.000435224
0.000356984
0.000234049
8.2085e-05
6.87524e-05
7.63459e-05
7.53735e-05
6.73317e-05
7.10647e-05
0.000193558
0.000324523
0.00041015
0.000495299
0.000590253
0.000701194
0.000827459
0.000921157
0.000950505
0.000927352
0.000783825
0.00119258
0.00107084
0.000788955
0.000919178
0.000923235
0.000864923
0.000755674
0.000636657
0.000539631
0.000460915
0.000393986
0.000320443
0.000203169
7.7011e-05
5.84049e-05
7.21111e-05
6.94685e-05
5.58176e-05
6.66857e-05
0.000172911
0.000290764
0.000372152
0.000447803
0.000534045
0.000635593
0.000758101
0.000872548
0.000931821
0.000924736
0.000790628
0.00108231
0.000995269
0.000778865
0.000901525
0.000888486
0.000812155
0.000691648
0.000576686
0.00048425
0.00041574
0.000357287
0.000286639
0.000173672
7.25203e-05
5.57629e-05
6.66721e-05
6.45224e-05
5.31532e-05
6.434e-05
0.000151205
0.000260916
0.00033833
0.000404196
0.00048019
0.000575528
0.000691122
0.000814129
0.000893088
0.000905971
0.000785493
0.00100772
0.00088982
0.000753803
0.000879647
0.000854536
0.000761374
0.000630728
0.000517631
0.000432167
0.000373292
0.000321977
0.000256895
0.000152139
6.94971e-05
5.63845e-05
6.48025e-05
6.37259e-05
5.51992e-05
6.263e-05
0.000134525
0.000235566
0.000305728
0.000364725
0.000430073
0.000516418
0.000625274
0.000755178
0.000853351
0.00088003
0.000762965
0.000907507
0.000827054
0.000737494
0.00084791
0.000813302
0.000705921
0.000567
0.000455978
0.000382451
0.000332849
0.000288651
0.000227902
0.000133339
6.64609e-05
6.16034e-05
6.80743e-05
6.74421e-05
5.91546e-05
6.08618e-05
0.000119992
0.000212382
0.000276513
0.000327442
0.000382635
0.000454727
0.000555591
0.000690239
0.000804967
0.000844589
0.000742911
0.000833773
0.000808784
0.000722636
0.000799614
0.000758739
0.000635589
0.000495446
0.000396045
0.000337162
0.000296905
0.000257961
0.000202595
0.000114521
6.50517e-05
6.32736e-05
7.19121e-05
7.06075e-05
5.97587e-05
6.11622e-05
0.000107392
0.000191697
0.000250941
0.000295294
0.000339159
0.000393959
0.000479182
0.000607185
0.00074243
0.000793958
0.000723651
0.000815463
0.000801408
0.00069722
0.000743673
0.000692128
0.000555657
0.000423562
0.000343703
0.000298673
0.000266817
0.000232222
0.000180381
0.000106743
6.69341e-05
6.47968e-05
7.29286e-05
7.2991e-05
6.30175e-05
6.28036e-05
0.000101478
0.000174133
0.000229581
0.000267541
0.000301687
0.000342108
0.000404413
0.000513986
0.000667402
0.00074023
0.000707248
0.000814738
0.000775115
0.00067752
0.00068468
0.000613366
0.000472021
0.00036038
0.000298735
0.000264222
0.00023865
0.000208667
0.000158838
9.97002e-05
6.88752e-05
6.96394e-05
7.83988e-05
7.77819e-05
6.81544e-05
6.69463e-05
9.75487e-05
0.000157171
0.000209901
0.000241734
0.000267735
0.000295689
0.00033868
0.000423782
0.000568532
0.000678308
0.000690764
0.000808267
0.000738006
0.000669249
0.000625035
0.000522554
0.000391095
0.000305516
0.000261352
0.000234907
0.000212611
0.000183681
0.000131039
9.44429e-05
7.22116e-05
7.40204e-05
8.27793e-05
8.26562e-05
7.40129e-05
7.2399e-05
9.53296e-05
0.000135991
0.000189519
0.000218341
0.000238147
0.000256258
0.000282629
0.000339089
0.000457783
0.000606575
0.000683477
0.000772715
0.000722825
0.000664547
0.00056761
0.000435161
0.000319684
0.000258307
0.000226892
0.00020715
0.000186
0.000155319
0.000119525
9.21411e-05
7.69457e-05
7.95842e-05
8.7654e-05
8.82482e-05
8.12599e-05
8.01406e-05
9.62202e-05
0.000126602
0.000164983
0.000193056
0.000209804
0.000221925
0.000237021
0.000272285
0.000362437
0.000523421
0.000680973
0.000749501
0.000742075
0.000670355
0.000513612
0.000354349
0.000258503
0.000216083
0.000193519
0.000176093
0.000153103
0.000127677
0.000111316
9.21735e-05
8.2789e-05
8.53661e-05
9.22565e-05
9.34279e-05
8.83828e-05
8.86241e-05
9.98258e-05
0.000120341
0.00013646
0.000161227
0.000177705
0.000187854
0.000199248
0.00022284
0.000285538
0.000434029
0.000668858
0.000760308
0.000772987
0.000674882
0.000451701
0.000279279
0.000202007
0.000172761
0.000155146
0.000133252
0.000124703
0.000116741
0.00010611
9.42179e-05
8.85524e-05
9.00079e-05
9.50107e-05
9.61872e-05
9.31432e-05
9.49763e-05
0.00010388
0.000116861
0.000125962
0.000130834
0.000135119
0.000147268
0.000158843
0.00017831
0.000225616
0.000356072
0.000635144
0.000779738
0.000789261
0.000626153
0.000374184
0.000215944
0.000149623
0.000125127
0.000118992
0.000116833
0.000114089
0.000110202
0.000103458
9.58135e-05
9.17171e-05
9.2001e-05
9.50883e-05
9.61624e-05
9.51433e-05
9.80816e-05
0.000105518
0.000114263
0.000119473
0.000120695
0.000120226
0.00011849
0.000119184
0.000130262
0.00017236
0.000277023
0.000567145
0.00079394
0.000743011
0.000561642
0.000306409
0.000159359
0.000113611
0.000105605
0.000105609
0.000107318
0.000107059
0.000104976
0.000100238
9.45837e-05
9.14113e-05
9.11036e-05
9.28469e-05
9.37877e-05
9.42069e-05
9.68959e-05
0.000102445
0.000108446
0.000112091
0.000113213
0.000112712
0.00010984
0.00010734
0.000108654
0.000126489
0.000215399
0.000474483
0.000755795
0.000678174
0.000499453
0.000245612
0.000125487
9.7546e-05
9.48931e-05
9.77815e-05
0.000100992
0.000101336
9.94603e-05
9.53411e-05
9.07767e-05
8.86057e-05
8.83205e-05
8.91548e-05
8.98672e-05
9.08996e-05
9.25666e-05
9.55533e-05
0.000100035
0.000104108
0.00010651
0.000107214
0.000106074
0.000103241
0.000101993
0.000111196
0.000168092
0.000356931
0.000685708
0.000614045
0.000408932
0.000189859
0.000109199
9.05874e-05
9.06761e-05
9.46698e-05
9.75369e-05
9.75788e-05
9.52984e-05
9.13477e-05
8.78507e-05
8.65905e-05
8.66416e-05
8.71753e-05
8.78683e-05
8.90556e-05
9.02341e-05
9.18377e-05
9.47997e-05
9.88648e-05
0.000102623
0.000105009
0.000105631
0.000104736
0.000103501
0.000108175
0.000138343
0.000281576
0.000570416
0.000545567
0.000311455
0.000154585
0.000104547
9.24413e-05
9.2915e-05
9.60034e-05
9.75957e-05
9.9018e-05
0.000100642
0.000100548
0.000100263
0.000100948
0.000102352
0.000103992
0.000105763
0.000107817
0.000109873
0.000112068
0.000114856
0.00011782
0.000119264
0.000117726
0.000112773
0.0001102
0.000112359
0.000116917
0.000133638
0.000212413
0.000446852
0.000466777
0.000230112
0.000142765
0.000111847
0.0001026
0.00010269
0.000109349
0.000113719
0.000115967
0.000116527
0.000116194
0.000116009
0.000116451
0.00011738
0.000118568
0.000120042
0.000121942
0.000124206
0.000127021
0.000130753
0.000135559
0.000140649
0.00014482
0.000146197
0.000143903
0.000136685
0.000133258
0.000147643
0.000201757
0.000333269
0.000365685
0.000205068
0.000152034
0.00012948
0.000125222
0.000126711
0.000127508
0.000127927
0.000127614
0.000126704
0.000125637
0.000124838
0.000124496
0.000124597
0.000125062
0.000125929
0.00012733
0.00012943
0.000132522
0.000136939
0.000142923
0.000150189
0.000158088
0.000165521
0.000172182
0.00017783
0.000175942
0.000164774
0.000215029
0.000317588
0.000333996
0.000213194
0.000168467
0.000156809
0.000149333
0.000143487
0.000139982
0.000137543
0.000135526
0.000133717
0.000132128
0.000130856
0.000129963
0.000129447
0.000129291
0.00012955
0.000130392
0.000132081
0.000135038
0.00013977
0.000146788
0.000155918
0.000166563
0.000177561
0.000189925
0.000200114
0.000208849
0.000213522
0.000229212
0.00032183
0.000335665
0.000218137
0.000190026
0.000176501
0.000163729
0.000154925
0.000149177
0.000145178
0.00014217
0.000139768
0.000137794
0.000136175
0.00013487
0.000133826
0.000133015
0.000132464
0.000132321
0.000132866
0.000134708
0.000138635
0.00014562
0.000155908
0.000167804
0.000179828
0.000196555
0.000209879
0.000218883
0.000229561
0.000244941
0.000299584
0.000326139
0.000231631
0.000199581
0.000183941
0.000171827
0.000162698
0.000156223
0.000151584
0.000148122
0.000145435
0.000143277
0.000141482
0.000139919
0.00013846
0.000137006
0.000135473
0.000133877
0.000132485
0.000131782
0.000133051
0.000137613
0.000143365
0.000151499
0.000164139
0.000181409
0.000197522
0.000216755
0.000223074
0.000232278
0.000257606
0.00029917
0.000220469
0.000197637
0.000185614
0.000175833
0.000167661
0.000161444
0.000156865
0.000153458
0.00015087
0.000148837
0.000147152
0.000145626
0.000144061
0.000142293
0.000140133
0.000137355
0.000133963
0.000129948
0.00012633
0.000126531
0.000132545
0.000140827
0.000145837
0.000167213
0.000174284
0.000206345
0.000208961
0.000214008
0.000219758
0.000271132
0.000208164
0.000192325
0.000184383
0.000177078
0.000170419
0.000165081
0.000161123
0.00015824
0.000156145
0.000154597
0.000153373
0.000152257
0.00015103
0.000149507
0.000147484
0.000144674
0.000140684
0.000135605
0.00012989
0.000127273
0.000133201
0.000136377
0.00014744
0.000169524
0.000181034
0.000205183
0.000192637
0.000194642
0.000189996
0.000250193
0.000200131
0.000187638
0.000181989
0.000176689
0.000171651
0.00016754
0.000164539
0.000162527
0.000161265
0.000160515
0.00016004
0.0001596
0.000158988
0.000158039
0.000156609
0.000154536
0.000151646
0.00014801
0.00014408
0.000140312
0.000137623
0.000146078
0.000139156
0.000169867
0.00019378
0.000210238
0.000172534
0.000168468
0.000164921
0.00023439
0.000195304
0.000183734
0.000179097
0.000175285
0.000171708
0.000168962
0.000167217
0.000166351
0.000166162
0.000166388
0.0001668
0.000167113
0.000167112
0.000166691
0.000165801
0.000164446
0.000162596
0.000160365
0.0001586
0.000157799
0.000154072
0.000148669
0.000150724
0.000154698
0.000192953
0.000200911
0.00017452
0.000148483
0.000140078
0.00022018
0.000189802
0.000179471
0.000175659
0.000173136
0.00017107
0.0001697
0.000169264
0.0001697
0.000170682
0.000171937
0.000173288
0.000174389
0.000174968
0.000174941
0.00017437
0.000173411
0.000172107
0.000170593
0.000169526
0.00016984
0.00016808
0.000158172
0.000155564
0.00016582
0.000181241
0.000170641
0.000183403
0.000154045
0.000116788
0.000206084
0.000183095
0.000174576
0.000171804
0.000170535
0.000169852
0.000169899
0.000170789
0.000172397
0.000174607
0.000177042
0.000179418
0.000181198
0.000182089
0.000182235
0.000181756
0.000181042
0.000180179
0.000179125
0.000178324
0.000177975
0.000177438
0.000174427
0.000167381
0.000171647
0.000188031
0.00018621
0.000176366
0.000160494
0.000142232
0.000193798
0.000176048
0.000169417
0.000167773
0.00016769
0.000168244
0.000169503
0.000171506
0.000174192
0.000177543
0.000180974
0.000184007
0.000185391
0.000185398
0.000185121
0.000184557
0.000184451
0.000185054
0.000185319
0.000185169
0.000184763
0.000184193
0.000184473
0.000185235
0.000183581
0.000200376
0.000200124
0.000188324
0.000175049
0.000200275
0.000183069
0.000169022
0.000164257
0.00016375
0.000164681
0.00016621
0.000168299
0.00017105
0.000174447
0.000178054
0.000181181
0.000182869
0.000180539
0.000177404
0.000175917
0.000175817
0.000177392
0.000181479
0.000184891
0.000187679
0.000188964
0.000189447
0.000189605
0.000191417
0.000195344
0.000196195
0.000205757
0.000192572
0.000179832
0.000221492
0.00017331
0.000162518
0.000159389
0.000159801
0.000161422
0.000163472
0.000166054
0.000169183
0.000172406
0.00017439
0.000173284
0.000166956
0.000159473
0.000153338
0.000149729
0.000150888
0.00015464
0.000161864
0.000170381
0.000180817
0.000187715
0.000190477
0.000191481
0.000192137
0.000194287
0.00019719
0.000194606
0.000183973
0.000187169
0.000230677
0.000164772
0.000156959
0.000154878
0.000155736
0.000157562
0.000159823
0.000162588
0.000165315
0.000166711
0.000162524
0.000153352
0.000145517
0.000138973
0.000133707
0.000131835
0.000131481
0.000133842
0.000139227
0.00014584
0.00015808
0.000175172
0.00018601
0.000188985
0.000189871
0.000189686
0.000190086
0.00018911
0.000181664
0.00018162
0.000222648
0.000157814
0.000152382
0.000150557
0.00015128
0.000152902
0.000155284
0.00015782
0.00015939
0.00015555
0.000147275
0.000142474
0.000138791
0.000133726
0.000128423
0.00012887
0.000127723
0.000128513
0.000132491
0.000136448
0.000141632
0.000152064
0.000170876
0.000181924
0.000184137
0.000184025
0.000182497
0.000180953
0.000176973
0.000175526
0.000203284
0.000152025
0.000148077
0.000146117
0.00014644
0.000147811
0.000149992
0.000151924
0.000150783
0.00014454
0.000145975
0.00014098
0.000132147
0.000126588
0.00012215
0.000122164
0.000123419
0.000124142
0.000127178
0.000137859
0.000145881
0.000150335
0.000151667
0.000166442
0.000175903
0.000177376
0.000175758
0.000173209
0.000171168
0.000173449
0.000192086
0.000146165
0.000143164
0.00014151
0.00014168
0.000142512
0.000143964
0.00014406
0.00014203
0.000149541
0.000149676
0.000138385
0.000128436
0.00012366
0.000120664
0.000120213
0.000120899
0.000122044
0.000125791
0.000136884
0.000146837
0.000157261
0.000159579
0.000147376
0.000162543
0.000170233
0.000169186
0.000166653
0.000165418
0.000169793
0.000182641
0.000139821
0.000137703
0.000136677
0.000136717
0.000136804
0.000136391
0.000136516
0.000154159
0.000162196
0.000146738
0.000134403
0.000129068
0.000125333
0.000123023
0.000124013
0.000123684
0.000123551
0.000126306
0.000134029
0.000144778
0.000156762
0.000167915
0.000158586
0.000147153
0.000162599
0.000162838
0.000159715
0.000158168
0.000160859
0.000169446
0.000133258
0.000132292
0.000132017
0.000131674
0.000129987
0.000131659
0.000149969
0.000166076
0.000156442
0.000141193
0.000131372
0.000127443
0.000123926
0.000122755
0.000123642
0.000123893
0.000122992
0.000124364
0.000130997
0.000138908
0.000151283
0.000166223
0.000174473
0.000159831
0.000154052
0.000154339
0.000150906
0.000149186
0.000150018
0.000153871
0.000127064
0.000127781
0.00012781
0.000128215
0.000122631
0.000136965
0.000160177
0.000156634
0.000148517
0.000135474
0.000129075
0.000123109
0.000121264
0.000121093
0.00012129
0.000121027
0.000119965
0.000124389
0.000125252
0.000131756
0.000143211
0.000157337
0.000174597
0.000182648
0.00017244
0.000142339
0.000140659
0.000138984
0.000139058
0.000139474
0.000121928
0.000123703
0.000124859
0.000135284
0.000141555
0.00014944
0.000132013
0.00014219
0.000148028
0.000134753
0.000124518
0.000119792
0.000118996
0.00011941
0.000119506
0.000118841
0.000117821
0.00012201
0.00012843
0.000125
0.000135613
0.000149246
0.00016747
0.000189185
0.000190318
0.000144287
0.000128873
0.000127132
0.000128268
0.000126947
0.000116744
0.000119848
0.000126821
0.000127162
0.000126374
0.000163907
0.000200302
0.000160174
0.00015494
0.000138981
0.000121344
0.000117562
0.000117872
0.000118832
0.000119067
0.000118375
0.000117045
0.000120234
0.000130089
0.000128699
0.000128347
0.000142736
0.000161178
0.000179178
0.000173633
0.000170902
0.000126774
0.000112487
0.000118349
0.000116807
0.000113026
0.00011253
0.00011358
0.000119215
0.000123009
0.000146502
0.000230405
0.000200081
0.0001847
0.000139811
0.000120911
0.000117292
0.000118437
0.00011979
0.000120359
0.000119791
0.000118534
0.000120647
0.000122446
0.000127847
0.000124711
0.000138498
0.000158135
0.000171582
0.000153281
0.00015596
0.000159617
0.000122411
0.000111834
0.000108714
0.000104301
0.000101115
0.000111218
0.000128673
0.000136472
0.000144363