/*--------------------------------*- C++ -*----------------------------------*\
| =========                 |                                                 |
| \\      /  F ield         | OpenFOAM: The Open Source CFD Toolbox           |
|  \\    /   O peration     | Version:  v1606+                                |
|   \\  /    A nd           | Web:      www.OpenFOAM.com                      |
|    \\/     M anipulation  |                                                 |
\*---------------------------------------------------------------------------*/
FoamFile
{
    version     2.0;
    format      ascii;
    class       volVectorField;
    location    "0.59";
    object      Ur;
}
// * * * * * * * * * * * * * * * * * * * * * * * * * * * * * * * * * * * * * //

dimensions      [0 1 -1 0 0 0 0];

internalField   nonuniform List<vector> 
6000
(
(0.0178303 -0.592989 0)
(0.0180982 -0.569686 0)
(0.0157126 -0.581181 0)
(0.0200831 -0.57596 0)
(0.0280496 -0.584431 0)
(0.0449147 -0.597077 0)
(0.0608533 -0.606025 0)
(0.0647043 -0.611219 0)
(0.0536285 -0.612327 0)
(0.032972 -0.61453 0)
(0.0203699 -0.621392 0)
(0.020803 -0.641319 0)
(0.0248009 -0.670498 0)
(0.0212402 -0.675736 0)
(0.0062866 -0.675704 0)
(-0.0125449 -0.675324 0)
(-0.0254965 -0.675245 0)
(-0.027447 -0.6669 0)
(-0.0237133 -0.6364 0)
(-0.0218784 -0.618702 0)
(-0.0341742 -0.612706 0)
(-0.0546395 -0.611294 0)
(-0.0630003 -0.610398 0)
(-0.0565929 -0.604834 0)
(-0.0393743 -0.595466 0)
(-0.022331 -0.582532 0)
(-0.0151892 -0.574378 0)
(-0.0118029 -0.582158 0)
(-0.0157648 -0.568653 0)
(-0.0173293 -0.591638 0)
(0.00188787 -0.905753 0)
(0.00010779 -0.881924 0)
(0.00140167 -0.89802 0)
(0.0124078 -0.900168 0)
(0.0268808 -0.90532 0)
(0.0459317 -0.912869 0)
(0.0668852 -0.912436 0)
(0.0834995 -0.906777 0)
(0.0910084 -0.894872 0)
(0.0889698 -0.89385 0)
(0.0894522 -0.907888 0)
(0.0899383 -0.902961 0)
(0.0768196 -0.903586 0)
(0.0511971 -0.887834 0)
(0.0151293 -0.873847 0)
(-0.0260164 -0.876067 0)
(-0.0602562 -0.890498 0)
(-0.0836943 -0.906461 0)
(-0.092979 -0.903228 0)
(-0.0898407 -0.909553 0)
(-0.0882704 -0.891815 0)
(-0.0886546 -0.896866 0)
(-0.0788561 -0.90925 0)
(-0.0602132 -0.914026 0)
(-0.0380322 -0.913258 0)
(-0.0189339 -0.905055 0)
(-0.00458367 -0.899377 0)
(0.0051801 -0.896393 0)
(0.00392451 -0.878255 0)
(-0.00046173 -0.902538 0)
(-0.00217669 -0.866403 0)
(-0.00965449 -0.86097 0)
(-0.00716341 -0.88759 0)
(0.0134816 -0.89959 0)
(0.0343627 -0.898039 0)
(0.0484319 -0.891702 0)
(0.0608316 -0.870209 0)
(0.0789606 -0.840113 0)
(0.0995861 -0.791969 0)
(0.104533 -0.746457 0)
(0.0918524 -0.73939 0)
(0.0778373 -0.724015 0)
(0.0692045 -0.720008 0)
(0.0518419 -0.695123 0)
(0.0162939 -0.67095 0)
(-0.0267712 -0.674367 0)
(-0.0593912 -0.699813 0)
(-0.0740352 -0.723025 0)
(-0.0810113 -0.728472 0)
(-0.0954903 -0.744781 0)
(-0.105581 -0.755019 0)
(-0.0954069 -0.804704 0)
(-0.0736944 -0.850256 0)
(-0.0555629 -0.878018 0)
(-0.0422397 -0.895567 0)
(-0.0275576 -0.899325 0)
(-0.00608397 -0.898618 0)
(0.0137665 -0.883167 0)
(0.0136145 -0.853401 0)
(0.0033281 -0.859988 0)
(-0.00259304 -1.03923 0)
(-0.0164692 -1.01283 0)
(-0.0229726 -1.06039 0)
(-0.00802648 -1.08687 0)
(0.0123454 -1.09927 0)
(0.0380056 -1.11586 0)
(0.0783123 -1.11744 0)
(0.135804 -1.11264 0)
(0.190124 -1.0668 0)
(0.194431 -0.972041 0)
(0.153864 -0.887292 0)
(0.122369 -0.805401 0)
(0.100632 -0.762695 0)
(0.0665657 -0.718761 0)
(0.0194855 -0.686334 0)
(-0.0323119 -0.69009 0)
(-0.0768427 -0.727452 0)
(-0.108274 -0.770038 0)
(-0.128917 -0.824632 0)
(-0.164219 -0.907948 0)
(-0.19969 -0.997121 0)
(-0.181029 -1.08333 0)
(-0.1216 -1.11907 0)
(-0.0660307 -1.12173 0)
(-0.0283623 -1.1168 0)
(-0.00349955 -1.09846 0)
(0.0167379 -1.08477 0)
(0.0311301 -1.05394 0)
(0.0208614 -1.00161 0)
(0.00319133 -1.03164 0)
(-0.00452195 -1.07148 0)
(-0.0185124 -1.02474 0)
(-0.0423336 -1.08675 0)
(-0.068505 -1.12748 0)
(-0.0803957 -1.15654 0)
(-0.0635247 -1.19599 0)
(-0.0120841 -1.22226 0)
(0.0697354 -1.22906 0)
(0.162492 -1.19598 0)
(0.235379 -1.1142 0)
(0.262847 -1.04634 0)
(0.245234 -0.939754 0)
(0.191242 -0.802963 0)
(0.113048 -0.704945 0)
(0.0316243 -0.661916 0)
(-0.0513901 -0.666716 0)
(-0.130809 -0.721374 0)
(-0.210211 -0.827632 0)
(-0.256367 -0.974813 0)
(-0.257392 -1.06052 0)
(-0.222779 -1.1346 0)
(-0.145958 -1.20881 0)
(-0.0525533 -1.23272 0)
(0.0257606 -1.22028 0)
(0.0722131 -1.19261 0)
(0.087182 -1.15329 0)
(0.0738965 -1.12304 0)
(0.0468878 -1.07817 0)
(0.0214764 -1.00925 0)
(0.00523181 -1.06217 0)
(-0.013269 -1.06065 0)
(-0.0391618 -1.00631 0)
(-0.0876389 -1.02128 0)
(-0.165976 -1.05687 0)
(-0.235823 -1.12192 0)
(-0.259553 -1.22201 0)
(-0.242446 -1.32512 0)
(-0.169097 -1.40616 0)
(-0.0331621 -1.40592 0)
(0.112533 -1.30263 0)
(0.207513 -1.15616 0)
(0.288712 -1.04078 0)
(0.314822 -0.871667 0)
(0.212369 -0.703439 0)
(0.0562762 -0.631782 0)
(-0.0908065 -0.639858 0)
(-0.245744 -0.737577 0)
(-0.317553 -0.90051 0)
(-0.270733 -1.0757 0)
(-0.184589 -1.18608 0)
(-0.084363 -1.32926 0)
(0.0559697 -1.41442 0)
(0.183526 -1.39912 0)
(0.248432 -1.31198 0)
(0.259874 -1.21249 0)
(0.234514 -1.11706 0)
(0.16397 -1.05226 0)
(0.0855898 -1.01511 0)
(0.0384565 -0.991065 0)
(0.0134147 -1.04989 0)
(-0.0082494 -0.866276 0)
(-0.0217067 -0.843419 0)
(-0.0781774 -0.808532 0)
(-0.178484 -0.830401 0)
(-0.272317 -0.904027 0)
(-0.346975 -1.03115 0)
(-0.372668 -1.08529 0)
(-0.38069 -1.2322 0)
(-0.316391 -1.32469 0)
(-0.201993 -1.33759 0)
(-0.0500772 -1.30052 0)
(0.145185 -1.26654 0)
(0.287977 -0.926198 0)
(0.282347 -0.659931 0)
(0.101104 -0.548077 0)
(-0.157585 -0.562475 0)
(-0.294158 -0.712241 0)
(-0.266277 -1.00967 0)
(-0.108658 -1.31346 0)
(0.08304 -1.30722 0)
(0.219594 -1.3281 0)
(0.319252 -1.30576 0)
(0.374292 -1.21236 0)
(0.361433 -1.06703 0)
(0.335331 -1.0221 0)
(0.264426 -0.903016 0)
(0.173766 -0.828783 0)
(0.0769324 -0.805323 0)
(0.0211604 -0.83499 0)
(0.00712713 -0.85968 0)
(0.00533749 -0.804399 0)
(0.00729742 -0.761267 0)
(-0.0419686 -0.65919 0)
(-0.130157 -0.666953 0)
(-0.223153 -0.734958 0)
(-0.33297 -0.87745 0)
(-0.382665 -0.96116 0)
(-0.406669 -1.13694 0)
(-0.37476 -1.24631 0)
(-0.303525 -1.25742 0)
(-0.227135 -1.24908 0)
(-0.125365 -1.24837 0)
(0.072039 -1.12914 0)
(0.214518 -0.667096 0)
(0.0942741 -0.412871 0)
(-0.135281 -0.440259 0)
(-0.202929 -0.805524 0)
(-0.0182815 -1.12407 0)
(0.146351 -1.25634 0)
(0.231125 -1.23919 0)
(0.302705 -1.2458 0)
(0.370576 -1.22823 0)
(0.396393 -1.11729 0)
(0.36915 -0.947374 0)
(0.321322 -0.871583 0)
(0.216132 -0.73837 0)
(0.126533 -0.669174 0)
(0.0422727 -0.659021 0)
(-0.00629738 -0.749502 0)
(-0.00573248 -0.797183 0)
(0.010155 -0.759648 0)
(0.00460853 -0.670887 0)
(-0.027963 -0.547097 0)
(-0.0764872 -0.53801 0)
(-0.148965 -0.588694 0)
(-0.252351 -0.726783 0)
(-0.35014 -0.911436 0)
(-0.370956 -1.05669 0)
(-0.362279 -1.21491 0)
(-0.293982 -1.24538 0)
(-0.22556 -1.22498 0)
(-0.161279 -1.19775 0)
(-0.0738737 -1.09444 0)
(0.0846544 -0.809108 0)
(0.0450971 -0.322985 0)
(-0.0622438 -0.416019 0)
(-0.0436196 -0.859877 0)
(0.0978877 -1.11949 0)
(0.173788 -1.20572 0)
(0.230687 -1.22089 0)
(0.29806 -1.23597 0)
(0.361226 -1.19403 0)
(0.359733 -1.03285 0)
(0.340219 -0.900606 0)
(0.245813 -0.723475 0)
(0.143964 -0.59237 0)
(0.0728804 -0.540874 0)
(0.0249815 -0.546816 0)
(-0.00703411 -0.660555 0)
(-0.0106939 -0.753395 0)
(0.000980501 -0.690993 0)
(-0.0116065 -0.587022 0)
(-0.0216631 -0.481363 0)
(-0.031106 -0.456294 0)
(-0.0653314 -0.478066 0)
(-0.133331 -0.572588 0)
(-0.23549 -0.756889 0)
(-0.32269 -1.02928 0)
(-0.330814 -1.16132 0)
(-0.274282 -1.23928 0)
(-0.193929 -1.22449 0)
(-0.11734 -1.19689 0)
(-0.0416212 -1.10035 0)
(0.0365767 -0.778116 0)
(0.0196585 -0.331377 0)
(-0.0327258 -0.428423 0)
(-0.0173376 -0.865738 0)
(0.0621287 -1.11387 0)
(0.134131 -1.19444 0)
(0.202906 -1.21648 0)
(0.280971 -1.22441 0)
(0.327512 -1.13346 0)
(0.312243 -1.00402 0)
(0.230676 -0.749083 0)
(0.131835 -0.57295 0)
(0.0637121 -0.481996 0)
(0.0282875 -0.458709 0)
(0.0179715 -0.480021 0)
(0.00801131 -0.578393 0)
(-0.0023937 -0.686873 0)
(-0.00708629 -0.62667 0)
(-0.0165519 -0.533979 0)
(-0.00719168 -0.449992 0)
(0.0106265 -0.414996 0)
(0.0114605 -0.407821 0)
(-0.0234328 -0.450573 0)
(-0.101001 -0.599654 0)
(-0.211928 -0.878848 0)
(-0.271116 -1.09152 0)
(-0.229101 -1.23321 0)
(-0.146145 -1.22799 0)
(-0.0683116 -1.19361 0)
(0.00949079 -1.10286 0)
(0.0706414 -0.787438 0)
(0.0345443 -0.321456 0)
(-0.048638 -0.419053 0)
(-0.0661216 -0.870165 0)
(0.00141677 -1.11784 0)
(0.0856671 -1.18416 0)
(0.158204 -1.21623 0)
(0.231871 -1.2042 0)
(0.259166 -1.05776 0)
(0.210487 -0.854474 0)
(0.101125 -0.591919 0)
(0.0222181 -0.451781 0)
(-0.0125686 -0.411674 0)
(-0.0123377 -0.417025 0)
(0.00455426 -0.447965 0)
(0.0143575 -0.527457 0)
(0.00649724 -0.624225 0)
(-0.00531132 -0.580035 0)
(-0.00757294 -0.499581 0)
(0.0104752 -0.435747 0)
(0.0406827 -0.400948 0)
(0.0665631 -0.380952 0)
(0.0683975 -0.381531 0)
(0.0228038 -0.463885 0)
(-0.0860692 -0.708767 0)
(-0.176557 -1.00861 0)
(-0.171592 -1.21307 0)
(-0.0907837 -1.23245 0)
(-0.00602018 -1.19367 0)
(0.0797802 -1.10026 0)
(0.131955 -0.820672 0)
(0.0511301 -0.294435 0)
(-0.0678465 -0.383761 0)
(-0.128019 -0.849887 0)
(-0.0631136 -1.1212 0)
(0.032151 -1.19052 0)
(0.111126 -1.21766 0)
(0.179976 -1.17151 0)
(0.178909 -1.01455 0)
(0.0816498 -0.682699 0)
(-0.0242409 -0.458335 0)
(-0.0681912 -0.383897 0)
(-0.0659837 -0.38276 0)
(-0.0414936 -0.400838 0)
(-0.0125048 -0.43267 0)
(0.00585874 -0.494197 0)
(0.00482538 -0.578798 0)
(0.000921066 -0.547909 0)
(0.00801739 -0.477434 0)
(0.0295219 -0.429714 0)
(0.0633885 -0.399095 0)
(0.0998968 -0.374956 0)
(0.129189 -0.359362 0)
(0.125708 -0.384429 0)
(0.0544438 -0.546101 0)
(-0.0691825 -0.896219 0)
(-0.0967422 -1.1529 0)
(-0.0201604 -1.22979 0)
(0.0727986 -1.21494 0)
(0.177665 -1.08654 0)
(0.19764 -0.74909 0)
(0.0555055 -0.225714 0)
(-0.0924132 -0.30603 0)
(-0.191515 -0.789904 0)
(-0.136258 -1.11815 0)
(-0.0356598 -1.20577 0)
(0.0469703 -1.21 0)
(0.111124 -1.09822 0)
(0.0649462 -0.850585 0)
(-0.0632183 -0.524698 0)
(-0.126177 -0.382328 0)
(-0.127089 -0.360996 0)
(-0.0990363 -0.376489 0)
(-0.0641828 -0.399717 0)
(-0.0310982 -0.428616 0)
(-0.00914901 -0.475008 0)
(-0.00122931 -0.548251 0)
(0.00680814 -0.529481 0)
(0.0225896 -0.46944 0)
(0.0475443 -0.434447 0)
(0.0832218 -0.408875 0)
(0.125061 -0.385004 0)
(0.168591 -0.362759 0)
(0.194613 -0.357749 0)
(0.17307 -0.44228 0)
(0.069657 -0.731992 0)
(-0.0210704 -1.14723 0)
(0.0400954 -1.24147 0)
(0.1474 -1.24885 0)
(0.257376 -1.05055 0)
(0.230053 -0.625854 0)
(0.0480715 -0.170447 0)
(-0.0896931 -0.220027 0)
(-0.247795 -0.733625 0)
(-0.219908 -1.08883 0)
(-0.121191 -1.21722 0)
(-0.0159859 -1.20363 0)
(0.0401883 -1.06873 0)
(-0.0705034 -0.684077 0)
(-0.172446 -0.428601 0)
(-0.191791 -0.359191 0)
(-0.166505 -0.368421 0)
(-0.124499 -0.391437 0)
(-0.083429 -0.414303 0)
(-0.0480116 -0.438124 0)
(-0.0226134 -0.471554 0)
(-0.00661958 -0.532172 0)
(0.00906524 -0.523351 0)
(0.0306027 -0.478181 0)
(0.0606169 -0.454736 0)
(0.0988123 -0.435478 0)
(0.14369 -0.415855 0)
(0.194901 -0.394404 0)
(0.24065 -0.373119 0)
(0.250461 -0.400898 0)
(0.190208 -0.597826 0)
(0.0577048 -1.01395 0)
(0.050249 -1.24144 0)
(0.219631 -1.28492 0)
(0.289764 -1.02753 0)
(0.0892035 -0.454135 0)
(0.00117458 -0.202225 0)
(-0.00721706 -0.224997 0)
(-0.139571 -0.536308 0)
(-0.287481 -1.09224 0)
(-0.186467 -1.24599 0)
(-0.0330696 -1.26862 0)
(-0.0588466 -0.923322 0)
(-0.19245 -0.551192 0)
(-0.248596 -0.396194 0)
(-0.2382 -0.38467 0)
(-0.193003 -0.409407 0)
(-0.14188 -0.430278 0)
(-0.0968911 -0.447299 0)
(-0.0588488 -0.463561 0)
(-0.0291257 -0.484583 0)
(-0.00838742 -0.528667 0)
(0.00954269 -0.531304 0)
(0.0344234 -0.502195 0)
(0.0684435 -0.488488 0)
(0.108381 -0.478671 0)
(0.155634 -0.467661 0)
(0.212373 -0.45418 0)
(0.272262 -0.434942 0)
(0.302778 -0.424712 0)
(0.268022 -0.517329 0)
(0.142583 -0.870369 0)
(0.0657622 -1.28642 0)
(0.187771 -1.38849 0)
(0.116944 -0.835309 0)
(-0.0516606 -0.394314 0)
(-0.0384892 -0.282317 0)
(0.0636451 -0.295854 0)
(0.0345751 -0.448143 0)
(-0.143483 -0.927607 0)
(-0.155327 -1.3534 0)
(-0.0547271 -1.21126 0)
(-0.162207 -0.777402 0)
(-0.276073 -0.491559 0)
(-0.30598 -0.437968 0)
(-0.271966 -0.459814 0)
(-0.20923 -0.479914 0)
(-0.150428 -0.490306 0)
(-0.102175 -0.496175 0)
(-0.062814 -0.501288 0)
(-0.0304771 -0.511429 0)
(-0.00809775 -0.538349 0)
(0.01256 -0.55146 0)
(0.0401614 -0.536022 0)
(0.0734725 -0.532066 0)
(0.11431 -0.532823 0)
(0.164255 -0.533749 0)
(0.223496 -0.534029 0)
(0.29205 -0.530127 0)
(0.347457 -0.509117 0)
(0.32819 -0.527016 0)
(0.212498 -0.744043 0)
(0.0577381 -1.1765 0)
(0.0255068 -1.37769 0)
(-0.0541619 -0.710039 0)
(-0.121683 -0.421597 0)
(-0.0426161 -0.368959 0)
(0.0716236 -0.375264 0)
(0.122308 -0.456873 0)
(0.0301949 -0.795805 0)
(-0.031414 -1.3603 0)
(-0.0700754 -1.08795 0)
(-0.238942 -0.680164 0)
(-0.346697 -0.531919 0)
(-0.357442 -0.542603 0)
(-0.294154 -0.569752 0)
(-0.217115 -0.569235 0)
(-0.152724 -0.562954 0)
(-0.101692 -0.554272 0)
(-0.0624627 -0.547396 0)
(-0.0326664 -0.547116 0)
(-0.0098929 -0.558675 0)
(0.0151141 -0.576906 0)
(0.0461199 -0.569647 0)
(0.0830809 -0.576534 0)
(0.126554 -0.584316 0)
(0.1718 -0.590882 0)
(0.222732 -0.600753 0)
(0.295442 -0.622418 0)
(0.373346 -0.615262 0)
(0.39131 -0.604385 0)
(0.28444 -0.704939 0)
(0.0667447 -1.03663 0)
(-0.124245 -1.32082 0)
(-0.152254 -0.743973 0)
(-0.113442 -0.471816 0)
(-0.0366867 -0.445056 0)
(0.0545867 -0.448494 0)
(0.123895 -0.49584 0)
(0.137218 -0.810488 0)
(0.0909798 -1.30703 0)
(-0.109094 -0.954497 0)
(-0.322948 -0.679282 0)
(-0.420054 -0.631391 0)
(-0.388484 -0.659376 0)
(-0.294739 -0.668153 0)
(-0.212917 -0.638203 0)
(-0.157498 -0.619033 0)
(-0.110352 -0.604904 0)
(-0.0689523 -0.591552 0)
(-0.0357925 -0.580679 0)
(-0.0108637 -0.583148 0)
(0.0186937 -0.602852 0)
(0.0587425 -0.599993 0)
(0.105351 -0.613968 0)
(0.150081 -0.616051 0)
(0.185127 -0.618509 0)
(0.21497 -0.63177 0)
(0.271259 -0.680279 0)
(0.361408 -0.694198 0)
(0.412156 -0.682165 0)
(0.344894 -0.712033 0)
(0.136468 -0.910739 0)
(-0.14923 -1.18918 0)
(-0.190967 -0.874641 0)
(-0.0852603 -0.527289 0)
(-0.0285675 -0.498732 0)
(0.0338883 -0.501392 0)
(0.0864018 -0.543086 0)
(0.179521 -0.936172 0)
(0.111178 -1.17832 0)
(-0.191518 -0.859338 0)
(-0.389544 -0.700319 0)
(-0.439023 -0.695492 0)
(-0.383124 -0.735615 0)
(-0.2767 -0.707846 0)
(-0.210818 -0.650813 0)
(-0.180465 -0.630767 0)
(-0.144969 -0.626374 0)
(-0.0991295 -0.623124 0)
(-0.0531033 -0.607874 0)
(-0.0162084 -0.607183 0)
(0.0233472 -0.652283 0)
(0.0755892 -0.645091 0)
(0.129668 -0.653685 0)
(0.169849 -0.64542 0)
(0.193752 -0.638148 0)
(0.204223 -0.643202 0)
(0.22591 -0.687469 0)
(0.308613 -0.75476 0)
(0.377207 -0.712493 0)
(0.34977 -0.698841 0)
(0.196156 -0.801716 0)
(-0.0573176 -1.0352 0)
(-0.125455 -0.947734 0)
(-0.0504041 -0.561735 0)
(-0.0201947 -0.526902 0)
(0.0159954 -0.5285 0)
(0.044298 -0.57018 0)
(0.105158 -0.988213 0)
(0.0124786 -1.02804 0)
(-0.239584 -0.766753 0)
(-0.385079 -0.681122 0)
(-0.40297 -0.705369 0)
(-0.319758 -0.765965 0)
(-0.228587 -0.692096 0)
(-0.204392 -0.636989 0)
(-0.197044 -0.631346 0)
(-0.176366 -0.640547 0)
(-0.136986 -0.651453 0)
(-0.082115 -0.644654 0)
(-0.0264423 -0.653651 0)
(0.0330892 -0.772614 0)
(0.10233 -0.723185 0)
(0.160162 -0.705859 0)
(0.195145 -0.688689 0)
(0.215843 -0.669761 0)
(0.220843 -0.660114 0)
(0.213478 -0.699523 0)
(0.257599 -0.797411 0)
(0.335618 -0.721642 0)
(0.331973 -0.663554 0)
(0.22353 -0.701673 0)
(0.0555637 -0.895524 0)
(-0.0316868 -0.925625 0)
(-0.0255473 -0.566053 0)
(-0.0133218 -0.532898 0)
(0.00499357 -0.533766 0)
(0.0193243 -0.569847 0)
(0.00811196 -0.936555 0)
(-0.0963446 -0.877442 0)
(-0.253377 -0.670228 0)
(-0.352779 -0.639756 0)
(-0.347062 -0.721129 0)
(-0.247728 -0.771677 0)
(-0.202377 -0.697948 0)
(-0.216337 -0.65567 0)
(-0.21622 -0.663147 0)
(-0.200318 -0.682214 0)
(-0.172209 -0.697067 0)
(-0.122717 -0.71216 0)
(-0.0452584 -0.768222 0)
(0.0780193 -0.94896 0)
(0.187762 -0.79059 0)
(0.226616 -0.721504 0)
(0.238697 -0.702258 0)
(0.250161 -0.687619 0)
(0.253251 -0.679822 0)
(0.229118 -0.721226 0)
(0.232429 -0.81205 0)
(0.299677 -0.742619 0)
(0.314365 -0.62783 0)
(0.243785 -0.628448 0)
(0.135956 -0.766468 0)
(0.0319473 -0.822283 0)
(-0.0135699 -0.553697 0)
(-0.0086844 -0.525575 0)
(-0.000557491 -0.526985 0)
(0.00828638 -0.557021 0)
(-0.043053 -0.814155 0)
(-0.159123 -0.737654 0)
(-0.267769 -0.604072 0)
(-0.331242 -0.603327 0)
(-0.314732 -0.750234 0)
(-0.231945 -0.782452 0)
(-0.216977 -0.717821 0)
(-0.244189 -0.685471 0)
(-0.244612 -0.686361 0)
(-0.23735 -0.699076 0)
(-0.233035 -0.713609 0)
(-0.204379 -0.781352 0)
(-0.0887111 -0.954632 0)
(0.105258 -1.14247 0)
(0.221886 -0.839999 0)
(0.253327 -0.685698 0)
(0.252243 -0.647491 0)
(0.249171 -0.656179 0)
(0.256755 -0.682317 0)
(0.245417 -0.744151 0)
(0.234204 -0.812377 0)
(0.282793 -0.755946 0)
(0.305383 -0.603502 0)
(0.257322 -0.586795 0)
(0.167861 -0.660905 0)
(0.0627949 -0.694718 0)
(0.00519438 -0.531257 0)
(-0.00226543 -0.510309 0)
(-0.00494103 -0.512208 0)
(-0.00794681 -0.532308 0)
(-0.0674227 -0.677375 0)
(-0.180807 -0.630702 0)
(-0.274389 -0.566772 0)
(-0.319068 -0.581321 0)
(-0.297264 -0.758022 0)
(-0.241454 -0.793493 0)
(-0.236529 -0.735705 0)
(-0.238676 -0.685051 0)
(-0.233692 -0.654169 0)
(-0.245528 -0.644431 0)
(-0.253188 -0.684125 0)
(-0.227489 -0.842272 0)
(-0.114437 -1.18386 0)
(0.150733 -1.68824 0)
(0.275978 -1.12546 0)
(0.250922 -0.708128 0)
(0.200862 -0.605835 0)
(0.177392 -0.626139 0)
(0.186756 -0.692157 0)
(0.215416 -0.810739 0)
(0.245863 -0.861512 0)
(0.289655 -0.752324 0)
(0.304695 -0.590786 0)
(0.266794 -0.551143 0)
(0.183447 -0.567491 0)
(0.0912145 -0.570398 0)
(0.0290581 -0.485715 0)
(0.0040317 -0.482339 0)
(-0.00457864 -0.487951 0)
(-0.0254209 -0.482969 0)
(-0.0941082 -0.548517 0)
(-0.195249 -0.537116 0)
(-0.284505 -0.531698 0)
(-0.321364 -0.571892 0)
(-0.304004 -0.75374 0)
(-0.251251 -0.873021 0)
(-0.20319 -0.79712 0)
(-0.168173 -0.685611 0)
(-0.164052 -0.624001 0)
(-0.19788 -0.607763 0)
(-0.260415 -0.730046 0)
(-0.286325 -1.17937 0)
(-0.145963 -1.76564 0)
(-0.000230992 -1.96443 0)
(0.174011 -1.70684 0)
(0.306652 -1.27116 0)
(0.30642 -0.909492 0)
(0.254995 -0.79935 0)
(0.21235 -0.831856 0)
(0.235429 -0.988286 0)
(0.299452 -1.01749 0)
(0.337583 -0.789301 0)
(0.339783 -0.559086 0)
(0.292168 -0.497853 0)
(0.207237 -0.471563 0)
(0.118251 -0.453774 0)
(0.0439384 -0.417656 0)
(0.00492923 -0.447675 0)
(0.000476748 -0.463995 0)
(-0.0305223 -0.414454 0)
(-0.114579 -0.431034 0)
(-0.221713 -0.441912 0)
(-0.320319 -0.479015 0)
(-0.364896 -0.539941 0)
(-0.357364 -0.793713 0)
(-0.322338 -1.07229 0)
(-0.246664 -1.00661 0)
(-0.222559 -0.850421 0)
(-0.268413 -0.832577 0)
(-0.317403 -0.962223 0)
(-0.307879 -1.32764 0)
(-0.154637 -1.7211 0)
(0.00954738 -1.968 0)
(-0.0279348 -1.79046 0)
(0.0131764 -1.63691 0)
(0.171488 -1.52949 0)
(0.334497 -1.50346 0)
(0.409441 -1.4798 0)
(0.44109 -1.51662 0)
(0.504543 -1.64633 0)
(0.600962 -1.602 0)
(0.52145 -1.02851 0)
(0.391487 -0.535268 0)
(0.318888 -0.419942 0)
(0.242703 -0.376497 0)
(0.140899 -0.349132 0)
(0.0452218 -0.340884 0)
(-0.00459508 -0.427167 0)
(0.011343 -0.466168 0)
(-0.0182059 -0.338553 0)
(-0.126318 -0.331469 0)
(-0.260994 -0.354027 0)
(-0.35698 -0.403682 0)
(-0.437122 -0.509603 0)
(-0.610166 -1.10831 0)
(-0.665294 -1.67319 0)
(-0.546663 -1.67233 0)
(-0.484238 -1.5395 0)
(-0.443762 -1.49571 0)
(-0.356743 -1.50042 0)
(-0.190822 -1.5291 0)
(-0.0314222 -1.64863 0)
(0.0209515 -1.81322 0)
(0.013182 -1.79552 0)
(0.0876364 -1.68321 0)
(0.211455 -1.54115 0)
(0.340247 -1.43611 0)
(0.440057 -1.42931 0)
(0.514722 -1.48527 0)
(0.555151 -1.55119 0)
(0.595741 -1.54271 0)
(0.692106 -1.36413 0)
(0.573258 -0.76262 0)
(0.388886 -0.29624 0)
(0.275271 -0.272075 0)
(0.159313 -0.249016 0)
(0.047568 -0.249761 0)
(-0.00647852 -0.470661 0)
(0.015079 -0.562674 0)
(-0.00755898 -0.263548 0)
(-0.13927 -0.251737 0)
(-0.297105 -0.275407 0)
(-0.420956 -0.286796 0)
(-0.594819 -0.722504 0)
(-0.73208 -1.34353 0)
(-0.638104 -1.52126 0)
(-0.605862 -1.53674 0)
(-0.563302 -1.47613 0)
(-0.483473 -1.4295 0)
(-0.37513 -1.44477 0)
(-0.239542 -1.5607 0)
(-0.105115 -1.71665 0)
(-0.0195112 -1.83251 0)
(0.0443632 -1.82836 0)
(0.118423 -1.7489 0)
(0.210692 -1.61285 0)
(0.302306 -1.49815 0)
(0.378363 -1.45637 0)
(0.452105 -1.46946 0)
(0.498018 -1.4789 0)
(0.521343 -1.40961 0)
(0.602822 -1.23726 0)
(0.706565 -0.864306 0)
(0.433267 -0.263818 0)
(0.292383 -0.154228 0)
(0.179069 -0.145128 0)
(0.0630367 -0.151579 0)
(-0.00559098 -0.702754 0)
(-0.0294673 -0.918243 0)
(-0.0302795 -0.198887 0)
(-0.158417 -0.181265 0)
(-0.280399 -0.200143 0)
(-0.362251 -0.193201 0)
(-0.585195 -0.749765 0)
(-0.584469 -1.2105 0)
(-0.528858 -1.4054 0)
(-0.527143 -1.47858 0)
(-0.489014 -1.47219 0)
(-0.415993 -1.4667 0)
(-0.336639 -1.51481 0)
(-0.241115 -1.63951 0)
(-0.13848 -1.78959 0)
(-0.0514105 -1.88132 0)
(0.0687031 -1.88318 0)
(0.102786 -1.76831 0)
(0.138504 -1.62428 0)
(0.186321 -1.5252 0)
(0.245707 -1.49914 0)
(0.323638 -1.51447 0)
(0.395821 -1.51076 0)
(0.451238 -1.44243 0)
(0.513552 -1.25302 0)
(0.727527 -0.965851 0)
(0.707723 -0.548615 0)
(0.398421 -0.14005 0)
(0.202403 -0.0873392 0)
(0.00920925 -0.224419 0)
(-0.117933 -1.2341 0)
(-0.0235433 -1.37956 0)
(-0.0577664 -0.234683 0)
(-0.196382 -0.123469 0)
(-0.26853 -0.100759 0)
(-0.425435 -0.244264 0)
(-0.666809 -0.873666 0)
(-0.496328 -1.19267 0)
(-0.449602 -1.40787 0)
(-0.412456 -1.49321 0)
(-0.35204 -1.50872 0)
(-0.277698 -1.50577 0)
(-0.217318 -1.5433 0)
(-0.166812 -1.65663 0)
(-0.125815 -1.8187 0)
(-0.0761278 -1.94534 0)
(0.036031 -1.93437 0)
(0.0254824 -1.74993 0)
(0.0103119 -1.60582 0)
(0.0445379 -1.53916 0)
(0.109423 -1.53875 0)
(0.193963 -1.56113 0)
(0.282872 -1.55929 0)
(0.354811 -1.49434 0)
(0.428614 -1.32764 0)
(0.613493 -1.02487 0)
(0.817446 -0.692532 0)
(0.619113 -0.342698 0)
(0.313948 -0.154911 0)
(0.0767395 -0.63855 0)
(-0.000877725 -1.33032 0)
(-0.00725476 -1.36921 0)
(-0.128281 -0.485458 0)
(-0.241827 -0.103111 0)
(-0.433889 -0.0917578 0)
(-0.783697 -0.633159 0)
(-0.680893 -0.933506 0)
(-0.450033 -1.25393 0)
(-0.371758 -1.44707 0)
(-0.303036 -1.53022 0)
(-0.218688 -1.54866 0)
(-0.136618 -1.54014 0)
(-0.074435 -1.55301 0)
(-0.0413928 -1.63774 0)
(-0.0489457 -1.80557 0)
(-0.051589 -2.01012 0)
(-0.0144371 -1.92303 0)
(-0.0844854 -1.7065 0)
(-0.10732 -1.59028 0)
(-0.0757827 -1.57085 0)
(5.04958e-05 -1.59582 0)
(0.0957823 -1.62434 0)
(0.184491 -1.61856 0)
(0.2607 -1.55201 0)
(0.335262 -1.40602 0)
(0.474748 -1.12832 0)
(0.719404 -0.723824 0)
(0.723521 -0.416797 0)
(0.472832 -0.345352 0)
(0.292786 -0.783826 0)
(0.14696 -1.24475 0)
(-0.0192286 -1.28706 0)
(-0.164968 -0.766658 0)
(-0.368323 -0.176797 0)
(-0.627981 -0.341776 0)
(-0.77007 -0.643952 0)
(-0.554669 -1.04752 0)
(-0.366903 -1.34872 0)
(-0.28132 -1.51111 0)
(-0.204088 -1.59226 0)
(-0.114295 -1.61049 0)
(-0.0184283 -1.59434 0)
(0.0548328 -1.58023 0)
(0.0843846 -1.61955 0)
(0.059842 -1.76161 0)
(0.00192508 -2.00872 0)
(-0.0663857 -1.85066 0)
(-0.16524 -1.6787 0)
(-0.182603 -1.60352 0)
(-0.136898 -1.61627 0)
(-0.0580371 -1.65305 0)
(0.0370753 -1.68382 0)
(0.115695 -1.66838 0)
(0.186859 -1.60056 0)
(0.241741 -1.4689 0)
(0.344206 -1.21437 0)
(0.573914 -0.799192 0)
(0.599183 -0.389169 0)
(0.492012 -0.328139 0)
(0.366286 -0.609759 0)
(0.167444 -1.05365 0)
(-0.0482883 -1.11799 0)
(-0.233798 -0.701932 0)
(-0.412452 -0.319818 0)
(-0.595687 -0.355636 0)
(-0.60509 -0.705473 0)
(-0.401549 -1.14305 0)
(-0.262961 -1.42513 0)
(-0.200063 -1.56764 0)
(-0.12685 -1.64626 0)
(-0.0468618 -1.67248 0)
(0.050396 -1.65071 0)
(0.130871 -1.62299 0)
(0.173741 -1.62202 0)
(0.154784 -1.72884 0)
(0.0565652 -1.94827 0)
(-0.0816927 -1.76238 0)
(-0.178955 -1.6569 0)
(-0.189557 -1.62976 0)
(-0.140876 -1.66093 0)
(-0.066054 -1.71147 0)
(0.0084174 -1.73379 0)
(0.0779382 -1.71098 0)
(0.129071 -1.63652 0)
(0.168733 -1.50438 0)
(0.239547 -1.27837 0)
(0.438866 -0.883713 0)
(0.474888 -0.382465 0)
(0.397503 -0.227496 0)
(0.320633 -0.449977 0)
(0.158726 -0.91531 0)
(-0.0642167 -0.931006 0)
(-0.25539 -0.538687 0)
(-0.357975 -0.247659 0)
(-0.448319 -0.316443 0)
(-0.461237 -0.77288 0)
(-0.271467 -1.21129 0)
(-0.176354 -1.46868 0)
(-0.134076 -1.60804 0)
(-0.0795023 -1.69264 0)
(-0.0102833 -1.72599 0)
(0.0701735 -1.71221 0)
(0.146853 -1.66896 0)
(0.195052 -1.64675 0)
(0.184568 -1.70419 0)
(0.0832388 -1.84835 0)
(-0.0659292 -1.6883 0)
(-0.143719 -1.61537 0)
(-0.161015 -1.63365 0)
(-0.114755 -1.6949 0)
(-0.0485439 -1.74988 0)
(0.0135164 -1.76209 0)
(0.0606667 -1.72953 0)
(0.0918514 -1.6488 0)
(0.120525 -1.527 0)
(0.159113 -1.32461 0)
(0.338376 -0.947146 0)
(0.396728 -0.401936 0)
(0.338478 -0.186778 0)
(0.278475 -0.335541 0)
(0.134774 -0.735653 0)
(-0.0758202 -0.758186 0)
(-0.227436 -0.4012 0)
(-0.296651 -0.17252 0)
(-0.358903 -0.305321 0)
(-0.354868 -0.835945 0)
(-0.173775 -1.26007 0)
(-0.11804 -1.49433 0)
(-0.0860959 -1.62439 0)
(-0.0552676 -1.71495 0)
(-0.00720264 -1.7567 0)
(0.0579229 -1.75506 0)
(0.126437 -1.70624 0)
(0.172805 -1.65729 0)
(0.154996 -1.66645 0)
(0.0709889 -1.77086 0)
(-0.0484672 -1.5989 0)
(-0.108519 -1.56242 0)
(-0.121377 -1.62128 0)
(-0.0728194 -1.71855 0)
(-0.0130333 -1.77338 0)
(0.0290232 -1.77498 0)
(0.0578204 -1.73081 0)
(0.0766588 -1.64625 0)
(0.0867819 -1.53239 0)
(0.110524 -1.34767 0)
(0.253399 -1.00605 0)
(0.346972 -0.460045 0)
(0.291664 -0.167826 0)
(0.23663 -0.247741 0)
(0.117864 -0.584156 0)
(-0.0803134 -0.653962 0)
(-0.204492 -0.303082 0)
(-0.26203 -0.146502 0)
(-0.310723 -0.332897 0)
(-0.271685 -0.896396 0)
(-0.111397 -1.28304 0)
(-0.0793279 -1.50262 0)
(-0.0665141 -1.62386 0)
(-0.046874 -1.71923 0)
(-0.0172532 -1.77132 0)
(0.0273775 -1.78155 0)
(0.0862574 -1.73447 0)
(0.13149 -1.64544 0)
(0.113288 -1.61274 0)
(0.0505727 -1.68378 0)
(-0.0447971 -1.50586 0)
(-0.0964568 -1.51349 0)
(-0.086942 -1.62032 0)
(-0.0264001 -1.73861 0)
(0.0248428 -1.78262 0)
(0.0504229 -1.76801 0)
(0.0679365 -1.71545 0)
(0.0653497 -1.6288 0)
(0.0665067 -1.52491 0)
(0.0815958 -1.35888 0)
(0.160489 -1.04464 0)
(0.276653 -0.514616 0)
(0.245491 -0.157336 0)
(0.197226 -0.180197 0)
(0.107744 -0.451504 0)
(-0.0713455 -0.523286 0)
(-0.182775 -0.222234 0)
(-0.234144 -0.132427 0)
(-0.271117 -0.392677 0)
(-0.18827 -0.942279 0)
(-0.0857388 -1.29659 0)
(-0.0589035 -1.49713 0)
(-0.0528332 -1.61043 0)
(-0.0528449 -1.705 0)
(-0.0345173 -1.76588 0)
(-0.00899953 -1.79026 0)
(0.0426503 -1.75596 0)
(0.094635 -1.6373 0)
(0.0918835 -1.5604 0)
(0.0400764 -1.5942 0)
(-0.0548074 -1.40435 0)
(-0.0983891 -1.4869 0)
(-0.0497996 -1.63842 0)
(0.0198978 -1.75601 0)
(0.0540739 -1.77612 0)
(0.074312 -1.75334 0)
(0.0785569 -1.69022 0)
(0.0684258 -1.59933 0)
(0.0572615 -1.50126 0)
(0.0584963 -1.34808 0)
(0.108663 -1.06473 0)
(0.245544 -0.601665 0)
(0.209791 -0.159008 0)
(0.167892 -0.139137 0)
(0.0968431 -0.346885 0)
(-0.057162 -0.41279 0)
(-0.152508 -0.159968 0)
(-0.204071 -0.123613 0)
(-0.260973 -0.486522 0)
(-0.139569 -0.979309 0)
(-0.0654608 -1.29474 0)
(-0.0515978 -1.47748 0)
(-0.054658 -1.58662 0)
(-0.0612273 -1.68224 0)
(-0.0569282 -1.75343 0)
(-0.035367 -1.78403 0)
(-0.00242632 -1.77184 0)
(0.0607408 -1.64784 0)
(0.0924005 -1.52347 0)
(0.0457077 -1.50195 0)
(-0.0678368 -1.29288 0)
(-0.0944679 -1.48222 0)
(-0.00929091 -1.66613 0)
(0.0548914 -1.75842 0)
(0.0809242 -1.76317 0)
(0.0952537 -1.72911 0)
(0.0970651 -1.65791 0)
(0.0810724 -1.56352 0)
(0.0625344 -1.46475 0)
(0.0616251 -1.32395 0)
(0.0859764 -1.06677 0)
(0.202044 -0.661338 0)
(0.202953 -0.188157 0)
(0.158217 -0.115453 0)
(0.0904134 -0.262184 0)
(-0.0455442 -0.317282 0)
(-0.129348 -0.121489 0)
(-0.173768 -0.125147 0)
(-0.214277 -0.535874 0)
(-0.100653 -0.991476 0)
(-0.0606381 -1.28084 0)
(-0.0540969 -1.44721 0)
(-0.0662332 -1.55442 0)
(-0.0783725 -1.65319 0)
(-0.0763839 -1.7317 0)
(-0.0616558 -1.77107 0)
(-0.0371342 -1.7702 0)
(0.0272898 -1.67393 0)
(0.0953264 -1.50888 0)
(0.0613828 -1.39702 0)
(-0.0703971 -1.18235 0)
(-0.071701 -1.49196 0)
(0.0284444 -1.69118 0)
(0.078167 -1.75561 0)
(0.104724 -1.74512 0)
(0.119272 -1.70491 0)
(0.120531 -1.62458 0)
(0.10422 -1.51932 0)
(0.081097 -1.42147 0)
(0.0724853 -1.29081 0)
(0.0864834 -1.06261 0)
(0.174036 -0.700351 0)
(0.199315 -0.225842 0)
(0.145399 -0.0989063 0)
(0.0764248 -0.193807 0)
(-0.0413836 -0.236934 0)
(-0.121484 -0.100085 0)
(-0.168634 -0.146213 0)
(-0.183824 -0.587158 0)
(-0.0855317 -0.993983 0)
(-0.0660731 -1.25243 0)
(-0.0683264 -1.4067 0)
(-0.0874497 -1.51335 0)
(-0.100873 -1.62297 0)
(-0.0972246 -1.70846 0)
(-0.0837932 -1.75246 0)
(-0.0602622 -1.76519 0)
(-0.00536173 -1.70049 0)
(0.0854119 -1.51218 0)
(0.0697294 -1.28463 0)
(-0.0599518 -1.08736 0)
(-0.0406094 -1.51577 0)
(0.0555173 -1.70658 0)
(0.0948516 -1.74748 0)
(0.129144 -1.73295 0)
(0.144994 -1.68101 0)
(0.143856 -1.58726 0)
(0.128342 -1.47179 0)
(0.103334 -1.37154 0)
(0.0928661 -1.24823 0)
(0.0963043 -1.04506 0)
(0.149581 -0.717285 0)
(0.187174 -0.261561 0)
(0.128512 -0.0887113 0)
(0.061834 -0.150388 0)
(-0.0359664 -0.18079 0)
(-0.112006 -0.0888543 0)
(-0.16274 -0.170284 0)
(-0.160113 -0.616167 0)
(-0.0871739 -0.980684 0)
(-0.0814308 -1.21171 0)
(-0.0880449 -1.35705 0)
(-0.109822 -1.4678 0)
(-0.122955 -1.58835 0)
(-0.120698 -1.68548 0)
(-0.105845 -1.73738 0)
(-0.0753485 -1.75379 0)
(-0.0344021 -1.71668 0)
(0.0596153 -1.52806 0)
(0.0670524 -1.17839 0)
(-0.0387568 -1.02234 0)
(-0.00879468 -1.53144 0)
(0.0699848 -1.713 0)
(0.111059 -1.74674 0)
(0.150565 -1.72527 0)
(0.164779 -1.65432 0)
(0.162396 -1.54784 0)
(0.150815 -1.42276 0)
(0.126875 -1.315 0)
(0.114277 -1.1987 0)
(0.110071 -1.01321 0)
(0.133788 -0.713303 0)
(0.165578 -0.282789 0)
(0.108432 -0.081909 0)
(0.0502182 -0.134523 0)
(-0.0311661 -0.154333 0)
(-0.0990956 -0.0836682 0)
(-0.147606 -0.191766 0)
(-0.135725 -0.621093 0)
(-0.0947836 -0.953115 0)
(-0.0996278 -1.16329 0)
(-0.109811 -1.30126 0)
(-0.131426 -1.41829 0)
(-0.140314 -1.55071 0)
(-0.140291 -1.65951 0)
(-0.126629 -1.72881 0)
(-0.0897386 -1.74713 0)
(-0.0524633 -1.72135 0)
(0.0284674 -1.5465 0)
(0.051385 -1.09467 0)
(-0.0147286 -1.00013 0)
(0.0186347 -1.54353 0)
(0.0809665 -1.72312 0)
(0.127281 -1.752 0)
(0.165982 -1.71491 0)
(0.179987 -1.62406 0)
(0.1768 -1.50425 0)
(0.168009 -1.36904 0)
(0.144089 -1.25447 0)
(0.128309 -1.14174 0)
(0.121948 -0.968903 0)
(0.125148 -0.685403 0)
(0.13548 -0.281943 0)
(0.0828729 -0.0770464 0)
(0.0381583 -0.138053 0)