/*--------------------------------*- C++ -*----------------------------------*\
| =========                 |                                                 |
| \\      /  F ield         | OpenFOAM: The Open Source CFD Toolbox           |
|  \\    /   O peration     | Version:  v1606+                                |
|   \\  /    A nd           | Web:      www.OpenFOAM.com                      |
|    \\/     M anipulation  |                                                 |
\*---------------------------------------------------------------------------*/
FoamFile
{
    version     2.0;
    format      ascii;
    class       volScalarField;
    location    "0.71";
    object      nut.air;
}
// * * * * * * * * * * * * * * * * * * * * * * * * * * * * * * * * * * * * * //

dimensions      [0 2 -1 0 0 0 0];

internalField   nonuniform List<scalar> 
6000
(
0.00052742
0.00480107
0.00770084
0.00842132
0.00867511
0.0088054
0.00886842
0.00890249
0.00891866
0.00894352
0.00896577
0.00898622
0.00899801
0.00901149
0.00902094
0.00902214
0.00901488
0.00900543
0.00899745
0.00898036
0.00895727
0.00893727
0.00891666
0.00888036
0.00881535
0.00868103
0.0084262
0.00770803
0.0048101
0.000527454
0.000439598
0.00295173
0.00584283
0.00762946
0.00857164
0.0091092
0.0094425
0.00964489
0.00976878
0.00986729
0.00998345
0.0100923
0.010185
0.0102568
0.0102977
0.0103063
0.0102817
0.0102229
0.0101408
0.0100387
0.00993604
0.00983553
0.0097154
0.00950253
0.00915475
0.00860816
0.00765974
0.00586846
0.00297131
0.0004404
0.000374185
0.00239285
0.00491478
0.00682296
0.00816796
0.00909162
0.00971912
0.0101517
0.0104495
0.010684
0.0109183
0.0111268
0.0112932
0.0114267
0.011512
0.0115237
0.0114659
0.0113584
0.0112109
0.0110188
0.0108027
0.0105821
0.0102784
0.00982522
0.0091773
0.00823616
0.00687365
0.00495552
0.00242046
0.00037547
0.000324813
0.00198942
0.00428756
0.00630578
0.00788376
0.00906661
0.00996691
0.0106836
0.0112953
0.0117308
0.0120983
0.012473
0.0128511
0.0131082
0.0132392
0.0132664
0.0131797
0.0129444
0.0125905
0.012245
0.0119085
0.0114761
0.0108451
0.0101084
0.00918871
0.00797376
0.00637479
0.00433732
0.00202408
0.000326845
0.000285557
0.00196486
0.00417008
0.00614845
0.00781188
0.00917284
0.0102521
0.0111755
0.0120314
0.012784
0.0133596
0.0139169
0.0143391
0.0145635
0.0146812
0.0147108
0.0146472
0.0144685
0.0140628
0.0135468
0.0130073
0.0122528
0.0113873
0.0104382
0.00933168
0.00793647
0.00623113
0.00421532
0.0019859
0.000287962
0.000271683
0.00229793
0.00459789
0.00657519
0.00821315
0.00960575
0.0108061
0.0118755
0.012886
0.0138561
0.0146824
0.0152956
0.0156044
0.0157965
0.015905
0.0159501
0.0159127
0.0157814
0.0155162
0.0149253
0.0141225
0.0131593
0.0121446
0.0110549
0.00981794
0.0083777
0.0066813
0.00464445
0.00229906
0.00027251
0.000277012
0.00268432
0.00519823
0.00726135
0.00900282
0.0104671
0.0117292
0.0128564
0.0139074
0.0149816
0.0159333
0.0164927
0.0167643
0.0169458
0.0170571
0.0171199
0.0171081
0.0169998
0.0168007
0.0162596
0.0153075
0.0142486
0.0131963
0.0120552
0.0107547
0.00923207
0.00741418
0.00527268
0.00269501
0.000276977
0.000296658
0.00312346
0.00594041
0.00816454
0.0099666
0.0114771
0.0127834
0.013942
0.0150176
0.0161115
0.0170595
0.0176247
0.0179173
0.0180974
0.0182103
0.0182907
0.0183038
0.0182292
0.0179901
0.0174579
0.0165164
0.0154425
0.0143727
0.0132015
0.0118624
0.0102989
0.00841684
0.00609081
0.00316941
0.000295721
0.000325228
0.00344507
0.00658511
0.00900728
0.0109246
0.012519
0.0138839
0.0150924
0.0161977
0.0172592
0.0181729
0.0187668
0.0190697
0.0192762
0.0194092
0.0194939
0.0195145
0.0194515
0.0192092
0.018647
0.0177616
0.0167322
0.015645
0.0144321
0.0130376
0.011386
0.009379
0.00683867
0.00354606
0.000326007
0.000357168
0.00370317
0.007103
0.00972825
0.0118107
0.0135319
0.0149839
0.0162503
0.0174104
0.0184486
0.019297
0.0198792
0.0202514
0.0205305
0.0207104
0.0207851
0.020771
0.0206679
0.0204269
0.0198857
0.0190757
0.0180936
0.0169759
0.0157177
0.0142319
0.012438
0.0102431
0.0074669
0.00385677
0.000358525
0.000380438
0.0039475
0.00753805
0.0103529
0.0126189
0.0144986
0.0160788
0.0174446
0.0186597
0.0196395
0.0203909
0.0209939
0.0215286
0.0219216
0.0221462
0.0222188
0.0221554
0.0219541
0.0216402
0.0211316
0.0204313
0.0195472
0.0184153
0.0170682
0.0154353
0.0134484
0.0110305
0.00802034
0.00413159
0.000385206
0.000411747
0.00399341
0.0077317
0.0108381
0.0133399
0.0154385
0.017215
0.0187531
0.0200121
0.020869
0.0215588
0.0222819
0.0230345
0.0234934
0.0237092
0.0237993
0.0237673
0.023471
0.0229966
0.0224702
0.0218802
0.02118
0.0200741
0.0185564
0.0166818
0.0144186
0.0117062
0.00834573
0.00424063
0.000420331
0.000422526
0.00407265
0.00794749
0.011159
0.0139696
0.0163901
0.0184464
0.020212
0.0215169
0.0222925
0.0230158
0.0239288
0.0248944
0.0252731
0.0254178
0.0255474
0.0256478
0.0254486
0.0247699
0.0241591
0.0236207
0.023075
0.0220275
0.0202629
0.0180251
0.0153571
0.0122916
0.0087072
0.00436303
0.000430987
0.000417929
0.00397961
0.00804679
0.0114891
0.0145213
0.0173524
0.0198227
0.0217971
0.0230997
0.0239143
0.0248056
0.0258976
0.0269081
0.0272332
0.0273146
0.027564
0.0279101
0.027873
0.0270889
0.0263369
0.0257294
0.0251667
0.0241161
0.0221856
0.0195023
0.0163345
0.0129013
0.00891066
0.00426562
0.000427777
0.000411528
0.003868
0.00807389
0.0118537
0.0152069
0.0183217
0.0210812
0.0231014
0.0243834
0.025367
0.026397
0.0274013
0.028132
0.0285358
0.028776
0.029212
0.0297177
0.0298056
0.0292664
0.0285223
0.0277579
0.0269199
0.0256991
0.0237517
0.0209165
0.0174487
0.0136083
0.0091984
0.00429697
0.000428576
0.000409417
0.00384249
0.00829437
0.0123607
0.0159633
0.0191614
0.0217734
0.0236311
0.0249878
0.0261276
0.0271403
0.0279538
0.0285757
0.0290587
0.0294736
0.0300248
0.0305835
0.0307566
0.030467
0.0298626
0.0289945
0.0278635
0.0264226
0.0245304
0.0218913
0.0184656
0.0144245
0.00972597
0.00453379
0.000438582
0.00041758
0.00405649
0.00877505
0.0130222
0.0166888
0.0197745
0.0221382
0.0238482
0.0251395
0.0262778
0.0272387
0.0280012
0.0286638
0.0292337
0.0297619
0.0303822
0.0309863
0.0311815
0.0309323
0.0303974
0.0294895
0.028242
0.026807
0.0250024
0.0225592
0.0192757
0.0151742
0.0103018
0.00482428
0.00046065
0.000440133
0.00442563
0.00937122
0.0137025
0.0173325
0.0202289
0.0223839
0.0239743
0.0252134
0.0262804
0.0271987
0.0279652
0.0286502
0.029264
0.0298646
0.0305495
0.0312072
0.0314214
0.0311234
0.0305514
0.0296476
0.0284646
0.0270835
0.0253444
0.0230193
0.0198437
0.0157486
0.0107912
0.00510949
0.000483247
0.000465191
0.00477581
0.00988833
0.0142526
0.0178065
0.0205297
0.0225475
0.0240806
0.0252806
0.0262946
0.0271687
0.0279222
0.0285999
0.0292256
0.029874
0.030614
0.0313335
0.0315713
0.0312138
0.0306009
0.0297399
0.0286614
0.0273035
0.025571
0.0232867
0.0201773
0.0161425
0.0111825
0.0053586
0.000502537
0.000482652
0.00500193
0.0101813
0.0145257
0.0180287
0.0206834
0.0226369
0.0241469
0.0253442
0.0263178
0.027146
0.02787
0.0285267
0.0291584
0.0298389
0.0306241
0.0313876
0.0316058
0.031195
0.0305801
0.0297842
0.0287369
0.0273714
0.025638
0.0233851
0.0203326
0.0163572
0.0114246
0.00553308
0.00051686
0.00049208
0.00511093
0.0103098
0.0146111
0.0180363
0.0206635
0.0225933
0.0241003
0.0253146
0.0262834
0.0270841
0.027785
0.0284298
0.0290733
0.0297825
0.0306035
0.0313713
0.0314984
0.0310478
0.0304618
0.0297097
0.0286761
0.0273099
0.0255775
0.0233171
0.0203032
0.0164163
0.0115384
0.00564102
0.000525797
0.000496537
0.00514384
0.0103225
0.0145713
0.0179248
0.0205127
0.0224351
0.023928
0.0251745
0.0261807
0.0269821
0.0276764
0.0283245
0.0289824
0.0297153
0.0305511
0.0312532
0.031267
0.030808
0.0302324
0.0295075
0.0284958
0.0271382
0.0254086
0.023147
0.020175
0.0163689
0.0115535
0.00568957
0.00053023
0.000498416
0.00514177
0.0102876
0.0144869
0.0177735
0.0203061
0.0222229
0.0237002
0.0249303
0.0259925
0.0268477
0.0275607
0.028223
0.0288912
0.0296311
0.0304397
0.0309982
0.030848
0.0304188
0.0299291
0.0292087
0.0281893
0.0268697
0.0251634
0.022924
0.0200083
0.0162728
0.0115132
0.00569416
0.000531359
0.000498507
0.00512747
0.01025
0.0144214
0.0176753
0.0201774
0.0220752
0.0235128
0.0246893
0.0257411
0.0266718
0.0274479
0.0281319
0.0288008
0.0295144
0.0302297
0.0305599
0.0303558
0.0299714
0.0294735
0.0287657
0.0278093
0.0265372
0.0248701
0.0226716
0.0198169
0.0161442
0.011446
0.00568311
0.000531764
0.000498547
0.00511303
0.0102345
0.0144152
0.0176761
0.0201713
0.0220554
0.023477
0.0245964
0.0255542
0.0264716
0.0273148
0.0280338
0.0286856
0.0293274
0.0298671
0.0300334
0.0298274
0.0294839
0.0289813
0.0283006
0.0273879
0.0261618
0.0245429
0.0223991
0.0196085
0.0160006
0.0113672
0.00566868
0.000532708
0.000500125
0.00510251
0.0102695
0.0144855
0.0177678
0.0202883
0.0221893
0.0235751
0.0246567
0.0255644
0.0263803
0.0271742
0.0279021
0.0284964
0.0290252
0.029415
0.0294821
0.0293056
0.0289864
0.028489
0.0278298
0.0269494
0.025771
0.0242065
0.0221307
0.0194125
0.0158774
0.0112986
0.00564535
0.0005373
0.000504306
0.00512805
0.0103666
0.0146135
0.01791
0.0204592
0.0223824
0.0237657
0.0248065
0.0256561
0.026407
0.0270984
0.0277399
0.0282526
0.0286703
0.0289364
0.0289592
0.0288058
0.0284949
0.0280182
0.0273838
0.0265385
0.0254078
0.0239063
0.0219139
0.0192786
0.0157924
0.0112346
0.00559265
0.000547276
0.000510711
0.0051911
0.010455
0.0146781
0.017972
0.0205313
0.0224798
0.0239329
0.0249656
0.0257731
0.0264551
0.0270597
0.0275906
0.0280108
0.028354
0.0285204
0.0285148
0.0283669
0.0280518
0.0275932
0.0269781
0.0261695
0.0250933
0.02365
0.0217168
0.0191502
0.0157178
0.0112083
0.00561297
0.000552075
0.000518747
0.00527308
0.0105225
0.0147121
0.0180028
0.0205447
0.0224883
0.0239895
0.0250704
0.0258685
0.0265043
0.0270418
0.027487
0.0278565
0.028126
0.0282146
0.0281713
0.0280149
0.0276862
0.0272298
0.0266355
0.0258572
0.0248182
0.0233999
0.0214974
0.0189942
0.0156595
0.0112239
0.00565585
0.000551904
0.000525788
0.00535067
0.0105951
0.0147544
0.0180212
0.0205551
0.0224942
0.023951
0.0250786
0.0259248
0.02655
0.0270452
0.027449
0.0278013
0.0280491
0.0280921
0.0279736
0.027771
0.0274188
0.0269617
0.026384
0.0256248
0.024598
0.0231809
0.0212991
0.0188289
0.0155526
0.011196
0.0056508
0.000548215
0.000531008
0.00542442
0.0106636
0.0147841
0.0180091
0.0205228
0.0224284
0.0238786
0.0250688
0.0259577
0.026589
0.0270723
0.0274688
0.0278267
0.02812
0.028144
0.0279688
0.0276754
0.0272818
0.0268166
0.0262479
0.0254846
0.0244337
0.0229924
0.0210956
0.0186295
0.0153755
0.0111074
0.00563905
0.000542354
0.00053172
0.00552642
0.0107457
0.0148088
0.0179842
0.0204584
0.022361
0.0238792
0.0251017
0.0259772
0.0266104
0.0270961
0.0275103
0.0278997
0.0282408
0.0282869
0.0280703
0.0277404
0.0273286
0.0268583
0.0262781
0.0254762
0.0243785
0.0228999
0.0209442
0.0184526
0.0152391
0.0110377
0.0056077
0.000536458
0.000541986
0.0055791
0.0107988
0.0148667
0.0180434
0.0205249
0.0224693
0.0240535
0.0252276
0.0259839
0.0265854
0.0270721
0.0275176
0.0279706
0.0283943
0.0284834
0.0282372
0.0279792
0.0276445
0.0271714
0.0265193
0.025648
0.0245158
0.0230359
0.0210653
0.0185212
0.0152653
0.0110369
0.00559314
0.000536914
0.000572909
0.00549993
0.0107545
0.0149687
0.0182759
0.020844
0.0228478
0.0243819
0.0253474
0.0259121
0.0264723
0.0269544
0.0274266
0.0279613
0.0285169
0.0287409
0.0286646
0.0286031
0.0282689
0.0277105
0.0269893
0.0260923
0.0249518
0.0234477
0.0214858
0.0189344
0.0155846
0.0112174
0.00566356
0.000560857
0.000570008
0.00544382
0.0108276
0.0151622
0.0185286
0.0210968
0.0230213
0.0244402
0.0253454
0.0258233
0.0262238
0.0266864
0.0271695
0.0277725
0.0284791
0.0289648
0.0291398
0.0291416
0.0287779
0.0281826
0.027459
0.0265785
0.0254563
0.0239781
0.0220351
0.0194464
0.015992
0.0114403
0.00571329
0.000584636
0.000549731
0.00543512
0.0108116
0.0151293
0.0183989
0.0208366
0.0226157
0.0239111
0.0247688
0.0253002
0.0256827
0.026182
0.0266877
0.0273061
0.0280815
0.0287422
0.0289709
0.0288824
0.0285259
0.027978
0.0272853
0.0264233
0.0253225
0.0238834
0.0219838
0.0194534
0.0160662
0.0115371
0.00578127
0.000576552
0.000552467
0.00551044
0.0107766
0.0149223
0.018001
0.0202835
0.0219539
0.0231733
0.023969
0.024517
0.0249026
0.0254722
0.0260055
0.0265952
0.0273185
0.027968
0.0282267
0.0281347
0.0277844
0.0272583
0.0265969
0.0257687
0.0247154
0.0233489
0.0215471
0.019158
0.0159385
0.0115537
0.00587385
0.00057646
0.00055765
0.00548272
0.0106203
0.0145878
0.0175095
0.0196534
0.0212345
0.0223483
0.023124
0.023679
0.0240199
0.0246117
0.0251828
0.0257452
0.0263876
0.0269829
0.0272546
0.0272014
0.0268875
0.0263989
0.0257771
0.0249892
0.0239844
0.0226831
0.0209661
0.0187154
0.0156333
0.0114098
0.00585534
0.000581723
0.000557604
0.00537135
0.0103403
0.0141541
0.0169493
0.0189879
0.0204743
0.0215193
0.022286
0.0228542
0.023207
0.023652
0.0242601
0.0248138
0.0253792
0.0259178
0.0262274
0.0262086
0.0259489
0.0255033
0.0249233
0.0241756
0.023213
0.0219616
0.0203253
0.018158
0.0151764
0.0110919
0.00573019
0.000582067
0.000554804
0.00520603
0.0100132
0.0136848
0.016365
0.0182975
0.0196883
0.0207032
0.0214694
0.0220573
0.0224905
0.0227771
0.023297
0.0238439
0.0243374
0.0248028
0.0251298
0.0251566
0.0249575
0.0245659
0.024032
0.0233267
0.0224054
0.0212002
0.01964
0.0175339
0.0146419
0.0106828
0.0055006
0.00057849
0.00054873
0.0050412
0.00968307
0.013217
0.0157715
0.0175842
0.0189024
0.0198995
0.0206723
0.0212823
0.0217646
0.0221043
0.0223643
0.0228576
0.0233058
0.023684
0.02397
0.0240448
0.0239092
0.0235867
0.0231069
0.0224483
0.0215693
0.0204203
0.0189135
0.016876
0.0140903
0.0102609
0.00527673
0.000570242
0.000542048
0.0048827
0.00936138
0.0127566
0.015167
0.0168646
0.0181319
0.0191112
0.0198914
0.0205192
0.0210251
0.0214158
0.0216911
0.0219381
0.0223132
0.0226011
0.0228197
0.0228961
0.0228263
0.022578
0.0221574
0.0215492
0.0207172
0.019624
0.018161
0.0162075
0.0135419
0.00985775
0.00506559
0.000560692
0.000535261
0.00472762
0.00904397
0.0122911
0.0145514
0.0161603
0.0173773
0.0183404
0.0191234
0.019761
0.0202796
0.0206815
0.0209829
0.021128
0.0213565
0.0215519
0.0216954
0.0217649
0.0217525
0.0215599
0.0211942
0.0206368
0.0198606
0.0188074
0.0174017
0.0155353
0.0130034
0.00947999
0.00487284
0.000551279
0.000528294
0.00457019
0.00872059
0.0118113
0.0139353
0.0154696
0.0166422
0.0175874
0.0183658
0.019004
0.0195244
0.0199246
0.0202291
0.0203869
0.0204328
0.0205331
0.0205734
0.0206978
0.0207089
0.0205498
0.0202284
0.0197195
0.0189911
0.0179892
0.0166465
0.0148683
0.0124677
0.00911925
0.0046965
0.000542369
0.000520955
0.00440468
0.00838302
0.0113132
0.0133223
0.0147925
0.0159266
0.0168509
0.017617
0.0182469
0.0187614
0.019153
0.0194561
0.0196197
0.0195729
0.0195515
0.0194877
0.0197006
0.0197091
0.0195597
0.0192622
0.0187948
0.0181202
0.0171806
0.0159039
0.0142092
0.011929
0.00876285
0.00452936
0.000534129
0.000512891
0.00422645
0.00802492
0.0108007
0.0127169
0.0141304
0.0152298
0.0161289
0.0168751
0.0174895
0.0179914
0.0183718
0.018663
0.0188175
0.0187473
0.0186113
0.0185791
0.0187522
0.0187409
0.0185886
0.0182997
0.0178659
0.0172493
0.0163809
0.0151792
0.0135626
0.0113901
0.00839964
0.00436475
0.000526433
0.000503755
0.00403887
0.00765057
0.0102827
0.0121209
0.0134859
0.0145515
0.0154197
0.0161389
0.016732
0.0172178
0.0175874
0.0178648
0.0180191
0.0179491
0.0177503
0.0177549
0.0178432
0.0178035
0.0176335
0.0173407
0.0169335
0.0163774
0.0155892
0.0144705
0.0129331
0.0108563
0.00802601
0.00419812
0.000519185
0.000493947
0.0038523
0.00727144
0.00976889
0.0115385
0.0128602
0.0138898
0.0147207
0.0154065
0.0159748
0.0164429
0.0168044
0.0170699
0.0172214
0.0171616
0.016965
0.0169332
0.0169613
0.0168858
0.0166896
0.0163845
0.0159977
0.0155032
0.0148035
0.0137768
0.0123228
0.0103341
0.0076446
0.00402676
0.000512068
0.000483923
0.00367166
0.00689742
0.0092674
0.0109736
0.012252
0.0132406
0.0140284
0.0146758
0.0152175
0.0156693
0.0160265
0.0162841
0.0164332
0.0163811
0.0161803
0.0161051
0.0160914
0.0159807
0.0157551
0.0154323
0.01506
0.0146258
0.0140207
0.0130965
0.0117334
0.00983081
0.00726382
0.00385067
0.000504778
0.000473585
0.00350108
0.00653639
0.00878414
0.0104271
0.0116586
0.0126002
0.0133398
0.0139456
0.0144608
0.0148998
0.015256
0.0155123
0.0156602
0.0156103
0.0153959
0.0152868
0.015233
0.0150886
0.0148319
0.0144879
0.0141243
0.0137465
0.0132375
0.0124262
0.0111658
0.00935323
0.00689566
0.00367463
0.000497072
0.000463331
0.00331652
0.00618429
0.00832142
0.0099001
0.0110789
0.011967
0.0126538
0.0132162
0.0137061
0.0141373
0.014497
0.0147579
0.0149052
0.0148596
0.0146386
0.0144922
0.0143968
0.0142162
0.0139258
0.0135573
0.0131961
0.0128668
0.0124537
0.0117598
0.0106175
0.00890781
0.00655381
0.00350636
0.000488965
0.00045274
0.00312106
0.00584097
0.00788026
0.00939282
0.0105122
0.0113409
0.0119711
0.0124895
0.0129566
0.0133853
0.0137537
0.0140243
0.0141746
0.0141291
0.0139155
0.0137341
0.0135938
0.0133725
0.0130447
0.0126483
0.0122822
0.0119903
0.0116692
0.0110952
0.0100892
0.00849748
0.00625
0.00335405
0.000480711
0.000441463
0.00292398
0.00551116
0.00746195
0.00890459
0.00995725
0.0107204
0.0112915
0.0117674
0.0122155
0.0126468
0.0130293
0.0133152
0.0134719
0.0134282
0.0132212
0.013018
0.0128331
0.0125653
0.0121962
0.0117687
0.0113903
0.0111234
0.0108813
0.0104232
0.00957091
0.00811757
0.00598818
0.00322454
0.000472282
0.000429569
0.0027443
0.0052053
0.00706804
0.00843342
0.00940992
0.0101032
0.0106138
0.0110508
0.0114853
0.0119246
0.012326
0.0126302
0.0127944
0.0127635
0.0125748
0.0123495
0.0121163
0.011801
0.0113877
0.0109255
0.0105268
0.0102698
0.0100875
0.00973739
0.00904274
0.00775231
0.00576441
0.00311959
0.000464349
0.000417442
0.0025991
0.00493215
0.00669861
0.0079761
0.0088663
0.00948525
0.0099368
0.010341
0.0107687
0.011222
0.0116469
0.0119744
0.0121518
0.0121379
0.0119651
0.0117279
0.0114524
0.0110874
0.0106257
0.0101246
0.0096978
0.00943556
0.00929135
0.00904543
0.00850587
0.00740022
0.00556589
0.0030349
0.000456758
0.00040563
0.00249001
0.00469289
0.00635197
0.00752772
0.00832227
0.00886436
0.00926089
0.00964011
0.010069
0.0105433
0.0109968
0.0113494
0.0115442
0.0115543
0.0114054
0.011159
0.0108425
0.0104275
0.00991592
0.00937193
0.0089095
0.00862841
0.008503
0.00835615
0.00794117
0.00702394
0.00537341
0.002965
0.000449772
0.000394304
0.00241671
0.00448402
0.00602187
0.00708191
0.00777467
0.00823937
0.00858726
0.00895011
0.00938824
0.00989
0.010373
0.0107538
0.0109776
0.011019
0.0108933
0.0106414
0.0102876
0.00982311
0.00926324
0.00867246
0.00816658
0.00785563
0.00773534
0.00765686
0.00732974
0.00661503
0.00516161
0.0029007
0.000443213
0.0003844
0.00237412
0.00429999
0.00569999
0.00663231
0.00722264
0.00761075
0.0079174
0.00827174
0.00872556
0.00925656
0.00977288
0.0101915
0.010453
0.0105302
0.0104323
0.0101781
0.00978397
0.00927495
0.0086625
0.00802227
0.00746948
0.00712014
0.00699034
0.00695236
0.00671531
0.00617642
0.00493987
0.00283422
0.000437676
0.000376398
0.0023317
0.00412502
0.0053771
0.00617472
0.00666835
0.00698137
0.00725379
0.00760561
0.00807963
0.00864237
0.00920073
0.00966477
0.00997083
0.0100873
0.0100169
0.00976225
0.00933608
0.0087821
0.00811929
0.00742613
0.00682233
0.0064251
0.00626948
0.00624629
0.0061091
0.00568084
0.00466294
0.00275257
0.000432177
0.000369789
0.00228626
0.00394606
0.00504408
0.00570661
0.0061139
0.00635645
0.00660083
0.00695501
0.00745415
0.00805432
0.00866078
0.00917434
0.00952841
0.00968558
0.00963943
0.00938981
0.00893896
0.00833616
0.00763467
0.00688642
0.00622709
0.00577677
0.0055817
0.00555681
0.0055064
0.00515157
0.00434751
0.00265215
0.0004272
0.000364654
0.00223097
0.00374989
0.00469421
0.00522761
0.00555827
0.00574245
0.00596398
0.00632551
0.00685721
0.00749808
0.0081513
0.00872202
0.00912279
0.00931684
0.0092919
0.00904806
0.00858194
0.00794643
0.0071941
0.00640015
0.00567738
0.00516971
0.00492957
0.00489764
0.0048953
0.0046023
0.00396998
0.00251782
0.000421966
0.000359661
0.00215751
0.00352412
0.0043211
0.00474547
0.00499999
0.00513878
0.00534633
0.00572079
0.0062891
0.00697169
0.0076807
0.0083057
0.00874917
0.00897323
0.00896569
0.00872838
0.00826216
0.00760232
0.00680101
0.00596558
0.00517843
0.00460694
0.00431611
0.00426108
0.00427544
0.00404757
0.00351674
0.00229686
0.000415831
0.000355263
0.00205352
0.00326159
0.00392156
0.00426231
0.00443965
0.00454798
0.00475358
0.00515274
0.00575893
0.00647948
0.00725561
0.00792565
0.00840233
0.00864792
0.00865455
0.00842637
0.0079688
0.00729561
0.00646697
0.00556563
0.00473267
0.00408747
0.00374272
0.00365478
0.00367269
0.00349638
0.0030287
0.0019576
0.000406809
0.000349398
0.00192977
0.00296204
0.00349439
0.00377394
0.00388429
0.00397698
0.00419391
0.0046305
0.00526777
0.00604875
0.00687625
0.00757868
0.00807503
0.00833392
0.00835241
0.00813689
0.00769389
0.00702194
0.00618028
0.00522482
0.00434629
0.00362745
0.00322078
0.00309241
0.00310672
0.0029538
0.00252294
0.00155768
0.000392719
0.00034163
0.00172076
0.00261138
0.00303694
0.00327353
0.00334249
0.0034337
0.00367846
0.00416361
0.00483014
0.00568814
0.00654526
0.00725957
0.00775927
0.00802472
0.00805424
0.00785534
0.00743221
0.00677973
0.00594083
0.00496555
0.0040089
0.00324802
0.00276522
0.00259353
0.00259195
0.00244883
0.00207121
0.00121964
0.000373527
0.000331364
0.00144894
0.00221767
0.00257693
0.00275918
0.00281602
0.00292929
0.00322632
0.0037508
0.00448918
0.00539325
0.00625649
0.00695917
0.00745035
0.00771636
0.00775673
0.00757733
0.00717965
0.00656245
0.0057428
0.00477284
0.00375159
0.00294855
0.00238346
0.00216391
0.0021448
0.00201949
0.00170886
0.000975485
0.000350628
0.000318342
0.00118284
0.00181901
0.00212685
0.00225803
0.00232262
0.00247827
0.00285081
0.00341442
0.00424483
0.00515745
0.00599706
0.00667123
0.00714529
0.00740729
0.00745724
0.00729816
0.0069301
0.00635344
0.00557292
0.00462883
0.00359398
0.00270123
0.00209011
0.00179909
0.00176312
0.00167395
0.0014207
0.00080025
0.00032566
0.000302654
0.000958115
0.00144661
0.00170718
0.00179517
0.00188095
0.00210922
0.00252772
0.00319332
0.00406274
0.00495577
0.00575282
0.0063894
0.00684026
0.00709468
0.00715124
0.00701055
0.00667222
0.00613655
0.00540959
0.00450917
0.00349839
0.00251935
0.00187177
0.00149667
0.00144149
0.00138296
0.00120807
0.00068048
0.000300257
0.000285304
0.000771901
0.00110942
0.0013251
0.00139197
0.00151384
0.00180431
0.00228319
0.00303861
0.00390981
0.00476387
0.005513
0.00611195
0.00653804
0.00678295
0.00684298
0.00671733
0.00640562
0.00590876
0.00523204
0.00439024
0.00341731
0.00241675
0.00168767
0.00125798
0.00115671
0.00114191
0.00103883
0.000600791
0.000276472
0.000266805
0.000599964
0.000831742
0.000986255
0.00104826
0.00122554
0.00154116
0.0021111
0.00290915
0.0037729
0.00458843
0.00529818
0.00586528
0.00627063
0.00650529
0.00656592
0.00645077
0.00615954
0.00569359
0.005058
0.00426595
0.00333994
0.00235237
0.00153354
0.00107473
0.000897513
0.00093529
0.000901434
0.000549708
0.000255651
0.000245904
0.000452464
0.000613741
0.000701693
0.000783589
0.000980118
0.00132998
0.00197769
0.00280646
0.00365297
0.00444059
0.00511861
0.0056582
0.00604391
0.00626799
0.00632708
0.00621945
0.0059446
0.00550358
0.00490062
0.0041462
0.00326301
0.00228583
0.00140732
0.000934435
0.000701675
0.000733116
0.000767608
0.000502413
0.000237448
0.000225376
0.00033684
0.00043225
0.000482245
0.000591825
0.000778938
0.00115632
0.0018689
0.00270629
0.00354324
0.00430801
0.0049596
0.00547535
0.00584305
0.0060568
0.00611357
0.00601176
0.00575019
0.00532915
0.0047517
0.00402576
0.00316927
0.00221503
0.00129039
0.000795686
0.000567823
0.000573625
0.000579388
0.000472042
0.000222996
0.000204274
0.000246424
0.000298609
0.000348706
0.000450821
0.000624034
0.00101061
0.00176776
0.00261278
0.00344197
0.00418835
0.00481796
0.00531326
0.00566532
0.00586978
0.00592399
0.00582646
0.00557539
0.00517019
0.00461215
0.00390618
0.00306651
0.00212894
0.00116898
0.000658546
0.000452428
0.000413073
0.000444266
0.000402461
0.00021202
0.000183618
0.000193018
0.000227913
0.000272673
0.000356639
0.000506928
0.000891003
0.00167262
0.00252836
0.00335408
0.00408717
0.0046985
0.00517549
0.00551341
0.00570981
0.00576243
0.0056695
0.00542797
0.00503517
0.00449007
0.00379566
0.00296477
0.00203066
0.00105679
0.000542404
0.000363983
0.000304629
0.000319773
0.000291662
0.00019884
0.000168357
0.000172438
0.000194516
0.000227718
0.000296287
0.000422019
0.000790363
0.00159384
0.00246481
0.00329163
0.00401273
0.0046049
0.00506233
0.00538543
0.00557418
0.00562685
0.00554092
0.00531168
0.00493335
0.00440084
0.00371279
0.00287979
0.00193821
0.000959643
0.000455644
0.000304097
0.000242025
0.000245745
0.000219163
0.000183127
0.00015832
0.000162475
0.000174638
0.000198772
0.000256369
0.000361219
0.000713204
0.0015459
0.00243804
0.00326084
0.00396054
0.00452675
0.00496095
0.00526777
0.00544917
0.00550364
0.00542796
0.00521672
0.0048612
0.00435121
0.0036767
0.00283963
0.00187896
0.000879048
0.000387339
0.000261512
0.000203139
0.000209231
0.000189908
0.000169898
0.000148852
0.000151238
0.000157684
0.000176813
0.00022685
0.000316984
0.00067073
0.00154692
0.00244729
0.00323368
0.00389149
0.00442464
0.00483545
0.00512764
0.00530284
0.00535868
0.00529379
0.00510403
0.00478153
0.00431298
0.00368215
0.00287013
0.00190201
0.000864628
0.000338723
0.000227441
0.000172912
0.000178771
0.00017558
0.00016091
0.000138885
0.000136308
0.000138879
0.000159542
0.000205765
0.000294093
0.000680052
0.00159826
0.00244747
0.00317333
0.00378809
0.00429239
0.00468487
0.00496605
0.00513638
0.00519311
0.00513619
0.00496247
0.00466696
0.00423997
0.00367235
0.00294155
0.00202545
0.000983924
0.000344485
0.000204453
0.000154773
0.000148555
0.000157974
0.000151767
0.00012747
0.000121159
0.000123119
0.000147082
0.000189494
0.000288335
0.000775761
0.00165253
0.00243261
0.00311277
0.00369324
0.00417208
0.00454614
0.00481422
0.00497734
0.00503462
0.00498417
0.00482515
0.0045519
0.00415809
0.00363697
0.00298538
0.00214035
0.00112878
0.000410451
0.000207137
0.000155459
0.000129662
0.000136594
0.000142258
0.000115763
0.000113112
0.000108209
0.000126445
0.000163211
0.000324434
0.000905405
0.00171842
0.00244742
0.00308684
0.00363134
0.0040791
0.00442814
0.00467679
0.00482986
0.00488871
0.00484842
0.00470629
0.00445714
0.00409914
0.00362465
0.00303407
0.00230726
0.00138418
0.000524493
0.000240456
0.0001702
0.000126517
0.00011902
0.000132207
0.000105179
0.000102357
8.56996e-05
0.000110079
0.000171668
0.000422252
0.00108598
0.00185999
0.00252885
0.00311472
0.00361042
0.00401555
0.0043306
0.00455878
0.00470113
0.00476055
0.00473245
0.00461011
0.00439173
0.00407423
0.00365366
0.00312782
0.00247632
0.00172314
0.000791546
0.000306597
0.000192005
0.000128849
0.000105894
0.000120384
9.52915e-05
8.17871e-05
8.69063e-05
0.000134308
0.0002311
0.00057629
0.00128578
0.00200395
0.00264588
0.00317584
0.00361592
0.00397701
0.00425749
0.00446477
0.00459786
0.00465529
0.00463597
0.00453713
0.00435688
0.0040837
0.00371471
0.00323679
0.00269477
0.00207333
0.00130494
0.000503309
0.000225985
0.00014645
9.33414e-05
0.000109229
8.64041e-05
8.4624e-05
0.000121433
0.00019497
0.000405984
0.000944626
0.00159585
0.00221765
0.00278166
0.00324998
0.00363337
0.00395124
0.00420326
0.00438984
0.00451437
0.00456943
0.00455866
0.00448019
0.00433107
0.00410475
0.00378717
0.00340179
0.00294228
0.00244386
0.00184053
0.00104807
0.0003787
0.000179038
0.000100389
9.9173e-05
8.20368e-05
0.000115721
0.000231997
0.000496142
0.00093626
0.00142446
0.00193116
0.00243089
0.00292969
0.00332687
0.00366055
0.00393668
0.00416113
0.0043292
0.00444181
0.00449554
0.00449303
0.00443069
0.00430555
0.00411973
0.00386076
0.00353174
0.00315904
0.00276467
0.00232008
0.00172013
0.000927151
0.000319372
0.000132683
9.08807e-05
8.27457e-05
0.000243746
0.000685092
0.00110178
0.00147282
0.00186514
0.00226077
0.00264765
0.00308578
0.00342707
0.00371002
0.00394594
0.00413673
0.00428595
0.004385
0.00443661
0.00443926
0.00439097
0.00428761
0.00413095
0.00391116
0.00362672
0.00333076
0.00299593
0.00266613
0.00220642
0.00161973
0.000856468
0.000246402
8.94948e-05
9.01673e-05
0.000611027
0.00117164
0.00159497
0.00196023
0.00230867
0.00263683
0.00296627
0.00325001
0.0035361
0.0037746
0.00397781
0.00413736
0.00426417
0.00435123
0.00439776
0.00440216
0.00436477
0.00428117
0.00414876
0.00396423
0.00372896
0.00344958
0.00317118
0.00289089
0.00257798
0.00208404
0.00144205
0.000628733
9.5213e-05
0.000107384
0.000843798
0.00150628
0.0019938
0.00236746
0.00268332
0.00296412
0.00323217
0.0034518
0.00365188
0.00384858
0.00402209
0.00416438
0.00427023
0.0043431
0.00438284
0.00438656
0.00435538
0.00428922
0.00417925
0.00402404
0.00381818
0.00357661
0.00331001
0.0030609
0.00281539
0.00240956
0.00180744
0.000951105
0.000113151
0.000121763
0.00092411
0.00169612
0.00225052
0.00263145
0.00292502
0.00317037
0.00338523
0.00357039
0.00373888
0.00391533
0.00407107
0.00420721
0.00430628
0.00436954
0.00440206
0.00440382
0.00437689
0.00431939
0.00422956
0.00410238
0.00392945
0.00370439
0.0034466
0.00320153
0.00296979
0.0026469
0.00207361
0.001153
0.000134183
0.000127506
0.000925926
0.001766
0.00234744
0.0027439
0.00303236
0.00326014
0.00344994
0.00362872
0.00381546
0.00397827
0.00412392
0.00425362
0.00435675
0.00442604
0.00446087
0.00446443
0.00443833
0.00438053
0.00430102
0.00419191
0.00402273
0.00383689
0.0036373
0.00338701
0.00312481
0.00284144
0.00228983
0.00131089
0.000153055
0.000131345
0.000888187
0.00171645
0.00231818
0.00274475
0.00305201
0.00329422
0.00350728
0.00370458
0.00388461
0.00404338
0.00418192
0.0043051
0.00440757
0.004485
0.0045305
0.00454081
0.00451485
0.00446069
0.00438737
0.00428516
0.0041652
0.00403311
0.00388893
0.00367686
0.00335841
0.00300787
0.00243415
0.00145263
0.000172305
0.000132423
0.000841283
0.00161627
0.00222663
0.00269904
0.00305644
0.00333291
0.00356879
0.00377995
0.00396112
0.0041125
0.00424236
0.00435537
0.00445219
0.00452744
0.00457432
0.00458815
0.00456869
0.00452506
0.00445405
0.00436236
0.00425013
0.00412309
0.00399536
0.00382174
0.00356318
0.00317958
0.00256446
0.0015394
0.000190262
0.00013071
0.00075312
0.0014769
0.00213556
0.00267583
0.00307811
0.00338657
0.00363448
0.00384589
0.00402957
0.00418247
0.00430198
0.00439839
0.00448032
0.00454559
0.00458693
0.00460074
0.0045879
0.00455008
0.00448145
0.00439263
0.00428067
0.0041584
0.00403106
0.00386581
0.00362477
0.00323127
0.00258047
0.00154635
0.000202258
0.000123343
0.000586417
0.00138503