/*--------------------------------*- C++ -*----------------------------------*\
| =========                 |                                                 |
| \\      /  F ield         | OpenFOAM: The Open Source CFD Toolbox           |
|  \\    /   O peration     | Version:  v1606+                                |
|   \\  /    A nd           | Web:      www.OpenFOAM.com                      |
|    \\/     M anipulation  |                                                 |
\*---------------------------------------------------------------------------*/
FoamFile
{
    version     2.0;
    format      ascii;
    class       volScalarField;
    location    "0.71";
    object      p;
}
// * * * * * * * * * * * * * * * * * * * * * * * * * * * * * * * * * * * * * //

dimensions      [1 -1 -2 0 0 0 0];

internalField   nonuniform List<scalar> 
6000
(
106564
106563
106560
106558
106557
106558
106561
106566
106571
106575
106578
106581
106583
106583
106582
106582
106581
106579
106576
106572
106568
106563
106557
106551
106547
106545
106546
106548
106550
106550
106488
106486
106482
106478
106474
106472
106473
106478
106488
106496
106499
106500
106498
106495
106493
106492
106493
106494
106495
106493
106487
106477
106467
106461
106460
106462
106465
106469
106473
106474
106452
106449
106445
106440
106434
106430
106426
106427
106434
106446
106452
106451
106445
106438
106433
106432
106435
106442
106446
106445
106437
106422
106415
106415
106418
106422
106427
106432
106436
106438
106431
106429
106424
106417
106410
106402
106395
106390
106387
106392
106397
106393
106380
106371
106366
106365
106368
106377
106388
106390
106382
106377
106379
106384
106391
106398
106405
106412
106416
106418
106417
106415
106408
106400
106391
106381
106371
106363
106355
106350
106349
106339
106329
106326
106325
106324
106324
106326
106335
106343
106341
106346
106353
106361
106370
106379
106388
106396
106403
106404
106398
106395
106389
106380
106370
106359
106348
106337
106328
106318
106309
106300
106300
106301
106301
106300
106297
106295
106295
106302
106309
106318
106327
106337
106348
106359
106369
106377
106384
106386
106363
106359
106358
106353
106345
106335
106324
106312
106301
106290
106280
106276
106278
106281
106282
106279
106275
106271
106268
106271
106281
106291
106302
106313
106324
106333
106341
106347
106349
106352
106298
106298
106303
106308
106307
106303
106295
106286
106274
106263
106255
106253
106256
106260
106262
106259
106253
106247
106245
106245
106253
106263
106274
106284
106291
106295
106295
106291
106287
106288
106217
106221
106230
106242
106252
106257
106258
106254
106246
106234
106228
106227
106232
106235
106236
106234
106229
106222
106217
106217
106223
106233
106242
106244
106243
106238
106228
106217
106209
106205
106126
106137
106151
106169
106185
106198
106207
106214
106212
106200
106195
106197
106203
106202
106200
106200
106199
106194
106185
106184
106188
106197
106199
106190
106181
106169
106153
106136
106122
106112
106030
106042
106067
106093
106115
106132
106146
106160
106167
106161
106157
106161
106162
106155
106150
106152
106157
106159
106150
106146
106148
106151
106141
106125
106112
106097
106076
106049
106026
106015
105971
105976
105993
106019
106047
106065
106079
106089
106104
106113
106112
106110
106098
106090
106090
106092
106096
106107
106106
106102
106100
106086
106064
106052
106043
106028
106000
105975
105962
105958
105947
105948
105952
105965
105984
106001
106006
106003
106017
106043
106047
106027
105994
106002
106013
106017
106013
106016
106036
106040
106029
105995
105967
105970
105974
105963
105946
105939
105936
105936
105933
105933
105933
105935
105940
105939
105923
105903
105910
105942
105946
105910
105881
105883
105904
105905
105890
105888
105922
105940
105925
105884
105865
105878
105902
105915
105918
105921
105922
105923
105920
105919
105917
105912
105903
105885
105857
105842
105842
105848
105847
105836
105832
105832
105836
105833
105823
105819
105824
105831
105825
105815
105815
105824
105848
105876
105895
105905
105909
105910
105906
105905
105900
105890
105872
105848
105829
105821
105818
105815
105814
105814
105817
105817
105814
105809
105801
105794
105789
105787
105788
105791
105796
105803
105819
105846
105871
105885
105892
105895
105890
105887
105880
105867
105848
105828
105817
105813
105811
105808
105807
105809
105810
105808
105804
105797
105789
105783
105779
105777
105779
105782
105787
105791
105803
105823
105847
105862
105871
105874
105869
105864
105857
105844
105828
105815
105809
105808
105807
105805
105804
105804
105803
105801
105796
105788
105779
105774
105773
105773
105774
105776
105779
105782
105789
105803
105821
105835
105843
105847
105842
105837
105831
105822
105814
105808
105804
105803
105802
105801
105800
105799
105798
105794
105789
105779
105770
105766
105766
105766
105768
105770
105772
105774
105776
105784
105793
105802
105809
105813
105804
105801
105799
105797
105799
105801
105800
105800
105799
105797
105796
105795
105792
105788
105781
105771
105761
105758
105758
105759
105761
105763
105764
105764
105763
105764
105766
105769
105772
105774
105755
105756
105758
105762
105773
105788
105795
105796
105795
105794
105792
105790
105787
105782
105773
105761
105751
105749
105750
105751
105753
105755
105755
105754
105750
105742
105738
105736
105735
105736
105694
105697
105703
105715
105734
105761
105783
105791
105791
105790
105788
105785
105781
105774
105764
105750
105741
105740
105741
105743
105744
105745
105745
105741
105731
105718
105709
105703
105700
105699
105622
105626
105634
105649
105673
105709
105751
105777
105785
105785
105782
105778
105772
105764
105751
105736
105729
105730
105731
105733
105733
105733
105731
105723
105707
105690
105677
105669
105664
105662
105542
105544
105552
105566
105590
105626
105676
105732
105765
105774
105773
105768
105761
105750
105734
105720
105716
105718
105720
105720
105719
105718
105713
105700
105678
105658
105642
105631
105625
105622
105456
105456
105460
105469
105488
105521
105570
105633
105697
105740
105753
105751
105743
105730
105713
105702
105701
105703
105705
105704
105702
105700
105691
105671
105644
105619
105601
105588
105580
105577
105370
105368
105368
105370
105381
105403
105443
105509
105582
105648
105695
105710
105708
105701
105691
105684
105684
105686
105686
105684
105682
105676
105663
105635
105601
105573
105552
105538
105528
105525
105292
105289
105287
105289
105296
105308
105329
105380
105457
105533
105596
105637
105653
105662
105664
105664
105664
105665
105664
105661
105656
105645
105624
105587
105547
105516
105496
105484
105475
105470
105227
105225
105225
105231
105240
105249
105261
105285
105343
105421
105492
105548
105585
105612
105629
105638
105641
105641
105638
105634
105625
105606
105574
105529
105486
105457
105441
105431
105424
105418
105172
105172
105174
105182
105192
105202
105214
105228
105262
105325
105397
105460
105512
105550
105580
105599
105609
105610
105606
105598
105582
105555
105512
105464
105422
105396
105385
105382
105378
105369
105124
105126
105129
105135
105144
105154
105166
105183
105206
105250
105313
105378
105436
105480
105512
105536
105556
105563
105557
105545
105523
105487
105438
105392
105356
105336
105330
105332
105329
105320
105078
105083
105087
105091
105098
105107
105119
105138
105155
105187
105239
105299
105357
105403
105430
105452
105479
105493
105486
105468
105440
105400
105356
105318
105290
105275
105271
105272
105266
105262
105026
105031
105039
105044
105051
105059
105069
105080
105093
105124
105169
105222
105276
105321
105345
105360
105387
105394
105382
105360
105329
105295
105262
105235
105218
105205
105198
105192
105186
105187
104952
104956
104972
104984
104992
104998
105001
104997
105009
105051
105096
105147
105195
105234
105252
105259
105277
105264
105238
105216
105196
105176
105154
105133
105119
105108
105098
105086
105085
105093
104908
104909
104914
104922
104928
104930
104931
104933
104945
104979
105023
105074
105118
105147
105155
105146
105123
105087
105070
105063
105055
105043
105029
105016
105008
105002
104996
104990
104988
104990
104896
104896
104896
104897
104899
104901
104903
104907
104912
104927
104959
105008
105051
105071
105068
105045
105018
105002
104995
104990
104985
104979
104973
104968
104964
104961
104958
104957
104957
104957
104894
104894
104893
104893
104894
104895
104898
104901
104902
104908
104926
104963
105000
105019
105013
104998
104986
104981
104976
104971
104967
104964
104961
104958
104955
104953
104952
104952
104951
104952
104892
104892
104892
104892
104893
104894
104896
104898
104898
104900
104911
104933
104964
104986
104987
104982
104977
104975
104971
104968
104965
104961
104959
104956
104954
104952
104951
104950
104950
104950
104890
104890
104890
104890
104891
104892
104893
104895
104895
104896
104902
104914
104937
104961
104971
104972
104971
104969
104965
104963
104960
104958
104955
104953
104951
104949
104948
104948
104947
104948
104888
104888
104888
104888
104889
104890
104891
104892
104892
104892
104895
104903
104918
104939
104955
104964
104964
104962
104960
104958
104956
104954
104951
104949
104948
104946
104945
104945
104945
104945
104885
104885
104886
104886
104887
104887
104888
104889
104890
104890
104891
104896
104904
104920
104939
104952
104958
104956
104955
104953
104951
104949
104948
104946
104944
104943
104942
104942
104942
104942
104883
104883
104883
104883
104884
104885
104886
104886
104887
104888
104888
104889
104897
104907
104924
104940
104950
104951
104950
104948
104947
104945
104943
104942
104941
104940
104939
104938
104938
104938
104880
104880
104881
104881
104881
104882
104883
104884
104884
104885
104886
104886
104888
104897
104911
104929
104942
104946
104945
104944
104943
104941
104939
104938
104937
104936
104935
104935
104935
104935
104878
104878
104878
104878
104879
104879
104880
104881
104882
104883
104884
104884
104885
104891
104901
104922
104937
104941
104940
104939
104938
104937
104935
104934
104933
104932
104932
104932
104931
104931
104875
104875
104875
104875
104876
104876
104877
104878
104879
104880
104881
104882
104883
104886
104897
104918
104936
104937
104936
104935
104934
104933
104931
104930
104929
104929
104928
104928
104928
104928
104872
104872
104872
104873
104873
104873
104874
104875
104876
104878
104879
104880
104881
104883
104894
104916
104936
104933
104932
104931
104930
104929
104927
104926
104926
104925
104925
104925
104925
104925
104870
104870
104870
104870
104870
104870
104871
104872
104873
104875
104876
104878
104879
104881
104890
104917
104930
104928
104927
104927
104926
104925
104924
104923
104922
104922
104922
104921
104921
104921
104867
104867
104867
104867
104867
104868
104868
104869
104871
104872
104874
104875
104876
104878
104887
104914
104923
104923
104923
104923
104922
104921
104920
104919
104919
104918
104918
104918
104918
104918
104864
104864
104864
104864
104864
104865
104865
104866
104868
104869
104871
104873
104874
104876
104883
104907
104917
104919
104919
104919
104918
104918
104917
104916
104916
104915
104915
104915
104915
104915
104862
104862
104862
104862
104862
104862
104862
104863
104865
104866
104868
104870
104872
104873
104880
104901
104913
104915
104915
104915
104915
104914
104914
104913
104913
104912
104912
104912
104912
104912
104859
104859
104859
104859
104859
104859
104860
104860
104862
104863
104865
104867
104869
104871
104877
104896
104908
104910
104911
104911
104911
104911
104911
104910
104910
104910
104909
104909
104909
104909
104857
104857
104857
104857
104857
104857
104857
104858
104859
104861
104863
104865
104867
104869
104875
104892
104904
104906
104907
104907
104908
104908
104908
104907
104907
104907
104907
104907
104907
104907
104854
104854
104854
104854
104854
104854
104855
104855
104856
104858
104860
104862
104864
104867
104872
104887
104899
104902
104903
104904
104904
104905
104905
104905
104905
104904
104904
104904
104904
104904
104852
104852
104852
104852
104852
104852
104852
104853
104854
104855
104857
104859
104862
104864
104870
104883
104894
104898
104899
104900
104901
104902
104902
104902
104902
104902
104901
104901
104901
104901
104849
104849
104849
104849
104849
104850
104850
104850
104851
104852
104854
104857
104859
104862
104868
104879
104889
104893
104895
104896
104897
104898
104899
104899
104899
104899
104899
104899
104899
104899
104847
104847
104847
104847
104847
104847
104848
104848
104849
104850
104852
104854
104856
104860
104865
104875
104884
104888
104890
104892
104894
104895
104896
104896
104897
104896
104896
104896
104896
104896
104844
104844
104844
104845
104845
104845
104845
104846
104846
104847
104849
104851
104854
104857
104862
104871
104879
104884
104886
104888
104890
104891
104893
104893
104894
104894
104894
104893
104893
104893
104842
104842
104842
104842
104842
104843
104843
104843
104844
104844
104846
104848
104851
104854
104859
104867
104874
104879
104881
104883
104886
104888
104889
104890
104891
104891
104891
104891
104891
104891
104840
104840
104840
104840
104840
104840
104840
104841
104841
104842
104843
104845
104847
104851
104856
104863
104869
104874
104877
104879
104882
104884
104886
104887
104888
104888
104888
104888
104888
104888
104837
104837
104837
104838
104838
104838
104838
104838
104838
104838
104840
104841
104844
104847
104852
104858
104863
104868
104872
104875
104878
104880
104882
104884
104885
104885
104886
104886
104885
104885
104835
104835
104835
104835
104835
104835
104835
104835
104835
104835
104836
104837
104839
104842
104847
104852
104857
104862
104866
104870
104873
104876
104878
104881
104882
104883
104883
104883
104883
104883
104832
104832
104832
104833
104833
104832
104832
104832
104831
104831
104832
104832
104834
104837
104840
104845
104849
104855
104859
104864
104868
104872
104874
104877
104879
104879
104880
104880
104880
104880
104829
104830
104830
104830
104830
104830
104829
104828
104828
104827
104827
104827
104828
104829
104832
104836
104841
104846
104852
104857
104862
104867
104870
104873
104875
104876
104877
104877
104878
104878
104827
104827
104827
104827
104827
104826
104826
104824
104823
104822
104821
104820
104820
104820
104822
104826
104830
104836
104842
104848
104855
104861
104865
104869
104871
104873
104874
104874
104875
104875
104824
104824
104824
104824
104824
104823
104822
104820
104818
104816
104814
104811
104810
104809
104811
104814
104818
104824
104830
104838
104846
104853
104859
104864
104867
104869
104871
104871
104872
104872
104821
104821
104821
104821
104820
104819
104817
104815
104812
104809
104805
104800
104797
104796
104797
104800
104804
104809
104816
104824
104834
104843
104852
104858
104862
104865
104867
104867
104868
104868
104818
104818
104818
104817
104816
104814
104812
104809
104805
104799
104793
104787
104782
104780
104780
104783
104786
104792
104799
104808
104819
104830
104841
104850
104856
104859
104862
104862
104863
104864
104815
104815
104814
104813
104812
104810
104806
104801
104794
104786
104777
104769
104763
104761
104760
104762
104765
104771
104778
104788
104800
104813
104827
104839
104848
104853
104856
104856
104857
104858
104811
104811
104810
104809
104807
104804
104798
104789
104778
104766
104754
104745
104738
104735
104734
104735
104738
104744
104752
104762
104776
104791
104808
104824
104837
104844
104848
104849
104849
104850
104806
104806
104805
104803
104800
104794
104784
104770
104753
104737
104722
104710
104702
104698
104696
104697
104700
104707
104716
104728
104743
104762
104783
104804
104821
104833
104839
104840
104840
104841
104800
104800
104798
104795
104789
104777
104759
104736
104712
104691
104673
104659
104648
104642
104639
104640
104644
104652
104663
104679
104697
104720
104745
104772
104798
104817
104827
104830
104829
104829
104792
104791
104788
104782
104768
104745
104714
104682
104653
104627
104606
104590
104578
104570
104567
104568
104573
104582
104595
104613
104635
104662
104692
104726
104760
104792
104811
104816
104816
104815
104779
104778
104771
104756
104726
104688
104648
104611
104578
104550
104528
104511
104498
104490
104487
104488
104493
104503
104518
104537
104561
104591
104625
104664
104706
104749
104783
104798
104799
104798
104757
104753
104735
104702
104658
104611
104567
104528
104494
104465
104442
104425
104413
104405
104402
104403
104409
104418
104433
104453
104479
104511
104548
104590
104637
104688
104736
104768
104778
104776
104712
104698
104664
104619
104569
104521
104476
104436
104402
104374
104351
104335
104323
104316
104313
104314
104319
104329
104343
104363
104390
104422
104461
104506
104556
104610
104667
104716
104742
104747
104620
104599
104562
104517
104469
104422
104378
104339
104305
104278
104257
104242
104233
104227
104225
104225
104229
104237
104250
104269
104294
104327
104366
104412
104463
104519
104577
104634
104679
104694
104492
104479
104448
104408
104364
104319
104276
104238
104207
104183
104167
104157
104150
104146
104144
104145
104147
104152
104161
104175
104197
104227
104266
104312
104362
104417
104473
104527
104574
104598
104370
104361
104335
104298
104257
104215
104175
104141
104116
104101
104091
104085
104081
104078
104077
104077
104079
104081
104086
104094
104107
104130
104164
104208
104257
104309
104360
104408
104446
104463
104260
104251
104225
104191
104152
104114
104080
104055
104041
104033
104027
104023
104020
104019
104018
104018
104019
104020
104022
104026
104032
104043
104067
104105
104150
104199
104246
104289
104319
104330
104157
104145
104119
104088
104053
104020
103995
103982
103976
103970
103966
103963
103961
103960
103959
103959
103959
103960
103961
103963
103966
103970
103980
104007
104047
104091
104135
104174
104201
104209
104055
104042
104019
103990
103960
103934
103919
103914
103910
103907
103904
103902
103901
103900
103900
103899
103899
103898
103899
103899
103899
103901
103903
103918
103949
103988
104029
104065
104092
104100
103953
103941
103922
103897
103874
103858
103850
103846
103844
103842
103842
103841
103841
103840
103840
103839
103837
103836
103835
103833
103831
103831
103831
103837
103858
103891
103927
103961
103989
104000
103855
103846
103830
103812
103798
103790
103785
103780
103779
103779
103780
103781
103781
103780
103779
103778
103776
103774
103771
103767
103764
103761
103760
103761
103774
103800
103832
103863
103888
103902
103762
103755
103744
103734
103730
103729
103723
103717
103716
103717
103719
103721
103721
103720
103718
103717
103716
103713
103709
103704
103699
103695
103692
103690
103696
103716
103741
103768
103790
103803
103673
103668
103664
103663
103666
103667
103662
103657
103654
103655
103657
103659
103659
103659
103658
103657
103655
103652
103649
103644
103638
103633
103629
103626
103628
103640
103658
103679
103696
103707
103587
103586
103588
103593
103597
103599
103598
103595
103592
103593
103593
103594
103595
103595
103595
103594
103592
103590
103587
103583
103579
103574
103571
103568
103568
103572
103582
103595
103608
103616
103502
103506
103513
103520
103524
103527
103530
103532
103531
103530
103530
103529
103531
103531
103531
103530
103528
103526
103524
103522
103519
103516
103513
103510
103510
103507
103511
103518
103526
103531
103420
103429
103439
103446
103453
103459
103467
103471
103473
103471
103469
103467
103465
103465
103465
103464
103463
103461
103460
103458
103457
103455
103454
103452
103450
103446
103446
103446
103448
103451
103355
103359
103370
103379
103390
103401
103410
103416
103417
103415
103411
103408
103402
103399
103399
103398
103396
103394
103393
103393
103392
103393
103393
103392
103388
103386
103379
103376
103375
103375
103302
103304
103310
103322
103335
103347
103356
103361
103362
103359
103354
103349
103343
103337
103333
103330
103328
103326
103326
103326
103326
103328
103331
103333
103329
103323
103313
103307
103303
103302
103254
103257
103262
103272
103282
103291
103298
103301
103301
103299
103296
103292
103287
103280
103274
103269
103265
103263
103262
103261
103262
103265
103270
103275
103270
103258
103247
103237
103230
103230
103208
103213
103218
103223
103226
103229
103232
103234
103236
103236
103236
103234
103231
103227
103222
103216
103212
103209
103206
103205
103205
103207
103211
103215
103208
103194
103179
103168
103158
103159
103163
103168
103168
103165
103161
103160
103162
103165
103169
103171
103173
103175
103176
103175
103172
103169
103165
103161
103158
103155
103153
103153
103152
103151
103144
103130
103115
103104
103094
103095
103113
103111
103104
103096
103090
103089
103093
103097
103102
103105
103109
103113
103117
103120
103121
103120
103118
103115
103112
103108
103103
103099
103095
103089
103080
103068
103057
103048
103041
103037
103046
103039
103030
103023
103018
103021
103026
103031
103035
103039
103042
103046
103050
103055
103059
103062
103064
103064
103063
103060
103055
103049
103042
103031
103021
103011
103005
102998
102993
102988
102962
102958
102953
102949
102950
102955
102961
102965
102967
102968
102970
102972
102975
102979
102983
102988
102993
102997
103002
103004
103003
102998
102990
102978
102967
102960
102955
102950
102946
102942
102876
102876
102877
102878
102885
102892
102896
102896
102895
102894
102893
102894
102896
102898
102901
102905
102910
102916
102923
102929
102935
102936
102932
102924
102916
102912
102908
102904
102901
102898
102798
102800
102806
102813
102822
102828
102828
102823
102819
102816
102814
102814
102815
102816
102819
102822
102826
102831
102837
102844
102851
102856
102860
102862
102862
102863
102862
102858
102855
102852
102735
102737
102743
102753
102761
102761
102754
102747
102741
102737
102735
102735
102736
102737
102740
102743
102746
102749
102753
102758
102764
102771
102778
102786
102796
102805
102810
102809
102806
102802
102682
102683
102689
102696
102696
102688
102678
102669
102663
102660
102658
102659
102661
102663
102666
102669
102671
102674
102676
102679
102682
102688
102695
102705
102717
102731
102744
102750
102749
102745
102629
102633
102637
102635
102624
102611
102600
102592
102587
102586
102586
102588
102591
102594
102596
102599
102601
102603
102604
102606
102607
102609
102615
102623
102635
102649
102663
102676
102681
102681
102577
102580
102577
102562
102547
102533
102523
102518
102517
102517
102519
102521
102524
102526
102529
102531
102533
102534
102535
102535
102535
102536
102540
102546
102555
102566
102579
102592
102603
102608
102518
102514
102499
102481
102466
102455
102450
102449
102450
102452
102454
102456
102458
102460
102462
102464
102465
102465
102465
102465
102464
102465
102469
102474
102480
102487
102496
102507
102519
102527
102440
102429
102413
102397
102386
102380
102380
102381
102383
102386
102389
102391
102392
102394
102396
102397
102397
102397
102397
102396
102395
102396
102401
102405
102409
102412
102416
102422
102430
102437
102346
102336
102324
102313
102308
102308
102310
102313
102316
102320
102323
102326
102327
102329
102330
102330
102330
102329
102329
102328
102327
102329
102332
102335
102337
102338
102338
102338
102340
102345
102252
102244
102238
102234
102235
102238
102241
102245
102250
102255
102258
102261
102263
102263
102263
102263
102262
102262
102262
102262
102262
102263
102262
102262
102263
102262
102259
102256
102252
102254
102164
102161
102162
102164
102168
102172
102176
102182
102187
102191
102194
102196
102197
102197
102196
102196
102195
102196
102197
102199
102200
102199
102196
102193
102190
102187
102182
102177
102169
102165
102090
102090
102097
102103
102107
102112
102116
102121
102126
102128
102129
102130
102131
102130
102129
102128
102129
102132
102136
102139
102141
102140
102136
102131
102124
102118
102111
102105
102098
102094
102024
102030
102037
102045
102050
102055
102059
102061
102063
102063
102063
102063
102063
102062
102062
102062
102065
102070
102075
102080
102083
102083
102080
102074
102067
102058
102049
102042
102038
102036
101963
101970
101978
101986
101991
101995
101997
101996
101995
101995
101995
101996
101995
101995
101995
101998
102002
102008
102014
102018
102021
102023
102021
102017
102011
102004
101996
101989
101985
101981
101901
101908
101913
101918
101922
101925
101925
101924
101924
101925
101926
101927
101928
101928
101930
101933
101938
101944
101949
101951
101953
101954
101954
101953
101950
101947
101943
101939
101933
101927
101834
101834
101835
101838
101842
101845
101847
101848
101850
101852
101855
101858
101860
101862
101864
101868
101873
101878
101879
101880
101880
101879
101878
101877
101877
101877
101879
101880
101877
101872
101751
101749
101749
101753
101758
101763
101768
101772
101775
101779
101783
101788
101792
101795
101798
101802
101806
101808
101807
101806
101804
101802
101800
101798
101796
101796
101799
101804
101809
101810
101659
101659
101660
101667
101675
101682
101688
101694
101699
101703
101709
101715
101722
101726
101729
101733
101735
101735
101733
101731
101728
101726
101722
101719
101715
101713
101713
101717
101723
101730
101562
101563
101570
101580
101592
101601
101609
101616
101621
101627
101633
101640
101648
101655
101659
101661
101662
101660
101658
101655
101652
101649
101645
101641
101636
101631
101627
101627
101631
101635
101450
101461
101479
101495
101510
101522
101530
101537
101543
101549
101556
101564
101573
101580
101585
101587
101587
101585
101582
101578
101575
101572
101568
101563
101558
101551
101544
101538
101537
101540
101362
101372
101394
101414
101432
101444
101451
101457
101463
101469
101477
101486
101496
101504
101509
101512
101511
101509
101505
101502
101498
101495
101491
101486
101480
101472
101461
101450
101439
101444
101316
101318
101327
101344
101360
101370
101376
101381
101386
101391
101399
101408
101418
101427
101433
101435
101435
101432
101429
101425
101421
101418
101414
101409
101402
101393
101381
101366
101348
101345
101286
101286
101287
101294
101303
101312
101319
101322
101324
101326
101328
101333
101342
101350
101356
101359
101359
101356
101352
101348
101343
101340
101338
101333
101326
101316
101304
101288
101273
101267
101258
101260
101261
101264
101268
101273
101278
101280
101280
101278
101275
101273
101274
101278
101282
101284
101283
101281
101277
101271
101266
101263
101260
101257
101251
101243
101233
101223
101219
101215
101232
101235
101237
101238
101239
101241
101243
101244
101242
101239
101234
101227
101222
101217
101215
101213
101212
101209
101205
101200
101196
101193
101190
101188
101185
101181
101177
101176
101177
101175
101203
101206
101207
101207
101205
101204
101204
101204
101203
101200
101194
101187
101178
101169
101162
101156
101152
101149
101147
101146
101145
101144
101143
101141
101140
101139
101139
101140
101140
101139
101170
101169
101167
101163
101159
101156
101154
101154
101154
101154
101150
101145
101136
101127
101118
101111
101107
101105
101105
101106
101107
101108
101108
101108
101108
101109
101110
101109
101106
101103
101123
101119
101112
101104
101098
101094
101093
101093
101095
101097
101097
101096
101091
101084
101077
101071
101068
101067
101068
101070
101072
101074
101075
101076
101077
101078
101077
101075
101071
101066
101057
101051
101041
101032
101027
101025
101024
101026
101028
101031
101035
101037
101038
101036
101033
101030
101028
101028
101029
101031
101032
101033
101034
101035
101036
101035
101033
101031
101029
101026
100974
100967
100959
100953
100951
100951
100953
100955
100959
100963
100967
100972
100976
100980
100981
100982
100982
100981
100981
100981
100980
100978
100977
100976
100974
100972
100970
100971
100974
100976
100879
100874
100871
100870
100872
100875
100878
100883
100887
100892
100898
100903
100909
100914
100919
100922
100923
100922
100920
100916
100913
100909
100905
100901
100898
100894
100892
100893
100899
100906
100777
100777
100780
100785
100790
100797
100803
100809
100815
100821
100827
100833
100839
100844
100849
100852
100853
100851
100848
100843
100838
100833
100827
100822
100817
100811
100807
100804
100807
100813
100669
100676
100687
100698
100708
100718
100727
100735
100742
100749
100756
100762
100768
100773
100777
100779
100779
100777
100773
100767
100761
100755
100748
100741
100734
100727
100719
100711
100707
100708
100547
100569
100593
100612
100627
100640
100651
100661
100670
100678
100685
100692
100697
100702
100705
100706
100705
100702
100697
100691
100684
100676
100669
100660
100651
100641
100630
100616
100604
100598
100450
100472
100503
100529
100548
100563
100576
100587
100597
100607
100615
100622
100627
100632
100634
100635
100633
100629
100623
100616
100607
100598
100589
100579
100569
100557
100542
100523
100499
100484
100405
100410
100429
100453
100473
100489
100502
100514
100526
100537
100546
100553
100559
100563
100565
100564
100562
100557
100549
100540
100530
100520
100509
100499
100489
100477
100461
100439
100414
100403
100379
100378
100382
100392
100405
100418
100430
100443
100457
100468
100478
100486
100492
100495
100497
100496
100493
100486
100477
100466
100454
100442
100431
100421
100412
100403
100391
100376
100369
100367
100357
100357
100356
100357
100359
100364
100371
100380
100391
100403
100413
100421
100427
100430
100432
100430
100426
100419
100409
100396
100383
100373
100364
100358
100353
100350
100347
100345
100345
100345
100338
100339
100338
100335
100332
100331
100332
100335
100340
100346
100353
100360
100365
100368
100369
100368
100364
100357
100348
100339
100332
100327
100323
100321
100321
100322
100324
100326
100327
100326
100321
100322
100320
100315
100310
100306
100303
100302
100301
100302
100304
100307
100309
100311
100312
100311
100309
100306
100302
100300
100298
100297
100296
100297
100298
100301
100305
100309
100311
100310
100303
100302
100296
100290
100284
100278
100274
100270
100266
100263
100261
100260
100260
100260
100261
100261
100262
100263
100265
100267
100268
100269
100271
100273
100275
100279
100284
100289
100293
100293
100273
100268
100260
100253
100247
100242
100236
100231
100225
100221
100217
100214
100213
100212
100213
100214
100217
100220
100225
100229
100233
100237
100240
100243
100246
100250
100254
100260
100266
100269
100214
100203
100197
100195
100194
100190
100184
100178
100173
100169
100165
100163
100161
100161
100162
100164
100167
100171
100176
100181
100186
100191
100196
100200
100203
100207
100208
100210
100215
100225
100128
100112
100115
100118
100121
100120
100117
100113
100110
100107
100106
100104
100104
100104
100105
100107
100109
100113
100116
100121
100126
100131
100135