/*--------------------------------*- C++ -*----------------------------------*\
| =========                 |                                                 |
| \\      /  F ield         | OpenFOAM: The Open Source CFD Toolbox           |
|  \\    /   O peration     | Version:  v1606+                                |
|   \\  /    A nd           | Web:      www.OpenFOAM.com                      |
|    \\/     M anipulation  |                                                 |
\*---------------------------------------------------------------------------*/
FoamFile
{
    version     2.0;
    format      ascii;
    class       volScalarField;
    location    "3.6";
    object      p;
}
// * * * * * * * * * * * * * * * * * * * * * * * * * * * * * * * * * * * * * //

dimensions      [1 -1 -2 0 0 0 0];

internalField   nonuniform List<scalar> 
11640
(
5090.27980983
5090.9180116
5092.21107918
5094.11966811
5096.47765891
5099.23914482
5102.50906842
5106.16410466
5109.95470535
5113.69566455
5117.28169855
5120.63766117
5123.71366467
5126.38831441
5128.49720529
5130.07664829
5131.42589356
5132.56804834
5133.32673583
5133.66722838
5091.12048985
5091.70388989
5092.81932373
5094.12589633
5095.61132602
5097.84746143
5101.24884677
5105.53385961
5110.09156005
5114.58049499
5118.89702185
5122.96986782
5126.74082968
5129.95671222
5132.07988097
5132.93095996
5133.09125124
5133.39947087
5133.95631574
5134.31496566
5092.79007454
5093.16846673
5093.25057805
5092.65216891
5092.57129267
5094.39085039
5098.44608519
5104.00470025
5109.98039499
5115.84193747
5121.50642874
5126.87025659
5131.92798171
5136.26611056
5138.93394921
5139.30583122
5137.84565393
5136.04540977
5135.35360503
5135.49662885
5095.20974912
5094.7004584
5092.44323978
5089.45041628
5088.19662039
5090.10012215
5095.22541136
5102.38985728
5110.06902469
5117.53520917
5124.75303715
5131.6441104
5138.17576106
5143.89105096
5147.52251628
5147.96231884
5145.39965431
5141.27879339
5138.16726698
5137.24234133
5098.04967749
5095.85013801
5090.93828633
5086.11160845
5084.22113211
5086.58495398
5092.92845775
5101.67137022
5110.84226984
5119.73174352
5128.28917076
5136.49243309
5144.23831381
5151.17323914
5155.95545034
5156.94023298
5153.85969855
5147.98324566
5142.28782817
5139.65755012
5101.10819288
5097.1581926
5090.26530844
5084.26499197
5082.17010145
5085.17594909
5092.64276051
5102.61300096
5112.74672747
5122.44759701
5131.6413406
5140.32293553
5148.6659505
5156.64381434
5162.87519252
5164.67756628
5161.40275026
5154.47190707
5146.93980856
5142.64490536
5104.66887464
5099.59634589
5091.6364804
5085.03180934
5082.90069417
5086.38208494
5094.61643375
5105.46504345
5115.93756527
5126.05724416
5135.73950151
5144.97378517
5153.99733714
5162.13513408
5167.97178642
5169.90099526
5166.70197109
5159.34714678
5150.94041273
5145.6799764
5108.80477699
5103.38742453
5095.09239064
5088.25136542
5086.01275311
5089.46176957
5097.73799616
5109.0153081
5118.58864225
5127.09566094
5135.14315505
5143.28962645
5151.9747771
5162.74065223
5170.05580605
5172.80803438
5169.9152278
5162.57754487
5154.01029247
5148.52050884
5113.20833532
5107.76385626
5099.39690278
5092.43316559
5090.01675494
5093.20945349
5101.17747185
5112.1380056
5121.12179787
5129.77077516
5138.06340311
5146.49286728
5154.88770227
5165.32215609
5172.53126532
5175.35601626
5172.56703568
5165.28891187
5156.75160742
5151.27660332
5117.61233114
5112.13755603
5103.69254667
5096.5938156
5093.98119088
5096.91865342
5104.51369883
5114.89183326
5123.41686805
5132.20742496
5140.51785617
5148.92459451
5157.42601688
5167.95852236
5175.16092496
5178.0106269
5175.24844418
5167.9875867
5159.45845015
5153.9885369
5121.9153042
5116.41244875
5107.89055469
5100.65248025
5097.83532481
5100.54685515
5107.99214286
5118.75974895
5127.60386288
5135.37712516
5143.18996145
5151.17000778
5159.81306147
5170.37114354
5177.76434936
5180.62955321
5177.87536752
5170.59841643
5162.05897988
5156.58713833
5126.15223383
5120.87639556
5112.48878783
5105.20200203
5102.10250504
5104.24972806
5110.5255264
5118.16390735
5126.52516283
5135.0626256
5143.99760747
5153.41053332
5162.80519821
5172.59540461
5179.75619979
5182.42449516
5179.54265816
5172.3328374
5164.03313165
5158.86451362
5130.44782016
5126.14435345
5118.60091205
5111.67059268
5108.37171052
5109.876146
5115.47225356
5123.15031494
5131.26251351
5139.45108655
5147.82963682
5156.46572558
5165.26386704
5173.8345181
5180.02614441
5181.92034133
5178.87186521
5172.12578887
5164.73879909
5160.60793216
5134.58525133
5131.97161579
5126.24651711
5120.31277718
5117.05529956
5117.79782095
5122.24956513
5128.85767426
5136.06711946
5143.35869113
5150.75990843
5158.28536842
5165.8868647
5172.99435663
5177.79902283
5178.77837274
5175.69554882
5169.93930579
5164.44742771
5161.9753884
5138.06155843
5137.19356551
5134.05529722
5129.84363206
5127.11088025
5127.32828689
5130.59865387
5135.82103519
5141.5943768
5147.40945
5153.27012264
5159.15684819
5164.98308611
5170.34018246
5173.67828343
5173.93424471
5171.25583315
5167.15277912
5164.17574884
5163.33793583
5140.78660445
5140.95583853
5140.29078669
5138.44570399
5136.86410517
5137.00529998
5139.27183106
5142.99036642
5147.12689478
5151.24123093
5155.3704874
5159.49136309
5163.48245728
5166.99258955
5169.03359843
5168.98021888
5167.27804471
5165.40398912
5164.63511309
5164.63071375
5142.98047934
5143.38605572
5143.98083583
5144.2678029
5144.31116973
5144.90873707
5146.58263421
5149.09857539
5151.86280341
5154.59306529
5157.26088832
5159.8339053
5162.26864072
5164.34106565
5165.55584768
5165.74991811
5165.4569482
5165.35091746
5165.51306605
5165.64840079
5144.63689811
5145.0528066
5145.8542253
5146.98563624
5148.22702171
5149.54647508
5151.18728954
5153.12647574
5155.1438142
5157.10455046
5158.96522159
5160.69201328
5162.25525519
5163.58153977
5164.54254785
5165.14306889
5165.61344222
5166.01655338
5166.27174045
5166.38204933
5145.7339784
5146.14760752
5146.95006185
5148.10564547
5149.55214019
5151.21377352
5153.01088347
5154.86514427
5156.70573632
5158.4732762
5160.11931613
5161.60915719
5162.91696477
5164.02731796
5164.93540323
5165.64522226
5166.1694977
5166.53301072
5166.74990583
5166.85009133
5146.27126282
5146.67179542
5147.46635905
5148.61831659
5150.06492463
5151.73093475
5153.5335476
5155.39170022
5157.23076071
5158.98931454
5160.61794205
5162.07991757
5163.3507046
5164.41926349
5165.28499428
5165.9572174
5166.45460285
5166.79126419
5166.99196437
5167.07839354
4763.18714155
4763.84632327
4765.17132369
4767.06975725
4769.19085673
4771.6231734
4774.82545621
4778.67428485
4782.73422917
4786.74078111
4790.58615084
4794.19450084
4797.5125869
4800.38431213
4802.48353745
4803.80733271
4804.93322406
4806.03259597
4806.7942183
4807.16264915
4764.05828755
4764.67244313
4765.53434466
4765.79656753
4765.72814572
4766.90685562
4770.3727116
4775.55216958
4781.22146262
4786.81867768
4792.23564601
4797.3883669
4802.26755191
4806.39348489
4808.70700636
4808.76100562
4807.67876209
4807.11281423
4807.42496532
4807.7847685
4765.77421617
4765.85880976
4764.13941881
4760.14950642
4756.89261517
4757.32569894
4762.20984035
4770.02200495
4778.60052305
4787.06416676
4795.30688623
4803.28301148
4810.93137221
4817.53268641
4821.16200112
4820.42794508
4816.16324067
4811.37797132
4809.11323663
4808.94719696
4768.17918223
4766.05130371
4759.23722567
4750.46839037
4744.98814572
4745.74443939
4752.89055616
4763.95877848
4775.95493728
4787.7642931
4799.35689081
4810.59499995
4821.45749904
4831.06858449
4836.82648949
4836.38174796
4830.01772013
4820.55162032
4813.24010028
4810.84836275
4770.60215498
4764.72584232
4752.56864397
4740.27519404
4733.73673369
4735.64062894
4745.34140494
4759.49904145
4774.57027592
4789.38863749
4803.84515105
4817.92859332
4831.51221742
4843.81280387
4851.95585029
4852.74734732
4845.36591704
4832.43061721
4819.83177389
4813.72025319
4772.93465803
4763.40761161
4747.42790527
4733.00104678
4726.33643594
4729.82262656
4741.8817621
4758.38302483
4775.37052044
4791.88418069
4807.85445814
4823.444901
4838.55637929
4852.93148289
4863.60956631
4866.0855687
4858.61165937
4843.61269078
4827.25109966
4817.52608522
4776.01537064
4764.28041955
4746.35570175
4730.96118161
4724.50754823
4729.25233837
4742.96930295
4761.34242871
4779.08847214
4796.32343262
4813.19576324
4829.27373707
4845.26951494
4859.85973192
4871.29683433
4874.50348102
4867.20527468
4851.3121886
4833.07757251
4821.19224659
4780.07038633
4767.71449116
4749.25664086
4733.55891335
4727.08510534
4732.00831408
4745.74020436
4764.95109881
4781.46978288
4797.02963932
4811.71281563
4826.95410612
4842.61823055
4860.66474763
4873.71996208
4878.18800873
4871.33213809
4855.3614316
4836.70957689
4824.25544217
4784.54240099
4772.15787511
4753.6306143
4737.81088373
4731.15218635
4735.79785254
4749.10530938
4768.16516589
4784.11162632
4799.74480871
4815.18035761
4830.72785007
4845.94405641
4863.52250579
4876.25639347
4880.77149051
4874.01551713
4858.10875804
4839.49114361
4827.0523735
4789.00805692
4776.59443318
4757.99451411
4742.0458147
4735.19271555
4739.56691057
4752.48879465
4770.88926181
4786.42336221
4801.9821711
4817.2908287
4832.93929168
4848.34634817
4866.21106074
4878.9232012
4883.45759114
4876.73144032
4860.84189197
4842.2346256
4829.8013179
4793.36396781
4780.92233546
4762.2521881
4746.17425412
4739.12104335
4743.24308005
4755.92253108
4774.2254969
4789.90487255
4804.93221987
4819.7638202
4835.22245281
4850.83289785
4868.68647132
4881.56481982
4886.1179951
4879.39171158
4863.48306763
4844.86583906
4832.42903253
4797.82318135
4785.94864513
4767.69359952
4751.70041619
4744.29542007
4747.59105452
4759.08059
4773.28298229
4788.54424972
4804.28528674
4820.41983974
4836.93421532
4853.55737598
4870.68858062
4883.26328026
4887.33332927
4880.39799857
4864.61436741
4846.43622664
4834.57436716
4802.73977993
4793.02819413
4776.65082089
4761.53176067
4753.81493411
4755.82169377
4765.95976628
4780.02735859
4794.91374076
4809.86194789
4824.97046121
4840.34108978
4855.92707252
4871.14950514
4881.83465572
4884.32907399
4876.93120843
4861.94268363
4845.49732537
4835.7739593
4807.67978915
4801.59141961
4788.99472699
4775.96708566
4768.35108413
4768.77242199
4776.56099224
4788.4806736
4801.49585711
4814.61080796
4827.84529565
4841.20313418
4854.66306443
4867.19222639
4875.34598556
4875.96511451
4868.38577943
4855.26564244
4842.53933493
4836.34621556
4811.60353857
4809.25227404
4801.95134933
4792.41653352
4785.85926423
4785.17970261
4790.54947996
4799.63669627
4809.68343214
4819.79836262
4829.95983096
4840.16177242
4850.33613739
4859.48483153
4864.82404426
4863.9777747
4857.13483945
4847.27092745
4839.70577938
4837.21687477
4814.41405299
4814.27698266
4812.03907174
4807.25267607
4802.91576534
4801.96637446
4805.1902925
4811.16169406
4817.87987727
4824.62254245
4831.31275228
4837.92235433
4844.4744186
4850.17952444
4853.01117425
4851.55622267
4846.66003471
4841.35597997
4838.74964826
4838.42229624
4816.61354705
4817.01137241
4817.35407348
4816.78610518
4815.62780122
4815.46225855
4817.34574385
4820.77455162
4824.62878298
4828.44769184
4832.18802489
4835.81755916
4839.30987363
4842.2161266
4843.43393533
4842.51276926
4840.61003415
4839.40967077
4839.2810956
4839.42008181
4818.27288322
4818.6820376
4819.49352166
4820.59904141
4821.63820901
4822.72903179
4824.37940087
4826.52208796
4828.78703229
4830.98767408
4833.07716413
4835.02128757
4836.79343589
4838.24407041
4839.06332989
4839.26290112
4839.4328426
4839.77444594
4840.02583973
4840.13627412
4819.36883939
4819.77827104
4820.59076249
4821.77095518
4823.2504275
4824.95096097
4826.78693312
4828.6763118
4830.54582311
4832.33384555
4833.9901142
4835.47937502
4836.7770877
4837.8696257
4838.75475263
4839.43980542
4839.94257824
4840.28730124
4840.49172428
4840.59236694
4819.90237463
4820.30185386
4821.10807749
4822.28579517
4823.76651492
4825.4712786
4827.31221619
4829.20565159
4831.07372415
4832.85245377
4834.49126237
4835.95322676
4837.21494415
4838.2665444
4839.11018497
4839.75680517
4840.22815225
4840.54593863
4840.73682435
4840.82209109
4435.34797125
4436.03948761
4437.42105838
4439.34729499
4441.44603564
4443.89647945
4447.20661864
4451.21569459
4455.44503883
4459.61542532
4463.61691161
4467.37152882
4470.8196795
4473.79864351
4475.95695557
4477.25871014
4478.31979548
4479.39028745
4480.17193785
4480.56522796
4436.26779116
4436.91379983
4437.69789009
4437.74646183
4437.50461653
4438.67768096
4442.32562099
4447.7903421
4453.76645927
4459.66358923
4465.37266562
4470.82301948
4475.94260849
4480.28648661
4482.71438298
4482.70165314
4481.40363136
4480.60980728
4480.81825858
4481.17514204
4438.06790381
4438.03121677
4435.90995399
4431.48147959
4428.0407625
4428.57111228
4433.77372096
4442.0189502
4451.0491631
4459.95814822
4468.63056221
4477.00702228
4485.04019793
4491.97326374
4495.8276386
4495.10948471
4490.58973043
4485.33692003
4482.66868173
4482.35377155
4440.51608114
4437.95269891
4430.44233348
4421.21027958
4415.64169095
4416.64170299
4424.2564575
4435.90057652
4448.48216339
4460.88924123
4472.92845992
4484.6641552
4496.00078022
4506.00588929
4512.09073589
4511.77298755
4505.20380903
4495.23719252
4487.22000924
4484.40319383
4442.88174884
4436.2710552
4423.30739855
4410.61322339
4404.14022522
4406.49285555
4416.84508244
4431.75150025
4447.47116118
4462.81274367
4477.79189097
4492.40060083
4506.46399729
4519.11108761
4527.65032515
4528.59626284
4521.18243146
4507.78516018
4494.3694553
4487.52993584
4445.16358649
4434.69041132
4417.90406849
4403.16529058
4396.7609098
4400.99177388
4413.98738808
4431.54656703
4448.90874288
4465.69875058
4481.95883712
4497.79560156
4513.06676988
4528.11640623
4539.27892086
4542.2262877
4534.86720924
4519.47564007
4502.28853735
4491.61882307
4448.29418256
4435.50757275
4416.78694672
4401.14592946
4395.12033502
4400.98042788
4416.04127255
4436.21562717
4454.24583925
4471.67249105
4488.46682922
4504.35984302
4520.33378138
4534.51616706
4547.08859102
4550.9304538
4543.76129835
4527.49397135
4508.4280687
4495.48339832
4452.47533008
4439.04166042
4419.78865354
4403.84708764
4397.83375754
4404.009416
4418.92876152
4442.29212304
4457.15830255
4471.35996203
4484.03028932
4497.57847528
4510.85003337
4534.14835334
4548.88466072
4554.49679481
4547.97339981
4531.67537208
4512.20256246
4498.66307703
4457.09120954
4443.62882066
4424.30429808
4408.23070152
4402.02718877
4407.95497636
4422.41640474
4445.44348072
4459.74786345
4474.34203093
4488.36508419
4502.96962892
4515.94901233
4537.46374414
4551.5996798
4557.17014276
4550.73800902
4534.50251003
4515.06495799
4501.54189688
4461.68731347
4448.19615037
4428.79866435
4412.59104811
4406.17608588
4411.8161329
4425.87763338
4447.91381217
4461.68037564
4476.23996177
4490.0768523
4504.89499483
4518.24723834
4540.17311581
4554.34659505
4559.92878506
4553.52884467
4537.30816937
4517.8800471
4504.36198029
4466.15582208
4452.63525258
4433.16578409
4416.82283803
4410.17929099
4415.54604541
4429.50945139
4451.56198805
4465.46973423
4479.3830495
4492.65938279
4507.27736094
4521.02023734
4542.69681753
4557.04587915
4562.66618451
4556.25414714
4540.00609323
4520.56731311
4507.0448279
4470.7374677
4457.81066274
4438.74839876
4422.45413359
4415.32948041
4419.41637712
4431.75379111
4445.08682791
4460.42283436
4476.28076134
4492.69631935
4509.51046651
4526.29768497
4545.08098477
4558.87217644
4563.88300404
4557.22777057
4541.10592652
4522.12172254
4509.20010597
4475.83809758
4465.18674558
4447.99923921
4432.52582108
4424.96880169
4427.54368231
4438.42414031
4453.1103081
4468.28777274
4483.4467185
4498.78833118
4514.45524532
4530.39159235
4546.34930966
4557.88153001
4560.93282549
4553.6429368
4538.2681417
4521.00256156
4510.30848871
4481.03535128
4474.21871834
4460.81963121
4447.36337622
4439.73794748
4440.50410117
4448.79448311
4461.1163356
4474.58865892
4488.17589326
4501.88155955
4515.70772502
4529.68482919
4542.85735892
4551.52425532
4552.42549994
4544.7773294
4531.18023413
4517.60265352
4510.67091344
4485.18140271
4482.39454611
4474.40952013
4464.40281153
4457.71349569
4457.21469372
4462.95967053
4472.4269096
4482.99628388
4493.5843652
4504.20098892
4514.82264776
4525.48914176
4535.12043319
4540.7865393
4540.03704325
4532.98801749
4522.58939404
4514.28651205
4511.32911314
4488.08192871
4487.8140858
4485.18240025
4479.96132798
4475.42650043
4474.54338036
4478.03322485
4484.3558575
4491.46140758
4498.5568324
4505.60492911
4512.57917227
4519.47321758
4525.48704902
4528.49665079
4527.00421316
4521.81175226
4515.98743947
4512.92009779
4512.42954838
4490.29728159
4490.70006807
4490.95469924
4490.18489904
4488.85574479
4488.66822174
4490.70051165
4494.3634346
4498.46861971
4502.5219838
4506.48106755
4510.31388162
4513.99738469
4517.05496105
4518.31303067
4517.25037786
4515.05324773
4513.53836958
4513.25698604
4513.38360081
4491.96384435
4492.38079726
4493.22323863
4494.341362
4495.35761722
4496.46600566
4498.20485207
4500.46684132
4502.84873439
4505.14938859
4507.32051201
4509.32657993
4511.14381213
4512.61294361
4513.39148175
4513.46365213
4513.47864054
4513.73745068
4513.9611022
4514.05837669
4493.06002306
4493.47849633
4494.32274106
4495.55785241
4497.1076849
4498.88549628
4500.7976439
4502.75575168
4504.680563
4506.50555897
4508.17882278
4509.66453929
4510.94082119
4511.99736894
4512.83617923
4513.47046827
4513.92470805
4514.2284726
4514.40643454
4514.48419079
4493.58890072
4493.99861114
4494.83759844
4496.07128352
4497.62370149
4499.40706189
4501.3256766
4503.28913894
4505.21376074
4507.02977105
4508.68414948
4510.14072178
4511.37872923
4512.39147941
4513.18553512
4513.77825599
4514.19675597
4514.47059084
4514.62926268
4514.68865499
4106.72537587
4107.45628875
4108.91547572
4110.937058
4113.13840445
4115.71945778
4119.1945177
4123.38667914
4127.80021614
4132.14854016
4136.31622744
4140.21963857
4143.79712121
4146.88219794
4149.12284207
4150.47509532
4151.56187824
4152.64865954
4153.45799518
4153.86877701
4107.70832453
4108.38052259
4109.19544266
4109.27042338
4109.09303094
4110.39450809
4114.23188829
4119.91793769
4126.11865564
4132.2338051
4138.14742595
4143.78035813
4149.06188048
4153.53265651
4156.05191194
4156.0743002
4154.76162461
4153.94158242
4154.13717645
4154.49220293
4109.62754203
4109.56465672
4107.38172704
4102.92439834
4099.54879386
4100.23950801
4105.6763375
4114.19207193
4123.49520027
4132.6654077
4141.58620066
4150.18082952
4158.390272
4165.44951706
4169.40849524
4168.73473765
4164.18312879
4158.83931881
4156.07911495
4155.72040559
4112.21957629
4109.54305393
4101.89616724
4092.63144138
4087.16023004
4088.37106658
4096.27702056
4108.2577999
4121.17046858
4133.86692043
4146.22821899
4158.18904838
4169.70540353
4179.75916473
4185.94995902
4185.67780907
4179.06390209
4169.00013673
4160.81582203
4157.88156882
4114.73488325
4107.93218534
4094.80468641
4082.09790353
4075.77890119
4078.41911694
4089.14158967
4104.51890353
4120.66822541
4136.43523969
4151.75180381
4166.57372399
4180.81024724
4193.20193376
4201.83575453
4202.77184462
4195.32877158
4181.82376049
4168.21091454
4161.18014505
4117.1920835
4106.47157836
4089.52064212
4074.80020188
4068.61762543
4073.22580581
4086.6239069
4104.61801095
4122.5887406
4140.02108
4156.879799
4173.10256004
4188.75988096
4202.59580103
4213.80911064
4216.48210696
4209.22909741
4193.75668253
4176.36871579
4165.4493551
4120.53347486
4107.47317454
4088.59222793
4072.99331431
4067.25234919
4073.6622128
4089.49958289
4113.24012166
4132.52195121
4150.74615891
4168.05809262
4184.30498076
4200.66944605
4208.97109356
4221.84433439
4225.67841293
4218.38857657
4201.98897333
4182.70627254
4169.47859911
4124.94447284
4111.23061752
4091.81102279
4075.88313458
4070.02108534
4076.03453739
4089.35506899
4209.79623099
4223.90305957
4229.20792518
4222.70140468
4206.30606981
4186.62548992
4172.79903395
4129.78501986
4116.04353199
4096.54977772
4080.47548943
4074.37785706
4080.00472829
4093.22802491
4213.25229592
4226.92674072
4232.02783132
4225.59351434
4209.25628296
4189.61121279
4175.80245001
4134.5851281
4120.81683719
4101.25157032
4085.04234659
4078.73429408
4084.10828244
4097.26172643
4216.10186647
4229.78663554
4234.87763187
4228.49997624
4212.17326917
4192.53468955
4178.7301801
4139.23112265
4125.43503244
4105.79836694
4089.45326369
4082.9269742
4088.07677737
4101.30084757
4218.88523009
4232.53170571
4237.74878668
4231.33606976
4214.95904425
4195.30537208
4181.49536674
4143.96897712
4130.77517004
4111.54236215
4095.22986308
4088.20067338
4092.19373017
4104.7137696
4112.22892824
4128.3076952
4144.30827017
4161.05851006
4178.33612588
4195.78647705
4218.78108078
4233.49533581
4238.85384892
4232.27199708
4216.09929993
4196.89983404
4183.69494597
4149.21803279
4138.33274469
4120.97810323
4105.48436364
4098.03921311
4100.73694129
4111.73342151
4125.67437709
4140.96922341
4156.43868055
4172.22947338
4188.34826362
4204.67190385
4221.00121653
4232.78292711
4235.97449487
4228.70201053
4213.20724054
4195.74714879
4184.79200114
4154.5587889
4147.56674558
4134.00533601
4120.51219564
4112.96549604
4113.82857428
4122.23702722
4134.45525115
4148.05808561
4161.83915326
4175.78690367
4189.87416028
4204.10804776
4217.63091417
4226.48469891
4227.4476894
4219.76444397
4206.03089094
4192.22312034
4185.08341392
4158.82116262
4155.93743913
4147.82072645
4137.76910133
4131.13829273
4130.7681243
4136.6828435
4146.28777882
4156.99906174
4167.76245992
4178.5532543
4189.35015727
4200.15386541
4209.95363424
4215.70493675
4214.95251408
4207.82138419
4197.26249123
4188.74725748
4185.644862
4161.78390345
4161.50349576
4158.81568459
4153.55696112
4149.06624151
4148.29894466
4151.9484129
4158.42759253
4165.68762211
4172.92452994
4180.10094671
4187.18931356
4194.17311841
4200.2563198
4203.28378781
4201.74139998
4196.43328353
4190.43975334
4187.22308597
4186.6596748
4164.02500377
4164.45353711
4164.73571841
4163.98846956
4162.70819508
4162.61693693
4164.78488537
4168.58964308
4172.82585015
4176.98815659
4181.0309118
4184.9216533
4188.63833666
4191.70319102
4192.92627478
4191.77518632
4189.44867235
4187.80001168
4187.43489031
4187.53912261
4165.70269451
4166.14933157
4167.05223643
4168.24926371
4169.35433555
4170.57149824
4172.43366562
4174.81330642
4177.29418804
4179.66739011
4181.88077869
4183.89879251
4185.70055998
4187.12865155
4187.83757013
4187.81155231
4187.72036185
4187.90062319
4188.073775
4188.1451503
4166.79993499
4167.24790464
4168.15340578
4169.47976622
4171.14210649
4173.04227627
4175.07396814
4177.13799692
4179.14611912
4181.02580036
4182.72125447
4184.19649643
4185.43320183
4186.42675323
4187.18769281
4187.73766144
4188.11088735
4188.34563768
4188.47304136
4188.52207333
4167.32277717
4167.75899069
4168.6578087
4169.98262545
4171.64818046
4173.55580111
4175.59572047
4177.66681771
4179.6760168
4181.54692373
4183.22242101
4184.6663896
4185.86170682
4186.80735921
4187.51949911
4188.02355276
4188.35711838
4188.55920354
4188.66818176
4188.71707438
3777.27414369
3778.05562494
3779.61723846
3781.78834253
3784.1748371
3786.96658989
3790.66846491
3795.09253217
3799.73552437
3804.30548215
3808.67993789
3812.76660761
3816.50434702
3819.72076945
3822.07185171
3823.5132154
3824.6689088
3825.79536748
3826.63824177
3827.06812754
3778.3389965
3779.0469524
3779.95342622
3780.17087538
3780.17428649
3781.68675468
3785.75583354
3791.67903847
3798.11500155
3804.4564066
3810.57974694
3816.39397181
3821.83438966
3826.42808688
3829.05326416
3829.16088735
3827.91582443
3827.14965375
3827.36828053
3827.72338592
3780.4167469
3780.37795586
3778.27180318
3773.94743929
3770.75115732
3771.65986319
3777.340263
3786.10489581
3795.65460551
3805.05871362
3814.193753
3822.97020594
3831.32304349
3838.47232237
3842.52186339
3841.92089793
3837.42441748
3832.12361066
3829.38985192
3829.01854033
3783.2340525
3780.57217947
3772.98849883
3763.85314626
3758.57012408
3760.01453923
3768.18716814
3780.43882983
3793.62144722
3806.56163438
3819.14295413
3831.28279679
3842.92230433
3852.98021573
3859.23879239
3859.01289779
3852.42503186
3842.41821805
3834.25412269
3831.32442437
3786.02442879
3779.22780995
3766.15693878
3753.58379641
3747.47180529
3750.37155206
3761.40824247
3777.12433514
3793.60587575
3809.6563038
3825.19130023
3840.16092458
3854.50813225
3866.69375183
3875.38591668
3876.30804497
3868.89423778
3855.40824554
3841.81112656
3834.78052801
3788.79028698
3778.07178768
3761.17759003
3746.60047634
3740.6469801
3745.53310038
3759.28626929
3777.49093111
3795.88927218
3813.7166386
3830.86469106
3847.26149993
3863.1111354
3876.24956734
3887.60979929
3890.11729475
3882.96352226
3867.52355797
3850.14913511
3839.22741921
3792.45762242
3779.40015377
3760.5815107
3745.14052369
3739.66646241
3746.42686847
3762.96211658
3787.24742971
3807.10379737
3825.73183292
3843.26915276
3859.53629033
3876.24062002
3883.01451616
3896.20028402
3899.82028031
3892.39460745
3875.96417098
3856.6778509
3843.44332008
3797.19511082
3783.48630403
3764.1273455
3748.34214483
3742.69267272
3748.90820302
3764.67582951
3882.40055995
3898.00977526
3903.28907098
3896.82931215
3880.44748779
3860.77507942
3846.94612764
3802.34577422
3788.6127414
3769.1808193
3753.24480689
3747.36000418
3753.18884327
3769.06808423
3886.15514927
3901.22448117
3906.28562557
3899.89340698
3883.5674475
3863.93082117
3850.12035037
3807.42699957
3793.66998077
3774.1693943
3758.09853703
3752.00767584
3757.57296683
3773.07334893
3889.25875075
3904.29186465
3909.33755985
3902.96355175
3886.63801283
3867.00283309
3853.19491538
3812.31655138
3798.53392444
3778.96301317
3762.75329501
3756.43378362
3761.73678359
3777.03565811
3891.89670972
3907.10124112
3912.27057642
3905.9091642
3889.54141867
3869.88633013
3856.07021307
3817.25719497
3804.07808376
3784.90672102
3768.70917151
3761.81128995
3765.71427745
3778.50068302
3785.75259706
3801.87763574
3817.36056943
3833.89999615
3851.18657499
3868.86059597
3892.80499105
3908.02948628
3913.46742929
3906.93584575
3890.76716279
3871.55103193
3858.33517052
3822.67024279
3811.80516911
3794.51693524
3779.14621372
3771.85534073
3774.65238131
3785.89088031
3799.4973689
3814.86131582
3830.36484362
3846.25900635
3862.49702528
3879.04009818
3895.55350466
3907.4999793
3910.68969281
3903.40459146
3887.86847125
3870.41429634
3859.44632897
3828.13659387
3821.17037747
3807.67846279
3794.3092023
3786.92109755
3787.93655896
3796.50047576
3808.59984439
3822.26168645
3836.08407024
3850.10635384
3864.31076888
3878.68306553
3892.3290781
3901.24834349
3902.18708842
3894.46778187
3880.70582539
3866.86164607
3859.70291729
3832.48826436
3829.63636535
3821.59414884
3811.66633876
3805.1927292
3804.98300244
3811.05234178
3820.72402803
3831.52605164
3842.36739265
3853.22682761
3864.08195699
3874.91881659
3884.73958092
3890.4767714
3889.67111308
3882.4827922
3871.87533736
3863.31892588
3860.19197888
3835.50929677
3835.26709873
3832.65943524
3827.52594766
3823.19163159
3822.5916076
3826.40219756
3833.00092336
3840.36594556
3847.683026
3854.91258014
3862.02571667
3869.0033375
3875.0548897
3878.02624231
3876.40879698
3871.02562544
3864.96782902
3861.696699
3861.1070578
3837.78372785
3838.25539168
3838.62439429
3838.00502888
3836.88121171
3836.95877588
3839.29104992
3843.23430232
3847.58311412
3851.82436536
3855.90800299
3859.80098601
3863.48391593
3866.48590196
3867.6251776
3866.37905356
3863.95990889
3862.23183578
3861.81170309
3861.87573032
3839.475099
3839.96859883
3840.9630405
3842.29182949
3843.55473217
3844.9423429
3846.97095597
3849.49573741
3852.09160886
3854.5406922
3856.78585883
3858.791554
3860.54147971
3861.88626556
3862.49138644
3862.35281453
3862.15318381
3862.24074221
3862.3485621
3862.37859441
3840.57227969
3841.06684008
3842.0641544
3843.52408597
3845.34615121
3847.41867502
3849.61856989
3851.83028097
3853.95353308
3855.90672129
3857.62897138
3859.08370945
3860.2583131
3861.15687103
3861.80130079
3862.22711513
3862.48175544
3862.61659475
3862.67020025
3862.67742407
3841.08783784
3841.56672736
3842.55540029
3844.01244998
3845.83821059
3847.91968073
3850.12989232
3852.35048349
3854.4753806
3856.41947767
3858.12001633
3859.54094707
3860.67057306
3861.51627137
3862.10658832
3862.48135623
3862.69184705
3862.79003904
3862.82229369
3862.82314252
3446.92912399
3447.77576852
3449.46913256
3451.83311788
3454.45896113
3457.52300973
3461.51678593
3466.2385265
3471.17604279
3476.0306656
3480.67209883
3484.99866776
3488.94599919
3492.33675393
3494.83462769
3496.39484723
3497.64157206
3498.82029253
3499.70134629
3500.15632548
3448.09889195
3448.85839261
3449.88456644
3450.28542286
3450.52206363
3452.30548836
3456.66938232
3462.89261352
3469.62629228
3476.25470935
3482.64657174
3488.70048915
3494.34814261
3499.10840918
3501.87716941
3502.10050707
3500.94657047
3500.2509389
3500.49996051
3500.85704048
3450.38092715
3450.38074158
3448.37629288
3444.22188029
3441.25484028
3442.43919443
3448.42311799
3457.49027894
3467.34198023
3477.03659878
3486.44061109
3495.45503875
3504.00319977
3511.2924547
3515.47454141
3514.97919445
3510.56444739
3505.31602886
3502.62082025
3502.23718885
3453.48964259
3450.85479269
3443.35537744
3434.38308617
3429.33629804
3431.06882709
3439.56160985
3452.11586885
3465.60684646
3478.84070913
3491.68729217
3504.05724525
3515.87601933
3526.00418536
3532.38225866
3532.2476356
3525.71939917
3515.79184752
3507.65787264
3504.73866902
3456.63721817
3449.85679376
3436.86097763
3424.45510979
3418.59706747
3421.80480707
3433.19871759
3449.22251159
3466.03613581
3482.39421318
3498.19129429
3513.37098026
3527.87558994
3539.9484122
3548.77909505
3549.77202972
3542.43393828
3528.99117289
3515.42181509
3508.39636581
3459.80465436
3449.09737318
3432.27944586
3417.8817351
3412.2055802
3417.4196446
3431.59555898
3449.98912236
3468.71563023
3486.87701769
3504.32242099
3520.9409515
3536.94915069
3549.41630179
3561.21833538
3563.78136481
3556.72629032
3541.34036229
3523.9922742
3513.07456872
3463.89693939
3450.85244275
3432.11792943
3416.87399294
3411.7163272
3418.82924315
3435.97490732
3460.61620885
3480.85325882
3499.85624197
3517.70573283
3534.14593328
3551.26930759
3556.91796316
3570.46103638
3573.90886539
3566.45944414
3550.04029692
3530.76706034
3517.53257971
3469.05935328
3455.36825762
3436.09991237
3420.51805339
3415.22006733
3421.74761735