/*--------------------------------*- C++ -*----------------------------------*\
| =========                 |                                                 |
| \\      /  F ield         | OpenFOAM: The Open Source CFD Toolbox           |
|  \\    /   O peration     | Version:  v1606+                                |
|   \\  /    A nd           | Web:      www.OpenFOAM.com                      |
|    \\/     M anipulation  |                                                 |
\*---------------------------------------------------------------------------*/
FoamFile
{
    version     2.0;
    format      ascii;
    class       volVectorField;
    location    "3.2";
    object      U;
}
// * * * * * * * * * * * * * * * * * * * * * * * * * * * * * * * * * * * * * //

dimensions      [0 1 -1 0 0 0 0];

internalField   nonuniform List<vector> 
11640
(
(0.00262381713914 0.00244282895383 -0.00349521855511)
(0.00770661633616 0.00248934480641 -0.00338939334628)
(0.012473268644 0.00247292550348 -0.00325934255674)
(0.016901507401 0.00247577042315 -0.00313197880179)
(0.020840077099 0.00250321428932 -0.0029492454902)
(0.0241553155559 0.00252616151346 -0.0027151430608)
(0.0266689264944 0.00257279789375 -0.00244096617981)
(0.0283090117246 0.00261151778486 -0.00215376046707)
(0.0291330356888 0.00254366922306 -0.00182544574717)
(0.0291401758797 0.00239373581566 -0.0014410812053)
(0.0284931997393 0.00225237864931 -0.00114577163482)
(0.0272627200889 0.00205238949216 -0.000833100039956)
(0.02550112485 0.00184550817337 -0.00053104692191)
(0.0232862900219 0.00164406877666 -0.000266160704717)
(0.020683137096 0.00142554666517 -3.02168846547e-05)
(0.0177177242355 0.00122399827107 0.000224066021747)
(0.0143862718566 0.00107280217152 0.000453129686432)
(0.0106998905683 0.000979585996866 0.000646851262767)
(0.00666819332084 0.000942881240529 0.000786688155163)
(0.00234269138783 0.00102430497826 0.000855297680468)
(0.00258053582832 0.00741196287518 -0.00347406931753)
(0.00756806840714 0.00744243276235 -0.00346284648542)
(0.0122924410152 0.00735373520066 -0.00337617823976)
(0.0167861455321 0.00730443410003 -0.00329158881252)
(0.0208125231744 0.00735327850259 -0.00319062884086)
(0.0241485406648 0.00749642279314 -0.00300023360851)
(0.026620282216 0.00763345604975 -0.00271945653722)
(0.028152624546 0.00765174455188 -0.00236182761844)
(0.0288254193824 0.00738903478006 -0.00194025267731)
(0.028698907377 0.00695151686755 -0.0015267714173)
(0.0279529850449 0.00641317126509 -0.00114073993391)
(0.0266750538526 0.00578353264703 -0.00076543357632)
(0.024942202696 0.00514757794145 -0.000450363193205)
(0.0227977519319 0.00456228432476 -0.000204536871388)
(0.0202871119231 0.0040053654434 1.80490182688e-05)
(0.0174080995168 0.0035118716853 0.000252930032372)
(0.0141131925378 0.00311097663713 0.000502812112341)
(0.0104303061108 0.00285864320681 0.000699877760023)
(0.00646941203084 0.0027603371024 0.000838237149606)
(0.00224864636866 0.00289677286951 0.00087011008574)
(0.00256350916565 0.0122822216596 -0.00335519292276)
(0.00744175935381 0.0122394630452 -0.00338255164851)
(0.0121614928604 0.0121235943402 -0.0033731027115)
(0.0167518957747 0.0121492115722 -0.00344508424306)
(0.0208594630209 0.0124309955624 -0.00348279641837)
(0.0242029979412 0.0128431696797 -0.00337389765115)
(0.0266027615205 0.0131661096352 -0.00306614101275)
(0.0279409318231 0.0132295956508 -0.00261780638803)
(0.0282760891971 0.0127595848572 -0.00211521723838)
(0.0278967617057 0.0118919670394 -0.00161453009824)
(0.027003946625 0.010784947561 -0.00112324763133)
(0.0256799460596 0.00958096027733 -0.000682752079788)
(0.024010904724 0.00842119108528 -0.000363635053968)
(0.0219929974459 0.0074091396303 -0.000159387095382)
(0.0196466460889 0.00650478148907 7.53736332596e-06)
(0.0169280168392 0.00573339652515 0.000211205947018)
(0.0137620247271 0.00508392610378 0.000482373148276)
(0.0101411090149 0.00465559675025 0.000721870897463)
(0.00626308056787 0.00445156310165 0.000879148970974)
(0.00216013085236 0.00453583603799 0.000928364079608)
(0.00255811761024 0.0168286178291 -0.00318157174623)
(0.00729573964218 0.0167150975247 -0.00327256145091)
(0.0120461516305 0.0166667684669 -0.00341373299959)
(0.0167527605896 0.0169885002741 -0.00369568154958)
(0.0208894537878 0.0177181842646 -0.00391458209391)
(0.0241791910679 0.0186061906099 -0.00389687338559)
(0.0264913963062 0.0192188404511 -0.00355719390255)
(0.0275157391697 0.0193370608066 -0.00297642349077)
(0.0273442737977 0.0184802578188 -0.00239541643505)
(0.0265822079027 0.0167509063694 -0.00175806420008)
(0.0255094937704 0.0146276991654 -0.00116539654604)
(0.0241717366969 0.0125656014456 -0.000662399271545)
(0.0226716285179 0.0108031898574 -0.000341114324783)
(0.020884388166 0.00958434152151 -0.000168250260823)
(0.018805500722 0.00853531827857 -5.03035509427e-05)
(0.016330935843 0.00759804355935 0.000151990638597)
(0.0133717314904 0.0067708237981 0.000444454715161)
(0.00990338692109 0.00618923285528 0.000718048402915)
(0.00608845206807 0.00588793694778 0.00094083916898)
(0.00209128864967 0.00586478944964 0.000984261870619)
(0.00248473544437 0.0208704633792 -0.0029462806962)
(0.00708858691501 0.0207793765482 -0.00314843320334)
(0.0118908156211 0.0209210552196 -0.00347473482706)
(0.0165305824155 0.0217302845375 -0.00394261023102)
(0.0205588146477 0.0231629108784 -0.00425337638722)
(0.0238270882839 0.0246151727704 -0.00432433720811)
(0.0261882017998 0.0256103319586 -0.00392435480161)
(0.0266810252751 0.026230035636 -0.00318843853024)
(0.0257012538987 0.0250321078534 -0.00251595497444)
(0.0243243916184 0.0222419473287 -0.00181529405476)
(0.0231541262811 0.0188792175586 -0.00112181212252)
(0.022194379617 0.015568957211 -0.000494009793254)
(0.0213571398843 0.012962154697 -0.000140389777525)
(0.02009869077 0.0115286030575 5.54594338759e-07)
(0.0182452238362 0.0104283007384 5.95867166956e-05)
(0.0159286554026 0.009291339714 0.000236923146642)
(0.0130864762938 0.0082487538283 0.000496850968887)
(0.00975524821246 0.00752337516971 0.000786272524224)
(0.00604282267815 0.00710869532033 0.000977578997751)
(0.00203610345339 0.00696485202022 0.00103510104939)
(0.00234497536909 0.0243643403151 -0.00268478406872)
(0.00683538511631 0.0243283834116 -0.00297269915769)
(0.0115117855134 0.0247205449674 -0.00339324311988)
(0.0159924787121 0.0260401653488 -0.00389637362316)
(0.0198971318548 0.0280690390846 -0.00423668650185)
(0.0232423817873 0.0298036283103 -0.00426660408892)
(0.0261182047956 0.0309119047228 -0.00373758183332)
(0.0260235233961 0.0327588860418 -0.0028134396676)
(0.0237857974116 0.031000793345 -0.00212856532467)
(0.0215249034669 0.026581276064 -0.00142028962971)
(0.0201866092192 0.0219285893278 -0.000733903621885)
(0.0194903569475 0.017803370778 -0.000199063939936)
(0.0195388942826 0.0145925450101 7.07222971738e-05)
(0.0190211817815 0.0127898013853 8.16617452709e-05)
(0.017523323735 0.0113887431598 0.000134510953576)
(0.0154830755483 0.010222789552 0.000385403050721)
(0.0128145899917 0.00925192420597 0.000613058754592)
(0.00962735499514 0.00848672181116 0.000863757959465)
(0.00598556439428 0.00800481733626 0.00104189404356)
(0.0020470572825 0.00779022229501 0.00113864962376)
(0.00218159590065 0.0272442036019 -0.00236722326957)
(0.00648442703069 0.0272485443859 -0.00267513681238)
(0.01086465809 0.0278812615105 -0.00305830202529)
(0.0150582707446 0.0296141533253 -0.00347951533253)
(0.0188242441502 0.0319513372798 -0.00369488854674)
(0.0222599406405 0.0336124734757 -0.00369901692183)
(0.0264515862198 0.0343708364351 -0.00285758463929)
(0.02519888682 0.0381239601624 -0.000563530646513)
(0.0202346555312 0.0346009619621 7.06815225111e-05)
(0.0171886057085 0.0269095431997 0.000612536561778)
(0.0167252164453 0.0187171124118 0.00120208073344)
(0.0168264381384 0.0115068342037 0.00181121105328)
(0.0180897141572 0.00762739016973 0.00192636924059)
(0.018251625866 0.0106157950024 0.00101147910304)
(0.0172081203113 0.0113965898731 0.000524577789114)
(0.015497178766 0.0108809319732 0.000529178182859)
(0.0128481756334 0.0100630876591 0.000688185165908)
(0.0096693653464 0.00926675110205 0.000944393452167)
(0.00603217480916 0.00872812882209 0.00111197424813)
(0.00209036042896 0.00847770163333 0.00119220625519)
(0.00206025474523 0.0293777842016 -0.00201570643676)
(0.00609347509965 0.0293947693098 -0.00225726092515)
(0.0101390620848 0.0301913921343 -0.00255404530006)
(0.0140131933396 0.0321844483302 -0.0028404714039)
(0.0174945368387 0.0347213501616 -0.00299267576719)
(0.0209465530451 0.0361643562048 -0.00331649423008)
(0.0280638801325 0.0359321116193 -0.00246287515017)
(0.0250648714179 0.0379388386784 0.00356345657994)
(0.0158221589218 0.0339742190761 0.0018894571036)
(0.0117332744064 0.0272428936255 -0.000585705430968)
(0.0112121699375 0.0202299216723 -0.00208447460965)
(0.0124942874712 0.0141645937291 -0.00261054212664)
(0.0182493696961 0.0106104473125 -0.00281194008045)
(0.0197358565731 0.0124828403375 0.000247677035359)
(0.0179510302817 0.0122922979684 5.1326046423e-05)
(0.0154335753806 0.0116717325865 0.000364702237538)
(0.0127630422334 0.0107697452915 0.00066805245612)
(0.00963262435556 0.00988890218956 0.000970856629613)
(0.00599332358836 0.00926282216157 0.00115775755962)
(0.00209077936692 0.00900649862712 0.00124138589774)
(0.00192561061254 0.0307416213576 -0.00165894009214)
(0.00563366552394 0.030767906778 -0.00180649913822)
(0.0092761374273 0.0316223686445 -0.00199209847618)
(0.0127417997616 0.0337308694508 -0.00215386653085)
(0.0158217323288 0.0363307546422 -0.00222154946624)
(0.0188650864756 0.0373954161733 -0.00255562685062)
(0.0262201461755 0.036045669635 -0.00206398247044)
(0.0227043872945 0.0339724387118 0.00427176320874)
(0.0121421443132 0.0297227795399 0.00244069816253)
(0.00820792672647 0.025447732766 5.56771826172e-05)
(0.00829517289264 0.0215752843797 -0.000987551682774)
(0.0105097489839 0.0187417691902 -0.000927015775215)
(0.0171410892831 0.0167403133862 -0.00117004759303)
(0.019506217935 0.0154965769951 0.000997493227476)
(0.0181587914387 0.0137626959517 0.000128812312743)
(0.0156110626832 0.0126433904064 0.000348255459533)
(0.0128569956498 0.011432580093 0.000668172205187)
(0.00965084111805 0.0103468044459 0.00100136235667)
(0.00599441410201 0.00962011086497 0.00120896763959)
(0.0021142593708 0.00934575343902 0.00129847482224)
(0.00176040455833 0.031369030159 -0.00128985010792)
(0.00507002443801 0.0313969079069 -0.00134844292412)
(0.00826200351797 0.0322503132027 -0.00142832456141)
(0.0112768019363 0.0343716346787 -0.00145953862963)
(0.0139008917835 0.0368691245975 -0.00142310768464)
(0.0166758652923 0.0375393460784 -0.00164349417441)
(0.0233539499722 0.0351586805068 -0.0011975420786)
(0.0197359491919 0.0301714811915 0.00506046943258)
(0.0100340163025 0.026681276567 0.00306484892092)
(0.00668714773912 0.0249270064705 0.000608064247335)
(0.0068817812276 0.0234463900362 -0.00083327955281)
(0.00906433941761 0.0222852439065 -0.00119953054723)
(0.0159422316057 0.0209743376362 -0.00189261767949)
(0.0189222873009 0.0182414602908 0.000632812479928)
(0.0175939459187 0.0155745556866 4.54646993417e-05)
(0.015130979068 0.013806291498 0.000338286083866)
(0.0125094080695 0.0121091438639 0.000685257699888)
(0.00942991535624 0.0107095778425 0.00104259988445)
(0.00587460661501 0.00982758544839 0.00125566099094)
(0.00208679175129 0.0095299452177 0.00135231956869)
(0.00156418980549 0.0313447133897 -0.000939682113393)
(0.00440744896343 0.0313494427317 -0.000911052136789)
(0.00709108712667 0.0321804701705 -0.000886351687084)
(0.00955177246583 0.0342188123056 -0.000798748833009)
(0.0116771547867 0.036549697148 -0.000635559496038)
(0.0138352138808 0.036803257141 -0.000869665870766)
(0.0189616477935 0.0336810480916 -0.000571067554755)
(0.0159399675978 0.0226326722125 0.00433681069252)
(0.00838396279013 0.019352025656 0.00213795527756)
(0.00606005577584 0.0207663619118 0.000241478473491)
(0.00679583775984 0.023387126489 -0.0011323016252)
(0.00918969787685 0.0256005901761 -0.001613661802)
(0.0153672469948 0.0260535727762 -0.0022028377566)
(0.0182822402155 0.0210389826001 -4.4368387482e-05)
(0.0167738266439 0.017448209441 -3.31723097051e-05)
(0.0143644986768 0.0148322490233 0.000344785790828)
(0.0118780888164 0.0125684633257 0.000714843586629)
(0.0089865014195 0.0108174232777 0.00106789260452)
(0.00565876173082 0.009791371115 0.00128649105387)
(0.00208293621862 0.00950680720404 0.00140142769981)
(0.00137613909299 0.0307753493379 -0.00062105063213)
(0.00372390211112 0.0307284026762 -0.000479579181313)
(0.00586561488648 0.0314747883832 -0.000314072540309)
(0.00777113228811 0.033355796414 -3.63687802794e-05)
(0.00929857339725 0.035658142528 0.000184043870171)
(0.0105913493019 0.0363227901729 -0.00025883035559)
(0.0110886489498 0.0343249265665 -0.000746033738509)
(0.010205803493 0.0275363517364 -0.00276771332288)
(0.00935882322659 0.0259698396566 -0.00359144551087)
(0.00932378432475 0.0274079440553 -0.00318764995434)
(0.00972843577723 0.0291619704508 -0.00223357292359)
(0.0110076581626 0.0298029535749 -0.00127773438942)
(0.0135571268928 0.0285206318422 -0.000619626382333)
(0.0147426992532 0.0230253257133 -4.95051229871e-05)
(0.0143417204066 0.0184476405358 0.000193973712581)
(0.0126082213423 0.0151340537101 0.000543809115006)
(0.0106565335529 0.0124577995168 0.000846850881445)
(0.00822560993254 0.0105056734513 0.0011337038202)
(0.0052974363425 0.00942412558948 0.00131946332794)
(0.00202991065413 0.00922666398569 0.00145084805411)
(0.00120719268775 0.0296178990738 -0.000274165284973)
(0.00316657265724 0.0294864394989 -4.33010867428e-05)
(0.00488748822411 0.0300138316248 0.000235078511725)
(0.00643058806468 0.0315349832642 0.000696303503973)
(0.00781827178243 0.0335803230031 0.00117129252338)
(0.00906901019445 0.0347434641162 0.00124743359963)
(0.00995668352349 0.0340444818177 0.00122048797708)
(0.00981138010121 0.0323415192404 0.00110840633377)
(0.0090295129266 0.0311230324861 0.000807010392867)
(0.0087573744379 0.030367993114 0.000901699424301)
(0.00917854065002 0.0292270443054 0.000989299117845)
(0.0104266729968 0.0278569718131 0.000963755118035)
(0.0118820268951 0.0252880104731 0.000851291854601)
(0.0125145863835 0.0214366529247 0.000666181468266)
(0.0122584856654 0.0174835550092 0.000662120380402)
(0.0109876614093 0.0142493745953 0.000818077571459)
(0.00938843175157 0.0116123765231 0.000990210720731)
(0.00735403367547 0.00969599566753 0.00116498626217)
(0.00484756308746 0.00870711827793 0.00132690911894)
(0.00195781290397 0.00871766205633 0.00150477116366)
(0.00110986785228 0.0277828969708 3.67605297095e-05)
(0.00284485578661 0.0275634942216 0.000306969622471)
(0.00431177287926 0.0277860282115 0.000623914994752)
(0.00565154480744 0.0287443172875 0.00114014853718)
(0.00693361564454 0.0301410600312 0.00170941504704)
(0.0081749653003 0.0310750963741 0.00202589677357)
(0.0090685983286 0.0307777582998 0.00203604935524)
(0.0093712630824 0.0293896524153 0.00181191297141)
(0.00931796089632 0.0281635215515 0.00165842124254)
(0.00921660058937 0.0272787150152 0.00166666995021)
(0.0093137350508 0.0260709004955 0.00168413957833)
(0.00974937043803 0.0244742170158 0.00157710724687)
(0.0101986514121 0.0220422196062 0.00142112197263)
(0.010373582182 0.0190152842201 0.00120593966512)
(0.0100903326175 0.0156782437107 0.00106976939499)
(0.0091908225408 0.012717466585 0.00103872302305)
(0.00792416036369 0.0103010852283 0.00107133995145)
(0.00628498377282 0.00856799186347 0.00112260010441)
(0.00426877383121 0.0077381990968 0.00124492006775)
(0.00182003639458 0.00793552149215 0.00147999984626)
(0.00104800225919 0.0252095581845 0.000306474799549)
(0.00271844984963 0.0249550781391 0.000574137041276)
(0.00410643219793 0.0248879586429 0.000834144009007)
(0.00531573053464 0.0252720966496 0.00126220073607)
(0.00647326786392 0.0259759087839 0.0017681907951)
(0.00757666514754 0.0264221874741 0.00216576737476)
(0.00843128658725 0.026083676315 0.00231751260498)
(0.00886477572397 0.0251036645955 0.00228559583828)
(0.00895676832234 0.0239768500467 0.00220854836243)
(0.00890931978725 0.0228608050174 0.00215381811776)
(0.00885675806316 0.0215787989925 0.00201720213419)
(0.00885463756504 0.0200314968886 0.00183466049431)
(0.0087845833057 0.0180542609381 0.00163569120222)
(0.00858726658081 0.015731245756 0.00140253839674)
(0.00818242868916 0.0131726333215 0.00122132540887)
(0.00742293195592 0.0107416065161 0.00108221986493)
(0.00640660737114 0.00869661764788 0.00101438304923)
(0.00511512015067 0.00726799455223 0.000981245343687)
(0.00356914173927 0.00663281858798 0.00104849000396)
(0.00169729551734 0.00696347022302 0.00139746637984)
(0.00101709977146 0.0218565716458 0.000576806239162)
(0.00263426463599 0.0216159415603 0.000787930183718)
(0.00405707283877 0.021397992323 0.00098560738912)
(0.00526357700414 0.0213563215054 0.00125959419697)
(0.00633356037651 0.0215112653681 0.00161275507071)
(0.00729159711489 0.0215848908902 0.00193393456363)
(0.00803748160343 0.0212476542164 0.00211321567665)
(0.00840100257688 0.0205318635674 0.00217157578395)
(0.00842451343185 0.0196583993728 0.00215418667999)
(0.00825644679983 0.018686018518 0.00208919451736)
(0.00796442359622 0.0175319165656 0.00199086371162)
(0.00764298458981 0.0161732150222 0.0018180322678)
(0.00726829928896 0.0145340239293 0.00163394974142)
(0.00685439820476 0.0126969467466 0.00141576135512)
(0.00636324001909 0.01069645681 0.00118819895495)
(0.00568672060806 0.00877284899617 0.000989408708491)
(0.00488914589665 0.00714031820233 0.000837494664556)
(0.00394321696232 0.00600737300138 0.000734526188964)
(0.0028865975033 0.00555205371339 0.000782680313668)
(0.00158239740381 0.00597703772332 0.00131292830325)
(0.000962409124432 0.0177987566662 0.000828535299795)
(0.00253269678949 0.0175580390013 0.00102773463396)
(0.00395953316174 0.0173129512419 0.00112442932963)
(0.00520511469691 0.0171020537951 0.00127150857828)
(0.00624411959886 0.0169414425848 0.00149266526455)
(0.00705841229979 0.0167535902858 0.00170232336769)
(0.00762201065573 0.0163958243396 0.0018493628893)
(0.00787556824692 0.0158368647346 0.00192698178346)
(0.00781775843428 0.0151730263883 0.00193692516005)
(0.00752605144101 0.0144077484768 0.00191865357567)
(0.00708053143049 0.0135091738454 0.00183144393059)
(0.00656060887935 0.0124529793847 0.00169220593921)
(0.00598707752181 0.011213880388 0.00150881919361)
(0.0054046423484 0.00984819998657 0.0012875491539)
(0.00483914110561 0.00836357406584 0.00103949404741)
(0.00424658199417 0.00693206410914 0.000820918869259)
(0.00362831253991 0.00570533323854 0.000631569861795)
(0.00296752003473 0.00487839458935 0.000497888895231)
(0.0023179567343 0.00457804215019 0.000546865475294)
(0.00141945728491 0.00500604714134 0.0011992347925)
(0.000898435830853 0.0131841763494 0.00104555804584)
(0.00242687875128 0.0129273625902 0.00121837535967)
(0.00382775256584 0.0126776118142 0.00128124354156)
(0.00503886762469 0.0124471964264 0.0013540985179)
(0.00604750232932 0.0122344120386 0.00146905251541)
(0.00680386861249 0.0119797311751 0.00160741059601)
(0.00727589112886 0.01165777149 0.00172161037186)
(0.00743054863632 0.0112447232937 0.00178478804103)
(0.0073150719565 0.0107780660201 0.00181646485382)
(0.00697818843653 0.0102344798065 0.00180790696825)
(0.00644753056392 0.00961349729264 0.00174935304987)
(0.00582103284946 0.00889768264905 0.00163156985066)
(0.00515169291465 0.00806093682905 0.00144704504145)
(0.00448541192997 0.00714406370792 0.00122410007506)
(0.00387386893102 0.00617447930888 0.00096656788746)
(0.0033074672862 0.00523210786829 0.000717550609578)
(0.00281006828601 0.00442213980082 0.000504444882952)
(0.00234247888799 0.00386753683145 0.000385319389609)
(0.00189987894358 0.00366776456949 0.000454220805257)
(0.00121119580494 0.00399162547833 0.00112810475064)
(0.000866601856296 0.00810934430507 0.00119385894991)
(0.00236371791226 0.00789541804593 0.00132156748704)
(0.00373904346616 0.007690124945 0.00137868994854)
(0.00491554924812 0.0074907332303 0.00143726601287)
(0.00587713438557 0.0073155261218 0.00150990089235)
(0.00658229293601 0.00712146558817 0.00157879263036)
(0.00702074758614 0.00688316328712 0.00165272048272)
(0.0071786776346 0.00661458935972 0.0017076949931)
(0.00706010666661 0.0063345562549 0.00173806755459)
(0.00670963798585 0.00601974315141 0.00174003291553)
(0.00619298205649 0.00569288129485 0.00169416595169)
(0.00555586204671 0.00534749084085 0.00158681176699)
(0.00485066154176 0.00494784502284 0.00144582403144)
(0.00416991321899 0.00452732423258 0.00124434296218)
(0.00355581447506 0.0040791039972 0.00101313971326)
(0.00299828746909 0.00362775166359 0.000785673967907)
(0.00252455707562 0.00321108054383 0.000595394480434)
(0.00209692536643 0.00286844103217 0.000492920062863)
(0.00170698909082 0.00269266953834 0.00062475483565)
(0.000991194833121 0.00281051019517 0.00115290970813)
(0.00090736203538 0.00278449207113 0.00125168694731)
(0.00245063549473 0.00265475674867 0.00126236691776)
(0.00380312167991 0.00254866623605 0.00128469651071)
(0.00492737219305 0.00246317321007 0.00129564622374)
(0.00583883998394 0.00238596677866 0.00131923748161)
(0.00651227986216 0.00230593513843 0.001360040381)
(0.00696170998695 0.00220772572598 0.0013730892056)
(0.00714647003535 0.00212921290751 0.00139319169422)
(0.00708782173974 0.00203635544758 0.00142961014209)
(0.00683917684521 0.00195944120135 0.00143752441948)
(0.00642602000877 0.00192563124982 0.00144817878021)
(0.0058898307874 0.00189805803867 0.00147104986459)
(0.00526422961514 0.00187541890301 0.00145378430486)
(0.00462871300291 0.00187601614176 0.00143397234679)
(0.00402563613058 0.00188604038157 0.00138920397304)
(0.00344297924082 0.00184568395457 0.00133333829758)
(0.00292453507341 0.0017398753607 0.00124361309538)
(0.00239223195492 0.00156972535631 0.00115584615082)
(0.00183797218586 0.00134957332187 0.00115138045095)
(0.000832425623892 0.00118286864303 0.00137802836752)
(0.00265792241662 0.0024944448431 -0.0102092141641)
(0.00776958833684 0.00261526493592 -0.00996701089884)
(0.0126149055285 0.00262283244961 -0.00959397446911)
(0.0171109646012 0.00262396719706 -0.00915961894915)
(0.0211230962599 0.00263239746734 -0.00861913877664)
(0.02447016665 0.00266234006085 -0.00797849460573)
(0.0269971968618 0.00269581782591 -0.00721491669896)
(0.0286489106351 0.0026940834842 -0.00635014838834)
(0.029465164454 0.00260589097671 -0.00538081505735)
(0.0295012876275 0.00246005794077 -0.00437677790109)
(0.0288576349012 0.00227039558473 -0.00340005782518)
(0.0276134744122 0.00205918959075 -0.00245031329952)
(0.0258472723979 0.00183015663398 -0.00155387424568)
(0.0236148090417 0.00161363390888 -0.000725284283539)
(0.0209753391606 0.00140079605193 4.51440444769e-05)
(0.0179492950805 0.00120928376416 0.000770642922318)
(0.0145428857978 0.00108037895938 0.00142024260926)
(0.0107753522476 0.000990365074315 0.00195756773658)
(0.00668501275465 0.000954285079291 0.00234160648002)
(0.00235518398866 0.000998198541102 0.00254621043538)
(0.0026103336082 0.007533086683 -0.0100918218964)
(0.00769461772683 0.00766329775683 -0.0100941397582)
(0.0125222995781 0.0076296464782 -0.00983506166934)
(0.0170909546706 0.00760175169207 -0.00951753973031)
(0.0211467595435 0.00761131106148 -0.00910703310393)
(0.0244953599122 0.00764766640887 -0.0085174650904)
(0.0269869254691 0.00768872169142 -0.0077041109821)
(0.0285645056573 0.00763681971303 -0.00672554894022)
(0.0292655897075 0.00739347891057 -0.0056260712229)
(0.0291824293851 0.00696742022457 -0.0045033176934)
(0.0284579259722 0.00641208322164 -0.00340543063188)
(0.0271805410978 0.00577858646387 -0.00236620776042)
(0.025438340597 0.00512458904351 -0.00143397362015)
(0.0232835868207 0.00451328262022 -0.00061949691922)
(0.0207222002035 0.00397329221595 0.000140954257222)
(0.0177389345723 0.00352290307278 0.000862733583759)
(0.014328982759 0.00317749347663 0.00151397800875)
(0.010563595976 0.00293840639115 0.00204634306112)
(0.006570795443 0.00280747641748 0.00241379350571)
(0.0022983929063 0.00283997941917 0.00257585220568)
(0.00257673144046 0.0125101635378 -0.00974866660184)
(0.00761094391515 0.0125276333088 -0.00985498927812)
(0.0124570147317 0.0124390842509 -0.00977457007876)
(0.017093115501 0.0123598001784 -0.00967952246797)
(0.0211769622462 0.0123396222693 -0.00942908009023)
(0.0245141240697 0.0123697988773 -0.00889300188918)
(0.0269503436217 0.0124418639513 -0.00802071421307)
(0.0283808331039 0.0124090087846 -0.00691833964961)
(0.0288388232101 0.0120365334788 -0.00568824153302)
(0.0285290157883 0.0113037053343 -0.0044322280587)
(0.0276597785085 0.0103265165309 -0.00320111855699)
(0.0263360226697 0.00922366707685 -0.00209029710648)
(0.0246414930405 0.0081157192642 -0.00116565959416)
(0.0226099934758 0.00709769642337 -0.000432488158415)
(0.0202004562803 0.00625557408767 0.000268051630182)
(0.0173325448853 0.00559933075463 0.000952004409188)
(0.0139979809228 0.0050758786982 0.00159114159439)
(0.0102678072405 0.00471221136881 0.00214211974583)
(0.00637465611738 0.00450518001899 0.00252505770073)
(0.00222065646018 0.00449466249107 0.00269445990528)
(0.00257225082037 0.0171347585443 -0.00925502926218)
(0.00756485466707 0.017086142416 -0.00949214120609)
(0.0124217543392 0.0169399717804 -0.00963702364348)
(0.0170856352451 0.0167874904362 -0.00975166328979)
(0.0211803149514 0.0166855018372 -0.00961573970087)
(0.0245191888384 0.0166758034518 -0.00909671432782)
(0.0269226009683 0.0168107340159 -0.00812787809677)
(0.0281358796863 0.0169202488396 -0.00686345724906)
(0.0281852255085 0.0163944270424 -0.00550363502899)
(0.0275273030119 0.0152003204397 -0.00410419179041)
(0.0264552053894 0.0136270565118 -0.00276771298756)
(0.025071914777 0.0119850455486 -0.00161439767102)
(0.0234519616731 0.0104014354866 -0.000750016873044)
(0.0216118481709 0.00906866601115 -0.000160628272069)
(0.0194674891848 0.00805752394641 0.000443267340608)
(0.0168007205074 0.00728163733255 0.0010762164673)
(0.0136046683994 0.00665665006618 0.00168071927934)
(0.00998550257213 0.006215464067 0.00224604903089)
(0.00616891542261 0.0059451910306 0.00267376498726)
(0.00213294644574 0.00583868797245 0.00283486546829)
(0.00256173067703 0.0212613945434 -0.0086115086337)
(0.00748707089061 0.0211505125141 -0.00900334356833)
(0.0123240042959 0.0209039793682 -0.009335708282)
(0.0169570339998 0.0206143342474 -0.00955090672545)
(0.0210230781469 0.0203999490323 -0.00939243753111)
(0.0243988284865 0.0203583354086 -0.00885251738972)
(0.0269102813025 0.0206157624624 -0.00773989557218)
(0.0277877854815 0.0211760738199 -0.00622285880969)
(0.0271296385433 0.0205180322239 -0.00472990039976)
(0.0259073400743 0.0187237951411 -0.00320945477678)
(0.0245862900308 0.016453281584 -0.00180311209045)
(0.0232053472072 0.0140351209066 -0.000721526221494)
(0.0218639259664 0.0119048212749 -2.22398163771e-05)
(0.0204767657074 0.0105576944625 0.000238372978807)
(0.0187132999277 0.00952807374846 0.000685495904282)
(0.0162773871022 0.00865963555749 0.00119702577124)
(0.0132615273489 0.00795077416741 0.00174521426667)
(0.00978133273987 0.007449971593 0.00234166895594)
(0.00604947846822 0.0071340795287 0.00283033688615)
(0.0020711009647 0.00696544249855 0.00301547737067)
(0.00253428971923 0.0247922370418 -0.0078315167179)
(0.00732385299844 0.024594899325 -0.00830363978529)
(0.0120739663603 0.0242079036 -0.00867993242134)
(0.0166262739369 0.0237218444493 -0.0088195666871)
(0.0206453850568 0.0233938582382 -0.00856828854238)
(0.0241307008679 0.0232286493989 -0.00803590800244)
(0.0271301037484 0.0235371127374 -0.00672404808559)
(0.0274647550854 0.0256793590294 -0.00485687850479)
(0.0257259960613 0.0248476677914 -0.00341082701275)
(0.0236931253931 0.0222752939003 -0.00200112898899)
(0.0220527488548 0.0192578548712 -0.00106910604518)
(0.020828415844 0.0162660898768 -0.000506129861135)
(0.0203282611169 0.0135529260149 -0.000190267514459)
(0.0195698340894 0.0115850602123 0.000283710191989)
(0.0179843138351 0.0104228573809 0.000848246515363)
(0.0157393797863 0.00957787761635 0.00125729662484)
(0.0129470254363 0.00886292482052 0.00180033095978)
(0.00962246340448 0.00834238932653 0.0024310428802)
(0.00596730876763 0.00800961004427 0.00299303781963)
(0.00205734487737 0.00779055603649 0.00321418610264)
(0.00244544624655 0.0276432059616 -0.00690387944948)
(0.00702709179692 0.0273779593657 -0.00735607312623)
(0.0115839474794 0.0268676042542 -0.00764800047409)
(0.0159550481377 0.0262430423543 -0.00763723415451)
(0.0198758034457 0.0257155341877 -0.00731258517177)
(0.0235345262169 0.0249592112094 -0.00688680724539)
(0.0282375180289 0.0245574016994 -0.00471346607812)
(0.0278107578008 0.0293333095792 0.00181850354271)
(0.0237597701401 0.0261402768657 0.00341079993352)
(0.0210140057145 0.0200432427689 0.00424161317579)
(0.0195338841777 0.0136255681747 0.0042975577988)
(0.0183409845271 0.00796851898821 0.00399712956232)
(0.0179684698693 0.00478521076301 0.00301613373256)
(0.0177846615223 0.0090986281524 0.00157790533505)
(0.0170930392516 0.0101228710141 0.00136994616119)
(0.0154511857374 0.00992729881922 0.00153027732696)
(0.0128508374422 0.00948460391128 0.00197527686781)
(0.00959899473744 0.00902242679748 0.00259118954326)
(0.00596493686419 0.00868918629971 0.00314993668523)
(0.00207396827228 0.00844923448184 0.00338583153531)
(0.00232301806912 0.0297323095027 -0.00588103308386)
(0.00662319289612 0.0294539368622 -0.00623521993547)
(0.0108964992643 0.0288964721252 -0.00640138702702)
(0.0149959850565 0.02824594161 -0.0063150029207)
(0.0186211563404 0.0275307098273 -0.00617408390278)
(0.0220022509004 0.0261320765455 -0.00702137091477)
(0.0299286382235 0.0242172570577 -0.00519074781488)
(0.0268734081826 0.027369544287 0.0153307229381)
(0.0171336615526 0.0233500184765 0.0107904636344)
(0.0126024900186 0.0168475330798 0.00416110119821)
(0.0116111674665 0.0106591449737 -0.00368700753064)
(0.0131473583468 0.00587800659567 -0.00981084989459)
(0.021562603225 0.00376357314596 -0.0152880898679)
(0.02423345564 0.00843466588021 -0.00280296000954)
(0.0188063892224 0.0103891649568 -0.000135300076901)
(0.0157622891854 0.0104784102945 0.00113219945011)
(0.0129113890276 0.0100831627057 0.00195742781015)