/*--------------------------------*- C++ -*----------------------------------*\
| =========                 |                                                 |
| \\      /  F ield         | OpenFOAM: The Open Source CFD Toolbox           |
|  \\    /   O peration     | Version:  v1606+                                |
|   \\  /    A nd           | Web:      www.OpenFOAM.com                      |
|    \\/     M anipulation  |                                                 |
\*---------------------------------------------------------------------------*/
FoamFile
{
    version     2.0;
    format      ascii;
    class       volScalarField;
    location    "0.6";
    object      epsilon;
}
// * * * * * * * * * * * * * * * * * * * * * * * * * * * * * * * * * * * * * //

dimensions      [0 2 -3 0 0 0 0];

internalField   nonuniform List<scalar> 
11640
(
0.0246519739335
0.0256682927526
0.0260981366718
0.0262351619076
0.0262799579653
0.0262970649366
0.0263128865837
0.0263347478264
0.0263520219907
0.0263594870557
0.0263599130237
0.0263567273828
0.0263513921875
0.0263580253886
0.0263903784961
0.0264309466818
0.026416819281
0.0262725722433
0.0257955648779
0.0246780475586
0.0256871354675
0.0362980123972
0.0407366842043
0.0421299082551
0.0425335542056
0.0426670284419
0.0426818853654
0.0426384827592
0.0425725306401
0.0424899654156
0.0423921595781
0.0422816917339
0.0422023485706
0.0422042645589
0.0422607379498
0.0423266122225
0.0421538118998
0.0408127263848
0.0362323111171
0.0256682894258
0.0261135505273
0.0407678231654
0.0479068014798
0.0505770024449
0.0514543013085
0.0516279769934
0.0515130286127
0.0513130521513
0.0511040226226
0.0508923057787
0.0506652032077
0.0505076553914
0.050663289058
0.0508508364987
0.0509803205611
0.0508530916892
0.0500899584038
0.0475983301227
0.0405205983192
0.0261322548848
0.0262382462842
0.0422528455896
0.0507464596887
0.0542482915922
0.0554493258945
0.0556059065423
0.0552171773001
0.0546520123133
0.0541579950544
0.0537339218105
0.0533339874957
0.0535505902307
0.0539474556012
0.0544219891747
0.0547709477725
0.0546899333551
0.0536153965277
0.0501930459656
0.0418628904968
0.0263353039653
0.0262929621417
0.0428416543335
0.0519752829153
0.0559090449587
0.0572042414947
0.0570162355421
0.0558927307794
0.0545418963859
0.053596905833
0.0529300725509
0.0526405475035
0.0531292652148
0.05389002399
0.0550671486724
0.0560201392736
0.0562284158539
0.0551665414383
0.0514316547065
0.0423905106056
0.0264616540308
0.0263529165734
0.0431900087576
0.0526212277801
0.0566789845269
0.0576478594961
0.0564140007399
0.0536117755727
0.0507020346505
0.0491851169834
0.0483455895344
0.0484099310316
0.0490061443257
0.0503561602857
0.0532114193376
0.0556523250683
0.0566569698137
0.0558958197799
0.0521467682187
0.0428298912823
0.0265797727686
0.0264026055254
0.0433836706428
0.0528999940611
0.0567837471411
0.056919050754
0.0537481693901
0.0480769396676
0.0428541091445
0.0409962606273
0.0406473446469
0.0408665998529
0.041268549862
0.0430595642624
0.0488228434099
0.0539759362906
0.0564389213744
0.0562636939844
0.0526526964332
0.0432223053257
0.0267096435255
0.0264262829368
0.0434295118647
0.0528829944603
0.0564080453825
0.0554723269566
0.0500640831703
0.0414724153498
0.0347609380004
0.0330653556041
0.0323815777074
0.032103859347
0.0323404660238
0.0344028375902
0.0432820928839
0.0516690291742
0.0559152292742
0.0564553358416
0.0530351852772
0.043537196503
0.0268359313345
0.0264407604218
0.0434348943578
0.0528281672584
0.0561496274604
0.0547104317192
0.048486640499
0.03934644419
0.0328937530002
0.0312620575487
0.0306050403228
0.0302964733291
0.0305482605194
0.0327667978344
0.0419251365964
0.0510217298356
0.0559051101406
0.0567458150761
0.0533902384837
0.0438212889909
0.0269550612276
0.0264559389016
0.0434550219443
0.0528404731839
0.0561301216518
0.0546050905026
0.048251946838
0.0390796130757
0.0327225899779
0.0311293780749
0.0305071075778
0.0302584485696
0.0305645543785
0.032916141159
0.042216465055
0.0514112626286
0.0563469978565
0.0571913248283
0.0537856580146
0.0440992306964
0.0270723862352
0.0264738857731
0.043495403756
0.052931397757
0.0563635880993
0.0551525853677
0.0492520755272
0.0403507180173
0.0338642914687
0.0322969790108
0.0317386714234
0.0316064898685
0.032069459809
0.0346489921752
0.0440741870052
0.0527685839053
0.0572094078433
0.0577704601367
0.0542061470687
0.0443701178716
0.0271811978127
0.0264875394637
0.0435176137344
0.0530507141407
0.0568266344455
0.0565645939271
0.0525530712238
0.045810963126
0.0399095172367
0.0383863576184
0.038036943045
0.0380970061797
0.0391680290806
0.042331956226
0.0496634583895
0.0556363702687
0.058570236484
0.0585035420115
0.0546775501396
0.0446284889248
0.0272777399044
0.0264848834307
0.0434253322669
0.052986133126
0.0570634042678
0.0577979840995
0.0559555610756
0.0522914475344
0.0487591749759
0.047571150573
0.0472988605419
0.0476578245716
0.0491847000625
0.0515790453493
0.0555547493176
0.0586566357046
0.0600494542752
0.0593243836233
0.0551721103297
0.0448759543845
0.0273887601972
0.0264738236576
0.0432095643375
0.0526582550576
0.056843825579
0.0581936673073
0.0578244504075
0.0563493737874
0.0547705367406
0.0540893798159
0.053928178606
0.0545428556803
0.0557912015635
0.0573094675222
0.0592352273387
0.0606860066375
0.0611835551689
0.0600360583703
0.0556245197192
0.0451347792659
0.0274998601856
0.026478092331
0.0429762272291
0.0521612742729
0.0562691814994
0.0578745206296
0.0582164681081
0.0578751588231
0.0573657395527
0.0571432062629
0.0572296587977
0.0579872958622
0.0589649046691
0.0599639384432
0.0610193266806
0.0617897034922
0.061892571181
0.0605360092794
0.0559951876627
0.0454200220153
0.0276027909659
0.0264780168214
0.0427786256646
0.0515518129397
0.0553740399565
0.0569677497425
0.057581730933
0.0577298627096
0.057729083284
0.057856501261
0.0582651866152
0.0590368754
0.0598219733467
0.0606131037792
0.0613944172379
0.0619408620713
0.0619276319042
0.0605434161377
0.0560674030044
0.045603929487
0.0276837560305
0.0264422545852
0.0423644099583
0.050538869795
0.0538418521857
0.0551764546213
0.0557974563595
0.0561347774735
0.0564068588241
0.056791047563
0.0573588503144
0.0579933957716
0.0586458958064
0.0593301646973
0.0599830441004
0.0604822535229
0.0604939310481
0.0593059725808
0.055251262851
0.0453213339396
0.0276891891341
0.0262953855123
0.040858223074
0.047801738054
0.0503558293793
0.0512853666103
0.0517443184623
0.0520869307746
0.0524281397961
0.052831256968
0.0532903551791
0.0537680295087
0.0542687734615
0.0548134937113
0.0553727101457
0.0558258670052
0.0559634594305
0.0551971044464
0.0520374527006
0.0435984221938
0.0275144215905
0.025809013734
0.0362217060579
0.0405126693461
0.041918011729
0.0424028057608
0.0426576730203
0.0428751661354
0.0431060019454
0.0433643790086
0.0436582309284
0.0439493156511
0.0442707876423
0.0446507339893
0.0450400685469
0.0453831759475
0.0455637910907
0.0452639007925
0.0435560626265
0.0383127729578
0.0269135114281
0.0246857187652
0.0256714606994
0.0261285180903
0.0263205343472
0.0264379932797
0.0265376404728
0.0266330603678
0.026723662864
0.0268169820084
0.0269447795318
0.0270964931868
0.0272521770041
0.0274061681058
0.0275507562686
0.0276710437501
0.0277430326936
0.0277345414605
0.0275502212638
0.0269436287773
0.0256518697642
0.0298713420913
0.0343263885479
0.036380910662
0.0370557781844
0.0372657819993
0.0373666399445
0.0374764395758
0.0376158583428
0.0377446015038
0.0378452241383
0.0379187659785
0.0379727842329
0.0380143664657
0.0380350983584
0.0380131029698
0.0379296316848
0.037697821844
0.0369515853259
0.0347125542202
0.0299450622726
0.0344151694936
0.0358325676703
0.0379201353322
0.0385992146199
0.0387369781331
0.0387476095085
0.0387536753049
0.0387789823679
0.0388086574963
0.0388334702471
0.038853671541
0.0388709068899
0.0388912706644
0.0389176760874
0.038939772961
0.0389252252763
0.0387431618583
0.0379902738585
0.0358162513097
0.0342181849425
0.0364976334812
0.0379435074729
0.0403169947163
0.0411837614987
0.0414147933973
0.0414324941136
0.041402222551
0.0413754424551
0.0413556881832
0.041336924847
0.0413179558487
0.0413194618187
0.0413767594931
0.0414440467681
0.0414894922203
0.0414456572345
0.0411725327655
0.0402653503225
0.0378405929958
0.0362265365099
0.037149330027
0.0386514779109
0.0412416114134
0.0422931249269
0.0426171976381
0.0426479171091
0.0425567290835
0.0424330808837
0.0423309364471
0.0422529043807
0.0421979061947
0.0422652109631
0.0423878986307
0.0425175678004
0.0426028975893
0.0425652401705
0.0422353323949
0.0411777997327
0.0385773133878
0.0369551340635
0.0372658469359
0.0388209135782
0.0415629227016
0.0427361823511
0.0430939297815
0.0430456643291
0.0427767405325
0.0424606434622
0.0422408095695
0.0421188304077
0.0420987608285
0.0422577839712
0.0425106947352
0.0427862361686
0.042983577017
0.0429974606491
0.0426735421609
0.041568528546
0.0388611731674
0.0372839558797
0.0372019952594
0.0388368600755
0.041677682856
0.0428942609219
0.0431649097907
0.0428340228162
0.0421106151197
0.0413846652455
0.0409784283478
0.0408638841348
0.0409650919716
0.0412606534842
0.041854774618
0.0424796768756
0.0429674277186
0.0431283528377
0.0428642731017
0.0417711686391
0.0390323278572
0.0374995773907
0.0371309572505
0.0388231466669
0.0417011150489
0.0428717914978
0.0428965896925
0.0419656621463
0.0402724718155
0.0387175612888
0.03800436194
0.0380225205648
0.0382334392909
0.0387228803404
0.0402158075579
0.0415767978902
0.0426526171625
0.0430985170089
0.0429487369088
0.04189369463
0.039152450123
0.037651129952
0.0371084759256
0.038809019139
0.0416729348941
0.0427452745471
0.0424418443219
0.0407135156793
0.0375502253136
0.0347049500011
0.0334763684332
0.0334463056488
0.0335774518705
0.0341075283792
0.0368768694249
0.0402621099292
0.0421844290549
0.0429930941449
0.042987685347
0.041976968665
0.0392359083477
0.0377624566075
0.0371320668939
0.0388048342654
0.0416461304213
0.0426495144567
0.0421332270351
0.0398741677804
0.0356980036215
0.0317834067451
0.0304687857447
0.030393047916
0.0304642977446
0.0309567653409
0.0339778125849
0.0388829114568
0.0417972098917
0.0429430269584
0.0430433782331
0.0420582942426
0.0393120673847
0.0378685639111
0.037169204495
0.0388089037405
0.0416406015394
0.0426286348248
0.0420634374991
0.039683051041
0.0353131426999
0.0312758767633
0.029963034557
0.0298929701523
0.0299845288634
0.0305361849316
0.0337203407573
0.0388360425465
0.0418620012385
0.043041039508
0.0431501200582
0.0421606300632
0.0393967811264
0.0379763308145
0.0372215764962
0.0388225023971
0.0416591241014
0.0426881552193
0.0422388713307
0.0401173041328
0.036202069328
0.0325440127504
0.0312719227199
0.031282027074
0.0315053143066
0.0322510041705
0.0356402213266
0.04010629837
0.0423713934877
0.0432822236678
0.0433075690064
0.0422849654156
0.0394906739415
0.0380867932203
0.0373075312291
0.0388502542829
0.0416933808223
0.0428148328863
0.0426752027102
0.0413091603675
0.0387865582796
0.0362172273815
0.0353827375873
0.0355091176716
0.0359201454604
0.0367948810919
0.0390783802484
0.0415579119175
0.0430040392286
0.0436003645553
0.0435050085197
0.0424283830289
0.0395863994652
0.0381690015391
0.0374596319169
0.0388942942257
0.0417048523858
0.0428956455418
0.0430652163567
0.0424649474633
0.041285330235
0.0401500530777
0.0397559525941
0.0398183506274
0.0401037114709
0.0407375380745
0.041821174838
0.0429020071088
0.0436404774626
0.043940837548
0.0437264335616
0.0425826392633
0.039675119795
0.0382164534483
0.0376475485828
0.0389453321608
0.0416773797081
0.0428749330846
0.043225396654
0.0430952645048
0.0426726342256
0.042249437262
0.04207477249
0.0420841181347
0.0422830472063
0.0426852105664
0.0432059935664
0.0437232725974
0.0440996685005
0.04423149568
0.0439410015419
0.0427367307178
0.0397648472503
0.0382254156308
0.037788410807
0.0389837441843
0.0416183874885
0.0427702224144
0.0431817331849
0.0432546891169
0.0431599915311
0.0430339520931
0.0429791336534
0.0430096618971
0.043204332771
0.0434976041091
0.0438228085699
0.0441402997578
0.0443813409285
0.0444468209533
0.0441190670585
0.0428783837599
0.0398643612267
0.0382377841241
0.0378245350998
0.0389650754335
0.04150810827
0.0425791391812
0.0429796951491
0.0431180000403
0.0431458869211
0.0431424149311
0.0431668875266
0.043262120792
0.0434697295392
0.0437193474462
0.0439872087562
0.0442513150104
0.0444587798439
0.0445133530456
0.0441850987395
0.0429420722098
0.0399278301399
0.0382118908348
0.037670157376
0.0387651006767
0.0412091469361
0.0421822906231
0.0425264633788
0.0426646607108
0.0427347761603
0.0427912080893
0.0428777136378
0.0430230590667
0.0432167000619
0.0434381029392
0.043682376265
0.043928884058
0.0441332384133
0.0441962142297
0.0438977507127
0.0427173538611
0.0397741132738
0.0379370676902
0.0369558447231
0.0379952969242
0.0402722759731
0.0411324573466
0.041410334506
0.0415200363085
0.0415933638779
0.0416712781831
0.0417744105951
0.0419096996728
0.0420703751133
0.0422553513545
0.0424660880469
0.0426871986148
0.0428779799009
0.042960923002
0.0427311736432
0.0416853217889
0.0389240852934
0.0370523865279
0.0347158025464
0.035812720608
0.0378237259471
0.0385349099927
0.0387539972273
0.0388413069321
0.0389063342291
0.0389777574493
0.0390638004149
0.0391656527376
0.0392805588962
0.0394148335012
0.0395697904463
0.0397350500251
0.039885214714
0.0399591384339
0.0397874015797
0.0389200694929
0.0364903584855
0.034738067212
0.0299665780044
0.0342348569452
0.0362253392973
0.0369156485976
0.0371768733918
0.0373293266493
0.0374654655135
0.0376082019391
0.0377526458816
0.0378738420868
0.0379789544805
0.0380773365144
0.0381558095667
0.0382294128192
0.0382815146466
0.0382416709137
0.0379765129694
0.0371080619809
0.0348118362417
0.0303613305603
0.0328274751266
0.0402765958184
0.0440707542278
0.0454330443973
0.0458839522535
0.0460781207575
0.0462299867545
0.0463995329708
0.0465495862897
0.0466661423298
0.0467492197215
0.0468088555911
0.0468608114302
0.0468970844455
0.0468921200209
0.0467824475391
0.0463318939045
0.044842327088
0.0407425898442
0.0328391636603
0.040401244406
0.0386512502276
0.0401380746171
0.0407115709779
0.0408667692509
0.0409051923642
0.0409313598555
0.0409682983379
0.0410065212846
0.0410413060096
0.0410722791128
0.0411009792981
0.0411297383558
0.041154002039
0.0411591804544
0.0411115243938
0.0409085886378
0.0402697633001
0.0386993528471
0.0400027506442
0.0442460974314
0.0401553147196
0.0409902995055
0.0413625489355
0.0414720634135
0.0414943268575
0.0414984296543
0.0415041624101
0.0415064315986
0.0415088174183
0.041512803413
0.0415243080381
0.0415467650096
0.0415643347416
0.0415712691623
0.0415434788031
0.0414210634655
0.0410301819034
0.0401397424104
0.0436722244208
0.045584932472
0.0407284941229
0.0413765560571
0.0417199750841
0.0418428855594
0.0418739794811
0.0418691464525
0.0418533066333
0.0418139241128
0.0417835737121
0.0417678286635
0.0417861156699
0.0418176974821
0.0418137202373
0.0418040210575
0.0417813213241
0.0417006382551
0.0414116782356
0.0407497201899
0.0450273930403
0.0459170270472
0.040865876712
0.0415066196223
0.0418804599032
0.0420259255224
0.0420598805779
0.042053433279
0.0420534849296
0.0419432794506
0.0418869963061
0.0418847591196
0.0419534025226
0.0420611121493
0.0419769773751
0.0419122472083
0.0418679540031
0.0418031741006
0.0415651968155
0.0409821116141
0.045520997833
0.045925717874
0.0408671346349
0.0415486983812
0.0419580932111
0.0421113512078
0.0421344293354
0.0421735006066
0.0424048146916
0.0420388624173
0.0419553599193
0.0420295505769
0.0422805545757
0.0428218013216
0.0423071595063
0.0420563332115
0.0419377305031
0.0418567633697
0.041639601066
0.0410921236853
0.0457429746842
0.0458763271055
0.0408464404107
0.0415581415301
0.0419827862683
0.0421224119655
0.0421457416909
0.0424550329454
0.0441272795681
0.0425657783763
0.042476987081
0.0427462891032
0.043554667804
0.0465819052478
0.0433424035683
0.0423632497113
0.0420429255009
0.0419065364404
0.0416861227151
0.041153559609
0.0458631374704
0.0458406393561
0.040834730045
0.0415513337742
0.0419673641592
0.0420737257973
0.0421437863662
0.0432336620112
0.0531034672483
0.0464914443491
0.0461683659431
0.0463904875918
0.047605932507
0.0599102077566
0.046597800201
0.0429249639215
0.04216684569
0.0419546148983
0.0417220139155
0.0411927342682
0.0459409818034
0.0458564857463
0.0408355520444
0.0415416031324
0.0419264659207
0.0418869063187
0.0413074879726
0.0395976948021
0.0391006801255
0.0328326462291
0.0323623775437
0.0322948349459
0.0333310376494
0.0456332349769
0.0434522287928
0.0424598971721
0.0421275640786
0.0419794011845
0.0417563808288
0.0412297225296
0.046015880037
0.0459007705649
0.0408442523174
0.0415409739726
0.0419170458578
0.0418401480861
0.0410998459155
0.0388775795102
0.0375218114497
0.0313461014212
0.0308775353441
0.0308332988261
0.0320113124874
0.0447065216685
0.0432731791721
0.0424810220989
0.0421702013272
0.0420238486623
0.0418022335214
0.0412729499918
0.046089106673
0.0459774285444
0.0408615194047
0.0415501623096
0.041941970109
0.0419470443117
0.0415476435606
0.0407136342489
0.0434927571768
0.0370485577808
0.0368502722319
0.0372043331276
0.0390321978567
0.0530210169718
0.0460944246814
0.0430088428198
0.0422920972415
0.0420881585851
0.0418615473024
0.0413234766025
0.0461630612969
0.0460946061271
0.0408929119948
0.0415616302653
0.0419620112438
0.0420312862911
0.0417858195726
0.041229788693
0.0408085981197
0.0388464373979
0.0388376190886
0.0393192058591
0.040676950447
0.0451584361656
0.0437386279498
0.042640166344
0.0422695746114
0.0421423358264
0.0419307647378
0.0413765726115
0.0462163259209
0.0462668020744
0.0409472459319
0.0415697690884
0.0419595835251
0.0420864977276
0.0420258860689
0.0418566765987
0.0417599807717
0.0412873338424
0.0412804069619
0.0414997856762
0.0420355283609
0.043102694413
0.0427156042685
0.0423902879611
0.0422688444024
0.0422188502231
0.0420139943678
0.0414260316039
0.0462536534046
0.046459198042
0.041016305209
0.0415703961988
0.0419231499424
0.0420647801857
0.0420899118068
0.0420558495913
0.0420192714164
0.041901172469
0.0418811983424
0.0419533341048
0.0421356192405
0.0423933932894
0.0423622858597
0.0423253931473
0.0423364903032
0.042331335301
0.0421143653065
0.0414772857793
0.046261882177
0.0466034313862
0.0410722949754
0.0415628204782
0.0418661348014
0.0419922030514
0.0420362397942
0.0420378983365
0.0420205558077
0.0419840725615
0.0419750567269
0.0420224095839
0.0421196808944
0.0422373030787
0.0423117156559
0.042385376177
0.042459712317
0.0424698864876
0.0422265444552
0.0415330657188
0.0462567439287
0.0466090170872
0.0410669403785
0.0415330753476
0.0417986739043
0.0419017952856
0.0419438462157
0.0419566745731
0.0419559504139
0.0419542888414
0.041974896967
0.0420387473151
0.0421333793077
0.0422477078475
0.0423674230588
0.0424887430366
0.0425898479906
0.0425959251063
0.042313304746
0.0415522812787
0.0461285720321
0.0462408034257
0.0408946945614
0.041416633555
0.0416903862131
0.0417840713818
0.0418226464426
0.0418439744375
0.0418614672402
0.0418877580171
0.0419371093654
0.0420145299298
0.0421168025759
0.0422418698179
0.0423818445191
0.0425207146682
0.0426235559731
0.0426055011512
0.0422644001919
0.0413861087161
0.045590360875
0.0447914835087
0.0402694546231
0.0410256294241
0.0413885642678
0.0415081249343
0.0415529823522
0.0415816375941
0.041611917541
0.0416522982854
0.0417089003618
0.0417842864355
0.0418808371265
0.0419996247549
0.0421338059057
0.0422628492406
0.0423447215741
0.0422784006205
0.041821215042
0.0406634088652
0.0439585376628
0.0406915597796
0.0386936801574
0.0401268010016
0.0407114804785
0.0408996343596
0.0409675363954
0.0410085850511
0.0410478546538
0.0410911482431
0.0411401064326
0.0411972745319
0.0412665927051
0.0413516542299
0.0414464122253
0.0415315722569
0.0415544281445
0.0413754968801
0.0406473159256
0.0388208389857
0.0400130918896
0.0328343509894
0.0399846586285
0.0436260448227
0.0449303755326
0.0453640803174
0.0455447051526
0.0456692113753
0.0457884289359
0.0459048962198
0.0460005100473
0.0460865879988
0.046164142601
0.0462387128104
0.0462963134902
0.0463068386099
0.0461716907868
0.0456382675475
0.0440452181768
0.0401376305895
0.0332851748537
0.033611619311
0.0428770308411
0.0479598978645
0.0499173427313
0.0506008360594
0.0508835991802
0.0510657100282
0.0512482313858
0.0514012882895
0.0515173024681
0.0515982882185
0.0516573559432
0.0517159793466
0.0517631451503
0.0517714721234
0.0516288831201
0.0509747415149
0.0488634137018
0.0433979876398
0.0335929015194
0.0430199845928
0.0402306446962
0.0415085388471
0.042058300224
0.0422428995413
0.0423098445221
0.0423493881278
0.0423870024831
0.0424207895866
0.042450961196
0.0424770146053
0.042500538852
0.0425240982229
0.0425409050675
0.0425353048882
0.0424713674543
0.0422588565729
0.0416599727171
0.0402962017428
0.042509032702
0.0481704383619
0.0415232624398
0.041594466921
0.041702171105
0.0417481239586
0.0417792624748
0.0418072103257
0.0418299868354
0.0418361442359
0.0418390477035
0.0418424396209
0.0418476972481
0.0418509765712
0.0418368676291
0.0418182712631
0.0417970812559
0.0417603528087
0.0416545579229
0.0415273812718
0.0473974457347
0.0501107412048
0.0420594998221
0.0416944550431
0.0416440104713
0.0416541904133
0.0416987351562
0.0417618515296
0.0418219987881
0.0418066880132
0.0417868881158
0.0417756936676
0.0417762331728
0.0417675242335
0.041673723854
0.0415970305622
0.0415727933567
0.041624140704
0.0417451719861
0.0420825500912
0.0492683908906
0.0506687402103
0.0422077557696
0.0417295141571
0.0416523724533
0.04168545746
0.0418033587377
0.0420189607253
0.0423088577445
0.0422163972598
0.0421603211073
0.0421530411892
0.0421987243783
0.0422623678312
0.0418720425684
0.0416084249142
0.0415037455544
0.0415657005427
0.0417802709378
0.0422842009146
0.0498964634664
0.0507599362558
0.0422280576389
0.0417511934836
0.0417079844732
0.0418258057305
0.0421707256545
0.0430258181917
0.0449451673874
0.0442343202098
0.0440227628372
0.0440366465617
0.0443150683018
0.0451355711943
0.0428845435251
0.0419521341385
0.04159698058
0.0415808436755
0.0418072615366
0.0423644744967
0.0501103942284
0.0507300910237
0.0422208575956
0.0417714785469
0.0417889779726
0.042082508654
0.0431203624842
0.0474025369473
0.0738229852402
0.06484899449
0.0637127024748
0.063662872299
0.0650117275947
0.0761895670147
0.0470792326045
0.0429107030931
0.0418627328112
0.0416573350355
0.0418408899331
0.0424035600023
0.0501887493747
0.0506750932173
0.0422151828754
0.0417852131869
0.0418560382713
0.0423834781697
0.0451649622566
0.0739129772985
0.0768285684825
0.0451001851458
0.042227643411
0.0417526528731
0.0418785552003
0.0424309717047
0.0502244201742
0.0506793717206
0.0422179251387
0.0417854325428
0.0418420995315
0.0422208972931
0.0438551226705
0.0603860281904
0.0631209550347
0.0441710576331
0.0421797836614
0.0417831307782
0.0419104034232
0.042459711332
0.05026106907
0.0507296458884
0.0422281381656
0.0417863718347
0.0418360643513
0.0421720803116
0.0435406119405
0.0585111169127
0.0624954843944
0.0441645746379
0.042213943012
0.04181906699
0.0419495807384
0.0424950022263
0.050295860798
0.050830309677
0.042246605865
0.0417877355083
0.0418374946934
0.0422416203381
0.0441579741375
0.065481230865
0.0731632382024
0.0450422350559
0.0423195443802
0.0418597247106
0.0419989858566
0.0425389622531
0.0503307581253
0.0509821114511
0.0422754755647
0.0417789168931
0.0417794796015
0.0420247454088
0.0427748171746
0.0457265290461
0.0653601544017
0.0578991095751
0.0575963964818
0.0582324702097
0.0607808171615
0.0753616521731
0.048577331384
0.0432827992222
0.0420591574522
0.0418531474477
0.0420559057799
0.042590244032
0.0503561693196
0.0511746571945
0.0423199406855
0.041768236039
0.0417058986383
0.0418288674688
0.0421734124073
0.0429502218472
0.0446188271365
0.0438448713893
0.0437241899125
0.0439191412311
0.0445850839123
0.0462504829635
0.0435888070812
0.042284512528
0.0418597358254
0.0418787446043
0.0421367271393
0.0426483141406
0.0503732871852
0.0513604131383
0.0423729424116
0.0417593293505
0.0416320593615
0.041658103478
0.0418035480885
0.042059594737
0.0423542320728
0.0422429558707
0.0421941819877
0.0422297438644
0.0423746612623
0.0426011401691
0.0421714025552
0.0418738048322
0.0418234598942
0.0419764501435
0.0422532125614
0.0427179331746
0.0503811774883
0.051481535187
0.0424127256487
0.04175501855
0.0415772613451
0.0415373975884
0.0415765132483
0.0416537172407
0.0417192538505
0.0417006885636
0.0416847544176
0.0417008418821
0.0417545076575
0.0418228114947
0.0418024628311
0.0418212644776
0.0419340212702
0.0421427278342
0.0424004250824
0.0427917013104
0.0503498201312
0.0514288043228
0.0423992496503
0.041755213963
0.041565361482
0.0414956945862
0.0414887820244
0.0415057057039
0.0415217616103
0.0415247224583
0.0415369129517
0.0415754957559
0.0416432400758
0.0417352446286
0.0418369897697
0.0419679169597
0.0421404483406
0.0423494328726
0.0425474930433
0.0428211033065
0.0501264858952
0.0508424645661
0.0422328100355
0.0417440432428
0.0416228912293
0.0415708776275
0.0415592078005
0.0415659778777
0.0415803153288
0.0416008312272
0.0416367707926
0.0416971448189
0.0417864753644
0.0419058018691
0.0420503330046
0.0422144016757
0.0423875492361
0.0425460949161
0.0426216537779
0.0426568008379
0.049336925344
0.0487657045315
0.0416563521113
0.0416529441458
0.0417423359467
0.041771008701
0.0417859506179
0.0418030178269
0.0418259697701
0.041857318332
0.0419024183326
0.0419675256713
0.0420583667204
0.0421772499087
0.0423188304616
0.0424668596226
0.0425927508692
0.0426377504706
0.0424594230125
0.0419532035285
0.0471336826236
0.0433018543058
0.0402835354705
0.0415160465236
0.0420581836457
0.0422379630464
0.0423008854627
0.0423351976255
0.0423654404302
0.0423973972375
0.0424342261525
0.0424807737619
0.0425418744572
0.0426216504988
0.0427140871823
0.0427966149788
0.0428154648946
0.0426344055145
0.04192877089
0.0402318888265
0.0421210783201
0.0335684908733
0.0424569330031
0.0473097861905
0.0491324825114
0.0497254454281
0.0499275750973
0.0500274187811
0.0501079931159
0.0501801482186
0.0502408346968
0.0502977664874
0.0503395741443
0.0503878260649
0.050436123539
0.0504073975366
0.0501842000239
0.0494129210985
0.0472556635961
0.0422921613697
0.0341564595797
0.0338718414829
0.0440515958605
0.0499204303463
0.0522928139105
0.0531525641304
0.0535022593888
0.0537036204029
0.0538913057898
0.054042137131
0.0541547477673
0.054231338498
0.0542884904637
0.0543523431453
0.0544097125924
0.0544331723625
0.0542622673046
0.0534542307644
0.0509162038364
0.044618324723
0.0338421900525
0.0442033227559
0.0409790167884
0.0421889615847
0.0427381057616
0.0429441250293
0.0430307393689
0.0430792552494
0.0431167598455
0.0431461885716
0.043171408374
0.0431920735354
0.0432099520818
0.043227886738
0.0432381545092
0.043224788619
0.0431522892432
0.042934746757
0.0423480535528
0.0410512357431
0.0436368643909
0.0501509105615
0.0422030262466
0.0418804523191
0.0418346327202
0.0418390944435
0.0418758243539
0.0419214892415
0.0419571596437
0.0419657820743
0.0419675856312
0.0419683333408
0.0419679495337
0.0419597694383
0.0419257858565
0.0418911719399
0.0418726813863
0.0418877032108
0.0419454495593
0.0422105622696
0.0492559465667
0.0525134583446
0.0427341309712
0.0418167383358
0.0415288344401
0.0414650756074
0.041521676388
0.041634718688
0.0417437842708
0.041742125078
0.0417261512245
0.0417156053452
0.0417098514146
0.0416826311181
0.0415394420776
0.0414196053146
0.0413898979309
0.0415167489585
0.0418702979728
0.0427424034781
0.0514714149716
0.053248303459
0.0428979148725
0.0417945579101
0.0414409024121
0.0414013179615
0.0415779659811
0.0419286520114
0.0423447738499
0.0422478402555
0.0421817819272
0.0421707780628
0.0422145678292
0.0422697974783
0.0417643636736
0.0413927860232
0.0412445838148
0.0413728345531
0.0418390138951
0.0429246774249
0.0521915998299
0.0534039623064
0.0429369006464
0.0418075535968
0.0414856854492
0.041577617556
0.0421049588957
0.0432926229798
0.0454383115071
0.0444869073721
0.044179009512
0.0441712543137
0.0444812021017
0.0454514919474
0.0430303688252
0.0418580789777
0.0413731646334
0.0413819035371
0.0418471164011
0.0429876162781
0.0523918255252
0.0533847895082
0.0429421377722
0.0418392964128
0.0416045796705
0.0419669315027
0.0434141261027
0.0482423857625
0.0718548271173
0.060649494725
0.0592299996643
0.0591868422146
0.0606255963424
0.0730648363362
0.0474838686078
0.0430563421423
0.0417426820211
0.041493228752
0.041886095514
0.0430168376566
0.0524318089724
0.0533093279307
0.0429407364681
0.0418675790336
0.0417179767294
0.0424068784787
0.0457852004737
0.0734629565808
0.0735294357796
0.0453893105191
0.0422094285978
0.0416298109613
0.0419383068162
0.0430431466521
0.052432082954
0.0533018932959
0.0429439052571
0.0418741366918
0.0417195770529
0.0422550210577
0.0442811495985
0.05754172464
0.058255760699
0.0442645779463
0.0421621245308
0.0416772017402
0.0419824064623
0.0430745370741
0.0524410098193
0.0533564589406
0.0429542924448
0.0418752320282
0.0417142776457
0.0422032527345
0.0439243833685
0.0554825147741
0.0577982525533
0.0442767426281
0.0422077233071
0.0417251423755
0.0420337488162
0.043115187092
0.0524527325765
0.0534777943812
0.0429728743902
0.041870034489
0.0416997452664
0.0422531806275
0.0446370197737
0.0640940525444
0.0703416837564
0.0453692327909
0.0423313814263
0.0417736401431
0.0420972155172
0.0431683772876
0.0524650680825
0.0536599164194
0.0429987815728
0.0418457598019
0.041595919805
0.0419164880708
0.0430596986055
0.0464211886302
0.0636238637316
0.054243572647
0.0536583896004
0.0542057921405
0.0571884463969
0.074025124943
0.0491361338489
0.0435087330347
0.0420009147447
0.0417599245149
0.0421725405301
0.043236543658
0.0524782740201
0.0538738565665
0.0430332842611
0.0418174582736
0.0414736045037
0.0415827086807
0.0421393617874
0.0432610268304
0.0450751429458
0.0440807766303
0.0438705572123
0.0440563260641
0.044833920626
0.0467998962691
0.0438715732447
0.0422835805457
0.0417309418787
0.0417921434412
0.0422870963884
0.043325219522
0.0525050414422
0.0540589519068
0.0430700664048
0.0417953811696
0.0413690649486
0.041315247219
0.041533288849
0.0419458467815
0.0423610640846
0.0422473870847
0.042188331517
0.0422262311189
0.0423928191221
0.0426534993463
0.04212238379
0.041737067944
0.0416792401461
0.0419302611736
0.0424596236409
0.0434392279504
0.0525411154008
0.0541603813031
0.0430935447004