/*--------------------------------*- C++ -*----------------------------------*\
| =========                 |                                                 |
| \\      /  F ield         | OpenFOAM: The Open Source CFD Toolbox           |
|  \\    /   O peration     | Version:  v1606+                                |
|   \\  /    A nd           | Web:      www.OpenFOAM.com                      |
|    \\/     M anipulation  |                                                 |
\*---------------------------------------------------------------------------*/
FoamFile
{
    version     2.0;
    format      ascii;
    class       surfaceScalarField;
    location    "0.6";
    object      meshPhiCN_0;
}
// * * * * * * * * * * * * * * * * * * * * * * * * * * * * * * * * * * * * * //

dimensions      [0 3 -1 0 0 0 0];

internalField   nonuniform List<scalar> 
33146
(
0
0
0
0
0
0
0
0
0
7.22096036948e-10
-1.07560634433e-08
-7.05098984375e-09
8.13723527117e-09
-1.29961612802e-07
-7.25237049877e-08
1.70402594592e-08
-3.6445400956e-07
-1.74253035358e-07
2.0824185295e-08
-5.43575614088e-07
-2.08676720239e-07
2.07740949591e-08
-5.9694500069e-07
-1.67231282654e-07
2.07239213942e-08
-5.97512796319e-07
-1.02085390275e-07
2.06736645381e-08
-5.9808059194e-07
-3.69394978935e-08
2.06233243739e-08
-5.98648387564e-07
2.82063944823e-08
2.05729009468e-08
-5.99216183187e-07
9.33522868585e-08
2.05223943493e-08
-5.99783978808e-07
1.58498179236e-07
1.67677765545e-08
-5.46694854339e-07
2.00662163699e-07
8.05666597773e-09
-3.66132884314e-07
1.68787003963e-07
7.21307299607e-10
-1.30233644269e-07
7.05426191957e-08
0
-1.07584920106e-08
6.88401158053e-09
0
0
0
0
0
0
0
0
0
0
0
0
0
0
5.96343707981e-09
-8.76331276396e-08
-6.70648966022e-08
3.09103008313e-08
-5.08152626242e-07
-3.53822092246e-07
7.11681530046e-08
-1.24914702772e-06
-8.21430753039e-07
1.07443111839e-07
-1.97791161797e-06
-1.16961942782e-06
1.21164232667e-07
-2.42154410553e-06
-1.17373083735e-06
1.20190294081e-07
-2.55008072373e-06
-9.00888342725e-07
1.19208620539e-07
-2.56060684278e-06
-5.48302205768e-07
1.18219212044e-07
-2.57113296183e-06
-1.95716068811e-07
1.17222068546e-07
-2.58165908089e-06
1.56870068147e-07
1.16217189986e-07
-2.59218519994e-06
5.09456205101e-07
1.15204576494e-07
-2.60271131899e-06
8.62042342056e-07
1.00994022744e-07
-2.48642537159e-06
1.13639213962e-06
6.71009800974e-08
-2.0313972768e-06
1.1386922226e-06
2.97031042576e-08
-1.27446599611e-06
8.02147846208e-07
5.90240876529e-09
-5.13187206857e-07
3.46206698033e-07
0
-8.78272640436e-08
6.57213278737e-08
0
0
0
0
0
0
0
0
5.96778049776e-09
-8.76168493168e-08
-7.65503164555e-08
4.77303425054e-08
-6.53263107629e-07
-5.84137759881e-07
1.32984452058e-07
-1.82588336658e-06
-1.65506419799e-06
2.33660554838e-07
-3.20417201687e-06
-2.75038215678e-06
3.11840430315e-07
-4.38189041673e-06
-3.27504700891e-06
3.37937874869e-07
-5.06932315588e-06
-3.03518649275e-06
3.33131388022e-07
-5.28577559377e-06
-2.27846885287e-06
3.28233619375e-07
-5.33205906136e-06
-1.38160956026e-06
3.2324456894e-07
-5.37834252895e-06
-4.84750267644e-07
3.18164236817e-07
-5.42462599653e-06
4.12109024965e-07
3.12992622872e-07
-5.47090946412e-06
1.30896831758e-06
3.0772972716e-07
-5.51719293172e-06
2.20582761019e-06
2.77092747917e-07
-5.36496336886e-06
2.96262702945e-06
2.06726640239e-07
-4.65881638977e-06
3.20643916588e-06
1.20274731945e-07
-3.38026001757e-06
2.69565535047e-06
4.50595099329e-08
-1.89182339149e-06
1.62319925722e-06
5.89803391558e-09
-6.63356252334e-07
5.73350612941e-07
0
-8.78435354297e-08
7.52053042362e-08
0
0
7.22293133445e-10
-1.07553293295e-08
-1.05347718477e-08
3.6350542894e-08
-4.30971501627e-07
-4.58179362118e-07
1.44956969588e-07
-1.67828065876e-06
-1.89251209991e-06
3.09261000431e-07
-3.50076829059e-06
-3.88686985202e-06
4.81076125612e-07
-5.37139561839e-06
-5.43311005782e-06
6.03661550475e-07
-6.87156462531e-06
-5.91664136333e-06
6.39728464529e-07
-7.73784111739e-06
-5.26192597772e-06
6.27517997639e-07
-8.04420817742e-06
-3.90077133548e-06
6.14891894827e-07
-8.15409191547e-06
-2.35569575088e-06
6.01850155971e-07
-8.26397565353e-06
-8.1062016627e-07
5.88392781249e-07
-8.37385939159e-06
7.34455418334e-07
5.7451977051e-07
-8.48374312965e-06
2.27953100294e-06
5.60231123834e-07
-8.59362686771e-06
3.82460658754e-06
5.08882758112e-07
-8.45325345509e-06
5.18187903271e-06
3.98704943157e-07
-7.58672707279e-06
5.82903522389e-06
2.60490283676e-07
-5.89265790034e-06
5.34701566934e-06
1.28747598464e-07
-3.75378878179e-06
3.82124049471e-06
3.46190346433e-08
-1.74413562754e-06
1.86003563184e-06
7.21110042303e-10
-4.36413145161e-07
4.50497647029e-07
-1.07592261025e-08
1.03677276307e-08
8.89229555662e-09
-1.19100327591e-07
-1.27633712926e-07
9.40655863368e-08
-9.45722315506e-07
-1.23679708957e-06
2.75061078324e-07
-2.75250092422e-06
-3.66867250129e-06
5.18448178229e-07
-5.02611156891e-06
-6.33536869356e-06
7.52073091969e-07
-7.19220332861e-06
-8.08150150794e-06
9.04564975377e-07
-8.84394459831e-06
-8.34619812089e-06
9.42757388999e-07
-9.7820376692e-06
-7.2213784524e-06
9.2216513655e-07
-1.01498846523e-05
-5.30430635886e-06
9.0053803124e-07
-1.03283614738e-05
-3.19223478488e-06
8.7787607311e-07
-1.05068382952e-05
-1.08016321089e-06
8.54179262157e-07
-1.06853151166e-05
1.03190836309e-06
8.29447598295e-07
-1.0863791938e-05
3.14397993708e-06
8.03681081693e-07
-1.10422687594e-05
5.25605151107e-06
7.34390333276e-07
-1.09616725461e-05
7.1651217569e-06
5.92461449872e-07
-1.00780173972e-05
8.26805385139e-06
4.10270586814e-07
-8.16888452455e-06
7.98398591729e-06
2.29246483231e-07
-5.56896566998e-06
6.24306673229e-06
8.56905591585e-08
-2.93343260976e-06
3.61001651248e-06
8.74382743223e-09
-9.70655181402e-07
1.21683325509e-06
-1.19580073704e-07
1.25641903243e-07
2.53429102986e-08
-2.44931239106e-07
-3.58476226778e-07
1.55175080647e-07
-1.38532056142e-06
-2.11779300882e-06
3.96140458449e-07
-3.53096405619e-06
-5.25176457133e-06
6.98045764499e-07
-6.04973675886e-06
-8.2925275725e-06
9.66978992551e-07
-8.33594281523e-06
-1.00358655135e-05
1.12310075117e-06
-9.98453372547e-06
-1.00001325985e-05
1.15177047618e-06
-1.08723825796e-05
-8.46379150191e-06
1.12520455928e-06
-1.12416319235e-05
-6.16631552929e-06
1.09696834832e-06
-1.14629448363e-05
-3.70331005287e-06
1.06706184323e-06
-1.16842577491e-05
-1.24030457644e-06
1.03548504398e-06
-1.1905570662e-05
1.22270089997e-06
1.0022379505e-06
-1.21268835748e-05
3.6857063764e-06
9.67320562992e-07
-1.23481964877e-05
6.14871185282e-06
8.92175781017e-07
-1.23589229212e-05
8.43700492328e-06
7.37838242067e-07
-1.16009482915e-05
9.9429952016e-06
5.29074161861e-07
-9.68736058432e-06
9.94170655091e-06
3.14301687195e-07
-6.85840284674e-06
8.185958007e-06
1.35643231741e-07
-3.83453358773e-06
5.17245048308e-06
2.45334771813e-08
-1.43819383997e-06
2.0844389422e-06
-2.46969683583e-07
3.5292153237e-07
3.81311424125e-08
-2.97670447519e-07
-5.34176371448e-07
1.9324604498e-07
-1.55419339123e-06
-2.67650367305e-06
4.6599894581e-07
-3.81156441315e-06
-6.13406975681e-06
7.9500950066e-07
-6.40466378679e-06
-9.30033418684e-06
1.07428479299e-06
-8.71386636968e-06
-1.09679288623e-05
1.21989627478e-06
-1.03241707319e-05
-1.07148489271e-05
1.23519626301e-06
-1.11451654336e-05
-8.94236947158e-06
1.20615045686e-06
-1.1488745234e-05
-6.47808889621e-06
1.17510846629e-06
-1.17204701444e-05
-3.88779867413e-06
1.14207029133e-06
-1.19521950548e-05
-1.29750845207e-06
1.10703593194e-06
-1.21839199652e-05
1.29278177001e-06
1.07000538805e-06
-1.24156448757e-05
3.88307199207e-06
1.03097865976e-06
-1.26473697861e-05
6.47336221414e-06
9.59722689984e-07
-1.27182751663e-05
8.92969656398e-06
8.0711689419e-07
-1.20694458561e-05
1.0670017862e-05
5.89331100223e-07
-1.02060491904e-05
1.0877594701e-05
3.59981911132e-07
-7.32002837201e-06
9.18748314602e-06
1.64870773695e-07
-4.167924426e-06
6.04356914071e-06
3.6487219495e-08
-1.62066926114e-06
2.63466429283e-06
-3.00687170869e-07
5.25922786711e-07
4.19296919678e-08
-2.97670447505e-07
-5.8571986164e-07
2.03465527195e-07
-1.5541933912e-06
-2.82748439157e-06
4.8356663543e-07
-3.81156441316e-06
-6.3521934964e-06
8.17863891081e-07
-6.40466378677e-06
-9.52935879433e-06
1.09776018017e-06
-8.71386636967e-06
-1.11612476581e-05
1.23856852784e-06
-1.03241707319e-05
-1.08473283509e-05
1.24907916351e-06
-1.11451654336e-05
-9.01991673815e-06
1.2195906168e-06
-1.1488745234e-05
-6.52525556789e-06
1.18804221013e-06
-1.17204701444e-05
-3.91572469528e-06
1.1544339435e-06
-1.19521950548e-05
-1.30619382268e-06
1.11876581688e-06
-1.21839199652e-05
1.30333704993e-06
1.08103783028e-06
-1.24156448757e-05
3.91286792253e-06
1.04124998377e-06
-1.26473697861e-05
6.52239879513e-06
9.72133699257e-07
-1.27182751663e-05
9.00975360596e-06
8.21298849979e-07
-1.20694458562e-05
1.08048580957e-05
6.02540641252e-07
-1.02060491904e-05
1.10713104701e-05
3.70769714289e-07
-7.32002837199e-06
9.41459543607e-06
1.72383482777e-07
-4.167924426e-06
6.25865627875e-06
3.9968284648e-08
-1.62066926112e-06
2.78328047587e-06
-3.0068717089e-07
5.76675158925e-07
4.19296919684e-08
-2.97670447533e-07
-5.85719861635e-07
2.03465527193e-07
-1.55419339124e-06
-2.82748439157e-06
4.83566635431e-07
-3.81156441316e-06
-6.3521934964e-06
8.17863891086e-07
-6.4046637868e-06
-9.52935879433e-06
1.09776018017e-06
-8.71386636967e-06
-1.11612476581e-05
1.23856852783e-06
-1.03241707319e-05
-1.08473283509e-05
1.24907916351e-06
-1.11451654336e-05
-9.01991673815e-06
1.21959061679e-06
-1.1488745234e-05
-6.52525556789e-06
1.18804221013e-06
-1.17204701444e-05
-3.91572469528e-06
1.15443394352e-06
-1.19521950549e-05
-1.30619382268e-06
1.11876581689e-06
-1.21839199653e-05
1.30333704992e-06
1.08103783038e-06
-1.24156448757e-05
3.91286792253e-06
1.04124998378e-06
-1.26473697862e-05
6.52239879513e-06
9.72133699286e-07
-1.27182751663e-05
9.00975360596e-06
8.21298850039e-07
-1.20694458562e-05
1.08048580957e-05
6.02540641201e-07
-1.02060491904e-05
1.10713104701e-05
3.70769714215e-07
-7.32002837201e-06
9.41459543607e-06
1.72383482762e-07
-4.16792442601e-06
6.25865627875e-06
3.99682846534e-08
-1.62066926117e-06
2.78328047587e-06
-3.00687170887e-07
5.76675158929e-07
4.19296919685e-08
-2.9767044751e-07
-5.85719861638e-07
2.03465527196e-07
-1.55419339123e-06
-2.82748439158e-06
4.83566635433e-07
-3.81156441316e-06
-6.3521934964e-06
8.17863891077e-07
-6.40466378684e-06
-9.52935879433e-06
1.09776018018e-06
-8.71386636968e-06
-1.11612476581e-05
1.23856852784e-06
-1.03241707319e-05
-1.08473283509e-05
1.24907916348e-06
-1.11451654336e-05
-9.01991673815e-06
1.2195906168e-06
-1.1488745234e-05
-6.52525556789e-06
1.18804221013e-06
-1.17204701444e-05
-3.91572469528e-06
1.15443394352e-06
-1.19521950548e-05
-1.30619382268e-06
1.11876581685e-06
-1.21839199653e-05
1.30333704993e-06
1.08103783036e-06
-1.24156448757e-05
3.91286792253e-06
1.04124998376e-06
-1.26473697861e-05
6.52239879513e-06
9.72133699259e-07
-1.27182751664e-05
9.00975360596e-06
8.21298849966e-07
-1.20694458562e-05
1.08048580957e-05
6.0254064126e-07
-1.02060491904e-05
1.10713104701e-05
3.70769714294e-07
-7.32002837201e-06
9.41459543607e-06
1.72383482773e-07
-4.16792442602e-06
6.25865627876e-06
3.99682846319e-08
-1.62066926114e-06
2.78328047588e-06
-3.00687170845e-07
5.76675158925e-07
4.19296919703e-08
-2.97670447513e-07
-5.85719861639e-07
2.03465527196e-07
-1.5541933912e-06
-2.82748439158e-06
4.83566635434e-07
-3.8115644131e-06
-6.3521934964e-06
8.17863891082e-07
-6.40466378685e-06
-9.52935879434e-06
1.09776018016e-06
-8.71386636967e-06
-1.11612476581e-05
1.23856852785e-06
-1.03241707319e-05
-1.08473283509e-05
1.2490791635e-06
-1.11451654336e-05
-9.01991673815e-06
1.2195906168e-06
-1.1488745234e-05
-6.52525556789e-06
1.18804221012e-06
-1.17204701444e-05
-3.91572469528e-06
1.15443394352e-06
-1.19521950549e-05
-1.30619382268e-06
1.11876581685e-06
-1.21839199653e-05
1.30333704992e-06
1.08103783035e-06
-1.24156448757e-05
3.91286792253e-06
1.04124998379e-06
-1.26473697861e-05
6.52239879513e-06
9.7213369931e-07
-1.27182751664e-05
9.00975360597e-06
8.21298849966e-07
-1.20694458562e-05
1.08048580957e-05
6.02540641259e-07
-1.02060491904e-05
1.10713104701e-05
3.70769714315e-07
-7.32002837206e-06
9.41459543607e-06
1.72383482764e-07
-4.167924426e-06
6.25865627875e-06
3.99682846297e-08
-1.62066926109e-06
2.78328047588e-06
-3.00687170884e-07
5.76675158924e-07
3.80011025515e-08
-2.44931239117e-07
-5.33077137396e-07
1.9181179957e-07
-1.38532056141e-06
-2.6614311872e-06
4.61061122119e-07
-3.53096405624e-06
-6.07755671385e-06
7.85153964858e-07
-6.04973675888e-06
-9.18870396e-06
1.06111883064e-06
-8.3359428153e-06
-1.08236410702e-05
1.20793231442e-06
-9.98453372552e-06
-1.05856382168e-05
1.22588553284e-06
-1.08723825796e-05
-8.85759325264e-06
1.19694141336e-06
-1.12416319235e-05
-6.42821430353e-06
1.16601174322e-06
-1.14629448363e-05
-3.85875871229e-06
1.1330965224e-06
-1.16842577492e-05
-1.28930312105e-06
1.09819575096e-06
-1.19055706621e-05
1.28015247019e-06
1.0613094289e-06
-1.21268835749e-05
3.84960806143e-06
1.02243755605e-06
-1.23481964877e-05
6.41906365267e-06
9.49050118728e-07
-1.23589229213e-05
8.83995225493e-06
7.95623858849e-07
-1.16009482916e-05
1.05352595684e-05
5.80778972826e-07
-9.68736058436e-06
1.07285983261e-05
3.5560869668e-07
-6.85840284681e-06
9.07315960023e-06
1.63538288449e-07
-3.83453358774e-06
5.98607763221e-06
3.63597200909e-08
-1.43819383999e-06
2.61940525782e-06
-2.46969683622e-07
5.24813287428e-07
2.51377283429e-08
-1.19100327577e-07
-3.56723555929e-07
1.52101597222e-07
-9.45722315446e-07
-2.08659691768e-06
3.8450106483e-07
-2.75250092419e-06
-5.11982607494e-06
6.73265111181e-07
-5.02611156886e-06
-8.01340636636e-06
9.3095128918e-07
-7.19220332863e-06
-9.65037570419e-06
1.08388000316e-06
-8.84394459836e-06
-9.61522572042e-06
1.11399195837e-06
-9.78203766923e-06
-8.16237895726e-06
1.08783405786e-06
-1.01498846524e-05
-5.96070169822e-06
1.06004425491e-06
-1.03283614737e-05
-3.58340680212e-06
1.03062254947e-06
-1.05068382952e-05
-1.20611190601e-06
9.99568941579e-07
-1.06853151166e-05
1.1711829901e-06
9.66883431147e-07
-1.0863791938e-05
3.5484778862e-06
9.32566018244e-07
-1.10422687594e-05
5.92577278232e-06
8.5702699441e-07
-1.09616725462e-05
8.11821716189e-06
7.06139045759e-07
-1.00780173972e-05
9.54202466339e-06
5.07308065048e-07
-8.16888452455e-06
9.54433172349e-06
3.03831342358e-07
-5.56896566997e-06
7.90056974873e-06
1.32743561783e-07
-2.93343260976e-06
5.03839419745e-06
2.43303678521e-08
-9.70655181383e-07
2.05288058466e-06
-1.19580073663e-07
3.5115360228e-07
8.83044661161e-09
-1.07553293231e-08
-1.27098157117e-07
9.1680299428e-08
-4.30971501641e-07
-1.21473042755e-06
2.63694082193e-07
-1.67828065877e-06
-3.54343907324e-06
4.9103069143e-07
-3.50076829058e-06
-6.02860864959e-06
7.07453240757e-07
-5.37139561843e-06
-7.60974965561e-06
8.49009254963e-07
-6.87156462536e-06
-7.82011359215e-06
8.84392045922e-07
-7.73784111747e-06
-6.76275635272e-06
8.64391986633e-07
-8.04420817742e-06
-4.97335315492e-06
8.43400386489e-07
-8.15409191549e-06
-2.99851106378e-06
8.21417245516e-07
-8.26397565355e-06
-1.02366897263e-06
7.98442563658e-07
-8.3738593916e-06
9.51173118506e-07
7.74476340944e-07
-8.48374312968e-06
2.92601520965e-06
7.4951857738e-07
-8.5936268678e-06
4.90085730079e-06
6.83967477222e-07
-8.45325345516e-06
6.683232135e-06
5.52456453689e-07
-7.58672707289e-06
7.7226365567e-06
3.85554666278e-07
-5.8926579004e-06
7.49963361519e-06
2.18704576723e-07
-3.75378878179e-06
5.93040775722e-06
8.33779152084e-08
-1.74413562758e-06
3.48305297792e-06
8.68183416773e-09
-4.3641314522e-07
1.19453630403e-06
-1.07592261034e-08
1.25102108828e-07
7.21785458759e-10
0
-1.05303847637e-08
3.55980861978e-08
-8.76168492975e-08
-4.52237356109e-07
1.38847884066e-07
-6.53263107622e-07
-1.83048102717e-06
2.90964096092e-07
-1.82588336659e-06
-3.68601259846e-06
4.47041109673e-07
-3.20417201686e-06
-5.07166960641e-06
5.57047179051e-07
-4.38189041677e-06
-5.46814372445e-06
5.88726915278e-07
-5.06932315588e-06
-4.84397864815e-06
5.76937817794e-07
-5.28577559381e-06
-3.59151741208e-06
5.6475353155e-07
-5.33205906135e-06
-2.17366281628e-06
5.52174056427e-07
-5.37834252897e-06
-7.55808220462e-07
5.39199392461e-07
-5.42462599655e-06
6.62046375347e-07
5.25829539724e-07
-5.47090946417e-06
2.07990097116e-06
5.12064498222e-07
-5.5171929317e-06
3.49775556697e-06
4.65535478572e-07
-5.36496336889e-06
4.74737987503e-06
3.67184351873e-07
-4.6588163898e-06
5.3676388667e-06
2.4332810729e-07
-3.38026001764e-06
4.97803331787e-06
1.22845570904e-07
-1.89182339146e-06
3.61734459773e-06
3.386764463e-08
-6.63356252309e-07
1.79730390792e-06
7.20602131045e-10
-8.78435354077e-08
4.44500576896e-07
0
1.03633056309e-08
0
0
0
5.93412448332e-09
0
-7.62910601172e-08
4.63401348162e-08
-8.76331276367e-08
-5.72850960373e-07
1.2632288571e-07
-5.08152626207e-07
-1.58787584493e-06
2.1832672345e-07
-1.24914702772e-06
-2.589629658e-06
2.88398579725e-07
-1.97791161799e-06
-3.04336228168e-06
3.11297683535e-07
-2.42154410558e-06
-2.80329715524e-06
3.06617094601e-07
-2.55008072376e-06
-2.10313177632e-06
3.01848781362e-07
-2.56060684277e-06
-1.27779073827e-06
2.9699274387e-07
-2.57113296185e-06
-4.52449700218e-07
2.92048982127e-07
-2.58165908091e-06
3.72891337832e-07
2.87017496099e-07
-2.59218519996e-06
1.19823237589e-06
2.81898285756e-07
-2.60271131903e-06
2.02357341394e-06
2.5451319766e-07
-2.48642537161e-06
2.72434167453e-06
1.91902996697e-07
-2.03139727686e-06
2.97007153451e-06
1.13733418612e-07
-1.27446599612e-06
2.53249570913e-06
4.36654091178e-08
-5.13187206874e-07
1.55524045577e-06
5.86426692396e-09
-8.78272640066e-08
5.61952983106e-07
0
0
7.49437653663e-08
0
0
0
0
0
0
0
0
5.9297741273e-09
0
-6.68381899547e-08
3.01362590602e-08
-1.07560634528e-08
-3.48058674352e-07
6.81610532359e-08
-1.2996161277e-07
-7.93798096099e-07
1.01723021881e-07
-3.64454009568e-07
-1.11467229289e-06
1.14224213123e-07
-5.43575614077e-07
-1.11093763936e-06
1.13253590108e-07
-5.96945000695e-07
-8.5173635691e-07
1.12275341812e-07
-5.97512796425e-07
-5.19066976542e-07
1.11289468275e-07
-5.98080591939e-07
-1.86397596164e-07
1.10295969535e-07
-5.98648387609e-07
1.46271784206e-07
1.09294845411e-07
-5.99216183225e-07
4.78941164581e-07
1.08286096076e-07
-5.99783978837e-07
8.11610544954e-07
9.52851954046e-08
-5.46694854316e-07
1.07244294615e-06
6.4081597305e-08
-3.66132884283e-07
1.08297384727e-06
2.89212542549e-08
-1.30233644226e-07
7.74197438173e-07
5.86864876264e-09
-1.07584919904e-08
3.40382116629e-07
0
0
6.54923387048e-08
0
0
0
0
0
0
0
0
0
0
0
0
0
0
7.21588331678e-10
0
-7.04807093921e-09
8.07498881756e-09
0
-7.21920504051e-08
1.67769208421e-08
0
-1.72384536689e-07
2.04349508071e-08
0
-2.05458684097e-07
2.03845853958e-08
0
-1.64427887175e-07
2.03341367502e-08
0
-1.00417586043e-07
2.02836049051e-08
0
-3.64072849104e-08
2.02329896984e-08
0
2.7603016217e-08
2.01822912581e-08
0
9.16133173467e-08
2.01315095685e-08
0
1.55623618478e-07
1.65032154368e-08
0
1.97384147105e-07
7.99424494616e-09
0
1.66889440921e-07
7.2079944646e-10
0
7.02063683511e-08
0
0
6.88105776228e-09
0
0
0
0
0
0
0
0
0
0
0
0
0
0
0
0
0
0
0
0
0
0
0
0
0
0
0
0
0
0
0
0
0
0
0
0
0
0
0
0
0
0
0
0
0
0
0
0
0
0
0
0
0
0
0
0
0
0
0
0
0
0
0
0
0
0
0
0
0
0
0
0
0
0
0
0
0
0
0
0
0
0
0
0
0
0
0
0
0
0
0
0
0
0
0
0
0
0
0
0
0
0
0
0
0
0
0
0
0
0
0
0
0
0
0
1.26023149735e-09
-3.86579174435e-08
-1.82979232826e-08
1.15790086419e-08
-3.2751031478e-07
-1.11474602303e-07
2.38248830404e-08
-8.52637072736e-07
-2.34198236829e-07
2.90736221613e-08
-1.24152141781e-06
-2.6784025899e-07
2.90310131433e-08
-1.35563986654e-06
-2.12318422557e-07
2.8988403036e-08
-1.35598362412e-06
-1.29583000203e-07
2.89457918801e-08
-1.35632738171e-06
-4.68475778549e-08
2.89031797528e-08
-1.35667113929e-06
3.58878444865e-08
2.88605666108e-08
-1.35701489688e-06
1.18623266848e-07
2.88179524476e-08
-1.35735865446e-06
2.01358689194e-07
2.35828145985e-08
-1.24324525262e-06
2.57677764117e-07
1.14904410054e-08
-8.53534522207e-07
2.26933309674e-07
1.25667258241e-09
-3.27722963974e-07
1.08465166991e-07
0
-3.8671248443e-08
1.78653852078e-08
0
0
0
0
0
0
0
0
0
0
0
0
0
0
8.58890746758e-09
-2.18674890938e-07
-1.00247621172e-07
4.31665963509e-08
-1.15963082995e-06
-4.62508011042e-07
9.92792620335e-08
-2.75461393644e-06
-1.00362133704e-06
1.50623786253e-07
-4.30647080299e-06
-1.38465014537e-06
1.70970189715e-07
-5.23849882405e-06
-1.36972326904e-06
1.70588202719e-07
-5.49292746877e-06
-1.04727491418e-06
1.70205900237e-07
-5.49596126558e-06
-6.37218379734e-07
1.69823282343e-07
-5.49899506241e-06
-2.27161845292e-07
1.69440348921e-07
-5.50202885921e-06
1.82894689145e-07
1.69057100009e-07
-5.50506265603e-06
5.92951223595e-07
1.68673535651e-07
-5.50809645285e-06
1.00300775803e-06
1.47957432796e-07
-5.25451821202e-06
1.32694535496e-06
9.71876914753e-08
-4.31711550623e-06
1.34845363754e-06
4.22709660758e-08
-2.75958606449e-06
9.80117112504e-07
8.51376385046e-09
-1.16100044145e-06
4.52531828118e-07
0
-2.18839204473e-07
9.8240374115e-08
0
0
0
0
0
0
0
0
8.59427304147e-09
-2.18654817961e-07
-1.14426878603e-07
6.61728106528e-08
-1.47100138634e-06
-7.43276461796e-07
1.83307659996e-07
-3.99942250138e-06
-1.9603187977e-06
3.24646966769e-07
-6.96862539033e-06
-3.14000089387e-06
4.39222391524e-07
-9.49192180834e-06
-3.67149826954e-06
4.82575825257e-07
-1.09155590226e-05
-3.37522964076e-06
4.81712449441e-07
-1.12949299817e-05
-2.52783137524e-06
4.80847869617e-07
-1.13041309497e-05
-1.53194548839e-06
4.79982085743e-07
-1.13133319177e-05
-5.36059601528e-07
4.79115097919e-07
-1.13225328856e-05
4.59826285333e-07
4.78246905988e-07
-1.13317338536e-05
1.45571217219e-06
4.77377510096e-07
-1.13409348216e-05
2.45159805905e-06
4.32893565316e-07
-1.0964472275e-05
3.29856223459e-06
3.18775116805e-07
-9.52632550089e-06
3.59723804626e-06
1.79417105815e-07
-6.98790725196e-06
3.07839999288e-06
6.47174342966e-08
-4.0074403364e-06
1.92242328426e-06
8.50839472194e-09
-1.47300153882e-06
7.29398001667e-07
0
-2.18859188178e-07
1.12416435065e-07
0
0
1.26112087618e-09
-3.86537101631e-08
-2.73389664633e-08
5.03764144177e-08
-9.79564930322e-07
-5.97657677205e-07
1.97077976868e-07
-3.68815055776e-06
-2.24116382915e-06
4.22385850133e-07
-7.65672184781e-06
-4.39490468386e-06
6.67658292557e-07
-1.17652255688e-05
-6.00256880632e-06
8.54456096569e-07
-1.50128084368e-05
-6.45408779252e-06
9.22719608029e-07
-1.67610230888e-05
-5.70378609525e-06
9.2150243064e-07
-1.72162630707e-05
-4.21965300605e-06
9.20282952754e-07
-1.72328940847e-05
-2.54623739748e-06
9.19061174295e-07
-1.72495250986e-05
-8.72821788906e-07
9.17837095402e-07
-1.72661561126e-05
8.00593819676e-07
9.16610715883e-07
-1.72827871265e-05
2.47400942826e-06
9.15382035939e-07
-1.72994181404e-05
4.14742503684e-06
8.45261548002e-07
-1.68496061119e-05
5.62666245374e-06
6.58396357762e-07
-1.5076603116e-05
6.36578720831e-06
4.15258175038e-07
-1.18039527366e-05
5.91098928102e-06
1.93361894727e-07
-7.67600536504e-06
4.32114508485e-06
4.94660047091e-08
-3.69508278315e-06
2.20214931659e-06
1.25578246378e-09
-9.80845035222e-07
5.87501685824e-07
-3.86754541863e-08
2.69059857704e-08
1.28646078008e-08
-2.88776510231e-07
-1.93910881654e-07
1.27169691091e-07
-2.1026320191e-06
-1.5105096891e-06
3.68601826699e-07
-6.03663347363e-06
-4.18655571801e-06
7.03132625556e-07
-1.10809993718e-05
-6.99777746451e-06
1.0416208117e-06
-1.59277398672e-05
-8.7635256495e-06
1.28002637477e-06
-1.95037256414e-05
-8.94106635486e-06
1.36156038988e-06
-2.13023773475e-05
-7.67987288927e-06
1.3603233789e-06
-2.17465796937e-05
-5.62599538974e-06
1.35908321644e-06
-2.17664708131e-05
-3.38296759776e-06
1.35783990246e-06
-2.17863619326e-05
-1.13993980578e-06
1.35659343708e-06
-2.1806253052e-05
1.1030879862e-06
1.35534382008e-06
-2.18261441714e-05
3.34611577818e-06
1.35409105166e-06
-2.18460352909e-05
5.58914357016e-06
1.27021048651e-06
-2.14110478433e-05
7.63427007677e-06
1.03076920387e-06
-1.95863915503e-05
8.86949115232e-06
6.93918524449e-07
-1.5981488705e-05
8.66505886361e-06
3.63111469772e-07
-1.11107475757e-05
6.89783669429e-06
1.25295329096e-07
-6.04968018137e-06
4.11890686556e-06
1.27226340045e-08
-2.10609265349e-06
1.48558536352e-06
-2.89125873547e-07
1.90872871587e-07
3.52022993069e-08
-5.63740480397e-07
-4.7893684399e-07
2.06210309573e-07
-3.05731648262e-06
-2.50617374181e-06
5.24592630782e-07
-7.76777974024e-06
-5.88381014862e-06
9.40099830177e-07
-1.34388160404e-05
-9.04308009578e-06
1.33202813206e-06
-1.86048605898e-05
-1.07526462939e-05
1.57542159627e-06
-2.21051150073e-05
-1.05524223855e-05
1.64355234775e-06
-2.36264223256e-05
-8.81952516905e-06
1.64270472713e-06
-2.39319863845e-05
-6.38823502535e-06
1.64185419374e-06
-2.39446542035e-05
-3.83436395559e-06
1.64100074747e-06
-2.39573220224e-05
-1.28049288584e-06
1.64014438846e-06
-2.39699898414e-05
1.27337818391e-06
1.63928511656e-06
-2.39826576603e-05
3.82724925365e-06
1.63842293186e-06
-2.39953254793e-05
6.38112032341e-06
1.56741319657e-06
-2.37109542174e-05
8.80497973542e-06
1.32141544337e-06
-2.21855155289e-05
1.05067123259e-05
9.30192817244e-07
-1.86641778276e-05
1.06622019313e-05
5.18273633379e-07
-1.34744081098e-05
8.93065446492e-06
2.03806073486e-07
-7.78527544999e-06
5.79440244995e-06
3.48946717392e-08
-3.06289393661e-06
2.46569950737e-06
-5.64509182225e-07
4.71445559472e-07
5.20542731495e-08
-6.77769564255e-07
-6.83417212416e-07
2.53647551389e-07
-3.42494271403e-06
-3.12267941965e-06
6.10607656394e-07
-8.39882328852e-06
-6.81702950347e-06
1.06163484904e-06
-1.42683839967e-05
-1.00804433266e-05
1.46779742248e-06
-1.94968704545e-05
-1.16758750786e-05
1.69023909372e-06
-2.28445903133e-05
-1.11894979218e-05
1.73315401749e-06
-2.40923193863e-05
-9.15732272127e-06
1.73277950056e-06
-2.42625684151e-05
-6.56799311023e-06
1.73240461575e-06
-2.42661302898e-05
-3.9408448833e-06
1.73202936308e-06
-2.42696921645e-05
-1.31369665637e-06
1.73165374254e-06
-2.42732540393e-05
1.31345157056e-06
1.73127775418e-06
-2.4276815914e-05
3.94059979749e-06
1.73090139788e-06
-2.42803777888e-05
6.56774802442e-06
1.68453373532e-06
-2.41427686528e-05
9.15430097432e-06
1.45791998841e-06
-2.29150787818e-05
1.1157876876e-05
1.05174628856e-06
-1.95563376427e-05
1.1591831298e-05
6.04114023981e-07
-1.43055545627e-05
9.96297430908e-06
2.51106744354e-07
-8.41784269341e-06
6.71605951073e-06
5.16943746245e-08
-3.43137373216e-06
3.0725859654e-06
-6.78699863532e-07
6.72716174219e-07
5.69486058773e-08
-6.77769564222e-07
-7.42212986685e-07
2.65740963122e-07
-3.42494271403e-06
-3.28712692917e-06
6.30443295691e-07
-8.39882328851e-06
-7.04479868806e-06
1.08703352842e-06
-1.42683839967e-05
-1.03120308888e-05
1.49326874316e-06
-1.94968704545e-05
-1.18615559752e-05
1.70733123983e-06
-2.28445903133e-05
-1.12945688831e-05
1.74198452471e-06
-2.40923193864e-05
-9.18907153173e-06
1.74182221341e-06
-2.42625684151e-05
-6.57376231369e-06
1.74165990148e-06
-2.42661302898e-05
-3.94425738821e-06
1.74149758905e-06
-2.42696921646e-05
-1.31475246273e-06
1.74133527595e-06
-2.42732540393e-05
1.31475246274e-06
1.74117296231e-06
-2.42768159141e-05
3.94425738824e-06
1.74101064807e-06
-2.42803777888e-05
6.57376231371e-06
1.70256207007e-06
-2.41427686528e-05
9.18813200623e-06
1.48354507169e-06
-2.29150787819e-05
1.12660408176e-05
1.07701992415e-06
-1.95563376427e-05
1.17785214894e-05
6.23787290812e-07
-1.43055545627e-05
1.01929045874e-05
2.63102760428e-07
-8.41784269341e-06
6.9406735407e-06
5.65618779563e-08
-3.43137373214e-06
3.23436889924e-06
-6.7869986352e-07
7.3058142492e-07
5.69486058762e-08
-6.77769564246e-07
-7.42212986693e-07
2.65740963128e-07
-3.42494271407e-06
-3.28712692917e-06
6.3044329569e-07
-8.39882328857e-06
-7.04479868806e-06
1.08703352842e-06
-1.42683839967e-05
-1.03120308888e-05
1.49326874315e-06
-1.94968704545e-05
-1.18615559752e-05
1.70733123983e-06
-2.28445903133e-05
-1.12945688831e-05
1.74198452472e-06
-2.40923193864e-05
-9.18907153173e-06
1.7418222134e-06
-2.42625684151e-05
-6.57376231369e-06
1.74165990148e-06
-2.42661302898e-05
-3.94425738822e-06
1.74149758902e-06
-2.42696921646e-05
-1.31475246274e-06
1.74133527592e-06
-2.42732540393e-05
1.31475246274e-06
1.74117296229e-06
-2.42768159141e-05
3.94425738823e-06
1.74101064807e-06
-2.42803777888e-05
6.57376231371e-06
1.70256207008e-06
-2.41427686528e-05
9.18813200623e-06
1.48354507169e-06
-2.29150787818e-05
1.12660408176e-05
1.07701992416e-06
-1.95563376427e-05
1.17785214894e-05
6.23787290859e-07
-1.43055545627e-05
1.01929045874e-05
2.63102760425e-07
-8.41784269343e-06
6.9406735407e-06
5.65618779409e-08
-3.43137373222e-06
3.23436889924e-06
-6.78699863538e-07
7.3058142492e-07
5.69486058805e-08
-6.77769564281e-07
-7.42212986685e-07
2.65740963124e-07
-3.42494271403e-06
-3.28712692917e-06
6.3044329569e-07
-8.3988232886e-06
-7.04479868806e-06
1.08703352842e-06
-1.42683839968e-05
-1.03120308888e-05
1.49326874314e-06
-1.94968704546e-05
-1.18615559752e-05
1.70733123984e-06
-2.28445903133e-05
-1.12945688831e-05
1.74198452472e-06
-2.40923193864e-05
-9.18907153173e-06
1.74182221338e-06
-2.42625684151e-05
-6.57376231369e-06
1.74165990149e-06
-2.42661302898e-05
-3.94425738822e-06
1.74149758901e-06
-2.42696921645e-05
-1.31475246274e-06
1.74133527593e-06
-2.42732540393e-05
1.31475246274e-06
1.74117296231e-06
-2.42768159141e-05
3.94425738823e-06
1.74101064808e-06
-2.42803777888e-05
6.57376231371e-06
1.7025620701e-06
-2.41427686528e-05
9.18813200624e-06
1.48354507167e-06
-2.29150787819e-05
1.12660408176e-05
1.07701992414e-06
-1.95563376428e-05
1.17785214894e-05
6.23787290857e-07
-1.43055545627e-05
1.01929045874e-05
2.63102760375e-07
-8.41784269346e-06
6.9406735407e-06
5.65618779702e-08
-3.43137373217e-06
3.23436889924e-06
-6.78699863533e-07
7.30581424922e-07
5.69486058778e-08
-6.77769564282e-07
-7.42212986687e-07
2.65740963129e-07
-3.42494271403e-06
-3.28712692917e-06
6.30443295688e-07
-8.39882328848e-06
-7.04479868806e-06
1.08703352842e-06
-1.42683839967e-05
-1.03120308888e-05
1.49326874314e-06
-1.94968704546e-05
-1.18615559752e-05
1.70733123984e-06
-2.28445903133e-05
-1.12945688831e-05
1.7419845247e-06
-2.40923193865e-05
-9.18907153173e-06
1.74182221342e-06
-2.42625684152e-05
-6.5737623137e-06
1.74165990145e-06
-2.426613029e-05
-3.94425738822e-06
1.74149758906e-06
-2.42696921646e-05
-1.31475246274e-06
1.74133527596e-06
-2.42732540394e-05
1.31475246274e-06