/*--------------------------------*- C++ -*----------------------------------*\
| =========                 |                                                 |
| \\      /  F ield         | OpenFOAM: The Open Source CFD Toolbox           |
|  \\    /   O peration     | Version:  v1606+                                |
|   \\  /    A nd           | Web:      www.OpenFOAM.com                      |
|    \\/     M anipulation  |                                                 |
\*---------------------------------------------------------------------------*/
FoamFile
{
    version     2.0;
    format      ascii;
    class       volVectorField;
    location    "1.53";
    object      U.particles;
}
// * * * * * * * * * * * * * * * * * * * * * * * * * * * * * * * * * * * * * //

dimensions      [0 1 -1 0 0 0 0];

internalField   nonuniform List<vector> 
6000
(
(-0.00579299 -0.322539 0)
(-0.0100275 -0.350027 0)
(-0.0171174 -0.344911 0)
(-0.00895434 -0.337017 0)
(0.00483502 -0.349826 0)
(0.0222072 -0.395111 0)
(0.0316004 -0.46347 0)
(0.033655 -0.5145 0)
(0.032682 -0.531722 0)
(0.0282584 -0.542173 0)
(0.0229698 -0.533236 0)
(0.0162794 -0.51304 0)
(0.0146534 -0.517856 0)
(0.000401393 -0.528084 0)
(-0.0171076 -0.539131 0)
(-0.0396766 -0.538068 0)
(-0.0599333 -0.515889 0)
(-0.0655701 -0.509205 0)
(-0.0648187 -0.501846 0)
(-0.0656451 -0.476787 0)
(-0.0728341 -0.448665 0)
(-0.0763403 -0.40018 0)
(-0.0672383 -0.343215 0)
(-0.0476828 -0.311049 0)
(-0.0347695 -0.298773 0)
(-0.0192238 -0.289479 0)
(-0.0062044 -0.288673 0)
(0.00881069 -0.286315 0)
(0.0191619 -0.300286 0)
(0.0167044 -0.288441 0)
(0.0287516 0.110296 0)
(0.00615167 0.14876 0)
(-0.0127988 0.142961 0)
(-0.00923911 0.126224 0)
(0.00205268 0.109677 0)
(0.0246034 0.102754 0)
(0.0529386 0.0822217 0)
(0.0635277 0.0547294 0)
(0.0561048 0.037561 0)
(0.029292 0.029018 0)
(0.0173713 0.0181825 0)
(0.0146047 0.0190762 0)
(0.00475209 0.0229687 0)
(-0.0110671 0.00950287 0)
(-0.0222314 0.0147193 0)
(-0.0271033 0.0224323 0)
(-0.0344287 0.038057 0)
(-0.0575356 0.0561755 0)
(-0.110286 0.0629059 0)
(-0.13755 0.0500737 0)
(-0.137501 0.0503254 0)
(-0.125837 0.0893266 0)
(-0.100791 0.12207 0)
(-0.0766664 0.122741 0)
(-0.0671391 0.12502 0)
(-0.0473466 0.110045 0)
(-0.0284364 0.0942086 0)
(-0.00459263 0.0887272 0)
(0.00132292 0.107495 0)
(-0.0154773 0.0834809 0)
(0.0122264 -0.0342424 0)
(0.0111185 0.0187436 0)
(-0.0182141 0.00912431 0)
(-0.0300702 0.0100837 0)
(-0.0303991 0.00711971 0)
(-0.0171141 -0.0164519 0)
(0.0156768 -0.0168258 0)
(0.0573713 -0.000276599 0)
(0.0687308 0.000784914 0)
(0.0604087 -0.00235524 0)
(0.0400168 -0.015132 0)
(0.0213979 -0.0193511 0)
(-0.00355315 -0.0159675 0)
(-0.0262054 -0.0256256 0)
(-0.0349512 -0.033272 0)
(-0.0380669 -0.0327501 0)
(-0.0449312 -0.0172871 0)
(-0.0661471 0.0116738 0)
(-0.108496 0.0333702 0)
(-0.140233 0.0264816 0)
(-0.144519 0.0105128 0)
(-0.121341 -0.00376712 0)
(-0.0913464 -0.00765799 0)
(-0.0791017 0.000953261 0)
(-0.0773124 -0.013902 0)
(-0.0647282 -0.0529141 0)
(-0.046494 -0.0807965 0)
(-0.0250671 -0.0959772 0)
(-0.0138085 -0.0847492 0)
(-0.0111919 -0.0796765 0)
(-0.0150733 -0.0822975 0)
(0.0251057 -0.064671 0)
(0.027986 -0.0595476 0)
(0.0139833 -0.0310536 0)
(-0.00626147 0.0204325 0)
(-0.0116824 0.0463173 0)
(-0.0015399 0.0447727 0)
(0.0466717 0.0424425 0)
(0.0555175 0.0513206 0)
(0.0585119 0.0328515 0)
(0.0402294 0.014625 0)
(0.0160495 0.01117 0)
(-0.0142734 0.0135915 0)
(-0.0365246 0.00134726 0)
(-0.0431474 -0.00207142 0)
(-0.0452334 0.00141546 0)
(-0.0485675 0.0178425 0)
(-0.0664429 0.0420417 0)
(-0.100862 0.0647656 0)
(-0.127875 0.062583 0)
(-0.136218 0.0631196 0)
(-0.13415 0.0444473 0)
(-0.104817 0.00201627 0)
(-0.124717 -0.033287 0)
(-0.117422 -0.0815838 0)
(-0.114016 -0.130605 0)
(-0.0924151 -0.160187 0)
(-0.0672262 -0.168383 0)
(-0.0388199 -0.145425 0)
(-0.0041515 -0.132204 0)
(-0.0326828 -0.131145 0)
(0.0292453 -0.142991 0)
(0.0571385 -0.141991 0)
(0.0798328 -0.129108 0)
(0.061336 -0.084746 0)
(0.0288156 -0.0130526 0)
(0.0104979 0.0365343 0)
(0.0457586 0.0532005 0)
(0.0746431 0.0873452 0)
(0.0573817 0.106858 0)
(0.0352057 0.0780151 0)
(-0.000393322 0.062694 0)
(-0.032039 0.0572304 0)
(-0.0481527 0.0406508 0)
(-0.05055 0.0355135 0)
(-0.0478232 0.0405198 0)
(-0.0453913 0.0632344 0)
(-0.0460338 0.0964236 0)
(-0.0627223 0.131564 0)
(-0.0898927 0.148544 0)
(-0.108021 0.137854 0)
(-0.11298 0.0862417 0)
(-0.12916 -0.043225 0)
(-0.185778 -0.0983262 0)
(-0.157827 -0.161707 0)
(-0.144969 -0.186768 0)
(-0.114432 -0.20268 0)
(-0.0817403 -0.198754 0)
(-0.0467805 -0.169313 0)
(0.00693338 -0.145462 0)
(-0.0067219 -0.117475 0)
(0.0398011 -0.150904 0)
(0.0742923 -0.154338 0)
(0.117852 -0.161244 0)
(0.136091 -0.148442 0)
(0.122806 -0.097122 0)
(0.0650476 -0.0109791 0)
(0.0836837 0.0576372 0)
(0.101584 0.109969 0)
(0.10854 0.148383 0)
(0.0882673 0.1636 0)
(0.0242141 0.157939 0)
(-0.0248813 0.147559 0)
(-0.0376386 0.110486 0)
(-0.039245 0.0911973 0)
(-0.037131 0.0942496 0)
(-0.0307109 0.112806 0)
(-0.0166574 0.139924 0)
(-0.0095712 0.187032 0)
(-0.0268226 0.200388 0)
(-0.0436062 0.18691 0)
(-0.056743 0.140978 0)
(-0.105964 0.0403454 0)
(-0.228913 -0.0961866 0)
(-0.207341 -0.172291 0)
(-0.176418 -0.191634 0)
(-0.137533 -0.201673 0)
(-0.0984556 -0.192922 0)
(-0.0566441 -0.154529 0)
(0.00329037 -0.122669 0)
(0.0201739 -0.101276 0)
(0.048563 -0.131596 0)
(0.0901923 -0.141896 0)
(0.13796 -0.151418 0)
(0.175714 -0.153544 0)
(0.200178 -0.138752 0)
(0.111987 -0.0387028 0)
(0.0855312 0.0691319 0)
(0.0948573 0.125342 0)
(0.0916183 0.174835 0)
(0.081912 0.205812 0)
(0.0615722 0.215933 0)
(0.0339468 0.208551 0)
(0.0153695 0.194123 0)
(-0.00416936 0.166636 0)
(-0.00990891 0.152028 0)
(-0.00125542 0.150837 0)
(0.0238139 0.171993 0)
(0.00982974 0.223541 0)
(0.00329531 0.224877 0)
(-0.00910989 0.208857 0)
(-0.0329237 0.167213 0)
(-0.0580445 0.0973405 0)
(-0.162672 -0.0313266 0)
(-0.237529 -0.149627 0)
(-0.198915 -0.187083 0)
(-0.155864 -0.195009 0)
(-0.117239 -0.190689 0)
(-0.0647572 -0.149164 0)
(-0.00160995 -0.107731 0)
(0.0163201 -0.0702392 0)
(0.0531706 -0.105725 0)
(0.0961901 -0.127218 0)
(0.151736 -0.135515 0)
(0.204163 -0.137177 0)
(0.251737 -0.113017 0)
(0.0803251 0.000790268 0)
(0.0551112 0.0931221 0)
(0.0600906 0.146006 0)
(0.0547808 0.192779 0)
(0.0519008 0.225895 0)
(0.0479873 0.246566 0)
(0.0403477 0.253667 0)
(0.0255447 0.243142 0)
(0.0183566 0.225688 0)
(0.018639 0.211348 0)
(0.0250551 0.201647 0)
(0.0306304 0.218745 0)
(0.0331911 0.237152 0)
(0.0337006 0.240508 0)
(0.0229432 0.231775 0)
(-0.000216906 0.191105 0)
(-0.0306577 0.121144 0)
(-0.189212 0.00352713 0)
(-0.247277 -0.138587 0)
(-0.207534 -0.188243 0)
(-0.17018 -0.197666 0)
(-0.129053 -0.188428 0)
(-0.0742736 -0.142021 0)
(-0.0033188 -0.0919368 0)
(0.0199482 -0.0434154 0)
(0.0560441 -0.0742643 0)
(0.0968506 -0.110425 0)
(0.158977 -0.124489 0)
(0.233343 -0.11467 0)
(0.279406 -0.0684658 0)
(0.111101 0.0337492 0)
(0.0347767 0.113889 0)
(0.0280825 0.161757 0)
(0.0192443 0.206678 0)
(0.0160851 0.238469 0)
(0.0161701 0.257823 0)
(0.0191646 0.268282 0)
(0.0220754 0.269268 0)
(0.0258971 0.255259 0)
(0.0287223 0.239373 0)
(0.0307972 0.22956 0)
(0.0356477 0.234489 0)
(0.04086 0.244728 0)
(0.047796 0.248128 0)
(0.0532257 0.248498 0)
(0.0518229 0.219094 0)
(-0.0149775 0.126864 0)
(-0.178797 -0.0767327 0)
(-0.187716 -0.158121 0)
(-0.164134 -0.209814 0)
(-0.147941 -0.222789 0)
(-0.125026 -0.203466 0)
(-0.0863893 -0.143794 0)
(0.000110272 -0.0826904 0)
(0.0219203 -0.0361719 0)
(0.0615898 -0.0579421 0)
(0.0942087 -0.108365 0)
(0.173461 -0.138307 0)
(0.249896 -0.106811 0)
(0.28872 -0.0392096 0)
(0.160286 0.0453217 0)
(0.00590708 0.12151 0)
(-0.0154352 0.17308 0)
(-0.0236092 0.217043 0)
(-0.0212719 0.244162 0)
(-0.0137404 0.257355 0)
(-0.00186254 0.264279 0)
(0.0109196 0.261869 0)
(0.0217239 0.254135 0)
(0.0309735 0.25088 0)
(0.0324819 0.244215 0)
(0.031126 0.243905 0)
(0.0349778 0.248866 0)
(0.0439651 0.252622 0)
(0.0558263 0.251584 0)
(0.0641808 0.20124 0)
(-0.035282 0.0100399 0)
(-0.0204896 -0.169894 0)
(-0.0129623 -0.236667 0)
(-0.044182 -0.252598 0)
(-0.0494135 -0.249466 0)
(-0.0659502 -0.241752 0)
(-0.0824171 -0.175865 0)
(0.00365159 -0.0866009 0)
(0.0186701 -0.0821349 0)
(0.0708369 -0.109631 0)
(0.0980961 -0.184756 0)
(0.176998 -0.213354 0)
(0.216348 -0.155563 0)
(0.219623 -0.0884585 0)
(0.126004 0.0155242 0)
(-0.0649328 0.132433 0)
(-0.0912661 0.18231 0)
(-0.0832229 0.226581 0)
(-0.0647093 0.240159 0)
(-0.0469224 0.242986 0)
(-0.0226635 0.252796 0)
(0.000386017 0.254494 0)
(0.010351 0.250536 0)
(0.021135 0.249313 0)
(0.0276076 0.229439 0)
(0.0175254 0.236123 0)
(0.0117525 0.242745 0)
(0.0223529 0.223188 0)
(0.015908 0.0793259 0)
(-0.0184237 -0.0480801 0)
(-0.01752 -0.123021 0)
(0.0497486 -0.204428 0)
(0.0587996 -0.313516 0)
(0.0239855 -0.304998 0)
(0.0181358 -0.265821 0)
(0.0128159 -0.260615 0)
(-0.0471009 -0.215376 0)
(-0.015096 -0.104344 0)
(-0.00599547 -0.160291 0)
(0.064114 -0.222743 0)
(0.103062 -0.285301 0)
(0.11294 -0.312965 0)
(0.0904757 -0.254548 0)
(-0.0269197 -0.0927345 0)
(-0.125838 0.0527544 0)
(-0.207161 0.0521448 0)
(-0.210923 0.097083 0)
(-0.15898 0.183738 0)
(-0.117347 0.211467 0)
(-0.100227 0.214627 0)
(-0.0759796 0.213126 0)
(-0.0387831 0.160694 0)
(-0.0271299 0.0578916 0)
(-0.0279935 -0.10149 0)
(-0.016257 -0.150397 0)
(-0.00784615 -0.107843 0)
(-0.00775551 -0.0556546 0)
(-0.0140367 -0.113741 0)
(-0.0319773 -0.185089 0)
(-0.0303257 -0.184709 0)
(0.00393181 -0.173655 0)
(0.0918639 -0.215649 0)
(0.0927839 -0.319561 0)
(0.0438624 -0.318231 0)
(0.03438 -0.275941 0)
(0.0389815 -0.254238 0)
(-0.00876294 -0.2228 0)
(-0.0324694 -0.121256 0)
(-0.0190223 -0.202098 0)
(0.0412474 -0.277727 0)
(0.0633133 -0.334296 0)
(0.0178147 -0.332123 0)
(-0.127815 -0.125895 0)
(-0.20886 0.017792 0)
(-0.257936 0.033231 0)
(-0.326758 -0.0757239 0)
(-0.321697 -0.190539 0)
(-0.292847 -0.200144 0)
(-0.246969 -0.125074 0)
(-0.207973 -0.0890109 0)
(-0.191556 -0.212981 0)
(-0.160661 -0.286138 0)
(-0.128868 -0.311736 0)
(-0.0969798 -0.309107 0)
(-0.0622303 -0.303987 0)
(-0.0380089 -0.29187 0)
(-0.0260989 -0.26878 0)
(-0.0221244 -0.240804 0)
(-0.0151653 -0.207912 0)
(0.00106053 -0.182143 0)
(0.0347725 -0.171666 0)
(0.127741 -0.23014 0)
(0.105472 -0.291239 0)
(0.0576472 -0.269532 0)
(0.0293467 -0.235967 0)
(0.0190792 -0.221316 0)
(0.0188147 -0.222449 0)
(-0.0178337 -0.183006 0)
(-0.02468 -0.211148 0)
(0.0209461 -0.286442 0)
(-0.00014197 -0.31432 0)
(-0.0398777 -0.25048 0)
(-0.187534 -0.0311727 0)
(-0.260905 0.039075 0)
(-0.291062 0.0323293 0)
(-0.327895 -0.0588243 0)
(-0.295176 -0.178702 0)
(-0.274769 -0.237216 0)
(-0.258315 -0.260356 0)
(-0.234842 -0.28327 0)
(-0.218855 -0.292419 0)
(-0.184153 -0.29131 0)
(-0.153704 -0.286628 0)
(-0.12041 -0.278066 0)
(-0.0845476 -0.271301 0)
(-0.0562812 -0.255318 0)
(-0.0295206 -0.231923 0)
(-0.0103662 -0.201453 0)
(0.00415499 -0.176417 0)
(0.0271293 -0.157782 0)
(0.0599189 -0.172582 0)
(0.150411 -0.224295 0)
(0.114362 -0.256275 0)
(0.058788 -0.220576 0)
(0.0245659 -0.200417 0)
(0.0152761 -0.203523 0)
(0.00905533 -0.197893 0)
(0.0297823 -0.182916 0)
(-0.0148675 -0.190488 0)
(0.00945221 -0.243353 0)
(-0.0167707 -0.266309 0)
(-0.0344174 -0.199681 0)
(-0.238027 0.0104913 0)
(-0.26293 0.0644805 0)
(-0.292898 0.0483583 0)
(-0.300409 -0.0462203 0)
(-0.248509 -0.147403 0)
(-0.237843 -0.210298 0)
(-0.22269 -0.235317 0)
(-0.209157 -0.248302 0)
(-0.204295 -0.255447 0)
(-0.183738 -0.248025 0)
(-0.165642 -0.235383 0)
(-0.134629 -0.230131 0)
(-0.09947 -0.223106 0)
(-0.0697047 -0.205261 0)
(-0.0296105 -0.175381 0)
(-0.00383653 -0.151952 0)
(0.0165044 -0.140601 0)
(0.0390246 -0.139389 0)
(0.109519 -0.169925 0)
(0.158495 -0.208619 0)
(0.140902 -0.184247 0)
(0.0866112 -0.156543 0)
(0.0500726 -0.147212 0)
(0.0321157 -0.148237 0)
(0.0243649 -0.147157 0)
(0.0219359 -0.13373 0)
(-0.0151943 -0.166426 0)
(0.00192229 -0.208897 0)
(-0.0353914 -0.237881 0)
(-0.00677357 -0.179981 0)
(-0.210836 0.0389268 0)
(-0.252892 0.10434 0)
(-0.279778 0.0854194 0)
(-0.267631 -0.000168042 0)
(-0.212249 -0.0822956 0)
(-0.192952 -0.171427 0)
(-0.183604 -0.206574 0)
(-0.178446 -0.214045 0)
(-0.179567 -0.213739 0)
(-0.174799 -0.199678 0)
(-0.168817 -0.175255 0)
(-0.146495 -0.166365 0)
(-0.11647 -0.167311 0)
(-0.084322 -0.161619 0)
(-0.0500484 -0.129744 0)
(-0.0101383 -0.119315 0)
(0.0291374 -0.11343 0)
(0.0512932 -0.126517 0)
(0.151916 -0.154871 0)
(0.132895 -0.158924 0)
(0.0973827 -0.116768 0)
(0.0829118 -0.095898 0)
(0.0512665 -0.0914242 0)
(0.0325001 -0.0933718 0)
(0.0192586 -0.0919038 0)
(0.0183871 -0.0772254 0)
(-0.0199422 -0.133573 0)
(-0.000602579 -0.175032 0)
(-0.00678047 -0.201057 0)
(0.00314281 -0.176589 0)
(-0.0653552 -0.0243293 0)
(-0.230162 0.140117 0)
(-0.25032 0.135451 0)
(-0.225331 0.0633336 0)
(-0.165604 0.00748612 0)
(-0.141857 -0.0944384 0)
(-0.141236 -0.154346 0)
(-0.140534 -0.17192 0)
(-0.14693 -0.171317 0)
(-0.154138 -0.146736 0)
(-0.159263 -0.117218 0)
(-0.156223 -0.114329 0)
(-0.15173 -0.127339 0)
(-0.12376 -0.134244 0)
(-0.0773591 -0.114682 0)
(-0.0143469 -0.10473 0)
(0.0395871 -0.0880274 0)
(0.0676884 -0.103395 0)
(0.154982 -0.102391 0)
(0.116441 -0.0781719 0)
(0.0974055 -0.0477658 0)
(0.0724293 -0.0335806 0)
(0.0458932 -0.0308276 0)
(0.0277811 -0.0335687 0)
(0.01251 -0.0369608 0)
(0.00761341 -0.0305127 0)
(-0.0251232 -0.0962281 0)
(-0.00472948 -0.143993 0)
(-0.00339873 -0.164263 0)
(-0.000301964 -0.121379 0)
(-0.0414814 0.0163762 0)
(-0.204217 0.2153 0)
(-0.227929 0.211433 0)
(-0.1955 0.15076 0)
(-0.132947 0.103512 0)
(-0.0830265 0.0101606 0)
(-0.0897663 -0.0799197 0)
(-0.102426 -0.111928 0)
(-0.116753 -0.114932 0)
(-0.140764 -0.0860458 0)
(-0.163203 -0.0591841 0)
(-0.167367 -0.0596312 0)
(-0.158703 -0.0727634 0)
(-0.138586 -0.0876097 0)
(-0.103243 -0.0946121 0)
(-0.0519044 -0.0780061 0)
(0.0202153 -0.0438682 0)
(0.0904025 -0.0434831 0)
(0.111005 -0.0163733 0)
(0.0916145 -0.0149356 0)
(0.0721759 0.00105712 0)
(0.0541791 0.0034562 0)
(0.039357 0.0014223 0)
(0.0259267 -0.00289306 0)
(0.0115941 -0.0078398 0)
(0.00209604 -0.00802393 0)
(-0.0209451 -0.0561078 0)
(-0.00827145 -0.104777 0)
(-0.00516494 -0.117129 0)
(-0.0110267 -0.0769606 0)
(0.0296875 0.0317856 0)
(-0.142407 0.325531 0)
(-0.168247 0.366034 0)
(-0.16126 0.313341 0)
(-0.11798 0.225482 0)
(-0.0324491 0.112039 0)
(-0.0494333 0.0105684 0)
(-0.069516 -0.0234981 0)
(-0.100844 -0.0319579 0)
(-0.142851 -0.0185021 0)
(-0.156663 -0.0131045 0)
(-0.15996 -0.0273661 0)
(-0.154782 -0.0429913 0)
(-0.141636 -0.0547094 0)
(-0.115815 -0.0524905 0)
(-0.0687365 -0.0257812 0)
(-0.0174644 0.0157958 0)
(0.084979 0.0320126 0)
(0.0899058 0.00972378 0)
(0.0775984 0.0193194 0)
(0.0630035 0.0244443 0)
(0.0516474 0.0240595 0)
(0.0396442 0.020045 0)
(0.0269868 0.0145973 0)
(0.0139779 0.0080339 0)
(0.00287871 0.00193657 0)
(-0.00655423 -0.0343402 0)
(-0.00361656 -0.0709075 0)
(-0.00196388 -0.073506 0)
(-0.00894001 -0.034485 0)
(0.0174455 0.0548337 0)
(-0.059675 0.307353 0)
(-0.0758916 0.49527 0)
(-0.0610248 0.512914 0)
(-0.0393898 0.425029 0)
(-0.00695039 0.185161 0)
(-0.0355284 0.0901597 0)
(-0.0591918 0.0757326 0)
(-0.0876413 0.0605813 0)
(-0.118867 0.0431919 0)
(-0.133089 0.0191982 0)
(-0.138369 -0.00526553 0)
(-0.138425 -0.0270849 0)
(-0.132071 -0.0424592 0)
(-0.116798 -0.0413932 0)
(-0.0879877 0.00104497 0)
(-0.0262394 0.0584692 0)
(0.0752775 0.0144024 0)
(0.0804005 0.0162743 0)
(0.0729965 0.0309222 0)
(0.0652641 0.0387216 0)
(0.0549426 0.0399359 0)
(0.0429879 0.0354521 0)
(0.0285774 0.0285071 0)
(0.014983 0.0196551 0)
(0.00403962 0.00877901 0)
(-0.00256518 -0.0322853 0)
(-0.0034403 -0.0594145 0)
(-0.0142504 -0.059136 0)
(-0.0397207 -0.0101478 0)
(-0.0474309 0.0880384 0)
(-0.0551228 0.262721 0)
(-0.0310823 0.490292 0)
(0.0272134 0.551347 0)
(0.109475 0.533265 0)
(0.0677009 0.312291 0)
(-0.0175901 0.163156 0)
(-0.0389994 0.117238 0)
(-0.0664561 0.0880604 0)
(-0.0870844 0.0629652 0)
(-0.102037 0.0357436 0)
(-0.112282 0.00918111 0)
(-0.117373 -0.015623 0)
(-0.114734 -0.0350136 0)
(-0.104845 -0.0429858 0)
(-0.0856829 -0.0188542 0)
(1.25185e-05 0.0156957 0)
(0.0556301 -0.0213546 0)
(0.0602276 0.0110415 0)
(0.0611335 0.0324772 0)
(0.0568498 0.0429928 0)
(0.0540598 0.0535487 0)
(0.0444827 0.0522642 0)
(0.025946 0.0435181 0)
(0.0142446 0.0303135 0)
(0.00822861 0.0160621 0)
(0.00467401 -0.0470295 0)
(0.0159456 -0.0585431 0)
(-0.0113319 -0.0609488 0)
(-0.0947779 -0.015035 0)
(-0.150831 0.0560502 0)
(-0.0856879 0.0704407 0)
(-0.0103626 0.251213 0)
(0.071765 0.372627 0)
(0.187919 0.446148 0)
(0.235747 0.307709 0)
(0.0943979 0.189426 0)
(0.015765 0.137566 0)
(-0.0357035 0.104821 0)
(-0.0621046 0.0792672 0)
(-0.0800207 0.0491687 0)
(-0.0932549 0.0199973 0)
(-0.100652 -0.00803473 0)
(-0.100851 -0.0302554 0)
(-0.0935395 -0.0450771 0)
(-0.0727243 -0.0435099 0)
(-0.00151012 -0.0442423 0)
(0.0247674 -0.0255032 0)
(0.0296756 0.0114139 0)
(0.0312771 0.0325945 0)
(0.02251 0.0464005 0)
(0.029506 0.0672607 0)
(0.0328743 0.0349286 0)
(0.0037832 0.00991904 0)
(0.0045004 0.00954823 0)
(0.0220275 0.00141654 0)
(0.0241999 -0.0909942 0)
(0.040481 -0.138797 0)
(0.0128112 -0.32985 0)
(0.00451485 -0.469277 0)
(0.00171874 -0.440535 0)
(0.00416538 -0.360259 0)
(0.0415219 -0.227247 0)
(0.111004 -0.122596 0)
(0.218321 0.00614018 0)
(0.276403 -0.0253017 0)
(0.283897 -0.127144 0)
(0.125489 0.0601348 0)
(-0.0123965 0.1515 0)
(-0.0330313 0.101082 0)
(-0.055192 0.0593552 0)
(-0.0727316 0.0273093 0)
(-0.0865925 -0.00589302 0)
(-0.092438 -0.0309063 0)
(-0.0884805 -0.0488155 0)
(-0.0696672 -0.0578584 0)
(-0.0292715 -0.0622464 0)
(-0.0264176 -0.0793686 0)
(-0.0496917 -0.0796022 0)
(-0.0550306 -0.10944 0)
(-0.0705562 -0.206285 0)
(-0.109057 -0.483713 0)
(-0.094754 -0.542175 0)
(-0.0691679 -0.55514 0)
(-0.038395 -0.529531 0)
(-0.00923509 -0.516445 0)
(0.0353334 -0.428028 0)
(0.0115768 -0.566013 0)
(0.017649 -0.545267 0)
(0.0340394 -0.528959 0)
(0.0512386 -0.51098 0)
(0.0697135 -0.475025 0)
(0.103741 -0.42013 0)
(0.15013 -0.360864 0)
(0.205973 -0.313142 0)
(0.24689 -0.314202 0)
(0.293187 -0.333078 0)
(0.337909 -0.297744 0)
(0.293478 -0.195009 0)
(0.0746126 0.0827594 0)
(-0.0107426 0.079622 0)
(-0.0439286 0.0315423 0)
(-0.0736431 -0.00997903 0)
(-0.0903691 -0.0366842 0)
(-0.0919513 -0.0564633 0)
(-0.0755656 -0.0730749 0)
(-0.0464511 -0.146327 0)
(-0.156033 -0.431047 0)
(-0.16962 -0.476705 0)
(-0.164012 -0.505038 0)
(-0.15458 -0.523482 0)
(-0.138323 -0.540403 0)
(-0.114545 -0.556426 0)
(-0.0855132 -0.567821 0)
(-0.0542647 -0.566562 0)
(-0.0135515 -0.545137 0)
(-0.0088985 -0.583781 0)
(0.00939791 -0.564423 0)
(0.0191506 -0.529094 0)
(0.0485586 -0.511852 0)
(0.0729217 -0.506563 0)
(0.0988202 -0.485925 0)
(0.125191 -0.453607 0)
(0.168693 -0.421199 0)
(0.211922 -0.386709 0)
(0.244712 -0.367668 0)
(0.293194 -0.367369 0)
(0.348278 -0.361226 0)
(0.398106 -0.33692 0)
(0.40367 -0.272195 0)
(0.257469 -0.0965274 0)
(0.0252357 0.0433504 0)
(-0.0786462 -0.0108498 0)
(-0.0989844 -0.0431749 0)
(-0.104242 -0.0669871 0)
(-0.103612 -0.112049 0)
(-0.186565 -0.398591 0)
(-0.196417 -0.445462 0)
(-0.185207 -0.460191 0)
(-0.16999 -0.474974 0)
(-0.154755 -0.493162 0)
(-0.137085 -0.508667 0)
(-0.115732 -0.523638 0)
(-0.0889658 -0.539886 0)
(-0.0591732 -0.548972 0)
(-0.0158812 -0.522193 0)
(-0.00394373 -0.555443 0)
(0.0143083 -0.547178 0)
(0.0279245 -0.510225 0)
(0.0549199 -0.496028 0)
(0.0815801 -0.483178 0)
(0.110832 -0.472676 0)
(0.136659 -0.453048 0)
(0.172385 -0.430932 0)
(0.215221 -0.396525 0)
(0.251631 -0.373303 0)
(0.296418 -0.371075 0)
(0.341786 -0.364625 0)
(0.37135 -0.342683 0)
(0.406277 -0.300775 0)
(0.394836 -0.235641 0)
(0.262458 -0.0771206 0)
(-0.0689014 -0.0728135 0)
(-0.131068 -0.0684331 0)
(-0.150195 -0.132259 0)
(-0.239216 -0.373536 0)
(-0.228899 -0.420186 0)
(-0.19416 -0.416162 0)
(-0.176608 -0.431446 0)
(-0.16157 -0.444242 0)
(-0.14571 -0.455754 0)
(-0.129634 -0.466977 0)
(-0.111961 -0.480298 0)
(-0.0876161 -0.494686 0)
(-0.0587291 -0.500285 0)
(-0.0138283 -0.487931 0)
(-0.00529678 -0.52495 0)
(-0.00333062 -0.509152 0)
(0.0287386 -0.487969 0)
(0.0603648 -0.479157 0)
(0.0911642 -0.471483 0)
(0.118527 -0.462722 0)
(0.141638 -0.438888 0)
(0.174434 -0.419915 0)
(0.210479 -0.385154 0)
(0.257519 -0.357891 0)
(0.302367 -0.35802 0)
(0.331519 -0.357578 0)
(0.338991 -0.338278 0)
(0.35604 -0.289299 0)
(0.347002 -0.207852 0)
(0.264882 -0.0382179 0)
(0.00255269 -0.0655877 0)
(-0.174996 -0.301258 0)
(-0.242881 -0.365431 0)
(-0.256505 -0.382358 0)
(-0.229303 -0.393402 0)
(-0.188006 -0.388623 0)
(-0.166177 -0.401129 0)
(-0.147392 -0.411435 0)
(-0.128984 -0.422984 0)
(-0.112699 -0.436898 0)
(-0.0976543 -0.450798 0)
(-0.0850564 -0.463524 0)
(-0.0618377 -0.469598 0)
(-0.0139214 -0.450393 0)
(-0.0137669 -0.493143 0)
(0.00511549 -0.483059 0)
(0.026872 -0.473963 0)
(0.0629656 -0.458854 0)
(0.0994644 -0.458785 0)
(0.123401 -0.446171 0)
(0.154442 -0.420423 0)
(0.177857 -0.40013 0)
(0.196287 -0.365928 0)
(0.24862 -0.336498 0)
(0.307569 -0.328886 0)
(0.325192 -0.322569 0)
(0.317924 -0.309224 0)
(0.300696 -0.262498 0)
(0.276523 -0.152825 0)
(0.225048 0.0232522 0)
(0.0675642 0.042289 0)
(-0.0887857 -0.206983 0)
(-0.18375 -0.331103 0)
(-0.230496 -0.353368 0)
(-0.219325 -0.36538 0)
(-0.177269 -0.36633 0)
(-0.149954 -0.377822 0)
(-0.130043 -0.391895 0)
(-0.10935 -0.405547 0)
(-0.0909363 -0.41882 0)
(-0.0774001 -0.430638 0)
(-0.0652666 -0.443481 0)
(-0.0555491 -0.453874 0)
(-0.0179922 -0.436869 0)
(-0.00838681 -0.454874 0)
(0.00757061 -0.458194 0)
(0.0298818 -0.446899 0)
(0.065789 -0.438907 0)
(0.0946308 -0.425167 0)
(0.128406 -0.414449 0)
(0.158902 -0.400571 0)
(0.184954 -0.378373 0)
(0.196019 -0.343109 0)
(0.241848 -0.314276 0)
(0.29946 -0.309582 0)
(0.308337 -0.309243 0)
(0.27329 -0.297679 0)
(0.225971 -0.228124 0)
(0.201611 -0.0918314 0)
(0.179412 0.0964315 0)
(0.100573 0.13835 0)
(0.0405233 -0.0391708 0)
(-0.11139 -0.273603 0)
(-0.195549 -0.320517 0)
(-0.202745 -0.334271 0)
(-0.169421 -0.341029 0)
(-0.136292 -0.355091 0)
(-0.113567 -0.370803 0)
(-0.0901554 -0.389158 0)
(-0.0683413 -0.408647 0)
(-0.0505422 -0.428368 0)
(-0.0418777 -0.44358 0)
(-0.043211 -0.448265 0)
(-0.0169153 -0.432707 0)
(-0.0110558 -0.426554 0)
(0.00122092 -0.425276 0)
(0.0262184 -0.414088 0)
(0.059485 -0.410812 0)
(0.0954689 -0.404422 0)
(0.127478 -0.390152 0)
(0.147068 -0.366468 0)
(0.177196 -0.34492 0)
(0.199754 -0.314065 0)
(0.244861 -0.282592 0)
(0.291425 -0.279219 0)
(0.282348 -0.28543 0)
(0.210196 -0.275286 0)
(0.150158 -0.188682 0)
(0.145214 -0.0339165 0)
(0.156251 0.14567 0)
(0.126822 0.198104 0)
(0.117697 0.101404 0)
(-0.00942199 -0.177706 0)
(-0.138261 -0.278512 0)
(-0.178018 -0.300903 0)
(-0.159818 -0.313566 0)
(-0.12474 -0.331862 0)
(-0.0997091 -0.354145 0)
(-0.074587 -0.378494 0)
(-0.050754 -0.403976 0)
(-0.0290428 -0.429162 0)
(-0.0135872 -0.451666 0)
(-0.0243295 -0.46094 0)
(-0.0147754 -0.43908 0)
(-0.0111364 -0.390152 0)
(0.00731235 -0.402438 0)
(0.0271469 -0.395254 0)
(0.0583103 -0.382017 0)
(0.0887247 -0.369494 0)
(0.118251 -0.355165 0)
(0.148159 -0.335559 0)
(0.168359 -0.311103 0)
(0.191752 -0.276733 0)
(0.234268 -0.249569 0)
(0.266301 -0.252512 0)
(0.223907 -0.271215 0)
(0.111803 -0.256253 0)
(0.0903814 -0.176681 0)
(0.118363 -0.0318544 0)
(0.150317 0.14142 0)
(0.159497 0.228692 0)
(0.163033 0.194815 0)
(0.13115 0.00255207 0)
(-0.0614617 -0.2237 0)
(-0.144415 -0.265817 0)
(-0.145295 -0.283382 0)
(-0.115085 -0.304216 0)
(-0.0872915 -0.332749 0)
(-0.0613628 -0.363407 0)
(-0.036102 -0.394959 0)
(-0.01268 -0.425083 0)
(0.00843173 -0.456693 0)
(-0.00872368 -0.477008 0)
(-0.00749239 -0.459061 0)
(-0.00988763 -0.362828 0)
(0.00687508 -0.377381 0)
(0.0251808 -0.369369 0)
(0.0563589 -0.360689 0)
(0.0877138 -0.347216 0)
(0.115747 -0.327308 0)
(0.138467 -0.301867 0)
(0.158804 -0.27552 0)
(0.18469 -0.240785 0)
(0.219282 -0.211282 0)
(0.234196 -0.218617 0)
(0.150623 -0.253289 0)
(0.0448229 -0.256816 0)
(0.0607197 -0.201736 0)
(0.116853 -0.107392 0)
(0.156639 0.0418073 0)
(0.199496 0.207139 0)
(0.21878 0.225785 0)
(0.224574 0.14812 0)
(0.0841443 -0.109498 0)
(-0.0830887 -0.218697 0)
(-0.11749 -0.253261 0)
(-0.104379 -0.27603 0)
(-0.0763688 -0.309559 0)
(-0.0498525 -0.345577 0)
(-0.0242363 -0.381427 0)
(0.000513057 -0.413812 0)
(0.0221913 -0.446838 0)
(0.0116609 -0.474035 0)
(0.00772128 -0.462925 0)
(-0.00929324 -0.335168 0)
(0.0100997 -0.358928 0)
(0.0285741 -0.352215 0)
(0.0575216 -0.336531 0)
(0.0855199 -0.316903 0)
(0.109934 -0.293168 0)
(0.129854 -0.265215 0)
(0.146145 -0.23568 0)
(0.165531 -0.206239 0)
(0.191082 -0.1721 0)
(0.197686 -0.187066 0)
(0.115114 -0.240953 0)
(0.0135839 -0.263572 0)
(0.0628789 -0.218629 0)
(0.123772 -0.13527 0)
(0.172431 -0.0717153 0)
(0.213081 0.100676 0)
(0.270615 0.223034 0)
(0.277648 0.215572 0)
(0.2333 0.0941167 0)
(0.00805247 -0.147681 0)
(-0.0789629 -0.221794 0)
(-0.0839112 -0.251848 0)
(-0.0642041 -0.286723 0)
(-0.038084 -0.325257 0)
(-0.014911 -0.363576 0)
(0.00989477 -0.399277 0)
(0.031062 -0.431368 0)
(0.0305661 -0.461094 0)
(0.0331613 -0.45211 0)
(-0.00787423 -0.312343 0)
(0.0134733 -0.341466 0)
(0.0313949 -0.333042 0)
(0.0599903 -0.315309 0)
(0.0860769 -0.291949 0)
(0.105301 -0.264937 0)
(0.118255 -0.237058 0)
(0.126827 -0.206825 0)
(0.135987 -0.179907 0)
(0.151957 -0.161268 0)
(0.159338 -0.168885 0)
(0.109256 -0.195439 0)
(-0.00421571 -0.24418 0)
(0.0677912 -0.221599 0)
(0.12133 -0.150355 0)
(0.203729 -0.0989249 0)
(0.239191 -0.0370754 0)
(0.287928 0.145744 0)
(0.32216 0.224627 0)
(0.314712 0.184017 0)
(0.157469 -0.0219354 0)
(-0.00366249 -0.160986 0)
(-0.0407077 -0.22198 0)
(-0.043174 -0.264353 0)
(-0.0246463 -0.305043 0)
(-0.00839272 -0.345208 0)
(0.0139397 -0.384538 0)
(0.0353503 -0.414995 0)
(0.0392506 -0.440285 0)
(0.0512017 -0.423412 0)
(-0.00583454 -0.293618 0)
(0.0160938 -0.326201 0)
(0.0371097 -0.317459 0)
(0.0643688 -0.298073 0)
(0.0861243 -0.276143 0)
(0.0950684 -0.244809 0)
(0.0972603 -0.215385 0)
(0.0992599 -0.189038 0)
(0.102613 -0.16628 0)
(0.105569 -0.150389 0)
(0.106012 -0.157403 0)
(0.0922112 -0.176013 0)
(-0.00658114 -0.223 0)
(0.0668345 -0.222514 0)
(0.123429 -0.159797 0)
(0.216932 -0.100385 0)
(0.256301 -0.0532222 0)
(0.297482 0.0660232 0)
(0.347446 0.207746 0)
(0.348555 0.210417 0)
(0.302726 0.126299 0)
(0.103025 -0.0737478 0)
(0.0182382 -0.173344 0)
(-0.00784579 -0.23863 0)
(-0.00796 -0.285349 0)
(-0.0027208 -0.326094 0)
(0.0136873 -0.367681 0)
(0.035073 -0.399846 0)
(0.0416952 -0.417815 0)
(0.06506 -0.379462 0)
(-0.00254551 -0.285863 0)
(0.0188028 -0.317529 0)
(0.0421557 -0.309204 0)
(0.0627808 -0.288725 0)
(0.0665901 -0.261784 0)
(0.0702169 -0.232843 0)
(0.071682 -0.204206 0)
(0.0714437 -0.177581 0)
(0.0697316 -0.154507 0)
(0.0680749 -0.136873 0)
(0.0594276 -0.129666 0)
(0.0421256 -0.13443 0)
(-0.0199141 -0.208796 0)
(0.0448855 -0.217442 0)
(0.11391 -0.163395 0)
(0.207627 -0.101908 0)
(0.245222 -0.0510731 0)
(0.289928 0.0367042 0)
(0.345907 0.19109 0)
(0.368745 0.235277 0)
(0.356678 0.199681 0)
(0.220662 0.0259819 0)
(0.092304 -0.116851 0)
(0.0446862 -0.203924 0)
(0.0204321 -0.259069 0)
(0.00971198 -0.297205 0)
(0.0127373 -0.34153 0)
(0.03442 -0.37265 0)
(0.034522 -0.380349 0)
(0.0738369 -0.322042 0)
(0.00266674 -0.286266 0)
(0.0213901 -0.312875 0)
(0.0377546 -0.300702 0)
(0.0449531 -0.278411 0)
(0.0484265 -0.25194 0)
(0.0491582 -0.222854 0)
(0.0476871 -0.193587 0)
(0.0447104 -0.166001 0)
(0.0402232 -0.141956 0)
(0.0351771 -0.122855 0)
(0.0276075 -0.110624 0)
(0.0187492 -0.106912 0)
(-0.0103187 -0.156857 0)
(0.00945193 -0.192198 0)
(0.0794714 -0.145864 0)
(0.163085 -0.0821513 0)
(0.21521 -0.0132327 0)
(0.261672 0.0345379 0)
(0.329878 0.175073 0)
(0.375378 0.247813 0)
(0.382365 0.231832 0)
(0.332768 0.150952 0)
(0.188642 -0.0470053 0)
(0.125028 -0.153808 0)
(0.0582399 -0.214345 0)
(0.0274227 -0.256243 0)
(0.0129187 -0.300689 0)
(0.0335964 -0.328079 0)
(0.0226388 -0.316424 0)
(0.0759384 -0.243473 0)
(0.00369526 -0.302692 0)
(0.0195112 -0.309895 0)
(0.0306647 -0.295484 0)
(0.0325457 -0.271231 0)
(0.0313333 -0.243948 0)
(0.0270241 -0.21347 0)
(0.0217695 -0.182521 0)
(0.016561 -0.153634 0)
(0.010145 -0.128621 0)
(0.00284099 -0.108834 0)
(-0.00397583 -0.0940896 0)
(-0.0126864 -0.0883865 0)
(-0.0356014 -0.1303 0)
(-0.0210334 -0.147443 0)
(0.0308067 -0.110444 0)
(0.105341 -0.041886 0)
(0.159285 0.0386123 0)
(0.21342 0.0627963 0)
(0.290906 0.165504 0)
(0.362746 0.249551 0)
(0.385407 0.24045 0)
(0.379318 0.190741 0)
(0.297742 0.0681023 0)
(0.228903 -0.0942176 0)
(0.0875744 -0.137969 0)
(0.045367 -0.194428 0)
(0.00657566 -0.248856 0)
(0.0235722 -0.274389 0)
(0.00523348 -0.236361 0)
(0.0556287 -0.160402 0)
(0.00307244 -0.309808 0)
(0.0195955 -0.309922 0)
(0.0277364 -0.293048 0)
(0.0256259 -0.26756 0)
(0.0161295 -0.237659 0)
(0.00125512 -0.20358 0)
(-0.00983811 -0.170559 0)
(-0.0164235 -0.140543 0)
(-0.0238439 -0.114893 0)
(-0.0323673 -0.0951533 0)
(-0.0394236 -0.0789339 0)
(-0.0499191 -0.0693649 0)
(-0.074126 -0.0908268 0)
(-0.0693637 -0.10313 0)
(-0.0333734 -0.0633741 0)
(0.0177914 0.0406237 0)
(0.111817 0.0905395 0)
(0.164574 0.101159 0)
(0.231719 0.18126 0)
(0.319829 0.248211 0)
(0.370065 0.253476 0)
(0.387096 0.216064 0)
(0.396162 0.108591 0)
(0.226259 -0.0228239 0)
(0.0399653 -0.0647954 0)
(0.0482004 -0.104303 0)
(-0.00862367 -0.183621 0)
(0.005906 -0.204067 0)
(-0.010736 -0.164983 0)
(0.0379106 -0.109502 0)
(0.00753958 -0.318449 0)
(0.0230533 -0.315967 0)
(0.0287177 -0.295107 0)
(0.0230741 -0.267915 0)
(0.0029999 -0.233411 0)
(-0.0291199 -0.192989 0)
(-0.0501255 -0.158962 0)
(-0.0575056 -0.128349 0)
(-0.0628289 -0.10159 0)
(-0.071133 -0.0832031 0)
(-0.0785547 -0.065911 0)
(-0.0890682 -0.0484751 0)
(-0.105456 -0.0436011 0)
(-0.10842 -0.0482206 0)
(-0.0766512 -0.0194655 0)
(-0.0162862 0.0956261 0)
(0.0830637 0.177102 0)
(0.148741 0.1882 0)
(0.216379 0.244079 0)
(0.290663 0.28173 0)
(0.359815 0.288431 0)
(0.410555 0.263647 0)
(0.415214 0.170641 0)
(0.0624328 -0.000649193 0)
(-0.0148282 -0.0214252 0)
(-0.0120419 -0.0596991 0)
(-0.026984 -0.122978 0)
(-0.0127046 -0.14736 0)
(-0.00398063 -0.11801 0)
(0.0194684 -0.0656953 0)
(0.00861099 -0.336686 0)
(0.0261366 -0.326606 0)
(0.0337751 -0.30356 0)
(0.0272315 -0.27169 0)
(0.00469516 -0.222256 0)
(-0.0701902 -0.189984 0)
(-0.113938 -0.145545 0)
(-0.111666 -0.124619 0)
(-0.107999 -0.0934859 0)
(-0.110972 -0.0763751 0)
(-0.118254 -0.057572 0)
(-0.131913 -0.0347151 0)