/*--------------------------------*- C++ -*----------------------------------*\
| =========                 |                                                 |
| \\      /  F ield         | OpenFOAM: The Open Source CFD Toolbox           |
|  \\    /   O peration     | Version:  v1606+                                |
|   \\  /    A nd           | Web:      www.OpenFOAM.com                      |
|    \\/     M anipulation  |                                                 |
\*---------------------------------------------------------------------------*/
FoamFile
{
    version     2.0;
    format      ascii;
    class       volScalarField;
    location    "0.08";
    object      dgdt;
}
// * * * * * * * * * * * * * * * * * * * * * * * * * * * * * * * * * * * * * //

dimensions      [0 0 -1 0 0 0 0];

internalField   nonuniform List<scalar> 
6000
(
-13.9371
-15.8077
-15.9983
-15.9652
-15.963
-15.6784
-15.2089
-14.9269
-14.5952
-14.3986
-14.2688
-14.2156
-14.1828
-14.1769
-14.1874
-14.1926
-14.2015
-14.2066
-14.2266
-14.2674
-14.3493
-14.523
-14.8587
-15.1999
-15.6969
-16.0731
-16.069
-16.0666
-15.8306
-13.5938
-2.66116
-2.20149
-2.13919
-2.10058
-2.09699
-2.13925
-2.21358
-2.25843
-2.24881
-2.27599
-2.29975
-2.31417
-2.32611
-2.33184
-2.33384
-2.3315
-2.32839
-2.32151
-2.31093
-2.29952
-2.28384
-2.26309
-2.27033
-2.21376
-2.1384
-2.08291
-2.08277
-2.09313
-2.16673
-2.6539
-0.235183
-0.279473
-0.31283
-0.323831
-0.3299
-0.336147
-0.344708
-0.351204
-0.352123
-0.355888
-0.359136
-0.361407
-0.363279
-0.364351
-0.36487
-0.364871
-0.364443
-0.363464
-0.361995
-0.360215
-0.357776
-0.354851
-0.353901
-0.346929
-0.338472
-0.332059
-0.326494
-0.316797
-0.284799
-0.241851
-0.179001
-0.185756
-0.190305
-0.192425
-0.192718
-0.192224
-0.19202
-0.191804
-0.191789
-0.192363
-0.192887
-0.1933
-0.193649
-0.193911
-0.194074
-0.194158
-0.194169
-0.194118
-0.194002
-0.19384
-0.193627
-0.193396
-0.193731
-0.194312
-0.195049
-0.196022
-0.196468
-0.195114
-0.190963
-0.183294
-0.182024
-0.191071
-0.192499
-0.192875
-0.192087
-0.1903
-0.188069
-0.18573
-0.183519
-0.18174
-0.180395
-0.17945
-0.178818
-0.178462
-0.178338
-0.178433
-0.178742
-0.1793
-0.180147
-0.181344
-0.182949
-0.185068
-0.187654
-0.190409
-0.193169
-0.195468
-0.196871
-0.197083
-0.195942
-0.186215
-0.196245
-0.200243
-0.201158
-0.201805
-0.201983
-0.201505
-0.200297
-0.198492
-0.196315
-0.193919
-0.191606
-0.189629
-0.188106
-0.187108
-0.186657
-0.186762
-0.187417
-0.188625
-0.190367
-0.192586
-0.19516
-0.197879
-0.200403
-0.202584
-0.204213
-0.205167
-0.20547
-0.205276
-0.204712
-0.200491
-0.210865
-0.205974
-0.206069
-0.206742
-0.207607
-0.208395
-0.208856
-0.208905
-0.2085
-0.207656
-0.20651
-0.205272
-0.204177
-0.203388
-0.203021
-0.203122
-0.203692
-0.204683
-0.205988
-0.207442
-0.20883
-0.209932
-0.21062
-0.210891
-0.210774
-0.210363
-0.209876
-0.209556
-0.209825
-0.214897
-0.21781
-0.209839
-0.209299
-0.209959
-0.211032
-0.212281
-0.213465
-0.214464
-0.215202
-0.21565
-0.215869
-0.215924
-0.215889
-0.215835
-0.215828
-0.215914
-0.216092
-0.216324
-0.216545
-0.216683
-0.216666
-0.216424
-0.215913
-0.215166
-0.214251
-0.213287
-0.212501
-0.212113
-0.212939
-0.221141
-0.219662
-0.212613
-0.211779
-0.212484
-0.213643
-0.215091
-0.216656
-0.218196
-0.219616
-0.220852
-0.221873
-0.222665
-0.223234
-0.223605
-0.223813
-0.223884
-0.223819
-0.223597
-0.223183
-0.222551
-0.221693
-0.220624
-0.219385
-0.218043
-0.216685
-0.215451
-0.214507
-0.214004
-0.215034
-0.222227
-0.219455
-0.213787
-0.213214
-0.214093
-0.215304
-0.216771
-0.218413
-0.220137
-0.221869
-0.223537
-0.225058
-0.226353
-0.227361
-0.228055
-0.228428
-0.228486
-0.22823
-0.227658
-0.226777
-0.225613
-0.224225
-0.222695
-0.22111
-0.219541
-0.218059
-0.216753
-0.2157
-0.214969
-0.215672
-0.221431
-0.218495
-0.214165
-0.214099
-0.215211
-0.216512
-0.217986
-0.219602
-0.221289
-0.222979
-0.224605
-0.226097
-0.227385
-0.228409
-0.229128
-0.229518
-0.229566
-0.229275
-0.228657
-0.227737
-0.226557
-0.225174
-0.223661
-0.222088
-0.220522
-0.219029
-0.217677
-0.216493
-0.215487
-0.215643
-0.220037
-0.217559
-0.214434
-0.214773
-0.216063
-0.217464
-0.218975
-0.220583
-0.222227
-0.223844
-0.225376
-0.226763
-0.22795
-0.22889
-0.229549
-0.229904
-0.229946
-0.229674
-0.229099
-0.228246
-0.227147
-0.22585
-0.22441
-0.222886
-0.221337
-0.219824
-0.218405
-0.21709
-0.215878
-0.215604
-0.218774
-0.216591
-0.214619
-0.215283
-0.216711
-0.218217
-0.21979
-0.221416
-0.223039
-0.224603
-0.226061
-0.227364
-0.228469
-0.229339
-0.229945
-0.230271
-0.230306
-0.230051
-0.229516
-0.228719
-0.227688
-0.226459
-0.225076
-0.223587
-0.222039
-0.220486
-0.218982
-0.21754
-0.21617
-0.215554
-0.217558
-0.215624
-0.214669
-0.215628
-0.217192
-0.218812
-0.220465
-0.222123
-0.223739
-0.225268
-0.226672
-0.227914
-0.228959
-0.229778
-0.230348
-0.230651
-0.230681
-0.230438
-0.22993
-0.229172
-0.228188
-0.227008
-0.225666
-0.224198
-0.222642
-0.22104
-0.21944
-0.217867
-0.216346
-0.215422
-0.216402
-0.214712
-0.214592
-0.215836
-0.217547
-0.219292
-0.221027
-0.222722
-0.224336
-0.225839
-0.227202
-0.228399
-0.2294
-0.230182
-0.230724
-0.231011
-0.231037
-0.230802
-0.230312
-0.229582
-0.228633
-0.227488
-0.226175
-0.224723
-0.223157
-0.221508
-0.219813
-0.218103
-0.216422
-0.215205
-0.215346
-0.213888
-0.214429
-0.215945
-0.217817
-0.219686
-0.221497
-0.223221
-0.224833
-0.226315
-0.227649
-0.228813
-0.229783
-0.230538
-0.23106
-0.231335
-0.231357
-0.231127
-0.23065
-0.22994
-0.229013
-0.227893
-0.226602
-0.225161
-0.223589
-0.221902
-0.220123
-0.21828
-0.21643
-0.214932
-0.214409
-0.213156
-0.214219
-0.215996
-0.21803
-0.220008
-0.221875
-0.223616
-0.225224
-0.226694
-0.22801
-0.229154
-0.230106
-0.230844
-0.231352
-0.231618
-0.231638
-0.23141
-0.230941
-0.230241
-0.229327
-0.228219
-0.226939
-0.225504
-0.223929
-0.222219
-0.220379
-0.218421
-0.216403
-0.214638
-0.213589
-0.212511
-0.213995
-0.216022
-0.218195
-0.220249
-0.222146
-0.223895
-0.225504
-0.226971
-0.228284
-0.229422
-0.230364
-0.231093
-0.231593
-0.231854
-0.231871
-0.231644
-0.231177
-0.230482
-0.229571
-0.228464
-0.227181
-0.225743
-0.224161
-0.222439
-0.220565
-0.218529
-0.216367
-0.214349
-0.212875
-0.211942
-0.213777
-0.216026
-0.21829
-0.22038
-0.222291
-0.224049
-0.225669
-0.227148
-0.22847
-0.229613
-0.230555
-0.231281
-0.231778
-0.232036
-0.232051
-0.231822
-0.231355
-0.230657
-0.229743
-0.228626
-0.227329
-0.225873
-0.224275
-0.222539
-0.220649
-0.218575
-0.216321
-0.21408
-0.212251
-0.211432
-0.213561
-0.215924
-0.218261
-0.220372
-0.222298
-0.224078
-0.225726
-0.227232
-0.228574
-0.229732
-0.230685
-0.231417
-0.231915
-0.232173
-0.232186
-0.231955
-0.231482
-0.230775
-0.229846
-0.228711
-0.227389
-0.225902
-0.224272
-0.222508
-0.220598
-0.218502
-0.216182
-0.213822
-0.211697
-0.210948
-0.213314
-0.215803
-0.218103
-0.220232
-0.222184
-0.224001
-0.225691
-0.227235
-0.22861
-0.229791
-0.230759
-0.231499
-0.232
-0.232258
-0.23227
-0.232035
-0.231556
-0.230839
-0.229892
-0.228731
-0.227374
-0.225845
-0.224168
-0.222362
-0.220423
-0.218302
-0.21598
-0.213539
-0.211175
-0.210443
-0.212995
-0.215319
-0.217854
-0.219991
-0.221974
-0.223842
-0.225585
-0.227176
-0.228587
-0.229791
-0.230772
-0.231518
-0.232021
-0.232278
-0.232289
-0.232052
-0.231569
-0.230843
-0.229881
-0.228695
-0.227299
-0.225721
-0.223988
-0.222129
-0.220154
-0.218026
-0.215611
-0.213188
-0.210636
-0.209891
-0.212587
-0.215292
-0.217501
-0.219656
-0.221687
-0.223617
-0.22542
-0.227061
-0.228505
-0.229729
-0.230719
-0.231468
-0.231971
-0.232227
-0.232236
-0.231998
-0.231513
-0.230782
-0.229809
-0.228601
-0.227172
-0.225543
-0.223749
-0.221824
-0.219799
-0.217653
-0.215311
-0.21275
-0.210056
-0.209287
-0.212078
-0.214418
-0.217042
-0.219236
-0.221336
-0.22334
-0.225206
-0.226892
-0.228363
-0.229601
-0.230596
-0.231344
-0.231845
-0.2321
-0.232107
-0.231869
-0.231384
-0.230651
-0.229672
-0.228449
-0.226992
-0.225318
-0.223459
-0.22146
-0.219361
-0.217171
-0.214702
-0.212218
-0.209429
-0.208636
-0.211482
-0.214154
-0.216488
-0.218749
-0.220937
-0.223019
-0.224945
-0.226668
-0.228158
-0.229403
-0.230397
-0.231141
-0.231638
-0.231889
-0.231896
-0.231658
-0.231174
-0.230444
-0.229464
-0.228234
-0.226758
-0.225047
-0.223129
-0.22105
-0.21886
-0.216594
-0.21421
-0.211596
-0.208756
-0.207935
-0.210801
-0.213409
-0.215861
-0.218217
-0.2205
-0.22266
-0.224637
-0.226385
-0.227883
-0.229125
-0.230113
-0.23085
-0.231342
-0.231589
-0.231595
-0.231358
-0.230879
-0.230153
-0.229177
-0.227948
-0.226463
-0.224728
-0.222761
-0.220606
-0.218322
-0.215958
-0.213506
-0.210894
-0.208035
-0.20718
-0.210049
-0.212691
-0.215207
-0.217664
-0.220037
-0.222263
-0.224274
-0.226033
-0.227527
-0.22876
-0.229738
-0.230467
-0.230951
-0.231195
-0.231199
-0.230965
-0.23049
-0.229771
-0.228803
-0.227581
-0.226098
-0.224353
-0.222354
-0.220135
-0.217762
-0.2153
-0.212773
-0.21013
-0.207265
-0.206371
-0.20925
-0.211934
-0.214536
-0.217089
-0.219547
-0.221822
-0.223847
-0.225599
-0.227081
-0.2283
-0.229266
-0.229985
-0.230463
-0.230703
-0.230707
-0.230474
-0.230003
-0.229292
-0.228334
-0.227124
-0.225653
-0.223912
-0.2219
-0.219635
-0.217182
-0.214628
-0.212017
-0.209326
-0.206447
-0.205519
-0.208415
-0.211159
-0.213848
-0.216495
-0.219023
-0.221321
-0.223339
-0.225072
-0.226534
-0.227738
-0.228692
-0.229403
-0.229875
-0.230113
-0.230116
-0.229884
-0.229417
-0.228712
-0.227764
-0.226567
-0.225113
-0.22339
-0.221385
-0.2191
-0.216581
-0.213932
-0.211238
-0.208491
-0.205593
-0.204629
-0.207548
-0.210387
-0.213136
-0.215878
-0.21845
-0.220741
-0.222731
-0.224438
-0.22588
-0.227069
-0.228015
-0.228721
-0.22919
-0.229426
-0.229428
-0.229197
-0.228733
-0.228032
-0.227091
-0.225905
-0.224469
-0.22277
-0.220791
-0.218513
-0.215955
-0.213217
-0.210434
-0.207629
-0.204706
-0.203699
-0.206654
-0.209492
-0.212402
-0.215226
-0.217803
-0.220058
-0.222009
-0.223688
-0.225115
-0.226297
-0.227238
-0.227942
-0.228411
-0.228646
-0.228648
-0.228417
-0.227953
-0.227253
-0.226314
-0.225135
-0.223711
-0.222036
-0.220093
-0.217852
-0.215292
-0.212482
-0.209596
-0.206725
-0.203766
-0.202729
-0.205721
-0.208621
-0.211662
-0.21452
-0.217052
-0.219248
-0.22116
-0.222821
-0.224242
-0.225425
-0.226369
-0.227075
-0.227544
-0.227779
-0.227782
-0.22755
-0.227084
-0.226382
-0.22544
-0.224259
-0.22284
-0.22118
-0.219271
-0.217084
-0.214566
-0.211724
-0.208728
-0.205774
-0.202774
-0.201717
-0.204736
-0.207804
-0.210888
-0.213712
-0.21616
-0.218296
-0.220185
-0.221845
-0.223273
-0.224465
-0.225416
-0.226126
-0.226597
-0.226833
-0.226835
-0.226603
-0.226135
-0.225428
-0.22448
-0.22329
-0.221861
-0.2202
-0.21831
-0.216176
-0.213739
-0.210928
-0.207847
-0.204784
-0.201752
-0.200647
-0.203669
-0.206915
-0.210022
-0.212745
-0.2151
-0.217204
-0.219099
-0.220778
-0.222226
-0.223431
-0.22439
-0.225105
-0.225578
-0.225814
-0.225816
-0.225584
-0.225114
-0.224403
-0.223446
-0.222242
-0.220795
-0.219114
-0.217215
-0.215108
-0.212757
-0.210047
-0.206953
-0.20372
-0.200685
-0.199497
-0.202649
-0.205979
-0.208995
-0.211581
-0.213884
-0.216004
-0.217935
-0.219647
-0.221118
-0.222337
-0.223303
-0.224019
-0.224492
-0.224728
-0.22473
-0.224498
-0.224029
-0.223316
-0.222353
-0.221136
-0.219665
-0.217951
-0.216016
-0.21389
-0.211583
-0.209005
-0.206004
-0.202684
-0.199529
-0.198257
-0.201605
-0.204884
-0.20774
-0.210237
-0.212564
-0.214744
-0.216728
-0.218476
-0.219966
-0.221193
-0.222159
-0.222873
-0.223344
-0.223578
-0.22358
-0.22335
-0.222883
-0.222173
-0.22121
-0.219985
-0.218497
-0.216749
-0.214761
-0.212575
-0.210238
-0.207738
-0.204892
-0.201625
-0.19828
-0.196964
-0.20038
-0.203543
-0.206281
-0.208798
-0.211215
-0.213472
-0.215505
-0.217277
-0.218776
-0.220001
-0.220962
-0.221669
-0.222134
-0.222365
-0.222367
-0.22214
-0.221679
-0.220975
-0.220018
-0.218795
-0.217299
-0.215529
-0.213495
-0.211232
-0.208806
-0.206277
-0.203541
-0.20039
-0.196976
-0.195519
-0.198938
-0.201993
-0.20473
-0.207361
-0.209885
-0.212207
-0.214269
-0.216048
-0.217543
-0.218759
-0.219709
-0.220406
-0.220864
-0.221091
-0.221092
-0.220868
-0.220414
-0.21972
-0.218774
-0.217561
-0.21607
-0.214293
-0.212232
-0.209909
-0.207379
-0.204738
-0.201993
-0.19894
-0.195525
-0.193939
-0.197332
-0.200365
-0.203207
-0.20597
-0.208577
-0.210932
-0.213001
-0.214774
-0.216256
-0.217458
-0.218395
-0.21908
-0.21953
-0.219752
-0.219754
-0.219534
-0.219087
-0.218404
-0.217471
-0.216273
-0.214794
-0.213025
-0.210959
-0.208604
-0.205995
-0.203224
-0.200371
-0.197336
-0.193947
-0.192331
-0.195685
-0.198766
-0.201736
-0.204606
-0.207255
-0.209618
-0.21168
-0.21344
-0.214908
-0.216095
-0.217017
-0.217691
-0.218132
-0.21835
-0.218351
-0.218135
-0.217696
-0.217024
-0.216105
-0.214921
-0.213458
-0.211701
-0.209643
-0.207283
-0.204634
-0.201759
-0.198782
-0.195694
-0.192343
-0.190716
-0.194045
-0.197214
-0.200295
-0.203223
-0.205881
-0.208239
-0.21029
-0.212039
-0.213492
-0.214665
-0.215575
-0.216238
-0.216671
-0.216885
-0.216885
-0.216673
-0.216241
-0.215579
-0.214672
-0.213502
-0.212052
-0.210308
-0.208261
-0.205907
-0.203251
-0.200323
-0.197234
-0.194061
-0.190733
-0.189032
-0.192401
-0.19567
-0.198836
-0.201781
-0.204436
-0.206787
-0.208831
-0.210569
-0.212011
-0.213172
-0.214069
-0.214722
-0.215147
-0.215356
-0.215357
-0.215148
-0.214723
-0.214071
-0.213175
-0.212017
-0.210578
-0.208844
-0.206805
-0.204459
-0.201808
-0.198865
-0.195696
-0.192422
-0.189053
-0.187269
-0.190739
-0.194111
-0.19732
-0.200268
-0.20292
-0.205268
-0.207307
-0.209037
-0.210468
-0.211617
-0.212502
-0.213144
-0.213562
-0.213767
-0.213767
-0.213562
-0.213144
-0.212501
-0.211616
-0.210469
-0.20904
-0.207314
-0.205281
-0.202939
-0.200292
-0.197349
-0.194141
-0.190767
-0.187297
-0.185443
-0.189077
-0.19252
-0.195744
-0.19869
-0.201343
-0.20369
-0.205725
-0.207447
-0.208867
-0.210003
-0.210877
-0.211508
-0.211918
-0.212119
-0.212119
-0.211917
-0.211506
-0.210874
-0.21
-0.208864
-0.207445
-0.205726
-0.203697
-0.201357
-0.198712
-0.195771
-0.192553
-0.189112
-0.185476
-0.183534
-0.187395
-0.190884
-0.194111
-0.197058
-0.199712
-0.202059
-0.204089
-0.205803
-0.207212
-0.208335
-0.209195
-0.209816
-0.210217
-0.210414
-0.210413
-0.210215
-0.209812
-0.20919
-0.208329
-0.207205
-0.205796
-0.204084
-0.202058
-0.199719
-0.197074
-0.194136
-0.190916
-0.18743
-0.183581
-0.182095
-0.185787
-0.189227
-0.192431
-0.195374
-0.19803
-0.200377
-0.202403
-0.204108
-0.205504
-0.206612
-0.207459
-0.208067
-0.20846
-0.208652
-0.208652
-0.208458
-0.208064
-0.207453
-0.206605
-0.205494
-0.204096
-0.202391
-0.200368
-0.198028
-0.195381
-0.192448
-0.189248
-0.185808
-0.182115
-0.180548
-0.184107
-0.187502
-0.190693
-0.193637
-0.196298
-0.198647
-0.200669
-0.202363
-0.203745
-0.204838
-0.205669
-0.206265
-0.206649
-0.206837
-0.206836
-0.206647
-0.206262
-0.205663
-0.204829
-0.203733
-0.202348
-0.200651
-0.19863
-0.196285
-0.193632
-0.190697
-0.187512
-0.184115
-0.180561
-0.178603
-0.182224
-0.185666
-0.188881
-0.191843
-0.194517
-0.19687
-0.198886
-0.200569
-0.201935
-0.203011
-0.203827
-0.20441
-0.204784
-0.204967
-0.204967
-0.204783
-0.204407
-0.203822
-0.203004
-0.201924
-0.200553
-0.198866
-0.196847
-0.194495
-0.191827
-0.188874
-0.185667
-0.182227
-0.178602
-0.17661
-0.180281
-0.183763
-0.187011
-0.19
-0.19269
-0.195047
-0.197057
-0.198725
-0.200074
-0.201132
-0.201932
-0.202501
-0.202867
-0.203045
-0.203044
-0.202866
-0.2025
-0.201929
-0.201127
-0.200065
-0.198711
-0.197036
-0.19502
-0.192661
-0.189974
-0.186993
-0.183755
-0.180278
-0.176605
-0.174578
-0.178289
-0.181809
-0.185094
-0.188113
-0.190819
-0.193177
-0.195178
-0.196831
-0.198162
-0.199202
-0.199984
-0.200541
-0.200896
-0.20107
-0.20107
-0.200897
-0.200541
-0.199983
-0.199199
-0.198156
-0.19682
-0.195159
-0.193151
-0.190786
-0.188079
-0.185067
-0.181792
-0.17828
-0.17457
-0.172504
-0.176252
-0.179813
-0.183139
-0.186186
-0.188903
-0.191259
-0.193248
-0.194884
-0.196197
-0.197218
-0.197985
-0.198528
-0.198875
-0.199043
-0.199044
-0.198876
-0.19853
-0.197987
-0.197219
-0.196195
-0.194878
-0.193234
-0.191236
-0.188871
-0.186148
-0.183102
-0.179787
-0.176236
-0.172491
-0.170389
-0.174176
-0.177781
-0.181145
-0.184216
-0.18694
-0.189289
-0.191265
-0.192885
-0.194179
-0.195183
-0.195934
-0.196464
-0.196802
-0.196966
-0.196967
-0.196804
-0.196467
-0.195938
-0.195188
-0.194183
-0.192885
-0.191259
-0.189273
-0.186911
-0.184178
-0.181104
-0.177747
-0.174153
-0.170371
-0.168234
-0.172063
-0.175713
-0.179112
-0.182199
-0.184924
-0.187265
-0.189228
-0.190833
-0.19211
-0.193097
-0.193832
-0.19435
-0.194678
-0.194838
-0.194839
-0.194681
-0.194355
-0.193839
-0.193105
-0.192119
-0.19084
-0.189231
-0.187259
-0.184904
-0.182166
-0.17907
-0.175673
-0.172034
-0.168212
-0.166039
-0.169914
-0.173606
-0.177033
-0.18013
-0.182852
-0.185187
-0.187138
-0.188729
-0.18999
-0.190961
-0.191681
-0.192187
-0.192506
-0.19266
-0.192663
-0.192508
-0.192192
-0.191689
-0.190972
-0.190003
-0.188742
-0.187149
-0.18519
-0.182844
-0.180106
-0.176996
-0.173565
-0.16988
-0.166016
-0.163803
-0.167721
-0.171454
-0.174902
-0.178004
-0.180725
-0.183055
-0.184998
-0.186576
-0.187823
-0.188778
-0.189483
-0.189976
-0.190286
-0.19044
-0.190439
-0.190289
-0.189981
-0.189491
-0.188789
-0.187837
-0.186593
-0.185015
-0.183068
-0.180729
-0.177992
-0.174873
-0.171418
-0.167691
-0.16378
-0.161524
-0.165487
-0.169252
-0.172714
-0.175821
-0.178544
-0.180873
-0.18281
-0.184378
-0.185609
-0.186548
-0.187238
-0.187719
-0.188028
-0.188172
-0.188168
-0.188026
-0.187724
-0.187244
-0.186558
-0.185624
-0.184396
-0.182832
-0.180894
-0.17856
-0.175823
-0.172697
-0.169223
-0.165463
-0.161503
-0.159198
-0.163209
-0.166995
-0.170467
-0.173583
-0.176315
-0.178646
-0.180579
-0.182136
-0.183351
-0.184273
-0.184945
-0.185411
-0.185707
-0.18584
-0.185839
-0.185699
-0.185409
-0.184949
-0.18428
-0.183363
-0.182153
-0.180602
-0.178672
-0.176339
-0.173597
-0.170464
-0.166973
-0.163177
-0.159177
-0.156819
-0.16087
-0.164678
-0.168165
-0.171296
-0.174041
-0.176379
-0.178308
-0.179852
-0.18105
-0.181952
-0.182606
-0.183053
-0.183327
-0.183465
-0.183465
-0.183343
-0.183057
-0.182608
-0.181956
-0.181058
-0.179866
-0.178329
-0.176406
-0.174071
-0.17132
-0.168174
-0.164667
-0.160843
-0.156801
-0.154385
-0.158469
-0.162302
-0.165812
-0.168967
-0.171731
-0.174075
-0.175998
-0.177527
-0.178706
-0.179588
-0.180225
-0.180662
-0.180931
-0.181061
-0.18107
-0.180941
-0.180665
-0.180224
-0.179587
-0.178708
-0.177535
-0.176014
-0.174099
-0.171761
-0.168998
-0.165832
-0.162304
-0.158451
-0.154375
-0.151899
-0.156006
-0.159876
-0.163417
-0.166603
-0.169386
-0.171735
-0.173649
-0.17516
-0.176318
-0.177178
-0.177796
-0.17822
-0.178481
-0.178602
-0.178616
-0.178461
-0.178217
-0.177789
-0.177171
-0.176312
-0.17516
-0.173657
-0.171752
-0.169414
-0.166636
-0.163447
-0.159894
-0.156014
-0.151902
-0.149373
-0.15352
-0.157413
-0.16099
-0.164209
-0.16701
-0.169358
-0.171259
-0.172749
-0.173883
-0.174719
-0.175317
-0.175725
-0.175965
-0.176082
-0.17607
-0.175952
-0.175707
-0.1753
-0.174704
-0.173869
-0.172739
-0.171256
-0.169366
-0.167031
-0.16424
-0.161024
-0.157441
-0.153547
-0.149384
-0.146805
-0.151003
-0.154918
-0.158534
-0.161785
-0.164599
-0.166941
-0.168825
-0.170291
-0.171399
-0.172211
-0.172787
-0.173173
-0.17341
-0.173519
-0.173499
-0.173405
-0.173139
-0.172764
-0.17219
-0.171378
-0.170272
-0.168811
-0.166938
-0.164609
-0.161809
-0.158565
-0.154941
-0.151001
-0.14681
-0.144183
-0.148404
-0.152381
-0.156047
-0.159328
-0.162148
-0.16448
-0.166342
-0.167783
-0.168865
-0.169654
-0.170206
-0.170565
-0.170805
-0.170913
-0.170916
-0.170812
-0.170566
-0.170191
-0.169631
-0.168839
-0.167755
-0.166317
-0.164463
-0.162145
-0.159342
-0.156073
-0.152406
-0.148411
-0.144189
-0.14153
-0.145784
-0.149819
-0.153532
-0.156834
-0.159653
-0.161969
-0.163808
-0.165223
-0.16628
-0.167047
-0.167584
-0.167947
-0.168157
-0.168258
-0.168258
-0.168138
-0.167943
-0.167568
-0.167022
-0.16625
-0.165188
-0.163772
-0.161938
-0.159634
-0.156834
-0.153549
-0.149845
-0.145808
-0.141538
-0.138849
-0.143158
-0.147234
-0.150983
-0.154296
-0.157106
-0.159403
-0.161218
-0.162609
-0.163643
-0.164388
-0.164909
-0.165262
-0.165459
-0.165551
-0.165545
-0.16543
-0.165235
-0.164887
-0.164362
-0.163609
-0.162569
-0.161175
-0.15936
-0.157071
-0.154279
-0.150987
-0.147253
-0.143175
-0.138854
-0.136131
-0.140488
-0.144615
-0.148391
-0.151706
-0.154503
-0.15678
-0.158573
-0.159941
-0.160953
-0.161677
-0.162177
-0.162501
-0.162704
-0.162796
-0.162795
-0.162707
-0.162494
-0.162159
-0.161652
-0.16092
-0.1599
-0.158525
-0.156728
-0.154454
-0.151671
-0.148377
-0.144621
-0.140498
-0.13613
-0.133377
-0.137783
-0.141954
-0.145747
-0.149057
-0.151839
-0.154099
-0.155874
-0.157222
-0.158212
-0.158916
-0.159399
-0.159713
-0.159903
-0.159991
-0.159994
-0.159913
-0.159712
-0.159384
-0.158894
-0.158182
-0.157183
-0.155826
-0.154043
-0.15178
-0.149005
-0.145715
-0.141944
-0.13778
-0.133368
-0.130585
-0.135041
-0.139246
-0.143045
-0.146346
-0.149116
-0.151363
-0.153123
-0.154453
-0.155423
-0.156108
-0.156574
-0.156876
-0.157053
-0.157135
-0.157135
-0.157054
-0.15686
-0.156559
-0.15609
-0.155399
-0.15442
-0.15308
-0.151309
-0.149053
-0.146283
-0.142995
-0.13922
-0.135031
-0.130569
-0.12775
-0.132253
-0.136482
-0.140281
-0.143574
-0.146337
-0.148577
-0.150326
-0.151639
-0.152589
-0.153254
-0.153701
-0.153987
-0.154155
-0.154231
-0.154228
-0.154141
-0.153975
-0.153692
-0.153242
-0.152572
-0.151614
-0.150291
-0.148531
-0.146278
-0.143506
-0.140218
-0.136439
-0.13223
-0.127725
-0.124869
-0.129414
-0.133659
-0.137455
-0.140745
-0.14351
-0.145748
-0.147487
-0.148784
-0.149713
-0.150355
-0.150782
-0.151052
-0.151209
-0.151281
-0.15128
-0.151206
-0.151064
-0.150781
-0.15035
-0.149703
-0.148769
-0.147464
-0.145714
-0.143461
-0.140682
-0.137387
-0.133602
-0.129376
-0.124834
-0.121941
-0.126521
-0.130777
-0.134573
-0.137869
-0.140643
-0.142883
-0.144613
-0.145891
-0.146796
-0.147413
-0.147819
-0.148072
-0.148218
-0.148284
-0.148284
-0.148222
-0.148072
-0.147818
-0.147413
-0.146794
-0.145886
-0.144603
-0.142863
-0.140609
-0.137818
-0.134509
-0.130715
-0.126475
-0.121899
-0.11897
-0.123586
-0.127844
-0.131645
-0.134957
-0.137745
-0.139988
-0.141707
-0.142962
-0.14384
-0.14443
-0.144811
-0.145045
-0.145177
-0.145236
-0.145236
-0.145177
-0.145039
-0.144812
-0.144434
-0.143845
-0.142966
-0.141708
-0.139983
-0.137728
-0.134922
-0.131592
-0.127782
-0.123528
-0.118922
-0.115953
-0.120601
-0.124865
-0.128682
-0.132017
-0.134822
-0.137068
-0.138771
-0.14
-0.140845
-0.141404
-0.141757
-0.14197
-0.142087
-0.142139
-0.14214
-0.14209
-0.141975
-0.141763
-0.141412
-0.140855
-0.140011
-0.138783
-0.137077
-0.134823
-0.132002
-0.128647
-0.124813
-0.120544
-0.115909
-0.112895
-0.11756
-0.12185
-0.125695
-0.129059
-0.131882
-0.134125
-0.135808
-0.137003
-0.137813
-0.138335
-0.138658
-0.138847
-0.138948
-0.138992
-0.138993
-0.138951
-0.138852
-0.138665
-0.138345
-0.137826
-0.13702
-0.135827
-0.134144
-0.131897
-0.129064
-0.125682
-0.121819
-0.117528
-0.112867
-0.109816
-0.114496
-0.118818
-0.122698
-0.12609
-0.128925
-0.131159
-0.132815
-0.133973
-0.134741
-0.135225
-0.135514
-0.135677
-0.135761
-0.135796
-0.135797
-0.135764
-0.135682
-0.135521
-0.135235
-0.134755
-0.133992
-0.132838
-0.131186
-0.128952
-0.126111
-0.122704
-0.118809
-0.11449
-0.109803
-0.106736
-0.111448
-0.115792
-0.1197
-0.123113
-0.125951
-0.12817
-0.129794
-0.130909
-0.131632
-0.132073
-0.132326
-0.132461
-0.132526
-0.132552
-0.132553
-0.132529
-0.132465
-0.132333
-0.132082
-0.131645
-0.130927
-0.129817
-0.128199
-0.125984
-0.123145
-0.119722
-0.115796
-0.111443
-0.106728
-0.103657
-0.108417
-0.112774
-0.116704
-0.120124
-0.122956
-0.125154
-0.126743
-0.127812
-0.128486
-0.128881
-0.129095
-0.1292
-0.129245
-0.12926
-0.129261
-0.129247
-0.129204
-0.129101
-0.128889
-0.128497
-0.127828
-0.126763
-0.125182
-0.122991
-0.120164
-0.116737
-0.112788
-0.108401
-0.103654
-0.100575
-0.105355
-0.10976
-0.113706
-0.117117
-0.119933
-0.122109
-0.123663
-0.124685
-0.125307
-0.125653
-0.125824
-0.125897
-0.125919
-0.125923
-0.125923
-0.125921
-0.125899
-0.125828
-0.125658
-0.125314
-0.124696
-0.123678
-0.122132
-0.119964
-0.117157
-0.113748
-0.109792
-0.105372
-0.100589
-0.0975154
-0.102326
-0.106769
-0.1107
-0.114078
-0.116875
-0.119038
-0.120561
-0.121536
-0.122102
-0.122392
-0.122516
-0.122551
-0.122548
-0.122539
-0.122539
-0.122549
-0.122552
-0.122518
-0.122395
-0.122105
-0.121541
-0.120569
-0.119051
-0.116898
-0.114113
-0.110746
-0.106814
-0.102368
-0.0975433
-0.0945004
-0.0993719
-0.103807
-0.107671
-0.110989
-0.11378
-0.11595
-0.117454
-0.118379
-0.11888
-0.119106
-0.119173
-0.119163
-0.11913
-0.119106
-0.119106
-0.11913
-0.119163
-0.119173
-0.119106
-0.11888
-0.118379
-0.117454
-0.115953
-0.113791
-0.111013
-0.107711
-0.103853
-0.0994052
-0.0945309
-0.0915279
-0.0964519
-0.100848
-0.104581
-0.10783
-0.11066
-0.112877
-0.114371
-0.115238
-0.115658
-0.115801
-0.115797
-0.115732
-0.115662
-0.115619
-0.115619
-0.115662
-0.115732
-0.115796
-0.1158
-0.115655
-0.115233
-0.114366
-0.112871
-0.110658
-0.107838
-0.104607
-0.10089
-0.096492
-0.0915627
-0.0886088
-0.0935809
-0.0978451
-0.101373
-0.104605
-0.107571
-0.109885
-0.111365
-0.112142
-0.112449
-0.112484
-0.112389
-0.112257
-0.112142
-0.112077
-0.112077
-0.112142
-0.112256
-0.112388
-0.112481
-0.112445
-0.112136
-0.111356
-0.109873
-0.107558
-0.104596
-0.10138
-0.0978752
-0.0936217
-0.088645
-0.0857375
-0.0907153
-0.0947074
-0.0980247
-0.101395
-0.104645
-0.107086
-0.108503
-0.109127
-0.109265
-0.109152
-0.108943
-0.108729
-0.108563
-0.108474
-0.108474
-0.108563
-0.108729
-0.108942
-0.10915
-0.109261
-0.109121
-0.108494
-0.107073
-0.104628
-0.101377
-0.0980151
-0.0947201
-0.0907444
-0.0857687
-0.0828584
-0.0877057
-0.0913444
-0.0946452
-0.0984322
-0.102119
-0.104627
-0.10585
-0.106206
-0.106097
-0.105791
-0.105442
-0.105133
-0.10491
-0.104795
-0.104795
-0.10491
-0.105133
-0.105441
-0.10579
-0.106096
-0.106203
-0.105845
-0.104619
-0.102106
-0.0984146
-0.0946304
-0.0913437
-0.0877203
-0.0828774
-0.0797475
-0.0844005
-0.0878119
-0.0914927
-0.0961129
-0.100282
-0.102625
-0.103418
-0.103348
-0.102905
-0.102361
-0.101853
-0.101444
-0.101162
-0.101019
-0.101019
-0.101162
-0.101443
-0.101853
-0.102362
-0.102906
-0.103349
-0.103419
-0.102624
-0.100278
-0.0961019
-0.0914761
-0.0877948
-0.0843904
-0.0797996
-0.0765011
-0.080866
-0.0844788
-0.0891569
-0.0949617
-0.0993288
-0.101039
-0.101094
-0.100442
-0.0995992
-0.0987985
-0.0981314
-0.0976281
-0.0972943
-0.0971289
-0.0971289
-0.0972945
-0.0976284
-0.0981322
-0.0987999
-0.0996014
-0.100445
-0.101099
-0.101046
-0.0993349
-0.094961
-0.0891461
-0.0844623
-0.0808644
-0.0764485
-0.0732241
-0.0776253
-0.0820913
-0.0883581
-0.0953275
-0.0990528
-0.0995256
-0.0985837
-0.0972784
-0.0960433
-0.0950171
-0.0942245
-0.0936536
-0.0932857
-0.093106
-0.0931061
-0.0932861
-0.0936543
-0.0942257
-0.0950192
-0.0960466
-0.0972836
-0.0985916
-0.0995368
-0.0990663
-0.0953388
-0.0883607
-0.0820894
-0.0776228
-0.0732215
-0.0701789
-0.0751104
-0.0811343
-0.0893483
-0.096689
-0.0985343
-0.0973822
-0.0954388
-0.0935934
-0.092087
-0.0909328
-0.0900849
-0.0894936
-0.0891202
-0.0889399
-0.08894
-0.0891207
-0.0894945
-0.0900863
-0.0909351
-0.0920905
-0.0935986
-0.0954464
-0.0973931
-0.098549
-0.0967062
-0.0893601
-0.0811387
-0.0751069
-0.0700857
-0.0675113
-0.0733582
-0.0814231
-0.0915718
-0.0970612
-0.0962877
-0.0937545
-0.0912138
-0.0891653
-0.0876229
-0.0864948
-0.0856898
-0.0851388
-0.084795
-0.08463
-0.0846302
-0.0847955
-0.0851397
-0.0856912
-0.0864968
-0.0876257
-0.0891693
-0.0912192
-0.093762
-0.0962981
-0.0970759
-0.0915866
-0.0814337
-0.0733404
-0.0675482
-0.0652512
-0.0712641
-0.0811829
-0.0920691
-0.0935671
-0.0910522
-0.088129
-0.0857338
-0.0839495
-0.0826517
-0.0817173
-0.0810556
-0.0806047
-0.080324
-0.0801896
-0.0801897
-0.0803245
-0.0806055
-0.0810569
-0.081719
-0.0826539
-0.0839522
-0.0857369
-0.0881327
-0.091057
-0.0935751
-0.0920827
-0.0811957
-0.0712399
-0.0652634
-0.062356
-0.0680323
-0.0747676
-0.0854031
-0.0851332
-0.082895
-0.0808375
-0.079296
-0.0781549
-0.0773104
-0.0766895
-0.0762418
-0.0759328
-0.0757388
-0.0756455
-0.0756456
-0.0757393
-0.0759336
-0.076243
-0.0766909
-0.0773121
-0.0781567
-0.0792978
-0.0808394
-0.0828973
-0.0851377
-0.0854118
-0.0748861
-0.0680413
-0.0623776
-0.0580572
-0.0640156
-0.0703224
-0.0742926
-0.0743497
-0.0737095
-0.0730703
-0.0725841
-0.0721732
-0.0718292
-0.0715516
-0.0713382
-0.0711844
-0.0710851
-0.0710367
-0.0710368
-0.0710855
-0.0711851
-0.0713392
-0.0715529
-0.0718306
-0.0721748
-0.0725858
-0.0730723
-0.0737122
-0.0743543
-0.0743088
-0.070258
-0.0640825
-0.0580668
-0.0521804
-0.0543581
-0.0662345
-0.0654171
-0.065434
-0.0657332
-0.0660339
-0.0662526
-0.066381
-0.0664362
-0.0664492
-0.0664423
-0.0664292
-0.0664173
-0.0664106
-0.0664107
-0.0664177
-0.0664298
-0.0664432
-0.0664503
-0.0664375
-0.0663825
-0.0662544
-0.0660361
-0.0657361
-0.0654379
-0.0654266
-0.066201
-0.0543457
-0.0521596
-0.0423226
-0.051666
-0.0585698
-0.0596376
-0.0591911
-0.0595027
-0.0600414
-0.0605649
-0.06098
-0.0612832
-0.0614959
-0.0616407
-0.0617357
-0.061793
-0.0618197
-0.0618198
-0.0617933
-0.0617363
-0.0616415
-0.0614968
-0.0612844
-0.0609813
-0.0605664
-0.0600432
-0.0595046
-0.0591929
-0.059638
-0.058566
-0.0516566
-0.0423465
-0.0349736
-0.0472876
-0.0534228
-0.0543465
-0.0540442
-0.0543256
-0.0548894
-0.0554953
-0.0560203
-0.0564429
-0.0567647
-0.0570003
-0.0571638
-0.0572664
-0.0573152
-0.0573153
-0.0572666
-0.0571642
-0.0570009
-0.0567655
-0.0564438
-0.0560213
-0.0554964
-0.0548905
-0.0543263
-0.0540437
-0.0543432
-0.0534116
-0.0472948
-0.0349685
-0.0310041
-0.0423131
-0.0465576
-0.0487398
-0.0491003
-0.049701
-0.0503355
-0.0509469
-0.0514893
-0.0519352
-0.0522893
-0.0525587
-0.0527512
-0.0528742
-0.0529327
-0.0529328
-0.0528743
-0.0527514
-0.0525591
-0.0522898
-0.0519358
-0.05149
-0.0509475
-0.0503361
-0.0497011
-0.0490991
-0.0487364
-0.0465474
-0.0423451
-0.0310036
-0.0299991
-0.0384269
-0.0416503
-0.0443954
-0.0450945
-0.0458086
-0.0463652
-0.0468705
-0.0473185
-0.0477104
-0.0480348
-0.0482899
-0.0484766
-0.0485975
-0.0486546
-0.0486546
-0.0485975
-0.0484766
-0.04829
-0.0480349
-0.0477106
-0.0473188
-0.0468709
-0.0463655
-0.0458085
-0.0450938
-0.0443937
-0.041647
-0.0384304
-0.0300016