/*--------------------------------*- C++ -*----------------------------------*\
| =========                 |                                                 |
| \\      /  F ield         | OpenFOAM: The Open Source CFD Toolbox           |
|  \\    /   O peration     | Version:  v1606+                                |
|   \\  /    A nd           | Web:      www.OpenFOAM.com                      |
|    \\/     M anipulation  |                                                 |
\*---------------------------------------------------------------------------*/
FoamFile
{
    version     2.0;
    format      ascii;
    class       surfaceScalarField;
    location    "1.71";
    object      phi;
}
// * * * * * * * * * * * * * * * * * * * * * * * * * * * * * * * * * * * * * //

dimensions      [0 3 -1 0 0 0 0];

internalField   nonuniform List<scalar> 
11770
(
1.48069e-08
4.66374e-05
-2.67848e-07
4.72659e-05
-1.45603e-06
4.83591e-05
-1.32004e-06
4.70287e-05
-1.69699e-07
4.59903e-05
3.32161e-06
4.35824e-05
6.53626e-06
4.37746e-05
5.51621e-06
4.77858e-05
2.43548e-06
4.97516e-05
1.10603e-06
4.74714e-05
9.68812e-07
4.59213e-05
1.91371e-06
4.48187e-05
1.46771e-06
4.6315e-05
-4.60404e-07
4.77206e-05
-1.06764e-06
4.63891e-05
-1.55079e-06
4.62729e-05
-2.64041e-06
4.7192e-05
-4.32183e-06
4.82836e-05
-6.25344e-06
4.88821e-05
-4.11543e-06
4.5009e-05
-1.20641e-06
4.43532e-05
1.27483e-06
4.48441e-05
4.57068e-06
4.40277e-05
7.57841e-06
4.43413e-05
1.01357e-05
4.48466e-05
7.23528e-06
5.05244e-05
3.76987e-07
5.45339e-05
-8.81608e-07
4.85681e-05
1.32763e-06
4.48302e-05
4.82433e-05
-1.49315e-06
5.10144e-05
-5.39554e-06
5.39355e-05
-5.75631e-06
5.14987e-05
-4.9216e-06
4.89178e-05
-3.01718e-06
4.67798e-05
1.32212e-06
4.18279e-05
7.60501e-06
4.01317e-05
1.29357e-05
4.56237e-05
1.39884e-05
5.22119e-05
1.236e-05
5.23029e-05
1.04357e-05
5.06533e-05
7.75199e-06
5.02194e-05
3.81305e-06
5.30468e-05
-2.55979e-06
5.69267e-05
-5.83229e-06
5.23875e-05
-9.01277e-06
5.223e-05
-1.19239e-05
5.32317e-05
-1.35798e-05
5.32123e-05
-1.11171e-05
4.9635e-05
-7.27908e-06
4.37607e-05
-2.50189e-06
4.20695e-05
1.77613e-06
4.30497e-05
4.49742e-06
4.3736e-05
7.89294e-06
4.33715e-05
1.05833e-05
4.45831e-05
8.65881e-06
5.51127e-05
3.14542e-06
6.28398e-05
-1.86097e-06
5.61796e-05
-9.60509e-07
4.648e-05
5.01886e-05
-6.27355e-06
5.77468e-05
-9.25367e-06
5.72588e-05
-9.63515e-06
5.21481e-05
-8.68374e-06
4.82094e-05
-7.81243e-06
4.61507e-05
-4.56647e-06
3.88054e-05
3.87132e-06
3.19225e-05
1.37208e-05
3.60709e-05
1.8443e-05
4.78919e-05
2.10983e-05
5.02957e-05
2.15806e-05
5.08297e-05
1.69336e-05
5.55223e-05
7.94984e-06
6.27323e-05
-4.00462e-06
6.96341e-05
-1.18438e-05
6.08687e-05
-1.49685e-05
5.59705e-05
-1.70912e-05
5.60137e-05
-1.75442e-05
5.41098e-05
-1.44429e-05
4.68778e-05
-7.08825e-06
3.66379e-05
-2.30096e-06
3.74879e-05
1.86395e-06
3.90845e-05
4.67786e-06
4.1117e-05
8.34838e-06
3.98896e-05
8.32448e-06
4.47956e-05
7.86294e-06
5.57968e-05
7.49421e-06
6.34976e-05
3.50295e-06
6.04812e-05
1.89165e-06
4.83437e-05
5.24483e-05
-1.23723e-06
5.91036e-05
-1.40251e-06
5.75477e-05
-2.51311e-06
5.33465e-05
-4.35389e-06
5.01252e-05
-7.1179e-06
4.89881e-05
-6.15868e-06
3.79139e-05
3.21765e-07
2.55048e-05
1.13434e-05
2.51181e-05
2.01286e-05
3.91978e-05
2.55363e-05
4.50529e-05
2.82948e-05
4.84543e-05
2.55594e-05
5.86268e-05
1.44728e-05
7.42075e-05
2.00816e-06
8.25041e-05
-1.14219e-05
7.4671e-05
-1.76562e-05
6.25375e-05
-2.09346e-05
5.95311e-05
-2.13513e-05
5.46298e-05
-1.78022e-05
4.34109e-05
-1.2818e-05
3.17199e-05
-1.2947e-05
3.76831e-05
-1.11271e-05
3.73308e-05
-4.92864e-06
3.49851e-05
8.73767e-07
3.41525e-05
2.41778e-06
4.33198e-05
6.65847e-06
5.16294e-05
1.14835e-05
5.87535e-05
1.12128e-05
6.08315e-05
3.47595e-06
5.61714e-05
5.60495e-05
1.90913e-06
5.7263e-05
2.68582e-06
5.68465e-05
2.30753e-06
5.37929e-05
8.6691e-07
5.16295e-05
2.11663e-07
4.9705e-05
-1.26313e-07
3.83082e-05
4.13145e-06
2.12959e-05
1.10855e-05
1.82109e-05
2.02877e-05
3.00484e-05
2.7452e-05
3.7944e-05
3.03747e-05
4.57446e-05
2.761e-05
6.16087e-05
1.79333e-05
8.41683e-05
9.52286e-06
9.11908e-05
-3.69973e-06
8.81479e-05
-1.64163e-05
7.54625e-05
-2.2367e-05
6.55688e-05
-2.37459e-05
5.60586e-05
-2.18447e-05
4.15653e-05
-2.22484e-05
3.21764e-05
-2.53073e-05
4.07989e-05
-2.43334e-05
3.64132e-05
-1.8013e-05
2.87189e-05
-9.97052e-06
2.61636e-05
-1.73334e-06
3.51392e-05
5.49342e-06
4.44609e-05
8.95674e-06
5.53501e-05
8.77864e-06
6.10688e-05
3.58526e-06
6.1441e-05
5.97187e-05
1.30528e-06
5.6021e-05
2.52756e-06
5.56882e-05
3.81625e-06
5.25653e-05
4.89535e-06
5.06095e-05
7.52479e-06
4.71328e-05
1.13193e-05
3.45668e-05
1.40124e-05
1.86464e-05
1.51117e-05
1.71518e-05
1.94287e-05
2.57742e-05
2.41245e-05
3.32885e-05
2.68686e-05
4.30749e-05
2.44504e-05
6.42036e-05
1.63154e-05
9.25211e-05
1.07341e-05
9.70041e-05
2.77578e-06
9.63052e-05
-1.20216e-05
9.03823e-05
-1.95462e-05
7.30989e-05
-2.03593e-05
5.68993e-05
-2.24382e-05
4.3691e-05
-2.82105e-05
3.79999e-05
-3.0011e-05
4.26551e-05
-2.91437e-05
3.55987e-05
-2.66692e-05
2.62933e-05
-2.22176e-05
2.17594e-05
-1.27193e-05
2.56912e-05
-2.09323e-06
3.38887e-05
5.1629e-06
4.81512e-05
5.87204e-06
6.04201e-05
2.89754e-06
6.44855e-05
6.26843e-05
1.3362e-06
5.47464e-05
4.01474e-06
5.30707e-05
6.38112e-06
5.0258e-05
8.50203e-06
4.85453e-05
1.42347e-05
4.14521e-05
2.05806e-05
2.82652e-05
2.04458e-05
1.88192e-05
1.8127e-05
1.95069e-05
1.85163e-05
2.54232e-05
1.91506e-05
3.26919e-05
2.07833e-05
4.14822e-05
2.03966e-05
6.47537e-05
1.37559e-05
9.93502e-05
8.12627e-06
0.000102855
3.238e-06
0.000101462
-5.63403e-06
9.94093e-05
-1.15894e-05
7.90567e-05
-1.16994e-05
5.70176e-05
-1.45436e-05
4.65685e-05
-1.95726e-05
4.30697e-05
-2.17287e-05
4.48607e-05
-2.22854e-05
3.62033e-05
-2.39708e-05
2.8022e-05
-2.65741e-05
2.44048e-05
-2.51449e-05
2.43071e-05
-1.95227e-05
2.83156e-05
-9.20584e-06
3.78874e-05
-1.30108e-06
5.25736e-05
4.58827e-07
6.2789e-05
6.32052e-05
4.04371e-06
5.07622e-05
8.98115e-06
4.81914e-05
1.24098e-05
4.68863e-05
1.61058e-05
4.49028e-05
1.98315e-05
3.77733e-05
1.93993e-05
2.87372e-05
1.67064e-05
2.15484e-05
1.44808e-05
2.17681e-05
1.37458e-05
2.61942e-05
1.26925e-05
3.37826e-05
1.29715e-05
4.12433e-05
1.49811e-05
6.28746e-05
1.24791e-05
0.000102035
6.95112e-06
0.000108588
2.88862e-06
0.000105835
-1.07144e-07
0.00010268
-3.12971e-06
8.2136e-05
-3.53462e-06
5.74386e-05
-5.5111e-06
4.85764e-05
-8.01228e-06
4.56068e-05
-9.62064e-06
4.6511e-05
-1.17527e-05
3.83776e-05
-1.53264e-05
3.16366e-05
-2.04607e-05
2.95816e-05
-2.60717e-05
2.99661e-05
-2.93423e-05
3.16385e-05
-2.48673e-05
3.3467e-05
-1.35134e-05
4.12777e-05
-5.19501e-06
5.45337e-05
5.80729e-05
8.32461e-06
4.24955e-05
1.45225e-05
4.2053e-05
1.78264e-05
4.36439e-05
1.88907e-05
4.38997e-05
1.59054e-05
4.08161e-05
1.09204e-05
3.37703e-05
8.12763e-06
2.43813e-05
6.94373e-06
2.29887e-05
6.47259e-06
2.67014e-05
6.06365e-06
3.4229e-05
5.42814e-06
4.19229e-05
8.00729e-06
6.04024e-05
1.04229e-05
9.97781e-05
6.69292e-06
0.000112489
4.5079e-06
0.000108276
5.54769e-06
0.000101948
5.7926e-06
8.20181e-05
4.23241e-06
5.90452e-05
2.26681e-06
5.05833e-05
7.51119e-07
4.71626e-05
1.08219e-06
4.62228e-05
-2.96484e-07
3.97993e-05
-3.42146e-06
3.48035e-05
-9.45176e-06
3.56554e-05
-2.3014e-05
4.35814e-05
-3.09146e-05
3.95982e-05
-2.88827e-05
3.14982e-05
-2.01256e-05
3.25866e-05
-1.17005e-05
4.6182e-05
4.64417e-05
1.08985e-05
3.16548e-05
1.25166e-05
4.04989e-05
1.32783e-05
4.29483e-05
1.15818e-05
4.56656e-05
5.85628e-06
4.66091e-05
-2.04006e-06
4.17234e-05
-3.73576e-06
2.61191e-05
-1.3665e-06
2.06592e-05
3.18679e-07
2.50532e-05
9.59261e-07
3.36271e-05
-1.10875e-06
4.40387e-05
-9.53754e-07
6.03345e-05
4.44675e-06
9.451e-05
5.26576e-06
0.000111812
7.25514e-06
0.000106468
1.21206e-05
9.73024e-05
1.45749e-05
7.9697e-05
1.24232e-05
6.12655e-05
1.02299e-05
5.28276e-05
8.51968e-06
4.89187e-05
8.90615e-06
4.58823e-05
9.68021e-06
3.90699e-05
9.57337e-06
3.49518e-05
-2.25177e-06
4.75258e-05
-1.93775e-05
6.07659e-05
-2.35344e-05
4.38146e-05
-2.07144e-05
2.87384e-05
-1.70358e-05
2.89729e-05
-1.45393e-05
4.37593e-05
3.19665e-05
7.34592e-06
2.43647e-05
7.87268e-06
4.00351e-05
9.51979e-06
4.13646e-05
1.02748e-05
4.49762e-05
8.27765e-06
4.86735e-05
6.56121e-07
4.94118e-05
-7.61657e-06
3.44418e-05
-7.16325e-06
2.02437e-05
-2.33135e-06
2.02594e-05
-3.69958e-07
3.17042e-05
-2.56823e-06
4.62852e-05
-5.94524e-06
6.37876e-05
-2.11941e-06
9.08024e-05
3.19248e-06
0.000106625
9.22807e-06
0.000100566
1.59093e-05
9.07647e-05
1.85936e-05
7.71231e-05
1.63046e-05
6.36289e-05
1.35851e-05
5.56041e-05
1.20366e-05
5.05164e-05
1.26616e-05
4.53027e-05
1.48332e-05
3.69401e-05
4.08058e-06
4.57451e-05
-1.94482e-05
7.11064e-05
-2.83651e-05
6.97368e-05
-2.51797e-05
4.06829e-05
-1.98426e-05
2.34533e-05
-1.60602e-05
2.52457e-05
-8.92399e-06
3.66858e-05
2.30948e-05
3.71696e-06
2.07012e-05
6.58829e-06
3.7222e-05
1.00214e-05
3.79903e-05
1.46532e-05
4.04044e-05
1.90434e-05
4.43446e-05
2.04396e-05
4.80793e-05
1.12358e-05
4.37059e-05
8.23444e-07
3.0702e-05
-1.52904e-07
2.12709e-05
3.06996e-06
2.85171e-05
1.42029e-06
4.79848e-05
-4.68418e-06
6.99701e-05
-4.03016e-06
9.02659e-05
3.30585e-06
9.94127e-05
1.01868e-05
9.38053e-05
1.59684e-05
8.50993e-05
1.78289e-05
7.53616e-05
1.57455e-05
6.5789e-05
1.27386e-05
5.86734e-05
1.05908e-05
5.27164e-05
9.9699e-06
4.59693e-05
1.97746e-06
4.49671e-05
-2.83791e-05
7.61456e-05
-4.46295e-05
8.74088e-05
-3.62279e-05
6.13875e-05
-2.41892e-05
2.86933e-05
-1.51733e-05
1.44849e-05
-1.03415e-05
2.04645e-05
-4.1064e-06
3.05053e-05
1.90372e-05
4.48816e-06
1.62649e-05
7.38556e-06
3.43801e-05
1.24559e-05
3.29755e-05
1.86538e-05
3.42627e-05
2.61499e-05
3.69061e-05
3.59543e-05
3.83341e-05
4.22927e-05
3.74282e-05
3.57406e-05
3.73123e-05
2.26431e-05
3.44181e-05
1.58683e-05
3.53308e-05
1.10013e-05
5.29092e-05
3.08118e-06
7.7983e-05
6.84554e-07
9.27869e-05
5.5522e-06
9.4686e-05
1.0795e-05
8.86955e-05
1.44051e-05
8.16079e-05
1.53079e-05
7.45591e-05
1.36381e-05
6.75408e-05
1.03598e-05
6.20203e-05
6.09985e-06
5.70347e-05
-2.87568e-06
5.4992e-05
-3.46915e-05
7.68232e-05
-6.26343e-05
0.000104129
-5.49735e-05
7.98009e-05
-3.38076e-05
4.02746e-05
-1.90129e-05
1.39441e-05
-1.20012e-05
7.51731e-06
-8.22897e-06
1.67403e-05
-6.4424e-06
2.87698e-05
1.26405e-05
4.01876e-06
1.22954e-05
5.62974e-06
3.28246e-05
1.1835e-05
2.68248e-05
1.95305e-05
2.66219e-05
2.8563e-05
2.79291e-05
3.9365e-05
2.75885e-05
5.08283e-05
2.60231e-05
6.17454e-05
2.64585e-05
6.56256e-05
3.06072e-05
6.10753e-05
3.99563e-05
4.79386e-05
6.61358e-05
2.9686e-05
9.63557e-05
2.00993e-05
0.000102516
1.49037e-05
0.000100042
1.41472e-05
8.96027e-05
1.4555e-05
8.13321e-05
1.43268e-05
7.48986e-05
1.25701e-05
6.93912e-05
7.82507e-06
6.68462e-05
-2.99246e-06
6.7924e-05
-3.17318e-05
8.38021e-05
-7.38376e-05
0.000119008
-7.60145e-05
0.000106375
-4.86192e-05
5.24528e-05
-2.38092e-05
1.55122e-05
-1.40991e-05
4.27635e-06
-1.26713e-05
6.13221e-06
-1.04185e-05
1.4534e-05
-4.91653e-06
2.33173e-05
7.76402e-06
1.42397e-06
1.09177e-05
5.00322e-06
2.92993e-05
1.08985e-05
2.0981e-05
1.78699e-05
1.97016e-05
2.56011e-05
2.02498e-05
3.3572e-05
1.96701e-05
4.24845e-05
1.71644e-05
5.4292e-05
1.47102e-05
6.97263e-05
1.52432e-05
8.57398e-05
2.40307e-05
9.43038e-05
5.76817e-05
8.70939e-05
0.000103699
7.03581e-05
0.000119401
5.41476e-05
0.000116413
4.16291e-05
0.000102273
3.28127e-05
9.02828e-05
2.54655e-05
8.23637e-05
1.61544e-05
7.88083e-05
7.11653e-07
8.23896e-05
-2.555e-05
9.42869e-05
-6.33687e-05
0.000121738
-8.29608e-05
0.000138724
-6.38335e-05
8.73331e-05
-3.33484e-05
2.20186e-05
-1.72266e-05
-5.68612e-07
-1.29341e-05
2.49645e-08
-1.29991e-05
6.23988e-06
-9.74862e-06
1.13276e-05
-4.63926e-07
1.40773e-05
7.3347e-06
-1.32436e-07
1.1094e-05
4.52505e-06
2.46932e-05
9.48173e-06
1.60721e-05
1.4966e-05
1.42644e-05
2.12188e-05
1.40445e-05
2.74177e-05
1.35197e-05
3.3046e-05
1.15857e-05
3.95005e-05
8.30777e-06
4.95822e-05
5.21968e-06
6.54475e-05
8.23637e-06
8.75474e-05
3.56758e-05
0.000108335
8.30306e-05
0.000113181
0.000114692
0.000108636
0.000121102
9.5448e-05
0.0001156
7.56292e-05
0.00011023
5.1288e-05
0.000106826
2.29624e-05
0.000107252
-8.71207e-06
0.000114184
-4.22283e-05
0.000127931
-6.66545e-05
0.000146308
-6.47243e-05
0.000136931
-4.20443e-05
6.47419e-05
-2.24371e-05
2.45809e-06
-1.48329e-05
-8.13565e-06
-1.21625e-05
-2.60549e-06
-1.02827e-05
4.40165e-06
-5.79503e-06
6.88003e-06
4.91347e-07
7.8286e-06
7.85854e-06
-1.29737e-07
1.12657e-05
4.37871e-06
2.02332e-05
8.3409e-06
1.21543e-05
1.23765e-05
1.02724e-05
1.6801e-05
9.66379e-06
2.12168e-05
9.14848e-06
2.49832e-05
7.86499e-06
2.81193e-05
5.21871e-06
3.20046e-05
1.38421e-06
4.03264e-05
-2.78835e-08
5.97498e-05
1.63298e-05
8.53219e-05
5.75575e-05
0.000106439
9.36862e-05
0.000116201
0.000111456
0.000113175
0.000118739
9.62312e-05
0.000127285
6.7746e-05
0.000135419
3.34622e-05
0.000141646
-8.02789e-07
0.000148563
-3.02963e-05
0.000157546
-4.6425e-05
0.000162568
-4.25694e-05
0.000133201
-2.69182e-05
4.91729e-05
-1.63204e-05
-8.09651e-06
-1.25944e-05
-1.18241e-05
-1.03533e-05
-4.80756e-06
-7.03901e-06
1.12625e-06
-3.08129e-06
2.95859e-06
-7.68801e-08
4.85762e-06
7.81375e-06
2.90918e-07
1.10147e-05
4.37056e-06
1.61989e-05
7.19762e-06
9.36861e-06
9.92713e-06
7.58348e-06
1.28365e-05
6.79515e-06
1.57114e-05
6.31496e-06
1.79932e-05
5.62546e-06
1.91346e-05
4.12073e-06
1.91466e-05
1.41702e-06
2.05173e-05
-1.34922e-06
3.22462e-05
4.66483e-06
5.51339e-05
3.47529e-05
7.99986e-05
6.89178e-05
9.83345e-05
9.32216e-05
0.000105015
0.000112162
9.52888e-05
0.000137117
7.07114e-05
0.000160103
3.93856e-05
0.000173081
9.37506e-06
0.000178688
-1.44777e-05
0.00018152
-2.77991e-05
0.000176017
-2.68135e-05
0.000132334
-1.38652e-05
3.63054e-05
-9.6159e-06
-1.23036e-05
-9.19558e-06
-1.22053e-05
-7.98853e-06
-5.97609e-06
-4.88697e-06
-1.93859e-06
-2.09196e-06
1.97428e-07
-4.69045e-07
3.26709e-06
7.37716e-06
2.17236e-07
1.08349e-05
3.94177e-06
1.25162e-05
5.82164e-06
7.52772e-06
7.65481e-06
5.78873e-06
9.48148e-06
5.00689e-06
1.1169e-05
4.66629e-06
1.22964e-05
4.53778e-06
1.22009e-05
4.25681e-06
1.0242e-05
3.41752e-06
7.13757e-06
1.79923e-06
8.97491e-06
2.88099e-06
2.48206e-05
1.89778e-05
4.74971e-05
4.6326e-05
7.00378e-05
7.07727e-05
8.59981e-05
9.62989e-05
8.51911e-05
0.000138028
6.68631e-05
0.000178539
3.95196e-05
0.000200536
1.34257e-05
0.000204898
-6.97554e-06
0.000202043
-1.86752e-05
0.000187841
-1.87898e-05
0.000132564
-5.22031e-06
2.2813e-05
-5.07695e-06
-1.24045e-05
-6.36537e-06
-1.08767e-05
-5.62481e-06
-6.6786e-06
-3.51141e-06
-4.01672e-06
-1.70135e-06
-1.57951e-06
-4.71583e-07
2.06974e-06
6.93852e-06
1.46021e-07
1.07243e-05
3.06636e-06
9.63407e-06
4.37869e-06
6.25242e-06
5.69432e-06
4.50978e-06
6.85931e-06
3.87853e-06
7.73553e-06
3.82694e-06
8.04809e-06
4.26269e-06
7.38353e-06
4.95975e-06
5.25882e-06
5.58179e-06
1.16538e-06
5.93394e-06
-2.70964e-06
6.80221e-06
3.12741e-06
1.32002e-05
1.99782e-05
2.9548e-05
4.23024e-05
4.85295e-05
6.09131e-05
7.77777e-05
6.57152e-05
0.000133325
5.38333e-05
0.000190529
3.20759e-05
0.000222405
1.04431e-05
0.000226647
-5.66525e-06
0.00021827
-1.27282e-05
0.000195025
-8.99937e-06
0.000128944
1.69775e-06
1.21818e-05
-1.62802e-06
-9.0356e-06
-3.92391e-06
-8.54068e-06
-3.69408e-06
-6.87146e-06
-2.59473e-06
-5.08136e-06
-1.31781e-06
-2.82312e-06
-1.07754e-07
8.9232e-07
6.86395e-06
2.48925e-07
1.05094e-05
2.17924e-06
7.73896e-06
3.29448e-06
5.17252e-06
4.2784e-06
3.56099e-06
5.03219e-06
3.15982e-06
5.38542e-06
3.50889e-06
5.10201e-06
4.58177e-06
3.92042e-06
6.17798e-06
1.80463e-06
7.73555e-06
-1.54013e-06
9.3185e-06
-5.9226e-06
1.12274e-05
-7.87946e-06
1.52071e-05
-8.6573e-07
2.25946e-05
1.63626e-05
3.13689e-05
3.40872e-05
6.01311e-05
3.60577e-05
0.00013145
2.85955e-05
0.000198097
1.49183e-05
0.000236194
1.94677e-07
0.000241485
-8.90569e-06
0.000227487
-6.59005e-06
0.000192825
2.05306e-06
0.000120407
4.47241e-06
9.81731e-06
1.85523e-07
-4.70728e-06
-1.7185e-06
-6.59836e-06
-2.27778e-06
-6.27614e-06
-1.93574e-06
-5.38846e-06
-8.97134e-07
-3.82757e-06
6.00696e-07
-5.72496e-07
7.49683e-06
4.15608e-07
1.01274e-05
1.74496e-06
6.44313e-06
2.82494e-06
4.12642e-06
3.62719e-06
2.79258e-06
4.16905e-06
2.65173e-06
4.20189e-06
3.50997e-06
3.40308e-06
5.4152e-06
1.35526e-06
8.26173e-06
-1.41063e-06
1.05389e-05
-4.54666e-06
1.24938e-05
-8.01733e-06
1.47398e-05
-1.05932e-05
1.78285e-05
-9.91841e-06
2.19706e-05
-4.75595e-06
2.62606e-05
3.17985e-06
5.22615e-05
-1.18601e-06
0.000135909
-6.17621e-06
0.000203196
-9.76208e-06
0.000239896
-1.34524e-05
0.000245293
-1.25402e-05
0.000226694
2.13116e-06
0.000178273
1.48776e-05
0.000107765
8.28675e-06
1.64635e-05
2.48712e-06
1.13165e-06
-8.8348e-08
-3.9864e-06
-1.28302e-06
-5.04592e-06
-1.15346e-06
-5.48254e-06
-1.43824e-07
-4.80211e-06
-3.61465e-07
-3.18744e-07
7.17321e-06
6.34161e-07
9.52668e-06
1.78647e-06
5.32361e-06
2.90447e-06
3.04133e-06
3.78331e-06
1.9467e-06
4.39242e-06
2.07563e-06
4.39685e-06
3.53905e-06
3.34242e-06
6.50423e-06
-4.55321e-07
1.20964e-05
-4.96766e-06
1.50901e-05
-8.18426e-06
1.57505e-05
-1.0731e-05
1.73287e-05
-1.19429e-05
1.90844e-05
-1.24325e-05
2.25062e-05
-1.72515e-05
3.11269e-05
-2.92245e-05
6.43013e-05
-3.8451e-05
0.000145237
-3.93606e-05
0.000204228
-3.09311e-05
0.000231594
-2.03119e-05
0.000234803
-8.80199e-06
0.000215315
1.41186e-05
0.000155479
3.35075e-05
8.84786e-05
2.10887e-05
2.89438e-05
6.47377e-06
1.57915e-05
-1.36959e-07
2.66337e-06
-1.02929e-06
-4.11811e-06
5.01505e-07
-6.97817e-06
1.87206e-06
-6.13797e-06
2.50361e-07
1.34228e-06
7.47029e-06
8.46446e-07
8.71365e-06
2.12622e-06
4.07628e-06
3.4152e-06
1.78479e-06
4.59831e-06
7.9613e-07
5.59644e-06
1.11037e-06
6.17972e-06
2.98967e-06
5.83577e-06
6.8835e-06
-1.8794e-06
1.98503e-05
-1.02772e-05
2.35295e-05
-1.31628e-05
1.86776e-05
-1.41378e-05
1.83462e-05
-1.35857e-05
1.85746e-05
-1.83613e-05
2.73261e-05
-3.85002e-05
5.13208e-05
-6.55901e-05
9.14748e-05
-6.85754e-05
0.00014834
-5.78619e-05
0.00019365
-3.99391e-05
0.000213814
-2.06842e-05
0.000215694
7.55599e-08
0.000194697
2.31843e-05
0.000132494
3.98766e-05
7.18811e-05
2.38399e-05
4.50505e-05
6.7796e-06
3.29127e-05
-2.42885e-06
1.19241e-05
-1.48193e-06
-5.0256e-06
5.17094e-07
-8.94217e-06
-3.09466e-07
-5.27519e-06
-1.6969e-06
2.77473e-06
5.82166e-06
1.09285e-06
7.65437e-06
2.55587e-06
2.64552e-06
4.11019e-06
2.62651e-07
5.77984e-06
-8.4116e-07
7.70199e-06
-7.7866e-07
9.71199e-06
1.01397e-06
1.0036e-05
6.59978e-06
-2.21237e-06
3.21482e-05
-1.62746e-05
3.7642e-05
-1.98302e-05
2.22758e-05
-2.10998e-05
1.96584e-05
-2.47767e-05
2.22952e-05
-4.25336e-05
4.51393e-05
-6.84686e-05
7.7331e-05
-8.70903e-05
0.000110192
-8.13174e-05
0.000142685
-6.34147e-05
0.000175882
-4.23882e-05
0.00019293
-1.92963e-05
0.000192747
7.39392e-06
0.000168143
2.49838e-05
0.000115013
2.65458e-05
7.04011e-05
1.28739e-05
5.87937e-05
4.597e-06
4.12552e-05
1.22194e-06
1.5357e-05
4.53232e-07
-4.21146e-06
-8.21754e-07
-7.62893e-06
-2.10917e-06
-3.94742e-06
-1.83665e-06
2.54696e-06
4.03006e-06
1.3874e-06
6.30103e-06
2.85352e-06
1.21169e-06
4.58171e-06
-1.43354e-06
6.8072e-06
-3.03427e-06
1.03511e-05
-4.28912e-06
1.80443e-05
-6.64256e-06
2.49965e-05
-3.02495e-07
1.66061e-05
4.0606e-05
-4.183e-06
5.84995e-05
-2.43077e-05
4.2458e-05
-4.14991e-05
3.69038e-05
-6.20561e-05
4.2914e-05
-8.04818e-05
6.36413e-05
-8.77891e-05
8.4724e-05
-8.70164e-05
0.000109512
-7.91159e-05
0.000134887
-6.36088e-05
0.00016049
-4.27591e-05
0.000172203
-1.91717e-05
0.000169282
2.73196e-06
0.000146353
9.67068e-06
0.000108166
2.736e-06
7.74109e-05
-1.95319e-07
6.17951e-05
4.24957e-06
3.68746e-05
7.94591e-06
1.17158e-05
5.21564e-06
-1.43484e-06
1.73825e-06
-4.11048e-06
-3.2335e-07
-1.84498e-06
-4.88644e-07
2.75479e-06
3.58362e-06
1.46677e-06
4.86916e-06
2.69677e-06
1.43005e-08
4.2598e-06
-2.96473e-06
6.59555e-06
-5.33811e-06
1.09958e-05
-8.65577e-06
1.75331e-05
-1.31427e-05
2.23553e-05
-5.06942e-06
2.40746e-05
3.89578e-05
6.80359e-06
7.58466e-05
-2.70432e-05
7.63786e-05
-6.18372e-05
7.17679e-05
-8.78137e-05
6.89662e-05
-9.59226e-05
7.18334e-05
-9.27264e-05
8.16132e-05
-8.33766e-05
0.000100249
-7.28799e-05
0.000124481
-5.85916e-05
0.000146299
-4.25187e-05
0.000156231
-2.7012e-05
0.000153877
-1.60299e-05
0.000135466
-1.27731e-05
0.000104992
-1.03792e-05
7.50908e-05
-2.19224e-06
5.36763e-05
7.91916e-06
2.68233e-05
1.11046e-05
8.58074e-06
8.62982e-06
1.08347e-06
4.86592e-06
-3.06251e-07
2.06593e-06
9.94892e-07
6.95499e-07
4.16638e-06
4.31974e-06
1.03312e-06
3.87099e-06
1.87146e-06
-7.90388e-07
2.68736e-06
-3.74862e-06
4.00915e-06
-6.6281e-06
5.9952e-06
-1.06086e-05
7.02072e-06
-1.41308e-05
8.88038e-06
-6.87456e-06
1.71713e-05
3.0736e-05
6.75156e-06
8.63436e-05
-2.341e-05
0.000106618
-6.0532e-05
0.000108966
-8.63643e-05
9.48763e-05
-9.44717e-05
8.00228e-05
-9.18479e-05
7.90735e-05
-8.1642e-05
9.01274e-05
-6.88129e-05
0.000111738
-5.60666e-05
0.00013364
-4.43481e-05
0.000144602
-3.52241e-05
0.000144842
-2.81159e-05
0.000128443
-1.96984e-05
9.66539e-05
-1.03044e-05
6.57685e-05
3.71108e-06
3.97247e-05
1.21259e-05
1.84626e-05
1.27254e-05
8.02734e-06
9.90032e-06
3.94973e-06
6.33555e-06
3.29796e-06
3.39479e-06
3.97485e-06
1.49816e-06
6.10317e-06
5.85734e-06
-5.86893e-08
3.9642e-06
-8.29663e-07
1.54548e-08
-7.29608e-07
-3.81538e-06
-5.61074e-07
-6.7631e-06
-1.67843e-06
-9.4579e-06
-4.28505e-06
-1.14861e-05
-3.89093e-06
-7.21908e-06
7.53122e-06
1.93777e-05
7.66647e-06
8.62855e-05
-1.48816e-05
0.000129247
-4.53206e-05
0.000139487
-7.24121e-05
0.000122047
-8.5638e-05
9.3329e-05
-8.65482e-05
8.00657e-05
-7.90379e-05
8.26999e-05
-6.5759e-05
9.85415e-05
-5.2183e-05
0.000120148
-4.11791e-05
0.000133682
-3.23316e-05
0.000136078
-2.41489e-05
0.000120342
-1.36597e-05
8.624e-05
-1.39048e-06
5.35666e-05
1.11573e-05
2.72344e-05
1.49104e-05
1.47583e-05
1.34928e-05
9.48789e-06
1.02655e-05
7.21668e-06
6.89076e-06
6.71135e-06
4.00341e-06
6.90062e-06
1.94987e-06
8.19576e-06
7.84544e-06
-1.0018e-06
4.99941e-06
-3.3545e-06
2.40313e-06
-5.67003e-06
-1.46486e-06
-7.48466e-06
-4.9126e-06
-9.70759e-06
-7.19949e-06
-1.21861e-05
-8.96966e-06
-1.17723e-05
-7.58822e-06
-1.48602e-06
9.14797e-06
1.06263e-05
7.42483e-05
-4.9762e-06
0.000144933
-2.96671e-05
0.000164262
-5.65916e-05
0.000149054
-7.41611e-05
0.000110979
-7.73455e-05
8.33304e-05
-7.17576e-05
7.71926e-05
-5.93749e-05
8.62394e-05
-4.47039e-05
0.000105557
-3.24744e-05
0.000121534
-2.16073e-05
0.000125292
-1.08535e-05
0.000109665
-1.9216e-06
7.73788e-05
9.37161e-06
4.23344e-05
1.57915e-05
2.08653e-05
1.61125e-05
1.44817e-05
1.35824e-05
1.20586e-05
1.01733e-05
1.06643e-05
6.92776e-06
9.99456e-06
4.10117e-06
9.7646e-06
2.02354e-06
1.03111e-05
9.90588e-06
-1.33912e-06
6.37041e-06
-2.93175e-06
4.02913e-06
-5.70396e-06
1.34163e-06
-9.02573e-06
-1.55602e-06
-1.18668e-05
-4.32314e-06
-1.4131e-05
-6.66876e-06
-1.48497e-05
-6.82889e-06
-8.29714e-06
2.64534e-06
1.07731e-05
5.52476e-05
2.60754e-06
0.000153183
-1.90201e-05
0.000185977
-4.45176e-05
0.000174636
-6.38609e-05
0.000130403
-6.67129e-05
8.62609e-05
-6.10674e-05
7.16242e-05
-5.21403e-05
7.73893e-05
-3.87214e-05
9.2217e-05
-2.36803e-05
0.000106572
-8.31908e-06
0.000110009
4.35174e-06
9.70637e-05
1.1006e-05
7.07909e-05
1.60651e-05
3.73313e-05
1.73701e-05
1.9606e-05
1.58961e-05
1.59967e-05
1.29919e-05
1.50016e-05
9.73748e-06
1.39562e-05
6.66722e-06
1.31014e-05
3.98188e-06
1.2486e-05
1.94668e-06
1.23823e-05
1.18879e-05
-1.42646e-06
7.82726e-06
-2.89259e-06
5.5261e-06
-4.88588e-06
3.36653e-06
-7.46866e-06
1.05925e-06
-1.03984e-05
-1.35987e-06
-1.33229e-05
-3.70952e-06
-1.53364e-05
-4.77783e-06
-1.22888e-05
-3.57571e-07
6.81203e-06
3.62083e-05
6.68081e-06
0.000153399
-1.30695e-05
0.000205818
-3.63748e-05
0.00019803
-5.43334e-05
0.000148445
-5.7919e-05
8.99232e-05
-5.37963e-05
6.75742e-05
-4.56975e-05
6.9363e-05
-3.28534e-05
7.94477e-05
-1.60519e-05
8.98473e-05
2.31099e-06
9.1722e-05
1.62582e-05
8.31906e-05
2.22701e-05
6.48459e-05
2.03868e-05
3.92687e-05
1.73504e-05
2.26851e-05
1.469e-05
1.86955e-05
1.18859e-05
1.78427e-05
9.02054e-06
1.68574e-05
6.24238e-06
1.59147e-05
3.77257e-06
1.49905e-05
1.81663e-06
1.43727e-05
1.37384e-05
-1.45963e-06
9.31614e-06
-3.06099e-06
7.1567e-06
-4.77228e-06
5.10754e-06
-6.75086e-06
3.06839e-06
-9.08035e-06
1.00139e-06
-1.18009e-05
-9.55657e-07
-1.43418e-05
-2.2014e-06
-1.38492e-05
-8.09976e-07
-7.23335e-07
2.31364e-05
5.87221e-06
0.000146887
-1.04443e-05
0.000222228
-2.95932e-05
0.000217272
-4.33637e-05
0.000162301
-4.73277e-05
9.39623e-05
-4.38876e-05
6.42026e-05
-3.8628e-05
6.41711e-05
-2.85337e-05
6.94229e-05
-1.15246e-05
7.29094e-05
7.90056e-06
7.23697e-05
2.27296e-05
6.8439e-05
2.83858e-05
5.92563e-05
2.36744e-05
4.40344e-05
1.70384e-05
2.93633e-05
1.32468e-05
2.2524e-05
1.05318e-05
2.05928e-05
8.05114e-06
1.93722e-05
5.67842e-06
1.83209e-05
3.47853e-06
1.72234e-05
1.63977e-06
1.62442e-05
1.54105e-05
-1.51644e-06
1.08606e-05
-3.2945e-06
8.96255e-06
-5.03619e-06
6.87739e-06
-6.76975e-06
4.83091e-06
-8.63861e-06
2.90052e-06
-1.08287e-05
1.26647e-06
-1.31753e-05
1.79527e-07
-1.43924e-05
4.44644e-07
-9.11047e-06
1.79034e-05
-1.27785e-07
0.000137987
-1.05374e-05
0.000232736
-2.56974e-05
0.00023253
-3.51534e-05
0.000171844
-3.56498e-05
9.45312e-05
-3.21144e-05
6.07301e-05
-2.77464e-05
5.98652e-05
-1.94552e-05
6.1195e-05
-6.85441e-06
6.03724e-05
7.52297e-06
5.80565e-05
2.02078e-05
5.58194e-05
2.6917e-05
5.26081e-05
2.45501e-05
4.64543e-05
1.72141e-05
3.67429e-05
1.20691e-05
2.77058e-05
9.09034e-06
2.36057e-05
6.7942e-06
2.17008e-05
4.85058e-06
2.02963e-05
3.04043e-06
1.90651e-05
1.41249e-06
1.79033e-05
1.68538e-05
-1.6418e-06
1.25288e-05
-3.66374e-06
1.10105e-05
-5.50992e-06
8.7501e-06
-7.04653e-06
6.39479e-06
-8.55374e-06
4.4364e-06
-1.02756e-05
3.01897e-06
-1.22277e-05
2.16473e-06
-1.42395e-05
2.49224e-06
-1.45576e-05
1.82675e-05
-1.08569e-05
0.000134367
-1.47071e-05
0.000236689
-2.28884e-05
0.000240813
-2.32545e-05
0.0001723
-1.88789e-05
9.02245e-05
-1.85345e-05
6.0442e-05
-1.70287e-05
5.84153e-05
-1.23219e-05
5.65445e-05
-5.27523e-06
5.33812e-05
2.58043e-06
5.02554e-05
1.09425e-05
4.75114e-05
1.82996e-05
4.53035e-05
2.06938e-05
4.41096e-05
1.6516e-05
4.09648e-05
1.09296e-05
3.333e-05
7.64811e-06
2.69205e-05
5.52223e-06
2.38582e-05
3.78583e-06
2.20634e-05
2.38511e-06
2.04958e-05
1.08751e-06
1.92306e-05
1.79706e-05
-2.08527e-06
1.4639e-05
-4.12582e-06
1.30753e-05
-6.11409e-06
1.07632e-05
-7.15213e-06
7.45836e-06
-8.22973e-06
5.54105e-06
-9.78518e-06
4.60355e-06
-1.20688e-05
4.48013e-06
-1.54483e-05
5.90656e-06
-2.12215e-05
2.40864e-05
-2.27953e-05
0.000136022
-2.00522e-05
0.000234051
-1.61233e-05
0.000236991
-7.9128e-06
0.00016418
-4.74839e-06
8.71255e-05
-8.33795e-06
6.40838e-05
-9.49567e-06
5.96236e-05
-8.67037e-06
5.57688e-05
-6.41333e-06
5.11719e-05
-3.18881e-06
4.70769e-05
1.02912e-06
4.33383e-05
6.25627e-06
4.01199e-05
1.16192e-05
3.87897e-05
1.32059e-05
3.94201e-05
9.86966e-06
3.67044e-05
6.35681e-06
3.04668e-05
4.3629e-06
2.58829e-05
2.86638e-06
2.3589e-05
1.7188e-06
2.16722e-05
6.9009e-07
2.02876e-05
1.86886e-05
-3.08068e-06
1.77442e-05
-4.51811e-06
1.45382e-05
-6.27737e-06
1.25462e-05
-6.27141e-06
7.47641e-06
-6.93471e-06
6.23007e-06
-8.89619e-06
6.59328e-06
-1.31071e-05
8.72254e-06
-2.04102e-05
1.3246e-05
-3.08523e-05
3.45778e-05
-3.16217e-05
0.000136875
-2.13619e-05
0.000223895
-6.49113e-06
0.000222229
7.49537e-06
0.000150283
6.02331e-06
8.86617e-05
-5.31463e-08
7.02113e-05
-3.46905e-06
6.30866e-05
-5.04347e-06
5.73883e-05
-5.41495e-06
5.15863e-05
-4.86892e-06
4.65719e-05
-3.54259e-06
4.20509e-05
-1.55802e-06
3.81722e-05
1.90118e-06
3.53664e-05
6.32056e-06
3.50375e-05
7.63359e-06
3.54274e-05
5.55097e-06
3.25825e-05
3.49267e-06
2.79712e-05
2.21971e-06
2.48908e-05
1.32434e-06
2.25951e-05
3.46513e-07
2.12924e-05
1.90615e-05
-5.24403e-06
2.30144e-05
-6.46276e-06
1.57862e-05
-4.54035e-06
1.06482e-05
-3.10914e-06
6.06815e-06
-3.53613e-06
6.68198e-06
-7.16198e-06
1.02471e-05
-1.57653e-05
1.73605e-05
-2.7309e-05
2.48331e-05
-3.88789e-05
4.62068e-05
-3.587e-05
0.000133965
-1.79419e-05
0.00020609
7.46505e-06
0.000196936
2.38337e-05
0.000134005
1.95853e-05
9.29771e-05
1.19977e-05
7.78521e-05
5.13499e-06
6.99958e-05
2.20812e-07
6.23449e-05
-3.08131e-06
5.49281e-05
-4.80053e-06
4.83285e-05
-5.00553e-06
4.22908e-05
-4.59294e-06
3.77919e-05
-3.40976e-06
3.42138e-05
-4.2096e-07
3.20794e-05
3.16785e-06
3.18705e-05
4.11191e-06
3.16697e-05
3.04551e-06
2.90667e-05
1.91987e-06
2.60437e-05
1.32193e-06
2.32221e-05
1.89629e-07
2.24501e-05
1.92756e-05
-5.33715e-06
2.83813e-05
-4.1815e-06
1.46592e-05
-5.65384e-07
7.05536e-06
1.41013e-06
4.11362e-06
4.66315e-07
7.64971e-06
-2.20125e-06
1.29432e-05
-9.87127e-06
2.50688e-05
-2.42281e-05
3.9242e-05
-4.07769e-05
6.28261e-05
-3.60914e-05
0.000129393
-8.61902e-06
0.000178761
2.54523e-05
0.000162985
3.9199e-05
0.000120351
3.67848e-05
9.54609e-05
3.03666e-05
8.43262e-05
2.19863e-05
7.84236e-05
1.12352e-05
7.31386e-05
2.0605e-06
6.41417e-05
-3.4925e-06
5.39167e-05
-5.29241e-06
4.4122e-05
-5.63993e-06
3.81682e-05
-5.41497e-06
3.40159e-05
-4.18111e-06
3.08717e-05
-1.33835e-06
2.90545e-05
1.47438e-06
2.88848e-05
2.25954e-06
2.83087e-05
1.88738e-06
2.64419e-05
1.65932e-06
2.34741e-05
1.40732e-07
2.39927e-05
1.9439e-05
2.02443e-06
2.63872e-05
3.86326e-06
1.28482e-05
6.69153e-06
4.24979e-06
7.86435e-06
2.95844e-06
8.54572e-06
6.98975e-06
5.16539e-06
1.63515e-05
-3.41296e-06
3.36855e-05
-1.8954e-05
5.48394e-05
-3.65062e-05
8.04603e-05
-2.87794e-05
0.000121783
4.29621e-06
0.000145816
3.45539e-05
0.000132838
4.46877e-05
0.000110303
4.32916e-05
9.69235e-05
3.74501e-05
9.0223e-05
2.99435e-05
8.59785e-05
1.99373e-05
8.3189e-05
8.61914e-06
7.54982e-05
4.93932e-07
6.20751e-05
-4.66457e-06
4.93097e-05
-5.96506e-06
3.94942e-05
-6.20844e-06
3.42831e-05
-5.82014e-06
3.05062e-05
-4.31836e-06
2.75752e-05
-1.47151e-06
2.60613e-05
8.18451e-07
2.60431e-05
1.66754e-06
2.56169e-05
1.88822e-06
2.32748e-05
3.42061e-08
2.58704e-05
1.94941e-05
9.64991e-06
1.6765e-05
9.85175e-06
1.26742e-05
1.40239e-05
1.00785e-07
1.49173e-05
2.08523e-06
1.34764e-05
8.45118e-06
9.19274e-06
2.06612e-05
3.83608e-06
3.90796e-05
-7.30492e-06
6.60386e-05
-2.09885e-05
9.42299e-05
-1.2751e-05
0.000113655
1.29345e-05
0.000120245
3.22597e-05
0.00011361
3.79073e-05
0.000104733
3.56748e-05
9.92199e-05
3.0038e-05
9.59154e-05
2.40731e-05
9.19917e-05
1.92313e-05