/*--------------------------------*- C++ -*----------------------------------*\
| =========                 |                                                 |
| \\      /  F ield         | OpenFOAM: The Open Source CFD Toolbox           |
|  \\    /   O peration     | Version:  v1606+                                |
|   \\  /    A nd           | Web:      www.OpenFOAM.com                      |
|    \\/     M anipulation  |                                                 |
\*---------------------------------------------------------------------------*/
FoamFile
{
    version     2.0;
    format      ascii;
    class       surfaceScalarField;
    location    "1.71";
    object      phi.particles;
}
// * * * * * * * * * * * * * * * * * * * * * * * * * * * * * * * * * * * * * //

dimensions      [0 3 -1 0 0 0 0];

internalField   nonuniform List<scalar> 
11770
(
-2.83467e-06
-1.39487e-05
-3.96649e-06
-1.28035e-05
-4.58241e-06
-1.16451e-05
-4.52231e-06
-1.18891e-05
-3.46352e-06
-1.24059e-05
-9.06172e-07
-1.38709e-05
2.00719e-06
-1.60185e-05
3.43081e-06
-1.95203e-05
3.56647e-06
-2.18418e-05
3.50843e-06
-2.29541e-05
3.02754e-06
-2.41632e-05
1.64371e-06
-2.48816e-05
-4.68852e-07
-2.55628e-05
-2.70807e-06
-2.52029e-05
-4.23884e-06
-2.42658e-05
-5.00411e-06
-2.36682e-05
-5.36324e-06
-2.26603e-05
-5.78265e-06
-2.14904e-05
-6.10799e-06
-2.09818e-05
-4.90161e-06
-1.64247e-05
-2.72444e-06
-1.55133e-05
-5.71214e-07
-1.50974e-05
1.7265e-06
-1.418e-05
3.8805e-06
-1.40658e-05
6.1295e-06
-1.46935e-05
7.28175e-06
-1.50903e-05
5.05792e-06
-1.70864e-05
1.79842e-06
-2.12931e-05
8.22416e-07
-1.92386e-05
-1.68203e-05
-8.30069e-07
-1.4535e-06
-3.79746e-06
5.19812e-06
-4.98116e-06
6.05263e-06
-4.98885e-06
6.36137e-06
-4.13606e-06
5.63403e-06
-1.67529e-06
1.58024e-06
2.0662e-06
-2.27514e-06
5.87523e-06
-2.56027e-06
7.92478e-06
-5.35693e-07
7.20352e-06
7.86994e-07
5.13831e-06
1.03871e-06
3.05448e-06
1.80961e-07
5.47922e-07
-8.40902e-08
-2.19592e-06
5.19776e-07
-4.84851e-06
1.92882e-06
-8.51859e-06
3.75239e-06
-1.17942e-05
4.77775e-06
-1.26801e-05
3.303e-06
-1.21445e-05
8.87779e-07
-1.04082e-05
-3.65316e-07
-7.47148e-06
-2.96923e-06
-4.26047e-06
-5.03028e-06
-1.48685e-06
-6.26165e-06
9.54444e-07
-6.7702e-06
2.99326e-06
-9.15084e-06
4.26556e-06
-9.65097e-06
3.91436e-06
-8.91027e-06
2.25121e-06
-8.6364e-06
-4.69255e-07
-3.3734e-06
-4.66904e-06
-1.4223e-06
-9.41123e-06
-3.32961e-06
-6.11775e-06
-4.84315e-06
-5.69429e-06
-5.61984e-06
-4.7137e-06
-5.2173e-06
-3.17347e-06
-3.01675e-06
-5.02476e-06
7.28263e-07
-7.93871e-06
5.85589e-06
-7.86886e-06
9.59294e-06
-5.03757e-06
1.03362e-05
-1.9128e-06
9.23618e-06
-7.22953e-07
6.02202e-06
-9.17068e-07
1.7321e-06
-1.27951e-06
-2.52081e-06
-9.77636e-07
-6.8416e-06
1.57001e-07
-1.12398e-05
2.13884e-06
-1.46872e-05
3.05042e-06
-1.58708e-05
8.92343e-07
-1.47696e-05
-2.42506e-06
-1.24033e-05
-7.19342e-06
-9.79821e-06
-1.19e-05
-7.30055e-06
-1.44415e-05
-4.96477e-06
-1.5734e-05
-3.0763e-06
-1.64438e-05
-1.49876e-06
-1.84108e-05
5.61046e-07
-1.88438e-05
2.88158e-06
-1.67217e-05
3.72781e-06
-1.55316e-05
1.89857e-06
-1.27014e-05
-1.23595e-05
1.10813e-06
-1.16695e-05
1.86523e-06
-1.04442e-05
1.8709e-06
-1.0734e-05
1.37079e-06
-1.03384e-05
5.68563e-07
-7.84219e-06
1.27403e-06
-8.58903e-06
2.90507e-06
-9.83458e-06
6.57905e-06
-8.28411e-06
1.05053e-05
-3.43386e-06
1.13153e-05
1.89017e-06
1.02306e-05
2.94892e-06
7.09479e-06
2.86804e-06
2.83274e-06
2.85355e-06
-1.54813e-06
2.51948e-06
-6.66201e-06
3.45855e-06
-1.19226e-05
5.21271e-06
-1.57403e-05
6.29265e-06
-1.77829e-05
4.69533e-06
-1.83593e-05
9.76046e-07
-1.88137e-05
-6.76925e-06
-1.89612e-05
-1.13124e-05
-1.75263e-05
-1.37156e-05
-1.50229e-05
-1.49406e-05
-1.28066e-05
-1.60291e-05
-9.35861e-06
-1.78623e-05
-3.51721e-06
-1.72732e-05
1.21082e-06
-1.39651e-05
2.81592e-06
-1.21196e-05
1.00096e-06
-1.07088e-05
-1.15197e-05
1.47534e-06
-1.05502e-05
3.11219e-06
-9.96267e-06
5.37966e-06
-1.14757e-05
7.54395e-06
-1.18691e-05
8.79613e-06
-9.9122e-06
9.53607e-06
-1.02295e-05
9.62099e-06
-1.06831e-05
1.10282e-05
-8.41059e-06
1.37886e-05
-2.14547e-06
1.47666e-05
4.38504e-06
1.16123e-05
7.62224e-06
6.43584e-06
7.81073e-06
2.44166e-06
6.97646e-06
-7.61267e-07
6.49862e-06
-4.97494e-06
7.18161e-06
-1.01855e-05
8.9492e-06
-1.48452e-05
1.05271e-05
-1.77371e-05
9.70178e-06
-2.00007e-05
4.6997e-06
-2.25806e-05
-4.32809e-06
-2.36783e-05
-6.95369e-06
-2.31128e-05
-9.03312e-06
-2.18339e-05
-1.07232e-05
-1.96456e-05
-1.26094e-05
-1.54442e-05
-1.38949e-05
-8.83378e-06
-1.34184e-05
-2.45313e-06
-8.77511e-06
2.34877e-07
-5.90931e-06
-1.53536e-07
-5.75239e-06
-7.74423e-06
2.02177e-06
-6.47723e-06
4.68899e-06
-5.89348e-06
8.54933e-06
-7.55178e-06
1.21097e-05
-7.38637e-06
1.59857e-05
-5.31112e-06
1.79101e-05
-6.64124e-06
1.65751e-05
-7.36413e-06
1.57294e-05
-4.3836e-06
1.58412e-05
1.44543e-06
1.56611e-05
7.55891e-06
1.16243e-05
1.31806e-05
4.67438e-06
1.45436e-05
4.37614e-07
1.20586e-05
-1.37362e-06
1.07719e-05
-3.85236e-06
1.13477e-05
-7.7257e-06
1.30625e-05
-1.15357e-05
1.45649e-05
-1.29832e-05
1.43359e-05
-1.62709e-05
1.05874e-05
-2.13541e-05
4.77965e-06
-2.31402e-05
1.17483e-06
-2.41444e-05
-1.45006e-06
-2.48597e-05
-3.8699e-06
-2.44177e-05
-6.66012e-06
-2.23899e-05
-9.62821e-06
-1.56111e-05
-1.05846e-05
-7.72545e-06
-5.23961e-06
-3.41875e-06
9.07917e-07
-1.13919e-06
1.45005e-06
-1.00402e-06
3.15314e-06
-2.17134e-06
8.01412e-06
-2.27478e-06
1.2867e-05
-3.53802e-06
1.67655e-05
-2.5314e-06
1.97795e-05
-1.87587e-06
1.97389e-05
-3.77441e-06
1.78005e-05
-4.19192e-06
1.66732e-05
-6.15542e-07
1.61547e-05
4.74994e-06
1.48345e-05
1.13174e-05
1.08193e-05
1.86981e-05
3.57608e-06
2.16519e-05
-1.64575e-06
1.89864e-05
-2.9584e-06
1.6095e-05
-3.63225e-06
1.55452e-05
-3.96974e-06
1.65683e-05
-4.43879e-06
1.7487e-05
-4.3876e-06
1.7313e-05
-5.67873e-06
1.64918e-05
-1.23873e-05
1.49849e-05
-1.84232e-05
1.09757e-05
-2.00369e-05
6.72138e-06
-2.2082e-05
2.38599e-06
-2.48453e-05
-1.84944e-06
-2.55613e-05
-6.87052e-06
-2.2064e-05
-8.50316e-06
-1.41815e-05
-5.28972e-06
-6.88685e-06
2.33757e-06
-2.34253e-06
7.27104e-06
6.46644e-06
4.75734e-06
8.07424e-07
1.05161e-05
-2.90835e-07
1.49217e-05
-8.68701e-07
1.83596e-05
-1.27107e-06
1.85882e-05
-2.5789e-06
1.57125e-05
-2.61361e-06
1.39154e-05
-2.09924e-06
1.33562e-05
1.44878e-06
1.28821e-05
6.95085e-06
1.18124e-05
1.42336e-05
8.17832e-06
2.25687e-05
2.07378e-06
2.81215e-05
-2.07762e-06
2.62765e-05
-2.8997e-06
2.23485e-05
-2.0147e-06
2.03598e-05
-2.35744e-07
1.98889e-05
1.0625e-06
2.04112e-05
1.09516e-06
2.05021e-05
-3.26986e-07
2.12365e-05
-5.34942e-06
2.07307e-05
-1.10304e-05
1.7657e-05
-1.37539e-05
1.17794e-05
-1.61035e-05
5.55851e-06
-1.94248e-05
2.60083e-07
-2.24346e-05
-4.56744e-06
-2.40451e-05
-8.46249e-06
-2.03833e-05
-9.69852e-06
-1.16991e-05
-4.05857e-06
-4.34003e-06
4.9383e-06
8.22016e-06
6.16532e-06
-5.75436e-06
1.16442e-05
-8.8742e-06
1.50378e-05
-9.45718e-06
1.57399e-05
-1.10034e-05
1.37009e-05
-9.93215e-06
1.08807e-05
-7.24438e-06
8.67129e-06
-3.04668e-06
7.56781e-06
1.16598e-06
7.26744e-06
7.5166e-06
7.39402e-06
1.54668e-05
5.87309e-06
2.39588e-05
7.88705e-07
3.24091e-05
-2.34447e-06
3.33859e-05
-1.74206e-06
2.91338e-05
2.17717e-07
2.62575e-05
2.93756e-06
2.47128e-05
4.6398e-06
2.45639e-05
3.48703e-06
2.45985e-05
1.30673e-06
2.49642e-05
-3.98743e-07
2.32533e-05
-2.51443e-06
1.98081e-05
-4.62418e-06
1.3634e-05
-7.93369e-06
6.64723e-06
-1.3533e-05
-1.34194e-06
-1.96517e-05
-1.29442e-05
-2.20188e-05
-2.06509e-05
-1.97828e-05
-2.30655e-05
-1.48553e-05
-1.85186e-05
-7.84276e-06
-9.36538e-06
-2.22725e-06
4.79077e-06
-2.2416e-05
6.13455e-06
-2.53989e-05
5.96331e-06
-2.64169e-05
6.63169e-06
-2.70948e-05
6.46981e-06
-2.524e-05
4.17065e-06
-2.24242e-05
2.49369e-06
-1.15099e-05
2.07477e-06
-1.83831e-06
2.40067e-06
5.88471e-06
3.10302e-06
1.4695e-05
2.81774e-06
2.40952e-05
-7.52297e-07
3.39791e-05
-2.64524e-06
3.95987e-05
-6.36125e-07
3.63696e-05
2.22766e-06
3.23488e-05
5.41749e-06
3.0139e-05
7.13113e-06
2.9179e-05
6.38274e-06
2.82932e-05
5.07561e-06
2.70005e-05
4.48111e-06
2.44062e-05
3.87075e-06
2.05037e-05
3.24903e-06
1.45435e-05
-1.25208e-08
6.0278e-06
-7.97924e-06
-1.19519e-05
-1.28214e-05
-2.61448e-05
-1.19572e-05
-3.42125e-05
-1.00201e-05
-3.62444e-05
-8.8654e-06
-3.32448e-05
-5.84945e-06
-2.65325e-05
-1.82284e-05
1.43911e-06
-3.45368e-05
2.23995e-06
-3.47385e-05
3.06939e-06
-3.55766e-05
4.58849e-06
-3.55343e-05
6.41523e-06
-3.46086e-05
5.63578e-06
-3.28615e-05
1.39461e-06
-2.49776e-05
-5.62513e-07
-1.29681e-05
1.91948e-08
9.23776e-08
8.49126e-07
1.213e-05
1.41427e-06
2.34076e-05
4.0789e-08
3.4334e-05
-1.20283e-06
4.3065e-05
7.55089e-07
4.27037e-05
3.89995e-06
3.8094e-05
6.85017e-06
3.46257e-05
8.11681e-06
3.26033e-05
7.69592e-06
3.05392e-05
7.23939e-06
2.80876e-05
7.171e-06
2.50832e-05
7.47219e-06
2.09588e-05
7.05811e-06
1.51493e-05
-3.80335e-06
2.97388e-07
-1.22302e-05
-2.01799e-05
-8.78418e-06
-2.90475e-05
-6.24513e-06
-3.6471e-05
-4.31843e-06
-3.92711e-05
-3.45172e-06
-3.79286e-05
-4.07958e-07
-3.34379e-05
-2.62034e-05
6.64939e-07
-3.53198e-05
2.39234e-06
-3.52203e-05
4.17843e-06
-3.5182e-05
6.35328e-06
-3.43322e-05
8.94905e-06
-3.26106e-05
1.14985e-05
-3.07852e-05
1.1058e-05
-2.94642e-05
6.00276e-06
-2.48263e-05
2.18917e-06
-1.37673e-05
8.32626e-07
1.50279e-06
6.08162e-07
1.81071e-05
9.19661e-07
3.28707e-05
1.99606e-06
4.22975e-05
4.1162e-06
4.43102e-05
6.16109e-06
4.0922e-05
7.82693e-06
3.70554e-05
8.44151e-06
3.44052e-05
8.26741e-06
3.1816e-05
7.89786e-06
2.89418e-05
7.30909e-06
2.55911e-05
7.3212e-06
2.15894e-05
-1.54375e-06
1.3633e-05
-1.41251e-05
-5.55062e-06
-1.24509e-05
-1.88777e-05
-6.30638e-06
-2.74761e-05
-3.225e-06
-3.44225e-05
-9.41099e-07
-3.68745e-05
-1.39242e-07
-3.52117e-05
3.16181e-06
-3.05234e-05
-2.36099e-05
5.67834e-07
-3.1255e-05
2.86683e-06
-3.09457e-05
4.42e-06
-3.04186e-05
6.58689e-06
-2.94724e-05
9.21402e-06
-2.82366e-05
1.23933e-05
-2.69399e-05
1.56996e-05
-2.58012e-05
1.66652e-05
-2.49285e-05
1.17705e-05
-2.35335e-05
5.98202e-06
-1.5475e-05
4.19023e-06
-1.63891e-06
4.62697e-06
1.47647e-05
6.0492e-06
2.65627e-05
7.50487e-06
3.16092e-05
8.95728e-06
3.3358e-05
9.69144e-06
3.3914e-05
9.86387e-06
3.31957e-05
9.42624e-06
3.09704e-05
8.21692e-06
2.77892e-05
6.38052e-06
2.43842e-05
2.41119e-07
1.9154e-05
-1.33206e-05
7.81344e-06
-1.87373e-05
-5.23083e-06
-1.12906e-05
-1.74472e-05
-4.25431e-06
-2.68946e-05
-1.37781e-06
-3.21672e-05
-3.08984e-07
-3.28615e-05
-6.43772e-07
-2.95447e-05
2.19062e-06
-2.31911e-05
-1.69887e-05
-7.21824e-07
-2.61441e-05
1.12131e-06
-2.56204e-05
3.3076e-06
-2.59075e-05
6.03487e-06
-2.51357e-05
9.26948e-06
-2.41772e-05
1.25489e-05
-2.30502e-05
1.53305e-05
-2.19138e-05
1.72452e-05
-2.16087e-05
1.62648e-05
-2.23351e-05
1.31922e-05
-2.3831e-05
1.20524e-05
-2.12377e-05
1.32555e-05
-1.12586e-05
1.37806e-05
-3.57187e-07
1.31181e-05
5.03916e-06
1.25031e-05
8.54497e-06
1.21107e-05
1.28413e-05
1.17107e-05
1.58712e-05
1.0797e-05
1.53391e-05
8.74001e-06
1.26894e-05
3.98217e-06
1.14172e-05
-7.45848e-06
8.75212e-06
-1.72667e-05
3.26029e-06
-1.6536e-05
-4.37516e-06
-9.65411e-06
-1.74136e-05
-3.05145e-06
-2.7061e-05
-8.01372e-07
-2.97504e-05
-9.95227e-07
-2.80415e-05
-1.67307e-06
-2.29114e-05
1.76612e-06
-1.67107e-05
-1.08408e-05
-1.75711e-07
-2.09945e-05
1.94717e-06
-2.12807e-05
3.90793e-06
-2.19241e-05
6.33714e-06
-2.1271e-05
8.84827e-06
-2.01766e-05
1.13149e-05
-1.92417e-05
1.35281e-05
-1.88152e-05
1.49002e-05
-1.9104e-05
1.35177e-05
-2.0376e-05
8.56799e-06
-2.32632e-05
6.40523e-06
-2.56773e-05
1.10588e-05
-2.19287e-05
1.63222e-05
-1.68721e-05
1.83113e-05
-1.50315e-05
1.86412e-05
-1.45074e-05
1.822e-05
-1.21552e-05
1.73575e-05
-8.98698e-06
1.58677e-05
-8.09825e-06
1.31501e-05
-8.31537e-06
7.81565e-06
-6.02092e-06
1.90616e-07
-2.03167e-06
-6.19182e-06
6.78918e-07
-9.01547e-06
-6.19691e-06
-7.22372e-06
-1.87582e-05
-3.11816e-06
-2.69368e-05
-1.44112e-06
-2.66197e-05
-1.63873e-06
-2.29016e-05
-1.39658e-06
-1.72828e-05
1.74362e-06
-1.19369e-05
-6.1336e-06
-4.25904e-07
-1.67512e-05
1.76919e-06
-1.76856e-05
3.66887e-06
-1.83505e-05
5.82837e-06
-1.79188e-05
8.07168e-06
-1.72483e-05
1.00905e-05
-1.66131e-05
1.14201e-05
-1.62859e-05
1.17018e-05
-1.66966e-05
9.58208e-06
-1.80774e-05
4.24933e-06
-2.08543e-05
7.03671e-07
-2.45978e-05
4.32095e-06
-2.3027e-05
1.15775e-05
-2.07258e-05
1.62096e-05
-1.97844e-05
1.82648e-05
-1.89948e-05
2.00538e-05
-1.78446e-05
2.11827e-05
-1.60583e-05
2.10118e-05
-1.48618e-05
1.93169e-05
-1.32826e-05
1.65258e-05
-9.75576e-06
1.17923e-05
-4.27892e-06
6.00561e-06
-1.55483e-06
-5.47291e-07
-8.18111e-06
-4.48246e-06
-2.08026e-05
-3.25234e-06
-2.66511e-05
-2.28855e-06
-2.38888e-05
-1.92663e-06
-1.86579e-05
-6.69618e-07
-1.34085e-05
7.90278e-07
-8.37591e-06
-3.61849e-06
-3.93254e-07
-1.27958e-05
1.68983e-06
-1.46991e-05
3.27867e-06
-1.59003e-05
5.03176e-06
-1.58002e-05
6.67673e-06
-1.53108e-05
8.04042e-06
-1.47704e-05
8.76209e-06
-1.43814e-05
8.35304e-06
-1.44032e-05
6.01093e-06
-1.52468e-05
1.19015e-06
-1.73273e-05
-2.99361e-06
-2.08757e-05
-1.2228e-06
-2.18336e-05
6.07064e-06
-1.92078e-05
1.18774e-05
-1.72936e-05
1.50102e-05
-1.49324e-05
1.81788e-05
-1.21018e-05
2.02887e-05
-8.60127e-06
2.13347e-05
-6.79954e-06
2.09431e-05
-5.54099e-06
1.94707e-05
-2.97785e-06
1.7071e-05
1.57009e-07
1.31948e-05
1.94893e-07
4.81675e-06
-6.75694e-06
-1.91314e-06
-2.15883e-05
-2.51671e-06
-2.60501e-05
-2.54037e-06
-2.13569e-05
-1.60004e-06
-1.56794e-05
-2.26499e-07
-1.10682e-05
3.33924e-07
-6.94482e-06
-2.66031e-06
-5.22387e-07
-9.30117e-06
1.47619e-06
-1.24042e-05
2.65512e-06
-1.41606e-05
3.9451e-06
-1.44095e-05
5.08526e-06
-1.40683e-05
5.96363e-06
-1.34595e-05
6.29287e-06
-1.27369e-05
5.65317e-06
-1.20763e-05
3.45097e-06
-1.19087e-05
-6.38636e-07
-1.28266e-05
-5.19154e-06
-1.56794e-05
-5.63836e-06
-1.79714e-05
9.82447e-07
-1.61836e-05
7.6598e-06
-1.33295e-05
1.17377e-05
-9.49748e-06
1.59578e-05
-4.65017e-06
1.86711e-05
5.20949e-07
2.03224e-05
3.56069e-06
2.06432e-05
4.51195e-06
1.95717e-05
6.04563e-06
1.80645e-05
7.12747e-06
1.46819e-05
5.4178e-06
6.23479e-06
-6.14129e-06
-7.61705e-08
-2.12694e-05
-1.57778e-06
-2.38809e-05
-2.18948e-06
-1.85586e-05
-1.0866e-06
-1.38629e-05
-2.15708e-07
-1.02971e-05
7.83211e-08
-6.59174e-06
-2.43293e-06
-8.81931e-07
-6.09743e-06
1.0101e-06
-1.01853e-05
1.81429e-06
-1.27857e-05
2.74179e-06
-1.34168e-05
3.55053e-06
-1.31459e-05
4.16764e-06
-1.23658e-05
4.38764e-06
-1.12324e-05
3.85477e-06
-9.90907e-06
2.07353e-06
-8.67964e-06
-1.52121e-06
-8.12598e-06
-6.04499e-06
-9.35103e-06
-8.04636e-06
-1.18356e-05
-2.99857e-06
-1.20092e-05
3.97051e-06
-8.85108e-06
8.83173e-06
-3.65381e-06
1.36751e-05
2.79245e-06
1.69881e-05
8.01117e-06
1.92247e-05
1.23257e-05
2.00523e-05
1.38177e-05
1.91226e-05
1.48384e-05
1.74856e-05
1.48293e-05
9.96099e-06
1.24545e-05
1.74514e-06
-8.31064e-06
4.79079e-08
-1.97201e-05
-1.04101e-06
-2.02343e-05
-1.63413e-06
-1.6254e-05
-9.01759e-07
-1.30562e-05
-3.77973e-07
-1.01774e-05
-1.39446e-07
-6.67297e-06
-2.43709e-06
-7.97393e-07
-3.8977e-06
3.42047e-07
-8.21291e-06
9.61368e-07
-1.14664e-05
1.67418e-06
-1.25161e-05
2.30201e-06
-1.22641e-05
2.73765e-06
-1.12844e-05
2.87289e-06
-9.83899e-06
2.60054e-06
-8.10634e-06
1.61358e-06
-6.238e-06
-7.09635e-07
-4.53631e-06
-5.09557e-06
-3.74381e-06
-8.67709e-06
-5.09315e-06
-6.4256e-06
-6.06138e-06
-3.75002e-07
-3.83388e-06
5.42302e-06
2.69917e-06
1.08675e-05
1.04937e-05
1.49911e-05
1.57411e-05
1.78573e-05
2.12122e-05
1.88934e-05
2.38893e-05
1.80936e-05
2.50332e-05
1.6393e-05
2.52805e-05
8.44678e-06
2.20938e-05
1.87029e-06
-8.07291e-06
5.20967e-07
-1.61152e-05
-1.18318e-06
-1.67556e-05
-1.26936e-06
-1.47707e-05
-8.77116e-07
-1.27358e-05
-5.15062e-07
-1.03565e-05
-4.13532e-07
-7.11045e-06
-2.3988e-06
-4.30493e-07
-2.88938e-06
-3.24513e-08
-7.05134e-06
4.50068e-07
-1.0278e-05
9.47938e-07
-1.15866e-05
1.36993e-06
-1.13128e-05
1.57857e-06
-1.02116e-05
1.51806e-06
-8.63342e-06
1.2008e-06
-6.71142e-06
5.45867e-07
-4.57438e-06
-6.90935e-07
-2.32947e-06
-3.21072e-06
-3.27445e-07
-7.54998e-06
4.54681e-07
-8.65577e-06
-9.34823e-08
-4.88121e-06
1.2747e-06
5.67642e-07
8.54425e-06
6.76395e-06
1.87796e-05
1.14997e-05
2.74684e-05
1.45753e-05
3.36533e-05
1.59457e-05
3.75106e-05
1.5621e-05
3.86964e-05
1.32539e-05
3.79594e-05
6.92962e-06
3.02538e-05
1.71443e-06
-6.08213e-06
4.23209e-08
-1.26582e-05
-8.02607e-07
-1.45997e-05
-8.55668e-07
-1.38674e-05
-6.68339e-07
-1.26452e-05
-6.33786e-07
-1.1071e-05
-7.58978e-07
-8.30332e-06
-3.45571e-06
-1.30443e-07
-2.60355e-06
6.25852e-08
-6.64516e-06
3.98848e-07
-9.51787e-06
6.93986e-07
-1.07627e-05
8.78684e-07
-1.04583e-05
7.83368e-07
-9.31836e-06
3.08988e-07
-7.63734e-06
-4.50106e-07
-5.51621e-06
-1.44382e-06
-3.24632e-06
-2.83132e-06
-7.55329e-07
-4.63171e-06
1.55008e-06
-7.33417e-06
3.1745e-06
-9.74931e-06
3.52662e-06
-1.04613e-05
4.82951e-06
-9.60597e-06
1.00381e-05
-4.0519e-06
2.56043e-05
2.54645e-06
4.00301e-05
6.18554e-06
4.71315e-05
8.29192e-06
5.08676e-05
7.32157e-06
5.01961e-05
8.19016e-06
4.45019e-05
6.9582e-06
3.29269e-05
2.78623e-06
-6.5061e-06
1.46637e-06
-1.1621e-05
2.32594e-07
-1.38968e-05
-1.36062e-07
-1.32399e-05
-5.86764e-08
-1.28404e-05
-5.53196e-08
-1.23604e-05
-7.54745e-07
-1.25262e-05
-1.53826e-05
1.27324e-07
-2.68123e-06
3.74457e-07
-6.65199e-06
6.7732e-07
-9.2054e-06
9.13841e-07
-1.02471e-05
9.8023e-07
-9.93223e-06
6.56209e-07
-8.77554e-06
-4.48536e-07
-7.08718e-06
-2.19561e-06
-4.3521e-06
-4.11265e-06
-1.76468e-06
-6.1034e-06
7.04584e-07
-7.96794e-06
2.78322e-06
-9.56126e-06
4.2623e-06
-1.07466e-05
5.37069e-06
-1.37485e-05
5.20623e-06
-2.10271e-05
4.18152e-06
-1.9315e-05
2.44967e-05
-1.03253e-05
4.24353e-05
-5.20204e-06
5.23646e-05
-1.97469e-06
5.56249e-05
-9.53768e-08
5.26807e-05
6.77443e-06
4.05507e-05
1.38354e-05
2.41308e-05
1.22569e-05
-1.33781e-05
5.37919e-06
-1.94567e-05
7.40717e-07
-2.07245e-05
6.06964e-07
-1.39369e-05
1.38577e-06
-1.41217e-05
3.01758e-06
-1.45417e-05
1.30276e-06
-2.03081e-05
-2.3695e-05
4.39365e-07
-2.9874e-06
8.13725e-07
-6.97315e-06
1.20187e-06
-9.2643e-06
1.52327e-06
-1.01464e-05
1.66162e-06
-9.87111e-06
1.13072e-06
-8.93868e-06
-4.00468e-07
-7.42289e-06
-3.75112e-06
-2.67329e-06
-7.71918e-06
-2.43848e-07
-1.02651e-05
2.34453e-06
-1.14835e-05
3.63888e-06
-1.21412e-05
4.42041e-06
-1.48076e-05
1.70723e-06
-2.44263e-05
-5.47339e-06
-3.22542e-05
-4.78721e-06
-2.86858e-05
1.28218e-05
-2.00094e-05
3.00548e-05
-1.27995e-05
4.38458e-05
-7.13993e-06
4.76248e-05
-1.55411e-06
4.27069e-05
7.04845e-06
2.16707e-05
1.14617e-05
8.98131e-07
8.35736e-06
-2.11645e-05
5.5487e-06
-2.57692e-05
2.89105e-06
-2.62688e-05
1.50161e-06
-2.02762e-05
2.49237e-06
-1.86871e-05
1.03016e-06
-1.97225e-05
-4.62657e-07
-2.2341e-05
-2.07958e-05
8.23364e-07
-3.75099e-06
1.33396e-06
-7.60333e-06
1.86016e-06
-9.66706e-06
2.381e-06
-1.04988e-05
2.76017e-06
-1.05014e-05
2.74471e-06
-9.92788e-06
5.05538e-07
-1.65015e-05
-6.91914e-06
-1.78995e-05
-1.38939e-05
-1.01085e-05
-1.60532e-05
-6.83846e-06
-1.63231e-05
-2.63737e-06
-1.83722e-05
-6.27763e-06
-2.48814e-05
-1.11888e-05
-2.96407e-05
-1.57059e-05
-3.07548e-05
-1.08708e-05
-2.98021e-05
-3.88126e-07
-2.39613e-05
1.17202e-05
-1.67066e-05
2.35825e-05
-9.88843e-06
2.64778e-05
-2.11468e-06
1.9709e-05
4.32795e-06
-1.26126e-06
6.04526e-06
-1.62311e-05
5.51029e-06
-2.22072e-05
6.61776e-06
-2.29808e-05
6.83078e-06
-2.30385e-05
4.66667e-06
-2.31538e-05
2.21111e-06
-2.13536e-05
5.00984e-07
-2.11396e-05
-3.32015e-08
-1.96123e-05
-1.82014e-05
1.24479e-06
-5.19443e-06
1.84831e-06
-8.45895e-06
2.47728e-06
-1.03226e-05
3.1795e-06
-1.12748e-05
4.30637e-06
-1.19386e-05
3.80254e-06
-1.41492e-05
3.66481e-07
-2.93615e-05
-7.03707e-07
-3.22519e-05
-4.24416e-06
-2.08307e-05
-1.26386e-05
-1.93231e-05
-2.06692e-05
-1.36999e-05
-2.65228e-05
-1.691e-05
-2.88047e-05
-1.78431e-05
-2.77809e-05
-1.56064e-05
-2.57906e-05
-1.27975e-05
-2.5001e-05
-7.29236e-06
-2.28507e-05
-1.08507e-06
-1.77308e-05
4.30711e-06
-9.90164e-06
5.36576e-06
-2.03093e-06
2.88158e-07
1.83479e-06
-1.08374e-05
3.18332e-06
-1.7719e-05
5.75932e-06
-1.91596e-05
8.25068e-06
-1.90205e-05
8.55651e-06
-1.88134e-05
6.79285e-06
-1.86791e-05
3.91668e-06
-1.84753e-05
1.58798e-06
-1.80449e-05
4.99365e-07
-1.71017e-05
-1.59847e-05
1.46827e-06
-6.30755e-06
2.15844e-06
-9.64064e-06
2.79115e-06
-1.11302e-05
3.63759e-06
-1.23484e-05
6.07094e-06
-1.40423e-05
2.33441e-06
-1.83014e-05
-4.51758e-06
-3.07232e-05
-6.0423e-07
-2.80142e-05
3.64484e-06
-1.65101e-05
-5.37878e-07
-1.81652e-05
-8.63934e-06
-1.44013e-05
-1.77965e-05
-1.47786e-05
-2.35232e-05
-1.52136e-05
-2.45047e-05
-1.3581e-05
-2.29984e-05
-1.16306e-05
-2.07147e-05
-9.09346e-06
-1.79074e-05
-6.09773e-06
-1.28345e-05
-3.11985e-06
-6.52548e-06
-2.29424e-06
-2.125e-06
-5.47071e-06
6.93575e-07
-1.1128e-05
4.05086e-06
-1.44739e-05
7.37984e-06
-1.4941e-05
9.20728e-06
-1.45528e-05
9.22951e-06
-1.43267e-05
7.34678e-06
-1.45114e-05
4.62279e-06
-1.49092e-05
2.30745e-06
-1.50634e-05
9.06758e-07
-1.46663e-05
-1.38771e-05
1.20084e-06
-6.27741e-06
1.97055e-06
-1.14279e-05
2.44122e-06
-1.22938e-05
2.93394e-06
-1.42184e-05
3.33816e-06
-1.59784e-05
-2.20496e-06
-2.03146e-05
-7.11905e-06
-2.6511e-05
-4.32073e-06
-2.37939e-05
1.07486e-06
-1.02977e-05
2.75493e-06
-1.07454e-05
-1.22439e-06
-8.27473e-06
-8.34251e-06
-9.64538e-06
-1.62913e-05
-1.17169e-05
-2.05166e-05
-1.12517e-05
-2.04775e-05
-1.02804e-05
-1.68801e-05
-9.25084e-06
-1.15378e-05
-5.17038e-06
-7.32356e-06
-2.10305e-06
-4.55745e-06
-1.6468e-06
-1.45358e-06
-4.31342e-06
2.27671e-06
-8.10099e-06
5.39699e-06
-1.04091e-05
8.02642e-06
-1.04995e-05
9.40639e-06
-1.01574e-05
8.95995e-06
-1.01748e-05
7.03168e-06
-1.08226e-05
4.63885e-06
-1.16697e-05
2.56342e-06
-1.22537e-05
1.15858e-06
-1.22253e-05
-1.16097e-05
3.88617e-08
-5.2352e-06
2.16187e-07
-1.09102e-05
2.294e-09
-1.39479e-05
3.07437e-08
-1.65367e-05
-1.82608e-06
-1.73435e-05
-6.60024e-06
-2.06626e-05
-8.13557e-06
-2.22741e-05
-7.04714e-06
-2.0638e-05
-6.48321e-07
-8.17514e-06
4.5044e-06
-3.32194e-06
2.7181e-06
-2.00054e-06
-1.99505e-06
-3.63864e-06
-9.08561e-06
-6.95875e-06
-1.4275e-05
-8.95106e-06
-1.51589e-05
-8.57407e-06
-1.15769e-05
-6.65955e-06
-7.34799e-06
-1.05533e-06
-5.27286e-06
2.09946e-06
-2.31863e-06
1.60522e-06
7.87188e-07
-6.85462e-07
3.14345e-06
-4.11727e-06
6.33388e-06
-5.7836e-06
8.87571e-06
-6.04894e-06
9.59663e-06
-5.93784e-06
8.5914e-06
-6.37272e-06
6.53277e-06
-7.49778e-06
4.3926e-06
-8.66641e-06
2.55378e-06
-9.5455e-06
1.23201e-06
-9.75995e-06
-9.22378e-06
-7.07945e-07
-3.60259e-06
-2.01924e-06
-7.77735e-06
-4.43291e-06
-1.22455e-05
-5.18229e-06
-1.51461e-05
-7.03494e-06
-1.67531e-05
-9.12815e-06
-1.83824e-05
-8.24164e-06
-1.86985e-05
-7.39026e-06
-1.72267e-05
-1.12726e-06
-7.35064e-06
5.2964e-06
3.06029e-06
5.45438e-06
3.95834e-06
3.3078e-06
2.90934e-06
-2.07947e-06
-1.31257e-06
-5.97603e-06
-5.12358e-06
-6.41909e-06
-4.2804e-06
-4.9944e-06
-1.79413e-06
-2.77249e-06
2.20933e-06
-1.2143e-06
5.29405e-06
3.06945e-07
5.05699e-06
2.55413e-06
2.91507e-06
5.47797e-06
3.54674e-07
8.2938e-06
-7.3783e-07
9.65568e-06
-1.40186e-06
9.49427e-06
-1.87294e-06
8.01517e-06
-2.87191e-06
5.9432e-06
-4.34127e-06
3.98822e-06
-5.74635e-06
2.29856e-06
-6.84557e-06
1.04871e-06
-7.29148e-06
-6.94269e-06
-7.36868e-07
-2.39562e-06
-1.6918e-06
-5.49086e-06
-3.54731e-06
-8.50955e-06
-5.77946e-06
-1.12204e-05
-7.80885e-06
-1.35737e-05
-9.04998e-06
-1.52921e-05
-8.54082e-06
-1.59099e-05
-7.23481e-06
-1.46408e-05
-1.41288e-06
-7.53086e-06
4.51847e-06
8.21205e-06
6.55203e-06
9.96435e-06
5.59773e-06
1.01416e-05
1.88199e-06
5.19926e-06
8.60147e-07
1.03243e-06
-6.95764e-07
1.87642e-07
-4.34628e-06
1.8832e-06
-5.06764e-06
5.47925e-06
-1.68929e-06
8.45914e-06
2.80878e-06
9.32761e-06
6.39511e-06
8.54851e-06
8.68537e-06
6.93693e-06
9.75638e-06
5.00748e-06
9.66732e-06
3.13009e-06
8.73694e-06
1.97142e-06
7.09147e-06
5.13392e-07
5.23366e-06
-1.20876e-06
3.48887e-06
-2.88332e-06
1.96138e-06
-4.21921e-06
8.18443e-07
-4.9467e-06
-4.91415e-06
-5.29869e-07
-1.70891e-06
-1.25975e-06
-4.26753e-06
-2.42043e-06
-6.52918e-06
-4.01233e-06
-8.66799e-06
-5.88911e-06
-1.07078e-05
-7.61405e-06
-1.25298e-05
-8.25122e-06
-1.35069e-05
-6.35327e-06
-1.2695e-05
-1.65357e-06
-7.25477e-06
4.29752e-06
1.39843e-05
6.64642e-06
1.78087e-05
5.65316e-06
1.72664e-05
6.23479e-06
1.25846e-05
4.34823e-06
6.57365e-06
-1.98132e-06
5.61987e-06
-5.50961e-06
9.48714e-06
-4.09812e-06
1.22705e-05
-4.52e-07
1.37236e-05
4.48707e-06
1.46596e-05
9.51107e-06
1.50013e-05
1.17662e-05
1.44676e-05
1.08142e-05
1.16665e-05
9.14207e-06
7.36974e-06
7.61289e-06
5.18255e-06
6.11063e-06
3.51156e-06
4.49477e-06
1.73633e-06
2.96136e-06
-1.15953e-07
1.60885e-06
-1.75029e-06
6.03324e-07
-2.84343e-06
-3.19404e-06
-4.33199e-07
-1.2977e-06
-1.06874e-06
-3.42697e-06
-1.86788e-06
-5.35492e-06
-2.8552e-06
-7.16735e-06
-4.06186e-06
-8.91526e-06
-5.49523e-06
-1.04977e-05
-6.67603e-06
-1.15316e-05
-5.90364e-06
-1.11054e-05
-3.25501e-06
-6.30982e-06
7.56592e-07
1.96048e-05
4.20184e-06
2.57832e-05
7.46145e-06
2.30809e-05
8.54103e-06
1.82268e-05
2.08376e-06
1.2635e-05
-6.98061e-06
1.48387e-05
-1.10626e-05
1.84428e-05
-9.22649e-06
1.81616e-05
-3.85154e-06
1.72669e-05
2.82308e-06
1.71732e-05
9.28369e-06
1.78961e-05
1.29839e-05
1.90338e-05
1.16393e-05
1.72228e-05
8.45603e-06
1.14199e-05
6.57574e-06
7.61436e-06
5.25785e-06
5.65432e-06
3.86172e-06
3.96647e-06
2.49277e-06
2.19237e-06
1.27583e-06
3.90548e-07
4.11522e-07
-1.05893e-06
-1.82706e-06
-3.31743e-07
-9.33997e-07
-9.55358e-07
-2.69608e-06
-1.63724e-06
-4.45422e-06
-2.3084e-06
-6.16253e-06
-2.985e-06
-7.78434e-06
-3.78971e-06
-9.16871e-06
-4.55194e-06
-1.00089e-05
-4.69522e-06
-9.53498e-06
-5.0392e-06
-5.42158e-06
-6.61928e-07
2.34536e-05
5.0782e-06
3.07456e-05
5.9439e-06
2.79041e-05
4.96044e-06
2.51298e-05
-3.02671e-06
2.20287e-05
-1.19543e-05
2.42436e-05
-1.32214e-05
2.39484e-05
-1.07959e-05
2.17182e-05
-6.56331e-06
1.99822e-05
-8.74717e-07
1.89555e-05
5.81626e-06
1.87899e-05
1.06975e-05
1.95958e-05
1.08663e-05
1.95746e-05
8.02402e-06
1.48593e-05
5.60289e-06
9.54667e-06
4.18507e-06
7.11731e-06
3.07058e-06
5.39935e-06
1.976e-06
3.7243e-06
9.73812e-07
1.96834e-06
2.56359e-07
3.30612e-07
-8.30852e-07
-1.83212e-07
-4.72743e-07
-9.07566e-07
-1.98207e-06
-1.59123e-06
-3.70173e-06
-2.04418e-06
-5.47625e-06
-2.33299e-06
-7.08339e-06
-2.53837e-06
-8.30261e-06
-2.56416e-06
-8.83993e-06
-2.65575e-06
-8.04231e-06
-5.18317e-06
-4.09599e-06
-2.75109e-06
2.76166e-05
1.96394e-06
3.56743e-05
3.58533e-06
3.72478e-05
2.37378e-06
3.42122e-05
-5.91536e-06
3.20005e-05
-1.21924e-05
3.21343e-05
-1.23872e-05
2.99011e-05
-1.05495e-05
2.66186e-05
-7.92597e-06
2.36691e-05
-4.74107e-06
2.12807e-05
-7.26344e-07
1.93221e-05
4.13152e-06
1.82718e-05
7.09282e-06
1.83794e-05
6.38691e-06
1.64728e-05
4.39859e-06
1.13466e-05
2.98493e-06
8.25423e-06
2.04406e-06
6.33323e-06
1.25866e-06
4.67041e-06
5.78231e-07
2.95412e-06
8.77252e-08
1.29671e-06
-1.77244e-07
-1.1007e-07
1.38201e-07
-1.04496e-06
-1.34812e-06
-1.56959e-06
-2.96644e-06
-1.69336e-06
-5.22951e-06
-1.66788e-06
-6.7821e-06
-1.56996e-06
-7.74449e-06
-1.31583e-06
-7.9363e-06
-1.28865e-06
-6.64494e-06
-5.82353e-06
-5.8471e-07
-6.52533e-06
3.40795e-05
-8.04214e-07
4.55341e-05
4.22982e-06
4.75254e-05
1.2576e-06
4.30455e-05
-6.71914e-06
4.12124e-05
-9.35865e-06
3.90924e-05
-1.00207e-05
3.50993e-05
-1.02654e-05
3.04877e-05
-9.94185e-06
2.61243e-05
-8.9502e-06
2.24962e-05
-7.28955e-06
1.94816e-05
-4.43877e-06
1.72365e-05
-2.06938e-07
1.60079e-05
2.67304e-06
1.53209e-05
2.63451e-06
1.25947e-05
1.69092e-06
9.15739e-06
1.03007e-06
7.00343e-06
5.46385e-07
5.27004e-06
1.52877e-07
3.55306e-06
-1.02429e-07
1.92753e-06
2.052e-07
-3.69288e-07
3.83263e-07
-1.12877e-06
-8.68259e-06
-1.10808e-06
-2.87018e-06
-5.78608e-07
-5.72223e-06
-4.21896e-07
-7.00589e-06
-6.68669e-07
-7.6078e-06
-1.14572e-06
-7.52198e-06
-2.77931e-06
-5.49137e-06
-9.46324e-06
4.83009e-06
-1.03393e-05
4.1882e-05
-8.60678e-07
5.63381e-05
4.38267e-06
5.40437e-05
1.62302e-07
5.19029e-05
-4.59884e-06
4.99242e-05
-5.74601e-06
4.56798e-05
-7.10182e-06
3.88576e-05
-8.21599e-06
3.29094e-05
-8.86028e-06
2.76071e-05
-9.08087e-06
2.34045e-05
-8.81088e-06
1.99835e-05
-8.05046e-06
1.71942e-05
-6.37549e-06
1.48885e-05
-2.99808e-06
1.32664e-05
-1.36009e-07
1.19421e-05
4.05574e-07
9.55596e-06
1.72276e-07
7.3821e-06
-5.68549e-09
5.61965e-06
-1.23297e-07
3.91645e-06
-2.43576e-07
2.36819e-06
4.36511e-07
-1.82603e-06
-3.5563e-06
-8.48397e-07
-2.03474e-05
1.08357e-06
-9.61148e-06
2.34948e-06
-7.60581e-06
2.08501e-06
-8.20081e-06
1.43243e-06
-8.34921e-06
-9.58135e-07
-8.4319e-06
-3.85349e-06
-4.5853e-06
-1.04729e-05
8.18474e-06
-1.05351e-05
4.69127e-05
3.32691e-07
6.16232e-05
6.24198e-06
5.89974e-05
5.86986e-06
5.84148e-05
4.55911e-06
5.66033e-05
2.12855e-06
5.01389e-05
-1.59494e-06
4.32267e-05
-4.87361e-06
3.67387e-05
-7.07509e-06
2.94831e-05
-8.14049e-06
2.42904e-05
-8.43602e-06
2.05695e-05
-8.31758e-06
1.74617e-05
-7.84709e-06
1.47678e-05
-6.72408e-06
1.23464e-05
-4.00033e-06
1.05075e-05
-1.39486e-06
8.97432e-06
-5.14409e-07
7.23088e-06
-2.85812e-07
5.66619e-06
-1.64862e-07
4.08197e-06
-2.61102e-07
2.7211e-06
5.97295e-07
-1.6956e-06
-4.37445e-06
4.48953e-06
-2.32287e-05
5.39839e-06
-2.2399e-05
5.64095e-06
-1.26775e-05
6.19085e-06
-9.98459e-06
9.18483e-06
-1.18654e-05
1.10339e-05
-8.25883e-06
5.26901e-06
-2.11045e-06
-6.24385e-06
1.13045e-05
-7.3004e-06
4.80366e-05
6.14192e-06
6.11987e-05
1.51817e-05
6.15794e-05
1.75009e-05
6.25243e-05
1.83062e-05
6.09306e-05
1.76515e-05
5.51774e-05
1.26934e-05
5.09362e-05
3.57991e-06
4.58706e-05
-3.99128e-06
3.52393e-05
-7.16775e-06
2.57861e-05
-7.87225e-06
2.10821e-05
-8.03278e-06
1.76822e-05
-7.85494e-06
1.48349e-05
-7.36932e-06
1.22043e-05
-6.26104e-06
9.78197e-06
-3.762e-06
7.93293e-06
-1.42353e-06
6.50014e-06
-3.69575e-07
5.25356e-06
1.07192e-08
4.00875e-06
-1.83365e-07
2.88862e-06
6.31254e-07
4.13588e-06
-3.79437e-06
1.04489e-05
-2.22112e-05
1.12539e-05
-2.84384e-05
1.10839e-05
-2.18584e-05
1.55573e-05
-1.57104e-05
1.90096e-05
-1.30165e-05
1.75874e-05
-4.60575e-06
1.20394e-05
4.1026e-06
1.90656e-06
1.9253e-05
2.37789e-06
4.78437e-05
1.4846e-05
5.86072e-05
2.29781e-05
6.22198e-05
2.61857e-05
6.45117e-05
2.66909e-05
6.36841e-05
2.44968e-05
6.10356e-05
1.83981e-05
5.92989e-05
9.03375e-06
5.66839e-05
-1.54923e-07
4.68541e-05
-5.56986e-06
3.17223e-05