/*--------------------------------*- C++ -*----------------------------------*\
| =========                 |                                                 |
| \\      /  F ield         | OpenFOAM: The Open Source CFD Toolbox           |
|  \\    /   O peration     | Version:  v1606+                                |
|   \\  /    A nd           | Web:      www.OpenFOAM.com                      |
|    \\/     M anipulation  |                                                 |
\*---------------------------------------------------------------------------*/
FoamFile
{
    version     2.0;
    format      ascii;
    class       surfaceScalarField;
    location    "1.71";
    object      phi.air;
}
// * * * * * * * * * * * * * * * * * * * * * * * * * * * * * * * * * * * * * //

dimensions      [0 3 -1 0 0 0 0];

internalField   nonuniform List<scalar> 
11770
(
2.2157e-06
9.34331e-05
2.58893e-06
9.2632e-05
9.58727e-07
9.20008e-05
1.15335e-06
8.90582e-05
2.37439e-06
8.67787e-05
6.57374e-06
8.3134e-05
9.77375e-06
8.31802e-05
6.88478e-06
8.83187e-05
1.68071e-06
9.21923e-05
-5.49342e-07
9.15258e-05
-4.49767e-07
9.1674e-05
2.09978e-06
9.24043e-05
2.80242e-06
9.58482e-05
1.08872e-06
9.79806e-05
1.11773e-06
9.50797e-05
8.28762e-07
9.35421e-05
-7.64247e-07
9.33208e-05
-3.3353e-06
9.35725e-05
-6.35788e-06
9.33124e-05
-3.50364e-06
8.77344e-05
-2.51081e-08
8.68907e-05
2.71138e-06
8.80207e-05
6.78396e-06
8.74394e-05
1.0456e-05
8.84695e-05
1.32532e-05
9.01537e-05
7.19912e-06
9.88932e-05
-3.26561e-06
0.000106296
-2.96715e-06
0.000101144
1.72077e-06
9.4687e-05
9.8275e-05
-1.99393e-06
8.92345e-05
-6.53179e-06
8.94431e-05
-6.27659e-06
8.43797e-05
-4.87828e-06
7.92473e-05
-2.32212e-06
7.549e-05
3.08389e-06
6.89416e-05
1.06702e-05
6.66e-05
1.67678e-05
7.32938e-05
1.73514e-05
8.15229e-05
1.54124e-05
8.20491e-05
1.38617e-05
8.13914e-05
1.09591e-05
8.29737e-05
6.06316e-06
8.83338e-05
-2.81055e-06
9.38606e-05
-6.49718e-06
8.69836e-05
-9.33281e-06
8.481e-05
-1.20045e-05
8.48261e-05
-1.41294e-05
8.45908e-05
-1.04847e-05
8.04384e-05
-5.29559e-06
7.29048e-05
7.62784e-07
7.24663e-05
5.94137e-06
7.53498e-05
8.82983e-06
7.73077e-05
1.30186e-05
7.73567e-05
1.60536e-05
8.00969e-05
1.16647e-05
9.30493e-05
2.60817e-06
0.000102179
-4.95572e-06
9.50205e-05
-1.33827e-06
8.18479e-05
8.75311e-05
-9.6819e-06
9.66526e-05
-1.36453e-05
9.64176e-05
-1.33139e-05
9.11348e-05
-1.10457e-05
8.60953e-05
-9.77274e-06
8.22026e-05
-5.67321e-06
7.12778e-05
5.90474e-06
6.09157e-05
1.83432e-05
6.47965e-05
2.3563e-05
7.86306e-05
2.76039e-05
8.11742e-05
2.93219e-05
8.23383e-05
2.38801e-05
8.94797e-05
1.1872e-05
9.99629e-05
-4.97119e-06
0.000109024
-1.52544e-05
9.89403e-05
-1.74915e-05
9.20114e-05
-1.86761e-05
9.11898e-05
-1.86322e-05
8.85349e-05
-1.42215e-05
7.94318e-05
-3.3525e-06
6.74511e-05
2.87288e-06
7.02626e-05
7.85443e-06
7.20821e-05
1.07336e-05
7.31717e-05
1.52628e-05
7.06747e-05
1.35784e-05
7.58651e-05
1.12561e-05
8.78297e-05
9.64017e-06
9.62564e-05
3.37629e-06
9.31367e-05
1.88731e-06
8.00136e-05
8.50562e-05
-2.42439e-06
9.3087e-05
-3.2312e-06
9.16365e-05
-5.26398e-06
8.74203e-05
-8.237e-06
8.43071e-05
-1.26276e-05
8.28371e-05
-1.17666e-05
6.93831e-05
-1.57652e-06
5.26309e-05
1.44221e-05
5.04851e-05
2.58421e-05
6.65809e-05
3.40411e-05
7.23426e-05
3.88847e-05
7.67543e-05
3.56954e-05
9.03938e-05
2.0443e-05
0.000109993
3.91493e-06
0.000120243
-1.43519e-05
0.00011193
-2.14239e-05
9.80041e-05
-2.43195e-05
9.36579e-05
-2.36955e-05
8.70278e-05
-1.74207e-05
7.2501e-05
-8.83839e-06
5.87867e-05
-9.38513e-06
6.63444e-05
-7.7321e-06
6.44429e-05
1.91837e-09
5.99384e-05
6.90284e-06
5.76322e-05
7.02889e-06
6.75719e-05
1.04792e-05
7.75037e-05
1.53401e-05
8.60587e-05
1.45072e-05
8.82205e-05
4.49169e-06
8.24202e-05
8.26046e-05
2.1154e-06
8.95119e-05
2.48308e-06
8.86162e-05
8.43472e-07
8.48292e-05
-2.42592e-06
8.18922e-05
-4.60364e-06
7.90437e-05
-6.78058e-06
6.54787e-05
-2.22575e-07
4.47549e-05
1.11287e-05
4.05398e-05
2.47284e-05
5.46333e-05
3.57882e-05
6.27944e-05
4.17193e-05
7.20636e-05
3.86423e-05
9.26814e-05
2.50755e-05
0.000120424
1.42527e-05
0.000128937
-3.029e-06
0.000125378
-2.01754e-05
0.000111056
-2.71674e-05
9.8759e-05
-2.78144e-05
8.63975e-05
-2.31427e-05
6.81189e-05
-2.20421e-05
5.73392e-05
-2.61616e-05
6.72702e-05
-2.49441e-05
6.09618e-05
-1.6183e-05
5.06455e-05
-5.88846e-06
4.66807e-05
3.48014e-06
5.67527e-05
1.08737e-05
6.76542e-05
1.32413e-05
7.96709e-05
1.19875e-05
8.62243e-05
4.98924e-06
8.66794e-05
8.50604e-05
9.64546e-07
8.57443e-05
1.49972e-06
8.49739e-05
1.56546e-06
8.11538e-05
1.46441e-06
7.83347e-05
3.36994e-06
7.31097e-05
7.37788e-06
5.79235e-05
1.20234e-05
3.86958e-05
1.45877e-05
3.69098e-05
2.23941e-05
4.78189e-05
3.07022e-05
5.59836e-05
3.69356e-05
6.69805e-05
3.47817e-05
9.43943e-05
2.35261e-05
0.000129676
1.61292e-05
0.000135439
5.87911e-06
0.000134181
-1.43192e-05
0.000126627
-2.45014e-05
0.000105942
-2.54967e-05
8.52066e-05
-2.6789e-05
6.84385e-05
-3.24427e-05
6.1577e-05
-3.39323e-05
6.83715e-05
-3.21372e-05
6.04413e-05
-2.77759e-05
4.88963e-05
-2.10053e-05
4.32681e-05
-8.24076e-06
4.85913e-05
3.37611e-06
5.7918e-05
1.00519e-05
7.25926e-05
9.36176e-06
8.50104e-05
4.41427e-06
8.93793e-05
8.75788e-05
4.72083e-07
8.41996e-05
2.11277e-06
8.23651e-05
3.28048e-06
7.95314e-05
4.38784e-06
7.74943e-05
1.10658e-05
6.89574e-05
2.11973e-05
5.34928e-05
2.28564e-05
4.11684e-05
1.95515e-05
4.05852e-05
2.07992e-05
4.68394e-05
2.30666e-05
5.40591e-05
2.81391e-05
6.26241e-05
2.94872e-05
9.32092e-05
2.07369e-05
0.000136535
1.30694e-05
0.000141544
6.30462e-06
0.000139784
-6.45417e-06
0.000136386
-1.59104e-05
0.000112068
-1.69219e-05
8.43032e-05
-2.12104e-05
7.05167e-05
-2.46939e-05
6.65837e-05
-2.41296e-05
7.15882e-05
-2.41644e-05
6.25487e-05
-2.57119e-05
5.40017e-05
-2.81003e-05
5.17687e-05
-2.48338e-05
5.473e-05
-1.79866e-05
5.95533e-05
-6.73962e-06
6.81621e-05
1.1208e-06
8.17403e-05
1.60876e-06
9.14644e-05
9.13078e-05
3.63386e-06
8.49232e-05
8.0554e-06
8.31409e-05
1.0799e-05
8.34882e-05
1.44893e-05
8.31194e-05
2.09129e-05
7.56196e-05
2.32428e-05
6.19453e-05
1.98227e-05
4.83112e-05
1.57264e-05
4.48218e-05
1.46712e-05
4.77823e-05
1.35922e-05
5.4835e-05
1.69613e-05
6.09069e-05
2.23414e-05
8.87516e-05
1.91065e-05
0.000138279
1.13448e-05
0.000147053
5.07565e-06
0.000143959
-4.45101e-08
0.000139922
-5.69546e-06
0.000115442
-7.08367e-06
8.45519e-05
-1.01038e-05
7.30322e-05
-1.04754e-05
7.09186e-05
-8.25459e-06
7.55818e-05
-9.58483e-06
6.73746e-05
-1.4436e-05
6.15238e-05
-2.16542e-05
6.33981e-05
-3.0096e-05
6.97376e-05
-3.45225e-05
7.49326e-05
-2.85079e-05
7.62677e-05
-1.47508e-05
8.1868e-05
-5.72081e-06
9.44394e-05
9.5809e-05
1.01655e-05
8.61398e-05
1.71434e-05
8.89601e-05
2.05713e-05
9.29994e-05
2.22927e-05
9.56495e-05
1.84235e-05
9.06103e-05
1.09661e-05
7.644e-05
7.50241e-06
5.59217e-05
6.22652e-06
4.80857e-05
5.57626e-06
4.87492e-05
4.58798e-06
5.53993e-05
5.00838e-06
6.22289e-05
1.25692e-05
8.49076e-05
1.64092e-05
0.000135246
1.04553e-05
0.000150847
6.43779e-06
0.000146189
6.85211e-06
0.00013914
6.54252e-06
0.000115771
4.87132e-06
8.70229e-05
3.25316e-06
7.63691e-05
2.02553e-06
7.38872e-05
5.1595e-06
7.59001e-05
4.69476e-06
6.99687e-05
1.78263e-06
6.72765e-05
-4.74677e-06
7.59317e-05
-2.67921e-05
9.48049e-05
-4.0653e-05
9.28913e-05
-3.88269e-05
8.37137e-05
-2.56723e-05
8.41666e-05
-1.54955e-05
9.97097e-05
9.44471e-05
1.68658e-05
7.80836e-05
1.85171e-05
9.05468e-05
1.97885e-05
9.16662e-05
1.58209e-05
9.23434e-05
5.30795e-06
9.09513e-05
-8.5012e-06
8.47252e-05
-1.08993e-05
6.09146e-05
-5.3241e-06
4.65289e-05
-2.07542e-06
4.70977e-05
-1.50581e-06
5.53973e-05
-5.22734e-06
6.69737e-05
-1.10433e-06
8.71595e-05
8.1682e-06
0.0001313
8.07926e-06
0.00015227
9.7413e-06
0.000146385
1.59219e-05
0.000136221
2.00571e-05
0.000115286
1.81866e-05
9.16161e-05
1.58739e-05
8.08239e-05
1.30957e-05
7.67368e-05
1.46601e-05
7.46322e-05
1.70955e-05
6.73251e-05
2.00086e-05
6.65793e-05
2.64913e-06
9.15562e-05
-2.40409e-05
0.000106817
-3.24757e-05
8.75587e-05
-3.01657e-05
7.14835e-05
-2.45858e-05
7.41237e-05
-2.29356e-05
9.40748e-05
7.64098e-05
1.12746e-05
5.7585e-05
1.1036e-05
7.43352e-05
1.27327e-05
7.43942e-05
1.2843e-05
7.72018e-05
9.11834e-06
8.09003e-05
-2.29214e-06
8.2323e-05
-1.59488e-05
6.70903e-05
-1.47534e-05
4.9299e-05
-5.03458e-06
4.3363e-05
-1.77194e-06
5.42148e-05
-7.0118e-06
7.25949e-05
-1.14239e-05
9.665e-05
-2.74621e-06
0.00013308
4.66302e-06
0.000152751
1.25781e-05
0.000145316
2.24238e-05
0.000133801
2.7828e-05
0.000116528
2.53073e-05
9.79929e-05
2.07141e-05
8.65944e-05
1.75571e-05
7.95719e-05
1.85884e-05
7.29707e-05
2.33278e-05
6.20267e-05
9.94353e-06
8.11926e-05
-2.27003e-05
0.000110836
-3.63603e-05
0.000106236
-3.41004e-05
7.32564e-05
-2.81343e-05
5.37931e-05
-2.30739e-05
5.72538e-05
-1.44931e-05
7.20734e-05
5.47516e-05
4.87835e-06
4.28821e-05
8.0259e-06
6.20424e-05
1.20078e-05
6.28661e-05
1.74749e-05
6.58124e-05
2.24752e-05
7.05072e-05
2.37207e-05
7.52144e-05
1.13277e-05
7.21036e-05
-3.69085e-06
6.11341e-05
-2.83596e-06
5.17413e-05
5.64291e-06
5.79617e-05
2.35422e-06
8.2084e-05
-1.07344e-05
0.000111167
-9.65337e-06
0.000139589
2.61499e-06
0.000152319
1.36896e-05
0.000144854
2.36405e-05
0.000133202
2.76185e-05
0.000118894
2.4109e-05
0.000103898
1.82827e-05
9.27288e-05
1.43461e-05
8.38761e-05
1.30044e-05
7.38696e-05
4.87281e-06
7.55887e-05
-3.49319e-05
0.00011658
-5.60782e-05
0.000125447
-4.76757e-05
9.50747e-05
-3.3286e-05
5.7234e-05
-2.16917e-05
3.9975e-05
-1.50164e-05
4.67152e-05
-7.70318e-06
5.84716e-05
4.21817e-05
5.88848e-06
3.57478e-05
8.92178e-06
5.70454e-05
1.51879e-05
5.54269e-05
2.27562e-05
5.70543e-05
3.1977e-05
6.05573e-05
4.45422e-05
6.333e-05
5.33034e-05
6.41307e-05
4.61692e-05
6.71183e-05
3.16376e-05
6.93874e-05
2.65626e-05
7.54794e-05
1.85075e-05
9.79871e-05
1.44652e-06
0.000128362
-4.99121e-06
0.00014795
3.43e-06
0.000152592
1.28362e-05
0.000143766
1.97289e-05
0.00013175
2.15324e-05
0.000119362
1.84769e-05
0.000107665
1.28217e-05
9.93321e-05
5.77742e-06
9.21412e-05
-5.91831e-06
9.05465e-05
-4.74645e-05
0.000122213
-7.96799e-05
0.000149886
-7.16282e-05
0.000118867
-4.70572e-05
7.21758e-05
-2.81164e-05
3.9974e-05
-1.79702e-05
3.11604e-05
-1.18054e-05
4.08447e-05
-1.07911e-05
5.33651e-05
3.14259e-05
5.91001e-06
3.14942e-05
7.25862e-06
5.55724e-05
1.50086e-05
4.87781e-05
2.46765e-05
4.88347e-05
3.63394e-05
5.11036e-05
5.12274e-05
5.19479e-05
6.81487e-05
5.16057e-05
8.53594e-05
5.42444e-05
9.40005e-05
6.20145e-05
8.97142e-05
7.64655e-05
6.91669e-05
0.000107712
3.99264e-05
0.000139847
2.46558e-05
0.000146381
1.64041e-05
0.000147352
1.5696e-05
0.00013673
1.70197e-05
0.000126188
1.70463e-05
0.000116338
1.44159e-05
0.000108094
6.89158e-06
0.000104465
-9.46986e-06
0.000105815
-4.79682e-05
0.000127079
-0.000100173
0.000167237
-0.000101734
0.000153834
-6.8035e-05
9.01932e-05
-3.61724e-05
4.34917e-05
-2.25884e-05
2.8025e-05
-1.96402e-05
2.91247e-05
-1.49901e-05
3.76277e-05
-8.91408e-06
4.61098e-05
2.34721e-05
2.20506e-06
3.04068e-05
6.36795e-06
5.3509e-05
1.42339e-05
4.37127e-05
2.3604e-05
4.24586e-05
3.44396e-05
4.36477e-05
4.64251e-05
4.36616e-05
6.07159e-05
4.12945e-05
7.96867e-05
3.88298e-05
0.000102928
4.01725e-05
0.000120765
5.16209e-05
0.000121842
8.85434e-05
0.000106436
0.0001321
8.49293e-05
0.000145081
6.56804e-05
0.000142763
5.04937e-05
0.000128957
3.92509e-05
0.00011666
2.92818e-05
0.000107898
1.62876e-05
0.000103606
-4.77992e-06
0.000107251
-3.88902e-05
0.000121179
-8.55919e-05
0.00015252
-0.000112291
0.000175303
-9.31989e-05
0.000128526
-5.18608e-05
5.21307e-05
-2.80603e-05
2.21442e-05
-2.13805e-05
2.16576e-05
-2.08904e-05
2.8326e-05
-1.53398e-05
3.30588e-05
-2.24336e-06
3.46447e-05
2.16099e-05
4.3476e-08
3.10749e-05
6.08414e-06
4.96737e-05
1.30505e-05
3.88542e-05
2.08476e-05
3.67313e-05
3.00801e-05
3.67164e-05
3.9799e-05
3.62083e-05
4.94542e-05
3.35749e-05
6.09971e-05
2.88269e-05
7.72435e-05
2.40863e-05
9.51094e-05
2.76874e-05
0.000111476
5.9375e-05
0.000125289
0.000104313
0.000126147
0.000132166
0.000120003
0.000136703
0.000105228
0.000129957
8.30001e-05
0.000123835
5.54091e-05
0.000120149
2.32284e-05
0.000120609
-1.25437e-05
0.000127929
-5.06189e-05
0.000143085
-8.04522e-05
0.000164079
-8.69121e-05
0.00016051
-6.76635e-05
9.49336e-05
-3.85397e-05
2.26811e-05
-2.53738e-05
9.89605e-06
-2.04266e-05
1.67315e-05
-1.72003e-05
2.44744e-05
-1.03807e-05
2.5762e-05
1.80506e-07
2.46712e-05
2.13951e-05
5.63273e-08
3.09817e-05
6.23024e-06
4.4694e-05
1.21436e-05
3.42413e-05
1.81386e-05
3.18098e-05
2.49856e-05
3.09093e-05
3.21636e-05
2.9901e-05
3.882e-05
2.74895e-05
4.51014e-05
2.27839e-05
5.23744e-05
1.61255e-05
6.20057e-05
1.32718e-05
7.8846e-05
3.38119e-05
9.95591e-05
7.59985e-05
0.000117691
0.000108833
0.000126087
0.000124933
0.000121706
0.000131131
0.000102719
0.00013912
7.16497e-05
0.000147267
3.44584e-05
0.000153847
-2.59718e-06
0.000161221
-3.46088e-05
0.000170802
-5.35954e-05
0.000176581
-5.64668e-05
0.000149783
-4.6053e-05
6.95928e-05
-2.99234e-05
4.40384e-06
-2.2391e-05
2.28236e-06
-1.77346e-05
1.13438e-05
-1.23599e-05
1.77568e-05
-6.16764e-06
1.81297e-05
-5.61183e-07
1.87465e-05
2.06325e-05
9.51934e-07
2.98584e-05
6.68705e-06
3.92698e-05
1.11285e-05
3.03309e-05
1.52834e-05
2.78892e-05
1.99114e-05
2.64961e-05
2.46899e-05
2.52045e-05
2.88238e-05
2.32397e-05
3.15845e-05
1.96994e-05
3.27984e-05
1.41341e-05
3.44949e-05
8.79597e-06
4.64347e-05
1.69767e-05
6.7189e-05
5.10783e-05
8.99899e-05
8.36581e-05
0.000107637
0.000107058
0.000113474
0.000125553
0.000101956
0.000150476
7.49892e-05
0.000173609
4.09524e-05
0.000187016
8.44887e-06
0.000193007
-1.72766e-05
0.000195945
-3.22691e-05
0.000189912
-3.58485e-05
0.000146831
-2.57831e-05
5.20058e-05
-1.88987e-05
-3.62269e-06
-1.67793e-05
-6.78338e-07
-1.39167e-05
6.86861e-06
-9.04492e-06
1.10081e-05
-4.30088e-06
1.2505e-05
-1.13772e-06
1.53036e-05
1.94697e-05
1.2291e-06
2.83964e-05
6.57383e-06
3.3381e-05
9.63047e-06
2.72628e-05
1.24383e-05
2.48866e-05
1.53426e-05
2.33922e-05
1.8134e-05
2.21462e-05
2.01789e-05
2.08448e-05
2.04961e-05
1.89502e-05
1.81638e-05
1.58944e-05
1.41755e-05
1.17212e-05
1.66648e-05
1.26602e-05
3.4012e-05
3.30544e-05
5.64302e-05
6.17747e-05
7.91362e-05
8.65855e-05
9.47756e-05
0.000112369
9.19732e-05
0.000154628
7.1084e-05
0.00019445
4.11882e-05
0.000216035
1.28808e-05
0.000220611
-9.12281e-06
0.000217445
-2.22396e-05
0.000202084
-2.56977e-05
0.000147043
-9.66832e-06
3.735e-05
-1.01114e-05
-5.21952e-06
-1.17555e-05
-1.63869e-06
-9.9516e-06
3.61561e-06
-6.54844e-06
6.42918e-06
-3.31078e-06
8.86608e-06
-8.80743e-07
1.28422e-05
1.84936e-05
1.12292e-06
2.7228e-05
5.77573e-06
2.81688e-05
7.85214e-06
2.468e-05
9.85275e-06
2.24588e-05
1.16528e-05
2.11932e-05
1.30673e-05
2.0357e-05
1.36173e-05
1.99294e-05
1.25318e-05
1.95797e-05
9.13441e-06
1.87608e-05
3.00939e-06
1.73888e-05
-9.87219e-07
1.73311e-05
8.29362e-06
2.59227e-05
2.76329e-05
4.53524e-05
5.18717e-05
6.66565e-05
7.03779e-05
9.80987e-05
7.23597e-05
0.000154718
5.73674e-05
0.000209581
3.32469e-05
0.000239403
9.74771e-06
0.000243394
-7.62119e-06
0.000234339
-1.57466e-05
0.00020957
-1.42762e-05
0.000144084
1.57067e-06
2.51027e-05
-3.74908e-06
-1.86827e-06
-6.79718e-06
1.04042e-08
-6.47231e-06
2.12746e-06
-4.66674e-06
4.10697e-06
-2.30591e-06
6.44953e-06
2.69187e-07
1.07605e-05
1.8174e-05
1.01804e-06
2.63219e-05
4.5813e-06
2.44864e-05
6.36273e-06
2.22266e-05
7.91919e-06
2.03789e-05
9.11751e-06
1.95222e-05
9.72233e-06
1.93937e-05
9.24232e-06
2.0147e-05
7.07289e-06
2.14793e-05
3.24898e-06
2.2323e-05
-2.4833e-06
2.28921e-05
-8.53372e-06
2.4261e-05
-8.11143e-06
2.95069e-05
3.14377e-06
3.93703e-05
2.49142e-05
5.00961e-05
4.33018e-05
8.38835e-05
4.07698e-05
0.000158477
3.03442e-05
0.000220761
1.49474e-05
0.000255548
-1.12002e-06
0.000259698
-1.10277e-05
0.000244984
-9.02053e-06
0.000209322
1.43891e-07
0.000138878
6.90251e-06
2.22787e-05
3.38423e-07
4.02806e-06
-2.75448e-06
2.49515e-06
-3.97502e-06
2.74023e-06
-3.48806e-06
3.47592e-06
-1.22186e-06
5.10421e-06
2.2614e-06
8.84186e-06
1.85686e-05
1.0602e-06
2.53284e-05
3.68111e-06
2.18914e-05
5.58133e-06
1.98802e-05
6.99533e-06
1.84824e-05
8.02998e-06
1.81183e-05
8.29391e-06
1.89575e-05
7.14811e-06
2.1269e-05
3.54637e-06
2.50528e-05
-1.37069e-06
2.73274e-05
-6.57683e-06
2.84278e-05
-1.1862e-05
3.03982e-05
-1.39066e-05
3.46105e-05
-1.00677e-05
4.12768e-05
-7.60834e-07
4.69719e-05
8.48167e-06
7.94995e-05
-5.90019e-07
0.000169417
-7.27275e-06
0.000231459
-1.13602e-05
0.000264567
-1.55965e-05
0.000268186
-1.47829e-05
0.000249273
1.00101e-06
0.000201281
1.87446e-05
0.0001328
1.36674e-05
3.49525e-05
3.68095e-06
1.46235e-05
-4.71366e-07
7.34296e-06
-2.67733e-06
4.72653e-06
-2.49981e-06
3.46068e-06
-2.51602e-07
4.4456e-06
3.49274e-08
1.18308e-05
2.36162e-05
1.23926e-06
2.40873e-05
3.45855e-06
1.96744e-05
5.52429e-06
1.75555e-05
7.19571e-06
1.64626e-05
8.52353e-06
1.66184e-05
8.96752e-06
1.85863e-05
7.97861e-06
2.31256e-05
1.67291e-06
3.19569e-05
-6.00818e-06
3.52229e-05
-1.06945e-05
3.37739e-05
-1.40392e-05
3.46405e-05
-1.47515e-05
3.67256e-05
-1.43644e-05
4.24529e-05
-2.03798e-05
5.67783e-05
-3.3299e-05
0.000101938
-4.34913e-05
0.00018673
-4.44618e-05
0.00024171
-3.46987e-05
0.000265595
-2.30279e-05
0.00026715
-1.04445e-05
0.000248155
1.64406e-05
0.000189013
4.49891e-05
0.000120227
2.8782e-05
5.73192e-05
7.60579e-06
4.03993e-05
-1.13964e-06
2.18378e-05
-2.98045e-06
6.44423e-06
-5.6781e-07
1.44831e-06
7.2663e-07
2.93627e-06
-5.06935e-07
1.71022e-05
2.6558e-05
1.33379e-06
2.25549e-05
3.70033e-06
1.73862e-05
6.06982e-06
1.50572e-05
8.32633e-06
1.40275e-05
1.04061e-05
1.45328e-05
1.23543e-05
1.75768e-05
1.33654e-05
2.39972e-05
3.28102e-07
4.19628e-05
-1.3285e-05
4.62032e-05
-1.65875e-05
3.71543e-05
-1.72783e-05
3.54894e-05
-1.52826e-05
3.48027e-05
-2.19334e-05
5.02091e-05
-4.83068e-05
8.54353e-05
-8.048e-05
0.000133183
-8.08543e-05
0.000193846
-6.72137e-05
0.000239375
-4.60853e-05
0.000257468
-2.39009e-05
0.000258744
5.76642e-07
0.000238615
3.06401e-05
0.00017579
5.60829e-05
0.000109545
3.20645e-05
7.53925e-05
7.45179e-06
5.70369e-05
-6.53309e-06
3.13386e-05
-4.65701e-06
7.86438e-06
-1.56377e-06
1.22482e-06
-1.36406e-06
7.43272e-06
-2.46187e-06
1.95725e-05
2.30311e-05
1.41359e-06
2.08773e-05
4.0301e-06
1.49923e-05
6.83503e-06
1.22728e-05
9.92325e-06
1.08965e-05
1.37451e-05
1.10763e-05
1.80462e-05
1.3958e-05
1.93067e-05
2.6312e-05
1.52201e-06
5.66674e-05
-1.84595e-05
5.95694e-05
-2.40444e-05
4.30827e-05
-2.64954e-05
3.84673e-05
-3.03598e-05
4.44033e-05
-5.1863e-05
7.25848e-05
-8.26051e-05
0.000106185
-0.000105364
0.000142702
-9.70944e-05
0.000181967
-7.4848e-05
0.000220742
-4.97852e-05
0.000239233
-2.22052e-05
0.000239532
1.09097e-05
0.000214503
3.43315e-05
0.000157853
3.5236e-05
0.000104984
1.5443e-05
8.51265e-05
3.82997e-06
6.28441e-05
-1.92711e-06
3.26049e-05
-3.03762e-06
9.03285e-06
-3.46367e-06
4.38118e-06
-4.06438e-06
1.00569e-05
-3.09406e-06
1.88585e-05
2.05551e-05
1.55474e-06
1.91842e-05
4.06754e-06
1.27792e-05
7.13619e-06
9.34142e-06
1.1217e-05
6.95322e-06
1.74811e-05
4.8624e-06
3.00627e-05
1.59471e-06
3.53598e-05
1.44072e-05
2.09638e-05
5.48705e-05
-4.16229e-06
7.10496e-05
-3.05094e-05
5.9133e-05
-5.33892e-05
5.59872e-05
-7.71472e-05
6.51904e-05
-9.49357e-05
8.68331e-05
-0.000101096
0.000107154
-0.000100655
0.000133721
-9.22728e-05
0.000163581
-7.40963e-05
0.000195026
-4.94399e-05
0.00020974
-2.18079e-05
0.000207703
4.2138e-06
0.000183343
1.21859e-05
0.000140539
2.60016e-06
0.000103696
-2.05759e-06
8.53467e-05
2.64389e-06
5.72334e-05
7.59962e-06
2.77892e-05
4.04956e-06
1.08896e-05
-4.43866e-08
7.81597e-06
-1.85358e-06
1.17582e-05
-1.2636e-06
1.85781e-05
1.9516e-05
1.46505e-06
1.71197e-05
3.34304e-06
1.11957e-05
6.03732e-06
6.8662e-06
1.01239e-05
3.07769e-06
1.64765e-05
-2.27484e-06
2.77338e-05
-7.86206e-06
2.92278e-05
5.5686e-06
2.67925e-05
4.85438e-05
7.13978e-06
8.36628e-05
-3.13349e-05
8.60224e-05
-7.36565e-05
8.453e-05
-0.000104751
8.57863e-05
-0.000112434
9.16025e-05
-0.000106349
0.000102275
-9.41131e-05
0.000121216
-8.19735e-05
0.000146272
-6.60072e-05
0.000170253
-4.82535e-05
0.000182005
-3.12241e-05
0.000180406
-1.9054e-05
0.00016151
-1.58778e-05
0.000128914
-1.419e-05
9.68998e-05
-5.45327e-06
7.53369e-05
7.29751e-06
4.55043e-05
1.23538e-05
2.32818e-05
9.66009e-06
1.35668e-05
5.07306e-06
1.23161e-05
1.86406e-06
1.48766e-05
5.20758e-07
1.976e-05
1.98088e-05
8.46746e-07
1.49769e-05
1.75638e-06
1.06863e-05
2.9813e-06
5.99375e-06
5.29105e-06
2.05474e-06
8.8897e-06
-4.22251e-06
1.31038e-05
-8.24613e-06
1.32541e-05
2.46446e-06
1.96668e-05
4.15614e-05
7.20781e-06
9.45896e-05
-2.57536e-05
0.00011605
-6.81985e-05
0.000119468
-0.000100955
0.000109856
-0.000111367
9.87827e-05
-0.000106429
9.88029e-05
-9.21918e-05
0.000109967
-7.64114e-05
0.000130946
-6.21895e-05
0.000152641
-4.95176e-05
0.000164278
-3.98324e-05
0.000164874
-3.27533e-05
0.000148811
-2.44986e-05
0.000117218
-1.4911e-05
8.66559e-05
1.88904e-06
5.96355e-05
1.37677e-05
3.49944e-05
1.56323e-05
2.18226e-05
1.23722e-05
1.67933e-05
7.82368e-06
1.66458e-05
4.10679e-06
1.83025e-05
1.78751e-06
2.17136e-05
2.11977e-05
-1.62345e-07
1.414e-05
-1.93741e-06
1.11868e-05
-1.52904e-06
6.819e-06
-1.2364e-06
3.50441e-06
-1.5251e-06
-9.07664e-07
-2.6591e-06
-3.24692e-06
-2.29485e-06
1.99792e-06
9.90887e-06
3.21083e-05
8.37592e-06
9.64816e-05
-1.64398e-05
0.000139902
-5.02518e-05
0.000150859
-8.36459e-05
0.00013648
-0.000101466
0.000111626
-0.00010183
9.94786e-05
-9.07458e-05
0.000102049
-7.38392e-05
0.000117096
-5.81687e-05
0.000137664
-4.58925e-05
0.000151399
-3.65281e-05
0.000154061
-2.85131e-05
0.000139008
-1.78605e-05
0.000106222
-4.2801e-06
7.40773e-05
1.24029e-05
4.46991e-05
1.87716e-05
2.94949e-05
1.76772e-05
2.30072e-05
1.36241e-05
2.0652e-05
9.13327e-06
2.07851e-05
5.27621e-06
2.1768e-05
2.58004e-06
2.40108e-05
2.33333e-05
-1.31455e-06
1.48766e-05
-4.70734e-06
1.31304e-05
-6.91887e-06
9.60933e-06
-9.78327e-06
5.43648e-06
-1.22131e-05
2.32908e-06
-1.45914e-05
-2.14162e-07
-1.36554e-05
9.81775e-07
-2.32804e-08
2.17708e-05
1.18344e-05
8.7847e-05
-5.80182e-06
0.000156486
-3.29006e-05
0.000177146
-6.47379e-05
0.000163374
-8.80955e-05
0.000128593
-9.29492e-05
0.000102255
-8.51351e-05
9.59554e-05
-6.87037e-05
0.000104904
-5.08126e-05
0.000123456
-3.67606e-05
0.000138974
-2.48501e-05
0.00014288
-1.35178e-05
0.000128339
-4.23181e-06
9.79048e-05
9.89942e-06
6.14782e-05
2.0001e-05
3.59264e-05
2.16428e-05
2.82368e-05
1.86576e-05
2.58333e-05
1.41018e-05
2.48471e-05
9.637e-06
2.48161e-05
5.73586e-06
2.52475e-05
2.91101e-06
2.64798e-05
2.57737e-05
-2.0237e-06
1.68994e-05
-4.25644e-06
1.49022e-05
-7.92335e-06
1.21112e-05
-1.23054e-05
8.72474e-06
-1.58827e-05
5.333e-06
-1.8767e-05
2.09956e-06
-1.92579e-05
1.47604e-06
-8.68603e-06
1.38022e-05
1.25131e-05
7.25474e-05
2.45192e-06
0.000166024
-2.12236e-05
0.000200124
-5.04045e-05
0.00018948
-7.54477e-05
0.000147614
-8.19521e-05
0.000104395
-7.54292e-05
9.01671e-05
-6.23578e-05
9.68172e-05
-4.47034e-05
0.000111087
-2.71859e-05
0.000124868
-1.02459e-05
0.000128308
3.86139e-06
0.00011648
1.19094e-05
9.17772e-05
1.9972e-05
5.50855e-05
2.37599e-05
3.33114e-05
2.25438e-05
2.94645e-05
1.86358e-05
2.92637e-05
1.40534e-05
2.88735e-05
9.69393e-06
2.86956e-05
5.88954e-06
2.86634e-05
3.01875e-06
2.90605e-05
2.83537e-05
-2.50852e-06
1.955e-05
-4.80111e-06
1.73538e-05
-7.67224e-06
1.50088e-05
-1.12677e-05
1.22068e-05
-1.5235e-05
9.08696e-06
-1.91411e-05
5.88493e-06
-2.13384e-05
4.13122e-06
-1.53508e-05
9.64544e-06
8.57623e-06
5.47175e-05
6.88934e-06
0.000168592
-1.47334e-05
0.000220939
-4.09668e-05
0.000214018
-6.47261e-05
0.000166189
-7.32435e-05
0.000108811
-6.82876e-05
8.668e-05
-5.62005e-05
8.82632e-05
-3.93773e-05
9.83354e-05
-1.9326e-05
0.000109324
1.81343e-06
0.000111674
1.83162e-05
0.000103954
2.72519e-05
8.60364e-05
2.74967e-05
5.7358e-05
2.52541e-05
3.7289e-05
2.18942e-05
3.29773e-05
1.77324e-05
3.29198e-05
1.35528e-05
3.25771e-05
9.49741e-06
3.23023e-05
5.90849e-06
3.19298e-05
3.02093e-06
3.17116e-05
3.09646e-05
-2.7223e-06
2.24237e-05
-5.48284e-06
2.01612e-05
-8.23738e-06
1.78243e-05
-1.12903e-05
1.53013e-05
-1.47685e-05
1.25938e-05
-1.86698e-05
9.87856e-06
-2.18329e-05
7.90878e-06
-1.92824e-05
9.02816e-06
9.48175e-09
4.01671e-05
6.3921e-06
0.000165947
-1.16812e-05
0.000238716
-3.36316e-05
0.000234915
-5.27976e-05
0.000181533
-6.15039e-05
0.000115096
-5.66583e-05
8.35396e-05
-4.79238e-05
8.29946e-05
-3.4573e-05
8.93671e-05
-1.38937e-05
9.40539e-05
9.62009e-06
9.44466e-05
2.8377e-05
9.13019e-05
3.74422e-05
8.20004e-05
3.38369e-05
6.46914e-05
2.60209e-05
4.7327e-05
2.05337e-05
3.89866e-05
1.62298e-05
3.71288e-05
1.24971e-05
3.62674e-05
8.99995e-06
3.56724e-05
5.75247e-06
3.5032e-05
2.90765e-06
3.4378e-05
3.35141e-05
-2.9778e-06
2.54055e-05
-6.16829e-06
2.32803e-05
-9.17466e-06
2.07585e-05
-1.21187e-05
1.81876e-05
-1.52592e-05
1.56969e-05
-1.87788e-05
1.34634e-05
-2.23125e-05
1.1632e-05
-2.22934e-05
1.09397e-05
-1.06331e-05
3.42082e-05
-5.80875e-08
0.00016194
-1.1948e-05
0.000252275
-2.9322e-05
0.000252761
-4.33829e-05
0.000193412
-4.73992e-05
0.00011788
-4.14281e-05
7.99856e-05
-3.45663e-05
7.99238e-05
-2.34777e-05
8.31587e-05
-6.99466e-06
8.35729e-05
1.193e-05
8.20951e-05
2.89123e-05
8.06488e-05
3.89595e-05
7.76659e-05
3.70622e-05
7.01738e-05
2.69198e-05
5.85066e-05
1.93045e-05
4.74804e-05
1.46022e-05
4.2174e-05
1.09341e-05
4.00535e-05
7.98858e-06
3.87895e-05
5.26005e-06
3.78267e-05
2.64525e-06
3.69191e-05
3.59012e-05
-3.43255e-06
2.84053e-05
-7.0387e-06
2.6674e-05
-1.03e-05
2.39332e-05
-1.31175e-05
2.08643e-05
-1.59897e-05
1.84018e-05
-1.92759e-05
1.65599e-05
-2.30086e-05
1.49842e-05
-2.47218e-05
1.41793e-05
-1.88127e-05
3.55172e-05
-1.22398e-05
0.000163343
-1.64638e-05
0.000260883
-2.63405e-05
0.000264431
-2.97226e-05
0.000197507
-2.5099e-05
0.000115228
-2.25517e-05
8.03926e-05
-2.00757e-05
7.99235e-05
-1.3529e-05
7.99932e-05
-3.35245e-06
7.79988e-05
8.28502e-06
7.56528e-05
2.07243e-05
7.34421e-05
3.10763e-05
7.1165e-05
3.37491e-05
6.92232e-05
2.69028e-05
6.51156e-05
1.80874e-05
5.60274e-05
1.29097e-05
4.75794e-05
9.45262e-06
4.36699e-05
6.62081e-06
4.17251e-05
4.38289e-06
4.01899e-05
2.18036e-06
3.91088e-05
3.79122e-05
-4.4537e-06
3.1889e-05
-7.8244e-06
3.00177e-05
-1.16397e-05
2.71434e-05
-1.37985e-05
2.28793e-05
-1.61891e-05
2.0578e-05
-1.96249e-05
1.96196e-05
-2.45252e-05
1.93879e-05
-2.88547e-05
2.02024e-05
-2.90392e-05
4.39102e-05
-2.62506e-05
0.000169343
-2.25795e-05
0.000263446
-1.95186e-05
0.000265615
-1.10231e-05
0.000195277
-3.49054e-06
0.000113645
-7.48377e-06
8.58309e-05
-9.02448e-06
8.32883e-05
-7.15435e-06
8.15391e-05
-2.88762e-06
7.79423e-05
2.7671e-06
7.41045e-05
9.75893e-06
6.99373e-05
1.73298e-05
6.55916e-05
2.34768e-05
6.32644e-05
2.36633e-05
6.37942e-05
1.74132e-05
6.08074e-05
1.15306e-05
5.3084e-05
8.13199e-06
4.70268e-05
5.49109e-06
4.43141e-05
3.48124e-06
4.22315e-05
1.57315e-06
4.09723e-05
3.93713e-05
-6.24038e-06
3.66009e-05
-8.47474e-06
3.75371e-05
-1.24422e-05
3.03059e-05
-1.32055e-05
2.35525e-05
-1.4902e-05
2.24222e-05
-1.89257e-05
2.39641e-05
-2.72271e-05
2.77603e-05
-3.74636e-05
3.38069e-05
-4.26312e-05
5.93458e-05
-3.71453e-05
0.000174155
-2.4982e-05
0.00025952
-9.08423e-06
0.000258575
1.09009e-05
0.000187373
1.44311e-05
0.000116787
5.65749e-06
9.43156e-05
5.12307e-07
8.90771e-05
-1.40643e-06
8.49018e-05
-1.36181e-06
7.96471e-05
1.27217e-07
7.43913e-05
2.68892e-06
6.8823e-05
5.94132e-06
6.35401e-05
1.08706e-05
5.94853e-05
1.58109e-05
5.88976e-05
1.55407e-05
5.95826e-05
1.10667e-05
5.64387e-05
7.21281e-06
5.04787e-05
4.74481e-06
4.65924e-05
2.96856e-06
4.38849e-05
1.01414e-06
4.27736e-05
4.02817e-05
-8.40001e-06
4.64743e-05
-1.19506e-05
4.39307e-05
-1.11568e-05
3.10772e-05
-9.78666e-06
2.27919e-05
-1.0412e-05
2.48869e-05
-1.72686e-05
3.14872e-05
-3.18969e-05
4.36484e-05
-4.94738e-05
5.35837e-05
-5.63662e-05
7.86964e-05
-4.43654e-05
0.00017667
-2.25952e-05
0.000250047
7.8924e-06
0.000241608
3.47183e-05
0.000174044
3.31495e-05
0.000123422
2.23673e-05
0.00010566
1.25385e-05
9.79929e-05
6.06544e-06
9.04399e-05
1.68909e-06
8.37488e-05
-6.98445e-07
7.68199e-05
-7.50446e-07
6.91515e-05
8.26909e-11
6.32087e-05
1.87598e-06
5.8424e-05
6.55566e-06
5.57717e-05
1.06733e-05
5.56637e-05
9.92984e-06
5.56911e-05
6.95703e-06
5.25921e-05
4.41493e-06
4.86989e-05
3.01555e-06
4.5073e-05
7.04856e-07
4.47642e-05
4.08222e-05
-8.04747e-06
5.29918e-05
-1.11519e-05
4.18696e-05
-6.81508e-06
3.17832e-05
-3.76399e-06
2.31788e-05
-6.07207e-06
2.82172e-05
-1.34745e-05
3.81018e-05
-2.89845e-05
5.46355e-05
-5.02996e-05
7.44396e-05
-6.46594e-05
0.000104931
-4.91043e-05
0.000178741
-1.4217e-05
0.000230864
3.05561e-05
0.000212438
5.52105e-05
0.000160867
5.39826e-05
0.000127168
4.30663e-05
0.000113035
3.168e-05
0.000106323
1.95281e-05
0.000101651
8.86259e-06
9.45171e-05
8.93385e-07
8.42833e-05
-2.07691e-06
7.17509e-05
-2.61964e-06
6.3831e-05
-2.35306e-06
5.83445e-05
-3.29212e-07
5.43932e-05
4.20402e-06
5.2378e-05
7.12622e-06
5.24723e-05
6.27453e-06
5.20462e-05
4.41972e-06
4.97882e-05
3.52805e-06
4.56956e-05
5.10651e-07
4.73125e-05
4.12102e-05
4.93565e-07
5.10159e-05
-1.07931e-06
4.05679e-05
2.54063e-06
3.20058e-05
4.37715e-06
2.79917e-05
1.28555e-06
3.1107e-05
-7.41538e-06
4.45417e-05
-2.07546e-05
6.68452e-05
-4.33392e-05
9.49346e-05
-6.41432e-05
0.000127686
-4.73433e-05
0.000174448
-1.6365e-06
0.000201191
4.25263e-05
0.000183086
6.08383e-05
0.000150936
5.94232e-05
0.000130349
5.04147e-05
0.000120139
4.169e-05
0.000114023
3.09985e-05
0.000110852
1.74761e-05
0.000104412
7.07143e-06
9.27147e-05
-1.46991e-06
7.88081e-05
-3.80717e-06
6.57534e-05
-4.31202e-06
5.8898e-05
-3.81782e-06
5.40427e-05
-1.3418e-06
5.04857e-05
2.92534e-06
4.89293e-05
4.72768e-06
4.92977e-05
4.15278e-06
4.9052e-05
3.85346e-06
4.56727e-05
3.53008e-07
5.049e-05
4.14067e-05
1.04875e-05
4.52909e-05
8.43047e-06
4.46494e-05
1.33585e-05
2.89119e-05
1.18071e-05
3.15297e-05
6.62442e-06
3.80546e-05
-1.74493e-06
5.21185e-05
-9.86008e-06
7.48668e-05
-2.56697e-05
0.000109737
-4.52851e-05
0.000144581
-3.16622e-05
0.000166821
7.99187e-06
0.000174527
3.99377e-05
0.000163295
5.04419e-05
0.000147418
4.76395e-05
0.000136871
4.09885e-05
0.000130877
3.46081e-05
0.000123915
3.00924e-05
0.000117219
2.3e-05
0.000109541
1.37189e-05
9.6906e-05
2.09501e-06
8.55192e-05
-3.62241e-06
7.02664e-05
-5.5637e-06