/*--------------------------------*- C++ -*----------------------------------*\
| =========                 |                                                 |
| \\      /  F ield         | OpenFOAM: The Open Source CFD Toolbox           |
|  \\    /   O peration     | Version:  v1606+                                |
|   \\  /    A nd           | Web:      www.OpenFOAM.com                      |
|    \\/     M anipulation  |                                                 |
\*---------------------------------------------------------------------------*/
FoamFile
{
    version     2.0;
    format      ascii;
    class       volVectorField;
    location    "1.71";
    object      U.air;
}
// * * * * * * * * * * * * * * * * * * * * * * * * * * * * * * * * * * * * * //

dimensions      [0 1 -1 0 0 0 0];

internalField   nonuniform List<vector> 
6000
(
(-0.00057476 0.282541 0)
(0.0266865 0.218305 0)
(0.0159247 0.212846 0)
(0.00912853 0.191036 0)
(0.0137803 0.182827 0)
(0.0410966 0.191645 0)
(0.0841857 0.194154 0)
(0.0903495 0.202534 0)
(0.0437827 0.186114 0)
(0.00404745 0.15489 0)
(-0.00491054 0.16386 0)
(0.00983007 0.181615 0)
(0.0266799 0.194725 0)
(0.0191378 0.2068 0)
(0.00848719 0.187911 0)
(0.00965973 0.170889 0)
(0.000112411 0.166542 0)
(-0.0194321 0.181786 0)
(-0.0509295 0.209005 0)
(-0.0553837 0.189421 0)
(-0.0171873 0.216478 0)
(0.012922 0.248868 0)
(0.0471501 0.275242 0)
(0.0873928 0.286213 0)
(0.119436 0.310305 0)
(0.110477 0.342445 0)
(0.02649 0.350503 0)
(-0.0382348 0.280316 0)
(-0.0134704 0.218033 0)
(0.020506 0.287783 0)
(0.00446629 1.04008 0)
(-0.0467915 1.08777 0)
(-0.069858 1.07649 0)
(-0.0568618 1.04049 0)
(-0.04009 1.00603 0)
(-0.00215187 0.932217 0)
(0.066912 0.920418 0)
(0.141342 0.99062 0)
(0.179153 1.06133 0)
(0.169403 1.05996 0)
(0.146495 1.03931 0)
(0.12457 1.03124 0)
(0.0886493 1.07465 0)
(0.0149996 1.10819 0)
(-0.048048 1.07454 0)
(-0.0756034 1.06431 0)
(-0.111983 1.07092 0)
(-0.136661 1.07154 0)
(-0.126582 1.04648 0)
(-0.0829902 0.986388 0)
(-0.0233618 0.964885 0)
(0.0351437 0.967681 0)
(0.0755548 0.949901 0)
(0.108948 0.9525 0)
(0.148856 0.956305 0)
(0.143341 1.06002 0)
(0.0775856 1.14163 0)
(-0.0160921 1.09567 0)
(-0.0272648 1.04863 0)
(-0.0266283 1.06001 0)
(-0.0481604 0.874379 0)
(-0.119133 0.872596 0)
(-0.137743 0.813289 0)
(-0.123003 0.766749 0)
(-0.108235 0.725071 0)
(-0.0840819 0.649566 0)
(-0.00510962 0.589797 0)
(0.118835 0.649617 0)
(0.222224 0.758545 0)
(0.260312 0.774904 0)
(0.290688 0.787009 0)
(0.27509 0.831605 0)
(0.18197 0.898838 0)
(0.0338003 0.973682 0)
(-0.105702 0.884963 0)
(-0.166292 0.854015 0)
(-0.185259 0.847837 0)
(-0.193666 0.829692 0)
(-0.170947 0.757525 0)
(-0.0890423 0.647912 0)
(-0.00101275 0.656324 0)
(0.0539655 0.681973 0)
(0.0939902 0.707727 0)
(0.132058 0.691061 0)
(0.145001 0.726503 0)
(0.124904 0.873102 0)
(0.108326 0.987457 0)
(0.0679981 0.909866 0)
(0.0302888 0.726344 0)
(0.00294923 0.800347 0)
(-0.0159527 0.987433 0)
(-0.0250169 0.957799 0)
(-0.0432536 0.89479 0)
(-0.0636629 0.840622 0)
(-0.107368 0.823772 0)
(-0.130244 0.709912 0)
(-0.0687915 0.57716 0)
(0.0508899 0.589142 0)
(0.212322 0.746993 0)
(0.305897 0.783893 0)
(0.370027 0.805451 0)
(0.385176 0.90996 0)
(0.287254 1.05678 0)
(0.1248 1.15384 0)
(-0.0574218 1.04462 0)
(-0.184846 0.937127 0)
(-0.235701 0.919429 0)
(-0.245528 0.878189 0)
(-0.210981 0.766958 0)
(-0.127111 0.637421 0)
(-0.0934946 0.676315 0)
(-0.0907542 0.682759 0)
(-0.0429038 0.681535 0)
(0.0384184 0.664444 0)
(0.0670485 0.752642 0)
(0.0854476 0.862149 0)
(0.135011 0.931383 0)
(0.163401 0.940064 0)
(0.102461 0.844279 0)
(0.00709946 0.867192 0)
(0.00962251 0.902756 0)
(0.0258404 0.900236 0)
(0.014851 0.868419 0)
(-0.00420573 0.843925 0)
(-0.0388262 0.810601 0)
(-0.0582279 0.649071 0)
(-0.0347814 0.462632 0)
(0.0460051 0.429728 0)
(0.178614 0.592663 0)
(0.310487 0.676167 0)
(0.399149 0.743302 0)
(0.406685 0.91335 0)
(0.324551 1.16058 0)
(0.200375 1.26264 0)
(0.0598615 1.20015 0)
(-0.123152 1.03303 0)
(-0.244426 0.955408 0)
(-0.284202 0.863108 0)
(-0.251493 0.695028 0)
(-0.224512 0.560766 0)
(-0.245098 0.669772 0)
(-0.262636 0.639085 0)
(-0.211112 0.561435 0)
(-0.116161 0.534542 0)
(-0.0121052 0.642618 0)
(0.072421 0.730841 0)
(0.129072 0.819661 0)
(0.139828 0.860732 0)
(0.08891 0.849599 0)
(0.0173447 0.839246 0)
(0.00543967 0.871387 0)
(0.0103448 0.862265 0)
(0.0137834 0.825202 0)
(0.0179318 0.79788 0)
(0.0161858 0.771428 0)
(0.0621025 0.652211 0)
(0.101006 0.428767 0)
(0.130261 0.384768 0)
(0.182182 0.50424 0)
(0.266567 0.583431 0)
(0.350347 0.693087 0)
(0.363216 0.937778 0)
(0.293048 1.24974 0)
(0.198498 1.32039 0)
(0.119042 1.30721 0)
(-0.0439122 1.19388 0)
(-0.205778 1.02518 0)
(-0.260636 0.864142 0)
(-0.242733 0.675518 0)
(-0.301816 0.58799 0)
(-0.34239 0.684344 0)
(-0.329128 0.606788 0)
(-0.304883 0.488394 0)
(-0.24846 0.43884 0)
(-0.155969 0.531279 0)
(-0.0340212 0.653773 0)
(0.0826366 0.80195 0)
(0.10913 0.879299 0)
(0.0717877 0.883585 0)
(0.0232573 0.863479 0)
(-0.000946033 0.864501 0)
(0.00879092 0.859235 0)
(0.0314475 0.828533 0)
(0.0343717 0.804633 0)
(0.0766392 0.734577 0)
(0.174248 0.557746 0)
(0.222739 0.396787 0)
(0.208943 0.388939 0)
(0.200692 0.47172 0)
(0.221283 0.546342 0)
(0.260136 0.644563 0)
(0.29562 0.940479 0)
(0.251803 1.33294 0)
(0.167249 1.38373 0)
(0.0999067 1.37259 0)
(-0.00201545 1.33402 0)
(-0.118596 1.09778 0)
(-0.170105 0.850087 0)
(-0.179151 0.702416 0)
(-0.216493 0.655134 0)
(-0.26307 0.699422 0)
(-0.24261 0.611123 0)
(-0.244066 0.512594 0)
(-0.270775 0.469546 0)
(-0.274643 0.492955 0)
(-0.228159 0.560222 0)
(-0.133574 0.700936 0)
(-0.0129635 0.869097 0)
(0.0178615 0.944673 0)
(0.0175751 0.925023 0)
(0.0104126 0.861342 0)
(0.0614878 0.835843 0)
(0.0977245 0.817802 0)
(0.12547 0.812859 0)
(0.191637 0.718384 0)
(0.222805 0.565405 0)
(0.2107 0.445009 0)
(0.176733 0.428784 0)
(0.151887 0.473886 0)
(0.142618 0.545835 0)
(0.157989 0.622329 0)
(0.194859 0.913996 0)
(0.212545 1.38425 0)
(0.151677 1.44174 0)
(0.0787846 1.41611 0)
(0.0238815 1.3846 0)
(-0.0309348 1.14265 0)
(-0.0625345 0.843075 0)
(-0.0827416 0.718381 0)
(-0.0905161 0.6933 0)
(-0.103395 0.744858 0)
(-0.0917618 0.652663 0)
(-0.116852 0.575648 0)
(-0.178134 0.571992 0)
(-0.261941 0.613722 0)
(-0.327833 0.665848 0)
(-0.338837 0.711434 0)
(-0.220891 0.810603 0)
(-0.0929664 0.941323 0)
(-0.0228795 0.951278 0)
(0.0480997 0.877067 0)
(0.144373 0.884289 0)
(0.192336 0.9047 0)
(0.224259 0.895668 0)
(0.208345 0.822269 0)
(0.146479 0.699491 0)
(0.0891876 0.528427 0)
(0.0655547 0.470716 0)
(0.0582129 0.486596 0)
(0.0490942 0.555121 0)
(0.0556257 0.616544 0)
(0.0868116 0.873458 0)
(0.141809 1.37959 0)
(0.139167 1.49954 0)
(0.0784174 1.45992 0)
(0.0655648 1.40774 0)
(0.0704965 1.16445 0)
(0.0649835 0.857066 0)
(0.0357679 0.748965 0)
(0.0280169 0.724438 0)
(0.0351072 0.756174 0)
(0.0506191 0.688251 0)
(0.0380388 0.648224 0)
(-0.00627576 0.70408 0)
(-0.160494 0.834109 0)
(-0.354356 0.850532 0)
(-0.407595 0.804517 0)
(-0.328246 0.826639 0)
(-0.211061 0.969097 0)
(-0.0775702 0.962209 0)
(0.0942039 0.809057 0)
(0.186573 0.850509 0)
(0.191253 0.871818 0)
(0.177757 0.885927 0)
(0.114173 0.867547 0)
(-0.0164212 0.775929 0)
(-0.103006 0.590524 0)
(-0.0843066 0.478698 0)
(-0.037627 0.484393 0)
(-0.0176368 0.557815 0)
(-0.0281169 0.646408 0)
(-0.0272348 0.859486 0)
(0.0201567 1.34302 0)
(0.0855661 1.53742 0)
(0.085317 1.48567 0)
(0.12959 1.39147 0)
(0.18949 1.16126 0)
(0.195828 0.895987 0)
(0.166521 0.787215 0)
(0.143251 0.753699 0)
(0.138592 0.753868 0)
(0.158306 0.686702 0)
(0.200925 0.66712 0)
(0.127981 0.805878 0)
(-0.126024 0.935322 0)
(-0.296283 0.846129 0)
(-0.316665 0.72377 0)
(-0.266091 0.738808 0)
(-0.254767 0.918235 0)
(-0.114452 0.832899 0)
(0.0567957 0.618816 0)
(0.117317 0.780737 0)
(0.115364 0.807395 0)
(0.131046 0.85553 0)
(0.115452 0.877076 0)
(0.0419692 0.829451 0)
(-0.0965732 0.590341 0)
(-0.163398 0.483465 0)
(-0.102709 0.464367 0)
(-0.0301242 0.549993 0)
(-0.0434041 0.698028 0)
(-0.0830621 0.915877 0)
(-0.0860496 1.31935 0)
(0.0052701 1.53366 0)
(0.0856159 1.46436 0)
(0.17977 1.3501 0)
(0.261043 1.15898 0)
(0.267489 0.949542 0)
(0.227522 0.837083 0)
(0.190172 0.782059 0)
(0.17808 0.73705 0)
(0.216719 0.645152 0)
(0.217138 0.709247 0)
(-0.0905181 0.980423 0)
(-0.316308 1.13513 0)
(-0.361951 0.85923 0)
(-0.310924 0.654861 0)
(-0.246369 0.665197 0)
(-0.210257 0.837201 0)
(-0.0369288 0.618345 0)
(0.0181242 0.5292 0)
(0.0672293 0.742091 0)
(0.0972459 0.7366 0)
(0.14683 0.750553 0)
(0.201291 0.78722 0)
(0.243429 0.836044 0)
(0.186382 0.740622 0)
(0.0351725 0.510131 0)
(-0.0457663 0.467554 0)
(0.0125381 0.588946 0)
(0.0393387 0.790744 0)
(-0.0407079 1.03977 0)
(-0.110802 1.35715 0)
(-0.0383017 1.52202 0)
(0.0820171 1.4461 0)
(0.191017 1.32823 0)
(0.261937 1.17306 0)
(0.260094 1.00808 0)
(0.211956 0.895727 0)
(0.16325 0.816353 0)
(0.134012 0.730692 0)
(0.149368 0.671085 0)
(-0.153508 0.962083 0)
(-0.504067 1.24578 0)
(-0.538327 1.04717 0)
(-0.400232 0.679783 0)
(-0.268879 0.489285 0)
(-0.172577 0.536185 0)
(-0.136303 0.657217 0)
(0.0150632 0.497754 0)
(0.0191116 0.413825 0)
(0.0787644 0.583795 0)
(0.116035 0.589334 0)
(0.186403 0.617984 0)
(0.271259 0.668293 0)
(0.384824 0.712489 0)
(0.504382 0.712918 0)
(0.51626 0.689934 0)
(0.399157 0.5823 0)
(0.26865 0.625304 0)
(0.221543 0.898865 0)
(0.0941719 1.21467 0)
(-0.0201369 1.45426 0)
(-0.0123246 1.53585 0)
(0.0832408 1.44929 0)
(0.165332 1.3246 0)
(0.209014 1.19106 0)
(0.202715 1.06088 0)
(0.159018 0.964352 0)
(0.0951132 0.879668 0)
(0.0298234 0.814016 0)
(-0.220269 0.950154 0)
(-0.696056 1.37715 0)
(-0.809449 1.274 0)
(-0.591111 0.861924 0)
(-0.354072 0.482229 0)
(-0.221124 0.345332 0)
(-0.139627 0.436695 0)
(-0.138328 0.556176 0)
(-0.00937777 0.376417 0)
(0.0170883 0.325923 0)
(0.0687773 0.57787 0)
(0.103285 0.536887 0)
(0.197147 0.543683 0)
(0.302582 0.564331 0)
(0.440194 0.57264 0)
(0.598603 0.579619 0)
(0.775482 0.622509 0)
(0.912869 0.697253 0)
(0.920763 0.775893 0)
(0.797182 0.982853 0)
(0.549759 1.24833 0)
(0.316179 1.37677 0)
(0.198964 1.39529 0)
(0.156953 1.34107 0)
(0.163048 1.26855 0)
(0.171232 1.17311 0)
(0.160813 1.07398 0)
(0.112275 1.00258 0)
(0.00533726 0.95319 0)
(-0.231997 1.00898 0)
(-0.773393 1.41968 0)
(-1.08138 1.55471 0)
(-0.877008 1.06549 0)
(-0.49308 0.560984 0)
(-0.269643 0.321561 0)
(-0.204781 0.290526 0)
(-0.172787 0.391062 0)
(-0.145365 0.521514 0)
(0.00730274 0.266748 0)
(-0.00438923 0.307891 0)
(0.0440592 0.549041 0)
(0.0989343 0.45438 0)
(0.187805 0.446228 0)
(0.290912 0.465396 0)
(0.405447 0.468834 0)
(0.534675 0.450462 0)
(0.697847 0.452454 0)
(0.91105 0.510327 0)
(1.09997 0.665005 0)
(1.22025 1.05732 0)
(1.19976 1.47811 0)
(0.956411 1.51009 0)
(0.758478 1.49271 0)
(0.571895 1.31138 0)
(0.443567 1.15595 0)
(0.342353 1.04914 0)
(0.236 0.982024 0)
(0.0715165 0.982369 0)
(-0.191163 1.06619 0)
(-0.622234 1.38476 0)
(-1.06984 1.75904 0)
(-1.06654 1.42671 0)
(-0.70788 0.68562 0)
(-0.379214 0.304612 0)
(-0.231201 0.240892 0)
(-0.212577 0.288185 0)
(-0.185155 0.356806 0)
(-0.100539 0.394064 0)
(0.0312013 0.22377 0)
(-0.0173898 0.302644 0)
(0.0316188 0.509682 0)
(0.0942178 0.408122 0)
(0.168734 0.39033 0)
(0.254427 0.394385 0)
(0.351214 0.392446 0)
(0.447686 0.368516 0)
(0.550563 0.329492 0)
(0.682989 0.308357 0)
(0.825767 0.38763 0)
(1.02185 0.752195 0)
(1.20903 1.22462 0)
(1.29488 1.47726 0)
(1.25492 1.48141 0)
(1.13932 1.37489 0)
(0.953926 1.26868 0)
(0.702519 1.19102 0)
(0.402554 1.16397 0)
(0.0596865 1.22314 0)
(-0.32025 1.38015 0)
(-0.699985 1.64937 0)
(-0.922367 1.70388 0)
(-0.764789 1.09999 0)
(-0.501075 0.351084 0)
(-0.313679 0.14848 0)
(-0.221063 0.191106 0)
(-0.193656 0.267188 0)
(-0.139082 0.291378 0)
(-0.0498168 0.291184 0)
(0.0157591 0.218792 0)
(-0.017209 0.311648 0)
(0.0341293 0.469642 0)
(0.0908744 0.361803 0)
(0.151407 0.338669 0)
(0.215508 0.334251 0)
(0.286855 0.327118 0)
(0.356808 0.302268 0)
(0.421437 0.254105 0)
(0.484113 0.193798 0)
(0.541319 0.192442 0)
(0.676345 0.456044 0)
(0.890229 0.88968 0)
(1.11672 1.22144 0)
(1.24824 1.33116 0)
(1.26614 1.32925 0)
(1.15609 1.33334 0)
(0.893015 1.34514 0)
(0.53785 1.37879 0)
(0.15559 1.45828 0)
(-0.203761 1.59437 0)
(-0.484893 1.73053 0)
(-0.625788 1.56913 0)
(-0.496482 0.815675 0)
(-0.356174 0.125248 0)
(-0.258049 0.0568224 0)
(-0.20083 0.136806 0)
(-0.155045 0.210914 0)
(-0.0902259 0.220613 0)
(-0.0302563 0.217291 0)
(0.00116452 0.212209 0)
(-0.0139863 0.30335 0)
(0.0431443 0.417367 0)
(0.0882097 0.320852 0)
(0.132358 0.296678 0)
(0.175956 0.284978 0)
(0.223829 0.273564 0)
(0.26936 0.252076 0)
(0.304957 0.210818 0)
(0.323491 0.147827 0)
(0.321591 0.101979 0)
(0.363066 0.237289 0)
(0.566956 0.6432 0)
(0.78825 0.970312 0)
(1.01347 1.17715 0)
(1.13582 1.30457 0)
(1.1179 1.46293 0)
(0.912675 1.61039 0)
(0.586067 1.70504 0)
(0.238747 1.77175 0)
(-0.0620227 1.83432 0)
(-0.277587 1.83247 0)
(-0.40112 1.48877 0)
(-0.301186 0.632282 0)
(-0.205377 -0.000204771 0)
(-0.173664 0.000985544 0)
(-0.161002 0.0903473 0)
(-0.115666 0.144836 0)
(-0.0640847 0.153449 0)
(-0.0250052 0.1707 0)
(-0.00506895 0.201104 0)
(-0.0148975 0.291278 0)
(0.0455207 0.361401 0)
(0.0802144 0.286752 0)
(0.110675 0.262985 0)
(0.139009 0.248494 0)
(0.168103 0.235729 0)
(0.193048 0.219583 0)
(0.206271 0.192969 0)
(0.196919 0.150224 0)
(0.160765 0.0997539 0)
(0.12785 0.133284 0)
(0.23141 0.402518 0)
(0.438811 0.710322 0)
(0.692448 0.964617 0)
(0.891837 1.21102 0)
(0.975893 1.55067 0)
(0.851211 1.85943 0)
(0.570465 2.02622 0)
(0.261952 2.07781 0)
(0.00276272 2.07472 0)
(-0.182222 1.96356 0)
(-0.289065 1.46949 0)
(-0.169933 0.450416 0)
(-0.0840648 -0.0518145 0)
(-0.105728 -0.0132712 0)
(-0.115799 0.0537469 0)
(-0.0820346 0.0873936 0)
(-0.0476434 0.106903 0)
(-0.0200745 0.141008 0)
(-0.00464914 0.189766 0)
(-0.00798706 0.280565 0)
(0.0377522 0.307088 0)
(0.0678567 0.258861 0)
(0.0887037 0.236064 0)
(0.107867 0.222112 0)
(0.124413 0.211595 0)
(0.13455 0.203224 0)
(0.13247 0.192764 0)
(0.111222 0.174879 0)
(0.0643339 0.148419 0)
(0.00760213 0.147819 0)
(0.00683749 0.274425 0)
(0.155475 0.53554 0)
(0.406147 0.78447 0)
(0.618169 1.05295 0)
(0.749657 1.55775 0)
(0.686981 2.03385 0)
(0.465264 2.29172 0)
(0.208228 2.32997 0)
(-0.00621278 2.2688 0)
(-0.143185 2.06884 0)
(-0.184324 1.46427 0)
(-0.053157 0.29398 0)
(0.0033647 -0.0402902 0)
(-0.0588634 -0.00628187 0)
(-0.0693423 0.0294519 0)
(-0.0555057 0.0525795 0)
(-0.03422 0.0768229 0)
(-0.0095224 0.118619 0)
(-0.000299955 0.183033 0)
(0.000349497 0.269461 0)
(0.0276451 0.263922 0)
(0.0549857 0.234771 0)
(0.0715012 0.213721 0)
(0.0857024 0.20304 0)
(0.0951021 0.198344 0)
(0.0958696 0.200187 0)
(0.0826789 0.205317 0)
(0.0531723 0.206048 0)
(0.00583233 0.203302 0)
(-0.0514542 0.21082 0)
(-0.0872504 0.269335 0)
(-0.0540826 0.398325 0)
(0.127933 0.556904 0)
(0.346274 0.910761 0)
(0.447077 1.53749 0)
(0.383364 2.15587 0)
(0.235344 2.49578 0)
(0.0639479 2.53643 0)
(-0.0809269 2.41726 0)
(-0.127904 2.12561 0)
(-0.0415613 1.42846 0)
(0.0433146 0.219773 0)
(0.036158 0.0136707 0)
(-0.0158867 0.015502 0)
(-0.035138 0.0246394 0)
(-0.0375769 0.0378815 0)
(-0.0231344 0.0589415 0)
(0.00602799 0.100248 0)
(0.00656339 0.184558 0)
(0.00431946 0.25908 0)
(0.0224314 0.232416 0)
(0.0467176 0.211302 0)
(0.0630439 0.194498 0)
(0.0757745 0.188396 0)
(0.0828481 0.192033 0)
(0.07868 0.207071 0)
(0.0545299 0.231976 0)
(0.0118473 0.24787 0)
(-0.0388148 0.257137 0)
(-0.0913923 0.275406 0)
(-0.127681 0.323469 0)
(-0.127492 0.393424 0)
(-0.062624 0.456621 0)
(0.0347478 0.782571 0)
(0.0527131 1.64894 0)
(-0.03164 2.2876 0)
(-0.095786 2.64517 0)
(-0.13881 2.68935 0)
(-0.173842 2.52137 0)
(-0.0932417 2.11264 0)
(0.150365 1.39947 0)
(0.153055 0.283305 0)
(0.0847952 0.0918509 0)
(0.0118582 0.0489463 0)
(-0.0179958 0.0370729 0)
(-0.0266732 0.0355325 0)
(-0.0127894 0.0488799 0)
(0.00346132 0.110194 0)
(-0.0152008 0.245229 0)
(0.00646046 0.247466 0)
(0.0224967 0.208185 0)
(0.045099 0.187777 0)
(0.0638554 0.175462 0)
(0.0794866 0.174562 0)
(0.0890495 0.188589 0)
(0.0878674 0.222746 0)
(0.0501582 0.283033 0)
(-0.0217519 0.309631 0)
(-0.0842495 0.310211 0)
(-0.124835 0.325824 0)
(-0.144941 0.356686 0)
(-0.145914 0.412567 0)
(-0.15632 0.499408 0)
(-0.250383 0.87109 0)
(-0.41696 1.78186 0)
(-0.447934 2.38113 0)
(-0.408673 2.7011 0)
(-0.292899 2.73175 0)
(-0.181353 2.51397 0)
(0.0205393 1.9556 0)
(0.366575 1.26909 0)
(0.384968 0.453883 0)
(0.183357 0.263869 0)
(0.0109803 0.151167 0)
(-0.0255015 0.0584231 0)
(-0.0190123 0.0275158 0)
(0.00217235 0.0379365 0)
(0.0088057 0.140429 0)
(-0.00972473 0.210077 0)
(0.00768949 0.233872 0)
(0.0244752 0.186041 0)
(0.0488052 0.163828 0)
(0.0722697 0.153466 0)
(0.0945235 0.156981 0)
(0.115977 0.182781 0)
(0.133606 0.237294 0)
(0.0756035 0.353635 0)
(-0.0679602 0.391372 0)
(-0.15532 0.350995 0)
(-0.172345 0.35037 0)
(-0.161283 0.356872 0)
(-0.167934 0.456641 0)
(-0.313925 0.671203 0)
(-0.659749 1.12192 0)
(-0.851148 1.90048 0)
(-0.767586 2.43371 0)
(-0.57036 2.59837 0)
(-0.353728 2.61658 0)
(-0.120117 2.46362 0)
(0.168694 1.8209 0)
(0.478381 1.11362 0)
(0.458874 0.623301 0)
(0.195862 0.460188 0)
(-0.0107502 0.234668 0)
(-0.0665115 0.0847943 0)
(-0.0313131 0.0226213 0)
(-0.00240747 0.0560962 0)
(-0.0301393 0.176286 0)
(-0.0119803 0.261707 0)
(0.00945335 0.218329 0)
(0.0265871 0.162481 0)
(0.0540094 0.137386 0)
(0.083845 0.125794 0)
(0.118473 0.130392 0)
(0.160385 0.161131 0)
(0.195017 0.269351 0)
(0.128569 0.48596 0)
(-0.099775 0.501953 0)
(-0.225998 0.399393 0)
(-0.252282 0.373051 0)
(-0.262997 0.396638 0)
(-0.377435 0.574181 0)
(-0.684516 0.96559 0)
(-0.967365 1.4239 0)
(-1.04585 1.87637 0)
(-0.880995 2.26448 0)
(-0.626747 2.47231 0)
(-0.365496 2.47814 0)
(-0.0470671 2.22107 0)
(0.25379 1.58626 0)
(0.368613 0.98824 0)
(0.271375 0.825181 0)
(0.0852126 0.649782 0)
(0.000905618 0.359787 0)
(-0.0222341 0.0604932 0)
(-0.0322242 0.00611239 0)
(-0.0394046 0.0722439 0)
(-0.0408963 0.194403 0)
(-0.0146411 0.214889 0)
(0.0116301 0.202103 0)
(0.0278366 0.13911 0)
(0.0552172 0.108416 0)
(0.0913203 0.0901138 0)
(0.140108 0.0821633 0)
(0.232954 0.0892836 0)
(0.32234 0.191842 0)
(0.336255 0.592055 0)
(0.0958439 0.652378 0)
(-0.191656 0.430679 0)
(-0.41423 0.386225 0)
(-0.638132 0.481045 0)
(-0.880932 0.83142 0)
(-1.00221 1.12714 0)
(-1.03298 1.42523 0)
(-0.972189 1.72523 0)
(-0.84899 2.07069 0)
(-0.624145 2.22448 0)
(-0.35925 2.21063 0)
(-0.069631 1.95417 0)
(0.111212 1.48401 0)
(0.0850023 1.08619 0)
(-0.00761709 0.891216 0)
(-0.00232391 0.625678 0)
(0.058932 0.308224 0)
(0.0655842 0.107216 0)
(0.019702 0.062069 0)
(-0.0126554 0.110097 0)
(-0.019579 0.184927 0)
(-0.00563959 0.197917 0)
(0.0107633 0.178526 0)
(0.0248572 0.120463 0)
(0.0457936 0.0810223 0)
(0.0797612 0.0502006 0)
(0.123638 0.012671 0)
(0.232244 -0.042102 0)
(0.271659 0.110493 0)
(0.325224 0.55844 0)
(0.215785 0.819302 0)
(-0.115704 0.76553 0)
(-0.539833 0.706653 0)
(-0.911327 0.769369 0)
(-1.1142 0.902837 0)
(-1.11143 1.05768 0)
(-1.01974 1.29825 0)
(-0.887604 1.57728 0)
(-0.745359 1.82808 0)
(-0.573612 1.93915 0)
(-0.391587 1.90926 0)
(-0.236308 1.70571 0)
(-0.163748 1.36047 0)
(-0.154188 1.0292 0)
(-0.108402 0.827626 0)
(0.0191827 0.520374 0)
(0.111683 0.250343 0)
(0.116353 0.12166 0)
(0.0727175 0.100948 0)
(0.0326745 0.132756 0)
(0.00852526 0.190533 0)
(0.00316955 0.195347 0)
(0.00267709 0.158699 0)
(0.0161481 0.11008 0)
(0.0225659 0.0646147 0)
(0.0410474 0.0276923 0)
(0.0708683 -0.0341924 0)
(0.120119 -0.0828432 0)
(0.108322 0.0441906 0)
(0.186343 0.466763 0)
(0.188821 0.904702 0)
(-0.0596462 1.02624 0)
(-0.49166 1.04031 0)
(-0.883765 0.981909 0)
(-1.082 0.946302 0)
(-1.10535 0.997721 0)
(-1.0055 1.15309 0)
(-0.854073 1.39796 0)
(-0.693339 1.63413 0)
(-0.55381 1.75819 0)
(-0.441135 1.75379 0)
(-0.36178 1.57408 0)
(-0.287127 1.25199 0)
(-0.200295 0.920449 0)
(-0.0631582 0.683692 0)
(0.0970652 0.391234 0)
(0.156527 0.219932 0)
(0.143361 0.151202 0)
(0.0999746 0.145533 0)
(0.0584247 0.166373 0)
(0.0266907 0.20724 0)
(0.0101227 0.20418 0)
(-0.0036082 0.142439 0)
(-0.00842119 0.097984 0)
(-0.0177184 0.0634243 0)
(-0.0155722 0.0249335 0)
(-0.000865178 -0.0299884 0)
(-0.0258183 -0.0654269 0)
(-0.0448534 0.0185621 0)
(0.0319591 0.367036 0)
(0.139502 0.980163 0)
(0.00608462 1.29248 0)
(-0.339794 1.36504 0)
(-0.70554 1.22978 0)
(-0.945719 1.03857 0)
(-1.03388 0.985045 0)
(-0.97472 1.05286 0)
(-0.837606 1.23897 0)
(-0.660211 1.45494 0)
(-0.513068 1.57693 0)
(-0.410981 1.59616 0)
(-0.326156 1.44631 0)
(-0.234321 1.12438 0)
(-0.11278 0.822063 0)
(0.0576764 0.508255 0)
(0.16956 0.312301 0)
(0.18762 0.221494 0)
(0.157602 0.18698 0)
(0.112759 0.187436 0)
(0.0710733 0.200474 0)
(0.0371373 0.228646 0)
(0.014289 0.222542 0)
(-0.0120918 0.145125 0)
(-0.0217533 0.122502 0)
(-0.0608807 0.0687448 0)
(-0.0882543 0.031556 0)
(-0.099723 0.000234237 0)
(-0.142273 -0.0182875 0)
(-0.152368 0.01296 0)
(-0.0885102 0.269783 0)
(0.0854463 0.952261 0)
(0.086551 1.49897 0)
(-0.183754 1.64861 0)
(-0.51287 1.50148 0)
(-0.79263 1.19254 0)
(-0.923142 1.00084 0)
(-0.901109 0.985442 0)
(-0.780734 1.11062 0)
(-0.603755 1.31358 0)
(-0.433628 1.46325 0)
(-0.306964 1.49634 0)
(-0.18992 1.34391 0)
(-0.0875583 1.00267 0)
(0.0376112 0.664035 0)
(0.162917 0.388824 0)
(0.214938 0.283387 0)
(0.204345 0.243209 0)
(0.163804 0.227605 0)
(0.117799 0.228421 0)
(0.0759483 0.235415 0)
(0.0414849 0.252693 0)
(0.015057 0.246078 0)
(-0.0129713 0.160618 0)
(-0.0277479 0.14396 0)
(-0.0591882 0.114698 0)
(-0.10067 0.0747207 0)
(-0.142018 0.0378752 0)
(-0.175149 0.00922359 0)
(-0.197438 0.00954495 0)
(-0.159702 0.164555 0)
(0.0155147 0.804465 0)
(0.137893 1.62922 0)
(-0.0736922 1.89314 0)
(-0.369738 1.77102 0)
(-0.667761 1.38395 0)
(-0.808004 1.03426 0)
(-0.790207 0.921122 0)
(-0.693446 0.98908 0)
(-0.549567 1.1663 0)
(-0.365037 1.32576 0)
(-0.184036 1.36661 0)
(-0.0201636 1.22503 0)
(0.0901091 0.957268 0)
(0.170916 0.567082 0)
(0.221893 0.337344 0)
(0.234069 0.286387 0)
(0.207022 0.275248 0)
(0.163382 0.26895 0)
(0.117989 0.267973 0)
(0.0771052 0.270036 0)
(0.0430015 0.278174 0)
(0.0148125 0.271271 0)
(-0.0128986 0.182881 0)
(-0.0355114 0.162272 0)
(-0.0608466 0.138114 0)
(-0.0934804 0.107706 0)
(-0.131901 0.0747771 0)
(-0.172648 0.0407363 0)
(-0.206194 0.0270975 0)
(-0.201866 0.111165 0)
(-0.053374 0.63745 0)
(0.132704 1.6913 0)
(-0.00764373 2.10994 0)
(-0.28678 2.02452 0)
(-0.570502 1.57808 0)
(-0.694405 1.0748 0)
(-0.717757 0.896011 0)
(-0.639117 0.929579 0)
(-0.484116 1.03023 0)
(-0.303635 1.16128 0)
(-0.0850314 1.19829 0)
(0.116385 1.10975 0)
(0.25469 0.890756 0)
(0.280887 0.553192 0)
(0.259206 0.348217 0)
(0.233993 0.312366 0)
(0.19876 0.31246 0)
(0.156347 0.308575 0)
(0.114771 0.305749 0)
(0.0762913 0.303599 0)
(0.0433226 0.304405 0)
(0.0142658 0.297278 0)
(-0.0128637 0.209905 0)
(-0.0406089 0.187651 0)
(-0.0680303 0.164769 0)
(-0.0969175 0.138855 0)
(-0.129432 0.110183 0)
(-0.166445 0.0805268 0)
(-0.204009 0.0603384 0)
(-0.216068 0.0875768 0)
(-0.117752 0.452216 0)
(0.0663412 1.69177 0)
(0.00968493 2.31295 0)
(-0.23413 2.25691 0)
(-0.46826 1.74891 0)
(-0.573305 1.10817 0)
(-0.597344 0.852047 0)
(-0.534286 0.866214 0)
(-0.428004 0.961433 0)
(-0.254046 1.03963 0)
(-0.0176214 1.05064 0)
(0.208389 0.990117 0)
(0.357115 0.845891 0)
(0.367774 0.613411 0)
(0.291043 0.419814 0)
(0.227843 0.359275 0)
(0.183896 0.351532 0)
(0.143413 0.346146 0)
(0.107321 0.341564 0)
(0.0730326 0.335845 0)
(0.0421394 0.331154 0)
(0.0133649 0.323188 0)
(-0.0137249 0.239029 0)
(-0.0452102 0.217026 0)
(-0.0766669 0.193006 0)
(-0.106347 0.168054 0)
(-0.136558 0.14251 0)
(-0.169342 0.118044 0)
(-0.206287 0.0986536 0)
(-0.223975 0.0976786 0)
(-0.17278 0.357719 0)
(-0.05219 1.64131 0)
(-0.0233488 2.47556 0)
(-0.21093 2.45436 0)
(-0.393654 1.89112 0)
(-0.459918 1.19293 0)
(-0.447394 0.821727 0)
(-0.388376 0.808522 0)
(-0.299752 0.849335 0)
(-0.158027 0.866019 0)
(0.0257332 0.855302 0)
(0.212968 0.839954 0)
(0.357611 0.795181 0)
(0.394031 0.681308 0)
(0.319478 0.531668 0)
(0.225587 0.431642 0)
(0.167415 0.396667 0)
(0.127227 0.382347 0)
(0.0944197 0.373773 0)
(0.0657658 0.365705 0)
(0.0385578 0.357398 0)
(0.0119008 0.347885 0)
(-0.0154083 0.268642 0)
(-0.0515286 0.249495 0)
(-0.0873162 0.223557 0)
(-0.117437 0.195901 0)
(-0.145607 0.171361 0)
(-0.176037 0.150926 0)
(-0.212274 0.13348 0)
(-0.23376 0.124174 0)
(-0.206249 0.336457 0)
(-0.177669 1.59554 0)
(-0.12156 2.5789 0)
(-0.224128 2.60378 0)
(-0.299041 1.98618 0)
(-0.265995 1.17862 0)
(-0.242445 0.792242 0)
(-0.219415 0.788195 0)
(-0.172577 0.800709 0)
(-0.0859709 0.789383 0)
(0.0242889 0.77048 0)
(0.145149 0.755254 0)
(0.260899 0.737812 0)
(0.337103 0.705183 0)
(0.311269 0.626016 0)
(0.223161 0.516656 0)
(0.151786 0.448303 0)
(0.110902 0.419251 0)
(0.0798468 0.403049 0)
(0.0546233 0.391079 0)
(0.0321415 0.38105 0)
(0.00956713 0.369856 0)
(-0.019452 0.300305 0)
(-0.0610013 0.28203 0)
(-0.0989108 0.25478 0)
(-0.127723 0.220055 0)
(-0.149815 0.19583 0)
(-0.178587 0.181279 0)
(-0.220786 0.171677 0)
(-0.258957 0.170152 0)
(-0.258828 0.386081 0)
(-0.317777 1.67268 0)
(-0.245579 2.64112 0)
(-0.224471 2.6923 0)
(-0.1382 1.97286 0)
(-0.0659712 1.13638 0)
(-0.0590423 0.824451 0)
(-0.0849144 0.813499 0)
(-0.0829484 0.803636 0)
(-0.0524258 0.772217 0)
(-0.00214104 0.739284 0)
(0.0607828 0.706709 0)
(0.131801 0.674943 0)
(0.202993 0.660081 0)
(0.246882 0.654846 0)
(0.211132 0.590581 0)
(0.143151 0.503644 0)
(0.0966029 0.453496 0)
(0.0678015 0.430891 0)
(0.0443275 0.412609 0)
(0.0248458 0.400916 0)
(0.00638479 0.387056 0)
(-0.0281762 0.341608 0)
(-0.0751904 0.368804 0)
(-0.107421 0.289481 0)
(-0.127505 0.234421 0)
(-0.139166 0.216363 0)
(-0.167014 0.218268 0)
(-0.228598 0.234547 0)
(-0.311379 0.265858 0)
(-0.367795 0.514728 0)
(-0.456604 1.72843 0)
(-0.331895 2.63723 0)
(-0.172971 2.63797 0)
(0.0487061 1.94316 0)
(0.125512 1.14091 0)
(0.0991672 0.894311 0)
(0.0285834 0.854331 0)
(-0.00673104 0.823675 0)
(-0.0154608 0.781683 0)
(-0.00757869 0.738143 0)
(0.0124922 0.690164 0)
(0.0417097 0.641774 0)
(0.0799154 0.608353 0)
(0.130669 0.612071 0)
(0.165618 0.610582 0)
(0.137129 0.551735 0)
(0.0905186 0.488266 0)
(0.0591062 0.454869 0)
(0.0383451 0.431082 0)
(0.019796 0.418841 0)
(0.00312813 0.398538 0)
(-0.0519405 0.426124 0)
(-0.108877 0.389074 0)
(-0.115478 0.331756 0)
(-0.0990487 0.236432 0)
(-0.098775 0.23901 0)
(-0.133921 0.277241 0)
(-0.238703 0.351729 0)
(-0.403321 0.43053 0)
(-0.494944 0.69613 0)
(-0.575221 1.76881 0)
(-0.368578 2.56868 0)
(-0.0571297 2.54112 0)
(0.257643 1.7983 0)
(0.343919 1.20066 0)
(0.280135 1.00594 0)
(0.173326 0.928976 0)
(0.0899016 0.867854 0)
(0.034881 0.810425 0)
(0.00225815 0.752806 0)
(-0.00907678 0.688433 0)
(-0.00479221 0.632525 0)
(0.00780625 0.587292 0)
(0.0386203 0.568947 0)
(0.0834902 0.575027 0)
(0.109336 0.565458 0)
(0.0874151 0.518226 0)
(0.0564626 0.477328 0)
(0.0374652 0.445274 0)
(0.0188251 0.437466 0)
(0.00132215 0.40558 0)
(-0.0851451 0.473915 0)
(-0.0936649 0.4212 0)
(-0.0767417 0.312366 0)
(-0.054981 0.23723 0)
(-0.044821 0.264096 0)
(-0.108212 0.353108 0)
(-0.190559 0.488143 0)
(-0.383282 0.629526 0)
(-0.54905 0.900445 0)
(-0.652302 1.77643 0)
(-0.359534 2.43308 0)
(0.121652 2.26631 0)
(0.465605 1.65946 0)
(0.549699 1.25315 0)
(0.490409 1.08202 0)
(0.386908 1.01179 0)
(0.259866 0.941928 0)
(0.129497 0.874187 0)
(0.0391018 0.796886 0)
(-0.00878701 0.701845 0)
(-0.0249021 0.634282 0)
(-0.0258211 0.583071 0)
(-0.0151435 0.54923 0)
(0.0161707 0.537446 0)
(0.0548669 0.541123 0)
(0.0718781 0.525524 0)
(0.0550927 0.494313 0)
(0.041304 0.45454 0)
(0.0207607 0.460373 0)
(3.00306e-05 0.410397 0)
(-0.0167468 0.557089 0)
(0.00457249 0.422035 0)
(0.0206466 0.30614 0)
(0.0256531 0.260168 0)
(0.0228771 0.310183 0)
(-0.013867 0.401929 0)
(-0.128972 0.605144 0)
(-0.311778 0.845904 0)
(-0.528743 1.15911 0)
(-0.634178 1.75994 0)
(-0.266055 2.13541 0)
(0.239506 1.94697 0)
(0.541397 1.55019 0)
(0.609237 1.29215 0)
(0.557198 1.17911 0)
(0.470511 1.11375 0)
(0.367615 1.07657 0)
(0.237922 0.988026 0)
(0.110662 0.874553 0)
(0.0214688 0.745384 0)
(-0.0286805 0.646165 0)
(-0.0417099 0.585767 0)
(-0.0416497 0.541764 0)
(-0.0278004 0.513351 0)
(0.00455731 0.50569 0)
(0.0377771 0.508111 0)
(0.0482951 0.495805 0)
(0.0440269 0.457718 0)
(0.0213684 0.489798 0)
(-0.00139319 0.413197 0)
(0.0848331 0.498385 0)
(0.0930479 0.426894 0)
(0.108073 0.306763 0)
(0.127992 0.28512 0)
(0.0980469 0.331553 0)
(0.0302896 0.488205 0)
(-0.0510972 0.717017 0)
(-0.167043 1.03389 0)
(-0.36643 1.37122 0)
(-0.427974 1.69899 0)
(-0.121493 1.84473 0)
(0.25885 1.70243 0)
(0.466241 1.4843 0)
(0.500117 1.3366 0)
(0.451356 1.25671 0)
(0.374607 1.19868 0)
(0.325661 1.15632 0)
(0.269456 1.09288 0)
(0.178702 0.941737 0)
(0.0717569 0.806962 0)
(-0.0120152 0.674506 0)
(-0.0477326 0.595019 0)
(-0.0578423 0.541896 0)
(-0.0539358 0.500246 0)
(-0.033986 0.475634 0)
(-0.000594492 0.47377 0)
(0.0303423 0.479582 0)
(0.0414761 0.453842 0)
(0.0187479 0.51806 0)
(-0.0015321 0.41298 0)
(0.0547999 0.375689 0)
(0.101294 0.457423 0)
(0.112863 0.26451 0)
(0.149168 0.303546 0)
(0.133405 0.392354 0)
(0.0931811 0.552086 0)
(0.0403126 0.801366 0)
(-0.0372744 1.17854 0)
(-0.173859 1.52759 0)
(-0.189141 1.63206 0)
(0.0113024 1.6369 0)
(0.232531 1.56134 0)
(0.340218 1.46325 0)
(0.350333 1.39286 0)
(0.312368 1.34649 0)
(0.259095 1.27958 0)
(0.215251 1.21288 0)
(0.195407 1.14211 0)
(0.161728 1.03376 0)
(0.0811339 0.893469 0)
(0.0102214 0.717084 0)
(-0.0465896 0.611393 0)
(-0.0706606 0.545037 0)
(-0.0739651 0.492414 0)
(-0.0617685 0.452552 0)
(-0.0335784 0.435539 0)
(0.00411545 0.444626 0)
(0.0311268 0.444666 0)
(0.0150116 0.539159 0)
(-5.1322e-05 0.409885 0)
(-0.0722555 0.321341 0)
(0.117729 0.404292 0)
(0.117212 0.213181 0)
(0.157776 0.272778 0)
(0.158411 0.412475 0)
(0.129837 0.609422 0)
(0.0599875 0.894448 0)
(-0.0225807 1.26758 0)
(-0.0794067 1.59297 0)
(-0.0410589 1.56772 0)
(0.0584271 1.51182 0)
(0.158901 1.4831 0)
(0.219566 1.45239 0)
(0.240792 1.42017 0)
(0.232691 1.39075 0)
(0.199713 1.34026 0)
(0.148533 1.2812 0)
(0.112034 1.19243 0)
(0.104649 1.07494 0)
(0.0849814 0.95436 0)
(0.0255048 0.785857 0)
(-0.0335965 0.64913 0)
(-0.0764437 0.55831 0)
(-0.0910276 0.488002 0)
(-0.0833912 0.433165 0)
(-0.0592586 0.399855 0)
(-0.0204791 0.399043 0)
(0.0131658 0.429166 0)
(0.0120257 0.546455 0)
(0.00340822 0.406641 0)
(-0.0863624 0.301432 0)
(0.142801 0.268983 0)