/*--------------------------------*- C++ -*----------------------------------*\
| =========                 |                                                 |
| \\      /  F ield         | OpenFOAM: The Open Source CFD Toolbox           |
|  \\    /   O peration     | Version:  v1606+                                |
|   \\  /    A nd           | Web:      www.OpenFOAM.com                      |
|    \\/     M anipulation  |                                                 |
\*---------------------------------------------------------------------------*/
FoamFile
{
    version     2.0;
    format      ascii;
    class       volScalarField;
    location    "0.88";
    object      nut.particles;
}
// * * * * * * * * * * * * * * * * * * * * * * * * * * * * * * * * * * * * * //

dimensions      [0 2 -1 0 0 0 0];

internalField   nonuniform List<scalar> 
6000
(
1.22416e-05
1.21459e-05
1.24408e-05
1.342e-05
1.4973e-05
1.79705e-05
1.67673e-05
1.52106e-05
1.32388e-05
1.3095e-05
1.39359e-05
1.43385e-05
1.47845e-05
1.57457e-05
1.64703e-05
1.63546e-05
1.55316e-05
1.46178e-05
1.43867e-05
1.42204e-05
1.33035e-05
1.32054e-05
1.50832e-05
1.69924e-05
1.87001e-05
1.52378e-05
1.32126e-05
1.19909e-05
1.17429e-05
1.21711e-05
2.83518e-06
2.92526e-06
2.89069e-06
2.97389e-06
2.99716e-06
3.49914e-06
4.68189e-06
5.26645e-06
6.41343e-06
6.82832e-06
7.8311e-06
8.77985e-06
9.31876e-06
9.57232e-06
9.6607e-06
9.63493e-06
9.5055e-06
9.25572e-06
8.88968e-06
8.22555e-06
7.1603e-06
6.7323e-06
6.03506e-06
5.14553e-06
3.79882e-06
2.97159e-06
2.88932e-06
2.82357e-06
2.87851e-06
2.82106e-06
2.80153e-06
3.02544e-06
2.89423e-06
2.81788e-06
2.88764e-06
3.04422e-06
3.56596e-06
5.7914e-06
9.56377e-06
1.05749e-05
1.19457e-05
1.27435e-05
1.14116e-05
9.34642e-06
8.40323e-06
8.57741e-06
9.54832e-06
1.12999e-05
1.28111e-05
1.23721e-05
1.09854e-05
9.74538e-06
6.405e-06
3.7003e-06
2.93754e-06
2.81105e-06
2.63018e-06
2.74715e-06
2.8788e-06
2.69613e-06
2.9117e-06
3.5477e-06
3.07908e-06
2.52366e-06
2.64129e-06
2.73457e-06
2.81519e-06
3.96555e-06
7.25652e-06
9.63073e-06
9.42563e-06
5.66155e-06
3.59232e-06
2.89469e-06
2.63856e-06
2.69021e-06
2.99795e-06
3.63542e-06
4.79184e-06
7.77034e-06
9.90433e-06
8.51495e-06
4.11203e-06
2.75332e-06
2.66267e-06
2.57362e-06
2.44057e-06
2.73078e-06
3.17421e-06
2.62346e-06
4.81427e-06
5.94322e-06
4.61964e-06
3.04584e-06
2.57255e-06
2.65357e-06
2.71223e-06
3.32489e-06
4.77185e-06
5.65452e-06
3.41147e-06
2.06057e-06
1.6686e-06
1.51597e-06
1.48736e-06
1.49769e-06
1.55043e-06
1.67115e-06
1.8707e-06
2.62171e-06
5.0827e-06
5.33046e-06
3.36734e-06
2.65279e-06
2.59521e-06
2.53547e-06
2.70467e-06
3.88787e-06
5.32886e-06
4.04997e-06
9.876e-06
2.12468e-05
8.428e-06
4.69689e-06
2.98782e-06
2.57296e-06
2.66939e-06
3.21006e-06
3.24565e-06
2.35781e-06
1.61156e-06
1.38759e-06
1.32621e-06
1.29189e-06
1.29911e-06
1.30665e-06
1.3292e-06
1.39887e-06
1.45361e-06
1.50552e-06
2.01826e-06
2.95213e-06
3.11104e-06
2.58085e-06
2.50746e-06
2.63613e-06
3.7568e-06
7.18831e-06
1.41284e-05
8.19278e-06
0.000948431
0.0011102
0.000323875
9.36191e-06
5.0361e-06
3.20596e-06
3.06782e-06
3.36749e-06
2.80648e-06
1.55396e-06
1.31896e-06
1.3121e-06
1.25304e-06
1.31061e-06
1.3866e-06
1.42134e-06
1.40176e-06
1.3917e-06
1.44821e-06
1.48309e-06
1.47211e-06
2.16212e-06
2.96682e-06
2.76502e-06
2.76445e-06
3.66853e-06
7.10101e-06
0.000130296
0.00122201
0.000487076
0.00194607
0.00194585
0.00181938
0.000375321
1.07125e-05
5.82188e-06
4.42173e-06
4.29392e-06
3.29817e-06
1.8026e-06
1.25982e-06
1.22038e-06
1.33407e-06
1.55348e-06
1.73941e-06
1.79347e-06
1.69161e-06
1.45659e-06
1.45583e-06
1.4172e-06
1.35935e-06
2.08269e-06
3.08396e-06
3.5178e-06
4.16604e-06
7.14424e-06
5.57863e-05
0.00197194
0.0032638
0.00371116
0.00194789
0.00194743
0.00194701
0.00155074
0.000433303
1.15732e-05
7.25912e-06
6.69377e-06
5.89317e-06
4.83908e-06
2.73349e-06
1.80548e-06
1.67368e-06
1.90407e-06
2.29407e-06
2.40927e-06
2.17235e-06
1.6626e-06
1.42398e-06
1.33401e-06
1.66343e-06
2.54428e-06
3.62115e-06
4.99013e-06
7.64366e-06
1.96143e-05
0.00187889
0.00329391
0.00379631
0.00379747
0.00194862
0.00127867
0.00194641
0.00139244
0.00103238
1.49119e-05
1.13535e-05
1.064e-05
1.09532e-05
1.06612e-05
7.90603e-06
5.43195e-06
5.19694e-06
3.73164e-06
2.8266e-06
2.96731e-06
2.73243e-06
1.90226e-06
1.47679e-06
1.77016e-06
3.04325e-06
4.0024e-06
5.10932e-06
7.02199e-06
1.16771e-05
0.000604522
0.00309007
0.00361938
0.00379253
0.00379955
0.000791507
1.22413e-05
0.000393073
0.00139485
0.00138998
1.53649e-05
1.46263e-05
1.55037e-05
3.4978e-05
2.12424e-05
1.34253e-05
1.19217e-05
1.15793e-05
1.19748e-05
8.08782e-06
4.24504e-06
3.1336e-06
2.36134e-06
2.13939e-06
3.4834e-06
5.7942e-06
7.27852e-06
8.02283e-06
9.17653e-06
1.26917e-05
0.000481409
0.00267024
0.00350438
0.000146664
0.00378947
7.57563e-06
4.71423e-06
7.57516e-06
1.33814e-05
2.51394e-05
1.90748e-05
1.65979e-05
4.58027e-05
0.000185762
0.00037681
0.000741442
0.000872106
0.00116309
0.0020169
0.000372291
1.32775e-05
6.75157e-06
4.21866e-06
4.59472e-06
7.44038e-06
1.1127e-05
1.27158e-05
1.24837e-05
1.18973e-05
1.35282e-05
0.000313952
0.00105877
4.50633e-05
9.28349e-06
0.000241879
5.59981e-06
4.02926e-06
3.83695e-06
4.10059e-06
7.13603e-06
1.40533e-05
1.44893e-05
0.000138566
0.000834901
0.00310598
0.00311152
0.00173942
0.00206862
0.00599871
0.0112443
0.00269105
2.47537e-05
1.44988e-05
1.64242e-05
0.00013799
0.000584375
0.000449841
0.000130761
1.65883e-05
1.69048e-05
2.41769e-05
1.49757e-05
7.76863e-06
6.75478e-06
9.53484e-06
8.71029e-06
5.51852e-06
4.18709e-06
3.87278e-06
4.46817e-06
8.9778e-06
1.65642e-05
0.000553181
0.00354424
0.00926213
0.00308764
0.000466281
0.00194472
0.0193422
0.0556869
0.0532457
0.0300467
0.0190965
0.0262216
0.028445
0.0173877
0.00866565
0.00380316
0.00100172
0.000183112
1.20228e-05
6.8381e-06
6.17617e-06
6.22212e-06
9.67725e-06
0.000153023
1.12791e-05
7.08923e-06
4.94462e-06
5.35873e-06
9.35232e-06
0.000139583
0.00231881
0.00945414
0.00936615
0.000370014
0.000374218
0.0128782
0.0761843
0.0849381
0.0864986
0.0871559
0.0871182
0.0870233
0.080509
0.0632652
0.0366337
0.0184201
0.00737444
0.0014986
9.4461e-06
6.95697e-06
6.55989e-06
9.54081e-06
2.73987e-05
0.000724038
0.000415772
1.38903e-05
9.02802e-06
9.21731e-06
1.58838e-05
0.00157169
0.00634024
0.0128201
0.00508289
0.000363426
0.004838
0.0780102
0.0869603
0.0871737
0.087203
0.0871949
0.0871397
0.0820058
0.0789088
0.0775538
0.070862
0.0449564
0.0200542
0.00360549
1.09506e-05
8.41697e-06
1.02362e-05
4.95999e-05
0.000849679
0.0009771
0.000981556
0.000670971
3.74941e-05
5.4603e-05
0.00137611
0.00493613
0.00876587
0.0131304
0.00430309
0.00178325
0.0432299
0.0869833
0.0872293
0.087086
0.0833684
0.0582739
0.0371123
0.0348818
0.0541787
0.0752441
0.0751712
0.0744478
0.0430651
0.00700196
1.57651e-05
1.3168e-05
1.8519e-05
0.00120343
0.00206115
0.00113244
0.00118735
0.00138017
0.00136365
0.00182605
0.00423191
0.00684669
0.009755
0.0146356
0.00853535
0.0240561
0.0835939
0.0871792
0.0870211
0.0808159
0.0211785
0.0017849
0.00184965
0.00343999
0.0184349
0.0520668
0.0588785
0.0714667
0.066624
0.023164
0.000177794
2.0638e-05
0.000608509
0.00295264
0.0030976
0.00110816
1.72079e-05
0.00076869
0.00223895
0.00428359
0.00603394
0.00907561
0.0125922
0.0213536
0.0304188
0.076136
0.0846317
0.0853212
0.0779861
0.0248231
0.00018018
1.91653e-05
3.02095e-05
0.00052222
0.00970352
0.0272354
0.00875787
0.0164912
0.0466983
0.04436
0.00632978
0.000132199
0.00201586
0.00495222
0.00397512
5.12388e-05
9.3756e-06
1.12798e-05
1.88614e-05
0.00341499
0.00757446
0.0165773
0.0219598
0.0347073
0.0622622
0.0774675
0.0804736
0.0698339
0.0249317
0.0055202
1.99137e-05
9.78046e-06
1.52703e-05
2.73619e-05
0.00972846
0.00703056
0.000180305
2.94563e-05
0.00541825
0.0290346
0.0041278
0.000363228
0.00369223
0.00701199
0.00452466
8.75418e-05
8.61288e-06
8.69429e-06
1.02635e-05
1.67922e-05
0.00237594
0.02465
0.0393322
0.053743
0.0562822
0.0474905
0.0443401
0.0409786
0.00497254
3.11208e-05
9.13289e-06
5.09022e-06
5.83637e-06
1.34969e-05
0.00855747
0.00188401
2.05234e-05
1.10904e-05
2.40683e-05
9.81477e-05
0.000167413
0.000700811
0.00576627
0.00888099
0.00465637
0.00239733
1.79925e-05
1.46543e-05
1.09006e-05
1.38503e-05
0.000239289
0.00349143
0.00861981
0.0117066
0.0174701
0.00566803
0.000339456
3.99356e-05
2.08404e-05
5.44169e-06
3.71507e-06
4.42391e-06
4.31553e-06
8.72584e-06
0.00168931
0.000455588
1.17551e-05
4.29797e-06
6.80004e-06
1.54168e-05
3.73524e-05
0.00150109
0.00804701
0.0109455
0.00468746
0.00329389
0.00330885
0.00238502
0.000434853
0.000328394
0.000963485
0.00513308
0.003481
0.00162005
0.00111978
7.69326e-05
2.3805e-05
1.15991e-05
4.89146e-06
3.07217e-06
2.76748e-06
3.57764e-06
4.6796e-06
8.284e-06
2.5046e-05
2.35529e-05
8.05979e-06
3.1322e-06
3.37452e-06
1.24479e-05
0.000120521
0.00269881
0.011043
0.0132138
0.00477832
0.000143274
0.00235653
0.00420098
0.00770377
0.00900678
0.00979607
0.0134449
0.011345
0.00623992
0.00231081
0.000173376
1.51228e-05
1.02692e-05
6.3088e-06
3.82288e-06
2.82918e-06
3.00753e-06
4.15022e-06
6.12394e-06
1.19474e-05
2.0871e-05
7.47457e-06
2.93692e-06
2.89073e-06
8.44409e-06
0.000163367
0.00360423
0.0132227
0.0132699
0.00279217
1.41004e-05
5.63135e-05
0.000802956
0.00206142
0.00400849
0.00675584
0.013863
0.0252283
0.0256523
0.0195989
0.00838092
0.00166685
6.28827e-05
1.07365e-05
6.05942e-06
3.45304e-06
2.84203e-06
3.32602e-06
4.06605e-06
6.05012e-06
1.3352e-05
7.91246e-06
3.11484e-06
2.79097e-06
4.61721e-06
0.000205585
0.00444559
0.0133372
0.0131481
3.64452e-05
1.41551e-05
1.35514e-05
4.25679e-05
0.000105669
0.00020896
0.000342534
0.000849466
0.00363436
0.0255155
0.0298666
0.0298035
0.0140729
0.00307614
0.000170122
1.09593e-05
5.47256e-06
3.21693e-06
3.03635e-06
3.44866e-06
4.07176e-06
7.87857e-06
1.01366e-05
4.23833e-06
2.91972e-06
3.96439e-06
1.22755e-05
0.002444
0.0132348
0.00931
1.76931e-05
1.37195e-05
1.29445e-05
1.50157e-05
1.49691e-05
1.49159e-05
1.41077e-05
1.3782e-05
1.52951e-05
0.000691611
0.0252331
0.0374027
0.0337702
0.0137954
0.00267881
0.000137988
1.05422e-05
4.98931e-06
3.64361e-06
3.63988e-06
3.84132e-06
4.62263e-06
1.01059e-05
6.62165e-06
3.7441e-06
3.72529e-06
5.65145e-06
2.49915e-05
0.00783579
0.00369355
1.46137e-05
5.09511e-05
1.21505e-05
1.26702e-05
1.33893e-05
1.28777e-05
1.17967e-05
1.17281e-05
1.18667e-05
1.20208e-05
0.000308216
0.036973
0.0457825
0.0306993
0.00932354
0.00141406
5.46717e-05
9.92472e-06
7.03955e-06
5.31e-06
4.2092e-06
3.52004e-06
5.58397e-06
7.70031e-06
5.54462e-06
4.25513e-06
4.84311e-06
9.65536e-06
0.00145929
2.64587e-05
1.38464e-05
0.00240915
5.33176e-05
1.33829e-05
1.17681e-05
1.17606e-05
1.19332e-05
1.148e-05
1.14728e-05
1.16567e-05
1.14209e-05
0.00563849
0.0458082
0.0461057
0.0209795
0.00493953
0.000767821
1.80505e-05
1.66355e-05
9.58217e-06
4.94632e-06
3.28438e-06
3.40639e-06
6.44481e-06
6.45426e-06
5.51535e-06
5.37051e-06
6.74654e-06
2.29182e-05
1.30057e-05
1.62356e-05
0.00577227
0.00366698
0.000716591
7.23651e-05
3.80107e-05
2.12015e-05
1.36145e-05
1.19626e-05
1.12283e-05
1.09534e-05
0.000220059
0.0302787
0.0506701
0.0357426
0.0123143
0.00143635
8.8767e-05
2.32232e-05
1.32296e-05
4.77297e-06
3.07015e-06
2.49836e-06
3.4687e-06
5.33147e-06
5.55672e-06
5.52146e-06
6.00793e-06
1.23073e-05
1.21282e-05
1.70003e-05
0.0044269
0.00613717
0.006114
0.00394777
0.00339226
0.00285423
0.00218907
0.000761604
2.03318e-05
1.07201e-05
1.39521e-05
0.0125378
0.0508752
0.0484721
0.0212193
0.00188519
1.72053e-05
1.13382e-05
6.15419e-06
3.06207e-06
2.26064e-06
1.89527e-06
1.92545e-06
2.58729e-06
3.35846e-06
3.92728e-06
4.46529e-06
5.70601e-06
6.65535e-06
1.73367e-05
0.00102217
0.00608739
0.00609368
0.00464942
0.00576697
0.00795502
0.0080401
0.00807927
0.00803011
0.000383667
1.35237e-05
0.00608938
0.0508441
0.0557489
0.0301958
0.00277071
1.22428e-05
4.66919e-06
1.79997e-06
1.45987e-06
1.45605e-06
1.32663e-06
1.21824e-06
1.26095e-06
1.51741e-06
2.05257e-06
2.56054e-06
2.76589e-06
4.26447e-06
1.68332e-05
0.000162512
0.00517676
0.00475301
0.00294856
0.00325161
0.00472162
0.00807156
0.00806511
0.00813609
0.00810344
0.000934795
0.00490507
0.0447886
0.0600826
0.0411415
0.00574822
9.67315e-06
3.37744e-06
9.55338e-07
8.89473e-07
1.01227e-06
1.01661e-06
1.0077e-06
9.81735e-07
1.0104e-06
1.21405e-06
1.66553e-06
2.39511e-06
5.85919e-06
1.67901e-05
3.79932e-05
0.00441773
0.00340641
0.00137299
0.0011668
0.000954635
0.000678664
6.38569e-05
0.0035304
0.00815933
0.00814625
0.00819104
0.0482235
0.0624166
0.0540651
0.00964703
6.89187e-05
3.59283e-06
8.04388e-07
8.58609e-07
9.02905e-07
9.27776e-07
9.76977e-07
9.91412e-07
9.82965e-07
1.06878e-06
1.7833e-06
8.14064e-06
1.76256e-05
1.68991e-05
1.7138e-05
0.0036613
0.00266533
0.000907697
0.000356456
1.50358e-05
1.00852e-05
9.8116e-06
2.02253e-05
0.00107488
0.00811711
0.00601998
0.0484945
0.0625038
0.0620349
0.00899275
0.000616565
4.26851e-06
7.96755e-07
9.37692e-07
9.84217e-07
9.63327e-07
9.99436e-07
1.02891e-06
1.00054e-06
1.24118e-06
8.72993e-06
0.00109483
0.000268836
5.37197e-05
1.34313e-05
0.00206494
0.00138583
0.000775994
1.29385e-05
3.92174e-06
2.13117e-06
2.22587e-06
2.11091e-06
6.85641e-06
3.21489e-05
0.000366007
0.0335013
0.0624863
0.0620452
0.00537336
0.000871377
3.48629e-06
8.26085e-07
9.1445e-07
1.08399e-06
1.0515e-06
1.05964e-06
1.06752e-06
1.06947e-06
3.73323e-06
3.235e-05
0.00108333
0.00101556
0.000974425
1.18202e-05
0.000956064
0.000440491
1.86681e-05
3.64017e-06
2.21547e-06
1.7749e-06
1.11854e-06
7.99152e-07
1.05752e-06
8.50849e-06
1.5611e-05
0.0241288
0.0624976
0.0620702
0.00366887
1.5431e-05
2.19513e-06
8.73574e-07
8.72551e-07
1.11409e-06
1.13496e-06
1.10732e-06
1.08144e-06
1.18402e-06
5.53168e-06
1.0011e-05
0.00108011
0.00108407
0.00109344
8.81111e-06
1.11e-05
1.15569e-05
2.99695e-06
1.86362e-06
1.90761e-06
1.44444e-06
8.91328e-07
7.44624e-07
6.59127e-07
3.66114e-06
9.97e-05
0.0236592
0.0625469
0.0619104
0.00177418
5.89691e-06
2.04129e-06
9.38824e-07
8.9447e-07
1.15368e-06
1.20163e-06
1.1613e-06
1.11371e-06
1.13026e-06
2.52948e-06
3.02814e-06
6.13903e-06
0.00108103
6.79362e-05
2.13498e-06
3.40194e-06
2.29045e-06
1.82149e-06
1.84818e-06
1.53722e-06
9.48245e-07
8.19583e-07
7.27287e-07
6.07924e-07
2.5842e-06
6.03998e-05
0.0116943
0.0623203
0.0526508
0.00095504
3.54502e-06
1.9545e-06
1.05812e-06
8.96908e-07
1.15867e-06
1.26842e-06
1.21088e-06
1.14442e-06
1.04484e-06
1.54017e-06
2.53456e-06
2.36606e-06
6.12324e-06
6.46149e-06
1.92047e-06
3.21775e-06
2.48376e-06
1.44005e-06
1.05651e-06
9.42176e-07
8.59545e-07
7.91833e-07
6.88697e-07
5.68917e-07
1.92094e-06
9.78268e-06
0.00347505
0.0619678
0.0482744
0.000570937
2.89372e-06
1.70669e-06
1.22419e-06
8.60599e-07
1.07047e-06
1.2791e-06
1.2455e-06
1.16463e-06
1.00975e-06
1.21277e-06
1.92224e-06
8.98171e-07
1.75037e-06
3.56609e-06
4.37281e-06
3.62512e-06
2.07681e-06
1.20856e-06
9.71699e-07
9.0228e-07
8.3992e-07
7.59784e-07
6.64243e-07
5.53475e-07
1.57028e-06
5.54674e-06
0.00283704
0.061559
0.0425815
0.000414732
2.46924e-06
1.55069e-06
1.51188e-06
8.218e-07
9.23712e-07
1.23429e-06
1.26982e-06
1.19127e-06
1.0052e-06
1.04061e-06
1.0184e-06
5.10517e-07
1.23713e-06
3.11339e-06
5.11336e-06
3.56258e-06
2.01459e-06
1.19528e-06
9.69754e-07
8.95857e-07
8.21204e-07
7.30927e-07
6.33468e-07
5.47006e-07
1.54392e-06
4.96168e-06
0.00517512
0.0612507
0.0345872
0.000352132
1.79464e-06
1.37175e-06
1.87828e-06
9.45168e-07
8.23871e-07
1.09773e-06
1.25242e-06
1.21471e-06
1.02095e-06
9.07567e-07
7.09606e-07
4.70288e-07
1.58678e-06
5.59324e-06
5.19037e-06
3.46953e-06
2.00531e-06
1.20801e-06
9.72798e-07
8.84878e-07
7.99926e-07
7.14305e-07
6.12034e-07
5.66739e-07
1.99592e-06
5.90832e-06
0.00930593
0.0608479
0.0239586
9.2514e-05
1.17884e-06
1.18372e-06
2.10925e-06
1.37331e-06
7.56906e-07
9.22871e-07
1.15166e-06
1.19999e-06
1.07759e-06
9.08356e-07
6.87184e-07
5.17228e-07
2.17771e-06
1.14941e-05
5.09214e-06
3.42264e-06
2.01062e-06
1.22062e-06
9.75244e-07
8.77779e-07
7.88759e-07
6.92746e-07
5.90558e-07
6.02143e-07
2.77585e-06
1.29795e-05
0.0146902
0.0589382
0.0120273
1.51479e-05
8.68532e-07
9.56752e-07
1.83463e-06
2.30845e-06
8.04857e-07
7.9778e-07
9.56402e-07
1.12131e-06
1.07409e-06
9.48103e-07
7.69982e-07
6.03737e-07
4.33135e-06
1.15609e-05
4.96945e-06
3.3725e-06
2.01677e-06
1.23757e-06
9.7839e-07
8.70175e-07
7.719e-07
6.79798e-07
5.79248e-07
6.39426e-07
3.52054e-06
0.000191369
0.0209275
0.0512584
0.00352576
1.11491e-05
7.11537e-07
8.30658e-07
1.43449e-06
2.57059e-06
1.47982e-06
7.38923e-07
8.40556e-07
9.66049e-07
1.01936e-06
9.48332e-07
8.15239e-07
7.13899e-07
5.95606e-06
9.89669e-06
4.83945e-06
3.33701e-06
2.02259e-06
1.24246e-06
9.79672e-07
8.63385e-07
7.62542e-07
6.62795e-07
5.64652e-07
6.63462e-07
4.14428e-06
0.00074612
0.0243125
0.0379999
0.000312912
4.91986e-06
6.55212e-07
7.66191e-07
1.02256e-06
2.12691e-06
2.5659e-06
8.95153e-07
7.65375e-07
8.43482e-07
9.19669e-07
9.10097e-07
8.122e-07
8.08813e-07
5.7273e-06
7.37242e-06
4.71985e-06
3.30728e-06
2.02797e-06
1.24928e-06
9.80998e-07
8.56193e-07
7.45995e-07
6.49879e-07
5.54499e-07
6.67963e-07
4.77095e-06
0.00173016
0.0230518
0.0208546
1.13108e-05
1.48569e-06
6.26921e-07
7.38963e-07
8.75094e-07
1.43441e-06
2.46454e-06
1.54769e-06
7.35762e-07
7.64291e-07
8.18242e-07
8.14363e-07
7.82297e-07
8.3259e-07
4.92902e-06
6.09376e-06
4.6131e-06
3.28225e-06
2.03086e-06
1.25062e-06
9.7884e-07
8.47098e-07
7.35264e-07
6.3448e-07
5.39165e-07
6.27043e-07
5.21825e-06
0.00232388
0.0176925
0.00953387
9.0235e-06
6.85481e-07
6.13554e-07
7.00976e-07
8.18812e-07
1.1692e-06
1.89121e-06
2.00737e-06
8.12111e-07
6.83899e-07
7.18086e-07
7.1954e-07
7.23378e-07
8.27533e-07
4.17119e-06
4.72666e-06
4.5416e-06
3.25757e-06
2.02057e-06
1.25092e-06
9.76026e-07
8.34288e-07
7.1994e-07
6.24113e-07
5.25473e-07
5.62088e-07
4.2595e-06
0.00170261
0.0135874
0.00317936
5.47013e-06
5.6629e-07
5.97312e-07
6.74684e-07
7.74491e-07
9.39515e-07
1.61492e-06
2.29073e-06
1.26536e-06
7.2832e-07
7.0483e-07
6.95157e-07
6.82125e-07
8.0117e-07
3.57799e-06
5.14713e-06
4.49648e-06
3.23524e-06
2.00038e-06
1.24571e-06
9.66541e-07
8.24872e-07
7.11329e-07
6.09286e-07
5.10595e-07
4.79003e-07
2.65949e-06
0.000329791
0.00931271
0.00015606
2.26437e-06
5.49831e-07
5.63577e-07
6.52476e-07
7.40629e-07
8.49832e-07
1.21283e-06
2.13036e-06
2.35186e-06
1.08553e-06
8.9528e-07
8.63723e-07
7.27163e-07
8.06781e-07
3.05152e-06
6.84605e-06
4.45484e-06
3.20012e-06
1.96497e-06
1.23524e-06
9.58257e-07
8.10155e-07
6.94418e-07
5.92989e-07
4.95753e-07
4.13783e-07
1.25793e-06
1.82615e-05
0.0032226
5.66887e-06
1.69635e-06
5.42132e-07
5.24658e-07
6.19977e-07
7.01046e-07
8.05957e-07
9.42215e-07
1.46434e-06
2.63325e-06
2.04895e-06
1.50887e-06
1.50972e-06
1.01675e-06
1.05466e-06
2.87156e-06
0.000129556
4.39079e-06
3.14861e-06
1.92763e-06
1.21931e-06
9.43304e-07
7.96891e-07
6.82241e-07
5.74771e-07
4.75524e-07
3.88212e-07
7.02806e-07
1.11569e-05
0.000858192
3.42673e-06
1.84547e-06
5.07714e-07
4.94596e-07
5.78071e-07
6.62565e-07
7.55835e-07
8.75342e-07
1.08847e-06
1.76578e-06
2.32007e-06
1.96847e-06
1.89199e-06
1.60008e-06
1.49563e-06
3.00904e-06
2.11745e-05
4.30061e-06
3.07964e-06
1.88363e-06
1.20081e-06
9.32191e-07
7.83103e-07
6.6404e-07
5.57808e-07
4.59687e-07
3.71524e-07
5.41785e-07
6.90947e-06
0.000211423
3.32082e-06
2.11273e-06
4.75805e-07
4.63629e-07
5.37894e-07
6.15401e-07
7.04355e-07
8.15664e-07
9.62416e-07
1.30285e-06
1.78235e-06
1.74014e-06
1.63083e-06
1.62909e-06
1.69899e-06
2.40794e-06
4.70969e-06
4.18441e-06
2.98998e-06
1.83044e-06
1.17938e-06
9.18677e-07
7.685e-07
6.49621e-07
5.36932e-07
4.36114e-07
3.54992e-07
4.87442e-07
5.71419e-06
0.000165003
3.72904e-06
2.10151e-06
4.6262e-07
4.30877e-07
5.04863e-07
5.6835e-07
6.52396e-07
7.56058e-07
9.02611e-07
1.11303e-06
1.42896e-06
1.57776e-06
1.47175e-06
1.44673e-06
1.41094e-06
1.38273e-06
1.42685e-06
4.04462e-06
2.87837e-06
1.76863e-06
1.15649e-06
9.02576e-07
7.50553e-07
6.27378e-07
5.1587e-07
4.20747e-07
3.41791e-07
4.46366e-07
5.02331e-06
0.00018113
4.01107e-06
2.16021e-06
4.48207e-07
4.02841e-07
4.65569e-07
5.27183e-07
6.02653e-07
6.97345e-07
8.38014e-07
1.06124e-06
1.34556e-06
1.53194e-06
1.51794e-06
1.45594e-06
1.37255e-06
1.38314e-06
1.56317e-06
3.87978e-06
2.74509e-06
1.69634e-06
1.13296e-06
8.87007e-07
7.35412e-07
6.1174e-07
4.98633e-07
4.00657e-07
3.2817e-07
4.07284e-07
3.97526e-06
0.00029628
1.19535e-05
2.32973e-06
4.25108e-07
3.80432e-07
4.32482e-07
4.89057e-07
5.56873e-07
6.44886e-07
7.73251e-07
9.86576e-07
1.31227e-06
1.54509e-06
1.57724e-06
1.53075e-06
1.48258e-06
1.50254e-06
1.61533e-06
3.6891e-06
2.60081e-06
1.62446e-06
1.11042e-06
8.70948e-07
7.17686e-07
5.88579e-07
4.73725e-07
3.81974e-07
3.16197e-07
3.76031e-07
3.04704e-06
0.000396363
5.70653e-05
2.42967e-06
4.30913e-07
3.6598e-07
4.09115e-07
4.53746e-07
5.18025e-07
5.98309e-07
7.15558e-07
9.15072e-07
1.23958e-06
1.54349e-06
1.61796e-06
1.58554e-06
1.5452e-06
1.51953e-06
1.54679e-06
3.47766e-06
2.45013e-06
1.55703e-06
1.08777e-06
8.53721e-07
6.98094e-07
5.67016e-07
4.536e-07
3.65313e-07
3.12412e-07
3.27447e-07
2.12583e-06
0.000436684
0.00016225
2.78159e-06
4.77912e-07
3.56461e-07
3.88495e-07
4.28754e-07
4.83039e-07
5.59315e-07
6.66491e-07
8.46846e-07
1.16158e-06
1.51756e-06
1.63843e-06
1.61656e-06
1.56982e-06
1.52642e-06
1.52506e-06
3.25425e-06
2.29976e-06
1.49836e-06
1.06646e-06
8.36013e-07
6.77248e-07
5.43949e-07
4.32623e-07
3.50111e-07
3.02551e-07
3.04676e-07
1.39947e-06
0.000441012
0.000259886
3.03414e-06
5.21319e-07
3.57721e-07
3.74944e-07
4.08305e-07
4.57326e-07
5.25507e-07
6.27164e-07
7.88176e-07
1.07699e-06
1.46775e-06
1.6414e-06
1.64242e-06
1.59291e-06
1.5452e-06
1.56253e-06
3.02921e-06
2.15902e-06
1.44915e-06
1.04429e-06
8.14917e-07
6.52988e-07
5.21179e-07
4.09865e-07
3.34477e-07
2.98932e-07
3.12827e-07
1.02733e-06
1.34401e-05
0.000264452
3.0515e-06
5.95002e-07
3.70121e-07
3.73018e-07
3.93317e-07
4.35686e-07
5.00442e-07
5.9483e-07
7.43308e-07
9.9597e-07
1.39124e-06
1.62303e-06
1.65754e-06
1.61336e-06
1.5733e-06
1.63915e-06
2.81284e-06
2.03651e-06
1.40709e-06
1.01935e-06
7.91503e-07
6.31178e-07
4.96404e-07
3.90259e-07
3.25081e-07
2.96817e-07
3.32798e-07
9.59352e-07
8.80694e-06
0.000244527
2.91028e-06
6.88892e-07
3.91075e-07
3.69814e-07
3.89626e-07
4.20581e-07
4.78714e-07
5.71437e-07
7.08507e-07
9.30201e-07
1.29669e-06
1.57574e-06
1.65505e-06
1.62777e-06
1.60561e-06
1.73392e-06
2.61191e-06
1.93586e-06
1.36645e-06
9.908e-07
7.68208e-07
6.06236e-07
4.71458e-07
3.71571e-07
3.10818e-07
2.95374e-07
3.60559e-07
1.04251e-06
5.66865e-06
7.59372e-06
2.81043e-06
8.23272e-07
4.30848e-07
3.78556e-07
3.83199e-07
4.12851e-07
4.6289e-07
5.48076e-07
6.82543e-07
8.82522e-07
1.2017e-06
1.50239e-06
1.62167e-06
1.62698e-06
1.63559e-06
1.83101e-06
2.43257e-06
1.85397e-06
1.32245e-06
9.62204e-07
7.44579e-07
5.80291e-07
4.47997e-07
3.51388e-07
3.05521e-07
3.03865e-07
3.9705e-07
1.13978e-06
3.5783e-06
4.13241e-06
2.81126e-06
1.07548e-06
4.82468e-07
3.93027e-07
3.89787e-07
4.04899e-07
4.50533e-07
5.32096e-07
6.57963e-07
8.50074e-07
1.13079e-06
1.41681e-06
1.55662e-06
1.6027e-06
1.65518e-06
1.91888e-06
2.27436e-06
1.78044e-06
1.27656e-06
9.35316e-07
7.19404e-07
5.53172e-07
4.21112e-07
3.37698e-07
2.99165e-07
3.09748e-07
4.35949e-07
1.16038e-06
2.7653e-06
2.94541e-06
2.38125e-06
1.30331e-06
5.6535e-07
4.17816e-07
3.95962e-07
4.10045e-07
4.415e-07
5.15581e-07
6.36215e-07
8.17451e-07
1.08305e-06
1.34526e-06
1.47215e-06
1.55102e-06
1.65797e-06
1.98222e-06
2.12961e-06
1.70763e-06
1.23358e-06
9.08598e-07
6.91199e-07
5.2537e-07
4.00381e-07
3.22043e-07
2.96594e-07
3.32691e-07
4.84857e-07
1.18196e-06
2.15935e-06
2.3073e-06
1.99262e-06
1.40404e-06
6.97967e-07
4.56455e-07
4.1612e-07
4.14254e-07
4.40703e-07
5.05584e-07
6.19005e-07
7.83854e-07
1.03372e-06
1.28972e-06
1.39987e-06
1.49496e-06
1.63886e-06
1.9888e-06
1.98959e-06
1.63519e-06
1.19528e-06
8.80058e-07
6.64104e-07
4.98032e-07
3.761e-07
3.11733e-07
3.03432e-07
3.53267e-07
5.65923e-07
1.34453e-06
1.93033e-06
1.68269e-06
1.69849e-06
1.51407e-06
8.2807e-07
4.97885e-07
4.42271e-07
4.35175e-07
4.45321e-07
4.96826e-07
6.07112e-07
7.61118e-07
9.75408e-07
1.2379e-06
1.36004e-06
1.46761e-06
1.60477e-06
1.90588e-06
1.85282e-06
1.56713e-06
1.15994e-06
8.52337e-07
6.34926e-07
4.70437e-07
3.57659e-07
3.03421e-07
3.10346e-07
3.89538e-07
6.81008e-07
1.33718e-06
1.71182e-06
1.60134e-06
1.53282e-06
1.50242e-06
1.02767e-06
5.92849e-07
4.83166e-07
4.56119e-07
4.5712e-07
4.94271e-07
5.94399e-07
7.46239e-07
9.36362e-07
1.17034e-06
1.29934e-06
1.39635e-06
1.54665e-06
1.73398e-06
1.72579e-06
1.50624e-06
1.12626e-06
8.23025e-07
6.07306e-07
4.4389e-07
3.38229e-07
3.01445e-07
3.32154e-07
4.38654e-07
8.01348e-07
1.46185e-06
1.49202e-06
1.4956e-06
1.50998e-06
1.4793e-06
1.20505e-06
7.4035e-07
5.25915e-07
4.89244e-07
4.71862e-07
4.94357e-07
5.84895e-07
7.34079e-07
9.08538e-07
1.11503e-06
1.23867e-06
1.28914e-06
1.41748e-06
1.5353e-06
1.61651e-06
1.44881e-06
1.09046e-06
7.94145e-07
5.78904e-07
4.18574e-07
3.25603e-07
3.03464e-07
3.60269e-07
5.45357e-07
9.93914e-07
1.58241e-06
1.48222e-06
1.38761e-06
1.41675e-06
1.5552e-06
1.41084e-06
9.21016e-07
6.05093e-07
5.22863e-07
4.9095e-07
4.96071e-07
5.74757e-07
7.26092e-07
8.97363e-07
1.07673e-06
1.19261e-06
1.23417e-06
1.29648e-06
1.3607e-06
1.52488e-06
1.38789e-06
1.05375e-06
7.67789e-07
5.5176e-07
3.9533e-07
3.12741e-07
3.16889e-07
4.08276e-07
7.07961e-07
1.28012e-06
1.74292e-06
1.647e-06
1.39699e-06
1.36602e-06
1.55201e-06
1.64558e-06
1.16478e-06
7.50337e-07
5.54309e-07
5.16943e-07
4.99338e-07
5.6194e-07
7.15066e-07
8.94375e-07
1.06392e-06
1.17459e-06
1.2038e-06
1.23077e-06
1.24784e-06
1.44628e-06
1.32669e-06
1.02006e-06
7.41506e-07
5.23296e-07
3.73064e-07
3.08038e-07
3.43292e-07
5.12998e-07
9.53754e-07
1.62525e-06
1.84103e-06
1.6272e-06
1.50033e-06
1.63956e-06
1.77871e-06
1.75185e-06
1.47542e-06
9.3681e-07
6.58255e-07
5.48532e-07
5.06941e-07
5.49029e-07
6.97038e-07
8.9029e-07
1.05767e-06
1.17331e-06
1.191e-06
1.19104e-06
1.17373e-06
1.37674e-06
1.26764e-06
9.87644e-07
7.13229e-07
4.97126e-07
3.54898e-07
3.09878e-07
3.95598e-07
7.10401e-07
1.34792e-06
2.02106e-06
2.06326e-06
1.85862e-06
1.74289e-06
1.68162e-06
1.83384e-06
2.02013e-06
1.81171e-06
1.23054e-06
8.03792e-07
5.92949e-07
5.19024e-07
5.39027e-07
6.78921e-07
8.82919e-07
1.05804e-06
1.17352e-06
1.19098e-06
1.16117e-06
1.12355e-06
1.31341e-06
1.2125e-06
9.57445e-07
6.87898e-07
4.72666e-07
3.3922e-07
3.2433e-07
4.89061e-07
1.03543e-06
1.90956e-06
2.3696e-06
2.19512e-06
1.98662e-06
1.92354e-06
1.99577e-06
2.12261e-06
2.23995e-06
2.24844e-06
1.61381e-06
1.011e-06
6.72378e-07
5.30878e-07
5.29839e-07
6.63534e-07
8.78047e-07
1.06349e-06
1.18348e-06
1.20299e-06
1.14649e-06
1.08755e-06
1.25975e-06
1.16549e-06
9.28237e-07
6.62426e-07
4.49214e-07
3.27982e-07
3.55701e-07
6.74138e-07
1.58272e-06
2.51148e-06
2.66097e-06
2.42963e-06
2.29312e-06
2.26942e-06
2.24651e-06
2.31573e-06
2.51173e-06
2.61798e-06
2.10215e-06
1.29693e-06
7.73087e-07
5.46063e-07
5.16183e-07
6.464e-07
8.75433e-07
1.07775e-06
1.19534e-06
1.21118e-06
1.14205e-06
1.0691e-06
1.21553e-06
1.12223e-06
8.97235e-07
6.38165e-07
4.28844e-07
3.22874e-07
4.16846e-07
9.93803e-07
2.26193e-06
3.06087e-06
2.90786e-06
2.68947e-06
2.63173e-06
2.60432e-06
2.56832e-06
2.57865e-06
2.74175e-06
2.97558e-06
2.66088e-06
1.69171e-06
9.08803e-07
5.61442e-07
5.01885e-07
6.31842e-07
8.68205e-07
1.08823e-06
1.20001e-06
1.20787e-06
1.13723e-06
1.06097e-06
1.17614e-06
1.08052e-06
8.65011e-07
6.15281e-07
4.10819e-07
3.23543e-07
5.09198e-07
1.47322e-06
2.99789e-06
3.48703e-06
3.23912e-06
3.05242e-06
5.40498e-06
7.03298e-06
3.02186e-06
2.77306e-06
2.93409e-06
3.25908e-06
3.2395e-06
2.22096e-06
1.06435e-06
5.68374e-07
4.88984e-07
6.2545e-07
8.66756e-07
1.09122e-06
1.19168e-06
1.19568e-06
1.12924e-06
1.05768e-06
1.13612e-06
1.03658e-06
8.30957e-07
5.94829e-07
3.96246e-07
3.28488e-07
6.05942e-07
1.95103e-06
3.64823e-06
2.35536e-05
8.6655e-05
0.00019926
0.000300688
0.000325917
0.000235861
0.000104963
3.3513e-05
7.64357e-06
3.67054e-06
2.8246e-06
1.22299e-06
5.67673e-07
4.80554e-07
6.22079e-07
8.68627e-07
1.08977e-06
1.17598e-06
1.17995e-06
1.11906e-06
1.05628e-06
1.09276e-06
9.90583e-07
7.95424e-07
5.76255e-07
3.85232e-07
3.30906e-07
6.61621e-07
2.25522e-06
4.42456e-06
0.000165051
0.000519677
0.00112243
0.00145238
0.00153392
0.00132045
0.000920792
0.00048588
0.00012529
7.08283e-06
3.42397e-06
1.30046e-06
5.58996e-07
4.70044e-07
6.22857e-07
8.73054e-07
1.08301e-06
1.15457e-06
1.15713e-06
1.10522e-06
1.05467e-06
1.04294e-06
9.39238e-07
7.55298e-07
5.58754e-07
3.7739e-07
3.3133e-07
6.71249e-07
2.33003e-06
6.49734e-06
0.000316583
0.00100668
0.00209328
0.00209812
0.00209852
0.00210274
0.00210113
0.0016206
0.000561324
7.52221e-05
3.90769e-06
1.27488e-06
5.14813e-07
4.58432e-07
6.30348e-07
8.7798e-07
1.06734e-06
1.1273e-06
1.12985e-06
1.08729e-06
1.05214e-06
9.84892e-07
8.82935e-07
7.10412e-07
5.41877e-07
3.71326e-07
3.4592e-07
6.99859e-07
2.0985e-06
5.5582e-06
0.000223435
0.00039455
0.000512346
0.00102025
0.00210232
0.00210212
0.00195491
0.000884713
0.000888553
0.000483151
3.95459e-06
9.38921e-07
4.38059e-07
4.51773e-07
6.46614e-07
8.80372e-07
1.04571e-06
1.09511e-06
1.09617e-06
1.06738e-06
1.04838e-06
9.15942e-07
8.11082e-07
6.60137e-07
5.21398e-07
3.68457e-07
4.32409e-07
1.025e-06
2.34749e-06
3.44209e-06
3.9277e-06
4.6741e-06
6.37248e-06
8.22596e-06
0.00071104
0.000337201
7.64201e-06
5.80435e-06
5.89567e-06
5.93713e-06
2.31863e-06
6.80013e-07
3.90276e-07
4.57553e-07
6.67836e-07
8.74526e-07
1.02184e-06
1.06942e-06
1.06799e-06
1.04418e-06
1.04324e-06
8.43004e-07
7.42329e-07
6.09818e-07
4.88787e-07
3.81557e-07
6.50784e-07
1.66465e-06
2.85405e-06
2.88257e-06
2.98192e-06
3.1129e-06
3.61123e-06
7.07458e-06
0.000705221
8.86986e-06
4.31056e-06
3.02947e-06
2.78043e-06
2.56553e-06
1.65087e-06
7.10667e-07
4.07566e-07
4.73619e-07
6.74861e-07
8.61232e-07
9.91751e-07
1.04358e-06
1.04415e-06
1.02201e-06
1.04728e-06
7.71193e-07
6.81173e-07
5.68722e-07
4.72948e-07
4.50638e-07
1.04719e-06
2.51003e-06
3.92049e-06
3.80995e-06
3.19057e-06
3.03072e-06
3.38391e-06
5.50451e-06
7.82399e-06
5.71471e-06
3.66305e-06
3.07699e-06
2.52236e-06
2.088e-06
1.6691e-06
1.00128e-06
4.64726e-07
4.86363e-07
6.53113e-07
8.1416e-07
9.20488e-07
9.90418e-07
1.00289e-06
9.95844e-07
1.07539e-06
7.04566e-07
6.3369e-07
5.5079e-07
4.99322e-07
5.891e-07
1.50377e-06
3.55029e-06
4.56319e-06
4.86381e-06