/*--------------------------------*- C++ -*----------------------------------*\
| =========                 |                                                 |
| \\      /  F ield         | OpenFOAM: The Open Source CFD Toolbox           |
|  \\    /   O peration     | Version:  v1606+                                |
|   \\  /    A nd           | Web:      www.OpenFOAM.com                      |
|    \\/     M anipulation  |                                                 |
\*---------------------------------------------------------------------------*/
FoamFile
{
    version     2.0;
    format      ascii;
    class       volVectorField;
    location    "0.88";
    object      U.air;
}
// * * * * * * * * * * * * * * * * * * * * * * * * * * * * * * * * * * * * * //

dimensions      [0 1 -1 0 0 0 0];

internalField   nonuniform List<vector> 
6000
(
(-0.00289501 0.202906 0)
(0.0450518 0.173341 0)
(0.0922015 0.196477 0)
(0.0891922 0.204704 0)
(0.03055 0.193095 0)
(-0.0520822 0.178153 0)
(-0.0926693 0.180432 0)
(-0.0984111 0.174146 0)
(-0.0636502 0.171236 0)
(0.00380665 0.178333 0)
(0.0616971 0.172173 0)
(0.107566 0.190266 0)
(0.124076 0.227767 0)
(0.108554 0.25369 0)
(0.0783186 0.266339 0)
(0.045992 0.261864 0)
(0.0152401 0.24693 0)
(-0.00508212 0.224202 0)
(-0.00289035 0.194645 0)
(0.0279063 0.176773 0)
(0.0724027 0.1785 0)
(0.126256 0.178791 0)
(0.164936 0.181697 0)
(0.168993 0.1942 0)
(0.129271 0.187316 0)
(0.0388817 0.194086 0)
(-0.0429513 0.207155 0)
(-0.0663724 0.199259 0)
(-0.0355175 0.172658 0)
(0.00492278 0.198892 0)
(0.0541463 0.891586 0)
(0.132373 0.852522 0)
(0.222568 0.920943 0)
(0.25007 1.00715 0)
(0.224165 1.11052 0)
(0.145467 1.12781 0)
(0.03279 1.07476 0)
(-0.0331628 1.0474 0)
(-0.00819099 0.944376 0)
(0.0811986 0.969328 0)
(0.146889 1.01754 0)
(0.178522 1.08235 0)
(0.178635 1.13698 0)
(0.144467 1.16867 0)
(0.0950962 1.17499 0)
(0.0448405 1.17558 0)
(-0.00187396 1.1701 0)
(-0.0341352 1.15018 0)
(-0.0443267 1.11207 0)
(-0.0382356 1.04956 0)
(0.00677611 0.99832 0)
(0.0916743 0.962436 0)
(0.124117 1.029 0)
(0.0620238 1.07936 0)
(-0.0550582 1.12499 0)
(-0.147364 1.14011 0)
(-0.190176 1.03633 0)
(-0.184374 0.944195 0)
(-0.110478 0.869911 0)
(-0.0460829 0.901174 0)
(0.0599846 0.580463 0)
(0.151747 0.510275 0)
(0.268018 0.60884 0)
(0.304408 0.751286 0)
(0.28977 0.850343 0)
(0.265791 0.922787 0)
(0.166497 0.92656 0)
(0.0800104 0.800798 0)
(0.0983325 0.640962 0)
(0.17555 0.660805 0)
(0.260045 0.716245 0)
(0.287132 0.792157 0)
(0.238033 0.853412 0)
(0.17563 0.892469 0)
(0.121529 0.899013 0)
(0.0667047 0.897371 0)
(0.0118056 0.887176 0)
(-0.0487384 0.856778 0)
(-0.114516 0.83085 0)
(-0.148131 0.778112 0)
(-0.0985914 0.691184 0)
(-0.00139573 0.649768 0)
(0.026672 0.788572 0)
(-0.0733972 0.940588 0)
(-0.195975 0.951821 0)
(-0.234264 0.881226 0)
(-0.254797 0.798188 0)
(-0.235489 0.645721 0)
(-0.133371 0.533415 0)
(-0.0517369 0.599676 0)
(0.0629532 0.529726 0)
(0.137037 0.450484 0)
(0.233808 0.567864 0)
(0.312154 0.786899 0)
(0.321568 0.890229 0)
(0.319398 0.962316 0)
(0.313467 1.01959 0)
(0.291849 0.874404 0)
(0.276851 0.685874 0)
(0.290446 0.67949 0)
(0.306366 0.731293 0)
(0.276513 0.851806 0)
(0.228571 0.932878 0)
(0.202639 0.948149 0)
(0.191898 0.953033 0)
(0.172837 0.956413 0)
(0.136669 0.961064 0)
(0.0683841 0.95537 0)
(-0.0436826 0.943224 0)
(-0.153876 0.836198 0)
(-0.184059 0.711288 0)
(-0.169598 0.665786 0)
(-0.184296 0.873506 0)
(-0.236721 1.04792 0)
(-0.262511 0.993566 0)
(-0.274571 0.926945 0)
(-0.283332 0.83797 0)
(-0.227291 0.623078 0)
(-0.130342 0.473699 0)
(-0.0613237 0.559592 0)
(0.0389014 0.447897 0)
(0.0783069 0.378446 0)
(0.136613 0.459826 0)
(0.238069 0.677457 0)
(0.327783 0.853769 0)
(0.330751 0.927055 0)
(0.363821 0.963667 0)
(0.419412 0.841701 0)
(0.434472 0.693476 0)
(0.378273 0.646835 0)
(0.304635 0.722632 0)
(0.23401 0.835817 0)
(0.21375 0.864817 0)
(0.233826 0.850169 0)
(0.263333 0.846012 0)
(0.285456 0.867922 0)
(0.280872 0.915079 0)
(0.233459 0.968491 0)
(0.141041 1.00828 0)
(-0.00648916 0.915536 0)
(-0.159095 0.708677 0)
(-0.28333 0.683786 0)
(-0.32598 0.866529 0)
(-0.29522 1.00936 0)
(-0.276441 0.972337 0)
(-0.297413 0.908021 0)
(-0.252099 0.762147 0)
(-0.155507 0.512989 0)
(-0.0846811 0.38933 0)
(-0.0456689 0.477212 0)
(0.0207648 0.431397 0)
(0.0182051 0.387973 0)
(0.0171786 0.426926 0)
(0.0820586 0.569814 0)
(0.213489 0.770462 0)
(0.289447 0.905456 0)
(0.326244 0.904163 0)
(0.404624 0.76414 0)
(0.444253 0.686449 0)
(0.39946 0.710634 0)
(0.27946 0.769753 0)
(0.204973 0.793375 0)
(0.203755 0.773921 0)
(0.236381 0.755074 0)
(0.284306 0.758865 0)
(0.330596 0.797366 0)
(0.350419 0.865612 0)
(0.32027 0.951534 0)
(0.253533 1.01801 0)
(0.148313 1.01889 0)
(-0.067049 0.884254 0)
(-0.263243 0.774039 0)
(-0.320502 0.830949 0)
(-0.275339 0.964147 0)
(-0.254835 0.96314 0)
(-0.231346 0.873508 0)
(-0.121292 0.660215 0)
(-0.0437688 0.46319 0)
(-0.0292575 0.391565 0)
(-0.0314332 0.449096 0)
(0.00166426 0.435253 0)
(-0.0268524 0.428395 0)
(-0.0654232 0.447067 0)
(-0.0609347 0.519868 0)
(0.0285199 0.654403 0)
(0.147533 0.851716 0)
(0.20588 0.855583 0)
(0.250498 0.702515 0)
(0.268067 0.646965 0)
(0.270214 0.732528 0)
(0.230283 0.78109 0)
(0.194953 0.77384 0)
(0.198953 0.742176 0)
(0.227332 0.69893 0)
(0.279058 0.692204 0)
(0.335746 0.739543 0)
(0.378447 0.847747 0)
(0.357522 0.988256 0)
(0.276827 1.06514 0)
(0.187755 1.07564 0)
(0.0473643 1.03618 0)
(-0.107016 0.864813 0)
(-0.186851 0.817066 0)
(-0.18326 0.927743 0)
(-0.155072 0.938339 0)
(-0.0688007 0.783052 0)
(0.0294216 0.588036 0)
(0.0517443 0.474739 0)
(0.0219428 0.434081 0)
(-0.0101173 0.446099 0)
(-0.00975359 0.460828 0)
(-0.0541253 0.487112 0)
(-0.111526 0.500399 0)
(-0.146137 0.534568 0)
(-0.112717 0.597871 0)
(-0.0225491 0.786262 0)
(0.0473138 0.841838 0)
(0.0399468 0.699857 0)
(0.0314967 0.639935 0)
(0.068674 0.713274 0)
(0.148352 0.770371 0)
(0.183922 0.778009 0)
(0.201101 0.728101 0)
(0.227995 0.665524 0)
(0.258094 0.647546 0)
(0.29358 0.68886 0)
(0.337579 0.811131 0)
(0.345074 1.0301 0)
(0.270256 1.13894 0)
(0.172625 1.13303 0)
(0.138982 1.10726 0)
(0.0944687 0.943685 0)
(0.024474 0.86293 0)
(-0.0212189 0.921627 0)
(0.0107698 0.896169 0)
(0.0952963 0.715975 0)
(0.143215 0.591036 0)
(0.122922 0.531152 0)
(0.061029 0.49651 0)
(0.0101001 0.464354 0)
(-0.00895939 0.500852 0)
(-0.0618309 0.559763 0)
(-0.130465 0.560461 0)
(-0.17814 0.574746 0)
(-0.183375 0.593963 0)
(-0.135958 0.755116 0)
(-0.0787353 0.853561 0)
(-0.0848786 0.745182 0)
(-0.0901962 0.663807 0)
(-0.0247137 0.646766 0)
(0.047825 0.756091 0)
(0.120462 0.776829 0)
(0.182202 0.695494 0)
(0.227533 0.643282 0)
(0.236734 0.64195 0)
(0.23476 0.667667 0)
(0.242042 0.777309 0)
(0.254032 1.04209 0)
(0.193903 1.20369 0)
(0.153637 1.18751 0)
(0.221111 1.09726 0)
(0.281289 0.977749 0)
(0.246642 0.94593 0)
(0.170547 0.965593 0)
(0.167814 0.889015 0)
(0.202265 0.706368 0)
(0.216272 0.633877 0)
(0.165331 0.606507 0)
(0.0849289 0.579397 0)
(0.019279 0.51232 0)
(0.00596202 0.546905 0)
(-0.0574845 0.705726 0)
(-0.149479 0.618599 0)
(-0.187624 0.614545 0)
(-0.205098 0.60355 0)
(-0.193379 0.743008 0)
(-0.129847 0.845925 0)
(-0.0618843 0.745076 0)
(-0.0140766 0.649951 0)
(0.0127566 0.638914 0)
(0.0756877 0.702038 0)
(0.154797 0.765941 0)
(0.177048 0.724461 0)
(0.158823 0.65745 0)
(0.193609 0.643005 0)
(0.183737 0.681445 0)
(0.146269 0.784644 0)
(0.115538 1.0513 0)
(0.101963 1.24465 0)
(0.164437 1.16163 0)
(0.282571 0.97392 0)
(0.391281 0.971678 0)
(0.39743 1.01874 0)
(0.341018 1.04477 0)
(0.296296 0.935088 0)
(0.282409 0.732464 0)
(0.263689 0.690447 0)
(0.204236 0.683249 0)
(0.0969485 0.690138 0)
(0.00920369 0.573465 0)
(-0.00605981 0.546354 0)
(-0.0136064 0.768521 0)
(-0.131502 0.697353 0)
(-0.172882 0.687323 0)
(-0.200821 0.634876 0)
(-0.18771 0.72221 0)
(-0.089197 0.753796 0)
(-0.0021084 0.684132 0)
(0.0311196 0.641838 0)
(0.0374593 0.659083 0)
(0.060075 0.730517 0)
(0.111144 0.807379 0)
(0.147011 0.800842 0)
(0.16615 0.739162 0)
(0.135652 0.718858 0)
(0.114204 0.725422 0)
(0.0724746 0.830224 0)
(0.0195942 1.07822 0)
(0.0742481 1.22181 0)
(0.201627 1.05687 0)
(0.315461 0.933096 0)
(0.379668 0.962081 0)
(0.417356 1.04498 0)
(0.426858 1.10756 0)
(0.394272 1.00181 0)
(0.352464 0.77911 0)
(0.309333 0.749025 0)
(0.246081 0.760536 0)
(0.0980986 0.875893 0)
(-0.00584399 0.612295 0)
(-0.00491105 0.488157 0)
(0.0413314 0.795249 0)
(0.00950458 0.693302 0)
(-0.089923 0.693274 0)
(-0.172285 0.640502 0)
(-0.152071 0.647639 0)
(-0.0558023 0.667441 0)
(0.0042388 0.641262 0)
(0.0361925 0.620649 0)
(0.0631799 0.640846 0)
(0.0843959 0.717618 0)
(0.093793 0.820916 0)
(0.0901741 0.855819 0)
(0.0801513 0.821797 0)
(0.0958527 0.803914 0)
(0.0862455 0.873735 0)
(-0.00283691 0.975412 0)
(-0.00547331 1.13565 0)
(0.105911 1.16383 0)
(0.241035 1.03029 0)
(0.297495 0.94827 0)
(0.312242 0.960885 0)
(0.349586 1.02402 0)
(0.407272 1.10585 0)
(0.432062 1.04459 0)
(0.398094 0.85277 0)
(0.320327 0.855724 0)
(0.199645 0.875439 0)
(0.0264436 0.982276 0)
(0.0402413 0.629245 0)
(0.00970094 0.457632 0)
(0.0719129 0.693541 0)
(0.114335 0.750281 0)
(0.0257304 0.79044 0)
(-0.0738305 0.668661 0)
(-0.11422 0.556418 0)
(-0.0404945 0.588743 0)
(0.0197202 0.578305 0)
(0.0646624 0.576234 0)
(0.0996658 0.610937 0)
(0.11437 0.713248 0)
(0.0933126 0.844918 0)
(0.0760184 0.892637 0)
(0.0768819 0.870957 0)
(0.0620749 0.893594 0)
(0.0551036 0.971671 0)
(0.0784506 1.08335 0)
(0.125055 1.1908 0)
(0.225181 1.17157 0)
(0.293403 1.08838 0)
(0.283531 1.0239 0)
(0.254605 1.00024 0)
(0.257847 1.00771 0)
(0.315721 1.05423 0)
(0.411093 1.0349 0)
(0.365959 0.919613 0)
(0.204614 0.944309 0)
(0.0280012 0.985764 0)
(-0.0218112 0.976894 0)
(0.0177713 0.603834 0)
(-0.00241194 0.439809 0)
(0.0310408 0.598939 0)
(0.10387 0.710242 0)
(0.113084 0.811856 0)
(0.0667793 0.727613 0)
(0.00455439 0.52096 0)
(0.0306222 0.510929 0)
(0.0775681 0.515817 0)
(0.114348 0.534795 0)
(0.13636 0.589555 0)
(0.1284 0.727105 0)
(0.0952731 0.865944 0)
(0.122136 0.878331 0)
(0.145568 0.892978 0)
(0.124657 0.955764 0)
(0.0793841 1.06377 0)
(0.0696319 1.18728 0)
(0.124389 1.27183 0)
(0.200186 1.25046 0)
(0.229559 1.17916 0)
(0.214932 1.11327 0)
(0.190015 1.0627 0)
(0.179245 1.02693 0)
(0.214733 1.01272 0)
(0.312038 0.982265 0)
(0.25784 1.04466 0)
(0.0553172 1.12257 0)
(-0.0711346 1.05292 0)
(-0.0483957 0.909876 0)
(0.0046143 0.601549 0)
(-0.0223195 0.479698 0)
(-0.0328267 0.565371 0)
(0.0254965 0.657563 0)
(0.0929719 0.801301 0)
(0.143014 0.739327 0)
(0.13024 0.525561 0)
(0.137576 0.471125 0)
(0.154718 0.480715 0)
(0.168678 0.510042 0)
(0.172805 0.582789 0)
(0.145852 0.746195 0)
(0.17135 0.854995 0)
(0.220023 0.859593 0)
(0.243901 0.917307 0)
(0.21158 1.00722 0)
(0.162141 1.12305 0)
(0.127943 1.24184 0)
(0.129156 1.31206 0)
(0.141823 1.29548 0)
(0.136979 1.23668 0)
(0.122652 1.17298 0)
(0.107729 1.11448 0)
(0.0969072 1.05999 0)
(0.104127 1.00649 0)
(0.144912 0.935482 0)
(0.0854824 1.18252 0)
(-0.066107 1.22359 0)
(-0.0859013 1.07733 0)
(-0.0180018 0.81734 0)
(0.0175492 0.616321 0)
(-0.0280689 0.542775 0)
(-0.0643516 0.584823 0)
(-0.0514463 0.629947 0)
(0.033971 0.745623 0)
(0.147556 0.70636 0)
(0.19232 0.5377 0)
(0.206247 0.46994 0)
(0.208346 0.473089 0)
(0.210903 0.499372 0)
(0.203706 0.582424 0)
(0.21176 0.749903 0)
(0.260135 0.816426 0)
(0.323825 0.854802 0)
(0.326087 0.941003 0)
(0.296732 1.05052 0)
(0.248628 1.17624 0)
(0.185155 1.29114 0)
(0.125131 1.33684 0)
(0.0822169 1.322 0)
(0.0557219 1.26502 0)
(0.0424006 1.20166 0)
(0.0277199 1.14755 0)
(0.00566117 1.09141 0)
(-0.0190944 1.0262 0)
(-0.0381813 0.964257 0)
(-0.0724565 1.29427 0)
(-0.1179 1.30257 0)
(-0.0243114 1.04249 0)
(0.0487892 0.780387 0)
(0.0338524 0.675971 0)
(-0.0155668 0.590732 0)
(-0.0464729 0.624678 0)
(-0.0626212 0.62507 0)
(-0.00291789 0.679359 0)
(0.113245 0.648143 0)
(0.18513 0.531012 0)
(0.211458 0.476187 0)
(0.226063 0.470859 0)
(0.236433 0.491003 0)
(0.240944 0.576183 0)
(0.285099 0.732932 0)
(0.356352 0.786141 0)
(0.400591 0.851476 0)
(0.403839 0.955782 0)
(0.389329 1.0791 0)
(0.338341 1.22823 0)
(0.224706 1.36875 0)
(0.0974272 1.38507 0)
(0.0166009 1.35068 0)
(-0.0134068 1.27112 0)
(-0.0141838 1.21169 0)
(-0.0292746 1.18247 0)
(-0.0761165 1.14275 0)
(-0.138272 1.08043 0)
(-0.189724 1.04828 0)
(-0.167712 1.35056 0)
(-0.0983278 1.31479 0)
(0.0449754 0.996169 0)
(0.0770773 0.799837 0)
(0.0328995 0.746656 0)
(0.00601765 0.60531 0)
(-0.00806005 0.700993 0)
(-0.0382977 0.636102 0)
(-0.00387186 0.632166 0)
(0.069683 0.583264 0)
(0.134213 0.507546 0)
(0.177921 0.461124 0)
(0.22278 0.453863 0)
(0.254946 0.475354 0)
(0.285824 0.565864 0)
(0.349294 0.686892 0)
(0.41805 0.75629 0)
(0.456533 0.839465 0)
(0.478678 0.946641 0)
(0.48537 1.07445 0)
(0.426475 1.27522 0)
(0.240043 1.46536 0)
(0.0350932 1.42448 0)
(-0.0532173 1.3465 0)
(-0.0489394 1.23394 0)
(-0.0137841 1.19378 0)
(-0.0307817 1.2287 0)
(-0.127697 1.24013 0)
(-0.235899 1.17153 0)
(-0.293311 1.1415 0)
(-0.211565 1.34752 0)
(-0.0739025 1.27876 0)
(0.0400069 0.972162 0)
(0.0529383 0.827814 0)
(0.021161 0.798168 0)
(0.0308993 0.582559 0)
(0.0252919 0.74624 0)
(-0.0111181 0.669187 0)
(-0.0139635 0.610499 0)
(0.0188661 0.527141 0)
(0.0749094 0.466096 0)
(0.136693 0.418875 0)
(0.208276 0.416738 0)
(0.265946 0.447126 0)
(0.323822 0.534462 0)
(0.390771 0.638549 0)
(0.449973 0.719873 0)
(0.496743 0.804644 0)
(0.535326 0.905459 0)
(0.566703 1.03161 0)
(0.509851 1.33856 0)
(0.3627 1.64567 0)
(0.0535316 1.53244 0)
(-0.0608088 1.33097 0)
(0.00357736 1.1465 0)
(0.081645 1.14783 0)
(0.0714602 1.29314 0)
(-0.131654 1.41345 0)
(-0.325031 1.28083 0)
(-0.37486 1.21197 0)
(-0.275161 1.29692 0)
(-0.119341 1.25111 0)
(-0.0140043 0.946274 0)
(0.00957065 0.832969 0)
(0.00733707 0.822646 0)
(0.00622223 0.523228 0)
(0.0273291 0.758068 0)
(-0.0161619 0.630999 0)
(-0.0298184 0.613541 0)
(-0.0208163 0.495434 0)
(0.0282626 0.422668 0)
(0.0972069 0.366743 0)
(0.179795 0.366185 0)
(0.260767 0.400777 0)
(0.342266 0.474785 0)
(0.418655 0.573416 0)
(0.475861 0.66839 0)
(0.523289 0.756188 0)
(0.572156 0.851973 0)
(0.627639 1.01061 0)
(0.687648 1.29923 0)
(0.555157 1.71438 0)
(0.255818 1.66876 0)
(0.0308997 1.33392 0)
(0.144062 1.01597 0)
(0.269656 1.07656 0)
(0.326199 1.37017 0)
(-0.0872572 1.70303 0)
(-0.402579 1.41195 0)
(-0.475748 1.26207 0)
(-0.403859 1.2659 0)
(-0.212156 1.14052 0)
(-0.0859533 0.893431 0)
(-0.0353052 0.808442 0)
(-0.00680418 0.818436 0)
(-0.0385181 0.584615 0)
(-0.0192372 0.782625 0)
(-0.0192672 0.693189 0)
(-0.035898 0.595341 0)
(-0.0639122 0.468968 0)
(0.0023657 0.399266 0)
(0.0549372 0.337406 0)
(0.128617 0.320467 0)
(0.224457 0.333054 0)
(0.337866 0.383258 0)
(0.451797 0.477476 0)
(0.532187 0.596457 0)
(0.562649 0.720631 0)
(0.652758 0.847648 0)
(0.841499 0.78971 0)
(0.768105 1.21374 0)
(0.640117 1.81297 0)
(0.440406 1.89924 0)
(0.250489 1.40504 0)
(0.322213 0.882494 0)
(0.503364 0.960826 0)
(0.582221 1.45705 0)
(0.0905616 2.11921 0)
(-0.540834 1.52436 0)
(-0.648837 1.28091 0)
(-0.540163 1.1308 0)
(-0.304368 0.992392 0)
(-0.16138 0.807359 0)
(-0.0761571 0.752621 0)
(-0.0199105 0.786001 0)
(-0.0582142 0.686056 0)
(-0.078475 0.786774 0)
(-0.0702502 0.689052 0)
(-0.0382497 0.656547 0)
(-0.0767487 0.483489 0)
(-0.0934209 0.353256 0)
(-0.0392259 0.349035 0)
(0.0333133 0.353223 0)
(0.159342 0.389163 0)
(0.315633 0.434449 0)
(0.518095 0.541589 0)
(0.780644 0.663156 0)
(1.01296 0.708649 0)
(1.24101 0.497457 0)
(1.23318 0.810815 0)
(0.982603 1.32357 0)
(0.800505 1.83051 0)
(0.693929 2.03593 0)
(0.549828 1.52295 0)
(0.519855 0.838168 0)
(0.65569 0.860112 0)
(0.659308 1.5306 0)
(0.336288 2.59641 0)
(-0.419005 1.91351 0)
(-0.712646 1.14058 0)
(-0.547463 0.943104 0)
(-0.34567 0.802196 0)
(-0.204611 0.694515 0)
(-0.102867 0.671812 0)
(-0.0292177 0.730627 0)
(-0.072126 0.823866 0)
(-0.130419 0.821534 0)
(-0.109372 0.736205 0)
(-0.0803538 0.680966 0)
(-0.0719896 0.564129 0)
(-0.106141 0.4292 0)
(-0.116431 0.341333 0)
(-0.052288 0.317922 0)
(0.0980313 0.299703 0)
(0.323777 0.291592 0)
(0.622357 0.268462 0)
(0.983024 0.285768 0)
(1.3082 0.324314 0)
(1.45831 0.481521 0)
(1.39977 0.893082 0)
(1.24067 1.43581 0)
(1.09568 1.90957 0)
(1.02642 2.15062 0)
(0.877198 1.69123 0)
(0.689048 0.93275 0)
(0.661153 0.837878 0)
(0.622552 1.60108 0)
(0.497019 2.81437 0)
(-0.0116218 2.43364 0)
(-0.436982 1.13008 0)
(-0.435296 0.736373 0)
(-0.314273 0.638267 0)
(-0.210315 0.58194 0)
(-0.111063 0.580353 0)
(-0.0335522 0.66504 0)
(-0.0559986 0.907762 0)
(-0.09716 0.818367 0)
(-0.0927127 0.738417 0)
(-0.0653691 0.675253 0)
(-0.0433021 0.583707 0)
(-0.0520404 0.486758 0)
(-0.066406 0.410045 0)
(-0.0369468 0.359181 0)
(0.0553705 0.305404 0)
(0.202622 0.237173 0)
(0.382814 0.18619 0)
(0.579252 0.157533 0)
(0.779649 0.160541 0)
(0.954232 0.289708 0)
(1.15732 0.766774 0)
(1.32404 1.44798 0)
(1.35217 1.95056 0)
(1.40397 2.21527 0)
(1.33026 1.94381 0)
(0.99172 1.23637 0)
(0.698333 0.929629 0)
(0.598967 1.63096 0)
(0.611872 2.85456 0)
(0.446322 2.75883 0)
(-0.117157 1.34454 0)
(-0.336465 0.626691 0)
(-0.272905 0.530318 0)
(-0.20137 0.489281 0)
(-0.108933 0.490281 0)
(-0.0359011 0.612892 0)
(0.0471176 0.923368 0)
(0.0281566 0.81343 0)
(0.0236383 0.700099 0)
(0.0362107 0.643537 0)
(0.0350849 0.575385 0)
(0.0135929 0.500979 0)
(-0.0153941 0.42292 0)
(-0.0240038 0.344212 0)
(0.0128262 0.249991 0)
(0.0847137 0.153417 0)
(0.165793 0.0608304 0)
(0.254384 -0.00699129 0)
(0.355396 -0.0284331 0)
(0.492497 0.071501 0)
(0.740489 0.447331 0)
(1.14878 1.18982 0)
(1.46415 1.85737 0)
(1.63305 2.13964 0)
(1.70385 2.12287 0)
(1.41135 1.73042 0)
(0.895291 1.25623 0)
(0.6248 1.69453 0)
(0.734264 2.7875 0)
(0.793098 2.93778 0)
(0.351366 1.89507 0)
(-0.181563 0.687354 0)
(-0.219008 0.47583 0)
(-0.180768 0.418887 0)
(-0.106117 0.402261 0)
(-0.0277974 0.557556 0)
(0.0621119 0.77232 0)
(0.158805 0.794241 0)
(0.172961 0.67549 0)
(0.18031 0.620111 0)
(0.174297 0.561024 0)
(0.142158 0.506255 0)
(0.0828288 0.436056 0)
(0.0173175 0.340044 0)
(-0.00622678 0.212386 0)
(0.0225994 0.100546 0)
(0.0741141 0.00258427 0)
(0.122668 -0.0646953 0)
(0.16874 -0.0973671 0)
(0.231512 -0.0635587 0)
(0.383815 0.149888 0)
(0.753545 0.722659 0)
(1.27617 1.53303 0)
(1.64859 1.96107 0)
(1.84724 2.13775 0)
(1.72327 2.1345 0)
(1.19397 1.83875 0)
(0.690184 1.86165 0)
(0.753523 2.66088 0)
(0.931686 3.00635 0)
(0.774501 2.37266 0)
(0.071419 1.04393 0)
(-0.192469 0.471165 0)
(-0.178915 0.360486 0)
(-0.119027 0.329735 0)
(-0.0209989 0.564899 0)
(0.0151636 0.657136 0)
(0.161558 0.698046 0)
(0.184675 0.621195 0)
(0.226647 0.589033 0)
(0.246081 0.548204 0)
(0.242153 0.520467 0)
(0.203426 0.47516 0)
(0.13454 0.386445 0)
(0.0436937 0.223313 0)
(0.00162993 0.0679483 0)
(0.0215619 -0.0429614 0)
(0.0643488 -0.105955 0)
(0.0962538 -0.133536 0)
(0.125571 -0.1167 0)
(0.185773 -0.0149875 0)
(0.390787 0.327342 0)
(0.838768 1.04524 0)
(1.39584 1.59897 0)
(1.82048 2.04761 0)
(1.81715 2.36801 0)
(1.41569 2.41082 0)
(0.811482 2.18545 0)
(0.638514 2.59117 0)
(0.841418 2.92814 0)
(0.90713 2.63102 0)
(0.485888 1.70721 0)
(-0.126273 0.627023 0)
(-0.19903 0.319804 0)
(-0.122458 0.33149 0)
(-0.0612087 0.52733 0)
(0.0135561 0.600651 0)
(0.111947 0.643459 0)
(0.131714 0.587382 0)
(0.147956 0.539865 0)
(0.155618 0.501337 0)
(0.18082 0.488441 0)
(0.197837 0.466306 0)
(0.200807 0.411566 0)
(0.140012 0.300657 0)
(0.0444605 0.105866 0)
(0.0105705 -0.0796874 0)
(0.0374041 -0.141791 0)
(0.0701123 -0.164153 0)
(0.095791 -0.146914 0)
(0.122433 -0.0724215 0)
(0.201371 0.127557 0)
(0.454206 0.65604 0)
(0.945252 1.09119 0)
(1.50832 1.75467 0)
(1.71664 2.50369 0)
(1.44958 2.85172 0)
(0.897486 2.64616 0)
(0.559471 2.69625 0)
(0.63796 2.83682 0)
(0.773355 2.69216 0)
(0.650285 2.12982 0)
(0.0558444 1.08187 0)
(-0.220268 0.355936 0)
(-0.177295 0.291832 0)
(-0.0758806 0.478157 0)
(0.00190205 0.575961 0)
(0.0444444 0.603469 0)
(0.081098 0.585428 0)
(0.099899 0.549054 0)
(0.100003 0.492605 0)
(0.120965 0.449106 0)
(0.147823 0.418804 0)
(0.171062 0.379997 0)
(0.165572 0.313062 0)
(0.094104 0.181986 0)
(0.0371094 -0.0802238 0)
(0.0367499 -0.172886 0)
(0.0666446 -0.194663 0)
(0.0974796 -0.178754 0)
(0.131289 -0.11056 0)
(0.172647 0.0566499 0)
(0.296737 0.444138 0)
(0.621869 0.693359 0)
(1.00906 1.378 0)
(1.30217 2.4119 0)
(1.25056 3.06165 0)
(0.898238 3.02711 0)
(0.532669 2.74959 0)
(0.478672 2.81975 0)
(0.570333 2.67725 0)
(0.607447 2.3337 0)
(0.242066 1.62852 0)
(-0.177491 0.471329 0)
(-0.213238 0.324623 0)
(-0.100464 0.338446 0)
(-0.01504 0.596928 0)
(-0.0153155 0.583851 0)
(0.0199177 0.570788 0)
(0.0453713 0.555183 0)
(0.0532868 0.503929 0)
(0.0626887 0.451439 0)
(0.0808721 0.405576 0)
(0.12286 0.357426 0)
(0.146104 0.306762 0)
(0.121335 0.220311 0)
(0.0633121 -0.0497429 0)
(0.0465661 -0.196146 0)
(0.0728273 -0.227307 0)
(0.113236 -0.219973 0)
(0.166248 -0.165407 0)
(0.232302 -0.0145201 0)
(0.354736 0.28692 0)
(0.531796 0.459907 0)
(0.624023 1.08301 0)
(0.708181 2.18792 0)
(0.849008 2.95247 0)
(0.817896 3.19305 0)
(0.569846 2.90803 0)
(0.394027 2.71054 0)
(0.390523 2.5951 0)
(0.412987 2.36819 0)
(0.303475 1.93528 0)
(-0.0649462 0.785059 0)
(-0.216053 0.304737 0)
(-0.115804 0.159492 0)
(-0.0144134 0.61848 0)
(-0.0206181 0.571948 0)
(0.00623386 0.561232 0)
(0.0297381 0.557461 0)
(0.0379617 0.520194 0)
(0.0293233 0.4729 0)
(0.0167455 0.418903 0)
(0.0194486 0.356479 0)
(0.044825 0.277824 0)
(0.0952604 0.226547 0)
(0.0803719 -0.0114967 0)
(0.0570627 -0.207795 0)
(0.0794163 -0.263185 0)
(0.125824 -0.27279 0)
(0.195091 -0.24685 0)
(0.292984 -0.141817 0)
(0.458689 0.0855449 0)
(0.595455 0.310568 0)
(0.469514 1.00466 0)
(0.305922 1.991 0)
(0.401513 2.58475 0)
(0.581864 3.00244 0)
(0.509376 2.90606 0)
(0.285321 2.71299 0)
(0.138268 2.52474 0)
(0.0896021 2.3281 0)
(0.11524 1.99351 0)
(-0.0735543 1.02805 0)
(-0.21104 0.290358 0)
(-0.119732 -0.0374412 0)
(-0.00595437 0.622892 0)
(0.00751126 0.536178 0)
(0.0491854 0.536976 0)
(0.0740139 0.552581 0)
(0.0771963 0.539496 0)
(0.0579215 0.515477 0)
(0.0203629 0.480073 0)
(-0.030099 0.416953 0)
(-0.0537681 0.279674 0)
(-0.014598 0.167279 0)
(0.0462457 -0.0087901 0)
(0.0505286 -0.217359 0)
(0.0697938 -0.301608 0)
(0.117956 -0.332994 0)
(0.191045 -0.343595 0)
(0.290001 -0.307288 0)
(0.440755 -0.169581 0)
(0.610754 0.183724 0)
(0.480886 1.06086 0)
(0.183046 1.87168 0)
(0.118008 2.34261 0)
(0.238888 2.74852 0)
(0.245502 2.85637 0)
(0.0348743 2.70751 0)
(-0.210282 2.47658 0)
(-0.355141 2.21239 0)
(-0.310398 1.90278 0)
(-0.245565 1.11364 0)
(-0.154693 0.249271 0)
(-0.0620529 -0.202117 0)
(0.0159832 0.601738 0)
(0.0530503 0.476883 0)
(0.109354 0.489794 0)
(0.151527 0.524667 0)
(0.171954 0.536172 0)
(0.156223 0.546881 0)
(0.0986548 0.543858 0)
(-0.0226209 0.525423 0)
(-0.130444 0.351168 0)
(-0.119755 0.134992 0)
(-0.0489437 -0.0409762 0)
(0.0124788 -0.239096 0)
(0.0387111 -0.343442 0)
(0.0878801 -0.393973 0)
(0.152102 -0.432675 0)
(0.225284 -0.450976 0)
(0.312222 -0.398976 0)
(0.473473 -0.028986 0)
(0.430882 1.09071 0)
(0.140217 1.89595 0)
(-0.0501501 2.2382 0)
(-0.095071 2.59689 0)
(-0.161653 2.81284 0)
(-0.375587 2.78592 0)
(-0.676249 2.55803 0)
(-0.87304 2.16291 0)
(-0.713165 1.58665 0)
(-0.36983 0.861244 0)
(-0.0357288 0.0692132 0)
(0.0370308 -0.233669 0)
(0.045015 0.54115 0)
(0.0991375 0.406566 0)
(0.168503 0.42454 0)
(0.237989 0.466518 0)
(0.307208 0.496986 0)
(0.320896 0.564325 0)
(0.241564 0.605895 0)
(0.0142964 0.60004 0)
(-0.202163 0.381479 0)
(-0.231063 0.107886 0)
(-0.13423 -0.111876 0)
(-0.0487703 -0.27553 0)
(-0.00605038 -0.389132 0)
(0.044539 -0.450637 0)
(0.0988296 -0.501361 0)
(0.148027 -0.539785 0)
(0.188773 -0.546568 0)
(0.298902 -0.198377 0)
(0.275926 1.11462 0)
(0.0547943 1.97414 0)
(-0.163924 2.30483 0)
(-0.340646 2.62402 0)
(-0.508176 2.89107 0)
(-0.746236 2.9399 0)
(-1.02981 2.66231 0)
(-1.16119 2.03244 0)
(-0.800661 1.15571 0)
(-0.232885 0.338587 0)
(0.0666371 -0.0937699 0)
(0.0850883 -0.156991 0)
(0.0639251 0.455952 0)
(0.129137 0.333368 0)
(0.207016 0.344882 0)
(0.298085 0.363813 0)
(0.407898 0.410385 0)
(0.413281 0.509555 0)
(0.328384 0.62845 0)
(0.0439551 0.741044 0)
(-0.213041 0.459974 0)
(-0.272267 0.0533045 0)
(-0.219126 -0.184861 0)
(-0.117648 -0.316811 0)
(-0.0571854 -0.437621 0)
(-0.00219809 -0.502659 0)
(0.0492097 -0.554099 0)
(0.0876265 -0.590696 0)
(0.128822 -0.634974 0)
(0.166787 -0.270239 0)
(0.102275 1.16799 0)
(-0.0387285 2.0831 0)
(-0.226659 2.47177 0)
(-0.447453 2.78033 0)
(-0.654055 3.06912 0)
(-0.878337 3.14677 0)
(-1.09552 2.7594 0)
(-1.03857 1.78667 0)
(-0.475209 0.595239 0)
(-0.104217 -0.0376897 0)
(0.0507917 -0.125028 0)
(0.0612971 -0.103652 0)
(0.0642805 0.35082 0)
(0.138401 0.255367 0)
(0.221988 0.255461 0)
(0.320537 0.242505 0)
(0.367223 0.280009 0)
(0.368239 0.452098 0)
(0.21411 0.751415 0)
(-0.0641312 0.887936 0)
(-0.381369 0.583165 0)
(-0.51045 0.0248489 0)
(-0.338558 -0.301536 0)
(-0.191369 -0.381689 0)
(-0.110638 -0.497441 0)
(-0.0473729 -0.555788 0)
(0.00640627 -0.600366 0)
(0.0399532 -0.629901 0)
(0.112587 -0.681002 0)
(0.068373 -0.212322 0)
(-0.0106892 1.21519 0)
(-0.068122 2.17233 0)
(-0.208386 2.64848 0)
(-0.405105 2.96336 0)
(-0.58267 3.24641 0)
(-0.749674 3.29913 0)
(-0.882489 2.74865 0)
(-0.623685 1.4575 0)
(-0.191048 0.208156 0)
(-0.0298296 -0.0412599 0)
(-0.0225311 -0.15226 0)
(0.00752962 -0.0960191 0)
(0.0513469 0.246478 0)
(0.121497 0.177913 0)
(0.194856 0.162962 0)
(0.245229 0.147301 0)
(0.195994 0.240989 0)
(0.0617846 0.458382 0)
(-0.150274 0.790383 0)
(-0.261871 0.861162 0)
(-0.361652 0.53229 0)
(-0.485795 -0.0960084 0)
(-0.404292 -0.588803 0)
(-0.225106 -0.518368 0)
(-0.150852 -0.58188 0)
(-0.081564 -0.615314 0)
(-0.0264756 -0.64494 0)
(0.00443583 -0.666811 0)
(0.0927243 -0.662969 0)
(0.0130561 -0.107396 0)
(-0.0174882 1.21402 0)
(-0.00781561 2.22856 0)
(-0.0980787 2.78841 0)
(-0.233978 3.10898 0)
(-0.341931 3.36107 0)
(-0.408899 3.35682 0)
(-0.413869 2.6255 0)
(-0.202748 1.06028 0)
(-0.0835595 0.115041 0)
(-0.0866884 -0.0642146 0)
(-0.0975028 -0.161239 0)
(-0.0548005 -0.0851615 0)
(0.039778 0.124888 0)
(0.063672 0.0688952 0)
(0.118938 0.0711688 0)
(0.0525899 0.152106 0)
(-0.114158 0.34215 0)
(-0.324333 0.588027 0)
(-0.438199 0.826574 0)
(-0.401604 0.81449 0)
(-0.332645 0.460727 0)
(-0.339779 -0.167422 0)
(-0.290731 -0.722126 0)
(-0.186005 -0.659428 0)
(-0.137526 -0.6613 0)
(-0.0883099 -0.671261 0)
(-0.0431991 -0.685673 0)
(-0.0141974 -0.697393 0)
(0.0458193 -0.621337 0)
(-0.0462625 -0.0978546 0)
(0.00269432 1.15739 0)
(0.0856395 2.24191 0)
(0.0596992 2.8621 0)
(3.32045e-05 3.18502 0)
(-0.0326218 3.38907 0)
(0.00639092 3.32418 0)
(0.109428 2.56804 0)
(0.125939 1.08581 0)
(-0.00289266 0.164913 0)
(-0.0754869 -0.0750365 0)
(-0.0952027 -0.16726 0)
(-0.0708533 -0.151508 0)
(0.0168677 0.0129404 0)
(-0.00932239 0.0650644 0)
(-0.090675 0.147524 0)
(-0.283166 0.291895 0)
(-0.462795 0.465612 0)
(-0.583765 0.667078 0)
(-0.586428 0.80055 0)
(-0.475468 0.718231 0)
(-0.341866 0.357941 0)
(-0.280651 -0.258744 0)
(-0.258368 -0.825339 0)
(-0.169039 -0.74886 0)
(-0.119163 -0.706594 0)
(-0.087057 -0.712685 0)
(-0.051962 -0.717386 0)
(-0.0212181 -0.714589 0)
(0.00841105 -0.556222 0)
(-0.0916518 -0.0570421 0)
(-0.0181126 1.03982 0)
(0.148185 2.18804 0)
(0.203511 2.85514 0)
(0.218168 3.19287 0)
(0.243307 3.34614 0)
(0.332231 3.23044 0)
(0.455881 2.50767 0)
(0.377395 1.16666 0)
(0.160858 0.292771 0)
(-0.00444318 -0.0364067 0)
(-0.0690821 -0.179699 0)
(-0.064991 -0.177007 0)
(-0.0665298 0.0538769 0)
(-0.193992 0.109712 0)
(-0.357661 0.230572 0)
(-0.507701 0.37716 0)
(-0.61874 0.53483 0)
(-0.664516 0.666937 0)
(-0.615922 0.7117 0)
(-0.487181 0.579005 0)
(-0.341688 0.226093 0)
(-0.254897 -0.341136 0)
(-0.232202 -0.872251 0)
(-0.193848 -0.84655 0)
(-0.117578 -0.749823 0)
(-0.0937213 -0.747301 0)
(-0.0605705 -0.741656 0)
(-0.0262439 -0.723561 0)
(-0.0138112 -0.492341 0)
(-0.129257 -0.00534913 0)
(-0.0724885 0.883659 0)
(0.159673 2.05424 0)
(0.305591 2.77424 0)
(0.385454 3.13983 0)
(0.455678 3.26642 0)
(0.562479 3.12805 0)
(0.677 2.48294 0)
(0.582255 1.32837 0)
(0.316977 0.471184 0)
(0.104707 0.12995 0)
(-0.0630858 -0.172215 0)
(-0.0782029 -0.264129 0)
(-0.122755 0.168482 0)
(-0.296019 0.224304 0)
(-0.449589 0.348187 0)
(-0.568346 0.478305 0)
(-0.640725 0.585588 0)
(-0.650994 0.644799 0)
(-0.587294 0.614353 0)
(-0.465972 0.439814 0)
(-0.331494 0.0917541 0)
(-0.236363 -0.431911 0)
(-0.192537 -0.911549 0)
(-0.180639 -0.888349 0)
(-0.123834 -0.803258 0)
(-0.103387 -0.781015 0)
(-0.0724349 -0.762812 0)
(-0.0323402 -0.730181 0)
(-0.0368284 -0.40386 0)
(-0.17622 0.0588216 0)
(-0.148058 0.722799 0)
(0.119261 1.8398 0)
(0.360388 2.62578 0)
(0.494749 3.03514 0)
(0.605205 3.16353 0)
(0.722144 3.0266 0)
(0.825923 2.47448 0)
(0.732811 1.50817 0)
(0.440194 0.69465 0)
(0.177976 0.304525 0)
(0.0199024 -0.0998861 0)
(-0.0806123 -0.351167 0)
(-0.140467 0.415712 0)
(-0.306966 0.400604 0)
(-0.446476 0.479598 0)
(-0.545998 0.564158 0)
(-0.598006 0.615251 0)
(-0.595604 0.612654 0)
(-0.534977 0.524431 0)
(-0.431874 0.318495 0)
(-0.320669 -0.0280643 0)
(-0.230945 -0.522913 0)
(-0.17433 -0.958247 0)
(-0.164385 -0.914607 0)
(-0.132348 -0.848318 0)
(-0.115529 -0.811275 0)
(-0.0884254 -0.782669 0)
(-0.0370962 -0.738384 0)
(-0.0638079 -0.319704 0)
(-0.233183 0.138405 0)
(-0.240502 0.586297 0)
(0.0241317 1.56019 0)
(0.356046 2.42212 0)
(0.543106 2.88187 0)
(0.689507 3.03765 0)
(0.813573 2.92344 0)
(0.904728 2.47049 0)
(0.807733 1.68376 0)
(0.529444 0.969233 0)
(0.226187 0.518601 0)
(0.0712933 -0.0194313 0)
(-0.0565129 -0.357481 0)
(-0.11587 0.613061 0)
(-0.265585 0.549763 0)
(-0.393801 0.591533 0)
(-0.483075 0.632908 0)
(-0.527471 0.636024 0)
(-0.524283 0.581682 0)
(-0.474333 0.44967 0)
(-0.392458 0.220059 0)
(-0.306919 -0.128383 0)
(-0.231151 -0.61137 0)
(-0.177212 -1.01237 0)
(-0.158906 -0.929335 0)
(-0.143677 -0.880002 0)
(-0.129159 -0.837255 0)
(-0.106538 -0.801237 0)
(-0.0387307 -0.740447 0)
(-0.0865685 -0.198892 0)
(-0.270189 0.234944 0)
(-0.327361 0.489186 0)
(-0.123557 1.23563 0)
(0.268857 2.15783 0)
(0.524257 2.68417 0)
(0.700088 2.89199 0)
(0.829125 2.82002 0)
(0.900304 2.4703 0)
(0.801429 1.85005 0)
(0.53659 1.22791 0)
(0.208533 0.743826 0)
(0.0764851 0.0878005 0)
(-0.0522146 -0.319925 0)
(-0.0877149 0.781794 0)
(-0.215301 0.685984 0)
(-0.331476 0.694744 0)
(-0.412187 0.696704 0)
(-0.453262 0.655528 0)
(-0.45259 0.558201 0)
(-0.414445 0.391651 0)
(-0.351303 0.143275 0)