/*--------------------------------*- C++ -*----------------------------------*\
| =========                 |                                                 |
| \\      /  F ield         | OpenFOAM: The Open Source CFD Toolbox           |
|  \\    /   O peration     | Version:  v1606+                                |
|   \\  /    A nd           | Web:      www.OpenFOAM.com                      |
|    \\/     M anipulation  |                                                 |
\*---------------------------------------------------------------------------*/
FoamFile
{
    version     2.0;
    format      ascii;
    class       volScalarField;
    location    "1";
    object      epsilon.air;
}
// * * * * * * * * * * * * * * * * * * * * * * * * * * * * * * * * * * * * * //

dimensions      [0 2 -3 0 0 0 0];

internalField   nonuniform List<scalar> 
6000
(
134.893
17.3926
10.8213
10.1107
10.0761
10.0959
10.1534
10.2077
10.2185
10.1742
10.1144
10.0578
9.99861
9.93518
9.86728
9.79724
9.74578
9.71807
9.72888
9.79435
9.86709
9.9529
10.054
10.1031
10.0888
10.0827
10.1665
10.9597
17.9545
134.823
75.5451
23.1606
13.9311
11.8398
11.7124
12.1113
12.6982
12.9081
12.4036
11.9117
11.5093
11.1927
10.9257
10.6765
10.4637
10.3291
10.2896
10.3576
10.5387
10.7762
11.0439
11.3625
11.6941
11.7352
11.4815
11.3771
11.8622
14.1998
23.7605
72.6597
45.2754
19.8603
13.7024
11.8122
11.3391
11.4044
11.7415
11.9231
11.6091
11.1734
10.794
10.5008
10.2775
10.123
10.045
10.0261
10.0461
10.0962
10.1951
10.3546
10.5523
10.7798
10.974
11.0401
11.1181
11.3946
12.0774
13.9683
19.7789
41.8661
35.4982
17.4162
13.2459
11.621
11.0244
10.9083
11.061
11.2459
11.0644
10.6144
10.2162
9.92854
9.70483
9.55035
9.49022
9.5032
9.56631
9.66895
9.82319
10.0166
10.2316
10.4562
10.5836
10.6369
10.8231
11.1915
11.8543
13.373
17.263
33.8904
37.6829
16.9986
13.2604
11.9236
11.2461
10.8847
10.689
10.6173
10.447
10.0235
9.6663
9.42583
9.26301
9.18377
9.17828
9.23423
9.33921
9.48522
9.67364
9.88565
10.1149
10.3496
10.4946
10.6151
10.8696
11.3028
11.9545
13.3184
16.7231
35.3558
43.1755
18.8708
14.9851
13.6656
12.7369
11.8587
11.1298
10.6297
10.2679
9.88575
9.58758
9.40574
9.31096
9.30852
9.36405
9.45435
9.58294
9.75503
9.94127
10.1128
10.3103
10.5494
10.8131
11.2303
11.854
12.3598
12.8236
13.9137
17.6092
41.2263
40.3993
21.0719
18.8137
18.5781
17.4329
15.2396
13.2379
11.7942
10.9221
10.4269
10.1188
9.98423
9.98496
10.0819
10.2135
10.3427
10.5089
10.7353
10.9607
11.1182
11.275
11.6222
12.328
13.5728
14.8671
15.3636
15.4536
16.1588
19.4593
40.9192
32.7501
21.3028
20.9672
22.0792
22.1178
19.9044
16.9986
14.5696
12.9774
12.1151
11.6406
11.4781
11.5002
11.5997
11.7492
11.9035
12.1441
12.5033
12.9297
13.2666
13.5573
14.3082
15.9505
18.5894
21.0397
21.2964
19.6671
18.3837
19.8073
35.6083
26.1865
19.7422
20.6071
21.8769
21.8982
21.0993
18.8874
16.4882
14.7686
13.826
13.3533
13.1959
13.2272
13.3276
13.5633
13.8685
14.1978
14.6394
15.2832
16.052
16.8473
18.4758
21.4015
25.3119
27.5741
25.636
22.3503
20.4228
19.9215
30.3744
21.6757
16.5528
17.8424
19.8071
19.9247
19.4871
18.246
16.6574
15.4136
14.6953
14.3332
14.1504
14.1835
14.484
14.9985
15.454
15.8328
16.2554
16.959
18.1445
19.6738
22.273
26.043
29.2893
29.4766
26.4546
23.494
20.7609
19.4274
26.4721
20.1932
14.5928
15.312
17.2645
18.0347
17.7141
17.2287
16.507
15.823
15.3664
15.0372
14.7716
14.7342
15.0926
15.5401
15.9022
16.2417
16.7337
17.5827
18.9246
20.784
23.5833
26.7846
28.5007
28.0192
26.0759
22.8174
19.9455
18.6106
24.9492
20.9
14.0364
14.1756
15.7459
16.9769
16.695
16.4258
16.273
16.0977
15.9396
15.7111
15.4092
15.2465
15.3616
15.5384
15.7285
16.075
16.7159
17.659
19.0515
21.0443
23.484
25.7952
26.5006
26.4485
24.8443
21.7893
19.5157
18.696
25.8036
23.8032
14.4805
14.0306
15.2474
16.5604
16.524
16.202
16.1656
16.2123
16.2619
16.3087
16.2217
15.9067
15.6026
15.5331
15.7272
16.1635
16.8014
17.6624
19.0378
21.0441
23.1358
24.5733
25.0455
25.8324
24.4369
21.6299
19.8666
19.7306
29.4675
29.3321
15.5343
14.3746
15.2048
16.4126
16.9568
16.7042
16.4955
16.5202
16.6768
17.0598
17.2226
16.5556
15.9083
15.7839
16.0568
16.4752
16.9006
17.5799
18.8864
20.8326
22.7818
23.72
24.202
25.511
24.4502
22.0158
20.6562
21.4475
35.5001
34.238
16.6425
14.8183
15.3919
16.6359
18.1645
18.2104
17.5802
17.3457
17.5427
18.3013
18.4716
17.271
16.4011
16.2404
16.4831
16.7096
16.8579
17.3817
18.5637
20.3318
22.2035
23.092
23.8169
25.1995
24.2384
22.3706
21.4804
22.9626
41.9768
37.055
17.4995
15.2277
15.4561
16.6465
19.031
20.4497
19.1928
18.626
18.8846
19.9023
19.8884
18.1265
17.0345
16.71
16.7407
16.7051
16.7205
17.1484
18.1463
19.6732
21.4178
22.6366
23.7754
24.8567
23.7828
22.3752
21.9135
24.034
47.4177
39.1964
18.0212
15.4809
15.4132
16.4995
18.6239
20.9751
20.5025
19.7791
20.1803
21.6146
21.077
18.962
17.6423
16.9837
16.6867
16.5413
16.597
17.009
17.8302
19.0438
20.6251
22.1422
23.4507
23.8804
22.8743
21.953
21.7982
24.422
49.9893
40.0581
18.2241
15.4946
15.3242
16.3325
18.1823
20.3542
21.5805
20.6894
21.1085
22.6826
21.8757
19.6134
18.0542
17.0754
16.5628
16.3786
16.4591
16.8309
17.5062
18.4543
19.6957
21.1092
22.0407
22.0435
21.5343
21.0907
21.2607
24.2159
50.0947
40.1017
18.2313
15.4604
15.344
16.3961
18.1912
20.3415
22.6978
22.5553
22.0563
23.1606
22.4076
20.1282
18.3787
17.2151
16.5596
16.2875
16.3197
16.6133
17.1348
17.8266
18.6417
19.4947
20.0643
20.2066
20.1445
20.0082
20.3711
23.5644
49.0271
40.3876
18.2532
15.5242
15.543
16.7013
18.4379
20.482
23.3843
24.7259
23.2845
23.4837
22.9692
20.7088
18.7833
17.4673
16.6714
16.294
16.2246
16.4015
16.7711
17.2568
17.7646
18.2141
18.5474
18.7721
18.8325
18.8145
19.3174
22.5325
46.6113
41.0842
18.4338
15.7705
15.9249
17.0754
18.5852
20.4155
22.7331
24.7262
24.3067
23.8941
23.5795
21.4322
19.3038
17.8346
16.9136
16.4153
16.2346
16.2768
16.4811
16.7747
17.0664
17.2879
17.4462
17.5637
17.6077
17.6812
18.2981
21.4443
43.9255
41.9253
18.8947
16.2164
16.3304
17.3374
18.8475
20.7761
22.5014
23.7037
24.7784
24.4359
24.0436
22.2187
19.9411
18.3295
17.3031
16.7029
16.4072
16.3283
16.3807
16.4911
16.599
16.659
16.6742
16.6736
16.6824
16.8119
17.495
20.5423
41.68
42.9933
19.6742
16.8132
16.7881
17.7609
19.4921
21.7205
23.2539
23.574
24.7239
25.2248
24.4119
22.8841
20.6697
18.9783
17.8849
17.2142
16.8269
16.6276
16.5478
16.5222
16.4881
16.4183
16.3204
16.2264
16.1907
16.341
17.0616
20.0951
40.8004
45.4336
20.8943
17.6683
17.5395
18.6558
20.685
23.3716
24.9385
24.4383
25.0039
25.5508
24.9719
23.4697
21.4882
19.8311
18.7236
18.0148
17.5653
17.2746
17.07
16.9055
16.7495
16.5803
16.4011
16.2434
16.1715
16.3287
17.073
20.1658
40.9686
49.9122
22.7771
19.0801
18.9133
20.2131
22.4617
25.4973
26.6735
26.2685
26.0203
26.1435
25.6594
24.2384
22.488
20.9662
19.8949
19.1754
18.6845
18.3278
18.0364
17.7625
17.4809
17.188
16.8972
16.646
16.5111
16.6507
17.4713
20.8062
42.4945
54.9483
25.9435
21.4621
21.1345
22.4537
24.7591
27.8153
28.7113
28.8807
27.9912
27.4382
26.7373
25.4312
23.8731
22.4927
21.4812
20.7699
20.2556
19.8535
19.4984
19.1438
18.7635
18.354
17.9333
17.5501
17.308
17.425
18.4033
22.2744
47.3225
66.2404
30.7175
24.9491
24.1076
25.2279
27.473
30.6427
31.7461
32.111
31.1094
29.713
28.5781
27.2421
25.7913
24.5154
23.5643
22.8745
22.3577
21.9373
21.5494
21.1413
20.6735
20.1313
19.54
18.9649
18.547
18.5813
19.6687
24.4381
54.9455
80.4971
35.6642
29.0097
27.5783
28.2783
30.3352
33.6487
35.5989
35.1639
35.5213
33.1031
31.2953
29.7663
28.3229
27.1138
26.2172
25.5655
25.0774
24.6817
24.3124
23.9001
23.37
22.6779
21.8722
21.0418
20.352
20.141
21.1678
26.2297
59.8638
84.7288
38.4855
32.774
31.426
31.589
33.2222
36.1592
38.9581
38.3782
39.6647
37.2416
34.7382
32.9511
31.4825
30.3276
29.4946
28.9117
28.5007
28.1942
27.9225
27.5847
27.0379
26.1716
25.1135
23.9903
22.9795
22.4285
23.0365
27.3918
59.4675
84.9265
39.4534
35.3925
35.4017
35.224
36.3381
38.8734
42.2141
42.4584
42.9582
41.6256
38.7105
36.7187
35.2462
34.1653
33.4308
32.9659
32.6947
32.5513
32.4702
32.3232
31.8213
30.7822
29.4631
28.0151
26.6371
25.6942
25.8796
29.8804
59.4454
88.733
41.7501
37.706
39.0662
39.055
39.727
41.8021
45.1172
47.0473
46.4559
46.4436
43.2198
41.0283
39.5788
38.6181
38.0417
37.7612
37.6953
37.7738
37.935
38.0156
37.5678
36.5016
35.1157
33.4348
31.6655
30.2842
30.0359
33.8304
63.2953
98.3417
46.3711
40.7464
42.3312
43.0816
43.4315
44.9109
47.6827
50.6114
50.26
50.8029
47.9584
45.7371
44.4123
43.6689
43.3446
43.3327
43.5316
43.8702
44.2278
44.109
43.4578
42.8289
42.0798
40.5594
38.4733
36.6475
36.025
39.8356
73.7917
115.926
52.3225
44.2004
45.9513
47.6168
47.5917
48.4547
50.6135
53.5279
54.1476
54.7368
52.7194
50.7401
49.7208
49.3417
49.3989
49.7602
50.3152
50.9459
51.2598
50.6448
49.8603
49.5951
49.8093
49.3339
47.378
45.278
44.4459
48.9221
91.8932
130.21
58.0008
48.7347
50.5976
53.1723
52.5336
52.6184
54.0602
56.6263
58.2202
58.9765
57.5971
56.0953
55.5816
55.7411
56.3448
57.2389
58.2581
59.1357
59.1679
58.458
57.5195
57.24
57.9506
59.074
58.7656
56.7371
55.9041
61.6178
116.423
137.369
63.2759
54.8459
56.3336
60.4445
58.5794
57.531
58.1733
60.3015
62.6639
63.6366
62.7539
61.9564
62.1491
63.0519
64.4309
66.0768
67.7021
68.7563
68.6793
68.0221
67.1189
66.8311
67.7721
70.2048
73.3355
71.9814
71.2142
78.7489
149.094
142.331
70.0987
61.6454
62.508
67.9366
65.2597
63.0295
62.9474
64.669
67.3171
68.6205
68.3557
68.4779
69.5911
71.5089
73.9766
76.7098
79.1772
80.6167
80.9495
80.745
80.5275
80.4872
81.2314
84.7032
91.2856
92.0265
91.3894
101.388
192.212
156.022
80.814
70.0764
68.622
72.9966
71.3064
68.6922
68.2897
69.6672
72.1141
73.8607
74.5014
75.7322
78.0403
81.3149
85.3226
89.6453
93.5931
96.3204
97.9426
98.9763
99.8355
100.174
100.933
104.472
113.087
117.894
117.477
130.605
248.033
190.482
96.3383
77.7169
74.0025
76.5025
76.3637
74.4831
74.2249
75.3125
77.3691
79.4573
81.1976
83.6959
87.495
92.5744
98.6789
105.386
112.333
117.974
121.523
123.992
125.954
127.135
128.853
132.466
141.807
150.303
149.967
166.959
318.455
250.946
114.055
84.8883
79.7974
80.4284
81.8386
81.1796
81.1362
81.8445
83.4223
85.6013
88.2727
92.1276
97.7382
105.153
113.935
124.098
136.389
147.665
153.207
156.403
158.835
161.707
166.236
170.371
176.71
186.305
187.334
209.502
402.738
298.068
123.09
92.6071
86.6906
86.0413
89.0421
89.9585
89.7547
89.6027
90.3154
92.1908
95.3663
100.446
108.111
118.411
130.378
144.538
161.45
176.111
184.592
189.947
192.927
197.86
205.829
208.536
211.914
222.671
226.144
255.739
493.932
319.956
129.345
100.813
94.42
93.9093
97.9275
102.586
101.132
98.873
97.9275
98.8129
101.837
107.614
117.146
130.354
144.093
158.139
176.093
192.685
201.193
206.685
212.308
221.688
232.991
235.891
241.211
257.285
265.082
303.648
579.988
328.249
138.364
109.635
102.583
103.064
108.89
117.801
114.807
109.499
105.803
104.878
106.906
112.452
122.567
136.697
149.343
160.145
175.166
191.961
202.138
206.459
212.51
224.836
240.619
250.715
265.338
292.715
306.28
353.015
670.004
327.832
145.014
115.983
108.848
110.116
117.18
127.014
126.125
118.813
112.632
109.515
109.939
114.287
123.026
135.828
148.275
158.006
170.254
185.244
197.14
203.052
208.74
220.2
236.822
253.197
279.488
325.444
355.303
407.114
793.123
319.025
146.285
118.532
112.174
113.717
119.872
127.238
128.77
122.779
116.696
111.878
110.909
113.875
120.633
131.05
143.209
154.203
165.158
178.456
191.997
201.194
207.568
216.302
229.734
247.988
279.496
341.556
403.376
463.768
908.533
309.96
145.284
119.004
112.648
113.503
119.279
126.926
128.811
123.61
117.703
112.377
110.48
112.254
117.39
125.865
137.028
148.92
160.588
173.744
188.604
201.55
209.659
216.351
225.445
240.984
273.071
339.948
441.015
545.244
1113.96
313.249
144.624
117.968
111.174
111.481
116.86
124.452
127.312
122.968
117.824
112.498
109.67
110.27
114.219
121.453
131.648
143.874
156.864
170.996
187.38
203.422
213.687
218.875
224.507
236.245
264.773
329.896
450.149
607.334
1166.95
320.868
143.505
115.728
108.689
108.753
113.524
120.197
123.199
119.956
116.482
113.182
109.332
108.48
111.444
117.926
127.586
140.108
154.561
170.305
188.058
206.699
218.68
222.517
225.256
233.493
257.904
317.752
439.018
615.82
1172.72
319.893
141.011
112.743
105.69
105.645
109.712
115.152
117.748
115.264
112.634
112.706
109.165
106.85
109.08
115.176
124.802
137.771
153.76
171.841
191.429
212.117
225.382
226.911
226.814
231.939
252.253
306.025
419.78
602.026
1124.17
313.262
137.412
109.472
102.554
102.451
105.927
110.406
112.639
110.824
108.403
108.158
105.942
104.772
106.787
112.995
123.032
136.769
154.366
175.381
198.522
222.093
236.301
233.819
229.269
231.279
247.227
293.17
394.571
573.447
1046.22
299.401
132.803
106.06
99.51
99.5125
102.728
106.753
108.863
107.303
104.194
103.024
102.903
102.795
104.693
111.305
122.015
136.758
156.148
180.523
208.705
237.461
254.156
246.433
234.523
231.666
243.253
280.479
367.545
534.656
945.824
283.818
127.765
102.701
96.7626
97.1497
100.55
104.688
106.969
105.39
101.48
99.763
100.076
99.833
102.579
109.929
121.477
137.343
158.63
186.561
220.527
256.431
277.597
265.967
245.255
234.29
241.06
270.674
344.101
498.533
853.007
268.02
122.681
99.5657
94.4756
95.5408
99.5483
104.284
107.011
105.186
100.177
97.2699
97.1222
97.029
100.555
108.752
121.21
138.062
161.149
192.501
232.228
275.774
303.045
288.891
260.623
240.132
240.219
263.628
324.521
461.089
770.972
252.912
117.796
96.7432
92.6809
94.6357
99.5204
105.054
108.277
105.89
99.4159
95.1103
94.2833
94.4131
98.593
107.669
121.044
138.589
163.068
197.48
242.174
292.069
324.56
307.254
273.965
247.137
240.089
256.745
306.744
421.379
687.183
238.948
113.225
94.2295
91.281
94.2073
100.034
106.462
110.04
106.826
98.6794
93.2305
91.2977
91.7717
96.6229
106.339
120.627
138.847
164.189
201.013
249.333
303.531
338.125
317.223
280.807
253.018
240.425
248.989
288.17
379.386
618.052
226.681
109.179
91.9825
90.1046
93.9614
100.711
107.898
111.68
107.439
97.6694
91.3953
88.3591
88.9499
94.2704
104.312
119.523
138.555
164.543
202.905
253.302
308.975
341.552
319.148
282.011
254.782
239.805
240.673
268.116
339.689
577.989
215.917
105.5
89.8583
88.9098
93.5321
100.994
108.742
112.557
107.323
96.0114
88.9567
85.2147
85.795
91.3896
101.779
117.591
137.205
163.839
203.208
253.914
307.771
334.952
314.634
279.858
252.339
236.17
231.956
248.564
305.845
560.417
206.115
101.949
87.6595
87.4389
92.5912
100.464
108.409
112.019
105.781
93.4376
85.5166
81.5375
82.2117
88.0162
98.6492
114.709
134.638
161.892
201.725
250.553
299.731
319.972
303.63
273.964
247.033
229.27
222.883
233.695
283.49
560.755
196.813
98.3563
85.213
85.4708
90.8363
98.7556
106.523
109.661
102.609
89.8117
81.3298
77.3798
78.2399
84.1209
94.9194
110.876
130.999
158.839
198.553
243.418
285.282
299.022
287.072
263.626
239.656
221.834
214.643
224.309
273.196
570.744
187.57
94.5938
82.407
82.8914
88.1361
95.6538
102.853
105.37
97.8963
85.2229
76.5316
72.8957
74.0439
79.9327
90.7277
106.266
126.68
155.14
193.571
234.105
266.504
275.585
266.919
249.294
229.674
213.719
207.185
217.464
268.861
589.312
178.008
90.5838
79.219
79.7339
84.5972
91.4171
97.7294
99.4516
91.9036
79.9026
71.4138
68.2553
69.8159
75.7665
86.27
101.584
122.589
151.569
187.154
222.735
246.212
251.404
244.863
232.121
217.161
204.264
199.356
210.461
263.461
590.196
167.922
86.3095
75.7174
76.1691
80.5372
86.551
91.8578
92.6946
85.3487
74.4223
66.7133
63.6723
65.7614
71.9333
82.4665
97.8236
119.261
147.805
180.573
210.237
225.896
227.957
222.805
213.825
203.059
193.521
190.626
202.447
255.622
582.174
157.356
81.8098
72.0249
72.4299
76.3509
81.663
86.093
86.1411
79.0437
69.2016
62.6104
60.0052
62.1781
68.8819
79.7872
95.795
117.791
145.468
174.922
198.055
207.288
206.848
202.351
195.952
188.536
182.048
181.1
193.448
245.37
559.698
146.56
77.1615
68.2665
68.7139
72.3422
77.1868
81.0155
80.4562
73.4563
64.4161
58.6888
56.8527
59.2963
66.5099
78.2799
95.2457
117.822
144.71
170.597
187.674
191.554
188.853
184.326
179.45
174.479
170.481
171.129
183.704
232.742
521.975
135.891
72.4633
64.5373
65.1362
68.6574
73.3083
76.872
75.9169
68.8381
60.157
54.8485
53.5338
56.4722
64.3837
77.3072
95.3277
118.853
145.256
168.415
179.701
179.064
174.103
168.944
164.726
161.371
159.25
161.107
173.569
218.767
478.755
125.685
67.8226
60.8985
61.7325
65.2964
69.9881
73.6038
72.4425
65.1341
56.4787
51.2971
50.2386
53.5339
62.2236
76.4018
95.8216
120.627
146.801
167.638
174.034
169.618
162.38
156.118
151.862
149.403
148.587
151.302
163.303
203.985
432.657
116.197
63.3375
57.3915
58.4935
62.1678
67.0293
70.8901
69.6172
61.956
53.193
48.0992
47.3202
50.9272
60.2284
75.6071
96.6091
122.836
149.014
167.82
170.398
162.82
153.335
145.644
140.799
138.621
138.59
141.896
153.317
190.071
387.809
107.583
59.0703
54.0533
55.4039
59.1677
64.2023
68.3215
66.8908
58.842
50.0331
45.1098
44.7022
48.7153
58.5718
74.9263
97.4457
125.124
151.704
169.033
168.455
158.219
146.604
137.292
131.435
128.987
129.266
132.912
143.705
176.86
344.52
99.9596
55.0793
50.9311
52.4706
56.2471
61.3775
65.6084
63.8321
55.4107
46.7761
42.2438
42.277
46.7823
57.2058
74.3046
98.1372
127.245
154.673
171.137
167.888
155.316
141.76
130.783
123.61
120.463
120.6
124.316
134.367
163.636
302.158
93.6577
51.5559
48.1009
49.7178
53.4058
58.5364
62.6644
60.3417
51.5911
43.3759
39.4448
40.0434
45.1251
56.0887
73.7802
98.6412
129.061
157.672
173.814
168.216
153.503
138.225
125.704
117.1
112.937
112.545
116.002
125.106
150.048
261.179
88.8284
48.6476
45.6366
47.1373
50.6151
55.6241
59.3808
56.355
47.4319
39.8407
36.6445
37.9735
43.7866
55.2407
73.3429
98.921
130.422
160.249
176.456
168.685
151.974
135.241
121.457
111.554
106.214
105.023
107.816
115.596
135.691
221.119
85.2208
46.3361
43.489
44.6572
47.8205
52.5444
55.6279
51.7996
42.9589
36.1641
33.7934
35.9262
42.6331
54.5946
72.94
98.9836
131.208
162.304
178.523
168.369
149.848
132.01
117.371
106.504
100.023
97.8726
99.605
105.604
120.283
185.606
82.5454
44.5612
41.5537
42.2018
44.9479
49.2164
51.3801
46.779
38.3001
32.4243
30.912
33.8308
41.3962
53.97
72.6108
98.9114
131.673
163.801
179.188
166.597
146.56
128.027
112.973
101.568
94.1202
90.9168
91.2274
95.083
104.833
155.428
80.2613
43.1916
39.7957
39.7522
41.9505
45.5961
46.7025
41.4746
33.6524
28.7594
28.095
31.7339
40.0135
53.1786
72.2676
98.8517
132.137
164.872
177.959
162.974
142.064
123.289
108.159
96.5792
88.4551
84.0318
82.7848
84.3073
90.1883
130.439
78.0286
42.1073
38.1373
37.2986
38.8327
41.712
41.7899
36.2032
29.219
25.3106
25.4536
29.7335
38.5889
52.2626
71.8759
98.9902
133.108
165.539
174.432
157.773
136.75
118.163
103.17
91.5833
83.0586
77.479
74.624
73.9745
76.9516
109.493
75.6674
41.2096
36.5511
34.8555
35.6376
37.664
36.9099
31.2346
25.18
22.2129
23.0617
27.9253
37.2279
51.3143
71.4054
99.1539
134.104
165.399
169.321
151.649
131.055
113.014
98.3228
86.7798
77.9816
71.5714
67.2324
64.8055
65.4019
92.4354
72.9656
40.3723
35.0404
32.4406
32.4291
33.5978
32.258
26.7904
21.6435
19.531
20.9888
26.3479
35.9743
50.3647
70.7493
98.7206
133.793
163.208
162.709
144.721
125.062
107.943
93.7605
82.3285
73.3457
66.3671
61.0128
57.1808
56.1242
80.4444
69.8391
39.5057
33.5567
30.0459
29.2287
29.6653
27.9983
22.9475
18.6291
17.2604
19.2468
25.0163
34.8712
49.4222
69.7998
97.3701
131.12
157.337
154.117
136.676
118.523
102.788
89.4215
78.2516
69.2019
61.9008
55.96
51.3169
49.4746
74.4631
66.0379
38.486
31.9684
27.621
26.0945
26.0076
24.2672
19.7408
16.1485
15.3962
17.8413
23.955
33.9726
48.5537
68.719
95.728
126.933
148.202
143.317
127.363
111.311
97.3636
85.1472
74.4682
65.5149
58.1183
51.9628
47.119
45.6236
75.0763
61.9568
37.3984
30.2012
25.1673
23.1508
22.8181
21.2097
17.2142
14.2067
13.9482
16.769
23.1806
33.3412
47.9334
67.9092
94.4188
122.72
137.89
131.523
117.435
103.704
91.6807
80.8134
70.8626
62.1938
54.9003
48.8159
44.2018
43.7056
77.6165
57.1908
36.0542
28.1741
22.7693
20.582
20.3182
18.9658
15.412
12.8
12.8912
16.008
22.6963
33.0348
47.6802
67.6316
93.5749
118.937
127.859
120.092
107.689
96.0709
85.8296
76.3447
67.3163
59.1319
52.1083
46.2887
42.1709
42.9896
82.2884
51.3709
34.4482
25.9444
20.5801
18.5804
18.6925
17.661
14.2872
11.8485
12.1536
15.5236
22.4565
32.9458
47.6532
67.6284
92.6196
115.124
118.786
109.704
98.5306
88.5969
79.8672
71.7023
63.732
56.233
49.624
44.1817
40.683
42.8036
86.8433
44.1849
31.8881
23.481
18.5998
17.1503
17.8604
17.0872
13.6416
11.2138
11.6912
15.2768
22.3503
32.9079
47.6138
67.4466
90.9794
110.518
110.232
100.189
89.9277
81.2913
73.8261
66.8978
60.0707
53.4322
47.3694
42.3657
39.5111
42.8176
91.0039
36.0223
27.5032
20.4946
16.5704
15.9432
17.4346
16.8951
13.2164
10.7473
11.4094
15.1871
22.3155
32.8558
47.4209
66.8504
88.6357
104.83
101.656
91.2231
81.7783
74.1863
67.8017
62.0217
56.3651
50.704
45.2945
40.7709
38.5435
42.8746
94.594
28.0264
21.9176
16.9684
14.3385
14.5673
16.8018
16.6866
12.8742
10.3844
11.2453
15.1925
22.359
32.8365
47.146
65.9977
86.104
98.8305
93.213
82.8289
74.16
67.4281
61.9659
57.2213
52.6925
48.0407
43.3436
39.3432
37.7228
42.8978
97.2115
21.275
16.543
13.4411
12.1015
12.9187
15.8163
16.1718
12.3742
10.0729
11.1829
15.3059
22.5159
32.937
46.969
65.1886
83.8136
93.0085
85.3345
75.2056
67.2255
61.1884
56.495
52.6448
49.1203
45.411
41.4359
38.0197
37.0009
42.857
98.7932
16.0714
12.2283
10.4685
10.1154
11.1999
14.2252
15.1204
11.76
9.80011
11.1836
15.5057
22.8169
33.2545
47.1319
64.8584
82.1213
87.4437
78.1526
68.4277
61.051
55.5705
51.5053
48.3937
45.6777
42.757
39.4947
36.7472
36.3252
42.6714
98.4466
12.2547
9.07351
8.19875
8.43453
9.61592
12.2967
13.7316
11.285
9.67648
11.264
15.7997
23.3306
33.998
48.0322
65.5588
81.3208
82.0641
71.5577
62.4108
55.5919
50.5751
47.0202
44.482
42.3461
40.0325
37.4903
35.5073
35.6672
42.2894
97.1727
9.48926
6.82088
6.51342
7.02471
8.27395
10.412
12.3038
11.0698
9.67924
11.4073
16.2521
24.214
35.4643
50.2193
68.1102
81.7111
76.9419
65.4576
56.9542
50.6641
46.073
42.9328
40.7936
39.0407
37.217
35.4329
34.3061
35.0317
41.7432
94.558
7.45277
5.19746
5.22943
5.83982
7.10028
8.75881
10.7105
10.6896
9.73199
11.5681
16.8564
25.5456
37.8929
54.3467
73.3453
82.8559
72.1172
59.9098
51.8359
46.0145
41.8417
39.0311
37.1332
35.6429
34.2918
33.3322
33.1608
34.5279
41.1582
91.2587
5.92977
4.02947
4.18678
4.82398
5.97753
7.38503
9.05498
9.83796
9.61599
11.6552
17.5382
27.2003
41.0358
59.9477
79.5845
81.8945
67.2882
54.9
47.0267
41.5742
37.7495
35.1631
33.4075
32.1373
31.3076
31.16
32.0417
34.2525
40.638
87.4607
4.72528
3.17166
3.34015
3.95073
4.92481
6.107
7.5063
8.75235
9.20401
11.658
18.2072
28.8907
44.2541
65.0236
82.6315
78.1395
62.5004
50.4573
42.7369
37.5281
33.9177
31.4453
29.7674
28.7177
28.3273
28.882
30.7796
34.1095
40.5412
83.7129
3.76067
2.51943
2.66714
3.20939
3.98694
4.93311
6.18133
7.6029
8.53547
11.536
18.7283
30.3021
47.0512
68.1317
81.0731
72.4627
57.6691
46.5282
39.1114
34.0657
30.5579
28.1311
26.4981
25.6325
25.4933
26.5033
29.1383
33.612
40.7467
78.5825
3.00729
2.01256
2.14554
2.58588
3.19202
3.93157
5.0031
6.49606
7.83833
11.2932
18.9354
31.0358
48.8715
69.5483
76.6443
65.922
52.9098
43.024
36.0985
31.2268
27.7843
25.3766
23.774
23.01
22.9757
24.1517
27.0919
32.3626
40.8488
71.9438
2.44152
1.60627
1.72959
2.05251
2.51428
3.10326
4.03295
5.49701
7.12778
10.9429
18.8126
31.0942
49.3334
68.5153
70.4944
59.4939
48.4211
39.8218
33.4982
28.8844
25.5403
23.1683
21.5972
20.8589
20.8282
21.9551
24.8174
30.2574
39.791
62.7828
2.04825
1.29103
1.37283
1.58049
1.93348
2.42505
3.24175
4.6546
6.47916
10.4778
18.272
30.4073
48.0558
64.7521
63.6213
53.5432
44.2321
36.8185
31.1285
26.8462
23.6651
21.3705
19.8341
19.0764
18.988
19.9324
22.4548
27.4125
36.5219
52.1076
1.74166
1.03383
1.07106
1.18977
1.4582
1.87335
2.58675
3.89526
5.79535
9.87444
17.3627
29.0533
45.3825
59.3355
56.7483
48.0718
40.301
33.9664
28.9141
24.9925
22.0134
19.8217
18.3162
17.51
17.3394
18.038
20.0029
23.8373
30.7095
41.8086
1.49595
0.859634
0.826967
0.904707
1.10563
1.43878
2.04614
3.245
5.15938
9.15803
16.163
27.0597
41.6979
52.9175
50.025
42.952
36.5824
31.2401
26.8184
23.2696
20.505
18.4156
16.9196
16.0383
15.78
16.2386
17.5855
20.082
24.596
33.0148
1.26656
0.722864
0.660893
0.707059
0.833826
1.09104
1.60555
2.70476
4.62332
8.42042
14.8181
24.6692
37.3226
46.0807
43.6266
38.1465
33.0428
28.6092
24.8028
21.6371
19.0966
17.1034
15.6051
14.6417
14.2655
14.4843
15.2733
16.6128
19.1106
26.0508
1.04086
0.585575
0.534638
0.519816
0.592006
0.798544
1.27643
2.33749
4.21525
7.73981
13.4644
22.1461
32.8349
39.4297
37.7385
33.6968
29.6934
26.0701
22.8431
20.0643
17.7616
15.8832
14.4089
13.3823
12.8546
12.8241
13.1702
13.7166
14.858
21.0911
0.926491
0.495846
0.410235
0.362197
0.404339
0.579158
1.04812
2.08901
3.90177
7.10021
12.1095
19.5627
28.3652
33.2684
32.4089
29.6033
26.5368
23.6232
20.9331
18.5411
16.4986
14.7782
13.372
12.2975
11.6022
11.3269
11.343
11.4576
11.9411
17.9548
0.812944
0.432702
0.314856
0.252907
0.275903
0.433993
0.905218
1.9232
3.64317
6.47654
10.7554
16.9716
24.0414
27.7465
27.5652
25.8074
23.5699
21.2833
19.0837
17.0718
15.3156
13.801
12.4995
11.3798
10.5176
10.0336
9.82407
9.70546
9.98839
16.1471
0.704101
0.373697
0.245177
0.181877
0.197047
0.357073
0.830477
1.80842
3.38774
5.84095
9.42781
14.4771
20.0589
22.9111
23.223
22.3217
20.803
19.0688
17.3116
15.6659
14.2115
12.9399
11.7505
10.5752
9.57936
8.95403
8.6036
8.35749
8.65414
14.9311
0.60208
0.315068
0.189105
0.13413
0.156283
0.33433
0.799584
1.71849
3.13816
5.22509
8.18285
12.2148
16.5291
18.8196
19.4444
19.1846
18.2568
16.9963
15.6338
14.3344
13.1831
12.1633
11.0714
9.84544
8.76017
8.06162
7.64391
7.33886
7.67459
13.6679
0.510572
0.256499
0.141866
0.104177
0.14676
0.342488
0.791874
1.64182
2.90362
4.65844
7.07197
10.2489
13.5276
15.3893
16.1659
16.3701
15.934
15.0804
14.0662
13.0873
12.2311
11.4418
10.4237
9.15913
8.02703
7.31465
6.87461
6.54937
6.92248
12.5727
0.429246
0.197415
0.106715
0.0919233
0.1564
0.360941
0.790096
1.56812
2.68583
4.16468
6.12872
8.5906
10.9632
12.5895
13.4585
13.9236
13.8601
13.3415
12.6209
11.9254
11.3357
10.7391
9.77144
8.48616
7.34896
6.65644
6.22007
5.91085
6.32263
11.7102
0.359934
0.148763
0.0864258
0.0955502
0.177881
0.380767
0.788891
1.49287
2.4856
3.75602
5.37107
7.22081
8.91988
10.3799
11.3145
11.8714
12.0688
11.8012
11.3069
10.8465
10.4814
10.0312
9.08357
7.80252
6.69444
6.04311
5.63088
5.3656
5.80819
10.9425
0.310888
0.117665
0.0858816
0.110679
0.202133
0.400969
0.785592
1.42534
2.31583
3.4312
4.7622
6.08385
7.34163
8.63205
9.70157
10.2944
10.5613
10.4616
10.1291
9.85608
9.6679
9.29903
8.34233
7.09446
6.04375
5.44584
5.07497
4.8714
5.33603
10.2068
0.29648
0.111494
0.0957185
0.134151
0.228037
0.421598
0.782726
1.36718
2.16436
3.12568
4.15234
5.11346
6.1173
7.25216
8.38492
9.0955
9.36644
9.31643
9.08717
8.96523
8.89962
8.53597
7.56134
6.36925
5.39527
4.85552
4.54103
4.41697
4.89428
9.51419
0.305891
0.121161
0.117763
0.160156
0.255412
0.44372
0.776725
1.29289
1.97063
2.74339
3.51915
4.29089
5.15036
6.17456
7.33751
8.18304
8.43027
8.32603
8.1817
8.17929
8.1712
7.75145
6.76293
5.64466
4.761
4.27933
4.02343
3.97709
4.47276
8.87188
0.345409
0.147321
0.144389
0.18774
0.281865
0.456405
0.747484
1.1721
1.71562
2.3234
2.94719
3.60515
4.37957
5.34231
6.52794
7.48894
7.70856
7.48903
7.40525
7.4904
7.4828
6.97874
5.98767
4.94843
4.16282
3.74032
3.53274
3.53923
4.11849
8.20997
0.417433
0.179743
0.171872
0.21395
0.300374
0.448814
0.685399
1.02297
1.44893
1.93
2.44807
3.03655
3.76457
4.70094
5.90781
6.97958
7.09203
6.7659
6.74825
6.89606
6.85741
6.26324
5.24604
4.29922
3.62866
3.27645
3.09787
3.12558
3.80346
7.35784
0.48186
0.207998
0.195142
0.232196
0.305057
0.426128
0.610965
0.871391
1.19892
1.58292
2.0299
2.579
3.28887
4.21325
5.41139
6.43279
6.44752
6.15068
6.17994
6.33837
6.16641
5.47257
4.54973
3.73817
3.18038
2.89622
2.75584
2.76364
3.40882
6.34457
0.534816
0.229858
0.210993
0.241068
0.301159
0.395348
0.534524
0.72959
0.981504
1.29765
1.70129
2.23544
2.94955
3.88104
5.07027
5.96611
5.87067
5.58717
5.66395
5.68312
5.42158
4.74377
3.90015
3.18382
2.73907
2.52237
2.44341
2.46957
2.96247
5.28913
0.58332
0.248271
0.222797
0.246141
0.294136
0.36426
0.464737
0.609214
0.808035
1.0797
1.45815
1.99255
2.73284
3.71544
4.92946
5.62124
5.2656
5.01632
5.10607
5.07659
4.64746
3.88664
3.15337
2.57798
2.23765
2.11905
2.07151
2.12724
2.4732
4.31538
0.633798
0.267829
0.235337
0.25216
0.288263
0.337154
0.408815
0.518552
0.680333
0.919393
1.27865
1.82021
2.61306
3.71309
4.87669
5.22945
4.68538
4.5453
4.57371
4.22153
3.65084
3.07068
2.52769
2.06457
1.79014
1.73088
1.77954
1.79763
2.04638
3.69441
0.705452
0.294228
0.250929
0.260081
0.283431
0.316777
0.370845
0.457072
0.590645
0.800527
1.13869
1.68637
2.5429
3.75129
4.68984
4.66211
4.20662
4.11435
3.84442
3.35863
2.90688
2.48108
2.04473
1.64071
1.39756
1.34764
1.47764
1.61995
1.65066
3.23313
0.85671
0.336787
0.270145
0.268769
0.282582
0.308581
0.351891
0.420671
0.529977
0.710564
1.02142
1.56415
2.46604
3.66779
4.24162
4.0584
3.8084
3.60209
3.13293
2.70247
2.35844
2.02337
1.65809
1.30354
1.08079
1.0186
1.11172
1.3278
1.40919
2.8358
1.09488
0.388801
0.292676
0.282709
0.290912
0.31393
0.351096
0.405207
0.491392
0.641697
0.918278
1.43679
2.3313
3.30876
3.5607
3.48713
3.3847
3.01211
2.55142
2.20708
1.93902
1.66834
1.35481
1.03848
0.830177
0.764918
0.80628
0.986168
1.27303
2.52948
1.32569
0.433945
0.325388
0.315157
0.319502
0.337208
0.36502
0.406404
0.470346
0.589881
0.82568
1.28665
2.03856
2.68339
2.88266
2.93737
2.80912
2.43632
2.08034
1.81587
1.61085
1.39946
1.12213
0.829044
0.632062
0.567345
0.593604
0.783161
1.26013
2.22743
1.40971
0.473909
0.355971
0.358296
0.365802
0.382686
0.400913
0.423106
0.465113
0.551974
0.741915
1.12017
1.67475
2.07878
2.25585
2.3328
2.18648
1.9281
1.69018
1.50635
1.3643
1.19015
0.951352
0.676458
0.476598
0.415445
0.442767
0.65479
1.22027
1.95612
1.34708
0.480902
0.360097
0.377909
0.409231
0.437891
0.455965
0.46211
0.4723
0.5259
0.669522
0.959733
1.33031
1.57331
1.72949
1.7472
1.64083
1.49793
1.36177
1.25211
1.15229
1.01008
0.808763
0.547193
0.355713
0.299078
0.332853
0.544068
1.11814
1.83455
1.12145
0.465229
0.345037
0.374651
0.432881
0.486962
0.524333
0.523739
0.495659
0.512148
0.614141
0.83066
1.06256
1.20188
1.29783
1.27722
1.21942
1.15381
1.08979
1.04042
0.973567
0.862216
0.701358
0.472597
0.275157
0.216398
0.248692
0.433573
0.926986
1.66985
0.847888
0.406753
0.324506