/*--------------------------------*- C++ -*----------------------------------*\
| =========                 |                                                 |
| \\      /  F ield         | OpenFOAM: The Open Source CFD Toolbox           |
|  \\    /   O peration     | Version:  v1606+                                |
|   \\  /    A nd           | Web:      www.OpenFOAM.com                      |
|    \\/     M anipulation  |                                                 |
\*---------------------------------------------------------------------------*/
FoamFile
{
    version     2.0;
    format      ascii;
    class       volScalarField;
    location    "1";
    object      nut.particles;
}
// * * * * * * * * * * * * * * * * * * * * * * * * * * * * * * * * * * * * * //

dimensions      [0 2 -1 0 0 0 0];

internalField   nonuniform List<scalar> 
6000
(
1.09696e-05
7.9888e-06
7.88989e-06
8.87733e-06
9.58194e-06
1.09111e-05
1.30435e-05
1.42952e-05
1.22236e-05
1.20113e-05
1.1523e-05
1.13699e-05
1.13153e-05
1.10094e-05
1.07396e-05
1.07444e-05
1.09043e-05
1.15599e-05
1.22234e-05
1.18805e-05
1.2375e-05
1.27969e-05
1.24315e-05
1.16145e-05
1.04645e-05
9.33248e-06
8.95992e-06
8.13006e-06
8.34305e-06
1.2235e-05
5.46982e-06
4.66732e-06
4.09213e-06
3.65324e-06
3.55162e-06
3.72672e-06
3.86662e-06
3.76928e-06
3.5694e-06
3.49814e-06
3.48234e-06
3.4774e-06
3.48443e-06
3.47644e-06
3.44828e-06
3.42509e-06
3.41909e-06
3.41757e-06
3.43484e-06
3.44935e-06
3.46801e-06
3.49809e-06
3.57733e-06
3.62272e-06
3.5256e-06
3.36566e-06
3.41864e-06
3.83663e-06
4.39584e-06
5.57945e-06
1.3255e-05
1.24129e-05
9.14742e-06
6.49874e-06
4.61568e-06
4.35635e-06
4.16407e-06
3.77014e-06
3.72691e-06
3.7428e-06
3.88546e-06
3.83689e-06
3.74667e-06
3.63089e-06
3.48099e-06
3.39608e-06
3.36069e-06
3.43882e-06
3.51176e-06
3.51101e-06
3.5696e-06
3.63312e-06
3.69635e-06
4.00156e-06
4.33331e-06
4.95333e-06
6.35325e-06
8.43264e-06
1.27624e-05
1.57122e-05
0.000248593
0.000244564
0.000241058
1.43785e-05
8.48134e-06
6.07002e-06
4.46494e-06
3.60931e-06
3.50471e-06
3.40089e-06
3.33731e-06
3.31288e-06
3.32691e-06
3.39631e-06
3.46235e-06
3.47162e-06
3.36013e-06
3.14403e-06
2.99984e-06
3.11375e-06
3.20666e-06
3.29317e-06
3.41937e-06
4.02891e-06
6.10031e-06
9.4279e-06
1.30973e-05
0.000154086
0.00104997
0.00105284
0.000257544
0.000254588
0.000249823
0.000243816
0.000143157
1.14575e-05
6.65843e-06
4.52539e-06
4.19822e-06
4.31621e-06
4.40754e-06
4.54335e-06
4.77519e-06
5.2976e-06
5.82591e-06
5.97206e-06
5.66995e-06
5.0281e-06
4.15875e-06
3.60675e-06
3.52221e-06
3.64006e-06
4.02355e-06
6.01436e-06
1.282e-05
0.000531636
0.00105062
0.00105276
0.00105688
0.0010594
9.26038e-06
1.6699e-05
0.000239302
0.000256809
0.000249108
0.000243602
1.5574e-05
9.86795e-06
8.74382e-06
9.40367e-06
9.72281e-06
1.02294e-05
1.10216e-05
1.21922e-05
1.33421e-05
1.37077e-05
1.30846e-05
1.16946e-05
9.75422e-06
7.51711e-06
6.48909e-06
6.48064e-06
7.8894e-06
1.37078e-05
0.000969328
0.00105197
0.00105404
0.00106079
3.65747e-05
1.84526e-05
2.23436e-06
2.75694e-06
4.87217e-06
1.70852e-05
7.07704e-05
0.000256059
0.000252538
0.000132285
0.000145169
0.000436335
0.000424886
0.000363608
0.000454206
0.000652136
0.000807546
0.000855698
0.000847708
0.000871856
0.000594243
8.15068e-05
1.73213e-05
1.74108e-05
8.62725e-05
0.0010232
0.00105408
0.00105619
0.000755681
1.36334e-05
4.77448e-06
3.33828e-06
1.81474e-06
1.72438e-06
1.93624e-06
2.5101e-06
4.27987e-06
8.57305e-06
1.29286e-05
1.61806e-05
1.74953e-05
2.31507e-05
3.00758e-05
3.33963e-05
0.000114235
0.000505798
0.00106013
0.00106
0.00105923
0.00105901
0.0010595
0.00106083
0.0010606
0.00106059
0.00105975
0.00106029
0.00106104
3.39065e-05
7.61422e-06
2.67949e-06
2.04155e-06
2.27746e-06
1.61467e-06
1.76743e-06
1.835e-06
1.59171e-06
1.40928e-06
1.43319e-06
1.73157e-06
2.02808e-06
2.1239e-06
2.62634e-06
3.88242e-06
5.19913e-06
6.55697e-06
8.79882e-06
1.4416e-05
2.25671e-05
0.000557557
0.00105969
0.00106102
0.00106363
3.05425e-05
3.93123e-05
3.10254e-05
1.98016e-05
1.29017e-05
5.99938e-06
3.2561e-06
2.43858e-06
2.00885e-06
2.11439e-06
1.60057e-06
2.11896e-06
2.41953e-06
1.84353e-06
1.20927e-06
8.97655e-07
8.61539e-07
8.51725e-07
8.79076e-07
9.07506e-07
9.38193e-07
1.017e-06
1.13544e-06
1.31752e-06
2.06e-06
3.4861e-06
5.55826e-06
8.44125e-06
8.93485e-06
6.26545e-06
4.21733e-06
4.21628e-06
3.88722e-06
3.17976e-06
3.14386e-06
3.9661e-06
4.01939e-06
3.3706e-06
2.49183e-06
2.10389e-06
2.01659e-06
2.66836e-06
3.34626e-06
2.55198e-06
1.21876e-06
8.7815e-07
8.67648e-07
8.57774e-07
8.36917e-07
8.1598e-07
7.95269e-07
8.06884e-07
8.41585e-07
8.96113e-07
1.12679e-06
1.5955e-06
2.22037e-06
2.28407e-06
1.78443e-06
1.20301e-06
9.81487e-07
9.21959e-07
9.74231e-07
1.12523e-06
1.63225e-06
3.81486e-06
5.83479e-06
4.82942e-06
3.38138e-06
2.56577e-06
2.68705e-06
3.48415e-06
4.20421e-06
3.21236e-06
1.3735e-06
9.06054e-07
8.78033e-07
8.69051e-07
8.45446e-07
8.27687e-07
8.1632e-07
8.65766e-07
8.98382e-07
1.07641e-06
1.42673e-06
2.16005e-06
2.62176e-06
1.91112e-06
1.13124e-06
8.88084e-07
7.79874e-07
7.48952e-07
7.89221e-07
8.39485e-07
1.17758e-06
3.43572e-06
6.59485e-06
5.70459e-06
4.44254e-06
3.32726e-06
3.86542e-06
4.57324e-06
4.73607e-06
3.29523e-06
1.39383e-06
8.98866e-07
8.46262e-07
8.56303e-07
8.53417e-07
8.42482e-07
8.62753e-07
9.77207e-07
1.27736e-06
1.54273e-06
2.10385e-06
3.01579e-06
2.75157e-06
1.69831e-06
1.04707e-06
8.3278e-07
7.56395e-07
7.2803e-07
7.71889e-07
8.03028e-07
9.92616e-07
3.25826e-06
5.71466e-06
5.80092e-06
5.56242e-06
4.1664e-06
5.47786e-06
5.86654e-06
4.32191e-06
2.72328e-06
1.46263e-06
9.26758e-07
8.38064e-07
8.62792e-07
8.96045e-07
9.14249e-07
9.7981e-07
1.28487e-06
2.02902e-06
2.35918e-06
3.00809e-06
3.48626e-06
2.61275e-06
1.59205e-06
1.05354e-06
8.16817e-07
7.58738e-07
6.95537e-07
7.24989e-07
7.61911e-07
9.14602e-07
2.92564e-06
5.06644e-06
5.94493e-06
6.3036e-06
5.34653e-06
8.23221e-06
0.000356111
1.31758e-05
3.81988e-06
1.79735e-06
1.01567e-06
8.57504e-07
8.99319e-07
9.83716e-07
1.03126e-06
1.12498e-06
1.825e-06
3.30731e-06
3.60668e-06
4.0899e-06
3.92605e-06
2.8698e-06
2.00765e-06
1.51376e-06
1.18649e-06
8.78179e-07
7.191e-07
6.79197e-07
7.12811e-07
8.70755e-07
2.11858e-06
3.53333e-06
6.35069e-06
7.79622e-06
7.47052e-06
0.00150435
0.00494821
0.00461584
9.74044e-06
4.12412e-06
2.26502e-06
1.20847e-06
1.06438e-06
1.14208e-06
1.20335e-06
1.38745e-06
2.77377e-06
5.2491e-06
5.36001e-06
5.31706e-06
5.30885e-06
4.4938e-06
3.52555e-06
2.8516e-06
2.19645e-06
1.42316e-06
9.28166e-07
7.48256e-07
7.08036e-07
9.23145e-07
2.26573e-06
5.37123e-06
9.76803e-06
1.14774e-05
1.13019e-05
0.005091
0.0050932
0.00280208
1.27199e-05
8.04319e-06
6.69542e-06
3.83655e-06
1.5638e-06
1.33992e-06
1.41355e-06
1.8992e-06
4.33087e-06
7.72374e-06
7.9448e-06
8.24125e-06
7.91074e-06
7.74585e-06
7.19722e-06
6.01477e-06
4.48846e-06
2.91838e-06
1.78482e-06
1.16146e-06
1.0493e-06
1.78552e-06
4.88331e-06
1.11802e-05
0.000187261
0.000357143
0.000351748
0.00342728
0.00399037
0.000644325
2.81213e-05
1.31288e-05
1.17404e-05
8.76391e-06
2.59099e-06
1.63624e-06
1.80479e-06
2.74494e-06
6.88323e-06
2.1929e-05
1.22595e-05
1.33961e-05
1.63257e-05
2.238e-05
2.0711e-05
1.30531e-05
1.08615e-05
7.72311e-06
4.82477e-06
3.20083e-06
2.97535e-06
5.45477e-06
1.23892e-05
0.00039692
0.00123176
0.00177106
0.00158983
0.00132608
0.00182781
0.000416723
0.000202222
0.000179787
2.20645e-05
1.00556e-05
4.0645e-06
2.12895e-06
2.38867e-06
3.99503e-06
1.02987e-05
0.000502704
0.000392514
0.000602644
0.000731717
0.000870461
0.000851902
0.00066893
0.000381794
7.01701e-05
1.41041e-05
1.11606e-05
1.15646e-05
1.67769e-05
0.000876569
0.00273294
0.00367511
0.0041374
0.00326181
0.00132829
0.00137287
0.000876632
0.00102151
0.000643674
0.000225626
1.63744e-05
8.25167e-06
3.30564e-06
3.33424e-06
5.49208e-06
1.23867e-05
0.00105889
0.00139103
0.00210917
0.0025666
0.00279744
0.00285005
0.00295569
0.00309417
0.00296966
0.00218119
0.00139341
0.00192963
0.0048097
0.00801611
0.00891794
0.00907369
0.00827637
0.00573382
0.00132954
0.00206478
0.00268569
0.00230587
0.00101584
0.00105803
0.00212867
0.000454688
9.43888e-06
5.75314e-06
7.40803e-06
1.44677e-05
0.00130309
0.00283446
0.00397127
0.00485892
0.00539311
0.00593182
0.00691624
0.00833235
0.00994412
0.0118083
0.0140791
0.0169912
0.0193667
0.0204185
0.0206388
0.0197129
0.016498
0.0104835
0.00133639
0.00461875
0.00570321
0.00342723
0.00173348
0.00651444
0.017474
0.017349
0.000549888
1.44979e-05
1.27273e-05
1.73552e-05
0.00179701
0.00580788
0.0069077
0.00803264
0.00912699
0.0105841
0.0128017
0.0155839
0.0184867
0.0215395
0.0246299
0.0272195
0.0289592
0.0312512
0.0341556
0.0356076
0.0321402
0.0213757
0.00255638
0.0108478
0.00914159
0.00527373
0.00577801
0.0261087
0.0351863
0.0178197
0.0256174
0.00240192
3.36345e-05
2.12883e-05
0.00191209
0.0110829
0.0120903
0.0127948
0.0144415
0.017043
0.0204408
0.0240889
0.0273177
0.0298201
0.0312853
0.0315808
0.0316536
0.0339996
0.0388087
0.0474748
0.051168
0.0418396
0.00975638
0.021281
0.0150203
0.0102398
0.0228246
0.0448983
0.0350501
0.00145499
0.02599
0.0385796
0.0067699
0.000208586
0.00111197
0.0139017
0.0195965
0.0197402
0.0216326
0.0251289
0.0290903
0.0325789
0.0348016
0.0352427
0.0335835
0.0304157
0.0272115
0.0267438
0.0258777
0.0404214
0.0537485
0.0541255
0.0266776
0.0267136
0.0269569
0.0245093
0.0471397
0.0450083
0.0120589
1.67396e-05
0.00842612
0.0392564
0.0418222
0.00261387
0.00112891
0.0120591
0.027179
0.0290112
0.0308546
0.0343511
0.0378007
0.0399913
0.0401076
0.0377202
0.0326122
0.0253839
0.0173291
0.0125826
0.00549219
0.0170588
0.0248573
0.0538914
0.0266252
0.0164444
0.036941
0.0421367
0.0582779
0.0374018
0.00110804
1.32496e-05
0.000249731
0.0236333
0.0472245
0.0164228
0.00212169
0.00962479
0.0323895
0.0397754
0.0415798
0.0440325
0.0461182
0.0467489
0.0452076
0.0406578
0.0328063
0.0221728
0.0115781
0.00539738
0.00208346
0.00343511
0.00102474
0.0306414
0.0261761
3.24978e-05
0.0208398
0.0404726
0.0642412
0.0323678
2.74933e-05
1.19285e-05
1.27619e-05
0.0065472
0.0473178
0.0439889
0.00676575
0.011885
0.0367727
0.0506116
0.05281
0.0538742
0.055012
0.0554954
0.0542918
0.0499531
0.0415481
0.0308433
0.0184533
0.00833904
0.00208958
0.00131299
0.000289256
0.00386655
0.00204876
1.54605e-05
0.00123437
0.024871
0.0679216
0.0432111
3.36985e-05
1.68903e-05
1.13491e-05
0.000118386
0.0476005
0.0702127
0.0212588
0.0205789
0.0434442
0.0609131
0.0638273
0.0644922
0.0664564
0.0692658
0.0708801
0.0703561
0.0654278
0.0584561
0.0478257
0.0303922
0.0116519
0.00395588
0.000296425
0.000657696
0.000605617
1.59287e-05
1.52189e-05
0.00592414
0.0679841
0.0773208
0.00269581
0.000410167
1.13211e-05
1.21156e-05
0.0168703
0.0778291
0.0539016
0.0401408
0.0569388
0.0723642
0.0748819
0.0751403
0.0758817
0.0769355
0.0771619
0.0771936
0.0773088
0.0773721
0.0773792
0.0765123
0.0612856
0.0307904
0.00601601
0.000855324
0.00188718
0.000451214
1.79988e-05
0.000298768
0.0415115
0.0798463
0.0376646
0.000106377
1.30711e-05
1.17162e-05
0.00753337
0.0811261
0.0818902
0.0758263
0.0761498
0.0773616
0.0774535
0.077591
0.0775598
0.0775118
0.0747575
0.0483299
0.0637322
0.076752
0.077461
0.0774654
0.0775413
0.0773367
0.0459753
0.00488166
0.00437712
0.00436278
2.39693e-05
2.71697e-05
0.0193113
0.079935
0.0750161
0.000392559
2.04135e-05
1.12391e-05
0.000815023
0.0768767
0.0915162
0.0862003
0.0822971
0.0808032
0.0799635
0.079256
0.0773526
0.0563858
0.0116594
0.00160339
0.00711576
0.02762
0.0716481
0.07754
0.0774985
0.0775707
0.0766423
0.0234563
0.00437822
0.00435853
2.27257e-05
3.50678e-05
0.00965503
0.080049
0.0829587
0.00915098
2.03568e-05
1.31968e-05
1.94621e-05
0.0452671
0.0982848
0.0949333
0.0881571
0.0841411
0.0819252
0.0786319
0.0548239
0.00857918
1.90637e-05
1.59154e-05
1.96008e-05
0.000579732
0.0151681
0.0685205
0.0775854
0.0774984
0.0768368
0.0449623
0.00193783
0.000245009
9.11517e-05
2.44478e-05
0.00618447
0.0710344
0.0832655
0.0361158
2.50496e-05
1.57757e-05
1.45336e-05
0.0306354
0.102822
0.100823
0.0926846
0.0869118
0.082686
0.0702539
0.0143705
3.27364e-05
1.47447e-05
1.46859e-05
1.47204e-05
1.48364e-05
8.58327e-05
0.0208826
0.0751556
0.0776295
0.0755999
0.0507477
0.000270708
0.000261036
0.00301567
2.18299e-05
0.00933033
0.0619079
0.0834124
0.0788554
0.00107752
1.45933e-05
1.41365e-05
0.0318075
0.104144
0.103498
0.0957163
0.0890259
0.0812285
0.0341699
0.000806298
1.35869e-05
1.36055e-05
1.39612e-05
1.44694e-05
1.35456e-05
1.2579e-05
0.00205473
0.0386924
0.0760196
0.0749183
0.0527614
0.000275191
0.00114072
0.00301342
2.19437e-05
0.0056523
0.0509499
0.0834103
0.0835385
0.012109
1.59599e-05
1.58996e-05
0.0427534
0.104297
0.104261
0.0977823
0.0903259
0.0762268
0.00895389
1.89083e-05
1.29268e-05
1.29392e-05
1.80481e-05
4.77468e-05
1.50275e-05
1.30317e-05
2.16497e-05
0.0119317
0.0566275
0.0718785
0.055513
0.000641501
0.00519462
0.00308094
2.19493e-05
2.56067e-05
0.0143609
0.0835666
0.083453
0.045962
0.000179685
9.49297e-05
0.0690003
0.104419
0.104859
0.0997507
0.0902009
0.0479908
0.00156857
2.31762e-05
1.57975e-05
6.52644e-05
0.00146802
0.00218534
2.50566e-05
1.44486e-05
1.29483e-05
0.00194901
0.0317462
0.062291
0.0570074
0.00520963
0.00518463
2.40783e-05
2.00706e-05
1.45776e-05
0.00156284
0.0758905
0.0838335
0.0800045
0.00681872
0.00225284
0.0767669
0.1035
0.107235
0.101372
0.0861276
0.0210591
0.00157996
0.000901724
0.00234915
0.00526765
0.00478255
0.00475918
0.00310833
1.87887e-05
1.24427e-05
7.37836e-05
0.0125273
0.0452072
0.0523453
0.00519622
6.29294e-05
1.04613e-05
1.55046e-05
1.30754e-05
0.000239935
0.0312158
0.0834019
0.083389
0.0393544
0.0161401
0.0804484
0.106292
0.113236
0.10176
0.0760488
0.0114611
0.00600612
0.00866327
0.00861391
0.00628803
0.00135688
0.00273747
0.00312013
5.34624e-05
1.39148e-05
1.60605e-05
0.00285143
0.0276235
0.0393732
0.00127339
8.48424e-06
8.36336e-06
1.0975e-05
1.18872e-05
4.32205e-05
0.00917767
0.0770819
0.0833359
0.0800553
0.0756861
0.0946278
0.118242
0.125142
0.0988923
0.0307891
0.0166377
0.0105752
0.00850765
0.00792458
0.00234743
1.89112e-05
2.98324e-05
0.000117731
1.94456e-05
1.02299e-05
1.47418e-05
0.000496468
0.0154911
0.020288
1.98249e-05
4.43968e-06
7.76504e-06
9.43792e-06
1.37852e-05
1.44281e-05
0.00329603
0.0351548
0.0788151
0.0888503
0.0975682
0.115167
0.13638
0.139607
0.0810832
0.00367764
0.00546216
6.48542e-05
1.98279e-05
1.45148e-05
2.17881e-05
1.60196e-05
1.08886e-05
6.53512e-06
2.72349e-06
2.71713e-06
7.98522e-06
0.000783075
0.00991009
0.00498786
1.37274e-05
4.48246e-06
7.7628e-06
9.78341e-06
1.2627e-05
1.15239e-05
0.00318748
0.0127729
0.04278
0.0855482
0.110712
0.131603
0.141783
0.141665
0.00146467
2.1945e-05
1.13901e-05
2.99698e-06
1.41267e-06
1.31781e-06
2.10029e-06
2.95085e-06
2.36763e-06
1.55436e-06
1.0722e-06
9.92786e-07
2.45317e-06
1.67938e-05
0.0044221
0.000163022
5.97855e-06
4.40942e-06
9.33313e-06
1.22003e-05
1.59484e-05
1.94021e-05
1.59516e-05
5.77095e-05
0.00996126
0.016886
0.10413
0.137069
0.142524
0.141049
1.95872e-05
3.63617e-06
1.16647e-06
8.82591e-07
8.60684e-07
9.47479e-07
1.23558e-06
1.39805e-06
1.32654e-06
1.33186e-06
1.24644e-06
1.06837e-06
1.29059e-06
1.17361e-05
0.00247013
2.64771e-05
2.91153e-06
4.00719e-06
8.86894e-06
1.09314e-05
1.27326e-05
9.66703e-06
2.1115e-06
7.01844e-06
2.31848e-05
1.0386e-05
0.0651161
0.128794
0.141879
0.142396
0.000889846
1.858e-06
1.05347e-06
1.07467e-06
9.84811e-07
9.54833e-07
1.20302e-06
1.37704e-06
1.22972e-06
1.32286e-06
1.32412e-06
1.25304e-06
1.03046e-06
3.68075e-06
0.00126234
2.70884e-05
3.37541e-06
3.19402e-06
3.53799e-06
3.6595e-06
3.65966e-06
3.18847e-06
1.6985e-06
1.33797e-06
9.20546e-06
8.70137e-06
0.0310143
0.115922
0.142749
0.141701
0.0840929
5.69366e-06
1.80783e-06
1.28208e-06
1.08483e-06
9.3477e-07
1.18542e-06
1.46275e-06
1.25188e-06
1.28071e-06
1.34521e-06
1.25859e-06
1.23753e-06
1.74433e-06
6.40863e-05
2.96308e-05
4.92895e-06
4.44692e-06
3.94903e-06
3.42656e-06
2.88832e-06
1.98687e-06
1.3536e-06
1.1364e-06
3.83691e-06
2.05564e-05
0.0272633
0.0974593
0.141416
0.142421
0.11615
0.00435358
3.12961e-06
1.851e-06
1.33698e-06
9.74753e-07
1.10492e-06
1.45746e-06
1.29004e-06
1.24266e-06
1.33883e-06
1.30755e-06
1.40136e-06
1.06458e-06
3.36019e-06
3.6155e-05
5.13732e-06
4.5101e-06
3.76487e-06
2.99143e-06
2.27648e-06
1.71316e-06
1.35446e-06
1.00159e-06
2.09221e-06
4.83375e-05
0.0119897
0.055876
0.126593
0.140722
0.123601
0.0740102
1.50608e-05
2.68315e-06
1.93214e-06
1.19643e-06
1.01843e-06
1.40284e-06
1.25944e-06
1.1739e-06
1.27458e-06
1.29778e-06
1.29518e-06
1.37866e-06
9.23392e-07
9.55546e-06
5.00601e-06
4.38009e-06
3.6417e-06
2.88696e-06
2.20588e-06
1.69816e-06
1.35742e-06
9.57519e-07
1.13612e-06
1.01774e-05
0.000620466
0.0014551
0.115289
0.140593
0.129248
0.0951699
0.00839161
3.99924e-06
2.67744e-06
1.71385e-06
1.08037e-06
1.4312e-06
1.20432e-06
1.04252e-06
1.13503e-06
1.2342e-06
1.21819e-06
1.18684e-06
1.14884e-06
4.82025e-06
4.85118e-06
4.26449e-06
3.56046e-06
2.83587e-06
2.18287e-06
1.69641e-06
1.35727e-06
9.5624e-07
5.4944e-07
1.21996e-06
2.02517e-05
4.39317e-05
0.0930023
0.140179
0.130225
0.102957
0.0480578
0.00028161
3.34494e-06
2.5132e-06
1.28582e-06
1.51082e-06
1.24438e-06
9.81104e-07
1.00543e-06
1.11522e-06
1.15299e-06
1.16745e-06
1.28076e-06
3.54406e-06
4.70101e-06
4.15206e-06
3.47849e-06
2.78283e-06
2.1599e-06
1.69838e-06
1.37566e-06
9.38198e-07
5.26031e-07
4.1544e-07
6.34843e-06
0.00233129
0.00245657
0.113265
0.127436
0.104833
0.0782049
0.00943913
4.52082e-06
3.29819e-06
1.65539e-06
1.53704e-06
1.52985e-06
1.14768e-06
9.64273e-07
1.02093e-06
1.09224e-06
1.15486e-06
1.25658e-06
2.7141e-06
4.55765e-06
4.04197e-06
3.3979e-06
2.73207e-06
2.13919e-06
1.70156e-06
1.39797e-06
9.34249e-07
4.96462e-07
3.7297e-07
1.52953e-06
1.51042e-05
8.6086e-06
0.0827354
0.121698
0.0985497
0.0791245
0.0404289
0.000898791
4.05261e-06
2.24256e-06
1.39549e-06
1.92708e-06
1.61695e-06
1.04529e-06
1.00803e-06
1.04744e-06
1.15057e-06
1.16611e-06
1.65307e-06
4.42142e-06
3.93515e-06
3.32028e-06
2.68448e-06
2.12078e-06
1.70519e-06
1.42523e-06
9.31017e-07
4.66286e-07
3.62737e-07
6.56969e-07
2.06286e-06
8.34506e-06
0.077086
0.112724
0.0816758
0.0491305
0.0511582
0.0110659
5.43537e-06
2.95644e-06
1.17768e-06
1.83979e-06
1.77615e-06
1.27766e-06
1.10944e-06
1.04125e-06
1.12357e-06
1.086e-06
1.17559e-06
4.29253e-06
3.83223e-06
3.24529e-06
2.63742e-06
2.10076e-06
1.70722e-06
1.45523e-06
9.33328e-07
4.52271e-07
3.36466e-07
7.61206e-07
1.01596e-06
1.09972e-05
0.0980459
0.110876
0.0276467
0.0146386
0.0510248
0.0253865
0.000174393
3.68828e-06
1.12399e-06
1.35992e-06
1.59792e-06
1.64105e-06
1.35837e-06
1.10247e-06
1.07925e-06
9.9766e-07
1.1047e-06
4.17142e-06
3.73382e-06
3.17261e-06
2.59028e-06
2.08197e-06
1.71148e-06
1.48849e-06
9.37986e-07
4.27142e-07
3.52674e-07
9.39536e-07
1.70826e-06
0.00319647
0.110388
0.110512
0.0032606
0.00187176
0.0473587
0.03271
0.000759297
4.23725e-06
1.09483e-06
1.26441e-06
1.39783e-06
1.82534e-06
1.63169e-06
1.38257e-06
1.09412e-06
9.25423e-07
1.2366e-06
4.05857e-06
3.64023e-06
3.1018e-06
2.5425e-06
2.06424e-06
1.71582e-06
1.52565e-06
9.46206e-07
4.20588e-07
3.99833e-07
1.10657e-06
5.45998e-06
0.0424308
0.110132
0.0927395
0.000539376
0.000538978
0.0345633
0.0337183
0.0009876
4.73369e-06
1.06778e-06
1.31232e-06
1.36093e-06
1.63688e-06
1.68232e-06
1.76164e-06
1.23496e-06
9.69497e-07
1.51622e-06
3.95393e-06
3.55116e-06
3.03155e-06
2.49322e-06
2.04642e-06
1.72394e-06
1.56158e-06
9.62599e-07
4.07025e-07
5.1653e-07
1.40641e-06
0.000100736
0.0799722
0.109887
0.030892
0.00053762
0.00053602
0.0269403
0.0255003
0.000343594
4.11577e-06
1.04378e-06
1.35868e-06
1.38458e-06
1.39135e-06
1.43981e-06
1.7414e-06
1.56461e-06
1.10712e-06
1.77788e-06
3.85733e-06
3.46632e-06
2.96168e-06
2.44383e-06
2.02652e-06
1.72657e-06
1.60061e-06
9.82174e-07
4.13608e-07
7.10689e-07
2.3047e-06
0.00191132
0.0902426
0.10964
0.0152573
0.000533485
0.000535948
0.0250828
0.0173855
1.22762e-05
3.03216e-06
1.1154e-06
1.34252e-06
1.41061e-06
1.42992e-06
1.39713e-06
1.47206e-06
1.48425e-06
1.18915e-06
1.74959e-06
3.76853e-06
3.38501e-06
2.89159e-06
2.3936e-06
2.00017e-06
1.71586e-06
1.6337e-06
1.00307e-06
4.27353e-07
8.91131e-07
5.00458e-06
0.00667448
0.0917637
0.109239
0.00886692
0.00053517
0.000532703
0.0245339
0.0123567
1.24605e-05
1.80294e-06
1.20804e-06
1.28653e-06
1.39829e-06
1.47392e-06
1.49028e-06
1.43168e-06
1.36152e-06
1.18334e-06
1.72654e-06
3.68726e-06
3.30688e-06
2.82172e-06
2.34267e-06
1.96602e-06
1.69566e-06
1.64925e-06
1.02177e-06
4.40212e-07
9.70672e-07
9.76774e-06
0.0146661
0.0833481
0.0928562
0.0142391
0.000528478
0.000535877
0.0243711
0.00849667
9.31316e-06
1.12358e-06
1.26454e-06
1.25805e-06
1.36336e-06
1.47477e-06
1.53812e-06
1.50774e-06
1.42232e-06
1.44496e-06
2.14959e-06
3.61312e-06
3.23177e-06
2.75226e-06
2.28979e-06
1.92522e-06
1.67102e-06
1.65292e-06
1.03479e-06
4.47142e-07
9.79035e-07
1.40964e-05
0.020306
0.0664326
0.0723611
0.0507799
0.000536731
0.000531904
0.0240972
0.00132681
3.26755e-06
1.11079e-06
1.2819e-06
1.23131e-06
1.3413e-06
1.46086e-06
1.54964e-06
1.58e-06
1.6063e-06
1.8767e-06
2.45447e-06
3.54609e-06
3.16e-06
2.68394e-06
2.23478e-06
1.87955e-06
1.63978e-06
1.64554e-06
1.05477e-06
4.49472e-07
8.41243e-07
1.32625e-05
0.017718
0.0354215
0.0313301
0.0343141
0.00912908
0.00483707
0.0112112
1.76779e-05
1.28241e-06
1.40171e-06
1.25064e-06
1.22314e-06
1.32073e-06
1.45361e-06
1.56483e-06
1.62957e-06
1.73155e-06
2.06003e-06
2.45368e-06
3.48678e-06
3.09232e-06
2.61715e-06
2.17673e-06
1.82981e-06
1.60593e-06
1.62949e-06
1.06931e-06
4.29271e-07
6.02261e-07
3.37363e-06
0.00182365
0.0190427
0.0166721
0.0185002
0.00510117
0.00110239
0.000890819
4.7994e-06
8.76869e-07
1.64696e-06
1.23524e-06
1.22082e-06
1.31559e-06
1.45398e-06
1.57988e-06
1.65812e-06
1.77432e-06
2.05456e-06
2.31451e-06
3.43633e-06
3.02986e-06
2.55176e-06
2.11555e-06
1.77691e-06
1.56945e-06
1.59802e-06
1.07745e-06
4.22473e-07
4.24202e-07
1.15374e-06
7.80036e-06
0.00318104
0.00267215
0.00260938
0.000452702
9.59866e-05
9.25961e-06
1.91477e-06
1.17155e-06
1.71704e-06
1.24289e-06
1.21949e-06
1.31475e-06
1.47404e-06
1.60412e-06
1.6795e-06
1.78783e-06
2.01158e-06
2.20018e-06
3.3968e-06
2.97366e-06
2.48739e-06
2.05166e-06
1.72082e-06
1.5317e-06
1.56576e-06
1.07373e-06
4.24834e-07
3.5691e-07
6.46279e-07
1.94003e-06
8.0487e-06
0.00015598
0.000172952
3.29637e-05
1.36979e-05
4.34619e-06
1.30412e-06
1.77793e-06
1.68347e-06
1.25605e-06
1.22768e-06
1.32084e-06
1.49911e-06
1.62838e-06
1.69758e-06
1.79675e-06
1.9895e-06
2.16574e-06
3.36998e-06
2.92389e-06
2.42337e-06
1.98598e-06
1.66167e-06
1.49308e-06
1.51625e-06
1.04169e-06
4.22417e-07
3.15563e-07
5.16762e-07
1.16917e-06
3.41338e-06
6.92716e-06
2.25583e-05
1.74204e-05
9.01372e-06
3.11899e-06
9.98514e-07
2.37253e-06
1.61423e-06
1.26095e-06
1.23044e-06
1.32187e-06
1.51981e-06
1.65365e-06
1.712e-06
1.80694e-06
1.99869e-06
2.20404e-06
3.35352e-06
2.87894e-06
2.36014e-06
1.91965e-06
1.59973e-06
1.4562e-06
1.45032e-06
9.50834e-07
4.0811e-07
3.01864e-07
4.62873e-07
1.03632e-06
2.78918e-06
6.38887e-06
1.66995e-05
1.7985e-05
7.84979e-06
2.76217e-06
1.06247e-06
2.50477e-06
1.62799e-06
1.2914e-06
1.24697e-06
1.31512e-06
1.51951e-06
1.67747e-06
1.73152e-06
1.82497e-06
2.03834e-06
2.28892e-06
3.33738e-06
2.83553e-06
2.29855e-06
1.8503e-06
1.53132e-06
1.41893e-06
1.36848e-06
7.86681e-07
3.72454e-07
2.99421e-07
4.49481e-07
9.38125e-07
2.46715e-06
6.59729e-06
1.55481e-05
2.88383e-05
6.8662e-06
2.29087e-06
1.49323e-06
2.52631e-06
1.63199e-06
1.3166e-06
1.26448e-06
1.31048e-06
1.48789e-06
1.6815e-06
1.75846e-06
1.85405e-06
2.1013e-06
2.37651e-06
3.31628e-06
2.7924e-06
2.23856e-06
1.774e-06
1.45365e-06
1.37245e-06
1.27517e-06
6.19982e-07
3.30179e-07
3.34706e-07
4.76171e-07
9.22614e-07
2.15736e-06
6.04658e-06
1.00363e-05
4.46691e-05
6.33215e-06
1.81977e-06
1.85795e-06
2.48264e-06
1.62395e-06
1.35155e-06
1.29327e-06
1.30931e-06
1.44773e-06
1.64686e-06
1.75309e-06
1.87572e-06
2.15622e-06
2.42905e-06
3.29421e-06
2.75197e-06
2.17705e-06
1.68322e-06
1.36128e-06
1.30261e-06
1.17512e-06
5.2839e-07
3.12728e-07
4.12994e-07
6.46661e-07
9.93426e-07
1.99449e-06
4.97373e-06
8.16392e-06
5.43045e-05
6.21032e-06
1.59189e-06
1.97736e-06
2.39911e-06
1.63043e-06
1.38675e-06
1.31787e-06
1.31385e-06
1.40881e-06
1.58039e-06
1.70303e-06
1.86571e-06
2.17048e-06
2.41616e-06
3.27355e-06
2.71645e-06
2.10697e-06
1.57063e-06
1.25193e-06
1.20524e-06
1.06964e-06
4.78185e-07
3.23048e-07
5.38498e-07
1.01107e-06
1.3316e-06
1.98358e-06
4.34338e-06
7.47462e-06
5.43692e-05
6.12558e-06
1.52304e-06
2.01358e-06
2.29944e-06
1.64374e-06
1.42726e-06
1.3401e-06
1.32076e-06
1.37091e-06
1.49834e-06
1.63312e-06
1.81982e-06
2.11788e-06
2.29067e-06
3.25819e-06
2.68338e-06
2.01825e-06
1.43431e-06
1.12679e-06
1.08628e-06
9.45056e-07
4.36229e-07
3.42714e-07
7.31973e-07
1.65508e-06
2.0159e-06
2.36061e-06
3.9864e-06
6.70252e-06
5.50634e-05
5.59999e-06
1.55474e-06
1.98071e-06
2.26145e-06
1.65602e-06
1.45951e-06
1.35844e-06
1.32424e-06
1.34544e-06
1.43695e-06
1.57514e-06
1.75308e-06
1.9645e-06
1.98888e-06
3.25019e-06
2.64687e-06
1.904e-06
1.27848e-06
9.95113e-07
9.53412e-07
8.01955e-07
3.92052e-07
3.63129e-07
9.32137e-07
2.58079e-06
3.16264e-06
3.28353e-06
4.01959e-06
6.13501e-06
5.43976e-05
4.75932e-06
1.70523e-06
1.81271e-06
2.27117e-06
1.6633e-06
1.47965e-06
1.37263e-06
1.32473e-06
1.3268e-06
1.40282e-06
1.54896e-06
1.70491e-06
1.79379e-06
1.68282e-06
3.24636e-06
2.60391e-06
1.76305e-06
1.1216e-06
8.73395e-07
8.25031e-07
6.52368e-07
3.50629e-07
3.85147e-07
1.13045e-06
3.60765e-06
4.73456e-06
4.72436e-06
4.70817e-06
6.09476e-06
2.23728e-05
4.30901e-06
1.83313e-06
1.75516e-06
2.31021e-06
1.66702e-06
1.48792e-06
1.37587e-06
1.29473e-06
1.27016e-06
1.31198e-06
1.43145e-06
1.55393e-06
1.59616e-06
1.56728e-06
3.24139e-06
2.55694e-06
1.61412e-06
9.85323e-07
7.79465e-07
7.25533e-07
5.28703e-07
3.21634e-07
4.02673e-07
1.32286e-06
4.39314e-06
5.96729e-06
5.97628e-06
5.4823e-06
6.38887e-06
1.0511e-05
4.29161e-06
1.86515e-06
1.83473e-06
2.26978e-06
1.64349e-06
1.48164e-06
1.3831e-06
1.27778e-06
1.20329e-06
1.18007e-06
1.20528e-06
1.25904e-06
1.33332e-06
1.60399e-06
3.22332e-06
2.5059e-06
1.47601e-06
8.84323e-07
7.13798e-07
6.54944e-07
4.56982e-07
3.0693e-07
4.38543e-07
1.50355e-06
4.83371e-06
2.03516e-05
7.39872e-06
6.03054e-06
6.61252e-06
1.05396e-05
4.27427e-06
1.47024e-06
2.25524e-06
2.05652e-06
1.57634e-06
1.46939e-06
1.38706e-06
1.28393e-06
1.18257e-06
1.10877e-06
1.08475e-06
1.09962e-06
1.19858e-06
1.71241e-06
3.1799e-06
2.44483e-06
1.36083e-06
8.13981e-07
6.66335e-07
6.00777e-07
4.11162e-07
3.08119e-07
5.01756e-07
1.7337e-06
5.13701e-06
3.8536e-05
1.16233e-05
6.3804e-06
8.13309e-06
3.08504e-05
5.10436e-06
9.51315e-07
2.33624e-06
1.75163e-06
1.48557e-06
1.4557e-06
1.39037e-06
1.2873e-06
1.19036e-06
1.09465e-06
1.05331e-06
1.05428e-06
1.15975e-06
1.77622e-06
3.09896e-06
2.36709e-06
1.27084e-06
7.63819e-07
6.31241e-07
5.60384e-07
3.83741e-07
3.26922e-07
6.23705e-07
2.14493e-06
5.66895e-06
4.30728e-05
2.11875e-05
1.37996e-05
2.48982e-05
5.94023e-05
8.25512e-06
8.77431e-07
1.98848e-06
1.54995e-06
1.4105e-06
1.43705e-06
1.40357e-06
1.29258e-06
1.20032e-06
1.10572e-06
1.05739e-06
1.05338e-06
1.16117e-06
1.86026e-06
2.96973e-06
2.26465e-06
1.20178e-06
7.30408e-07
6.0411e-07
5.30019e-07
3.72853e-07
3.67722e-07
7.94671e-07
2.74961e-06
9.27593e-06
4.30793e-05
4.23468e-05
4.67776e-05
4.6135e-05
6.59889e-05
1.01031e-05
9.33655e-07
1.66977e-06
1.39584e-06
1.33596e-06
1.40747e-06
1.4203e-06
1.30825e-06
1.20794e-06
1.12094e-06
1.06806e-06
1.0597e-06
1.16916e-06
2.0067e-06
2.79927e-06
2.1351e-06
1.1388e-06
7.07144e-07
5.80704e-07
5.03924e-07
3.72551e-07
4.18062e-07
9.59387e-07
3.34678e-06
1.34978e-05
3.90623e-05
5.22495e-05
5.68245e-05
5.65539e-05
6.60664e-05
6.70723e-06
9.65e-07
1.46653e-06
1.26306e-06
1.24558e-06
1.36349e-06
1.41733e-06
1.34129e-06
1.21926e-06
1.13302e-06
1.07633e-06
1.06215e-06
1.17121e-06
2.07384e-06
2.62551e-06
1.97059e-06
1.05811e-06
6.81436e-07
5.59454e-07
4.8784e-07
3.82596e-07
4.63534e-07
1.08472e-06
3.6677e-06
1.1559e-05
2.71246e-05
4.89023e-05
4.93e-05
5.47968e-05
4.68241e-05
3.26547e-06
9.73416e-07
1.24307e-06
1.12428e-06
1.13748e-06
1.27634e-06
1.38165e-06
1.36609e-06
1.23934e-06
1.14472e-06
1.08106e-06
1.05749e-06
1.16119e-06
2.08603e-06
2.46097e-06
1.75134e-06
9.50282e-07
6.48678e-07
5.42761e-07
4.82807e-07
3.99187e-07
4.95406e-07
1.13374e-06
3.78185e-06
1.60727e-05
2.68719e-05
4.72292e-05
4.70887e-05
7.08726e-05
9.25151e-06
1.33469e-06
9.5361e-07
1.05154e-06
1.00085e-06
1.03208e-06
1.15038e-06
1.30086e-06
1.35849e-06
1.25337e-06
1.15625e-06
1.08567e-06
1.04933e-06
1.14599e-06
2.03684e-06
2.23721e-06
1.44365e-06
8.17938e-07
6.10821e-07
5.3222e-07
4.87536e-07
4.20436e-07
5.26646e-07
1.18101e-06
4.26844e-06
0.000190236
0.000141138
0.000219915
8.08209e-05
0.000172784
9.36682e-06
7.37473e-07
8.87136e-07
9.23054e-07
9.15314e-07
9.52196e-07
1.02566e-06
1.17524e-06
1.2866e-06
1.24539e-06
1.15633e-06
1.08825e-06
1.04209e-06
1.12861e-06
1.9501e-06
1.87753e-06
1.09608e-06
6.95394e-07
5.80106e-07
5.3116e-07
4.99691e-07
4.60548e-07
6.28647e-07
1.56956e-06
5.99526e-06
0.000759637
0.000570301
0.000671665
0.000205452
0.000288094
8.41814e-06
7.22512e-07
8.05287e-07
8.42691e-07
8.64994e-07
8.95774e-07
9.34846e-07
1.03467e-06
1.16888e-06
1.19501e-06
1.13726e-06
1.08305e-06
1.0343e-06
1.11442e-06
1.85458e-06
1.46795e-06
8.54414e-07
6.2781e-07
5.70455e-07
5.41373e-07
5.23676e-07
5.66387e-07
1.05913e-06
2.71084e-06
1.79746e-05
0.000991422
0.000991745
0.000991313
0.000419268
0.000296331
6.01638e-06
7.39511e-07
7.50515e-07
7.86816e-07
8.21839e-07
8.39558e-07
8.67478e-07
9.44312e-07
1.06236e-06
1.10912e-06
1.09442e-06
1.06186e-06
1.0234e-06
1.10403e-06
1.76064e-06
1.10737e-06
7.20754e-07
6.14137e-07
5.8974e-07
5.69749e-07
5.76727e-07
8.5134e-07
2.23386e-06
4.38143e-06
4.0312e-05
0.000811076
0.000979917
0.000990902
0.000508738
0.000289436
4.27813e-06
7.36539e-07
7.06623e-07
7.47154e-07
7.72897e-07
7.82799e-07
8.10776e-07
8.81711e-07
9.7643e-07
1.03421e-06
1.04563e-06
1.02947e-06
1.01234e-06
1.09894e-06
1.66641e-06
9.54678e-07
6.9865e-07
6.57909e-07
6.48716e-07
6.29265e-07
6.8224e-07
1.35408e-06
4.39425e-06
5.69356e-06
2.91278e-05
0.000108329
0.000311662
0.000476409
0.000322185
0.000320165
3.23857e-06
7.1138e-07
6.77665e-07
7.18232e-07
7.30782e-07
7.35291e-07
7.56805e-07
8.11828e-07
8.89653e-07
9.51496e-07