/*--------------------------------*- C++ -*----------------------------------*\
| =========                 |                                                 |
| \\      /  F ield         | OpenFOAM: The Open Source CFD Toolbox           |
|  \\    /   O peration     | Version:  2.4.0                                 |
|   \\  /    A nd           | Web:      www.OpenFOAM.org                      |
|    \\/     M anipulation  |                                                 |
\*---------------------------------------------------------------------------*/
FoamFile
{
    version     2.0;
    format      ascii;
    class       volScalarField;
    location    "1.45";
    object      p;
}
// * * * * * * * * * * * * * * * * * * * * * * * * * * * * * * * * * * * * * //

dimensions      [1 -1 -2 0 0 0 0];

internalField   nonuniform List<scalar> 
3072
(
0
-0.0524579
-0.0587552
-0.00827482
0.111464
0.76163
2.07965
0.572229
0.322456
0.623382
0.514313
2.37919
1.38365
1.34886
1.3762
1.44165
1.62674
1.90546
1.5502
1.72214
1.9426
2.12618
2.84492
3.93794
2.53445
2.57096
2.68062
2.84718
3.19121
3.13282
3.3317
3.5567
3.81403
4.06891
4.25463
4.50216
3.75432
3.86897
4.08498
4.3789
4.65486
4.94872
5.26438
5.60393
5.9492
6.27449
6.5803
6.87498
5.04378
5.24868
5.58064
5.97754
6.41143
6.84464
7.29002
7.75186
8.19971
8.6064
8.97558
9.2953
6.41793
6.7117
7.14409
7.64024
8.20796
8.76245
9.3395
9.93276
10.4862
10.9469
11.3556
11.6852
7.90899
8.28067
8.76932
9.27341
9.99952
10.6353
11.3577
12.1028
12.7717
13.2385
13.6624
13.9903
9.55582
10.0144
10.4868
11.2196
12.5817
12.9383
13.3978
14.2653
15.0589
15.4282
15.867
16.188
11.3916
12.0854
12.6951
14.2496
18.6177
19.6416
19.0784
16.8026
17.3979
17.4154
17.8916
18.2835
13.2323
14.4056
15.2076
16.0603
17.8748
18.5381
18.5187
19.3453
19.5765
20.9022
20.75
20.197
14.8399
16.9368
18.1174
19.5192
21.658
22.1358
21.4463
21.5591
22.1348
22.1814
22.4153
22.0995
15.8743
19.3543
20.5351
21.6741
22.5547
20.7485
19.1982
22.7716
23.2798
23.8356
23.7423
23.7359
2.68395
2.94796
3.44529
2.21254
2.25159
2.61488
2.4386
3.31145
3.6027
4.04302
4.84381
5.28556
2.84689
3.16831
3.43758
3.75483
4.00619
4.17066
4.30472
4.78703
7.3708
8.13424
5.68785
5.56725
4.82466
5.13067
5.40595
5.6805
5.88114
5.97951
6.05835
6.01622
6.2229
8.19276
9.19173
9.10683
7.16319
7.4342
7.6687
7.8683
8.00913
8.07593
8.06708
7.96234
7.79287
7.66762
6.94573
6.7068
9.5661
9.78803
9.96589
10.1103
10.2093
10.2488
10.2104
10.0749
9.81884
9.53511
8.84023
8.50492
11.9193
12.082
12.1991
12.2988
12.3775
12.4189
12.3919
12.2537
11.8965
11.4129
11.214
10.7333
14.1668
14.2449
14.2922
14.3577
14.4414
14.5281
14.5744
14.496
14.005
13.2151
12.6983
12.9281
16.2799
16.2343
16.2041
16.2443
16.3592
16.5399
16.7633
16.9344
16.7309
16.6537
17.5983
17.5618
18.2404
18.0221
17.9022
17.9299
18.0898
18.4007
18.8839
19.5136
20.0606
23.5495
23.2514
24.6016
20.053
19.4952
19.3827
19.4057
19.588
20.0187
20.8078
21.9838
23.1807
25.5849
26.5097
28.8081
22.6239
22.0907
20.7168
20.6564
20.8082
21.3061
22.4132
24.3428
26.3715
26.5465
28.6161
31.151
23.6509
22.7161
21.6386
21.3148
21.4876
22.1306
23.5186
26.5233
29.5574
27.4967
29.3741
30.4233
-2.87809
-2.91988
-2.95238
-2.97909
-3.00509
-3.02844
-3.04554
-3.05134
-3.03885
-2.99926
-2.92257
-2.79874
-1.41479
-1.44523
-1.45275
-1.44601
-1.4243
-1.38786
-1.33531
-1.26366
-1.16895
-1.04669
-0.892044
-0.701199
-0.17522
-0.176215
-0.136719
-0.0590048
0.0479226
0.180068
0.335872
0.515012
0.717355
0.941754
1.18682
1.4496
1.18913
1.22546
1.33282
1.49756
1.70243
1.93988
2.20468
2.49211
2.79742
3.1145
3.43678
3.75709
2.6352
2.72683
2.91711
3.18233
3.49337
3.83904
4.209
4.59305
4.98329
5.36967
5.74376
6.09741
4.16101
4.32591
4.6112
4.98749
5.40595
5.85365
6.31555
6.77269
7.21917
7.64349
8.03905
8.40053
5.7634
6.02664
6.41797
6.91558
7.43577
7.97041
8.50169
9.00162
9.46796
9.89395
10.2778
10.6215
7.43153
7.8365
8.34421
8.97438
9.58165
10.1783
10.75
11.2536
11.6985
12.0878
12.4255
12.7257
9.13796
9.76381
10.3934
11.1672
11.8346
12.4544
13.0354
13.4969
13.873
14.1884
14.4465
14.6782
10.7893
11.8023
12.546
13.4732
14.1647
14.7528
15.3115
15.687
15.9381
16.151
16.3008
16.4444
12.1562
13.9137
14.7284
15.8107
16.4986
16.9975
17.5105
17.7631
17.8242
17.9273
17.9458
17.9954
12.9584
16.0165
16.7973
17.9942
18.6798
19.0807
19.5579
19.6541
19.4484
19.4841
19.3524
19.321
-2.61956
-2.38167
-2.08911
-1.74345
-1.33935
-0.93501
-0.578857
-0.308755
-0.152683
-0.117759
-0.182057
-0.288367
-0.471769
-0.203453
0.102826
0.430764
0.732979
1.00335
1.21576
1.33739
1.34963
1.25449
1.08048
0.896214
1.72617
2.01121
2.29715
2.57504
2.81975
3.00883
3.11567
3.11566
2.99171
2.75579
2.45065
2.15527
4.06837
4.36361
4.6342
4.86833
5.05345
5.17613
5.21167
5.12877
4.90066
4.53774
4.09374
3.68261
6.4234
6.71643
6.96904
7.16834
7.30802
7.39422
7.40922
7.31174
7.04314
6.59954
6.03328
5.51892
8.72254
9.00413
9.2415
9.41381
9.5128
9.58992
9.64601
9.62805
9.41169
8.96009
8.31309
7.73899
10.922
11.1846
11.4156
11.5721
11.6082
11.6757
11.8254
11.998
11.9546
11.5953
10.9547
10.4145
12.9874
13.2243
13.4651
13.63
13.5321
13.5284
13.814
14.301
14.5635
14.3985
13.9083
13.6226
14.8811
15.0866
15.3586
15.5839
15.2325
15.0597
15.6648
16.5869
17.2589
17.258
16.9812
17.6172
16.56
16.7346
17.0722
17.443
16.817
17.548
19.7036
20.1911
20.5567
20.8764
20.5412
23.1863
17.9726
18.1195
18.6226
19.233
18.5527
22.416
23.6797
23.4643
23.6909
24.5056
25.532
27.1238
19.0842
19.2154
19.7105
20.7956
19.9225
24.948
25.4448
25.1461
25.118
25.9124
27.7894
28.7266
0.51002
0.472657
0.464295
0.472217
0.492462
0.524054
0.566262
0.618631
0.681392
0.755612
0.843103
0.94602
1.93276
1.91618
1.92961
1.96788
2.02462
2.09633
2.18084
2.27679
2.38348
2.50074
2.62861
2.76696
3.11396
3.12883
3.18571
3.27919
3.39709
3.53328
3.68387
3.84597
4.01688
4.19394
4.37432
4.55478
4.40417
4.45757
4.57655
4.74297
4.9382
5.15354
5.38289
5.62094
5.86208
6.10099
6.33285
6.55299
5.7711
5.87933
6.07386
6.32626
6.60988
6.91321
7.22723
7.54313
7.85074
8.14177
8.41119
8.65574
7.21232
7.39385
7.67514
8.02185
8.39932
8.79358
9.19215
9.58175
9.94478
10.269
10.5526
10.7985
8.7274
9.00439
9.37902
9.81928
10.2888
10.7706
11.2483
11.7044
12.1087
12.4405
12.708
12.927
10.3166
10.7167
11.1852
11.6995
12.2491
12.8079
13.3531
13.8672
14.3014
14.6111
14.8275
14.99
11.9791
12.5356
13.0947
13.6256
14.2295
14.8478
15.442
16.004
16.467
16.7203
16.848
16.928
13.6813
14.449
15.1032
15.5265
16.1413
16.8025
17.4236
18.0269
18.5361
18.6876
18.685
18.6674
15.2798
16.3846
17.1791
17.2653
17.8432
18.5564
19.1475
19.7553
20.403
20.4126
20.2331
20.1256
16.5603
18.0865
19.2495
18.6322
19.3331
20.2945
20.7296
21.1123
21.911
21.8105
21.3781
21.2349
1.06605
1.20329
1.3575
1.53412
1.72437
1.91201
2.06916
2.18132
2.23802
2.23862
2.19733
2.1469
2.91521
3.0723
3.23542
3.38685
3.51442
3.61331
3.67818
3.69674
3.66371
3.58444
3.47582
3.37551
4.73134
4.89895
5.0503
5.18001
5.28037
5.33324
5.33085
5.26592
5.13909
4.96386
4.76866
4.59044
6.75633
6.93694
7.08783
7.20013
7.26516
7.27131
7.20805
7.06741
6.85023
6.57306
6.27631
6.01728
8.87233
9.05656
9.2027
9.30209
9.34686
9.32504
9.22507
9.03581
8.75359
8.39134
7.99712
7.65225
11.0097
11.1859
11.324
11.4159
11.4558
11.4299
11.3256
11.1269
10.8221
10.4124
9.9434
9.51737
13.1115
13.2666
13.3924
13.4812
13.5299
13.523
13.448
13.2848
13.0129
12.6149
12.1204
11.637
15.1281
15.2516
15.3621
15.4529
15.519
15.549
15.5316
15.4464
15.2676
14.9573
14.5178
14.0276
17.0083
17.0972
17.1948
17.292
17.3823
17.4594
17.5174
17.5415
17.5099
17.3707
17.0976
16.6883
18.6948
18.7591
18.8545
18.9647
19.0844
19.2115
19.3492
19.4946
19.6436
19.7499
19.7774
19.594
20.1361
20.2106
20.317
20.4473
20.5961
20.7676
20.9756
21.2276
21.5497
21.9318
22.3838
22.6517
21.2861
21.3944
21.5471
21.7175
21.9117
22.148
22.3811
22.6769
23.1013
23.6764
24.5571
25.5803
-9.8241
-10.0601
-10.0295
-9.69235
-9.01645
-7.9648
-6.69261
-5.40017
-4.43786
-3.91415
-3.69592
-3.67628
-7.14126
-7.14654
-6.81735
-6.24766
-5.42718
-4.35977
-3.47323
-2.46378
-1.89171
-1.50597
-1.17146
-0.9733
-5.51805
-5.16823
-4.51459
-3.73262
-1.68613
1.99171
3.0213
3.13939
2.995
2.76281
2.35487
1.65629
-4.164
-3.45456
-2.46378
-1.12492
3.47236
5.1376
5.23546
5.17775
5.06585
4.88588
4.6261
4.38696
-2.70495
-1.76204
-0.660969
0.567796
6.783
7.29935
7.33155
7.20233
7.07183
6.90387
6.70122
6.478
-0.687418
0.388932
1.55133
2.66181
7.59289
9.07559
9.15479
9.07825
8.98546
8.88086
8.75972
8.5884
1.97598
3.08251
4.26525
5.15426
6.59963
9.71079
10.9733
10.8233
10.7572
10.7427
10.7483
10.6619
5.21501
6.31489
7.51528
8.57242
9.16597
10.0041
10.7577
11.5111
12.3127
12.4583
12.6335
12.6406
8.8768
9.98472
11.1265
12.2028
12.9198
13.5318
14.089
14.7436
15.0273
14.4289
14.4861
14.5328
12.8024
14.0237
15.0385
16.0003
16.6485
17.1864
17.7165
18.3139
18.7333
18.4701
16.7601
16.3033
16.8041
18.3875
19.2187
19.9662
20.4013
20.733
21.2036
21.916
22.7063
22.3657
21.936
22.1558
19.5637
21.736
22.4437
23.061
23.4143
23.6638
24.0915
24.72
25.6336
27.31
28.9311
23.0897
-3.74938
-3.87038
-4.07459
-4.32774
-4.59707
-4.83776
-5.02471
-5.14114
-5.20828
-5.20062
-5.13863
-5.02695
-0.97145
-1.23218
-1.5788
-1.90337
-2.16526
-2.3499
-2.46028
-2.56646
-2.60589
-2.51374
-2.40638
-2.31965
1.10419
1.12705
0.889921
0.326923
-0.109527
-0.352766
-0.44887
-0.279926
0.197001
-0.26222
0.0324845
0.174258
4.23171
3.51437
2.84469
2.6377
2.19706
1.86446
1.73493
1.75244
1.8157
1.85442
4.32848
3.66248
6.26941
6.07351
5.78591
5.22358
4.82708
4.47971
4.24106
4.21639
4.37532
4.94158
7.44736
7.88585
8.41359
8.1949
7.96168
7.64127
7.48932
7.39851
7.14484
6.92374
7.03596
7.46639
9.84574
10.4261
10.5942
10.4421
10.3058
10.0649
9.92464
9.94161
10.3164
9.93988
9.87938
10.1872
10.9934
11.8943
12.6995
12.6347
12.678
12.5836
12.5295
12.5933
12.8797
13.2692
13.0446
13.4235
13.9041
14.5156
14.6796
14.6092
14.8274
15.0438
15.112
15.4863
15.8242
16.2755
16.5405
16.9624
17.4374
18.1971
16.5067
16.7682
17.6013
17.8499
17.6769
18.2974
18.969
19.4215
19.978
20.9123
21.0781
22.2181
18.7037
19.2142
23.9336
31.7248
28.1259
21.6299
21.6052
22.5525
23.068
24.0507
24.7328
26.7647
20.5351
21.7477
21.7143
22.053
26.1232
29.9473
23.4647
25.1047
25.718
27.0356
27.4375
31.8424
28.5059
21.95
24.1271
29.842
33.392
33.0992
32.4139
26.9583
24.9995
24.9049
24.2018
24.6204
25.6759
25.6298
27.9038
28.541
32.9042
33.37
31.0662
29.3052
28.6726
28.023
26.9876
24.5549
28.3137
27.0008
29.7371
33.4459
37.0466
44.877
44.0923
28.9718
28.7059
29.4317
28.1226
23.4143
37.614
34.4964
31.0454
29.5955
31.563
32.6974
33.089
31.2189
27.3134
25.0003
22.8694
30.8551
24.9486
23.4525
22.3237
22.7557
24.0595
24.3454
24.4414
25.6808
29.9282
27.5488
27.7386
25.3697
24.9214
26.2526
33.6783
28.65
26.2215
25.2225
24.6817
24.4186
24.6857
27.2884
26.1172
24.6518
25.6175
29.6696
31.0984
27.3956
27.0484
25.3599
24.1237
23.6245
23.8985
24.3823
25.4588
25.2436
33.9432
30.4639
31.385
28.5253
27.8502
25.6047
23.3708
21.7557
21.3002
23.0186
24.2626
25.7875
16.2039
18.5755
18.7776
19.7977
20.4777
20.9167
21.4185
21.2903
20.711
20.806
20.5237
20.4663
20.3882
21.2361
20.9229
21.3899
21.4637
22.0892
23.0574
22.488
21.4749
21.8564
21.2852
21.6334
23.5087
23.8545
24.2612
25.1366
27.7368
28.2975
29.4051
31.2369
33.1244
34.6123
23.5258
23.1284
25.7507
26.0354
26.366
26.9684
29.1392
34.4746
36.0154
34.2217
34.4962
34.0359
28.1005
23.156
20.2321
22.3717
22.3886
20.556
20.7931
22.3378
23.6296
23.7778
24.7069
26.0512
27.6914
28.5486
21.5741
28.5512
27.8929
28.0269
21.7404
22.6951
23.3416
23.9415
24.7461
25.8434
27.7165
29.1367
22.2271
28.0306
26.3396
23.4975
22.1396
23.2824
23.8639
24.709
25.8871
25.5339
26.2035
26.7966
22.3186
23.0694
23.6931
22.9895
23.0332
22.8133
23.0265
23.6238
24.8896
25.3317
25.796
25.7658
24.0085
20.8038
21.4548
20.7038
23.996
25.0003
25.0106
24.221
23.5912
22.7486
21.9743
21.9793
29.5448
27.823
22.5305
23.0468
30.6646
27.8066
26.9357
27.6062
28.6983
26.0961
21.9168
22.3985
24.5453
22.9632
23.3265
22.6696
25.428
27.6203
27.8177
28.3802
31.4245
34.8394
23.6256
22.721
24.7101
23.735
23.8379
23.4619
24.2506
25.7031
27.0834
26.9061
24.093
23.2349
21.5844
22.8879
22.17
22.3596
22.5729
22.7813
22.9907
23.2138
23.4804
23.8095
24.2539
24.8268
25.3242
25.4623
22.8433
23.1475
23.4321
23.6718
23.8976
24.118
24.3585
24.6509
24.9984
25.4005
25.7862
25.8355
23.4676
23.8696
24.2041
24.4481
24.6425
24.8505
25.0307
25.2372
25.4745
25.7483
25.9814
26.2619
24.1188
24.5973
24.9513
25.1699
25.3237
25.4464
25.5398
25.6154
25.6289
25.7957
25.9577
26.4455
23.4354
24.1769
24.3569
24.6195
24.9328
25.2743
25.5577
25.7205
25.7604
25.6097
24.2855
22.2652
24.7473
25.1462
25.3942
25.6389
25.9281
26.21
26.3295
26.3563
25.9835
24.5512
23.1456
22.7026
25.7695
26.0255
26.1485
26.2658
26.4392
26.6064
26.8021
26.6365
26.3433
25.5063
24.2839
23.9146
26.5731
26.8185
26.7609
26.6328
26.6067
26.8237
26.997
26.9385
26.504
25.8582
25.0086
24.7058
22.2513
23.1683
23.5279
24.1153
25.4779
27.0005
25.4178
26.4956
27.5885
29.3435
32.2505
28.968
23.6363
24.4353
24.9569
25.741
26.3984
25.2792
30.5923
31.467
29.3509
28.5804
33.6117
30.8177
24.6957
25.4207
26.047
27.0577
27.9202
29.2251
29.3065
30.3515
34.9413
31.43
28.6163
30.2253
25.4532
26.1447
26.819
27.7652
28.4865
29.82
30.5256
31.7713
26.9009
24.023
33.3785
37.8391
32.041
32.866
38.8099
38.9551
37.7455
35.7828
34.964
30.0292
27.4459
24.5983
24.9979
28.4545
30.7068
30.3956
27.1553
25.9435
25.9914
25.8277
25.4215
27.5123
26.9561
25.8422
25.846
27.5739
30.1052
29.4667
27.6831
26.691
26.3718
26.0999
26.0195
26.8897
26.7768
26.3348
26.4096
27.2339
29.7326
29.0511
27.9057
27.1013
26.7091
26.4422
26.3889
26.7897
26.7699
26.6245
26.6584
26.8307
32.1844
38.1724
37.8914
32.4603
28.9036
26.665
24.4393
22.5154
21.9837
23.1854
24.5327
26.2072
29.2832
27.3375
27.4312
28.1881
28.5207
27.7279
26.6483
25.9527
25.5392
25.6111
26.1988
26.7567
28.432
27.9485
27.7894
27.9444
27.9958
27.6303
27.107
26.6702
26.4159
26.3504
26.5309
26.7967
28.3107
28.3599
28.2022
28.176
28.0868
27.8164
27.4588
27.1071
26.9065
26.9015
27.0144
27.1049
27.0059
27.3807
27.601
27.2968
26.8748
26.5262
25.9446
25.9098
26.2225
25.6533
24.1182
23.7502
27.0033
27.1448
26.9486
26.4108
26.0161
25.8039
25.6099
25.7898
25.8628
25.4175
24.6295
24.2544
26.9894
27.0438
26.8161
26.4184
26.0126
25.6418
25.5179
25.6255
25.6025
25.2902
24.8534
24.5685
27.0994
27.0255
26.7683
26.4066
26.0308
25.681
25.5346
25.539
25.4681
25.2455
24.9685
24.7048
23.3018
23.5635
24.041
23.4437
24.892
25.8555
25.9992
26.1801
26.2903
25.1639
25.6901
25.8335
24.0116
24.1197
24.254
23.877
23.3193
23.7134
24.2245
24.7966
25.3536
25.4203
25.5652
25.521
24.4388
24.4926
24.4806
24.2524
24.0394
24.2931
24.6457
24.9924
25.2116
25.3845
25.4896
25.387
24.7511
24.7564
24.6875
24.5335
24.4482
24.6254
24.8863
25.1263
25.2879
25.4108
25.44
25.3363
25.7466
24.7804
24.4273
24.0945
24.4485
25.1771
25.361
25.0875
23.7652
22.661
21.9947
23.0362
25.1294
24.8726
24.7006
24.5731
24.7642
25.0802
25.1711
24.8743
24.0207
23.2908
22.8262
23.3576
25.1507
24.9755
24.8717
24.8204
24.9484
25.0869
25.0618
24.7574
24.1397
23.5737
23.1961
23.4364
25.17
25.0573
24.9918
24.9712
25.0384
25.0839
24.9797
24.6521
24.1384
23.6649
23.3126
23.2315
24.4608
25.1345
25.4849
25.6695
25.7803
25.8675
25.9317
25.9731
25.973
25.9663
25.9636
26.3312
24.6966
25.4149
25.7266
25.8982
25.998
26.0874
26.1685
26.2399
26.2814
26.2343
26.052
26.184
24.8635
25.6984
25.9361
26.0676
26.1439
26.2238
26.3041
26.3802
26.4259
26.3516
25.9922
26.4153
25.1632
26.0055
26.1215
26.1989
26.2501
26.3156
26.3862
26.4531
26.4881
26.4139
26.193
27.8623
26.7783
27.1504
27.1618
26.9797
26.8559
26.9306
27.0798
27.1243
26.7745
26.1514
25.3599
25.115
26.5961
27.0547
27.1837
27.0633
26.8934
26.774
26.6333
26.4093
26.0845
25.7283
25.3592
25.311
27.6711
27.6527
27.301
27.0689
26.8386
26.6077
26.4192
26.2567
26.1075
25.865
25.454
25.2594
28.5108
27.9375
27.5033
27.2328
27.0036
26.7974
26.611
26.4332
26.237
25.9354
25.4232
24.9072
25.7327
26.3959
26.9642
27.7402
28.4062
29.5563
29.0661
26.7527
22.4212
26.6528
29.2967
31.0377
26.2369
27.0098
27.5825
28.1873
28.6827
29.2045
28.5681
28.9446
29.2272
28.1786
29.6131
30.5018
26.5296
27.4765
27.9798
28.4222
28.7659
28.9058
28.3947
28.9074
28.4061
30.3495
30.1969
30.3022
26.9922
27.9201
28.2613
28.5572
28.7837
28.8478
28.6046
28.9915
28.4106
29.907
30.1102
30.0476
29.4601
28.8205
27.993
27.3278
26.9335
26.6758
26.5991
26.7544
26.745
26.6888
26.6236
25.9403
29.2593
28.6726
28.0174
27.4532
27.0762
26.8266
26.7163
26.741
26.7193
26.6965
26.6702
26.3241
29.106
28.5624
28.0145
27.5236
27.1692
26.9266
26.7916
26.747
26.7108
26.6983
26.7127
26.5619
28.9882
28.4754
28.0044
27.5686
27.2368
27.0009
26.8511
26.7714
26.7258
26.7162
26.7534
26.6941
28.8797
28.4009
27.9934
27.6049
27.2937
27.0637
26.906
26.8093
26.7588
26.7536
26.7897
26.7803
28.8027
28.3293
27.9865
27.6412
27.3471
27.1213
26.9591
26.8537
26.7997
26.7939
26.8264
26.8415
28.6791
28.2533
27.9842
27.6794
27.399
27.1749
27.0091
26.898
26.8397
26.8295
26.8563
26.8821
28.2555
28.1688
27.9864
27.7181
27.4476
27.2231
27.0532
26.9368
26.873
26.856
26.8753
26.9042
28.1566
28.1201
27.9946
27.7556
27.4907
27.2636
27.0886
26.9664
26.8959
26.8709
26.8824
26.9106
28.295
28.1182
28.0092
27.791
27.526
27.2938
27.1129
26.9844
26.9067
26.8739
26.8786
26.905
28.678
28.0772
28.0277
27.8237
27.5521
27.3125
27.125
26.9902
26.9055
26.8659
26.8659
26.8915
29.4384
28.0812
28.0394
27.8502
27.5686
27.3206
27.127
26.9865
26.896
26.8514
26.8491
26.8752
29.0869
28.6951
28.4374
28.3236
28.1923
27.9844
27.7088
27.4589
27.2831
27.2267
27.2367
27.2227
29.1034
28.7816
28.5323
28.3862
28.2418
28.0616
27.8486
27.6348
27.4635
27.3678
27.3152
27.2463
28.9279
28.735
28.532
28.3957
28.2525
28.0878
27.9006
27.7121
27.5485
27.4314
27.3418
27.2401
28.8
28.6767
28.5168
28.3859
28.2465
28.0923
27.9202
27.7458
27.5875
27.4599
27.3487
27.2274
28.7091
28.6244
28.4947
28.3715
28.2366
28.0887
27.9265
27.7619
27.6073
27.4745
27.3499
27.2164
28.6423
28.5824
28.4743
28.3589
28.2284
28.0854
27.9304
27.7726
27.6215
27.4839
27.3514
27.2102
28.594
28.5508
28.4587
28.3498
28.2234
28.0846
27.935
27.7822
27.6335
27.4931
27.3552
27.2091
28.5611
28.5288
28.448
28.3444
28.2216
28.0861
27.9406
27.7917
27.6448
27.5027
27.3613
27.2121
28.5409
28.5154
28.4419
28.3422
28.2222
28.0893
27.9469
27.8006
27.6551
27.5121
27.3685
27.2176
28.5314
28.5094
28.4402
28.3429
28.2247
28.0935
27.9532
27.8087
27.664
27.5205
27.3758
27.224
28.5309
28.5104
28.443
28.3465
28.229
28.0986
27.9594
27.8158
27.6714
27.5276
27.3823
27.2302
28.5367
28.5163
28.4486
28.3517
28.234
28.1036
27.9647
27.8213
27.6769
27.5329
27.3874
27.2353
27.1337
26.9916
26.7196
26.3799
26.0399
25.7285
25.5704
25.5105
25.4171
25.2506
25.0532
24.6817
27.1214
26.9493
26.6822
26.3675
26.0547
25.7752
25.6102
25.5187
25.4217
25.2971
25.1908
24.9773
27.096
26.9113
26.6566
26.3674
26.0801
25.8255
25.6574
25.5513
25.4614
25.376
25.3189
25.2365
27.0726
26.883
26.6419
26.375
26.1106
25.8763
25.71
25.5998
25.5191
25.4604
25.4355
25.4174
27.0559
26.8657
26.6367
26.3885
26.1439
25.9264
25.7648
25.655
25.582
25.5396
25.5326
25.5432
27.0467
26.858
26.6395
26.4066
26.1782
25.9743
25.8178
25.7095
25.641
25.6068
25.6077
25.631
27.0443
26.858
26.6483
26.4275
26.2117
26.0182
25.8657
25.7579
25.6905
25.6584
25.6605
25.6884
27.047
26.8632
26.6604
26.4489
26.2422
26.0557
25.9054
25.7964
25.727
25.693
25.6925
25.7206
27.0527
26.8711
26.6734
26.4681
26.2675
26.085
25.9348
25.8228
25.7493
25.7111
25.7065
25.7325
27.0593
26.8794
26.6849
26.4833
26.2857
26.1045
25.9526
25.8364
25.7576
25.7143
25.7056
25.7295
27.0658
26.8867
26.6936
26.4934
26.2963
26.1141
25.9589
25.8378
25.7533
25.705
25.6935
25.7167
27.0712
26.8923
26.6993
26.4987
26.3002
26.1157
25.9568
25.8309
25.7413
25.6889
25.6759
25.7002
25.1538
24.9557
24.8394
24.7272
24.6938
24.8223
25.0158
25.189
25.3062
25.3873
25.3945
25.3095
25.2032
25.0427
24.9328
24.8543
24.8456
24.9425
25.0874
25.217
25.3039
25.3566
25.3538
25.2886
25.1608
25.0678
24.9867
24.9358
24.9402
25.0165
25.1276
25.2271
25.2935
25.3291
25.3216
25.2711
25.1322
25.0747
25.019
24.9884
25.0001
25.0622
25.1496
25.2281
25.2804
25.3056
25.2965
25.2562
25.1159
25.0777
25.0402
25.0233
25.0389
25.0905
25.1613
25.2252
25.2677
25.2863
25.277
25.2436
25.1054
25.0799
25.055
25.0472
25.0648
25.1092
25.1679
25.2213
25.2569
25.2714
25.2623
25.2335
25.0979
25.0819
25.0658
25.0641
25.0825
25.1219
25.1721
25.2181
25.2489
25.2609
25.2522
25.2262
25.0933
25.0842
25.0736
25.0763
25.0952
25.131
25.1753
25.2162
25.2438
25.2543
25.2461
25.222
25.091
25.0859
25.0802
25.0852
25.1044
25.1378
25.1784
25.216
25.2415
25.2511
25.2433
25.2204
25.0906
25.0879
25.0848
25.0913
25.1109
25.1432
25.1818
25.2174
25.2418
25.2509
25.2433
25.221
25.0915
25.0898
25.0879
25.0953
25.1154
25.1476
25.1855
25.2204
25.2443
25.2531
25.2454
25.2232
25.0932
25.0916
25.0897
25.0974
25.118
25.1508
25.189
25.2242
25.2481
25.2566
25.2486
25.2262
25.1901
25.1138
25.0705
25.0591
25.0833
25.0591
24.8959
24.5512
24.0848
23.6601
23.2401
22.3969
25.2025
25.1475
25.1151
25.1006
25.0889
25.0143
24.8115
24.4621
24.0364
23.6667
23.3835
22.9406
25.207
25.1637
25.1345
25.1106
25.07
24.9606
24.7369
24.398
24.0178
23.7096
23.5288
23.3236
25.2057
25.1678
25.1368
25.1017
25.039
24.9083
24.6795
24.3624
24.0309
23.7788
23.6586
23.5701
25.201
25.1648
25.1295
25.0836
25.0052
24.8637
24.6409
24.3506
24.0655
23.8606
23.7766
23.7432
25.1954
25.1587
25.1183
25.0633
24.9746
24.8292
24.6169
24.3567
24.1105
23.9403
23.8778
23.8719
25.1907
25.1525
25.1073
25.0453
24.9503
24.8053
24.6055
24.3715
24.1555
24.0087
23.957
23.9637
25.1877
25.148
25.099
25.032
24.9334
24.7908
24.6026
24.3889
24.1941
24.061
24.0121
24.0224
25.1868
25.1458
25.0942
25.0241
24.9239
24.784
24.6047
24.4047
24.2225
24.0951
24.0438
24.0528
25.1877
25.146
25.0929
25.0213
24.9207
24.7829
24.609
24.4163
24.2388
24.1109
24.0543
24.0597
25.19
25.1481
25.0947
25.0229
24.9226
24.786
24.614
24.4224
24.2431
24.11
24.0469
24.0486
25.1928
25.1511
25.0981
25.027
24.9275
24.7913
24.6185
24.4238
24.2387
24.098
24.0288
24.0274
26.2039
26.3059
26.2686
26.2969
26.3281
26.3799
26.4393
26.4963
26.5236
26.4735
26.48
28.7832
26.4783
26.4344
26.3603
26.3656
26.385
26.4262
26.4766
26.5276
26.5574
26.5383
26.6716
28.6666
26.5041
26.4748
26.4135
26.4127
26.4265
26.4607
26.5051
26.5534
26.5898
26.6012
26.799
28.3848
26.5108
26.49
26.4458
26.445
26.457
26.4873
26.5283
26.5759
26.6198
26.6515
26.8355
28.1743
26.5163
26.4983
26.4667
26.4673
26.4795
26.508
26.5477
26.5964
26.6475
26.6941
26.8401
28.0133
26.5181
26.5029
26.4805
26.4828
26.4958
26.524
26.5641
26.6154
26.6735
26.733
26.8525
27.8465
26.5167
26.5051
26.4895
26.4933
26.5075
26.5361
26.5775
26.6324
26.6988
26.7707
26.8752
27.6548
26.5143
26.5059
26.4951
26.5002
26.5154
26.5445
26.5876
26.6468
26.7231
26.8131
26.925
27.4132
26.512
26.5059
26.4983
26.5042
26.52
26.5496
26.5939
26.657
26.7437
26.8586
27.0342
27.2638
26.5102
26.5055
26.4997
26.5059
26.5218
26.5512
26.5958
26.6607
26.7553
26.8968
27.1378
27.3403
26.5091
26.505
26.4995
26.5055
26.5211
26.5497
26.593
26.657
26.754
26.9152
27.1965
27.4573
26.5086
26.5044
26.4982
26.5038
26.5188
26.5462
26.5873
26.6483
26.7432
26.915
27.2817
28.0235
28.5812
27.9796
27.5705
27.3012
27.0877
26.896
26.7105
26.5118
26.2707
25.922
25.3103
23.7974
28.3742
27.9233
27.5536
27.2999
27.1071
26.9309
26.747
26.535
26.2711
25.9185
25.4359
24.5811
28.1659
27.8168
27.4951
27.2639
27.0904
26.928
26.7475
26.5316
26.2667
25.941
25.5836
25.1001
28.0056
27.7147
27.4311
27.2201
27.0605
26.9075
26.7312
26.5192
26.2677
25.9813
25.7093
25.4188
27.8916
27.6405
27.3832
27.1854
27.0323
26.8836
26.711
26.5067
26.2744
26.0264
25.814
25.6312
27.8078
27.5985
27.3594
27.1674
27.0136
26.8638
26.6933
26.4975
26.2841
26.0692
25.8992
25.78
27.7367
27.5844
27.3591
27.1668
27.0058
26.8504
26.68
26.4917
26.2944
26.105
25.9642
25.8825
27.6698
27.59
27.3767
27.179
27.0064
26.8426
26.6706
26.4879
26.303
26.1317
26.0099
25.9496
27.6249
27.6091
27.4038
27.1971
27.0109
26.8377
26.6633
26.4843
26.308
26.1487
26.0382
25.9893
27.6148
27.6377
27.4346
27.215
27.0143
26.8324
26.6557
26.4793
26.3084
26.1561
26.0512
26.0075
27.5354
27.6694
27.4664
27.2287
27.0135
26.8243
26.6464
26.4719
26.304
26.1544
26.051
26.0083
27.5273
27.7013
27.4937
27.2368
27.0086
26.8143
26.6362
26.4634
26.2965
26.1468
26.0422
25.9972
28.4436
28.3653
28.4613
28.6379
28.7803
28.8177
28.7031
28.8399
28.7489
28.6367
29.9553
29.8244
28.6859
28.5558
28.5757
28.682
28.7722
28.7963
28.7402
28.8166
28.932
28.5283
29.9228
29.6531
28.6688
28.6207
28.6343
28.7038
28.7637
28.7813
28.7572
28.8168
28.8903
28.7532
28.9626
29.5166
28.6668
28.6499
28.6647
28.7141
28.7567
28.7722
28.7669
28.8145
28.8718
28.895
28.4375
29.4405
28.6758
28.6679
28.6821
28.7191
28.7516
28.7669
28.7726
28.8131
28.8679
28.9092
28.6746
28.9042
28.6816
28.6796
28.6932
28.7221
28.7483
28.7637
28.7756
28.8123
28.8638
28.8976
28.8932
28.2052
28.6842
28.6874
28.7008
28.7244
28.7463
28.7616
28.7768
28.8106
28.8582
28.8948
28.9639
28.4007
28.6862
28.6934
28.7066
28.7265
28.7453
28.7598
28.776
28.8072
28.8518
28.8922
28.9461
28.7016
28.689
28.6986
28.7114
28.7285
28.7448
28.7579
28.7734
28.8016
28.8434
28.8865
28.9436
28.9085
28.693
28.7037
28.7157
28.7304
28.7443
28.7555
28.7687
28.7931
28.8315
28.8768
28.9506
29.0671
28.6979
28.7088
28.7196
28.7323
28.7439
28.7524
28.7621
28.7815
28.8152
28.8606
28.9457
29.1247
28.7029
28.7134
28.7229
28.7339
28.7435
28.7492
28.7548
28.7687
28.7972
28.84
28.9306
29.1626
)
;

boundaryField
{
    rotor
    {
        type            calculated;
        value           nonuniform List<scalar> 
192
(
0
-0.0524579
-0.0587552
-0.00827482
0.111464
0.76163
2.07965
0.572229
0.322456
0.623382
0.514313
2.37919
2.68395
2.94796
3.44529
2.21254
2.25159
2.61488
2.4386
3.31145
3.6027
4.04302
4.84381
5.28556
-2.87809
-2.91988
-2.95238
-2.97909
-3.00509
-3.02844
-3.04554
-3.05134
-3.03885
-2.99926
-2.92257
-2.79874
-2.61956
-2.38167
-2.08911
-1.74345
-1.33935
-0.93501
-0.578857
-0.308755
-0.152683
-0.117759
-0.182057
-0.288367
0.51002
0.472657
0.464295
0.472217
0.492462
0.524054
0.566262
0.618631
0.681392
0.755612
0.843103
0.94602
1.06605
1.20329
1.3575
1.53412
1.72437
1.91201
2.06916
2.18132
2.23802
2.23862
2.19733
2.1469
-9.8241
-10.0601
-10.0295
-9.69235
-9.01645
-7.9648
-6.69261
-5.40017
-4.43786
-3.91415
-3.69592
-3.67628
-3.74938
-3.87038
-4.07459
-4.32774
-4.59707
-4.83776
-5.02471
-5.14114
-5.20828
-5.20062
-5.13863
-5.02695
0
1.38365
2.53445
3.75432
5.04378
6.41793
7.90899
9.55582
11.3916
13.2323
14.8399
15.8743
-5.02695
-2.31965
0.174258
3.66248
7.88585
10.4261
11.8943
14.5156
18.1971
22.2181
26.7647
31.8424
-2.87809
-1.41479
-0.17522
1.18913
2.6352
4.16101
5.7634
7.43153
9.13796
10.7893
12.1562
12.9584
5.28556
5.56725
9.10683
6.7068
8.50492
10.7333
12.9281
17.5618
24.6016
28.8081
31.151
30.4233
0.51002
1.93276
3.11396
4.40417
5.7711
7.21232
8.7274
10.3166
11.9791
13.6813
15.2798
16.5603
-0.288367
0.896214
2.15527
3.68261
5.51892
7.73899
10.4145
13.6226
17.6172
23.1863
27.1238
28.7266
-9.8241
-7.14126
-5.51805
-4.164
-2.70495
-0.687418
1.97598
5.21501
8.8768
12.8024
16.8041
19.5637
2.1469
3.37551
4.59044
6.01728
7.65225
9.51737
11.637
14.0276
16.6883
19.594
22.6517
25.5803
)
;
    }
    stator
    {
        type            calculated;
        value           nonuniform List<scalar> 
192
(
29.4384
28.0812
28.0394
27.8502
27.5686
27.3206
27.127
26.9865
26.896
26.8514
26.8491
26.8752
28.5367
28.5163
28.4486
28.3517
28.234
28.1036
27.9647
27.8213
27.6769
27.5329
27.3874
27.2353
27.0712
26.8923
26.6993
26.4987
26.3002
26.1157
25.9568
25.8309
25.7413
25.6889
25.6759
25.7002
25.0932
25.0916
25.0897
25.0974
25.118
25.1508
25.189
25.2242
25.2481
25.2566
25.2486
25.2262
25.1928
25.1511
25.0981
25.027
24.9275
24.7913
24.6185
24.4238
24.2387
24.098
24.0288
24.0274
26.5086
26.5044
26.4982
26.5038
26.5188
26.5462
26.5873
26.6483
26.7432
26.915
27.2817
28.0235
27.5273
27.7013
27.4937
27.2368
27.0086
26.8143
26.6362
26.4634
26.2965
26.1468
26.0422
25.9972
28.7029
28.7134
28.7229
28.7339
28.7435
28.7492
28.7548
28.7687
28.7972
28.84
28.9306
29.1626
29.0869
29.1034
28.9279
28.8
28.7091
28.6423
28.594
28.5611
28.5409
28.5314
28.5309
28.5367
25.9403
26.3241
26.5619
26.6941
26.7803
26.8415
26.8821
26.9042
26.9106
26.905
26.8915
26.8752
25.1538
25.2032
25.1608
25.1322
25.1159
25.1054
25.0979
25.0933
25.091
25.0906
25.0915
25.0932
24.6817
24.9773
25.2365
25.4174
25.5432
25.631
25.6884
25.7206
25.7325
25.7295
25.7167
25.7002
26.2039
26.4783
26.5041
26.5108
26.5163
26.5181
26.5167
26.5143
26.512
26.5102
26.5091
26.5086
22.3969
22.9406
23.3236
23.5701
23.7432
23.8719
23.9637
24.0224
24.0528
24.0597
24.0486
24.0274
28.4436
28.6859
28.6688
28.6668
28.6758
28.6816
28.6842
28.6862
28.689
28.693
28.6979
28.7029
23.7974
24.5811
25.1001
25.4188
25.6312
25.78
25.8825
25.9496
25.9893
26.0075
26.0083
25.9972
)
;
    }
    front
    {
        type            empty;
    }
    back
    {
        type            empty;
    }
}


// ************************************************************************* //
