/*--------------------------------*- C++ -*----------------------------------*\
| =========                 |                                                 |
| \\      /  F ield         | OpenFOAM: The Open Source CFD Toolbox           |
|  \\    /   O peration     | Version:  v1606+                                |
|   \\  /    A nd           | Web:      www.OpenFOAM.com                      |
|    \\/     M anipulation  |                                                 |
\*---------------------------------------------------------------------------*/
FoamFile
{
    version     2.0;
    format      ascii;
    class       volScalarField;
    location    "1.7";
    object      alpha.particlesMean;
}
// * * * * * * * * * * * * * * * * * * * * * * * * * * * * * * * * * * * * * //

dimensions      [0 0 0 0 0 0 0];

internalField   nonuniform List<scalar> 
6000
(
0.416682
0.421386
0.421223
0.421996
0.421855
0.421027
0.417836
0.41548
0.413236
0.410976
0.409754
0.408393
0.406681
0.405279
0.404222
0.404708
0.40605
0.408251
0.40921
0.411339
0.411979
0.415981
0.420508
0.42261
0.423179
0.42291
0.421755
0.420195
0.421132
0.417437
0.388385
0.392093
0.390671
0.389506
0.387692
0.387207
0.38845
0.387578
0.388063
0.387776
0.387524
0.387692
0.387641
0.387603
0.387756
0.387868
0.387837
0.387412
0.387685
0.388323
0.389376
0.388811
0.387423
0.387291
0.387669
0.388376
0.389419
0.39032
0.392947
0.388909
0.393571
0.402181
0.400487
0.398532
0.39634
0.397264
0.397249
0.396953
0.397169
0.396531
0.39629
0.395768
0.394493
0.393986
0.394246
0.394341
0.394838
0.396146
0.396896
0.396557
0.396418
0.396744
0.396833
0.395935
0.395918
0.397804
0.400796
0.402567
0.404466
0.394768
0.391733
0.397536
0.393235
0.389894
0.388286
0.389378
0.388974
0.389773
0.391312
0.392519
0.391467
0.390481
0.389005
0.388759
0.388833
0.388602
0.389397
0.392484
0.392876
0.391835
0.390219
0.390254
0.390982
0.390109
0.39149
0.394105
0.396256
0.39773
0.399708
0.392144
0.389809
0.394016
0.391539
0.386414
0.381756
0.380574
0.380124
0.378723
0.380634
0.384664
0.385143
0.383825
0.38286
0.382937
0.382778
0.382237
0.383113
0.386125
0.385985
0.384701
0.380277
0.380925
0.383652
0.384586
0.387936
0.390615
0.392758
0.394393
0.394908
0.389949
0.390376
0.393475
0.394541
0.390712
0.383077
0.378732
0.37624
0.371806
0.369276
0.373338
0.376863
0.375184
0.374054
0.374949
0.375989
0.375628
0.375949
0.376289
0.376047
0.374758
0.368361
0.371557
0.378269
0.381915
0.387563
0.391269
0.395279
0.396441
0.394006
0.390199
0.394949
0.399534
0.402071
0.399061
0.391872
0.384539
0.377721
0.369352
0.361028
0.361196
0.365081
0.363714
0.363683
0.367707
0.371454
0.371686
0.369844
0.366592
0.365144
0.362631
0.357635
0.365142
0.374552
0.380602
0.389402
0.397575
0.403532
0.40426
0.398886
0.39379
0.402543
0.406544
0.409002
0.404991
0.398107
0.391024
0.379363
0.365982
0.355533
0.352088
0.35261
0.351931
0.35324
0.361477
0.369368
0.369845
0.36438
0.358101
0.354916
0.351166
0.347947
0.357632
0.3677
0.377087
0.394248
0.408666
0.413899
0.411178
0.403622
0.399585
0.408154
0.408471
0.411604
0.410553
0.404258
0.392503
0.378587
0.361659
0.351899
0.349558
0.345949
0.342477
0.344577
0.355138
0.367546
0.366631
0.357189
0.349013
0.344787
0.34281
0.342754
0.349769
0.359159
0.375298
0.399667
0.421064
0.424771
0.416319
0.405383
0.404121
0.407583
0.407154
0.414618
0.417323
0.412953
0.396967
0.378332
0.359677
0.350154
0.346869
0.343436
0.338365
0.341964
0.351906
0.365138
0.362109
0.351265
0.340521
0.335005
0.336247
0.338154
0.343676
0.352848
0.371105
0.400626
0.428759
0.433397
0.422128
0.408344
0.405805
0.406356
0.408542
0.419411
0.425522
0.419512
0.401006
0.379681
0.36126
0.350258
0.34338
0.34165
0.33934
0.343785
0.352455
0.365358
0.361106
0.349987
0.336131
0.327436
0.329424
0.330888
0.339469
0.350088
0.367929
0.398026
0.428136
0.437981
0.428214
0.414969
0.409647
0.409703
0.411515
0.42235
0.429065
0.417528
0.398762
0.381618
0.364086
0.350769
0.340572
0.340693
0.343328
0.346645
0.355242
0.368041
0.364912
0.353408
0.335845
0.323243
0.322158
0.323511
0.33565
0.351083
0.368578
0.394435
0.422553
0.436553
0.429874
0.420433
0.417365
0.413768
0.413483
0.422072
0.427369
0.408281
0.393005
0.382213
0.366628
0.351438
0.339384
0.340304
0.346529
0.348759
0.359308
0.372795
0.370814
0.356962
0.337332
0.322878
0.317753
0.317659
0.331925
0.353129
0.370625
0.392195
0.417401
0.429658
0.426676
0.419571
0.423174
0.416291
0.414743
0.421687
0.423874
0.399655
0.387736
0.381362
0.368158
0.352941
0.339855
0.338195
0.346507
0.351954
0.365076
0.379393
0.375816
0.358266
0.340076
0.324281
0.316059
0.315626
0.330552
0.354669
0.372731
0.392189
0.411971
0.421128
0.421903
0.418029
0.422633
0.417544
0.414736
0.421875
0.422264
0.396525
0.387154
0.381562
0.367955
0.352514
0.340156
0.334974
0.342531
0.355272
0.369151
0.383617
0.37693
0.358322
0.346423
0.330016
0.318041
0.317787
0.331826
0.356617
0.376346
0.393875
0.408581
0.412057
0.41727
0.41738
0.420595
0.419824
0.415295
0.418983
0.418336
0.397394
0.392218
0.384558
0.367315
0.349554
0.339938
0.334092
0.33866
0.353991
0.371425
0.37975
0.373678
0.360717
0.354551
0.338673
0.323351
0.323474
0.336199
0.361122
0.383302
0.397805
0.408241
0.407683
0.413795
0.418951
0.420338
0.421797
0.416852
0.415418
0.410855
0.398488
0.391194
0.384893
0.367752
0.347566
0.340528
0.336011
0.338243
0.35127
0.370224
0.379637
0.369858
0.359194
0.356349
0.343578
0.33027
0.331408
0.343504
0.368667
0.392478
0.404132
0.411068
0.408419
0.412976
0.421763
0.423076
0.422521
0.41612
0.411451
0.404394
0.397524
0.381685
0.376193
0.365504
0.349383
0.344615
0.34142
0.342948
0.354098
0.366548
0.382387
0.374227
0.356136
0.349298
0.343534
0.336227
0.339716
0.352151
0.376143
0.400018
0.411429
0.415451
0.413173
0.416886
0.426585
0.428012
0.42624
0.416022
0.405881
0.39801
0.392612
0.373006
0.362327
0.357011
0.3522
0.351125
0.350722
0.351514
0.361246
0.372803
0.380081
0.376527
0.353526
0.340008
0.339712
0.339522
0.346767
0.360931
0.380006
0.400123
0.412304
0.417855
0.417914
0.422291
0.432652
0.433369
0.432862
0.419897
0.402591
0.389584
0.38127
0.360717
0.347033
0.341586
0.345876
0.351264
0.353631
0.35482
0.365375
0.378424
0.37948
0.374234
0.350111
0.33172
0.336366
0.343724
0.353748
0.364741
0.374349
0.389643
0.401746
0.410554
0.415087
0.422834
0.433037
0.437332
0.445892
0.422427
0.396955
0.375487
0.363988
0.351132
0.340789
0.335633
0.335819
0.342643
0.348059
0.351065
0.360637
0.371332
0.372728
0.36633
0.34396
0.329058
0.338234
0.349307
0.358641
0.366181
0.368765
0.377885
0.390959
0.398364
0.401137
0.408597
0.423532
0.433682
0.438009
0.415749
0.393213
0.375665
0.364651
0.355839
0.34692
0.341571
0.336645
0.33771
0.341978
0.344961
0.353564
0.361009
0.363909
0.358011
0.340236
0.331455
0.34387
0.359772
0.369169
0.371652
0.368222
0.372181
0.384745
0.390969
0.391694
0.394585
0.406361
0.416569
0.418821
0.399825
0.389588
0.384593
0.378886
0.369779
0.359591
0.353564
0.348974
0.347632
0.347474
0.349231
0.353857
0.358573
0.359852
0.352395
0.338548
0.33491
0.349452
0.370536
0.379678
0.37635
0.369138
0.370037
0.381647
0.388589
0.388617
0.388038
0.394655
0.402253
0.410322
0.394718
0.388849
0.389444
0.387922
0.380971
0.370771
0.364212
0.363724
0.365604
0.364172
0.363407
0.361833
0.362597
0.359815
0.350014
0.3388
0.33827
0.35452
0.377274
0.384853
0.377792
0.36961
0.370357
0.379748
0.387471
0.388595
0.387477
0.391543
0.397558
0.408654
0.392853
0.388854
0.391585
0.393146
0.38914
0.379372
0.368703
0.373094
0.381346
0.382999
0.379411
0.373055
0.37084
0.363975
0.35078
0.339422
0.342863
0.3606
0.380358
0.385253
0.377406
0.370196
0.370987
0.377679
0.386689
0.390169
0.390734
0.392832
0.398632
0.407486
0.391401
0.388794
0.391859
0.39616
0.394803
0.386604
0.374858
0.377443
0.389761
0.396303
0.393516
0.386305
0.381781
0.370247
0.352046
0.340995
0.348494
0.367864
0.383456
0.383651
0.376824
0.369992
0.371478
0.376574
0.385119
0.392146
0.395913
0.398665
0.403766
0.407001
0.390437
0.388182
0.390129
0.394408
0.395929
0.390661
0.382165
0.381295
0.394549
0.405749
0.406438
0.399657
0.391927
0.37547
0.354064
0.345191
0.355002
0.375916
0.388296
0.383903
0.375551
0.369595
0.374135
0.377599
0.384435
0.394051
0.401019
0.405556
0.41048
0.408574
0.39411
0.389377
0.38921
0.391986
0.393723
0.391809
0.387695
0.386371
0.397946
0.413087
0.417427
0.411271
0.399846
0.37889
0.356579
0.352056
0.362664
0.3844
0.39429
0.385797
0.374058
0.370018
0.376614
0.378099
0.38432
0.395405
0.406373
0.413101
0.41687
0.411082
0.401482
0.393712
0.390958
0.393831
0.394416
0.393318
0.392352
0.389653
0.399589
0.418446
0.425243
0.420578
0.407129
0.383812
0.361266
0.361827
0.371889
0.390986
0.399063
0.387059
0.372771
0.369223
0.375839
0.378837
0.385542
0.395963
0.409901
0.42018
0.422003
0.413841
0.407342
0.39956
0.394962
0.396427
0.396551
0.396337
0.395991
0.392352
0.399407
0.420173
0.430917
0.42777
0.415925
0.393686
0.37215
0.372959
0.38177
0.394058
0.399991
0.386102
0.370371
0.366013
0.372119
0.377887
0.38581
0.396229
0.411113
0.422879
0.42474
0.415422
0.41076
0.403225
0.398698
0.398954
0.399328
0.399365
0.398832
0.395742
0.398092
0.417421
0.433627
0.433075
0.42409
0.406849
0.387495
0.38545
0.391487
0.394886
0.392626
0.37946
0.365776
0.361041
0.365754
0.374979
0.384488
0.395931
0.410133
0.421254
0.426096
0.416018
0.412745
0.405744
0.40162
0.400053
0.3991
0.399228
0.398511
0.396775
0.398428
0.415012
0.430722
0.436159
0.430366
0.418189
0.402473
0.398521
0.401409
0.39286
0.377674
0.369943
0.358923
0.354253
0.357518
0.368838
0.381168
0.393917
0.408383
0.417997
0.42544
0.416611
0.414975
0.409151
0.403907
0.398971
0.395051
0.394939
0.394828
0.395701
0.399122
0.415196
0.42942
0.436795
0.435949
0.42591
0.413056
0.408965
0.406264
0.386724
0.36482
0.359844
0.352956
0.34836
0.349604
0.36023
0.37618
0.391192
0.407218
0.416439
0.423215
0.418825
0.417357
0.413492
0.404942
0.394403
0.387351
0.388553
0.390298
0.394163
0.400084
0.416744
0.432302
0.440352
0.442326
0.432203
0.418628
0.411994
0.400405
0.378989
0.357363
0.349369
0.348482
0.34421
0.344682
0.352968
0.370477
0.389399
0.407886
0.416343
0.421276
0.421669
0.419185
0.41562
0.403121
0.389086
0.379123
0.377787
0.382022
0.38867
0.399471
0.417299
0.436602
0.446263
0.448959
0.437202
0.421825
0.410128
0.390618
0.368529
0.35033
0.340519
0.342904
0.341787
0.342102
0.34891
0.365163
0.388248
0.41445
0.418012
0.420872
0.423563
0.41791
0.413318
0.399209
0.383203
0.370668
0.364435
0.366884
0.37484
0.393536
0.416266
0.44108
0.452125
0.453405
0.440186
0.42201
0.405949
0.381038
0.358479
0.343112
0.333114
0.335464
0.33845
0.339947
0.346706
0.362314
0.390399
0.417101
0.420062
0.422387
0.42016
0.410945
0.405056
0.388865
0.372501
0.36243
0.355392
0.353925
0.36314
0.385668
0.415114
0.445315
0.455617
0.455105
0.443036
0.421877
0.400996
0.373329
0.351742
0.336283
0.327349
0.328958
0.332632
0.336584
0.343599
0.357934
0.387862
0.415565
0.420629
0.424964
0.408687
0.395263
0.386151
0.366381
0.35621
0.349262
0.344475
0.342022
0.350942
0.373405
0.412679
0.444821
0.454276
0.456124
0.445853
0.42383
0.396438
0.367516
0.347486
0.330966
0.323325
0.324102
0.327585
0.333885
0.340803
0.348485
0.378421
0.411239
0.420344
0.427505
0.393773
0.376284
0.36623
0.35009
0.339388
0.331872
0.336144
0.341974
0.352178
0.367873
0.39668
0.434768
0.450115
0.456607
0.446861
0.427611
0.388421
0.361643
0.345202
0.326153
0.320016
0.320947
0.325506
0.335431
0.339996
0.341158
0.366938
0.401403
0.417672
0.426359
0.375711
0.358512
0.350427
0.335177
0.326582
0.326002
0.336553
0.346021
0.359027
0.372955
0.385841
0.413693
0.443853
0.454727
0.445568
0.42242
0.380814
0.357494
0.341195
0.322207
0.316885
0.318941
0.326143
0.340343
0.339572
0.338134
0.35561
0.389745
0.408691
0.42437
0.360936
0.353281
0.349628
0.336553
0.325084
0.32421
0.337242
0.350342
0.366092
0.379204
0.3848
0.401987
0.430995
0.449384
0.439693
0.412754
0.379031
0.352649
0.336598
0.322561
0.315702
0.317888
0.328682
0.343764
0.34047
0.338732
0.348012
0.378123
0.402712
0.423816
0.355907
0.356483
0.352917
0.334734
0.313687
0.318417
0.335856
0.353091
0.372118
0.385753
0.386791
0.397659
0.418459
0.441781
0.429785
0.408179
0.381359
0.350881
0.337111
0.326722
0.319001
0.320442
0.334701
0.345343
0.341182
0.339203
0.344612
0.368731
0.400096
0.424121
0.355935
0.360194
0.351344
0.31783
0.29947
0.302234
0.321107
0.345754
0.369455
0.384563
0.383292
0.393177
0.412372
0.433716
0.425951
0.410975
0.387767
0.352393
0.339358
0.333083
0.326691
0.329309
0.340912
0.345235
0.341089
0.33834
0.341974
0.362886
0.399662
0.425511
0.357845
0.36139
0.339329
0.305322
0.293351
0.295228
0.305892
0.328026
0.355772
0.373558
0.378835
0.389968
0.410193
0.429946
0.428709
0.418251
0.394909
0.356248
0.343646
0.340626
0.335088
0.3371
0.342895
0.342349
0.338609
0.336651
0.33871
0.356519
0.403706
0.42933
0.360339
0.358072
0.326773
0.299504
0.292328
0.29428
0.300961
0.31247
0.333622
0.362038
0.377977
0.390188
0.410656
0.430137
0.43124
0.423427
0.39454
0.358261
0.345916
0.34354
0.338251
0.335257
0.333514
0.331746
0.329238
0.330613
0.336198
0.351863
0.400817
0.430009
0.360533
0.35278
0.318336
0.29782
0.291624
0.292396
0.298298
0.306292
0.322231
0.353537
0.374683
0.389358
0.409213
0.428303
0.430159
0.422964
0.387901
0.355941
0.343683
0.339918
0.333313
0.323826
0.317429
0.314284
0.313848
0.31937
0.332023
0.350177
0.392826
0.425043
0.359204
0.347625
0.314815
0.296735
0.288895
0.288329
0.29491
0.303632
0.315807
0.343165
0.369986
0.386067
0.405369
0.424535
0.42692
0.417643
0.382246
0.352812
0.340984
0.335126
0.328685
0.318326
0.310089
0.305688
0.304642
0.307472
0.320391
0.346865
0.386394
0.417902
0.357896
0.344148
0.312777
0.294076
0.285899
0.285892
0.292938
0.303197
0.314202
0.332844
0.364475
0.382473
0.401953
0.421348
0.425441
0.41466
0.381271
0.353306
0.342713
0.336373
0.330762
0.322893
0.314495
0.30894
0.306076
0.305691
0.311498
0.337388
0.381709
0.411813
0.355738
0.340628
0.311101
0.291953
0.284629
0.28507
0.292976
0.303832
0.316163
0.330115
0.356631
0.38071
0.40016
0.420637
0.426691
0.41596
0.384029
0.357376
0.348392
0.34214
0.335976
0.329816
0.321614
0.314891
0.310153
0.308124
0.310467
0.329988
0.374016
0.407435
0.352846
0.336745
0.310062
0.291234
0.284164
0.285195
0.293801
0.305204
0.318287
0.333736
0.352716
0.380894
0.401203
0.422183
0.429211
0.4185
0.387906
0.362376
0.355199
0.348841
0.341371
0.336513
0.329392
0.321152
0.31463
0.311738
0.313324
0.328007
0.366089
0.402849
0.350567
0.33498
0.311093
0.292014
0.286008
0.286756
0.295731
0.30748
0.318666
0.335079
0.352781
0.382083
0.404268
0.425364
0.431669
0.420166
0.392419
0.367749
0.361241
0.355344
0.347537
0.342656
0.33648
0.32675
0.319251
0.316939
0.318114
0.330612
0.359709
0.398409
0.348868
0.334403
0.315298
0.295975
0.289811
0.29027
0.299324
0.310851
0.32049
0.334797
0.352891
0.383665
0.407677
0.42986
0.434515
0.421162
0.395976
0.374418
0.367748
0.361911
0.354446
0.348497
0.341274
0.331155
0.323878
0.32198
0.323618
0.334469
0.354363
0.391467
0.346699
0.333566
0.319163
0.303189
0.296236
0.296581
0.304695
0.3149
0.324077
0.337306
0.353165
0.382125
0.411755
0.43546
0.438348
0.423738
0.400292
0.381533
0.374671
0.368743
0.361707
0.353751
0.343872
0.334965
0.32846
0.325207
0.327911
0.33793
0.347775
0.378247
0.344272
0.332992
0.321535
0.311188
0.306218
0.305833
0.311751
0.319849
0.328337
0.341009
0.356034
0.382043
0.415881
0.441027
0.442888
0.427527
0.405188
0.38923
0.382097
0.375852
0.368063
0.356211
0.345815
0.339056
0.332108
0.328176
0.331429
0.341425
0.344959
0.363217
0.342179
0.332109
0.32444
0.319485
0.316341
0.315312
0.319606
0.325226
0.332478
0.344977
0.36048
0.385964
0.420322
0.446001
0.44683
0.431033
0.410676
0.396964
0.389699
0.382195
0.371023
0.357987
0.350066
0.344289
0.337459
0.332635
0.337499
0.344165
0.34282
0.352912
0.34043
0.329896
0.329406
0.326826
0.325252
0.323825
0.326035
0.329895
0.336808
0.34925
0.366226
0.39344
0.427803
0.450466
0.450275
0.433048
0.415905
0.404715
0.396488
0.386908
0.373465
0.361758
0.354914
0.349309
0.343576
0.339765
0.345318
0.348684
0.340902
0.346836
0.336827
0.330206
0.334951
0.334215
0.333048
0.33013
0.330068
0.333639
0.340887
0.353878
0.372969
0.400647
0.435096
0.454727
0.453769
0.436578
0.419749
0.411026
0.402484
0.390712
0.376856
0.367365
0.359512
0.353245
0.34811
0.346064
0.35408
0.354503
0.343141
0.345208
0.331868
0.333148
0.341167
0.34003
0.337361
0.332772
0.332309
0.33671
0.344261
0.358591
0.379157
0.405143
0.440634
0.459154
0.457778
0.442401
0.422894
0.415691
0.407948
0.394377
0.381654
0.372925
0.363793
0.356369
0.350939
0.349935
0.36067
0.3612
0.350813
0.348655
0.33227
0.338248
0.34471
0.341656
0.338651
0.334149
0.33511
0.34032
0.347979
0.362412
0.384332
0.409192
0.443791
0.462839
0.460315
0.442175
0.426704
0.419704
0.412335
0.397988
0.386615
0.376857
0.36757
0.359109
0.352949
0.35239
0.36434
0.366392
0.360878
0.353022
0.337153
0.340181
0.344222
0.340894
0.339707
0.338042
0.339515
0.344835
0.352894
0.365662
0.383585
0.409108
0.443308
0.462933
0.456372
0.443643
0.431893
0.425045
0.415491
0.401431
0.389903
0.379768
0.370952
0.361686
0.354386
0.35366
0.365848
0.369924
0.365273
0.356996
0.340342
0.33804
0.342879
0.339215
0.343299
0.344358
0.344558
0.349286
0.358125
0.370408
0.384503
0.40213
0.431783
0.455167
0.454273
0.447477
0.438952
0.431881
0.420047
0.403848
0.391911
0.382797
0.373676
0.363606
0.35514
0.35318
0.36479
0.371416
0.366024
0.360062
0.34221
0.337809
0.34077
0.34281
0.348975
0.35292
0.351658
0.353532
0.362293
0.374865
0.388362
0.403298
0.426423
0.446913
0.453873
0.451722
0.446647
0.439548
0.424003
0.4051
0.394272
0.385782
0.375829
0.364972
0.355135
0.3523
0.361351
0.37105
0.365369
0.360966
0.343809
0.33555
0.348108
0.351722
0.35676
0.360365
0.360148
0.358427
0.365827
0.378757
0.392451
0.407338
0.427061
0.442483
0.451243
0.456224
0.45387
0.445284
0.426487
0.406951
0.397143
0.38836
0.378283
0.367516
0.356885
0.351982
0.358623
0.365775
0.362913
0.360304
0.343909
0.342133
0.358322
0.36413
0.365901
0.365756
0.365224
0.363961
0.370823
0.383841
0.39704
0.412288
0.429847
0.442058
0.451119
0.458304
0.459017
0.449659
0.429293
0.409731
0.399866
0.39052
0.381307
0.372089
0.361677
0.355704
0.3575
0.361743
0.357815
0.358713
0.345074
0.353363
0.369173
0.374816
0.372732
0.369526
0.368597
0.368924
0.377221
0.390354
0.403101
0.417954
0.433402
0.443134
0.452134
0.459849
0.462955
0.453928
0.432324
0.412486
0.401768
0.392455
0.384838
0.377113
0.36797
0.362436
0.360128
0.35979
0.356126
0.357365
0.349886
0.364924
0.376936
0.380336
0.377486
0.372827
0.371406
0.373336
0.382996
0.397137
0.41046
0.424512
0.43756
0.445688
0.453834
0.461363
0.465895
0.457908
0.43494
0.414171
0.403261
0.394828
0.388101
0.381111
0.373597
0.369698
0.366125
0.359994
0.355687
0.35786
0.357015
0.37314
0.381344
0.384128
0.382665
0.378114
0.375633
0.377943
0.388311
0.403907
0.418188
0.431584
0.442055
0.449153
0.456056
0.463489
0.468237
0.460505
0.436108
0.415457
0.405573
0.397768
0.391063
0.384189
0.377809
0.376256
0.373354
0.36414
0.357019
0.359479
0.363852
0.378514
0.38445
0.388471
0.389395
0.384965
0.380648
0.382012
0.394437
0.411652
0.426658
0.439082
0.447156
0.453591
0.459102
0.465737
0.469626
0.460894
0.436857
0.41834
0.409006
0.40091
0.393651
0.38673
0.381932
0.382287
0.378956
0.369698
0.361103
0.362462
0.370412
0.381782
0.387604
0.3917
0.392289
0.388051
0.384031
0.386375
0.401779
0.420335
0.435269
0.446229
0.452465
0.45826
0.462921
0.468429
0.47099
0.45869
0.438764
0.423079
0.413558
0.404723
0.396648
0.389483
0.386235
0.386647
0.383143
0.374929
0.366448
0.366708
0.375654
0.383882
0.388894
0.391846
0.392284
0.388153
0.385006
0.391484
0.409869
0.428896
0.443078
0.452468
0.457298
0.462311
0.466352
0.470763
0.471782
0.457438
0.440497
0.428141
0.418303
0.408866
0.399885
0.392524
0.389363
0.389024
0.386376
0.379326
0.373119
0.371685
0.378137
0.384452
0.388215
0.391595
0.391708
0.387816
0.387339
0.397591
0.418066
0.436522
0.449654
0.457622
0.460879
0.464452
0.467713
0.472487
0.471891
0.457007
0.442234
0.430782
0.420868
0.411337
0.401776
0.394771
0.391418
0.391111
0.389937
0.383587
0.378155
0.375739
0.37953
0.383731
0.387998
0.391821
0.391176
0.388251
0.391052
0.404262
0.42596
0.443
0.454798
0.461641
0.464073
0.46576
0.468231
0.472168
0.471147
0.455886
0.44284
0.431186
0.421063
0.412272
0.403561
0.397136
0.39345
0.392884
0.392264
0.387144
0.381237
0.378066
0.380032
0.384569
0.389723
0.39264
0.39018
0.389569
0.395664
0.411426
0.433438
0.44935
0.459184
0.464652
0.466755
0.467578
0.468634
0.469715
0.46872
0.454317
0.443019
0.431452
0.421275
0.413471
0.406154
0.399845
0.395731
0.394235
0.39281
0.388841
0.383063
0.379064
0.381122
0.386265
0.391852
0.391235
0.390454
0.392406
0.4018
0.418592
0.440559
0.455633
0.463519
0.467354
0.469806
0.470601
0.47151
0.470777
0.46707
0.454085
0.444194
0.433464
0.423637
0.416203
0.409407
0.402866
0.398276
0.396067
0.392517
0.388269
0.383418
0.380008
0.383306
0.388968
0.391836
0.390942
0.393305
0.396726
0.407836
0.42554
0.447571
0.4618
0.46825
0.471222
0.473535
0.474875
0.476069
0.475161
0.467658
0.455276
0.447336
0.438171
0.428922
0.420158
0.412192
0.405107
0.399417
0.396155
0.392014
0.387875
0.381934
0.379579
0.386286
0.388526
0.392936
0.394129
0.398214
0.402522
0.412561
0.432084
0.454079
0.467734
0.47327
0.47514
0.477509
0.479531
0.481167
0.480314
0.470113
0.456447
0.451235
0.443234
0.433655
0.423141
0.413402
0.40471
0.396669
0.392296
0.389019
0.386186
0.379545
0.377499
0.388379
0.390084
0.397302
0.399893
0.402875
0.406626
0.416183
0.436132
0.457803
0.471809
0.477151
0.478648
0.481292
0.483786
0.485586
0.484284
0.472512
0.456525
0.451583
0.444524
0.434155
0.422551
0.411597
0.400379
0.389405
0.383361
0.381326
0.381676
0.37612
0.374313
0.391395
0.394128
0.40242
0.404801
0.405443
0.407251
0.416421
0.436018
0.458364
0.473716
0.479006
0.480738
0.483546
0.486176
0.488294
0.486249
0.473479
0.456057
0.445848
0.439212
0.428235
0.414692
0.399287
0.386627
0.378563
0.374574
0.3729
0.374309
0.370512
0.370916
0.395844
0.398528
0.406027
0.405376
0.403724
0.404891
0.415515
0.434797
0.457772
0.473945
0.479631
0.480908
0.483689
0.486675
0.489373
0.48601
0.472479
0.454761
0.439492
0.428393
0.415067
0.399742
0.386814
0.378289
0.372703
0.370221
0.369023
0.369706
0.363688
0.365455
0.400406
0.40149
0.405345
0.400478
0.399193
0.403714
0.41599
0.43499
0.457546
0.47264
0.479416
0.480173
0.482337
0.485823
0.489374
0.48418
0.469424
0.451312
0.433806
0.4204
0.407782
0.395657
0.384139
0.375708
0.370022
0.3678
0.368075
0.368149
0.360893
0.359139
0.403315
0.40257
0.402112
0.396764
0.398174
0.404741
0.418658
0.438024
0.457825
0.470027
0.476365
0.477603
0.479366
0.48382
0.487737
0.479652
0.463497
0.445443
0.428149
0.416094
0.405853
0.395189
0.383804
0.374064
0.367804
0.366323
0.367829
0.367205
0.361191
0.356114
0.405046
0.401613
0.400218
0.396952
0.399958
0.409292
0.425026
0.442903
0.458715
0.468222
0.473338
0.475337
0.477655
0.482833
0.485634
0.473758
0.456043
0.437954
0.421694
0.412725
0.404382
0.394896
0.383732
0.372613
0.365733
0.364736
0.366302
0.365705
0.361475
0.355626
0.407013
0.401036
0.402199
0.399285
0.405247
0.417743
0.433086
0.449733
0.461824
0.468985
0.472655
0.47493
0.477701
0.482531
0.483753
0.468274
0.44971
0.432353
0.417974
0.409949
0.40233
0.394091
0.382983
0.37103
0.364144
0.3632
0.363483
0.364041
0.36071
0.356229
0.408964
0.405973
0.407217
0.405124
0.413579
0.42744
0.440934
0.456078
0.46592
0.471819
0.475034
0.477289
0.479388
0.482983
0.481458
0.462542
0.44318
0.428294
0.417101
0.409872
0.402771
0.394177
0.382339
0.369983
0.363368
0.361508
0.361138
0.361998
0.359865
0.356616
0.41092
0.414127
0.415879
0.412642
0.421002
0.435009
0.447533
0.459808
0.467425
0.473366
0.477347
0.479609
0.482086
0.484378
0.47864
0.457178
0.43752
0.425397
0.415588
0.408218
0.401704
0.393906
0.382408
0.369878
0.362326
0.359914
0.35993
0.360756
0.358641
0.35647
0.413592
0.422227
0.42231
0.417348
0.424133
0.436374
0.449755
0.461777
0.467708
0.474
0.478625
0.481013
0.483047
0.483372
0.472651
0.448812
0.430359
0.421073
0.412293
0.405159
0.399318
0.392305
0.381393
0.369796
0.36218
0.358109
0.358808
0.360475
0.357741
0.355738
0.416953
0.426811
0.424351
0.42079
0.426094
0.436299
0.449377
0.459364
0.465742
0.473776
0.479008
0.481413
0.482692
0.480827
0.464712
0.440036
0.423517
0.416155
0.408545
0.401813
0.396555
0.390366
0.380844
0.371626
0.364868
0.359788
0.359123
0.360057
0.357726
0.354187
0.413255
0.419719
0.420091
0.419092
0.424951
0.435427
0.447686
0.455149
0.463444
0.472724
0.478493
0.480573
0.480553
0.474875
0.454069
0.431816
0.418097
0.411482
0.404905
0.398638
0.393647
0.387782
0.380621
0.374208
0.369407
0.363689
0.360944
0.360076
0.357662
0.353259
0.410588
0.414955
0.415251
0.414797
0.420415
0.430726
0.444458
0.450999
0.462087
0.471045
0.476922
0.478496
0.476238
0.465903
0.441385
0.424155
0.413075
0.405922
0.400325
0.394868
0.390419
0.385242
0.379832
0.376565
0.37336
0.367972
0.36351
0.361595
0.357978
0.353391
0.412333
0.414105
0.414026
0.411313
0.413113
0.422633
0.439502
0.451431
0.461571
0.469745
0.475096
0.473575
0.468339
0.455461
0.429662
0.417464
0.408575
0.400232
0.395205
0.39085
0.386249
0.382236
0.377697
0.377224
0.375621
0.371726
0.367187
0.364686
0.359798
0.354503
0.413375
0.413624
0.412078
0.404778
0.405388
0.41346
0.431909
0.450952
0.461385
0.469187
0.473097
0.468695
0.462204
0.44594
0.421246
0.41241
0.404856
0.395544
0.390315
0.386535
0.381691
0.377619
0.375041
0.376144
0.376379
0.374486
0.370844
0.369094
0.363092
0.357039
0.413696
0.411247
0.405218
0.400823
0.401978
0.407339
0.421735
0.444983
0.458685
0.467547
0.47123
0.465876
0.457382
0.437546
0.417211
0.409728
0.401652
0.391748
0.385591
0.381392
0.377086
0.373698
0.372252
0.373913
0.375577
0.376318
0.37537
0.372895
0.367249
0.360888
0.412858
0.402935
0.400941
0.401069
0.402924
0.405666
0.414901
0.436851
0.456321
0.466592
0.469748
0.4626
0.451899
0.429403
0.414418
0.407355
0.397591
0.388071
0.382117
0.377608
0.373538
0.371055
0.369663
0.371207
0.374132
0.377658
0.378476
0.376866
0.370781
0.366032
0.410699
0.39704
0.400508
0.40341
0.407273
0.408496
0.414365
0.431161
0.455381
0.466843
0.46879
0.45889
0.445064
0.421784
0.411293
0.404028
0.393647
0.385979
0.380269
0.375305
0.370415
0.367615
0.366206
0.368608
0.372535
0.377041
0.378988
0.379264
0.374538
0.37065
0.409409
0.395326
0.403107
0.407482
0.413219
0.413645
0.41773
0.431354
0.452251
0.466274
0.467121
0.454782
0.437617
0.415896
0.407825
0.399869
0.391408
0.384356
0.378216
0.372648
0.367454
0.363863
0.362348
0.365008
0.36902
0.373304
0.376189
0.378908
0.376269
0.373433
0.41053
0.396493
0.408395
0.413562
0.421096
0.420572
0.422982
0.435376
0.45197
0.464483
0.464512
0.449489
0.430669
0.412442
0.404525
0.396887
0.389368
0.382203
0.376195
0.371053
0.365764
0.361724
0.359911
0.361617
0.363565
0.366773
0.370137
0.374563
0.374027
0.373249
0.414351
0.401423
0.416454
0.422366
0.430852
0.42969
0.430661
0.441174
0.454854
0.463801
0.461797
0.444431
0.425757
0.410659
0.401767
0.394614
0.387531
0.381098
0.375473
0.370714
0.365504
0.361459
0.359399
0.359347
0.359324
0.36011
0.361521
0.366703
0.367505
0.368982
0.421122
0.411701
0.427966
0.434837
0.443097
0.441228
0.440202
0.447871
0.458974
0.464556
0.460008
0.440131
0.422716
0.409606
0.399857
0.39278
0.386623
0.380708
0.375404
0.37104
0.365153
0.361363
0.359402
0.358539
0.357304
0.355518
0.35539
0.359582
0.359133
0.361179
0.432503
0.426743
0.442048
0.450254
0.456611
0.453912
0.449911
0.455088
0.462607
0.466295
0.457722
0.435907
0.4203
0.407938
0.397863
0.391145
0.385661
0.380084
0.375061
0.370558
0.364822
0.361159
0.359421
0.358452
0.356429
0.35461
0.353644
0.355231
0.353778
0.351551
0.443221
0.440859
0.45413
0.461375
0.466132
0.461852
0.455902
0.459252
0.463332
0.46533
0.453644
0.430114
0.415317
0.402939
0.392932
0.385991
0.380512
0.37538
0.370471
0.366078
0.361528
0.358073
0.356758
0.355505
0.35374
0.352531
0.351023
0.350562
0.346941
0.340513
0.444385
0.442214
0.454259
0.460145
0.463521
0.458521
0.451918
0.454094
0.454665
0.455069
0.441902
0.416543
0.402103
0.389681
0.379107
0.370294
0.364544
0.36004
0.355035
0.351873
0.348794
0.346619
0.345619
0.343998
0.342037
0.340513
0.338722
0.336844
0.330995
0.321458
0.448989
0.445141
0.456479
0.460558
0.463421
0.459038
0.453295
0.453763
0.451238
0.449696
0.434103
0.409919
0.395939
0.381007
0.366426
0.356896
0.35184
0.349192
0.347315
0.345499
0.342939
0.341265
0.340094
0.338553
0.336326
0.334174
0.331556
0.328441
0.321116
0.31069
0.449195
0.446991
0.455609
0.460545
0.463665
0.46032
0.456126
0.453939
0.446672
0.439788
0.419472
0.394317
0.378038
0.365528
0.354444
0.347799
0.345008
0.343648
0.342355
0.340871
0.338551
0.336894
0.335846
0.33441
0.331734
0.329372
0.326544
0.323015
0.314679
0.304667
0.448738
0.446633
0.456718
0.461901
0.464147
0.462333
0.456871
0.449383
0.43746
0.427512
0.403711
0.379164
0.364769
0.353288
0.344682
0.343022
0.340838
0.339346
0.337458
0.335948
0.333855
0.332337
0.331384
0.329775
0.326704
0.323968
0.32088
0.317835
0.309619
0.299622
0.451632
0.449753
0.458732
0.463335
0.466045
0.464253
0.456048
0.444491
0.430317
0.419923
0.39407
0.370527
0.356821
0.344906
0.338056
0.337067
0.335499
0.333831
0.331918
0.330588
0.3286
0.327439
0.326588
0.324712
0.321443
0.318202
0.314254
0.311052
0.304022
0.294543
0.453491
0.454938
0.462936
0.467077
0.469484
0.465835
0.455302
0.440262
0.424386
0.413303
0.385418
0.363453
0.349981
0.338289
0.333646
0.330286
0.328457
0.326777
0.325348
0.324458
0.322809
0.32198
0.321305
0.318906
0.315144
0.311752
0.306931
0.302662
0.296076
0.288252
0.450555
0.456123
0.468649
0.472976
0.472279
0.465529
0.453858
0.436133
0.418949
0.405909
0.376871
0.356788
0.342968
0.332543
0.328994
0.325057
0.321806
0.319734
0.318668
0.31781
0.316619
0.316514
0.316099
0.31326
0.30883
0.304782
0.299446
0.293662
0.286619
0.280118
0.445446
0.455049
0.467821
0.473874
0.471048
0.462239
0.450955
0.431628
0.413263
0.397769
0.368906
0.350695
0.336393
0.328
0.324692
0.321084
0.316962
0.314003
0.312494
0.311354
0.310633
0.311146
0.310683
0.307652
0.302885
0.298132
0.292415
0.285682
0.277163
0.271138
0.437734
0.449589
0.462187
0.468824
0.465904
0.457448
0.446678
0.426677
0.408103
0.388863
0.362348
0.34575
0.331519
0.324913
0.321181
0.317431
0.31323
0.310072
0.308193
0.306634
0.305928
0.306558
0.305843
0.302634
0.297491
0.291912
0.285953
0.278981
0.269832
0.26254
0.425663
0.434434
0.451227