/*--------------------------------*- C++ -*----------------------------------*\
| =========                 |                                                 |
| \\      /  F ield         | OpenFOAM: The Open Source CFD Toolbox           |
|  \\    /   O peration     | Version:  v1606+                                |
|   \\  /    A nd           | Web:      www.OpenFOAM.com                      |
|    \\/     M anipulation  |                                                 |
\*---------------------------------------------------------------------------*/
FoamFile
{
    version     2.0;
    format      ascii;
    class       volScalarField;
    location    "1.7";
    object      dgdt;
}
// * * * * * * * * * * * * * * * * * * * * * * * * * * * * * * * * * * * * * //

dimensions      [0 0 -1 0 0 0 0];

internalField   nonuniform List<scalar> 
6000
(
-18.9479
-19.1927
-19.3767
-19.3182
-19.2721
-19.2064
-19.126
-17.5679
-16.6573
-17.1069
-16.8857
-16.9369
-17.0462
-17.0733
-16.9327
-16.9119
-17.0918
-17.4766
-17.2257
-19.3556
-19.4397
-19.5041
-19.5289
-19.5583
-19.5884
-19.754
-19.8953
-19.6199
-19.2859
-19.2303
-2.55693
-2.38523
-2.30361
-2.19029
-2.10058
-1.98026
-1.89653
-2.11939
-2.38302
-2.17321
-2.05145
-2.15823
-2.27695
-2.31215
-2.20182
-2.14254
-2.28454
-2.37335
-2.34573
-1.94052
-1.92497
-1.95675
-2.00668
-2.03103
-2.02388
-2.09737
-2.1708
-2.13839
-2.16866
-2.44543
-0.343069
-0.276516
-0.22189
-0.211273
-0.208045
-0.193184
-0.186913
-0.223585
-0.290732
-0.469357
-0.476468
-0.509547
-0.559838
-0.566699
-0.520982
-0.478814
-0.494457
-0.343441
-0.278967
-0.199396
-0.172281
-0.162508
-0.153289
-0.147176
-0.138791
-0.140318
-0.166855
-0.192539
-0.191985
-0.264646
-0.0713102
-0.0790051
-0.0618741
-0.0579765
-0.0598344
-0.058874
-0.0557306
-0.0591026
-0.0740625
-0.152528
-0.288353
-0.274146
-0.274404
-0.259099
-0.267291
-0.257103
-0.209893
-0.0834916
-0.0707443
-0.0597446
-0.0554213
-0.051056
-0.048072
-0.0457686
-0.0437048
-0.0447415
-0.0489953
-0.0491087
-0.0589068
-0.0786606
-0.0442205
-0.04872
-0.0446768
-0.0418007
-0.041643
-0.0435916
-0.0436824
-0.0435773
-0.0466981
-0.0586556
-0.200097
-0.173815
-0.193048
-0.177321
-0.167721
-0.156124
-0.0983594
-0.0431322
-0.0491407
-0.0477722
-0.0451372
-0.0423559
-0.0409823
-0.0397382
-0.0380928
-0.0376868
-0.0385708
-0.0388269
-0.0493263
-0.0536546
-0.0417088
-0.0425343
-0.0407837
-0.0393894
-0.0383848
-0.0371138
-0.0370136
-0.0384795
-0.0417799
-0.0450824
-0.102487
-0.158503
-0.146229
-0.157065
-0.141896
-0.0965238
-0.027259
-0.0286411
-0.0423607
-0.0446279
-0.0453112
-0.0449064
-0.0453383
-0.0445581
-0.0428298
-0.0405296
-0.0395255
-0.0402927
-0.0459676
-0.0448207
-0.0412574
-0.0410368
-0.0401342
-0.0398662
-0.039741
-0.0379692
-0.0359659
-0.0369731
-0.0393659
-0.0431724
-0.0673015
-0.160617
-0.125893
-0.143456
-0.189664
-0.13663
-0.0370341
-0.0227581
-0.035292
-0.0382176
-0.0458746
-0.0497151
-0.0506448
-0.0531699
-0.0561987
-0.0547888
-0.0509139
-0.0490134
-0.0478553
-0.0451716
-0.0483055
-0.0485373
-0.0485051
-0.0485654
-0.0486933
-0.0462032
-0.0418551
-0.0393187
-0.0400322
-0.0447245
-0.0643724
-0.129995
-0.122587
-0.121647
-0.193152
-0.195535
-0.089071
-0.0381857
-0.0380738
-0.0398233
-0.0473797
-0.0533313
-0.0542415
-0.0600083
-0.0713626
-0.0779071
-0.0731933
-0.0676291
-0.0640927
-0.0591094
-0.0599308
-0.0630911
-0.0645005
-0.0653183
-0.0633699
-0.0572633
-0.0459805
-0.0422316
-0.0416818
-0.0458655
-0.0643881
-0.11129
-0.113325
-0.104075
-0.144946
-0.191357
-0.108102
-0.0605658
-0.0541994
-0.0534951
-0.0560638
-0.0569068
-0.0561819
-0.0633877
-0.0686609
-0.0745313
-0.0768953
-0.0757425
-0.0817095
-0.0777991
-0.0564271
-0.0603304
-0.0606212
-0.0601112
-0.0573792
-0.0536013
-0.0481256
-0.0402078
-0.0434907
-0.0485296
-0.0641154
-0.100279
-0.110458
-0.0996494
-0.112408
-0.134687
-0.101731
-0.0709847
-0.0627185
-0.0603245
-0.0603589
-0.0570475
-0.0564276
-0.051008
-0.0468105
-0.0486444
-0.0537749
-0.0603721
-0.0701724
-0.0711144
-0.0411943
-0.0402071
-0.0382779
-0.0370976
-0.0368876
-0.0378565
-0.0388577
-0.0403456
-0.0418258
-0.0456928
-0.0633465
-0.0956801
-0.115485
-0.105839
-0.10533
-0.107042
-0.0909253
-0.0747173
-0.0662474
-0.0602281
-0.0568828
-0.0532747
-0.04617
-0.0386842
-0.0365668
-0.0363428
-0.0389348
-0.0422191
-0.0445828
-0.0481564
-0.0297518
-0.0288134
-0.0290839
-0.0299993
-0.0310389
-0.0324768
-0.034577
-0.036766
-0.0414441
-0.047367
-0.0671379
-0.089958
-0.110929
-0.119875
-0.113397
-0.104008
-0.0913049
-0.0791139
-0.0701116
-0.0633391
-0.0518256
-0.0409593
-0.0366545
-0.0370993
-0.0349499
-0.0367328
-0.0379586
-0.0386029
-0.0396787
-0.0397461
-0.0289122
-0.0280669
-0.0281666
-0.0286267
-0.0297573
-0.0321081
-0.0359693
-0.0409396
-0.0457974
-0.0487838
-0.0582278
-0.0757474
-0.0990884
-0.118073
-0.118554
-0.110363
-0.0982623
-0.0867991
-0.076545
-0.0674479
-0.0585552
-0.0385324
-0.0316994
-0.0362582
-0.0381447
-0.0397984
-0.0401866
-0.0398067
-0.0391531
-0.0408293
-0.0315029
-0.0299069
-0.030436
-0.0310522
-0.032507
-0.0352252
-0.0392152
-0.0445039
-0.0489238
-0.0507903
-0.0500105
-0.0481836
-0.0566186
-0.0726231
-0.0807507
-0.0825448
-0.0781564
-0.0718263
-0.0669122
-0.0652744
-0.0616887
-0.0531604
-0.0376453
-0.0376856
-0.0430697
-0.0424541
-0.0420353
-0.0419216
-0.040985
-0.0426891
-0.034127
-0.0336414
-0.0341996
-0.0349786
-0.0363233
-0.038332
-0.0410156
-0.0446494
-0.0481957
-0.0511228
-0.0469981
-0.0374491
-0.0363024
-0.0389192
-0.0391082
-0.0382115
-0.0368218
-0.0358944
-0.03536
-0.0380478
-0.0423928
-0.0490525
-0.0527934
-0.0454666
-0.0449291
-0.0438316
-0.0434553
-0.0437314
-0.0442823
-0.0425857
-0.0362069
-0.0370209
-0.03692
-0.0376047
-0.0386849
-0.0400797
-0.0416518
-0.0434955
-0.0456147
-0.0477978
-0.043581
-0.0335654
-0.0287919
-0.0269394
-0.0243239
-0.021604
-0.0201497
-0.0197855
-0.0206069
-0.0222233
-0.0263153
-0.0334724
-0.0474366
-0.0461451
-0.0430985
-0.0438017
-0.0440082
-0.0440221
-0.0433699
-0.0420697
-0.0374669
-0.0389301
-0.0383507
-0.0387428
-0.0394696
-0.0403682
-0.0413377
-0.0424388
-0.0437753
-0.0454453
-0.0427319
-0.0323047
-0.0252406
-0.0227354
-0.0206465
-0.0192178
-0.018631
-0.0193688
-0.0196413
-0.021075
-0.0215608
-0.025043
-0.0398043
-0.0436503
-0.0421243
-0.0433264
-0.0435321
-0.0428544
-0.0419095
-0.0415566
-0.0381201
-0.0395194
-0.0387148
-0.0389281
-0.0394149
-0.0401059
-0.0409116
-0.041779
-0.0428165
-0.0444367
-0.0437655
-0.0347777
-0.026036
-0.0226702
-0.0208983
-0.0193119
-0.0187485
-0.0191076
-0.0203587
-0.0208104
-0.0216171
-0.0226807
-0.0375787
-0.0440553
-0.0426812
-0.0430675
-0.0428586
-0.0418663
-0.0410092
-0.0406725
-0.0383663
-0.0392894
-0.0386312
-0.0388017
-0.0392238
-0.0398731
-0.0407
-0.0416052
-0.0426572
-0.0441336
-0.0452532
-0.0398414
-0.0313418
-0.0274703
-0.0257244
-0.0235689
-0.0206681
-0.0198048
-0.0203291
-0.0212231
-0.02172
-0.0239578
-0.0437951
-0.0452637
-0.0432827
-0.0428036
-0.0422781
-0.0412147
-0.0401704
-0.0391642
-0.0384809
-0.038834
-0.0385236
-0.0386812
-0.0391013
-0.0397607
-0.0406669
-0.0417553
-0.0430295
-0.044537
-0.0463138
-0.0454028
-0.0396136
-0.0367678
-0.0355063
-0.0322507
-0.0252137
-0.0206696
-0.0204163
-0.0210331
-0.0216014
-0.0271756
-0.050502
-0.0460214
-0.0432263
-0.0424168
-0.0416482
-0.0404292
-0.0390939
-0.0369005
-0.0386528
-0.0385384
-0.0384817
-0.0386379
-0.0390425
-0.039683
-0.0406781
-0.0419723
-0.0435298
-0.0451954
-0.0472155
-0.0488438
-0.047744
-0.0472742
-0.0481222
-0.0439874
-0.0325626
-0.024725
-0.0225481
-0.0230862
-0.0252017
-0.0362369
-0.0510145
-0.045359
-0.0425427
-0.0417016
-0.0408169
-0.0397489
-0.0381369
-0.0387782
-0.0389712
-0.0385709
-0.0385475
-0.0387376
-0.0391204
-0.0397301
-0.0409263
-0.0425752
-0.0443944
-0.045894
-0.0475863
-0.0498243
-0.0513127
-0.0528006
-0.0582637
-0.0558935
-0.0452241
-0.0362698
-0.0328688
-0.0340483
-0.0393941
-0.0570925
-0.0559816
-0.0458615
-0.0413333
-0.0408078
-0.0397306
-0.0386695
-0.038873
-0.040118
-0.0393228
-0.038805
-0.0387756
-0.0390256
-0.0394918
-0.040124
-0.041548
-0.0433975
-0.0460068
-0.0468778
-0.0476099
-0.0488376
-0.050387
-0.0537788
-0.0616096
-0.0659875
-0.0610915
-0.0561568
-0.0544248
-0.0568761
-0.0657221
-0.0777417
-0.0578703
-0.0451996
-0.0417694
-0.0409513
-0.0388904
-0.0385309
-0.0395623
-0.0388658
-0.0396447
-0.0390448
-0.0390033
-0.0393857
-0.0401877
-0.0409314
-0.0415581
-0.0476938
-0.0482464
-0.0472503
-0.0474083
-0.0471733
-0.0498855
-0.0516752
-0.0539336
-0.0634673
-0.0667548
-0.068244
-0.0699819
-0.0729692
-0.078364
-0.0653435
-0.0463447
-0.0377639
-0.0395608
-0.0396131
-0.0388054
-0.0397149
-0.0400827
-0.0399897
-0.0398568
-0.0390948
-0.0389026
-0.0393158
-0.0403633
-0.0428508
-0.0428875
-0.0412304
-0.0427841
-0.0461772
-0.0477533
-0.0486142
-0.0457566
-0.0365949
-0.0357006
-0.0438272
-0.0526953
-0.0579755
-0.0609791
-0.0615175
-0.058242
-0.0445836
-0.0350737
-0.0341705
-0.0370348
-0.0385719
-0.0394087
-0.0401912
-0.0407609
-0.0408732
-0.039859
-0.0388767
-0.038278
-0.0383537
-0.0387559
-0.0405365
-0.0367465
-0.0221528
-0.0199331
-0.0304059
-0.0390995
-0.0433647
-0.0389953
-0.0319775
-0.028057
-0.0287845
-0.0330604
-0.0375353
-0.0406572
-0.0404751
-0.0363431
-0.032469
-0.032298
-0.0351646
-0.038414
-0.0396111
-0.0397496
-0.0399381
-0.0405144
-0.0406654
-0.0396123
-0.0386291
-0.0376491
-0.0376718
-0.03883
-0.04009
-0.0315044
-0.0168106
-0.0133198
-0.0133246
-0.0201554
-0.0296462
-0.0347821
-0.03357
-0.0285508
-0.0243896
-0.0232617
-0.0238448
-0.0251565
-0.0266853
-0.0278187
-0.0303096
-0.0337384
-0.0382203
-0.0403097
-0.0402008
-0.0397097
-0.0396296
-0.0400703
-0.0400661
-0.0393009
-0.0382535
-0.0380172
-0.0384076
-0.0392996
-0.0394186
-0.034349
-0.0206637
-0.0132873
-0.0136954
-0.0132067
-0.0219093
-0.0315641
-0.0343334
-0.0312315
-0.0248702
-0.0210666
-0.0209313
-0.0209866
-0.022826
-0.0271746
-0.0325959
-0.037886
-0.0410655
-0.041373
-0.0404221
-0.0396416
-0.0393356
-0.0395407
-0.0393694
-0.0388579
-0.0389006
-0.0389608
-0.0390813
-0.0386222
-0.0392169
-0.0389474
-0.029445
-0.0144983
-0.0141011
-0.0141596
-0.0183824
-0.0287419
-0.0332794
-0.0331666
-0.0273722
-0.0217955
-0.0206266
-0.0209839
-0.0237849
-0.0303501
-0.0372988
-0.0413529
-0.0424713
-0.0415915
-0.040282
-0.0393643
-0.0389048
-0.0389428
-0.0386597
-0.0382242
-0.038514
-0.038255
-0.0383383
-0.0389441
-0.0401181
-0.0412005
-0.0374058
-0.0198592
-0.0145508
-0.0145734
-0.0165664
-0.0255506
-0.0322657
-0.0333195
-0.0303282
-0.0252606
-0.0227519
-0.02317
-0.0274473
-0.0355283
-0.0414926
-0.0432821
-0.0427885
-0.0413078
-0.0398715
-0.0388717
-0.0383235
-0.0382436
-0.0378865
-0.0370449
-0.0371893
-0.037285
-0.0376468
-0.0383446
-0.0396701
-0.0414622
-0.0414522
-0.0295761
-0.0149151
-0.0151436
-0.0161284
-0.0224928
-0.0306983
-0.0339935
-0.0334973
-0.0301018
-0.0270056
-0.0273491
-0.0322253
-0.0397306
-0.0442001
-0.0438369
-0.042328
-0.0406541
-0.0392078
-0.038203
-0.0376102
-0.0374204
-0.0370125
-0.0358995
-0.0358752
-0.0360167
-0.0364557
-0.0373058
-0.0388193
-0.0409291
-0.0426403
-0.0382943
-0.0180882
-0.0154257
-0.0168019
-0.0212888
-0.0303263
-0.0362629
-0.036495
-0.0344138
-0.0328009
-0.0339751
-0.0386912
-0.0449316
-0.0471689
-0.0441933
-0.041668
-0.0397939
-0.0383638
-0.0373914
-0.0367775
-0.0364845
-0.0360428
-0.0350148
-0.034945
-0.0349741
-0.0354099
-0.0362962
-0.0378653
-0.040217
-0.0426295
-0.0422679
-0.0253445
-0.0175063
-0.0184281
-0.0221244
-0.0318082
-0.0397046
-0.0413644
-0.0410929
-0.041361
-0.0435309
-0.0477486
-0.0517833
-0.0508493
-0.0454216
-0.0412174
-0.0389667
-0.0374748
-0.0364951
-0.0358603
-0.0354722
-0.0349994
-0.0342803
-0.0344018
-0.0340336
-0.0344167
-0.0352828
-0.0369114
-0.0393542
-0.0422693
-0.0441104
-0.0347622
-0.0226959
-0.022065
-0.0250283
-0.0359032
-0.0447626
-0.0480049
-0.0496367
-0.0512631
-0.0529253
-0.054564
-0.0550239
-0.0524513
-0.0471435
-0.0416158
-0.0383322
-0.0366829
-0.0355983
-0.0349025
-0.0344239
-0.0339121
-0.033465
-0.0347132
-0.0330453
-0.0332192
-0.0339446
-0.0358378
-0.0383049
-0.0415595
-0.0459052
-0.0444626
-0.0313377
-0.0283651
-0.0322166
-0.044649
-0.0519577
-0.0547113
-0.0566065
-0.0569756
-0.0560697
-0.0544049
-0.0522913
-0.0501055
-0.0465048
-0.0417151
-0.037851
-0.0357765
-0.0346894
-0.0338984
-0.0333445
-0.0327616
-0.0318183
-0.0345293
-0.0323041
-0.031526
-0.0318839
-0.0345117
-0.0375019
-0.0410791
-0.0489984
-0.0548398
-0.0433373
-0.0397014
-0.0465041
-0.0584354
-0.0602104
-0.0591929
-0.0588482
-0.0573588
-0.0545622
-0.051019
-0.0474274
-0.0452341
-0.0429974
-0.0403592
-0.0370523
-0.0347716
-0.0336581
-0.0327849
-0.0322343
-0.0314916
-0.0282349
-0.0287336
-0.0318701
-0.0286921
-0.0282479
-0.0313931
-0.0393465
-0.0447539
-0.0557338
-0.0697688
-0.0609314
-0.0581162
-0.0679688
-0.0739921
-0.0673246
-0.060782
-0.0575474
-0.0550155
-0.0514321
-0.0473363
-0.0435162
-0.040732
-0.0390068
-0.0374017
-0.0354923
-0.0335678
-0.0324177
-0.0314928
-0.0311536
-0.0300539
-0.0250674
-0.0229921
-0.0257491
-0.0261164
-0.0273274
-0.0279904
-0.0360687
-0.04898
-0.0661843
-0.0903218
-0.0846344
-0.0818832
-0.0889959
-0.0836068
-0.0678022
-0.0571422
-0.0527269
-0.0503222
-0.0471307
-0.0438884
-0.041041
-0.037591
-0.0354818
-0.0341224
-0.0330904
-0.0319168
-0.0309351
-0.0298909
-0.0301274
-0.0283637
-0.02459
-0.0247486
-0.0224174
-0.0228542
-0.0255362
-0.0308935
-0.0357954
-0.0485087
-0.0678674
-0.0980189
-0.101206
-0.100059
-0.0943935
-0.0761988
-0.057457
-0.052128
-0.0519903
-0.0478295
-0.044694
-0.0407958
-0.0373181
-0.0347494
-0.0326493
-0.0309993
-0.0300948
-0.0295851
-0.0290707
-0.0278106
-0.0286885
-0.0262176
-0.0285554
-0.027029
-0.025781
-0.024783
-0.024419
-0.0302088
-0.0380924
-0.0508294
-0.0693932
-0.0896135
-0.0984882
-0.094312
-0.0787745
-0.0593681
-0.0545848
-0.0579022
-0.0575789
-0.0509037
-0.0432719
-0.0383072
-0.0351682
-0.0322103
-0.0298267
-0.0281227
-0.0270161
-0.026768
-0.0269078
-0.0259464
-0.0252334
-0.0246023
-0.0332703
-0.0293619
-0.0259353
-0.0242232
-0.0242674
-0.0299495
-0.0407131
-0.0563418
-0.0735599
-0.0855263
-0.0863703
-0.0778966
-0.0648616
-0.0621081
-0.0689831
-0.0697039
-0.0630925
-0.0544731
-0.0452935
-0.0373778
-0.0328447
-0.0297261
-0.0269157
-0.0250407
-0.0240201
-0.0239426
-0.0248123
-0.024988
-0.031315
-0.0241258
-0.0293834
-0.0262931
-0.0194489
-0.018954
-0.0221634
-0.0329242
-0.0498386
-0.0716914
-0.0887955
-0.0870182
-0.0788874
-0.07221
-0.0721542
-0.0795905
-0.0830204
-0.0759908
-0.0671362
-0.0589657
-0.0496565
-0.0399895
-0.0338168
-0.0286946
-0.0240806
-0.0216201
-0.0206314
-0.0209474
-0.022593
-0.0245153
-0.0297797
-0.0241303
-0.0187752
-0.0180475
-0.0112336
-0.0136505
-0.0212307
-0.0403323
-0.06197
-0.0830792
-0.0944414
-0.085589
-0.0788822
-0.0801715
-0.08372
-0.0860305
-0.0820345
-0.0731146
-0.0646484
-0.0573228
-0.0504846
-0.0438154
-0.0380853
-0.029939
-0.0213086
-0.0179604
-0.0166648
-0.0171291
-0.0194249
-0.0231657
-0.0297406
-0.0245032
-0.00995062
-0.00869799
-0.00465951
-0.0100735
-0.0222495
-0.042181
-0.0555847
-0.0677739
-0.0746418
-0.0709362
-0.0721356
-0.08051
-0.0779553
-0.0749447
-0.0672573
-0.0579229
-0.0512553
-0.0467252
-0.043062
-0.0407668
-0.0412366
-0.0286316
-0.0188688
-0.0139464
-0.0123701
-0.0127715
-0.0149934
-0.0200616
-0.0270669
-0.0247716
-0.00263281
0.00387811
0.00255946
-0.00659611
-0.0328885
-0.0317016
-0.0320537
-0.0365009
-0.0400001
-0.0410708
-0.0468042
-0.050901
-0.0509211
-0.046265
-0.0400155
-0.0357096
-0.0327377
-0.0307642
-0.028409
-0.0319891
-0.0472283
-0.0261094
-0.0181523
-0.0101379
-0.00835819
-0.00813194
-0.00973956
-0.0138009
-0.0217281
-0.0223383
0.00818077
0.0159124
0.014119
-0.00882495
-0.0136214
-0.0073573
-0.00528676
-0.00697315
-0.0100606
-0.0118785
-0.0121533
-0.0120679
-0.0134147
-0.0168654
-0.0179042
-0.0173183
-0.0154686
-0.015854
-0.012492
-0.00976897
-0.00719942
-0.00387291
-0.00484612
-0.00577192
-0.00224561
-0.00355685
-0.00388925
-0.00644577
-0.0130588
-0.0168497
0.0102279
0.0230743
0.00398544
-0.00857602
-0.00296653
-0.000833192
-0.000440797
-0.000537826
-0.000611689
-0.000534216
-0.000419206
-0.000458643
-0.000387231
-0.000320118
-0.00130766
-0.00156258
-0.00182847
-0.00118427
-0.000512086
0.000240466
0.0003502
0.000141251
8.14669e-06
-0.000615842
-0.000747371
0.00215247
0.00213678
-0.000196992
-0.0052121
-0.011821
0.0239632
0.0232829
-0.00340598
-0.00457456
-0.000751185
-0.000203276
-0.000154696
-0.000107919
-7.07289e-06
8.61591e-05
0.000124079
0.000133576
0.000155699
0.000231009
0.000223278
0.00019807
2.22263e-05
0.000124813
8.91045e-05
9.71156e-05
0.000138951
0.000138962
0.000211259
0.000362278
0.000788653
0.00238205
0.00800499
0.00478241
0.000655972
-0.00447567
0.0191805
0.0130119
0.00200063
-0.000658673
5.78505e-05
-9.46953e-05
-0.000160952
-0.000135631
-7.22554e-05
-2.08038e-05
2.3438e-06
2.09945e-05
4.79736e-05
6.22757e-05
9.35408e-05
8.94546e-05
0.00012964
8.56191e-05
3.13593e-05
1.47242e-05
3.28334e-06
1.16675e-05
9.77753e-05
0.000367629
0.00111012
0.00173434
0.00756866
0.00506647
0.00374594
0.00235177
0.0108384
0.00988797
0.0045032
0.00172706
0.00031726
-5.96382e-05
-0.000143589
-0.000149756
-0.000120061
-8.58007e-05
-6.07069e-05
-4.18013e-05
-2.47914e-05
-3.18035e-06
-2.18424e-05
-1.64536e-06
-2.63725e-05
-1.2044e-05
-2.42074e-05
-3.3073e-05
-3.40991e-05
-2.50561e-05
3.94584e-05
0.000260204
0.00101244
0.000165538
0.000596619
0.0024574
0.0029566
0.00401731
0.0088464
0.00815951
0.00494465
0.00222543
0.000332725
-7.48263e-05
-0.000137496
-0.000143936
-0.000120999
-9.27076e-05
-7.11865e-05
-5.49373e-05
-4.03998e-05
-4.15711e-05
-2.51488e-05
-6.22564e-05
-3.42624e-05
-3.59109e-05
-3.82843e-05
-3.72777e-05
-3.42592e-05
-2.5791e-05
1.83482e-05
0.000165275
0.000695799
-0.000348091
-0.00268511
-0.00227443
-0.00137496
0.00126669
0.00755012
0.00653435
0.00444832
0.00196874
0.000149903
-0.000106219
-0.000141281
-0.000141289
-0.000116491
-8.88186e-05
-7.12913e-05
-5.93787e-05
-4.8725e-05
-3.89817e-05
-4.51447e-05
-2.85363e-05
-3.76533e-05
-3.80684e-05
-3.62017e-05
-3.29566e-05
-2.8101e-05
-2.09673e-05
7.06173e-06
0.000103187
0.000223954
-0.0014622
-0.00695958
-0.00706548
-0.00397221
0.000654056
0.00629065
0.0054077
0.00349909
0.00170916
0.000121512
-0.000118087
-0.000138354
-0.000135591
-0.000112396
-8.66914e-05
-7.27069e-05
-6.3185e-05
-5.48914e-05
-4.7878e-05
-4.26875e-05
-4.17504e-05
-4.03125e-05
-3.73768e-05
-3.33979e-05
-2.75801e-05
-1.97786e-05
-8.83364e-06
1.97454e-05
0.000110845
0.000311811
0.00104336
-0.00766849
-0.00459308
-0.00176233
0.00186201
0.00507389
0.00443304
0.00766289
-0.00148734
5.24802e-05
-7.62153e-05
-0.000120415
-0.000118385
-0.000101076
-8.22469e-05
-7.08277e-05
-6.43052e-05
-5.83375e-05
-5.5862e-05
-5.14361e-05
-4.61568e-05
-4.29993e-05
-3.89535e-05
-3.28375e-05
-2.50127e-05
-1.42973e-05
1.67988e-06
3.44742e-05
0.000120846
0.000318944
0.00139475
0.00413867
0.00254409
0.000690843
0.00207448
0.0038748
0.00344958
-0.00417247
0.0021169
0.000179803
-0.000246895
-6.89543e-05
-8.48026e-05
-7.99475e-05
-7.20373e-05
-6.49662e-05
-6.19937e-05
-6.12357e-05
-5.45939e-05
-5.65182e-05
-5.01678e-05
-4.63736e-05
-4.10362e-05
-3.37284e-05
-2.43098e-05
-1.15946e-05
5.6159e-06
3.54791e-05
9.82361e-05
0.000234964
0.000925586
0.00575011
0.005249
0.00204134
0.00237027
0.00318197
0.00292062
0.00408715
0.00100052
0.000236288
0.000229646
-2.95295e-05
-4.36743e-05
-5.28367e-05
-5.48078e-05
-5.41033e-05
-5.52356e-05
-5.87412e-05
-7.22269e-05
-5.80071e-05
-5.27713e-05
-4.7958e-05
-4.17832e-05
-3.36062e-05
-2.31268e-05
-9.61382e-06
7.97854e-06
3.62993e-05
7.94465e-05
0.000165554
0.000614478
0.00353493
0.00379133
0.00267211
0.00259588
0.00277624
0.00252368
0.00209429
0.00107351
0.000244907
1.83679e-05
2.35171e-05
-8.43485e-06
-2.57921e-05
-3.39769e-05
-3.92147e-05
-4.43854e-05
-5.0575e-05
-3.64096e-05
-5.26775e-05
-4.89519e-05
-4.57116e-05
-3.96637e-05
-3.14479e-05
-2.03579e-05
-5.64134e-06
1.33858e-05
4.32609e-05
8.394e-05
0.000153333
0.000547622
0.00296907
0.00351189
0.00210434
0.00260604
0.00291188
0.00281479
0.00235017
0.000918691
0.000239215
0.000218358
4.65608e-05
1.49281e-05
-2.61736e-06
-1.29842e-05
-2.14375e-05
-3.02163e-05
-4.06487e-05
-5.31263e-05
-4.68802e-05
-4.46631e-05
-3.9422e-05
-3.40471e-05
-2.60802e-05
-1.4773e-05
8.26309e-07
2.09946e-05
5.29072e-05
9.42069e-05
0.000159694
0.0005426
0.00263333
0.00323154
0.00250022
0.0022237
0.00296058
0.00269705
0.0024672
0.000902524
0.000248828
3.43743e-05
5.61111e-05
2.64808e-05
1.36643e-05
4.38995e-06
-3.95537e-06
-1.58157e-05
-2.38227e-05
-4.44711e-05
-3.1737e-05
-2.68014e-05
-2.9073e-05
-2.55171e-05
-1.83064e-05
-7.21053e-06
8.75948e-06
3.03872e-05
6.49671e-05
0.000106847
0.000170833
0.000536851
0.00236084
0.002582
0.00197101
0.0016141
0.00286479
0.00290085
0.00306328
0.00110649
0.000238056
0.000153764
5.10955e-05
2.87917e-05
2.28725e-05
1.86809e-05
1.20323e-05
4.71135e-06
-6.0131e-06
-2.3806e-06
-1.6366e-05
-1.23572e-05
-1.9208e-05
-1.63622e-05
-9.45119e-06
1.55236e-06
1.74388e-05
3.9778e-05
7.60334e-05
0.000117052
0.000179312
0.000518665
0.00210985
0.00143635
0.00103243
0.00179464
0.00291177
0.00283723
0.00291159
0.00125915
0.000258673
9.19053e-05
4.03971e-05
2.4783e-05
2.71537e-05
2.79831e-05
2.3672e-05
1.80226e-05
4.43464e-06
-5.70508e-06
-1.1077e-05
-1.81264e-05
-1.40503e-05
-8.16374e-06
-1.18256e-06
9.19376e-06
2.40896e-05
4.6104e-05
8.33273e-05
0.000123644
0.000186351
0.000510839
0.00192793
0.000675934
0.000890557
0.00224278
0.0026301
0.00296893
0.00260151
0.00146385
0.000316631
7.85328e-05
2.65454e-05
1.7953e-05
2.74489e-05
3.35759e-05
3.26287e-05
2.5333e-05
1.47559e-05
1.18189e-05
-3.77624e-07
-1.08047e-05
-3.54574e-06
-1.10862e-06
4.57785e-06
1.36999e-05
2.70336e-05
4.8054e-05
8.5017e-05
0.000124712
0.000192641
0.000515281
0.00194272
0.000623231
-4.56141e-05
0.0013243
0.00272205
0.00306286
0.00239401
0.0017514
0.000432216
7.36538e-05
1.4024e-05
1.0468e-05
2.49983e-05
3.51612e-05
3.65972e-05
2.94883e-05
2.03381e-05
8.08555e-06
2.04799e-06
-1.87123e-07
-1.7956e-06
-2.68712e-07
4.38881e-06
1.22903e-05
2.37372e-05
4.29947e-05
7.72251e-05
0.000114719
0.000193983
0.000543666
0.00180997
0.00214183
0.00135587
0.00106228
0.00254803
0.00238087
0.00237332
0.00195608
0.000575691
7.54303e-05
1.06376e-06
7.44952e-07
1.93762e-05
3.1972e-05
3.34889e-05
2.88215e-05
1.54301e-05
1.60888e-06
-6.38026e-06
-9.23233e-06
-1.05184e-05
-9.47737e-06
-5.90803e-06
4.16111e-07
9.82179e-06
2.65544e-05
5.63769e-05
9.3408e-05
0.000190711
0.000679481
0.00197682
0.00377286
0.00498794
0.00345279
0.0021891
0.00183991
0.00202362
0.00196839
0.000716848
8.49475e-05
-9.20478e-06
-9.52438e-06
1.38962e-05
2.75272e-05
2.52868e-05
1.67657e-05
3.13054e-07
-1.59816e-05
-2.59725e-05
-2.97151e-05
-3.06965e-05
-2.98976e-05
-2.75916e-05
-2.32764e-05
-1.61556e-05
-2.88076e-06
2.2437e-05
6.30127e-05
0.0001875
0.000798953
0.00239635
0.00405026
0.00519673
0.00480647
0.00195447
0.00118468
0.00145039
0.00203548
0.00086001
0.000106332
-1.4376e-05
-1.58416e-05
1.23793e-05
2.73533e-05
2.19406e-05
1.73606e-06
-2.11032e-05
-4.04068e-05
-5.32969e-05
-5.89378e-05
-5.99857e-05
-5.9189e-05
-5.74651e-05
-5.47973e-05
-4.91854e-05
-3.85351e-05
-1.45303e-05
3.44991e-05
0.000191041
0.000901186
0.00245599
0.00401975
0.00427326
0.00432585
0.00213734
0.00100316
0.00124185
0.00219668
0.000978739
0.000132668
-9.01537e-06
-1.48026e-05
1.95832e-05
3.44672e-05
1.93287e-05
-1.18952e-05
-4.35802e-05
-6.81168e-05
-8.40652e-05
-9.1658e-05
-9.30729e-05
-9.16438e-05
-8.90614e-05
-8.61119e-05
-7.98587e-05
-6.79e-05
-3.89002e-05
2.31006e-05
0.000212797
0.00100622
0.00251382
0.00282104
0.00372087
0.00380774
0.0026814
0.00164832
0.00205771
0.00254193
0.00100713
0.000159752
3.93508e-06
-3.17989e-06
3.61601e-05
5.0021e-05
2.29168e-05
-2.48616e-05
-6.8369e-05
-9.85194e-05
-0.000117061
-0.000124974
-0.000125955
-0.000122856
-0.00011735
-0.000110715
-0.000100636
-8.08889e-05
-4.10977e-05
4.0682e-05
0.000256736
0.00109622
0.0025572
0.00330009
0.00331208
0.00346036
0.00352771
0.0037313
0.00367837
0.00277404
0.00101358
0.00018014
1.81329e-05
1.38755e-05
6.05881e-05
7.39068e-05
2.92292e-05
-4.27659e-05
-9.94479e-05
-0.000134831
-0.000154005
-0.000160689
-0.000159178
-0.000152439
-0.000142403
-0.000128063
-0.000107906
-7.8729e-05
-2.4494e-05
7.84819e-05
0.000318504
0.00119974
0.00252492
0.00307428
0.00297724
0.00307794
0.00354203
0.00437976
0.00384265
0.00267945
0.00102375
0.000189812
2.8604e-05
3.3328e-05
8.9002e-05
0.00010224
3.14555e-05
-7.21935e-05
-0.000143501
-0.000181571
-0.000197953
-0.000201883
-0.000197229
-0.00018599
-0.000170217
-0.000147974
-0.000118601
-7.27356e-05
-4.54174e-06
0.000117113
0.00037896
0.00128599
0.00247554
0.00265928
0.00258672
0.00275868
0.00379619
0.00337721
0.00353383
0.00259359
0.00102242
0.000189252
3.80112e-05
5.7486e-05
0.000121155
0.000134413
2.87867e-05
-0.000110883
-0.000195254
-0.000233697
-0.000247039
-0.000246981
-0.00023771
-0.000221535
-0.000199493
-0.000169642
-0.000129181
-7.02958e-05
9.0574e-06
0.000139841
0.000435527
0.00137907
0.00252356
0.00252218
0.00260791
0.00291588
0.00374304
0.00358032
0.00339854
0.00250535
0.00095426
0.000181378
4.69239e-05
7.86257e-05
0.000154422
0.000168469
1.97195e-05
-0.000156888
-0.000249214
-0.000286029
-0.00029556
-0.000291065
-0.000277409
-0.00025657
-0.000228928
-0.000192678
-0.000142934
-7.40027e-05
1.24424e-05
0.000145383
0.000476887
0.00147557
0.00278516
0.00323626
0.00375098
0.00360106
0.00362019
0.00350026
0.0032843
0.00247773
0.000829762
0.000153207
4.27432e-05
8.64664e-05
0.000178392
0.000190616
-4.08305e-06
-0.000211366
-0.000306646
-0.000340316
-0.000345005
-0.000336041
-0.00031846
-0.000294538
-0.000263342
-0.000222215
-0.000167021
-9.10022e-05
1.88738e-06
0.000139229
0.000516894
0.00155103
0.00281487
0.00404582
0.0048506
0.00395197
0.00374209
0.00360874
0.0034469
0.00238774
0.000647384
0.000110089
1.55909e-05
7.96171e-05
0.00018512
0.000195039
-2.28269e-05
-0.000252008
-0.000359016
-0.000393436
-0.000396048
-0.00038467
-0.000366075
-0.000341309
-0.000308343
-0.000264746
-0.000204852
-0.000122091
-2.10002e-05
0.000133751
0.000560017
0.00173099
0.00256171
0.0035253
0.00429517
0.00440837
0.00450137
0.00425025
0.00369668
0.00225682
0.000616137
0.000195358
8.79521e-05
0.000141922
0.000251069
0.000246786
1.87838e-06
-0.00027442
-0.000401518
-0.000444476
-0.00045029
-0.000440102
-0.000423998
-0.000400475
-0.000368433
-0.000324782
-0.000260639
-0.000166748
-3.7686e-05
0.000123364
0.000547615
0.00193887
0.002832
0.00347401
0.00394262
0.00406883
0.00540888
0.00507949
0.00398072
0.00196265
0.0007169
0.000434223
0.000288206
0.000309297
0.000428109
0.00039045
7.0059e-05
-0.000278477
-0.000443002
-0.000500952
-0.00051553
-0.000510353
-0.000498463
-0.000478483
-0.00045076
-0.000409303
-0.000343706
-0.000238622
-9.57298e-05
0.000121858
0.000505464
0.00195995
0.00317474
0.00380348
0.00429506
0.00445852
0.0058388
0.00542739
0.00344962
0.00150619
0.000769342
0.000463537
0.000244412
0.000320923
0.000555659
0.000526541
0.000133182
-0.000288098
-0.000496502
-0.00057132
-0.000597663
-0.000598732
-0.000592034
-0.000578844
-0.000558598
-0.000519952
-0.000459191
-0.00034782
-0.000116182
0.000218941
0.000529859
0.00184187
0.00366994
0.00460408
0.00520774
0.00542595
0.00608299
0.00464896
0.00290659
0.00164983
0.000981922
0.000148521
-0.000582686
-0.000590822
8.77248e-05
0.000533398
0.000305869
-0.000224751
-0.000551994
-0.000662124
-0.000695359
-0.000701036
-0.000698441
-0.000693515
-0.000688573
-0.000652972
-0.000608342
-0.000405424
-7.46262e-06
0.000388322
0.000443554
0.00136429
0.00375464
0.00526031
0.00624296
0.00666442
0.00540945
0.00467312
0.00328249
0.00232205
0.00165394
-0.000744919
-0.002812
-0.00288323
-0.00173452
-0.000260342
0.000407112
-0.000155921
-0.000643086
-0.0008076
-0.000821363
-0.000820422
-0.000814285
-0.000817333
-0.000857866
-0.000813414
-0.000711514
-0.000422519
-4.84951e-05
0.000294227
9.87031e-05
0.000480405
0.00287234
0.0055536
0.00696494
0.0075091
0.00514036
0.0048321
0.00372192
0.0036206
0.00282843
-0.00164748
-0.00501097
-0.00506228
-0.00356845
-0.00207925
-0.000408479
-0.000438871
-0.000905058
-0.00106894
-0.00100891
-0.000966366
-0.000939485
-0.000931114
-0.000953434
-0.000852709
-0.000767504
-0.000756009
-0.000627152
-0.000223472
6.03312e-05
0.000453065
0.00196677
0.00488218
0.00682468
0.00743649
0.00514336
0.0045855
0.00351535
0.00342118
0.0033679
-0.00169318
-0.00558655
-0.00501748
-0.00332527
-0.00252598
-0.00185899
-0.00134837
-0.00120758
-0.00117018
-0.00101964
-0.000918255
-0.000868821
-0.000830614
-0.000847577
-0.000889672
-0.00125531
-0.00185812
-0.00214844
-0.00139056
0.000110565
0.00102992
0.00224213
0.00387649
0.005149
0.00687995
0.00499438
0.00313498
0.00158326
0.000115404
-0.000812004
-0.00379359
-0.00506814
-0.00356809
-0.00238259
-0.00225445
-0.00384335
-0.00347692
-0.00167009
-0.00105236
-0.000778122
-0.000657915
-0.000662609
-0.000754499
-0.00113948
-0.00173068
-0.00282521
-0.00423274
-0.00501576
-0.00364384
-0.00124413
0.000236592
0.00135665
0.0026374
0.00424245
0.00557239
0.00443004
0.00139056
-0.000509064
-0.00303438
-0.00733979
-0.0077705
-0.00570721
-0.00318018
-0.00220189
-0.00397634
-0.00794722
-0.00824541
-0.00419261
-0.0021416
-0.00149526
-0.00137349
-0.00153272
-0.001965
-0.00286942
-0.00410924
-0.00583613
-0.00770712
-0.00835746
-0.00654218
-0.00358932
-0.0014548
-0.000305702
0.000692322
0.00257082
0.00442118
0.00206866
0.000108773
-0.000694278
-0.00387466
-0.00947506
-0.0102478
-0.00716878
-0.00413479
-0.00463276
-0.00816883
-0.0130307
-0.0149273
-0.0114177
-0.00747916
-0.00571303
-0.0052144
-0.00529808
-0.00582615
-0.00679235
-0.0080058
-0.00922626
-0.0100793
-0.00998279
-0.00834296
-0.00557197
-0.00313307
-0.00177707
-0.000869963
0.000960776
0.00362187
-2.90291e-05
-0.000345169
-0.000348688
-0.0033681
-0.00803289
-0.00971482
-0.00875764
-0.00870298
-0.0115547
-0.0163465
-0.0210492
-0.023612
-0.0235889
-0.0198052
-0.0162025
-0.0141889
-0.0130974
-0.0124757
-0.012063
-0.011596
-0.0109093
-0.0100334
-0.00918728
-0.0082646
-0.0064028
-0.00396745
-0.00225463
-0.00140215
0.000737619
0.00339907
-0.000448097
0.000128245
-0.000620329
-0.00316874
-0.00665
-0.00962977
-0.012523
-0.0161856
-0.021521
-0.0266907
-0.0319663
-0.0329911
-0.0339648
-0.0311462
-0.0268667
-0.0235313
-0.0209659
-0.0187643
-0.0166228
-0.0143406
-0.011878
-0.00942327
-0.00761413
-0.0068018
-0.00580018