/*--------------------------------*- C++ -*----------------------------------*\
| =========                 |                                                 |
| \\      /  F ield         | OpenFOAM: The Open Source CFD Toolbox           |
|  \\    /   O peration     | Version:  v1606+                                |
|   \\  /    A nd           | Web:      www.OpenFOAM.com                      |
|    \\/     M anipulation  |                                                 |
\*---------------------------------------------------------------------------*/
FoamFile
{
    version     2.0;
    format      ascii;
    class       volScalarField;
    location    "1.7";
    object      nut.particles;
}
// * * * * * * * * * * * * * * * * * * * * * * * * * * * * * * * * * * * * * //

dimensions      [0 2 -1 0 0 0 0];

internalField   nonuniform List<scalar> 
6000
(
1.70491e-05
1.20753e-05
1.05775e-05
1.0372e-05
1.01148e-05
1.00441e-05
1.0626e-05
9.4586e-06
9.80672e-06
1.26595e-05
1.38925e-05
1.4904e-05
1.54727e-05
1.5153e-05
1.46398e-05
1.39784e-05
1.31144e-05
1.21847e-05
1.05499e-05
1.23705e-05
1.15578e-05
1.15025e-05
1.12558e-05
1.13917e-05
1.18133e-05
1.25393e-05
1.51167e-05
1.91382e-05
1.71772e-05
1.89067e-05
8.81949e-06
8.00669e-06
6.55819e-06
5.89995e-06
5.26697e-06
4.68456e-06
3.92863e-06
3.57956e-06
3.78281e-06
4.07838e-06
4.86134e-06
5.77448e-06
6.07359e-06
6.05087e-06
6.30942e-06
5.92167e-06
5.44376e-06
4.79624e-06
4.59874e-06
4.34601e-06
5.08701e-06
5.68567e-06
6.68184e-06
7.12799e-06
7.55584e-06
6.80041e-06
5.83505e-06
6.56555e-06
8.09589e-06
7.43222e-06
6.13697e-06
8.12719e-06
9.93902e-06
1.15733e-05
1.06827e-05
9.21533e-06
7.14085e-06
4.96088e-06
4.36839e-06
4.55219e-06
4.95279e-06
4.95526e-06
4.79612e-06
4.68963e-06
5.69994e-06
6.32982e-06
6.14599e-06
5.81297e-06
5.59292e-06
6.71896e-06
7.46481e-06
7.17352e-06
5.96826e-06
5.66398e-06
4.98211e-06
3.61357e-06
2.89703e-06
3.1381e-06
4.90208e-06
4.61872e-06
3.58483e-06
3.69017e-06
4.53506e-06
5.73879e-06
7.6127e-06
8.5636e-06
8.48516e-06
6.64853e-06
4.71982e-06
4.87751e-06
4.73866e-06
4.11003e-06
3.68834e-06
3.6083e-06
4.15572e-06
5.39382e-06
5.74879e-06
5.62053e-06
5.85276e-06
7.10524e-06
5.68134e-06
4.12324e-06
3.10004e-06
2.76304e-06
2.31445e-06
2.18034e-06
2.22594e-06
2.27204e-06
2.31567e-06
2.35915e-06
3.35886e-06
3.32783e-06
3.32707e-06
3.30407e-06
3.55329e-06
5.00096e-06
8.06921e-06
9.39636e-06
7.01817e-06
6.7477e-06
5.74241e-06
4.29497e-06
3.60278e-06
3.59334e-06
3.58117e-06
4.11948e-06
4.92615e-06
5.61675e-06
6.82002e-06
7.22507e-06
4.27198e-06
3.26708e-06
2.98391e-06
2.77289e-06
2.22359e-06
2.03045e-06
2.04648e-06
2.08655e-06
2.15871e-06
2.18024e-06
3.06857e-06
3.04029e-06
3.0057e-06
2.96504e-06
2.89987e-06
3.27982e-06
5.97766e-06
9.91769e-06
1.06129e-05
1.01373e-05
7.75977e-06
4.70131e-06
3.61967e-06
3.56149e-06
3.53776e-06
3.53165e-06
4.46726e-06
5.63437e-06
7.91152e-06
6.95644e-06
4.41408e-06
4.70869e-06
5.77951e-06
5.68712e-06
4.01038e-06
2.74855e-06
2.27121e-06
2.00719e-06
2.05273e-06
2.07054e-06
2.98975e-06
2.9635e-06
3.02732e-06
3.26203e-06
3.81654e-06
5.91073e-06
1.07103e-05
0.000308281
0.000196106
5.02362e-05
1.05021e-05
5.42654e-06
3.63436e-06
3.50286e-06
3.46652e-06
3.41423e-06
4.24297e-06
6.27787e-06
8.53475e-06
9.1887e-06
7.38885e-06
1.09143e-05
8.87569e-05
0.000210746
1.40711e-05
8.3445e-06
5.58828e-06
3.80301e-06
2.8108e-06
2.60671e-06
5.22857e-06
5.54229e-06
6.22628e-06
7.71566e-06
1.20059e-05
0.000230942
0.00127472
0.00126975
0.00122588
0.000454378
7.21226e-05
6.93973e-06
3.88296e-06
3.46171e-06
3.45488e-06
3.60673e-06
4.6792e-06
7.92307e-06
1.13847e-05
0.000154072
1.49406e-05
0.00118885
0.00155082
0.00154817
0.00155131
0.00135419
0.000107017
1.49364e-05
8.9423e-06
6.97826e-06
1.69395e-05
2.07547e-05
4.12001e-05
6.59555e-05
8.3763e-05
9.0561e-05
0.00127577
0.00127968
0.00126974
0.00122896
0.000645891
1.07652e-05
5.19524e-06
4.10961e-06
4.19197e-06
4.65472e-06
6.51533e-06
1.12344e-05
0.000144322
0.00154406
0.0015465
0.0015515
0.00154894
3.02719e-05
2.19219e-05
2.29942e-05
4.51049e-05
5.18419e-05
5.18052e-05
4.78812e-05
2.63852e-05
2.18912e-05
1.8576e-05
1.4136e-05
1.00961e-05
8.30396e-06
1.82609e-05
0.00127825
0.00128063
0.00127036
0.00101647
5.21976e-05
9.61012e-06
6.8362e-06
6.84174e-06
7.74215e-06
1.07619e-05
4.61662e-05
0.000625367
0.0015235
0.00145665
0.00154557
2.67072e-05
5.81913e-06
4.08852e-06
5.16856e-06
7.76918e-06
1.36271e-05
1.75311e-05
2.76219e-05
8.02419e-06
4.27416e-06
3.45912e-06
2.77196e-06
2.34584e-06
2.25371e-06
3.14132e-06
9.82287e-06
4.49635e-05
0.00128371
0.00127201
0.000987285
4.39958e-05
1.46813e-05
1.38966e-05
1.48817e-05
5.87088e-05
0.000525748
0.00107744
0.00135663
0.00133655
0.000256019
5.7889e-06
2.32235e-06
2.16437e-06
2.23642e-06
2.77659e-06
3.44205e-06
3.59965e-06
7.60007e-06
2.32304e-06
1.6093e-06
1.59546e-06
1.60297e-06
1.62384e-06
1.6674e-06
1.93632e-06
2.67798e-06
5.64126e-06
1.87518e-05
3.77999e-05
9.64177e-05
0.000179211
0.000624886
0.00100977
0.00103045
0.00125629
0.00150121
0.00150178
0.00150075
0.0015
1.12063e-05
2.67048e-06
2.27366e-06
2.04668e-06
2.34614e-06
2.64533e-06
2.51e-06
2.56114e-06
3.58377e-06
1.97223e-06
1.43396e-06
1.41729e-06
1.43553e-06
1.53724e-06
1.79805e-06
2.27663e-06
2.90793e-06
3.4476e-06
4.07453e-06
5.75341e-06
8.7933e-06
1.41834e-05
2.1781e-05
3.08119e-05
0.000109299
0.000459094
0.000655227
0.000329301
0.000114626
1.86673e-05
4.37737e-06
2.68995e-06
2.32302e-06
2.41937e-06
3.26202e-06
3.64549e-06
2.91096e-06
2.31903e-06
3.89785e-06
2.65308e-06
1.6253e-06
1.70069e-06
1.78081e-06
2.00466e-06
2.52238e-06
3.33677e-06
4.14886e-06
4.27415e-06
3.158e-06
2.07082e-06
1.78534e-06
2.05785e-06
2.81842e-06
4.32801e-06
6.67745e-06
8.74314e-06
9.10894e-06
7.63966e-06
6.60803e-06
4.13091e-06
2.96976e-06
3.05863e-06
3.18429e-06
3.9291e-06
4.89434e-06
4.85178e-06
3.81689e-06
2.72533e-06
6.55526e-06
3.65699e-06
2.34821e-06
2.68721e-06
2.90206e-06
3.22764e-06
3.88344e-06
4.92132e-06
5.90108e-06
5.84807e-06
3.5325e-06
1.67587e-06
1.08822e-06
9.72962e-07
9.77389e-07
9.96823e-07
1.04738e-06
1.10741e-06
1.12883e-06
1.10662e-06
1.21602e-06
1.45328e-06
2.00065e-06
3.44776e-06
5.85665e-06
7.31329e-06
6.60325e-06
5.74072e-06
5.35189e-06
5.79307e-06
0.00027056
5.24241e-06
3.62351e-06
4.26079e-06
4.68803e-06
5.16056e-06
5.79637e-06
6.58527e-06
7.22908e-06
7.02301e-06
4.14451e-06
1.58168e-06
9.56807e-07
8.27856e-07
7.98694e-07
7.63832e-07
7.23681e-07
6.9091e-07
6.81172e-07
7.01761e-07
7.71047e-07
8.94022e-07
1.20837e-06
2.8115e-06
9.39457e-06
1.5986e-05
8.18128e-06
7.29937e-06
8.71229e-06
0.000268847
0.00453901
6.96968e-06
5.24166e-06
6.37159e-06
6.98267e-06
7.46588e-06
7.81012e-06
8.00932e-06
8.02161e-06
7.37507e-06
4.70417e-06
1.82895e-06
9.17133e-07
7.31735e-07
7.10141e-07
7.03052e-07
6.92552e-07
6.99185e-07
7.0202e-07
7.22485e-07
7.61057e-07
7.86522e-07
8.6531e-07
1.79114e-06
9.98626e-06
3.34766e-05
1.76062e-05
3.01233e-05
0.000765603
0.00459052
0.00938983
9.17659e-06
7.07192e-06
8.57027e-06
9.11317e-06
9.48161e-06
9.52296e-06
9.2468e-06
8.78074e-06
7.81103e-06
5.70931e-06
2.46619e-06
9.96525e-07
7.06179e-07
6.57117e-07
6.67908e-07
6.79454e-07
7.07705e-07
7.31301e-07
7.50623e-07
7.75677e-07
7.77781e-07
7.82148e-07
1.47775e-06
1.22954e-05
3.25192e-05
0.000126696
0.000691465
0.00396105
0.00880299
0.00971754
8.47067e-05
9.261e-06
1.04393e-05
1.47311e-05
2.8407e-05
4.481e-05
5.35283e-05
5.29982e-05
3.06215e-05
7.80988e-06
4.23538e-06
1.57116e-06
8.40721e-07
7.25035e-07
7.24517e-07
7.2681e-07
7.39364e-07
7.631e-07
7.85426e-07
7.98901e-07
7.86097e-07
8.09687e-07
2.37906e-06
6.99884e-05
3.32416e-05
0.000340034
0.0024644
0.00795717
0.00958521
0.00958414
0.0011239
0.000124452
0.00011809
0.000164582
0.000278454
0.000476832
0.000699919
0.000820045
0.000640762
0.000301574
8.27391e-06
3.51001e-06
1.51703e-06
1.1328e-06
1.03324e-06
9.57951e-07
8.19596e-07
7.90692e-07
8.15183e-07
8.17337e-07
7.95449e-07
8.8997e-07
4.70423e-06
6.89094e-05
3.42583e-05
0.00135366
0.00593139
0.00955453
0.00956833
0.00561221
0.00329745
0.00126917
0.000738252
0.000854302
0.00137323
0.00240864
0.00356714
0.00423686
0.00377673
0.00230622
0.000822986
9.05564e-06
4.41165e-06
3.268e-06
2.72471e-06
1.61301e-06
1.02948e-06
8.71036e-07
8.62688e-07
8.6303e-07
8.54457e-07
1.15328e-06
7.16709e-06
0.000395118
0.000903256
0.00439565
0.00848564
0.00954795
0.00790355
1.82829e-05
0.00458616
0.00325151
0.00225141
0.0025682
0.00415661
0.00639312
0.00793858
0.00826691
0.00779523
0.00511891
0.00329801
0.0010228
2.71364e-05
1.50693e-05
1.11569e-05
2.95136e-06
1.48237e-06
1.14278e-06
1.06587e-06
1.08112e-06
1.1423e-06
2.20499e-06
1.166e-05
0.00201168
0.00202381
0.00700391
0.00774075
0.00598157
1.1409e-05
6.0102e-06
0.00461939
0.00464907
0.00408383
0.0050118
0.00755398
0.00828335
0.00827228
0.00826206
0.0046838
0.00431154
0.00306355
0.0021649
0.0018431
0.00014362
1.2741e-05
4.19947e-06
2.38933e-06
1.8559e-06
1.72344e-06
1.81004e-06
2.41115e-06
7.9743e-06
1.27461e-05
9.53741e-06
1.10187e-05
0.00287426
0.00356301
1.68733e-05
4.48839e-06
3.26124e-06
0.00399904
0.00518532
0.00544047
0.00698313
0.00828212
0.00826299
0.00411696
0.0010145
0.000418213
0.00120124
0.00140561
0.00197281
6.31727e-05
8.8579e-06
4.22017e-06
3.78767e-06
3.24388e-06
2.93466e-06
2.83773e-06
3.24902e-06
5.52049e-06
9.56859e-06
4.19566e-06
2.29962e-06
3.58131e-06
7.72552e-06
1.03753e-05
6.30778e-06
3.62527e-06
3.89832e-06
0.00286688
0.00505223
0.00601073
0.00777521
0.00825258
0.00400174
1.27172e-05
5.38661e-06
6.64499e-06
1.48375e-05
2.02976e-05
2.09841e-05
5.54985e-06
1.7491e-06
1.65313e-06
2.12155e-06
2.56595e-06
2.81347e-06
2.97913e-06
3.29978e-06
3.82079e-06
3.20584e-06
1.61291e-06
1.4897e-06
2.11164e-06
3.78916e-06
6.43231e-06
5.44462e-06
4.86652e-06
5.49706e-06
0.00169111
0.00451707
0.00584706
0.00564839
0.0038706
1.38312e-05
2.53229e-06
7.44638e-07
7.9608e-07
1.85121e-06
3.90841e-06
4.02502e-06
1.91045e-06
1.29576e-06
1.12228e-06
1.22088e-06
1.48596e-06
1.71266e-06
1.88076e-06
1.89197e-06
1.67078e-06
1.35726e-06
1.25095e-06
1.58172e-06
2.58663e-06
4.34108e-06
5.89914e-06
6.38493e-06
6.04002e-06
6.82373e-06
0.000919057
0.00285936
0.0048154
0.00375325
0.00369928
8.25947e-06
1.03757e-06
4.64494e-07
4.74121e-07
5.77468e-07
8.55057e-07
1.39732e-06
1.54584e-06
1.37175e-06
1.09858e-06
9.80738e-07
9.85524e-07
1.00943e-06
1.04222e-06
1.07614e-06
1.07467e-06
1.06009e-06
1.31083e-06
2.1657e-06
3.82654e-06
5.79925e-06
6.82286e-06
7.05718e-06
6.72456e-06
7.55274e-06
0.000689287
0.000209719
0.000894116
0.0021556
0.00220646
5.03391e-06
1.22931e-06
5.17191e-07
4.8679e-07
5.62326e-07
6.35911e-07
9.11584e-07
1.41416e-06
1.44458e-06
1.23226e-06
9.56858e-07
8.48455e-07
8.54872e-07
8.53395e-07
8.63313e-07
9.42995e-07
1.13275e-06
1.85116e-06
3.40984e-06
5.6533e-06
7.33669e-06
7.69004e-06
7.65799e-06
7.26956e-06
8.06797e-06
0.000648894
5.23336e-05
5.18008e-05
8.99979e-05
8.92182e-06
4.85272e-06
2.34216e-06
8.43999e-07
5.20019e-07
5.85043e-07
6.54237e-07
7.66537e-07
1.19309e-06
1.42688e-06
1.34007e-06
1.01438e-06
8.1942e-07
8.07454e-07
8.07902e-07
8.26769e-07
9.97568e-07
1.63474e-06
3.04169e-06
5.38066e-06
7.65601e-06
8.55968e-06
8.52664e-06
8.35281e-06
7.97874e-06
8.7398e-06
0.0013561
6.83152e-05
1.26022e-05
9.27674e-06
7.96272e-06
6.92546e-06
4.40256e-06
1.80478e-06
5.96672e-07
6.04143e-07
6.83037e-07
7.16461e-07
9.98816e-07
1.32926e-06
1.30451e-06
1.11291e-06
8.9388e-07
8.32185e-07
8.27439e-07
9.24259e-07
1.36175e-06
2.65467e-06
5.15659e-06
7.95596e-06
9.43442e-06
9.65856e-06
9.49176e-06
9.28677e-06
9.01566e-06
9.6917e-06
0.00448945
0.0012804
0.000333034
0.000120649
5.5738e-05
2.24967e-05
7.16955e-06
3.54116e-06
9.33748e-07
6.13126e-07
7.0537e-07
7.21563e-07
8.64316e-07
1.18705e-06
1.3558e-06
1.33867e-06
1.09121e-06
9.17286e-07
9.05849e-07
1.10025e-06
1.98492e-06
4.4517e-06
8.79001e-06
1.10254e-05
1.33226e-05
1.1903e-05
1.07582e-05
1.05592e-05
1.04121e-05
1.14015e-05
0.00870976
0.0054641
0.00270518
0.00122847
0.000553662
0.000261234
3.84026e-05
6.02277e-06
2.05935e-06
6.6423e-07
7.17921e-07
7.4953e-07
8.0349e-07
1.18103e-06
1.69603e-06
1.58073e-06
1.2589e-06
1.11831e-06
1.21048e-06
1.68415e-06
3.11678e-06
7.13672e-06
6.87723e-05
0.000202154
0.000148404
8.34499e-05
4.35892e-05
2.77252e-05
2.25649e-05
4.66092e-05
0.00949865
0.00894337
0.00646566
0.00398224
0.00210289
0.000980574
0.00029269
9.57099e-06
3.883e-06
8.61673e-07
7.50216e-07
7.81834e-07
8.48093e-07
1.27493e-06
2.25029e-06
2.2717e-06
2.06605e-06
2.11546e-06
2.54743e-06
3.57109e-06
5.81554e-06
1.03578e-05
0.000126752
0.000689008
0.000691194
0.000442111
0.000235033
0.000143134
0.000110146
0.000149001
0.00950343
0.00949381
0.00881362
0.00678292
0.00470273
0.00258466
0.000970152
0.000228926
6.4998e-06
1.27168e-06
8.64317e-07
8.75122e-07
9.22605e-07
1.54281e-06
3.73005e-06
4.42584e-06
4.7535e-06
5.49902e-06
6.72147e-06
8.38045e-06
1.07455e-05
1.31619e-05
3.10911e-05
0.000521558
0.000950629
0.000950144
0.000641626
0.000416113
0.000304165
0.000314444
0.00949667
0.00755751
0.00826468
0.00778003
0.00712468
0.00549369
0.00309984
0.00130514
9.96755e-06
2.08752e-06
1.08904e-06
1.00716e-06
1.15517e-06
2.83591e-06
8.04379e-06
9.96703e-06
1.14882e-05
1.32218e-05
1.94884e-05
4.99288e-05
6.55266e-05
2.16034e-05
2.15166e-05
9.72168e-05
0.000748522
0.000985003
0.000986284
0.000794546
0.00060685
0.00054122
0.00841915
0.0035686
0.00547337
0.00726403
0.00751892
0.00750881
0.00749543
0.00310134
1.36186e-05
3.21569e-06
1.44154e-06
1.34475e-06
2.13513e-06
7.20981e-06
0.000138319
0.000958315
0.00206877
0.00288606
0.00310827
0.00283452
0.00198713
0.000423401
4.28197e-05
4.36552e-05
0.000295011
0.000899299
0.00109079
0.00114731
0.00101902
0.000879388
0.00285934
1.59615e-05
0.00410512
0.00741414
0.00750887
0.00749626
0.0045398
0.000477833
1.71918e-05
5.05957e-06
2.25385e-06
2.44024e-06
5.50709e-06
1.99605e-05
0.00169939
0.00289223
0.00495516
0.00945253
0.0116029
0.0117523
0.0101569
0.00508417
0.000688189
0.000104069
0.000172445
0.000648212
0.00107573
0.00142405
0.00146711
0.0014754
1.23993e-05
5.84943e-06
1.45218e-05
0.00113158
0.00475883
0.00051375
1.564e-05
1.68967e-05
2.07384e-05
8.509e-06
4.40967e-06
5.51872e-06
1.39755e-05
0.000565008
0.000764891
0.000305221
0.000542719
0.00256313
0.00998003
0.0159644
0.0183592
0.0176473
0.00775891
0.0011894
0.00033459
0.000586826
0.00103365
0.00167456
0.00163808
0.00243222
5.2578e-06
4.84497e-06
5.01366e-06
1.31504e-05
2.78498e-05
1.58429e-05
1.31416e-05
1.18148e-05
1.25674e-05
1.153e-05
9.03581e-06
1.39963e-05
0.000372891
0.000257166
1.64102e-05
1.61941e-05
2.94667e-05
1.91468e-05
0.0011361
0.00931829
0.0183852
0.0219664
0.0219395
0.00889017
0.00178509
0.000884325
0.00105131
0.00197294
0.000843394
0.0028917
6.40767e-06
6.41029e-06
7.23391e-06
1.01091e-05
1.35879e-05
1.36987e-05
1.27469e-05
1.0717e-05
1.09358e-05
1.34431e-05
1.80766e-05
0.000670503
0.000472123
4.41983e-05
2.3129e-05
0.000190434
0.000104612
1.62478e-05
1.58643e-05
0.00106421
0.00902485
0.0206181
0.0253179
0.021495
0.00817221
0.00234238
0.00128574
0.00227645
1.66173e-05
0.00288775
1.73903e-05
1.54456e-05
1.96548e-05
3.36637e-05
7.09296e-05
2.75347e-05
1.50224e-05
1.22321e-05
1.14938e-05
1.88892e-05
0.00143051
0.00122752
0.000319134
0.00017451
0.00057582
0.00277888
0.00183728
0.000207963
1.74677e-05
0.000130638
0.00218585
0.0116883
0.0253019
0.0289565
0.019349
0.0068883
0.00217366
0.00263347
1.34086e-05
0.00292377
2.99698e-05
0.000233984
0.00133952
0.00163099
0.00180378
0.00111151
0.0003692
2.33966e-05
2.05011e-05
0.00134545
0.00274588
0.00137147
0.000847615
0.00169147
0.00340647
0.00523229
0.00524547
0.00474837
0.000876112
0.000772351
0.00297774
0.0115906
0.0261624
0.0364369
0.0331851
0.0176196
0.00529137
0.0028856
1.34812e-05
0.00294662
1.89746e-05
1.47764e-05
0.00399525
0.00873689
0.0103847
0.00914506
0.00504158
0.00179187
0.00164636
0.00257562
0.00323918
0.00239817
0.00308117
0.00625345
0.00584047
0.00403749
0.00324028
0.00411411
0.00569656
0.00569028
0.00790086
0.0173034
0.0355767
0.049254
0.0493619
0.0367635
0.0142833
0.00193149
1.33121e-05
0.00297818
0.000185359
1.39344e-05
0.00746841
0.0104896
0.010439
0.0046983
0.00159662
0.000851571
0.000607725
0.00135612
0.0034176
0.00626076
0.00625331
0.00628706
0.00464135
0.00154053
0.000553518
0.00090421
0.00213227
0.00406684
0.0062586
0.00589852
0.0220725
0.0492106
0.0497902
0.0494771
0.0311653
0.00267164
1.23759e-05
8.48227e-05
0.00277628
0.000304279
0.0102303
0.0104007
0.00489927
3.64325e-05
2.89743e-05
2.68704e-05
2.54027e-05
0.000372226
0.00113389
0.000277134
0.0011846
0.00617059
0.00304753
0.00115129
0.000257636
0.000224872
0.000527188
0.000618664
4.50901e-05
3.9605e-05
0.000596396
0.0187824
0.0492854
0.0498008
0.0487293
0.0106203
1.42145e-05
8.81476e-06
0.0101363
0.00856841
0.0102393
0.000231395
8.95802e-06
2.32943e-06
2.45053e-06
5.8689e-06
1.17995e-05
1.66816e-05
1.30531e-05
8.24945e-06
1.10459e-05
2.9579e-05
3.83368e-05
3.92231e-05
3.6597e-05
3.48005e-05
3.31717e-05
1.94241e-05
4.66375e-06
4.13527e-06
8.48015e-06
3.70098e-05
0.0232746
0.0495523
0.0497004
0.0295413
0.00038842
7.33122e-06
0.0100995
0.0100615
0.00189654
1.01783e-05
1.21224e-06
8.22142e-07
8.68125e-07
1.08091e-06
1.45696e-06
1.58385e-06
1.21814e-06
1.01295e-06
1.08654e-06
2.01259e-06
4.11164e-06
5.48964e-06
6.25438e-06
5.19862e-06
3.28178e-06
1.64648e-06
8.72889e-07
8.26322e-07
9.28439e-07
3.56646e-06
3.04119e-05
0.04141
0.049697
0.0489569
0.00107173
6.81595e-06
5.17968e-05
5.66268e-05
1.66244e-05
2.30347e-06
8.70193e-07
7.99788e-07
8.44378e-07
8.69497e-07
8.82922e-07
8.72183e-07
8.38486e-07
8.25177e-07
8.13344e-07
8.15061e-07
8.96015e-07
9.70055e-07
1.01475e-06
9.4904e-07
8.50894e-07
7.88382e-07
7.60987e-07
7.29628e-07
6.95222e-07
8.39811e-07
4.84903e-06
0.000107312
0.048929
0.0491136
0.00200965
6.02384e-06
2.02129e-05
7.50361e-06
4.4378e-06
1.85693e-06
8.00397e-07
8.10855e-07
8.31087e-07
8.7041e-07
8.73385e-07
8.58476e-07
8.39956e-07
8.28921e-07
8.16777e-07
7.97096e-07
7.89108e-07
7.88321e-07
7.90313e-07
7.8854e-07
7.81447e-07
7.70117e-07
7.51027e-07
7.23687e-07
6.8976e-07
7.4566e-07
2.37634e-06
1.37023e-05
0.0484041
0.0485954
0.00282796
5.32651e-06
1.08458e-05
3.6917e-06
4.48233e-06
1.57835e-06
7.59355e-07
8.12909e-07
8.27295e-07
8.65024e-07
8.68456e-07
8.54938e-07
8.44117e-07
8.35965e-07
8.25076e-07
8.1359e-07
8.06459e-07
8.01447e-07
7.96453e-07
7.89817e-07
7.78106e-07
7.63142e-07
7.43888e-07
7.1822e-07
6.81982e-07
7.74007e-07
2.81863e-06
1.21283e-05
0.0446702
0.0486265
0.0033984
5.69103e-06
1.01753e-05
3.15963e-06
4.18953e-06
1.56874e-06
7.33739e-07
8.09746e-07
8.24323e-07
8.52279e-07
8.54144e-07
8.48166e-07
8.43425e-07
8.3803e-07
8.28078e-07
8.18437e-07
8.11093e-07
8.04621e-07
7.98154e-07
7.89578e-07
7.77162e-07
7.61535e-07
7.38509e-07
7.08853e-07
6.77478e-07
7.70868e-07
3.58446e-06
1.62809e-05
0.0296342
0.0482954
0.00802192
1.89701e-05
1.00024e-05
2.63731e-06
3.93618e-06
1.83838e-06
7.29475e-07
8.00693e-07
8.18388e-07
8.37878e-07
8.39294e-07
8.36292e-07
8.37853e-07
8.36219e-07
8.27747e-07
8.19317e-07
8.12751e-07
8.06917e-07
8.00798e-07
7.90472e-07
7.73581e-07
7.53281e-07
7.30909e-07
7.05041e-07
6.75341e-07
6.86659e-07
2.32692e-06
2.93702e-05
0.0245838
0.0474225
0.000118428
0.000232542
1.05609e-05
2.30963e-06
3.84599e-06
1.99923e-06
7.18289e-07
7.86135e-07
8.077e-07
8.25393e-07
8.28742e-07
8.27206e-07
8.30366e-07
8.29431e-07
8.20666e-07
8.17261e-07
8.12945e-07
8.06961e-07
7.97495e-07
7.82362e-07
7.66662e-07
7.48836e-07
7.29414e-07
7.0229e-07
6.70169e-07
6.33596e-07
8.83166e-07
1.04679e-05
0.0101032
0.00678774
6.27703e-06
1.90092e-05
1.42011e-05
2.65423e-06
3.82517e-06
1.99485e-06
6.61805e-07
7.71926e-07
7.98021e-07
8.13329e-07
8.1613e-07
8.1459e-07
8.18877e-07
8.20219e-07
8.14169e-07
8.10333e-07
8.03979e-07
7.96382e-07
7.88025e-07
7.78178e-07
7.64938e-07
7.46801e-07
7.231e-07
6.93512e-07
6.65969e-07
6.33307e-07
5.85201e-07
1.1123e-06
1.46973e-05
3.03415e-05
1.78578e-06
1.00517e-05
1.99596e-05
3.82873e-06
4.16039e-06
1.34712e-06
6.18126e-07
7.56514e-07
7.87156e-07
8.02128e-07
8.04653e-07
8.0203e-07
8.0277e-07
8.06903e-07
8.0527e-07
8.02668e-07
7.9602e-07
7.90782e-07
7.84064e-07
7.74227e-07
7.57662e-07
7.36909e-07
7.15999e-07
6.91143e-07
6.64114e-07
6.2837e-07
5.76334e-07
6.53458e-07
2.85448e-06
4.14664e-06
1.34458e-06
8.09734e-06
2.82472e-05
5.7844e-06
3.92615e-06
7.32629e-07
6.30152e-07
7.38644e-07
7.74027e-07
7.87951e-07
7.89862e-07
7.87161e-07
7.86363e-07
7.94597e-07
7.97573e-07
7.94435e-07
7.87602e-07
7.82424e-07
7.75433e-07
7.63683e-07
7.49208e-07
7.33219e-07
7.13026e-07
6.85713e-07
6.55368e-07
6.22743e-07
5.70446e-07
6.29062e-07
2.59867e-06
1.58909e-06
1.19009e-06
9.9129e-06
3.26274e-05
7.91793e-06
2.57513e-06
5.36319e-07
6.40673e-07
7.19052e-07
7.58187e-07
7.72839e-07
7.75126e-07
7.71621e-07
7.69107e-07
7.7715e-07
7.83733e-07
7.84333e-07
7.78527e-07
7.7172e-07
7.67025e-07
7.57222e-07
7.44027e-07
7.25002e-07
7.03395e-07
6.78309e-07
6.52304e-07
6.1993e-07
5.62068e-07
6.11939e-07
2.93294e-06
1.76501e-06
1.04727e-06
1.14069e-05
3.21596e-05
8.6003e-06
1.79338e-06
4.85203e-07
6.41502e-07
7.03635e-07
7.41447e-07
7.56212e-07
7.58171e-07
7.58201e-07
7.56359e-07
7.60907e-07
7.71509e-07
7.73486e-07
7.66129e-07
7.58439e-07
7.53308e-07
7.45165e-07
7.32749e-07
7.16872e-07
6.99788e-07
6.75172e-07
6.46745e-07
6.09865e-07
5.54021e-07
6.10377e-07
3.12658e-06
2.26972e-06
2.11164e-06
1.69016e-05
3.10596e-05
6.51283e-06
1.38229e-06
4.72018e-07
6.31554e-07
6.87617e-07
7.23921e-07
7.37996e-07
7.38205e-07
7.38504e-07
7.40386e-07
7.43779e-07
7.55297e-07
7.5908e-07
7.56079e-07
7.50569e-07
7.4327e-07
7.36981e-07
7.27244e-07
7.12578e-07
6.93734e-07
6.67268e-07
6.40288e-07
6.04998e-07
5.50549e-07
6.01512e-07
3.04415e-06
2.95482e-06
6.01237e-06
0.00071537
2.89399e-05
3.44455e-06
1.40551e-06
4.8524e-07
6.07226e-07
6.70448e-07
7.08066e-07
7.22824e-07
7.20812e-07
7.17263e-07
7.21613e-07
7.28495e-07
7.3538e-07
7.39265e-07
7.42086e-07
7.39317e-07
7.30944e-07
7.24967e-07
7.14576e-07
7.01153e-07
6.86788e-07
6.63073e-07
6.36999e-07
5.97769e-07
5.47242e-07
5.81495e-07
3.29464e-06
4.44709e-06
0.000220264
0.00178402
2.60184e-05
2.45897e-06
2.09098e-06
5.90444e-07
5.73354e-07
6.57873e-07
6.96555e-07
7.1037e-07
7.06687e-07
6.97292e-07
6.98944e-07
7.09801e-07
7.16843e-07
7.22092e-07
7.25419e-07
7.246e-07
7.18805e-07
7.13943e-07
7.05692e-07
6.95056e-07
6.79463e-07
6.56344e-07
6.30999e-07
5.89727e-07
5.46057e-07
5.49439e-07
3.08942e-06
0.000199109
0.00119402
0.00178498
2.16273e-05
2.30724e-06
3.04646e-06
8.2235e-07
5.28955e-07
6.38406e-07
6.82941e-07
6.97878e-07
6.97137e-07
6.81954e-07
6.77086e-07
6.86167e-07
7.00349e-07
7.07512e-07
7.08122e-07
7.08988e-07
7.05767e-07
7.00295e-07
6.94208e-07
6.85078e-07
6.72985e-07
6.53009e-07
6.28443e-07
5.86192e-07
5.43284e-07
4.95483e-07
2.31554e-06
0.00140806
0.0017776
0.0017837
1.47128e-05
2.22395e-06
4.20251e-06
1.17713e-06
5.14072e-07
6.14908e-07
6.59843e-07
6.76232e-07
6.78761e-07
6.68523e-07
6.61438e-07
6.61923e-07
6.79706e-07
6.90593e-07
6.9283e-07
6.95143e-07
6.94554e-07
6.90625e-07
6.84426e-07
6.77741e-07
6.66167e-07
6.46181e-07
6.22407e-07
5.78915e-07
5.34719e-07
4.66027e-07
1.10196e-06
4.17952e-05
0.00178057
0.00178559
1.1923e-05
2.15287e-06
5.40886e-06
1.53312e-06
5.46332e-07
5.98601e-07
6.36641e-07
6.52272e-07
6.55911e-07
6.50617e-07
6.47229e-07
6.4763e-07
6.60177e-07
6.7442e-07
6.81428e-07
6.82351e-07
6.82946e-07
6.80799e-07
6.77007e-07
6.7094e-07
6.5999e-07
6.42414e-07
6.19215e-07
5.74036e-07
5.32628e-07
5.04916e-07
9.36077e-07
5.20961e-06
4.1975e-05
0.000147522
2.16264e-05
2.87683e-06
5.75065e-06
1.92617e-06
6.05519e-07
5.88107e-07
6.175e-07
6.29906e-07
6.31915e-07
6.28113e-07
6.28524e-07
6.38645e-07
6.47889e-07
6.59972e-07
6.71203e-07
6.74591e-07
6.74598e-07
6.73216e-07
6.7136e-07
6.66782e-07
6.55402e-07
6.39038e-07
6.15274e-07
5.70846e-07
5.30033e-07
5.59517e-07
1.41494e-06
2.62938e-06
3.03797e-06
1.992e-05
0.00101253
2.38781e-05
1.2191e-05
2.45977e-06
6.61172e-07
5.72508e-07
6.01872e-07
6.13321e-07
6.08382e-07
6.03504e-07
6.06578e-07
6.24887e-07
6.39467e-07
6.50739e-07
6.61166e-07
6.67528e-07
6.69206e-07
6.69014e-07
6.66575e-07
6.62767e-07
6.51839e-07
6.36877e-07
6.10611e-07
5.69558e-07
5.32e-07
6.11629e-07
1.82882e-06
2.83459e-06
2.47036e-06
1.04772e-05
0.0010142
0.00100843
0.000321576
3.03597e-06
6.84111e-07
5.4738e-07
5.77664e-07
5.90632e-07
5.87423e-07
5.83616e-07
5.89352e-07
6.07548e-07
6.28247e-07
6.43173e-07
6.5302e-07
6.60207e-07
6.62854e-07
6.62225e-07
6.60178e-07
6.56399e-07
6.45454e-07
6.31018e-07
6.02644e-07
5.6817e-07
5.25117e-07
6.50072e-07
2.11274e-06
2.82137e-06
2.29872e-06
1.00176e-05
0.0010151
0.00101272
0.000649396
3.04836e-06
6.68429e-07
5.27427e-07
5.50572e-07
5.65069e-07
5.67546e-07
5.64225e-07
5.73581e-07
5.9512e-07
6.13674e-07
6.32065e-07
6.45604e-07
6.51593e-07
6.55328e-07
6.5469e-07
6.51391e-07
6.46386e-07
6.34844e-07
6.18763e-07
5.91674e-07
5.56136e-07
5.14418e-07
6.65993e-07
2.03301e-06
2.69671e-06
2.17753e-06
9.67724e-06
0.000122001
0.000443354
5.99778e-06
2.65656e-06
6.46452e-07
5.09753e-07
5.29459e-07
5.48015e-07
5.53145e-07
5.50445e-07
5.63599e-07
5.88368e-07
6.08097e-07
6.26342e-07
6.38354e-07
6.4529e-07
6.47036e-07
6.45914e-07
6.42649e-07
6.34609e-07
6.21452e-07
6.02872e-07
5.77531e-07
5.38117e-07
4.92238e-07
6.41538e-07
2.51017e-06
3.32837e-06
1.83076e-06
1.00672e-05
1.58889e-05
3.45745e-06
3.24104e-06
3.33607e-06
7.11419e-07
5.00833e-07
5.12646e-07
5.3413e-07
5.46772e-07
5.49175e-07
5.68056e-07
5.9003e-07
6.10468e-07
6.27931e-07
6.3725e-07
6.42623e-07
6.42892e-07
6.40631e-07
6.35647e-07
6.24539e-07
6.11477e-07
5.89628e-07
5.63578e-07
5.21394e-07
4.79069e-07
6.96297e-07
3.04093e-06
3.86215e-06
3.56781e-06
0.000302794
6.38997e-06
3.05791e-06
3.64296e-06
3.64347e-06
8.46636e-07
5.03687e-07
5.00774e-07
5.25863e-07
5.45346e-07
5.58564e-07
5.78218e-07
5.92101e-07
6.11005e-07
6.26339e-07
6.3631e-07
6.39667e-07
6.40166e-07
6.35741e-07
6.27149e-07
6.15754e-07
6.00026e-07
5.78722e-07
5.49273e-07
5.13959e-07
4.86033e-07
8.16309e-07
5.21456e-06
0.000147568
0.000493057
0.0015575
7.36288e-06
3.07192e-06
4.97368e-06
4.16547e-06
9.2291e-07
5.1792e-07
5.09364e-07
5.43166e-07
5.54595e-07
5.84577e-07
5.97428e-07
5.9752e-07
6.09639e-07
6.23724e-07
6.32221e-07
6.34785e-07
6.33043e-07
6.27283e-07
6.18025e-07
6.05527e-07
5.87483e-07
5.66848e-07
5.39364e-07
5.17376e-07
5.14849e-07
9.23445e-07
6.66847e-06
0.00121878
0.00155683
0.00155866
0.00011203
4.21991e-06
2.17522e-05
5.15671e-06
9.73017e-07
5.66289e-07
5.54431e-07
5.78259e-07
5.94342e-07
6.48572e-07
6.38647e-07
6.13701e-07
6.14391e-07
6.24039e-07
6.29886e-07
6.30587e-07
6.27591e-07
6.20667e-07
6.1021e-07
5.95824e-07
5.81369e-07
5.66039e-07
5.41337e-07
5.21407e-07
5.46193e-07
9.98887e-07
4.32207e-06
0.00014702
0.000146454
2.62779e-05
0.00101129
7.41321e-05
5.38691e-05
4.58025e-06
1.042e-06
6.64128e-07
6.40535e-07
6.35191e-07
6.69573e-07
7.30859e-07
6.723e-07
6.17307e-07
6.15061e-07
6.22073e-07
6.26689e-07
6.26024e-07
6.22608e-07
6.15484e-07
6.04708e-07
5.92478e-07
5.78173e-07
5.69154e-07
5.50655e-07
5.39365e-07
6.25973e-07
1.63178e-06
4.37524e-06
4.53959e-06
4.23548e-06
2.50614e-05
0.00140714
0.000931717
0.000140835
2.8729e-06
1.10387e-06
7.94585e-07
7.46025e-07
7.37355e-07
7.75008e-07
8.18377e-07
6.95467e-07
6.21695e-07
6.14904e-07
6.20429e-07
6.23982e-07
6.22555e-07
6.198e-07
6.12959e-07
6.03925e-07
5.95056e-07
5.87076e-07
5.87685e-07
5.84768e-07
5.83929e-07
7.54763e-07
2.57384e-06
7.07081e-06
5.33365e-06
5.03252e-06
0.000168517
0.001453
0.00144911
6.34953e-06
2.53501e-06
1.41031e-06
1.0475e-06
9.09135e-07
8.65631e-07
8.62416e-07
8.34692e-07
7.17326e-07
6.30417e-07
6.1974e-07
6.22154e-07
6.26006e-07
6.25602e-07
6.22696e-07
6.17618e-07
6.13056e-07
6.11153e-07
6.13617e-07
6.26252e-07
6.48335e-07
6.64706e-07
9.14752e-07
3.24528e-06
8.07381e-05
7.49788e-05
0.000346862
0.00186542
4.13828e-05
8.10874e-06
4.56206e-06
3.16208e-06
2.24173e-06
1.65854e-06
1.32158e-06
1.14242e-06
1.04676e-06
9.48681e-07
7.49473e-07
6.47751e-07
6.28109e-07
6.28892e-07
6.34556e-07
6.35112e-07
6.33678e-07
6.3366e-07
6.37198e-07
6.44912e-07
6.61533e-07
6.94132e-07
7.46833e-07
7.84676e-07
1.08257e-06
3.46795e-06
0.00015171
0.000999749
0.00204367
0.00388151
6.08882e-06
5.5126e-06
5.3622e-06
5.08907e-06
4.29368e-06
2.9957e-06
2.33462e-06
2.03188e-06
1.71558e-06
1.15627e-06
7.28843e-07
6.40336e-07
6.40548e-07
6.4571e-07
6.51632e-07
6.5487e-07
6.56857e-07
6.64708e-07
6.79317e-07
7.01224e-07
7.36976e-07
7.96087e-07
8.76726e-07
1.09532e-06
1.56005e-06
3.57169e-06
1.05079e-05
0.00271731
0.00395574
0.00396116
5.92059e-06
6.43052e-06
7.72824e-06
8.3511e-06
8.07945e-06
6.12842e-06
4.46578e-06
3.52255e-06
3.16631e-06
1.99468e-06
9.5524e-07
6.78933e-07
6.67328e-07
6.82265e-07
6.8503e-07
6.92843e-07
6.99981e-07
7.1711e-07
7.46873e-07
7.87653e-07
8.43153e-07
9.35585e-07
1.23577e-06
1.82069e-06
2.79077e-06
4.23715e-06
7.31086e-06
0.000175333
0.00176119
0.0032448
7.16563e-06
9.42508e-06
1.30197e-05
3.32665e-05
2.32798e-05
9.18412e-06
6.21776e-06
5.42562e-06
4.90655e-06
4.29076e-06
2.1723e-06
9.12514e-07
7.41777e-07
7.47018e-07
7.45457e-07
7.53341e-07
7.69615e-07
7.98749e-07
8.44949e-07
9.01462e-07
1.00783e-06
1.29337e-06
1.95758e-06
3.41276e-06
5.70511e-06
6.90886e-06
7.85029e-06
8.73116e-06
1.24704e-05
0.000827353
1.77688e-05
0.000213117
0.000103624
0.000686184
2.76865e-05
9.0055e-06
7.14646e-06
6.53098e-06
7.03812e-06
8.31277e-06
5.09809e-06
1.55971e-06
8.86874e-07
8.30673e-07
8.38288e-07
8.45042e-07
8.70514e-07
9.1144e-07
9.85339e-07
1.14637e-06
1.43021e-06
2.00886e-06
3.35566e-06
6.38618e-06
1.07059e-05
2.15003e-05
1.35345e-05
1.09827e-05
1.03754e-05
2.03404e-05
0.00129448
0.000338013
0.000993324
0.00331408
0.000167011
9.84041e-06
7.58052e-06
8.2131e-06
1.44121e-05
7.03334e-05
8.78831e-06
2.6612e-06
1.1443e-06
9.69234e-07
9.98394e-07
1.01858e-06
1.0841e-06
1.20307e-06
1.40718e-06
1.75056e-06
2.35217e-06
3.49476e-06
5.8659e-06
1.03485e-05
0.00011679
0.000426547
0.00062345
0.000587719
0.000341955
2.77488e-05
0.00147929
0.000256736
0.00332593
0.00331003
0.000171333
1.07903e-05
9.61136e-06
4.01067e-05
0.000393935
9.79358e-05
1.08532e-05
4.75892e-06
2.13492e-06
1.60557e-06
1.59412e-06
1.64026e-06
1.78446e-06
2.0492e-06
2.49541e-06
3.2393e-06
4.48431e-06
6.52681e-06
9.65585e-06
1.34075e-05
0.000112107
0.000383801