/*--------------------------------*- C++ -*----------------------------------*\
| =========                 |                                                 |
| \\      /  F ield         | OpenFOAM: The Open Source CFD Toolbox           |
|  \\    /   O peration     | Version:  v1606+                                |
|   \\  /    A nd           | Web:      www.OpenFOAM.com                      |
|    \\/     M anipulation  |                                                 |
\*---------------------------------------------------------------------------*/
FoamFile
{
    version     2.0;
    format      ascii;
    class       volScalarField;
    location    "1.7";
    object      p_rgh;
}
// * * * * * * * * * * * * * * * * * * * * * * * * * * * * * * * * * * * * * //

dimensions      [1 -1 -2 0 0 0 0];

internalField   nonuniform List<scalar> 
6000
(
107596
107593
107590
107589
107588
107585
107581
107573
107569
107570
107571
107571
107569
107567
107566
107566
107564
107563
107561
107565
107566
107564
107560
107554
107547
107537
107532
107536
107541
107539
107556
107558
107559
107562
107564
107565
107561
107556
107552
107548
107545
107541
107534
107531
107534
107536
107537
107538
107540
107540
107541
107536
107531
107523
107514
107500
107488
107489
107498
107496
107534
107544
107557
107572
107582
107590
107591
107580
107569
107565
107556
107541
107529
107523
107531
107541
107547
107552
107556
107562
107555
107542
107525
107514
107499
107480
107468
107468
107482
107479
107515
107516
107527
107542
107563
107583
107603
107605
107587
107582
107565
107539
107521
107514
107519
107534
107545
107555
107567
107575
107553
107532
107514
107503
107485
107477
107474
107470
107467
107466
107521
107521
107521
107521
107529
107560
107608
107635
107623
107616
107589
107546
107522
107516
107512
107520
107540
107563
107587
107589
107552
107539
107537
107529
107505
107490
107486
107482
107480
107479
107528
107528
107528
107530
107533
107551
107611
107657
107662
107656
107624
107559
107523
107517
107513
107512
107539
107575
107611
107603
107569
107583
107603
107601
107568
107530
107510
107497
107493
107492
107541
107540
107542
107551
107571
107617
107670
107696
107691
107684
107662
107581
107524
107517
107514
107513
107543
107596
107634
107638
107614
107655
107677
107680
107662
107626
107596
107563
107535
107527
107604
107607
107615
107630
107662
107711
107714
107707
107705
107701
107696
107618
107536
107519
107519
107524
107561
107628
107663
107688
107670
107688
107672
107656
107658
107678
107684
107666
107635
107622
107691
107695
107696
107686
107668
107650
107678
107691
107698
107705
107712
107666
107574
107541
107544
107557
107601
107661
107684
107693
107683
107657
107626
107555
107524
107553
107605
107646
107675
107693
107648
107615
107584
107544
107498
107469
107560
107662
107682
107692
107703
107699
107640
107599
107601
107615
107650
107680
107681
107671
107651
107625
107534
107348
107322
107370
107441
107521
107556
107618
107489
107424
107390
107356
107329
107321
107358
107492
107629
107673
107678
107687
107681
107663
107664
107669
107678
107676
107663
107648
107630
107590
107339
107244
107251
107283
107338
107375
107376
107466
107358
107320
107319
107317
107314
107311
107318
107342
107413
107526
107589
107606
107627
107658
107672
107671
107663
107651
107637
107627
107622
107429
107243
107244
107256
107320
107374
107370
107370
107408
107380
107336
107335
107332
107338
107356
107377
107379
107350
107316
107306
107346
107416
107482
107544
107583
107599
107599
107585
107574
107495
107283
107234
107252
107310
107414
107465
107428
107385
107489
107473
107385
107401
107406
107420
107452
107483
107482
107420
107289
107140
107069
107082
107134
107206
107281
107332
107344
107318
107293
107218
107184
107244
107332
107442
107531
107547
107507
107456
107645
107581
107484
107521
107533
107545
107568
107594
107594
107534
107361
107138
106990
106943
106937
106942
106955
106970
106976
106970
106976
106996
107085
107268
107481
107608
107627
107609
107608
107644
107780
107687
107599
107645
107662
107672
107681
107688
107680
107634
107470
107194
107002
106930
106908
106891
106876
106868
106865
106865
106872
106896
106985
107243
107597
107725
107703
107691
107740
107808
107853
107779
107705
107756
107771
107776
107773
107764
107748
107713
107588
107304
107053
106945
106913
106893
106875
106871
106868
106868
106868
106871
106916
107177
107656
107763
107771
107789
107843
107880
107895
107866
107799
107842
107850
107851
107843
107829
107813
107789
107717
107465
107165
107000
106945
106917
106891
106874
106871
106870
106870
106872
106897
107154
107764
107799
107826
107862
107902
107922
107925
107945
107885
107906
107908
107908
107904
107894
107883
107867
107839
107674
107354
107126
107042
106998
106947
106896
106873
106872
106872
106873
106911
107280
107847
107838
107877
107920
107949
107956
107957
108009
107967
107961
107960
107961
107962
107960
107955
107945
107930
107867
107624
107361
107253
107180
107071
106949
106882
106872
106873
106876
106953
107546
107893
107880
107942
107975
107988
107990
107978
108052
108029
108013
108010
108012
108016
108016
108013
108008
108000
107988
107888
107696
107606
107498
107253
107029
106917
106889
106892
106910
107067
107757
107964
107973
108007
108022
108025
108019
107891
108081
108071
108058
108055
108058
108059
108054
108047
108043
108038
108038
108027
107974
107966
107832
107395
107133
107003
106964
106975
107032
107325
107848
108034
108026
108056
108058
108053
107856
107639
108104
108103
108095
108094
108094
108085
108070
108059
108041
108045
108049
108053
108059
108002
107746
107417
107229
107137
107111
107141
107268
107626
107788
107758
107858
108072
108081
107976
107662
107563
108125
108131
108128
108127
108121
108104
108063
108012
107987
108022
108040
108062
107989
107609
107396
107321
107256
107230
107228
107280
107454
107624
107492
107381
107579
107888
107989
107840
107678
107669
108143
108158
108159
108159
108149
108110
107781
107436
107505
107835
107960
107924
107506
107144
107068
107119
107167
107189
107211
107261
107360
107388
107253
107297
107498
107748
107908
107861
107804
107819
108159
108186
108191
108184
108162
107979
107353
106884
106833
107118
107374
107397
107188
107031
106964
106957
106993
107032
107072
107112
107141
107162
107217
107377
107624
107838
107932
107940
107901
107922
108174
108207
108222
108212
108206
107915
107226
106781
106680
106695
106842
107021
107096
107072
106991
106913
106881
106881
106904
106952
107026
107140
107300
107558
107809
107959
107999
107994
107960
107986
108200
108171
108212
108238
108241
107910
107403
106891
106686
106685
106691
106866
107062
107117
107064
106939
106862
106858
106861
106911
107043
107236
107504
107783
107976
108054
108055
108040
108008
108037
108234
108175
108178
108193
108147
108003
107718
107179
106717
106689
106689
106793
107021
107130
107130
107006
106890
106866
106875
106949
107154
107453
107761
107987
108098
108120
108105
108086
108059
108089
108290
108212
108183
108181
108169
108147
108000
107561
106858
106692
106692
106747
106956
107132
107169
107099
106982
106925
106936
107057
107341
107710
108007
108147
108183
108175
108156
108137
108117
108144
108360
108322
108287
108269
108263
108260
108199
107905
107166
106706
106694
106729
106890
107108
107224
107233
107136
107050
107063
107220
107538
107947
108220
108265
108252
108231
108209
108191
108179
108199
108409
108398
108382
108367
108356
108352
108327
108160
107570
106779
106695
106733
106858
107125
107345
107387
107315
107258
107297
107457
107753
108128
108355
108356
108325
108293
108265
108246
108235
108248
108433
108436
108435
108433
108428
108424
108412
108345
107896
106953
106726
106752
106870
107194
107541
107634
107608
107605
107676
107812
108020
108249
108383
108405
108382
108350
108318
108295
108281
108286
108448
108453
108463
108471
108479
108484
108479
108468
108128
107199
106813
106807
106926
107353
107870
108004
108016
108062
108130
108197
108268
108318
108349
108400
108398
108381
108355
108332
108316
108313
108455
108451
108470
108488
108510
108530
108544
108554
108301
107436
106943
106903
107089
107689
108284
108368
108394
108425
108448
108452
108430
108365
108332
108345
108388
108383
108371
108355
108340
108333
108452
108420
108458
108493
108522
108554
108591
108603
108392
107623
107113
107093
107443
108169
108549
108589
108600
108597
108583
108559
108521
108437
108341
108316
108351
108375
108372
108366
108356
108348
108411
108122
108446
108496
108527
108558
108573
108531
108400
107801
107360
107433
107964
108521
108617
108600
108595
108601
108594
108579
108557
108513
108415
108330
108326
108357
108365
108369
108365
108363
108107
107708
108075
108425
108511
108447
108339
108328
108335
107985
107697
107904
108411
108593
108547
108473
108464
108502
108543
108551
108547
108536
108493
108402
108337
108344
108356
108368
108361
108376
107780
107709
107716
108131
108319
108300
108231
108146
108102
108093
108074
108365
108586
108513
108377
108346
108340
108291
108412
108489
108511
108513
108509
108467
108389
108349
108347
108366
108324
108376
107917
107885
107953
108128
108258
108256
108207
108073
108053
108177
108408
108581
108527
108413
108368
108411
108356
108252
108223
108360
108445
108478
108487
108480
108438
108377
108345
108364
108183
108370
108258
108278
108295
108304
108323
108301
108248
108110
108073
108342
108546
108523
108451
108417
108444
108482
108433
108318
108203
108250
108349
108420
108456
108467
108455
108411
108358
108364
108128
108366
108278
108350
108418
108417
108413
108391
108357
108277
108282
108459
108487
108451
108428
108451
108460
108449
108427
108407
108316
108288
108330
108386
108426
108451
108458
108439
108389
108362
108119
108362
108204
108205
108436
108454
108441
108416
108386
108353
108363
108387
108403
108395
108409
108432
108408
108367
108338
108339
108348
108333
108332
108362
108404
108435
108454
108458
108426
108338
108109
108358
108308
108185
108438
108421
108378
108288
108221
108205
108206
108256
108312
108348
108353
108351
108325
108258
108199
108211
108243
108261
108264
108256
108339
108404
108436
108461
108457
108351
108102
108204
108422
108297
108431
108379
108269
107681
107580
107840
107993
108123
108177
108110
108187
108276
108246
108198
108128
108115
108140
108131
107835
107804
108124
108327
108419
108456
108479
108423
108153
107892
108486
108456
108420
108159
106963
106168
106094
106581
107086
107291
107078
106813
106957
107543
107856
107925
107911
107839
107676
107156
106315
106296
106728
107832
108371
108457
108491
108485
108282
107830
108505
108486
108341
107224
106024
105516
105435
105554
105743
105812
105687
105612
105647
105918
106302
106466
106535
106404
106104
105704
105480
105486
105588
106315
107852
108458
108512
108533
108351
107842
108190
108229
107740
106777
105840
105422
105357
105366
105381
105384
105373
105373
105371
105383
105431
105462
105479
105455
105413
105386
105390
105404
105431
105662
106819
108202
108543
108570
108415
107864
107605
107667
107488
106778
105768
105394
105356
105360
105362
105359
105357
105357
105356
105355
105355
105355
105355
105356
105361
105375
105391
105407
105431
105607
106581
108089
108584
108614
108474
107892
107365
107555
107675
106824
105726
105387
105356
105364
105366
105360
105358
105358
105357
105357
105357
105357
105357
105358
105364
105378
105395
105411
105435
105613
106677
108172
108633
108665
108534
107929
107369
107586
107815
106956
105751
105389
105356
105370
105372
105363
105360
105361
105359
105359
105359
105358
105359
105360
105370
105383
105399
105415
105438
105577
106703
108264
108673
108720
108634
108264
107398
107588
107928
107145
105802
105390
105355
105376
105380
105367
105365
105366
105361
105360
105360
105360
105361
105366
105376
105388
105402
105419
105441
105505
106279
108209
108726
108777
108462
108499
107482
107618
108015
107245
105805
105388
105353
105379
105388
105375
105372
105373
105365
105365
105367
105365
105367
105373
105382
105392
105406
105422
105445
105469
105678
107229
108739
108730
107394
108086
107754
107800
108072
107242
105720
105376
105353
105381
105394
105386
105380
105381
105374
105373
105378
105373
105375
105381
105388
105398
105411
105425
105450
105470
105510
106157
107793
108357
106952
107643
108072
108106
108120
106877
105564
105357
105353
105381
105398
105397
105390
105389
105383
105382
105389
105383
105385
105389
105395
105403
105415
105428
105453
105475
105491
105897
107414
107706
106976
107643
108366
108363
108033
106288
105450
105352
105354
105380
105400
105403
105399
105396
105391
105386
105397
105393
105393
105396
105402
105409
105420
105432
105456
105478
105488
105810
107537
107479
106995
107885
108527
108511
107684
105926
105403
105354
105355
105377
105399
105406
105407
105404
105395
105388
105402
105401
105399
105402
105407
105414
105424
105434
105459
105481
105488
105773
107628
107694
107023
108157
108585
108579
107447
105807
105393
105355
105357
105373
105393
105408
105413
105411
105397
105390
105403
105406
105404
105406
105412
105417
105427
105437
105461
105479
105483
105770
107670
107967
107673
108650
108641
108484
107388
105803
105396
105357
105358
105370
105387
105405
105416
105416
105398
105392
105404
105410
105408
105410
105415
105420
105430
105438
105461
105474
105479
105759
107658
108280
108504
108932
108694
108195
107534
105956
105419
105358
105359
105369
105385
105402
105416
105419
105400
105393
105403
105412
105411
105413
105417
105422
105431
105438
105462
105469
105476
105749
107681
108664
108928
109057
108747
108071
107928
106313
105481
105366
105360
105370
105387
105402
105417
105421
105404
105395
105403
105414
105414
105416
105420
105424
105432
105438
105463
105467
105477
105753
107596
108989
109095
109126
108765
108116
108262
106741
105601
105388
105363
105372
105396
105409
105419
105423
105412
105402
105405
105415
105418
105421
105424
105428
105434
105440
105465
105469
105484
105755
107358
109173
109192
109194
108659
108159
108540
107170
105793
105432
105371
105376
105413
105428
105429
105429
105426
105417
105414
105420
105426
105429
105432
105435
105438
105444
105472
105477
105513
105800
107132
109038
109269
109267
108693
108203
108793
107586
106047
105494
105389
105390
105441
105458
105453
105448
105449
105441
105434
105434
105440
105444
105446
105449
105449
105457
105490
105503
105575
106027
107243
108538
109105
109170
109112
108522
108994
107963
106298
105558
105419
105418
105478
105496
105487
105482
105480
105472
105462
105458
105461
105464
105467
105471
105469
105482
105521
105551
105662
106245
107741
108415
108277
108814
109394
109194
109176
108261
106467
105604
105457
105460
105525
105541
105529
105523
105516
105505
105494
105488
105488
105490
105492
105496
105495
105514
105559
105608
105754
106429
108056
108533
108310
108614
109463
109462
109388
108423
106534
105631
105496
105512
105584
105597
105581
105568
105553
105539
105526
105519
105518
105518
105519
105522
105524
105547
105596
105660
105820
106562
108230
108579
108350
108697
109528
109530
109498
108429
106516
105654
105537
105573
105655
105666
105644
105620
105592
105573
105559
105550
105548
105547
105547
105549
105555
105579
105628
105697
105859
106639
108278
108625
108391
108828
109449
109533
109055
108410
106500
105693
105590
105648
105741
105752
105726
105682
105638
105610
105593
105583
105579
105578
105578
105580
105588
105612
105659
105726
105883
106660
108438
108860
108432
109150
109289
108825
108827
108695
106633
105766
105661
105737
105839
105860
105827
105753
105687
105650
105629
105619
105614
105613
105613
105616
105628
105650
105692
105757
105920
106776
108632
109184
109183
109549
109057
108868
109015
108829
106851
105877
105763
105852
105951
105991
105944
105828
105737
105689
105666
105655
105650
105649
105651
105657
105672
105696
105731
105801
105996
106953
109028
109572
109643
109725
109411
109016
109332
108908
106966
106021
105915
106008
106089
106155
106076
105906
105785
105728
105703
105691
105687
105687
105692
105703
105725
105756
105788
105866
106113
107131
109206
109774
109789
109785
109662
109396
109596
109033
107065
106225
106136
106198
106272
106353
106215
105980
105833
105769
105743
105731
105728
105731
105740
105758
105790
105837
105875
105957
106271
107354
109024
109687
109681
109586
109864
109698
109690
108880
107184
106503
106414
106428
106503
106565
106335
106041
105881
105814
105789
105777
105776
105784
105799
105828
105873
105943
105997
106088
106503
107911
109199
109253
109248
109637
109945
109917
109795
108458
107314
106850
106729
106715
106768
106767
106432
106100
105934
105867
105844
105834
105837
105851
105876
105920
105983
106078
106169
106276
106792
108358
109640
109512
109553
109789
110000
110004
109307
108325
107630
107284
107112
107052
107047
106946
106528
106165
105996
105932
105915
105909
105916
105939
105979
106039
106126
106250
106392
106534
107082
108571
109824
109806
109892
110017
109805
109525
108985
108571
108209
107867
107593
107438
107355
107163
106638
106234
106071
106015
106005
106005
106019
106054
106112
106191
106303
106464
106673
106884
107363
108634
109912
110033
110081
110131
109273
109210
109156
109115
108975
108567
108209
108028
107913
107495
106772
106303
106163
106124
106118
106127
106150
106200
106277
106378
106518
106727
107027
107376
107818
108715
109726
110165
110186
110181
109302
109386
109559
109652
109626
109258
108845
108636
108592
108173
107257
106486
106287
106266
106262
106283
106319
106384
106481
106608
106781
107055
107484
108026
108516
108946
109484
109993
110158
110204
109494
109763
109859
109925
109916
109587
109205
109086
109083
109045
108244
106931
106481
106446
106452
106484
106536
106618
106739
106898
107120
107474
108039
108760
109320
109465
109573
109680
109855
110122
109887
110037
109997
110149
109948
109588
109340
109294
109502
109738
109215
107599
106782
106676
106711
106753
106824
106929
107080
107286
107573
108002
108644
109396
109894
109963
109913
109869
109857
109905
110191
110083
110181
110304
110074
109600
109371
109572
109980
110102
109663
108246
107246
107045
107102
107153
107243
107377
107569
107830
108176
108636
109223
109798
110099
110169
110180
110161
110108
109940
110206
110065
110294
110310
110079
109620
109605
110033
110208
110138
109775
108919
108029
107726
107746
107795
107898
108057
108277
108566
108919
109309
109690
109974
110102
110166
110195
110241
110249
110162
110080
110065
110302
110283
109967
109856
110083
110281
110215
110128
110019
109761
109169
108808
108735
108747
108831
108977
109174
109408
109655
109859
109978
110028
110068
110121
110153
110169
110247
110246
110005
110159
110302
110167
110056
110218
110369
110387
110325
110334
110412
110414
110194
109962
109840
109798
109823
109893
109986
110079
110150
110175
110133
110060
110042
110074
110091
110062
110107
110239
109995
110255
110306
110242
110302
110423
110468
110476
110494
110549
110594
110615
110601
110560
110503
110459
110436
110427
110420
110406
110382
110346
110272
110140
110046
110057
110081
110030
109949
110170
110009
110306
110362
110378
110438
110473
110479
110484
110498
110513
110536
110560
110592
110615
110615
110602
110583
110563
110542
110515
110481
110444
110392
110282
110129
110070
110082
110042
109942
109939
110091
110368
110422
110439
110438
110433
110409
110385
110369
110371
110414
110469
110522
110556
110575
110578
110572
110562
110552
110539
110520
110493
110462
110401
110280
110156
110115
110078
109970
109889
110240
110413
110424
110412
110394
110292
110186
110104
110040
110054
110189
110340
110445
110502
110530
110540
110538
110532
110526
110525
110520
110508
110489
110458
110391
110283
110195
110131
110016
109876
110351
110408
110395
110360
110150
109837
109690
109665
109654
109715
109943
110209
110380
110461
110494
110506
110505
110496
110487
110487
110494
110496
110489
110475
110441
110376
110291
110203
110072
109859
110386
110385
110361
110060
109538
109321
109306
109403
109515
109645
109905
110188
110358
110435
110468
110479
110475
110462
110446
110440
110443
110465
110468
110468
110456
110421
110363
110283
110147
109838
110381
110366
110106
109351
109155
109165
109279
109405
109524
109686
109934
110207
110357
110421
110448
110456
110449
110430
110404
110369
110340
110418
110427
110439
110445
110434
110404
110350
110233
109869
110360
110173
109481
108930
109067
109172
109293
109416
109581
109798
110023
110255
110364
110411
110430
110435
110426
110402
110361
110313
110305
110354
110371
110393
110413
110422
110415
110391
110306
109960
110224
109768
109053
108924
109089
109201
109326
109454
109706
109925
110138
110296
110367
110399
110412
110415
110406
110379
110328
110280
110271
110282
110298
110326
110361
110388
110402
110401
110349
110078
110047
109076
109151
108930
109150
109248
109359
109563
109855
110064
110226
110320
110364
110385
110394
110395
110387
110360
110305
110248
110238
110226
110218
110231
110279
110333
110368
110381
110362
110190
109971
108961
109195
108965
109244
109301
109383
109768
110013
110182
110279
110330
110356
110368
110373
110374
110367
110344
110290
110217
110209
110201
110156
110116
110143
110236
110313
110336
110342
110267
109850
108970
109206
108994
109230
109281
109543
109972
110158
110257
110305
110331
110344
110349
110351
110350
110346
110328
110279
110198
110197
110189
110126
110021
109953
110018
110189
110287
110296
110288
109880
109297
109423
109131
109287
109416
109871
110157
110253
110295
110314
110323
110327
110327
110325
110324
110321
110308
110268
110189
110189
110185
110124
109997
109813
109736
109848
110159
110246
110252
109778
109682
109930
109729
109731
109885
110159
110265
110295
110305
110308
110308
110305
110301
110297
110294
110292
110285
110256
110187
110171
110175
110146
110040
109845
109708
109691
109740
110100
110205
109744
110152
110309
110251
110210
110227
110279
110296
110299
110296
110292
110285
110278
110271
110265
110261
110259
110257
110240
110189
110153
110150
110151
110100
109955
109748
109663
109647
109641
110106
109921
110291
110280
110279
110305
110296
110288
110285
110281
110274
110265
110256
110246
110237
110230
110225
110223
110223
110217
110187
110144
110122
110128
110117
110047
109878
109687
109621
109606
109853
110137
110208
110074
110076
110196
110242
110254
110256
110252
110243
110231
110219
110208
110199
110191
110186
110183
110183
110184
110173
110140
110104
110098
110099
110075
109989
109806
109606
109578
109600
110136
110115
109296
109800
110084
110194
110223
110225
110217
110204
110190
110176
110164
110155
110148
110142
110139
110139
110142
110142
110129
110096
110074
110071
110064
110029
109927
109721
109553
109546
110061
109468
109232
109602
110063
110180
110200
110189
110173
110156
110140
110126
110115
110106
110100
110095
110093
110092
110095
110100
110100
110084
110059
110046
110041
110025
109978
109855
109628
109516
109774
108721
109219
109608
110104
110184
110171
110144
110119
110099
110081
110068
110058
110051
110046
110044
110043
110042
110044
110050
110056
110055
110041
110026
110016
110007
109983
109919
109748
109484
109430
108690
109504
109824
110149
110170
110127
110087
110057
110033
110015
110001
109993
109988
109987
109988
109989
109991
109993
109997
110004
110010
110009
110001
109992
109983
109970
109935
109828
109517
109214
109064
109841
110060
110155
110123
110066
110019
109985
109959
109939
109926
109920
109919
109921
109926
109931
109936
109940
109944
109950
109958
109964
109964
109961
109956
109947
109928
109856
109587
109240
109666
110012
110105
110097
110046
109988
109940
109904
109876
109852
109839
109835
109840
109850
109860
109870
109878
109885
109890
109896
109904
109911
109917
109921
109921
109918
109905
109848
109632
109360
109903
110047
110056
110015
109960
109904
109855
109811
109770
109738
109724
109728
109745
109767
109787
109804
109818
109828
109836
109842
109849
109857
109865
109872
109878
109880
109873
109824
109646
109518
109947
110012
109975
109928
109872
109815
109752
109678
109604
109559
109549
109573
109615
109661
109701
109731
109753
109769
109779
109787
109795
109803
109811
109819
109827
109835
109834
109794
109647
109661
109929
109925
109890
109840
109783
109706
109583
109422
109280
109244
109266
109342
109420
109500
109579
109642
109680
109706
109721
109731
109740
109748
109757
109765
109773
109783
109789
109759
109642
109693
109851
109837
109806
109752
109678
109522
109169
108889
108790
108898
108994
109160
109288
109333
109386
109522
109588
109633
109660
109674
109684
109694
109703
109711
109719
109728
109735
109717
109629
109650
109755
109755
109719
109657
109523
109067
108379
108391
108542
108778
109069
109334
109412
109385
109336
109376
109470
109546
109592
109616
109629
109640
109649
109658
109665
109674
109680
109669
109606
109597
109665
109678
109634
109539
109237
108331
108337
108371
108654
109036
109366
109490
109473
109388
109272
109200
109301
109425
109513
109555
109575
109587
109597
109606
109613
109620
109626
109617
109572
109544
109588
109596
109542
109362
108586
108288
108308
108568
109021
109365
109486
109465
109372
109257
109158
108978
109020
109163
109395
109484
109522
109537
109547
109556
109563
109569
109574
109565
109532
109499
109528
109527
109422
109035
108237
108253
108401
108942
109345
109443
109427
109340
109166
109049
108975
108779
108764
108762
109127
109372
109457
109486
109498
109508
109515
109520
109523
109516
109489
109458
109473
109444
109206
108305
108204
108227
108742
109295
109401
109381
109301
109037
108808
108804
108766
108724
108728
108725
108721
109148
109344
109428
109449
109460
109469
109475
109477
109471
109448
109416
109419
109291
108656
108160
108177
108529
109207
109365
109343
109286
108924
108550
108533
108631
108736
108802
108851
108824
108689
108841
109159
109331
109394
109413
109425
109434
109436
109431
109412
109365
109307
109001
108156
108174
108476
109114
109334
109310
109274
108989
108248
108328
108496
108671
108771
108939
109036
109069
108949
108936
109110
109250
109334
109369
109386
109397
109402
109398
109383
109283
109117
108395
108128
108485
109042
109299
109279
109249
109053
108241
108159
108365
108568
108759
108869
109025
109087
109112
109112
109110
109149
109219
109295
109334
109353
109366
109374
109373
109362
109150
108756
108031
108306
108948
109242
109250
109221
109111
108730
107827
108126
108479
108700
108843
108960
109006
108998
108971
108945
108925
108994
109046
109188
109274
109314
109338
109353
109359
109352
108940
107853
107834
108693
109173
109225
109197
109124
108838
108290
107795
108145
108598
108811
108895
108938
108929
108821
108571
108396
108449
108598
108618
108865
109135
109247
109305
109339
109355
109352
108664
106379
107545
108956
109213
109180
109128
108873
108408
107774
107766
108241
108723
108856
108886
108895
108801
108593
108162
108172
108402
108730
108637
108740
109016
109192
109291
109341
109364
109359
108028
106341
108139
109155
109179
109128
108949
108303
107708
107340
107724
108402
108794
108831
108836
108803
108661
108424
108145
108264
108603
108924
108964
108980
109111
109224
109320
109359
109375
109349
107973
106665
108898
109200
109133
108888
108635
107643
107095
107131
107766
108551
108783
108789
108767
108696
108537
108310
108139
108258
108832
108958
108967
108970
109037
109189
109321
109347
109362
109262
108703
108434
109171
109164
108907
107946
107037
106984
107008
107148
108039
108659
108751
108720
108676
108574
108406
108185
108119
108469
108828
108794
108669
108389
108428
108921
109190
109334
109324
108946
108907
109133
109151
108998
106989
103606
103106
105681
106997
107525
108307
108622
108620
108583
108544
108472
108351
108209
108241
108700
108739
108186
106870
105054
104636
106655
108540
109331
109265
108439
108909
109154
109109
107281
102903
101157
101093
103261
106866
108046
108515
108606
108607
108606
108604
108580
108495
108289
107881
107114
105973
104360
102487
101462
101820
104859
108099
109327
109261
108076
109001
109159
108556
104473
101687
100860
100701
101158
103170
106076
107544
107979
108052
108012
107840
107445
106664
105408
103793
102314
101571
101084
100771
100691
101169
104363
108024
109221
109290
108102
107686
108230
105774
103066
101605
100852
100620
100638
100885
101600
102597
103296
103522
103475
103179
102619
101908
101303
100899
100705
100654
100636
100636
100645
100943
103719
107936
109229
109336
108135
105673
105280
104092
103013
101746
100846
100586
100583
100604
100647
100728
100802
100831
100822
100779
100714
100653
100619
100612
100614
100622
100628
100636
100652
100814
102869
107595
109241
109389
108176
104557
104243
104151
103330
101786
100795
100564
100579
100601
100611
100615
100615
100612
100605
100601
100601
100602
100604
100612
100622
100632
100640
100650
100666
100748
101971
106740
109277
109449
108593
104644
104391
104499
103534
101766
100732
100555
100583
100615
100622
100628
100630
100627
100619
100611
100609
100612
100615
100622
100634
100646
100655
100666
100682
100725
101194
104546
109254
109513
109170
104753
104580
104867
103713
101690
100669
100554
100593
100640
100641
100648
100651
100648
100639
100628
100625
100629
100631
100635
100646
100657
100667
100679
100697
100731
100941
102370
106369
109352
106754
104911
104822
105269
103824
101581
100625
100553
100604
100670
100662
100668
100673
100669
100660
100649
100645
100647
100646
100648
100657
100667
100678
100692
100712
100749
100977
102021
104053
105996
105201
105154
105125
105659
103866
101468
100610
100553
100620
100703
100684
100688
100697
100693
100682
100671
100665
100664
100661
100662
100668
100676
100688
100705
100729
100763
101027
102404
103592
104352
104921
105470
105501
106023
103843
101366
100608
100552
100645
100736
100710
100709
100725
100720
100707
100694
100686
100682
100676
100676
100680
100687
100700
100720
100749
100772
101033
102765
103684
103915
104863
105868
105908
106308
103747
101292
100611
100562
100681
100770
100742
100735
100760
100752
100736
100720
100709
100702
100694
100691
100694
100700
100713
100736
100770
100779
101059
103046
103717
103692
104828
106295
106284
106518
103664
101238
100626
100594
100729
100810
100781
100771
100804
100791
100771
100751
100737
100726
100716
100710
100711
100715
100726