/*--------------------------------*- C++ -*----------------------------------*\
| =========                 |                                                 |
| \\      /  F ield         | OpenFOAM: The Open Source CFD Toolbox           |
|  \\    /   O peration     | Version:  v1606+                                |
|   \\  /    A nd           | Web:      www.OpenFOAM.com                      |
|    \\/     M anipulation  |                                                 |
\*---------------------------------------------------------------------------*/
FoamFile
{
    version     2.0;
    format      ascii;
    class       volScalarField;
    location    "1.65";
    object      alphat.air;
}
// * * * * * * * * * * * * * * * * * * * * * * * * * * * * * * * * * * * * * //

dimensions      [1 -1 -1 0 0 0 0];

internalField   nonuniform List<scalar> 
6000
(
0.00037266
0.00342992
0.00542376
0.00589139
0.00604444
0.00611215
0.00615893
0.00621926
0.00628646
0.00634018
0.00639295
0.00642296
0.00641656
0.00642492
0.00643417
0.00642171
0.0063988
0.00633802
0.00627062
0.00619885
0.00615728
0.006137
0.00611989
0.00609864
0.00606426
0.00600565
0.0059374
0.00554333
0.00345023
0.000379952
0.000284278
0.00198022
0.00378781
0.00486634
0.00538744
0.00563756
0.00576034
0.00584697
0.00595702
0.00612237
0.00619004
0.00618085
0.00618557
0.00619564
0.00620807
0.00622975
0.0062249
0.00612375
0.00604038
0.00600599
0.00597737
0.00594004
0.0058827
0.00578853
0.00563603
0.00537139
0.00486891
0.00383287
0.0020402
0.000278315
0.000241258
0.00158671
0.00321633
0.00438896
0.0050957
0.00549826
0.00572399
0.00584707
0.00594445
0.00608385
0.00619348
0.00621688
0.006221
0.0062367
0.00625962
0.0062781
0.00625911
0.00616659
0.00613034
0.00614068
0.00614808
0.0060953
0.00597319
0.00577534
0.00548979
0.00508601
0.00443035
0.003323
0.00169614
0.000237698
0.00021508
0.00135525
0.00280835
0.00402069
0.00486108
0.00545187
0.00585207
0.00606663
0.00615643
0.00624681
0.00635287
0.00639709
0.00641073
0.00643776
0.00647122
0.00648409
0.00644697
0.00639781
0.00642937
0.0064913
0.00651324
0.0063628
0.0060965
0.00576738
0.00534903
0.00478943
0.00402362
0.0029402
0.00153128
0.000214805
0.00019124
0.00121413
0.00253416
0.0037018
0.0046598
0.00540105
0.00596192
0.00635798
0.00653997
0.00660191
0.00667773
0.00673548
0.00676107
0.00679439
0.00683727
0.00685132
0.00681762
0.00680064
0.00683079
0.00689588
0.00687864
0.006619
0.00623865
0.00579118
0.00523436
0.00453536
0.00368266
0.00263284
0.00136208
0.00019602
0.000173184
0.00115836
0.00241129
0.00355297
0.00455817
0.00541851
0.00610774
0.00667276
0.0070438
0.00709986
0.00712341
0.00720397
0.00725908
0.00729435
0.00733874
0.00736038
0.00732135
0.00727714
0.0072878
0.00735731
0.00728122
0.00697742
0.00653396
0.00598447
0.00529857
0.00445998
0.00347952
0.00238981
0.00119977
0.000177762
0.000162616
0.00116639
0.00245111
0.00365004
0.00469585
0.00561674
0.00639808
0.0070573
0.00756656
0.00775615
0.00775453
0.00778209
0.0078314
0.00786259
0.00787668
0.00790252
0.00788329
0.00782612
0.00781414
0.00785234
0.00769133
0.00740594
0.00696266
0.00638949
0.00562548
0.00465986
0.00353038
0.00235035
0.00114115
0.000162594
0.000158253
0.00120657
0.00263931
0.00397457
0.00508385
0.00599294
0.00677931
0.00746874
0.00798104
0.0083223
0.00846752
0.00851859
0.00852951
0.00850941
0.00849231
0.00848675
0.00848736
0.00844155
0.00841166
0.008369
0.00812615
0.00781771
0.00730799
0.00666918
0.00588475
0.00490741
0.00375273
0.00251956
0.00124025
0.000165371
0.000166811
0.00142956
0.00305881
0.0043835
0.00540981
0.00628286
0.00706032
0.00775575
0.0082712
0.0086178
0.00890385
0.00911365
0.00923519
0.0092456
0.0092036
0.00916865
0.00916211
0.00914584
0.00909263
0.00884548
0.008516
0.00812188
0.00752132
0.00681107
0.00596755
0.00494744
0.00377933
0.00254626
0.00126586
0.000178006
0.00018759
0.00163646
0.00326623
0.00456088
0.00559003
0.00646005
0.00722056
0.00788433
0.00841104
0.00877778
0.00904266
0.00934694
0.00961203
0.00979783
0.00989439
0.00992656
0.00993718
0.00990141
0.0097289
0.00927501
0.00884211
0.00833032
0.00770123
0.00696979
0.00609963
0.00505951
0.00382698
0.00251172
0.00118888
0.000174624
0.000187092
0.00174473
0.00336226
0.00465389
0.00569163
0.00656318
0.00731362
0.00797228
0.0084846
0.00885485
0.00911882
0.00941167
0.00970162
0.0100181
0.0102815
0.0104299
0.0104815
0.0104101
0.0101367
0.0096807
0.00917253
0.008631
0.00796964
0.00723462
0.0063749
0.00533701
0.00409546
0.00266642
0.00113878
0.000161774
0.000186212
0.00177866
0.00341953
0.00472037
0.00576082
0.00663487
0.0074071
0.00807001
0.0085904
0.00896803
0.00924117
0.00952188
0.00979436
0.0101012
0.0103916
0.0105894
0.0106722
0.0106109
0.0103823
0.0100167
0.00956321
0.00900283
0.00836331
0.00762761
0.00677451
0.00575262
0.00450939
0.00302861
0.00134515
0.000158769
0.000187228
0.00178731
0.00344077
0.00475796
0.00582114
0.00672604
0.00751756
0.0081878
0.0087244
0.00912068
0.00940423
0.00966501
0.00991286
0.010181
0.0104296
0.0106009
0.01069
0.0106577
0.0104993
0.0102555
0.00994264
0.00951074
0.00887032
0.00808553
0.00721037
0.00618965
0.0049594
0.00347625
0.00172751
0.000174271
0.000188987
0.00180302
0.0034807
0.00482689
0.00592369
0.00685779
0.00766041
0.008325
0.00886242
0.00928303
0.00958371
0.00981203
0.0100443
0.0102569
0.0104678
0.0106233
0.0107118
0.0107113
0.0106123
0.0104384
0.0102304
0.00992368
0.00935978
0.00855853
0.00763888
0.00659358
0.00534458
0.00382069
0.00196372
0.00019281
0.000192914
0.00184668
0.00356464
0.00495435
0.00608886
0.00703718
0.00783261
0.00849122
0.00901756
0.00944154
0.00976493
0.00997991
0.0101779
0.0103582
0.0105282
0.0106737
0.0107598
0.0107844
0.010735
0.0106205
0.0104761
0.0102547
0.00977604
0.00898066
0.0080212
0.00694219
0.00566054
0.00407545
0.00210834
0.000205061
0.000198894
0.00190959
0.00367945
0.00511279
0.00627901
0.0072434
0.00804205
0.00868919
0.00920155
0.00959766
0.00991576
0.0101577
0.0103236
0.0104776
0.0106171
0.0107471
0.0108302
0.0108772
0.0108794
0.0108259
0.0107031
0.0105091
0.0100803
0.00930211
0.00833318
0.00723257
0.00591484
0.00426699
0.00221258
0.000219391
0.000207585
0.00198163
0.00381566
0.00529292
0.00648608
0.00746383
0.00826951
0.00892547
0.00943443
0.00980178
0.0100762
0.0103067
0.0104878
0.0106267
0.010739
0.0108395
0.0109133
0.0109611
0.0109803
0.0109625
0.0108629
0.010684
0.0102695
0.00952231
0.00857418
0.00746199
0.0061129
0.00441869
0.00231481
0.0002285
0.000217703
0.00206704
0.00397395
0.00550227
0.00672762
0.00772268
0.00853705
0.00919651
0.00971145
0.010079
0.0103137
0.0105021
0.0106815
0.0108218
0.0109178
0.0109875
0.0110419
0.0110568
0.0110568
0.011034
0.0109463
0.0107869
0.0104001
0.00969597
0.00876467
0.00763014
0.00622749
0.00443702
0.00227878
0.000233492
0.000228605
0.00216519
0.00416104
0.00575578
0.00702555
0.00804494
0.00887381
0.00953504
0.0100446
0.0104219
0.0106806
0.0108479
0.0110086
0.0111497
0.0112562
0.0113098
0.0112959
0.0112422
0.0111958
0.011141
0.0110599
0.0109102
0.010561
0.00988703
0.00894435
0.00776368
0.00625881
0.00440082
0.00223304
0.000234349
0.000239848
0.00227071
0.00437663
0.00606061
0.00739808
0.00845862
0.00930857
0.00996306
0.0104625
0.010841
0.0111209
0.0113419
0.0115344
0.0117189
0.011868
0.0119217
0.011851
0.0117052
0.0115557
0.0114466
0.011363
0.0111902
0.0108569
0.01019
0.00918732
0.00790882
0.00630777
0.00442245
0.00222721
0.000234497
0.00025128
0.0023728
0.00460873
0.00641388
0.0078485
0.00896718
0.00984075
0.010491
0.0109719
0.0113295
0.0116152
0.0118687
0.0121212
0.0123878
0.012574
0.0126077
0.012508
0.0123337
0.0121546
0.0120042
0.0118839
0.0116791
0.0112682
0.0105442
0.00949715
0.00812484
0.00647447
0.00452238
0.00224149
0.000235039
0.000261171
0.00245222
0.00483303
0.00679218
0.00830489
0.00948972
0.0103836
0.011068
0.0115502
0.0118807
0.0121432
0.0123698
0.0126043
0.0128612
0.0129858
0.0129959
0.0129202
0.0127825
0.0126162
0.0124681
0.0123101
0.012022
0.0114835
0.0107017
0.00967879
0.00835297
0.00669283
0.00467853
0.00231749
0.00023828
0.000270319
0.0025072
0.00500269
0.00707901
0.0086608
0.00985856
0.0107797
0.0115353
0.0120967
0.012458
0.0126764
0.0128224
0.0129796
0.0130964
0.0131442
0.0131335
0.0130621
0.0129441
0.0127854
0.0126186
0.0123933
0.0120529
0.0114866
0.0107229
0.0097362
0.00846232
0.00683523
0.00481894
0.00240566
0.000244382
0.000278323
0.00265358
0.00519519
0.00726722
0.00887346
0.01008
0.0110214
0.0117851
0.0124348
0.0129272
0.0131737
0.0132408
0.0132639
0.0132614
0.0132401
0.013194
0.0131013
0.0129618
0.0127819
0.0125848
0.0123538
0.0119916
0.0114353
0.0106926
0.00973197
0.0084883
0.00689581
0.00490016
0.00247069
0.00024977
0.000287808
0.00275349
0.00533594
0.00740592
0.00901626
0.0102416
0.0111765
0.0119111
0.0125466
0.0130863
0.0134105
0.0135051
0.0134858
0.0134264
0.0133454
0.0132459
0.0131297
0.0129682
0.0127725
0.0125525
0.0123084
0.0119238
0.0113674
0.0106397
0.00969513
0.00846857
0.00690289
0.00492802
0.00250436
0.000253691
0.000291499
0.00280927
0.00542301
0.00750557
0.00912261
0.0103553
0.0112786
0.0119845
0.012549
0.0130252
0.0133894
0.0135935
0.0136353
0.013574
0.0134646
0.013324
0.013177
0.0129966
0.0127915
0.0125539
0.0122743
0.0118578
0.0113077
0.0105934
0.00965139
0.00843335
0.0068817
0.00492307
0.00251306
0.000256512
0.000294023
0.00286094
0.00551176
0.00760793
0.00922174
0.0104469
0.0113492
0.012023
0.012525
0.0129308
0.0133047
0.0135977
0.0137263
0.0137013
0.0135939
0.0134466
0.0132579
0.0130618
0.0128336
0.0125771
0.012247
0.0118247
0.0112887
0.0105682
0.00961875
0.00839857
0.00685323
0.00490582
0.00251326
0.000258826
0.00029708
0.00291157
0.00560593
0.00772488
0.0093442
0.0105611
0.0114361
0.0120648
0.0125103
0.0128723
0.0132316
0.0135707
0.0137775
0.013812
0.0137282
0.0135802
0.0133877
0.013155
0.0129004
0.0126095
0.0122711
0.0118648
0.0113178
0.0105757
0.0096081
0.00837821
0.00682786
0.00488988
0.00251384
0.000261338
0.000300659
0.00296451
0.0057136
0.00787103
0.00951436
0.0107383
0.0116004
0.0121671
0.0125567
0.0128968
0.0132311
0.0135616
0.0138135
0.0139105
0.0138702
0.013727
0.0135112
0.01326
0.0129937
0.0127145
0.0123968
0.0119758
0.0113951
0.0106222
0.00963023
0.00838086
0.00682287
0.0048877
0.00252114
0.000264519
0.000304911
0.00302445
0.00584336
0.00806095
0.00975301
0.0110101
0.0119001
0.012412
0.0127312
0.0130273
0.0133403
0.0136421
0.0138915
0.0140279
0.0140117
0.0138714
0.0136591
0.0134324
0.0131958
0.0129406
0.0126183
0.0121641
0.0115369
0.0107207
0.00969438
0.00842205
0.00685015
0.00490897
0.00253979
0.000268642
0.000309647
0.00308667
0.00600262
0.00831012
0.0100839
0.0113976
0.012351
0.0129163
0.0131814
0.0133894
0.013637
0.0138703
0.0140858
0.0142127
0.0142155
0.0141331
0.0139836
0.013803
0.0135928
0.0133205
0.0129393
0.012413
0.0117277
0.0108665
0.00980462
0.0085056
0.00691476
0.00495858
0.00257251
0.000273824
0.000316028
0.0031319
0.00620825
0.00863157
0.010462
0.0118281
0.0128839
0.0135765
0.0138942
0.0140284
0.0141968
0.0143468
0.0144793
0.0145987
0.0146832
0.0146603
0.0145429
0.0143569
0.0140983
0.0137569
0.0133027
0.0127136
0.0119731
0.0110637
0.00996134
0.00863011
0.00701478
0.00503567
0.00261938
0.000280015
0.000327398
0.00320376
0.00645025
0.00894678
0.0107936
0.0122516
0.0134278
0.0142715
0.0147064
0.0148314
0.0149558
0.0150579
0.0151733
0.0153026
0.0153985
0.0153833
0.0152543
0.0150247
0.0146981
0.0142744
0.0137418
0.0130835
0.0122813
0.0113163
0.0101644
0.0087909
0.00714284
0.00513412
0.00267748
0.00028688
0.000342323
0.00331496
0.00656409
0.00908205
0.0109893
0.0125298
0.0137918
0.0147637
0.0154048
0.0157078
0.0158279
0.0159266
0.0160315
0.0161465
0.0162289
0.0162085
0.0160593
0.0157811
0.015388
0.0148866
0.0142741
0.0135393
0.0126651
0.0116315
0.0104146
0.00898161
0.00728645
0.00524139
0.00273803
0.000293799
0.000345542
0.00335316
0.00654147
0.00909497
0.0111044
0.01274
0.0140802
0.0151351
0.0159149
0.0164466
0.0166988
0.0168253
0.0169285
0.0170402
0.0171241
0.0171058
0.0169407
0.0166192
0.0161653
0.0155947
0.0149062
0.0140911
0.0131341
0.012016
0.0107129
0.00919484
0.00742701
0.00533394
0.00277607
0.000300614
0.000341486
0.00326651
0.00640844
0.00904358
0.0111886
0.0129464
0.0143951
0.0155504
0.0164121
0.0170442
0.0174893
0.0177043
0.0178344
0.0179829
0.0180725
0.018046
0.0178577
0.0175055
0.0170149
0.0163951
0.0156375
0.0147383
0.0136879
0.0124698
0.0110591
0.00942563
0.00754519
0.00536884
0.00273482
0.000306763
0.000332919
0.00308388
0.00620867
0.00896015
0.0112747
0.0131747
0.0147434
0.0160233
0.0169981
0.0176953
0.0182286
0.0186175
0.0188128
0.0189876
0.0190465
0.0189636
0.0187254
0.0183684
0.0178998
0.0172744
0.0164646
0.0154713
0.0143126
0.0129797
0.0114447
0.00966629
0.0076081
0.00525671
0.00259894
0.000315076
0.000330095
0.00300688
0.00608704
0.00894132
0.0114093
0.013447
0.0151331
0.0165373
0.0176726
0.0185201
0.0191497
0.0196964
0.0199668
0.0200627
0.020005
0.0198254
0.0195494
0.0191986
0.0187585
0.0181759
0.0173647
0.0162725
0.0149913
0.0135234
0.0118482
0.00991074
0.00764948
0.00517554
0.00258888
0.000322479
0.000332795
0.00307436
0.00617568
0.00908223
0.0116313
0.0137531
0.0155326
0.0170601
0.0183697
0.0194447
0.0202836
0.0208755
0.0211558
0.0210547
0.0208473
0.0205696
0.0202423
0.0198643
0.0194203
0.0188962
0.0181564
0.0170537
0.0156887
0.0140741
0.0122466
0.0101521
0.00771529
0.00516847
0.0026473
0.000326946
0.000335797
0.00323475
0.00643371
0.00936729
0.0119199
0.0140617
0.0158877
0.0175098
0.0189775
0.0202451
0.0211699
0.0215866
0.0217518
0.0216205
0.0213415
0.0210029
0.0206174
0.0201846
0.0197031
0.0191807
0.0185403
0.0176114
0.0162963
0.014584
0.0126149
0.0103851
0.00781203
0.00517401
0.00267495
0.000329102
0.000342462
0.00328078
0.00666189
0.00967341
0.0122316
0.0143477
0.0161396
0.0177881
0.0193277
0.0206085
0.0214057
0.021667
0.0217534
0.0216668
0.0214103
0.0210583
0.0206447
0.0201794
0.0196693
0.0191269
0.0185276
0.0177533
0.0165744
0.0149249
0.0129194
0.0105987
0.00790191
0.00517548
0.00268955
0.000333083
0.000342236
0.00324461
0.00685371
0.0100128
0.0125798
0.0145772
0.016239
0.0178127
0.0193061
0.0205037
0.0212115
0.0214371
0.0215221
0.021451
0.0212285
0.0208958
0.0204921
0.0200408
0.0195424
0.0190048
0.0184148
0.0176924
0.0166145
0.0151086
0.0131632
0.0108152
0.0080103
0.00517583
0.00269959
0.000336906
0.000343743
0.00325239
0.00712472
0.0104309
0.0129
0.0146957
0.0161365
0.017602
0.0190312
0.020169
0.0208501
0.0210915
0.0211832
0.0211258
0.0209306
0.020642
0.0202857
0.0198746
0.0194122
0.0189036
0.0183367
0.0176261
0.0165966
0.0152183
0.013401
0.0110938
0.00822629
0.00520082
0.00268516
0.000338596
0.00035143
0.00333747
0.00743104
0.0106227
0.0128796
0.0145851
0.0160162
0.0173618
0.0187563
0.0198712
0.0204771
0.0207332
0.0208409
0.0208049
0.0206539
0.0204249
0.0201285
0.0197683
0.0193529
0.0188898
0.0183581
0.0176527
0.0166579
0.015333
0.0136895
0.0115001
0.00853202
0.00527267
0.00268298
0.000341186
0.000365387
0.00348784
0.00748164
0.0104439
0.0125929
0.0143562
0.0158869
0.0173452
0.0187217
0.0197479
0.0202265
0.0204839
0.0205841
0.0205793
0.0204791
0.020316
0.0200919
0.0197927
0.0194203
0.0189856
0.0184446
0.0177244
0.0167355
0.0154489
0.0139209
0.0119106
0.00892407
0.00555111
0.00276341
0.0003477
0.000383364
0.00356568
0.00730464
0.0100998
0.0122631
0.0140978
0.0157213
0.0172363
0.0185979
0.0195852
0.0200567
0.0202928
0.0204381
0.0204777
0.0204375
0.0203297
0.0201555
0.0198981
0.0195487
0.0190667
0.0184362
0.0176153
0.0165433
0.0152454
0.0137722
0.0119778
0.0094508
0.00626786
0.00298984
0.000355095
0.000393409
0.0035971
0.00712406
0.00980113
0.0119786
0.0138525
0.0155348
0.01705
0.0183263
0.0192344
0.0197756
0.0200886
0.0202872
0.0203939
0.0204147
0.0203385
0.0201679
0.0198938
0.0195007
0.0189514
0.0182218
0.0173012
0.0162106
0.0149552
0.0135401
0.0119034
0.00981131
0.00685382
0.00320364
0.000358717
0.000396501
0.00364456
0.00700305
0.00959679
0.0117655
0.0136713
0.0153804
0.0168623
0.0180228
0.0188055
0.01933
0.0197309
0.0200133
0.0201864
0.0202457
0.0201846
0.0199974
0.0196809
0.0192285
0.018628
0.0178703
0.0169664
0.0159206
0.0147282
0.0133779
0.0118355
0.00994431
0.00719629
0.00344524
0.000363928
0.000394636
0.00364337
0.00691091
0.00946448
0.0116363
0.0135742
0.0152889
0.0167121
0.0177462
0.0184224
0.0189223
0.0193441
0.019656
0.0198521
0.019924
0.019865
0.0196687
0.0193385
0.0188744
0.0182758
0.0175426
0.0166799
0.0156869
0.0145537
0.0132599
0.0117795
0.00995773
0.00734423
0.00365933
0.000368691
0.000391123
0.00359911
0.00683366
0.00940037
0.0116067
0.013574
0.0152679
0.0165979
0.0175007
0.0181004
0.018575
0.0189763
0.0192812
0.0194756
0.0195484
0.0194918
0.0193012
0.0189789
0.0185282
0.0179528
0.0172558
0.0164381
0.015494
0.0144065
0.0131611
0.0117203
0.00991597
0.0073562
0.00373814
0.000367645
0.00038558
0.00354189
0.00678781
0.00941585
0.0116868
0.0136674
0.0153004
0.0164952
0.0172741
0.0178238
0.018272
0.0186418
0.018924
0.0191049
0.0191725
0.0191183
0.0189378
0.0186321
0.0182052
0.0176615
0.0170032
0.0162278
0.0153265
0.0142786
0.0130736
0.0116632
0.00984396
0.00722121
0.00355372
0.000365296
0.000380326
0.00351097
0.00680109
0.00951622
0.0118653
0.0138275
0.0153441
0.0163775
0.0170627
0.0175786
0.0179975
0.018336
0.0185914
0.018754
0.018813
0.0187598
0.0185901
0.0183045
0.0179051
0.017395
0.0167742
0.0160383
0.0151756
0.0141669
0.012999
0.0116168
0.00978269
0.00708256
0.00337598
0.000361636
0.000374398
0.0035276
0.00688983
0.0097026
0.0121043
0.0140032
0.0153555
0.0162442
0.0168669
0.0173526
0.0177428
0.018052
0.0182813
0.0184249
0.0184739
0.0184209
0.018262
0.0179964
0.0176244
0.0171468
0.0165618
0.0158629
0.0150364
0.0140667
0.0129379
0.0115873
0.00974982
0.00702768
0.00340902
0.000356362
0.000367161
0.00356995
0.00702804
0.00994841
0.0123607
0.0141375
0.0153205
0.0161051
0.0166825
0.0171373
0.0175002
0.0177832
0.0179892
0.0181154
0.018155
0.018102
0.0179531
0.017706
0.0173595
0.0169123
0.0163605
0.0156965
0.0149056
0.0139747
0.0128873
0.0115724
0.00973025
0.00698857
0.00344534
0.000355072
0.000360791
0.00361251
0.00717881
0.0102044
0.0125729
0.0142019
0.0152524
0.0159645
0.0165012
0.0169261
0.0172639
0.0175241
0.0177107
0.017822
0.0178536
0.017801
0.0176609
0.0174303
0.0171068
0.0166872
0.0161665
0.0155353
0.0147795
0.0138861
0.0128397
0.0115584
0.00970986
0.00693556
0.00342698
0.000353186
0.000355537
0.00363186
0.00729418
0.0103965
0.0126894
0.0141995
0.0151589
0.0158157
0.0163149
0.0167135
0.0170299
0.0172713
0.0174421
0.0175416
0.0175667
0.0175148
0.0173823
0.0171661
0.0168632
0.0164689
0.0159765
0.015376
0.0146534
0.0137961
0.0127903
0.0115404
0.00968886
0.00688221
0.00339328
0.00035204
0.000351362
0.00362259
0.00734447
0.0104848
0.0127136
0.0141442
0.0150402
0.0156507
0.0161196
0.0164968
0.0167962
0.0170232
0.0171815
0.0172711
0.0172912
0.0172399
0.017114
0.0169104
0.0166256
0.016254
0.0157877
0.0152155
0.0145234
0.0137004
0.0127322
0.0115154
0.00967898
0.00686584
0.00337802
0.000353182
0.000347671
0.00359449
0.00732449
0.0104596
0.0126631
0.0140571
0.0149051
0.0154725
0.0159162
0.0162769
0.0165633
0.016779
0.0169268
0.0170084
0.0170241
0.0169732
0.0168529
0.0166604
0.0163915
0.01604
0.0155969
0.01505
0.0143853
0.0135936
0.0126597
0.0114801
0.00968696
0.00692205
0.00343813
0.000349669
0.000343681
0.00356356
0.00726572
0.0103701
0.0125799
0.0139576
0.0147576
0.0152876
0.0157097
0.0160567
0.0163317
0.0165375
0.0166763
0.016751
0.0167628
0.016712
0.0165964
0.0164134
0.0161584
0.0158244
0.0154015
0.0148768
0.0142359
0.013471
0.0125654
0.011424
0.00969118
0.00700792
0.00350455
0.000335489
0.000340759
0.00355126
0.00722478
0.010292
0.0124897
0.0138415
0.0145986
0.0151009
0.015504
0.0158375
0.0161012
0.016297
0.0164276
0.0164962
0.0165045
0.0164536
0.016342
0.016167
0.0159239
0.015605
0.0151996
0.0146941
0.0140734
0.0133294
0.0124431
0.011329
0.00964751
0.00701305
0.0034667
0.000321891
0.00034091
0.00355486
0.00722014
0.0102551
0.0124024
0.0137083
0.0144289
0.0149126
0.0152986
0.0156175
0.0158689
0.0160547
0.0161777
0.0162408
0.0162461
0.0161951
0.016087
0.0159191
0.0156863
0.0153807
0.0149908
0.0145021
0.0138987
0.0131702
0.012293
0.0111846
0.00953602
0.00694524
0.0033553
0.000314077
0.000343099
0.00357157
0.00724261
0.0102549
0.0123105
0.0135489
0.0142432
0.0147156
0.0150862
0.0153904
0.0156298
0.0158061
0.0159226
0.0159814
0.0159844
0.0159337
0.0158291
0.0156678
0.0154445
0.0151509
0.0147752
0.0143022
0.0137148
0.0130003
0.0121289
0.0110148
0.00938574
0.00683251
0.0032544
0.000305488
0.000345546
0.00358061
0.00725097
0.0102342
0.0121844
0.0133549
0.0140335
0.0144979
0.0148558
0.0151477
0.0153776
0.0155465
0.0156581
0.015714
0.015716
0.0156666
0.015566
0.0154112
0.015197
0.014915
0.0145529
0.0140954
0.0135249
0.0128273
0.0119677
0.0108469
0.00921498
0.0066925
0.00320569
0.000301935
0.000346142
0.0035773
0.00721933
0.0101426
0.0120013
0.0131215
0.0137908
0.014249
0.0145988
0.0148831
0.0151072
0.0152719
0.0153806
0.0154351
0.015438
0.0153912
0.0152953
0.0151474
0.0149424
0.0146716
0.014323
0.0138813
0.0133295
0.0126535
0.0118156
0.0106996
0.00906068
0.00656047
0.0032048
0.000303561
0.000334875
0.00355834
0.00715136
0.00997316
0.0117561
0.0128457
0.0135117
0.0139677
0.0143145
0.0145958
0.0148172
0.0149807
0.0150887
0.0151432
0.0151484
0.0151057
0.0150153
0.0148747
0.0146786
0.0144187
0.0140831
0.0136571
0.0131253
0.0124742
0.0116641
0.0105589
0.0089033
0.00640018
0.00314347
0.000298141
0.000324042
0.00350083
0.00702219
0.00972419
0.0114527
0.0125336
0.0132055
0.0136622
0.0140099
0.0142909
0.0145115
0.0146748
0.0147832
0.014839
0.0148471
0.0148094
0.0147251
0.0145917
0.014404
0.014154
0.0138304
0.0134191
0.012907
0.0122824
0.011501
0.010403
0.00872823
0.00623575
0.00307147
0.000293404
0.000318486
0.00340425
0.00682197
0.00940673
0.0111167
0.012215
0.0128931
0.0133461
0.0136953
0.0139772
0.0141968
0.014359
0.0144672
0.0145246
0.014536
0.0145034
0.0144253
0.0142987
0.0141184
0.0138768
0.0135635
0.0131656
0.0126723
0.0120733
0.0113175
0.010226
0.00852305
0.00604566
0.00298688
0.000288154
0.00031234
0.00329199
0.00654265
0.00902529
0.0107683
0.0119053
0.0125805
0.0130288
0.0133803
0.0136618
0.0138785
0.0140377
0.0141447
0.0142037
0.0142184
0.0141904
0.014118
0.0139977
0.0138239
0.0135896
0.0132854
0.0129001
0.0124241
0.0118466
0.0111065
0.0100123
0.0082999
0.00588386
0.00292531
0.000279054
0.000304392
0.00316665
0.00625783
0.00867264
0.0104381
0.0115958
0.0122639
0.0127147
0.0130686
0.0133464
0.0135579
0.0137133
0.013819
0.0138794
0.0138971
0.0138734
0.0138062
0.0136916
0.0135242
0.0132972
0.0130024
0.0126294
0.0121681
0.0116038
0.0108708
0.00977089
0.00807423
0.00572993
0.00285543
0.000268901
0.000295352
0.00306078
0.00604285
0.00838753
0.0101263
0.0112818
0.0119435
0.0124004
0.0127545
0.0130259
0.0132323
0.0133846
0.0134899
0.013552
0.013573
0.0135534
0.0134912
0.0133824
0.0132219
0.0130032
0.0127186
0.012358
0.011909
0.0113522
0.0106176
0.00951997
0.00785752
0.00557699
0.00277844
0.00026059
0.000286566
0.00297484
0.00586342
0.00814166
0.00983147
0.010948
0.011614
0.0120765
0.0124285
0.0126942
0.0128977
0.01305
0.0131565
0.0132208
0.0132452
0.0132298
0.0131725
0.0130697
0.0129164
0.0127067
0.0124324
0.0120832
0.0116452
0.0110926
0.0103552
0.00926906
0.00764647
0.00543079
0.00270495
0.000255077
0.000279725
0.00290089
0.00570695
0.00791966
0.00953555
0.0105944
0.0112695
0.0117354
0.012085
0.0123501
0.0125554
0.0127106
0.0128193
0.012886
0.0129134
0.0129017
0.0128489
0.0127515
0.012605
0.0124034
0.0121388
0.0117991
0.0113691
0.0108218
0.010084
0.00900464
0.00742703
0.00529298
0.00264243
0.00025093
0.000275857
0.00283508
0.00556449
0.00768575
0.00921193
0.0102313
0.0109076
0.0113774
0.0117329
0.0120015
0.0122087
0.0123673
0.0124783
0.0125468
0.0125764
0.0125672
0.0125177
0.0124243
0.0122826
0.0120868
0.0118296
0.0114975
0.0110769
0.0105351
0.009796
0.00871585
0.00717588
0.00513137
0.00257431
0.000246461
0.000272487
0.00276728
0.00539341
0.00739521
0.00883514
0.00983272
0.0105157
0.011005
0.011376
0.0116556
0.0118655
0.0120235
0.012135
0.0122034
0.0122332
0.0122246
0.012176
0.0120843
0.0119447
0.0117513
0.0114999
0.011178
0.010765
0.0102226
0.00948235
0.00841337
0.00691725
0.00495292
0.00249286
0.000240535
0.000266662
0.00264826
0.00512616
0.00701682
0.00840608
0.0093992
0.0101091
0.0106317
0.011025
0.0113186
0.0115318
0.0116849
0.0117905
0.0118566
0.0118841
0.0118735
0.0118228
0.0117295
0.0115898
0.0114001
0.0111543
0.0108379
0.0104266
0.00988419
0.00914285
0.00810501
0.00666996
0.00478404
0.0024129
0.000234149
0.000255353
0.00248549
0.0048096
0.00661503
0.00797394
0.00898262
0.00973023
0.0102887
0.0107016
0.0110007
0.0112088
0.0113513
0.0114497
0.0115103
0.0115333
0.0115181
0.0114631
0.0113665
0.0112256
0.0110374
0.010792
0.0104763
0.0100663
0.00952235
0.00878271
0.00777517
0.00641421
0.0046157
0.00233572
0.000228025
0.000240621
0.00232634
0.00452769
0.00627998
0.00762846
0.00864936
0.00941981
0.00999934
0.0104223
0.0107163
0.0109054
0.0110316
0.01112
0.0111723
0.0111872
0.0111641
0.0111024
0.0110008
0.0108568
0.0106676
0.0104254
0.0101133
0.00970235
0.00915036
0.00840761
0.00742037
0.00612487
0.00441842
0.00224499
0.00022286
0.000226375
0.0022199
0.00435474
0.00606882
0.00740019
0.00841571
0.00918221
0.00976446
0.0101872
0.010475
0.0106476
0.0107501
0.0108189
0.0108527
0.0108514
0.0108152
0.0107445
0.0106391
0.0104962
0.0103115
0.0100744
0.00976376
0.00934646
0.00878273
0.00803343
0.007058
0.00580544
0.00418776
0.00213832
0.000217462
0.000217797
0.00216733
0.0042824
0.00597509
0.00727556
0.00825268
0.00897781
0.00953554
0.0099564
0.010249
0.0104281
0.0105176
0.0105586
0.0105641
0.0105389
0.0104859
0.0104067
0.0103007
0.0101622
0.00998149
0.00974222
0.009422
0.00899271
0.00842119
0.00767241
0.00670808
0.0054846
0.00394152
0.00202123
0.000209352
0.000215117
0.00217345
0.00428842
0.005945
0.00718122
0.00807579
0.00872508
0.00926707
0.00969257
0.00999141
0.0101827
0.0102831
0.010315
0.0102976
0.0102519
0.0101864
0.0101022
0.00999478
0.00985422
0.009666
0.00941296
0.00907726
0.00863784
0.00806537
0.00732506
0.00637904
0.00518466
0.00369748
0.00188624
0.000200309
0.000216045
0.0021994
0.00429304
0.00586812
0.00700452
0.00783184
0.00841994
0.0089082
0.00934847
0.00966768
0.00987339
0.00998655
0.0100308
0.0100202
0.00997414
0.00990614
0.00981768
0.00970253
0.00955
0.00934709
0.00907943
0.00873188
0.00828632
0.00771685
0.00699016
0.00606902
0.00491177
0.00347862
0.00175916
0.000190679
0.000219959
0.00218926
0.00421196
0.00569734
0.00676196
0.00751896
0.00807984
0.00854016
0.00895007
0.0092714
0.0094898
0.00964014
0.00971487
0.00972358
0.00968883
0.009624
0.00953113
0.00940614
0.00924114
0.00902564
0.00874719
0.00839193
0.00794341
0.00737905
0.00666849
0.00577613
0.0046621
0.00328801
0.00165037
0.000180133
0.000223801
0.00212481
0.00400869
0.00539288
0.0063766
0.0071383
0.00776081
0.00823782
0.00859226
0.00888532
0.00913679
0.00931385
0.00940407
0.00942635
0.0094009
0.00933855
0.00924186
0.00910881
0.00893386
0.00870858
0.00842224
0.00806217
0.00761327
0.00705556
0.00636212
0.00549997
0.00443145
0.00311904
0.00155746
0.000170553
0.000221296
0.00196145
0.00364624
0.00494253
0.00596793
0.00679126
0.00743906
0.00793206
0.0083018
0.00860252
0.00884886
0.00902049
0.00911307
0.00914142
0.00912043
0.0090581
0.00895728
0.00881731
0.00863422
0.0084012
0.00810903
0.00774626
0.00729896
0.0067492
0.00607312
0.00524075
0.00421707
0.00296582
0.00147905
0.000162899
0.000211863
0.00169428
0.00325498
0.0045608
0.0056265
0.00647859
0.00714498
0.00765697
0.00804928
0.00835899
0.00859636
0.00875604
0.00884395
0.00887258
0.0088518
0.00878741
0.00868219
0.00853616
0.00834639
0.00810736
0.00781109
0.00744727
0.00700308
0.00646216
0.00580316
0.004999
0.00401746
0.0028245
0.00141275
0.000156176
0.00019441
0.00147739
0.00296373
0.00426525
0.0053463
0.00621752
0.00690181
0.00743111
0.00783808
0.00814603
0.00836937
0.0085156
0.00859595
0.00862065
0.00859675
0.00852886
0.00841948
0.00826858
0.00807375
0.00783045
0.00753168
0.00716819
0.00672814
0.00619651
0.00555392
0.00477567
0.00383197
0.00269147
0.0013474
0.000149838
0.000180222
0.00130171
0.00275097
0.00404594
0.0051404
0.00602876
0.00672671
0.00726293
0.00766575
0.00795824
0.00816351
0.00829522
0.00836617
0.00838469
0.00835634
0.00828479
0.0081719
0.0080175
0.00781959
0.00757393
0.00727426
0.00691222
0.00647698
0.00595464
0.00532734
0.00457231
0.00366145
0.00256633
0.00128217
0.000143652
0.000168227
0.00120039
0.00262326
0.00392331
0.00503592
0.00593354
0.00662456
0.00714317
0.00751958
0.0077872
0.00797141
0.00808854
0.00814999
0.00816256
0.00813063
0.00805682
0.00794226
0.00778654
0.00758762
0.0073416
0.00704276
0.00668321
0.00625307
0.00573952
0.00512594
0.00439109
0.00350797
0.00245071
0.0012167
0.000137632
0.000159404
0.00117668
0.00260711
0.00393966
0.00505679
0.00592206
0.0065624
0.00703382
0.00737347
0.00761553
0.00778152
0.0078873
0.00794233
0.00795202
0.00791951
0.00784648
0.00773335
0.00757931
0.00738215
0.00713809
0.00684171
0.00648578
0.00606082
0.00555505
0.00495306
0.00423489
0.00337436
0.00234787
0.00115495
0.000131877
0.000153693
0.00123633
0.00273937
0.00406714
0.0051267
0.0058896
0.00645906
0.00688691
0.00720232
0.0074276
0.00758419
0.00768591
0.00774053
0.00775232
0.00772364
0.00765554
0.0075479
0.00739943
0.00720759
0.00696845
0.00667665
0.0063253
0.00590559
0.00540625
0.00481307
0.00410743
0.00326403
0.00226141
0.00110154
0.000126554
0.000152465
0.00133696
0.00292554
0.00422423
0.00511903
0.00578856
0.00630409
0.00670163
0.0070013
0.00722155
0.00737931
0.00748521
0.00754572
0.00756475
0.0075445
0.00748577
0.0073881
0.00724974
0.00706759
0.0068372
0.00655291
0.00620781
0.00579343
0.00529914
0.00471152
0.00401343
0.00318084
0.00219467
0.00105937
0.000121838
0.000157335
0.00152051
0.0031312
0.00423403
0.00502409
0.0056362
0.00611718
0.00649628
0.00678825
0.00701028
0.00717514
0.00729036
0.00736121
0.00739144
0.00738335
0.00733786
0.00725444
0.0071309
0.00696337
0.00674648
0.00647376
0.00613785
0.00573001
0.00523987
0.00465468
0.00395851
0.0031292
0.00215065
0.00102978
0.000117887
0.000170021
0.00163474
0.00313604
0.00415309
0.00488189
0.00545463
0.00591222
0.00627838
0.00657057
0.00680153
0.00697832
0.00710634
0.0071903
0.00723405
0.00724031
0.00721048
0.00714429
0.00703947
0.00689139
0.00669318
0.00643711
0.00611517