/*--------------------------------*- C++ -*----------------------------------*\
| =========                 |                                                 |
| \\      /  F ield         | OpenFOAM: The Open Source CFD Toolbox           |
|  \\    /   O peration     | Version:  v1606+                                |
|   \\  /    A nd           | Web:      www.OpenFOAM.com                      |
|    \\/     M anipulation  |                                                 |
\*---------------------------------------------------------------------------*/
FoamFile
{
    version     2.0;
    format      ascii;
    class       volScalarField;
    location    "1.65";
    object      alpha.particles;
}
// * * * * * * * * * * * * * * * * * * * * * * * * * * * * * * * * * * * * * //

dimensions      [0 0 0 0 0 0 0];

internalField   nonuniform List<scalar> 
6000
(
0.434792
0.434796
0.434798
0.434799
0.434798
0.434796
0.434793
0.43479
0.434787
0.431817
0.402823
0.378309
0.379116
0.375236
0.372918
0.384633
0.398847
0.427003
0.435612
0.435615
0.435618
0.43562
0.435623
0.435624
0.435624
0.435623
0.393252
0.347745
0.361061
0.361061
0.342299
0.38564
0.407926
0.41706
0.420843
0.422592
0.428808
0.422743
0.400249
0.373172
0.373138
0.373169
0.373127
0.372921
0.372978
0.372921
0.372982
0.372949
0.384931
0.404352
0.418707
0.417786
0.406176
0.392318
0.377497
0.358209
0.347398
0.347533
0.354669
0.354583
0.337164
0.339454
0.365339
0.381397
0.399424
0.432639
0.468316
0.48289
0.475269
0.437072
0.40003
0.388243
0.387541
0.392609
0.397288
0.391357
0.38855
0.418639
0.450369
0.450314
0.436628
0.416452
0.392691
0.375904
0.361198
0.351695
0.347547
0.347425
0.347554
0.347462
0.337165
0.337166
0.337167
0.338304
0.355808
0.389502
0.42562
0.483166
0.510538
0.498539
0.442718
0.411505
0.40645
0.415071
0.424068
0.412928
0.41053
0.466249
0.503533
0.478704
0.425824
0.405029
0.397059
0.389977
0.382191
0.371369
0.350861
0.347548
0.347461
0.347576
0.35046
0.344254
0.343906
0.344226
0.353468
0.366295
0.387251
0.436558
0.510562
0.510689
0.497307
0.460812
0.447495
0.453942
0.461973
0.447713
0.446358
0.498966
0.511076
0.48569
0.408644
0.422836
0.447326
0.455324
0.459357
0.449437
0.416426
0.381669
0.363601
0.367778
0.409973
0.396965
0.398666
0.402214
0.402505
0.402958
0.404609
0.401769
0.466087
0.510676
0.510831
0.509199
0.493185
0.492465
0.496321
0.486613
0.486197
0.51104
0.51159
0.48101
0.380716
0.44116
0.497131
0.499098
0.499097
0.499107
0.499098
0.473649
0.435728
0.438865
0.489653
0.482567
0.489581
0.48956
0.482241
0.45798
0.43575
0.39254
0.36907
0.46904
0.510799
0.511017
0.510938
0.511158
0.510977
0.510262
0.509818
0.511416
0.511149
0.457636
0.354742
0.428254
0.449401
0.43393
0.4692
0.499101
0.499106
0.499098
0.499099
0.499094
0.512987
0.512985
0.512977
0.475508
0.42577
0.41287
0.408491
0.360788
0.292084
0.319489
0.422124
0.485079
0.511161
0.511014
0.51133
0.511101
0.511592
0.511151
0.511778
0.394931
0.327531
0.373982
0.345476
0.314646
0.332367
0.377765
0.426175
0.472648
0.490281
0.493296
0.51298
0.489792
0.413761
0.329444
0.303081
0.31615
0.333464
0.304877
0.243357
0.213548
0.24564
0.312949
0.404718
0.49249
0.511014
0.511382
0.511104
0.511588
0.468676
0.316791
0.298617
0.311883
0.299148
0.295258
0.295322
0.298551
0.318057
0.33789
0.340864
0.335899
0.391768
0.319542
0.29021
0.290258
0.290251
0.290288
0.292773
0.27582
0.226696
0.18463
0.172373
0.184559
0.226977
0.315702
0.424926
0.472683
0.468116
0.428136
0.321639
0.267409
0.276828
0.291617
0.295181
0.295317
0.295268
0.318632
0.332629
0.326
0.2923
0.265269
0.298515
0.290254
0.290264
0.290251
0.290288
0.290295
0.300853
0.283126
0.232361
0.185601
0.161565
0.155019
0.161056
0.185633
0.233668
0.268226
0.264316
0.235138
0.21022
0.225683
0.25933
0.289685
0.300806
0.300314
0.319733
0.362601
0.38227
0.383067
0.349259
0.283868
0.317691
0.290294
0.290255
0.290288
0.297077
0.323029
0.34117
0.312448
0.252132
0.195642
0.16257
0.153482
0.153401
0.155636
0.160661
0.164177
0.162638
0.157658
0.161823
0.186023
0.231622
0.289057
0.328451
0.339738
0.362665
0.402898
0.426325
0.432853
0.415098
0.387426
0.364042
0.325149
0.336025
0.335247
0.352137
0.387079
0.407242
0.373222
0.298089
0.220811
0.169904
0.153397
0.153324
0.153178
0.153033
0.152868
0.152772
0.152655
0.152495
0.159565
0.191326
0.272128
0.360676
0.400969
0.409105
0.439867
0.461206
0.47121
0.467773
0.509287
0.433138
0.40098
0.413536
0.416664
0.432737
0.455028
0.467876
0.454003
0.378959
0.271424
0.188221
0.154681
0.153393
0.153842
0.153898
0.152832
0.152707
0.152592
0.152678
0.152455
0.159682
0.229027
0.361319
0.453882
0.455776
0.478345
0.499504
0.5164
0.527694
0.539253
0.493
0.474572
0.488066
0.49352
0.501475
0.50807
0.510493
0.505253
0.473968
0.359155
0.229763
0.166966
0.157352
0.159503
0.159401
0.155328
0.152711
0.152707
0.152608
0.152699
0.152662
0.186023
0.330177
0.482743
0.493706
0.505897
0.521332
0.538827
0.539266
0.539292
0.53236
0.526093
0.531594
0.534388
0.536384
0.536878
0.535627
0.531333
0.521441
0.464296
0.313998
0.20475
0.177062
0.178807
0.176596
0.167175
0.155922
0.152716
0.152728
0.152655
0.152772
0.168043
0.300795
0.499882
0.512071
0.517631
0.526882
0.539257
0.53932
0.539275
0.549977
0.547102
0.548047
0.54913
0.549908
0.549979
0.549008
0.546103
0.540769
0.521657
0.429276
0.289036
0.226658
0.222941
0.220563
0.2055
0.182673
0.164746
0.155658
0.15279
0.152664
0.171634
0.319056
0.51572
0.518689
0.525593
0.526285
0.53932
0.539236
0.482395
0.556984
0.55551
0.555425
0.556016
0.556654
0.557031
0.556547
0.554154
0.551013
0.546436
0.514251
0.409042
0.321591
0.30777
0.314482
0.297821
0.260077
0.216036
0.186893
0.173788
0.173448
0.206896
0.386945
0.526265
0.531027
0.534479
0.531638
0.534849
0.433798
0.344197
0.55973
0.559062
0.5587
0.559049
0.559242
0.559255
0.558944
0.555642
0.552659
0.55196
0.549321
0.510444
0.44341
0.432155
0.441552
0.420302
0.361958
0.297822
0.255023
0.234457
0.241615
0.304794
0.474667
0.53627
0.536284
0.536293
0.536254
0.456128
0.341186
0.339418
0.560112
0.559675
0.5592
0.559262
0.559247
0.559227
0.552759
0.551454
0.54801
0.548012
0.549374
0.549275
0.526863
0.524381
0.494035
0.444521
0.392554
0.347978
0.313355
0.295473
0.31851
0.419903
0.494069
0.5344
0.536274
0.536268
0.50396
0.378274
0.339418
0.339418
0.560088
0.555162
0.556683
0.557715
0.552165
0.548052
0.522931
0.537532
0.536858
0.535715
0.54518
0.548673
0.536326
0.455364
0.383159
0.341585
0.321755
0.310361
0.301694
0.297705
0.326897
0.395457
0.381473
0.38151
0.461079
0.488392
0.429516
0.385062
0.362572
0.362076
0.555671
0.543426
0.551232
0.553024
0.48724
0.38761
0.372513
0.428495
0.484779
0.526421
0.537643
0.540939
0.459314
0.291174
0.22531
0.200695
0.196979
0.209127
0.224781
0.235977
0.25238
0.255645
0.232502
0.260554
0.346095
0.417452
0.43702
0.430148
0.414162
0.413205
0.53783
0.469151
0.531003
0.495121
0.378052
0.249749
0.207044
0.202219
0.268543
0.402188
0.465275
0.453993
0.329017
0.225767
0.182728
0.156878
0.141518
0.136383
0.14
0.144329
0.149639
0.162894
0.199427
0.275068
0.371554
0.444686
0.469594
0.468125
0.457451
0.459087
0.493293
0.45239
0.472057
0.434063
0.370881
0.271706
0.172829
0.106513
0.0996054
0.168131
0.268134
0.313208
0.281981
0.240402
0.200939
0.167256
0.14003
0.121021
0.116006
0.116006
0.118247
0.159414
0.237765
0.352083
0.443439
0.481351
0.489961
0.488483
0.481657
0.488021
0.483221
0.452389
0.45578
0.454867
0.436719
0.359835
0.223341
0.109444
0.0848472
0.0870846
0.139501
0.230114
0.277408
0.274534
0.242327
0.197772
0.156061
0.127452
0.116159
0.116006
0.133065
0.20701
0.336592
0.443925
0.489673
0.500932
0.501789
0.500146
0.495323
0.504564
0.511352
0.489355
0.49251
0.49578
0.491273
0.448629
0.328082
0.156762
0.0848475
0.0848472
0.11139
0.192157
0.277526
0.304013
0.283359
0.237642
0.185837
0.147318
0.13041
0.135857
0.19088
0.316907
0.439512
0.495051
0.509461
0.511923
0.510832
0.508383
0.504846
0.514673
0.534802
0.526004
0.524075
0.522993
0.519314
0.504578
0.422435
0.251284
0.107914
0.0932181
0.114764
0.177589
0.26911
0.315765
0.315357
0.274985
0.217625
0.178812
0.168979
0.201572
0.303977
0.430543
0.49894
0.516946
0.520608
0.520876
0.519171
0.515984
0.513193
0.522126
0.543501
0.540638
0.539405
0.538352
0.535436
0.528616
0.489572
0.354751
0.179795
0.123565
0.136845
0.180533
0.259037
0.323196
0.340432
0.301983
0.248764
0.228202
0.247739
0.317584
0.425314
0.501299
0.524421
0.529096
0.530453
0.52995
0.527884
0.524325
0.521873
0.528892
0.546207
0.546304
0.54677
0.546553
0.545579
0.541141
0.527215
0.453609
0.29083
0.186438
0.187927
0.206585
0.26524
0.333694
0.351843
0.328656
0.30674
0.317852
0.364466
0.436669
0.503793
0.530218
0.536222
0.538821
0.539708
0.539131
0.537099
0.533658
0.53137
0.536014
0.546817
0.547613
0.547613
0.547614
0.54761
0.547602
0.544304
0.520158
0.405497
0.283548
0.268398
0.268611
0.297374
0.353634
0.385224
0.39577
0.407394
0.431841
0.468279
0.509178
0.532367
0.540124
0.543973
0.546376
0.547459
0.547347
0.545913
0.543184
0.541227
0.543672
0.546341
0.547611
0.547617
0.547598
0.547543
0.547546
0.547545
0.545633
0.487254
0.39742
0.370086
0.359282
0.365108
0.416515
0.47785
0.491702
0.500072
0.5149
0.526676
0.536418
0.542039
0.54609
0.54943
0.551801
0.553216
0.553716
0.553226
0.551657
0.550422
0.551406
0.546055
0.546009
0.547556
0.529451
0.454988
0.468504
0.498874
0.513549
0.509691
0.494229
0.466873
0.456414
0.466881
0.507556
0.544545
0.551252
0.552756
0.554436
0.553164
0.551678
0.551183
0.552272
0.554101
0.555914
0.557346
0.558153
0.558454
0.558151
0.557888
0.558374
0.546008
0.512087
0.492927
0.391035
0.337851
0.337825
0.353761
0.382503
0.461823
0.52738
0.526964
0.526704
0.537452
0.553341
0.560838
0.563134
0.565047
0.566051
0.565096
0.562733
0.560529
0.559429
0.559281
0.559782
0.560651
0.561236
0.56141
0.562368
0.562795
0.563448
0.489924
0.366031
0.371721
0.330261
0.324271
0.314787
0.301434
0.301508
0.337792
0.46605
0.53727
0.545358
0.546548
0.553692
0.558663
0.560784
0.563433
0.566858
0.569163
0.569167
0.567739
0.566215
0.565062
0.564221
0.563862
0.563628
0.561812
0.564428
0.564656
0.565583
0.392107
0.312454
0.362906
0.373356
0.37902
0.367516
0.340718
0.312574
0.312665
0.347294
0.463057
0.540874
0.545795
0.552998
0.554389
0.553227
0.553569
0.561421
0.56828
0.571474
0.572111
0.57135
0.570212
0.569068
0.567605
0.565474
0.559169
0.564405
0.562426
0.565581
0.371584
0.312452
0.384007
0.423995
0.442213
0.43984
0.416513
0.366022
0.325367
0.325438
0.368132
0.482729
0.549956
0.552103
0.546842
0.535869
0.530142
0.542273
0.560587
0.569504
0.573717
0.574455
0.573863
0.573114
0.57158
0.567361
0.557554
0.55964
0.555159
0.562303
0.392627
0.312453
0.388719
0.453931
0.484021
0.491569
0.482463
0.443391
0.376323
0.348767
0.366908
0.439319
0.548627
0.548217
0.534719
0.512895
0.510519
0.528587
0.546133
0.55786
0.57083
0.57449
0.574477
0.574398
0.574279
0.570642
0.557017
0.52888
0.434042
0.545883
0.45856
0.350631
0.413259
0.482746
0.513548
0.520478
0.518312
0.501728
0.448578
0.413497
0.389616
0.414892
0.519397
0.539206
0.519046
0.496585
0.491635
0.498548
0.502082
0.510649
0.551271
0.570423
0.574485
0.574595
0.574411
0.571874
0.552204
0.449917
0.303979
0.44867
0.526419
0.445598
0.473808
0.519435
0.538551
0.539763
0.536523
0.525626
0.503146
0.474713
0.395379
0.330605
0.370244
0.44208
0.438339
0.426352
0.40742
0.374291
0.345425
0.322443
0.407264
0.54311
0.568288
0.5745
0.574399
0.571266
0.549084
0.423413
0.278517
0.389795
0.537724
0.52802
0.529619
0.543576
0.550328
0.550269
0.548151
0.539251
0.522581
0.458422
0.311131
0.176534
0.152054
0.204498
0.224626
0.221388
0.195771
0.155304
0.128727
0.109718
0.178821
0.375645
0.520017
0.570906
0.574293
0.571986
0.552736
0.440746
0.278863
0.393501
0.53747
0.551351
0.550612
0.550567
0.550545
0.550301
0.550385
0.549593
0.520115
0.390276
0.17214
0.0636088
0.0465892
0.0574827
0.0665776
0.0685701
0.0627357
0.0557765
0.0552543
0.0555149
0.0938767
0.236608
0.469542
0.558183
0.571726
0.571867
0.555204
0.437359
0.278712
0.393296
0.491613
0.551371
0.551527
0.547328
0.529837
0.502894
0.543812
0.549614
0.535455
0.383755
0.105638
0.0333592
0.032175
0.0322829
0.0368771
0.0436668
0.0483545
0.049999
0.0543889
0.0677641
0.127238
0.232208
0.434991
0.5475
0.562887
0.570118
0.556644
0.428205
0.278715
0.391834
0.485878
0.551469
0.551377
0.512875
0.368934
0.266679
0.416297
0.542666
0.542694
0.437114
0.0973937
0.0425862
0.0405929
0.0429109
0.051092
0.0640323
0.0783751
0.0846474
0.0964398
0.126681
0.203878
0.29131
0.447712
0.546521
0.540666
0.565322
0.562724
0.461722
0.293757
0.4023
0.498872
0.551345
0.540474
0.364504
0.155543
0.121845
0.18935
0.416762
0.525222
0.400528
0.163893
0.0899375
0.0810174
0.0850862
0.0988668
0.119833
0.147401
0.161229
0.182299
0.207584
0.255802
0.326857
0.396559
0.429626
0.454838
0.552968
0.562657
0.519132
0.353162
0.445974
0.501429
0.548028
0.428688
0.165276
0.105601
0.10889
0.14258
0.20669
0.26242
0.272497
0.229277
0.159076
0.145876
0.152439
0.166575
0.181121
0.199982
0.215907
0.238949
0.24564
0.245421
0.223189
0.177442
0.14609
0.188841
0.362896
0.535866
0.532305
0.442599
0.492285
0.445446
0.453235
0.240715
0.10624
0.105704
0.131176
0.162366
0.166865
0.152503
0.146873
0.192934
0.183396
0.178754
0.191132
0.200374
0.200397
0.196636
0.194342
0.192298
0.193285
0.152553
0.0940588
0.0689311
0.0627055
0.0747372
0.170871
0.410707
0.514964
0.513224
0.513068
0.404494
0.355832
0.158869
0.106191
0.121485
0.157332
0.180621
0.170464
0.127464
0.0844057
0.109516
0.139313
0.147214
0.157855
0.162491
0.161278
0.140835
0.120469
0.0999765
0.0886595
0.0662022
0.052857
0.0534181
0.0566794
0.0646973
0.0997927
0.269077
0.492989
0.524777
0.509968
0.397759
0.308905
0.148679
0.123067
0.146577
0.177744
0.189606
0.170567
0.109553
0.0576235
0.0543936
0.0757002
0.0862202
0.0914874
0.0911269
0.087255
0.071263
0.0594818
0.0507589
0.047466
0.0463994
0.0482621
0.053077
0.0593162
0.0671464
0.0853179
0.190083
0.446988
0.524769
0.509743
0.396005
0.29502
0.16255
0.147241
0.17121
0.19561
0.191458
0.155567
0.0856947
0.0436218
0.0388712
0.0440733
0.0481309
0.0496218
0.048619
0.0466296
0.0426652
0.0409187
0.0408162
0.0422908
0.0452408
0.0496718
0.0553111
0.0622029
0.0697667
0.0842967
0.158478
0.3842
0.524767
0.509743
0.403069
0.27405
0.173951
0.172029
0.194907
0.210233
0.190216
0.127108
0.0603104
0.0377139
0.0374105
0.0374681
0.0380753
0.0383851
0.0380808
0.0378315
0.0377866
0.0385426
0.040196
0.0430322
0.0468311
0.0518619
0.0576289
0.0642025
0.0717446
0.0884347
0.152822
0.34023
0.513866
0.509748
0.405687
0.261172
0.189565
0.200749
0.220746
0.217257
0.173686
0.0892335
0.0436876
0.037416
0.0374164
0.0374162
0.0374201
0.037424
0.0374313
0.0374324
0.0376155
0.0390133
0.0412079
0.04461
0.0488273
0.0537571
0.0594689
0.0659757
0.0731222
0.0934263
0.173267
0.330381
0.437611
0.525592
0.404189
0.256778
0.210674
0.232419
0.25167
0.218216
0.133642
0.0573751
0.0376341
0.0374192
0.0374175
0.0374208
0.0374238
0.0374286
0.0374322
0.037435
0.0382381
0.0400735
0.0427994
0.0463543
0.050514
0.0552429
0.0608605
0.0676405
0.0747347
0.0994414
0.19912
0.349928
0.365678
0.520292
0.3804
0.256848
0.239158
0.269553
0.28144
0.201589
0.0846545
0.0419693
0.0374349
0.0374252
0.0374275
0.0374274
0.0374289
0.0374325
0.037435
0.0378969
0.0393773
0.0413207
0.0442877
0.047781
0.0516854
0.0564451
0.0623584
0.0695776
0.0764196
0.108031
0.231957
0.360494
0.320281
0.439311
0.344847
0.275247
0.28413
0.316353
0.295085
0.153355
0.0541703
0.0382727
0.0375039
0.0380584
0.0376326
0.0374341
0.0376265
0.0376256
0.037757
0.0389987
0.0405998
0.0423919
0.0453432
0.0488157
0.0527019
0.0577096
0.0638996
0.0710319
0.0777583
0.11847
0.274089
0.370282
0.320497
0.413063
0.319498
0.301724
0.336217
0.365055
0.290303
0.108436
0.0462182
0.0385521
0.039104
0.0395024
0.0384012
0.0381593
0.0384342
0.0383426
0.0387508
0.0403295
0.0417021
0.0433065
0.0462341
0.0497616
0.0537331
0.0589904
0.0653989
0.0722375
0.0801144
0.131084
0.31464
0.376369
0.320375
0.410383
0.306379
0.317297
0.377642
0.39896
0.26895
0.0955611
0.0459949
0.039733
0.0414097
0.0415436
0.0399785
0.0399046
0.0398666
0.0395756
0.0401965
0.0415412
0.0426329
0.0441791
0.0470463
0.0506204
0.0548089
0.0602351
0.0668156
0.0732227
0.082039
0.142861
0.348038
0.389788
0.320496
0.415661
0.303817
0.320383
0.402703
0.415579
0.262265
0.0998526
0.0498705
0.0413873
0.0428711
0.0437661
0.0420994
0.0419702
0.0415249
0.0411191
0.0418409
0.0427041
0.043572
0.0452043
0.0480013
0.0515802
0.0558551
0.0612564
0.0678983
0.0740805
0.0836772
0.152607
0.370476
0.410092
0.334425
0.45412
0.30382
0.316511
0.415045
0.427686
0.295572
0.129208
0.0555891
0.0425984
0.0432362
0.0457229
0.0442802
0.0436683
0.0430746
0.0427257
0.0435807
0.0439728
0.0447119
0.0464134
0.0490838
0.0525846
0.0568418
0.0621534
0.0688735
0.0751112
0.0851831
0.156493
0.385942
0.436041
0.407523
0.507727
0.3063
0.320682
0.424589
0.444896
0.352672
0.154896
0.0592797
0.0433171
0.0432135
0.0469195
0.0462171
0.0449886
0.0444444
0.0442405
0.0453137
0.0453333
0.046091
0.0477757
0.0502527
0.0535542
0.0577107
0.0629649
0.069761
0.0761865
0.0865202
0.156315
0.395445
0.470225
0.49764
0.533428
0.331825
0.352253
0.440162
0.462081
0.380411
0.161941
0.0601238
0.0436705
0.043294
0.0473313
0.0477438
0.0462401
0.0457436
0.045555
0.0469165
0.0467724
0.0475684
0.0491762
0.0515046
0.0545379
0.0586131
0.0638623
0.0706087
0.0770744
0.0876326
0.151278
0.397851
0.511801
0.533013
0.533439
0.386283
0.389797
0.461475
0.474571
0.3812
0.153862
0.0591165
0.0438185
0.0433
0.047069
0.0487288
0.047728
0.0470465
0.0464294
0.0482236
0.0483762
0.0490547
0.0505674
0.0527648
0.0555895
0.0595568
0.0647143
0.0713227
0.077533
0.0882957
0.143355
0.358039
0.530831
0.533006
0.532667
0.432452
0.422896
0.481109
0.478899
0.3385
0.126788
0.0569247
0.043912
0.0433468
0.0460795
0.0491149
0.0495885
0.0484614
0.0468818
0.0491765
0.0499857
0.0504709
0.0519015
0.0539413
0.056597
0.0604011
0.0653587
0.0717774
0.0775671
0.088941
0.137157
0.315815
0.532954
0.53301
0.532665
0.462552
0.443787
0.494142
0.477257
0.280903
0.103269
0.0555039
0.044281
0.0433373
0.045253
0.049146
0.0514082
0.0501008
0.0472978
0.0498472
0.0514269
0.0517911
0.0531223
0.054984
0.0574592
0.0610407
0.0657565
0.0719394
0.0773147
0.0900664
0.144647
0.291814
0.474806
0.504438
0.497185
0.509982
0.460714
0.503091
0.476115
0.247137
0.0955429
0.0555301
0.0458651
0.0443103
0.0451981
0.0490996
0.0528084
0.051951
0.0483615
0.0504747
0.0526584
0.0531869
0.0543527
0.0559409
0.0582109
0.0615003
0.0659381
0.071849
0.0769147
0.0917312
0.161715
0.318209
0.452112
0.452207
0.488842
0.533305
0.51354
0.523153
0.477838
0.234554
0.0956622
0.0582958
0.0488081
0.046928
0.0469328
0.0505242
0.0542924
0.0540669
0.0507566
0.0517158
0.0539944
0.0548993
0.0558542
0.0571062
0.0590414
0.0619376
0.0660577
0.0716966
0.0766875
0.0944204
0.18957
0.367463
0.462518
0.452275
0.460647
0.533314
0.53311
0.53311
0.456611
0.233063
0.113412
0.0682363
0.0534601
0.0509787
0.0517752
0.0549699
0.0574022
0.0571675
0.0547256
0.0545933
0.0562476
0.0574372
0.0582177
0.0591187
0.0605645
0.0629532
0.0668668
0.0725313
0.0775561
0.104159
0.24062
0.405863
0.462661
0.452223
0.473635
0.533311
0.531573
0.521045
0.422086
0.288991
0.175735
0.0865143
0.0608488
0.0574742
0.0599294
0.0625912
0.0632203
0.062594
0.0607513
0.0598087
0.0605323
0.0615527
0.0622314
0.0629112
0.0639121
0.0660212
0.0705602
0.0772404
0.0841195
0.129394
0.304535
0.459527
0.477214
0.454781
0.49365
0.524598
0.5146
0.479308
0.441945
0.404051
0.257542
0.110361
0.0715603
0.0674513
0.0711415
0.0730817
0.0719453
0.0708089
0.0689959
0.06741
0.067223
0.067787
0.0683131
0.0689448
0.0699781
0.0725847
0.0793187
0.0889534
0.102088
0.17415
0.370017
0.490481
0.492286
0.490662
0.520047
0.520534
0.491457
0.48694
0.491169
0.46351
0.304359
0.13489
0.0855411
0.0811077
0.0856698
0.0861135
0.0830651
0.0808704
0.078538
0.0765001
0.0755974
0.0757806
0.0760507
0.0767156
0.0782944
0.0822091
0.0923171
0.106892
0.130907
0.223719
0.411165
0.509417
0.512195
0.523606
0.538098
0.528197
0.509712
0.511094
0.501783
0.486705
0.31394
0.153767
0.104226
0.100262
0.10479
0.102487
0.0971779
0.0926817
0.0892521
0.0865804
0.0851605
0.084969
0.085125
0.0859869
0.0882133
0.0938228
0.106716
0.126661
0.161414
0.256782
0.420696
0.518918
0.527182
0.538012
0.540485
0.543784
0.535803
0.528963
0.523051
0.488383
0.319238
0.174568
0.130004
0.126961
0.129625
0.124197
0.115204
0.106963
0.101572
0.0979293
0.0960931
0.0956682
0.0959061
0.0971775
0.100345
0.107628
0.122083
0.146118
0.18905
0.278945
0.419875
0.521988
0.533138
0.538127
0.538155
0.545361
0.545347
0.541385
0.535528
0.469693
0.323678
0.205841
0.16891
0.164447
0.161314
0.151677
0.136941
0.123681
0.115546
0.11077
0.108624
0.108099
0.108711
0.110884
0.115573
0.124455
0.140511
0.169505
0.22362
0.318442
0.438777
0.511487
0.528432
0.530644
0.530968
0.545345
0.541921
0.537523
0.517963
0.441975
0.336141
0.261763
0.230885
0.217519
0.204518
0.186778
0.163962
0.143859
0.132044
0.1259
0.123468
0.122949
0.124456
0.128315
0.135624
0.147844
0.167655
0.203217
0.269261
0.374326
0.483983
0.518701
0.523887
0.52726
0.532549
0.531527
0.520984
0.502246
0.476206
0.443812
0.386519
0.348086
0.3199
0.294017
0.265391
0.23246
0.197541
0.169239
0.153036
0.14526
0.142498
0.142242
0.145473
0.152252
0.164109
0.182911
0.211385
0.256595
0.330181
0.430805
0.513826
0.532518
0.533397
0.534688
0.538141
0.510606
0.487337
0.477691
0.475354
0.468085
0.458711
0.447052
0.426625
0.395509
0.349852
0.293976
0.241639
0.203578
0.182328
0.172553
0.169523
0.170076
0.176236
0.188034
0.207651
0.237951
0.281412
0.337852
0.404986
0.47333
0.515548
0.531709
0.537928
0.539415
0.539419
0.492826
0.487378
0.489834
0.49999
0.513001
0.520173
0.519467
0.5099
0.489374
0.447805
0.377221
0.305007
0.254455
0.226456
0.213997
0.210924
0.213115
0.224132
0.244029
0.274838
0.319216
0.376213
0.434334
0.477379
0.501086
0.512098
0.521116
0.530698
0.539015
0.539423
0.495603
0.507537
0.524299
0.536746
0.54449
0.544394
0.542795
0.537735
0.531129
0.517088
0.467446
0.390129
0.327064
0.291787
0.276544
0.273482
0.278601
0.296355
0.325614
0.365659
0.414814
0.465248
0.502849
0.519753
0.520626
0.515769
0.515888
0.518291
0.526957
0.53942
0.515406
0.537933
0.547943
0.54876
0.548667
0.543408
0.534925
0.528282
0.525723
0.523783
0.519541
0.473204
0.413719
0.376731
0.360719
0.358122
0.366622
0.388693
0.420499
0.456634
0.489843
0.512683
0.525486
0.533422
0.534984
0.528389
0.519923
0.518345
0.51836
0.535361
0.540989
0.55149
0.551471
0.548746
0.535398
0.518842
0.507927
0.504211
0.504999
0.50921
0.518081
0.517777
0.488047
0.461376
0.449376
0.448308
0.457339
0.474907
0.495283
0.512859
0.523568
0.528048
0.531652
0.537476
0.54187
0.540407
0.532054
0.522186
0.518345
0.522099
0.551516
0.551534
0.546731
0.529157
0.500517
0.490343
0.489987
0.485707
0.4856
0.485556
0.510983
0.525313
0.525058
0.517356
0.513042
0.513371
0.517639
0.52397
0.529308
0.533061
0.535203
0.535593
0.536124
0.539522
0.543972
0.545902
0.542997
0.533985
0.522109
0.521942
0.551511
0.546283
0.524396
0.500628
0.495606
0.494494
0.50781
0.508774
0.488482
0.485435
0.50836
0.53571
0.543215
0.54062
0.539802
0.540236
0.540495
0.540701
0.540891
0.541243
0.541616
0.541294
0.540671
0.54192
0.545074
0.547601
0.547878
0.544252
0.532693
0.521946
0.546157
0.523364
0.510191
0.495618
0.495677
0.517722
0.553371
0.548003
0.508334
0.496151
0.530148
0.552573
0.553333
0.55009
0.54924
0.548917
0.548261
0.547533
0.546917
0.546549
0.546375
0.545898
0.545009
0.544933
0.546501
0.548487
0.549531
0.548915
0.542954
0.525678
0.531301
0.499287
0.499289
0.495687
0.523184
0.556884
0.562827
0.550672
0.540584
0.539314
0.55733
0.561741
0.558236
0.555255
0.554269
0.553487
0.552647
0.551864
0.55117
0.550605
0.550171
0.549623
0.548764
0.548131
0.548503
0.549542
0.550287
0.550266
0.547656
0.533655
0.516699
0.499289
0.511465
0.535589
0.560059
0.568225
0.564493
0.558569
0.560568
0.564376
0.56499
0.563209
0.559836
0.55803
0.557155
0.556365
0.555601
0.554934
0.554307
0.553738
0.553227
0.552669
0.551912
0.551146
0.550852
0.551038
0.551137
0.550599
0.548365
0.53862
0.515502
0.525903
0.546428
0.56415
0.570522
0.569917
0.566674
0.565587
0.565658
0.565666
0.56498
0.561895
0.559575
0.558664
0.558135
0.557685
0.557263
0.556907
0.556501
0.556083
0.555651
0.555167
0.554543
0.553829
0.553272
0.55294
0.552456
0.551211
0.54824
0.5398
0.526275
0.553431
0.566754
0.571926
0.571968
0.570019
0.567499
0.565553
0.565092
0.563098
0.561323
0.55911
0.558312
0.557977
0.557734
0.557575
0.557653
0.557771
0.557791
0.557713
0.557502
0.557178
0.556721
0.556144
0.555568
0.555037
0.554253
0.552511
0.548635
0.539963
0.541609
0.566935
0.57196
0.572014
0.571967
0.568883
0.564802
0.561089
0.558535
0.555984
0.555285
0.55526
0.555843
0.556278
0.55659
0.556908
0.557281
0.557663
0.558181
0.558591
0.558794
0.558736
0.558488
0.558089
0.557617
0.5571
0.556286
0.554418
0.549908
0.540303
0.55873
0.57193
0.572017
0.572002
0.569852
0.561671
0.553492
0.547563
0.545794
0.546444
0.548665
0.55095
0.552747
0.553983
0.554881
0.555648
0.556368
0.557118
0.557922
0.558706
0.559451
0.559846
0.559885
0.559695
0.559374
0.558971
0.558294
0.556585
0.551949
0.541444
0.568733
0.572001
0.572013
0.571803
0.557221
0.533218
0.525751
0.523462
0.530066
0.537304
0.543168
0.547322
0.55007
0.551883
0.553132
0.554125
0.555052
0.556066
0.557182
0.558363
0.559437
0.56043
0.560931
0.561015
0.560862
0.560596
0.560115
0.558706
0.554355
0.543702
0.571996
0.572013
0.571914
0.554883
0.509278
0.490024
0.497833
0.50414
0.519732
0.532548
0.540736
0.545651
0.548681
0.550599
0.551844
0.552761
0.553616
0.554633
0.555916
0.55746
0.559043
0.560443
0.561589
0.562113
0.562176
0.562024
0.56171
0.560626
0.556772
0.546843
0.572011
0.57187
0.554792
0.489112
0.456675
0.468481
0.487925
0.505244
0.521742
0.534073
0.54162
0.546068
0.548712
0.550243
0.551198
0.551803
0.552309
0.553003
0.554151
0.555861
0.557954
0.560024
0.561772
0.562988
0.563438
0.563412
0.563177
0.562351
0.559047
0.550398
0.57189
0.551719
0.480347
0.419974
0.442894
0.471358
0.489971
0.509219
0.52602
0.537172
0.543417
0.547032
0.549208
0.550538
0.55118
0.551319
0.551251
0.551291
0.55188
0.55338
0.555803
0.558668
0.56133
0.563435
0.564646
0.564946
0.564745
0.564051
0.561265
0.554025
0.555944
0.466422
0.41793
0.418037
0.444839
0.478255
0.493888
0.515937
0.53195
0.540713
0.545403
0.548261
0.550107
0.551197
0.551596
0.551352
0.550524
0.54954
0.549001
0.549666
0.551965
0.555478
0.55941
0.56286
0.565346
0.566485
0.566584
0.56596
0.563658
0.557746
0.526947
0.417983
0.417993
0.417966
0.447725
0.48523
0.500682
0.523936
0.537108
0.543481
0.547119
0.549572
0.551272
0.552269
0.552541
0.551948
0.550383
0.54794
0.545371
0.544109
0.545389
0.548561
0.553547
0.559335
0.564148
0.567145
0.56823
0.567974
0.566309
0.561779
0.502205
0.418021
0.420018
0.418404
0.452895
0.483998
0.509962
0.530907
0.540741
0.545577
0.548691
0.550994
0.5527
0.553779
0.554112
0.553393
0.551258
0.547227
0.541563
0.53623
0.534594
0.534957
0.538738
0.547119
0.556338
0.564686
0.568414
0.56927
0.568613
0.56582
0.491376
0.418048
0.428049
0.418508
0.461578
0.48376
0.519235
0.536112
0.543467
0.547446
0.550287
0.552544
0.554342
0.55564
0.556281
0.555899
0.553816
0.548913
0.540004
0.528851
0.52177
0.515955
0.515185
0.52172
0.524443
0.55162
0.564606
0.569267
0.569609
0.568737
0.492864
0.427869
0.448833
0.429915
0.467395
0.49261
0.528032
0.540481
0.545968
0.549323
0.551933
0.554143
0.556032
0.557576
0.558654
0.559026
0.558158
0.554441
0.543823
0.528535
0.517869
0.50378
0.495671
0.491562
0.480524
0.514219
0.549499
0.5641
0.569589
0.569694
0.493082
0.455244
0.479063
0.473835
0.489359
0.515638
0.537739
0.544779
0.548529
0.55124
0.553566
0.555664
0.557569
0.559259
0.56066
0.561649
0.562081
0.561214
0.555813
0.53937
0.51813
0.506091
0.499055
0.480419
0.48036
0.490164
0.529137
0.549269
0.562688
0.569645
0.493159
0.501775
0.528543
0.52925
0.527448
0.539353
0.545892
0.54871
0.55102
0.553107
0.555105
0.557022
0.558843
0.560541
0.562053
0.563286
0.564252
0.565
0.564219
0.557212
0.540365
0.51886
0.501898
0.48856
0.485056
0.522184
0.542779
0.542768
0.546873
0.563973
0.514133
0.548601
0.549105
0.5491
0.549131
0.550783
0.550767
0.551745
0.553205
0.554818
0.556499
0.55819
0.559854
0.561459
0.562936
0.564177
0.565134
0.56607
0.566912
0.565906
0.560209
0.547844
0.530137
0.504821
0.504746
0.551619
0.554928
0.549479
0.54679
0.555536
0.541603
0.549092
0.549093
0.547341
0.548898
0.552209
0.552825
0.553802
0.555009
0.556338
0.557744
0.559192
0.560656
0.562113
0.5635
0.564692
0.565565
0.566182
0.566971
0.56739
0.566998
0.563392
0.555243
0.538655
0.528351
0.537783
0.554954
0.555152
0.547269
0.548062
0.549048
0.549065
0.545443
0.533838
0.546034
0.551873
0.554211
0.555566
0.556678
0.557757
0.55888
0.560064
0.561302
0.562588
0.563868
0.565024
0.565917
0.566405
0.566721
0.567432
0.567498
0.56748
0.565369
0.559336
0.548304
0.537743
0.548618
0.555257
0.551071
0.548004
0.549037
0.540562
0.516431
0.514838
0.541907
0.552443
0.556182
0.55763
0.558441
0.559154
0.559935
0.560823
0.56182
0.562925
0.56408
0.565193
0.566165
0.566773
0.566837
0.567097
0.567532
0.567589
0.567585
0.566381
0.561454
0.547584
0.548326
0.555259
0.553468
0.548009
0.548969
0.48909
0.489987
0.512597
0.543964
0.55545
0.559291
0.560084
0.560243
0.560451
0.560845
0.561433
0.562196
0.563123
0.564146
0.565196
0.566222
0.567056
0.567285
0.567242
0.567309
0.567423
0.567603
0.567659
0.566811
0.56099
0.554017
0.556135
0.555116
0.548016
0.531047
0.488913
0.491495
0.518298
0.550603
0.560836
0.562787
0.562302
0.561619
0.561323
0.561389
0.561753
0.562358
0.563157
0.564123
0.565145
0.566178
0.567114
0.567694
0.567748
0.567577
0.567462
0.567485
0.567671
0.567779
0.566604
0.56204
0.559688
0.557732
0.549431
0.513378
0.489
0.501488
0.53169
0.560025
0.565727
0.56514
0.563369
0.561995
0.561388
0.56132
0.561651
0.562256
0.563058
0.563998
0.565013
0.566075
0.567084
0.567886
0.568275
0.568205
0.56788
0.567602
0.567603
0.567792
0.567819
0.56627
0.563799
0.561053
0.553806
0.480781
0.48888
0.520184
0.552143
0.566951
0.567929
0.565565
0.562935
0.561401
0.560816
0.560812
0.561218
0.561902
0.562765
0.563737
0.564787
0.565912
0.567007
0.567945
0.568618
0.568877
0.56868
0.568174
0.567768
0.567768
0.567905
0.567682
0.566385
0.563967
0.558729
0.451982
0.505212
0.543582
0.565098
0.569494
0.568036
0.564571
0.561437
0.559784
0.559372
0.559653
0.560351
0.561253
0.562267
0.56334