/*--------------------------------*- C++ -*----------------------------------*\
| =========                 |                                                 |
| \\      /  F ield         | OpenFOAM: The Open Source CFD Toolbox           |
|  \\    /   O peration     | Version:  v1606+                                |
|   \\  /    A nd           | Web:      www.OpenFOAM.com                      |
|    \\/     M anipulation  |                                                 |
\*---------------------------------------------------------------------------*/
FoamFile
{
    version     2.0;
    format      ascii;
    class       volScalarField;
    location    "1.65";
    object      dgdt;
}
// * * * * * * * * * * * * * * * * * * * * * * * * * * * * * * * * * * * * * //

dimensions      [0 0 -1 0 0 0 0];

internalField   nonuniform List<scalar> 
6000
(
-19.3585
-19.1733
-19.2559
-19.3311
-19.3488
-19.2851
-19.0869
-18.7823
-18.4893
-17.9615
-16.5788
-15.6506
-15.673
-15.4414
-15.2782
-15.8114
-16.514
-18.0126
-18.8073
-19.0965
-19.2927
-19.4088
-19.4726
-19.5022
-19.4846
-19.4138
-17.4527
-15.0726
-15.5021
-15.3575
-2.31252
-2.21197
-2.19191
-2.23323
-2.28356
-2.26656
-2.24169
-2.25234
-2.23575
-2.01598
-2.05857
-2.30284
-2.28255
-2.25631
-2.20999
-2.13114
-2.10804
-2.09492
-2.1122
-2.07983
-2.08484
-2.06433
-2.01132
-1.94665
-1.84842
-1.75586
-2.06758
-2.41739
-2.3189
-2.501
-0.17372
-0.185246
-0.168264
-0.160706
-0.171757
-0.179682
-0.192907
-0.241982
-0.37879
-0.595873
-0.495049
-0.466921
-0.506245
-0.516467
-0.474689
-0.463119
-0.500203
-0.387337
-0.293283
-0.243819
-0.188794
-0.151264
-0.137895
-0.133973
-0.130051
-0.133378
-0.159911
-0.193754
-0.22822
-0.279918
-0.0296308
-0.0459054
-0.0349835
-0.0320211
-0.0345386
-0.0370997
-0.0408429
-0.0533105
-0.109823
-0.332653
-0.342353
-0.214261
-0.215909
-0.236663
-0.212607
-0.233482
-0.297389
-0.14807
-0.0808072
-0.0571707
-0.0491765
-0.0366608
-0.0312727
-0.0295001
-0.027648
-0.0262032
-0.0271583
-0.0297847
-0.0551294
-0.0772317
-0.0222751
-0.0270864
-0.0234961
-0.0239053
-0.0262163
-0.0279312
-0.0306417
-0.0355408
-0.0506372
-0.156078
-0.316133
-0.185041
-0.12609
-0.163037
-0.151112
-0.139805
-0.159174
-0.0830375
-0.045136
-0.0395854
-0.0461572
-0.0357639
-0.0304958
-0.0300367
-0.0274678
-0.0239321
-0.0222566
-0.022253
-0.0357634
-0.0387529
-0.0241067
-0.0263457
-0.0259243
-0.0290026
-0.0326431
-0.0342015
-0.035783
-0.0391918
-0.0441133
-0.0804119
-0.220594
-0.222474
-0.0939433
-0.103039
-0.159854
-0.123812
-0.0638708
-0.0457815
-0.0379563
-0.0402443
-0.0481031
-0.038949
-0.0373372
-0.0405168
-0.0381375
-0.0344143
-0.0324815
-0.0309226
-0.0347156
-0.0321573
-0.0281145
-0.0308483
-0.0338019
-0.0395996
-0.0430549
-0.0379913
-0.0337305
-0.0350545
-0.0303497
-0.043526
-0.110322
-0.187332
-0.102627
-0.0555784
-0.126439
-0.165213
-0.0656528
-0.0142502
-0.0322209
-0.0362001
-0.0426076
-0.0365814
-0.0346276
-0.0375932
-0.038212
-0.0367354
-0.0376605
-0.0348327
-0.0390964
-0.0380391
-0.0294741
-0.0320583
-0.0332725
-0.0333819
-0.0290908
-0.0214693
-0.0176314
-0.0157086
-0.0101677
-0.0107155
-0.0300897
-0.0917046
-0.0972706
-0.0548325
-0.0603833
-0.13503
-0.107572
-0.0300004
-0.0174277
-0.0177605
-0.0315154
-0.0284284
-0.0240081
-0.0232882
-0.0229245
-0.0240586
-0.0268788
-0.0285848
-0.0333547
-0.0354005
-0.0230936
-0.0238934
-0.0196722
-0.013923
-0.0101529
-0.0101124
-0.010735
-0.00864993
-0.00420525
0.00334115
0.00312164
-0.00964247
-0.0503048
-0.0551583
-0.0389444
-0.0677938
-0.101297
-0.0599427
-0.00634707
0.0140456
-0.0144805
-0.0190278
-0.0186874
-0.0181387
-0.0170007
-0.0163967
-0.0164367
-0.0169773
-0.0182693
-0.0196719
-0.0141423
-0.0117277
-0.0101661
-0.0100205
-0.0102683
-0.0118685
-0.0118344
-0.01028
-0.00686977
0.000212089
0.00657947
0.00335939
-0.0180722
-0.0378041
-0.0418268
-0.0409272
-0.0651044
-0.059997
-0.0219929
0.0242917
0.0122616
-0.00958446
-0.0155083
-0.0157868
-0.0151339
-0.0154511
-0.0150635
-0.0144123
-0.0135307
-0.013217
-0.010203
-0.0106185
-0.0115059
-0.0121683
-0.0127238
-0.0131113
-0.0132024
-0.0120658
-0.0102772
-0.00649289
-0.00397978
-0.00752673
-0.0176488
-0.0281253
-0.0343718
-0.0282803
-0.0284957
-0.0395821
-0.0424955
-0.00863738
0.0157949
0.00400709
-0.00985677
-0.0135075
-0.0142859
-0.0149127
-0.0149734
-0.0148619
-0.0144885
-0.0129047
-0.0112399
-0.0119564
-0.0126435
-0.0133537
-0.0142816
-0.0150853
-0.0154169
-0.0147006
-0.0136959
-0.012576
-0.0122211
-0.015166
-0.0213372
-0.026255
-0.0279921
-0.0223901
-0.0176579
-0.020165
-0.0300144
-0.0249058
-0.00608144
0.00616238
-0.00473485
-0.0121187
-0.0137503
-0.0140683
-0.014175
-0.0145002
-0.0155783
-0.0154779
-0.013329
-0.0135589
-0.0143231
-0.015436
-0.0166181
-0.0171897
-0.0172039
-0.0170152
-0.0165029
-0.0159031
-0.0164164
-0.0200818
-0.0250833
-0.028057
-0.0290397
-0.0244279
-0.0195875
-0.0194484
-0.0230652
-0.0255335
-0.0202853
-0.007649
-0.00486772
-0.0118553
-0.0135647
-0.0132686
-0.0130062
-0.0132994
-0.0146637
-0.0164322
-0.0152492
-0.0159881
-0.016345
-0.0172292
-0.0178284
-0.0180645
-0.0180805
-0.0185576
-0.0187447
-0.0182153
-0.0198418
-0.0234098
-0.0278051
-0.0303259
-0.0308342
-0.0269242
-0.022823
-0.0221818
-0.0233794
-0.024072
-0.0214137
-0.0184697
-0.010929
-0.0122205
-0.0136457
-0.0128754
-0.0123112
-0.0119895
-0.0126498
-0.0144802
-0.0163646
-0.0173294
-0.0174908
-0.0180687
-0.0183018
-0.018251
-0.0183092
-0.0189618
-0.0203609
-0.0211335
-0.0226437
-0.024665
-0.0276153
-0.029954
-0.0292478
-0.0257768
-0.023667
-0.0234044
-0.022974
-0.0229084
-0.0206056
-0.0185802
-0.015567
-0.0129719
-0.0136906
-0.0126515
-0.0119232
-0.0110776
-0.0108042
-0.0117129
-0.0165912
-0.0172674
-0.0174302
-0.0178694
-0.0180406
-0.0181068
-0.0183309
-0.0190191
-0.0203934
-0.0224574
-0.0244785
-0.0243876
-0.0259498
-0.0269882
-0.0253919
-0.0235078
-0.0219657
-0.0221141
-0.0222484
-0.0220354
-0.0210571
-0.0188119
-0.0179773
-0.0150644
-0.0145331
-0.012969
-0.0115678
-0.00993411
-0.00913969
-0.00806137
-0.0160937
-0.0164636
-0.016811
-0.0172355
-0.0175425
-0.0178584
-0.0183178
-0.0192236
-0.0207828
-0.02292
-0.024508
-0.0244426
-0.0245926
-0.0245177
-0.023835
-0.0238022
-0.0237237
-0.0240927
-0.0237667
-0.0246576
-0.0237878
-0.0224632
-0.0221993
-0.0176749
-0.0159371
-0.013498
-0.0116155
-0.00962232
-0.00803633
-0.0136972
-0.0152622
-0.0155762
-0.0160759
-0.0166035
-0.0170695
-0.0177066
-0.0185201
-0.019874
-0.0219155
-0.0246128
-0.0264736
-0.0258248
-0.0251092
-0.0261458
-0.0281537
-0.0316601
-0.0337545
-0.0335085
-0.0321205
-0.0326548
-0.0320778
-0.0306104
-0.0285441
-0.0207557
-0.0169091
-0.0140192
-0.012421
-0.0123216
-0.0132183
-0.0149425
-0.0141621
-0.0145499
-0.015297
-0.0161045
-0.0168213
-0.0181099
-0.0193534
-0.0214072
-0.0239516
-0.0270286
-0.0303916
-0.0307364
-0.0303451
-0.0338344
-0.0400927
-0.047641
-0.0512539
-0.0520498
-0.0509532
-0.0515361
-0.0509338
-0.0480999
-0.0361772
-0.0228354
-0.0169537
-0.0135094
-0.0119206
-0.0126693
-0.0141688
-0.0150141
-0.0126272
-0.0130751
-0.0142266
-0.015527
-0.0164313
-0.0187274
-0.0211356
-0.0244983
-0.0265526
-0.0281497
-0.0305802
-0.033142
-0.0340962
-0.0403796
-0.0476234
-0.0564518
-0.0614316
-0.068099
-0.0708971
-0.0719567
-0.0720488
-0.066541
-0.0371446
-0.0221172
-0.0122628
-0.00958836
-0.0107939
-0.013429
-0.0145213
-0.0146167
-0.0104316
-0.0113772
-0.012545
-0.014869
-0.0138169
-0.0250872
-0.024959
-0.0298077
-0.0291732
-0.0284491
-0.0281354
-0.0268413
-0.0270636
-0.0316166
-0.0367196
-0.0477757
-0.0467004
-0.0534517
-0.0598621
-0.0631997
-0.0620876
-0.0479909
-0.0271948
-0.0165766
-0.011946
-0.010525
-0.0126764
-0.0145779
-0.0150115
-0.0149003
-0.00856457
-0.0140853
-0.00969552
-0.0122739
-0.0102758
-0.0144157
-0.0210046
-0.0293805
-0.0236015
-0.0234267
-0.0225845
-0.0193741
-0.0169377
-0.0158238
-0.0135643
-0.0151954
-0.0183264
-0.0230929
-0.0286953
-0.0322975
-0.0306676
-0.0200081
-0.0129466
-0.0109537
-0.0113197
-0.0122938
-0.0137555
-0.0148644
-0.0156252
-0.0155425
-0.010001
-0.00596431
-0.0071674
-0.00354392
-0.0121547
-0.0104214
-0.0117256
-0.00992508
-0.00927081
-0.013387
-0.0175472
-0.018597
-0.0169631
-0.0126716
-0.00934179
-0.00646894
-0.00829988
-0.00970452
-0.0112223
-0.0121057
-0.0114033
-0.00990052
-0.0097873
-0.0106661
-0.0114806
-0.0122116
-0.0132395
-0.0144161
-0.0156588
-0.0157013
-0.0101042
-0.00921213
-0.00966853
-0.008173
-0.0097031
-0.00920958
-0.00800365
-0.00407974
-0.00358167
-0.00539472
-0.0111812
-0.0197651
-0.0209868
-0.015862
-0.0109346
-0.00807634
-0.00753382
-0.00725788
-0.00741188
-0.00752411
-0.00714991
-0.00832421
-0.0101107
-0.011947
-0.0127275
-0.0128534
-0.0133316
-0.0142577
-0.015369
-0.0154125
-0.00993739
-0.0100476
-0.0100017
-0.0097261
-0.00947301
-0.00927911
-0.00753758
-0.0047382
-0.00351933
-0.00316486
-0.00541444
-0.0132065
-0.0201896
-0.0188424
-0.0139112
-0.0103577
-0.00860412
-0.00751254
-0.00704943
-0.00699282
-0.0072694
-0.00937895
-0.0122827
-0.0138786
-0.0139626
-0.0136442
-0.0137288
-0.0142025
-0.0149685
-0.014886
-0.00956378
-0.0101507
-0.00962305
-0.0093881
-0.0094776
-0.00975613
-0.00896077
-0.00634715
-0.00421949
-0.00406992
-0.00473524
-0.00904436
-0.0163385
-0.0189114
-0.0159996
-0.0128334
-0.0106819
-0.00901078
-0.00790691
-0.00779632
-0.00946856
-0.0127468
-0.0152593
-0.0157528
-0.0150415
-0.0143437
-0.0140569
-0.0141394
-0.014547
-0.0142913
-0.00886106
-0.0092518
-0.00896736
-0.00908332
-0.00982056
-0.0108403
-0.0107635
-0.00893258
-0.0057929
-0.00553127
-0.00598693
-0.00829632
-0.013453
-0.01734
-0.0170948
-0.0147465
-0.0124869
-0.0108919
-0.00999868
-0.0107302
-0.013594
-0.0168886
-0.0181153
-0.0173878
-0.0160828
-0.0149951
-0.0143163
-0.0140412
-0.0141009
-0.0136815
-0.00842904
-0.00848303
-0.00842437
-0.00893716
-0.0106048
-0.0129492
-0.0142452
-0.0123344
-0.00976825
-0.00821612
-0.00821474
-0.00916571
-0.0121231
-0.0155913
-0.0174326
-0.016584
-0.0144019
-0.0132467
-0.0138933
-0.0165098
-0.019819
-0.021781
-0.0213377
-0.0195023
-0.0175874
-0.0159699
-0.0147512
-0.0140071
-0.0136657
-0.0131014
-0.00815254
-0.00781762
-0.00757636
-0.0083644
-0.0116614
-0.0165005
-0.0210952
-0.0198773
-0.0173546
-0.0137524
-0.0123903
-0.0116037
-0.012722
-0.0146441
-0.0167972
-0.0178451
-0.0177739
-0.0187619
-0.0221204
-0.0263303
-0.0285695
-0.0282611
-0.0257851
-0.0229095
-0.0202491
-0.0178454
-0.0158155
-0.014334
-0.0134094
-0.0126599
-0.00772152
-0.00699943
-0.0058408
-0.00618781
-0.012503
-0.0203685
-0.0312359
-0.0370121
-0.0348499
-0.0263624
-0.0207617
-0.0178701
-0.0162829
-0.0154591
-0.0174075
-0.0223299
-0.0271856
-0.0316356
-0.0363472
-0.0393664
-0.0388619
-0.0355024
-0.0314746
-0.0277162
-0.0241361
-0.0207426
-0.017689
-0.0152223
-0.0135111
-0.0124838
-0.00653606
-0.00581942
-0.00263469
0.000187055
-0.00826406
-0.0171144
-0.0332377
-0.0574062
-0.0679704
-0.0544286
-0.0387325
-0.0312456
-0.0257592
-0.0241935
-0.0309493
-0.0395713
-0.0464226
-0.0503873
-0.0523063
-0.0512488
-0.0472144
-0.0422602
-0.0375713
-0.0330467
-0.0285475
-0.0240991
-0.0199455
-0.0164192
-0.0138797
-0.0125061
-0.00467857
-0.00378492
0.000178193
-0.00285826
-0.00859295
-0.0141525
-0.0273086
-0.0559133
-0.088394
-0.0880842
-0.0649366
-0.0534156
-0.0498344
-0.051899
-0.0594092
-0.0669701
-0.0707782
-0.0692749
-0.0650854
-0.0592643
-0.0534116
-0.0481083
-0.0431285
-0.0381341
-0.0328912
-0.0274196
-0.0221243
-0.0175041
-0.0142061
-0.0124546
-0.00432948
-0.00771724
-0.0041606
-0.00976954
-0.0121592
-0.0141624
-0.0197411
-0.0371119
-0.0657694
-0.0799172
-0.0796215
-0.0732798
-0.0764396
-0.0842584
-0.0874472
-0.0909619
-0.0900783
-0.0830436
-0.074617
-0.0663015
-0.0592465
-0.0533304
-0.0480371
-0.042729
-0.0369362
-0.0305747
-0.0240334
-0.0182807
-0.0143152
-0.0120796
-0.00717355
-0.0133149
-0.0103228
-0.0105522
-0.0113631
-0.0124671
-0.0162044
-0.023124
-0.0383774
-0.0552978
-0.0698379
-0.0812241
-0.0900165
-0.0980684
-0.102777
-0.105797
-0.102161
-0.0920143
-0.0811291
-0.0725931
-0.0647825
-0.0581713
-0.0523571
-0.0467053
-0.0405073
-0.0334598
-0.025567
-0.0188089
-0.014485
-0.0111813
-0.0112487
-0.0158573
-0.0135291
-0.0113518
-0.010097
-0.0113092
-0.016932
-0.0274798
-0.0408698
-0.047203
-0.0545774
-0.0706415
-0.0904069
-0.106242
-0.114282
-0.116231
-0.10969
-0.0968656
-0.0855892
-0.07713
-0.0690166
-0.0621735
-0.0555329
-0.0494783
-0.0431454
-0.0357889
-0.0274053
-0.0191879
-0.0172811
-0.00905271
-0.0126295
-0.0168711
-0.0132999
-0.0110933
-0.0100661
-0.0116268
-0.0180067
-0.0318717
-0.0493079
-0.0620342
-0.0653966
-0.0708102
-0.093609
-0.11708
-0.121406
-0.11653
-0.10574
-0.0931058
-0.0856682
-0.0788444
-0.071127
-0.0640069
-0.0565062
-0.0500373
-0.0436528
-0.0363456
-0.0276564
-0.0178009
-0.0271856
-0.00754114
-0.0126925
-0.017542
-0.0136982
-0.0115225
-0.0116839
-0.0138233
-0.0187493
-0.0330021
-0.0585074
-0.0839848
-0.110805
-0.123663
-0.117259
-0.12539
-0.114815
-0.102365
-0.093895
-0.0874396
-0.079929
-0.0760451
-0.0725946
-0.0588887
-0.0554924
-0.0472512
-0.0403837
-0.0331221
-0.0244453
-0.013916
-0.0136957
-0.00926111
-0.0162913
-0.0215189
-0.0188114
-0.0166072
-0.0170813
-0.0190481
-0.0226378
-0.0340142
-0.0661876
-0.115147
-0.174056
-0.19003
-0.14053
-0.115755
-0.0923878
-0.0808839
-0.0761357
-0.0698185
-0.0621081
-0.064698
-0.0670357
-0.0563987
-0.050713
-0.0430807
-0.0347617
-0.0258055
-0.0161544
-0.00648219
-0.00568971
-0.0016447
-0.0262353
-0.0309957
-0.0291568
-0.0269477
-0.0261971
-0.0263092
-0.027551
-0.0357759
-0.0662184
-0.121636
-0.166678
-0.147133
-0.102135
-0.0869854
-0.0620931
-0.0532212
-0.0491616
-0.0441692
-0.039796
-0.0383295
-0.0433085
-0.0490207
-0.0463586
-0.0406176
-0.0310618
-0.0209603
-0.011426
-0.00405792
-0.00748978
0.00285634
-0.0361302
-0.0369397
-0.0367713
-0.0360571
-0.0349128
-0.0330948
-0.0298679
-0.0342337
-0.0550508
-0.0807304
-0.0808686
-0.0454198
-0.0284454
-0.0275772
-0.024381
-0.0237601
-0.0212586
-0.0172968
-0.013806
-0.0127869
-0.0188168
-0.0318317
-0.0382569
-0.0366035
-0.0302742
-0.0210925
-0.0122034
-0.00392282
-0.00313161
0.00233217
-0.0379204
-0.0321428
-0.0356174
-0.0407055
-0.0425312
-0.040539
-0.0293557
-0.0278045
-0.0360219
-0.0414372
-0.0256383
-0.00925001
-0.00574853
-0.00599927
-0.00700668
-0.00743409
-0.00692318
-0.00628107
-0.00673772
-0.00597937
-0.0096645
-0.019977
-0.030482
-0.0315532
-0.0284083
-0.0235517
-0.0161277
-0.00371188
-0.00664281
0.00240381
-0.0316733
-0.0257111
-0.0333408
-0.0426273
-0.0466249
-0.041791
-0.0296547
-0.0227219
-0.0245301
-0.0285774
-0.0124021
-0.00408531
-0.00378759
-0.00356676
-0.00409656
-0.00488625
-0.00545128
-0.00573757
-0.00636473
-0.00804228
-0.0132947
-0.0204335
-0.0266775
-0.0285047
-0.029343
-0.0309715
-0.0238221
-0.00407186
-0.00107319
0.00303778
-0.028263
-0.0249385
-0.0328524
-0.0403825
-0.0352317
-0.0261534
-0.0274354
-0.023757
-0.022975
-0.0280893
-0.0112982
-0.00544263
-0.00521918
-0.00529167
-0.00618331
-0.00768282
-0.00935365
-0.010255
-0.0117611
-0.0152282
-0.0223981
-0.026733
-0.0283032
-0.030497
-0.0332966
-0.0433411
-0.0352873
-0.00506888
-0.00321365
0.00245533
-0.0269591
-0.0264943
-0.0324174
-0.0294759
-0.0158731
-0.0128267
-0.0169639
-0.0257147
-0.026461
-0.0316158
-0.0206485
-0.01261
-0.0113645
-0.0115998
-0.013229
-0.0157811
-0.0190401
-0.0211467
-0.0239326
-0.0274052
-0.0312146
-0.0336843
-0.0328489
-0.033218
-0.0405238
-0.0602209
-0.0485393
-0.00702794
-0.00739852
-0.00208463
-0.0246058
-0.0265394
-0.0281552
-0.0156883
-0.0107214
-0.0114474
-0.0142888
-0.018999
-0.0228791
-0.0286091
-0.0326985
-0.0253431
-0.023302
-0.0235072
-0.0250271
-0.0266147
-0.028706
-0.0311251
-0.0334837
-0.0332525
-0.0307736
-0.0247722
-0.0184511
-0.0158359
-0.022943
-0.0500918
-0.0652239
-0.0260834
-0.018305
-0.0107914
-0.0223266
-0.0248633
-0.0202059
-0.0105631
-0.0110593
-0.0135561
-0.0164962
-0.0172885
-0.016424
-0.017425
-0.0274623
-0.0300655
-0.0301651
-0.0312274
-0.0316288
-0.0306258
-0.0291341
-0.0282231
-0.0262305
-0.0237715
-0.0175735
-0.0103738
-0.00754241
-0.00700686
-0.00850701
-0.0201182
-0.0511819
-0.0440545
-0.0289235
-0.0212225
-0.0223806
-0.0226243
-0.0147454
-0.0110863
-0.0126394
-0.0159331
-0.0183145
-0.0180731
-0.0146341
-0.0104351
-0.0143725
-0.019884
-0.022019
-0.0232931
-0.0233132
-0.0221831
-0.0185597
-0.015288
-0.0120129
-0.0101421
-0.00737641
-0.00587782
-0.00594502
-0.00634407
-0.00711491
-0.0106312
-0.0250003
-0.0302927
-0.0231356
-0.0224451
-0.0235272
-0.0218812
-0.0142177
-0.0126812
-0.0148378
-0.0176885
-0.0191343
-0.0180398
-0.012574
-0.00699907
-0.00660074
-0.00928269
-0.0106982
-0.0112459
-0.011045
-0.0103094
-0.00821089
-0.00673376
-0.0056483
-0.00522753
-0.00513434
-0.00538052
-0.00592588
-0.00660338
-0.00731832
-0.00881968
-0.0169454
-0.0242438
-0.0193663
-0.0208196
-0.0242926
-0.0219836
-0.0154734
-0.0149121
-0.0169077
-0.0190681
-0.019048
-0.0163056
-0.00962411
-0.00510502
-0.00450759
-0.00501774
-0.00541892
-0.00551902
-0.00536276
-0.00511446
-0.00469639
-0.00451966
-0.00451834
-0.00468784
-0.00503728
-0.00554026
-0.00614058
-0.00683898
-0.00751534
-0.00866287
-0.0143516
-0.0230446
-0.0202709
-0.0222752
-0.0247775
-0.021176
-0.0164361
-0.017595
-0.0185514
-0.0199466
-0.0185485
-0.0131998
-0.0066633
-0.00432708
-0.0043576
-0.00423933
-0.00427684
-0.00423794
-0.00419626
-0.00416446
-0.00417898
-0.00428753
-0.00448682
-0.00480635
-0.00522671
-0.00576395
-0.00634955
-0.00698174
-0.00764594
-0.0090091
-0.0138473
-0.0225517
-0.0233234
-0.0244043
-0.0248622
-0.0203741
-0.0170762
-0.0177329
-0.0186071
-0.0197175
-0.0167682
-0.00927894
-0.004787
-0.00427163
-0.00425773
-0.00429105
-0.00419719
-0.0042096
-0.00418216
-0.00418721
-0.00420524
-0.00437051
-0.00461942
-0.00499103
-0.00543929
-0.00594508
-0.00650707
-0.00711492
-0.00773169
-0.00942022
-0.0152263
-0.0228007
-0.0251048
-0.0263203
-0.0246108
-0.0195961
-0.0171136
-0.0172564
-0.0200625
-0.0193165
-0.013022
-0.00600714
-0.00413178
-0.00417086
-0.00424265
-0.0041998
-0.00422772
-0.00420266
-0.00420952
-0.00419969
-0.00429933
-0.00450486
-0.00480268
-0.00517958
-0.00560849
-0.00607995
-0.00662066
-0.00724603
-0.00784944
-0.00990403
-0.0168268
-0.0232574
-0.0233761
-0.025474
-0.0237701
-0.0194179
-0.0186076
-0.0200935
-0.0218218
-0.0178309
-0.00843446
-0.00441219
-0.0040483
-0.00412795
-0.0041612
-0.00422106
-0.00420553
-0.0042179
-0.00421251
-0.00426711
-0.00443658
-0.00464905
-0.00496512
-0.00532642
-0.00571882
-0.00618478
-0.00674771
-0.00741075
-0.00798334
-0.0106082
-0.0187513
-0.0233889
-0.0218325
-0.0247923
-0.0227917
-0.0203404
-0.0209027
-0.0224219
-0.0221615
-0.0139905
-0.00547908
-0.00404343
-0.00406794
-0.00419836
-0.00419779
-0.00418481
-0.00423144
-0.00423796
-0.00425612
-0.00439955
-0.00457482
-0.00476552
-0.00507298
-0.00542535
-0.00580957
-0.00629543
-0.0068804
-0.00752945
-0.00808404
-0.0114458
-0.0209096
-0.0238356
-0.0222436
-0.0248123
-0.0221661
-0.0216573
-0.023064
-0.0242081
-0.0217143
-0.0101388
-0.00472224
-0.00409381
-0.00424873
-0.00435688
-0.00428119
-0.00427533
-0.00432495
-0.00432365
-0.00437342
-0.00454706
-0.00469375
-0.00485931
-0.0051588
-0.00551224
-0.00590085
-0.00640677
-0.0070071
-0.00762133
-0.00827889
-0.0124261
-0.022607
-0.024117
-0.0224641
-0.0251308
-0.021814
-0.0223255
-0.0242911
-0.0249597
-0.0204435
-0.00906579
-0.0047536
-0.00425829
-0.00454339
-0.00459258
-0.00446116
-0.00447679
-0.0044861
-0.00446278
-0.00453313
-0.00467797
-0.00478997
-0.00494569
-0.00523469
-0.00558896
-0.00599571
-0.00651304
-0.00712355
-0.00768907
-0.0084261
-0.0132931
-0.0237897
-0.0244996
-0.0228439
-0.0253927
-0.0218281
-0.0224706
-0.0247807
-0.0251007
-0.0198114
-0.00946465
-0.00521131
-0.00448666
-0.00462371
-0.0048552
-0.00470512
-0.00470929
-0.00467185
-0.00463367
-0.00471162
-0.00479969
-0.00488471
-0.00504703
-0.00532493
-0.00567547
-0.00608611
-0.00659419
-0.00720314
-0.00773949
-0.00853866
-0.0139801
-0.0244949
-0.0250716
-0.0233822
-0.0262502
-0.0218353
-0.022303
-0.024934
-0.0251423
-0.0214132
-0.0121059
-0.00588773
-0.0046774
-0.00487781
-0.00508646
-0.0049495
-0.00489577
-0.00483962
-0.00480656
-0.00489601
-0.00493084
-0.00500034
-0.00516789
-0.0054291
-0.005767
-0.00616993
-0.00666188
-0.00727064
-0.0078049
-0.00863685
-0.0142154
-0.0249678
-0.0258126
-0.025468
-0.0268015
-0.0218047
-0.0223847
-0.0250333
-0.0254343
-0.0239195
-0.0142881
-0.00631284
-0.00480049
-0.00469711
-0.00520989
-0.00515446
-0.00503048
-0.00497923
-0.00496264
-0.00507463
-0.00506927
-0.00514014
-0.00530371
-0.00554137
-0.00585437
-0.00624165
-0.00672188
-0.00733098
-0.00787554
-0.00872035
-0.0141585
-0.0252484
-0.0266355
-0.0270637
-0.0269094
-0.0227975
-0.0234604
-0.0252358
-0.0256932
-0.0248268
-0.0148373
-0.00642991
-0.00484385
-0.0049207
-0.0052655
-0.00530453
-0.00514809
-0.00510301
-0.00508995
-0.00523307
-0.00521147
-0.0052869
-0.00544084
-0.00566067
-0.00594262
-0.00631757
-0.00679248
-0.00739022
-0.00793134
-0.00878703
-0.0137457
-0.0252467
-0.0271321
-0.0273665
-0.02679
-0.0244748
-0.0244739
-0.0254693
-0.0259033
-0.0251326
-0.0142252
-0.00627765
-0.00483918
-0.00486752
-0.00520271
-0.00538072
-0.00528168
-0.00521983
-0.00516378
-0.00535377
-0.0053661
-0.00543007
-0.00557364
-0.00577909
-0.00603784
-0.00639919
-0.00686127
-0.00744042
-0.00795246
-0.00882275
-0.0131345
-0.0241451
-0.0272031
-0.0270431
-0.0266041
-0.0253236
-0.0251472
-0.0255711
-0.0260387
-0.024027
-0.011944
-0.00600561
-0.00477761
-0.0047498
-0.00505992
-0.00538445
-0.00544629
-0.0053421
-0.00518774
-0.00543198
-0.00551655
-0.00556173
-0.00569732
-0.00588654
-0.00612757
-0.00647072
-0.00691033
-0.00746841
-0.00793947
-0.00886408
-0.0126512
-0.0225023
-0.0265132
-0.0261763
-0.0260803
-0.0259008
-0.0255292
-0.0257351
-0.026102
-0.0214223
-0.00988671
-0.00576257
-0.00476614
-0.00463611
-0.00492615
-0.00534917
-0.00560244
-0.00548482
-0.00520648
-0.00547908
-0.00564601
-0.00568029
-0.00580677
-0.00597825
-0.00620093
-0.00652061
-0.00693439
-0.00746841
-0.00790169
-0.00894764
-0.0131957
-0.0214872
-0.0251486
-0.0245991
-0.0253112
-0.0263123
-0.0259087
-0.0260731
-0.0262281
-0.019479
-0.00910488
-0.00571884
-0.00488967
-0.00483331
-0.00489682
-0.00531596
-0.00571829
-0.00565192
-0.00529776
-0.00552546
-0.00575519
-0.00580767
-0.005918
-0.00606173
-0.00626329
-0.00655257
-0.00693759
-0.00744437
-0.0078474
-0.0090685
-0.0143955
-0.0224893
-0.024836
-0.0243655
-0.0249981
-0.0261291
-0.0261899
-0.0261711
-0.026203
-0.0186818
-0.00911952
-0.00597488
-0.00518152
-0.00504538
-0.00507735
-0.00545565
-0.00585649
-0.00585668
-0.00553914
-0.00564631
-0.00588407
-0.00597536
-0.00606361
-0.00617215
-0.00633861
-0.00658708
-0.00693824
-0.00741662
-0.00780897
-0.00927113
-0.0162479
-0.024087
-0.0255882
-0.0247298
-0.0249396
-0.0258326
-0.0254957
-0.025945
-0.025733
-0.0184715
-0.0106367
-0.00695683
-0.00568389
-0.00550016
-0.00560188
-0.00593207
-0.0061853
-0.00618149
-0.00595882
-0.00595451
-0.00612484
-0.00624316
-0.00631169
-0.0063829
-0.00649832
-0.00669359
-0.00702076
-0.00749765
-0.00788532
-0.0100904
-0.0193199
-0.0250649
-0.0253368
-0.024815
-0.0249994
-0.025186
-0.0244835
-0.0246605
-0.0249258
-0.0213953
-0.0155032
-0.00875722
-0.00649973
-0.00621998
-0.00647941
-0.00674582
-0.00681032
-0.00676513
-0.00660737
-0.00652448
-0.00659746
-0.00669479
-0.00675093
-0.00679909
-0.00686909
-0.00703472
-0.00741894
-0.00798461
-0.00852401
-0.0121916
-0.0223803
-0.0259291
-0.0254927
-0.0250955
-0.0252007
-0.0245911
-0.0241534
-0.0246712
-0.0252544
-0.0253166
-0.0206601
-0.0110177
-0.0076616
-0.00729928
-0.00765708
-0.0078403
-0.00773409
-0.00764643
-0.00749845
-0.00735698
-0.00733874
-0.00738733
-0.0074278
-0.00747237
-0.00754696
-0.00776205
-0.00835259
-0.00917376
-0.0102254
-0.0156525
-0.0246719
-0.0260251
-0.0255435
-0.025231
-0.0250558
-0.0242486
-0.02436
-0.0247493
-0.0254512
-0.0259228
-0.0230023
-0.0132688
-0.00912483
-0.00871601
-0.00911914
-0.0091483
-0.00887617
-0.00870691
-0.00852073
-0.00834514
-0.00826045
-0.00827205
-0.00828704
-0.00833661
-0.00846922
-0.00881311
-0.00971283
-0.0109388
-0.0128152
-0.0190503
-0.025635
-0.0257282
-0.0251498
-0.024701
-0.0245082
-0.0235377
-0.0237629
-0.0240987
-0.0248724
-0.0258404
-0.0235094
-0.0150029
-0.0109785
-0.0105811
-0.0109337
-0.0107072
-0.0102641
-0.00991471
-0.00964449
-0.00942185
-0.0092935
-0.00926922
-0.00927146
-0.00933902
-0.00953394
-0.0100342
-0.011165
-0.0127969
-0.0153678
-0.021027
-0.0256513
-0.02508
-0.0242657
-0.023601
-0.0235048
-0.0223285
-0.0224558
-0.0230951
-0.0240288
-0.0255983
-0.0240308
-0.0168285
-0.013363
-0.0129949
-0.0131489
-0.0126695
-0.0119668
-0.0113388
-0.0109148
-0.0106147
-0.010451
-0.0104013
-0.0104046
-0.0105006
-0.01077
-0.0113985
-0.0126134
-0.0144941
-0.0173939
-0.0220585
-0.0254778
-0.024487
-0.0232623
-0.0221268
-0.0225943
-0.0210331
-0.0211924
-0.0220233
-0.0235369
-0.0262044
-0.025293
-0.019351
-0.0164662
-0.0159476
-0.0156872
-0.0149947
-0.0139213
-0.0129683
-0.0123322
-0.0119431
-0.0117511
-0.0116838
-0.0117048
-0.0118593
-0.0122357
-0.0129443
-0.0142224
-0.016299
-0.019592
-0.0237997
-0.0259186
-0.0244923
-0.0229056
-0.022215
-0.0217697
-0.0204505
-0.0203919
-0.0217931
-0.0248073
-0.0284358
-0.0278086
-0.0236374
-0.0207518
-0.0195723
-0.0186513
-0.0176377
-0.0161915
-0.0148854
-0.013964
-0.0134714
-0.0132507
-0.013168
-0.0132389
-0.0135005
-0.0140708
-0.0149496
-0.0163457
-0.0186724
-0.0224762
-0.0261979
-0.0266082
-0.0247335
-0.022909
-0.0215431
-0.0210847
-0.019725
-0.0209776
-0.0230694
-0.0267745
-0.0310023
-0.0311909
-0.0288394
-0.0261477
-0.0241679
-0.0224772
-0.020768
-0.0189085
-0.0171783
-0.0159955
-0.0153973
-0.0151397
-0.0150516
-0.0152125
-0.0156057
-0.0164545
-0.0176394
-0.0194564
-0.0224552
-0.026675
-0.0293593
-0.0276465
-0.0249531
-0.0228842
-0.0213573
-0.0206425
-0.0204606
-0.0217517
-0.0241062
-0.0270079
-0.030074
-0.0321759
-0.0323873
-0.0314982
-0.0299364
-0.0276324
-0.0248475
-0.0222189
-0.0199693
-0.0185538
-0.0178307
-0.0175329
-0.0174826
-0.0178181
-0.0185476
-0.019748
-0.0215847
-0.0243917
-0.0282018
-0.0322056
-0.03346
-0.0302438
-0.0262364
-0.0235494
-0.0216489
-0.0206541
-0.0210723
-0.0222162
-0.0236779
-0.0261242
-0.0286737
-0.0315108
-0.0331373
-0.0345249
-0.035335
-0.0345032
-0.0309935
-0.0271803
-0.0242365
-0.0222356
-0.0212479
-0.0208803
-0.0209219
-0.0215721
-0.0228161
-0.0249209
-0.0277591
-0.0312828
-0.0345489
-0.0364377
-0.035802
-0.0325772
-0.0285764
-0.0251198
-0.0226159
-0.0211686
-0.0217456
-0.0225429
-0.0237841
-0.0255076
-0.0276537
-0.0295511
-0.0322449
-0.0350765
-0.0385229
-0.0413253
-0.0404413
-0.0358394
-0.0315365
-0.0285928
-0.0270786
-0.0265257
-0.0267253
-0.0278434
-0.029836
-0.0328181
-0.0359773
-0.0382699
-0.0384377
-0.0371147
-0.0351148
-0.0328856
-0.0299452
-0.0264474
-0.0240804
-0.0219581
-0.0227227
-0.0229652
-0.0242576
-0.0258223
-0.0274694
-0.0281331
-0.0286496
-0.0310555
-0.0366389
-0.0440466
-0.0487635
-0.0467315
-0.0417938
-0.0380023
-0.0359008
-0.0351154
-0.0355385
-0.0370196
-0.0392579
-0.0416597
-0.0429851
-0.0424717
-0.0400133
-0.036629
-0.0336868
-0.0316769
-0.0296333
-0.0276591
-0.0253337
-0.0224415
-0.0236135
-0.0238063
-0.0251078
-0.0264848
-0.028039
-0.0275276
-0.024087
-0.020401
-0.0277415
-0.0369999
-0.0468902
-0.0501379
-0.0492393
-0.0469131
-0.0453205
-0.044791
-0.0453627
-0.0462934
-0.0470372
-0.0470033
-0.0458498
-0.0435035
-0.0401071
-0.0362837
-0.033077
-0.0308173
-0.0291947
-0.0278559
-0.0261953
-0.0239292
-0.0237829
-0.0245446
-0.0262602
-0.0285284
-0.0323578
-0.0340306
-0.024605
-0.0192149
-0.0182116
-0.0274736
-0.0366368
-0.0427123
-0.0469987
-0.0496989
-0.050747
-0.0512069
-0.0515144
-0.0512234
-0.0501364
-0.0481393
-0.0454576
-0.0424656
-0.0392925
-0.0359592
-0.0329866
-0.0307216
-0.0290263
-0.0277554
-0.0265272
-0.0244978
-0.0230168
-0.025369
-0.0284838
-0.0361125
-0.0433864
-0.0474055
-0.040646
-0.0190368
-0.015018
-0.0260218
-0.0305195
-0.0362355
-0.0430837
-0.0490966
-0.0523395
-0.0536051
-0.0534744
-0.0520907
-0.0497833
-0.0468754
-0.0438209
-0.0409505
-0.0382052
-0.0354377
-0.0328976
-0.0308873
-0.0293373
-0.0280422
-0.0272292
-0.025566
-0.0214088
-0.0265545
-0.0325532
-0.0406928
-0.0442154
-0.0489819
-0.0545984
-0.0531001
-0.038993
-0.0359062
-0.0369407
-0.040208
-0.0456988
-0.0505113
-0.0531223
-0.0537475
-0.0528126
-0.0507514
-0.0480725
-0.0451355
-0.0422208
-0.0395285
-0.0370612
-0.0347146
-0.032595
-0.0309168
-0.0296718
-0.0286468
-0.0278611
-0.0271617
-0.0230874
-0.0294627
-0.0341028
-0.0367779
-0.0428544
-0.0495753
-0.0597263
-0.0718971
-0.0736778
-0.0627669
-0.054972
-0.0519458
-0.0523077
-0.0535295
-0.0539655
-0.053277
-0.0516294
-0.0492783
-0.046533
-0.0436535
-0.0408494
-0.0382703
-0.0359554
-0.033864
-0.0320512
-0.0306524
-0.029704
-0.0290756
-0.0286618
-0.0285645
-0.0279613
-0.0324163
-0.0352159
-0.0404557
-0.047506
-0.0570609
-0.0657411
-0.0751582
-0.0818859
-0.0784065
-0.0677212
-0.0607251
-0.0576366
-0.0561302
-0.0547219
-0.0529311
-0.0506867
-0.0480727
-0.0452524
-0.042396
-0.0396561
-0.0371454
-0.0349121
-0.032953
-0.0313047
-0.0300616
-0.0292836
-0.0289339
-0.0289157
-0.0292731
-0.0354657
-0.0372759
-0.0420322
-0.0493833
-0.0555372
-0.0624923
-0.0698523
-0.0766416
-0.0801761
-0.0775792
-0.0702139
-0.0638862
-0.0596703
-0.056763
-0.0543181
-0.0519488
-0.049455
-0.0467957
-0.0440161
-0.0412314
-0.038565
-0.0361149
-0.0339305
-0.0320283
-0.0304381
-0.0292265
-0.0284609
-0.0281773
-0.0283485
-0.0287612
-0.0424193
-0.0436462
-0.0490718
-0.0542832
-0.0594663
-0.0657702
-0.0718326
-0.0760086
-0.0766656
-0.0735133
-0.0677155
-0.0625579
-0.0583389
-0.0550206
-0.0522723
-0.0498279
-0.0474759
-0.0450848
-0.042585
-0.0400291
-0.0375095
-0.0351447
-0.0330052
-0.0311254
-0.0295353
-0.0282815
-0.0274252
-0.0270474
-0.0272301
-0.0276621
-0.0456077
-0.0457835
-0.0501094
-0.0550131
-0.0613167
-0.0677247
-0.0715798
-0.0730108
-0.0711748
-0.067333
-0.0621736
-0.0576984
-0.0539325
-0.0509346
-0.0485386
-0.0465217
-0.044658
-0.0427905
-0.0408044
-0.0386754
-0.0364413
-0.0342213
-0.0321406
-0.03027
-0.0286539
-0.0273305
-0.0263494
-0.0258074
-0.0258835
-0.0264021
-0.0435686
-0.043815
-0.0478154
-0.0542996
-0.0615085
-0.065826
-0.0658166
-0.0648959
-0.0617279
-0.0578356
-0.0536006
-0.0499928
-0.0470821
-0.0448838
-0.0432729
-0.0420567
-0.0410231
-0.0399622
-0.038689
-0.0371377
-0.0353366
-0.0333597
-0.0313652
-0.0294952
-0.0278338
-0.0264293
-0.0253247
-0.0246141
-0.024526
-0.0250882
-0.0368774