/*--------------------------------*- C++ -*----------------------------------*\
| =========                 |                                                 |
| \\      /  F ield         | OpenFOAM: The Open Source CFD Toolbox           |
|  \\    /   O peration     | Version:  v1606+                                |
|   \\  /    A nd           | Web:      www.OpenFOAM.com                      |
|    \\/     M anipulation  |                                                 |
\*---------------------------------------------------------------------------*/
FoamFile
{
    version     2.0;
    format      ascii;
    class       volScalarField;
    location    "1.65";
    object      k.air;
}
// * * * * * * * * * * * * * * * * * * * * * * * * * * * * * * * * * * * * * //

dimensions      [0 2 -2 0 0 0 0];

internalField   nonuniform List<scalar> 
6000
(
0.888498
0.952325
0.967057
0.97767
0.985146
0.985859
0.980452
0.976202
0.97742
0.984751
0.98985
0.991722
0.988912
0.986492
0.986002
0.987159
0.9884
0.985114
0.980883
0.981001
0.983485
0.984203
0.98309
0.980484
0.976436
0.973644
0.974028
0.971023
0.95008
0.883851
0.645738
0.92611
0.995772
1.03397
1.05532
1.05831
1.05662
1.0576
1.06684
1.08777
1.09806
1.09172
1.08636
1.07801
1.07519
1.08704
1.0982
1.08878
1.0776
1.08375
1.09331
1.08724
1.07373
1.05699
1.03805
1.01795
0.996048
0.963954
0.902254
0.609439
0.471717
0.807953
0.935495
1.00229
1.03869
1.05959
1.07338
1.08106
1.087
1.09281
1.09288
1.08723
1.08042
1.07382
1.0721
1.07783
1.08567
1.0911
1.09944
1.11695
1.13381
1.12884
1.10512
1.07228
1.03672
0.999746
0.958804
0.900813
0.786766
0.455432
0.37502
0.694094
0.860437
0.964108
1.03426
1.09349
1.14684
1.17243
1.1656
1.14616
1.12622
1.11256
1.10152
1.09228
1.08877
1.09474
1.10441
1.12218
1.15867
1.21054
1.2464
1.21155
1.14058
1.0756
1.02001
0.963123
0.902134
0.826342
0.694369
0.37364
0.296309
0.592254
0.780502
0.910117
1.01173
1.11083
1.21986
1.31717
1.33186
1.2749
1.21527
1.17719
1.1557
1.14204
1.13675
1.14391
1.16068
1.1965
1.26284
1.34839
1.37244
1.28409
1.17246
1.08054
1.00067
0.920957
0.838517
0.743912
0.602147
0.311461
0.243515
0.516511
0.711911
0.857953
0.985471
1.11911
1.26994
1.43891
1.55439
1.47486
1.36987
1.30113
1.26134
1.23792
1.22796
1.23595
1.26095
1.30818
1.39149
1.50209
1.48624
1.38289
1.249
1.12984
1.01807
0.907572
0.793353
0.67007
0.512546
0.2563
0.215556
0.475327
0.681174
0.846019
0.999833
1.16518
1.34918
1.54295
1.71217
1.70788
1.58536
1.48236
1.41865
1.37988
1.3613
1.36746
1.39662
1.44868
1.5349
1.63962
1.58851
1.52773
1.38602
1.24494
1.10473
0.95744
0.810049
0.657987
0.468087
0.215928
0.204911
0.475285
0.704418
0.895787
1.07138
1.25101
1.45116
1.67187
1.81328
1.87649
1.83436
1.73278
1.63355
1.56447
1.5341
1.53516
1.56293
1.61567
1.70017
1.77164
1.73501
1.69516
1.51493
1.34044
1.19374
1.04108
0.884024
0.717073
0.50659
0.224664
0.228836
0.542738
0.787104
0.980368
1.15009
1.31997
1.51658
1.75593
1.91725
1.94979
1.96707
1.94215
1.87891
1.79999
1.75408
1.7511
1.78056
1.83842
1.91193
1.89355
1.86514
1.79146
1.58007
1.38967
1.22757
1.07025
0.91901
0.75943
0.558196
0.260366
0.288352
0.617855
0.835368
1.02206
1.19474
1.36198
1.54467
1.76303
1.93364
1.97895
1.9779
1.98864
1.99706
1.98383
1.97907
2.00218
2.0523
2.11394
2.12039
1.98448
1.91449
1.80015
1.59684
1.41117
1.24652
1.08458
0.917901
0.742536
0.534855
0.250259
0.285889
0.63245
0.843227
1.02343
1.19716
1.3699
1.54421
1.73942
1.90322
1.96228
1.96308
1.9648
1.98449
2.032
2.10981
2.19729
2.2815
2.32069
2.23104
2.06038
1.93606
1.80121
1.61949
1.44882
1.28558
1.11433
0.932797
0.73526
0.488252
0.214941
0.283462
0.631448
0.838432
1.01355
1.18151
1.34984
1.5222
1.7061
1.86665
1.93682
1.94916
1.95099
1.97313
2.02636
2.11809
2.23974
2.34462
2.37627
2.29556
2.14145
1.99247
1.84961
1.68384
1.5231
1.35403
1.17519
0.98871
0.783879
0.519962
0.206186
0.28699
0.629383
0.83408
1.00522
1.16776
1.33295
1.50306
1.67751
1.84339
1.9329
1.9494
1.94793
1.96539
2.00947
2.08855
2.20183
2.30991
2.35219
2.29859
2.1847
2.07167
1.95735
1.80207
1.62975
1.4473
1.26194
1.07397
0.87227
0.622353
0.247496
0.292662
0.638492
0.846017
1.01743
1.17928
1.34127
1.503
1.65969
1.81062
1.93159
1.9632
1.95567
1.96141
1.98804
2.04566
2.14036
2.24044
2.29138
2.26828
2.19991
2.14092
2.09143
1.96667
1.76943
1.5647
1.36687
1.17199
0.966271
0.715725
0.303675
0.30531
0.668628
0.883683
1.05929
1.22191
1.37857
1.52793
1.6662
1.79081
1.9056
1.97591
1.9737
1.96814
1.97997
2.01666
2.08836
2.17536
2.23444
2.23989
2.21631
2.20894
2.23321
2.15368
1.93174
1.69842
1.48328
1.27731
1.06209
0.798905
0.344631
0.325203
0.720268
0.949744
1.13309
1.29713
1.4481
1.58521
1.70552
1.80671
1.89014
1.96803
1.99752
1.98675
1.98632
2.0057
2.05509
2.12567
2.19235
2.23255
2.25642
2.303
2.38561
2.33713
2.09555
1.83757
1.60513
1.38451
1.15692
0.883028
0.396369
0.355026
0.789271
1.03824
1.23293
1.40195
1.55138
1.6806
1.78672
1.86697
1.92114
1.96339
2.00597
2.01277
2.00683
2.01128
2.03768
2.09092
2.16511
2.23742
2.31219
2.40838
2.52874
2.4864
2.24029
1.97213
1.7244
1.48695
1.24565
0.958979
0.42875
0.391174
0.871469
1.1451
1.35678
1.53747
1.69253
1.82027
1.91667
1.98017
2.00983
2.01584
2.02663
2.03959
2.03749
2.03336
2.04975
2.09082
2.1576
2.25213
2.36488
2.49541
2.64692
2.61163
2.37641
2.10411
1.83666
1.57449
1.30561
0.995494
0.447555
0.43197
0.964849
1.26908
1.50508
1.7064
1.87658
2.01175
2.10284
2.15277
2.16513
2.14838
2.12431
2.1156
2.10534
2.10076
2.11276
2.14186
2.19648
2.2924
2.42609
2.60049
2.77541
2.73721
2.5284
2.244
1.94394
1.6406
1.34244
1.00275
0.450945
0.476113
1.06586
1.40651
1.67552
1.91039
2.10955
2.26282
2.35284
2.39178
2.38888
2.35787
2.32071
2.29225
2.27053
2.269
2.27832
2.29252
2.33184
2.42232
2.57379
2.7885
2.95345
2.92204
2.72117
2.3959
2.04268
1.69676
1.37179
1.01015
0.451835
0.523181
1.16482
1.5477
1.8597
2.14428
2.38737
2.56994
2.67142
2.70451
2.68474
2.63393
2.5731
2.52151
2.50019
2.50679
2.50704
2.52329
2.57712
2.69043
2.87102
3.09539
3.21538
3.13535
2.88235
2.51353
2.11808
1.75245
1.40884
1.02706
0.454507
0.566314
1.24215
1.67626
2.03793
2.3598
2.65211
2.88533
3.03739
3.08931
3.05969
2.9709
2.84696
2.73843
2.69376
2.66899
2.66549
2.70544
2.78908
2.92436
3.11205
3.29302
3.33379
3.18123
2.89616
2.53591
2.16445
1.8083
1.45783
1.0638
0.468054
0.606004
1.32002
1.77753
2.16799
2.51652
2.82453
3.07789
3.32362
3.47752
3.48526
3.34546
3.13301
2.94538
2.82394
2.77496
2.76703
2.80667
2.88893
3.00523
3.15722
3.28715
3.28947
3.12124
2.84132
2.50628
2.17278
1.84088
1.50046
1.10805
0.492773
0.642582
1.42055
1.87545
2.25579
2.60156
2.92138
3.19828
3.4439
3.72447
3.88319
3.72307
3.39419
3.0959
2.93081
2.85914
2.83759
2.85697
2.90869
2.99327
3.10752
3.19666
3.17074
3.01127
2.74752
2.45074
2.15317
1.84843
1.52657
1.14443
0.515041
0.687031
1.48943
1.94865
2.3196
2.65356
2.96644
3.25868
3.49545
3.76152
3.99256
3.89996
3.55796
3.23612
3.04324
2.94446
2.89785
2.89363
2.91512
2.96895
3.04958
3.11139
3.06157
2.88246
2.643
2.38848
2.12292
1.84401
1.54079
1.16967
0.531817
0.704564
1.52857
1.99207
2.36187
2.69095
2.99077
3.27418
3.52613
3.71941
3.89175
3.85218
3.61736
3.3504
3.14623
3.02712
2.96127
2.93191
2.93112
2.96357
3.01512
3.0339
2.93439
2.75819
2.55741
2.33647
2.09753
1.8396
1.55138
1.1883
0.544409
0.717363
1.56638
2.03775
2.40861
2.73225
3.0184
3.27515
3.52056
3.65684
3.72964
3.7271
3.61346
3.42306
3.23628
3.11137
3.03547
2.98167
2.95989
2.97281
2.98828
2.9398
2.82167
2.67523
2.50346
2.30632
2.0868
1.84377
1.56579
1.20697
0.55527
0.732998
1.60863
2.09219
2.46923
2.7925
3.06664
3.28977
3.48815
3.60261
3.60783
3.60565
3.57479
3.4596
3.30973
3.19463
3.11259
3.04745
3.00189
2.97759
2.94305
2.86481
2.76532
2.64177
2.48708
2.30422
2.09635
1.86234
1.58982
1.23097
0.56736
0.751413
1.65719
2.16053
2.55371
2.88754
3.15828
3.35249
3.48467
3.56116
3.54849
3.53475
3.51831
3.46233
3.36228
3.26768
3.18242
3.09801
3.02752
2.97091
2.91558
2.85414
2.77235
2.65717
2.50878
2.33236
2.13062
1.90043
1.62788
1.26405
0.582747
0.773336
1.7158
2.24709
2.66933
3.0302
3.31515
3.50337
3.58022
3.58904
3.56356
3.54269
3.50954
3.46897
3.40508
3.32221
3.2277
3.13161
3.05878
3.00558
2.96368
2.91417
2.83484
2.71909
2.57127
2.39562
2.1933
1.96052
1.68262
1.30847
0.602699
0.798324
1.78748
2.35455
2.81632
3.22261
3.54369
3.76809
3.84171
3.76361
3.69105
3.64107
3.57818
3.52407
3.47234
3.39597
3.30862
3.22542
3.16592
3.12749
3.09366
3.04
2.9516
2.82848
2.67442
2.49246
2.28331
2.04266
1.75455
1.36505
0.627849
0.832607
1.87622
2.48317
2.97641
3.41766
3.79774
4.11016
4.24923
4.14177
3.98812
3.87763
3.76436
3.67093
3.61195
3.55861
3.49057
3.42294
3.37302
3.33296
3.28705
3.21781
3.11621
2.98117
2.81496
2.62031
2.39819
2.14457
1.84195
1.43288
0.658185
0.897259
1.97247
2.62135
3.13933
3.60186
4.04158
4.45355
4.71572
4.67894
4.45886
4.27195
4.10554
3.97389
3.89269
3.83768
3.77733
3.71616
3.66149
3.60613
3.53949
3.44994
3.32974
3.17634
2.99112
2.77676
2.53487
2.26276
1.94165
1.50924
0.692292
0.978707
2.08848
2.7255
3.24928
3.74806
4.23117
4.68728
5.02918
5.13155
5.0157
4.78862
4.58296
4.41412
4.29233
4.21134
4.14511
4.08152
4.01553
3.9419
3.85301
3.73942
3.59397
3.41433
3.20197
2.95998
2.69066
2.39347
2.05008
1.59019
0.727382
0.99725
2.13012
2.76177
3.29788
3.82255
4.34369
4.84367
5.22486
5.41014
5.47281
5.35593
5.1329
4.92667
4.76728
4.65896
4.58098
4.50933
4.42869
4.336
4.22602
4.08636
3.90929
3.69486
3.44662
3.16851
2.86344
2.53291
2.16342
1.66887
0.763292
0.972589
2.09262
2.7361
3.29148
3.83576
4.38466
4.93529
5.40007
5.64022
5.7531
5.82215
5.70839
5.46999
5.29151
5.15778
5.06062
4.97452
4.88181
4.78005
4.65715
4.4901
4.27363
4.01451
3.72163
3.39992
3.05204
2.6802
2.27535
1.72686
0.799722
0.926898
2.01676
2.68954
3.2751
3.85088
4.42603
5.01059
5.57176
5.95482
6.10772
6.19148
6.24233
6.06532
5.85718
5.6852
5.54596
5.43026
5.34236
5.26425
5.14617
4.9503
4.68008
4.36305
4.01711
3.64662
3.25109
2.8273
2.36647
1.80121
0.846063
0.913391
1.97834
2.66617
3.28833
3.90236
4.50933
5.12585
5.75863
6.3246
6.62675
6.67112
6.76417
6.72654
6.47822
6.2289
6.03254
5.89001
5.80136
5.75374
5.66564
5.45496
5.11345
4.72478
4.3166
3.89216
3.44626
2.96563
2.45615
1.87635
0.885135
0.929935
2.01222
2.72455
3.37459
4.01743
4.64744
5.28931
5.97045
6.65591
7.13592
7.2675
7.30204
7.34494
7.05705
6.72685
6.47099
6.29342
6.18664
6.14106
6.0775
5.88282
5.52269
5.07668
4.60034
4.11765
3.61847
3.07842
2.5226
1.90537
0.911487
0.948987
2.12442
2.87922
3.54826
4.20123
4.83709
5.48189
6.17584
6.8997
7.48243
7.708
7.63069
7.61683
7.38557
7.0432
6.74607
6.52094
6.36831
6.27729
6.20628
6.07065
5.77935
5.35818
4.84304
4.31245
3.76841
3.17841
2.57611
1.93227
0.924729
0.98963
2.25243
3.07748
3.77742
4.44176
5.07361
5.68584
6.34397
7.02925
7.58361
7.78026
7.65214
7.58572
7.42159
7.13043
6.81975
6.55903
6.36616
6.23471
6.13358
6.01186
5.80045
5.47509
5.01306
4.48281
3.90846
3.26806
2.62366
1.97162
0.948232
0.990654
2.34041
3.28371
4.04582
4.72868
5.32307
5.85904
6.42963
7.01289
7.46922
7.64396
7.52065
7.43919
7.30441
7.05458
6.75885
6.49619
6.29914
6.15124
6.03373
5.92248
5.7642
5.51153
5.15211
4.66132
4.06779
3.36514
2.66422
2.00737
0.970346
1.00121
2.4395
3.50266
4.3199
4.97222
5.48566
5.92058
6.43244
6.96671
7.37293
7.50895
7.35952
7.2456
7.10243
6.87879
6.62034
6.38679
6.20991
6.07443
5.96605
5.88355
5.78118
5.59901
5.32532
4.88643
4.28611
3.51725
2.71193
2.02619
0.979661
1.04746
2.56793
3.69806
4.4711
5.01942
5.47277
5.93184
6.46445
7.09287
7.51407
7.47783
7.26219
7.08363
6.90635
6.69505
6.47852
6.28739
6.14107
6.03752
5.96855
5.93309
5.90635
5.81138
5.56199
5.15706
4.59036
3.74757
2.82552
2.0886
0.995
1.13377
2.72682
3.77503
4.46405
4.94484
5.43196
5.93528
6.61185
7.40759
7.85633
7.60214
7.27225
7.01588
6.80083
6.58803
6.39795
6.24419
6.13339
6.06936
6.05181
6.06252
6.09531
6.03684
5.77392
5.38168
4.82729
4.01788
3.11564
2.30357
1.03635
1.25139
2.8153
3.76168
4.36286
4.85457
5.37014
5.90355
6.60963
7.45998
7.95827
7.71082
7.30712
7.00227
6.7662
6.56356
6.39228
6.25856
6.17472
6.14069
6.12954
6.11945
6.07644
5.90664
5.59794
5.23906
4.79918
4.22804
3.48807
2.53214
1.07622
1.31802
2.83356
3.69629
4.25003
4.75977
5.26558
5.80708
6.4823
7.22454
7.66785
7.55553
7.222
6.93346
6.70895
6.53147
6.37928
6.25421
6.17383
6.12894
6.08177
5.99197
5.83088
5.58574
5.28278
4.95901
4.61273
4.19503
3.57866
2.6057
1.09461
1.33822
2.83037
3.61513
4.15975
4.65911
5.14466
5.6793
6.3036
6.89487
7.19282
7.16195
6.97154
6.75903
6.57231
6.41544
6.27937
6.16023
6.06247
5.97301
5.8626
5.70869
5.51286
5.27607
5.00898
4.72596
4.42659
4.06163
3.49232
2.62321
1.12548
1.32472
2.7784
3.52976
4.0709
4.55377
5.02871
5.56008
6.13412
6.58399
6.76298
6.75798
6.65806
6.51639
6.36902
6.2288
6.0965
5.97021
5.8513
5.73109
5.59266
5.42544
5.23129
5.0137
4.77932
4.53524
4.2744
3.9267
3.38509
2.61618
1.15455
1.30085
2.69831
3.42853
3.97488
4.45811
4.94257
5.47486
5.9945
6.31423
6.41329
6.41545
6.35795
6.25893
6.13993
6.01377
5.88524
5.7553
5.62491
5.4895
5.34034
5.17258
4.98762
4.78839
4.58006
4.36812
4.1396
3.80383
3.27764
2.54825
1.14608
1.26407
2.60509
3.32383
3.88501
4.39012
4.89773
5.4309
5.86972
6.07068
6.12173
6.12014
6.07829
6.00193
5.90238
5.78893
5.66655
5.53756
5.40358
5.26304
5.1122
4.94894
4.77431
4.59114
4.40406
4.21811
4.01523
3.68518
3.15864
2.41914
1.13036
1.229
2.52545
3.24087
3.81897
4.35752
4.89172
5.40321
5.73088
5.84449
5.86827
5.85811
5.81938
5.75371
5.66652
5.5635
5.44842
5.32401
5.1924
5.05341
4.9059
4.74943
4.58548
4.41711
4.24864
4.08466
3.89979
3.57006
3.04871
2.31525
1.10918
1.19106
2.46895
3.19185
3.78887
4.35771
4.9069
5.35595
5.57485
5.63565
5.64106
5.62178
5.58123
5.51987
5.4402
5.34525
5.23752
5.1196
4.9934
4.85943
4.71794
4.56976
4.41691
4.26274
4.11182
3.96847
3.79851
3.4701
2.96432
2.27132
1.07721
1.14489
2.42844
3.1657
3.78875
4.3844
4.92457
5.28441
5.42085
5.44567
5.43437
5.40592
5.3618
5.30184
5.22684
5.13812
5.03722
4.92617
4.80654
4.67927
4.54532
4.40635
4.2649
4.12473
3.99114
3.86849
3.7148
3.38569
2.89655
2.2428
1.06949
1.10463
2.39747
3.15491
3.80745
4.41746
4.92943
5.20858
5.28235
5.27337
5.24433
5.20636
5.15813
5.09838
5.02654
4.94277
4.84794
4.74346
4.6307
4.51085
4.38523
4.25603
4.12624
3.99995
3.88329
3.78009
3.63942
3.31073
2.83597
2.20672
1.05815
1.07185
2.36748
3.14537
3.82033
4.4293
4.91196
5.13615
5.15559
5.11371
5.06654
5.01927
4.96712
4.90726
4.83785
4.75823
4.66877
4.57042
4.46452
4.35234
4.23541
4.11619
3.99796
3.88509
3.78426
3.69851
3.56736
3.24083
2.78058
2.1737
1.05117
1.0462
2.33289
3.12288
3.80801
4.40884
4.86962
5.05257
5.02891
4.95975
4.8967
4.8415
4.78629
4.72637
4.65901
4.58303
4.49839
4.4058
4.30652
4.20192
4.09365
3.98427
3.87717
3.77682
3.69006
3.61864
3.49528
3.1749
2.73121
2.14794
1.0576
1.02395
2.29245
3.08032
3.75952
4.35125
4.79897
4.95043
4.89387
4.80586
4.73193
4.6711
4.61393
4.55418
4.48866
4.41587
4.33556
4.24831
4.15532
4.05796
3.95799
3.85793
3.76109
3.67182
3.59676
3.53624
3.41965
3.10882
2.68314
2.12827
1.03652
1.00044
2.24781
3.0221
3.68345
4.26651
4.70111
4.82555
4.74834
4.65061
4.57136
4.5072
4.44895
4.38957
4.3256
4.25557
4.17916
4.09677
4.00955
3.91888
3.82658
3.735
3.64714
3.56694
3.50045
3.44662
3.33643
3.03525
2.62191
2.06504
0.953987
0.982292
2.21217
2.96523
3.60077
4.1639
4.57759
4.68156
4.59666
4.49613
4.41518
4.34937
4.29059
4.23157
4.16875
4.10101
4.02805
3.95
3.86795
3.78332
3.69789
3.6137
3.53319
3.45959
3.39779
3.34477
3.23604
2.94229
2.53313
1.96244
0.878235
0.982379
2.19276
2.91979
3.52417
4.05441
4.43909
4.52794
4.445
4.34517
4.26361
4.19679
4.13774
4.07909
4.01709
3.95116
3.88115
3.80697
3.72954
3.65029
3.5709
3.49301
3.41828
3.34875
3.28757
3.22851
3.11339
2.82813
2.43027
1.8599
0.836152
0.994702
2.18473
2.88238
3.45542
3.94502
4.29269
4.37245
4.29677
4.19837
4.11571
4.04792
3.98869
3.93063
3.86944
3.805
3.73753
3.66683
3.59361
3.51926
3.44529
3.37284
3.30273
3.23566
3.17266
3.10358
2.97367
2.70206
2.3211
1.76627
0.791399
1.00896
2.17402
2.83796
3.37898
3.82878
4.14045
4.21796
4.1496
4.05259
3.96903
3.90057
3.8413
3.78434
3.72445
3.6615
3.59637
3.52899
3.45978
3.39006
3.32114
3.25375
3.18795
3.12343
3.05996
2.98492
2.84314
2.58416
2.22996
1.70754
0.77379
1.01282
2.14751
2.77205
3.27891
3.69325
3.97738
4.05724
3.99581
3.90216
3.82016
3.75244
3.69373
3.63843
3.58066
3.51971
3.45706
3.39298
3.32779
3.26266
3.1987
3.13639
3.07532
3.01486
2.95475
2.88112
2.73346
2.4827
2.15574
1.68036
0.781131
0.948976
2.07359
2.67602
3.14929
3.52883
3.79372
3.88172
3.82906
3.74258
3.6664
3.60198
3.54508
3.49192
3.43702
3.37884
3.31911
3.25852
3.19746
3.13692
3.07793
3.02082
2.96489
2.90983
2.85611
2.78772
2.63592
2.38741
2.07237
1.62526
0.753873
0.889093
1.98087
2.56105
2.99762
3.33987
3.59283
3.69211
3.64983
3.57425
3.50778
3.44933
3.39566
3.34506
3.29333
3.23857
3.18236
3.12553
3.06866
3.01262
2.95834
2.90606
2.85496
2.80531
2.75837
2.69384
2.53622
2.29208
1.98663
1.56136
0.730265
0.859675
1.8915
2.44057
2.84059
3.15232
3.39747
3.50068
3.4645
3.402
3.34751
3.29636
3.2468
3.19898
3.15035
3.09933
3.04705
2.99428
2.94153
2.88956
2.83922
2.79074
2.74338
2.69785
2.65582
2.59252
2.43142
2.18985
1.89201
1.49175
0.70393
0.828239
1.79843
2.30638
2.67103
2.96908
3.20669
3.30566
3.27719
3.23155
3.18987
3.14573
3.10012
3.05495
3.0093
2.96208
2.91391
2.86524
2.81638
2.76788
2.72048
2.67456
2.62962
2.58643
2.5456
2.4776
2.31681
2.08244
1.79784
1.41677
0.659842
0.785757
1.70183
2.1702
2.51113
2.79595
3.02054
3.11053
3.09436
3.06817
3.03756
2.99879
2.95647
2.91392
2.87123
2.82776
2.78371
2.73906
2.69388
2.64848
2.60338
2.55902
2.51511
2.47171
2.42683
2.35437
2.19796
1.97453
1.70413
1.33733
0.612954
0.739794
1.60843
2.05197
2.37446
2.64182
2.84928
2.92432
2.9225
2.9132
2.88951
2.85469
2.81563
2.77592
2.73636
2.69675
2.65685
2.6163
2.57484
2.53259
2.48985
2.4467
2.40254
2.35679
2.3058
2.2266
2.07837
1.8723
1.61655
1.2652
0.576169
0.697048
1.52449
1.94931
2.25695
2.50893
2.68826
2.74795
2.76235
2.76291
2.7418
2.71085
2.6763
2.64034
2.60448
2.56898
2.5334
2.49713
2.45976
2.42124
2.38144
2.33941
2.2938
2.24458
2.18696
2.10313
1.96663
1.78112
1.54108
1.20685
0.552362
0.664933
1.45646
1.86363
2.15769
2.38783
2.52848
2.58052
2.60837
2.60957
2.59058
2.56599
2.53789
2.50693
2.4755
2.4445
2.41342
2.38164
2.34873
2.31443
2.27803
2.23744
2.18985
2.13578
2.07495
1.99092
1.86511
1.69949
1.47702
1.15981
0.534774
0.647136
1.40318
1.79192
2.066
2.25774
2.36976
2.43082
2.45865
2.45873
2.44191
2.4211
2.40073
2.37596
2.34954
2.3233
2.29679
2.26947
2.24097
2.21058
2.17712
2.13802
2.08798
2.03201
1.96917
1.88741
1.77165
1.61705
1.41109
1.11169
0.515863
0.631791
1.34948
1.71044
1.95303
2.11734
2.22321
2.28191
2.30527
2.30731
2.29714
2.28169
2.26638
2.24846
2.2272
2.20565
2.18344
2.16012
2.13537
2.10761
2.07445
2.03605
1.98951
1.93332
1.86578
1.79064
1.68561
1.53702
1.34056
1.05657
0.491551
0.604564
1.26996
1.59641
1.81646
1.97277
2.0735
2.12841
2.15402
2.16318
2.16078
2.15115
2.13957
2.12541
2.10955
2.09213
2.07324
2.05243
2.02929
2.00242
1.97165
1.93517
1.89035
1.83252
1.76562
1.69408
1.60085
1.46242
1.2738
1.00223
0.466095
0.554189
1.16259
1.46455
1.67095
1.81969
1.92036
1.98277
2.02003
2.03962
2.04344
2.03426
2.02155
2.01063
1.99861
1.9848
1.96853
1.9493
1.92671
1.90022
1.87002
1.83087
1.78438
1.73003
1.66763
1.59599
1.50662
1.38233
1.20784
0.950782
0.44234
0.492138
1.05016
1.33613
1.53469
1.68117
1.78556
1.85761
1.90608
1.93471
1.94244
1.93059
1.9152
1.90601
1.89772
1.88656
1.87142
1.85224
1.82842
1.79941
1.76587
1.72689
1.683
1.6324
1.57165
1.49755
1.40635
1.29054
1.1335
0.897279
0.422721
0.436195
0.956872
1.23413
1.42738
1.57272
1.67937
1.75542
1.81039
1.84368
1.85256
1.83923
1.82301
1.81522
1.807
1.7945
1.77738
1.75621
1.73065
1.70088
1.66784
1.63119
1.58986
1.54017
1.4774
1.3997
1.30655
1.19413
1.05029
0.838638
0.40264
0.404736
0.896816
1.16658
1.35768
1.50085
1.60295
1.67038
1.72006
1.75496
1.7677
1.76067
1.74911
1.74071
1.72777
1.70941
1.68774
1.66391
1.63787
1.60948
1.57836
1.54288
1.50085
1.44905
1.38404
1.30467
1.21093
1.10063
0.964995
0.773154
0.373562
0.395668
0.871431
1.13547
1.32365
1.45868
1.53743
1.58295
1.63278
1.67281
1.68847
1.68873
1.68457
1.67445
1.65365
1.6282
1.60248
1.57729
1.55171
1.52436
1.49324
1.45613
1.41141
1.35748
1.29195
1.21327
1.12099
1.01313
0.882392
0.702728
0.342453
0.400038
0.873301
1.12722
1.29991
1.39935
1.45669
1.50116
1.54886
1.59053
1.60742
1.61026
1.60713
1.59568
1.57257
1.54514
1.51875
1.4936
1.46804
1.43996
1.40725
1.3682
1.32178
1.26702
1.20218
1.12561
1.03638
0.932359
0.806546
0.635941
0.310786
0.415966
0.879713
1.10918
1.24493
1.33197
1.38884
1.42782
1.46631
1.49597
1.50962
1.51205
1.5131
1.5039
1.48344
1.45884
1.43416
1.40955
1.3836
1.35457
1.32076
1.28083
1.23394
1.17937
1.11592
1.04214
0.956844
0.857741
0.737997
0.575801
0.277901
0.43149
0.868083
1.05837
1.18179
1.25516
1.30682
1.35518
1.38712
1.40032
1.40829
1.41763
1.42134
1.41283
1.39506
1.37341
1.35046
1.32633
1.3001
1.27046
1.23613
1.19602
1.14941
1.09572
1.0341
0.963414
0.882418
0.788804
0.676093
0.523467
0.249627
0.422697
0.817784
0.98115
1.08583
1.16287
1.22482
1.27316
1.30323
1.31706
1.32719
1.33605
1.33725
1.32818
1.31196
1.29209
1.2701
1.24612
1.21958
1.18953
1.15498
1.11507
1.06917
1.0168
0.957323
0.889864
0.813249
0.725286
0.620072
0.478449
0.228119
0.388339
0.724197
0.885424
0.99658
1.08124
1.14699
1.19475
1.22483
1.24213
1.25447
1.26185
1.26029
1.25029
1.23468
1.2156
1.19395
1.16988
1.14302
1.11269
1.07814
1.03869
0.993794
0.943019
0.885885
0.821693
0.749386
0.666937
0.569092
0.438813
0.210032
0.327759
0.634811
0.804053
0.921446
1.01075
1.07875
1.12663
1.15772
1.17744
1.18962
1.19403
1.18976
1.17867
1.1629
1.14384
1.12212
1.09787
1.07079
1.04039
1.00609
0.967323
0.923635
0.874642
0.819947
0.758979
0.690801
0.613547
0.522522
0.402581
0.193656
0.282348
0.56055
0.736729
0.859452
0.953927
1.02458
1.07313
1.10452
1.12321
1.132
1.13228
1.12511
1.11253
1.09606
1.07663
1.05469
1.03026
1.00313
0.972905
0.939109
0.901259
0.858949
0.811849
0.759617
0.701774
0.637481
0.565015
0.48011
0.369176
0.178339
0.246604
0.503769
0.684089
0.814048
0.915649
0.989541
1.03674
1.06421
1.07715
1.08002
1.07548
1.06528
1.05097
1.03361
1.01377
0.991667
0.967252
0.940319
0.910541
0.877503
0.840783
0.799988
0.754834
0.705032
0.650164
0.589472
0.521352
0.441855
0.338527
0.164051
0.221866
0.466638
0.652089
0.79391
0.90242
0.975678
1.01265
1.02873
1.03347
1.03045
1.02162
1.00873
0.992996
0.97504
0.955101
0.933172
0.909114
0.882716
0.853682
0.82165
0.786231
0.747078
0.70388
0.656411
0.604316
0.546906
0.482673
0.407915
0.311018
0.150954
0.206556
0.454197
0.651232
0.802116
0.908386
0.960235
0.979733
0.98776
0.98756
0.980263
0.968535
0.954129
0.937877
0.92005
0.900613
0.879395
0.856178
0.830733
0.802795
0.772036
0.738094
0.700635
0.659391
0.614115
0.564533
0.510031
0.449195
0.378531
0.287127
0.139337
0.203529
0.466917
0.675455
0.825981
0.897781
0.9244
0.937622
0.941964
0.937875
0.9282
0.915544
0.90114
0.885477
0.868621
0.850399
0.830536
0.808748
0.784776
0.758364
0.729206
0.696949
0.661268
0.621918
0.578686
0.531308
0.479266
0.421264
0.354011
0.267219
0.129464
0.217152
0.510793
0.712453
0.820182
0.859694
0.881555
0.892078
0.893214
0.886839
0.876346
0.863997
0.850536
0.836204
0.820957
0.804559
0.786679
0.766962
0.745077
0.720732
0.69361
0.663354
0.629638
0.592197
0.550846
0.505364
0.45527
0.399415
0.334763
0.251572
0.121517
0.253918
0.560281
0.719246
0.787766
0.816512
0.836973
0.844971
0.843368
0.836116
0.826268
0.815135
0.803184
0.790588
0.777302
0.76312
0.747707
0.730643
0.711492
0.689842
0.665307
0.637528
0.60619
0.570915
0.531441
0.48763
0.438937
0.384425
0.321385
0.240522
0.115571
0.278103
0.580745
0.700697
0.748517
0.774976
0.791157
0.796524
0.793921
0.787642
0.779445
0.770063
0.759916
0.749212
0.737979
0.726106
0.713347
0.699294
0.68337
0.664968
0.643571
0.618836
0.590583
0.558184
0.521085
0.479097
0.431246
0.377156
0.314661
0.234796
0.112084
0.283056
0.571673
0.664231
0.707998
0.732243
0.744628
0.748293
0.747024
0.742966
0.736989
0.72969
0.721532
0.712771
0.703512
0.693766
0.683457
0.672343
0.659826
0.644911
0.626804
0.605314
0.580756
0.552446
0.519313
0.480057
0.432329
0.377725
0.31485
0.234836
0.111503
0.278441
0.542678
0.622394
0.666767
0.687454
0.697722
0.702404
0.704184
0.703107
0.699738
0.694808
0.68883
0.682076
0.674688
0.666759
0.658371
0.649549
0.64005
0.628844
0.61391
0.59468
0.572791
0.548828
0.521659
0.487428
0.440061
0.384553
0.320902
0.239342
0.112697
0.265854
0.498771
0.577648
0.623324
0.640582
0.651741
0.660444
0.666451
0.668739
0.668293
0.666023
0.662444
0.657816
0.652276
0.64594
0.638953
0.631487
0.623611
0.615216
0.604629
0.587278
0.566078
0.544432
0.522443
0.492733
0.450455
0.396366
0.334687
0.25231
0.117142
0.253673
0.453047
0.529475
0.57023
0.591483
0.608912
0.624076
0.634474
0.640241
0.642983
0.643646
0.642687
0.640321
0.636671
0.631852
0.626018
0.619347
0.611887
0.603387
0.594051
0.582329
0.563456
0.540724
0.520329
0.493246
0.453884
0.405784
0.351425
0.272563
0.128115
0.22948
0.396776
0.470178
0.516223
0.548768
0.574994
0.595227
0.608789
0.617859
0.623962
0.62778
0.629622
0.629637
0.627917
0.624578
0.61979
0.613713
0.606346
0.597271
0.586025
0.573316
0.559944
0.5407
0.516757
0.4909
0.455106
0.414022
0.366059
0.292724
0.144396
0.188848
0.331321
0.423161
0.481162
0.522121
0.552546
0.574043
0.589736
0.60194
0.611472
0.61856
0.623311
0.625801
0.62604
0.624116
0.620175
0.614495
0.60715
0.597783
0.585807
0.571167
0.554533
0.536595
0.517882
0.491944
0.463201
0.427079
0.378901
0.308727
0.158591
0.156534
0.282418
0.390668
0.461932
0.507931
0.538508
0.560223
0.577878
0.593078
0.605986
0.616316
0.623779
0.628369
0.630295
0.629664
0.626646
0.621392
0.614009
0.604339
0.591922
0.576725
0.558949
0.539816
0.521409
0.501587
0.477592
0.442174
0.391358
0.318779
0.16709
0.137335
0.2647
0.383223
0.458524
0.50352
0.532047
0.554137
0.573886
0.591929
0.607615
0.620639
0.630813
0.638051
0.642193
0.643226
0.641251
0.636434
0.62896
0.618903
0.606111
0.590352
0.571923
0.551806
0.531969
0.512507
0.488421
0.453137
0.400828
0.324359
0.17096
0.130324
0.270768
0.390281
0.46049
0.504153
0.531939
0.555279
0.577172
0.597831
0.616724
0.633181
0.646538
0.656381
0.66257
0.665128
0.664136
0.659764
0.652223
0.641705
0.628331
0.611993
0.592788
0.571395
0.548879
0.525048
0.496717
0.460335
0.407462
0.327672
0.171404
0.13701
0.293536
0.398308
0.46658
0.507086
0.536509
0.563256
0.588829
0.613147
0.635516
0.655004
0.671087
0.683359
0.691614
0.695775
0.695882
0.692079
0.684563
0.673551
0.659322
0.641953
0.621481
0.598168
0.572326
0.543612
0.509888
0.468825
0.41324
0.329604
0.170673
0.1602
0.328164
0.413038
0.479147
0.514782
0.548551
0.580514
0.610393
0.638252
0.663736
0.686192
0.705033
0.719801
0.73021
0.736109
0.737464
0.734369
0.726979
0.71551
0.700254
0.681438
0.659147
0.633402
0.604089
0.570584
0.531366
0.48368
0.422158
0.332539
0.167635
0.194124
0.362065
0.440694
0.493173
0.529056
0.569002
0.606703
0.641335
0.673084
0.701958
0.727545
0.749296
0.766719
0.779456
0.787273
0.790053
0.787821
0.780674
0.768789
0.752424
0.73184
0.707196
0.678473
0.645379
0.607111
0.56214
0.507655
0.438314
0.339693
0.167695
0.214411
0.378977
0.457678
0.502801
0.549682
0.597714
0.642138
0.682199
0.718393
0.751093
0.780131
0.805055
0.825378
0.840681
0.850648
0.855077
0.8539
0.847135
0.834887
0.817365
0.794795
0.76734
0.735016
0.697561
0.654161
0.603171
0.541756
0.464271
0.355596
0.170991
0.213501
0.372424
0.454585
0.516268
0.577271
0.635249
0.687589
0.733998
0.775317
0.812372
0.845293
0.873767
0.897325
0.915509
0.927927
0.934282
0.934395
0.928196
0.915677
0.896991
0.872292
0.841682
0.805156
0.762538
0.71319
0.655588
0.586849
0.501191
0.383048
0.180566
0.202833
0.347278
0.45098
0.536282
0.613282
0.682927
0.744487
0.798278
0.84541
0.887375
0.924699
0.95721
0.984447
1.00592
1.02116
1.02978
1.03148
1.02609
1.01346
0.993658
0.966762
0.932776
0.891588
0.842997
0.786561
0.721131
0.644017
0.549322
0.420689
0.199385
0.175809
0.31058
0.456341
0.566504
0.660928
0.743213
0.815039
0.877109
0.930556
0.977965
1.02032
1.0575
1.089
1.11428
1.13282
1.14412
1.14777
1.14349
1.13104
1.1103
1.08122
1.04372
0.997525
0.942294
0.877578
0.80256
0.715028
0.609103
0.467164
0.222426
0.158504
0.31098
0.481583
0.614714
0.725058
0.8198
0.902159
0.972841
1.03271
1.08614
1.13433
1.17701
1.21356
1.24334
1.26576
1.28025
1.28629
1.28358
1.27179
1.25052
1.21951
1.17849
1.127
1.06446
0.990243
0.903619
0.802776
0.682002
0.522227
0.248249
0.16115
0.343303
0.539466
0.68893
0.811635
0.917027
1.00909
1.08754
1.15355
1.2138
1.26886
1.31814
1.36076
1.39596
1.42307
1.44137
1.45027
1.44969
1.43939
1.41855
1.38644
1.34232
1.28545
1.21495
1.1298
1.02916
0.911371
0.770826
0.586985
0.276575
0.181802
0.423645
0.631553
0.792132
0.924739
1.03891
1.13903
1.22266
1.29459
1.36264
1.42568
1.48278
1.5328
1.57463
1.6074
1.62996
1.64205
1.64434
1.63694
1.61847
1.58722
1.54157
1.48011
1.4014
1.30383
1.18619
1.04689
0.880343
0.664418
0.308394
0.232657
0.531786
0.754102
0.925073
1.06654
1.18831
1.29496
1.38057
1.45782
1.53409
1.60581
1.672
1.73056
1.78051
1.81958
1.84569
1.86075
1.86737
1.86568
1.85319
1.82668
1.78319
1.71994
1.63424
1.52328
1.38517
1.21857
1.01828
0.760251
0.34571
0.296421
0.662404
0.907807
1.08854
1.23723
1.36538
1.47822
1.56532
1.64546
1.72919
1.80943
1.88554
1.95377
2.01262
2.05635
2.08291
2.1009
2.11597
2.12554
2.12473
2.1092
2.07447
2.01578
1.92749
1.80373
1.64118
1.4397
1.19576
0.883381
0.391961
0.366836
0.825363
1.09523
1.2808
1.43287
1.56572
1.68677
1.77913
1.85813
1.94753
2.03535
2.12171
2.2018
2.26653
2.30858
2.33564
2.36305
2.39414
2.42157
2.4388
2.44116
2.42424
2.38106
2.30013
2.1673
1.97492
1.72757
1.42669
1.0448
0.453369
0.47034
1.03027
1.31684
1.49471
1.64393
1.78009
1.91011
2.01554
2.0937
2.18548
2.28052
2.37938
2.4722
2.54051
2.5789
2.6133
2.66236
2.71836
2.7682
2.80711
2.83247
2.84245
2.8309
2.77636
2.64267
2.41079
2.10075
1.72463
1.25437
0.536038
0.589039
1.27487
1.53275
1.70642
1.85277
1.99806
2.14108
2.26238
2.34454
2.43628
2.54107
2.65799
2.76255
2.83556
2.87929
2.93779
3.01777
3.09949
3.17331
3.2359
3.2874
3.33251
3.36985
3.36968
3.24968
2.96576
2.56968
2.09569
1.51648
0.642627
0.671834
1.4196
1.66607
1.84752
2.02691
2.19995
2.36936
2.51129
2.60058
2.69374
2.81534
2.95625
3.07524
3.15357
3.22261
3.32196
3.43288
3.5399
3.63603
3.71954
3.79394
3.87369