/*--------------------------------*- C++ -*----------------------------------*\
| =========                 |                                                 |
| \\      /  F ield         | OpenFOAM: The Open Source CFD Toolbox           |
|  \\    /   O peration     | Version:  v1606+                                |
|   \\  /    A nd           | Web:      www.OpenFOAM.com                      |
|    \\/     M anipulation  |                                                 |
\*---------------------------------------------------------------------------*/
FoamFile
{
    version     2.0;
    format      ascii;
    class       volScalarField;
    location    "1.65";
    object      nut.air;
}
// * * * * * * * * * * * * * * * * * * * * * * * * * * * * * * * * * * * * * //

dimensions      [0 2 -1 0 0 0 0];

internalField   nonuniform List<scalar> 
6000
(
0.000529164
0.00490173
0.0077872
0.00847105
0.00868769
0.00877301
0.00880593
0.00882437
0.0088507
0.00888435
0.00889579
0.00889891
0.00889634
0.00889506
0.00889603
0.00889843
0.0089019
0.0089022
0.0088891
0.00887566
0.00886693
0.00886081
0.0088489
0.00882492
0.00877796
0.00868789
0.00847507
0.00778222
0.00483445
0.000527797
0.000451352
0.00314074
0.00601452
0.00773401
0.00856151
0.00895576
0.00914264
0.00925242
0.00934839
0.00944717
0.009508
0.00951942
0.00953177
0.00952689
0.00952579
0.00955272
0.00957379
0.00955171
0.00951051
0.00950002
0.00948724
0.00944091
0.00935293
0.009203
0.0089598
0.00853695
0.007729
0.00607148
0.00322422
0.00043839
0.000385989
0.00253662
0.00514512
0.0070226
0.00815327
0.00879648
0.00915572
0.00934617
0.0094719
0.00957683
0.0096772
0.00974004
0.0097717
0.00977881
0.00978001
0.00978939
0.00979382
0.00977795
0.00977482
0.00981107
0.00983154
0.00974973
0.0095549
0.00923843
0.00878158
0.00813558
0.00708645
0.00531436
0.00270828
0.000379052
0.000344361
0.00216948
0.00449685
0.0064387
0.00778473
0.00873092
0.0093714
0.00971292
0.00984711
0.00994197
0.0100158
0.0100888
0.0101391
0.0101697
0.0101839
0.0101865
0.0101793
0.0101988
0.0102804
0.0103887
0.0104274
0.0101869
0.00976018
0.00923296
0.00856289
0.00766691
0.00644098
0.0047065
0.00244927
0.000343497
0.000306301
0.00194459
0.00405937
0.00593021
0.00746549
0.00865382
0.00955312
0.0101879
0.0104764
0.0105566
0.010607
0.0106639
0.0107351
0.0107837
0.0108048
0.0108099
0.0108186
0.0108678
0.0109357
0.0110457
0.0110204
0.0106036
0.00999314
0.0092757
0.00838314
0.00726312
0.00589726
0.00421589
0.00218048
0.000313795
0.000277477
0.00185599
0.0038639
0.00569394
0.0073058
0.00868601
0.00979227
0.0106994
0.0112953
0.0113775
0.011381
0.0114582
0.0115535
0.0116198
0.0116442
0.0116406
0.0116318
0.0116398
0.0116771
0.0117943
0.0116738
0.0111857
0.0104742
0.00959289
0.00849232
0.00714711
0.005575
0.00382851
0.00192182
0.000284742
0.000260671
0.00186981
0.00392976
0.00585288
0.0075313
0.00900956
0.010264
0.0113227
0.0121413
0.0124448
0.0124283
0.0124368
0.0124916
0.0125447
0.012558
0.0125451
0.0125286
0.012518
0.0125289
0.0125972
0.0123389
0.0118811
0.0111713
0.010252
0.00902579
0.00747518
0.00566179
0.00376827
0.00182925
0.000260628
0.000253861
0.00193571
0.00423515
0.00637913
0.00816015
0.00961881
0.0108805
0.0119868
0.0128083
0.0133575
0.0135871
0.0136523
0.0136359
0.013593
0.0135697
0.0135409
0.0135095
0.0134832
0.0134897
0.0134319
0.0130424
0.0125488
0.0117315
0.0107062
0.00944726
0.00787784
0.00602346
0.00404345
0.00199016
0.000265353
0.000267817
0.00229541
0.00491162
0.00703835
0.00868523
0.0100852
0.0113323
0.0124474
0.0132725
0.0138277
0.0142848
0.014612
0.0147842
0.0147878
0.014722
0.0146709
0.0146414
0.0146197
0.01457
0.0141944
0.0136715
0.013041
0.0120772
0.0109368
0.00958263
0.00794432
0.00606828
0.00408812
0.0020323
0.000285781
0.00030131
0.00262837
0.00524531
0.00732333
0.00897465
0.0103705
0.0115906
0.0126547
0.0134968
0.0140814
0.0145019
0.0149811
0.0153942
0.0156857
0.0158426
0.0159076
0.0159254
0.015859
0.0155863
0.0148757
0.0141951
0.0133778
0.0123685
0.0111938
0.00979641
0.00812568
0.00614587
0.00403341
0.00190908
0.000280407
0.000300531
0.00280235
0.0053998
0.00747326
0.00913867
0.0105373
0.0117415
0.0127977
0.0136165
0.0142054
0.0146234
0.0150864
0.015544
0.0160492
0.0164748
0.0167246
0.0168144
0.0166978
0.0162531
0.0155249
0.01472
0.0138602
0.0128007
0.0116205
0.0102399
0.00857275
0.00657818
0.00428254
0.00182889
0.000259803
0.000299124
0.00285705
0.00549237
0.00758095
0.00925102
0.010654
0.0118938
0.0129575
0.01379
0.0143905
0.014823
0.0152678
0.0156997
0.0161914
0.0166605
0.0169868
0.017126
0.0170281
0.0166579
0.0160685
0.0153448
0.0144544
0.0134329
0.0122527
0.0108832
0.00924191
0.00724448
0.00486525
0.00216074
0.000255013
0.000300782
0.00287127
0.00552723
0.00764271
0.00935013
0.0108033
0.0120744
0.0131503
0.0140098
0.0146416
0.0150907
0.0155044
0.0158984
0.0163285
0.0167305
0.0170122
0.0171598
0.0171086
0.0168526
0.0164584
0.0159568
0.0152677
0.0142465
0.0129894
0.011585
0.00994586
0.00796925
0.0055858
0.00277566
0.000279979
0.00030366
0.002897
0.00559245
0.00775524
0.00951742
0.0110184
0.012308
0.0133753
0.0142366
0.014908
0.015386
0.0157493
0.01612
0.0164613
0.0168031
0.0170573
0.0172017
0.017201
0.0170408
0.0167589
0.0164241
0.0159334
0.0150326
0.0137509
0.0122756
0.0105972
0.00859047
0.00614103
0.00315616
0.000309874
0.000310059
0.00296802
0.00572909
0.00796262
0.00978618
0.0113107
0.0125894
0.0136475
0.0144918
0.0151692
0.0156849
0.0160287
0.016346
0.0166363
0.016912
0.0171479
0.017287
0.0173262
0.0172453
0.0170584
0.0168243
0.0164691
0.0157032
0.0144315
0.012893
0.0111606
0.00910113
0.00655268
0.00338975
0.000329687
0.000319803
0.00307042
0.00591619
0.00822094
0.0100963
0.0116472
0.0129313
0.0139712
0.0147934
0.0154272
0.015935
0.0163234
0.0165905
0.0168392
0.0170649
0.0172747
0.0174082
0.0174826
0.0174839
0.0173944
0.0171942
0.0168821
0.0161951
0.0149512
0.0133985
0.0116312
0.00951327
0.0068632
0.00355882
0.000352893
0.000333938
0.00318783
0.00613828
0.00851488
0.0104345
0.0120074
0.0133032
0.0143574
0.0151742
0.0157619
0.0162
0.0165701
0.0168627
0.0170871
0.0172684
0.0174303
0.0175484
0.0176243
0.0176528
0.0176205
0.0174573
0.0171686
0.0165038
0.0153102
0.0137912
0.0120047
0.00983571
0.00711035
0.00372528
0.000367771
0.000350391
0.00332692
0.0063962
0.00885627
0.0108287
0.0124303
0.0137407
0.014801
0.0156275
0.0162155
0.0165889
0.0168902
0.0171806
0.0174073
0.0175623
0.017675
0.0177625
0.0177856
0.0177834
0.0177434
0.0175992
0.0173416
0.016722
0.0155968
0.0141032
0.0122801
0.0100241
0.0071431
0.00366905
0.000375956
0.000368119
0.00348663
0.00670074
0.00926916
0.0113144
0.0129563
0.014291
0.0153548
0.0161732
0.0167774
0.0171892
0.0174543
0.0177134
0.0179424
0.0181151
0.0182026
0.0181803
0.0180927
0.0180158
0.0179248
0.0177915
0.0175496
0.0169917
0.0159127
0.0143987
0.0125
0.0100783
0.00708744
0.00359646
0.000377433
0.000386406
0.00365831
0.00705143
0.00976517
0.011921
0.0136307
0.0150008
0.0160545
0.0168574
0.0174642
0.0179113
0.0182631
0.0185718
0.0188723
0.0191157
0.0192033
0.0190879
0.0188505
0.0186069
0.0184284
0.0182916
0.0180136
0.0174833
0.0164129
0.0147983
0.0127392
0.0101609
0.00712427
0.00358789
0.000377757
0.000405006
0.00382452
0.00742892
0.0103397
0.0126542
0.0144595
0.015869
0.016917
0.0176907
0.0182643
0.0187216
0.0191271
0.019534
0.0199682
0.0202702
0.0203239
0.0201613
0.0198777
0.019586
0.0193409
0.0191461
0.0188186
0.0181604
0.0169946
0.015306
0.013093
0.0104329
0.00728707
0.0036117
0.000378714
0.000421125
0.00395417
0.0077939
0.0109548
0.0133966
0.0153105
0.0167527
0.0178586
0.0186363
0.0191666
0.0195863
0.0199478
0.0203251
0.0207404
0.0209412
0.0209567
0.0208335
0.0206101
0.0203402
0.0201001
0.019845
0.0193814
0.0185137
0.0172529
0.0156032
0.0134649
0.0107879
0.00754068
0.00373512
0.000384034
0.000436053
0.00404514
0.00807068
0.0114224
0.0139774
0.0159109
0.0173959
0.0186165
0.0195238
0.020107
0.0204568
0.0206872
0.0209377
0.0211241
0.0211998
0.0211814
0.0210654
0.0208744
0.0206178
0.0203481
0.0199844
0.0194351
0.0185214
0.0172894
0.0156983
0.0136443
0.0110206
0.00776949
0.00387853
0.000394001
0.000449221
0.00428308
0.00838536
0.0117302
0.0143235
0.016271
0.0177898
0.0190217
0.0200709
0.0208666
0.0212643
0.0213691
0.0214016
0.0213937
0.0213572
0.0212813
0.0211308
0.0209052
0.0206146
0.0202961
0.019923
0.0193384
0.0184408
0.017243
0.0156945
0.0136898
0.011122
0.00790344
0.00398497
0.000402851
0.000464706
0.00444586
0.00861542
0.0119572
0.0145565
0.0165341
0.0180426
0.0192273
0.0202526
0.0211241
0.021648
0.0217994
0.0217641
0.0216637
0.0215298
0.0213675
0.0211788
0.0209174
0.0206012
0.0202458
0.0198516
0.0192308
0.0183335
0.0171609
0.0156395
0.0136627
0.0111378
0.00795178
0.0040411
0.000409366
0.000470838
0.00453751
0.00875888
0.0121217
0.0147317
0.0167203
0.0182095
0.0193481
0.0202582
0.0210267
0.0216153
0.0219446
0.0220093
0.0219059
0.0217255
0.0214963
0.0212577
0.0209655
0.020634
0.0202501
0.0197986
0.0191266
0.0182406
0.0170915
0.0155748
0.0136115
0.0111085
0.00794751
0.00405711
0.000414122
0.000475135
0.00462305
0.00890606
0.012292
0.0148971
0.0168725
0.0183262
0.0194125
0.0202218
0.0208767
0.0214806
0.0219539
0.0221599
0.0221159
0.0219382
0.0216972
0.0213909
0.0210735
0.0207042
0.0202898
0.019757
0.019077
0.018216
0.017058
0.0155292
0.0135618
0.011068
0.00792367
0.00405953
0.00041808
0.000480343
0.00470748
0.00906313
0.0124874
0.0151021
0.0170639
0.0184712
0.0194829
0.0202007
0.0207851
0.0213655
0.0219132
0.0222462
0.022299
0.0221594
0.0219169
0.0216039
0.0212269
0.020815
0.0203452
0.0198004
0.0191488
0.018272
0.0170789
0.0155202
0.0135361
0.011033
0.00790225
0.00406274
0.000422374
0.000486432
0.00479607
0.00924298
0.0127316
0.0153867
0.0173607
0.0187457
0.0196533
0.0202795
0.0208284
0.0213682
0.0219019
0.0223082
0.0224626
0.0223938
0.0221588
0.0218076
0.0214005
0.0209703
0.0205209
0.0200125
0.0193398
0.0184084
0.0171648
0.0155655
0.0135486
0.0110315
0.00790344
0.00407697
0.000427771
0.000493642
0.00489636
0.00945938
0.0130482
0.0157849
0.0178144
0.0192455
0.0200607
0.0205686
0.0210449
0.0215495
0.0220366
0.0224391
0.0226579
0.0226284
0.0223984
0.022053
0.0216864
0.0213064
0.0208992
0.0203861
0.0196596
0.0186517
0.0173367
0.0156802
0.0136245
0.011083
0.00794301
0.00410978
0.000434718
0.000501659
0.00500067
0.00972431
0.0134623
0.0163361
0.0184606
0.0199972
0.0208993
0.021313
0.0216407
0.0220377
0.0224131
0.0227606
0.0229643
0.0229665
0.0228321
0.0225909
0.0223016
0.0219671
0.0215343
0.0209254
0.0200806
0.0189769
0.017587
0.0158711
0.0137701
0.0111956
0.00802895
0.0041656
0.000443406
0.000512359
0.00507774
0.010065
0.0139944
0.0169629
0.0191767
0.0208847
0.0219993
0.0224972
0.0226972
0.0229609
0.0231989
0.0234108
0.0236035
0.0237431
0.023709
0.0235222
0.0232256
0.0228128
0.0222664
0.0215371
0.0205882
0.0193928
0.0179224
0.0161385
0.0139829
0.0113663
0.00815987
0.0042446
0.00045376
0.000531136
0.00519773
0.0104645
0.0145151
0.017511
0.0198764
0.0217844
0.023151
0.0238491
0.0240349
0.0242224
0.0243792
0.0245631
0.0247754
0.0249372
0.0249177
0.0247128
0.0243442
0.0238184
0.0231352
0.0222752
0.021211
0.0199126
0.0183492
0.0164822
0.0142553
0.0115831
0.00832584
0.00434204
0.000465233
0.000555649
0.00538096
0.0106545
0.0147408
0.0178356
0.0203362
0.0223854
0.0239644
0.0250057
0.0254937
0.025678
0.0258287
0.0259961
0.0261864
0.0263271
0.0263004
0.0260626
0.0256131
0.0249759
0.0241627
0.0231689
0.0219765
0.0205574
0.0188791
0.0169033
0.0145769
0.0118255
0.00850644
0.00444364
0.000476815
0.00056111
0.0054451
0.0106218
0.0147668
0.0180287
0.0206846
0.0228625
0.024579
0.02585
0.0267176
0.0271271
0.0273292
0.0274948
0.0276816
0.0278271
0.0278058
0.0275422
0.0270202
0.0262808
0.0253508
0.0242289
0.0229012
0.0213432
0.0195234
0.0174037
0.0149357
0.0120631
0.00866343
0.00450887
0.000488244
0.000554715
0.00530623
0.0104097
0.0146894
0.0181732
0.0210292
0.0233851
0.0252668
0.026674
0.0277085
0.0284386
0.0287922
0.0290073
0.0292594
0.0294172
0.0293836
0.0290814
0.0285081
0.027707
0.0266937
0.0254544
0.0239847
0.0222693
0.0202822
0.017983
0.0153234
0.0122645
0.00872686
0.00444549
0.000498596
0.000540968
0.00501126
0.0100892
0.0145608
0.0183233
0.0214133
0.0239666
0.0260526
0.0276457
0.0287894
0.0296684
0.0303124
0.0306409
0.0309418
0.0310504
0.0309226
0.0305368
0.0299561
0.0291925
0.028169
0.0268401
0.0252105
0.0233129
0.0211333
0.0186271
0.0157273
0.0123756
0.00855025
0.00422751
0.000512433
0.000536571
0.00488788
0.00989578
0.0145381
0.0185548
0.0218733
0.0246211
0.026912
0.0287687
0.0301615
0.0312059
0.0321158
0.032572
0.0327428
0.0326564
0.0323664
0.031918
0.0313483
0.0306317
0.0296792
0.0283472
0.0265494
0.0244456
0.02204
0.0193001
0.0161368
0.0124504
0.00842246
0.00421317
0.000524768
0.000541261
0.0050001
0.0100458
0.014778
0.018932
0.0223924
0.0252969
0.0277931
0.0299381
0.0317093
0.0331028
0.0340883
0.0345574
0.0343983
0.0340624
0.0336091
0.0330747
0.0324579
0.0317327
0.030876
0.0296643
0.0278528
0.0256088
0.0229578
0.019964
0.0165399
0.0125634
0.00841403
0.00430968
0.000532243
0.000546627
0.00526545
0.0104751
0.015257
0.0194223
0.0229196
0.0259029
0.0285571
0.0309662
0.0330572
0.0345855
0.0352743
0.0355479
0.0353351
0.0348799
0.0343265
0.0336962
0.0329885
0.0322009
0.0313468
0.0302997
0.0287788
0.0266212
0.0238078
0.0205779
0.0169286
0.012726
0.00842569
0.00435589
0.000535918
0.000558068
0.00534621
0.0108586
0.0157737
0.0199538
0.0234133
0.0263409
0.0290382
0.0315658
0.0336728
0.0349834
0.0354119
0.0355536
0.0354129
0.0349939
0.0344185
0.0337423
0.0329813
0.032147
0.0312603
0.0302809
0.029015
0.0270837
0.0243767
0.0210864
0.0172853
0.0128772
0.00843075
0.00438101
0.000542567
0.000558203
0.00529224
0.0111828
0.0163456
0.0205463
0.0238143
0.0265283
0.0290988
0.0315452
0.0335093
0.0346694
0.0350376
0.0351764
0.0350603
0.0346971
0.0341532
0.0334933
0.0327555
0.0319407
0.0310619
0.0300979
0.028917
0.0271529
0.0246855
0.0214953
0.0176472
0.0130587
0.00843379
0.00439864
0.000548955
0.000561047
0.0053091
0.0116354
0.0170441
0.0210838
0.0240202
0.026375
0.0287687
0.0311041
0.0329656
0.0340802
0.0344743
0.0346239
0.0345301
0.0342111
0.0337395
0.0331571
0.0324852
0.0317295
0.0308987
0.0299728
0.0288118
0.0271282
0.0248742
0.0218961
0.0181128
0.0134174
0.0084769
0.00437634
0.000551863
0.000573942
0.00545158
0.0121443
0.0173652
0.0210559
0.0238441
0.0261841
0.0283839
0.0306634
0.0324848
0.033473
0.0338908
0.0340665
0.0340076
0.033761
0.0333871
0.0329029
0.0323145
0.0316361
0.0308804
0.0300131
0.0288622
0.0272373
0.0250708
0.02238
0.0187913
0.0139253
0.00859689
0.00437422
0.000556281
0.000597057
0.00570037
0.0122312
0.0170756
0.020589
0.023472
0.0259756
0.0283615
0.0306135
0.0322909
0.0330693
0.0334881
0.0336512
0.0336431
0.0334798
0.0332141
0.0328486
0.0323606
0.0317529
0.0310439
0.0301622
0.0289869
0.0273707
0.0252658
0.0227655
0.0194738
0.0145781
0.009058
0.00450805
0.00056722
0.000626686
0.00582937
0.0119437
0.0165139
0.0200508
0.0230513
0.0257071
0.0281864
0.030415
0.0320306
0.0327999
0.0331837
0.0334202
0.0334847
0.0334195
0.0332443
0.0329608
0.0325413
0.0319714
0.0311843
0.0301541
0.0288119
0.0270582
0.0249346
0.0225245
0.0195887
0.0154513
0.0102401
0.0048817
0.000579711
0.000643258
0.00588178
0.0116494
0.0160273
0.0195875
0.0226523
0.0254048
0.0278847
0.029974
0.0314604
0.0323459
0.0328574
0.0331817
0.0333562
0.0333904
0.0332664
0.0329882
0.0325404
0.0318978
0.0309994
0.0298057
0.0282993
0.0265149
0.0244609
0.022146
0.0194689
0.016046
0.0112054
0.00523486
0.000586034
0.0006484
0.00596007
0.0114523
0.0156939
0.0192406
0.0223581
0.025155
0.0275807
0.0294805
0.0307613
0.0316195
0.0322756
0.0327378
0.0330212
0.0331183
0.0330185
0.0327122
0.0321943
0.0314539
0.0304714
0.0292315
0.0277525
0.0260415
0.0240906
0.0218819
0.0193589
0.0162653
0.0117688
0.0056324
0.000594876
0.000645411
0.00595862
0.0113024
0.0154787
0.019031
0.0222015
0.0250079
0.0273376
0.0290301
0.0301362
0.0309538
0.0316442
0.0321546
0.0324756
0.0325933
0.0324967
0.0321753
0.031635
0.0308755
0.0298959
0.0286963
0.0272847
0.0256602
0.0238063
0.0216898
0.0192683
0.0162882
0.0120124
0.00598424
0.000602883
0.000639713
0.00588666
0.0111769
0.015375
0.0189843
0.0222034
0.0249758
0.027153
0.0286299
0.0296105
0.0303868
0.0310434
0.0315421
0.0318603
0.0319794
0.0318868
0.0315748
0.0310473
0.0303098
0.0293684
0.0282281
0.0268903
0.0253457
0.0235665
0.0215292
0.0191722
0.0162206
0.012033
0.00611418
0.000601301
0.000630688
0.00579342
0.0111027
0.0154015
0.0191167
0.0223581
0.025031
0.0269864
0.0282603
0.0291591
0.029892
0.030497
0.0309586
0.0312545
0.0313652
0.0312765
0.0309811
0.0304809
0.0297825
0.0288929
0.0278157
0.0265472
0.0250726
0.0233583
0.0213871
0.0190797
0.0161035
0.0118128
0.00581301
0.000597501
0.000622127
0.00574315
0.011125
0.0155666
0.0194101
0.0226217
0.0251041
0.0267948
0.0279152
0.0287588
0.0294439
0.0299976
0.0304154
0.0306814
0.0307779
0.0306908
0.0304132
0.0299459
0.0292925
0.0284578
0.0274423
0.0262382
0.0248268
0.0231766
0.021266
0.0190047
0.016004
0.0115866
0.00552269
0.000591559
0.000612462
0.00577063
0.0112707
0.0158725
0.0198025
0.0229107
0.0251237
0.0265773
0.0275956
0.0283898
0.029028
0.0295339
0.029909
0.0301438
0.0302241
0.0301372
0.0298773
0.0294428
0.0288342
0.0280528
0.0270958
0.0259523
0.0246002
0.0230136
0.0211669
0.0189572
0.015951
0.0114975
0.00557718
0.000582995
0.000600652
0.00584018
0.0114974
0.0162755
0.0202234
0.0231315
0.0250671
0.0263502
0.0272945
0.0280385
0.028632
0.029095
0.029432
0.0296384
0.0297032
0.0296165
0.0293729
0.0289687
0.0284019
0.0276701
0.0267675
0.0256811
0.0243871
0.022864
0.0210849
0.0189337
0.0159197
0.0114342
0.00563708
0.00058094
0.00059026
0.0059101
0.0117447
0.0166954
0.0205717
0.0232377
0.0249561
0.0261208
0.0269986
0.0276937
0.0282463
0.0286719
0.0289771
0.0291594
0.029211
0.0291251
0.0288959
0.0285186
0.0279894
0.027303
0.026451
0.0254183
0.0241817
0.02272
0.021008
0.0189116
0.0158871
0.0113482
0.0056074
0.000577901
0.000581694
0.00594207
0.0119341
0.0170105
0.0207631
0.0232342
0.0248036
0.0258779
0.0266946
0.0273466
0.0278642
0.0282592
0.0285387
0.0287014
0.0287426
0.0286577
0.028441
0.0280874
0.0275918
0.0269467
0.0261412
0.0251587
0.0239764
0.0225737
0.020928
0.0188829
0.0158536
0.0112616
0.00555271
0.000576067
0.000574892
0.00592722
0.012017
0.0171558
0.0208032
0.0231441
0.0246099
0.0256087
0.0263758
0.0269929
0.0274829
0.0278543
0.0281132
0.02826
0.0282927
0.0282089
0.028003
0.0276699
0.0272041
0.0265961
0.0258332
0.024897
0.0237646
0.022418
0.0208339
0.0188428
0.0158381
0.0112355
0.00552809
0.000577974
0.000568878
0.00588153
0.0119849
0.0171152
0.0207211
0.0230022
0.0243896
0.025318
0.0260439
0.0266341
0.0271027
0.0274556
0.0276975
0.0278311
0.0278567
0.0277735
0.0275767
0.0272618
0.026822
0.0262469
0.0255218
0.0246272
0.0235395
0.0222441
0.0207159
0.0187859
0.0158518
0.0113281
0.00562681
0.00057225
0.000562374
0.00583117
0.0118893
0.0169694
0.0205859
0.0228404
0.0241493
0.0250164
0.0257069
0.0262747
0.0267247
0.0270614
0.0272886
0.0274108
0.0274302
0.0273471
0.027158
0.0268585
0.0264414
0.025895
0.0252031
0.0243446
0.0232958
0.0220443
0.0205625
0.0186947
0.0158593
0.011469
0.00573569
0.000549051
0.000557614
0.00581129
0.0118228
0.0168423
0.0204392
0.0226515
0.0238901
0.0247117
0.0253713
0.025917
0.0263484
0.0266689
0.0268826
0.0269948
0.0270084
0.0269253
0.0267427
0.0264564
0.0260586
0.025537
0.0248737
0.0240465
0.0230308
0.0218133
0.020363
0.0185399
0.0157883
0.0114775
0.00567361
0.000526789
0.000557889
0.00581748
0.0118158
0.0167828
0.0202973
0.0224346
0.0236133
0.0244045
0.025036
0.0255579
0.0259693
0.0262732
0.0264745
0.0265779
0.0265866
0.0265031
0.0263264
0.0260517
0.0256708
0.0251708
0.0245328
0.0237331
0.0227457
0.0215536
0.0201181
0.0183043
0.0156062
0.0113663
0.00549112
0.000514004
0.000561507
0.00584519
0.0118532
0.0167833
0.0201479
0.0221747
0.0233103
0.024083
0.0246892
0.025187
0.0255788
0.0258673
0.026058
0.0261543
0.0261592
0.0260763
0.0259053
0.0256413
0.0252759
0.0247956
0.0241808
0.0234068
0.0224456
0.0212763
0.0198503
0.018027
0.0153607
0.0111816
0.00532582
0.000499942
0.000565554
0.00586045
0.0118676
0.0167501
0.0199423
0.0218579
0.0229679
0.0237275
0.0243129
0.0247906
0.0251668
0.0254433
0.025626
0.0257175
0.0257209
0.02564
0.0254755
0.0252223
0.0248719
0.0244104
0.0238179
0.0230692
0.0221356
0.0209939
0.0195871
0.0177529
0.0150818
0.0109529
0.00524623
0.000494144
0.000566565
0.00585547
0.0118165
0.0166006
0.019643
0.0214762
0.0225711
0.0233208
0.023893
0.0243584
0.0247252
0.0249947
0.0251728
0.025262
0.0252667
0.0251903
0.0250334
0.0247914
0.024456
0.0240128
0.0234424
0.0227196
0.0218166
0.0207102
0.0193388
0.0175124
0.0148299
0.0107377
0.00524539
0.000496844
0.000548148
0.00582465
0.0117056
0.0163237
0.0192421
0.0210252
0.0221149
0.022861
0.0234285
0.0238888
0.0242513
0.024519
0.0246958
0.0247851
0.0247936
0.024724
0.024576
0.024346
0.0240251
0.0235998
0.0230507
0.0223535
0.0214831
0.0204174
0.0190915
0.0172827
0.0145729
0.010476
0.00514558
0.000488032
0.000530443
0.00573069
0.0114944
0.0159166
0.0187459
0.0205149
0.0216143
0.0223617
0.0229307
0.0233907
0.0237517
0.0240192
0.0241966
0.024288
0.0243014
0.0242399
0.0241019
0.0238837
0.0235766
0.0231675
0.0226378
0.0219647
0.0211266
0.0201042
0.0188253
0.0170282
0.0142871
0.0102078
0.00502816
0.000480324
0.00052141
0.00557302
0.0111673
0.0153979
0.0181965
0.019994
0.0211038
0.0218451
0.0224167
0.0228781
0.0232376
0.0235032
0.0236803
0.0237744
0.0237932
0.0237399
0.0236122
0.0234051
0.02311
0.0227146
0.0222018
0.0215505
0.0207431
0.0197627
0.0185256
0.016739
0.013952
0.00989743
0.00489019
0.000471778
0.000511411
0.00538981
0.0107114
0.014775
0.0176272
0.0194881
0.0205932
0.0213269
0.021902
0.0223628
0.0227176
0.0229783
0.0231535
0.0232501
0.0232743
0.0232286
0.0231102
0.0229132
0.0226288
0.0222453
0.0217476
0.0211168
0.0203377
0.0193924
0.0181811
0.0163901
0.0135877
0.00963341
0.00478982
0.000456922
0.000498457
0.00518539
0.0102465
0.0141992
0.017088
0.0189827
0.0200761
0.0208138
0.021393
0.0218476
0.022194
0.0224483
0.0226215
0.0227204
0.0227496
0.0227108
0.0226008
0.0224134
0.0221394
0.0217679
0.0212853
0.0206748
0.0199197
0.018996
0.0177963
0.0159959
0.0132193
0.00938221
0.00467581
0.00044034
0.000483728
0.0050128
0.00989595
0.0137342
0.0165791
0.0184702
0.0195531
0.0203005
0.0208801
0.0213243
0.0216621
0.0219114
0.022084
0.0221857
0.0222202
0.0221882
0.0220865
0.0219085
0.0216457
0.0212878
0.0208219
0.0202317
0.0194968
0.0185854
0.017383
0.0155863
0.0128656
0.00913267
0.00455023
0.000426782
0.000469424
0.00487289
0.00960365
0.0133332
0.016098
0.0179251
0.0190151
0.0197718
0.0203477
0.0207826
0.0211157
0.021365
0.0215395
0.0216449
0.021685
0.0216598
0.0215661
0.0213977
0.0211469
0.0208035
0.0203546
0.0197831
0.0190663
0.0181618
0.0169547
0.015177
0.0125214
0.00889442
0.00443055
0.000417824
0.000458328
0.00475283
0.00934928
0.0129719
0.0156157
0.0173481
0.0184527
0.0192149
0.0197869
0.0202208
0.0205568
0.0208108
0.0209889
0.0210982
0.0211432
0.021124
0.0210376
0.0208782
0.0206385
0.0203085
0.0198754
0.0193194
0.0186157
0.0177198
0.0165122
0.0147458
0.0121641
0.00867037
0.00432906
0.000411119
0.000452132
0.00464641
0.00911839
0.0125918
0.015089
0.0167562
0.0178621
0.0186305
0.0192121
0.0196516
0.0199908
0.0202505
0.0204323
0.0205445
0.020593
0.020578
0.0204969
0.0203441
0.0201121
0.0197915
0.0193707
0.0188272
0.0181388
0.0172519
0.0160425
0.0142753
0.0117555
0.0084078
0.00421855
0.000403904
0.000446773
0.00453692
0.0088412
0.0121201
0.0144762
0.0161071
0.0172231
0.0180229
0.0186297
0.019087
0.0194306
0.0196895
0.019872
0.019984
0.0200328
0.0200187
0.0199392
0.019789
0.0195605
0.019244
0.0188325
0.0183056
0.0176297
0.0167425
0.0155317
0.0137835
0.0113353
0.00811801
0.00408642
0.000394322
0.000437398
0.00434356
0.00840648
0.0115044
0.0137784
0.0154021
0.0165618
0.0174154
0.0180579
0.0185376
0.0188864
0.0191371
0.0193099
0.0194182
0.0194632
0.0194457
0.0193627
0.0192099
0.0189812
0.0186706
0.0182683
0.0177506
0.0170781
0.0161916
0.0149803
0.0132837
0.0109347
0.00784451
0.00395699
0.000384012
0.000419031
0.00407832
0.0078907
0.0108506
0.0130764
0.0147269
0.0159488
0.0168607
0.0175341
0.0180215
0.0183607
0.0185935
0.0187543
0.0188533
0.0188909
0.0188658
0.0187758
0.0186176
0.018387
0.018079
0.0176777
0.0171617
0.0164922
0.0156045
0.014397
0.0127496
0.0105208
0.00757238
0.00383238
0.000374157
0.000395044
0.00381903
0.007432
0.0103068
0.0125179
0.0141903
0.0154511
0.0163979
0.0170872
0.0175643
0.0178697
0.0180741
0.0182178
0.0183028
0.0183268
0.0182888
0.0181877
0.0180215
0.017786
0.0174769
0.0170816
0.016573
0.0159035
0.0150034
0.0137903
0.0121749
0.010052
0.00725287
0.00368565
0.000365894
0.000371864
0.00364647
0.00715281
0.00996729
0.0121525
0.0138179
0.0150733
0.0160255
0.016715
0.0171819
0.0174583
0.0176208
0.0177304
0.0177843
0.0177813
0.0177216
0.0176059
0.0174338
0.0172008
0.0169002
0.016515
0.0160104
0.0153311
0.0144111
0.0131855
0.0115877
0.00953357
0.0068784
0.00351268
0.000357257
0.000358022
0.00356274
0.00703938
0.00982114
0.0119571
0.0135603
0.0147482
0.0156608
0.0163486
0.0168249
0.0171129
0.0172527
0.0173144
0.0173202
0.0172773
0.0171899
0.0170605
0.0168881
0.0166637
0.0163711
0.0159834
0.015463
0.0147632
0.013829
0.0126026
0.011021
0.00901269
0.00647812
0.00332248
0.000344156
0.000353905
0.0035757
0.00705495
0.00977914
0.0118103
0.0132779
0.0143408
0.0152281
0.0159248
0.0164135
0.0167239
0.0168834
0.0169302
0.0168976
0.0168204
0.0167123
0.0165751
0.0164012
0.0161739
0.0158691
0.0154581
0.0149111
0.0141933
0.0132561
0.012042
0.0104887
0.00852615
0.00608126
0.00310268
0.000329513
0.000355733
0.00362142
0.00706807
0.00965962
0.0115273
0.0128849
0.0138467
0.014645
0.0153679
0.0158919
0.0162284
0.0164112
0.0164805
0.0164604
0.016383
0.0162709
0.0161267
0.0159397
0.015692
0.015362
0.0149256
0.0143578
0.0136284
0.0126946
0.0115015
0.00998745
0.00808399
0.00572578
0.00289577
0.000313901
0.000362479
0.00360763
0.00693976
0.00938525
0.0111363
0.0123789
0.0132973
0.0140502
0.0147231
0.0152516
0.0156103
0.0158572
0.0159791
0.0159921
0.015934
0.0158272
0.0156752
0.0154712
0.015202
0.0148501
0.0143946
0.0138127
0.0130771
0.0121503
0.0109822
0.00951389
0.00767976
0.00541664
0.00271891
0.000296773
0.000369107
0.00350409
0.00660978
0.00889042
0.0105096
0.0117624
0.012786
0.013569
0.0141495
0.0146307
0.0150458
0.0153383
0.0154867
0.0155226
0.01548
0.0153771
0.0152184
0.0150003
0.0147137
0.0143445
0.0138749
0.0132838
0.0125461
0.0116289
0.0104875
0.00906736
0.00730644
0.00514289
0.00256812
0.000281229
0.000365265
0.00323718
0.0060168
0.00815449
0.00984562
0.0112037
0.0122714
0.0130827
0.0136902
0.0141849
0.0145916
0.0148748
0.0150269
0.0150728
0.0150374
0.0149343
0.0147681
0.0145379
0.0142369
0.013854
0.0133736
0.0127768
0.0120405
0.011135
0.0100207
0.00864819
0.00695949
0.0048948
0.00244111
0.000268858
0.000349999
0.00279862
0.00537623
0.00753324
0.00929421
0.0107022
0.0118027
0.0126473
0.0132939
0.0138045
0.0141958
0.0144586
0.0146026
0.0146486
0.0146133
0.0145064
0.0143324
0.0140914
0.0137786
0.0133847
0.0128966
0.0122969
0.0115645
0.0106722
0.00958475
0.00825725
0.0066364
0.00466601
0.0023339
0.00025801
0.000321492
0.00244307
0.0049013
0.00705467
0.00884382
0.0102858
0.0114179
0.0122929
0.012965
0.013473
0.0138408
0.0140808
0.0142119
0.0142511
0.0142103
0.0140971
0.0139158
0.0136661
0.0133442
0.0129424
0.0124491
0.011849
0.0111222
0.0102441
0.00918234
0.00789613
0.00633614
0.00445053
0.00222808
0.000247779
0.000298388
0.00215539
0.00455578
0.00670156
0.00851579
0.00998859
0.0111452
0.012033
0.0126988
0.0131812
0.0135187
0.0137343
0.0138496
0.0138783
0.0138299
0.0137103
0.0135228
0.0132669
0.0129392
0.0125328
0.0120371
0.0114384
0.0107185
0.00985453
0.00881677
0.00756749
0.00606017
0.00424773
0.00212228
0.00023778
0.000278901
0.00199038
0.00435049
0.006508
0.00835543
0.00984598
0.0109925
0.0118517
0.0124737
0.0129146
0.013217
0.0134084
0.0135078
0.0135266
0.0134721
0.0133486
0.0131581
0.0128996
0.0125698
0.0121621
0.0116671
0.0110716
0.0103591
0.00950856
0.00849225
0.00727496
0.00581196
0.00406038
0.00201588
0.000228037
0.000264642
0.0019538
0.0043299
0.00654491
0.00840268
0.00984091
0.0109037
0.0116846
0.0122457
0.0126442
0.0129165
0.0130892
0.0131781
0.0131922
0.0131368
0.0130146
0.0128263
0.0125704
0.0122431
0.0118382
0.0113466
0.0107563
0.0100515
0.00921275
0.00821442
0.00702339
0.00559627
0.00389388
0.00191547
0.000218718
0.000255506
0.00205564
0.00455598
0.00676622
0.00852958
0.00979757
0.0107426
0.0114515
0.0119729
0.0123442
0.0126014
0.0127677
0.0128563
0.0128741
0.0128252
0.0127113
0.012532
0.0122853
0.0119667
0.0115696
0.0110851
0.0105017
0.00980473
0.00897557
0.00799067
0.00681909
0.00541883
0.00375429
0.00182871
0.000210097
0.000253778
0.00222581
0.0048718
0.00703512
0.00852423
0.00963712
0.0104932
0.0111523
0.0116483
0.0120121
0.012272
0.0124458
0.0125445
0.0125747
0.01254
0.0124418
0.0122792
0.0120493
0.0117467
0.011364
0.0108915
0.0103179
0.009629
0.00880724
0.00783038
0.00666999
0.00528616
0.0036472
0.00176048
0.000202471
0.000262172
0.00253414
0.00521888
0.0070564
0.0083716
0.00938971
0.0101892
0.0108185
0.0113026
0.0116701
0.0119425
0.0121324
0.0122488
0.0122979
0.0122836
0.0122075
0.0120688
0.0118636
0.0115854
0.011225
0.0107716
0.0102127
0.00953401
0.00871819
0.0077442
0.00658565
0.00520574
0.00357771
0.00171304
0.000196103
0.000283545
0.0027264
0.00523005
0.00692531
0.0081394
0.0090929
0.00985429
0.010463
0.0109483
0.0113315
0.0116244
0.0118362
0.0119748
0.0120466
0.0120564
0.0120065
0.0118966
0.0117227
0.0114769
0.0111477
0.0107219
0.010186
0.0095235
0.00871552
0.0077414
0.00657559
0.00518566
0.00355123
0.0016881
0.000191175
0.000296666
0.00274649
0.00508582
0.0066917
0.0078531
0.00875525
0.00949336
0.0100992
0.0106014
0.0110088
0.0113274
0.0115645
0.0117274
0.0118231
0.0118571
0.0118333
0.0117528
0.0116127
0.0114046
0.0111138
0.0107236
0.0102207
0.00958597
0.00879547
0.00782493
0.00664497
0.00523139
0.00357256
0.0016887
0.000188171
0.000299268
0.00268338
0.00484038
0.0063948
0.0075054
0.0083849
0.00911573
0.00974129
0.0102727
0.0107106
0.0110589
0.0113235
0.0115114
0.0116294
0.0116843
0.0116817
0.0116255
0.0115153
0.0113434
0.0110924
0.0107402
0.0102759
0.00968187
0.00892853
0.00797162
0.00677581
0.00533233
0.00363743
0.0017153
0.000187622
0.000296808