/*--------------------------------*- C++ -*----------------------------------*\
| =========                 |                                                 |
| \\      /  F ield         | OpenFOAM: The Open Source CFD Toolbox           |
|  \\    /   O peration     | Version:  v1606+                                |
|   \\  /    A nd           | Web:      www.OpenFOAM.com                      |
|    \\/     M anipulation  |                                                 |
\*---------------------------------------------------------------------------*/
FoamFile
{
    version     2.0;
    format      ascii;
    class       volScalarField;
    location    "1.65";
    object      p;
}
// * * * * * * * * * * * * * * * * * * * * * * * * * * * * * * * * * * * * * //

dimensions      [1 -1 -2 0 0 0 0];

internalField   nonuniform List<scalar> 
6000
(
107937
107945
107956
107968
107980
107993
108007
108016
108018
108015
108012
108009
108009
108010
108011
108014
108017
108020
108022
108022
108017
108007
107995
107982
107970
107958
107948
107943
107942
107941
107865
107866
107872
107880
107892
107907
107924
107938
107946
107947
107946
107946
107946
107948
107950
107950
107951
107952
107952
107945
107935
107923
107913
107905
107898
107894
107891
107890
107889
107888
107827
107826
107825
107827
107834
107846
107864
107888
107906
107913
107910
107909
107909
107911
107914
107914
107915
107918
107916
107901
107880
107868
107863
107860
107859
107858
107857
107856
107855
107855
107792
107789
107786
107783
107781
107780
107784
107801
107831
107851
107858
107860
107862
107865
107867
107867
107867
107866
107856
107833
107810
107807
107812
107816
107821
107824
107824
107822
107822
107822
107761
107758
107753
107747
107739
107729
107721
107716
107734
107765
107787
107800
107805
107809
107812
107813
107810
107800
107781
107753
107732
107739
107752
107762
107773
107783
107788
107790
107790
107791
107728
107724
107717
107707
107693
107676
107657
107636
107625
107655
107690
107714
107728
107736
107742
107744
107739
107723
107700
107666
107648
107654
107663
107671
107690
107711
107729
107743
107749
107751
107678
107673
107662
107645
107623
107601
107580
107555
107533
107534
107567
107602
107627
107644
107656
107661
107656
107639
107613
107577
107568
107565
107560
107561
107573
107596
107627
107660
107679
107683
107603
107592
107568
107543
107527
107517
107504
107488
107472
107461
107461
107477
107508
107541
107562
107572
107570
107554
107524
107498
107499
107497
107497
107502
107508
107518
107535
107554
107568
107572
107511
107498
107488
107481
107476
107469
107459
107448
107437
107427
107418
107413
107415
107432
107460
107477
107477
107461
107438
107438
107447
107452
107460
107469
107477
107486
107496
107505
107510
107512
107457
107455
107454
107453
107451
107445
107436
107426
107416
107407
107397
107389
107382
107378
107379
107381
107381
107379
107383
107395
107407
107418
107431
107442
107453
107464
107475
107484
107489
107490
107437
107436
107436
107435
107432
107428
107420
107410
107400
107391
107382
107374
107367
107359
107352
107348
107346
107349
107355
107365
107375
107388
107404
107417
107429
107441
107453
107465
107474
107477
107423
107422
107422
107421
107418
107414
107406
107395
107386
107376
107368
107361
107354
107348
107341
107337
107335
107336
107339
107343
107349
107360
107377
107393
107404
107416
107428
107440
107452
107462
107408
107408
107408
107407
107404
107399
107391
107381
107372
107363
107356
107349
107343
107337
107332
107328
107325
107325
107325
107326
107328
107333
107348
107366
107378
107389
107400
107411
107422
107436
107388
107389
107388
107387
107383
107377
107370
107364
107357
107351
107343
107337
107332
107327
107322
107317
107314
107312
107311
107311
107310
107312
107321
107337
107350
107360
107369
107379
107389
107397
107357
107357
107357
107355
107350
107345
107340
107339
107340
107337
107332
107326
107321
107316
107311
107306
107302
107299
107297
107295
107295
107295
107299
107310
107321
107329
107336
107343
107352
107357
107313
107314
107312
107309
107305
107302
107301
107304
107312
107320
107320
107316
107311
107306
107300
107295
107289
107285
107282
107280
107279
107280
107282
107288
107293
107296
107299
107304
107308
107307
107263
107262
107259
107256
107253
107252
107253
107260
107272
107291
107304
107304
107299
107294
107289
107283
107276
107270
107266
107264
107264
107266
107269
107269
107264
107262
107260
107258
107251
107244
107210
107208
107205
107202
107199
107197
107199
107207
107221
107245
107273
107285
107283
107279
107273
107266
107258
107253
107249
107247
107248
107251
107253
107245
107234
107227
107221
107213
107204
107202
107158
107156
107152
107147
107142
107139
107139
107146
107160
107182
107214
107243
107251
107248
107240
107231
107225
107223
107222
107222
107225
107230
107225
107209
107199
107193
107187
107178
107175
107175
107110
107106
107101
107093
107084
107076
107071
107077
107090
107111
107138
107167
107181
107174
107159
107153
107157
107165
107172
107178
107183
107185
107165
107148
107152
107155
107154
107150
107151
107151
107063
107060
107052
107041
107025
107010
107001
107004
107017
107038
107062
107084
107091
107078
107071
107073
107082
107093
107105
107113
107116
107109
107096
107094
107101
107114
107120
107124
107127
107128
107022
107020
107010
106996
106982
106964
106956
106951
106955
106973
106996
107020
107033
107033
107035
107039
107044
107050
107057
107062
107064
107064
107065
107068
107073
107081
107089
107096
107100
107101
106985
106982
106978
106965
106952
106942
106936
106931
106929
106933
106951
106981
107001
107012
107019
107025
107029
107032
107036
107039
107042
107046
107050
107054
107056
107057
107059
107062
107064
107066
106946
106943
106943
106939
106934
106931
106928
106923
106921
106920
106928
106949
106975
106995
107006
107014
107019
107022
107025
107028
107031
107035
107039
107040
107036
107029
107024
107022
107021
107022
106907
106907
106909
106912
106917
106921
106921
106919
106916
106916
106918
106930
106953
106976
106992
107002
107008
107012
107015
107018
107022
107025
107026
107020
107006
106992
106982
106976
106973
106973
106868
106870
106874
106881
106892
106905
106913
106913
106911
106910
106911
106917
106933
106956
106976
106988
106996
107001
107005
107009
107012
107014
107007
106988
106966
106948
106934
106926
106921
106919
106818
106823
106828
106838
106855
106878
106898
106905
106905
106904
106904
106906
106916
106935
106957
106972
106981
106988
106993
106998
106999
106993
106971
106943
106917
106897
106882
106872
106866
106863
106759
106763
106771
106783
106804
106835
106872
106892
106895
106894
106894
106894
106900
106914
106935
106953
106964
106972
106979
106982
106976
106953
106919
106887
106861
106840
106824
106813
106807
106803
106693
106696
106704
106716
106737
106771
106820
106864
106879
106879
106880
106880
106883
106893
106910
106929
106943
106952
106956
106949
106926
106889
106851
106820
106795
106776
106761
106750
106743
106739
106622
106625
106631
106640
106655
106685
106734
106802
106843
106853
106857
106859
106861
106867
106882
106899
106912
106915
106906
106881
106843
106803
106770
106742
106720
106703
106690
106680
106674
106671
106547
106548
106553
106554
106554
106574
106615
106682
106758
106800
106815
106823
106826
106832
106842
106848
106847
106836
106811
106775
106737
106704
106676
106654
106636
106622
106612
106605
106600
106598
106472
106469
106473
106469
106463
106469
106489
106529
106608
106690
106729
106750
106761
106761
106748
106735
106722
106702
106676
106647
106618
106593
106573
106557
106546
106537
106530
106526
106523
106521
106404
106397
106400
106397
106399
106399
106401
106411
106444
106519
106580
106617
106630
106616
106588
106566
106549
106534
106519
106504
106488
106474
106463
106455
106451
106448
106445
106443
106442
106441
106346
106342
106347
106353
106357
106356
106351
106344
106342
106357
106401
106440
106450
106435
106406
106380
106362
106354
106351
106348
106346
106345
106346
106349
106353
106358
106360
106360
106360
106361
106301
106300
106307
106316
106321
106319
106309
106294
106275
106259
106259
106273
106280
106259
106223
106191
106173
106170
106176
106185
106197
106210
106224
106239
106254
106267
106276
106277
106278
106281
106265
106263
106267
106273
106275
106270
106258
106237
106210
106181
106157
106142
106129
106090
106047
106012
105996
105995
106003
106019
106044
106071
106099
106127
106154
106178
106194
106195
106192
106202
106232
106228
106225
106222
106215
106204
106189
106167
106135
106099
106058
106019
105983
105927
105884
105859
105849
105844
105842
105855
105888
105932
105976
106018
106057
106093
106119
106125
106120
106135
106194
106189
106180
106164
106143
106120
106098
106073
106040
105993
105928
105865
105815
105769
105743
105732
105725
105715
105708
105712
105740
105798
105857
105915
105968
106016
106054
106072
106071
106077
106135
106136
106117
106088
106052
106019
105990
105958
105917
105853
105771
105710
105675
105655
105647
105645
105644
105640
105640
105641
105651
105689
105749
105821
105888
105951
106005
106033
106036
106036
106041
106045
106021
105982
105940
105905
105876
105841
105788
105716
105659
105634
105623
105617
105614
105614
105614
105615
105617
105619
105622
105633
105668
105740
105819
105894
105963
106000
106003
106004
105928
105930
105903
105860
105815
105781
105767
105741
105694
105645
105620
105615
105612
105609
105608
105608
105609
105610
105612
105614
105615
105617
105636
105686
105760
105843
105924
105966
105971
105971
105833
105830
105795
105740
105688
105663
105666
105668
105644
105621
105609
105609
105609
105608
105607
105607
105608
105608
105609
105610
105611
105612
105622
105649
105706
105790
105884
105935
105940
105940
105759
105747
105700
105641
105615
105608
105609
105615
105617
105610
105604
105605
105605
105605
105605
105605
105605
105605
105605
105604
105603
105601
105604
105609
105646
105726
105833
105906
105912
105911
105695
105677
105624
105594
105587
105587
105586
105586
105588
105592
105597
105599
105600
105600
105599
105599
105598
105596
105595
105591
105585
105576
105570
105571
105587
105640
105763
105870
105877
105873
105638
105618
105587
105576
105577
105577
105574
105568
105564
105566
105579
105585
105587
105588
105586
105584
105581
105578
105574
105568
105558
105549
105545
105547
105553
105575
105669
105787
105814
105814
105596
105586
105570
105568
105569
105568
105564
105557
105550
105547
105553
105560
105563
105564
105563
105559
105555
105550
105545
105542
105538
105536
105537
105539
105542
105548
105581
105658
105722
105736
105571
105567
105561
105561
105561
105559
105553
105546
105539
105535
105534
105535
105537
105537
105537
105535
105532
105530
105528
105528
105529
105531
105533
105535
105537
105538
105546
105582
105640
105661
105557
105555
105553
105554
105552
105549
105542
105534
105529
105526
105524
105523
105523
105522
105522
105521
105521
105522
105523
105524
105525
105527
105528
105530
105531
105532
105535
105551
105588
105603
105547
105546
105546
105546
105543
105538
105531
105524
105520
105520
105519
105518
105517
105517
105517
105517
105518
105518
105519
105520
105521
105523
105524
105525
105526
105527
105528
105536
105555
105564
105539
105538
105538
105537
105534
105529
105522
105516
105515
105515
105515
105515
105514
105514
105514
105514
105515
105515
105516
105517
105518
105518
105519
105520
105521
105522
105523
105527
105537
105542
105532
105532
105531
105530
105526
105520
105513
105510
105510
105511
105511
105511
105511
105511
105511
105511
105511
105512
105512
105513
105514
105514
105515
105516
105516
105517
105519
105521
105528
105534
105526
105526
105525
105524
105519
105512
105507
105506
105507
105507
105507
105507
105507
105507
105507
105508
105508
105508
105509
105509
105510
105510
105511
105511
105512
105513
105514
105516
105520
105526
105521
105521
105520
105518
105512
105505
105502
105502
105503
105503
105504
105504
105504
105504
105504
105504
105504
105505
105505
105505
105505
105506
105506
105507
105507
105508
105509
105510
105511
105515
105516
105516
105515
105511
105505
105500
105499
105499
105500
105500
105500
105500
105500
105500
105500
105501
105501
105501
105501
105501
105501
105502
105502
105502
105503
105504
105504
105504
105503
105504
105511
105510
105509
105505
105500
105496
105496
105496
105497
105497
105497
105497
105497
105497
105497
105497
105497
105497
105497
105497
105497
105498
105498
105498
105498
105499
105499
105497
105495
105496
105505
105505
105504
105500
105495
105494
105493
105493
105493
105494
105494
105494
105494
105493
105493
105493
105493
105493
105493
105493
105493
105494
105494
105494
105494
105495
105494
105491
105487
105488
105500
105500
105499
105495
105492
105491
105490
105490
105490
105490
105490
105490
105490
105490
105490
105490
105490
105490
105490
105490
105490
105490
105490
105490
105490
105490
105490
105484
105480
105481
105495
105495
105494
105491
105489
105488
105487
105487
105486
105486
105486
105486
105486
105486
105486
105486
105486
105486
105486
105486
105486
105486
105486
105486
105486
105486
105485
105479
105474
105477
105490
105490
105489
105487
105485
105484
105483
105483
105483
105483
105483
105483
105483
105483
105482
105482
105482
105482
105482
105482
105482
105482
105482
105482
105482
105482
105482
105474
105471
105475
105486
105485
105484
105483
105481
105479
105479
105479
105479
105479
105479
105479
105479
105479
105479
105479
105478
105478
105478
105478
105478
105478
105478
105478
105478
105478
105479
105474
105473
105477
105481
105480
105479
105478
105476
105474
105475
105475
105475
105475
105475
105475
105475
105475
105475
105475
105475
105474
105474
105474
105474
105474
105474
105474
105474
105475
105476
105476
105477
105476
105475
105474
105473
105473
105471
105470
105471
105471
105471
105471
105471
105471
105471
105471
105471
105471
105471
105471
105470
105470
105470
105470
105470
105470
105471
105471
105473
105478
105480
105478
105467
105466
105467
105469
105467
105467
105468
105468
105468
105468
105468
105468
105468
105468
105467
105467
105467
105467
105467
105466
105466
105466
105466
105466
105467
105468
105469
105473
105477
105474
105461
105458
105461
105465
105464
105464
105465
105465
105465
105464
105464
105464
105464
105464
105464
105463
105463
105463
105463
105463
105462
105462
105463
105463
105463
105464
105464
105465
105465
105466
105456
105454
105458
105463
105462
105462
105462
105461
105461
105461
105461
105461
105461
105460
105460
105460
105459
105459
105459
105459
105459
105459
105459
105459
105459
105460
105460
105458
105454
105453
105450
105451
105456
105460
105460
105460
105459
105458
105458
105458
105458
105457
105457
105457
105456
105456
105456
105455
105455
105455
105455
105455
105455
105455
105456
105457
105455
105449
105444
105443
105438
105443
105450
105453
105456
105456
105455
105455
105454
105454
105454
105454
105453
105453
105452
105452
105452
105451
105451
105451
105451
105451
105451
105452
105452
105453
105449
105440
105434
105432
105425
105431
105437
105443
105450
105452
105451
105450
105450
105450
105450
105450
105449
105449
105448
105448
105448
105447
105447
105447
105447
105447
105447
105448
105448
105448
105441
105431
105424
105422
105412
105416
105422
105432
105442
105445
105445
105445
105446
105446
105445
105445
105445
105444
105444
105443
105443
105443
105442
105442
105442
105442
105442
105443
105443
105441
105433
105422
105415
105412
105396
105399
105407
105419
105433
105437
105439
105439
105440
105440
105440
105440
105439
105439
105438
105438
105438
105437
105437
105437
105437
105437
105436
105436
105436
105433
105424
105412
105403
105399
105377
105381
105390
105406
105422
105428
105431
105433
105434
105434
105434
105434
105433
105433
105432
105432
105432
105431
105431
105431
105431
105430
105429
105429
105427
105423
105413
105398
105387
105382
105352
105357
105369
105388
105407
105417
105421
105424
105426
105427
105428
105427
105427
105426
105426
105425
105425
105425
105425
105424
105424
105423
105422
105420
105418
105411
105395
105378
105365
105359
105319
105326
105340
105362
105384
105400
105410
105415
105418
105419
105420
105419
105419
105418
105418
105418
105418
105417
105417
105417
105416
105415
105413
105411
105406
105393
105371
105351
105337
105331
105280
105288
105302
105325
105353
105377
105393
105403
105408
105410
105410
105410
105409
105409
105409
105409
105409
105409
105409
105408
105407
105406
105403
105398
105386
105365
105338
105317
105303
105297
105238
105245
105260
105284
105313
105341
105364
105380
105390
105396
105398
105399
105399
105399
105399
105399
105399
105399
105399
105398
105397
105394
105388
105376
105353
105323
105294
105273
105259
105253
105192
105201
105216
105236
105262
105288
105313
105335
105355
105370
105380
105384
105386
105386
105387
105387
105387
105387
105387
105385
105382
105375
105361
105337
105304
105269
105240
105218
105205
105200
105142
105150
105162
105177
105195
105215
105237
105262
105289
105318
105345
105359
105366
105369
105371
105372
105372
105371
105369
105364
105354
105337
105311
105277
105241
105208
105179
105158
105145
105139
105083
105087
105093
105102
105115
105132
105154
105178
105205
105238
105278
105312
105330
105339
105344
105346
105346
105342
105335
105321
105300
105270
105235
105201
105170
105141
105116
105095
105080
105073
105010
105009
105012
105020
105033
105054
105080
105104
105127
105153
105189
105232
105266
105285
105295
105298
105296
105287
105270
105246
105215
105181
105147
105117
105090
105066
105046
105027
105013
105005
104924
104924
104928
104939
104960
104988
105022
105047
105063
105078
105103
105137
105171
105196
105210
105213
105208
105193
105171
105143
105113
105083
105054
105026
105003
104983
104967
104954
104942
104934
104835
104837
104846
104864
104891
104923
104966
104999
105006
105010
105022
105042
105064
105082
105092
105095
105088
105074
105054
105031
105006
104981
104955
104932
104911
104894
104882
104872
104864
104857
104748
104752
104768
104788
104814
104849
104889
104923
104934
104934
104938
104941
104948
104957
104963
104964
104959
104948
104933
104915
104895
104874
104854
104834
104816
104801
104790
104783
104779
104775
104664
104672
104689
104709
104735
104758
104775
104798
104823
104833
104826
104819
104820
104826
104830
104831
104829
104821
104811
104797
104782
104765
104749
104733
104718
104705
104695
104689
104686
104685
104581
104592
104609
104626
104633
104635
104643
104659
104677
104685
104682
104681
104684
104691
104696
104699
104698
104694
104687
104678
104667
104654
104642
104629
104617
104606
104598
104592
104589
104588
104490
104503
104510
104507
104499
104495
104498
104508
104518
104525
104530
104537
104545
104554
104561
104566
104568
104567
104564
104558
104551
104542
104532
104523
104513
104505
104498
104492
104489
104488
104385
104387
104379
104365
104352
104344
104344
104349
104358
104368
104380
104394
104407
104419
104429
104436
104440
104442
104441
104438
104434
104428
104422
104415
104408
104402
104396
104392
104389
104387
104259
104251
104234
104216
104198
104187
104184
104190
104203
104220
104239
104258
104275
104289
104301
104309
104315
104318
104319
104319
104317
104314
104310
104306
104301
104297
104293
104290
104287
104286
104120
104105
104086
104062
104039
104026
104028
104040
104061
104085
104109
104131
104151
104166
104178
104187
104194
104198
104200
104200
104200
104199
104198
104196
104193
104191
104189
104187
104185
104184
103975
103960
103937
103907
103883
103879
103891
103912
103939
103967
103994
104017
104036
104052
104063
104072
104077
104081
104083
104084
104085
104085
104085
104085
104084
104084
104083
104083
104082
104082
103834
103819
103790
103760
103752
103766
103788
103813
103839
103866
103891
103913
103931
103945
103955
103962
103966
103968
103969
103969
103970
103971
103972
103973
103975
103976
103977
103978
103978
103978
103706
103686
103659
103649
103662
103684
103706
103730
103754
103777
103798
103817
103833
103845
103854
103859
103861
103860
103859
103857
103857
103857
103859
103861
103864
103867
103870
103872
103873
103874
103592
103573
103567
103576
103595
103615
103634
103654
103674
103693
103711
103727
103740
103750
103757
103760
103760
103757
103752
103748
103745
103744
103745
103749
103753
103758
103762
103766
103768
103769
103507
103500
103506
103519
103534
103550
103565
103581
103597
103612
103626
103639
103650
103658
103664
103666
103664
103658
103650
103642
103636
103632
103632
103635
103641
103648
103654
103659
103663
103665
103449
103449
103457
103466
103477
103487
103498
103510
103521
103532
103543
103553
103562
103569
103573
103574
103571
103564
103553
103541
103531
103524
103521
103522
103528
103537
103546
103553
103558
103560
103403
103403
103411
103415
103421
103425
103432
103438
103445
103451
103459
103467
103474
103480
103484
103485
103482
103474
103462
103448
103435
103424
103417
103415
103417
103428
103439
103447
103453
103455
103357
103358
103364
103365
103366
103365
103366
103366
103367
103370
103374
103379
103384
103389
103392
103394
103393
103388
103377
103363
103350
103339
103329
103322
103319
103326
103337
103344
103349
103351
103308
103312
103316
103315
103309
103304
103297
103290
103286
103285
103286
103288
103291
103294
103297
103300
103301
103300
103294
103284
103274
103265
103257
103249
103245
103244
103246
103246
103247
103248
103248
103257
103259
103259
103248
103236
103220
103208
103200
103196
103193
103193
103193
103195
103197
103199
103202
103205
103207
103205
103199
103194
103189
103184
103181
103180
103170
103155
103147
103145
103172
103184
103183
103178
103165
103148
103130
103117
103107
103100
103096
103093
103091
103090
103091
103093
103096
103100
103107
103114
103120
103119
103117
103116
103118
103115
103089
103064
103049
103042
103078
103078
103065
103056
103048
103037
103025
103015
103007
102999
102993
102988
102985
102982
102981
102981
102984
102988
102995
103005
103017
103028
103034
103035
103033
103016
102988
102965
102948
102939
102952
102940
102925
102915
102917
102916
102913
102907
102900
102893
102886
102879
102874
102870
102867
102866
102867
102870
102876
102885
102896
102909
102922
102929
102920
102894
102873
102855
102842
102834
102808
102795
102777
102776
102788
102796
102798
102795
102790
102782
102774
102767
102760
102754
102750
102747
102747
102749
102753
102759
102768
102778
102789
102796
102791
102772
102753
102739
102730
102723
102667
102650
102641
102653
102670
102681
102684
102682
102675
102667
102658
102650
102642
102635
102629
102626
102624
102625
102627
102631
102637
102643
102650
102656
102656
102647
102632
102619
102611
102605
102531
102527
102533
102549
102563
102571
102571
102566
102558
102548
102538
102529
102520
102512
102506
102501
102498
102498
102499
102501
102504
102508
102512
102515
102516
102515
102506
102495
102488
102484
102414
102421
102439
102452
102461
102461
102455
102446
102436
102425
102414
102404
102395
102387
102380
102374
102370
102368
102368
102369
102370
102372
102374
102376
102377
102376
102373
102366
102361
102359
102316
102326
102347
102356
102355
102346
102334
102321
102309
102297
102287
102277
102267
102259
102251
102245
102240
102237
102235
102235
102235
102236
102237
102237
102237
102237
102235
102233
102230
102230
102229
102241
102255
102256
102242
102224
102207
102192
102178
102167
102156
102146
102137
102128
102120
102114
102108
102103
102101
102099
102098
102098
102099
102098
102098
102097
102097
102096
102095
102095
102147
102158
102158
102144
102121
102098
102077
102059
102045
102033
102023
102014
102005
101997
101988
101981
101974
101968
101964
101962
101960
101960
101959
101959
101959
101958
101958
101957
101957
101957
102066
102067
102049
102022
101994
101966
101943
101925
101910
101899
101891
101882
101874
101865
101855
101847
101839
101832
101827
101823
101821
101819
101819
101819
101819
101819
101818
101818
101818
101818
101972
101958
101927
101894
101862
101833
101808
101789
101776
101767
101759
101751
101743
101733
101722
101712
101702
101695
101688
101684
101680
101678
101677
101677
101678
101678
101678
101678
101678
101679
101851
101828
101794
101760
101727
101699
101675
101656
101644
101637
101631
101623
101614
101602
101589
101576
101565
101556
101548
101543
101539
101536
101535
101534
101535
101536
101537
101538
101538
101539
101704
101682
101654
101622
101592
101567
101544
101526
101518
101512
101507
101499
101487
101473
101456
101441
101427
101416
101408
101401
101396
101393
101391
101391
101392
101393
101395
101397
101398
101399
101547
101532
101510
101483
101460
101440
101421
101405
101398
101393
101388
101378
101364
101345
101324
101305
101290
101278
101269
101261
101254
101250
101247
101246
101247
101250
101253
101256
101259
101260
101393
101382
101365
101346
101333
101321
101306
101292
101285
101280
101274
101262
101244
101220
101194
101174
101160
101148
101136
101124
101115
101107
101102
101100
101102
101106
101111
101116
101120
101122
101241
101233
101221
101214
101213
101209
101200
101189
101178
101173
101166
101151
101129
101100
101073
101057
101045
101030
101013
100996
100980
100966
100957
100952
100954
100960
100969
100977
100983
100987
101092
101079
101081
101089
101099
101104
101103
101094
101079
101072
101063
101046
101019
100990
100970
100957
100943
100921
100896
100871
100847
100826
100809
100800
100800
100812
100826
100840
100850
100855
100945
100922
100949
100974
100994
101007
101011
101002
100985
100978
100968
100947
100916
100891
100877
100865
100841
100808
100775
100742
100711
100683
100657
100638
100637
100658
100684
100707
100722
100730
100818
100805
100838
100874
100901
100916
100922
100914
100902
100895
100880
100853
100822
100799
100787
100765
100727
100686
100646
100609
100574
100540
100503
100471
100469
100504
100546
100581
100603
100613
100765
100760
100769
100795
100823
100837
100838
100831
100828
100822
100798
100761
100730
100709
100690
100650
100603
100558
100518
100481
100446
100409
100367
100337
100335
100362
100421
100468
100498
100508
100745
100742
100741
100750
100763
100772
100772
100768
100766
100755
100717
100671
100638
100613
100575
100526
100479
100438
100402
100371
100343
100315
100293
100285
100285
100294
100323
100375
100411
100416
100733
100732
100729
100728
100728
100723
100722
100721
100716
100687
100630
100575
100536
100499
100452
100406
100366
100334
100308
100289
100277
100271
100267
100267
100268
100270
100283
100309
100342
100337
100723
100722
100719
100714
100707
100699
100692
100683
100664
100599
100525
100462
100418
100376
100335
100303
100278
100263
100257
100255
100256
100257
100258
100261
100263
100263
100269
100282
100295
100274
100709
100709
100706
100700
100690
100678
100662
100634
100566
100476
100395
100337
100301
100275
100257
100249
100244
100242
100243
100245
100248
100250
100253
100256
100257
100258
100262
100270
100269
100231
100684
100685
100682
100673
100659
100638
100595
100517
100419
100331
100278
100253
100244
100239
100236
100236
100237
100238
100239
100241
100244
100247
100249
100250
100252
100252
100255
100265
100256
100207
100637
100635
100627
100614
100587
100530
100449
100350
100279
100247
100235
100231
100231
100231
100232
100233
100235
100237
100238
100239
100241
100243
100244
100245
100246
100247
100249
100261
100254
100203
100558
100546
100527
100498
100441
100357
100286
100248
100232
100228
100227
100228
100229
100230
100231
100232
100234
100235
100236
100237
100238
100239
100240
100241
100242
100242
100244
100263
100263
100231
100468
100445
100403
100346
100281
100244
100230
100225
100224
100225
100226
100227
100228
100229
100230
100231
100231
100232
100233
100233
100234
100234
100235
100236
100237
100238
100238
100251
100283
100258
100388
100357
100291
100246
100228
100222
100221
100222
100223
100224
100225
100225
100226
100227
100227
100228
100228
100229
100229
100229
100230
100230
100231
100232
100233
100233
100232
100237
100260
100252
100310
100274
100238
100224
100221
100221
100221
100221
100222
100222
100223
100223
100224
100224
100224
100224
100225
100225
100225
100226
100226
100226
100227
100228
100228
100229
100228
100230
100235
100239
100254
100237
100225
100221
100221
100220
100220
100220
100220
100220
100220
100220
100220
100220
100220
100221
100221
100221
100221
100222
100222
100223
100224
100224
100225
100225
100225
100225
100227
100230
100233
100226
100221
100220
100219
100218
100218
100218
100218
100218
100217
100217
100217
100217
100217
100217
100217
100217
100218
100218
100219
100220
100220
100221
100221
100221
100221
100221
100222
100224
100224
100221
100219
100218
100217
100217
100216
100216
100215
100215
100215
100214
100214
100214
100214
100214
100214
100214
100215
100215
100216
100216
100217
100217
100217
100218
100218
100218
100218
100219
100218
100217
100216
100215
100215
100214
100214
100213
100213
100212
100212
100212
100211
100211
100211
100211
100211
100211
100212
100212
100213
100213
100213
100214
100214
100214
100214
100214
100215
100214
100215
100214
100213
100213
100213
100212
100212
100211
100210
100210
100209
100209
100209
100209
100209
100209
100209
100209
100209
100209
100209
100210
100210
100210
100211
100211
100211
100211
100211
100210
100211
100211
100211
100210
100210
100209
100209
100208
100208
100207
100207
100206
100206
100206
100206
100206
100206
100206
100206
100206
100206
100207
100207
100207
100207
100207
100207
100207
100208
100207
100208
100208
100208
100207
100207
100206
100206
100205
100205
100204
100204
100204
100203
100203
100203
100203
100203
100203
100203
100203
100203
100203
100204
100204
100204
100204
100204
100204
100204
100203
100205
100205
100204
100204
100204
100203
100203
100202
100202
100201
100201
100201
100200
100200
100200
100200
100200
100200
100200
100200
100200
100200
100200
100200
100201
100201
100201
100201
100201
100200
100202
100201
100201
100201
100201
100200
100200
100199
100199
100198
100198
100198
100197
100197
100197
100197
100197
100197
100197
100197
100197
100197
100197
100197
100197
100197
100197
100198
100198
100196
100198
100198
100198
100198
100198
100197
100196
100196
100195
100195
100195
100195
100194
100194
100194
100194
100194
100193
100193
100193
100193
100193
100194