/*--------------------------------*- C++ -*----------------------------------*\
| =========                 |                                                 |
| \\      /  F ield         | OpenFOAM: The Open Source CFD Toolbox           |
|  \\    /   O peration     | Version:  v1606+                                |
|   \\  /    A nd           | Web:      www.OpenFOAM.com                      |
|    \\/     M anipulation  |                                                 |
\*---------------------------------------------------------------------------*/
FoamFile
{
    version     2.0;
    format      ascii;
    class       volVectorField;
    location    "1.22";
    object      U.particles;
}
// * * * * * * * * * * * * * * * * * * * * * * * * * * * * * * * * * * * * * //

dimensions      [0 1 -1 0 0 0 0];

internalField   nonuniform List<vector> 
6000
(
(0.00617612 -0.37554 0)
(0.0223221 -0.444422 0)
(0.0340762 -0.458964 0)
(0.0313555 -0.46266 0)
(0.0196719 -0.475667 0)
(0.00569751 -0.487206 0)
(-0.00688929 -0.498487 0)
(-0.024123 -0.502782 0)
(-0.0391722 -0.496454 0)
(-0.0417405 -0.484438 0)
(-0.0356952 -0.459266 0)
(-0.0244263 -0.450066 0)
(-0.0128572 -0.456111 0)
(-0.00545067 -0.468491 0)
(-0.00595301 -0.47197 0)
(-0.00785154 -0.468762 0)
(-0.00864629 -0.466503 0)
(-0.00904654 -0.480773 0)
(-0.0126801 -0.514239 0)
(-0.0214523 -0.531603 0)
(-0.0358112 -0.52977 0)
(-0.0495915 -0.511238 0)
(-0.0597095 -0.495177 0)
(-0.071638 -0.480788 0)
(-0.0828465 -0.453553 0)
(-0.0849355 -0.427097 0)
(-0.0721046 -0.382107 0)
(-0.0496444 -0.371466 0)
(-0.0259241 -0.377678 0)
(-0.00992113 -0.346447 0)
(0.0299009 -0.019858 0)
(0.0411079 0.013072 0)
(0.0653878 0.0305733 0)
(0.0878871 0.0586321 0)
(0.078481 0.0592901 0)
(0.0431928 0.0613718 0)
(-0.0112181 0.040096 0)
(-0.0446682 0.0269949 0)
(-0.0624755 0.041788 0)
(-0.0661866 0.0395448 0)
(-0.0629203 0.0178427 0)
(-0.0598143 0.00340232 0)
(-0.0585029 -0.00906718 0)
(-0.0555221 -0.021 0)
(-0.0486002 -0.0345564 0)
(-0.0368127 -0.0390105 0)
(-0.0235134 -0.0383572 0)
(-0.0105548 -0.0299878 0)
(-0.00504529 -0.0102579 0)
(-0.00977848 -0.000570615 0)
(-0.0289872 0.00334912 0)
(-0.0641238 0.0285541 0)
(-0.107452 0.046068 0)
(-0.126651 0.0451152 0)
(-0.128847 0.0440558 0)
(-0.101708 0.0323314 0)
(-0.0676787 0.0220318 0)
(-0.0432647 0.0447312 0)
(-0.0238658 0.0633505 0)
(-0.0265446 0.0501342 0)
(0.0138189 -0.035402 0)
(0.013236 -0.0494244 0)
(0.0386682 -0.0661041 0)
(0.0665953 -0.0485001 0)
(0.075421 -0.0168397 0)
(0.0522312 -0.0156382 0)
(0.00033662 -0.053238 0)
(-0.0396865 -0.101586 0)
(-0.0572161 -0.122083 0)
(-0.0657041 -0.127154 0)
(-0.0706153 -0.131478 0)
(-0.0775657 -0.137849 0)
(-0.0800281 -0.145296 0)
(-0.0752437 -0.154772 0)
(-0.0623805 -0.164009 0)
(-0.0457789 -0.173189 0)
(-0.0328681 -0.175409 0)
(-0.024781 -0.174618 0)
(-0.0218861 -0.16666 0)
(-0.0243485 -0.149041 0)
(-0.0368077 -0.116448 0)
(-0.0631297 -0.0788786 0)
(-0.0915279 -0.0598409 0)
(-0.102518 -0.0583373 0)
(-0.0883637 -0.0749022 0)
(-0.0501003 -0.088519 0)
(-0.0238294 -0.0786126 0)
(-0.00394152 -0.0500691 0)
(-0.000222788 -0.00348424 0)
(-0.0311619 -0.00376868 0)
(0.0279437 -0.026606 0)
(-0.00330592 -0.00202008 0)
(-0.0125394 -0.00285135 0)
(0.0113704 -0.0028693 0)
(0.0424917 -0.000319055 0)
(0.0224061 -0.0143311 0)
(-0.0121112 -0.0642462 0)
(-0.0361519 -0.0948321 0)
(-0.050751 -0.103491 0)
(-0.0664848 -0.115176 0)
(-0.0806378 -0.126232 0)
(-0.0878842 -0.125447 0)
(-0.0840434 -0.119714 0)
(-0.0707252 -0.119171 0)
(-0.0520833 -0.123079 0)
(-0.0355035 -0.123603 0)
(-0.0263871 -0.11919 0)
(-0.0260014 -0.109039 0)
(-0.0281666 -0.106116 0)
(-0.029704 -0.102156 0)
(-0.0337818 -0.0900257 0)
(-0.0448369 -0.0647804 0)
(-0.0526535 -0.0288915 0)
(-0.048771 -0.0098342 0)
(-0.0258906 -0.0147775 0)
(0.00919146 -0.0216397 0)
(0.0281201 -0.00585269 0)
(0.0344149 0.0275453 0)
(0.0141591 0.0523542 0)
(-0.0256771 0.0268923 0)
(0.0103874 -0.00215885 0)
(0.00769083 0.0147627 0)
(-0.0112154 0.0202526 0)
(-0.0591169 0.0177545 0)
(-0.0366301 0.0229517 0)
(-0.0291985 0.0101655 0)
(-0.0293427 -0.0336939 0)
(-0.0318001 -0.0630161 0)
(-0.0327743 -0.0802175 0)
(-0.0366387 -0.0924036 0)
(-0.0426977 -0.0902319 0)
(-0.0501774 -0.0751005 0)
(-0.0465391 -0.0743054 0)
(-0.0331867 -0.0949332 0)
(-0.00694123 -0.105234 0)
(0.00816955 -0.104749 0)
(0.0160575 -0.0990566 0)
(0.00765925 -0.0786273 0)
(-0.0106531 -0.056407 0)
(-0.020041 -0.0497949 0)
(-0.0215893 -0.041838 0)
(-0.0145024 -0.0162274 0)
(-0.0157621 0.00587325 0)
(0.00223276 0.0181971 0)
(0.0202149 -0.00225285 0)
(0.052674 -0.00098694 0)
(0.0666384 0.0254907 0)
(0.0476296 0.0597053 0)
(0.0244451 0.0554659 0)
(0.00306797 0.0255725 0)
(0.000436826 0.00949235 0)
(-0.00587732 0.0294752 0)
(-0.0119436 0.043416 0)
(-0.0376838 0.0426682 0)
(-0.0952336 0.0438215 0)
(-0.0621976 0.0521174 0)
(-0.0443487 0.0152145 0)
(-0.0376708 -0.024447 0)
(-0.0306795 -0.0393269 0)
(-0.0168683 -0.0442445 0)
(-0.0166485 -0.0413968 0)
(-0.0244993 -0.0486654 0)
(-0.00962131 -0.0510847 0)
(0.014386 -0.0496374 0)
(0.032387 -0.0485701 0)
(0.0476423 -0.0457872 0)
(0.0561796 -0.0382718 0)
(0.0577349 -0.0290178 0)
(0.0529339 -0.0188391 0)
(0.0292769 -0.00388863 0)
(0.00723047 0.00975128 0)
(0.00532365 0.0246762 0)
(0.017388 0.052996 0)
(0.0365191 0.0492206 0)
(0.0617431 0.0280319 0)
(0.0745245 0.0237281 0)
(0.0761661 0.0403644 0)
(0.0648369 0.059498 0)
(0.0445501 0.06148 0)
(0.0154573 0.0336382 0)
(-0.00812766 0.0184293 0)
(-0.0264852 0.0433015 0)
(-0.0356046 0.0594084 0)
(-0.044469 0.0661241 0)
(-0.0837072 0.0544967 0)
(-0.0848794 0.086373 0)
(-0.0530053 0.0824744 0)
(-0.0251778 0.0300083 0)
(-0.0159662 0.0144392 0)
(-0.01204 0.00852199 0)
(-0.0116222 0.00971528 0)
(-0.00418451 0.00854727 0)
(0.00844286 0.00535919 0)
(0.026162 0.00585946 0)
(0.0452838 0.00915715 0)
(0.0623796 0.0166393 0)
(0.0753268 0.0294296 0)
(0.0805866 0.0475996 0)
(0.073339 0.0646486 0)
(0.0502485 0.0749172 0)
(0.0299821 0.0870526 0)
(0.032814 0.099439 0)
(0.0536926 0.114032 0)
(0.0702314 0.094214 0)
(0.0759613 0.0499008 0)
(0.0709438 0.0289749 0)
(0.074609 0.0370274 0)
(0.0688538 0.0530598 0)
(0.0512569 0.0572488 0)
(0.0249741 0.0352217 0)
(-0.0186841 0.0251961 0)
(-0.0467803 0.0555853 0)
(-0.0599684 0.0715634 0)
(-0.0630264 0.0756207 0)
(-0.0676175 0.0759223 0)
(-0.102302 0.107582 0)
(-0.0743217 0.131747 0)
(-0.0267977 0.101457 0)
(-0.0160491 0.0885893 0)
(-0.0165788 0.0723511 0)
(-0.0215925 0.0578397 0)
(-0.0135481 0.0478025 0)
(-0.00231077 0.0410289 0)
(0.016448 0.0422476 0)
(0.0393495 0.047936 0)
(0.0654269 0.0563362 0)
(0.098041 0.0683453 0)
(0.13139 0.093825 0)
(0.149256 0.136321 0)
(0.114532 0.178416 0)
(0.0353571 0.194821 0)
(0.0216357 0.191719 0)
(0.042456 0.178479 0)
(0.069873 0.132483 0)
(0.0655368 0.0568792 0)
(0.0583881 0.0287735 0)
(0.0608232 0.0262203 0)
(0.0608973 0.0375705 0)
(0.0480142 0.047333 0)
(0.0372469 0.0300397 0)
(-0.0353375 0.0388556 0)
(-0.0723685 0.0730656 0)
(-0.0853436 0.0811755 0)
(-0.0836606 0.0790274 0)
(-0.0903743 0.0841203 0)
(-0.106475 0.124383 0)
(-0.0963548 0.190579 0)
(-0.046178 0.192861 0)
(-0.0326137 0.150884 0)
(-0.0792535 0.108518 0)
(-0.0761078 0.0838493 0)
(-0.0643765 0.0621187 0)
(-0.0437389 0.0498758 0)
(-0.013092 0.0526896 0)
(0.0202442 0.0569727 0)
(0.0604389 0.0535393 0)
(0.115605 0.0506532 0)
(0.170662 0.0876184 0)
(0.198792 0.158269 0)
(0.182222 0.244583 0)
(0.0915076 0.310133 0)
(-0.0168374 0.296644 0)
(-0.0183084 0.244167 0)
(0.00948563 0.167063 0)
(0.0191367 0.0693709 0)
(0.0306342 0.0194275 0)
(0.0332949 0.00593062 0)
(0.0247815 -0.00184333 0)
(-0.00705587 -0.0592603 0)
(-0.00596035 -0.141513 0)
(-0.0235494 -0.0665549 0)
(-0.00762542 -0.0507124 0)
(-0.0830399 0.0853241 0)
(-0.0825428 0.0750867 0)
(-0.0941018 0.0794676 0)
(-0.106466 0.15688 0)
(-0.0847957 0.239414 0)
(-0.0538145 0.235819 0)
(-0.0864243 0.184224 0)
(-0.0861757 0.150448 0)
(-0.0824676 0.114684 0)
(-0.0756738 0.0817393 0)
(-0.0645978 0.054447 0)
(-0.0418217 0.0403995 0)
(0.00143971 0.0327878 0)
(0.0568467 0.0258879 0)
(0.109343 0.0427821 0)
(0.139573 0.102637 0)
(0.144881 0.180624 0)
(0.135218 0.261079 0)
(0.104084 0.338271 0)
(0.0223686 0.36922 0)
(-0.0465059 0.297122 0)
(-0.0522302 0.201878 0)
(-0.0436991 0.0876943 0)
(-0.0141795 0.0223276 0)
(-0.0141303 -0.0370604 0)
(-0.0904748 -0.156687 0)
(-0.0740553 -0.184282 0)
(-0.018221 -0.175037 0)
(0.01398 -0.161348 0)
(0.0643182 -0.162127 0)
(0.0749061 -0.118454 0)
(-0.0345581 0.0371416 0)
(-0.0727845 0.0963012 0)
(-0.0329163 0.193307 0)
(-0.0232769 0.246394 0)
(-0.0383395 0.245846 0)
(-0.0558078 0.215892 0)
(-0.0591499 0.17742 0)
(-0.0601905 0.136934 0)
(-0.0582809 0.0991621 0)
(-0.0536385 0.0649792 0)
(-0.0425566 0.0347486 0)
(-0.0086342 0.00951518 0)
(0.0470984 0.00812131 0)
(0.079702 0.0454601 0)
(0.0922964 0.110913 0)
(0.0943107 0.189452 0)
(0.079239 0.277514 0)
(0.048604 0.359781 0)
(0.00329125 0.370966 0)
(-0.0264965 0.309146 0)
(-0.0369666 0.215761 0)
(-0.0423061 0.107763 0)
(-0.0286027 0.0168643 0)
(-0.0739445 -0.0957131 0)
(-0.129795 -0.196947 0)
(-0.0891166 -0.198115 0)
(-0.022281 -0.178005 0)
(0.0190043 -0.160747 0)
(0.0818503 -0.169406 0)
(0.123999 -0.155622 0)
(0.122831 -0.0949162 0)
(-0.0255764 0.121509 0)
(0.00324828 0.211864 0)
(-0.00197924 0.246192 0)
(-0.00686905 0.249153 0)
(-0.0147364 0.230934 0)
(-0.0236825 0.194415 0)
(-0.0303989 0.152675 0)
(-0.033591 0.112859 0)
(-0.0341636 0.0753916 0)
(-0.0309751 0.0378498 0)
(-0.00948617 0.000811114 0)
(0.0284928 0.00539296 0)
(0.0474852 0.0461401 0)
(0.0524895 0.108589 0)
(0.0443569 0.193711 0)
(0.0265737 0.299713 0)
(-0.00586731 0.394981 0)
(-0.00340057 0.377812 0)
(-0.00310509 0.313616 0)
(-0.00737495 0.214084 0)
(-0.0163565 0.0998703 0)
(-0.0261714 -0.00986835 0)
(-0.116321 -0.209894 0)
(-0.108445 -0.258154 0)
(-0.0786159 -0.247176 0)
(-0.0213559 -0.216733 0)
(0.0227401 -0.174469 0)
(0.0815152 -0.195608 0)
(0.119523 -0.189213 0)
(0.141245 -0.153763 0)
(0.00525131 0.124745 0)
(0.0209648 0.201164 0)
(0.0225225 0.24264 0)
(0.0232051 0.258014 0)
(0.0212231 0.245719 0)
(0.012475 0.210059 0)
(0.00235488 0.165787 0)
(-0.00879591 0.123671 0)
(-0.0178589 0.082326 0)
(-0.0177544 0.0413946 0)
(-0.00505543 0.00526549 0)
(0.0168665 0.00647067 0)
(0.0277378 0.0383167 0)
(0.0274401 0.0943426 0)
(0.00754733 0.169331 0)
(0.0251467 0.305519 0)
(-0.0243421 0.410018 0)
(0.00716216 0.381304 0)
(0.0155878 0.310978 0)
(0.00733896 0.206642 0)
(-0.0057734 0.0670009 0)
(-0.11465 -0.194971 0)
(-0.123091 -0.306796 0)
(-0.0796505 -0.321597 0)
(-0.0504581 -0.308358 0)
(-0.00632597 -0.268439 0)
(0.0140043 -0.20698 0)
(0.0636245 -0.236441 0)
(0.0917902 -0.239597 0)
(0.129529 -0.211645 0)
(0.0872703 0.0222069 0)
(0.0282762 0.178003 0)
(0.0502404 0.22794 0)
(0.0601238 0.258982 0)
(0.0681813 0.259664 0)
(0.0631008 0.225237 0)
(0.0442787 0.179457 0)
(0.00901151 0.134342 0)
(-0.00574351 0.0870851 0)
(-0.00499691 0.0445307 0)
(0.00260042 0.00971022 0)
(0.0162883 0.00262368 0)
(0.0251518 0.0176427 0)
(0.0233674 0.0505769 0)
(0.0281116 -0.10162 0)
(0.0516495 0.0645619 0)
(0.00344023 0.230581 0)
(0.00876644 0.256792 0)
(-0.0264869 0.178082 0)
(-0.0857493 -0.00941659 0)
(-0.118389 -0.20017 0)
(-0.145165 -0.300553 0)
(-0.102138 -0.331936 0)
(-0.064837 -0.348781 0)
(-0.0302132 -0.337172 0)
(0.00995097 -0.292949 0)
(-0.00449798 -0.236608 0)
(0.0409594 -0.271982 0)
(0.0729503 -0.270607 0)
(0.124958 -0.239086 0)
(0.193986 -0.186776 0)
(0.0963848 0.102583 0)
(0.099504 0.224257 0)
(0.121766 0.262567 0)
(0.150393 0.270441 0)
(0.146511 0.242923 0)
(0.0822713 0.166755 0)
(-0.0118072 0.115579 0)
(-0.000839634 0.0870056 0)
(0.00331696 0.0423626 0)
(0.0120977 0.00873025 0)
(0.0228597 -0.00900046 0)
(0.034522 -0.0145244 0)
(0.0854673 -0.0887729 0)
(-0.0055026 -0.142158 0)
(0.0213686 -0.0653793 0)
(0.0553367 -0.0167018 0)
(0.0355395 -0.000143228 0)
(-0.0426891 -0.0272541 0)
(-0.102075 -0.141988 0)
(-0.0873522 -0.252572 0)
(-0.10843 -0.294026 0)
(-0.0770515 -0.323867 0)
(-0.0410779 -0.345651 0)
(-0.0118693 -0.339754 0)
(0.0324949 -0.290628 0)
(-0.0207804 -0.241827 0)
(0.0258334 -0.281341 0)
(0.0523267 -0.275826 0)
(0.105444 -0.244902 0)
(0.179731 -0.208333 0)
(0.240809 -0.161086 0)
(0.212232 0.0412677 0)
(0.255323 0.130776 0)
(0.215551 0.190461 0)
(0.151692 0.158794 0)
(0.0453271 -0.04161 0)
(-0.0174195 -0.164574 0)
(-0.0571134 -0.153981 0)
(0.00461565 0.0263205 0)
(0.0218634 0.00120092 0)
(0.035202 -0.0235017 0)
(0.0517348 -0.0444396 0)
(0.0802285 -0.104305 0)
(0.0179917 -0.09551 0)
(-0.0433493 0.0689082 0)
(0.0336622 0.027041 0)
(0.0293471 0.0339224 0)
(-0.0155398 0.0114955 0)
(-0.02799 -0.0526611 0)
(-0.0317195 -0.200316 0)
(-0.0642677 -0.260701 0)
(-0.052067 -0.289413 0)
(-0.0329489 -0.315483 0)
(-0.00599943 -0.314401 0)
(0.0364591 -0.256056 0)
(-0.0307572 -0.212598 0)
(0.00963229 -0.25737 0)
(0.036557 -0.247951 0)
(0.0758112 -0.223895 0)
(0.122691 -0.205148 0)
(0.166054 -0.179086 0)
(0.179035 -0.106431 0)
(0.23706 -0.00330851 0)
(0.185001 0.053677 0)
(0.0916447 0.0153189 0)
(0.0368229 -0.0856288 0)
(0.0407041 -0.210744 0)
(0.141143 -0.219854 0)
(-0.0504044 -0.148986 0)
(0.0295875 -0.0282241 0)
(0.045627 -0.0368476 0)
(0.0628736 -0.0537228 0)
(0.0943953 -0.0986206 0)
(0.100759 -0.0818208 0)
(-0.13254 0.196732 0)
(-0.0464415 0.206311 0)
(-0.0156117 0.183991 0)
(0.00330025 0.166012 0)
(0.028627 0.0694081 0)
(0.00820292 -0.122617 0)
(-0.0289281 -0.210054 0)
(-0.0309733 -0.24525 0)
(-0.0261692 -0.278252 0)
(-0.000530083 -0.281666 0)
(0.0330915 -0.20365 0)
(-0.0260297 -0.162154 0)
(0.00631861 -0.219029 0)
(0.0203512 -0.208649 0)
(0.0249238 -0.19484 0)
(0.0396586 -0.202713 0)
(0.0562534 -0.176079 0)
(0.0631249 -0.0620086 0)
(0.128841 0.0273869 0)
(0.122364 0.0424926 0)
(0.0877654 0.0343772 0)
(0.0970301 0.0362328 0)
(0.110879 -0.0109717 0)
(0.19499 -0.0198193 0)
(-0.030247 -0.112119 0)
(0.000904548 -0.103029 0)
(0.0486285 -0.0566417 0)
(0.0678929 -0.0601158 0)
(0.0549837 -0.10576 0)
(-0.218566 -0.0644471 0)
(-0.180018 0.113049 0)
(-0.0794302 0.157591 0)
(-0.0359277 0.195768 0)
(0.00519121 0.222109 0)
(0.0474285 0.140226 0)
(0.0247273 -0.0775647 0)
(0.013811 -0.169385 0)
(-0.013207 -0.210767 0)
(-0.0263299 -0.253334 0)
(-0.00451871 -0.2621 0)
(0.0148972 -0.170816 0)
(-0.0211881 -0.134305 0)
(0.0119845 -0.200246 0)
(0.0117843 -0.186682 0)
(-0.00301039 -0.187284 0)
(-0.0143501 -0.186336 0)
(-0.0231759 -0.1727 0)
(0.00294385 -0.0556653 0)
(0.0370564 0.0931852 0)
(0.0544989 0.11056 0)
(0.0608715 0.10461 0)
(0.092153 0.1032 0)
(0.120286 0.0870981 0)
(0.186205 0.055244 0)
(0.0698397 -0.117239 0)
(0.00725737 -0.134916 0)
(0.0460728 -0.0842837 0)
(0.0991871 -0.0742198 0)
(-0.109442 -0.332664 0)
(-0.178054 -0.278327 0)
(-0.16307 -0.171402 0)
(-0.0888192 -0.11723 0)
(-0.0396645 -0.028667 0)
(0.00295934 0.0460335 0)
(0.0940232 0.0335304 0)
(0.0963254 -0.137968 0)
(0.0342215 -0.154723 0)
(-0.00551174 -0.198319 0)
(-0.0310621 -0.246021 0)
(-0.0293145 -0.252771 0)
(-0.00680245 -0.168323 0)
(-0.0114668 -0.132477 0)
(0.034532 -0.196194 0)
(0.0195442 -0.178447 0)
(-0.0206738 -0.184729 0)
(-0.0910339 -0.265065 0)
(-0.147392 -0.378153 0)
(-0.142759 -0.215418 0)
(-0.0543554 0.0978836 0)
(0.00495023 0.128159 0)
(0.0297796 0.10928 0)
(0.0673891 0.109935 0)
(0.103985 0.0815169 0)
(0.145909 -0.0219171 0)
(0.148755 -0.251574 0)
(0.0354291 -0.300388 0)
(0.0171612 -0.137438 0)
(-0.0730932 -0.4289 0)
(-0.102179 -0.378142 0)
(-0.101923 -0.333486 0)
(-0.0899395 -0.285235 0)
(-0.054197 -0.255885 0)
(-0.00936132 -0.234058 0)
(0.0472907 -0.233102 0)
(0.121457 -0.264914 0)
(0.116745 -0.356971 0)
(0.0862307 -0.311697 0)
(-0.000205098 -0.265345 0)
(-0.0475282 -0.265994 0)
(-0.0597057 -0.279462 0)
(-0.0183406 -0.204824 0)
(0.0302268 -0.125723 0)
(0.0600265 -0.244301 0)
(0.000942018 -0.287437 0)
(-0.0667919 -0.405845 0)
(-0.10502 -0.467143 0)
(-0.141211 -0.462282 0)
(-0.154762 -0.362701 0)
(-0.0986322 -0.0824447 0)
(-0.0286545 -0.0157004 0)
(0.0105629 -0.0299907 0)
(0.0467178 -0.0483629 0)
(0.0735205 -0.129292 0)
(0.0657223 -0.287728 0)
(0.0421887 -0.421806 0)
(-0.0342357 -0.470905 0)
(-0.0992936 -0.457559 0)
(-0.122808 -0.412247 0)
(-0.102747 -0.360844 0)
(-0.0787635 -0.344844 0)
(-0.0650306 -0.329877 0)
(-0.0366289 -0.309453 0)
(0.00225924 -0.302726 0)
(0.0450765 -0.314984 0)
(0.0731751 -0.351281 0)
(0.0787892 -0.398294 0)
(0.0705877 -0.425652 0)
(0.0593594 -0.439194 0)
(0.0205897 -0.384012 0)
(-0.0639216 -0.348728 0)
(0.00372839 -0.227572 0)
(0.0891846 -0.233524 0)
(0.00296288 -0.374416 0)
(-0.069699 -0.43853 0)
(-0.086962 -0.463688 0)
(-0.10321 -0.469461 0)
(-0.103313 -0.452341 0)
(-0.126199 -0.41967 0)
(-0.10437 -0.351689 0)
(-0.0541378 -0.270578 0)
(-0.0164012 -0.243516 0)
(-6.39989e-05 -0.249282 0)
(0.0164728 -0.296348 0)
(0.0131579 -0.376907 0)
(-0.00460259 -0.434278 0)
(-0.0599816 -0.440493 0)
(-0.117569 -0.431589 0)
(-0.131197 -0.376669 0)
(-0.102884 -0.340559 0)
(-0.0781647 -0.322864 0)
(-0.0512606 -0.318096 0)
(-0.0297235 -0.318247 0)
(-0.00126033 -0.320851 0)
(0.0252808 -0.333746 0)
(0.0356469 -0.352248 0)
(0.0490738 -0.353474 0)
(0.0615314 -0.361692 0)
(0.0750516 -0.379644 0)
(0.0657753 -0.427331 0)
(0.0114192 -0.396313 0)
(-0.0463889 -0.234345 0)
(0.00729022 -0.350922 0)
(-0.066801 -0.394801 0)
(-0.0765212 -0.368495 0)
(-0.0951706 -0.377175 0)
(-0.101141 -0.388674 0)
(-0.10428 -0.39086 0)
(-0.0918263 -0.383781 0)
(-0.0922902 -0.379239 0)
(-0.071221 -0.349936 0)
(-0.0439412 -0.336109 0)
(-0.0206808 -0.320621 0)
(0.00343614 -0.339627 0)
(0.0035496 -0.378934 0)
(-0.0169571 -0.391592 0)
(-0.0365305 -0.410018 0)
(-0.0908374 -0.378026 0)
(-0.122443 -0.353312 0)
(-0.113932 -0.306008 0)
(-0.0917523 -0.290559 0)
(-0.0625986 -0.287008 0)
(-0.0396154 -0.284949 0)
(-0.0137199 -0.288131 0)
(0.00954535 -0.294468 0)
(0.0304003 -0.301757 0)
(0.0447834 -0.31371 0)
(0.0605061 -0.329502 0)
(0.0776445 -0.35237 0)
(0.0815105 -0.355755 0)
(0.0711965 -0.380408 0)
(-0.0499577 -0.329892 0)
(-0.0478595 -0.335299 0)
(-0.0726975 -0.320712 0)
(-0.0762683 -0.322508 0)
(-0.0724342 -0.33325 0)
(-0.0735212 -0.357682 0)
(-0.087837 -0.365269 0)
(-0.09822 -0.349189 0)
(-0.0880746 -0.312295 0)
(-0.0670325 -0.300628 0)
(-0.0415043 -0.296244 0)
(-0.0136711 -0.297733 0)
(0.0134424 -0.309711 0)
(0.0269686 -0.317451 0)
(0.0229317 -0.355352 0)
(-0.014776 -0.360373 0)
(-0.0859196 -0.346836 0)
(-0.123049 -0.307961 0)
(-0.119467 -0.2731 0)
(-0.100509 -0.255034 0)
(-0.0764422 -0.248661 0)
(-0.0538608 -0.247784 0)
(-0.0299517 -0.250407 0)
(-0.00703244 -0.255861 0)
(0.0150836 -0.262963 0)
(0.0361681 -0.268893 0)
(0.0653388 -0.285099 0)
(0.0881229 -0.297978 0)
(0.0924672 -0.310135 0)
(0.0766436 -0.312887 0)
(0.0232306 -0.33419 0)
(-0.03551 -0.255139 0)
(-0.0720597 -0.260212 0)
(-0.0673176 -0.27243 0)
(-0.0526617 -0.28421 0)
(-0.0595558 -0.297697 0)
(-0.0807895 -0.309252 0)
(-0.0902232 -0.292371 0)
(-0.0876428 -0.268119 0)
(-0.0623892 -0.250103 0)
(-0.0272644 -0.248953 0)
(-0.00320013 -0.253445 0)
(0.0150475 -0.253088 0)
(0.0241451 -0.280688 0)
(0.0229042 -0.305004 0)
(-0.0338608 -0.312034 0)
(-0.112368 -0.292378 0)
(-0.124513 -0.272529 0)
(-0.11662 -0.244618 0)
(-0.0970767 -0.229509 0)
(-0.0713521 -0.218099 0)
(-0.0494937 -0.211181 0)
(-0.0262326 -0.208244 0)
(-0.00289463 -0.20811 0)
(0.0216899 -0.211981 0)
(0.0505685 -0.223894 0)
(0.0754078 -0.244088 0)
(0.0934643 -0.259631 0)
(0.0953094 -0.264492 0)
(0.0810053 -0.266805 0)
(0.0231885 -0.274313 0)
(-0.0299374 -0.199297 0)
(-0.0648472 -0.202709 0)
(-0.065785 -0.207097 0)
(-0.0638953 -0.218988 0)
(-0.0661115 -0.235295 0)
(-0.0666906 -0.248646 0)
(-0.0661471 -0.253968 0)
(-0.0654413 -0.236595 0)
(-0.0587961 -0.191069 0)
(-0.0301896 -0.174796 0)
(0.00160092 -0.176006 0)
(0.0318936 -0.185318 0)
(0.0389721 -0.22038 0)
(0.0195354 -0.255279 0)
(-0.0229776 -0.253164 0)
(-0.0928364 -0.236087 0)
(-0.122376 -0.217432 0)
(-0.123204 -0.196788 0)
(-0.108045 -0.184866 0)
(-0.0831167 -0.177032 0)
(-0.059109 -0.171652 0)
(-0.0332646 -0.16866 0)
(-0.00662024 -0.168802 0)
(0.0220699 -0.174537 0)
(0.0521207 -0.185734 0)
(0.0824757 -0.198485 0)
(0.103261 -0.205793 0)
(0.104205 -0.205966 0)
(0.0846148 -0.210447 0)
(0.0246255 -0.2269 0)
(-0.0264498 -0.137086 0)
(-0.0586738 -0.140218 0)
(-0.0585777 -0.143898 0)
(-0.049018 -0.154631 0)
(-0.044627 -0.170129 0)
(-0.0509261 -0.186981 0)
(-0.059228 -0.192215 0)
(-0.0632325 -0.182469 0)
(-0.0475544 -0.156054 0)
(-0.021627 -0.131615 0)
(0.00215143 -0.126981 0)
(0.0213731 -0.149672 0)
(0.0300619 -0.172599 0)
(0.020323 -0.190557 0)
(-0.0305159 -0.190176 0)
(-0.102151 -0.17808 0)
(-0.123828 -0.165305 0)
(-0.124171 -0.15011 0)
(-0.110125 -0.140875 0)
(-0.0868402 -0.133701 0)
(-0.0622497 -0.127891 0)
(-0.0352551 -0.123902 0)
(-0.00569045 -0.123554 0)
(0.0260679 -0.128903 0)
(0.0589339 -0.138751 0)
(0.08941 -0.148065 0)
(0.109215 -0.149644 0)
(0.109115 -0.148942 0)
(0.0850188 -0.153606 0)
(0.0235521 -0.174366 0)
(-0.0198205 -0.0815978 0)
(-0.0463767 -0.0863164 0)
(-0.044536 -0.0857484 0)
(-0.0341378 -0.0897184 0)
(-0.0272885 -0.0990245 0)
(-0.0300914 -0.110205 0)
(-0.0413729 -0.121012 0)
(-0.0476966 -0.118157 0)
(-0.0378212 -0.101271 0)
(-0.0192523 -0.0809311 0)
(-0.00171037 -0.0757335 0)
(0.0118208 -0.0917789 0)
(0.0150432 -0.112402 0)
(0.000430056 -0.12904 0)
(-0.0446578 -0.125493 0)
(-0.108438 -0.116509 0)
(-0.127274 -0.106689 0)
(-0.127496 -0.0981848 0)
(-0.113195 -0.0911255 0)
(-0.0912558 -0.085497 0)
(-0.0661926 -0.0806937 0)
(-0.0378318 -0.0771344 0)
(-0.00575349 -0.0767878 0)
(0.0283809 -0.0812542 0)
(0.0625324 -0.088292 0)
(0.0938596 -0.0911004 0)
(0.112228 -0.0889409 0)
(0.109926 -0.088117 0)
(0.080917 -0.0950523 0)
(0.0218792 -0.121672 0)
(-0.0102498 -0.038254 0)
(-0.0274602 -0.0454441 0)
(-0.0231653 -0.041708 0)
(-0.00975225 -0.037836 0)
(0.000522472 -0.0368308 0)
(0.00185089 -0.0386046 0)
(-0.00411395 -0.0469067 0)
(-0.0176267 -0.0574984 0)
(-0.0251985 -0.0529378 0)
(-0.0167146 -0.0359006 0)
(-0.00575816 -0.026211 0)
(-0.00107764 -0.0319082 0)
(-0.00289463 -0.0462551 0)
(-0.0172363 -0.0561372 0)
(-0.0609075 -0.0571946 0)
(-0.117576 -0.0523602 0)
(-0.133407 -0.0450687 0)
(-0.132922 -0.0411669 0)
(-0.116695 -0.0381947 0)
(-0.0951689 -0.0339048 0)
(-0.0695578 -0.029735 0)
(-0.0400572 -0.0264156 0)
(-0.00670643 -0.0261923 0)
(0.0287388 -0.0295213 0)
(0.06366 -0.0307864 0)
(0.0936151 -0.029689 0)
(0.108601 -0.0282394 0)
(0.102658 -0.0289634 0)
(0.0696 -0.0394215 0)
(0.0184303 -0.0707191 0)
(-0.000279029 -0.0133899 0)
(-0.00646422 -0.0193149 0)
(-0.000922796 -0.00885147 0)
(0.00943339 0.00791572 0)
(0.0184042 0.0224477 0)
(0.0211647 0.034517 0)
(0.0147712 0.041738 0)
(-0.00701692 0.0368447 0)
(-0.0444124 0.0277924 0)
(-0.0525242 0.0354565 0)
(-0.0378514 0.0418689 0)
(-0.0279543 0.0366362 0)
(-0.0281211 0.0225466 0)
(-0.0379274 0.0167031 0)
(-0.0783772 0.0122928 0)
(-0.126675 0.01436 0)
(-0.140079 0.0196518 0)
(-0.139359 0.0224369 0)
(-0.121666 0.0231864 0)
(-0.0994983 0.0251857 0)
(-0.0731431 0.0275692 0)
(-0.0424372 0.0302164 0)
(-0.00819401 0.0313225 0)
(0.0279549 0.0310953 0)
(0.0616007 0.0300537 0)
(0.0870061 0.0293718 0)
(0.0967072 0.0273448 0)
(0.084906 0.0222306 0)
(0.0524676 0.00614862 0)
(0.0131833 -0.0265691 0)
(0.00742421 -0.00615188 0)
(0.0111825 -0.0036886 0)
(0.01859 0.0171434 0)
(0.0281381 0.0455259 0)
(0.0332572 0.076434 0)
(0.0308424 0.108681 0)
(0.0172521 0.13492 0)
(-0.00542299 0.140528 0)
(-0.0532486 0.122693 0)
(-0.0820369 0.113826 0)
(-0.0744705 0.115122 0)
(-0.0581692 0.107376 0)
(-0.053004 0.0984634 0)
(-0.0595028 0.0893774 0)
(-0.0959482 0.0820923 0)
(-0.135154 0.0822273 0)
(-0.145911 0.0862154 0)
(-0.144233 0.0875859 0)
(-0.126315 0.0883723 0)
(-0.103837 0.0895543 0)
(-0.0764654 0.0912772 0)
(-0.044269 0.0930997 0)
(-0.00903927 0.0927009 0)
(0.0257418 0.0900367 0)
(0.0548884 0.0851518 0)
(0.0731363 0.0788042 0)
(0.0763034 0.0708493 0)
(0.0615433 0.0595491 0)
(0.0377438 0.0392375 0)
(0.00873929 0.00366434 0)
(0.012048 -0.00583475 0)
(0.0230668 0.00938582 0)
(0.0326551 0.0405704 0)
(0.0362732 0.0794321 0)
(0.0348821 0.123236 0)
(0.0198035 0.168843 0)
(0.00755599 0.208112 0)
(-0.00730415 0.233781 0)
(-0.0481024 0.234459 0)
(-0.0969878 0.214539 0)
(-0.104563 0.197969 0)
(-0.0876337 0.18347 0)
(-0.0762481 0.174752 0)
(-0.0818025 0.161404 0)
(-0.112451 0.150767 0)
(-0.142183 0.148358 0)
(-0.150633 0.150662 0)
(-0.146001 0.150488 0)
(-0.128695 0.150462 0)
(-0.105884 0.150394 0)
(-0.0782102 0.15051 0)
(-0.0455084 0.149841 0)
(-0.0109379 0.145633 0)
(0.0195628 0.137137 0)
(0.0411768 0.124859 0)
(0.0509065 0.110755 0)
(0.0501298 0.0970637 0)
(0.0408087 0.0831021 0)
(0.0271849 0.0627233 0)
(0.00679205 0.0235648 0)
(0.0132412 -0.00263437 0)
(0.0240368 0.0262195 0)
(0.0248074 0.0632776 0)
(0.0225136 0.103275 0)
(0.0151732 0.149438 0)
(0.00309028 0.205028 0)
(-0.024241 0.270552 0)
(-0.0630251 0.330229 0)
(-0.0997986 0.346841 0)
(-0.135823 0.32069 0)
(-0.140496 0.28886 0)
(-0.117136 0.266734 0)
(-0.101636 0.249414 0)
(-0.10555 0.230304 0)
(-0.127774 0.214988 0)
(-0.147388 0.208379 0)
(-0.152378 0.206672 0)
(-0.144553 0.203871 0)
(-0.127565 0.201527 0)
(-0.105237 0.198835 0)
(-0.078463 0.195286 0)
(-0.0480054 0.189362 0)
(-0.0173965 0.17871 0)
(0.00551056 0.162243 0)
(0.0191332 0.14287 0)
(0.0252713 0.124528 0)
(0.0268816 0.109842 0)
(0.0246343 0.0964449 0)
(0.0187903 0.078204 0)
(0.00617765 0.0381613 0)
(0.0112427 0.00671336 0)
(0.0144055 0.0411344 0)
(0.0116098 0.0766522 0)
(0.00422125 0.115889 0)
(-0.0139287 0.166571 0)
(-0.0588211 0.248117 0)
(-0.126169 0.351424 0)
(-0.168465 0.418098 0)
(-0.18381 0.430507 0)
(-0.199539 0.413566 0)
(-0.184336 0.371504 0)
(-0.154111 0.338464 0)
(-0.133361 0.311203 0)
(-0.131198 0.285747 0)
(-0.142345 0.265705 0)
(-0.151645 0.253139 0)
(-0.15112 0.245138 0)
(-0.141211 0.238383 0)
(-0.124957 0.23188 0)
(-0.104279 0.224623 0)
(-0.0802665 0.2155 0)
(-0.0543861 0.203324 0)
(-0.0312237 0.186367 0)
(-0.0144733 0.165883 0)
(-0.00345382 0.145945 0)
(0.00402585 0.128537 0)
(0.00903436 0.114436 0)
(0.0115583 0.102335 0)
(0.0115314 0.0869278 0)
(0.00538954 0.0489224 0)
(0.00858481 0.0127224 0)
(0.0077254 0.0481836 0)
(0.0043671 0.0835041 0)
(-0.0101031 0.125321 0)
(-0.0576592 0.208083 0)
(-0.158115 0.334563 0)
(-0.227814 0.435129 0)
(-0.252208 0.480694 0)
(-0.254525 0.489316 0)
(-0.249339 0.465859 0)
(-0.224118 0.416541 0)
(-0.191385 0.376149 0)
(-0.164581 0.345119 0)
(-0.155165 0.317203 0)
(-0.15547 0.293992 0)
(-0.15496 0.276399 0)
(-0.14925 0.262786 0)
(-0.13839 0.250878 0)
(-0.123459 0.239598 0)
(-0.105065 0.227901 0)
(-0.0842072 0.214732 0)
(-0.0638593 0.198798 0)
(-0.0467037 0.180617 0)
(-0.0321411 0.161726 0)
(-0.0206761 0.143288 0)
(-0.0117486 0.126983 0)
(-0.004585 0.113908 0)
(0.00105005 0.103116 0)
(0.00505525 0.0902805 0)
(0.00396199 0.0560193 0)
(0.00351438 0.0165636 0)
(-0.000879053 0.0543495 0)
(-0.00593935 0.0981512 0)
(-0.0333287 0.164445 0)
(-0.142023 0.311579 0)
(-0.223825 0.421074 0)
(-0.277685 0.483984 0)
(-0.285333 0.505304 0)
(-0.277554 0.509169 0)
(-0.258813 0.479775 0)
(-0.238846 0.426177 0)
(-0.21055 0.383657 0)
(-0.185035 0.352582 0)
(-0.170775 0.325778 0)
(-0.16296 0.302434 0)
(-0.156044 0.282642 0)
(-0.147538 0.265644 0)
(-0.136621 0.250496 0)
(-0.122901 0.236003 0)
(-0.107106 0.221243 0)
(-0.0903671 0.205748 0)
(-0.0737183 0.189587 0)
(-0.0582397 0.172351 0)
(-0.0446194 0.154529 0)
(-0.033098 0.137402 0)
(-0.023334 0.122402 0)
(-0.0147796 0.110358 0)
(-0.00718327 0.100571 0)
(-0.000588403 0.0896086 0)
(0.00200793 0.0593482 0)
(-0.00386505 0.0213367 0)
(-0.0198159 0.0647032 0)
(-0.0520968 0.131194 0)
(-0.129442 0.264066 0)
(-0.225618 0.396674 0)
(-0.263159 0.468497 0)
(-0.28811 0.49644 0)
(-0.270315 0.486851 0)
(-0.231561 0.467519 0)
(-0.241388 0.466969 0)
(-0.22805 0.420019 0)
(-0.207151 0.378021 0)
(-0.186493 0.348105 0)
(-0.172443 0.323599 0)
(-0.162774 0.301635 0)
(-0.154395 0.281542 0)
(-0.145287 0.263082 0)
(-0.13465 0.24566 0)
(-0.122475 0.228978 0)
(-0.108965 0.212702 0)
(-0.0946214 0.196387 0)
(-0.0801496 0.179776 0)
(-0.0662656 0.162804 0)
(-0.0534745 0.145929 0)
(-0.0419986 0.130042 0)
(-0.0317014 0.116189 0)
(-0.022251 0.104984 0)
(-0.0134323 0.095899 0)
(-0.00523303 0.0861037 0)
(-4.24699e-05 0.059145 0)
(-0.0100214 0.0262626 0)
(-0.0250927 0.0762872 0)
(-0.144869 0.18704 0)
(-0.226441 0.360764 0)
(-0.273144 0.445708 0)
(-0.273143 0.480795 0)
(-0.220723 0.45618 0)
(-0.10951 0.377128 0)
(-0.123692 0.375955 0)
(-0.164547 0.395863 0)
(-0.178242 0.394055 0)
(-0.174459 0.363864 0)
(-0.167578 0.338564 0)
(-0.160841 0.317514 0)
(-0.154755 0.297388 0)
(-0.148389 0.277549 0)
(-0.140963 0.258239 0)
(-0.132114 0.239615 0)
(-0.121768 0.221598 0)
(-0.110132 0.204039 0)
(-0.0975996 0.186803 0)
(-0.0846883 0.169803 0)
(-0.0719192 0.153068 0)
(-0.059704 0.136915 0)
(-0.0482812 0.121964 0)
(-0.0376445 0.108982 0)
(-0.0276091 0.098419 0)
(-0.018013 0.0898222 0)
(-0.00881455 0.0806779 0)
(-0.00187698 0.0560434 0)
(-0.0360049 0.0388406 0)
(-0.0722312 0.106934 0)
(-0.19913 0.242734 0)
(-0.24051 0.401504 0)
(-0.253575 0.432346 0)
(-0.123452 0.391422 0)
(-0.0545312 0.351192 0)
(-0.0627746 0.346775 0)
(-0.0738697 0.347729 0)
(-0.0906434 0.349091 0)
(-0.114216 0.357189 0)
(-0.126562 0.345577 0)
(-0.132658 0.328675 0)
(-0.136399 0.311388 0)
(-0.138194 0.293116 0)
(-0.137525 0.273735 0)
(-0.134171 0.253841 0)
(-0.128274 0.234033 0)
(-0.120199 0.214661 0)
(-0.110412 0.195875 0)
(-0.0994063 0.177736 0)
(-0.0876919 0.160275 0)
(-0.0757498 0.143551 0)
(-0.0639681 0.127796 0)
(-0.0526081 0.113458 0)
(-0.0417531 0.101102 0)
(-0.0313287 0.0910234 0)
(-0.0212286 0.0827629 0)
(-0.0114036 0.0739285 0)
(-0.00332365 0.0508461 0)
(-0.0611106 0.0818216 0)
(-0.165714 0.194371 0)
(-0.188829 0.303435 0)
(-0.196526 0.385488 0)
(-0.0379531 0.321188 0)
(-0.0177376 0.313545 0)
(-0.0307459 0.326344 0)
(-0.0369429 0.334701 0)
(-0.0445267 0.33942 0)
(-0.0596226 0.345343 0)
(-0.0806232 0.347853 0)
(-0.0930455 0.338802 0)
(-0.103058 0.32547 0)
(-0.112371 0.309947 0)
(-0.119797 0.292086 0)
(-0.124235 0.272218 0)
(-0.125203 0.251187 0)
(-0.122734 0.22988 0)
(-0.117276 0.208946 0)
(-0.109469 0.188753 0)
(-0.0999558 0.169508 0)
(-0.0893191 0.15135 0)
(-0.0780924 0.13435 0)
(-0.0666921 0.118685 0)
(-0.0554196 0.104687 0)
(-0.0444355 0.0927523 0)
(-0.0337576 0.0830278 0)
(-0.0233353 0.0749833 0)
(-0.0131304 0.0662398 0)
(-0.00432172 0.044349 0)
(-0.104033 0.174575 0)