/*--------------------------------*- C++ -*----------------------------------*\
| =========                 |                                                 |
| \\      /  F ield         | OpenFOAM: The Open Source CFD Toolbox           |
|  \\    /   O peration     | Version:  v1606+                                |
|   \\  /    A nd           | Web:      www.OpenFOAM.com                      |
|    \\/     M anipulation  |                                                 |
\*---------------------------------------------------------------------------*/
FoamFile
{
    version     2.0;
    format      ascii;
    class       surfaceScalarField;
    location    "1.2";
    object      meshPhi;
}
// * * * * * * * * * * * * * * * * * * * * * * * * * * * * * * * * * * * * * //

dimensions      [0 3 -1 0 0 0 0];

internalField   nonuniform List<scalar> 
5856
(
-0.000312261
-3.09584e-09
-0.000312257
-3.02234e-09
-0.000312265
3.91526e-09
-0.000312257
-6.08932e-09
-0.000312258
6.3673e-10
-0.000312262
3.14389e-09
-0.000312255
-3.9489e-10
-0.000312258
1.80063e-09
-0.000312258
-1.18085e-09
-0.000312261
2.23997e-09
-0.00031226
-6.03347e-09
5.36445e-09
-0.000312259
-0.000348999
-3.192e-10
-0.000348996
-3.98957e-09
-0.000348995
1.30505e-09
-0.000349004
2.93637e-09
-0.000349004
1.49642e-09
-0.000349002
-3.8535e-11
-0.000348998
-7.77338e-09
-0.000348997
1.78206e-09
-0.000349003
5.39788e-09
-0.000348995
-6.37319e-09
-0.000349005
3.91798e-09
4.93242e-09
-0.000349005
-0.000385735
-2.37339e-09
-0.000385742
1.46615e-09
-0.000385741
-1.918e-10
-0.000385735
-2.26111e-09
-0.000385729
-3.47242e-09
-0.000385737
9.1174e-09
-0.000385737
-8.67748e-09
-0.000385742
7.00093e-09
-0.000385733
-2.38858e-09
-0.000385741
6.55569e-10
-0.000385735
-2.17834e-09
3.89092e-09
-0.000385733
-0.000422468
3.4627e-10
-0.000422473
8.26795e-09
-0.000422466
-7.9914e-09
-0.000422465
-2.2882e-09
-0.000422475
4.65935e-09
-0.000422462
-5.08041e-09
-0.000422469
-2.06703e-09
-0.000422467
3.73263e-09
-0.000422475
4.35883e-09
-0.000422467
-7.29261e-09
-0.000422469
-2.67546e-10
4.33492e-09
-0.00042247
-0.000459211
7.6994e-09
-0.000459203
1.3343e-09
-0.000459207
-2.90225e-09
-0.000459213
2.852e-09
-0.000459209
2.33295e-09
-0.000459212
-1.71977e-09
-0.000459215
2.97284e-09
-0.000459207
-4.36194e-09
-0.000459197
-5.15203e-09
-0.000459215
1.168e-08
-0.000459207
-7.95761e-09
1.19169e-08
-0.000459215
-0.000495949
2.6918e-09
-0.000495947
-3.1515e-10
-0.000495952
1.6319e-09
-0.00049594
-1.01706e-08
-0.000495946
1.02313e-08
-0.000495942
-5.51229e-09
-0.000495943
3.38413e-09
-0.000495948
1.02871e-09
-0.000495953
-1.49804e-09
-0.00049594
1.71614e-10
-0.000495944
-2.85942e-09
-8.0489e-10
-0.000495932
-0.000532685
1.06957e-08
-0.000532683
-3.27665e-09
-0.000532674
-9.7364e-09
-0.000532684
1.01055e-09
-0.000532677
1.3728e-09
-0.000532685
9.66535e-10
-0.000532679
7.0172e-10
-0.000532679
3.43047e-09
-0.000532685
3.65806e-09
-0.00053269
4.07719e-09
-0.000532681
-1.21741e-08
-2.51814e-09
-0.000532678
-0.000569404
-6.1461e-09
-0.000569412
4.6679e-09
-0.000569427
4.60435e-09
-0.000569423
-2.64345e-09
-0.00056942
-1.2063e-09
-0.000569415
-3.15216e-09
-0.000569416
1.50636e-09
-0.000569411
-2.6255e-09
-0.000569404
-4.0665e-09
-0.000569401
7.82655e-10
-0.000569427
1.15367e-08
-1.61767e-08
-0.000569414
-0.000606168
1.37283e-08
-0.000606158
-5.0084e-09
-0.000606146
-7.88175e-09
-0.000606148
-2.3845e-10
-0.000606149
-6.295e-10
-0.000606162
9.2062e-09
-0.000606164
1.108e-09
-0.000606164
-1.50865e-10
-0.000606164
-3.84826e-09
-0.000606165
1.59731e-09
-0.000606154
2.15767e-09
-5.2417e-09
-0.000606166
-0.000642887
4.6521e-09
-0.000642893
2.60625e-09
-0.000642891
-7.1631e-09
-0.000642898
7.6904e-09
-0.000642903
6.29385e-09
-0.000642892
-2.75535e-09
-0.000642882
-8.5516e-09
-0.000642889
5.56882e-09
-0.000642902
8.00326e-09
-0.000642885
-1.45756e-08
-0.000642891
9.6199e-09
-7.53696e-09
-0.000642889
-0.000679633
7.2248e-09
-0.00067962
-6.17995e-09
-0.000679638
1.02394e-08
-0.000679632
2.3568e-09
-0.000679618
-6.27465e-09
-0.000679617
-6.7158e-09
-0.000679626
-6.5035e-10
-0.000679621
-1.00909e-09
-0.000679607
-7.70514e-09
-0.000679625
4.95445e-09
-0.000679624
1.04137e-08
-8.11739e-09
-0.000679625
-0.000716369
7.05895e-09
-0.000716367
-1.04238e-08
-0.000716354
-4.5349e-09
-0.000716356
5.5046e-09
-0.000716371
5.2344e-09
-0.000716373
-5.68255e-09
-0.000716375
3.28639e-09
-0.000716376
2.04216e-09
-0.000716375
-7.5549e-09
-0.000716372
7.5728e-10
-0.000716363
2.2352e-09
-0.000716361
-1.10143e-08
-0.00031226
-7.476e-10
-0.000312258
-1.51934e-09
-0.00031226
-9.31545e-10
-0.000312259
3.2013e-10
-0.000312261
4.49302e-09
-0.00031226
-1.03955e-09
-0.000312262
5.15385e-10
-0.000312262
2.45479e-10
-0.000312259
5.1517e-10
-0.000312259
-9.48805e-10
-0.000312267
4.4165e-09
1.08765e-09
-0.000348996
-9.12496e-09
-0.000349002
4.70665e-09
-0.000349004
1.68229e-09
-0.000349002
-8.35485e-10
-0.000348997
7.3515e-11
-0.000348997
-1.4785e-09
-0.000349004
7.4296e-09
-0.000349001
-2.3505e-09
-0.000348998
-2.36952e-09
-0.000349007
7.8936e-09
-0.000348998
-3.69297e-09
-3.22701e-09
-0.000385741
-1.3368e-09
-0.000385739
2.9337e-09
-0.000385733
-4.50827e-09
-0.00038574
6.10267e-09
-0.000385734
-7.14629e-09
-0.000385733
-1.82825e-09
-0.000385725
-6.63799e-10
-0.000385731
1.43873e-09
-0.000385735
-8.55e-11
-0.000385731
2.22885e-09
-0.000385735
2.73925e-10
-2.6085e-10
-0.000422469
-1.98368e-09
-0.000422467
6.327e-10
-0.000422471
-1.63432e-09
-0.000422469
3.25217e-09
-0.000422479
4.09912e-09
-0.000422478
-2.3826e-09
-0.000422472
-8.15483e-09
-0.000422472
1.98677e-09
-0.000422472
3.4085e-10
-0.000422466
-2.94027e-09
-0.000422467
8.16165e-10
2.12738e-09
-0.000459206
-1.18118e-08
-0.000459214
9.25892e-09
-0.000459207
-9.29856e-09
-0.000459205
2.71106e-09
-0.000459198
-7.0692e-10
-0.000459209
9.82137e-09
-0.000459216
-2.84966e-09
-0.000459212
-1.25792e-09
-0.000459204
-6.96385e-09
-0.000459211
5.32906e-09
-0.000459207
-3.06728e-09
-5.2494e-09
-0.000495942
-3.80829e-09
-0.00049594
4.578e-09
-0.000495954
3.5138e-09
-0.000495942
-1.07488e-08
-0.000495944
1.32952e-09
-0.000495944
1.0124e-08
-0.000495942
-2.84199e-09
-0.000495949
5.82516e-09
-0.000495954
-2.2841e-09
-0.000495939
-1.11653e-08
-0.000495943
2.21554e-09
3.98581e-09
-0.00053269
7.75525e-09
-0.000532676
-8.38755e-09
-0.00053268
7.7856e-09
-0.000532689
-1.85759e-09
-0.00053268
-6.6842e-09
-0.000532669
-2.17245e-09
-0.000532678
7.51656e-09
-0.000532671
-1.10578e-09
-0.000532671
-4.05489e-09
-0.000532684
1.45891e-09
-0.000532681
-1.721e-10
-1.79852e-09
-0.000569415
9.90416e-09
-0.000569424
8.8456e-10
-0.000569417
-9.1625e-10
-0.000569426
6.72223e-09
-0.000569429
-2.27438e-09
-0.000569417
-1.37163e-08
-0.000569419
1.12223e-08
-0.000569411
-7.9254e-09
-0.000569419
3.92896e-09
-0.000569421
4.32526e-09
-0.000569428
3.97585e-09
-8.39205e-09
-0.000606152
-6.02245e-09
-0.000606148
-2.27231e-09
-0.000606152
3.6777e-09
-0.00060615
3.01776e-09
-0.000606153
-7.563e-11
-0.000606165
-3.32401e-09
-0.000606152
-4.28288e-09
-0.000606161
-1.728e-09
-0.000606161
5.46054e-09
-0.000606157
2.81306e-09
-0.000606148
-3.89886e-09
-8.3514e-09
-0.000642901
7.67093e-09
-0.000642899
-5.71698e-09
-0.000642902
8.8006e-09
-0.000642886
-1.10457e-08
-0.00064289
5.38228e-09
-0.000642889
-4.10175e-09
-0.000642888
-4.24311e-09
-0.000642898
7.9028e-09
-0.000642891
-1.084e-10
-0.000642883
-4.519e-09
-0.000642888
-1.2691e-10
-6.564e-10
-0.000679624
9.87135e-09
-0.000679636
5.73515e-09
-0.000679625
-1.7464e-09
-0.000679623
-1.62692e-08
-0.000679626
8.29759e-09
-0.000679626
-4.67837e-09
-0.000679629
-6.73389e-10
-0.000679616
-6.78394e-09
-0.000679629
1.32407e-08
-0.000679639
6.34925e-09
-0.000679633
-6.62494e-09
-5.42e-09
-0.000716361
9.51531e-09
-0.000716358
2.258e-09
-0.000716346
-1.02731e-08
-0.000716374
1.21962e-08
-0.000716363
-2.7956e-09
-0.000716362
-5.5715e-09
-0.000716362
-3.84712e-10
-0.000716371
3.67283e-09
-0.000716359
-2.1116e-10
-0.000716358
2.56627e-09
-0.000716374
9.45297e-09
-1.06812e-08
-0.000312261
-3.09584e-09
-0.000312257
-3.02234e-09
-0.000312265
3.91526e-09
-0.000312257
-6.08932e-09
-0.000312258
6.3673e-10
-0.000312262
3.14389e-09
-0.000312255
-3.9489e-10
-0.000312258
1.80063e-09
-0.000312258
-1.18085e-09
-0.000312261
2.23997e-09
-0.00031226
-6.03347e-09
5.36445e-09
-0.000312259
-0.000348999
-3.192e-10
-0.000348996
-3.98957e-09
-0.000348995
1.30505e-09
-0.000349004
2.93637e-09
-0.000349004
1.49642e-09
-0.000349002
-3.8535e-11
-0.000348998
-7.77338e-09
-0.000348997
1.78206e-09
-0.000349003
5.39788e-09
-0.000348995
-6.37319e-09
-0.000349005
3.91798e-09
4.93242e-09
-0.000349005
-0.000385735
-2.37339e-09
-0.000385742
1.46615e-09
-0.000385741
-1.918e-10
-0.000385735
-2.26111e-09
-0.000385729
-3.47242e-09
-0.000385737
9.1174e-09
-0.000385737
-8.67748e-09
-0.000385742
7.00093e-09
-0.000385733
-2.38858e-09
-0.000385741
6.55569e-10
-0.000385735
-2.17834e-09
3.89092e-09
-0.000385733
-0.000422468
3.4627e-10
-0.000422473
8.26795e-09
-0.000422466
-7.9914e-09
-0.000422465
-2.2882e-09
-0.000422475
4.65935e-09
-0.000422462
-5.08041e-09
-0.000422469
-2.06703e-09
-0.000422467
3.73263e-09
-0.000422475
4.35883e-09
-0.000422467
-7.29261e-09
-0.000422469
-2.67546e-10
4.49213e-09
-0.00042247
-0.000459211
7.6994e-09
-0.000459203
1.3343e-09
-0.000459207
-2.90225e-09
-0.000459213
2.852e-09
-0.000459209
2.33295e-09
-0.000459212
-1.71977e-09
-0.000459215
2.97284e-09
-0.000459207
-4.36194e-09
-0.000459197
-5.15203e-09
-0.000459215
1.168e-08
-0.000459207
-7.95761e-09
1.19169e-08
-0.000459215
-0.000495949
2.6918e-09
-0.000495947
-3.1515e-10
-0.000495952
1.6319e-09
-0.00049594
-1.01706e-08
-0.000495946
1.02313e-08
-0.000495942
-5.51229e-09
-0.000495943
3.38413e-09
-0.000495948
1.02871e-09
-0.000495953
-1.49804e-09
-0.00049594
1.71614e-10
-0.000495944
-2.85942e-09
-8.0489e-10
-0.000495932
-0.000532685
1.06957e-08
-0.000532683
-3.27665e-09
-0.000532674
-9.7364e-09
-0.000532684
1.01055e-09
-0.000532677
1.3728e-09
-0.000532685
9.66535e-10
-0.000532679
7.0172e-10
-0.000532679
3.43047e-09
-0.000532685
3.65806e-09
-0.00053269
4.07719e-09
-0.000532681
-1.21741e-08
-2.51814e-09
-0.000532678
-0.000569404
-6.1461e-09
-0.000569412
4.6679e-09
-0.000569427
4.60435e-09
-0.000569423
-2.64345e-09
-0.00056942
-1.2063e-09
-0.000569415
-3.15216e-09
-0.000569416
1.50636e-09
-0.000569411
-2.6255e-09
-0.000569404
-4.0665e-09
-0.000569401
7.82655e-10
-0.000569427
1.15367e-08
-1.61767e-08
-0.000569414
-0.000606168
1.37283e-08
-0.000606158
-5.0084e-09
-0.000606146
-7.88175e-09
-0.000606148
-2.3845e-10
-0.000606149
-6.295e-10
-0.000606162
9.2062e-09
-0.000606164
1.108e-09
-0.000606164
-1.50865e-10
-0.000606164
-3.84826e-09
-0.000606165
1.59731e-09
-0.000606154
2.15767e-09
-5.2417e-09
-0.000606166
-0.000642887
4.6521e-09
-0.000642893
2.60625e-09
-0.000642891
-7.1631e-09
-0.000642898
7.6904e-09
-0.000642903
6.29385e-09
-0.000642892
-2.75535e-09
-0.000642882
-8.5516e-09
-0.000642889
5.56882e-09
-0.000642902
8.00326e-09
-0.000642885
-1.45756e-08
-0.000642891
9.6199e-09
-7.53696e-09
-0.000642889
-0.000679633
7.2248e-09
-0.00067962
-6.17995e-09
-0.000679638
1.02394e-08
-0.000679632
2.3568e-09
-0.000679618
-6.27465e-09
-0.000679617
-6.7158e-09
-0.000679626
-6.5035e-10
-0.000679621
-1.00909e-09
-0.000679607
-7.70514e-09
-0.000679625
4.95445e-09
-0.000679624
1.04137e-08
-8.11739e-09
-0.000679625
-0.000716369
7.05895e-09
-0.000716367
-1.04238e-08
-0.000716354
-4.5349e-09
-0.000716356
5.5046e-09
-0.000716371
5.2344e-09
-0.000716373
-5.68255e-09
-0.000716375
3.28639e-09
-0.000716376
2.04216e-09
-0.000716375
-7.5549e-09
-0.000716372
7.5728e-10
-0.000716363
2.2352e-09
-0.000716361
-1.07523e-08
-0.00031226
-7.476e-10
-0.000312258
-1.51934e-09
-0.00031226
-9.31545e-10
-0.000312259
3.2013e-10
-0.000312261
4.49302e-09
-0.00031226
-1.03955e-09
-0.000312262
5.15385e-10
-0.000312262
2.45479e-10
-0.000312259
5.1517e-10
-0.000312259
-9.48805e-10
-0.000312267
4.4165e-09
1.08765e-09
-0.000348996
-9.12496e-09
-0.000349002
4.70665e-09
-0.000349004
1.68229e-09
-0.000349002
-8.35485e-10
-0.000348997
7.3515e-11
-0.000348997
-1.4785e-09
-0.000349004
7.4296e-09
-0.000349001
-2.3505e-09
-0.000348998
-2.36952e-09
-0.000349007
7.8936e-09
-0.000348998
-3.69297e-09
-3.22701e-09
-0.000385741
-1.3368e-09
-0.000385739
2.9337e-09
-0.000385733
-4.50827e-09
-0.00038574
6.10267e-09
-0.000385734
-7.14629e-09
-0.000385733
-1.82825e-09
-0.000385725
-6.63799e-10
-0.000385731
1.43873e-09
-0.000385735
-8.55e-11
-0.000385731
2.22885e-09
-0.000385735
2.73925e-10
-2.6085e-10
-0.000422469
-2.1102e-09
-0.000422467
6.327e-10
-0.000422471
-1.63432e-09
-0.000422469
3.25217e-09
-0.000422479
4.09912e-09
-0.000422478
-2.3826e-09
-0.000422472
-8.15483e-09
-0.000422472
1.98677e-09
-0.000422472
3.4085e-10
-0.000422466
-2.94027e-09
-0.000422467
8.16165e-10
2.12738e-09
-0.000459206
-1.18118e-08
-0.000459214
9.25892e-09
-0.000459207
-9.29856e-09
-0.000459205
2.71106e-09
-0.000459198
-7.0692e-10
-0.000459209
9.82137e-09
-0.000459216
-2.84966e-09
-0.000459212
-1.25792e-09
-0.000459204
-6.96385e-09
-0.000459211
5.32906e-09
-0.000459207
-3.06728e-09
-5.2494e-09
-0.000495942
-3.80829e-09
-0.00049594
4.578e-09
-0.000495954
3.5138e-09
-0.000495942
-1.07488e-08
-0.000495944
1.32952e-09
-0.000495944
1.0124e-08
-0.000495942
-2.84199e-09
-0.000495949
5.82516e-09
-0.000495954
-2.2841e-09
-0.000495939
-1.11653e-08
-0.000495943
2.21554e-09
3.98581e-09
-0.00053269
7.75525e-09
-0.000532676
-8.38755e-09
-0.00053268
7.7856e-09
-0.000532689
-1.85759e-09
-0.00053268
-6.6842e-09
-0.000532669
-2.17245e-09
-0.000532678
7.51656e-09
-0.000532671
-1.10578e-09
-0.000532671
-4.05489e-09
-0.000532684
1.45891e-09
-0.000532681
-1.721e-10
-1.79852e-09
-0.000569415
9.90416e-09
-0.000569424
8.8456e-10
-0.000569417
-9.1625e-10
-0.000569426
6.72223e-09
-0.000569429
-2.27438e-09
-0.000569417
-1.37163e-08
-0.000569419
1.12223e-08
-0.000569411
-7.9254e-09
-0.000569419
3.92896e-09
-0.000569421
4.32526e-09
-0.000569428
3.97585e-09
-8.39205e-09
-0.000606152
-6.02245e-09
-0.000606148
-2.27231e-09
-0.000606152
3.6777e-09
-0.00060615
3.01776e-09
-0.000606153
-7.563e-11
-0.000606165
-3.32401e-09
-0.000606152
-4.28288e-09
-0.000606161
-1.728e-09
-0.000606161
5.46054e-09
-0.000606157
2.81306e-09
-0.000606148
-3.89886e-09
-8.3514e-09
-0.000642901
7.67093e-09
-0.000642899
-5.71698e-09
-0.000642902
8.8006e-09
-0.000642886
-1.10457e-08
-0.00064289
5.38228e-09
-0.000642889
-4.10175e-09
-0.000642888
-4.24311e-09
-0.000642898
7.9028e-09
-0.000642891
4.8627e-10
-0.000642883
-5.07908e-09
-0.000642888
-1.2691e-10
-6.564e-10
-0.000679624
9.87135e-09
-0.000679636
5.73515e-09
-0.000679625
-1.7464e-09
-0.000679623
-1.62692e-08
-0.000679626
8.29759e-09
-0.000679626
-4.67837e-09
-0.000679629
-6.73389e-10
-0.000679616
-6.78394e-09
-0.000679629
1.32407e-08
-0.000679639
6.34925e-09
-0.000679633
-6.62494e-09
-5.42e-09
-0.000716361
9.30444e-09
-0.000716358
2.258e-09
-0.000716346
-1.02731e-08
-0.000716374
1.21962e-08
-0.000716363
-2.7956e-09
-0.000716362
-5.5715e-09
-0.000716362
-3.84712e-10
-0.000716371
3.67283e-09
-0.000716359
-2.1116e-10
-0.000716358
2.56627e-09
-0.000716374
9.45297e-09
-1.06812e-08
-0.000312261
-3.09584e-09
-0.000312257
-3.02234e-09
-0.000312265
3.91526e-09
-0.000312257
-6.08932e-09
-0.000312258
6.3673e-10
-0.000312262
3.14389e-09
-0.000312255
-3.9489e-10
-0.000312258
1.80063e-09
-0.000312258
-1.18085e-09
-0.000312261
2.23997e-09
-0.00031226
-6.03347e-09
5.36445e-09
-0.000312259
-0.000348999
-3.192e-10
-0.000348996
-3.98957e-09
-0.000348995
1.30505e-09
-0.000349004
2.93637e-09
-0.000349004
1.49642e-09
-0.000349002
-3.8535e-11
-0.000348998
-7.77338e-09
-0.000348997
1.78206e-09
-0.000349003
5.39788e-09
-0.000348995
-6.37319e-09
-0.000349005
3.91798e-09
4.93242e-09
-0.000349005
-0.000385735
-2.37339e-09
-0.000385742
1.46615e-09
-0.000385741
-1.918e-10
-0.000385735
-2.26111e-09
-0.000385729
-3.47242e-09
-0.000385737
9.1174e-09
-0.000385737
-8.67748e-09
-0.000385742
7.00093e-09
-0.000385733
-2.38858e-09
-0.000385741
6.55569e-10
-0.000385735
-2.17834e-09
3.89092e-09
-0.000385733
-0.000422468
3.4627e-10
-0.000422473
8.26795e-09
-0.000422466
-7.9914e-09
-0.000422465
-2.2882e-09
-0.000422475
4.65935e-09
-0.000422462
-5.08041e-09
-0.000422469
-2.06703e-09
-0.000422467
3.73263e-09
-0.000422475
4.35883e-09
-0.000422467
-7.29261e-09
-0.000422469
-2.67546e-10
4.33492e-09
-0.00042247
-0.000459211
7.6994e-09
-0.000459203
1.3343e-09
-0.000459207
-2.90225e-09
-0.000459213
2.852e-09
-0.000459209
2.33295e-09
-0.000459211
-2.21634e-09
-0.000459215
3.51903e-09
-0.000459207
-4.36194e-09
-0.000459197
-5.15203e-09
-0.000459215
1.168e-08
-0.000459207
-7.95761e-09
1.19169e-08
-0.000459215
-0.000495949
2.6918e-09
-0.000495947
-3.1515e-10
-0.000495952
1.6319e-09
-0.00049594
-1.01706e-08
-0.000495946
1.02313e-08
-0.000495943
-5.51229e-09
-0.000495943
3.38413e-09
-0.000495948
1.02871e-09
-0.000495953
-1.49804e-09
-0.00049594
1.71614e-10
-0.000495944
-2.85942e-09
-8.0489e-10
-0.000495932
-0.000532685
1.06957e-08
-0.000532683
-3.27665e-09
-0.000532674
-9.7364e-09
-0.000532684
1.01055e-09
-0.000532677
1.3728e-09
-0.000532685
9.66535e-10
-0.000532679
7.0172e-10
-0.000532679
3.43047e-09
-0.000532685
3.65806e-09
-0.00053269
4.07719e-09
-0.000532681
-1.21741e-08
-2.51814e-09
-0.000532678
-0.000569404
-6.1461e-09
-0.000569412
4.6679e-09
-0.000569427
4.60435e-09
-0.000569423
-2.64345e-09
-0.00056942
-1.2063e-09
-0.000569415
-3.15216e-09
-0.000569416
1.50636e-09
-0.000569411
-2.6255e-09
-0.000569404
-4.0665e-09
-0.000569401
7.82655e-10
-0.000569427
1.15367e-08
-1.61767e-08
-0.000569414
-0.000606168
1.37283e-08
-0.000606158
-5.0084e-09
-0.000606146
-7.88175e-09
-0.000606148
-2.3845e-10
-0.000606149
-6.295e-10
-0.000606162
9.2062e-09
-0.000606164
1.108e-09
-0.000606164
-1.50865e-10
-0.000606164
-3.84826e-09
-0.000606165
1.59731e-09
-0.000606154
2.15767e-09
-5.2417e-09
-0.000606166
-0.000642887
4.6521e-09
-0.000642893
2.60625e-09
-0.000642891
-7.1631e-09
-0.000642898
7.6904e-09
-0.000642903
6.29385e-09
-0.000642892
-2.75535e-09
-0.000642882
-8.5516e-09
-0.000642889
5.56882e-09
-0.000642902
8.00326e-09
-0.000642885
-1.45756e-08
-0.000642891
9.6199e-09
-7.53696e-09
-0.000642889
-0.000679633
7.2248e-09
-0.00067962
-6.17995e-09
-0.000679638
1.02394e-08
-0.000679632
2.3568e-09
-0.000679618
-6.27465e-09
-0.000679617
-6.7158e-09
-0.000679626
-6.5035e-10
-0.000679621
-1.00909e-09
-0.000679607
-7.70514e-09
-0.000679625
4.95445e-09
-0.000679624
1.04137e-08
-8.11739e-09
-0.000679625
-0.000716369
7.05895e-09
-0.000716367
-1.04238e-08
-0.000716354
-4.5349e-09
-0.000716356
5.5046e-09
-0.000716371
5.2344e-09
-0.000716373
-5.68255e-09
-0.000716375
3.28639e-09
-0.000716376
2.04216e-09
-0.000716375
-7.5549e-09
-0.000716372
7.5728e-10
-0.000716363
2.2352e-09
-0.000716361
-1.10143e-08
-0.00031226
-7.476e-10
-0.000312258
-1.51934e-09
-0.00031226
-9.31545e-10
-0.000312259
3.2013e-10
-0.000312261
4.49302e-09
-0.00031226
-1.03955e-09
-0.000312262
5.15385e-10
-0.000312262
2.45479e-10
-0.000312259
5.1517e-10
-0.000312259
-9.48805e-10
-0.000312267
4.4165e-09
1.08765e-09
-0.000348996
-9.12496e-09
-0.000349002
4.70665e-09
-0.000349004
1.68229e-09
-0.000349002
-8.35485e-10
-0.000348997
7.3515e-11
-0.000348997
-1.4785e-09
-0.000349004
7.4296e-09
-0.000349001
-2.3505e-09
-0.000348998
-2.36952e-09
-0.000349007
7.8936e-09
-0.000348998
-3.69297e-09
-3.22701e-09
-0.000385741
-1.3368e-09
-0.000385739
2.9337e-09
-0.000385733
-4.50827e-09
-0.00038574
6.10267e-09
-0.000385734
-7.14629e-09
-0.000385733
-1.82825e-09
-0.000385725
-6.63799e-10
-0.000385731
1.43873e-09
-0.000385735
-8.55e-11
-0.000385731
2.22885e-09
-0.000385735
2.73925e-10
-2.6085e-10
-0.000422469
-1.98368e-09
-0.000422467
6.327e-10
-0.000422471
-1.63432e-09
-0.000422469
3.25217e-09
-0.000422479
4.09912e-09
-0.000422478
-2.3826e-09
-0.000422472
-8.15483e-09
-0.000422472
1.98677e-09
-0.000422472
3.4085e-10
-0.000422466
-2.94027e-09
-0.000422467
8.16165e-10
2.12738e-09
-0.000459206
-1.18118e-08
-0.000459214
9.25892e-09
-0.000459207
-9.29856e-09
-0.000459205
2.71106e-09
-0.000459198
-7.0692e-10
-0.000459209
9.82137e-09
-0.000459216
-2.84966e-09
-0.000459212
-1.25792e-09
-0.000459204
-6.96385e-09
-0.000459211
5.32906e-09
-0.000459207
-3.06728e-09
-5.2494e-09
-0.000495942
-3.80829e-09
-0.00049594
4.578e-09
-0.000495954
3.5138e-09
-0.000495942
-1.07488e-08
-0.000495944
1.32952e-09
-0.000495944
1.0124e-08
-0.000495942
-2.84199e-09
-0.000495949
5.82516e-09
-0.000495954
-2.2841e-09
-0.000495939
-1.11653e-08
-0.000495943
2.21554e-09
3.98581e-09
-0.00053269
7.75525e-09
-0.000532676
-8.38755e-09
-0.00053268
7.7856e-09
-0.000532689
-1.85759e-09
-0.00053268
-6.6842e-09
-0.000532669
-2.17245e-09
-0.000532678
7.51656e-09
-0.000532671
-1.10578e-09
-0.000532671
-4.05489e-09
-0.000532684
1.45891e-09
-0.000532681
-1.721e-10
-1.79852e-09
-0.000569415
9.90416e-09
-0.000569424
8.8456e-10
-0.000569417
-9.1625e-10
-0.000569426
6.72223e-09
-0.000569429
-2.27438e-09
-0.000569417
-1.37163e-08
-0.000569419
1.12223e-08
-0.000569411
-7.9254e-09
-0.000569419
3.92896e-09
-0.000569421
4.32526e-09
-0.000569428
3.97585e-09
-8.39205e-09
-0.000606152
-6.02245e-09
-0.000606148
-2.27231e-09
-0.000606152
3.6777e-09
-0.00060615
3.01776e-09
-0.000606153
-7.563e-11
-0.000606165
-3.32401e-09
-0.000606152
-4.28288e-09
-0.000606161
-1.728e-09
-0.000606161
5.46054e-09
-0.000606157
2.81306e-09
-0.000606148
-3.89886e-09
-8.3514e-09
-0.000642901
7.67093e-09
-0.000642899
-5.71698e-09
-0.000642902
8.8006e-09
-0.000642886
-1.10457e-08
-0.00064289
5.38228e-09
-0.000642889
-4.10175e-09
-0.000642888
-4.24311e-09
-0.000642898
7.9028e-09
-0.000642891
4.8627e-10
-0.000642883
-5.07908e-09
-0.000642888
-1.2691e-10
-6.564e-10
-0.000679624
9.87135e-09
-0.000679636
5.73515e-09
-0.000679625
-1.7464e-09
-0.000679623
-1.62692e-08
-0.000679626
8.29759e-09
-0.000679626
-4.67837e-09
-0.000679629
-6.73389e-10
-0.000679616
-6.78394e-09
-0.000679629
1.32407e-08
-0.000679639
6.34925e-09
-0.000679633
-6.62494e-09
-5.42e-09
-0.000716361
9.51531e-09
-0.000716358
2.258e-09
-0.000716346
-1.02731e-08
-0.000716374
1.21962e-08
-0.000716363
-2.7956e-09
-0.000716362
-5.5715e-09
-0.000716362
-3.84712e-10
-0.000716371
3.67283e-09
-0.000716359
-2.1116e-10
-0.000716358
2.56627e-09
-0.000716374
9.45297e-09
-1.06812e-08
-0.000312261
-3.09584e-09
-0.000312257
-3.02234e-09
-0.000312265
3.91526e-09
-0.000312257
-6.08932e-09
-0.000312258
6.3673e-10
-0.000312262
3.14389e-09
-0.000312255
-3.9489e-10
-0.000312258
1.80063e-09
-0.000312258
-1.18085e-09
-0.000312261
2.23997e-09
-0.00031226
-6.03347e-09
5.36445e-09
-0.000312259
-0.000348999
-3.192e-10
-0.000348996
-3.98957e-09
-0.000348995
1.30505e-09
-0.000349004
2.93637e-09
-0.000349004
1.49642e-09
-0.000349002
-3.8535e-11
-0.000348998
-7.77338e-09
-0.000348997
1.78206e-09
-0.000349003
5.39788e-09
-0.000348995
-6.37319e-09
-0.000349005
3.91798e-09
4.93242e-09
-0.000349005
-0.000385735
-2.37339e-09
-0.000385742
1.46615e-09
-0.000385741
-1.918e-10
-0.000385735
-2.26111e-09
-0.000385729
-3.47242e-09
-0.000385737
9.1174e-09
-0.000385737
-8.67748e-09
-0.000385742
7.00093e-09
-0.000385733
-2.38858e-09
-0.000385741
6.55569e-10
-0.000385735
-2.17834e-09
3.89092e-09
-0.000385733
-0.000422468
3.4627e-10
-0.000422473
8.26795e-09
-0.000422466
-7.9914e-09
-0.000422465
-2.2882e-09
-0.000422475
4.65935e-09
-0.000422462
-5.08041e-09
-0.000422469
-2.06703e-09
-0.000422467
3.73263e-09
-0.000422475
4.35883e-09
-0.000422467
-7.29261e-09
-0.000422469
-2.67546e-10
4.33492e-09
-0.00042247
-0.000459211
7.6994e-09
-0.000459203
1.3343e-09
-0.000459207
-2.90225e-09
-0.000459213
2.852e-09
-0.000459209
2.33295e-09
-0.000459212
-1.71977e-09
-0.000459215
2.97284e-09
-0.000459207
-4.36194e-09
-0.000459197
-5.15203e-09
-0.000459215
1.168e-08
-0.000459207
-7.95761e-09
1.19169e-08
-0.000459215
-0.000495949
2.6918e-09
-0.000495947
-3.1515e-10
-0.000495952
1.6319e-09
-0.00049594
-1.01706e-08
-0.000495946
1.02313e-08
-0.000495942
-5.51229e-09
-0.000495943
3.38413e-09
-0.000495948
1.02871e-09
-0.000495953
-1.49804e-09
-0.00049594
1.71614e-10
-0.000495944
-2.85942e-09
-8.0489e-10
-0.000495932
-0.000532685
1.06957e-08
-0.000532683
-3.27665e-09
-0.000532674
-9.7364e-09
-0.000532684
1.01055e-09
-0.000532677
1.3728e-09
-0.000532685
9.66535e-10
-0.000532679
7.0172e-10
-0.000532679
3.43047e-09
-0.000532685
3.65806e-09
-0.00053269
4.07719e-09
-0.000532681
-1.21741e-08
-2.51814e-09
-0.000532678
-0.000569404
-6.1461e-09
-0.000569412
4.6679e-09
-0.000569427
4.60435e-09
-0.000569423
-2.64345e-09
-0.00056942
-1.2063e-09
-0.000569415
-3.15216e-09
-0.000569416
1.50636e-09
-0.000569411
-2.6255e-09
-0.000569404
-4.0665e-09
-0.000569401
7.82655e-10
-0.000569427
1.15367e-08
-1.61767e-08
-0.000569414
-0.000606168
1.37283e-08
-0.000606158
-5.0084e-09
-0.000606146
-7.88175e-09
-0.000606148
-2.3845e-10
-0.000606149
-6.295e-10
-0.000606162
9.2062e-09
-0.000606164
1.108e-09
-0.000606164
-1.50865e-10
-0.000606164
-3.84826e-09
-0.000606165
1.59731e-09
-0.000606154
2.15767e-09
-5.2417e-09
-0.000606166
-0.000642887
4.6521e-09
-0.000642893
2.60625e-09
-0.000642891
-7.1631e-09
-0.000642898
7.6904e-09
-0.000642903
6.29385e-09
-0.000642892
-2.75535e-09
-0.000642882
-8.5516e-09
-0.000642889
5.56882e-09
-0.000642902
8.00326e-09
-0.000642885
-1.45756e-08
-0.000642891
9.6199e-09
-7.53696e-09
-0.000642889
-0.000679633
7.2248e-09
-0.00067962
-6.17995e-09
-0.000679638
1.02394e-08
-0.000679632
2.3568e-09
-0.000679618
-6.27465e-09
-0.000679617
-6.7158e-09
-0.000679626
-6.5035e-10
-0.000679621
-1.00909e-09
-0.000679607
-7.70514e-09
-0.000679625
4.95445e-09
-0.000679624
1.04137e-08
-8.11739e-09
-0.000679625
-0.000716369
7.05895e-09
-0.000716367
-1.04238e-08
-0.000716354
-4.5349e-09
-0.000716356
5.5046e-09
-0.000716371
5.2344e-09
-0.000716373
-5.68255e-09
-0.000716375
3.28639e-09
-0.000716376
2.04216e-09
-0.000716375
-7.5549e-09
-0.000716372
7.5728e-10
-0.000716363
2.2352e-09
-0.000716361
-1.10143e-08
-0.00031226
-7.476e-10
-0.000312258
-1.51934e-09
-0.00031226
-9.31545e-10
-0.000312259
3.2013e-10
-0.000312261
4.49302e-09
-0.00031226
-1.03955e-09
-0.000312262
5.15385e-10
-0.000312262
2.45479e-10
-0.000312259
5.1517e-10
-0.000312259
-9.48805e-10
-0.000312267
4.4165e-09
1.08765e-09
-0.000348996
-9.12496e-09
-0.000349002
4.70665e-09
-0.000349004
1.68229e-09
-0.000349002
-8.35485e-10
-0.000348997
7.3515e-11
-0.000348997
-1.4785e-09
-0.000349004
7.4296e-09
-0.000349001
-2.3505e-09
-0.000348998
-2.36952e-09
-0.000349007
7.8936e-09
-0.000348998
-3.69297e-09
-3.22701e-09
-0.000385741
-1.3368e-09
-0.000385739
2.9337e-09
-0.000385733
-4.50827e-09
-0.00038574
6.10267e-09
-0.000385734
-7.14629e-09
-0.000385733
-1.82825e-09
-0.000385725
-6.63799e-10
-0.000385731
1.43873e-09
-0.000385735
-8.55e-11
-0.000385731
2.22885e-09
-0.000385735
2.73925e-10
-2.6085e-10
-0.000422469
-1.98368e-09
-0.000422467
6.327e-10
-0.000422471
-1.63432e-09
-0.000422469
3.25217e-09
-0.000422479
4.09912e-09
-0.000422478
-2.3826e-09
-0.000422472
-8.15483e-09
-0.000422472
1.98677e-09
-0.000422472
3.4085e-10
-0.000422466
-2.94027e-09
-0.000422467
8.16165e-10
2.12738e-09
-0.000459206
-1.18118e-08
-0.000459214
9.25892e-09
-0.000459207
-9.29856e-09
-0.000459205
2.71106e-09
-0.000459198
-7.0692e-10
-0.000459209
9.82137e-09
-0.000459216
-2.84966e-09
-0.000459212
-1.25792e-09
-0.000459204
-6.96385e-09
-0.000459211
5.32906e-09
-0.000459207
-3.06728e-09
-5.2494e-09
-0.000495942
-3.80829e-09
-0.00049594
4.578e-09
-0.000495954
3.5138e-09
-0.000495942
-1.07488e-08
-0.000495944
1.32952e-09
-0.000495944
1.0124e-08
-0.000495942
-2.84199e-09
-0.000495949
5.82516e-09
-0.000495954
-2.2841e-09
-0.000495939
-1.11653e-08
-0.000495943
2.21554e-09
3.98581e-09
-0.00053269
7.75525e-09
-0.000532676
-8.38755e-09
-0.00053268
7.7856e-09
-0.000532689
-1.85759e-09
-0.00053268
-6.6842e-09
-0.000532669
-2.17245e-09
-0.000532678
7.51656e-09
-0.000532671
-1.10578e-09
-0.000532671
-4.05489e-09
-0.000532684
1.45891e-09
-0.000532681
-1.721e-10
-1.79852e-09
-0.000569415
9.90416e-09
-0.000569424
8.8456e-10
-0.000569417
-9.1625e-10
-0.000569426
6.72223e-09
-0.000569429
-2.27438e-09
-0.000569417
-1.37163e-08
-0.000569419
1.12223e-08
-0.000569411
-7.9254e-09
-0.000569419
3.92896e-09
-0.000569421
4.32526e-09
-0.000569428
3.97585e-09
-8.39205e-09
-0.000606152
-6.02245e-09
-0.000606148
-2.27231e-09
-0.000606152
3.6777e-09
-0.00060615
3.01776e-09
-0.000606153
-7.563e-11
-0.000606165
-3.32401e-09
-0.000606152
-4.28288e-09
-0.000606161
-1.728e-09
-0.000606161
5.46054e-09
-0.000606157
2.81306e-09
-0.000606148
-3.89886e-09
-8.3514e-09
-0.000642901
7.67093e-09
-0.000642899
-5.71698e-09
-0.000642902
8.8006e-09
-0.000642886
-1.10457e-08
-0.00064289
5.38228e-09
-0.000642889
-4.10175e-09
-0.000642888
-4.24311e-09
-0.000642898
7.9028e-09
-0.000642891
-1.084e-10
-0.000642883
-4.519e-09
-0.000642888
-1.2691e-10
-6.564e-10
-0.000679624
9.87135e-09
-0.000679636
5.73515e-09
-0.000679625
-1.7464e-09
-0.000679623
-1.62692e-08
-0.000679626
8.29759e-09
-0.000679626
-4.67837e-09
-0.000679629
-6.73389e-10
-0.000679616
-6.78394e-09
-0.000679629
1.32407e-08
-0.000679639
6.34925e-09
-0.000679633
-6.62494e-09
-5.42e-09
-0.000716361
9.51531e-09
-0.000716358
2.258e-09
-0.000716346
-1.02731e-08
-0.000716374
1.21962e-08
-0.000716363
-2.7956e-09
-0.000716362
-5.5715e-09
-0.000716362
-3.84712e-10
-0.000716371
3.67283e-09
-0.000716359
-2.1116e-10
-0.000716358
2.56627e-09
-0.000716374
9.45297e-09
-1.06812e-08
-0.000753095
-4.11915e-09
0.000753107
-0.000753104
-2.6735e-09
-0.000753112
2.37445e-09
-0.000753108
8.9555e-10
-0.000753095
-6.80975e-09
-0.000753093
-5.64885e-09
-0.000753085
-3.8179e-09
-0.000753092
9.9546e-09
-0.000753113
1.16501e-08
-0.000753098
-1.20965e-08
-0.000753101
7.14047e-09
9.929e-11
-0.000753113
-0.000789854
2.19016e-08
0.00078983
-0.000789829
-2.71193e-08
-0.000789838
1.22269e-08
-0.00078983
-5.73225e-09
-0.000789831
-6.29e-09
-0.000789846
1.12221e-08
-0.000789849
3.684e-10
-0.000789835
-2.98023e-09
-0.000789829
2.6027e-09
-0.000789846
1.7358e-09
-0.000789854
1.30474e-08
-2.1328e-08
-0.000789833
-0.000826555
-2.338e-09
0.00082658
-0.000826578
-3.633e-09
-0.000826562
-2.13315e-09
-0.000826568
1.81455e-09
-0.000826591
1.7904e-08
-0.000826581
-1.66215e-09
-0.000826572
-1.14759e-08
-0.000826573
-2.76542e-09
-0.00082657
3.36016e-09
-0.00082657