/*--------------------------------*- C++ -*----------------------------------*\
| =========                 |                                                 |
| \\      /  F ield         | OpenFOAM: The Open Source CFD Toolbox           |
|  \\    /   O peration     | Version:  v1606+                                |
|   \\  /    A nd           | Web:      www.OpenFOAM.com                      |
|    \\/     M anipulation  |                                                 |
\*---------------------------------------------------------------------------*/
FoamFile
{
    version     2.0;
    format      ascii;
    class       volScalarField;
    location    "1.2";
    object      p;
}
// * * * * * * * * * * * * * * * * * * * * * * * * * * * * * * * * * * * * * //

dimensions      [0 2 -2 0 0 0 0];

internalField   nonuniform List<scalar> 
3072
(
-0.0486157
-0.0487495
-0.0490694
-0.0495318
-0.050031
-0.050586
-0.0511677
-0.0517653
-0.0523942
-0.053043
-0.0536634
-0.0541831
-0.0454052
-0.0457971
-0.0463435
-0.046964
-0.0475888
-0.0481645
-0.0487227
-0.049248
-0.0497588
-0.0502143
-0.0504656
-0.0504387
-0.0429731
-0.0436221
-0.0445093
-0.0453451
-0.0459629
-0.0463631
-0.0466186
-0.0468393
-0.0470767
-0.0472836
-0.0472831
-0.0470382
-0.039869
-0.041034
-0.0422993
-0.0432798
-0.0438398
-0.0440177
-0.0439386
-0.0438276
-0.0437753
-0.0437188
-0.0435677
-0.0434023
-0.0365039
-0.0382322
-0.0398141
-0.0408952
-0.0414273
-0.0413915
-0.0409814
-0.0405149
-0.040132
-0.0397847
-0.0395171
-0.0395303
-0.0327447
-0.0348306
-0.0365362
-0.0376663
-0.03816
-0.0380413
-0.0374738
-0.0367937
-0.0361781
-0.0356464
-0.0353956
-0.0356926
-0.0285975
-0.0306498
-0.0322806
-0.0334084
-0.0339086
-0.0337855
-0.0331966
-0.0324527
-0.031744
-0.0311914
-0.0311335
-0.0318347
-0.0241138
-0.025775
-0.0271152
-0.0281099
-0.0286222
-0.0285572
-0.0280724
-0.0274133
-0.0267741
-0.0263799
-0.0266686
-0.0278585
-0.0195057
-0.0205007
-0.0212875
-0.0219118
-0.0222935
-0.0223837
-0.022128
-0.0217435
-0.0213999
-0.0213755
-0.022136
-0.0238481
-0.0149124
-0.0150545
-0.0151991
-0.0152751
-0.0152878
-0.0154906
-0.0155355
-0.0156303
-0.0158459
-0.0164314
-0.017791
-0.02003
-0.00992117
-0.00953065
-0.00921752
-0.00889783
-0.00853199
-0.00844857
-0.00877147
-0.00943446
-0.0103753
-0.0117406
-0.0137961
-0.0165693
-0.00896977
-0.00537664
-0.00388969
-0.00340619
-0.00281377
-0.00252317
-0.00294816
-0.00391505
-0.0054255
-0.00750721
-0.0102296
-0.0135146
-0.0545751
-0.0548338
-0.0549453
-0.0549429
-0.0548689
-0.0546887
-0.0544103
-0.0545178
-0.0551974
-0.0561447
-0.0567634
-0.0568684
-0.0501812
-0.0497811
-0.0494423
-0.0492865
-0.0491798
-0.0491766
-0.0496598
-0.0506089
-0.0520739
-0.0537109
-0.054795
-0.0550833
-0.0467395
-0.0465738
-0.0465953
-0.0467648
-0.047013
-0.0472631
-0.0476637
-0.0484137
-0.0496797
-0.0514902
-0.0532683
-0.0539797
-0.0433757
-0.0435039
-0.0437063
-0.0439404
-0.0442157
-0.0445727
-0.0450693
-0.0457942
-0.0468134
-0.0483202
-0.050529
-0.0522485
-0.0398619
-0.0403051
-0.0406896
-0.041012
-0.0413356
-0.0417045
-0.0422069
-0.0429195
-0.0438086
-0.0448559
-0.0469176
-0.0500222
-0.0364008
-0.0370977
-0.0375929
-0.0379789
-0.0383591
-0.038758
-0.0392204
-0.0398358
-0.0405985
-0.041366
-0.0430339
-0.0471135
-0.0329646
-0.0339319
-0.0345722
-0.0350676
-0.0355255
-0.0359575
-0.0363385
-0.0367385
-0.0372369
-0.0377975
-0.0390375
-0.0432041
-0.0294641
-0.030778
-0.0316557
-0.0323505
-0.0329656
-0.0334212
-0.0336465
-0.0336741
-0.0336731
-0.0338476
-0.0346518
-0.0382222
-0.0259508
-0.0276912
-0.0289256
-0.0299262
-0.0307555
-0.0312241
-0.0311705
-0.0306082
-0.029781
-0.029109
-0.0292981
-0.0321305
-0.0225986
-0.0248004
-0.026492
-0.0278832
-0.0289481
-0.0293727
-0.0289159
-0.0275752
-0.0256074
-0.0234697
-0.022264
-0.023559
-0.0195836
-0.0222609
-0.0244517
-0.026258
-0.0275172
-0.0278169
-0.0268848
-0.0247221
-0.0215413
-0.0176098
-0.013764
-0.0107958
-0.0169593
-0.0201063
-0.0227924
-0.0249744
-0.0263378
-0.0264486
-0.0250504
-0.0222059
-0.0181624
-0.0130404
-0.00670063
0.00231053
-0.0487846
-0.0488493
-0.0490908
-0.0494972
-0.0500088
-0.0505834
-0.0511711
-0.0517696
-0.0524011
-0.0530532
-0.0536752
-0.0541949
-0.0455142
-0.0458766
-0.0464048
-0.047004
-0.0476178
-0.0481885
-0.0487413
-0.0492649
-0.0497791
-0.0502363
-0.0504827
-0.0504496
-0.0430777
-0.0437136
-0.0445831
-0.0453946
-0.0459929
-0.046381
-0.0466296
-0.0468478
-0.0470878
-0.0472941
-0.0472842
-0.0470304
-0.0399547
-0.0411092
-0.0423565
-0.0433165
-0.0438583
-0.0440214
-0.0439345
-0.0438209
-0.0437684
-0.0437073
-0.0435491
-0.0433825
-0.0365829
-0.0382948
-0.0398547
-0.0409148
-0.0414286
-0.0413798
-0.0409631
-0.0404953
-0.0401099
-0.0397571
-0.0394892
-0.0395109
-0.0328173
-0.0348833
-0.0365687
-0.0376807
-0.0381586
-0.0380282
-0.0374543
-0.0367722
-0.0361523
-0.0356169
-0.0353726
-0.0356829
-0.0286652
-0.030699
-0.0323154
-0.0334297
-0.0339171
-0.0337849
-0.0331898
-0.0324419
-0.0317279
-0.0311734
-0.0311249
-0.0318385
-0.0241773
-0.0258239
-0.0271567
-0.0281441
-0.0286467
-0.0285782
-0.0280881
-0.0274234
-0.0267783
-0.0263821
-0.0266775
-0.0278748
-0.0195641
-0.0205499
-0.0213352
-0.0219604
-0.022336
-0.0224318
-0.0221713
-0.0217796
-0.0214287
-0.0213997
-0.0221602
-0.023873
-0.0149681
-0.0151049
-0.0152525
-0.0153387
-0.0153687
-0.0155696
-0.0156065
-0.015693
-0.0158992
-0.0164755
-0.0178279
-0.0200602
-0.00997161
-0.00958428
-0.00927701
-0.00897094
-0.00861979
-0.00854458
-0.00886073
-0.00951843
-0.0104499
-0.011802
-0.0138439
-0.0166034
-0.00900578
-0.00542745
-0.00395252
-0.0034887
-0.00290984
-0.00262527
-0.00304544
-0.00401043
-0.00551237
-0.00757949
-0.0102843
-0.0135506
-0.054587
-0.0548482
-0.0549673
-0.0549779
-0.0549182
-0.0547485
-0.0544779
-0.0545947
-0.0552847
-0.0562393
-0.0568581
-0.0569624
-0.0501875
-0.0497857
-0.0494549
-0.0493149
-0.049224
-0.0492373
-0.0497341
-0.0506947
-0.0521702
-0.053815
-0.0549016
-0.0551849
-0.0467324
-0.0465756
-0.0466099
-0.0467927
-0.047053
-0.0473121
-0.0477245
-0.0484868
-0.0497645
-0.0515837
-0.0533655
-0.0540755
-0.0433625
-0.043499
-0.043709
-0.0439507
-0.0442347
-0.0446023
-0.0451115
-0.0458504
-0.0468833
-0.0484007
-0.0506173
-0.0523403
-0.0398509
-0.0402973
-0.0406846
-0.0410129
-0.0413452
-0.0417252
-0.0422395
-0.0429645
-0.0438661
-0.0449244
-0.0469958
-0.0501081
-0.0363973
-0.0370928
-0.0375881
-0.0379796
-0.0383693
-0.0387787
-0.0392517
-0.0398773
-0.0406498
-0.041426
-0.0431023
-0.0471924
-0.0329703
-0.0339321
-0.0345701
-0.0350696
-0.0355367
-0.0359796
-0.0363716
-0.0367815
-0.0372884
-0.037855
-0.0391004
-0.0432782
-0.0294778
-0.0307833
-0.0316561
-0.0323528
-0.0329765
-0.0334442
-0.0336827
-0.0337221
-0.0337303
-0.0339093
-0.0347182
-0.0382988
-0.0259695
-0.0276993
-0.0289263
-0.0299268
-0.0307643
-0.0312476
-0.0312112
-0.0306641
-0.0298476
-0.0291796
-0.0293742
-0.0322146
-0.0226183
-0.0248077
-0.0264902
-0.0278801
-0.0289541
-0.0293972
-0.0289631
-0.0276417
-0.025686
-0.0235515
-0.0223499
-0.0236455
-0.0196028
-0.0222654
-0.0244455
-0.0262502
-0.0275217
-0.0278446
-0.0269414
-0.0248015
-0.0216327
-0.0177029
-0.013858
-0.0108783
-0.0169766
-0.0201065
-0.0227808
-0.0249631
-0.0263458
-0.0264837
-0.025119
-0.0222988
-0.018264
-0.0131388
-0.0067955
0.00222317
-0.0486354
-0.048775
-0.0491021
-0.04957
-0.0500692
-0.0506235
-0.051206
-0.0518049
-0.0524351
-0.0530851
-0.0537067
-0.0542275
-0.0454295
-0.0458239
-0.046372
-0.0469946
-0.047621
-0.0481986
-0.0487599
-0.0492887
-0.0498023
-0.0502595
-0.050512
-0.0504852
-0.042997
-0.0436465
-0.0445347
-0.045373
-0.0459944
-0.0463976
-0.0466561
-0.04688
-0.0471201
-0.0473286
-0.0473283
-0.0470822
-0.0398928
-0.0410577
-0.0423239
-0.0433068
-0.0438702
-0.0440523
-0.0439758
-0.043867
-0.0438163
-0.0437606
-0.0436092
-0.0434427
-0.0365259
-0.0382547
-0.0398384
-0.0409229
-0.041459
-0.0414269
-0.0410191
-0.0405536
-0.0401709
-0.0398233
-0.0395549
-0.0395675
-0.0327645
-0.0348523
-0.0365606
-0.0376943
-0.0381919
-0.0380766
-0.0375111
-0.0368315
-0.0362155
-0.0356827
-0.0354308
-0.0357273
-0.028615
-0.0306704
-0.0323047
-0.0334361
-0.0339397
-0.0338197
-0.0332326
-0.0324891
-0.0317801
-0.0312262
-0.0311668
-0.0318678
-0.0241292
-0.025794
-0.0271384
-0.0281366
-0.0286511
-0.02859
-0.0281068
-0.027448
-0.0268084
-0.0264125
-0.0266996
-0.0278899
-0.0195187
-0.020518
-0.0213097
-0.0219378
-0.0223176
-0.0224159
-0.0221612
-0.021776
-0.0214311
-0.0214046
-0.0221634
-0.0238767
-0.0149243
-0.0150701
-0.0152209
-0.0153033
-0.0153259
-0.0155259
-0.0155679
-0.0156603
-0.0158733
-0.016456
-0.0178141
-0.0200548
-0.00993238
-0.00954613
-0.00923779
-0.00892452
-0.00856474
-0.00848231
-0.00880098
-0.00946125
-0.0103992
-0.0117613
-0.0138153
-0.0165904
-0.00897979
-0.00539258
-0.00390957
-0.00343302
-0.00284434
-0.00255079
-0.00297309
-0.00393755
-0.00544537
-0.00752457
-0.0102459
-0.0135326
-0.0546206
-0.05488
-0.0549911
-0.0549866
-0.0549096
-0.0547262
-0.0544455
-0.0545531
-0.0552353
-0.0561857
-0.0568058
-0.0569113
-0.0502266
-0.0498242
-0.0494825
-0.0493241
-0.0492153
-0.0492112
-0.0496946
-0.0506458
-0.0521146
-0.053756
-0.0548425
-0.0551302
-0.0467814
-0.0466135
-0.046633
-0.0468012
-0.0470487
-0.0472984
-0.0476994
-0.0484511
-0.0497205
-0.0515354
-0.0533165
-0.054028
-0.0434148
-0.0435413
-0.0437423
-0.0439756
-0.0442509
-0.0446084
-0.0451061
-0.0458326
-0.0468544
-0.0483652
-0.0505785
-0.0522994
-0.0398983
-0.0403403
-0.0407241
-0.0410466
-0.0413711
-0.0417412
-0.0422452
-0.0429594
-0.0438505
-0.0449011
-0.0469677
-0.0500756
-0.0364354
-0.037132
-0.0376271
-0.0380138
-0.0383954
-0.0387959
-0.03926
-0.0398771
-0.0406413
-0.0414111
-0.0430837
-0.0471681
-0.0329985
-0.0339663
-0.0346069
-0.035103
-0.0355621
-0.035996
-0.036379
-0.0367806
-0.0372802
-0.0378422
-0.0390862
-0.0432578
-0.0294975
-0.0308128
-0.0316907
-0.0323859
-0.0330024
-0.0334601
-0.0336876
-0.0337167
-0.0337162
-0.0338911
-0.0346978
-0.0382711
-0.0259828
-0.0277254
-0.0289598
-0.0299606
-0.0307917
-0.0312632
-0.0312125
-0.0306517
-0.0298242
-0.0291507
-0.0293389
-0.0321686
-0.0226275
-0.0248321
-0.026524
-0.0279156
-0.0289829
-0.0294119
-0.0289593
-0.0276206
-0.0256513
-0.0235096
-0.0222981
-0.0235821
-0.0196088
-0.0222891
-0.0244806
-0.0262877
-0.0275505
-0.0278562
-0.0269305
-0.0247703
-0.0215865
-0.0176478
-0.0137914
-0.0108064
-0.016981
-0.0201307
-0.0228177
-0.0250012
-0.0263696
-0.0264884
-0.0250988
-0.0222577
-0.018209
-0.0130758
-0.00672163
0.00230695
-0.0487423
-0.048807
-0.0490484
-0.0494546
-0.0499663
-0.0505411
-0.0511291
-0.0517277
-0.0523592
-0.0530112
-0.0536328
-0.054152
-0.0454718
-0.045834
-0.046362
-0.0469612
-0.0475752
-0.0481461
-0.0486993
-0.0492232
-0.0497379
-0.0501951
-0.0504409
-0.0504071
-0.0430355
-0.0436705
-0.0445393
-0.0453505
-0.0459489
-0.0463375
-0.0465868
-0.0468058
-0.0470466
-0.0472531
-0.0472427
-0.0469886
-0.0399127
-0.0410655
-0.0423117
-0.0432714
-0.0438132
-0.043977
-0.043891
-0.0437786
-0.043727
-0.0436662
-0.043508
-0.0433419
-0.0365419
-0.0382515
-0.0398104
-0.0408702
-0.0413841
-0.0413359
-0.0409201
-0.0404533
-0.0400686
-0.0397161
-0.039449
-0.0394719
-0.0327779
-0.0348421
-0.0365268
-0.0376385
-0.0381164
-0.0379865
-0.0374133
-0.0367317
-0.0361121
-0.0355769
-0.0353339
-0.0356459
-0.0286281
-0.030661
-0.0322772
-0.0333913
-0.0338786
-0.0337469
-0.033152
-0.0324041
-0.0316898
-0.0311352
-0.0310884
-0.0318039
-0.0241426
-0.0257896
-0.0271231
-0.0281105
-0.0286123
-0.0285451
-0.0280547
-0.0273891
-0.0267428
-0.0263462
-0.0266432
-0.0278424
-0.0195314
-0.0205188
-0.0213064
-0.0219327
-0.0223059
-0.0224051
-0.022143
-0.0217488
-0.0213957
-0.0213657
-0.0221272
-0.0238419
-0.0149372
-0.015076
-0.0152277
-0.015318
-0.0153532
-0.0155509
-0.0155827
-0.0156647
-0.0158677
-0.0164422
-0.017795
-0.0200289
-0.00993914
-0.00955555
-0.00925368
-0.00895224
-0.00860367
-0.00852948
-0.00883745
-0.00948985
-0.0104181
-0.0117687
-0.0138103
-0.016571
-0.00896988
-0.00539873
-0.00393076
-0.00347102
-0.00289178
-0.002602
-0.00301701
-0.00397707
-0.005477
-0.00754378
-0.0102488
-0.0135164
-0.0545438
-0.0548046
-0.0549241
-0.0549362
-0.0548786
-0.0547108
-0.0544407
-0.0545567
-0.0552453
-0.056199
-0.056818
-0.0569219
-0.0501445
-0.0497425
-0.0494125
-0.0492747
-0.049186
-0.0492007
-0.0496974
-0.0506564
-0.0521295
-0.0537721
-0.0548576
-0.0551417
-0.0466909
-0.0465351
-0.0465707
-0.0467548
-0.0470159
-0.0472753
-0.0476873
-0.0484484
-0.0497235
-0.0515396
-0.0533199
-0.0540304
-0.0433227
-0.0434598
-0.04367
-0.043912
-0.0441961
-0.0445638
-0.0450727
-0.045811
-0.0468421
-0.0483559
-0.0505693
-0.0522931
-0.0398125
-0.0402586
-0.0406455
-0.0409738
-0.0413064
-0.0416863
-0.0422002
-0.0429245
-0.0438245
-0.0448793
-0.0469459
-0.0500577
-0.0363605
-0.037055
-0.0375496
-0.0379413
-0.0383315
-0.0387406
-0.0392128
-0.0398372
-0.0406079
-0.0413804
-0.0430506
-0.0471384
-0.0329355
-0.0338957
-0.0345328
-0.0350325
-0.0354994
-0.0359425
-0.0363336
-0.0367418
-0.0372461
-0.0378086
-0.0390469
-0.0432209
-0.029445
-0.0307487
-0.0316206
-0.0323176
-0.0329414
-0.0334088
-0.033646
-0.033683
-0.0336881
-0.0338626
-0.0346643
-0.038242
-0.0259383
-0.0276665
-0.0288927
-0.0298935
-0.0307313
-0.0312138
-0.0311755
-0.0306255
-0.0298055
-0.029133
-0.0293228
-0.032166
-0.0225874
-0.0247759
-0.0264581
-0.0278485
-0.0289226
-0.0293646
-0.0289281
-0.0276034
-0.0256441
-0.0235055
-0.0223035
-0.0236095
-0.0195713
-0.0222339
-0.0244143
-0.0262197
-0.0274913
-0.0278126
-0.0269066
-0.0247634
-0.0215914
-0.0176592
-0.0138184
-0.0108518
-0.0169439
-0.0200748
-0.0227501
-0.0249333
-0.0263158
-0.0264518
-0.0250841
-0.022261
-0.0182245
-0.0130993
-0.00676211
0.00224275
-0.00308391
-0.00262663
-0.00134774
-0.000357151
0.000739105
0.00110169
0.00072509
-0.000246535
-0.00187689
-0.00425363
-0.00737161
-0.0110306
-0.00171942
-0.00198322
-0.00112369
-8.47378e-05
0.000742341
0.00172558
0.00197842
0.00140499
-0.000103394
-0.00251394
-0.00570384
-0.00945631
-0.00157591
-0.00142043
-0.000654227
0.000325565
0.00113495
0.00172195
0.00190769
0.00147726
0.000154463
-0.00208413
-0.00513818
-0.00877278
-0.00169032
-0.00109858
-0.000426226
0.000219609
0.000585508
0.000951294
0.0011933
0.000944061
-0.000304413
-0.00236836
-0.00515221
-0.0084929
-0.0148336
-0.0183895
-0.021484
-0.0239075
-0.0252386
-0.0251122
-0.0233177
-0.0200313
-0.0156286
-0.0104866
-0.00518534
-0.000958747
-0.0134078
-0.0171728
-0.0204416
-0.0228782
-0.024059
-0.0236288
-0.0215562
-0.018108
-0.0137828
-0.00912826
-0.00485795
-0.00175655
-0.0126262
-0.0163062
-0.0194415
-0.0216477
-0.0225348
-0.0218635
-0.0196778
-0.0163331
-0.0123737
-0.00836375
-0.00484992
-0.00236383
-0.012056
-0.0154417
-0.0182594
-0.0201275
-0.0206994
-0.019852
-0.0177102
-0.0146698
-0.0112491
-0.00791431
-0.00501891
-0.00286914
-0.00310466
-0.00265915
-0.00139403
-0.000430247
0.000646803
0.00102497
0.00063045
-0.000343973
-0.00196637
-0.00432648
-0.0074241
-0.0110615
-0.00172593
-0.00200861
-0.0011639
-0.00014645
0.000665336
0.00164012
0.00188459
0.00131053
-0.00018777
-0.00258031
-0.00574813
-0.00947701
-0.00158796
-0.00145049
-0.000697274
0.000268094
0.00106475
0.00164606
0.001827
0.00138728
6.67125e-05
-0.00214932
-0.00517574
-0.00878568
-0.00170747
-0.00113125
-0.000470239
0.000166488
0.00052754
0.000887822
0.00113838
0.00088357
-0.000379285
-0.00242995
-0.00518362
-0.00849991
-0.0148435
-0.0183814
-0.0214663
-0.0238967
-0.0252619
-0.0251606
-0.0234006
-0.0201374
-0.0157367
-0.0105808
-0.00525677
-0.000997278
-0.0134069
-0.0171568
-0.020422
-0.0228701
-0.0240701
-0.0236873
-0.0216504
-0.0182257
-0.0138961
-0.00921604
-0.00491377
-0.00178509
-0.0126201
-0.0162907
-0.0194294
-0.0216523
-0.0225642
-0.0219282
-0.0197713
-0.0164463
-0.0124849
-0.00844329
-0.00489412
-0.00238357
-0.0120477
-0.0154302
-0.0182566
-0.0201427
-0.0207368
-0.019913
-0.0177877
-0.0147555
-0.0113335
-0.0079736
-0.00505127
-0.00288325
-0.00309112
-0.00263666
-0.00136454
-0.000383413
0.000708298
0.00108034
0.000703869
-0.000264723
-0.00189214
-0.00426663
-0.00738403
-0.0110448
-0.00172656
-0.00199022
-0.00113439
-0.000102887
0.000720935
0.00170311
0.00195858
0.00139009
-0.000113861
-0.0025217
-0.00571102
-0.00946512
-0.0015855
-0.0014297
-0.000665731
0.000309569
0.00111758
0.00170313
0.00189167
0.00146564
0.000147415
-0.00208771
-0.00514051
-0.00877632
-0.00170481
-0.00111301
-0.000440836
0.000204266
0.00056894
0.00093578
0.00118049
0.000936092
-0.000307423
-0.00236761
-0.00514999
-0.00849175
-0.014851
-0.0184091
-0.0215049
-0.0239314
-0.0252696
-0.0251528
-0.0233693
-0.0200879
-0.0156773
-0.0105186
-0.00519608
-0.000946702
-0.0134194
-0.0171869
-0.0204582
-0.0228992
-0.0240874
-0.0236679
-0.0216089
-0.018171
-0.0138363
-0.00915824
-0.00486196
-0.00174123
-0.0126324
-0.0163155
-0.0194544
-0.0216657
-0.0225597
-0.021897
-0.019723
-0.0163901
-0.0124277
-0.00839056
-0.00484828
-0.00234619
-0.0120575
-0.0154465
-0.018268
-0.0201409
-0.0207187
-0.0198765
-0.0177389
-0.0147024
-0.0112811
-0.00792596
-0.00501017
-0.00285092
-0.00307228
-0.00263051
-0.00137443
-0.000415108
0.000663414
0.00105377
0.000661441
-0.000304424
-0.00192345
-0.00428444
-0.00738382
-0.0110239
-0.0016991
-0.00198033
-0.00114121
-0.000128539
0.000684417
0.00166243
0.00191446
0.00135391
-0.000137192
-0.00252939
-0.00570016
-0.00943434
-0.00156269
-0.0014235
-0.00067386
0.000287288
0.00108499
0.00166537
0.00185373
0.00143443
0.000129542
-0.00208797
-0.00512184
-0.00874024
-0.00168548
-0.00110828
-0.000448842
0.000185388
0.000542735
0.000905388
0.00115185
0.000914753
-0.000316846
-0.00236185
-0.00512831
-0.00845709
-0.0148089
-0.0183492
-0.0214359
-0.0238673
-0.0252319
-0.0251284
-0.0233656
-0.0201003
-0.0156996
-0.0105461
-0.00522937
-0.000980573
-0.0133698
-0.0171241
-0.0203921
-0.0228412
-0.0240402
-0.0236549
-0.0216157
-0.0181902
-0.013862
-0.00918596
-0.00489101
-0.0017715
-0.0125824
-0.0162585
-0.0194002
-0.0216237
-0.0225344
-0.0218962
-0.019738
-0.0164134
-0.0124543
-0.00841701
-0.00487409
-0.00237017
-0.0120134
-0.015401
-0.0182294
-0.0201154
-0.0207084
-0.0198831
-0.0177574
-0.0147263
-0.0113067
-0.00795041
-0.0050322
-0.00286756
-0.0126217
-0.00983924
-0.0071462
-0.00479888
-0.00301302
-0.00184514
-0.00102272
-0.000298699
0.000174294
0.000267332
0.000284687
0.000406664
-0.0116547
-0.00930998
-0.00701256
-0.00496878
-0.00333665
-0.00214916
-0.00125145
-0.000505717
-3.21392e-05
-2.10084e-05
-0.000237069
-0.000251859
-0.0108945
-0.00890157
-0.00692427
-0.00513041
-0.00363669
-0.00247587
-0.0015676
-0.000841401
-0.000391855
-0.000404262
-0.000808014
-0.00100541
-0.0102763
-0.00857922
-0.00685732
-0.00526913
-0.00390252
-0.00279996
-0.00192148
-0.00124382
-0.000832101
-0.000831613
-0.00129019
-0.00185528
3.9812e-05
-0.00130968
-0.00330648
-0.0058685
-0.00885073
-0.0119854
-0.0148467
-0.0170819
-0.0183498
-0.018391
-0.0172963
-0.0152862
-0.000520146
-0.0017913
-0.00359594
-0.00582344
-0.00838851
-0.0110479
-0.0134684
-0.0153216
-0.016317
-0.0163852
-0.0154988
-0.0138484
-0.00117038
-0.00226597
-0.00391406
-0.00582546
-0.00799188
-0.010206
-0.0122202
-0.013769
-0.0146326
-0.0147305
-0.0140452
-0.012709
-0.00189816
-0.00275036
-0.00426603
-0.00590405
-0.00774716
-0.00960155
-0.0112865
-0.0125899
-0.0133389
-0.0134461
-0.0129018
-0.0118027
-0.0126823
-0.00988831
-0.00718502
-0.00482442
-0.00302446
-0.0018419
-0.0010068
-0.000272963
0.000207548
0.000302034
0.000321157
0.000444869
-0.0117024
-0.00934745
-0.00704578
-0.00499249
-0.00334822
-0.00214837
-0.0012397
-0.000484865
-1.51442e-06
1.01821e-05
-0.000206933
-0.000217977
-0.0109325
-0.00893574
-0.00695461
-0.00515312
-0.00364798
-0.00247644
-0.00155867
-0.000825134
-0.000370503
-0.000373931
-0.000776131
-0.000975978
-0.0103109
-0.00861099
-0.00688551
-0.00529118
-0.00391265
-0.0028011
-0.00191444
-0.0012301
-0.000812678
-0.00080402
-0.00125832
-0.00182487
8.8887e-05
-0.00125375
-0.00326071
-0.0058456
-0.00884498
-0.0119924
-0.0148533
-0.0170811
-0.0183375
-0.0183647
-0.0172593
-0.0152432
-0.000473645
-0.00174152
-0.00355528
-0.0058004
-0.00837944
-0.0110477
-0.0134683
-0.0153158
-0.0163015
-0.016361
-0.0154662
-0.0138106
-0.00113347
-0.00222353
-0.00387762
-0.00580086
-0.00797849
-0.0101996
-0.0122151
-0.0137604
-0.0146174
-0.0147084
-0.0140163
-0.0126756
-0.0018626
-0.00271288
-0.00423316
-0.00588061
-0.00772939
-0.00959066
-0.0112773
-0.0125788
-0.0133232
-0.0134246
-0.012875
-0.0117723
-0.0126359
-0.00984494
-0.00714516
-0.00479037
-0.00299927
-0.0018281
-0.00100445
-0.000280848
0.000190355
0.000279866
0.000298276
0.000426
-0.011661
-0.00931132
-0.00701102
-0.00496249
-0.00332558
-0.00213443
-0.00123474
-0.000488438
-1.50117e-05
-6.76898e-06
-0.000226133
-0.000233181
-0.0108969
-0.00890206
-0.00692294
-0.00512562
-0.00362722
-0.00246281
-0.0015523
-0.000825089
-0.000375221
-0.000386938
-0.000792753
-0.00098928
-0.0102787
-0.00857963
-0.00685611
-0.00526525
-0.00389375
-0.00278797
-0.00190726
-0.00122829
-0.000815782
-0.000814163
-0.00127319
-0.00183782
7.8215e-05
-0.00125383
-0.00324848
-0.00582185
-0.00881351
-0.0119546
-0.014819
-0.017055
-0.0183225
-0.0183625
-0.0172674
-0.015258
-0.000479893
-0.00173934
-0.0035432
-0.00577922
-0.00835156
-0.0110163
-0.0134395
-0.0152936
-0.0162888
-0.0163569
-0.0154707
-0.013821
-0.00113895
-0.00221996
-0.00386594
-0.00578221
-0.00795442
-0.010173
-0.01219
-0.0137402
-0.0146043
-0.0147025
-0.0140176
-0.0126821
-0.0018645
-0.00270771
-0.00422131
-0.0058624
-0.0077093
-0.00956768
-0.0112553
-0.0125604
-0.0133103
-0.013418
-0.0128742
-0.0117761
-0.0126554
-0.00986386
-0.00716314
-0.00480487
-0.00300621
-0.00182407
-0.000989627
-0.000256883
0.000222613
0.000316295
0.000334135
0.000454525
-0.0116762
-0.00932342
-0.00702371
-0.00497227
-0.00332935
-0.00213041
-0.00122271
-0.00046911
1.28727e-05
2.34622e-05
-0.000194518
-0.000208072
-0.0109068
-0.00891175
-0.00693237
-0.00513244
-0.00362859
-0.00245817
-0.00154153
-0.000809254
-0.000355967
-0.000360775
-0.000763257
-0.000964204
-0.0102854
-0.00858694
-0.00686304
-0.00527017
-0.00389286
-0.00278255
-0.00189709
-0.00121406
-0.000797937
-0.000790586
-0.00124531
-0.00181131
9.29636e-05
-0.0012542
-0.00326411
-0.00584967
-0.00884762
-0.0119926
-0.0148502
-0.0170744
-0.0183265
-0.0183494
-0.0172412
-0.0152279
-0.000470493
-0.00174263
-0.003559
-0.00580471
-0.00838257
-0.0110486
-0.0134664
-0.0153107
-0.0162931
-0.0163499
-0.0154542
-0.0138014
-0.00112951
-0.00222495
-0.00388127
-0.00580494
-0.00798153
-0.0102009
-0.0122142
-0.0137571
-0.0146118
-0.0147011
-0.0140089
-0.01267
-0.00185923
-0.00271491
-0.00423683
-0.00588478
-0.00773183
-0.00959195
-0.0112769
-0.0125766
-0.0133194
-0.0134198
-0.0128701
-0.0117683
-0.00976546
-0.0083057
-0.00680599
-0.00538555
-0.00412913
-0.00309896
-0.00226778
-0.00163788
-0.00125554
-0.00123035
-0.00158182
-0.00214281
-0.00934474
-0.00807592
-0.00675512
-0.00549208
-0.00431395
-0.00336087
-0.00257922
-0.00198968
-0.00161923
-0.00153217
-0.00168164
-0.00181239
-0.00900162
-0.00788486
-0.00670741
-0.00556068
-0.00448484
-0.00358461
-0.00284582
-0.00228516
-0.00192203
-0.00178932
-0.00184644
-0.00207543
-0.00872352
-0.00772726
-0.00666496
-0.00561521
-0.00462641
-0.00376996
-0.00306789
-0.00252948
-0.00216898
-0.00200071
-0.00198472
-0.00204903
-0.00849901
-0.00759811
-0.00662834
-0.00565972
-0.00474408
-0.00391928
-0.00324962
-0.00272889
-0.00236855
-0.00217356
-0.00210994
-0.00215319
-0.00831898
-0.00749339
-0.00659757
-0.00569566
-0.00484576
-0.00403446
-0.00339625
-0.00288962
-0.00252859
-0.00231399
-0.00221834
-0.00221934
-0.00817655
-0.00740992
-0.00657242
-0.00572261
-0.00491036
-0.00414528
-0.00351355
-0.00301714
-0.00265531
-0.00242627
-0.00230823
-0.00228241
-0.00806641
-0.00734517
-0.00655282
-0.00574338
-0.00496242
-0.00423486
-0.00360267
-0.00311588
-0.00275364
-0.00251405
-0.00238034
-0.00233662
-0.00798436
-0.00729708
-0.00653865
-0.00575968
-0.00500354
-0.00430884
-0.00366384
-0.00318973
-0.00282738
-0.00258014
-0.00243547
-0.00237963
-0.00792701
-0.00726395
-0.00652975
-0.00577261
-0.00503328
-0.00435344
-0.00371661
-0.00324284
-0.00287956
-0.00262676
-0.00247455
-0.00241086
-0.00789156
-0.00724436
-0.006526
-0.00578327
-0.00505283
-0.00438523
-0.00374874
-0.00327721
-0.0029124
-0.00265567
-0.00249857
-0.00243019
-0.00787524
-0.00723642
-0.00652618
-0.00579145
-0.00506094
-0.00439438
-0.00377223
-0.00329538
-0.00292798
-0.00266903
-0.00250941
-0.00243848
-0.00249289
-0.00328996
-0.00461282
-0.00602549
-0.00760096
-0.0091736
-0.0105957
-0.0116957
-0.0123332
-0.0124301
-0.0119842
-0.0110642
-0.00324478
-0.00385671
-0.00494198
-0.00615684
-0.00750637
-0.00885049
-0.0100596
-0.010993
-0.0115349
-0.0116187
-0.0112455
-0.0104632
-0.00384378
-0.0043371
-0.00523897
-0.00628302
-0.0074439
-0.00860133
-0.00963927
-0.0104388
-0.0109032
-0.0109761
-0.0106549
-0.00997825
-0.00433705
-0.00473181
-0.0054926
-0.00639618
-0.00740245
-0.0084086
-0.00930958
-0.0100026
-0.0104048
-0.0104684
-0.0101845
-0.00958906
-0.0047191
-0.00504815
-0.00570648
-0.00649123
-0.00737377
-0.00825831
-0.00904993
-0.00965812
-0.0100105
-0.0100646
-0.00980992
-0.00927747
-0.00501563
-0.00529582
-0.0058824
-0.00656933
-0.00735326
-0.00814064
-0.00884541
-0.00938637
-0.00969883
-0.00974444
-0.00951273
-0.00902928
-0.00524699
-0.00550398
-0.00600649
-0.00663029
-0.00733782
-0.00804886
-0.00868543
-0.00917366
-0.00945475
-0.00949325
-0.00927929
-0.00883382
-0.00542466
-0.00565833
-0.00610471
-0.006677
-0.00732577
-0.0079781
-0.00856221
-0.00900986
-0.00926694
-0.00929975
-0.00909936
-0.00868298
-0.00555493
-0.00577047
-0.00617846
-0.00671117
-0.00731607
-0.00792473
-0.00846978
-0.00888738
-0.00912683
-0.00915532
-0.00896509
-0.00857049
-0.00564476
-0.00584711
-0.00622943
-0.00673401
-0.007308
-0.00788598
-0.00840362
-0.00880025
-0.0090278
-0.00905316
-0.00887036
-0.00849141
-0.00569932
-0.00589306
-0.00625962
-0.00674638
-0.00730083
-0.00785949
-0.00835988
-0.00874344
-0.00896451
-0.0089876
-0.00881008
-0.0084416
-0.00572345
-0.00591323
-0.0062723
-0.00675035
-0.00729516
-0.00784402
-0.00833529
-0.00871078
-0.00892271
-0.00895329
-0.00877978
-0.00841743
-0.00979716
-0.00833532
-0.0068324
-0.00540803
-0.00413693
-0.00310015
-0.00226205
-0.00162576
-0.00123792
-0.00120634
-0.00155335
-0.00212287
-0.00937414
-0.00810366
-0.00678032
-0.0055173
-0.00431696
-0.00336199
-0.0025745
-0.00197882
-0.00160362
-0.00151165
-0.00165695
-0.00178576
-0.00902904
-0.00791077
-0.00673065
-0.00558034
-0.00449189
-0.00358632
-0.00284202
-0.00227582
-0.00190829
-0.00177142
-0.0018254
-0.00205615
-0.00874927
-0.00775146
-0.00668634
-0.00563224
-0.00463475
-0.00377216
-0.00306496
-0.00252147
-0.00215676
-0.00198483
-0.00196611
-0.00203075
-0.00852331
-0.00762081
-0.00664814
-0.00567513
-0.00475276
-0.003922
-0.00324743
-0.00272193
-0.00235756
-0.00215923
-0.00209321
-0.00213615
-0.00834211
-0.00751485
-0.0066161
-0.00570986
-0.00485348
-0.00403857
-0.00339473
-0.00288348
-0.00251859
-0.00230093
-0.00220311
-0.00220338
-0.00819874
-0.00743038
-0.00658997
-0.00573601
-0.00491821
-0.0041495
-0.00351243
-0.00301167
-0.00264617
-0.00241421
-0.00229411
-0.0022674
-0.00808787
-0.00736485
-0.00656962
-0.00575627
-0.00497043
-0.00423906
-0.00360179
-0.00311095
-0.00274516
-0.00250275
-0.00236709
-0.0023224
-0.00800528
-0.00731618
-0.00655491
-0.00577218
-0.00501162
-0.00431309
-0.0036631
-0.0031852
-0.00281941
-0.00256941
-0.00242285
-0.00236604
-0.00794754
-0.00728262
-0.00654564
-0.00578484
-0.00504137
-0.00435746
-0.00371637
-0.00323853
-0.00287191
-0.00261644
-0.00246238
-0.0023977
-0.00791184
-0.00726276
-0.00654164
-0.00579531
-0.00506097
-0.00438948
-0.00374838
-0.00327303
-0.00290495
-0.00264561
-0.00248668
-0.00241731
-0.0078954
-0.00725467
-0.00654169
-0.00580335
-0.00506921
-0.00439848
-0.00377202
-0.00329138
-0.0029206
-0.00265911
-0.00249766
-0.00242573
-0.00245718
-0.0032548
-0.00458193
-0.00600113
-0.0075823
-0.00915963
-0.0105833
-0.0116822
-0.0123163
-0.012409
-0.0119589
-0.0110359
-0.003211
-0.00382386
-0.00491247
-0.00613222
-0.00748652
-0.00883429
-0.0100448
-0.0109775
-0.0115169
-0.0115979
-0.0112212
-0.0104364
-0.00381161
-0.00430592
-0.0052105
-0.00625831
-0.00742307
-0.00858346
-0.0096227
-0.0104218
-0.0108844
-0.0109551
-0.0106312
-0.00995271
-0.00430629
-0.00470191
-0.00546491
-0.00637143
-0.00738085
-0.00838949
-0.00929167
-0.00998445
-0.0103854
-0.0104469
-0.0101613
-0.0095645
-0.0046892
-0.00501918
-0.00567929
-0.00646647
-0.00735165
-0.0082383
-0.00903103
-0.00963911
-0.00999044
-0.010043
-0.00978709
-0.00925368
-0.00498658
-0.00526765
-0.00585551
-0.00654459
-0.00733076
-0.00811997
-0.00882573
-0.00936671
-0.00967842
-0.00972281
-0.0094902
-0.0090061
-0.00521859
-0.00547634
-0.00597993
-0.00660558
-0.00731505
-0.00802769
-0.00866517
-0.00915351
-0.00943408
-0.00947167
-0.00925702
-0.00881112
-0.00539673
-0.00563103
-0.00607847
-0.00665234
-0.0073028
-0.00795656
-0.00854151
-0.00898936
-0.00924608
-0.00927823
-0.00907729
-0.00866066
-0.00552733
-0.00574342
-0.00615243
-0.00668657
-0.00729298
-0.00790292
-0.00844879
-0.00886664
-0.00910584
-0.00913384
-0.0089432
-0.00854847
-0.00561739
-0.00582025
-0.00620354
-0.00670943
-0.00728482
-0.00786399
-0.00838242
-0.00877935
-0.00900671
-0.00903172
-0.00884861
-0.0084696
-0.00567208
-0.00586632
-0.00623381
-0.00672182
-0.0072776
-0.0078374
-0.00833857
-0.00872246
-0.00894335
-0.00896621
-0.00878843
-0.00841994
-0.00569627
-0.00588654
-0.00624652
-0.00672579
-0.0072719
-0.00782188
-0.00831392
-0.00868976
-0.00890189
-0.00893198
-0.00875821
-0.00839586
-0.00976738
-0.008306
-0.0068047
-0.00538253
-0.00412031
-0.00308761
-0.00225445
-0.00162314
-0.00123982
-0.00121384
-0.00156562
-0.00213201
-0.00934626
-0.0080761
-0.00675386
-0.00549045
-0.00430399
-0.00334999
-0.00256663
-0.00197561
-0.00160421
-0.00151653
-0.00166598
-0.0017964
-0.00900269
-0.00788477
-0.00670586
-0.00555747
-0.0044766
-0.00357438
-0.00283387
-0.00227178
-0.00190768
-0.0017744
-0.00183156
-0.00206201
-0.00872417
-0.00772682
-0.00666304
-0.00561132
-0.00461896
-0.00376026
-0.00305647
-0.00251668
-0.00215521
-0.00198639
-0.00197028
-0.00203509
-0.00849925
-0.00759731
-0.00662607
-0.00565548
-0.00473704
-0.00390999
-0.00323864
-0.00271657
-0.00235527
-0.0021597
-0.00209587
-0.00213936
-0.00831887
-0.00749226
-0.00659501
-0.00569122
-0.00483898
-0.00402544
-0.00338563