/*--------------------------------*- C++ -*----------------------------------*\
| =========                 |                                                 |
| \\      /  F ield         | OpenFOAM: The Open Source CFD Toolbox           |
|  \\    /   O peration     | Version:  2.4.0                                 |
|   \\  /    A nd           | Web:      www.OpenFOAM.org                      |
|    \\/     M anipulation  |                                                 |
\*---------------------------------------------------------------------------*/
FoamFile
{
    version     2.0;
    format      ascii;
    class       volScalarField;
    location    "0.45";
    object      alpha.water;
}
// * * * * * * * * * * * * * * * * * * * * * * * * * * * * * * * * * * * * * //

dimensions      [0 0 0 0 0 0 0];

internalField   nonuniform List<scalar> 
3072
(
1.59766e-16
3.15905e-15
6.23769e-15
9.49092e-15
1.55067e-15
3.44824e-15
8.54022e-14
8.79611e-13
2.79959e-12
5.68652e-12
8.25132e-12
8.25046e-12
2.27721e-15
3.66749e-14
9.59642e-14
2.29014e-13
1.75581e-12
5.42911e-12
9.50282e-12
1.41993e-11
2.17481e-11
3.27966e-11
1.0972e-07
1.20414e-05
1.59712e-14
1.95208e-13
9.08144e-13
2.42876e-12
4.6376e-12
7.79411e-12
1.21265e-11
1.98487e-11
3.42774e-11
5.77749e-11
2.60738e-07
4.08428e-06
7.01315e-14
6.29901e-13
1.94786e-12
3.56134e-12
5.41774e-12
7.4743e-12
1.03822e-11
1.7492e-11
3.34525e-11
7.12714e-08
1.14105e-06
1.27865e-06
1.41931e-13
1.02891e-12
2.98935e-12
5.62246e-12
8.27846e-12
9.52576e-12
8.61527e-12
8.51026e-12
1.03603e-11
3.04674e-09
5.677e-12
5.57631e-12
1.88396e-13
1.28769e-12
4.00957e-12
8.49382e-12
1.41154e-11
1.6789e-11
8.59294e-12
7.21398e-12
7.11445e-12
1.35324e-11
0.0511743
0.10847
2.12002e-13
1.34203e-12
4.44411e-12
1.06205e-11
2.106e-11
3.54824e-11
3.01827e-11
0.0564804
0.352444
0.570524
0.758744
0.862152
2.53571e-13
1.25763e-12
4.10304e-12
1.03644e-11
2.19307e-11
3.72086e-11
0.0625629
0.532705
0.977906
1
1
1
7.68697e-13
1.16399e-12
3.33922e-12
8.32303e-12
1.82656e-11
1.81177e-11
0.0488031
0.868256
1
1
1
1
1.96094e-12
1.2039e-12
2.59501e-12
5.84062e-12
1.35543e-11
2.69169e-11
2.74908e-11
0.758721
1
1
1
1
1.62276e-11
1.95182e-12
2.25781e-12
4.17171e-12
9.26543e-12
2.02517e-11
1.27933e-11
0.164511
0.90755
1
1
1
1.96969e-12
1.96044e-12
1.96969e-12
3.78483e-12
6.33115e-12
1.25735e-11
1.27857e-11
2.79442e-11
0.226134
0.691364
0.945552
0.900925
8.2639e-12
8.25133e-12
2.09294e-11
5.88109e-11
5.77574e-11
9.33301e-11
1.31057e-10
1.8228e-10
1.58477e-06
4.87085e-06
5.37817e-06
8.64865e-15
1.59781e-05
1.081e-05
1.52134e-11
3.15102e-11
0.00428517
0.0134443
0.00525901
2.40629e-10
3.13155e-10
3.39751e-10
9.86635e-06
8.65039e-15
4.6657e-06
7.91226e-07
0.000991731
0.189482
0.422925
0.458572
0.306544
0.231996
0.138504
0.0215118
3.0493e-11
8.65746e-15
3.25061e-11
3.70708e-11
0.262623
0.561795
0.561804
0.561988
0.562158
0.561976
0.562229
0.355928
0.0753984
8.65033e-15
5.67606e-12
2.27432e-11
0.00760828
0.270666
0.514701
0.561853
0.56204
0.562157
0.561976
0.562157
0.472158
4.98794e-12
0.079558
0.0122835
0.00514019
6.99811e-11
6.47763e-11
0.0960001
0.27092
0.401721
0.521589
0.561886
0.561851
0.00972779
0.890159
0.814575
0.348447
0.00788124
4.27107e-11
4.27126e-11
4.27107e-11
4.67642e-11
0.0405243
0.337079
0.561886
0.208224
1
1
0.919739
0.265875
4.2999e-11
5.34074e-06
4.27396e-11
6.36324e-11
4.9246e-11
5.02546e-11
0.476855
0.465333
1
1
1
0.446474
0.000913044
2.12945e-05
6.5955e-11
0.00116696
0.00542885
6.57844e-11
0.0375517
0.478674
1
1
0.931302
0.248811
3.3952e-11
1.40283e-11
0.0176649
0.116359
0.160386
0.0390594
0.00271221
0.272295
1
0.9566
0.355812
4.4414e-11
2.47032e-11
1.35846e-11
0.0581429
0.204165
0.204215
0.198108
0.0123174
0.11988
0.691679
0.228508
0.000896272
4.63875e-11
3.04362e-11
1.41667e-11
0.00659885
0.160714
0.204165
0.204215
0.0554807
0.188914
1.43084e-25
9.1886e-24
2.74303e-23
1.71844e-24
3.20562e-25
3.8355e-22
2.67191e-20
3.36389e-19
2.14056e-18
8.79215e-18
2.6604e-17
6.4692e-17
6.4755e-24
4.06641e-22
1.0637e-21
5.65063e-20
8.03069e-19
5.53269e-18
2.3625e-17
7.22772e-17
1.74797e-16
3.58447e-16
6.55182e-16
1.10329e-15
1.9361e-22
1.35472e-20
3.02038e-19
2.7901e-18
1.50307e-17
5.55719e-17
1.57126e-16
3.66401e-16
7.43634e-16
1.3641e-15
2.32104e-15
3.75437e-15
3.93973e-21
1.68766e-19
2.01612e-18
1.25132e-17
5.15042e-17
1.59508e-16
4.02682e-16
8.76432e-16
1.71177e-15
3.08551e-15
5.23197e-15
8.42431e-15
1.29696e-20
4.20321e-19
4.23717e-18
2.34326e-17
8.92409e-17
2.6328e-16
6.4746e-16
1.39581e-15
2.73286e-15
4.97769e-15
8.56484e-15
1.4028e-14
1.58271e-20
4.93565e-19
4.91933e-18
2.6989e-17
1.02401e-16
3.02357e-16
7.47147e-16
1.62298e-15
3.2076e-15
5.90591e-15
1.02937e-14
1.71624e-14
1.15275e-20
3.68954e-19
3.86759e-18
2.21019e-17
8.67321e-17
2.63008e-16
6.62883e-16
1.45834e-15
2.89944e-15
5.34149e-15
9.29532e-15
1.55431e-14
6.82541e-21
2.05501e-19
2.25666e-18
1.36703e-17
5.67874e-17
1.80402e-16
4.69953e-16
1.05236e-15
2.09509e-15
3.79607e-15
6.3688e-15
1.00694e-14
4.1156e-21
9.63566e-20
1.02617e-18
6.50521e-18
2.90411e-17
9.87165e-17
2.70933e-16
6.26026e-16
1.2594e-15
2.26446e-15
3.63568e-15
5.23695e-15
2.611e-21
4.11338e-20
3.75498e-19
2.44282e-18
1.28041e-17
4.77685e-17
1.39659e-16
3.3443e-16
6.78488e-16
1.19586e-15
1.81708e-15
2.34148e-15
1.28783e-21
1.3613e-20
1.00733e-19
8.28306e-19
4.93862e-18
2.02943e-17
6.3433e-17
1.57713e-16
3.22618e-16
5.54688e-16
7.91931e-16
9.11194e-16
2.77069e-26
2.77272e-26
3.72636e-26
1.86756e-19
1.51978e-18
7.20741e-18
2.46351e-17
6.4299e-17
1.33177e-16
2.22785e-16
2.97332e-16
3.29564e-16
1.34393e-16
2.51192e-16
4.39277e-16
7.41233e-16
1.231e-15
1.64395e-15
1.81964e-15
1.69185e-15
1.22577e-15
5.77325e-16
9.90528e-17
1.53892e-19
1.75882e-15
2.68601e-15
3.96483e-15
5.71518e-15
7.6915e-15
9.25881e-15
9.89017e-15
9.15423e-15
6.96812e-15
3.79334e-15
9.69649e-16
5.34826e-18
5.81156e-15
8.66139e-15
1.24732e-14
1.73719e-14
2.24367e-14
2.65923e-14
2.86225e-14
2.69055e-14
2.12719e-14
1.26818e-14
4.19591e-15
6.61997e-17
1.30025e-14
1.92955e-14
2.75688e-14
3.79816e-14
4.89087e-14
5.84368e-14
6.32621e-14
6.0352e-14
4.90467e-14
3.10242e-14
1.21388e-14
4.36811e-16
2.19559e-14
3.29863e-14
4.76482e-14
6.62009e-14
8.74459e-14
1.07588e-13
1.19392e-13
1.16114e-13
9.66717e-14
6.36597e-14
2.7836e-14
1.8686e-15
2.75752e-14
4.29284e-14
6.48245e-14
9.45234e-14
1.33628e-13
1.74386e-13
2.01675e-13
2.01193e-13
1.71911e-13
1.16983e-13
5.54773e-14
5.91882e-15
2.54167e-14
4.13254e-14
6.73975e-14
1.11326e-13
1.79354e-13
2.557e-13
3.11691e-13
3.20372e-13
2.82109e-13
1.98742e-13
1.01157e-13
1.53672e-14
1.55129e-14
2.51769e-14
4.86129e-14
1.12816e-13
2.24313e-13
3.5158e-13
4.48457e-13
4.737e-13
4.30358e-13
3.16596e-13
1.73682e-13
3.53715e-14
6.70167e-15
8.91689e-15
3.74479e-14
1.34876e-13
2.99697e-13
4.80097e-13
6.1399e-13
6.56941e-13
6.10827e-13
4.75247e-13
2.85401e-13
7.71305e-14
2.53022e-15
6.68266e-15
5.97249e-14
2.15555e-13
4.53788e-13
6.92393e-13
8.52799e-13
8.95996e-13
8.33226e-13
6.67947e-13
4.29904e-13
1.48849e-13
1.10578e-15
2.1107e-14
1.51683e-13
4.33231e-13
7.74589e-13
1.05392e-12
1.19831e-12
1.20158e-12
1.09628e-12
8.94172e-13
6.09937e-13
2.56188e-13
3.44625e-15
1.20163e-13
4.66811e-13
9.49842e-13
1.36291e-12
1.59337e-12
1.63322e-12
1.53767e-12
1.36323e-12
1.12936e-12
8.24389e-13
4.61283e-13
5.63712e-29
8.66893e-27
3.02312e-26
1.46447e-27
1.04157e-28
8.66147e-25
1.19549e-22
2.17547e-21
1.88528e-20
1.01198e-19
3.85938e-19
1.14431e-18
3.77805e-27
5.32975e-25
1.58379e-24
1.8406e-22
4.19373e-21
4.20213e-20
2.44183e-19
9.62469e-19
2.86419e-18
6.96129e-18
1.46425e-17
2.77219e-17
1.6887e-25
2.58959e-23
9.9344e-22
1.43608e-20
1.11972e-19
5.61149e-19
2.03454e-18
5.81053e-18
1.39181e-17
2.92623e-17
5.57695e-17
9.93858e-17
4.84726e-24
3.7175e-22
7.33309e-21
6.91005e-20
4.01192e-19
1.64687e-18
5.23099e-18
1.37218e-17
3.11984e-17
6.36948e-17
1.19763e-16
2.10348e-16
1.40079e-23
8.14019e-22
1.35504e-20
1.14094e-19
6.14358e-19
2.40222e-18
7.41094e-18
1.9147e-17
4.32899e-17
8.84108e-17
1.66707e-16
2.9399e-16
1.25738e-23
7.19031e-22
1.21039e-20
1.03121e-19
5.61664e-19
2.21814e-18
6.89243e-18
1.78623e-17
4.03064e-17
8.17301e-17
1.52421e-16
2.66143e-16
6.12548e-24
3.69833e-22
6.76331e-21
6.17358e-20
3.55737e-19
1.46533e-18
4.677e-18
1.22454e-17
2.7428e-17
5.41881e-17
9.66446e-17
1.59028e-16
2.30367e-24
1.33235e-22
2.64564e-21
2.6506e-20
1.66589e-19
7.35455e-19
2.4616e-18
6.59373e-18
1.4712e-17
2.8084e-17
4.65527e-17
6.72542e-17
8.68204e-25
3.87206e-23
7.66666e-22
8.35826e-21
5.86252e-20
2.85583e-19
1.02974e-18
2.8833e-18
6.5143e-18
1.22165e-17
1.89769e-17
2.38962e-17
3.4418e-25
1.00137e-23
1.70876e-22
2.01646e-21
1.72532e-20
9.57473e-20
3.76988e-19
1.1081e-18
2.53113e-18
4.60617e-18
6.61874e-18
7.16693e-18
1.03826e-25
1.95779e-24
2.66981e-23
4.23588e-22
4.3659e-21
2.77269e-20
1.19468e-19
3.68412e-19
8.48148e-19
1.48776e-18
1.96141e-18
1.82256e-18
1.16823e-26
1.88403e-25
3.13284e-24
6.7005e-23
8.78599e-22
6.61439e-21
3.17676e-20
1.03558e-19
2.40458e-19
4.04273e-19
4.85187e-19
3.87092e-19
2.81456e-18
6.08214e-18
1.20698e-17
2.27722e-17
4.17446e-17
6.04608e-17
7.19636e-17
7.14553e-17
5.42419e-17
2.5448e-17
3.77283e-18
3.64071e-21
4.88585e-17
8.14152e-17
1.29825e-16
2.00571e-16
2.87997e-16
3.71337e-16
4.26719e-16
4.25473e-16
3.44921e-16
1.92576e-16
4.49073e-17
1.59965e-19
1.67152e-16
2.67806e-16
4.10932e-16
6.05449e-16
8.31982e-16
1.06344e-15
1.24989e-15
1.2927e-15
1.11449e-15
7.01841e-16
2.24349e-16
2.45661e-18
3.49423e-16
5.52216e-16
8.33232e-16
1.20483e-15
1.65978e-15
2.17452e-15
2.64614e-15
2.8682e-15
2.61823e-15
1.80052e-15
7.13445e-16
1.95446e-17
4.89438e-16
7.75654e-16
1.17703e-15
1.71835e-15
2.47814e-15
3.474e-15
4.54828e-15
5.26946e-15
5.11578e-15
3.7714e-15
1.73076e-15
9.71977e-17
4.42247e-16
7.10546e-16
1.11876e-15
1.75509e-15
2.83382e-15
4.52854e-15
6.68562e-15
8.48508e-15
8.84794e-15
6.94711e-15
3.55581e-15
3.44189e-16
2.48665e-16
3.87513e-16
6.41839e-16
1.20442e-15
2.46265e-15
4.96297e-15
8.72451e-15
1.23753e-14
1.39738e-14
1.16941e-14
6.57345e-15
9.64106e-16
8.44096e-17
9.63502e-17
1.55152e-16
5.03447e-16
1.76299e-15
5.06469e-15
1.07742e-14
1.69245e-14
2.05457e-14
1.83529e-14
1.13201e-14
2.32643e-15
2.26754e-17
1.18585e-17
2.92014e-17
3.32801e-16
1.88746e-15
6.33033e-15
1.41166e-14
2.28299e-14
2.86847e-14
2.71921e-14
1.85366e-14
5.20481e-15
5.16407e-18
2.51154e-18
3.82985e-17
5.0787e-16
2.89547e-15
9.56111e-15
2.08597e-14
3.32464e-14
4.14621e-14
3.97651e-14
2.85012e-14
1.02405e-14
1.06335e-18
2.18465e-18
8.99889e-17
1.09043e-15
5.6149e-15
1.70689e-14
3.47909e-14
5.28201e-14
6.34395e-14
5.97207e-14
4.33372e-14
1.82757e-14
2.10307e-19
6.53869e-18
2.76294e-16
2.79736e-15
1.24822e-14
3.38628e-14
6.32323e-14
9.0097e-14
1.02967e-13
9.40021e-14
6.79926e-14
3.80424e-14
1
1
1
1
1
1
1
1
1
1
1
1
1
1
1
1
1
1
1
1
1
1
1
1
1
1
1
1
1
1
1
1
1
1
1
1
1
1
1
1
1
1
1
1
1
1
1
0.928015
1
1
1
1
1
1
1
1
1
0.699531
0.148681
0.0496526
1
1
1
1
1
1
1
0.938346
0.310121
0.0193959
6.1463e-11
4.89269e-11
1
1
1
1
1
1
0.984764
0.482063
6.05049e-11
6.30731e-11
4.0281e-11
2.82041e-11
1
1
1
1
1
1
0.859464
0.10909
4.47682e-11
4.77704e-11
3.84508e-11
4.09547e-11
1
1
1
1
1
1
0.891869
0.125864
4.47684e-11
4.50657e-11
3.30327e-11
3.89408e-11
1
1
1
1
1
1
0.999246
0.422946
4.9152e-11
3.16734e-11
3.16823e-11
3.16734e-11
1
1
1
1
1
1
1
0.937271
0.626013
0.497635
0.361133
0.11255
1
1
1
1
1
1
1
1
1
0.994305
1
1
1
1
1
1
1
1
1
1
1
1
1
1
1
1
1
1
1
1
1
1
1
1
1
1
1
0.999978
0.999579
1
1
1
1
1
1
1
1
1
0.693845
0.567578
0.536449
0.5827
0.726114
0.880081
0.989841
1
1
1
1
1
0.0196262
4.02851e-12
3.77639e-12
1.04127e-11
0.0012586
0.158005
0.540142
0.940089
1
1
1
1
2.65208e-11
4.65751e-12
7.95407e-12
1.01036e-11
3.14686e-12
3.14686e-12
2.95154e-11
0.41888
0.985134
1
1
1
3.19105e-11
4.3961e-11
5.52565e-11
6.27275e-11
6.63132e-11
6.39325e-11
5.14391e-11
0.0675567
0.733191
0.988462
1
1
5.51458e-11
6.95139e-11
7.71487e-11
8.24022e-11
8.55102e-11
8.65961e-11
7.2061e-11
0.0287866
0.557271
0.863899
0.918684
1
5.63743e-11
7.13925e-11
8.17822e-11
9.27892e-11
9.83653e-11
1.06624e-10
9.41436e-11
0.0247346
0.655802
0.84948
0.839123
0.998441
3.16823e-11
4.72127e-11
6.28377e-11
8.47233e-11
1.02826e-10
1.19753e-10
0.0218317
0.34269
0.86073
1
0.984274
0.924283
0.00419321
0.00180916
0.00352304
0.0326515
0.122469
0.11643
0.164363
0.686656
1
1
1
0.884982
0.958981
0.626194
0.500561
0.603854
0.777585
0.648227
0.479747
0.708267
0.997939
1
1
0.91257
0.889469
0.699759
0.272754
2.16167e-11
6.30874e-12
6.28768e-12
1.03276e-11
1.68927e-11
3.30455e-11
0.045414
0.190236
0.130022
1
1
0.969902
0.87303
0.423184
0.00120516
1.03691e-11
1.21153e-11
2.95038e-11
2.52045e-11
2.73983e-11
4.20399e-11
1
1
1
1
0.987402
0.838554
0.254435
2.42036e-11
1.16132e-11
1.15343e-11
1.16132e-11
0.00770425
1
1
0.999947
0.999894
0.999999
1
0.960581
0.771681
0.53556
0.394821
0.357929
0.310334
0.0343986
0.00176895
0.00155569
0.0060048
0.00463676
0.000259072
9.98538e-12
6.04632e-14
0.113578
0.168209
0.0522655
0.0574777
5.15769e-11
0.0090364
0.0608094
0.0848495
0.0276424
2.48038e-11
1.13999e-11
1.8952e-12
6.04631e-14
5.98033e-15
0.000880949
1.71284e-07
0.0297252
0.0952641
0.0984582
0.0911679
0.020137
1.72241e-11
1.15245e-11
7.26669e-12
3.79295e-12
3.16758e-11
1.98982e-11
1.5844e-07
0.208493
0.0511822
0.00186066
2.21276e-12
1.5539e-12
2.89742e-12
5.92548e-12
8.55405e-12
9.07877e-12
7.80711e-12
7.62088e-12
2.4359e-08
0.0533774
0.0351692
0.00165723
1.3849e-11
2.5243e-17
2.85535e-18
8.51509e-14
1.13553e-13
1.01631e-13
8.33287e-14
6.95733e-14
6.24369e-14
0.00991657
0.0283429
0.0122089
3.09926e-11
1.85838e-05
4.62071e-12
2.52319e-13
1.20649e-13
7.17888e-13
9.95007e-13
1.07275e-12
1.15836e-12
7.81948e-09
0.00146664
0.00277254
0.00121939
0.00050313
0.000782057
0.000583164
5.35983e-05
9.74984e-12
6.70232e-12
6.37347e-12
7.02408e-12
9.9256e-09
4.67345e-11
5.86086e-11
4.50313e-05
0.000175941
0.000861804
0.000869159
0.000861804
0.000444005
1.64118e-11
1.21097e-11
9.4052e-12
1.60966e-13
6.94673e-13
1.40429e-12
1.97095e-12
2.22596e-12
2.20756e-12
2.02361e-12
1.77672e-12
1.52675e-12
1.29212e-12
1.03539e-12
6.77144e-13
1.94996e-12
2.85935e-12
3.34631e-12
3.34434e-12
3.01309e-12
2.55133e-12
2.09369e-12
1.71214e-12
1.42303e-12
1.23024e-12
1.04038e-12
7.86385e-13
6.96229e-12
6.15209e-12
5.03001e-12
3.89987e-12
2.91717e-12
2.14925e-12
1.58744e-12
1.20767e-12
9.70295e-13
8.57263e-13
7.68136e-13
6.7462e-13
7.05856e-12
5.0323e-12
3.43137e-12
2.29865e-12
1.50846e-12
9.81086e-13
6.49706e-13
4.59754e-13
3.6229e-13
3.25904e-13
3.47007e-13
4.00573e-13
4.21809e-13
2.18809e-13
8.22103e-14
2.18083e-14
4.70282e-15
9.75793e-16
2.14976e-16
5.23944e-17
1.43835e-17
4.5329e-18
1.66781e-18
7.02569e-19
5.61361e-13
3.62969e-13
2.02856e-13
9.32699e-14
3.49829e-14
1.12805e-14
3.4087e-15
1.04112e-15
3.3781e-16
1.20391e-16
4.802e-17
2.20813e-17
5.37253e-13
3.88584e-13
2.52462e-13
1.44975e-13
7.28669e-14
3.22336e-14
1.29486e-14
4.97634e-15
1.93272e-15
7.98156e-16
3.62644e-16
2.10886e-16
3.79668e-13
3.10664e-13
2.24435e-13
1.45302e-13
8.4981e-14
4.52226e-14
2.22301e-14
1.04221e-14
4.8806e-15
2.40537e-15
1.23553e-15
6.30631e-16
9.36609e-19
2.62689e-17
9.22109e-16
7.66508e-15
2.94494e-14
7.06915e-14
1.20563e-13
1.60366e-13
1.75071e-13
1.56e-13
1.21154e-13
3.63233e-14
2.15156e-17
1.06179e-16
3.0319e-15
2.11042e-14
7.05375e-14
1.50209e-13
2.34093e-13
2.90091e-13
3.0285e-13
2.64435e-13
2.10253e-13
1.25983e-13
1.42791e-16
3.6524e-16
9.57008e-15
5.78355e-14
1.6994e-13
3.2101e-13
4.53579e-13
5.21116e-13
5.1765e-13
4.44931e-13
3.57237e-13
2.39512e-13
3.26421e-16
1.02008e-15
3.05057e-14
1.63334e-13
4.14229e-13
6.8865e-13
8.63193e-13
9.02719e-13
8.49159e-13
7.16446e-13
5.61786e-13
3.85951e-13
0.045467
0.287952
0.894021
1
1
1
1
1
1
1
1
1
1.46404e-11
2.68687e-11
0.0835238
0.450106
0.976945
1
1
1
1
1
0.992585
0.934046
5.06345e-12
1.21006e-11
2.67001e-11
3.81099e-11
0.156921
0.572358
0.99178
1
1
0.930447
0.876715
0.792002
2.12019e-12
5.89004e-12
1.30563e-11
2.16225e-11
3.23513e-11
4.67223e-11
0.113105
0.236188
0.299133
0.366492
0.487291
0.719035
1
1
1
0.964948
0.956873
0.779101
0.814474
0.85175
0.979429
1
1
0.998506
0.915914
0.887258
0.780687
0.528834
0.529864
0.714958
0.99526
1
1
1
1
1
0.420703
0.391431
0.393867
0.525295
0.781023
0.99823
1
1
1
1
1
1
0.859821
0.917124
1
1
1
1
1
1
1
1
1
1
0.999962
0.999888
0.999886
0.999971
1
0.97621
0.587798
0.283142
0.116212
0.0381642
9.14674e-12
6.19058e-20
0.999666
1
0.999986
0.999988
0.866726
0.321751
0.0201089
2.94391e-11
1.49148e-11
1.79922e-12
1.81151e-12
1.00948e-12
0.999889
1
1
0.864362
0.261243
3.81909e-11
2.72491e-11
1.62309e-11
8.83277e-12
4.86697e-12
2.18346e-12
8.20925e-13
1
1
0.906988
0.330828
3.84542e-11
2.61725e-11
2.43627e-11
1.52751e-11
8.62895e-12
4.02002e-12
1.44531e-12
4.0283e-13
1.00163e-19
6.13176e-20
1.00829e-19
5.34215e-13
2.405e-12
6.7611e-12
1.33261e-11
1.80427e-11
1.57158e-11
8.99652e-12
1.10328e-11
2.35072e-11
4.59967e-13
1.16108e-13
4.5001e-14
4.5449e-13
2.22025e-12
7.00423e-12
1.54458e-11
2.39141e-11
2.53774e-11
1.90692e-11
1.53225e-11
1.88631e-11
2.84533e-13
4.54343e-14
2.97319e-14
3.01863e-13
1.63451e-12
5.89137e-12
1.50265e-11
2.74666e-11
3.5686e-11
3.34427e-11
2.67856e-11
2.60808e-11
1.02613e-13
6.9602e-15
1.46058e-14
1.46329e-13
8.91411e-13
3.73832e-12
1.12901e-11
2.48931e-11
3.99192e-11
4.61603e-11
4.12811e-11
3.70428e-11
9.01473e-10
3.49656e-11
4.90874e-11
0.000128983
0.000628352
0.000708699
0.000325277
0.000140786
1.88739e-05
1.85249e-15
1.93574e-15
5.61957e-16
3.60557e-11
4.66353e-11
4.0632e-05
0.00013296
0.000135141
4.93567e-05
2.00483e-11
1.3512e-11
1.11241e-11
1.87144e-13
1.11741e-14
1.01301e-15
3.76661e-11
2.97659e-06
1.62827e-05
2.1963e-05
2.5212e-11
1.67375e-11
6.44725e-12
1.57031e-12
6.983e-14
7.60765e-15
1.13502e-15
1.96145e-16
1.01343e-07
7.06063e-07
3.65083e-11
2.42394e-11
1.38692e-11
6.05141e-12
9.44816e-13
8.05443e-14
1.18807e-14
1.93483e-15
2.84244e-16
3.6694e-17
1.80054e-16
3.62773e-17
6.52384e-18
7.24244e-17
4.78061e-16
2.19641e-15
8.1503e-15
2.54098e-14
6.58316e-14
1.31094e-13
1.94663e-13
2.35018e-13
1.6524e-16
2.06781e-17
2.69365e-18
3.09238e-17
2.1643e-16
1.04066e-15
3.87664e-15
1.17831e-14
2.96094e-14
6.06498e-14
9.74916e-14
1.18518e-13
3.34311e-17
2.62607e-18
7.03422e-19
9.57779e-18
7.1467e-17
3.67658e-16
1.44504e-15
4.57726e-15
1.19586e-14
2.57972e-14
4.35422e-14
5.28457e-14
4.11776e-18
1.13778e-19
1.55818e-19
2.16603e-18
1.77803e-17
1.01049e-16
4.33001e-16
1.47927e-15
4.16683e-15
9.78445e-15
1.72565e-14
2.09676e-14
2.03462e-13
1.50295e-13
9.26937e-14
5.01684e-14
2.46732e-14
1.13756e-14
4.90788e-15
1.93772e-15
6.37149e-16
8.41311e-17
4.23434e-21
6.08913e-20
9.58351e-14
6.555e-14
3.53546e-14
1.64799e-14
6.89247e-15
2.65684e-15
9.02295e-16
2.31329e-16
1.53356e-17
1.75115e-19
9.48238e-21
7.45531e-21
4.02457e-14
2.58558e-14
1.22755e-14
4.91911e-15
1.69e-15
4.94029e-16
1.04119e-16
7.29367e-18
2.03803e-19
1.33663e-20
1.20647e-21
5.1425e-22
1.50811e-14
9.12589e-15
3.77086e-15
1.25882e-15
3.28152e-16
6.03295e-17
4.93159e-18
1.96332e-19
1.37742e-20
1.14276e-21
9.51389e-23
1.42508e-23
1.49428e-17
2.99343e-15
1.05619e-13
5.12166e-13
1.05966e-12
1.44398e-12
1.51951e-12
1.42155e-12
1.29896e-12
1.35566e-12
1.87739e-12
3.00542e-12
8.52092e-18
2.65852e-15
9.72609e-14
4.74485e-13
1.11679e-12
1.74074e-12
2.12012e-12
2.39248e-12
2.77472e-12
3.40421e-12
4.65437e-12
7.09771e-12
6.84529e-18
2.44002e-15
7.48881e-14
3.83926e-13
1.0518e-12
1.90181e-12
2.62251e-12
3.28346e-12
4.24041e-12
5.58609e-12
7.62679e-12
1.10996e-11
1.19721e-17
2.669e-15
4.35719e-14
2.51978e-13
8.31808e-13
1.79472e-12
2.8104e-12
3.7054e-12
4.89989e-12
6.72031e-12
9.37273e-12
1.33662e-11
6.7686e-12
1.35939e-11
2.41791e-11
3.5833e-11
0.144715
0.697693
0.914648
0.989741
1
1
1
1
1.24954e-11
2.07995e-11
3.23898e-11
0.0397468
0.546809
1
1
1
1
1
1
1
1.73649e-11
2.61131e-11
3.83857e-11
0.183408
0.899928
1
1
1
1
1
1
1
1.95204e-11
2.58734e-11
3.82242e-11
0.206102
0.953927
1
1
1
1
1
1
1
1
1
1
1
1
1
1
1
1
1
1
0.999968
1
1
1
1
1
1
1
1
1
0.999925
0.999598
0.99949
1
1
1
1
1
1
1
1
1
0.999751
0.99949
0.999489
1
1
1
1
1
1
1
1
0.999997
0.999896
0.999775
0.99984
1
1
0.914622
0.323804
0.0220962
3.4238e-11
2.35566e-11
1.39092e-11
7.04004e-12
2.83957e-12
8.35555e-13
1.60573e-13
1
1
0.988704
0.657138
0.138363
2.78132e-11
1.99515e-11
1.11996e-11
5.20043e-12
1.84982e-12
4.54682e-13
6.12189e-14
1
1
1
0.864028
0.200484
1.65096e-11
1.64885e-11
8.70587e-12
3.6725e-12
1.151e-12
2.38911e-13
2.46814e-14
1
1
1
0.909528
0.210157
2.43314e-11
1.37026e-11
6.56999e-12
2.48557e-12
6.85376e-13
1.21448e-13
9.99477e-15
1
1
1
0.853467
0.145491
2.07993e-11
1.08783e-11
4.70853e-12
1.58952e-12
3.87401e-13
5.94192e-14
3.9998e-15
1
1
1
0.60456
0.035453
1.69059e-11
8.09271e-12
3.13882e-12
9.49979e-13
2.06894e-13
2.78292e-14
1.56179e-15
1
1
0.917691
0.237458
2.342e-11
1.19956e-11
5.29789e-12
1.90616e-12
5.27256e-13
1.0308e-13
1.21572e-14
5.70934e-16
1
0.993384
0.49182
0.0224215
1.72166e-11
8.27852e-12
3.30831e-12
1.07139e-12
2.64782e-13
4.5618e-14
4.63555e-15
1.7926e-16
1
0.761842
0.115284
2.09934e-11
1.1078e-11
4.96665e-12
1.81289e-12
5.18194e-13
1.10284e-13
1.60539e-14
1.34525e-15
4.08087e-17
0.979242
0.385374
0.00535581
1.46137e-11
6.77782e-12
2.58092e-12
7.80373e-13
1.79788e-13
3.01501e-14
3.39561e-15
2.14538e-16
4.5985e-18
0.890636
0.21287
1.77403e-11
8.33258e-12
3.11135e-12
8.73447e-13
1.81028e-13
2.75129e-14
2.99331e-15
2.16834e-16
8.59449e-18
1.03364e-19
0.753286
0.0889717
1.04389e-11
2.64169e-12
3.95233e-13
3.87176e-14
2.72767e-15
1.45829e-16
5.81802e-18
1.57106e-19
2.20533e-21
1.92057e-23
9.74678e-18
2.64571e-16
4.64233e-15
4.87657e-14
3.37767e-13
1.66159e-12
6.01499e-12
1.62287e-11
3.28323e-11
5.25882e-11
8.02831e-11
1.30285e-09
1.73485e-18
5.29796e-17
9.73938e-16
1.12406e-14
8.84908e-14
5.07733e-13
2.19362e-12
7.2222e-12
1.81354e-11
3.45791e-11
5.49498e-11
1.37737e-10
1.69193e-19
6.95575e-18
1.44952e-16
1.86363e-15
1.65854e-14
1.1002e-13
5.63953e-13
2.25665e-12
7.02789e-12
1.72431e-11
2.95454e-11
4.10006e-11
1.22486e-20
6.6736e-19
1.60584e-17
2.31753e-16
2.32095e-15
1.7595e-14
1.05896e-13
5.15622e-13
2.029e-12
6.1899e-12
1.26331e-11
1.8042e-11
6.9648e-22
4.84641e-20
1.35306e-18
2.21085e-17
2.49689e-16
2.1486e-15
1.49749e-14
8.74909e-14
4.33675e-13
1.60106e-12
3.85999e-12
6.10623e-12
3.03272e-23
2.63138e-21
8.5716e-20
1.60256e-18
2.05805e-17
2.01443e-16
1.61414e-15
1.11428e-14
6.83736e-14
2.99928e-13
8.37226e-13
1.45382e-12
9.36984e-25
1.0101e-22
3.88421e-21
8.42467e-20
1.24562e-18
1.39955e-17
1.29245e-16
1.04548e-15
7.78384e-15
4.01711e-14
1.27664e-13
2.4005e-13
1.77734e-26
2.43203e-24
1.13148e-22
2.91297e-21
5.06032e-20
6.64287e-19
7.16506e-18
6.81874e-17
6.08137e-16
3.69577e-15
1.32295e-14
2.66611e-14
1.57747e-28
2.91072e-26
1.72148e-24
5.49676e-23
1.16816e-21
1.85962e-20
2.41889e-19
2.76575e-18
2.96376e-17
2.15944e-16
8.69516e-16
1.86745e-15
3.82822e-31
1.09496e-28
9.10405e-27
3.94451e-25
1.11601e-23
2.32924e-22
3.90743e-21
5.6566e-20
7.55286e-19
6.95505e-18
3.19734e-17
7.33644e-17
7.1801e-35
4.5882e-32
6.716e-30
4.81444e-28
2.18102e-26
7.06815e-25
1.77958e-23
3.73299e-22
6.9936e-21
9.39678e-20
5.16542e-19
1.29017e-18
9.62799e-39
4.34212e-38
2.40181e-35
5.40625e-33
7.10398e-31
6.22761e-29
3.94086e-27
1.9168e-25
7.56864e-24
2.70596e-22
2.01884e-21
5.80328e-21
1.31707e-08
3.43936e-11
2.35464e-11
1.35146e-11
5.62757e-12
1.24459e-12
1.52552e-13
2.1474e-14
3.30478e-15
4.57077e-16
5.05572e-17
3.87255e-18
4.14409e-11
2.91496e-11
1.35883e-11
5.87973e-12
1.49568e-12
2.51435e-13
3.48767e-14
5.21289e-15
7.09512e-16
7.94168e-17
6.5346e-18
2.95355e-19
3.40934e-11
2.31124e-11
6.28095e-12
1.78379e-12
3.58434e-13
5.58901e-14
7.78718e-15
1.01964e-15
1.14034e-16
1.00266e-17
6.12617e-19
1.83577e-20
1.74041e-11
1.23548e-11
2.09543e-12
4.62607e-13
8.08839e-14
1.10031e-14
1.33864e-15
1.44453e-16
1.29104e-17
8.84448e-19
4.05536e-20
8.49244e-22
5.74995e-12
3.93288e-12
5.68785e-13
1.02055e-13
1.45662e-14
1.59828e-15
1.59479e-16
1.3807e-17
9.79451e-19
5.27203e-20
1.85706e-21
2.83796e-23
1.24254e-12
7.48128e-13
1.09321e-13
1.55963e-14
1.74772e-15
1.52011e-16
1.21057e-17
8.37812e-19
4.77359e-20
2.06347e-21
5.75752e-23
6.69298e-25
1.73506e-13
8.83978e-14
1.24601e-14
1.44245e-15
1.26514e-16
8.68345e-18
5.51813e-19
3.0843e-20
1.43272e-21
5.06524e-23
1.14452e-24
1.03964e-26
1.54306e-14
6.46263e-15
8.19609e-16
7.67918e-17
5.25195e-18
2.81387e-19
1.4186e-20
6.38135e-22
2.41131e-23
6.96258e-25
1.27258e-26
9.00115e-29
8.37251e-16
2.80289e-16
3.00563e-17
2.22511e-18
1.157e-19
4.65613e-21
1.79605e-22
6.27386e-24
1.8599e-25
4.22402e-27
5.98902e-29
3.12137e-31
2.50994e-17
6.52962e-18
5.56236e-19
3.09959e-20
1.14776e-21
3.15388e-23
8.47292e-25
2.08991e-26
4.40984e-28
7.11823e-30
7.00029e-32
2.31122e-34
3.34939e-19
6.6081e-20
4.14155e-21
1.59303e-22
3.64813e-24
5.47479e-26
8.20895e-28
1.14277e-29
1.36545e-31
1.23682e-33
6.48801e-36
8.98772e-39
1.1262e-21
1.69876e-22
6.97969e-24
1.58117e-25
1.59282e-27
6.015e-30
2.372e-32
8.75769e-35
2.7457e-37
6.2746e-40
6.78205e-43
1.45959e-42
1.48755e-23
8.43032e-22
2.35507e-20
3.51228e-19
3.2877e-18
2.14733e-17
1.04455e-16
3.9689e-16
1.23088e-15
3.26808e-15
6.03689e-15
7.37606e-15
1.45292e-24
8.47125e-23
2.48315e-21
4.14751e-20
4.49174e-19
3.45272e-18
1.9897e-17
8.90821e-17
3.1945e-16
9.47342e-16
1.84683e-15
2.27861e-15
7.82383e-26
5.8637e-24
1.94752e-22
3.69994e-21
4.64019e-20
4.20594e-19
2.91336e-18
1.595e-17
7.07104e-17
2.33378e-16
4.85789e-16
6.08269e-16
3.19751e-27
3.07005e-25
1.17872e-23
2.57413e-22
3.75205e-21
4.00176e-20
3.31795e-19
2.23651e-18
1.26593e-17
4.74791e-17
1.06974e-16
1.36842e-16
1.0508e-28
1.25103e-26
5.56428e-25
1.40259e-23
2.38772e-22
3.01824e-21
3.0067e-20
2.47158e-19
1.77502e-18
7.70538e-18
1.90185e-17
2.50189e-17
2.69277e-30
3.90907e-28
2.02143e-26
5.89562e-25
1.17061e-23
1.75143e-22
2.1094e-21
2.15162e-20
1.8827e-19
9.59337e-19
2.6136e-18
3.54656e-18
4.93798e-32
8.7999e-30
5.36405e-28
1.82813e-26
4.24885e-25
7.50178e-24
1.08265e-22
1.35666e-21
1.44877e-20
8.75761e-20
2.6413e-19
3.67689e-19
5.52511e-34
1.25286e-31
9.28271e-30
3.78533e-28
1.0465e-26
2.198e-25
3.79763e-24
5.78172e-23
7.63034e-22
5.53146e-21
1.84885e-20
2.61272e-20
2.81293e-36
8.82069e-34
8.4335e-32
4.31717e-30
1.47582e-28
3.79767e-27
8.00734e-26
1.49129e-24
2.5106e-23
2.22279e-22
8.26187e-22
1.17975e-21
3.65687e-39
1.9062e-36
2.64234e-34
1.86748e-32
8.57049e-31
2.89975e-29
7.91248e-28
1.89211e-26
4.40473e-25
4.96047e-24
2.07406e-23
2.999e-23
2.97632e-43
4.32234e-40
1.11753e-37
1.33868e-35
9.94597e-34
5.30628e-32
2.26053e-30
8.4381e-29
3.01105e-27
4.77297e-26
2.31053e-25
3.41797e-25
6.14207e-47
1.73668e-46
2.08634e-43
8.65028e-41
2.03961e-38
3.27016e-36
3.94891e-34
3.89693e-32
3.42677e-30
1.06549e-28
6.40915e-28
1.00069e-27
4.9812e-15
2.81708e-15
9.83842e-16
2.57177e-16
4.41066e-17
4.21736e-18
2.10842e-19
1.45935e-20
1.19285e-21
9.51457e-23
6.48686e-24
3.15214e-25
1.41953e-15
7.35233e-16
2.06699e-16
3.80819e-17
4.07426e-18
2.9344e-19
1.93612e-20
1.4861e-21
1.13563e-22
7.70591e-24
4.07576e-25
1.21412e-26
3.39263e-16
1.55309e-16
3.24664e-17
4.14473e-18
3.69532e-19
2.52258e-20
1.87572e-21
1.41707e-22
9.77734e-24
5.59482e-25
2.3148e-26
4.78152e-28
6.56764e-17
2.50693e-17
3.78987e-18
4.12166e-19
3.34976e-20
2.34627e-21
1.69616e-22
1.1508e-23
6.79562e-25
3.20488e-26
1.0427e-27
1.57161e-29
9.86064e-18
2.9436e-18
3.77589e-19
3.61982e-20
2.68424e-21
1.79168e-22
1.16384e-23
6.85944e-25
3.43721e-26
1.34395e-27
3.50242e-29
3.98547e-31
1.08782e-18
2.61237e-19
2.98893e-20
2.52969e-21
1.64976e-22
9.86006e-24
5.57964e-25
2.81944e-26
1.1964e-27
3.90173e-29
8.26038e-31
7.26838e-33
8.68876e-20
1.70471e-20
1.72626e-21
1.26444e-22
6.99972e-24
3.60873e-25
1.74135e-26
7.45186e-28
2.66025e-29
7.22134e-31
1.2457e-32
8.55217e-35
4.89482e-21
7.75435e-22
6.72793e-23
4.12783e-24
1.8663e-25
7.99733e-27
3.19415e-28
1.12826e-29
3.31172e-31
7.33115e-33
1.01208e-34
5.3291e-37
1.77711e-22
2.25162e-23
1.60262e-24
7.84959e-26
2.72463e-27
9.15429e-29
2.86376e-30
7.91396e-32
1.8125e-33
3.10794e-35
3.25861e-37
1.23768e-39
3.61449e-24
3.61078e-25
1.98868e-26
7.19381e-28
1.73018e-29
4.10495e-31
9.05631e-33
1.76147e-34
2.82948e-36
3.37303e-38
2.39318e-40
5.64638e-43
3.23451e-26
2.47629e-27
9.62329e-29
2.23064e-30
3.0186e-32
4.04238e-34
5.03029e-36
5.50443e-38
4.94872e-40
3.25594e-42
1.21198e-44
1.20294e-47
7.22966e-29
4.03524e-30
9.26689e-32
9.90904e-34
3.63116e-36
1.32837e-38
4.50451e-41
1.33284e-43
3.19256e-46
5.37273e-49
4.24481e-52
6.07805e-52
4.77548e-17
1.30571e-15
1.74851e-14
1.21848e-13
5.05945e-13
1.36958e-12
2.57664e-12
3.67564e-12
4.6968e-12
6.36097e-12
9.00384e-12
1.28454e-11
9.19272e-18
2.94068e-16
4.63001e-15
4.01563e-14
2.1414e-13
7.55313e-13
1.83455e-12
3.17165e-12
4.21088e-12
5.30084e-12
7.06296e-12
9.71152e-12
9.58521e-19
4.24337e-17
8.21361e-16
8.8494e-15
6.02118e-14
2.77618e-13
8.95865e-13
2.04746e-12
3.35647e-12
4.36817e-12
5.38423e-12
6.85857e-12
7.10167e-20
4.2664e-18
1.01387e-16
1.34055e-15
1.14474e-14
6.80853e-14
2.91159e-13
8.9773e-13
2.00561e-12
3.09043e-12
3.85335e-12
4.74999e-12
3.97919e-21
3.11197e-19
8.98685e-18
1.44136e-16
1.51973e-15
1.14646e-14
6.43988e-14
2.71316e-13
8.26511e-13
1.60331e-12
2.17421e-12
2.13205e-12
1.65586e-22
1.6445e-20
5.74595e-19
1.11183e-17
1.43193e-16
1.34855e-15
9.77325e-15
5.57765e-14
2.29223e-13
5.82514e-13
1.21161e-12
7.27794e-12
4.76652e-24
6.00486e-22
2.5575e-20
5.99762e-19
9.42049e-18
1.09787e-16
1.00994e-15
7.63568e-15
4.1842e-14
1.35403e-13
2.67891e-13
8.46924e-20
8.22939e-26
1.35441e-23
7.21733e-22
2.09247e-20
4.05776e-19
5.87227e-18
6.81215e-17
6.70144e-16
4.88525e-15
2.04754e-14
4.62805e-14
8.83009e-29
6.49981e-28
1.51253e-25
1.06772e-23
4.00416e-22
9.93086e-21
1.83018e-19
2.71566e-18
3.47883e-17
3.41999e-16
1.88599e-15
5.2445e-15
8.65735e-30
1.3661e-30
5.38773e-28
5.65241e-26
3.00911e-24
1.03347e-22
2.59599e-21
5.21139e-20
9.06701e-19
1.26751e-17
9.50598e-17
3.37825e-16
1.0533e-28
2.01369e-34
2.23541e-31
4.48525e-29
4.16071e-27
2.3772e-25
9.6202e-24
3.0413e-22
8.23016e-21
1.91767e-19
2.1285e-18
1.03562e-17
8.65933e-29
4.97032e-38
2.29215e-37
2.15199e-34
6.83555e-32
1.18787e-29
1.35287e-27
1.14525e-25
8.23886e-24
5.91211e-22
1.24121e-20
9.98395e-20
1.14744e-29
1.86568e-11
2.79481e-11
0.00154287
0.366099
0.97041
1
1
1
1
1
1
1
1.37622e-11
2.31552e-11
0.00299958
0.724475
0.999708
1
1
1