/*--------------------------------*- C++ -*----------------------------------*\
| =========                 |                                                 |
| \\      /  F ield         | OpenFOAM: The Open Source CFD Toolbox           |
|  \\    /   O peration     | Version:  2.4.0                                 |
|   \\  /    A nd           | Web:      www.OpenFOAM.org                      |
|    \\/     M anipulation  |                                                 |
\*---------------------------------------------------------------------------*/
FoamFile
{
    version     2.0;
    format      ascii;
    class       surfaceScalarField;
    location    "0.45";
    object      phiAlpha;
}
// * * * * * * * * * * * * * * * * * * * * * * * * * * * * * * * * * * * * * //

dimensions      [0 3 -1 0 0 0 0];

internalField   nonuniform List<scalar> 
5952
(
7.91893e-24
-1.13722e-22
4.01903e-22
-2.89836e-21
1.20766e-21
-6.53372e-21
2.1682e-21
-7.85065e-21
3.23483e-22
2.28633e-23
5.33981e-22
2.33016e-22
2.23437e-21
1.10034e-20
-4.63823e-19
1.6896e-19
-2.43243e-18
7.28856e-19
-6.33944e-18
1.86107e-18
-9.55355e-18
3.21516e-18
3.61576e-18
-1.31693e-17
1.00054e-22
-1.51228e-21
3.92639e-21
-2.81407e-20
1.23786e-20
-8.47181e-20
1.83384e-20
4.40694e-21
-4.13106e-19
3.01326e-19
-3.33302e-18
1.85573e-18
-1.05298e-17
4.99056e-18
-2.6987e-17
9.95444e-18
-5.91174e-17
1.85044e-17
-1.22005e-16
3.06518e-17
-2.55639e-12
9.36123e-16
8.22341e-12
-6.15413e-11
4.07356e-22
-8.51382e-21
4.68891e-21
-9.0163e-20
-1.33918e-19
-2.65749e-20
-1.10953e-18
4.94763e-19
-4.23382e-18
2.21589e-18
-1.17187e-17
6.06104e-18
-2.962e-17
1.29705e-17
-7.18173e-17
2.61394e-17
-1.62797e-16
5.08084e-17
-2.93281e-16
9.13135e-17
-4.99667e-12
2.31375e-13
-3.83224e-13
-1.77958e-11
-4.54612e-21
-1.61837e-20
-1.52871e-19
-7.38556e-20
-8.58253e-19
2.89982e-19
-2.76637e-18
1.69001e-18
-6.62535e-18
4.67152e-18
-1.39171e-17
9.50367e-18
-3.18534e-17
1.69639e-17
-8.65674e-17
3.25996e-17
-1.46228e-16
7.23798e-17
-8.53339e-13
9.32459e-14
-5.68002e-12
3.2018e-12
2.31585e-12
-1.92974e-12
-3.32275e-20
-1.53613e-20
-4.37817e-19
4.34957e-20
-1.95642e-18
1.04255e-18
-5.26067e-18
4.25994e-18
-9.60611e-18
1.0237e-17
-1.23217e-17
1.68073e-17
-1.55459e-17
1.93457e-17
-2.32251e-17
2.10763e-17
-1.7897e-17
2.54672e-17
-1.94186e-17
1.51902e-17
-2.2203e-17
3.2018e-12
2.31585e-12
-2.31776e-17
-6.60603e-20
-6.37225e-21
-7.25955e-19
2.21098e-19
-3.17892e-18
2.16276e-18
-8.65212e-18
8.3851e-18
-1.509e-17
2.11711e-17
-9.93318e-18
3.53766e-17
-1.07436e-17
2.26882e-17
-1.5305e-17
2.23422e-17
-5.30182e-17
8.39219e-17
-1.72095e-07
1.72095e-07
-3.72666e-07
9.68588e-07
1.00874e-06
-4.18176e-07
-1.01538e-19
9.69908e-21
-9.19087e-19
4.05861e-19
-3.86889e-18
3.08412e-18
-1.09831e-17
1.20597e-17
-2.41073e-17
3.41296e-17
-2.42844e-17
7.85861e-17
-1.00186e-08
1.00186e-08
-2.11599e-07
1.03153e-06
-6.33458e-07
2.97755e-06
-1.13077e-06
3.23662e-06
-1.55267e-06
2.64776e-06
2.07381e-06
-1.80486e-06
-1.52254e-19
4.23796e-20
-1.02231e-18
5.40677e-19
-3.60887e-18
3.24191e-18
-8.8887e-18
1.2289e-17
-1.55978e-17
3.56137e-17
-2.17232e-17
7.83934e-17
-5.58972e-08
1.75736e-07
-4.24818e-07
3.0081e-06
-6.05249e-07
3.64536e-06
-7.07667e-07
3.33904e-06
-8.08466e-07
2.74856e-06
2.12462e-06
-8.59278e-07
-2.42359e-19
2.92881e-19
-1.12223e-18
6.49148e-19
-2.90646e-18
2.67525e-18
-5.13034e-18
9.25421e-18
-2.91621e-18
2.74172e-17
3.50553e-17
3.44269e-17
1.09991e-07
8.43573e-08
3.99338e-07
2.84261e-06
3.07261e-07
3.73744e-06
2.592e-07
3.3871e-06
2.50363e-07
2.75739e-06
2.09232e-06
2.82657e-07
-4.24462e-19
1.45962e-18
-1.22837e-18
8.21858e-19
-2.14143e-18
1.80482e-18
-2.10409e-18
5.25481e-18
1.03608e-18
1.71189e-17
8.91857e-18
4.56189e-17
8.43573e-08
6.01741e-17
8.73741e-07
1.50149e-06
1.07628e-06
3.5349e-06
1.1447e-06
3.31868e-06
1.22826e-06
2.67383e-06
1.97608e-06
1.34451e-06
-9.17419e-19
2.00368e-17
-1.12975e-18
1.4254e-18
-1.10116e-18
1.05119e-18
2.50762e-19
2.43202e-18
3.56998e-18
8.68836e-18
1.31595e-17
2.81473e-17
4.92093e-17
2.45929e-17
6.14416e-07
7.21271e-08
1.59585e-06
1.97395e-06
1.90225e-06
3.01228e-06
2.05791e-06
2.51817e-06
1.80278e-06
2.23121e-06
5.22105e-19
1.99928e-17
6.25429e-19
1.76478e-18
9.03769e-19
1.25104e-18
2.4626e-18
1.50274e-18
5.8232e-18
4.256e-18
1.48354e-17
1.41553e-17
1.81888e-17
2.1605e-17
7.21271e-08
6.43026e-17
1.0966e-06
2.28291e-08
2.29244e-06
6.80236e-07
2.51968e-06
1.43653e-06
2.34538e-06
8.24827e-07
-1.68197e-17
3.68011e-18
-3.69124e-17
2.00806e-17
-1.60591e-16
4.50911e-18
-1.67339e-16
1.02945e-17
-2.74957e-16
1.07607e-16
-3.57005e-16
1.09814e-16
-4.36934e-16
1.33572e-16
9.20456e-17
-1.62824e-16
-1.43809e-12
4.79089e-13
-4.04328e-12
1.29933e-12
-9.67783e-22
-3.70146e-12
-9.67783e-22
-5.26732e-11
1.2741e-11
-2.07447e-16
6.25875e-12
-3.27102e-16
4.12622e-18
-6.27666e-09
6.27666e-09
-3.48508e-08
-9.95395e-09
-1.76706e-08
-8.278e-08
-3.51002e-10
-4.01114e-08
-7.53773e-16
-3.51e-10
-5.5431e-16
4.78797e-13
-9.6924e-12
1.09909e-11
-2.27972e-21
4.9506e-12
-3.2503e-21
-1.44518e-11
3.16728e-13
2.12647e-12
1.3747e-13
-2.96821e-08
4.14642e-09
-9.6824e-07
1.64181e-08
-1.72744e-06
-1.06236e-07
-1.848e-06
-4.04934e-07
-1.2673e-06
-8.95545e-07
-6.83391e-07
-1.05787e-06
-1.24276e-07
-1.04664e-06
-4.1337e-09
-2.2547e-07
-4.3005e-21
-4.12875e-09
-7.5438e-21
1.10413e-13
6.58918e-14
2.47762e-13
1.01433e-17
-2.29311e-06
2.15718e-08
-2.24171e-06
-6.29495e-08
-2.05757e-06
-2.90787e-07
-1.89633e-06
-5.71364e-07
-1.79245e-06
-1.00688e-06
-1.6676e-06
-1.17763e-06
-1.16938e-06
-1.55199e-06
-3.59217e-07
-1.55458e-06
-6.88751e-18
-6.66437e-07
-6.89505e-18
-2.44787e-17
6.589e-14
-2.54797e-09
2.54797e-09
-1.41924e-07
6.40366e-12
-1.18393e-06
-7.12006e-09
-1.55546e-06
-1.23858e-07
-1.6505e-06
-4.72238e-07
-1.50635e-06
-1.15681e-06
-1.35626e-06
-1.33588e-06
-1.13282e-06
-1.76989e-06
-7.67859e-07
-1.92784e-06
-1.49728e-08
-1.71146e-06
-1.49728e-08
-9.2845e-08
6.4167e-07
-2.54841e-08
1.80608e-07
-2.01516e-09
-4.99465e-10
-2.16296e-16
-9.13522e-09
-1.23858e-07
-5.54927e-17
-3.58925e-07
-8.00704e-12
-5.93545e-07
-1.14669e-16
-8.3519e-07
-6.9362e-08
-8.05338e-07
-1.15607e-06
-5.894e-07
-2.14493e-06
-2.88434e-08
-2.27086e-06
-9.98384e-08
-1.9485e-06
1.47115e-06
-1.61403e-06
7.80702e-07
-3.14515e-07
2.65589e-08
-9.45426e-17
-1.05732e-07
-8.51889e-17
-6.48872e-17
-7.21533e-17
-8.00706e-12
-7.04598e-17
-1.16403e-16
-6.9362e-08
-1.5496e-16
-1.42957e-07
-8.62626e-09
-2.67883e-07
-9.47772e-08
-9.38924e-08
-2.4521e-06
-7.10803e-07
-9.0299e-07
1.51486e-06
-1.00581e-06
8.83517e-07
-6.97834e-07
7.14067e-08
-1.16563e-09
-3.79178e-07
-3.92448e-12
-1.1617e-09
-1.30814e-16
-6.47273e-11
-1.43454e-17
-2.077e-16
-1.11743e-17
-7.82355e-16
-5.63364e-18
-8.62626e-09
-9.47772e-08
-3.90505e-16
-3.48661e-08
-1.20834e-06
-1.25711e-06
3.04413e-07
1.4931e-06
2.41925e-07
9.46006e-07
2.00903e-07
1.12428e-07
1.08408e-08
-5.07289e-07
-2.30409e-10
-1.07665e-09
3.89815e-12
-3.42581e-17
8.22693e-12
-4.32865e-12
4.08227e-10
-3.2379e-08
1.46146e-09
-1.32331e-07
8.211e-09
-6.74954e-09
6.88754e-08
-5.15318e-09
-1.18824e-06
1.46575e-06
1.37186e-06
1.5644e-06
8.47361e-07
1.17331e-06
-4.45319e-08
1.07665e-09
-8.76095e-08
7.59183e-17
-5.23676e-17
6.14897e-17
-3.88699e-17
1.78084e-07
-1.88974e-07
3.84999e-07
-5.01339e-07
2.53112e-07
-7.07376e-07
4.63593e-08
-3.16667e-07
1.20435e-09
-2.20229e-08
-4.47867e-07
2.45472e-06
1.14834e-06
2.13823e-06
3.45439e-07
8.76095e-08
-5.26846e-08
1.4433e-16
-8.17021e-17
8.44556e-17
-7.8498e-17
1.07297e-16
-4.15829e-17
6.37315e-07
-1.72795e-07
8.85092e-07
-7.46848e-07
7.9261e-07
-6.17162e-07
3.08358e-07
-5.24058e-07
8.08036e-08
-5.06998e-08
-3.17114e-09
1.32629e-06
1.71908e-07
8.52418e-08
-7.57086e-10
1.3045e-10
-8.91993e-10
2.23281e-16
1.3045e-10
1.75446e-16
-2.14557e-19
3.75895e-10
-3.75895e-10
6.44769e-07
-7.13581e-10
1.13041e-06
-2.96203e-16
1.00182e-06
-4.86179e-07
8.45012e-07
-3.6964e-07
3.44269e-07
-1.6906e-08
3.41098e-07
5.53271e-33
-2.53341e-31
8.05542e-31
-2.06964e-29
3.46581e-30
-3.87347e-29
2.06453e-31
4.2339e-33
2.78166e-32
1.34981e-32
-1.52134e-28
3.59743e-29
-4.96933e-26
3.83024e-27
-7.50713e-25
6.85218e-26
-5.42852e-24
5.70379e-25
-2.50739e-23
2.84353e-24
-8.46995e-23
9.66405e-24
2.44258e-23
-2.27297e-22
1.17172e-31
-1.12751e-29
1.1084e-29
-8.42275e-28
-3.69247e-28
-6.90679e-29
-8.97918e-26
6.17945e-27
-1.7022e-24
1.90635e-25
-1.42541e-23
2.1256e-24
-7.24346e-23
1.28045e-23
-2.61376e-22
5.03852e-23
-7.37168e-22
1.44823e-22
-1.73425e-21
3.28679e-22
-3.58113e-21
6.34389e-22
9.9161e-22
-6.62177e-21
-8.55976e-29
-2.03681e-28
-2.09862e-26
2.38644e-29
-5.91488e-25
4.32482e-26
-6.69572e-24
9.56164e-25
-4.36598e-23
8.69715e-24
-1.93889e-22
4.64095e-23
-6.50869e-22
1.70999e-22
-1.76929e-21
4.77919e-22
-4.08225e-21
1.07445e-21
-8.24592e-21
2.01269e-21
-1.48075e-20
3.1541e-21
4.35261e-21
-2.43892e-20
-6.66303e-27
-1.55433e-28
-3.34446e-25
2.17089e-26
-4.83571e-24
7.34528e-25
-3.61752e-23
8.26038e-24
-1.77974e-22
5.12393e-23
-6.51351e-22
2.13925e-22
-1.91272e-21
6.67977e-22
-4.74105e-21
1.66392e-21
-1.02808e-20
3.44996e-21
-2.00401e-20
6.12075e-21
-3.58848e-20
9.38335e-21
1.23833e-20
-5.94819e-20
-2.54643e-26
6.31946e-28
-9.51845e-25
1.23104e-25
-1.12446e-23
2.62905e-24
-7.28188e-23
2.33921e-23
-3.22817e-22
1.25679e-22
-1.09765e-21
4.77863e-22
-3.06609e-21
1.40259e-21
-7.36213e-21
3.35464e-21
-1.56836e-20
6.77983e-21
-3.03107e-20
1.18516e-20
-5.39636e-20
1.80824e-20
2.38825e-20
-8.93367e-20
-3.47829e-26
1.8846e-27
-1.18033e-24
2.28183e-25
-1.30947e-23
4.26179e-24
-8.05426e-23
3.51185e-23
-3.42837e-22
1.80053e-22
-1.12997e-21
6.64395e-22
-3.08475e-21
1.91249e-21
-7.28904e-21
4.51441e-21
-1.53757e-20
9.04336e-21
-2.96045e-20
1.57177e-20
-5.28847e-20
2.39211e-20
3.16251e-20
-8.86934e-20
-2.79258e-26
2.23783e-27
-8.72593e-25
2.25571e-25
-9.37103e-24
4.11629e-24
-5.62082e-23
3.37188e-23
-2.34467e-22
1.73712e-22
-7.587e-22
6.45007e-22
-2.03451e-21
1.86481e-21
-4.71888e-21
4.40113e-21
-9.76329e-21
8.76948e-21
-1.8453e-20
1.50856e-20
-3.2531e-20
2.26533e-20
2.95339e-20
-5.45405e-20
-1.85063e-26
1.92868e-27
-4.66755e-25
1.4914e-25
-4.50233e-24
2.67386e-24
-2.51901e-23
2.23996e-23
-1.00288e-22
1.20075e-22
-3.12485e-22
4.62041e-22
-8.07898e-22
1.37046e-21
-1.796e-21
3.27097e-21
-3.51629e-21
6.48415e-21
-6.1594e-21
1.08822e-20
-9.80749e-21
1.55751e-20
1.88149e-20
-1.46034e-20
-1.28008e-26
1.69845e-27
-2.18958e-25
7.72645e-26
-1.52469e-24
1.23366e-24
-6.16299e-24
1.04974e-23
-1.73859e-23
6.02952e-23
-3.64733e-23
2.4854e-22
-5.68034e-23
7.77698e-22
-5.31995e-23
1.91447e-21
1.82115e-23
3.8243e-21
1.95336e-22
6.32679e-21
6.49448e-22
8.55323e-21
9.15506e-21
1.56147e-21
-9.15245e-27
1.64977e-27
-9.95789e-26
3.45168e-26
-3.86774e-25
4.09516e-25
4.76506e-26
3.50887e-24
2.70386e-24
2.41134e-23
1.90359e-23
1.11241e-22
8.06647e-23
3.75634e-22
2.50938e-22
9.64468e-22
6.23938e-22
1.94481e-21
1.30697e-21
3.13323e-21
2.31441e-21
3.9452e-21
3.63512e-21
3.43751e-21
-4.32545e-27
1.22141e-27
-2.78646e-26
1.08299e-26
-2.96949e-26
8.52873e-26
2.26457e-25
9.34684e-25
2.94385e-24
7.70708e-24
1.83881e-23
4.09618e-23
7.59922e-23
1.52052e-22
2.32419e-22
4.11255e-22
5.60048e-22
8.39995e-22
1.10555e-21
1.31022e-21
1.77831e-21
1.51794e-21
1.18137e-21
2.27748e-21
1.38691e-33
1.22141e-27
5.69932e-33
1.08299e-26
1.86457e-32
8.52874e-26
1.29804e-25
1.57045e-25
1.58035e-24
1.8631e-24
1.00746e-23
1.19771e-23
4.32083e-23
5.0285e-23
1.34888e-22
1.45552e-22
3.23024e-22
3.03034e-22
6.11236e-22
4.54884e-22
9.06393e-22
4.77878e-22
1.11661e-21
3.30763e-22
-5.1207e-22
4.60086e-23
-1.01244e-21
6.57177e-23
-1.8199e-21
6.41476e-23
-3.06608e-21
1.75073e-23
-3.8437e-21
-1.14971e-21
-3.69836e-21
-2.7577e-21
-2.75502e-21
-3.9654e-21
-1.42718e-21
-4.23517e-21
-4.05317e-22
-3.21438e-21
-3.11492e-23
-1.46793e-21
-1.08209e-26
-2.37323e-22
-3.78169e-25
-1.1148e-20
1.27394e-21
-1.73047e-20
1.25891e-21
-2.50469e-20
6.38765e-22
-3.21726e-20
-3.09168e-21
-3.53281e-20
-1.18036e-20
-3.26576e-20
-2.19933e-20
-2.4512e-20
-2.95153e-20
-1.37759e-20
-3.13429e-20
-4.75628e-21
-2.52036e-20
-5.86304e-22
-1.31437e-20
-8.1392e-25
-2.93146e-21
-1.48424e-23
-3.75903e-20
5.11268e-21
-5.47761e-20
4.58816e-21
-7.57775e-20
1.6325e-21
-9.51312e-20
-1.12686e-20
-1.07081e-19
-3.59023e-20
-1.05912e-19
-6.71288e-20
-8.47411e-20
-1.00051e-19
-5.21408e-20
-1.12523e-19
-2.10749e-20
-9.69074e-20
-3.6784e-21
-5.65748e-20
-1.67019e-23
-1.60865e-20
-2.0934e-22
-9.20194e-20
1.38447e-20
-1.33309e-19
1.13045e-20
-1.81303e-19
1.67826e-21
-2.24399e-19
-3.2535e-20
-2.50559e-19
-9.12453e-20
-2.43134e-19
-1.71975e-19
-2.00673e-19
-2.5116e-19
-1.32083e-19
-2.90306e-19
-6.0351e-20
-2.63676e-19
-1.36368e-20
-1.68687e-19
-1.60528e-22
-5.80275e-20
-1.59121e-21
-1.38263e-19
2.62258e-20
-2.00977e-19
2.02557e-20
-2.74828e-19
-5.86027e-22
-3.49336e-19
-6.19482e-20
-4.02957e-19
-1.73952e-19
-4.08357e-19
-3.3687e-19
-3.50936e-19
-5.06005e-19
-2.45649e-19
-6.01323e-19
-1.24158e-19
-5.7177e-19
-3.44652e-20
-3.94191e-19
-8.72436e-22
-1.58786e-19
-7.84956e-21
-1.40659e-19
3.46717e-20
-2.11566e-19
2.57627e-20
-3.00833e-19
-6.52912e-21
-4.05673e-19
-9.04469e-20
-4.93394e-19
-2.72615e-19
-5.20519e-19
-5.60443e-19
-4.61736e-19
-8.74787e-19
-3.40178e-19
-1.06272e-18
-1.87507e-19
-1.04801e-18
-6.23025e-20
-7.6752e-19
-2.92541e-21
-3.54295e-19
-2.81557e-20
-8.84863e-20
3.19061e-20
-1.40304e-19
2.23105e-20
-2.19941e-19
-1.0288e-20
-3.27859e-19
-1.09866e-19
-4.22109e-19
-3.83965e-19
-4.55646e-19
-8.4228e-19
-4.06623e-19
-1.35226e-18
-3.10065e-19
-1.66043e-18
-1.86225e-19
-1.6771e-18
-7.5654e-20
-1.28845e-18
-6.16003e-21
-6.71876e-19
-7.95743e-20
-2.18729e-20
1.83497e-20
-3.68836e-20
1.08014e-20
-6.96243e-20
-1.35732e-20
-1.03046e-19
-1.54373e-19
-1.05523e-19
-5.65028e-19
-6.96915e-20
-1.2276e-18
-1.7844e-20
-1.93588e-18
4.32843e-21
-2.34933e-18
-6.30449e-21
-2.3793e-18
-2.28416e-20
-1.89373e-18
-5.58525e-21
-1.10442e-18
-1.87335e-19
2.97238e-21
6.94976e-21
5.52556e-21
2.38446e-21
3.0346e-20
-3.25984e-20
1.32191e-19
-2.86511e-19
3.40788e-19
-9.34568e-19
6.08093e-19
-1.87359e-18
8.23619e-19
-2.77208e-18
8.51732e-19
-3.18783e-18
6.75953e-19
-3.11323e-18
3.36819e-19
-2.41828e-18
7.26798e-20
-1.4824e-18
-3.26398e-19
4.24743e-21
2.11652e-21
1.34066e-20
3.96183e-22
1.31357e-19
-1.15432e-19
5.14264e-19
-6.69891e-19
1.16545e-18
-1.75488e-18
1.88701e-18
-3.04114e-18
2.38794e-18
-4.01401e-18
2.42719e-18
-4.19882e-18
1.99783e-18
-3.79042e-18
1.17226e-18
-2.69499e-18
3.71569e-19
-1.58221e-18
-3.46198e-19
3.14771e-21
6.6946e-22
6.90795e-20
-2.49658e-20
5.22746e-19
-4.75701e-19
1.59713e-18
-1.7345e-18
3.05123e-18
-3.4682e-18
4.39474e-18
-5.00207e-18
5.13287e-18
-5.69516e-18
5.04503e-18
-5.28427e-18
4.18247e-18
-4.23382e-18
2.68782e-18
-2.53138e-18
1.05733e-18
-1.12201e-18
9.28513e-20
1.43203e-20
1.14676e-21
5.13178e-19
-3.68106e-19
2.11958e-18
-1.90834e-18
4.64498e-18
-4.35818e-18
7.16118e-18
-6.52778e-18
8.88406e-18
-7.68357e-18
9.3646e-18
-7.41818e-18
8.74275e-18
-6.0624e-18
7.2097e-18
-4.17941e-18
5.0449e-18
-1.87969e-18
2.4528e-18
8.03799e-20
1.5252e-18
2.11882e-36
-1.44217e-34
7.38292e-34
-2.64094e-32
3.78117e-33
-5.74428e-32
1.73276e-34
3.52861e-36
8.71215e-36
4.22958e-36
-6.69705e-31
8.10015e-32
-3.13625e-28
1.67048e-29
-6.45852e-27
4.32168e-28
-6.11133e-26
4.90357e-27
-3.56402e-25
3.19867e-26
-1.47099e-24
1.37139e-25
4.23122e-25
-4.68296e-24
6.74305e-35
-9.65047e-33
1.43185e-32
-1.56997e-30
-1.10595e-30
-2.65839e-31
-4.55018e-28
1.96088e-29
-1.2587e-26
9.69255e-28
-1.43758e-25
1.57326e-26
-9.43102e-25
1.29136e-25
-4.19537e-24
6.55496e-25
-1.40466e-23
2.32077e-24
-3.80847e-23
6.25294e-24
-8.86223e-23
1.39453e-23
2.43534e-23
-1.81294e-22
-1.53328e-31
-2.44519e-31
-6.66075e-29
3.26122e-32
-2.95131e-27
1.37972e-28
-4.85231e-26
4.78951e-27
-4.30089e-25
6.31633e-26
-2.45531e-24
4.57523e-25
-1.01167e-23
2.16442e-24
-3.25183e-23
7.41604e-24
-8.61439e-23
1.96878e-23
-1.95176e-22
4.22677e-23
-3.86048e-22
7.41265e-23
1.12899e-22
-6.92023e-22
-1.40489e-29
-1.74059e-31
-1.17165e-27
4.59092e-29
-2.58569e-26
2.58912e-27
-2.74019e-25
4.4388e-26
-1.79324e-24
3.89353e-25
-8.28218e-24
2.15834e-24
-2.93869e-23
8.48981e-24
-8.498e-23
2.55096e-23
-2.09122e-22
6.16073e-23
-4.52908e-22
1.23833e-22
-8.86297e-22
2.10104e-22
3.0278e-22
-1.58445e-21
-4.68107e-29
6.31899e-31
-2.91447e-27
2.28449e-28
-5.27853e-26
8.13066e-27
-4.86134e-25
1.10708e-25
-2.87004e-24
8.43582e-25
-1.22905e-23
4.25948e-24
-4.12773e-23
1.5703e-23
-1.14769e-22
4.50448e-23
-2.74822e-22
1.05182e-22
-5.83396e-22
2.06234e-22
-1.12138e-21
3.4472e-22
4.90144e-22
-1.97882e-21
-4.72787e-29
1.38909e-30
-2.74616e-27
3.16795e-28
-4.78196e-26
1.01071e-26
-4.25937e-25
1.30171e-25
-2.4418e-24
9.61521e-25
-1.01748e-23
4.75499e-24
-3.32775e-23
1.72285e-23
-9.00802e-23
4.85399e-23
-2.09873e-22
1.11043e-22
-4.33562e-22
2.12574e-22
-8.13531e-22
3.46122e-22
4.79051e-22
-1.41509e-21
-2.53983e-29
1.09034e-30
-1.40993e-27
2.13725e-28
-2.46249e-26
6.91184e-27
-2.20114e-25
9.12142e-26
-1.26145e-24
6.92862e-25
-5.21225e-24
3.50064e-24
-1.67312e-23
1.28211e-23
-4.38968e-23
3.59982e-23
-9.76929e-23
8.07564e-23
-1.89724e-22
1.48872e-22
-3.30047e-22
2.28917e-22
2.93334e-22
-5.30859e-22
-1.05515e-29
5.86984e-31
-4.85703e-28
9.03269e-29
-7.9566e-27
2.9987e-27
-6.92011e-26
4.20531e-26
-3.9168e-25
3.42659e-25
-1.59459e-24
1.83426e-24
-4.98706e-24
6.98471e-24
-1.25102e-23
1.99098e-23
-2.59045e-23
4.41492e-23
-4.49188e-23
7.78977e-23
-6.54096e-23
1.09869e-22
1.20763e-22
-7.93382e-23
-4.46523e-30
3.18042e-31
-1.38106e-28
2.85084e-29
-1.66483e-27
8.78528e-28
-1.09289e-26
1.3097e-26
-4.69326e-26
1.18809e-25
-1.41019e-25
7.01469e-25
-3.02467e-25
2.87588e-24
-4.23908e-25
8.54999e-24
-1.69618e-25
1.91163e-23
6.70684e-25
3.28556e-23
2.76492e-24
4.27889e-23
3.97534e-23
6.32314e-24
-1.95559e-30
1.91641e-31
-3.73696e-29
7.53044e-30
-2.3307e-28
1.76958e-28
8.42502e-29
2.83562e-27
3.58371e-27
3.1987e-26
3.55418e-26
2.18656e-25
2.00218e-25
9.88396e-25
7.64513e-25
3.09625e-24
2.1513e-24
6.99049e-24
4.68604e-24
1.15594e-23
7.90364e-24
1.3675e-23
1.04721e-23
9.92214e-24
-5.65365e-31
8.74141e-32
-6.25183e-30
1.3563e-30
-4.85178e-31
2.13852e-29
1.19205e-28
4.74821e-28
2.49067e-27
6.81054e-27
2.35347e-26
5.5403e-26
1.3322e-25
2.8034e-25
5.05477e-25
9.311e-25
1.3752e-24
2.12215e-24
2.78136e-24
3.34854e-24
4.14717e-24
3.54943e-24
2.19309e-24
4.29573e-24
-1.41506e-33
9.94768e-33
2.5355e-32
1.03367e-31
1.17132e-30
1.76702e-30
4.35053e-29
5.67749e-29
8.48286e-28
1.09001e-27
8.57887e-27
1.09877e-26
5.17259e-26
6.37935e-26
2.02151e-25
2.27341e-25
5.44598e-25
5.24259e-25
1.03946e-24
7.81677e-25
1.3897e-24
7.28991e-25
1.21664e-24
3.49306e-25
-1.22147e-23
9.41319e-25
-2.7444e-23
1.55165e-24
-5.52681e-23
1.70919e-24
-1.02973e-22
4.79514e-25
-1.40168e-22
-4.33941e-23
-1.45055e-22
-1.10851e-22
-1.15384e-22
-1.70939e-22
-6.25438e-23
-1.96434e-22
-1.7631e-23
-1.58448e-22
-1.16339e-24
-7.3932e-23
-2.49785e-28
-1.08245e-23
-1.10661e-26
-3.33461e-22
3.45435e-23
-5.59982e-22
3.70554e-23
-8.70324e-22
1.98523e-23
-1.1952e-21
-1.10728e-22
-1.40791e-21
-4.408e-22
-1.40115e-21
-8.8396e-22
-1.13296e-21
-1.29209e-21
-6.77416e-22
-1.5074e-21
-2.39076e-22
-1.31939e-21
-2.66902e-23
-7.24357e-22
-2.37365e-26
-1.54981e-22
-5.39437e-25
-1.14874e-21
1.44083e-22
-1.78694e-21
1.38203e-22
-2.61923e-21
4.98755e-23
-3.50348e-21
-3.66247e-22
-4.25949e-21
-1.22785e-21
-4.61009e-21
-2.50695e-21
-4.06148e-21
-4.20068e-21
-2.7233e-21
-5.36548e-21
-1.15942e-21
-5.18347e-21
-1.94168e-22
-3.28057e-21
-6.05783e-25
-9.38902e-22
-9.20232e-24
-2.615e-21
3.63505e-22
-4.00801e-21
3.13411e-22
-5.73071e-21
3.94294e-23
-7.60219e-21
-8.64067e-22
-9.32085e-21
-2.61316e-21
-1.01769e-20
-5.59147e-21
-9.54533e-21
-9.63311e-21
-7.05124e-21
-1.32525e-20
-3.49381e-21
-1.40147e-20
-7.94737e-22
-1.00116e-20
-7.04404e-24
-3.59636e-21
-8.16463e-23
-3.23693e-21
5.70802e-22
-4.95197e-21
4.59389e-22
-7.1288e-21
-2.94501e-23
-9.90878e-21
-1.17784e-21
-1.30441e-20
-3.73487e-21
-1.56082e-20
-8.83748e-21
-1.59817e-20
-1.69316e-20
-1.30313e-20
-2.55673e-20
-7.35618e-21
-2.96101e-20
-2.13257e-21
-2.34969e-20
-4.46819e-23
-1.01733e-20
-4.52188e-22
-2.32251e-21
5.41345e-22
-3.65061e-21
4.08222e-22
-5.59492e-21
-7.55602e-23
-8.63345e-21
-1.00235e-21
-1.28833e-20
-3.79863e-21
-1.73633e-20
-1.10259e-20
-1.95864e-20
-2.47794e-20
-1.75815e-20
-4.14645e-20
-1.11554e-20
-5.22916e-20
-3.98395e-21
-4.53861e-20
-1.68165e-22
-2.30583e-20
-1.75667e-21
-8.2895e-22
3.0177e-22
-1.34008e-21
1.9744e-22
-2.39152e-21
-3.65859e-23
-4.53693e-21
-5.03851e-22
-8.27599e-21
-3.07744e-21
-1.28798e-20
-1.23445e-20
-1.58357e-20
-3.29379e-20
-1.54345e-20
-5.99989e-20
-1.09832e-20
-8.0671e-20
-4.90946e-21
-7.51035e-20
-3.83267e-22
-4.39043e-20
-5.22109e-21
-8.38629e-23
9.50549e-23
-1.19704e-22
3.76723e-23
-3.18089e-22
-1.15128e-23
-8.32953e-22
-3.94742e-22
-1.5712e-21
-3.64052e-21
-1.72782e-21
-1.64898e-20
-6.71161e-22
-4.50943e-20
1.77473e-22
-8.25335e-20
-3.37022e-22
-1.12497e-19
-1.46865e-21
-1.08918e-19
-3.64237e-22
-7.19231e-20
-1.2639e-20
9.25688e-24
2.20135e-23
6.73886e-24
2.6067e-24
2.34161e-23
-2.23696e-23
3.26508e-22
-6.98338e-22
2.15457e-21
-6.09162e-21
8.0734e-21
-2.63471e-20
1.90635e-20
-6.86128e-20
2.98284e-20
-1.19496e-19
3.19281e-20
-1.55705e-19
1.93853e-20
-1.44553e-19
4.73344e-21
-9.84527e-20
-2.24834e-20
8.14632e-24
3.93751e-24
4.62439e-24
4.70186e-26
8.45395e-23
-7.25644e-23
1.2188e-21
-1.74198e-21
7.48474e-21
-1.29797e-20
2.62497e-20
-5.01516e-20
5.87767e-20
-1.17765e-19
9.05976e-20
-1.86316e-19
9.97513e-20
-2.19845e-19
6.9955e-20
-1.80371e-19
2.45945e-20
-1.12321e-19
-2.47947e-20
2.74503e-24
5.49414e-25
7.04163e-24
-1.68057e-24
3.12701e-22
-2.96535e-22
4.04867e-21
-5.27701e-21
2.22754e-20
-3.23989e-20
7.16841e-20
-1.0825e-19
1.49852e-19
-2.22511e-19
2.22724e-19
-3.1219e-19
2.42299e-19
-3.19108e-19
1.79436e-19
-2.10445e-19
7.47151e-20
-9.15596e-20
6.39089e-21
7.28224e-25
4.98888e-26
2.84593e-23
-1.55328e-23
1.27039e-21
-1.31584e-21
1.38075e-20
-1.75145e-20
6.6123e-20
-8.81164e-20
1.90165e-19
-2.50479e-19
3.64391e-19
-4.45424e-19
5.13614e-19
-5.50491e-19
5.43898e-19
-4.74929e-19
4.18533e-19
-2.25087e-19
2.00172e-19
9.45194e-21
1.24346e-19
6.57298e-09
-6.57298e-09
-1.08262e-08
1.73992e-08
-5.61347e-08
4.53085e-08
-1.32835e-07
7.67001e-08
-2.41358e-07
1.08523e-07
-3.79692e-07
1.38334e-07
-5.42253e-07
1.6256e-07
-7.19369e-07
1.77116e-07
-8.98696e-07
1.79327e-07
-1.06764e-06
1.6894e-07
-1.21333e-06
1.45697e-07
1.09295e-07
-1.32263e-06
-3.88589e-08
3.2286e-08
-1.42029e-07
1.20569e-07
-3.11376e-07
2.14656e-07
-5.42763e-07
3.08087e-07
-8.30108e-07
3.95868e-07
-1.16081e-06
4.69031e-07
-1.51287e-06
5.1463e-07
-1.85689e-06
5.21135e-07
-2.16454e-06
4.86974e-07
-2.41738e-06
4.21776e-07
-2.60091e-06
3.29232e-07
2.08703e-07
-2.70032e-06
-7.67351e-08
1.09021e-07
-2.67588e-07
3.11421e-07
-5.47524e-07
4.94593e-07
-9.00987e-07
6.6155e-07
-1.3124e-06
8.07279e-07
-1.75673e-06
9.13368e-07
-2.19625e-06
9.54141e-07
-2.58638e-06
9.11264e-07
-2.89288e-06
7.93475e-07
-3.11231e-06
6.41213e-07
-3.24933e-06
4.66254e-07
2.40056e-07
-3.28069e-06
-1.05091e-07
2.14112e-07
-3.50295e-07
5.56626e-07
-6.97106e-07
8.41404e-07
-1.12193e-06
1.08637e-06
-1.60421e-06
1.28956e-06
-2.11347e-06
1.42263e-06
-2.60165e-06
1.44233e-06
-3.00525e-06
1.31485e-06
-3.26444e-06
1.05267e-06
-3.40331e-06
7.8008e-07
-3.41525e-06
4.78196e-07
1.51295e-07
-3.01337e-06
-1.11524e-07
3.25636e-07
-3.71209e-07
8.16311e-07
-7.38275e-07
1.20847e-06
-1.18871e-06
1.53681e-06
-1.70592e-06
1.80677e-06
-2.26281e-06
1.97951e-06
-2.80171e-06
1.98122e-06
-3.21331e-06
1.72646e-06
-3.20708e-06
1.04644e-06
-1.50383e-06
2.70923e-07
-4.57711e-07
1.79627e-08
8.92261e-17
-1.68743e-07
-9.60812e-08
4.21718e-07
-3.26685e-07
1.04691e-06
-6.60937e-07
1.54272e-06
-1.07693e-06
1.9528e-06
-1.56034e-06
2.29018e-06
-2.07881e-06
2.49798e-06
-2.55463e-06
2.45705e-06
-2.05281e-06
1.57871e-06
-4.5407e-07
2.10282e-07
-1.79627e-08
8.34464e-17
-1.4942e-16
3.94364e-17
2.13779e-17
-8.26758e-17
-6.61256e-08
4.87843e-07
-2.30474e-07
1.21126e-06
-4.84128e-07
1.79638e-06
-8.14436e-07
2.28311e-06
-1.21956e-06
2.69531e-06
-1.67891e-06
2.95733e-06
-1.9603e-06
2.86016e-06
-2.10282e-07
3.99321e-07
-1.45367e-16
7.55005e-17
-9.20808e-17
5.22427e-17
-6.31682e-17
2.65566e-17
1.3387e-17
-7.2314e-17
-3.50305e-08
5.22874e-07
-1.06344e-07
1.28258e-06
-2.3462e-07
1.92465e-06
-4.21263e-07
2.46975e-06
-6.74832e-07
2.94888e-06
-9.79367e-07
3.26187e-06
-5.97058e-07
2.78825e-06
-8.30331e-17
2.63549e-07
-6.12804e-17
5.38019e-17
-4.71205e-17
3.65326e-17
-4.73277e-17
2.24522e-17
1.78072e-17
-6.13182e-17
-2.19847e-08
5.44858e-07
1.08681e-08
1.24972e-06
4.24638e-08
1.89306e-06
4.75164e-08
2.4647e-06
9.1566e-09
2.98724e-06
-6.75627e-08
3.33859e-06
-5.12795e-08
3.04871e-06
-6.75615e-19
5.32729e-07
-9.98921e-19
5.4118e-17
1.009e-19
3.33546e-17
3.97762e-18
1.53957e-17
1.16819e-17
1.00539e-17
-4.68457e-08
5.91704e-07
8.56779e-08
1.1172e-06
2.92949e-07
1.68578e-06
5.03521e-07
2.25413e-06
6.89321e-07
2.80143e-06
8.35643e-07
3.19226e-06
7.87409e-07
3.11861e-06
1.72779e-07
1.62059e-06
5.46142e-17
1.72779e-07
3.65107e-17
5.18426e-17
4.22657e-17
9.25627e-18
4.43804e-18
4.9894e-17
-8.6722e-08
6.78426e-07
1.48394e-07
8.82084e-07
5.17061e-07
1.31712e-06
9.00142e-07
1.87104e-06
1.26322e-06
2.43835e-06
1.58758e-06
2.86791e-06
1.8112e-06
2.89499e-06
1.47084e-06
2.06333e-06
8.10876e-07
1.25961e-06
6.63959e-07
5.28971e-07
4.36999e-07
-1.34743e-07
-3.12196e-07
4.37551e-08
1.70153e-07
5.08273e-07
4.47229e-07
6.05007e-07
8.6849e-07
8.95857e-07
1.29754e-06
1.442e-06
1.73468e-06
2.00121e-06
2.14605e-06
2.45653e-06
2.43017e-06
2.61088e-06
2.44951e-06
2.04399e-06
2.35635e-06
1.35277e-06
2.50334e-06
4.12471e-07
2.92487e-06
-5.56272e-07
3.28777e-06
-6.75097e-07
-1.38791e-06
6.52858e-08
-1.40797e-06
2.00572e-08
-1.36605e-06
-4.19258e-08
-1.26069e-06
-1.05351e-07
-1.10178e-06
-1.58917e-07
-9.03115e-07
-1.98663e-07
-6.84338e-07
-2.18777e-07
-4.67277e-07
-2.17061e-07
-2.72158e-07
-1.95119e-07
-1.18615e-07
-1.53543e-07
-2.51402e-08
-9.34752e-08
-2.51402e-08
-2.71464e-06
7.96082e-08
-2.64104e-06
-5.35471e-08
-2.48824e-06
-1.94722e-07
-2.25974e-06
-3.3385e-07
-1.96197e-06
-4.5669e-07
-1.61286e-06
-5.4777e-07
-1.24047e-06
-5.91168e-07
-8.74849e-07
-5.82682e-07
-5.38913e-07
-5.31055e-07
-2.57239e-07
-4.35217e-07
-6.62977e-08
-2.84416e-07
-9.14379e-08
-3.23234e-06
3.12647e-08
-3.11359e-06
-1.71725e-07
-2.91954e-06
-3.80908e-07
-2.65206e-06
-6.01336e-07
-2.31329e-06
-7.95455e-07
-1.91608e-06
-9.44977e-07
-1.49569e-06
-1.01156e-06
-1.08958e-06
-9.88797e-07
-7.08946e-07
-9.11689e-07
-3.64133e-07
-7.8003e-07
-1.05062e-07
-5.43488e-07
-1.96499e-07
-2.38806e-06
-1.69998e-08
-1.91724e-06
-1.04982e-18
-1.69287e-06
-9.24831e-17
-1.7557e-06
-2.446e-08
-1.98867e-06
-2.5984e-07
-2.08563e-06
-6.97731e-07
-1.70157e-06
-1.36131e-06
-1.28648e-06
-1.40389e-06
-8.91647e-07
-1.30652e-06
-4.943e-07
-1.17738e-06
-1.56018e-07
-8.8177e-07
-3.52517e-07
-1.34436e-17
8.02844e-17
-2.10902e-17
-1.13286e-18
-4.37662e-17
-4.32698e-18
-2.446e-08
-9.37146e-18
-5.89822e-08
-1.03545e-16
-5.31239e-07
-2.10084e-16
-1.56163e-06
-2.55287e-07
-1.56643e-06
-1.42938e-06
-1.15741e-06
-1.71554e-06
-6.91724e-07
-1.64306e-06
-2.41459e-07
-1.33204e-06
-5.93976e-07
-1.37696e-17
4.16702e-18
-2.35356e-17
-7.01698e-18
-3.13369e-17
-3.0577e-17
-1.08655e-17
-6.4607e-17
-1.04719e-17
-1.03939e-16
-8.80667e-17
-1.3249e-16
-2.55287e-07
-1.23868e-16
-1.56411e-06
-4.89316e-07
-1.48405e-06
-1.92946e-06
-9.5198e-07
-2.17513e-06
-3.66053e-07
-1.91796e-06
-9.60029e-07
-1.04635e-16
8.10993e-18
-1.38693e-16
-2.81602e-18
-1.65949e-16
-3.3083e-17
-1.84274e-16
-7.52925e-17
-1.8334e-16
-1.28143e-16
-1.45187e-16
-1.81658e-16
-1.03537e-16
-1.8763e-16
-7.16626e-07
-1.42144e-07
-1.52674e-06
-1.62505e-06
-1.1759e-06
-2.46144e-06
-5.01285e-07
-2.59258e-06
-1.46131e-06
-7.87984e-17
1.54129e-17
-9.29566e-17
2.08906e-18
-1.09082e-16
-2.53461e-17
-1.26596e-16
-7.03775e-17
-1.40866e-16
-1.33951e-16
-1.26279e-16
-2.10783e-16
-8.58987e-17
-2.26521e-16
-2.81503e-07
-4.35676e-08
-9.6326e-07
-1.64327e-06
-9.00341e-07
-2.72568e-06
-5.1999e-07
-2.67389e-06
-1.9813e-06
1.81751e-17
1.22799e-17
2.3114e-17
2.04842e-18
2.14765e-17
-1.69905e-17
1.28211e-17
-5.36848e-17
7.35907e-18
-1.33963e-16
1.42471e-17
-2.45152e-16
5.34518e-10
-5.34518e-10
-3.07471e-08
-2.022e-07
-1.38035e-07
-2.02078e-06
-1.7997e-07
-3.10288e-06
-1.66399e-07
-3.12316e-06
-2.12003e-06
5.39208e-17
7.86886e-18
8.32343e-17
-2.71923e-17
1.22747e-16
1.85109e-16
1.46279e-16
-7.14946e-17
1.7829e-16
-1.58758e-16
1.56475e-08
-1.56475e-08
3.75544e-07
-6.84222e-08
1.58195e-06
-1.44485e-06
1.91316e-06
-2.67504e-06
1.38755e-06
-2.57727e-06
5.32813e-07
-2.46297e-06
-1.48353e-06
3.96251e-09
-4.89369e-08
4.48005e-09
-1.41689e-08
1.56819e-08
-2.66375e-08
1.45182e-07
-1.17359e-07
4.0751e-07
-5.22756e-07
5.86052e-07
-6.88856e-07
1.74398e-06
-3.98512e-07
3.89529e-06
-1.70396e-06
3.6008e-06
-2.38055e-06
2.83369e-06
-1.81016e-06
1.59661e-06
-1.2259e-06
2.06761e-08
2.84625e-06
-2.80603e-07
1.66686e-06
-1.01447e-07
1.99395e-06
-6.63356e-07
2.99426e-06
-1.00685e-06
3.60325e-06
-1.62888e-06
2.59512e-06
-1.6266e-06
3.20633e-06
-1.39092e-06
5.29842e-06
-1.91583e-06
5.03016e-06
-2.0137e-06
4.26967e-06
-1.04967e-06
2.80759e-06
2.3618e-07
2.73312e-06
3.26217e-06
2.02446e-06
-5.32476e-06
1.47439e-06
1.54919e-06
1.99585e-07
6.96318e-07
4.6644e-17
1.99585e-07
1.24872e-17
3.73522e-17
1.67053e-17
1.09124e-16
2.20875e-17
1.62405e-17
3.9652e-17
3.46659e-17
2.28291e-08
7.89364e-17
2.84916e-07
5.42327e-17
5.35821e-07
7.89056e-17
2.50303e-09
3.03873e-07
6.22652e-06
2.54925e-06
-6.7513e-06
5.48013e-06
2.29558e-06
4.34619e-06
1.78109e-06
2.6724e-06
1.5696e-06
3.81673e-07
1.11748e-06
3.79713e-10
3.23791e-07
3.21633e-17
3.79713e-10
3.75541e-17
2.49692e-17
1.0022e-16
6.89765e-17
8.81929e-17
5.47275e-17
1.04705e-16
5.1183e-17
2.50303e-09
1.81487e-16
6.99452e-06
2.75263e-06
-7.1979e-06
6.61418e-06
2.67591e-06
6.0989e-06
2.29637e-06
5.56372e-06
2.10478e-06
4.71426e-06
1.80617e-06
2.61147e-06
1.80013e-06
3.76542e-07
1.41451e-06
9.27576e-17
3.76542e-07
4.40584e-17
1.1332e-16
4.66726e-17
5.6469e-17
5.30967e-17
4.04032e-17
-2.03412e-08
6.41973e-08
7.08593e-06
-7.11562e-06
2.78232e-06
6.99352e-06
2.76832e-06
6.78589e-06
2.50315e-06
6.4358e-06
2.45416e-06
5.76234e-06
2.47964e-06
4.6398e-06
2.92266e-06