/*--------------------------------*- C++ -*----------------------------------*\
| =========                 |                                                 |
| \\      /  F ield         | OpenFOAM: The Open Source CFD Toolbox           |
|  \\    /   O peration     | Version:  v1606+                                |
|   \\  /    A nd           | Web:      www.OpenFOAM.com                      |
|    \\/     M anipulation  |                                                 |
\*---------------------------------------------------------------------------*/
FoamFile
{
    version     2.0;
    format      ascii;
    class       volVectorField;
    location    "0.9";
    object      U;
}
// * * * * * * * * * * * * * * * * * * * * * * * * * * * * * * * * * * * * * //

dimensions      [0 1 -1 0 0 0 0];

internalField   nonuniform List<vector> 
768
(
(0.0281847 0.047598 -7.9757e-21)
(0.034315 0.0418717 1.36187e-20)
(0.0386169 0.0350347 2.15871e-20)
(0.0410199 0.0279144 0)
(0.0413141 0.0207664 -3.06905e-20)
(0.0396193 0.014389 8.71924e-22)
(0.0361921 0.00939068 2.4933e-20)
(0.0310065 0.00597796 0)
(0.0235179 0.00394265 5.89557e-21)
(0.0124841 0.00316688 1.62679e-22)
(-0.00243709 0.0047654 -1.63575e-22)
(-0.0260669 0.00352196 -1.48311e-20)
(0.0244338 0.0353784 -3.61228e-21)
(0.0289811 0.0292983 9.89557e-21)
(0.0319481 0.0220552 -2.91323e-20)
(0.0333197 0.014629 0)
(0.032822 0.00742776 3.105e-20)
(0.0304944 0.00117368 -2.12892e-20)
(0.0263813 -0.00369832 -8.26237e-21)
(0.0201055 -0.00696239 -2.13495e-21)
(0.0111498 -0.00842311 -5.76801e-21)
(-0.00174647 -0.0077658 0)
(-0.0182986 -0.00285099 0)
(-0.0432938 0.00121325 1.51927e-20)
(0.0211877 0.026198 0)
(0.0245997 0.0203254 -1.31317e-20)
(0.026476 0.0137471 2.242e-20)
(0.0269237 0.00667029 8.73524e-21)
(0.0257145 -0.000501296 -4.6293e-20)
(0.0228981 -0.00700746 1.87042e-20)
(0.0183553 -0.0119403 -3.34231e-20)
(0.011885 -0.0146229 7.249e-21)
(0.00312426 -0.01441 -1.39711e-21)
(-0.00797352 -0.0109643 -7.9144e-22)
(-0.0240329 -0.00342209 -2.83199e-20)
(-0.0491831 0.0111081 -1.44768e-20)
(0.0180208 0.0202956 0)
(0.0208218 0.0146739 2.54654e-20)
(0.02217 0.00868411 0)
(0.0221501 0.00242793 3.915e-20)
(0.0207053 -0.00393542 0)
(0.0179477 -0.00990117 1.5718e-20)
(0.013726 -0.0144726 4.37461e-20)
(0.00801269 -0.0165418 -1.02743e-20)
(0.000472031 -0.0151123 0)
(-0.00842252 -0.00932314 0)
(-0.0268466 -0.00242042 -1.38823e-20)
(-0.0460702 0.0196059 6.45897e-21)
(0.0393846 -0.00217327 -7.2378e-21)
(0.0416351 -0.0138056 -8.61066e-21)
(0.0357955 -0.0347663 8.58437e-21)
(0.0219217 -0.0500609 -1.13414e-19)
(0.00207845 -0.0532243 8.31084e-20)
(-0.0183565 -0.048211 -1.39726e-19)
(-0.0349799 -0.0380497 -5.98647e-20)
(-0.046529 -0.0254643 -2.06293e-20)
(-0.0532994 -0.0124242 0)
(-0.0560419 -0.000126484 0)
(-0.0556168 0.0108706 -2.03805e-20)
(-0.0527072 0.0203983 -2.05673e-22)
(0.0533338 0.00722862 2.65208e-20)
(0.049945 0.00476429 0)
(0.0378451 -0.0146195 0)
(0.0195429 -0.0329972 4.57705e-20)
(0.000394131 -0.0397257 -2.68973e-20)
(-0.0164787 -0.0378379 3.65973e-20)
(-0.0293778 -0.030782 0)
(-0.0381271 -0.0209332 -5.78111e-20)
(-0.0429834 -0.0100011 -2.03467e-20)
(-0.0445912 0.000626103 3.91271e-20)
(-0.0436089 0.0100833 -2.30784e-20)
(-0.0405476 0.0180329 -4.25635e-21)
(0.0534491 0.00188191 -1.89693e-20)
(0.0445002 0.00973466 3.1742e-20)
(0.0289006 -0.00516756 1.42789e-20)
(0.012828 -0.0231537 2.63208e-20)
(-0.00181296 -0.030937 3.09618e-20)
(-0.0150806 -0.0305539 0)
(-0.0253593 -0.0252249 1.79259e-20)
(-0.0322784 -0.0172049 3.90035e-20)
(-0.0358497 -0.00800356 1.88665e-20)
(-0.0364545 0.00109046 -3.80575e-20)
(-0.0346879 0.00923388 1.80652e-20)
(-0.0311734 0.0159722 -8.11779e-21)
(0.0394011 -0.0117904 3.88035e-20)
(0.0273385 0.00273317 -4.52936e-20)
(0.0127388 -0.00411337 -2.13333e-20)
(0.00414196 -0.0174672 -4.46714e-21)
(-0.00461878 -0.0244899 -8.28248e-20)
(-0.0144067 -0.0248521 -3.15251e-20)
(-0.0224952 -0.0209391 9.6229e-20)
(-0.0280861 -0.0145756 0)
(-0.0309184 -0.00701982 6.95093e-20)
(-0.0311222 0.000700162 0)
(-0.0290958 0.00776717 -3.2774e-20)
(-0.0253783 0.0136407 1.55961e-20)
(-0.047954 0.0283736 2.38886e-20)
(-0.0420017 0.0346635 0)
(-0.0352631 0.0390771 2.2669e-20)
(-0.0280288 0.0414333 -1.67087e-20)
(-0.0208054 0.0416546 0)
(-0.0143476 0.0398781 -4.74098e-21)
(-0.00931376 0.0363533 5.76909e-21)
(-0.00592372 0.0310673 1.88789e-20)
(-0.00395266 0.0234963 3.68045e-21)
(-0.00324783 0.0124175 -7.98642e-21)
(-0.0048844 -0.00252095 3.16192e-22)
(-0.00361538 -0.0261791 1.50923e-20)
(-0.0357408 0.0244098 -1.19348e-20)
(-0.0294851 0.0292162 -3.61862e-21)
(-0.0222416 0.0323496 -2.22368e-20)
(-0.0146551 0.0336706 0)
(-0.00741792 0.0331133 -3.7448e-20)
(-0.00113125 0.0307211 -1.44346e-20)
(0.00375002 0.0265348 3.46801e-21)
(0.00699811 0.0201744 5.51278e-21)
(0.00842491 0.0111292 -1.31222e-20)
(0.00772863 -0.00183541 7.44327e-21)
(0.00278745 -0.0184205 0)
(-0.00132405 -0.0435048 1.49275e-20)
(-0.0263715 0.0211577 -1.82864e-20)
(-0.0205435 0.0247608 3.5098e-21)
(-0.0138696 0.026785 0)
(-0.00665136 0.0271963 -3.89657e-20)
(0.000582741 0.0259457 3.73433e-20)
(0.00713093 0.0230696 3.08445e-20)
(0.0120739 0.018455 -3.00052e-20)
(0.0147393 0.0119019 -3.48748e-20)
(0.0144938 0.00305308 -2.84931e-20)
(0.0110017 -0.00810852 2.93332e-20)
(0.00342226 -0.0242105 -4.93766e-21)
(-0.011228 -0.0493873 -3.74149e-20)
(-0.0204997 0.01808 2.51605e-20)
(-0.014878 0.0209976 3.38213e-21)
(-0.00878509 0.022414 0)
(-0.00242328 0.0223682 4.68891e-20)
(0.00401366 0.0208904 -1.48545e-21)
(0.0100339 0.0180798 -5.29452e-21)
(0.0146241 0.0137894 0)
(0.0166762 0.00799943 2.8468e-21)
(0.0152123 0.000388066 1.90366e-20)
(0.00936142 -0.00854503 6.14029e-21)
(0.00243795 -0.0270147 2.92312e-20)
(-0.0196984 -0.0462302 5.21953e-20)
(-0.00220871 -0.0395317 1.21863e-20)
(-0.0137858 -0.0417076 8.79714e-21)
(-0.034785 -0.0357694 -8.77146e-21)
(-0.0500891 -0.021824 0)
(-0.0531768 -0.00195237 0)
(-0.0480901 0.0184812 1.77749e-19)
(-0.0378669 0.0350712 -1.45638e-20)
(-0.0252486 0.046578 6.66462e-20)
(-0.0122005 0.0533025 0)
(0.000153362 0.056002 -4.37372e-20)
(0.0111771 0.055532 -2.0365e-20)
(0.0205012 0.0522925 9.16294e-21)
(0.00716118 -0.0535325 0)
(0.00483376 -0.0500645 0)
(-0.0145612 -0.0378642 0)
(-0.0329807 -0.0194756 -2.67086e-20)
(-0.0396753 -0.000303711 -5.01094e-21)
(-0.0377346 0.0165663 -3.67657e-20)
(-0.0306255 0.0294387 7.61279e-20)
(-0.0207307 0.0381524 -7.81272e-20)
(-0.00977414 0.0429537 0)
(0.000815297 0.0444715 2.93945e-20)
(0.0102038 0.0433811 1.42128e-20)
(0.0181576 0.0402045 -4.51258e-21)
(0.0017299 -0.0536265 0)
(0.00980564 -0.044611 3.19805e-20)
(-0.00505527 -0.0289137 -6.68254e-21)
(-0.0230995 -0.0127725 -5.37556e-21)
(-0.0308731 0.00187969 2.63549e-20)
(-0.0304557 0.0151447 2.99257e-20)
(-0.0250876 0.0253982 5.1706e-20)
(-0.0170296 0.0322747 3.91128e-20)
(-0.00779281 0.0357904 1.88942e-20)
(0.00128747 0.0363279 -3.80853e-20)
(0.00934328 0.0345038 -1.743e-20)
(0.0160018 0.0309623 0)
(-0.0120137 -0.03949 1.00169e-20)
(0.00274838 -0.0274062 -2.49939e-21)
(-0.00400955 -0.0127029 0)
(-0.0173984 -0.00407456 0)
(-0.0244223 0.0046742 -2.89752e-20)
(-0.0247628 0.0144546 -1.29226e-21)
(-0.0208206 0.0225188 -9.65409e-20)
(-0.01443 0.0280717 0)
(-0.00685914 0.0308509 -6.9583e-20)
(0.000851035 0.030995 0)
(0.00786847 0.0289247 -1.58275e-20)
(0.0136804 0.0251851 0)
(0.0151717 0.0173575 -6.76184e-21)
(0.017588 0.0120633 -2.47684e-20)
(0.0186687 0.00646245 0)
(0.0184738 0.000775849 -3.80714e-20)
(0.0170337 -0.0048801 -7.69323e-21)
(0.0144872 -0.0102561 -3.26109e-20)
(0.0108065 -0.0147723 1.3033e-20)
(0.00587619 -0.0173745 0)
(-0.00091796 -0.0167724 0)
(-0.0102122 -0.0113027 8.04993e-21)
(-0.027012 -0.00371374 2.06939e-20)
(-0.0365558 0.0184245 0)
(0.0126873 0.0158623 6.57155e-21)
(0.0148345 0.0111017 0)
(0.0157768 0.00600151 -4.2985e-20)
(0.0155495 0.000827957 8.93541e-21)
(0.014164 -0.00427616 -8.95265e-21)
(0.0117623 -0.00913449 4.55555e-20)
(0.00832905 -0.0135537 2.52086e-20)
(0.00366383 -0.0169786 -1.17251e-20)
(-0.00301332 -0.0179335 0)
(-0.0127593 -0.0140831 0)
(-0.0249734 -0.00557551 0)
(-0.0285472 0.0132434 0)
(0.0105747 0.014749 -6.20829e-21)
(0.0124756 0.0105703 -2.84391e-20)
(0.0133206 0.00603752 4.72661e-20)
(0.0131134 0.00141155 0)
(0.0118427 -0.00314385 0)
(0.00958448 -0.00740331 -1.30726e-19)
(0.0063361 -0.0112661 6.65186e-20)
(0.00188305 -0.0145266 0)
(-0.00442118 -0.0160331 -1.01644e-20)
(-0.0127508 -0.0133004 2.01042e-20)
(-0.0209917 -0.00516945 -9.77065e-21)
(-0.0215005 0.00996044 0)
(0.00878698 0.013719 6.03684e-21)
(0.0104509 0.0100395 2.23171e-20)
(0.0111976 0.00601684 -4.07337e-20)
(0.0110106 0.00189424 2.82761e-20)
(0.00987396 -0.00215837 -2.4596e-20)
(0.00781927 -0.00586245 -1.54624e-20)
(0.00488129 -0.0090564 -9.07581e-20)
(0.000929566 -0.0115661 -1.13643e-20)
(-0.00439153 -0.0127268 1.13973e-20)
(-0.0106902 -0.0106033 4.27121e-20)
(-0.0162682 -0.00403509 0)
(-0.0158709 0.00737762 0)
(0.00725864 0.0127941 0)
(0.00870431 0.00951916 0)
(0.00935014 0.00591975 3.9623e-20)
(0.00917409 0.00222171 -3.59922e-20)
(0.00815848 -0.00140446 -4.11537e-20)
(0.00632393 -0.0046744 1.38444e-19)
(0.00374741 -0.00737946 2.53952e-20)
(0.000386468 -0.00927238 6.14122e-20)
(-0.00386349 -0.00996415 0)
(-0.00859366 -0.00811882 -4.15296e-20)
(-0.0124304 -0.0030585 -4.25663e-20)
(-0.0117465 0.00539287 0)
(0.00593548 0.0120057 0)
(0.00718338 0.0090653 5.01366e-21)
(0.00773413 0.00582023 -5.02027e-21)
(0.0075641 0.00248105 8.44343e-21)
(0.00666237 -0.000789422 1.20372e-19)
(0.00502941 -0.00371566 -7.12051e-20)
(0.00278906 -0.00607969 1.38089e-20)
(-4.71065e-05 -0.00759557 -4.7512e-20)
(-0.00344859 -0.00798812 -1.10261e-20)
(-0.00700511 -0.00634385 1.10126e-20)
(-0.00955437 -0.00239485 4.14915e-20)
(-0.00880142 0.00396569 0)
(0.004781 0.0113437 0)
(0.00584873 0.00868313 4.8717e-21)
(0.00631192 0.00573794 -4.87796e-21)
(0.00614585 0.0027013 0)
(0.00534892 -0.000262818 -7.05794e-20)
(0.0039078 -0.00290598 -6.14756e-21)
(0.0019669 -0.00502162 -2.64005e-20)
(-0.000409031 -0.00630815 -6.10975e-20)
(-0.00312731 -0.00656554 4.55365e-20)
(-0.00575662 -0.00514857 0)
(-0.00740176 -0.00201853 8.48285e-20)
(-0.00659492 0.00280997 0)
(0.00376118 0.0107734 0)
(0.0046679 0.00834549 4.73832e-21)
(0.00504934 0.00565246 3.18473e-20)
(0.0048846 0.00287336 8.09555e-21)
(0.00417224 0.000169306 5.40894e-20)
(0.0029246 -0.00224567 -1.35049e-20)
(0.00125242 -0.00416834 6.47517e-20)
(-0.000722859 -0.00531055 9.52967e-20)
(-0.00287111 -0.00553462 4.5858e-20)
(-0.00478937 -0.0043519 1.05649e-20)
(-0.00578944 -0.00185543 -9.33807e-21)
(-0.00494809 0.00187942 0)
(0.00284677 0.0102375 0)
(0.0036057 0.00799949 0)
(0.00390942 0.00551877 -3.56702e-20)
(0.0037414 0.00295928 0)
(0.00310277 0.000473259 2.598e-22)
(0.0020291 -0.00174989 -1.32877e-20)
(0.000601529 -0.00351639 1.32824e-20)
(-0.00102356 -0.00456844 -4.67776e-20)
(-0.00269478 -0.00480822 -9.73417e-21)
(-0.00405543 -0.00385242 9.56293e-20)
(-0.00457428 -0.00185834 -8.17567e-20)
(-0.00366565 0.00108562 8.17049e-20)
(0.00201822 0.00968877 0)
(0.00263794 0.00760452 1.85929e-20)
(0.00286509 0.00530291 -3.48068e-20)
(0.00268712 0.00293409 7.7461e-21)
(0.00211566 0.000636113 -7.42368e-20)
(0.00119377 -0.0014184 4.852e-20)
(-8.84295e-06 -0.00305316 -4.90949e-20)
(-0.00132409 -0.00404116 1.20347e-20)
(-0.00258963 -0.00431185 -8.65883e-20)
(-0.00348788 -0.0035636 -7.24091e-20)
(-0.00362605 -0.00196189 -1.02409e-20)
(-0.00262851 0.000398812 -7.97137e-20)
(0.0012641 0.00895709 0)
(0.00174681 0.00699246 -5.44314e-20)
(0.00189608 0.00484617 3.39736e-20)
(0.00169825 0.00265241 0)
(0.00118739 0.000535487 -6.96099e-21)
(0.000393497 -0.00133897 -3.33671e-20)
(-0.000597707 -0.00282179 -5.02057e-20)
(-0.00162783 -0.00371944 -2.28075e-20)
(-0.00253139 -0.00398072 1.06895e-19)
(-0.003024 -0.00339056 7.11257e-20)
(-0.00283741 -0.00208731 0)
(-0.00175337 -0.000180889 0)
(0.000474613 0.00548815 -9.31138e-21)
(0.000670994 0.0038149 6.41988e-25)
(0.000629083 0.0020888 0)
(0.000352013 0.000409735 7.36186e-21)
(-0.000113509 -0.00112152 -7.36081e-21)
(-0.000723306 -0.00238042 -6.40715e-20)
(-0.00138489 -0.00327832 2.02551e-19)
(-0.00197256 -0.00370057 0)
(-0.00236522 -0.00363817 -8.27696e-20)
(-0.002375 -0.00300953 -7.90334e-20)
(-0.00189479 -0.00192654 -7.69642e-20)
(-0.000908618 -0.000515498 7.59993e-20)
(0.0171119 -0.0228514 -3.81237e-20)
(0.00310548 -0.0112755 -7.72411e-20)
(-0.00124451 -0.00935559 9.41814e-20)
(-0.00147813 -0.0155296 0)
(-0.00644863 -0.0203404 1.05207e-19)
(-0.013694 -0.0206479 2.9777e-20)
(-0.0201758 -0.0176193 -9.26473e-20)
(-0.0248303 -0.0125104 -4.7395e-20)
(-0.0272642 -0.0062893 -8.37883e-20)
(-0.0274457 0.000194654 0)
(-0.025613 0.00623438 3.18422e-20)
(-0.0221629 0.011338 -7.47895e-21)
(0.0138156 -0.0263743 0)
(-0.00228843 -0.0161829 7.58818e-20)
(-0.00372992 -0.0113501 -9.22519e-20)
(-0.00354111 -0.0144739 0)
(-0.00727652 -0.0173309 7.33037e-20)
(-0.0129892 -0.0173786 2.61486e-20)
(-0.0182728 -0.0149384 -1.15251e-19)
(-0.0221844 -0.0107897 1.80977e-21)
(-0.0243174 -0.00565459 0)
(-0.0245666 -0.000222233 0)
(-0.0230679 0.00491352 0)
(-0.0201039 0.0093293 -6.93775e-21)
(0.00824308 -0.019151 0)
(-0.00297676 -0.0153251 5.13561e-20)
(-0.00352154 -0.0117717 9.59242e-20)
(-0.00435059 -0.0133462 0)
(-0.00764237 -0.0149907 -7.16173e-20)
(-0.0123318 -0.0148119 5.15863e-20)
(-0.0167054 -0.0127761 1.52982e-19)
(-0.0200077 -0.00935253 -2.7122e-20)
(-0.0218632 -0.00507996 -4.32874e-20)
(-0.0221431 -0.000515605 0)
(-0.0209226 0.00385108 -2.77393e-20)
(-0.0184118 0.00765196 6.74288e-21)
(0.00715173 -0.0150641 0)
(-0.00166932 -0.0128899 -6.7352e-20)
(-0.00296651 -0.0111341 -1.53284e-19)
(-0.00469596 -0.0121309 0)
(-0.00778426 -0.0130686 -2.40937e-20)
(-0.0117462 -0.0127487 -7.65462e-20)
(-0.0154239 -0.0110206 1.04453e-19)
(-0.018231 -0.00816069 5.51977e-20)
(-0.0198329 -0.00458299 1.24236e-21)
(-0.0200997 -0.000731095 6.77165e-21)
(-0.0190724 0.0029937 2.347e-20)
(-0.016909 0.00625515 -3.25786e-21)
(0.00554384 -0.0113831 1.72403e-20)
(-0.000961254 -0.0106212 -3.5755e-20)
(-0.00268755 -0.0100887 7.39393e-20)
(-0.00490628 -0.010879 1.99369e-20)
(-0.00781787 -0.0114294 1.12954e-19)
(-0.0112325 -0.0110537 -2.32212e-20)
(-0.0143738 -0.00957776 -1.88796e-19)
(-0.0167819 -0.00717489 2.67315e-22)
(-0.0181677 -0.00416577 5.33245e-20)
(-0.018402 -0.000906156 -6.49379e-20)
(-0.0175104 0.00227323 0)
(-0.015613 0.00507214 1.21389e-20)
(0.00429394 -0.00884346 0)
(-0.000739115 -0.00880506 -1.83918e-20)
(-0.00266492 -0.00895729 1.83832e-20)
(-0.00507606 -0.00966009 0)
(-0.00780158 -0.0100079 -6.48661e-20)
(-0.0107921 -0.00963441 -9.08556e-20)
(-0.0135137 -0.00837438 7.36506e-20)
(-0.0155988 -0.00635469 -1.25021e-20)
(-0.0168028 -0.00381847 1.25275e-20)
(-0.017002 -0.00105595 5.03959e-20)
(-0.0162099 0.00165226 0)
(-0.0145243 0.00405264 -1.18119e-20)
(0.00319825 -0.00688938 1.39394e-19)
(-0.000822832 -0.00733299 1.25342e-19)
(-0.00281273 -0.00785293 -1.0773e-21)
(-0.00523741 -0.00851455 1.93029e-20)
(-0.00777434 -0.00876701 8.45567e-20)
(-0.01043 -0.00842921 1.12362e-19)
(-0.0128151 -0.007363 -2.27812e-20)
(-0.0146374 -0.0056653 0)
(-0.015686 -0.00352831 0)
(-0.0158494 -0.00118691 0)
(-0.015131 0.001113 2.04683e-20)
(-0.0136148 0.00316587 2.87913e-21)
(0.00222786 -0.0053392 -1.1853e-19)
(-0.00108068 -0.00610732 -1.57313e-19)
(-0.0030629 -0.00682085 0)
(-0.00541374 -0.00746559 0)
(-0.00776772 -0.00768549 -1.43505e-19)
(-0.0101534 -0.00739963 8.7124e-20)
(-0.012263 -0.00650733 -1.00106e-19)
(-0.0138651 -0.0050837 -1.14591e-19)
(-0.0147748 -0.00328967 1.15682e-20)
(-0.0148982 -0.00130999 -5.71835e-21)
(-0.01423 0.000639177 -1.70226e-20)
(-0.0128431 0.00238444 -1.08959e-20)
(0.00135284 -0.00406125 0)
(-0.00143745 -0.00505527 -1.77688e-20)
(-0.00336779 -0.00587634 1.77484e-20)
(-0.00560999 -0.0065166 1.95333e-20)
(-0.00779261 -0.00673718 8.11089e-20)
(-0.00995317 -0.0065119 -8.31443e-20)
(-0.011831 -0.00577696 6.58074e-20)
(-0.013241 -0.00459171 1.77975e-19)
(-0.0140202 -0.00309182 0)
(-0.0140887 -0.00142869 5.52746e-21)
(-0.0134457 0.000215281 -5.5245e-21)
(-0.0121519 0.00168689 1.06186e-20)
(0.000568907 -0.00296401 0)
(-0.00180974 -0.00410918 -1.74472e-20)
(-0.00366168 -0.00498745 -7.5466e-22)
(-0.00578268 -0.00563748 1.66984e-19)
(-0.0078158 -0.00588221 -1.75892e-19)
(-0.00978826 -0.00573136 1.22002e-19)
(-0.0114709 -0.00514374 -1.00597e-20)
(-0.012708 -0.00417302 -1.07914e-19)
(-0.0133623 -0.00292535 1.08244e-20)
(-0.0133642 -0.00154113 4.32003e-20)
(-0.0127197 -0.000170952 0)
(-0.0114861 0.00105591 1.02703e-20)
(-0.000100984 -0.00200603 0)
(-0.00212873 -0.00323444 0)
(-0.0039104 -0.00414379 0)
(-0.00592206 -0.00482136 -1.45209e-19)
(-0.00783631 -0.00511451 3.23651e-19)
(-0.00964432 -0.00504532 -9.87793e-20)
(-0.0111388 -0.00459048 1.03582e-20)
(-0.0121875 -0.00380566 -1.0358e-20)
(-0.0126873 -0.00278224 0)
(-0.0125872 -0.00164361 -8.93738e-20)
(-0.0118988 -0.000516063 4.904e-20)
(-0.0106797 0.000486375 -1.25646e-20)
(-0.000594202 -0.00111305 1.27991e-19)
(-0.00227287 -0.00229512 0)
(-0.00387175 -0.00313281 -1.72555e-20)
(-0.00552891 -0.00370235 1.58216e-19)
(-0.00700321 -0.00391978 -1.287e-19)
(-0.00825717 -0.00382667 -3.83575e-20)
(-0.0091556 -0.00344416 1.08988e-19)
(-0.00963152 -0.00283936 -2.02296e-20)
(-0.0096423 -0.00209608 1.01927e-20)
(-0.00918472 -0.00130763 8.16046e-20)
(-0.00829906 -0.000565382 -4.0104e-20)
(-0.00705298 4.90621e-05 -1.94351e-20)
(-0.0175555 0.0152115 -6.99249e-21)
(-0.0122334 0.0177272 -5.83224e-21)
(-0.00655227 0.01886 5.84374e-21)
(-0.000784931 0.0186536 0)
(0.00493534 0.0171877 -4.14319e-20)
(0.0103616 0.0145986 -1.94323e-20)
(0.014899 0.0108622 6.03901e-20)
(0.0174855 0.00587061 2.69052e-20)
(0.0168469 -0.000976173 0)
(0.0113221 -0.0103092 6.0183e-21)
(0.00371706 -0.0271553 -2.82346e-20)
(-0.0184876 -0.0366844 -2.91837e-20)
(-0.0160336 0.012719 -1.30483e-20)
(-0.0112444 0.0149387 -5.65944e-21)
(-0.00608194 0.015925 -3.73101e-20)
(-0.000843156 0.0156955 8.92149e-21)
(0.00431535 0.0142902 2.38552e-20)
(0.00921763 0.0118553 -7.22766e-20)
(0.0136623 0.00837899 -3.45475e-20)
(0.0170839 0.0036643 0)
(0.0180114 -0.00305998 0)
(0.0141144 -0.0128519 -2.41215e-20)
(0.0055736 -0.0250906 -8.88503e-21)
(-0.0132945 -0.0286474 -3.91752e-20)
(-0.0148943 0.0106041 3.29305e-21)
(-0.0106921 0.0125589 2.59529e-20)
(-0.00611069 0.0134369 4.17667e-20)
(-0.00143094 0.0132312 0)
(0.00317083 0.0119452 -2.57985e-20)
(0.00746797 0.0096593 9.49857e-20)
(0.0113569 0.00637509 -3.87944e-20)
(0.0146258 0.00187842 0)
(0.0161167 -0.0044706 0)
(0.0133414 -0.0128425 0)
(0.00516858 -0.0210895 0)
(-0.0100043 -0.0215758 3.84072e-20)
(-0.013843 0.00881208 0)
(-0.0101443 0.0105167 -1.69965e-20)
(-0.00608319 0.0112898 -5.32897e-21)
(-0.00191629 0.0111061 8.72024e-21)
(0.0021758 0.0099578 1.61433e-20)
(0.0059116 0.00787992 -6.37622e-20)
(0.00912766 0.00491155 1.18501e-20)
(0.0116469 0.000922513 0)
(0.0127984 -0.00443607 -4.45549e-20)
(0.0106425 -0.0107635 3.21544e-20)
(0.0040366 -0.0163446 -3.15379e-20)
(-0.0074098 -0.0159274 -4.2145e-20)
(-0.0129019 0.00728001 8.70342e-21)
(-0.0096106 0.00875659 2.7885e-21)
(-0.00598003 0.00942336 0)
(-0.00224539 0.00925106 -8.58347e-21)
(0.00141451 0.00822687 -4.94033e-20)
(0.00471182 0.0063735 -7.72763e-21)
(0.00743517 0.0037719 -1.52234e-21)
(0.00933521 0.000380553 -4.85919e-20)
(0.0100209 -0.00389782 3.25081e-20)
(0.00815217 -0.00864841 -3.04414e-20)
(0.00306062 -0.0124891 4.07178e-20)
(-0.00541858 -0.0117907 -1.24987e-21)
(-0.0121013 0.00595291 -1.3876e-20)
(-0.00914641 0.00722571 7.70588e-21)
(-0.0058759 0.00779252 -5.01785e-21)
(-0.00250594 0.00762565 8.43184e-21)
(0.000793719 0.00671729 6.31368e-20)
(0.00374373 0.0050691 6.13747e-21)
(0.00612343 0.00280818 3.80122e-20)
(0.00764579 -5.21474e-05 8.43375e-20)
(0.00803334 -0.00347597 1.16325e-20)
(0.00637069 -0.00704869 0)
(0.00239724 -0.00960137 0)
(-0.0039849 -0.00883551 4.14182e-20)
(-0.0114295 0.00479538 -8.22093e-29)
(-0.00875612 0.00588245 -1.53051e-20)
(-0.00579009 0.00635828 -4.24093e-20)
(-0.00272715 0.00619483 0)
(0.000262342 0.00539266 0)
(0.00292627 0.00393862 -1.36453e-20)
(0.00505621 0.00198118 1.36401e-20)
(0.00634905 -0.000413792 -9.57194e-20)
(0.00660261 -0.00314997 -5.63185e-20)
(0.00517185 -0.00579113 2.15679e-20)
(0.00202259 -0.00743856 7.38815e-20)
(-0.00282395 -0.00662118 8.38719e-20)
(-0.0108517 0.00377311 7.86778e-21)
(-0.00841262 0.00469432 2.69206e-20)
(-0.00570195 0.00508547 6.83919e-20)
(-0.00289997 0.00492316 -6.76142e-20)
(-0.000173664 0.00420661 -5.47116e-20)
(0.00225982 0.00294825 -2.08595e-20)
(0.00419583 0.00126273 1.34639e-20)
(0.00534396 -0.000728016 4.70996e-20)
(0.00556608 -0.00289004 1.33953e-19)
(0.00437273 -0.00481706 8.57151e-20)
(0.00186092 -0.00581818 1.20634e-21)
(-0.00188886 -0.00496772 9.48528e-22)
(-0.0103104 0.00285589 -1.01329e-20)
(-0.00806252 0.00362624 -1.90698e-20)
(-0.00556645 0.00393729 -3.56443e-20)
(-0.00298673 0.00377094 1.24054e-19)
(-0.000480962 0.00312905 6.11957e-20)
(0.00175902 0.00204666 7.24992e-21)
(0.00353795 0.000608011 -5.09137e-20)
(0.00459622 -0.00102913 0)
(0.00483522 -0.00271141 1.0847e-21)
(0.00387132 -0.00407834 -1.67953e-19)
(0.00186508 -0.00459736 -9.15994e-20)
(-0.00109121 -0.00368026 1.08287e-20)
(-0.00975801 0.00202502 0)
(-0.0076648 0.00265329 2.30947e-20)
(-0.00534967 0.00288648 -3.92797e-20)
(-0.00296262 0.00270829 -6.44269e-20)
(-0.0006465 0.00213499 -5.23492e-20)
(0.00142332 0.00120541 -2.01124e-20)
(0.00307012 -6.30823e-06 6.82582e-22)
(0.00406458 -0.00133052 -8.05849e-20)
(0.00433556 -0.00260446 -1.83803e-19)
(0.00358141 -0.00350701 9.28948e-20)
(0.00197005 -0.00364427 0)
(-0.000401414 -0.00263926 -1.59143e-19)
(-0.00902197 0.00126895 0)
(-0.00704901 0.00175763 -3.18745e-20)
(-0.00489079 0.00191085 2.95565e-20)
(-0.00268045 0.00171208 -7.56567e-21)
(-0.000546761 0.00120011 1.23667e-19)
(0.00134155 0.000399714 5.31622e-20)
(0.00283599 -0.000598898 4.87168e-20)
(0.00374012 -0.00163594 9.02664e-20)
(0.00400242 -0.00254521 8.47393e-20)
(0.00340799 -0.00303994 0)
(0.00209706 -0.00285129 0)
(0.000181111 -0.00176033 7.78489e-20)
(-0.00553649 0.000477062 -9.3054e-21)
(-0.0038564 0.000676585 7.47189e-20)
(-0.00212055 0.000635815 2.87323e-20)
(-0.000428254 0.000357785 6.13029e-20)
(0.00111534 -0.000109274 -5.63077e-20)
(0.00238456 -0.000723232 -1.23073e-20)
(0.00329076 -0.00138951 1.23706e-20)
(0.00371709 -0.00198093 -1.06604e-20)
(0.00365511 -0.0023763 1.06604e-20)
(0.0030233 -0.00238568 0)
(0.00193473 -0.00190282 0)
(0.000517249 -0.000911781 7.56825e-20)
(-0.0230688 -0.0171956 0)
(-0.0113094 -0.00307083 -6.90409e-20)
(-0.00931654 0.00136603 1.66867e-20)
(-0.0154745 0.0015536 0)
(-0.0202797 0.00649925 0)
(-0.0205684 0.0137316 2.98756e-20)
(-0.0175179 0.0201897 4.88291e-20)
(-0.0123891 0.0248104 -1.5891e-20)
(-0.00615756 0.0271993 6.74536e-20)
(0.000315913 0.0273297 0)
(0.00631915 0.0254516 3.18476e-20)
(0.011379 0.0219754 7.29669e-21)
(-0.0265559 -0.0138721 0)
(-0.016264 0.00236646 0)
(-0.0113396 0.00383501 -7.82514e-20)
(-0.0144356 0.00360513 0)
(-0.0172806 0.00732073 -2.62761e-20)
(-0.0173092 0.0130185 5.45555e-20)
(-0.0148521 0.0182798 -1.43936e-19)
(-0.0106889 0.0221612 -1.53469e-20)
(-0.00554728 0.0242565 1.54294e-20)
(-0.000123581 0.024464 6.04348e-20)
(0.00498603 0.0229264 0)
(0.00935609 0.0199372 -7.09036e-21)
(-0.0192769 -0.00827004 0)
(-0.0153991 0.00304921 -1.80208e-20)
(-0.0117725 0.00359585 1.14361e-19)
(-0.0133209 0.00440258 -2.05143e-20)
(-0.0149484 0.00767957 0)
(-0.0147526 0.0123536 -7.68974e-20)
(-0.0127031 0.0167067 1.95159e-19)
(-0.00926835 0.0199823 0)
(-0.00499217 0.0218058 0)
(-0.000436609 0.0220507 -5.15456e-20)
(0.00391015 0.0208002 2.06423e-20)
(0.00767185 0.0182696 6.61684e-21)
(-0.015153 -0.00717456 0)
(-0.0129416 0.00171815 0)
(-0.0111395 0.00301672 -7.80601e-20)
(-0.0121134 0.00473748 2.23413e-20)
(-0.0130333 0.00781413 -2.2298e-20)
(-0.0126989 0.0117615 2.26193e-19)
(-0.0109589 0.0154207 -2.77526e-20)
(-0.00809034 0.0182037 6.78795e-20)
(-0.00451089 0.0197789 -6.87457e-20)
(-0.00066843 0.020016 5.43736e-20)
(0.0030368 0.0189632 -2.69735e-20)
(0.00627012 0.0167856 -6.43317e-21)
(-0.0114419 -0.00555842 0)
(-0.0106562 0.00099444 7.2418e-20)
(-0.0100956 0.00272268 7.58309e-20)
(-0.010866 0.00493864 0)
(-0.0114008 0.00784068 -6.67407e-20)
(-0.0110121 0.0112422 -1.44743e-19)
(-0.00952602 0.0143668 -1.64625e-19)
(-0.00711619 0.0167534 3.79015e-20)
(-0.00410652 0.0181166 5.33635e-20)
(-0.000854886 0.0183267 -5.28398e-20)
(0.00230659 0.0174125 0)
(0.00508059 0.0155038 0)
(-0.00888485 -0.0043043 0)
(-0.00883012 0.000761961 -7.04767e-20)
(-0.00896319 0.00269067 1.97383e-20)
(-0.00964986 0.0051011 -1.97174e-20)
(-0.00998474 0.0078183 8.76178e-20)
(-0.00959974 0.010797 2.36782e-20)
(-0.00833122 0.0135035 7.38304e-20)
(-0.00630587 0.0155695 -2.12036e-19)
(-0.00376978 0.0167538 1.25491e-20)
(-0.00101223 0.016933 -6.18477e-21)
(0.00168035 0.0161221 6.1742e-21)
(0.0040585 0.014427 0)
(-0.00691832 -0.00320545 0)
(-0.0073512 0.000839171 -1.44225e-19)
(-0.0078578 0.0028318 0)
(-0.00850668 0.00525653 -8.01025e-20)
(-0.00874847 0.00778617 6.30332e-20)
(-0.00840052 0.0104311 1.33853e-19)
(-0.00732736 0.0128025 -1.10438e-20)
(-0.00562493 0.0146076 8.45233e-20)
(-0.00348697 0.0156387 0)
(-0.00115242 0.0157851 -5.94017e-21)
(0.00113541 0.0150515 5.93258e-21)
(0.00317114 0.0135269 0)
(-0.00535913 -0.00223245 0)
(-0.00612055 0.00109286 -2.02448e-20)
(-0.00682489 0.00307717 1.81013e-20)
(-0.00745994 0.00542791 -7.85425e-20)
(-0.0076704 0.0077756 -1.65133e-19)
(-0.00737613 0.0101511 -6.48329e-20)
(-0.00647823 0.0122481 -2.20765e-20)
(-0.00505049 0.013834 -1.03426e-19)
(-0.00325627 0.0147294 1.15871e-20)
(-0.00128319 0.014838 -5.17967e-20)
(0.000657901 0.0141561 5.71898e-21)
(0.00238861 0.0127627 0)
(-0.00407503 -0.00135531 -1.37349e-19)
(-0.00506528 0.00144679 1.39016e-19)
(-0.0058799 0.00337862 -1.27146e-19)
(-0.00651276 0.00562002 -1.89867e-20)
(-0.00672501 0.00779703 8.03984e-20)
(-0.00649312 0.00994793 2.1386e-20)
(-0.00575357 0.0118139 -2.13877e-20)
(-0.0045651 0.0132091 5.84899e-22)
(-0.00306743 0.0139746 0)
(-0.00140606 0.0140308 4.48711e-20)
(0.000230267 0.0133763 0)
(0.00168999 0.0120773 0)
(-0.0029735 -0.000569677 1.3402e-19)
(-0.0041168 0.00181726 -1.55394e-19)
(-0.00499047 0.00366982 1.59673e-19)
(-0.00563482 0.00578921 1.4914e-19)
(-0.00587292 0.0078166 1.99958e-20)
(-0.00571666 0.00977989 8.23685e-20)
(-0.00512518 0.0114513 -9.4438e-20)
(-0.00415205 0.0126749 6.50798e-20)
(-0.00290692 0.0133162 1.08429e-20)
(-0.00152451 0.013307 4.32521e-20)
(-0.000160357 0.0126531 -2.1223e-20)
(0.0010587 0.011415 0)
(-0.0020125 0.000101796 0)
(-0.00324065 0.00213537 1.34541e-19)
(-0.00414703 0.00391678 -1.5745e-19)
(-0.00482026 0.00592611 3.64806e-20)
(-0.00510833 0.00783435 -3.81214e-20)
(-0.00503455 0.00963363 -8.03293e-20)
(-0.00457622 0.0111175 1.12849e-19)
(-0.00378954 0.012154 -1.03801e-20)
(-0.00276763 0.0126424 0)
(-0.00163109 0.0125315 -4.21796e-20)
(-0.000507984 0.0118348 6.20305e-20)
(0.000488901 0.0106125 0)
(-0.00111693 0.000596399 -1.28533e-19)
(-0.00230069 0.00227911 1.31048e-19)
(-0.00313714 0.0038779 1.35415e-19)
(-0.00370405 0.00553316 0)
(-0.00391805 0.00700242 -1.47965e-19)
(-0.00382146 0.00824924 -1.34543e-19)
(-0.00343619 0.00913899 6.00234e-20)
(-0.00282987 0.00960533 -1.02102e-20)
(-0.00208679 0.00960697 1.02102e-20)
(-0.00129942 0.00914136 0)
(-0.000560271 0.0082499 -2.19746e-23)
(5.04688e-05 0.0070022 9.72494e-21)
)
;

boundaryField
{
    rotor
    {
        type            movingWallVelocity;
        value           nonuniform 0();
    }
    stator
    {
        type            movingWallVelocity;
        value           nonuniform List<vector> 
96
(
(3.37668e-18 1.03147e-16 2.7332e-36)
(0 0 0)
(-8.76777e-17 -5.31056e-16 0)
(3.65356e-16 1.56693e-15 -2.06515e-16)
(-2.29467e-16 -7.56451e-16 0)
(-4.0999e-16 -1.08932e-15 2.00144e-32)
(2.43486e-33 -1.10322e-33 2.06515e-16)
(-6.86843e-16 -1.28499e-15 0)
(1.48174e-15 2.38283e-15 0)
(0 0 0)
(-1.03924e-15 -1.26632e-15 -2.06515e-16)
(1.64858e-15 1.76017e-15 -2.92373e-32)
(-1.64858e-15 -1.54406e-15 -2.06515e-16)
(-2.88669e-15 -2.36904e-15 -4.13029e-16)
(0 0 0)
(-2.90324e-16 -1.80535e-16 -2.06515e-16)
(0 0 -2.06515e-16)
(1.24213e-15 5.62801e-16 0)
(1.44712e-15 5.44658e-16 -4.13029e-16)
(7.56451e-16 2.29467e-16 0)
(5.27513e-17 1.22999e-17 -2.06515e-16)
(-5.31056e-16 -8.76777e-17 -2.06515e-16)
(0 0 0)
(-1.1296e-16 -3.69794e-18 -2.06515e-16)
(-1.03147e-16 3.37668e-18 2.7332e-36)
(-3.22312e-16 3.1745e-17 2.06515e-16)
(0 0 0)
(0 0 0)
(-7.56451e-16 2.29467e-16 -2.06515e-16)
(0 0 0)
(1.24213e-15 -5.62801e-16 0)
(2.65868e-15 -1.42109e-15 -2.06515e-16)
(0 0 0)
(1.56444e-15 -1.12106e-15 -2.06515e-16)
(-1.97443e-15 1.62037e-15 0)
(-1.11591e-16 1.04516e-16 -2.06515e-16)
(1.64858e-15 -1.76017e-15 2.92373e-32)
(-1.03924e-15 1.26632e-15 -2.06515e-16)
(0 0 0)
(-1.80535e-16 2.90324e-16 0)
(-6.86843e-16 1.28499e-15 -1.00808e-32)
(5.82631e-17 -1.28589e-16 4.77835e-32)
(1.34669e-16 -3.57806e-16 -2.06515e-16)
(4.89652e-17 -1.61417e-16 0)
(3.65356e-16 -1.56693e-15 -2.06515e-16)
(4.50863e-17 -2.73084e-16 0)
(0 0 0)
(3.37668e-18 -1.03147e-16 -2.7332e-36)
(-1.65212e-15 1.65212e-15 0)
(-8.26059e-16 8.26059e-16 -2.06515e-16)
(-1.65212e-15 1.65212e-15 0)
(0 0 -2.06515e-16)
(-8.26059e-16 8.26059e-16 -2.06515e-16)
(0 0 -2.06515e-16)
(-1.65212e-15 1.65212e-15 -2.06515e-16)
(-1.65212e-15 1.65212e-15 0)
(-1.65212e-15 1.65212e-15 -2.06515e-16)
(0 0 -2.06515e-16)
(0 0 -2.06515e-16)
(0 0 -2.06515e-16)
(0 0 0)
(8.26059e-16 -8.26059e-16 0)
(-8.26059e-16 8.26059e-16 -2.06515e-16)
(8.26059e-16 -8.26059e-16 0)
(0 0 -2.06515e-16)
(8.26059e-16 -8.26059e-16 0)
(8.26059e-16 -8.26059e-16 0)
(0 0 0)
(0 0 -2.06515e-16)
(0 0 -2.06515e-16)
(0 0 0)
(0 0 0)
(0 0 0)
(-8.26059e-16 -8.26059e-16 0)
(-1.65212e-15 -1.65212e-15 0)
(0 0 0)
(-8.26059e-16 -8.26059e-16 0)
(8.26059e-16 8.26059e-16 -2.06515e-16)
(-1.65212e-15 -1.65212e-15 0)
(-1.65212e-15 -1.65212e-15 0)
(0 0 0)
(0 0 -2.06515e-16)
(0 0 0)
(0 0 0)
(-1.65212e-15 -1.65212e-15 0)
(-8.26059e-16 -8.26059e-16 -2.06515e-16)
(-1.65212e-15 -1.65212e-15 0)
(0 0 -2.06515e-16)
(-8.26059e-16 -8.26059e-16 -2.06515e-16)
(0 0 -2.06515e-16)
(-1.65212e-15 -1.65212e-15 -2.06515e-16)
(-1.65212e-15 -1.65212e-15 0)