/*--------------------------------*- C++ -*----------------------------------*\
| =========                 |                                                 |
| \\      /  F ield         | OpenFOAM: The Open Source CFD Toolbox           |
|  \\    /   O peration     | Version:  v1606+                                |
|   \\  /    A nd           | Web:      www.OpenFOAM.com                      |
|    \\/     M anipulation  |                                                 |
\*---------------------------------------------------------------------------*/
FoamFile
{
    version     2.0;
    format      ascii;
    class       surfaceVectorField;
    location    "0.9";
    object      Uf;
}
// * * * * * * * * * * * * * * * * * * * * * * * * * * * * * * * * * * * * * //

dimensions      [0 1 -1 0 0 0 0];

internalField   nonuniform List<vector> 
1460
(
(0.0312387 0.0445639 2.82152e-21)
(0.0265524 0.0415214 -5.80854e-21)
(0.0243429 0.0498596 5.93619e-22)
(0.0364431 0.0382793 1.76029e-20)
(0.0318656 0.0356073 1.15098e-20)
(0.0397824 0.0312937 1.07935e-20)
(0.0354071 0.0285713 -3.60342e-21)
(0.0411045 0.0241071 -1.53452e-20)
(0.0371953 0.021316 0)
(0.0403907 0.0173539 -1.44088e-20)
(0.0369947 0.0141724 -2.61484e-23)
(0.0378271 0.0117 1.37726e-20)
(0.0349016 0.00789528 -9.1075e-21)
(0.0335347 0.00755336 1.24665e-20)
(0.0310522 0.0030109 9.96485e-21)
(0.0272029 0.00485759 2.94778e-21)
(0.0252123 -0.000245904 -1.06035e-21)
(0.017986 0.00353237 3.02912e-21)
(0.0168771 -0.00188933 1.02679e-22)
(0.00461747 0.00343698 2.82435e-21)
(0.00480101 -0.0018221 8.18821e-23)
(-0.0138635 0.00458669 -7.49733e-21)
(-0.0110497 0.00158562 -8.2333e-23)
(-0.0355718 0.00326408 8.06801e-23)
(0.0266988 0.0322058 3.21197e-21)
(0.0229882 0.0308122 -1.81772e-21)
(0.0212957 0.0377 -4.06243e-21)
(0.0304459 0.0255347 -9.77008e-21)
(0.027 0.0248214 -1.78876e-21)
(0.0326023 0.0181831 -1.45661e-20)
(0.0294282 0.017895 -3.02033e-21)
(0.0330151 0.0108202 1.5525e-20)
(0.0303277 0.0106319 4.33961e-21)
(0.0315849 0.00408482 4.88041e-21)
(0.0294275 0.00344724 -8.08375e-21)
(0.0283482 -0.00147878 -1.47758e-20)
(0.0267584 -0.00290488 -1.42073e-21)
(0.0231739 -0.00547134 -5.86441e-21)
(0.0223525 -0.00777407 -2.07621e-20)
(0.0155957 -0.00774801 -4.22171e-21)
(0.015832 -0.0106667 2.52693e-21)
(0.00462229 -0.00821328 -2.884e-21)
(0.00673399 -0.0111307 -3.59658e-21)
(-0.0102115 -0.00555463 0)
(-0.00523116 -0.00907451 -3.93182e-22)
(-0.0301439 -7.50374e-05 7.59635e-21)
(-0.0213738 -0.00294892 -1.40691e-20)
(-0.0460343 0.00595544 -2.07391e-21)
(0.0228856 0.0231377 -6.56583e-21)
(0.0197098 0.0232619 0)
(0.0185947 0.0285002 0)
(0.0255222 0.0169172 4.64416e-21)
(0.0228216 0.0175073 6.04769e-21)
(0.0266718 0.0100677 1.55776e-20)
(0.0244609 0.0112107 1.12792e-20)
(0.0262724 0.00291049 -1.91603e-20)
(0.0246962 0.00452849 2.38487e-20)
(0.0242464 -0.00393081 -1.33998e-20)
(0.0233711 -0.00225197 -2.32894e-20)
(0.0206142 -0.00950415 -7.49821e-21)
(0.0206149 -0.00851187 1.72203e-20)
(0.015076 -0.0133711 -1.30871e-20)
(0.0161606 -0.0132465 5.47906e-21)
(0.00740681 -0.0146859 2.09722e-21)
(0.0100237 -0.01561 -1.45856e-21)
(-0.00252523 -0.0128377 -1.86116e-21)
(0.00189634 -0.014815 -7.02868e-22)
(-0.0157094 -0.00681031 -1.25117e-20)
(-0.00810622 -0.0102136 -3.98164e-22)
(-0.0362645 0.00423474 -2.13983e-20)
(-0.0250955 -0.00319974 -1.69834e-20)
(-0.0468719 0.0146148 -4.07356e-21)
(0.0194148 0.0173856 1.27327e-20)
(0.0158506 0.0226856 0)
(0.016667 0.0188332 -3.36079e-21)
(0.0214812 0.0115673 1.27327e-20)
(0.0192773 0.0133702 3.52174e-22)
(0.0221342 0.00542611 1.9575e-20)
(0.02049 0.00756996 0)
(0.0213926 -0.000884903 1.9575e-20)
(0.0203886 0.00159148 4.57193e-22)
(0.0193159 -0.00694945 7.85898e-21)
(0.0189685 -0.00443166 -3.82371e-21)
(0.0158054 -0.0122629 3.00806e-20)
(0.0163016 -0.0101054 -8.66728e-21)
(0.0108128 -0.0156218 1.61946e-20)
(0.0123628 -0.0146614 2.8481e-20)
(0.00417924 -0.0159364 -5.13717e-21)
(0.00707592 -0.0170225 -5.16777e-21)
(-0.00421883 -0.0125823 0)
(1.0057e-05 -0.0160797 0)
(-0.0170901 -0.00516228 -6.94113e-21)
(-0.00929237 -0.0103211 4.001e-21)
(-0.0365389 0.008501 -3.19483e-21)
(-0.0266373 -0.00330242 6.78886e-21)
(-0.0420657 0.0196971 3.24872e-21)
(0.0410849 -0.0074851 -7.92423e-21)
(0.0469496 0.00181628 -1.19478e-22)
(0.0378365 -0.0249602 -4.70419e-21)
(0.0460281 -0.00490648 -4.33405e-21)
(0.0285529 -0.0426178 -5.24148e-20)
(0.0368809 -0.0248542 4.32081e-21)
(0.0121101 -0.0515791 -1.46145e-20)
(0.0204209 -0.0410725 -3.12219e-20)
(-0.00796013 -0.0506294 -2.83087e-20)
(0.00094061 -0.0459563 2.84724e-20)
(-0.0265844 -0.0430956 -9.97953e-20)
(-0.0176029 -0.042664 -4.99066e-20)
(-0.0407921 -0.0317698 -4.01628e-20)
(-0.0322596 -0.0342751 -3.0132e-20)
(-0.0499805 -0.018962 -1.03146e-20)
(-0.0423645 -0.0231862 -3.90962e-20)
(-0.0547188 -0.00628495 0)
(-0.0481734 -0.0112312 -1.01055e-20)
(-0.0558198 0.0053733 -1.01903e-20)
(-0.0503573 0.000262736 1.94331e-20)
(-0.0541003 0.0156385 -1.02931e-20)
(-0.0496635 0.0105877 -2.17205e-20)
(-0.0466737 0.0193968 -2.32971e-21)
(-0.0502272 0.024386 1.18415e-20)
(0.0517813 0.00612092 1.32604e-20)
(0.0529679 0.0050242 -2.24185e-21)
(0.0427581 -0.00579998 0)
(0.0472117 0.00726813 1.57692e-20)
(0.0279263 -0.0243213 2.28853e-20)
(0.033636 -0.010251 7.09367e-21)
(0.0100198 -0.0363319 9.43661e-21)
(0.0163108 -0.028274 3.6108e-20)
(-0.007884 -0.0387037 4.10261e-21)
(-0.000747688 -0.0352747 2.32566e-21)
(-0.0228718 -0.0342866 1.82987e-20)
(-0.0158618 -0.0340479 1.8416e-20)
(-0.0337938 -0.0258716 -2.89055e-20)
(-0.0274613 -0.0278092 8.90546e-21)
(-0.0406301 -0.0154872 -3.89147e-20)
(-0.0352947 -0.0188399 -8.45963e-21)
(-0.0438231 -0.00469465 9.39018e-21)
(-0.0394841 -0.00881717 -8.65885e-22)
(-0.0441039 0.00535421 8.02436e-21)
(-0.0405775 0.00102967 3.46122e-22)
(-0.0420263 0.0140615 -1.36398e-20)
(-0.0391942 0.00983577 -2.42036e-21)
(-0.035897 0.0172071 -6.17469e-21)
(-0.0380618 0.0212213 -8.09559e-21)
(0.0481994 0.00512846 6.38635e-21)
(0.0456027 -0.00398764 9.73871e-21)
(0.0353636 0.00125778 1.58741e-20)
(0.0355502 0.00676989 -1.29178e-20)
(0.0205593 -0.0143645 2.02998e-20)
(0.0207563 -0.00448564 -3.41725e-21)
(0.00558322 -0.0270016 2.8271e-20)
(0.00829785 -0.019984 1.10219e-20)
(-0.00840408 -0.0307244 1.54809e-20)
(-0.00338707 -0.0273969 -2.55801e-20)
(-0.0202128 -0.0278865 8.96294e-21)
(-0.0148512 -0.0274878 -1.56652e-20)
(-0.0288752 -0.021234 2.85906e-20)
(-0.0239942 -0.0229408 5.68357e-20)
(-0.0341267 -0.012621 2.87976e-20)
(-0.0302303 -0.0157827 1.96222e-20)
(-0.0361955 -0.00346519 -9.59554e-21)
(-0.0334148 -0.00744806 4.40315e-20)
(-0.0355857 0.00516025 -9.99618e-21)
(-0.0338153 0.000960192 -1.91463e-20)
(-0.0328953 0.0126054 4.97369e-21)
(-0.0319148 0.00856267 -7.19743e-21)
(-0.0282969 0.0149101 3.72375e-21)
(-0.0287071 0.018565 -1.32021e-20)
(0.0323293 -0.00544113 -3.24503e-21)
(0.0289845 -0.0179944 9.51796e-21)
(0.0188956 -0.00156721 -3.33134e-20)
(0.0153463 -0.00429306 -6.11722e-20)
(0.0086883 -0.0106246 -1.16373e-20)
(0.00544 -0.00623218 3.60801e-20)
(-0.000147687 -0.0209262 -4.32023e-20)
(0.00101108 -0.0159613 -2.24687e-21)
(-0.00958811 -0.0247082 -5.7175e-20)
(-0.00566555 -0.0221707 1.33239e-20)
(-0.0184878 -0.0229109 3.2183e-20)
(-0.0141146 -0.0226254 -1.05655e-21)
(-0.0253551 -0.0177792 4.81145e-20)
(-0.0213765 -0.0191983 1.90492e-21)
(-0.0295624 -0.0108138 3.47547e-20)
(-0.0264883 -0.013482 -2.35564e-20)
(-0.0310658 -0.00316888 3.47547e-20)
(-0.0291138 -0.00660699 -6.9192e-21)
(-0.0301224 0.00423191 -1.6387e-20)
(-0.0293017 0.000489947 0)
(-0.0272176 0.0107052 -8.58895e-21)
(-0.027367 0.00702786 -6.05956e-22)
(-0.0228858 0.0158603 2.03783e-20)
(-0.0237816 0.012541 4.10137e-21)
(-0.0448478 0.0315101 1.19443e-20)
(-0.0418817 0.0265999 5.84391e-21)
(-0.0384692 0.0368488 1.13345e-20)
(-0.0357687 0.0321252 -1.79724e-21)
(-0.0314383 0.0402139 2.98012e-21)
(-0.02878 0.0358315 1.14701e-22)
(-0.0241799 0.0414804 -8.35437e-21)
(-0.0213875 0.0375738 -8.4101e-21)
(-0.0173467 0.0406884 -2.37049e-21)
(-0.0141881 0.0373075 -1.85991e-20)
(-0.0116361 0.0380351 1.40633e-21)
(-0.00785486 0.0351406 -8.5068e-21)
(-0.00748432 0.033644 1.29587e-20)
(-0.00294776 0.0312068 6.16084e-21)
(-0.00483432 0.0272218 1.07717e-20)
(0.000291135 0.0252774 1.22404e-20)
(-0.00357706 0.0179414 -2.15299e-21)
(0.00188757 0.0168598 -1.65204e-21)
(-0.00354227 0.00454634 -6.63153e-21)
(0.00176842 0.00473105 -8.06293e-21)
(-0.00469645 -0.0139584 7.70425e-21)
(-0.00168063 -0.0111568 1.5915e-22)
(-0.00337179 -0.0357391 1.50105e-20)
(-0.00185959 -0.0339079 1.36393e-20)
(-0.0325024 0.0268057 -7.83537e-21)
(-0.0310796 0.0229967 -1.50902e-20)
(-0.0257224 0.0307643 -1.29277e-20)
(-0.0250226 0.0272098 -7.72713e-23)
(-0.0182698 0.0329746 -1.11184e-20)
(-0.0180491 0.029787 -1.11897e-20)
(-0.0108277 0.033336 -1.8724e-20)
(-0.0106365 0.0306361 -1.93579e-20)
(-0.00405325 0.0318421 -2.54463e-20)
(-0.00340239 0.0296872 4.08435e-22)
(0.00153008 0.0285366 -5.48328e-21)
(0.0029864 0.0269545 8.05976e-21)
(0.00551731 0.023284 4.49039e-21)
(0.00786511 0.0224763 -1.29179e-20)
(0.00776556 0.0156206 -4.06903e-21)
(0.0107407 0.0158716 -1.45515e-20)
(0.00819565 0.00456744 -2.83946e-21)
(0.0111699 0.00668291 -2.07584e-20)
(0.00549981 -0.0103135 3.72163e-21)
(0.00907705 -0.00533924 1.8318e-20)
(-1.90435e-05 -0.0303042 7.46376e-21)
(0.00290984 -0.0215321 -2.453e-21)
(-0.00606736 -0.0462383 -1.36526e-20)
(0.00406805 -0.0496681 7.46376e-21)
(-0.0233609 0.0229529 -7.33704e-21)
(-0.0234505 0.0197272 3.42149e-21)
(-0.0170825 0.0257566 1.7549e-21)
(-0.0177168 0.0230066 3.44636e-21)
(-0.0101067 0.0269601 -1.94828e-20)
(-0.0113216 0.0247428 0)
(-0.0028585 0.0265239 -8.11209e-22)
(-0.00451637 0.024943 4.41454e-21)
(0.00403664 0.0244466 3.36918e-20)
(0.00233198 0.0235799 1.80488e-20)
(0.00962983 0.0207509 2.94029e-22)
(0.00864041 0.020768 1.1975e-20)
(0.0134953 0.0151348 -3.244e-20)
(0.0133888 0.0162417 -1.50952e-20)
(0.0147881 0.00737846 -3.16839e-20)
(0.0157338 0.0100226 -1.54798e-20)
(0.0128921 -0.0026242 4.20038e-22)
(0.0149051 0.00181618 -3.88848e-21)
(0.00682234 -0.0158605 1.42777e-20)
(0.0102507 -0.00823604 1.6754e-20)
(-0.00429803 -0.0364524 -2.11763e-20)
(0.00320892 -0.0252679 1.20413e-20)
(-0.0147222 -0.0470553 1.71397e-20)
(-0.0035278 -0.0527281 -1.87075e-20)
(-0.0176098 0.0195336 1.43132e-20)
(-0.0190348 0.0167016 9.12508e-21)
(-0.0117224 0.0216914 1.69107e-21)
(-0.0135582 0.0194267 -1.19762e-21)
(-0.00546563 0.0223635 2.34445e-20)
(-0.00766569 0.0207059 2.90447e-21)
(0.000928721 0.0215935 2.24091e-20)
(-0.00159348 0.0205884 2.35841e-20)
(0.0070555 0.0194743 -3.46095e-21)
(0.00449878 0.0191392 -2.13398e-20)
(0.0124073 0.0159021 -2.64726e-21)
(0.0102247 0.0164237 -1.26877e-20)
(0.0157716 0.0108345 1.4234e-21)
(0.0148008 0.0124229 3.00152e-20)
(0.0160585 0.00412781 1.03832e-20)
(0.0171463 0.00706836 1.61359e-20)
(0.0126524 -0.00432272 1.25885e-20)
(0.0161687 -5.85634e-05 9.57499e-21)
(0.00518362 -0.0172304 1.76858e-20)
(0.0103494 -0.00940301 5.8654e-21)
(-0.0085395 -0.036702 4.07132e-20)
(0.00331532 -0.0267902 -2.85201e-21)
(-0.014836 -0.0438802 3.11061e-20)
(-0.0197762 -0.0422113 2.09402e-20)
(-0.00749066 -0.0411973 1.04917e-20)
(0.00175726 -0.0471295 6.13381e-21)
(-0.0249601 -0.0378591 4.70709e-21)
(-0.00486893 -0.0461297 4.42791e-21)
(-0.0426263 -0.0285134 -4.38573e-21)
(-0.0248424 -0.0368828 -4.41498e-21)
(-0.0515634 -0.0120087 0)
(-0.0410761 -0.0203369 -1.32652e-20)
(-0.0505438 0.00808263 8.88747e-20)
(-0.0459089 -0.00083303 -2.48876e-21)
(-0.0429428 0.0266901 8.11982e-20)
(-0.0425528 0.0177087 6.89669e-20)
(-0.0315691 0.0408581 2.61161e-20)
(-0.0341049 0.032336 3.13949e-20)
(-0.018742 0.0500053 3.33231e-20)
(-0.0229731 0.0424029 -5.25766e-21)
(-0.00603512 0.0547103 -2.18686e-20)
(-0.0109981 0.048162 0)
(0.00566783 0.0557472 -3.20511e-20)
(0.000517019 0.0502809 -7.41523e-21)
(0.0158437 0.0538432 -5.60105e-21)
(0.0107858 0.0495061 -3.19144e-21)
(0.0194981 0.0462941 2.37079e-21)
(0.00612518 -0.0519441 0)
(0.00492228 -0.053149 0)
(-0.00574078 -0.0428213 0)
(0.0073443 -0.047322 1.58877e-20)
(-0.0242872 -0.0278973 -1.33543e-20)
(-0.0101642 -0.0336509 -3.31984e-21)
(-0.0362939 -0.00994869 -1.55712e-20)
(-0.0282393 -0.0162497 -1.61105e-20)
(-0.0386251 0.00796941 -2.01238e-20)
(-0.0352166 0.000826868 1.05714e-20)
(-0.0341558 0.022944 1.96811e-20)
(-0.0339457 0.0159383 -3.63389e-21)
(-0.0256907 0.0338326 -9.99645e-22)
(-0.0276608 0.0275118 6.39953e-20)
(-0.0152725 0.0406279 -3.90636e-20)
(-0.0186494 0.035306 -1.8621e-20)
(-0.004488 0.0437557 1.46973e-20)
(-0.00861386 0.039436 9.3865e-21)
(0.00550861 0.0439335 2.1796e-20)
(0.00123289 0.040456 -4.59076e-21)
(0.0141848 0.0417297 4.81662e-21)
(0.00996362 0.0389894 -1.50714e-21)
(0.0172678 0.035619 -2.27076e-21)
(0.00509006 -0.048346 1.59902e-20)
(-0.00417259 -0.0457338 4.97753e-21)
(0.00134014 -0.0354135 5.44814e-21)
(0.00682077 -0.0356334 8.37267e-21)
(-0.0142824 -0.0205363 -7.59201e-21)
(-0.00437682 -0.0207445 -3.36191e-21)
(-0.0269394 -0.00552772 1.08872e-20)
(-0.0199231 -0.00823683 -2.70438e-21)
(-0.0306423 0.00846728 2.81403e-20)
(-0.0273308 0.00344837 -1.1393e-21)
(-0.027768 0.0202626 4.08562e-20)
(-0.0273937 0.0149074 1.31861e-20)
(-0.0210774 0.0288918 4.55332e-20)
(-0.0228128 0.0240256 -2.19597e-20)
(-0.0124272 0.0340922 2.88727e-20)
(-0.0156222 0.0302213 1.96772e-20)
(-0.00326218 0.0361069 -9.59557e-21)
(-0.00727269 0.033349 -2.50712e-20)
(0.00531449 0.0354226 -2.77577e-20)
(0.00112599 0.033687 -1.91603e-20)
(0.012674 0.0327111 -8.71501e-21)
(0.00868006 0.0317383 -1.65499e-20)
(0.0149558 0.0280951 0)
(-0.00553909 -0.0324146 9.58087e-21)
(-0.0182259 -0.0290813 5.03828e-21)
(-0.0015215 -0.0188935 -1.2497e-21)
(-0.00430975 -0.0153693 -3.47219e-20)
(-0.0105365 -0.00863931 0)
(-0.00616234 -0.00536284 8.29368e-21)
(-0.020855 0.000203909 -1.44876e-20)
(-0.0158974 -0.000938503 0)
(-0.0246291 0.00963846 -1.54835e-20)
(-0.0221057 0.005719 -1.45739e-20)
(-0.0228064 0.0185222 -4.87538e-20)
(-0.0225406 0.0141576 1.41989e-20)
(-0.0176469 0.0253588 -4.82705e-20)
(-0.0190885 0.0213953 -2.38413e-20)
(-0.0106603 0.0295201 -3.47915e-20)
(-0.0133485 0.0264711 -7.8982e-21)
(-0.00301331 0.0309695 -3.47915e-20)
(-0.00646195 0.0290473 -1.24251e-21)
(0.00435861 0.0299685 -7.91376e-21)
(0.000625054 0.0291799 0)
(0.0107755 0.0270384 -7.91376e-21)
(0.00713267 0.0272019 7.94764e-21)
(0.0125759 0.0235911 3.62662e-21)
(0.0163748 0.0146341 -1.57651e-20)
(0.0139571 0.0166135 -1.22018e-22)
(0.0132753 0.019626 2.67423e-22)
(0.0181151 0.00916202 -1.23842e-20)
(0.0162445 0.0115828 -1.24554e-20)
(0.0185477 0.0035006 -1.90357e-20)
(0.0172571 0.006229 -2.13689e-20)
(0.017723 -0.00216683 -2.28823e-20)
(0.0170466 0.00079555 -1.47031e-20)
(0.0157281 -0.00766345 -1.99389e-20)
(0.0156351 -0.00458834 -8.31932e-21)
(0.0126115 -0.0125996 -9.39752e-21)
(0.0131601 -0.00970891 6.24759e-21)
(0.00827687 -0.0162042 6.51649e-21)
(0.00958247 -0.01417 1.90858e-20)
(0.00239592 -0.0172175 0)
(0.00474656 -0.0171617 -5.82887e-21)
(-0.00586891 -0.0144923 4.02496e-21)
(-0.00207248 -0.0172794 0)
(-0.0181258 -0.00687447 1.77552e-20)
(-0.0116145 -0.0125874 4.0481e-21)
(-0.0317671 0.00737452 1.0347e-20)
(-0.0261 -0.004556 1.04065e-20)
(-0.0325156 0.0157937 0)
(0.0137568 0.0134202 3.28577e-21)
(0.0116444 0.0153085 2.17144e-22)
(0.0110217 0.0178679 -2.59405e-22)
(0.0152941 0.00846386 -2.14925e-20)
(0.0136695 0.0108367 -1.41405e-20)
(0.0156413 0.00330477 -1.70248e-20)
(0.0145671 0.00601751 1.94026e-21)
(0.0148293 -0.0018265 -2.33109e-22)
(0.0143524 0.00111484 4.49254e-21)
(0.0129406 -0.00677181 1.83014e-20)
(0.0130282 -0.00371873 -4.5012e-21)
(0.0100064 -0.0114388 3.58162e-20)
(0.0106959 -0.00827991 -4.22476e-20)
(0.00592699 -0.015407 6.07669e-21)
(0.00734851 -0.012421 4.57488e-20)
(0.000209674 -0.0176562 -5.86257e-21)
(0.00273918 -0.0157385 -5.89516e-21)
(-0.00809213 -0.0163164 0)
(-0.00385234 -0.0169021 -5.05394e-21)
(-0.0185969 -0.00947825 0)
(-0.0127905 -0.0136685 9.99625e-21)
(-0.0265894 0.00402881 0)
(-0.0230972 -0.00528858 -4.85817e-21)
(-0.0248789 0.0114569 0)
(0.0115217 0.0126082 -1.73237e-20)
(0.00969709 0.0142364 -1.12665e-22)
(0.00912325 0.016483 2.04275e-22)
(0.012888 0.00822719 9.49547e-21)
(0.0114791 0.0103053 -3.17569e-21)
(0.013197 0.00362391 2.36331e-20)
(0.0122768 0.00602525 3.50287e-21)
(0.012453 -0.00095974 0)
(0.012082 0.00164824 1.4062e-20)
(0.0106964 -0.00532426 -6.53632e-20)
(0.010884 -0.00265993 -1.22319e-20)
(0.00793457 -0.00939678 -3.18193e-20)
(0.00873579 -0.006648 -7.31441e-20)
(0.00405154 -0.013014 3.32593e-20)
(0.00565124 -0.0101847 -1.2051e-20)
(-0.00136968 -0.0154541 -5.08218e-21)
(0.00145871 -0.013081 -5.65161e-21)
(-0.00870792 -0.0148492 5.89957e-21)
(-0.00433912 -0.0144307 5.5848e-22)
(-0.0167663 -0.0090982 5.89668e-21)
(-0.0116524 -0.0120119 3.13474e-20)
(-0.0210763 0.00258907 -4.88532e-21)
(-0.0185216 -0.00470465 -4.9116e-21)
(-0.018468 0.00845787 0)
(0.00961594 0.0118333 1.4177e-20)
(0.00804025 0.0132585 3.03415e-21)
(0.00752855 0.0152337 -1.98166e-22)
(0.0108152 0.00795913 -9.2083e-21)
(0.00959628 0.0097793 1.12167e-20)
(0.0110859 0.00386404 -6.22876e-21)
(0.010293 0.00596619 -7.06062e-22)
(0.0104195 -0.000216955 2.02617e-21)
(0.0101118 0.0020537 -3.75143e-21)
(0.00883243 -0.00405222 -2.00292e-20)
(0.00904316 -0.00179019 -3.27367e-20)
(0.00632415 -0.0075225 -5.28211e-20)
(0.00709751 -0.00527981 6.128e-20)
(0.00285821 -0.010407 -5.10612e-20)
(0.00435579 -0.00823974 -3.26422e-20)
(-0.00180329 -0.0122717 6.28928e-22)
(0.000722718 -0.010459 2.48344e-20)
(-0.00763654 -0.0118083 2.70547e-20)
(-0.0040313 -0.0114134 5.72833e-21)
(-0.0134185 -0.00724008 2.13561e-20)
(-0.00959969 -0.0094017 3.36177e-22)
(-0.0159551 0.00180179 0)
(-0.0142537 -0.00363603 -2.11723e-20)
(-0.0136934 0.00627237 0)
(0.00797904 0.0111195 0)
(0.00661271 0.0124015 0)
(0.00616962 0.0141406 0)
(0.00901899 0.00765686 1.98115e-20)
(0.00796099 0.00929207 2.49416e-21)
(0.00924506 0.00398497 1.81542e-21)
(0.0085601 0.00586795 1.74141e-20)
(0.00864466 0.000327925 -3.85729e-20)
(0.00838681 0.00234754 -1.38866e-20)
(0.00721995 -0.00310203 4.8785e-20)
(0.00742693 -0.00110235 3.93056e-20)
(0.00501191 -0.0060843 8.16565e-20)
(0.0056996 -0.00420485 3.3984e-20)
(0.00202964 -0.00840155 4.37609e-20)
(0.00329639 -0.00674452 1.96313e-20)
(-0.00179065 -0.00970857 3.07061e-20)
(0.00020271 -0.00845528 6.94119e-21)
(-0.00630181 -0.00915109 -2.07648e-20)
(-0.00361375 -0.00900807 -5.48518e-21)
(-0.0104684 -0.00553186 -4.20479e-20)
(-0.0077763 -0.00725524 -1.53912e-20)
(-0.0120145 0.00125153 -2.12831e-20)
(-0.0109415 -0.00277606 -1.59746e-22)
(-0.0102168 0.00462235 0)
(0.0065575 0.0105061 2.50683e-21)
(0.00537248 0.0116759 0)
(0.00499699 0.0132116 0)
(0.00745173 0.00738941 -6.02851e-23)
(0.00653217 0.00887389 4.94303e-21)
(0.00763379 0.0040736 1.71158e-21)
(0.00703982 0.00577709 -4.94947e-21)
(0.00709328 0.000771336 6.42445e-20)
(0.00687209 0.00258746 4.24242e-21)
(0.00583752 -0.00227718 2.45835e-20)
(0.00602765 -0.000533107 2.52151e-20)
(0.00389473 -0.00493269 -2.85376e-20)
(0.00448139 -0.00331658 -3.88358e-20)
(0.00133543 -0.00690972 -1.68516e-20)
(0.00239336 -0.00555931 -6.19719e-21)
(-0.00179093 -0.00786647 -2.9269e-20)
(-0.00021015 -0.00696412 -5.42715e-20)
(-0.00527795 -0.00724245 3.82773e-22)
(-0.00326612 -0.00729439 1.71165e-20)
(-0.00825485 -0.00433692 2.62521e-20)
(-0.00636237 -0.00576459 5.53331e-21)
(-0.00912705 0.000843394 2.07458e-20)
(-0.00845034 -0.0022347 6.30538e-20)
(-0.00766286 0.00335253 0)
(0.00531312 0.00998667 2.43585e-21)
(0.00428408 0.0110596 0)
(0.00397607 0.0124317 0)
(0.00607386 0.00716143 -5.55685e-23)
(0.0052734 0.0085139 4.80533e-21)
(0.00621449 0.00414723 -2.43898e-21)
(0.00569578 0.0056934 1.33972e-20)
(0.00572695 0.00114296 -3.52897e-20)
(0.00553114 0.00278391 4.02849e-21)
(0.0046039 -0.00165645 -3.82024e-20)
(0.00477636 -5.1722e-05 -8.54195e-21)
(0.00291861 -0.00400905 -1.60666e-20)
(0.00342892 -0.0025813 -9.80871e-21)
(0.000748236 -0.00572713 -4.4043e-20)
(0.00162313 -0.00460235 1.90541e-20)
(-0.00180481 -0.0065003 -7.78054e-21)
(-0.000552725 -0.00581839 1.68317e-20)
(-0.00447911 -0.00591265 2.27682e-20)
(-0.00298475 -0.00606191 4.55652e-20)
(-0.00656392 -0.00356366 4.24143e-20)
(-0.00526567 -0.00475904 5.2573e-21)
(-0.00696342 0.000435536 4.24143e-20)
(-0.00658289 -0.00195095 3.76528e-20)
(-0.00575941 0.00233192 0)
(0.00421303 0.00953644 2.36916e-21)
(0.00331754 0.0105064 0)
(0.00307489 0.0117682 0)
(0.00485258 0.00695313 1.82439e-20)
(0.00415064 0.00817217 2.38013e-21)
(0.00495402 0.00419777 1.99714e-20)
(0.00449433 0.00558389 -1.8e-21)
(0.0045086 0.00144735 3.09303e-20)
(0.00432787 0.00291327 4.06652e-21)
(0.0035227 -0.00111396 2.02922e-20)
(0.0036517 0.000317024 2.72112e-20)
(0.00207469 -0.00324038 2.57764e-20)
(0.00249125 -0.00200356 -1.33968e-20)
(0.000243777 -0.00478204 8.00242e-20)
(0.000938401 -0.00384837 3.91362e-20)
(-0.00182688 -0.00547437 7.05774e-20)
(-0.000865924 -0.00494474 2.45348e-20)
(-0.00385853 -0.0049856 2.82115e-20)
(-0.00277452 -0.00517859 1.80412e-20)
(-0.00527782 -0.00308857 6.9404e-22)
(-0.0044197 -0.00410647 5.29002e-20)
(-0.0053441 4.01213e-05 -4.66904e-21)
(-0.00517936 -0.00186124 -4.54786e-20)
(-0.00430502 0.00147985 4.06633e-20)
(0.00322513 0.00910171 0)
(0.00244642 0.009964 0)
(0.00226838 0.0111637 0)
(0.00375251 0.00672071 -1.78351e-20)
(0.00313554 0.00780176 9.25457e-21)
(0.00381349 0.00417913 -1.78351e-20)
(0.00340188 0.0054093 -3.52405e-20)
(0.0034025 0.0016432 1.299e-22)
(0.00322917 0.00294382 3.8556e-21)
(0.00254123 -0.000711102 -6.51393e-21)
(0.0026233 0.00055072 -3.69074e-20)
(0.00129757 -0.00267597 1.93731e-22)
(0.00162435 -0.00158904 1.74769e-20)
(-0.000233776 -0.00408856 -1.67476e-20)
(0.000305476 -0.00328933 -1.77657e-20)
(-0.0018821 -0.00472805 -2.82559e-20)
(-0.0011669 -0.00430933 -1.75039e-20)
(-0.00339779 -0.00436427 4.31205e-20)
(-0.00263813 -0.00456383 -4.80591e-20)
(-0.00430709 -0.00284527 6.93628e-21)
(-0.00377163 -0.0037096 1.19661e-20)
(-0.00410175 -0.00036559 -2.59261e-23)
(-0.00410418 -0.00190834 -4.61599e-20)
(-0.00315222 0.000746391 1.413e-21)
(0.00232686 0.00862801 9.29645e-21)
(0.00164821 0.00932436 0)
(0.00153846 0.0105548 0)
(0.00274649 0.00641553 -8.10696e-21)
(0.00219838 0.00729944 -1.7766e-20)
(0.00276496 0.00406246 -1.35304e-20)
(0.00238588 0.00507502 -5.56549e-22)
(0.00238252 0.00171466 -3.33998e-20)
(0.00219765 0.00279322 3.89004e-21)
(0.00163196 -0.000458195 -1.27085e-20)
(0.00165243 0.000586364 -4.07465e-20)
(0.000575719 -0.0022762 -1.02111e-22)
(0.000796854 -0.00137941 7.74542e-21)
(-0.000682549 -0.00357977 -1.83761e-20)
(-0.000302142 -0.00293791 -4.9649e-20)
(-0.00197307 -0.00420458 -3.72768e-20)
(-0.00147619 -0.00388053 -5.30994e-21)
(-0.00305662 -0.00396445 -7.94987e-20)
(-0.00255862 -0.00414826 9.7291e-21)
(-0.00355282 -0.00275735 -4.12962e-20)
(-0.00325719 -0.00347729 -9.5652e-22)
(-0.00311256 -0.000764763 -4.49773e-20)
(-0.00323506 -0.00202302 -5.14289e-21)
(-0.00219619 0.000113356 -4.00317e-20)
(0.00150461 0.0079619 -2.72157e-20)
(0.000858462 0.00723045 -4.63579e-21)
(0.000876501 0.00979501 0)
(0.00181653 0.00588201 -1.02289e-20)
(0.00119712 0.00541186 -2.73787e-20)
(0.00178644 0.00369538 1.69868e-20)
(0.00124981 0.00347594 1.70594e-20)
(0.0014252 0.00152817 -3.48049e-21)
(0.00100967 0.00154014 3.6652e-21)
(0.000778592 -0.000436657 -2.0086e-20)
(0.000527756 -0.000285846 -7.16004e-21)
(-0.000113843 -0.00210872 -4.19163e-20)
(-0.000179916 -0.00185092 -4.86537e-20)
(-0.00112917 -0.00330388 -3.66637e-20)
(-0.00100786 -0.00304081 7.53664e-20)
(-0.00209557 -0.00387772 4.21791e-20)
(-0.00181509 -0.00370169 -1.14525e-20)
(-0.00279278 -0.00370822 8.88955e-20)
(-0.00245289 -0.00380755 1.25343e-20)
(-0.00292658 -0.00273356 3.55629e-20)
(-0.00270655 -0.0031968 -3.54037e-21)
(-0.00228239 -0.00111928 0)
(-0.0023685 -0.00200695 -3.83176e-20)
(-0.00132016 -0.000359312 3.78372e-20)
(0.000571937 0.00463829 -4.65537e-21)
(0.000262541 0.00625171 2.06777e-22)
(0.000645814 0.00291976 3.20994e-25)
(0.000481988 0.00120624 3.68093e-21)
(0.000112286 -0.00038189 -5.64679e-23)
(-0.000433812 -0.00179635 -3.57162e-20)
(-0.00107602 -0.00288229 6.94822e-20)
(-0.00170637 -0.00354549 1.01275e-19)
(-0.00218907 -0.00370433 -4.13848e-20)
(-0.00239093 -0.00335501 -8.09015e-20)
(-0.00213354 -0.00246627 -7.79988e-20)
(-0.00139509 -0.00121348 -4.82458e-22)
(0.00997624 -0.0171796 -5.76824e-20)
(0.0163348 -0.0255227 -1.91714e-20)
(0.000443397 -0.0106893 5.86992e-21)
(0.000745034 -0.0141063 -5.63683e-21)
(-0.00133839 -0.0124272 4.70907e-20)
(-0.00247801 -0.01035 1.53235e-21)
(-0.00396617 -0.0179366 5.26035e-20)
(-0.00257165 -0.0148955 0)
(-0.0101608 -0.0205383 6.7492e-20)
(-0.00692546 -0.0187222 8.9347e-20)
(-0.0170008 -0.0191609 -3.11328e-20)
(-0.0133841 -0.0189333 2.79733e-20)
(-0.0225751 -0.0150893 -7.00211e-20)
(-0.0192547 -0.0162202 -1.03884e-19)
(-0.0261132 -0.00941749 -6.54472e-20)
(-0.0235294 -0.0116072 -2.27113e-20)
(-0.0274062 -0.00305752 -4.18942e-20)
(-0.0258067 -0.00594208 -4.2135e-20)
(-0.0265512 0.00321164 1.59211e-20)
(-0.026018 9.1829e-06 0)
(-0.0238797 0.00878671 1.21816e-20)
(-0.0243486 0.00558615 1.60127e-20)
(-0.0211399 0.0103575 -7.20991e-21)
(-0.0198196 0.0132747 -7.23572e-21)
(0.00534018 -0.0216499 3.79409e-20)
(0.0106324 -0.0223423 0)
(-0.00353111 -0.014167 -5.39876e-21)
(-0.00269867 -0.0156735 6.36871e-20)
(-0.00371653 -0.0129661 -4.61259e-20)
(-0.00360894 -0.011584 1.31325e-21)
(-0.00547924 -0.0159431 3.66518e-20)
(-0.00397103 -0.0138691 0)
(-0.0102456 -0.0174104 4.91936e-20)
(-0.00748795 -0.0161121 7.05488e-22)
(-0.0157163 -0.0161938 -4.45512e-20)
(-0.0126869 -0.0160479 3.87968e-20)
(-0.0203082 -0.0128911 -5.67206e-20)
(-0.0175104 -0.0138184 1.85341e-20)
(-0.0233228 -0.00824142 9.04887e-22)
(-0.0211127 -0.0100401 -1.24177e-20)
(-0.0245006 -0.00295007 0)
(-0.0231031 -0.00534334 -2.15234e-20)
(-0.0238471 0.00234171 0)
(-0.0233645 -0.000350798 0)
(-0.0215857 0.00712143 -3.46888e-21)
(-0.0220019 0.00439241 -1.37926e-20)
(-0.0192629 0.00850422 -1.30631e-22)
(-0.0180394 0.0110242 -9.99303e-21)
(0.00225005 -0.017574 2.5678e-20)
(0.00782227 -0.0172487 0)
(-0.00360215 -0.0138193 7.17557e-20)
(-0.00235436 -0.0140801 -8.04471e-21)
(-0.00413482 -0.0126918 4.79621e-20)
(-0.00322067 -0.0114893 -2.76535e-20)
(-0.00610578 -0.0142316 -3.58086e-20)
(-0.00452637 -0.0127354 0)
(-0.0101202 -0.014967 -9.38661e-21)
(-0.00772691 -0.0140087 -4.79833e-20)
(-0.0146139 -0.0138335 1.01847e-19)
(-0.0120557 -0.0137525 -1.24416e-20)
(-0.0184435 -0.0110938 6.31243e-20)
(-0.0160806 -0.0118697 1.28848e-19)
(-0.0210169 -0.00723807 -3.53833e-20)
(-0.0191322 -0.008733 1.39335e-20)
(-0.0220675 -0.0028106 -2.16437e-20)
(-0.0208583 -0.00481235 -2.10545e-20)
(-0.0215682 0.00166308 -1.38697e-20)
(-0.0211295 -0.000607142 3.36762e-21)
(-0.0196734 0.00575111 -1.04982e-20)
(-0.0200031 0.00343082 -2.25954e-21)
(-0.0176648 0.00696763 1.7694e-21)
(-0.016631 0.00912802 5.01797e-21)
(0.00247072 -0.0142142 -3.3676e-20)
(0.00620626 -0.0130776 8.57525e-21)
(-0.00254857 -0.012189 -1.10318e-19)
(-0.00136764 -0.0116999 -5.16358e-20)
(-0.00405521 -0.0117822 -7.66419e-20)
(-0.00281482 -0.0106322 -4.04438e-20)
(-0.00636899 -0.0126742 -1.20469e-20)
(-0.00480085 -0.0115078 9.91651e-21)
(-0.00991485 -0.0129825 -5.10266e-20)
(-0.00780926 -0.0122378 4.4073e-20)
(-0.0137037 -0.0119338 1.39533e-20)
(-0.0115011 -0.0118826 -5.00226e-20)
(-0.0169215 -0.00962256 7.98252e-20)
(-0.0149091 -0.0102831 -4.15794e-20)
(-0.0191185 -0.00639503 2.822e-20)
(-0.0175165 -0.00764948 2.78756e-20)
(-0.0200333 -0.00267036 4.00701e-21)
(-0.0190083 -0.00435951 2.7214e-20)
(-0.0196225 0.00112651 1.51597e-20)
(-0.0192574 -0.000805197 -2.88963e-20)
(-0.0180065 0.00462339 1.01144e-20)
(-0.0182962 0.00264224 1.17961e-20)
(-0.0162647 0.00567562 4.40039e-21)
(-0.0153591 0.00753361 -1.62893e-21)
(0.00209148 -0.0111774 -8.13175e-21)
(0.00487716 -0.0100718 8.66371e-21)
(-0.00198123 -0.0104753 1.8255e-20)
(-0.000875968 -0.009687 -2.71172e-20)
(-0.00400925 -0.0106258 4.58565e-20)
(-0.00267055 -0.00953388 4.63016e-20)
(-0.00649833 -0.0112329 6.64453e-20)
(-0.00499057 -0.0102729 1.00188e-20)
(-0.00967794 -0.0113169 4.55877e-20)
(-0.00781403 -0.0107143 2.44221e-20)
(-0.0129198 -0.0103641 -1.06009e-19)
(-0.0110192 -0.0103349 -5.68675e-20)
(-0.015685 -0.00841271 -9.40246e-20)
(-0.0139521 -0.00896277 -5.80986e-20)
(-0.0175648 -0.00569444 2.69932e-20)
(-0.0161981 -0.0067513 -6.08512e-21)
(-0.018353 -0.00254953 -5.65942e-21)
(-0.0174916 -0.00398062 3.3029e-20)
(-0.0179972 0.000678142 -3.24689e-20)
(-0.0177073 -0.000969965 -7.51973e-21)
(-0.0165813 0.00367141 6.06943e-21)
(-0.0168644 0.00197431 0)
(-0.0150717 0.00457418 2.14938e-22)
(-0.0142502 0.00617607 1.04211e-20)
(0.00162582 -0.0089572 -9.19591e-21)
(0.00372016 -0.00784065 6.93554e-20)
(-0.00183125 -0.00898034 -6.94222e-22)
(-0.000794369 -0.00805606 5.31226e-20)
(-0.00406261 -0.00943706 9.19158e-21)
(-0.00273376 -0.00841439 8.70064e-21)
(-0.00657397 -0.009912 -3.24331e-20)
(-0.00515568 -0.00909118 9.60411e-21)
(-0.00944521 -0.0098943 -7.71602e-20)
(-0.00778911 -0.00938846 9.47894e-21)
(-0.0122802 -0.00905715 -8.01872e-21)
(-0.010616 -0.00902583 1.03296e-20)
(-0.0146667 -0.00740204 3.05743e-20)
(-0.0131703 -0.00786005 2.56711e-20)
(-0.0162921 -0.00511105 -1.87498e-22)
(-0.0151242 -0.00599943 -6.28169e-21)
(-0.0169705 -0.00245074 3.14617e-20)
(-0.0162493 -0.00366492 6.29446e-21)
(-0.0166533 0.000291932 2.5198e-20)
(-0.01643 -0.00111255 2.53215e-20)
(-0.0153864 0.00285118 -5.90596e-21)
(-0.0156741 0.00139493 1.0184e-20)
(-0.0140721 0.00362284 -4.50241e-21)
(-0.0133102 0.00500277 -1.28439e-20)
(0.00106832 -0.00721588 1.32368e-19)
(0.00270265 -0.0061044 1.07715e-20)
(-0.00191405 -0.00766683 6.16183e-20)
(-0.000956124 -0.006717 -1.54288e-20)
(-0.00419772 -0.0082991 8.23338e-21)
(-0.0029336 -0.00734441 -5.41218e-22)
(-0.00663712 -0.00871656 5.19298e-20)
(-0.00532297 -0.00799609 9.6974e-21)
(-0.00924393 -0.00866802 9.84592e-20)
(-0.00777041 -0.00823001 -2.89208e-20)
(-0.0117461 -0.00794727 4.53566e-20)
(-0.0102946 -0.00791187 9.9803e-20)
(-0.0138351 -0.0065511 -1.13906e-20)
(-0.0125437 -0.00692851 -6.12592e-20)
(-0.0152529 -0.00462124 0)
(-0.014256 -0.00536608 -5.70224e-20)
(-0.0158349 -0.00237098 0)
(-0.0152341 -0.00340306 5.75654e-21)
(-0.0155398 -4.34837e-05 1.02341e-20)