/*--------------------------------*- C++ -*----------------------------------*\
| =========                 |                                                 |
| \\      /  F ield         | OpenFOAM: The Open Source CFD Toolbox           |
|  \\    /   O peration     | Version:  v1606+                                |
|   \\  /    A nd           | Web:      www.OpenFOAM.com                      |
|    \\/     M anipulation  |                                                 |
\*---------------------------------------------------------------------------*/
FoamFile
{
    version     2.0;
    format      ascii;
    class       volScalarField;
    location    "1.01";
    object      alpha.particles;
}
// * * * * * * * * * * * * * * * * * * * * * * * * * * * * * * * * * * * * * //

dimensions      [0 0 0 0 0 0 0];

internalField   nonuniform List<scalar> 
6000
(
0.431185
0.424127
0.414815
0.403531
0.403514
0.420848
0.428885
0.428885
0.428884
0.421029
0.418471
0.416853
0.416604
0.416003
0.413263
0.412823
0.412524
0.412528
0.412524
0.412459
0.412203
0.411933
0.411873
0.411848
0.411237
0.400924
0.401633
0.41369
0.427797
0.443237
0.370131
0.35961
0.344303
0.343476
0.343477
0.343477
0.350936
0.352816
0.32987
0.326434
0.326133
0.326005
0.326038
0.326173
0.326257
0.326414
0.330065
0.337238
0.33958
0.338798
0.338949
0.341289
0.346953
0.342495
0.339169
0.339169
0.339169
0.340558
0.36249
0.38549
0.450824
0.445856
0.415939
0.380322
0.356369
0.354175
0.350439
0.326394
0.32622
0.326182
0.326071
0.326104
0.326013
0.326612
0.330794
0.331756
0.333434
0.334465
0.331723
0.328012
0.327641
0.327767
0.327596
0.345634
0.357659
0.369487
0.384771
0.408514
0.460354
0.478383
0.52324
0.521934
0.495109
0.448528
0.394076
0.368216
0.341865
0.326224
0.32619
0.326168
0.326147
0.32604
0.326082
0.326032
0.329733
0.335305
0.335961
0.331855
0.327833
0.327647
0.327777
0.32758
0.327767
0.339995
0.386497
0.424695
0.453449
0.485004
0.529054
0.53356
0.523272
0.523254
0.523235
0.517237
0.463933
0.407822
0.352466
0.327601
0.327284
0.333561
0.336891
0.340979
0.347463
0.358401
0.371951
0.37972
0.379979
0.372628
0.35809
0.337585
0.327648
0.327786
0.331328
0.367258
0.450407
0.49647
0.516853
0.53349
0.533571
0.533574
0.523266
0.523258
0.52326
0.52324
0.522086
0.474504
0.411551
0.376733
0.375939
0.385109
0.389506
0.396472
0.409736
0.428707
0.444495
0.452574
0.453546
0.445845
0.430514
0.396219
0.365642
0.358364
0.374357
0.439083
0.511245
0.531591
0.533562
0.533569
0.533568
0.533559
0.4234
0.481085
0.523219
0.523229
0.523216
0.523198
0.497208
0.467478
0.470532
0.476459
0.475513
0.475893
0.485367
0.497011
0.504098
0.509393
0.510874
0.507597
0.499615
0.480771
0.454181
0.445294
0.462643
0.508224
0.53345
0.533561
0.533567
0.533541
0.517004
0.474405
0.262114
0.305073
0.378226
0.459703
0.50054
0.503772
0.490516
0.482163
0.489887
0.519747
0.530379
0.530485
0.5334
0.533421
0.533433
0.533451
0.532704
0.531479
0.530467
0.530211
0.525591
0.523328
0.530626
0.533555
0.533561
0.533562
0.533513
0.450905
0.347408
0.299512
0.251205
0.26779
0.279472
0.295413
0.305582
0.322631
0.339249
0.353972
0.360594
0.398497
0.431237
0.44424
0.458652
0.48014
0.512923
0.533448
0.533475
0.533484
0.53349
0.533493
0.5335
0.533509
0.53353
0.533535
0.533535
0.526844
0.418865
0.313699
0.269778
0.263495
0.251206
0.290115
0.308463
0.280723
0.212777
0.167879
0.166541
0.175409
0.180684
0.195977
0.218387
0.236317
0.256348
0.28804
0.343682
0.415867
0.480046
0.506535
0.502337
0.477837
0.441097
0.449242
0.451215
0.432379
0.435842
0.402951
0.361496
0.325963
0.288623
0.263495
0.276114
0.329509
0.362652
0.321362
0.216753
0.137835
0.125174
0.125277
0.126767
0.127487
0.134928
0.151544
0.170906
0.195432
0.235975
0.297185
0.355239
0.355147
0.32251
0.274353
0.228777
0.224546
0.218479
0.210388
0.262863
0.352015
0.393748
0.377206
0.331226
0.281693
0.320289
0.368671
0.403598
0.359328
0.225142
0.136501
0.125152
0.125203
0.125263
0.125272
0.128665
0.153061
0.185024
0.216424
0.262601
0.328478
0.345338
0.294144
0.218221
0.171736
0.144129
0.123399
0.109519
0.110637
0.178678
0.340725
0.422521
0.414302
0.373608
0.320427
0.368265
0.405565
0.425033
0.367258
0.226256
0.137718
0.125196
0.125202
0.125246
0.125334
0.132743
0.171882
0.227804
0.26494
0.314155
0.367614
0.348523
0.274405
0.204423
0.163541
0.139433
0.113392
0.105921
0.10589
0.14392
0.322598
0.425522
0.431259
0.407125
0.36048
0.410741
0.443944
0.430776
0.350442
0.230996
0.147228
0.125208
0.125242
0.125748
0.128264
0.143605
0.203064
0.286718
0.321002
0.360202
0.382751
0.338786
0.262154
0.20968
0.176044
0.147185
0.113821
0.10592
0.105924
0.13086
0.293374
0.408991
0.439812
0.430713
0.398273
0.458773
0.498455
0.512715
0.397272
0.257693
0.177078
0.134807
0.126861
0.129463
0.135839
0.158925
0.239856
0.347068
0.371923
0.392977
0.389639
0.338572
0.283714
0.247005
0.217203
0.17272
0.124338
0.105946
0.105923
0.130494
0.263457
0.372057
0.442512
0.456432
0.438042
0.515989
0.530145
0.529375
0.479564
0.345353
0.252287
0.183788
0.141381
0.138278
0.147361
0.178488
0.283854
0.399249
0.414341
0.416591
0.407851
0.370898
0.333297
0.303794
0.270278
0.216631
0.157963
0.118745
0.110757
0.148474
0.268071
0.391316
0.470028
0.488305
0.479478
0.537925
0.537044
0.526938
0.477926
0.407863
0.350504
0.287041
0.179719
0.150971
0.1619
0.20401
0.333846
0.437941
0.44905
0.449712
0.438165
0.420488
0.398682
0.371366
0.333583
0.280146
0.220267
0.16933
0.154276
0.213102
0.332905
0.450022
0.505464
0.514757
0.512395
0.537992
0.533664
0.517097
0.48198
0.449073
0.421065
0.377731
0.231896
0.169413
0.179876
0.237766
0.386263
0.479856
0.479376
0.481166
0.476096
0.472397
0.46636
0.451142
0.420553
0.372061
0.313748
0.266023
0.257771
0.325235
0.430696
0.504749
0.526357
0.531439
0.530688
0.537266
0.524599
0.507903
0.493864
0.481811
0.460581
0.417744
0.292045
0.195558
0.204137
0.277311
0.429896
0.506549
0.505033
0.510108
0.509602
0.511711
0.512307
0.508102
0.495434
0.468825
0.428128
0.395247
0.399445
0.450451
0.507511
0.531992
0.537793
0.540322
0.538627
0.526247
0.520343
0.513947
0.515347
0.514608
0.50527
0.473687
0.378209
0.249633
0.241371
0.314935
0.448614
0.516775
0.522783
0.528347
0.530864
0.533453
0.53507
0.535336
0.533714
0.527915
0.515819
0.505842
0.512557
0.530991
0.544188
0.547318
0.547845
0.54749
0.544066
0.52621
0.526463
0.530889
0.537726
0.538358
0.539271
0.534663
0.494988
0.36985
0.311621
0.358779
0.46057
0.524946
0.534347
0.538286
0.541704
0.544125
0.545966
0.547503
0.548703
0.549596
0.550427
0.551668
0.554437
0.556656
0.557401
0.557253
0.55662
0.554906
0.550164
0.527077
0.540597
0.548911
0.552344
0.553643
0.556744
0.557297
0.550439
0.504797
0.427843
0.439714
0.481901
0.53311
0.544506
0.545527
0.548136
0.550493
0.552486
0.554307
0.55589
0.557316
0.558731
0.559967
0.560869
0.561216
0.561528
0.562031
0.562404
0.561549
0.557545
0.537228
0.555215
0.558804
0.559278
0.561216
0.562102
0.56188
0.557684
0.558541
0.53624
0.523405
0.509813
0.532303
0.551998
0.552585
0.553399
0.555245
0.557203
0.55893
0.560299
0.561319
0.56202
0.562332
0.562199
0.561771
0.561794
0.562365
0.564403
0.565162
0.563923
0.55442
0.563473
0.562936
0.562329
0.56299
0.562095
0.559116
0.539062
0.560606
0.564402
0.556762
0.534259
0.530146
0.55212
0.558301
0.558129
0.559186
0.56085
0.562287
0.563267
0.563778
0.563817
0.563369
0.562333
0.56101
0.560083
0.559178
0.562308
0.565136
0.565885
0.563993
0.563659
0.563557
0.56327
0.562981
0.558484
0.548252
0.474315
0.549299
0.564489
0.566732
0.549013
0.530154
0.548497
0.561665
0.562206
0.562612
0.563739
0.564781
0.565365
0.565464
0.565096
0.56413
0.562429
0.559736
0.55669
0.551865
0.555193
0.555171
0.565842
0.564015
0.551408
0.563495
0.563195
0.562364
0.554082
0.52629
0.44261
0.509221
0.559497
0.567908
0.561595
0.533161
0.542929
0.563122
0.56546
0.565476
0.566057
0.566734
0.567076
0.567036
0.566623
0.565609
0.563822
0.560933
0.556311
0.548523
0.547882
0.539132
0.560628
0.564008
0.547224
0.563426
0.563242
0.563234
0.552903
0.49969
0.442555
0.44266
0.547717
0.567936
0.567949
0.541961
0.544905
0.563806
0.567717
0.567733
0.567966
0.56844
0.568788
0.568898
0.568801
0.568244
0.567197
0.565339
0.561722
0.554746
0.548974
0.539006
0.546634
0.563948
0.547025
0.556803
0.56094
0.565139
0.555642
0.487746
0.452591
0.442595
0.52928
0.567976
0.570776
0.553345
0.551013
0.564586
0.569211
0.569469
0.569595
0.570032
0.570501
0.570806
0.570793
0.570735
0.570558
0.570127
0.569004
0.565674
0.558735
0.544029
0.539302
0.549526
0.546825
0.547182
0.557091
0.566029
0.560562
0.506713
0.498101
0.442662
0.476559
0.561601
0.571923
0.562456
0.558436
0.566245
0.570346
0.570769
0.570945
0.571356
0.571571
0.571527
0.570514
0.570858
0.57171
0.571942
0.571947
0.57191
0.569202
0.559728
0.542611
0.546993
0.54675
0.54694
0.557312
0.566375
0.567391
0.546706
0.523135
0.443387
0.443556
0.556752
0.573302
0.568803
0.564979
0.568599
0.571308
0.571752
0.571989
0.571978
0.571542
0.567429
0.562622
0.565581
0.568998
0.571704
0.571955
0.571964
0.571931
0.56978
0.555479
0.546739
0.546729
0.542281
0.556912
0.565645
0.56969
0.561274
0.509239
0.47079
0.443513
0.552793
0.574916
0.573952
0.570534
0.571177
0.572273
0.572606
0.572588
0.571583
0.564636
0.540885
0.527328
0.542187
0.555677
0.567034
0.571731
0.571956
0.571966
0.571916
0.566253
0.546591
0.538659
0.536168
0.551685
0.562694
0.569744
0.567566
0.530472
0.505933
0.443571
0.540602
0.575204
0.577924
0.57492
0.573577
0.573464
0.573476
0.572471
0.565988
0.5342
0.476535
0.477245
0.498292
0.516082
0.550367
0.566962
0.571768
0.571955
0.571801
0.568941
0.536149
0.51894
0.536052
0.544665
0.558236
0.569798
0.572141
0.554708
0.501287
0.456987
0.508939
0.570399
0.579939
0.578062
0.575792
0.574824
0.574053
0.569653
0.548544
0.469053
0.469393
0.469124
0.469649
0.472497
0.505742
0.554701
0.568132
0.57163
0.570635
0.568791
0.518281
0.518982
0.545413
0.546911
0.558854
0.568713
0.572973
0.563938
0.509969
0.478131
0.48545
0.567031
0.581152
0.580179
0.577694
0.576122
0.573575
0.562874
0.52031
0.469381
0.468794
0.469467
0.469489
0.467754
0.461495
0.529164
0.561144
0.568928
0.569661
0.56858
0.518263
0.537893
0.545346
0.538169
0.559742
0.568764
0.573008
0.571507
0.537585
0.482382
0.485185
0.567278
0.581639
0.581441
0.579351
0.577121
0.571495
0.550179
0.484139
0.468795
0.469426
0.472496
0.485498
0.47698
0.461471
0.483858
0.549191
0.564865
0.568389
0.568206
0.522668
0.545333
0.545372
0.496765
0.554615
0.568441
0.573037
0.573034
0.558792
0.500014
0.496799
0.568771
0.581723
0.582584
0.58114
0.577852
0.568123
0.532882
0.469434
0.469449
0.474373
0.496164
0.519858
0.504155
0.463456
0.455192
0.530465
0.559155
0.566032
0.567209
0.541345
0.545352
0.540122
0.453455
0.51066
0.560278
0.573041
0.573048
0.569357
0.53263
0.518666
0.570371
0.58202
0.584448
0.583358
0.578109
0.563618
0.518774
0.480463
0.493669
0.512899
0.535236
0.543578
0.537231
0.48838
0.455168
0.504754
0.550767
0.562349
0.56492
0.544244
0.538103
0.487532
0.452296
0.437626
0.534348
0.569465
0.573118
0.572982
0.557833
0.540499
0.569279
0.582708
0.587623
0.586219
0.577223
0.556454
0.524594
0.520299
0.537566
0.548655
0.545564
0.543597
0.54373
0.535084
0.473255
0.494457
0.540686
0.558541
0.55955
0.541194
0.456769
0.425677
0.448179
0.437592
0.511421
0.559384
0.573012
0.573092
0.568017
0.55897
0.572052
0.585908
0.592792
0.590405
0.574873
0.549329
0.539648
0.549551
0.550238
0.550236
0.539578
0.534456
0.543708
0.543685
0.500088
0.49942
0.530188
0.555429
0.542857
0.510221
0.344319
0.400474
0.437585
0.437606
0.486667
0.545114
0.566473
0.572195
0.572017
0.571453
0.579592
0.591593
0.597356
0.594317
0.565418
0.542184
0.545866
0.550095
0.550102
0.550046
0.512157
0.503235
0.522222
0.50943
0.420759
0.472584
0.533895
0.55265
0.503743
0.465859
0.336384
0.399508
0.431967
0.441922
0.44608
0.532908
0.55731
0.566407
0.571558
0.577705
0.586197
0.595671
0.597359
0.588822
0.510344
0.471169
0.468584
0.440483
0.41935
0.405242
0.383734
0.380754
0.374892
0.300416
0.226308
0.379754
0.532244
0.552554
0.503557
0.406269
0.336431
0.406425
0.439645
0.446006
0.43335
0.485688
0.542317
0.557596
0.561842
0.576959
0.588229
0.596754
0.597448
0.57488
0.435925
0.311859
0.274271
0.248073
0.216801
0.181097
0.160883
0.150164
0.132427
0.0941021
0.0815719
0.251198
0.506972
0.551726
0.503554
0.296068
0.32067
0.411066
0.444869
0.446224
0.413499
0.245465
0.406127
0.544243
0.523698
0.568543
0.586304
0.596462
0.597381
0.582845
0.464002
0.285275
0.230203
0.220785
0.195555
0.143133
0.0905856
0.0535522
0.0355495
0.0284027
0.0339874
0.124166
0.41572
0.541795
0.503524
0.150946
0.234403
0.337459
0.355429
0.361529
0.26539
0.0589873
0.111832
0.335394
0.472965
0.562102
0.581906
0.594518
0.597576
0.594055
0.550875
0.412439
0.310283
0.274195
0.24126
0.175567
0.0961393
0.0437008
0.0230087
0.0183866
0.0206973
0.0518971
0.210493
0.495686
0.506328
0.0475937
0.0873635
0.128223
0.119839
0.116701
0.0657248
0.0153022
0.0266335
0.181347
0.484943
0.564792
0.573358
0.589259
0.597388
0.591924
0.570938
0.505753
0.391122
0.32647
0.291911
0.218487
0.116137
0.0467747
0.0222196
0.016981
0.0170057
0.0249725
0.0694184
0.221418
0.438439
0.0135842
0.0176525
0.0198672
0.0167501
0.015248
0.0110086
0.00891066
0.017376
0.122839
0.476203
0.56246
0.560773
0.583904
0.596031
0.590755
0.577839
0.551277
0.476298
0.384935
0.342076
0.266712
0.146342
0.0550706
0.0233159
0.0166812
0.0159816
0.0172981
0.0253531
0.0681262
0.324156
0.00858643
0.00836274
0.00784246
0.00729064
0.0071062
0.00721375
0.00840799
0.0143627
0.0547571
0.280313
0.547379
0.555227
0.578741
0.595431
0.591675
0.580235
0.566273
0.534623
0.452717
0.389696
0.316782
0.185785
0.073298
0.0293965
0.0178443
0.0159834
0.0159826
0.0184758
0.0476636
0.27099
0.00818041
0.00787525
0.00736197
0.00697908
0.00685666
0.00707377
0.00840917
0.0140452
0.0384114
0.149998
0.445326
0.550171
0.54716
0.588834
0.591523
0.579212
0.568584
0.561451
0.522741
0.442986
0.36511
0.22521
0.103825
0.0455985
0.0230665
0.0167827
0.0159836
0.0182529
0.0507491
0.231531
0.00813542
0.00783756
0.00732357
0.00693569
0.00680438
0.00698689
0.00819678
0.0142016
0.0378858
0.111911
0.290348
0.464902
0.454317
0.576369
0.589328
0.571751
0.561604
0.56464
0.55904
0.507356
0.413057
0.256408
0.130083
0.0664985
0.0338804
0.0207943
0.0168061
0.0186186
0.0483873
0.193423
0.00811694
0.00781984
0.00729702
0.00688626
0.00672505
0.00684351
0.00779709
0.0138826
0.0431209
0.123266
0.226447
0.276015
0.430391
0.57868
0.586465
0.553464
0.538942
0.564588
0.564642
0.546992
0.460616
0.282722
0.134009
0.0762462
0.0466671
0.0305666
0.0205981
0.0201783
0.045674
0.163479
0.00809762
0.0077994
0.00726444
0.00682589
0.0065967
0.00661317
0.00733577
0.0131793
0.0471299
0.147816
0.231907
0.23649
0.498728
0.586055
0.586068
0.524755
0.524783
0.55897
0.564663
0.556749
0.494497
0.306041
0.111391
0.0699043
0.0540428
0.044142
0.029244
0.0239806
0.0455621
0.155456
0.00807238
0.00777345
0.00722357
0.00676577
0.00642028
0.00628888
0.00683848
0.0126679
0.0530422
0.181686
0.253163
0.358199
0.558763
0.585763
0.573958
0.524704
0.524609
0.550353
0.564649
0.558707
0.507887
0.317294
0.0858734
0.0531855
0.0543712
0.0530731
0.0413583
0.0312767
0.0482539
0.164169
0.00804028
0.00774148
0.00717319
0.00670254
0.00621975
0.00596333
0.00626444
0.0122624
0.0602282
0.21656
0.277279
0.492
0.571059
0.585846
0.561949
0.524515
0.524607
0.543126
0.564651
0.558827
0.510041
0.31192
0.0625089
0.0338178
0.054201
0.0543533
0.0501921
0.0415424
0.0557666
0.176415
0.00800096
0.00770124
0.00711438
0.00662765
0.00602833
0.00576377
0.00572758
0.0119583
0.0662267
0.245764
0.334646
0.533353
0.578564
0.585726
0.547883
0.524533
0.524508
0.540216
0.564636
0.556417
0.495257
0.252083
0.0392711
0.0188425
0.0420851
0.0521793
0.0522146
0.0502822
0.064805
0.179533
0.00795349
0.00764978
0.00705073
0.00653528
0.00587567
0.0056963
0.00560851
0.0117029
0.0698277
0.261139
0.422985
0.545301
0.581266
0.585145
0.52452
0.524483
0.524554
0.541195
0.564613
0.551396
0.448541
0.157576
0.0211235
0.0114512
0.0230894
0.0366795
0.046775
0.0534632
0.0690819
0.170744
0.00789713
0.00758632
0.00698341
0.00642877
0.00577763
0.00567972
0.00561256
0.011464
0.0709258
0.263568
0.494597
0.553776
0.580369
0.576196
0.524623
0.524561
0.524552
0.545382
0.562694
0.540384
0.351025
0.0694222
0.0129069
0.009286
0.0117042
0.0187345
0.030228
0.0453688
0.0613911
0.123699
0.00783187
0.00751298
0.00691085
0.00632133
0.00572878
0.00567258
0.00561326
0.0111163
0.0694158
0.2581
0.524246
0.558074
0.577519
0.577427
0.525294
0.52454
0.524666
0.547501
0.55598
0.492782
0.207827
0.0247805
0.0105319
0.00887121
0.00788618
0.00904756
0.0144409
0.027482
0.0405856
0.0661619
0.00775827
0.00743279
0.0068335
0.00622837
0.00571105
0.00566849
0.00561997
0.0105176
0.0593268
0.231273
0.528982
0.558673
0.572151
0.577349
0.553748
0.524675
0.524698
0.547499
0.546371
0.375789
0.080418
0.012506
0.00993848
0.00879196
0.00691718
0.00574465
0.00673046
0.0124607
0.0201629
0.0291134
0.00767613
0.00734768
0.00675468
0.00615982
0.00570765
0.00566603
0.00562274
0.00983236
0.0447021
0.176223
0.498702
0.555861
0.565682
0.572194
0.567385
0.532006
0.524901
0.547464
0.49751
0.202198
0.0229678
0.0104425
0.00985382
0.00876881
0.00663483
0.00474385
0.0041326
0.0057951
0.00932566
0.0129526
0.007581
0.00725702
0.0066793
0.00611964
0.00571216
0.00566594
0.0056277
0.00939201
0.0339919
0.118072
0.341205
0.536826
0.559453
0.567541
0.567519
0.55963
0.544899
0.531162
0.353656
0.0904035
0.0121865
0.00989647
0.00993177
0.00878908
0.00647667
0.00435459
0.00342629
0.00388474
0.00551052
0.00758031
0.00746159
0.00715735
0.00661379
0.0061046
0.00572662
0.00567056
0.00573489
0.0093092
0.0293917
0.0877298
0.209013
0.447972
0.549104
0.563545
0.56624
0.561687
0.549236
0.471231
0.233416
0.0423363
0.00999556
0.00972331
0.0100595
0.0088761
0.00633944
0.00413933
0.00334522
0.00346853
0.00448517
0.0060667
0.00730407
0.00704533
0.00656637
0.00610334
0.00575233
0.00567649
0.0059693
0.00983333
0.0285979
0.079004
0.161751
0.304456
0.494622
0.552675
0.563371
0.55937
0.538027
0.401188
0.15752
0.022287
0.00886083
0.00971449
0.0101782
0.00901876
0.00623449
0.00400951
0.00334403
0.00338175
0.0042398
0.00569628
0.00711085
0.00692511
0.00654272
0.00611595
0.00579458
0.00568282
0.00629628
0.0123345
0.032477
0.0782838
0.15338
0.244904
0.381264
0.509519
0.55052
0.547188
0.509632
0.349784
0.110713
0.0133139
0.00812339
0.00974705
0.010287
0.00921383
0.00618938
0.00394531
0.00334762
0.00335834
0.00418708
0.00562789
0.00692078
0.00681743
0.00653732
0.00616749
0.00587799
0.00568946
0.00671099
0.0167122
0.0458193
0.0911507
0.153743
0.233531
0.326565
0.44789
0.514465
0.518449
0.482058
0.315892
0.082199
0.00964541
0.00791236
0.00983378
0.0104012
0.00942217
0.00621897
0.00393175
0.00334807
0.00335331
0.00418073
0.00562395
0.00679044
0.00675115
0.00654984
0.00632921
0.00606569
0.00572347
0.00721902
0.0215192
0.0630745
0.12194
0.177555
0.236554
0.315583
0.410117
0.482662
0.502462
0.472227
0.29299
0.0658781
0.0083996
0.00790652
0.0100049
0.0105975
0.00964585
0.0063911
0.00399606
0.00335034
0.00336784
0.00420369
0.00563942
0.00674152
0.0067315
0.0066281
0.00675232
0.00648042
0.00591822
0.00790192
0.0257104
0.0796523
0.158281
0.223441
0.265243
0.318897
0.399735
0.466528
0.500249
0.470265
0.279646
0.0574715
0.00784597
0.00788829
0.0102417
0.010969
0.0100238
0.00684526
0.00426179
0.00342857
0.00347949
0.00432838
0.00571775
0.00674311
0.00674276
0.00689225
0.00765677
0.00727776
0.00651008
0.00898483
0.0295688
0.094158
0.193963
0.278227
0.31345
0.339226
0.396559
0.459293
0.500493
0.4688
0.274366
0.0542828
0.00755981
0.00771383
0.0104554
0.0115705
0.010802
0.00782769
0.00499555
0.00388592
0.0039153
0.00478646
0.00611607
0.00674701
0.00681809
0.00751359
0.00917539
0.00855063
0.00768929
0.0108714
0.0342405
0.107475
0.225727
0.333594
0.372507
0.38137
0.408348
0.456848
0.50086
0.466413
0.273587
0.0543417
0.00742496
0.00737368
0.0105548
0.0122926
0.0121647
0.00967127
0.00670923
0.00531589
0.00524964
0.0062118
0.00758717
0.00677996
0.00705386
0.00862435
0.0111482
0.010202
0.00950215
0.0140473
0.041041
0.12103
0.252571
0.380272
0.430673
0.43158
0.437275
0.463544
0.501207
0.462588
0.281283
0.0584227
0.00729174
0.00693698
0.0102791
0.0128565
0.0138614
0.0124865
0.0100126
0.00860268
0.0085096
0.00975364
0.01125
0.00687108
0.0075156
0.010119
0.0131474
0.0119678
0.0117957
0.0187226
0.0504778
0.135415
0.274455
0.412937
0.472588
0.474042
0.468414
0.478756
0.50178
0.459245
0.285485
0.0588381
0.00701684
0.00660339
0.00954338
0.0130027
0.0152206
0.0156566
0.0147053
0.0139995
0.0142675
0.0158937
0.01716
0.00701276
0.00810225
0.0115931
0.0147709
0.0136072
0.0142121
0.0244069
0.0618934
0.150301
0.29199
0.432223
0.493643
0.497953
0.490192
0.492338
0.502063
0.455134
0.283439
0.0467232
0.00681805
0.00654917
0.00856955
0.0124075
0.015748
0.0178294
0.0188144
0.0194425
0.0205162
0.0220949
0.0226074
0.00712646
0.00855809
0.0126131
0.015915
0.0150176
0.0164683
0.0303039
0.0745243
0.166421
0.307156
0.443149
0.501874
0.507294
0.50155
0.500527
0.502464
0.445844
0.246648
0.0267308
0.00672813
0.00654396
0.00774353
0.0110175
0.015197
0.018388
0.0204202
0.0218932
0.02354
0.0246594
0.0246594
0.00715388
0.00873188
0.0130808
0.0167166
0.0162267
0.0185132
0.0358917
0.0879381
0.186032
0.323979
0.451206
0.505562
0.510239
0.507423
0.505818
0.505087
0.434025
0.167417
0.013915
0.00657896
0.00654498
0.00732382
0.00940419
0.0135381
0.0174402
0.0199453
0.0217677
0.0235639
0.0246594
0.0246594
0.00711313
0.00873074
0.0132037
0.0173649
0.0173882
0.0204755
0.0410102
0.101776
0.209506
0.346548
0.462237
0.507962
0.511469
0.510965
0.509722
0.507416
0.426385
0.0929941
0.00780834
0.00657129
0.00673154
0.00724425
0.0082879
0.0113417
0.0151602
0.0179687
0.0199395
0.0215834
0.0236167
0.0246594
0.00711123
0.0086151
0.0132124
0.018049
0.0187483
0.0226538
0.0461012
0.115499
0.233398
0.372453
0.476207
0.508999
0.512205
0.512208
0.511934
0.508152
0.42104
0.0460248
0.00636386
0.00657023
0.00733226
0.00751045
0.00790027
0.00961249
0.0125753
0.0150721
0.0167728
0.0180906
0.0204615
0.0231338
0.00711122
0.00847614
0.013238
0.0190119
0.0206065
0.0254299
0.0518799
0.128395
0.253173
0.39371
0.485454
0.508198
0.512208
0.512206
0.512212
0.508269
0.39082
0.0240229
0.00636215
0.00704472
0.00835655
0.00832597
0.00796857
0.00879341
0.010813
0.0127292
0.0141379
0.0152383
0.0172075
0.0200223
0.00711124
0.00844042
0.0136374
0.0205252
0.0232061
0.0291911
0.0586084
0.139384
0.26633
0.406254
0.488188
0.504621
0.510939
0.512141
0.510754
0.503081
0.312004
0.0165066
0.0063633
0.00806457
0.00977087
0.00975216
0.0085374
0.00861693
0.0100755
0.011567
0.0128507
0.0138613
0.0152232
0.0172642
0.00711727
0.00886316
0.0151582
0.0230209
0.0267323
0.0340816
0.066263
0.148391
0.274565
0.41291
0.48912
0.502921
0.508755
0.509272
0.509206
0.48597
0.211127
0.0136458
0.00698603
0.00949076
0.0115116
0.0116316
0.00974374
0.00887942
0.00992892
0.0112628
0.0125126
0.0134812
0.0144289
0.0156395
0.00760609
0.0107177
0.0188412
0.0272443
0.0314709
0.0400189
0.0748503
0.157642
0.283349
0.423432
0.499532
0.504743
0.508742
0.50875
0.510621
0.454955
0.116776
0.0119803
0.00839369
0.0114194
0.0135284
0.0136699
0.011346
0.00970315
0.0101096
0.0112723
0.0125119
0.0134599
0.0142217
0.0148814
0.0100027
0.0155455
0.025871
0.0341044
0.037852
0.0470744
0.0858227
0.174537
0.306845
0.454191
0.518597
0.516377
0.519511
0.510744
0.513996
0.415781
0.0582926
0.0116627
0.0106546
0.0140506
0.0158442
0.0156445
0.0130437
0.0110704
0.0107896
0.0116317
0.0128297
0.0137076
0.014212
0.0145073
0.0167855
0.0250188
0.0372102
0.0443284
0.0463813
0.0556777
0.103287
0.214351
0.359226
0.489876
0.527936
0.525748
0.526964
0.516825
0.515357
0.377166
0.036289
0.0127497
0.0139824
0.0173503
0.018469
0.017494
0.0147703
0.0128284
0.0122148
0.0128013
0.013835
0.0143917
0.0142961
0.0142182
0.029943
0.0401803
0.0530985
0.0580572
0.0576527
0.0673417
0.133037
0.283132
0.420273
0.506961
0.528774
0.528765
0.528792
0.520456
0.51455
0.33805
0.0309361
0.0153876
0.0181923
0.0209756
0.0211921
0.0193225
0.0166933
0.0149955
0.0144896
0.0149446
0.0155597
0.0153267
0.0143823
0.0138417
0.0487754
0.0604662
0.0727722
0.0749315
0.0723868
0.0845843
0.175381
0.359874
0.464209
0.509764
0.522305
0.525849
0.528365
0.519537
0.511999
0.2936
0.0301327
0.0191865
0.0226261
0.0246193
0.0237196
0.0212547
0.0189973
0.017694
0.0174958
0.0177031
0.0174608
0.0159751
0.0143132
0.0132848
0.0707449
0.0835671
0.0946636
0.094762
0.0903652
0.107333
0.217798
0.411507
0.485007
0.506546
0.50863
0.512839
0.518561
0.512822
0.510822
0.249671
0.0322437
0.0234401
0.0268564
0.0281
0.026026
0.0233869
0.0216689
0.0208388
0.020805
0.0202993
0.0186415
0.0160822
0.0139703
0.0125909
0.0933067
0.106662
0.115404
0.114755
0.109539
0.130124
0.241958
0.427298
0.490467
0.502092
0.504265
0.50601
0.510376
0.50836
0.509806
0.216792
0.0360569
0.0279832
0.0308841
0.031428
0.0284167
0.02589
0.0246341
0.0241405
0.023918
0.0220229
0.0188913
0.0156444
0.0133181
0.0119921
0.112596
0.12578
0.130527
0.129693
0.125575
0.143918
0.244785
0.403885
0.474687
0.494148
0.504425
0.505617
0.507967
0.507654
0.498736
0.195519
0.0419387
0.0331711
0.035107
0.0349021
0.0314531
0.0292062
0.0281597
0.0276367
0.0266988
0.0229946
0.0186768
0.0148983
0.0126199
0.0117571
0.124224
0.135955
0.137041
0.136643
0.134816
0.146435
0.21441
0.325217
0.424014
0.477853
0.501314
0.506404
0.507234
0.507584
0.464556
0.167104
0.0486058
0.0393705
0.0403594
0.0392562
0.0359469
0.0341523
0.0330455
0.0319137
0.0295718
0.0239954
0.0185346
0.0144803
0.0121944
0.0117672
0.127467
0.137652
0.137653
0.137692
0.137357
0.1408
0.173618
0.251798
0.366774
0.462638
0.499191
0.506991
0.50681
0.506636
0.367705
0.113473
0.0533411
0.0467292
0.0473181
0.0456823
0.0430504
0.0417933
0.040295
0.0379257
0.0334452
0.0261385
0.0192353
0.0144982
0.0120854
0.0117654
0.123954
0.137671
0.137738
0.137704
0.137464
0.137425
0.14706
0.200977
0.316833
0.451539
0.504544
0.50921
0.511508
0.504562
0.237129
0.0787708
0.0565251
0.0551354
0.0562133
0.0550957
0.0537452
0.053042
0.0508551
0.046864
0.0398647
0.0307572
0.022043
0.0155982
0.0124053
0.0117653
0.11859
0.135839
0.137716
0.13783
0.137464
0.137451
0.137481
0.171692
0.289569
0.447618
0.511623
0.511069
0.518794
0.477374
0.151294
0.0693136
0.0612303
0.0642756
0.066779
0.0673835
0.0680099
0.0681114
0.06564
0.0602373
0.0510735
0.0397808
0.0285681
0.0194118
0.0138753
0.0118197
0.118082
0.129011
0.137746
0.137917
0.13754
0.137479
0.137555
0.162068
0.283986
0.453438
0.513561
0.51176
0.518791
0.418577
0.114959
0.0697578
0.0678802
0.0733628
0.0776668
0.081028
0.0843846
0.0858651
0.0846306
0.0793975
0.0692669
0.0557271
0.0410676
0.0278627
0.0179787
0.0127731
0.118103
0.12409
0.13424
0.137988
0.137611
0.137558
0.137593
0.162129
0.29505
0.468718
0.513555
0.510844
0.518788
0.351091
0.100529
0.0738426
0.0760406
0.0812872
0.0866922
0.0930145
0.0992997
0.103738
0.105422
0.102719
0.0943056
0.080158
0.0623951
0.0435835
0.0271809
0.0166436
0.118188
0.12263
0.132289
0.144609
0.145761
0.140617
0.142436
0.177226
0.326597
0.482452
0.510109
0.510193
0.518784
0.275383
0.0962456
0.0807462
0.0839931
0.0870257
0.092361
0.100449
0.108991
0.116989
0.122553
0.124271
0.120926
0.11034
0.0930882
0.0694616
0.0447902
0.0268788
0.118223
0.123604
0.136495
0.155925
0.160967
0.155784
0.15706
0.204153
0.361353
0.491962
0.507611
0.513183
0.496767
0.200796
0.0934037
0.0868217
0.0898723
0.090873
0.0949454
0.103016
0.112556
0.122198
0.130607
0.137221
0.140474
0.137515
0.126815
0.104662
0.0736176
0.0470907
0.118253
0.128872
0.146982
0.169886
0.177329
0.174446
0.175473
0.233632
0.390157
0.499419
0.508348
0.519831
0.452548
0.152462
0.0909285
0.0897601
0.0928303
0.0932925
0.0958964
0.103176
0.112766
0.122321
0.131194
0.140152
0.148213
0.152937
0.151055
0.139228
0.110925
0.0781051
0.118883
0.138784
0.161312
0.186641
0.196465
0.194107
0.197425
0.262928
0.415106
0.506956
0.509706
0.519826
0.410493
0.135822
0.0905076
0.0904655
0.0936059
0.0942333
0.0961255
0.102163
0.111011
0.119272
0.12704
0.135773
0.146603
0.156593
0.158325
0.157191
0.143027
0.114124
0.128751
0.152777
0.178128
0.206192
0.218547
0.217036
0.221597
0.288174
0.431771
0.511946
0.510824
0.517401
0.370233
0.128562
0.0907317
0.0906206
0.0937049
0.0943393
0.0958331
0.100414
0.107885
0.114337
0.121513
0.1306
0.141833
0.152552
0.158284
0.15831
0.155645
0.141037
0.147718
0.170333
0.196889
0.229395
0.244722
0.243577
0.247931
0.312037
0.445699
0.515222
0.51383
0.507881
0.315326
0.122804
0.0920231
0.0910557
0.0936629
0.0944783
0.0954366
0.0990314
0.105195
0.111488
0.119645
0.129489
0.138657
0.145505
0.15232
0.154883
0.152869
0.148893
0.170194
0.191349
0.220922
0.258253
0.276174
0.274707
0.278928
0.345931
0.472059
0.517269
0.517274
0.493243
0.260525
0.11979
0.0959018
0.0931835
0.0942292
0.0948384
0.0952637
0.0985972
0.104081
0.111125
0.120617
0.130546
0.137109
0.138418
0.139083
0.140619
0.140108
0.137832
0.195164
0.217631
0.251938
0.291886
0.311012
0.308861
0.3126
0.389415
0.495356
0.515331
0.517271
0.46726
0.233401
0.123168
0.102772
0.0976385
0.0965014
0.0960826
0.0959947
0.0988465
0.10388
0.111545
0.121929
0.131297
0.135035
0.131074
0.124378
0.121156
0.119651
0.113703
0.225815
0.250337
0.288553
0.329587
0.348563
0.343688
0.35025
0.433869
0.506609
0.509838
0.517275
0.44553
0.226158
0.132553
0.112165
0.104593
0.100866
0.0985308
0.0978519
0.0993663
0.103728
0.111795
0.122438
0.130422
0.13165
0.123895
0.112381
0.105903
0.1025
0.0897594
0.264561
0.289874
0.330238
0.369859
0.386501
0.377602
0.388707
0.46601
0.511781
0.511967
0.517273
0.429309
0.226772
0.145518
0.123638
0.113307
0.10673
0.101889
0.0999287
0.0995067
0.103026
0.110915
0.12167
0.128303
0.128387
0.11836
0.104805
0.0977211
0.0943081
0.0766701
0.309821
0.334948
0.374918
0.409441
0.422098
0.410544
0.426351
0.488932
0.513792
0.514958
0.51727
0.415346
0.232068
0.159976
0.136622
0.123063
0.113049
0.105277
0.101108
0.0995494
0.101654
0.109383
0.120775
0.127107
0.127204
0.115398
0.100938
0.0940753
0.0914032
0.0741931
0.358701
0.381937
0.418219
0.444405
0.453352
0.445667
0.469245
0.511642
0.515522
0.515496
0.516388
0.405519
0.244487
0.176612
0.150715
0.133233
0.11891
0.107927
0.101465
0.0996423
0.100434
0.108733
0.121344
0.127979
0.127666
0.114103
0.0990105
0.0920938
0.0893075
0.074198
0.4064
0.425073
0.454769
0.472243
0.479992
0.486406
0.511591
0.52397
0.521795
0.519432
0.518069