/*--------------------------------*- C++ -*----------------------------------*\
| =========                 |                                                 |
| \\      /  F ield         | OpenFOAM: The Open Source CFD Toolbox           |
|  \\    /   O peration     | Version:  v1606+                                |
|   \\  /    A nd           | Web:      www.OpenFOAM.com                      |
|    \\/     M anipulation  |                                                 |
\*---------------------------------------------------------------------------*/
FoamFile
{
    version     2.0;
    format      ascii;
    class       volVectorField;
    location    "1.01";
    object      U;
}
// * * * * * * * * * * * * * * * * * * * * * * * * * * * * * * * * * * * * * //

dimensions      [0 1 -1 0 0 0 0];

internalField   nonuniform List<vector> 
6000
(
(0.0168429 -0.00350343 0)
(0.0640961 -0.0300812 0)
(0.0907791 -0.0201725 0)
(0.0878931 -0.0299422 0)
(0.0682629 -0.0360668 0)
(0.0370736 -0.0700111 0)
(0.0225195 -0.0890623 0)
(0.00907151 -0.0889829 0)
(-0.0255243 -0.10143 0)
(-0.0730431 -0.122827 0)
(-0.104951 -0.131866 0)
(-0.126087 -0.131559 0)
(-0.136208 -0.123381 0)
(-0.137738 -0.113221 0)
(-0.13312 -0.106881 0)
(-0.124121 -0.107355 0)
(-0.113429 -0.112108 0)
(-0.0967717 -0.118636 0)
(-0.0787206 -0.122319 0)
(-0.0715622 -0.129641 0)
(-0.0768936 -0.135147 0)
(-0.0907433 -0.119985 0)
(-0.1065 -0.0948832 0)
(-0.119195 -0.0943665 0)
(-0.127304 -0.0899542 0)
(-0.132151 -0.0706492 0)
(-0.130627 -0.055551 0)
(-0.128293 -0.037448 0)
(-0.0996831 -0.0473531 0)
(-0.0312981 -0.0161302 0)
(0.0382337 0.529859 0)
(0.10118 0.573721 0)
(0.185912 0.623437 0)
(0.221597 0.653617 0)
(0.210972 0.680791 0)
(0.164394 0.706063 0)
(0.082308 0.69646 0)
(-0.0139601 0.69623 0)
(-0.0865182 0.770441 0)
(-0.132442 0.774954 0)
(-0.169372 0.757122 0)
(-0.19843 0.734245 0)
(-0.218279 0.705019 0)
(-0.231201 0.678597 0)
(-0.226052 0.658659 0)
(-0.205596 0.648202 0)
(-0.178275 0.638281 0)
(-0.148881 0.628333 0)
(-0.128432 0.64516 0)
(-0.120917 0.684649 0)
(-0.126138 0.703637 0)
(-0.135392 0.706532 0)
(-0.169359 0.695221 0)
(-0.228323 0.700357 0)
(-0.272527 0.686053 0)
(-0.284327 0.659071 0)
(-0.260248 0.648821 0)
(-0.217228 0.637569 0)
(-0.124079 0.568042 0)
(-0.0417947 0.494635 0)
(0.0121682 0.359971 0)
(0.02286 0.320972 0)
(0.0939919 0.35362 0)
(0.161298 0.449816 0)
(0.189903 0.558402 0)
(0.155393 0.594251 0)
(0.0751651 0.613208 0)
(-0.0282987 0.650242 0)
(-0.108746 0.584782 0)
(-0.146641 0.534607 0)
(-0.173688 0.504892 0)
(-0.197151 0.483627 0)
(-0.217939 0.474226 0)
(-0.233125 0.462188 0)
(-0.228518 0.433419 0)
(-0.207041 0.418035 0)
(-0.175164 0.408249 0)
(-0.149279 0.405451 0)
(-0.137751 0.424904 0)
(-0.133852 0.449283 0)
(-0.134674 0.473024 0)
(-0.150627 0.502481 0)
(-0.186119 0.556966 0)
(-0.228484 0.547906 0)
(-0.240496 0.499065 0)
(-0.211407 0.446182 0)
(-0.152955 0.393444 0)
(-0.0861539 0.348448 0)
(-0.0161229 0.289911 0)
(-0.0298675 0.30334 0)
(-0.00977459 0.353292 0)
(-0.0335534 0.33344 0)
(-0.0269915 0.342907 0)
(0.0108637 0.418948 0)
(0.0669712 0.563064 0)
(0.0846579 0.648501 0)
(0.0336097 0.727149 0)
(-0.0508938 0.755586 0)
(-0.113326 0.700933 0)
(-0.155972 0.656136 0)
(-0.184504 0.625366 0)
(-0.215017 0.604666 0)
(-0.244184 0.576514 0)
(-0.255856 0.538905 0)
(-0.243097 0.488851 0)
(-0.212017 0.447372 0)
(-0.171035 0.433769 0)
(-0.132974 0.442996 0)
(-0.108691 0.472155 0)
(-0.103143 0.516065 0)
(-0.111527 0.55368 0)
(-0.131839 0.590546 0)
(-0.151518 0.634124 0)
(-0.17244 0.614337 0)
(-0.127801 0.492486 0)
(-0.0581304 0.416833 0)
(0.00495348 0.376698 0)
(0.0303635 0.358972 0)
(0.030793 0.316303 0)
(0.00469367 0.298368 0)
(-0.0399587 0.425248 0)
(-0.0799198 0.374984 0)
(-0.102516 0.344571 0)
(-0.104044 0.383125 0)
(-0.0861539 0.521872 0)
(-0.0619781 0.652532 0)
(-0.0712568 0.804397 0)
(-0.115048 0.846245 0)
(-0.160319 0.75545 0)
(-0.189005 0.673586 0)
(-0.199866 0.638268 0)
(-0.217634 0.618594 0)
(-0.230916 0.583318 0)
(-0.227138 0.519894 0)
(-0.205606 0.448111 0)
(-0.176396 0.398049 0)
(-0.140108 0.38313 0)
(-0.0989105 0.407757 0)
(-0.0720948 0.453619 0)
(-0.055214 0.511777 0)
(-0.0560191 0.55907 0)
(-0.0706549 0.596994 0)
(-0.0739238 0.645036 0)
(-0.0346822 0.590481 0)
(0.0205579 0.414505 0)
(0.061927 0.35368 0)
(0.0887283 0.342371 0)
(0.0971011 0.341562 0)
(0.0783529 0.355163 0)
(0.0297414 0.353768 0)
(-0.0588138 0.482458 0)
(-0.121804 0.40167 0)
(-0.139274 0.370293 0)
(-0.147809 0.40971 0)
(-0.157366 0.502749 0)
(-0.163198 0.637152 0)
(-0.162779 0.804339 0)
(-0.157761 0.883256 0)
(-0.164471 0.791252 0)
(-0.172565 0.683722 0)
(-0.171582 0.649394 0)
(-0.182501 0.630177 0)
(-0.191656 0.575867 0)
(-0.182788 0.491692 0)
(-0.164129 0.412645 0)
(-0.139244 0.357101 0)
(-0.106539 0.331869 0)
(-0.0624204 0.344796 0)
(-0.0108903 0.396606 0)
(0.0160002 0.50297 0)
(0.0220822 0.587807 0)
(0.0182505 0.624012 0)
(0.0398885 0.62697 0)
(0.077518 0.513733 0)
(0.0974195 0.376061 0)
(0.109503 0.33718 0)
(0.122923 0.335615 0)
(0.126831 0.356223 0)
(0.111429 0.405737 0)
(0.0532019 0.436558 0)
(-0.0339159 0.499188 0)
(-0.0927066 0.340659 0)
(-0.128603 0.306483 0)
(-0.148706 0.409783 0)
(-0.1559 0.549929 0)
(-0.165867 0.654855 0)
(-0.169094 0.777037 0)
(-0.141377 0.858523 0)
(-0.121188 0.785922 0)
(-0.125242 0.676303 0)
(-0.126449 0.642234 0)
(-0.129912 0.632823 0)
(-0.131872 0.567505 0)
(-0.12837 0.475791 0)
(-0.121805 0.394474 0)
(-0.102679 0.326082 0)
(-0.068372 0.292 0)
(-0.0317715 0.301112 0)
(0.00207581 0.349305 0)
(0.0418527 0.44299 0)
(0.0668066 0.554401 0)
(0.0768202 0.600217 0)
(0.0942186 0.587201 0)
(0.105683 0.484143 0)
(0.102197 0.382552 0)
(0.107142 0.334791 0)
(0.136872 0.320197 0)
(0.157879 0.362642 0)
(0.124225 0.395612 0)
(0.0578898 0.463552 0)
(0.0088022 0.721489 0)
(0.00195916 0.524134 0)
(-0.00404411 0.366961 0)
(-0.0129958 0.317175 0)
(-0.0327998 0.457899 0)
(-0.0730237 0.625042 0)
(-0.0941591 0.736909 0)
(-0.0830356 0.784054 0)
(-0.0835143 0.738198 0)
(-0.106552 0.659916 0)
(-0.114151 0.639157 0)
(-0.106933 0.633364 0)
(-0.0979507 0.57207 0)
(-0.101129 0.490276 0)
(-0.0980097 0.395806 0)
(-0.0721449 0.302973 0)
(-0.0354393 0.260727 0)
(0.00180855 0.27201 0)
(0.0321103 0.328436 0)
(0.0537815 0.417938 0)
(0.0674436 0.522185 0)
(0.0740145 0.572628 0)
(0.078227 0.55705 0)
(0.0659679 0.500854 0)
(0.0449251 0.403432 0)
(0.0705343 0.31911 0)
(0.106004 0.274335 0)
(0.112312 0.307093 0)
(0.0820326 0.467182 0)
(0.0251554 0.642346 0)
(0.0564381 0.566132 0)
(0.161215 0.441671 0)
(0.273899 0.417443 0)
(0.311062 0.464102 0)
(0.262103 0.604198 0)
(0.147862 0.687249 0)
(0.0521744 0.722617 0)
(0.0050678 0.728084 0)
(-0.00924577 0.709742 0)
(-0.0341993 0.585177 0)
(-0.077149 0.551437 0)
(-0.0939053 0.53944 0)
(-0.0891391 0.509018 0)
(-0.0853548 0.453865 0)
(-0.0726784 0.373278 0)
(-0.0478888 0.277089 0)
(-0.0150048 0.235334 0)
(0.0337575 0.252119 0)
(0.0732019 0.32264 0)
(0.0935222 0.431495 0)
(0.0871913 0.552925 0)
(0.0633094 0.59575 0)
(0.0366226 0.587752 0)
(-0.0161084 0.543367 0)
(-0.0641311 0.413393 0)
(-0.0694146 0.238001 0)
(-0.0696454 0.234144 0)
(-0.0534702 0.419737 0)
(-0.0344802 0.570787 0)
(-0.0137548 0.636381 0)
(0.0630876 0.473594 0)
(0.175083 0.277263 0)
(0.311538 0.227633 0)
(0.444396 0.352718 0)
(0.54206 0.747996 0)
(0.458316 0.977399 0)
(0.282091 1.01473 0)
(0.151026 0.979228 0)
(0.0775369 0.944548 0)
(-0.0166417 0.83652 0)
(-0.13003 0.798559 0)
(-0.192777 0.704313 0)
(-0.190288 0.589567 0)
(-0.143832 0.46164 0)
(-0.0906121 0.295791 0)
(-0.033911 0.189611 0)
(0.0360858 0.12612 0)
(0.0942825 0.158085 0)
(0.123325 0.244916 0)
(0.127017 0.364801 0)
(0.118211 0.507317 0)
(0.0746632 0.559623 0)
(0.0118506 0.572263 0)
(-0.11429 0.559761 0)
(-0.260142 0.416896 0)
(-0.364676 0.276534 0)
(-0.359412 0.255863 0)
(-0.252297 0.310258 0)
(-0.118568 0.430045 0)
(-0.0237986 0.582687 0)
(0.0678491 0.354944 0)
(0.149341 0.163453 0)
(0.221231 0.094224 0)
(0.308555 0.203906 0)
(0.40729 0.628614 0)
(0.432143 1.02099 0)
(0.330867 1.08841 0)
(0.220119 1.03963 0)
(0.109656 0.990832 0)
(-0.0183326 0.937051 0)
(-0.158982 0.872038 0)
(-0.232772 0.723429 0)
(-0.206786 0.568371 0)
(-0.136647 0.456056 0)
(-0.0701509 0.363199 0)
(0.0417418 0.182562 0)
(0.139065 0.0833842 0)
(0.199111 0.143734 0)
(0.207539 0.268343 0)
(0.17813 0.43628 0)
(0.155969 0.676453 0)
(0.0903053 0.753385 0)
(-0.0556268 0.818148 0)
(-0.317825 0.917364 0)
(-0.519387 0.680863 0)
(-0.488316 0.27684 0)
(-0.386205 0.118576 0)
(-0.257873 0.158986 0)
(-0.149994 0.288069 0)
(-0.0477395 0.511701 0)
(0.063813 0.244554 0)
(0.122634 0.107689 0)
(0.147609 0.0495664 0)
(0.173172 0.138731 0)
(0.226511 0.576349 0)
(0.256686 1.00833 0)
(0.24739 1.10502 0)
(0.178442 1.08161 0)
(0.0877785 1.04722 0)
(-0.0344884 1.00772 0)
(-0.159303 0.924416 0)
(-0.203999 0.684514 0)
(-0.15401 0.43733 0)
(-0.0750709 0.337463 0)
(0.0314841 0.179822 0)
(0.12736 0.027553 0)
(0.170995 0.0150258 0)
(0.183722 0.147633 0)
(0.171558 0.384672 0)
(0.12294 0.50817 0)
(0.112879 0.690719 0)
(0.0624454 0.881319 0)
(-0.0858342 1.06111 0)
(-0.283469 1.1386 0)
(-0.417401 0.761688 0)
(-0.332722 0.164744 0)
(-0.281862 0.00830706 0)
(-0.207574 0.0748911 0)
(-0.149352 0.194004 0)
(-0.0616876 0.39897 0)
(0.0376589 0.167055 0)
(0.068623 0.0767345 0)
(0.0788403 0.0364726 0)
(0.0727989 0.124103 0)
(0.0870159 0.557238 0)
(0.139777 0.981248 0)
(0.173622 1.13493 0)
(0.145019 1.16475 0)
(0.0594225 1.16508 0)
(-0.0475604 1.14122 0)
(-0.14245 1.01284 0)
(-0.156885 0.670569 0)
(-0.094558 0.377321 0)
(0.0114004 0.226003 0)
(0.0958453 0.0863527 0)
(0.125415 -0.0246971 0)
(0.113026 -0.00638572 0)
(0.0851113 0.143493 0)
(0.0563754 0.364071 0)
(0.0439187 0.466089 0)
(0.0637671 0.641577 0)
(0.0547942 0.898591 0)
(-0.00381253 1.07813 0)
(-0.0602873 1.14796 0)
(-0.161893 0.834766 0)
(-0.168115 0.126368 0)
(-0.181011 -0.0323839 0)
(-0.153305 0.0310163 0)
(-0.120123 0.135714 0)
(-0.0550194 0.300079 0)
(0.0102488 0.135672 0)
(0.00525842 0.0714759 0)
(-0.0101486 0.0346675 0)
(-0.0218421 0.145079 0)
(-0.0170237 0.527519 0)
(0.0650065 0.912356 0)
(0.155674 1.12859 0)
(0.144197 1.21351 0)
(0.066356 1.25189 0)
(-0.0296813 1.22946 0)
(-0.0980907 1.04874 0)
(-0.0885977 0.663828 0)
(-0.00305201 0.255446 0)
(0.0721731 0.145204 0)
(0.099779 0.0562757 0)
(0.0750005 -0.00240421 0)
(0.0149361 0.0499688 0)
(-0.0475818 0.207582 0)
(-0.0674454 0.380191 0)
(-0.0388541 0.449422 0)
(0.0033605 0.615521 0)
(0.0513681 0.916868 0)
(0.0640027 1.10674 0)
(0.0537654 1.17984 0)
(0.0323359 0.901637 0)
(-0.0337106 0.187551 0)
(-0.0700287 -0.025479 0)
(-0.0849901 0.00896439 0)
(-0.0790326 0.0974407 0)
(-0.0340564 0.22554 0)
(-0.00352232 0.15037 0)
(-0.0308181 0.113255 0)
(-0.0677052 0.0909148 0)
(-0.179796 0.186105 0)
(-0.147861 0.488699 0)
(-0.0250066 0.775462 0)
(0.150749 1.07135 0)
(0.196464 1.27583 0)
(0.112976 1.34143 0)
(0.0190607 1.30887 0)
(-0.040658 1.07606 0)
(-0.00121705 0.595996 0)
(0.0629573 0.186303 0)
(0.0857789 0.125668 0)
(0.0655092 0.0783028 0)
(0.000578545 0.0595971 0)
(-0.091906 0.134575 0)
(-0.161326 0.255993 0)
(-0.167679 0.354858 0)
(-0.122321 0.428235 0)
(-0.0860532 0.551121 0)
(-0.00572019 0.865839 0)
(0.0727678 1.10273 0)
(0.0915171 1.17111 0)
(0.157394 0.901166 0)
(0.106103 0.260279 0)
(0.0551314 0.0244552 0)
(0.0146872 0.023288 0)
(-0.0180931 0.0960117 0)
(-0.015632 0.184851 0)
(-0.00612523 0.159259 0)
(-0.0279435 0.142581 0)
(-0.0596856 0.139399 0)
(-0.0898036 0.194361 0)
(-0.20376 0.404119 0)
(-0.108555 0.631094 0)
(0.0684651 0.892336 0)
(0.242044 1.28968 0)
(0.174514 1.43437 0)
(0.0818475 1.37667 0)
(0.0270947 1.08776 0)
(0.0678334 0.523501 0)
(0.0972227 0.16763 0)
(0.0800833 0.14451 0)
(0.0246195 0.136139 0)
(-0.0725236 0.15782 0)
(-0.180665 0.226321 0)
(-0.237457 0.279592 0)
(-0.244057 0.305224 0)
(-0.218586 0.354859 0)
(-0.191112 0.515667 0)
(-0.123341 0.748167 0)
(-0.0063138 1.0487 0)
(0.0860356 1.14524 0)
(0.238417 0.849919 0)
(0.249639 0.332024 0)
(0.186995 0.0957682 0)
(0.103347 0.0883621 0)
(0.0365457 0.138351 0)
(0.00241239 0.18796 0)
(-0.0062893 0.170205 0)
(-0.0330407 0.173606 0)
(-0.0727866 0.191092 0)
(-0.138352 0.28668 0)
(-0.190288 0.410782 0)
(-0.12465 0.483273 0)
(0.0134832 0.628797 0)
(0.166905 1.20972 0)
(0.193018 1.50452 0)
(0.109871 1.44025 0)
(0.0830875 1.14724 0)
(0.122149 0.463232 0)
(0.117419 0.188186 0)
(0.0706235 0.198407 0)
(-0.0172793 0.230367 0)
(-0.107254 0.265943 0)
(-0.171649 0.291951 0)
(-0.210032 0.312848 0)
(-0.234617 0.330693 0)
(-0.252143 0.36452 0)
(-0.245991 0.468924 0)
(-0.198631 0.681833 0)
(-0.0953467 0.891566 0)
(0.0697969 0.99018 0)
(0.266041 0.729676 0)
(0.283573 0.324283 0)
(0.203911 0.180647 0)
(0.113419 0.173006 0)
(0.0516279 0.193088 0)
(0.0100306 0.212213 0)
(-0.0113506 0.192651 0)
(-0.0480651 0.214644 0)
(-0.102883 0.253494 0)
(-0.169593 0.339009 0)
(-0.178329 0.40784 0)
(-0.154721 0.433634 0)
(-0.061989 0.49304 0)
(0.0312752 1.10472 0)
(0.167908 1.52808 0)
(0.119921 1.47378 0)
(0.12947 1.10892 0)
(0.159077 0.432179 0)
(0.112032 0.245189 0)
(0.0501189 0.281761 0)
(-0.0161803 0.30045 0)
(-0.0628046 0.318517 0)
(-0.0993924 0.33196 0)
(-0.130865 0.342043 0)
(-0.161206 0.354218 0)
(-0.194217 0.382991 0)
(-0.213461 0.456321 0)
(-0.189642 0.596879 0)
(-0.10077 0.76624 0)
(0.0840815 0.809212 0)
(0.239849 0.583734 0)
(0.234823 0.3577 0)
(0.16315 0.264354 0)
(0.101001 0.241042 0)
(0.0503095 0.23833 0)
(0.012555 0.239355 0)
(-0.0192244 0.222755 0)
(-0.0653972 0.266512 0)
(-0.123341 0.319478 0)
(-0.162407 0.371378 0)
(-0.174691 0.403022 0)
(-0.179306 0.41252 0)
(-0.159456 0.452866 0)
(-0.107653 0.909891 0)
(0.106513 1.44301 0)
(0.169324 1.54245 0)
(0.207113 1.06982 0)
(0.16845 0.448543 0)
(0.103815 0.308961 0)
(0.0647597 0.335192 0)
(0.0203766 0.341201 0)
(-0.00905446 0.353054 0)
(-0.0346225 0.360522 0)
(-0.0580714 0.368768 0)
(-0.0816294 0.381529 0)
(-0.104369 0.404629 0)
(-0.118507 0.450422 0)
(-0.107593 0.534418 0)
(-0.0419595 0.61913 0)
(0.0866084 0.618792 0)
(0.167225 0.504115 0)
(0.161973 0.385858 0)
(0.127532 0.322402 0)
(0.0831538 0.29317 0)
(0.0442786 0.276502 0)
(0.0124106 0.268425 0)
(-0.0277956 0.273507 0)
(-0.0691556 0.320204 0)
(-0.101909 0.36142 0)
(-0.122053 0.396261 0)
(-0.151595 0.429456 0)
(-0.189428 0.457662 0)
(-0.234316 0.500722 0)
(-0.213179 0.76561 0)
(0.0255301 1.3205 0)
(0.252327 1.45402 0)
(0.313371 1.06196 0)
(0.201457 0.524988 0)
(0.126163 0.373272 0)
(0.0864999 0.373362 0)
(0.0532693 0.372308 0)
(0.029293 0.375518 0)
(0.010181 0.379913 0)
(-0.00745943 0.387738 0)
(-0.0245005 0.40001 0)
(-0.0394624 0.418394 0)
(-0.0468298 0.448643 0)
(-0.0345921 0.49586 0)
(0.00949495 0.537132 0)
(0.0748516 0.53224 0)
(0.116948 0.474701 0)
(0.118791 0.407627 0)
(0.0945952 0.361264 0)
(0.0632377 0.328899 0)
(0.0351021 0.306045 0)
(0.0100414 0.294138 0)
(-0.0200245 0.314832 0)
(-0.0423347 0.345621 0)
(-0.0529828 0.377253 0)
(-0.0690175 0.413233 0)
(-0.0965868 0.456392 0)
(-0.130921 0.484669 0)
(-0.167852 0.506246 0)
(-0.174778 0.57769 0)
(-0.0642028 1.01315 0)
(0.241451 1.31378 0)
(0.389686 1.06906 0)
(0.25394 0.652767 0)
(0.153595 0.447198 0)
(0.107098 0.409151 0)
(0.0789976 0.398746 0)
(0.0576094 0.394339 0)
(0.0418231 0.395885 0)
(0.0283419 0.402799 0)
(0.0163791 0.414614 0)
(0.00653635 0.431779 0)
(0.00192137 0.454964 0)
(0.0098525 0.482283 0)
(0.0353912 0.50265 0)
(0.0690363 0.497799 0)
(0.0893399 0.466882 0)
(0.0867352 0.425217 0)
(0.0684457 0.387159 0)
(0.0458749 0.354202 0)
(0.0248407 0.328207 0)
(0.00599085 0.313583 0)
(-0.00509945 0.343355 0)
(-0.0117825 0.349838 0)
(-0.0202587 0.384152 0)
(-0.0362116 0.430821 0)
(-0.0583527 0.48063 0)
(-0.0867131 0.521048 0)
(-0.127166 0.561381 0)
(-0.176618 0.619399 0)
(-0.160538 0.728679 0)
(0.0404387 1.00844 0)
(0.302936 1.04118 0)
(0.274573 0.78449 0)
(0.170317 0.529604 0)
(0.116284 0.445054 0)
(0.0933919 0.420698 0)
(0.0774345 0.410058 0)
(0.0653418 0.408571 0)
(0.055596 0.413894 0)
(0.0475735 0.424419 0)
(0.0417127 0.439459 0)
(0.0398001 0.457935 0)
(0.0446138 0.476725 0)
(0.0568304 0.488955 0)
(0.070713 0.485942 0)
(0.0766575 0.467636 0)
(0.0701824 0.439454 0)
(0.0538631 0.407738 0)
(0.0343991 0.374475 0)
(0.0168838 0.345546 0)
(0.00239105 0.326256 0)
(0.0107001 0.341422 0)
(0.00485916 0.351863 0)
(-0.00419428 0.395543 0)
(-0.0173124 0.448548 0)
(-0.0308161 0.499572 0)
(-0.0490998 0.551565 0)
(-0.0793819 0.609972 0)
(-0.1525 0.702248 0)
(-0.198913 0.707207 0)
(-0.119841 0.756188 0)
(0.0568282 0.739205 0)
(0.216133 0.82192 0)
(0.16798 0.610263 0)
(0.113023 0.478572 0)
(0.095343 0.435232 0)
(0.0885979 0.420292 0)
(0.0821556 0.417084 0)
(0.0762283 0.421266 0)
(0.0710714 0.430672 0)
(0.0672065 0.443656 0)
(0.0656885 0.458242 0)
(0.067522 0.471572 0)
(0.072343 0.47986 0)
(0.0770097 0.479811 0)
(0.0767143 0.470952 0)
(0.0683708 0.452738 0)
(0.0512777 0.427657 0)
(0.0311309 0.393332 0)
(0.0139164 0.361339 0)
(0.00138068 0.333802 0)
(0.0110659 0.331422 0)
(0.00603754 0.359056 0)
(-0.0025016 0.405745 0)
(-0.00838757 0.457572 0)
(-0.00978939 0.507643 0)
(-0.0113825 0.566936 0)
(-0.0166433 0.640426 0)
(-0.120964 0.818158 0)
(-0.206739 0.711648 0)
(-0.159821 0.684327 0)
(-0.0684187 0.651881 0)
(0.0436682 0.694324 0)
(0.129572 0.652464 0)
(0.0994189 0.505236 0)
(0.0896406 0.4395 0)
(0.0931104 0.423063 0)
(0.0936484 0.420847 0)
(0.0915729 0.425596 0)
(0.088408 0.434966 0)
(0.0851246 0.447014 0)
(0.082609 0.459564 0)
(0.0816091 0.470287 0)
(0.0821682 0.47726 0)
(0.0830173 0.479271 0)
(0.0815496 0.475686 0)
(0.075008 0.464732 0)
(0.0584489 0.448058 0)
(0.037098 0.412341 0)
(0.016248 0.378768 0)
(0.000853421 0.340723 0)
(0.00622087 0.322723 0)
(-0.00503909 0.370755 0)
(-0.013642 0.411482 0)
(-0.0115406 0.45724 0)
(-0.00112488 0.500947 0)
(0.0147685 0.562761 0)
(0.0252666 0.6589 0)
(-0.0915784 1.02769 0)
(-0.200593 0.721168 0)
(-0.182067 0.624461 0)
(-0.119687 0.573384 0)
(-0.036963 0.588417 0)
(0.0616666 0.635636 0)
(0.0891255 0.515275 0)
(0.0853595 0.434087 0)
(0.0961116 0.418802 0)
(0.10234 0.42011 0)
(0.103395 0.427578 0)
(0.101324 0.43848 0)
(0.0974752 0.451098 0)
(0.0927655 0.463272 0)
(0.0881752 0.472894 0)
(0.0845855 0.478848 0)
(0.082445 0.480609 0)
(0.0814379 0.479347 0)
(0.0798075 0.474622 0)
(0.0699861 0.469641 0)
(0.0525555 0.433687 0)
(0.023595 0.405404 0)
(0.0023339 0.345474 0)
(0.00146242 0.324055 0)
(-0.0203291 0.395949 0)
(-0.0331485 0.414786 0)
(-0.0285463 0.451331 0)
(-0.0137111 0.483121 0)
(0.0139407 0.541831 0)
(0.0256758 0.690451 0)
(-0.0293136 1.15765 0)
(-0.164423 0.796929 0)
(-0.183857 0.574965 0)
(-0.135626 0.509794 0)
(-0.0696143 0.495104 0)
(7.38665e-05 0.565473 0)
(0.0848496 0.503412 0)
(0.0882301 0.421336 0)
(0.101693 0.409457 0)
(0.110709 0.416103 0)
(0.113621 0.428045 0)
(0.11178 0.442213 0)
(0.106353 0.457147 0)
(0.0980989 0.470703 0)
(0.0881466 0.480464 0)
(0.0781886 0.485043 0)
(0.0700469 0.484708 0)
(0.0653228 0.481334 0)
(0.0647528 0.478028 0)
(0.0657308 0.48137 0)
(0.064363 0.457671 0)
(0.0324955 0.441141 0)
(0.0119992 0.357494 0)
(-0.00332192 0.335227 0)
(-0.0300016 0.417988 0)
(-0.0588199 0.421596 0)
(-0.0604562 0.446508 0)
(-0.0508396 0.461227 0)
(-0.0215571 0.507338 0)
(-0.00537656 0.719621 0)
(0.0296097 1.22898 0)
(-0.114007 0.973537 0)
(-0.143921 0.545797 0)
(-0.120486 0.455763 0)
(-0.0706659 0.428825 0)
(-0.0157477 0.48551 0)
(0.0800168 0.463493 0)
(0.0967277 0.404577 0)
(0.110276 0.398074 0)
(0.12013 0.410536 0)
(0.124059 0.427832 0)
(0.122077 0.446849 0)
(0.114508 0.466181 0)
(0.101614 0.483376 0)
(0.0844783 0.494984 0)
(0.0660844 0.498636 0)
(0.0497563 0.495057 0)
(0.0376366 0.486456 0)
(0.031455 0.47676 0)
(0.0333129 0.472595 0)
(0.0426859 0.463134 0)
(0.0391782 0.471825 0)
(0.0269806 0.392101 0)
(-0.0125302 0.351638 0)
(-0.0321705 0.43772 0)
(-0.0944095 0.446729 0)
(-0.104476 0.450904 0)
(-0.104921 0.445523 0)
(-0.0871296 0.472135 0)
(-0.0689321 0.70106 0)
(0.107057 1.16694 0)
(0.0333479 1.10526 0)
(-0.0724994 0.563004 0)
(-0.089802 0.414039 0)
(-0.0535766 0.380239 0)
(-0.00576527 0.410807 0)
(0.0763365 0.412234 0)
(0.105304 0.384997 0)
(0.120238 0.385955 0)
(0.131073 0.403871 0)
(0.136377 0.426929 0)
(0.134931 0.452217 0)
(0.125725 0.478455 0)
(0.107506 0.502793 0)
(0.0811733 0.519134 0)
(0.0529432 0.520952 0)
(0.0292969 0.51233 0)
(0.012295 0.497288 0)
(0.00210945 0.480118 0)
(-0.000241908 0.464448 0)
(0.00518995 0.450794 0)
(0.015884 0.461073 0)
(0.0200459 0.431181 0)
(-0.0290694 0.397012 0)
(-0.0597046 0.492615 0)
(-0.130668 0.49409 0)
(-0.149751 0.465411 0)
(-0.157849 0.442709 0)
(-0.157176 0.449197 0)
(-0.136218 0.607468 0)
(0.081601 0.982544 0)
(0.161267 1.2757 0)
(-0.0261361 0.698589 0)
(-0.055327 0.386907 0)
(-0.0242351 0.338589 0)
(0.0179128 0.34962 0)
(0.0787411 0.362465 0)
(0.112908 0.36131 0)
(0.13085 0.371855 0)
(0.144305 0.39511 0)
(0.152712 0.423963 0)
(0.153873 0.456972 0)
(0.144913 0.494066 0)
(0.120046 0.531375 0)
(0.0793233 0.555625 0)
(0.0377976 0.552282 0)
(0.00723921 0.536021 0)
(-0.0120519 0.51249 0)
(-0.0219494 0.487889 0)
(-0.0254968 0.463534 0)
(-0.0235711 0.442781 0)
(-0.0133869 0.436529 0)
(-0.00489473 0.442271 0)
(-0.0221622 0.449896 0)
(-0.0669661 0.538365 0)
(-0.145228 0.544263 0)
(-0.181025 0.487314 0)
(-0.194832 0.452065 0)
(-0.202252 0.443075 0)
(-0.174282 0.51411 0)
(-0.0864822 0.70486 0)
(0.147555 1.27338 0)
(0.0233211 0.848713 0)
(-0.0101754 0.364994 0)
(0.00992705 0.302436 0)
(0.0436657 0.305317 0)
(0.0876011 0.32111 0)
(0.120484 0.335008 0)
(0.14226 0.354434 0)
(0.160351 0.382368 0)
(0.174248 0.416535 0)
(0.181814 0.458454 0)
(0.175539 0.509144 0)
(0.141752 0.569318 0)
(0.0771045 0.605454 0)
(0.0163445 0.588284 0)
(-0.020423 0.56192 0)
(-0.0405968 0.525859 0)
(-0.0462517 0.493965 0)
(-0.0445802 0.465532 0)
(-0.0399166 0.439592 0)
(-0.0311431 0.420034 0)
(-0.0172072 0.42336 0)
(-0.0192705 0.493767 0)
(-0.0687464 0.59274 0)
(-0.163984 0.602015 0)
(-0.207867 0.515382 0)
(-0.223238 0.466795 0)
(-0.228609 0.442628 0)
(-0.206141 0.462372 0)
(-0.176261 0.623224 0)
(0.0898583 1.1419 0)
(0.0823125 0.925662 0)
(0.0229245 0.35979 0)
(0.0328603 0.274506 0)
(0.062158 0.270649 0)
(0.0974881 0.287381 0)
(0.128149 0.30775 0)
(0.154121 0.332644 0)
(0.178022 0.363599 0)
(0.199886 0.401792 0)
(0.215714 0.450317 0)
(0.210475 0.521164 0)
(0.166002 0.622385 0)
(0.0754873 0.672915 0)
(0.00461311 0.628428 0)
(-0.0427334 0.590592 0)
(-0.0692461 0.534394 0)
(-0.0712415 0.490146 0)
(-0.0614681 0.459411 0)
(-0.0486655 0.432714 0)
(-0.035088 0.407831 0)
(-0.0171857 0.394217 0)
(-0.023602 0.525191 0)
(-0.0784501 0.665849 0)
(-0.195713 0.667578 0)
(-0.232788 0.547103 0)
(-0.249961 0.48113 0)
(-0.256308 0.441932 0)
(-0.247758 0.431719 0)
(-0.216988 0.52924 0)
(-0.0583081 0.826161 0)
(0.12895 1.07799 0)
(0.0465426 0.376905 0)
(0.0409077 0.251173 0)
(0.0690402 0.239672 0)
(0.102865 0.255892 0)
(0.134571 0.279172 0)
(0.164468 0.306158 0)
(0.194144 0.338058 0)
(0.222541 0.378049 0)
(0.240497 0.434517 0)
(0.220179 0.554958 0)
(0.182375 0.728914 0)
(0.121155 0.789867 0)
(0.0458083 0.710706 0)
(-0.0264796 0.645523 0)
(-0.0761598 0.551425 0)
(-0.0878514 0.480499 0)
(-0.0738779 0.443504 0)
(-0.0540041 0.417373 0)
(-0.0338636 0.392586 0)
(-0.0133274 0.370201 0)
(-0.0642296 0.581953 0)
(-0.121174 0.790158 0)
(-0.219632 0.743361 0)
(-0.24451 0.589305 0)
(-0.267834 0.497149 0)
(-0.275582 0.443682 0)
(-0.271871 0.416689 0)
(-0.237703 0.451638 0)
(-0.166495 0.649738 0)
(0.0641699 1.00314 0)
(0.0590228 0.429015 0)
(0.0360684 0.230215 0)
(0.0676708 0.208658 0)
(0.102695 0.223561 0)
(0.136644 0.247579 0)
(0.170089 0.275142 0)
(0.20378 0.307374 0)
(0.23161 0.350476 0)
(0.236856 0.426118 0)
(0.228277 0.645967 0)
(0.195502 0.753131 0)
(0.173272 0.811527 0)
(0.136864 0.780561 0)
(0.0410774 0.751502 0)
(-0.0430284 0.614532 0)
(-0.0800841 0.477253 0)
(-0.0755487 0.42467 0)
(-0.0553149 0.396181 0)
(-0.032964 0.373851 0)
(-0.0110525 0.347865 0)
(-0.0905371 0.709138 0)
(-0.112514 0.896119 0)
(-0.154383 0.760017 0)
(-0.219856 0.64447 0)
(-0.272608 0.522053 0)
(-0.287593 0.452294 0)
(-0.288144 0.408819 0)
(-0.267016 0.401053 0)
(-0.215248 0.547246 0)
(-0.0403101 0.787566 0)
(0.0496251 0.477431 0)
(0.031289 0.204512 0)
(0.0650811 0.176957 0)
(0.0983361 0.190642 0)
(0.133559 0.21368 0)
(0.169236 0.241126 0)
(0.202713 0.274616 0)
(0.22302 0.327216 0)
(0.209622 0.445696 0)
(0.201125 0.665547 0)
(0.208245 0.726665 0)
(0.231068 0.833744 0)
(0.190736 0.835355 0)
(0.15066 0.824598 0)
(0.0318403 0.733909 0)
(-0.0351922 0.50948 0)
(-0.0632866 0.410482 0)
(-0.0502797 0.375946 0)
(-0.0303982 0.353156 0)
(-0.00968964 0.326517 0)
(-0.00887598 0.799299 0)
(0.000145945 0.860644 0)
(-0.0127778 0.814209 0)
(-0.182587 0.751457 0)
(-0.284033 0.556297 0)
(-0.301857 0.463112 0)
(-0.302257 0.403764 0)
(-0.288703 0.37049 0)
(-0.243355 0.436627 0)
(-0.124592 0.648943 0)
(0.0213278 0.452196 0)
(0.0222535 0.172727 0)
(0.0555652 0.146787 0)
(0.0883314 0.157524 0)
(0.124861 0.17813 0)
(0.161763 0.206085 0)
(0.19259 0.243727 0)
(0.204108 0.310478 0)
(0.200556 0.492345 0)
(0.205278 0.64343 0)
(0.215604 0.716036 0)
(0.248681 0.820541 0)
(0.261645 0.862866 0)
(0.22841 0.862656 0)
(0.148052 0.839194 0)
(0.0168465 0.615614 0)
(-0.0381356 0.411814 0)
(-0.0390594 0.360345 0)
(-0.0247659 0.334126 0)
(-0.00778782 0.307946 0)
(0.109518 0.745648 0)
(0.0955448 0.832056 0)
(0.115753 0.870886 0)
(-0.112596 0.967015 0)
(-0.295832 0.603564 0)
(-0.318992 0.470825 0)
(-0.315059 0.397291 0)
(-0.29886 0.352887 0)
(-0.263576 0.351379 0)
(-0.184878 0.50817 0)
(-0.00527847 0.384421 0)
(0.00745761 0.144949 0)
(0.0384584 0.117756 0)
(0.0728714 0.122896 0)
(0.110994 0.141222 0)
(0.146678 0.171854 0)
(0.171405 0.217551 0)
(0.168068 0.306354 0)
(0.186198 0.524573 0)
(0.218177 0.620446 0)
(0.247142 0.711895 0)
(0.266809 0.803377 0)
(0.270736 0.847139 0)
(0.275119 0.917976 0)
(0.20746 0.918616 0)
(0.0805813 0.760277 0)
(-0.0032472 0.442484 0)
(-0.0240722 0.352839 0)
(-0.0169883 0.319552 0)
(-0.00488784 0.293765 0)
(0.0749665 0.611188 0)
(0.109636 0.811249 0)
(0.0957495 0.939112 0)
(-0.0193779 1.31027 0)
(-0.289924 0.7089 0)
(-0.332753 0.470477 0)
(-0.321721 0.379886 0)
(-0.296902 0.332484 0)
(-0.26395 0.300719 0)
(-0.20869 0.365254 0)
(-0.0361426 0.292062 0)
(-0.0125144 0.120223 0)
(0.0171947 0.0873473 0)
(0.0548449 0.0854628 0)
(0.0948572 0.103734 0)
(0.126565 0.142073 0)
(0.140084 0.200914 0)
(0.124827 0.313494 0)
(0.185911 0.483828 0)
(0.237235 0.570436 0)
(0.262621 0.686281 0)
(0.253714 0.79069 0)
(0.227863 0.858159 0)
(0.207453 0.908626 0)
(0.207364 1.01004 0)
(0.112157 0.903402 0)
(0.0216707 0.50815 0)
(-0.010307 0.356552 0)
(-0.00834534 0.308603 0)
(-9.2087e-05 0.285662 0)
(0.0427781 0.534135 0)
(0.0438375 0.806885 0)
(-0.0641753 1.06739 0)
(-0.17786 1.38737 0)
(-0.330182 0.939902 0)
(-0.331076 0.466967 0)
(-0.314016 0.352873 0)
(-0.285229 0.304312 0)
(-0.248566 0.26235 0)
(-0.202431 0.252367 0)
(-0.0880386 0.203488 0)
(-0.0368012 0.0924926 0)
(-0.00299621 0.0522753 0)
(0.0388361 0.0443842 0)
(0.0815715 0.065566 0)
(0.108673 0.119704 0)
(0.107112 0.197243 0)
(0.102825 0.305306 0)
(0.160689 0.4127 0)
(0.201389 0.521957 0)
(0.230739 0.652427 0)
(0.218831 0.814101 0)
(0.167652 0.912671 0)
(0.114312 0.938249 0)
(0.101143 0.954093 0)
(0.0884271 1.02253 0)
(0.0128268 0.594578 0)
(-0.00297457 0.37112 0)
(0.00059187 0.296129 0)
(0.0083739 0.285721 0)
(0.00462632 0.450448 0)
(-0.0216033 0.937894 0)
(-0.223561 1.28854 0)
(-0.223592 1.3732 0)
(-0.260874 1.00949 0)
(-0.285323 0.462325 0)
(-0.275703 0.328756 0)
(-0.254388 0.271515 0)
(-0.22219 0.226767 0)
(-0.18153 0.184147 0)
(-0.116494 0.129692 0)
(-0.0572699 0.053523 0)
(-0.0164362 0.0108297 0)
(0.0293055 -6.13109e-05 0)
(0.0753911 0.0256443 0)
(0.0978933 0.10722 0)
(0.0867082 0.202147 0)
(0.101153 0.295351 0)
(0.123174 0.365288 0)
(0.151063 0.486339 0)
(0.177355 0.636111 0)
(0.171643 0.856333 0)
(0.121255 0.983913 0)
(0.0777837 0.971075 0)
(0.0535093 0.961041 0)
(-0.028222 1.05916 0)
(-0.107158 0.635938 0)
(-0.0307791 0.359424 0)
(-0.00218261 0.266627 0)
(0.018483 0.297746 0)
(-0.157089 0.446624 0)
(-0.101695 1.24257 0)
(-0.255558 1.31373 0)
(-0.170294 1.30796 0)
(-0.119078 1.06827 0)
(-0.228747 0.501448 0)
(-0.230313 0.314472 0)
(-0.216373 0.246931 0)
(-0.191406 0.19266 0)
(-0.157716 0.137415 0)
(-0.114094 0.0735613 0)
(-0.0644177 0.00907618 0)
(-0.0186344 -0.0339166 0)
(0.0307338 -0.0460712 0)
(0.0800968 -0.0182063 0)
(0.0951362 0.106877 0)
(0.0783611 0.220888 0)
(0.104601 0.294772 0)
(0.106489 0.365552 0)
(0.106105 0.482225 0)
(0.105803 0.6156 0)
(0.10387 0.864008 0)
(0.137002 1.01935 0)
(0.121057 0.998379 0)
(0.0680901 0.985731 0)
(-0.185547 1.03185 0)
(-0.265374 0.547311 0)
(-0.129724 0.262403 0)
(-0.0496103 0.206339 0)
(0.0004864 0.324458 0)
(-0.199242 0.586347 0)
(-0.165961 1.34405 0)
(-0.187861 1.2401 0)
(-0.0915129 1.21836 0)
(0.0396985 1.07964 0)
(-0.106763 0.604017 0)
(-0.169348 0.317297 0)
(-0.17646 0.232935 0)
(-0.159229 0.163412 0)
(-0.131869 0.104685 0)
(-0.100369 0.0297378 0)
(-0.0565664 -0.0347892 0)
(-0.00888049 -0.0805183 0)
(0.0482044 -0.0982254 0)
(0.110296 -0.07716 0)
(0.138355 0.10376 0)
(0.204433 0.258089 0)
(0.189476 0.329936 0)
(0.220064 0.411446 0)
(0.271718 0.538127 0)
(0.337906 0.671987 0)
(0.442738 0.900804 0)
(0.406365 1.02331 0)
(0.316931 1.03465 0)
(0.156415 1.18905 0)
(-0.210482 1.48252 0)
(-0.376303 0.529523 0)
(-0.234511 0.126804 0)
(-0.135497 0.121109 0)
(-0.0797761 0.266209 0)
(-0.225341 0.749 0)
(-0.210177 1.31471 0)
(-0.139545 1.14391 0)
(-0.00772997 1.09788 0)
(0.139986 1.01419 0)
(0.160941 0.790099 0)
(-0.0608607 0.425149 0)
(-0.14816 0.240627 0)
(-0.135972 0.133249 0)
(-0.106647 0.0832445 0)
(-0.0831076 -0.00936103 0)
(-0.0404608 -0.078406 0)
(0.010244 -0.131193 0)
(0.0748293 -0.167133 0)
(0.159754 -0.177592 0)
(0.291989 0.00896954 0)
(0.548868 0.126114 0)
(0.653097 0.146804 0)
(0.831674 0.171369 0)
(1.11749 0.302698 0)
(1.37022 0.504081 0)
(1.44477 0.914631 0)
(1.31126 1.2331 0)
(0.989982 1.40947 0)
(0.541379 1.72786 0)
(0.0760976 1.87253 0)
(-0.309239 0.696575 0)
(-0.295743 -0.00322481 0)
(-0.213589 0.0289913 0)
(-0.15652 0.139264 0)
(-0.236414 0.99477 0)
(-0.217391 1.21453 0)
(-0.10262 1.00763 0)
(0.0308215 0.950466 0)
(0.173509 0.899661 0)
(0.272302 0.769182 0)
(-0.0318897 0.669293 0)
(-0.242342 0.318838 0)
(-0.155192 0.109852 0)
(-0.106893 0.0741174 0)
(-0.0675554 -0.0529985 0)
(-0.0198494 -0.124214 0)
(0.0292766 -0.183 0)