/*--------------------------------*- C++ -*----------------------------------*\
| =========                 |                                                 |
| \\      /  F ield         | OpenFOAM: The Open Source CFD Toolbox           |
|  \\    /   O peration     | Version:  v1606+                                |
|   \\  /    A nd           | Web:      www.OpenFOAM.com                      |
|    \\/     M anipulation  |                                                 |
\*---------------------------------------------------------------------------*/
FoamFile
{
    version     2.0;
    format      ascii;
    class       volScalarField;
    location    "0.78";
    object      dgdt;
}
// * * * * * * * * * * * * * * * * * * * * * * * * * * * * * * * * * * * * * //

dimensions      [0 0 -1 0 0 0 0];

internalField   nonuniform List<scalar> 
6000
(
-20.5896
-20.7717
-20.8557
-20.8419
-20.8126
-20.7135
-20.5709
-20.4409
-19.1866
-17.8265
-17.0139
-16.6038
-16.3747
-16.0734
-15.8532
-15.6647
-15.8479
-16.1376
-16.4568
-16.9311
-17.6554
-19.0776
-20.4054
-20.5675
-20.7045
-20.8011
-20.8308
-20.8478
-20.7678
-20.5232
-2.59632
-2.24791
-2.21705
-2.18743
-2.16841
-2.09848
-1.98522
-1.91302
-2.00083
-2.14015
-2.19107
-2.14698
-2.1141
-2.10196
-2.08998
-2.10783
-2.11249
-2.12616
-2.12833
-2.16094
-2.12508
-1.9733
-1.89131
-1.96953
-2.08269
-2.15792
-2.18455
-2.22002
-2.24836
-2.59661
-0.207217
-0.167551
-0.183115
-0.197263
-0.221783
-0.259794
-0.322066
-0.365613
-0.358441
-0.354611
-0.356527
-0.344178
-0.331815
-0.325681
-0.318109
-0.329211
-0.342977
-0.345631
-0.352872
-0.35723
-0.351526
-0.356992
-0.360731
-0.311556
-0.252614
-0.217613
-0.195196
-0.182159
-0.165304
-0.206708
-0.0627016
-0.0568021
-0.0595958
-0.0660444
-0.0771103
-0.093999
-0.123282
-0.160029
-0.150232
-0.144117
-0.134093
-0.120358
-0.104843
-0.0893893
-0.0800938
-0.0870921
-0.101558
-0.112283
-0.126977
-0.135217
-0.139247
-0.148021
-0.151252
-0.110248
-0.0889756
-0.0742419
-0.0637741
-0.0575155
-0.0547995
-0.0612781
-0.0334683
-0.0332977
-0.0350296
-0.0381261
-0.0442287
-0.0553735
-0.0769328
-0.10055
-0.0991243
-0.0932778
-0.0828255
-0.0742823
-0.0655309
-0.0530187
-0.045841
-0.0490817
-0.0594373
-0.068909
-0.0753961
-0.0799835
-0.0873578
-0.0930171
-0.0872142
-0.0682084
-0.0516305
-0.0414189
-0.0358369
-0.0330177
-0.0313653
-0.0316281
-0.0269307
-0.0275611
-0.0286618
-0.0306487
-0.0331853
-0.0365581
-0.043823
-0.058693
-0.0755872
-0.0761872
-0.0659499
-0.058106
-0.053593
-0.0517369
-0.0501652
-0.0511545
-0.0533305
-0.053404
-0.056823
-0.0610774
-0.0705382
-0.0708311
-0.0547876
-0.041034
-0.0343711
-0.0311876
-0.0288385
-0.0269278
-0.0258589
-0.025155
-0.0273217
-0.0278849
-0.0287472
-0.0306243
-0.0325899
-0.0336548
-0.034622
-0.0370903
-0.0468627
-0.0611239
-0.0555555
-0.0483842
-0.0500754
-0.0508742
-0.0492634
-0.0500183
-0.0518146
-0.0479675
-0.046665
-0.0507998
-0.0568656
-0.0445661
-0.0350132
-0.0328858
-0.0319982
-0.0308745
-0.028938
-0.0271238
-0.0262581
-0.0256297
-0.0291057
-0.0296791
-0.0301732
-0.0316537
-0.0335343
-0.0346698
-0.0352962
-0.0362428
-0.0355443
-0.0440221
-0.0453323
-0.0415074
-0.0515366
-0.0480547
-0.0428295
-0.0435521
-0.0481253
-0.0483642
-0.0407829
-0.0409832
-0.0408197
-0.0330244
-0.033825
-0.0333863
-0.0329849
-0.0318523
-0.0299503
-0.0285141
-0.0280662
-0.0275052
-0.0299023
-0.0307675
-0.0309487
-0.0318503
-0.0339741
-0.0370412
-0.0383183
-0.038256
-0.0373672
-0.040167
-0.0438271
-0.0405704
-0.0405023
-0.036082
-0.0335255
-0.0314456
-0.0324972
-0.0381835
-0.0354276
-0.0396923
-0.0368615
-0.0348099
-0.03587
-0.0360945
-0.0351347
-0.0321383
-0.0300668
-0.0292186
-0.0292198
-0.0285137
-0.029921
-0.0308368
-0.0309327
-0.0315631
-0.0331511
-0.0372479
-0.0410199
-0.0390723
-0.0388841
-0.0417411
-0.0444903
-0.0400876
-0.0341848
-0.0344622
-0.0330668
-0.030876
-0.0289591
-0.0296609
-0.0391004
-0.0421383
-0.0399397
-0.0371452
-0.0369505
-0.0386117
-0.035315
-0.0312987
-0.0298032
-0.0293895
-0.0296934
-0.0290198
-0.0298733
-0.0296879
-0.0302018
-0.031048
-0.0321105
-0.0352045
-0.0405704
-0.03884
-0.0389064
-0.0424233
-0.0438223
-0.0392749
-0.0367291
-0.0369108
-0.0346702
-0.0323844
-0.0306423
-0.0296223
-0.0349173
-0.0424331
-0.0421958
-0.0382515
-0.0373444
-0.0383974
-0.0336763
-0.0304515
-0.0295606
-0.0291735
-0.0293428
-0.0300108
-0.0298608
-0.0292186
-0.029257
-0.030215
-0.0312747
-0.0331463
-0.0383076
-0.0387195
-0.0400052
-0.0439492
-0.0454646
-0.04136
-0.0404664
-0.0414309
-0.0361442
-0.033213
-0.0322403
-0.0321135
-0.0368544
-0.0451139
-0.045945
-0.0408591
-0.0386758
-0.0370298
-0.0323903
-0.0299427
-0.0290992
-0.0288048
-0.0297284
-0.0312208
-0.0296811
-0.0291473
-0.029213
-0.0295631
-0.030503
-0.0318433
-0.0361797
-0.0396897
-0.0431304
-0.0468061
-0.0474389
-0.0416537
-0.0403215
-0.045389
-0.0377172
-0.0339514
-0.0322061
-0.0358857
-0.0411593
-0.0498041
-0.051688
-0.0473137
-0.0419998
-0.0361613
-0.031996
-0.0294358
-0.0283389
-0.0285843
-0.0303733
-0.0327887
-0.0287772
-0.0291439
-0.0300208
-0.0299254
-0.0299626
-0.0309414
-0.0342006
-0.0404192
-0.0453137
-0.0470691
-0.0459392
-0.0380689
-0.0374192
-0.0454599
-0.0386955
-0.0346729
-0.0320737
-0.0377173
-0.0442547
-0.0510614
-0.0556904
-0.0552859
-0.0455641
-0.0354894
-0.031897
-0.0287456
-0.0274888
-0.0280964
-0.0306956
-0.0353234
-0.0246845
-0.0297614
-0.0315812
-0.0308994
-0.029895
-0.0300858
-0.0323646
-0.0381486
-0.0417004
-0.041378
-0.0394477
-0.0359269
-0.037243
-0.040612
-0.0387083
-0.0361467
-0.0329313
-0.0378937
-0.045779
-0.0471907
-0.0544253
-0.0573688
-0.0456072
-0.0347183
-0.031753
-0.0280296
-0.0265768
-0.02656
-0.0288876
-0.0374205
-0.0260323
-0.0321656
-0.0313898
-0.0307019
-0.0292068
-0.0291996
-0.0307747
-0.0331411
-0.0337148
-0.0332638
-0.0322871
-0.0323264
-0.0340177
-0.0332295
-0.0344429
-0.033669
-0.0353383
-0.0391995
-0.0451059
-0.0465976
-0.048605
-0.0504255
-0.0421963
-0.0335692
-0.0311765
-0.027726
-0.0258858
-0.0247796
-0.0287679
-0.0301145
-0.0231557
-0.025201
-0.0263281
-0.0275335
-0.026187
-0.0266873
-0.0291399
-0.029629
-0.0280664
-0.0276558
-0.0285394
-0.0291859
-0.0308469
-0.0302815
-0.0251594
-0.0202533
-0.0298366
-0.0382846
-0.0412598
-0.043099
-0.0436879
-0.0427529
-0.0395283
-0.032214
-0.0298506
-0.0281348
-0.0271631
-0.028378
-0.0288457
-0.0252892
-0.0210658
-0.0208345
-0.0241926
-0.0237838
-0.0240575
-0.0240473
-0.023586
-0.0275148
-0.0276928
-0.0278515
-0.0311573
-0.0339968
-0.0353292
-0.0312328
-0.0196905
-0.0135698
-0.0188821
-0.0333278
-0.0387103
-0.0387755
-0.0406683
-0.0409674
-0.0383104
-0.0307315
-0.0286892
-0.0286082
-0.0288123
-0.029635
-0.0289542
-0.0288196
-0.0213799
-0.0215361
-0.0232301
-0.0243652
-0.0231074
-0.0201305
-0.0185522
-0.0243882
-0.0286644
-0.0339186
-0.0406
-0.0430257
-0.0394455
-0.0278015
-0.0165694
-0.0144566
-0.0161339
-0.0310628
-0.0399521
-0.0384597
-0.0412602
-0.0440879
-0.0413128
-0.0329695
-0.0282553
-0.0288848
-0.0292763
-0.0303818
-0.0316984
-0.031988
-0.0233369
-0.0228756
-0.0235407
-0.0237431
-0.0216549
-0.0195981
-0.0195093
-0.0204447
-0.0281548
-0.0348204
-0.0376107
-0.0359591
-0.0297179
-0.0196095
-0.0155386
-0.0155916
-0.0179167
-0.0297796
-0.0388241
-0.0452621
-0.0486729
-0.0521143
-0.043286
-0.0352204
-0.0305435
-0.0290473
-0.0292705
-0.0312427
-0.0339657
-0.0330865
-0.0256021
-0.024695
-0.0244906
-0.0237981
-0.0234707
-0.0229507
-0.0221293
-0.0227579
-0.0244431
-0.025739
-0.0230681
-0.020756
-0.0179066
-0.0154208
-0.0157522
-0.0174957
-0.0211867
-0.029419
-0.0403241
-0.050801
-0.0527608
-0.0485446
-0.0383364
-0.0270305
-0.0306752
-0.0299191
-0.0300283
-0.0313809
-0.0312093
-0.032338
-0.0260454
-0.025665
-0.0249397
-0.0247765
-0.024794
-0.0251523
-0.0259078
-0.0259346
-0.0239037
-0.0205274
-0.0173775
-0.0157154
-0.0153701
-0.0161965
-0.0180917
-0.0214666
-0.0252102
-0.0309528
-0.0393118
-0.0409013
-0.039781
-0.0347713
-0.0221042
-0.0220503
-0.0293464
-0.0301696
-0.0299522
-0.030366
-0.0330782
-0.0310074
-0.0272829
-0.0264628
-0.0254056
-0.0248298
-0.0248645
-0.0257649
-0.0270977
-0.028204
-0.0275013
-0.0247738
-0.0214085
-0.0189288
-0.0183031
-0.0196843
-0.022357
-0.0255411
-0.0266985
-0.0251857
-0.0223902
-0.0205695
-0.0189325
-0.0158965
-0.0119952
-0.0193273
-0.0288631
-0.0302807
-0.0296368
-0.0295696
-0.0293544
-0.0297065
-0.0289537
-0.0275335
-0.0262077
-0.0251826
-0.0248868
-0.025465
-0.0268097
-0.0285119
-0.0297992
-0.029369
-0.0271917
-0.0246863
-0.0231858
-0.0234473
-0.0252114
-0.0260274
-0.0236171
-0.0165162
-0.0102217
-0.00829705
-0.00765044
-0.00710626
-0.00919513
-0.0181282
-0.028351
-0.0302327
-0.0295185
-0.0291911
-0.028562
-0.0299664
-0.0302866
-0.0283822
-0.0269701
-0.0253722
-0.0243812
-0.0247781
-0.0261428
-0.0279087
-0.0298662
-0.0311842
-0.0307853
-0.0291812
-0.026815
-0.0251005
-0.0247195
-0.0231843
-0.0179997
-0.0107128
-0.00645856
-0.00557866
-0.0055275
-0.00567704
-0.00887705
-0.0195496
-0.0293323
-0.0304579
-0.0299646
-0.0295996
-0.0276871
-0.030046
-0.0300466
-0.0291484
-0.0278355
-0.0251673
-0.0236193
-0.024012
-0.0255326
-0.0273582
-0.0291305
-0.0308269
-0.0318572
-0.031132
-0.0282325
-0.0247552
-0.0222377
-0.0189124
-0.0130188
-0.00777043
-0.00577697
-0.00582376
-0.0058279
-0.00580853
-0.0100072
-0.0260436
-0.0319575
-0.0314027
-0.0309333
-0.030474
-0.0300128
-0.0300697
-0.0298473
-0.0293967
-0.0282379
-0.0266397
-0.0240546
-0.0236237
-0.0252856
-0.0272947
-0.0289104
-0.0303173
-0.0313285
-0.0313902
-0.0287471
-0.0235581
-0.0191118
-0.0150133
-0.00992863
-0.00661704
-0.00579937
-0.00602363
-0.00616481
-0.00623657
-0.0139721
-0.0333263
-0.0332531
-0.0320211
-0.0314296
-0.0309415
-0.0307147
-0.0305469
-0.0307263
-0.0301138
-0.0293329
-0.0283483
-0.0260911
-0.0247015
-0.0253967
-0.0276535
-0.0294104
-0.0308693
-0.0317393
-0.0316738
-0.0292144
-0.0225656
-0.0167059
-0.012675
-0.00869774
-0.00636524
-0.00589854
-0.00627431
-0.0065189
-0.00733529
-0.0205614
-0.0362308
-0.033526
-0.0322994
-0.0315928
-0.0311524
-0.0309612
-0.0308162
-0.0322141
-0.0314128
-0.0301197
-0.0286567
-0.0275273
-0.0258817
-0.0267745
-0.0279892
-0.0304409
-0.0323595
-0.0338392
-0.0339964
-0.0320013
-0.0246824
-0.0162512
-0.0119583
-0.00865176
-0.00676264
-0.00641009
-0.0069044
-0.00744413
-0.00982818
-0.0260692
-0.0381435
-0.0346278
-0.0328274
-0.0317547
-0.0311913
-0.0310245
-0.030919
-0.0332537
-0.032361
-0.0307963
-0.0289987
-0.0283362
-0.0293321
-0.0292174
-0.0282586
-0.0312113
-0.0343496
-0.0361851
-0.0378113
-0.0368492
-0.0318275
-0.0234371
-0.0148336
-0.0113261
-0.00933171
-0.00857643
-0.00891634
-0.00989213
-0.0139434
-0.0305953
-0.0419003
-0.036802
-0.0337034
-0.0320073
-0.0312735
-0.0310055
-0.0309096
-0.0336587
-0.0328089
-0.0312662
-0.0297485
-0.0300054
-0.0345979
-0.0330633
-0.0299316
-0.0317205
-0.0356273
-0.0380183
-0.039529
-0.0404479
-0.0381632
-0.0338558
-0.0252156
-0.0202918
-0.0171963
-0.0152733
-0.0144927
-0.0154944
-0.0204931
-0.0351096
-0.0466871
-0.0406596
-0.0351085
-0.0325576
-0.0313415
-0.0309593
-0.0308109
-0.0332208
-0.0323555
-0.0311557
-0.0309443
-0.0356917
-0.0363881
-0.033763
-0.030857
-0.0309295
-0.0346126
-0.0380419
-0.0396618
-0.0403899
-0.0401493
-0.0387479
-0.0369321
-0.0319619
-0.0299871
-0.0289248
-0.0268537
-0.026539
-0.0301861
-0.03839
-0.0496977
-0.0474691
-0.0376762
-0.0331075
-0.0312404
-0.0309696
-0.030546
-0.0314056
-0.0315075
-0.0310895
-0.0338249
-0.035422
-0.0354463
-0.0341841
-0.0306891
-0.0298444
-0.0326337
-0.036348
-0.0383519
-0.0390006
-0.0388753
-0.0387661
-0.041618
-0.040393
-0.0396686
-0.0435413
-0.046182
-0.044798
-0.0409466
-0.042561
-0.047492
-0.050468
-0.0417561
-0.0340562
-0.0310678
-0.0299072
-0.0302271
-0.0293577
-0.0301938
-0.030797
-0.0339333
-0.035208
-0.0354277
-0.0336469
-0.030244
-0.0287536
-0.030591
-0.0338935
-0.0364458
-0.0370377
-0.036485
-0.0354629
-0.0396153
-0.0431769
-0.0415519
-0.0475489
-0.0605712
-0.0576885
-0.0483098
-0.0438385
-0.0412746
-0.0432842
-0.0426793
-0.0353285
-0.0303105
-0.0301107
-0.0301424
-0.0279476
-0.0296274
-0.032128
-0.0350174
-0.0352812
-0.0353113
-0.0344806
-0.0308193
-0.0284534
-0.029161
-0.0316441
-0.0342
-0.0348862
-0.0337719
-0.0315337
-0.0342171
-0.0372359
-0.0361381
-0.0399078
-0.0520162
-0.0562828
-0.0515246
-0.0413318
-0.0357334
-0.0336765
-0.0350304
-0.0339526
-0.0294618
-0.0294373
-0.0294014
-0.0274339
-0.0296713
-0.0333852
-0.0363424
-0.0371841
-0.0356243
-0.0332822
-0.0309184
-0.0292224
-0.0290389
-0.0299682
-0.0318579
-0.0324597
-0.0311968
-0.0281881
-0.0281254
-0.0288216
-0.0299825
-0.0324608
-0.0421404
-0.0579805
-0.0485962
-0.0369357
-0.0327477
-0.0287258
-0.0275344
-0.0312028
-0.0294326
-0.0307021
-0.028148
-0.0265011
-0.0283121
-0.0325514
-0.0361556
-0.0375282
-0.0331381
-0.0295165
-0.0277403
-0.027188
-0.0290414
-0.0293216
-0.0299399
-0.0301622
-0.0284128
-0.0252606
-0.0232739
-0.023007
-0.0247653
-0.0271631
-0.0342659
-0.0514199
-0.0424456
-0.0327335
-0.0300659
-0.0267964
-0.0257716
-0.031546
-0.0316734
-0.0312869
-0.0290871
-0.0223688
-0.024629
-0.0300513
-0.0280414
-0.0264024
-0.0203469
-0.016671
-0.0116716
-0.0130748
-0.0218461
-0.0258992
-0.0277807
-0.0277509
-0.0256954
-0.0223032
-0.019281
-0.0191386
-0.0200942
-0.0230042
-0.0304866
-0.0447042
-0.038172
-0.0304286
-0.0279156
-0.0266349
-0.0267166
-0.0337774
-0.0353244
-0.0321328
-0.0297152
-0.0187565
-0.0153573
-0.0138348
-0.0104831
-0.00715316
-0.00405733
-0.00302282
-0.0024387
-0.0028145
-0.00524204
-0.0154949
-0.0242526
-0.0251262
-0.0232297
-0.0198979
-0.0164187
-0.0152706
-0.0146387
-0.019431
-0.0329556
-0.0480294
-0.0411826
-0.0342258
-0.0311425
-0.0300021
-0.0304442
-0.0383651
-0.0403897
-0.0332403
-0.0298078
-0.00483774
-0.00300778
-0.0023361
-0.00178562
-0.00154121
-0.00149647
-0.00160084
-0.00180585
-0.00218815
-0.00290445
-0.00534298
-0.015643
-0.0230852
-0.0206097
-0.0180202
-0.0146736
-0.013102
-0.00730898
-0.0182908
-0.0343027
-0.0617035
-0.0597844
-0.0500364
-0.0448802
-0.042195
-0.0425136
-0.0497312
-0.0476799
-0.0350099
-0.0272622
-0.00149145
-0.00129366
-0.00123497
-0.00123748
-0.00127986
-0.00141459
-0.00155201
-0.00173662
-0.00210339
-0.00276545
-0.00397579
-0.00855469
-0.0183512
-0.0192417
-0.0166949
-0.0136864
-0.0114267
-0.014487
-0.0102893
-0.0179048
-0.0519647
-0.0648853
-0.0423469
-0.0674944
-0.0643641
-0.0643372
-0.0653786
-0.0571719
-0.0397699
-0.0191128
-0.00133799
-0.00125879
-0.001242
-0.00123919
-0.00130094
-0.001413
-0.00151759
-0.00167114
-0.00201077
-0.00267458
-0.00376083
-0.00648025
-0.0147658
-0.0196436
-0.0160601
-0.0134471
-0.0108454
-0.0102999
-0.00766363
-0.0077312
-0.0197544
-0.0484402
-0.0850686
-0.0684205
-0.0719357
-0.0718963
-0.0665711
-0.0542836
-0.0391256
-0.0180394
-0.00130694
-0.00124325
-0.00123986
-0.00124235
-0.00132336
-0.00140815
-0.00149037
-0.0016329
-0.00194906
-0.00257908
-0.00362927
-0.00586504
-0.0136703
-0.0211151
-0.0171678
-0.0143845
-0.0119648
-0.00912719
-0.00736912
-0.00658418
-0.00675883
-0.01341
-0.0222869
-0.036809
-0.043547
-0.0448064
-0.0399476
-0.0297342
-0.0175832
-0.0173972
-0.00128072
-0.00124457
-0.00124103
-0.0012754
-0.00134686
-0.00140211
-0.00147344
-0.00161642
-0.00192471
-0.00253053
-0.00353678
-0.00551481
-0.0129418
-0.0217945
-0.0181548
-0.0158299
-0.0133311
-0.00880576
-0.00737626
-0.00652023
-0.00505621
-0.00445426
-0.00563839
-0.00857439
-0.0116999
-0.0127268
-0.0107309
-0.00705295
-0.00364469
-0.00355582
-0.00126413
-0.00124975
-0.00125646
-0.00131936
-0.00136514
-0.00139882
-0.00146902
-0.00161671
-0.00191582
-0.00249682
-0.00349355
-0.00530172
-0.0114274
-0.020019
-0.0204511
-0.0172941
-0.0128735
-0.00881311
-0.00766445
-0.00661321
-0.00496487
-0.00333799
-0.002383
-0.00212514
-0.00222024
-0.00219885
-0.00185297
-0.0013812
-0.00110228
-0.00114206
-0.00127135
-0.00127282
-0.00130659
-0.00136327
-0.00137629
-0.00139809
-0.00147039
-0.00162153
-0.00191216
-0.00248916
-0.0034802
-0.00519121
-0.0100573
-0.0190085
-0.0199039
-0.0154216
-0.0114076
-0.00897132
-0.00797198
-0.00674187
-0.00506938
-0.00339575
-0.00222525
-0.00155075
-0.00121776
-0.00106289
-0.000999591
-0.000994166
-0.0010267
-0.00107042
-0.00127833
-0.00131657
-0.00137783
-0.00139751
-0.00138383
-0.00139954
-0.00148055
-0.00164971
-0.00195669
-0.00251185
-0.00347689
-0.00515234
-0.00941312
-0.0178281
-0.0179031
-0.0138363
-0.0114125
-0.00955216
-0.00831781
-0.00699603
-0.00525204
-0.0035729
-0.00231676
-0.0015914
-0.00123484
-0.00108745
-0.00104502
-0.00104742
-0.00105303
-0.00106485
-0.00129923
-0.00137778
-0.00144124
-0.001418
-0.00138958
-0.00140541
-0.00150121
-0.00170162
-0.00203654
-0.0026193
-0.00357632
-0.00515517
-0.00920667
-0.0172075
-0.0181359
-0.015144
-0.0127372
-0.010162
-0.00876851
-0.00737932
-0.00551377
-0.00378397
-0.00246941
-0.00165712
-0.00125712
-0.00110408
-0.00106039
-0.00105738
-0.00105823
-0.00105372
-0.00136106
-0.00144241
-0.00148095
-0.00142886
-0.0013951
-0.00141588
-0.00153453
-0.00177447
-0.00215326
-0.00275132
-0.00369554
-0.00524049
-0.00913514
-0.0171012
-0.0194319
-0.0169952
-0.0135845
-0.0106925
-0.00925273
-0.00782299
-0.00584254
-0.00402515
-0.0026344
-0.00173717
-0.00127517
-0.00110287
-0.00106449
-0.00106254
-0.00106441
-0.00105513
-0.00144534
-0.00149384
-0.00149756
-0.00143344
-0.00140223
-0.00143351
-0.00158503
-0.00187672
-0.00229507
-0.00290785
-0.00383258
-0.00529847
-0.00919974
-0.0172113
-0.0198024
-0.0176014
-0.0140814
-0.0111223
-0.00970573
-0.00825538
-0.00619249
-0.00427676
-0.00280592
-0.00182795
-0.00129734
-0.00109343
-0.00105594
-0.00106369
-0.00106913
-0.00105811
-0.00151754
-0.00152053
-0.00150213
-0.00143428
-0.00141152
-0.00146314
-0.00166288
-0.0020092
-0.00246665
-0.00307675
-0.00397075
-0.00540557
-0.00935233
-0.0172817
-0.020093
-0.0179043
-0.0144029
-0.0114829
-0.0100733
-0.00864172
-0.00651585
-0.00451752
-0.00297477
-0.00192751
-0.00132876
-0.00108003
-0.00103084
-0.00105208
-0.00106782
-0.00105871
-0.00153941
-0.00152242
-0.00149502
-0.00143511
-0.00142638
-0.00151468
-0.0017708
-0.00217064
-0.0026552
-0.00326729
-0.00414509
-0.00552766
-0.00945204
-0.017353
-0.0200416
-0.0180314
-0.0148846
-0.0119007
-0.0103964
-0.00896683
-0.00678451
-0.00472535
-0.00312952
-0.00202918
-0.00137287
-0.00107102
-0.000996631
-0.00102392
-0.00106998
-0.00105991
-0.00153235
-0.00152519
-0.00147093
-0.00143564
-0.00145389
-0.00159813
-0.00190574
-0.00234644
-0.0028576
-0.00348399
-0.0043547
-0.00569536
-0.00965116
-0.0177254
-0.0197736
-0.0180491
-0.0153003
-0.0123483
-0.0107408
-0.00922197
-0.00698607
-0.00488728
-0.00326189
-0.00212775
-0.00142807
-0.00107131
-0.0009658
-0.000979224
-0.00106621
-0.00104563
-0.0015304
-0.00151821
-0.00143662
-0.00143644
-0.00150234
-0.00171212
-0.0020611
-0.00253344
-0.00308232
-0.00373022
-0.00458032
-0.00589255
-0.00995606
-0.0180778
-0.0196612
-0.0180858
-0.0154695
-0.01273
-0.0111457
-0.00944659
-0.00712041
-0.00501035
-0.00337465
-0.00222195
-0.00149213
-0.00108862
-0.000946664
-0.000932911
-0.00102409
-0.00101298
-0.00153859
-0.00147941
-0.00141283
-0.00144104
-0.00157505
-0.00184831
-0.00223264
-0.00273701
-0.00332978
-0.00399951
-0.00485772
-0.00614486
-0.010247
-0.0179334
-0.0199003
-0.0180653
-0.0157105
-0.0132497
-0.0115837
-0.00961803
-0.0072087
-0.00511256
-0.00348098
-0.00231657
-0.00156555
-0.00112526
-0.000939022
-0.000901238
-0.000955638
-0.00094704
-0.00149446
-0.0014239
-0.0014076
-0.00146725
-0.00167083
-0.00199973
-0.00242253
-0.00296001
-0.00360448
-0.00430685
-0.00515702
-0.00643727
-0.0105722
-0.0184526
-0.0193721
-0.0180495
-0.0160168
-0.0137086
-0.0119423
-0.009743
-0.00728717
-0.00522675
-0.00360831
-0.00242999
-0.00165283
-0.0011784
-0.000942397
-0.000886779
-0.000899879
-0.000880196
-0.00138615
-0.0013776
-0.00140931
-0.00152718
-0.00178917
-0.00216426
-0.00262929
-0.00320042
-0.00389718
-0.0046303
-0.005499
-0.00679047
-0.0109506
-0.0187817
-0.018695
-0.0182152
-0.0162863
-0.0141323
-0.0121712
-0.00980898
-0.00739728
-0.00540694
-0.00380055
-0.00258986
-0.00176692
-0.00125069
-0.000965339
-0.000884224
-0.000873263
-0.00083627
-0.00129809
-0.00135282
-0.00143236
-0.00161348
-0.00192332
-0.00233914
-0.00284545
-0.0034552
-0.00420604
-0.00499189
-0.0058816
-0.00721242
-0.0114362
-0.019274
-0.0184468
-0.0178366
-0.0163
-0.014403
-0.0123309
-0.00985153
-0.00756641
-0.00568835
-0.00410438
-0.00283407
-0.0019277
-0.00134929
-0.00101503
-0.000889164
-0.000867183
-0.000829144
-0.00119815
-0.00135092
-0.0014837
-0.00171394
-0.00206554
-0.00252006
-0.00306803
-0.00373247
-0.00454497
-0.00539666
-0.00632055
-0.0077154
-0.0119371
-0.0186238
-0.0186531
-0.0180043
-0.0163836
-0.0146173
-0.0124501
-0.00992624
-0.00781134
-0.00608857
-0.0045438
-0.0031974
-0.00216053
-0.001483
-0.00109284
-0.000909994
-0.000871971
-0.000835433
-0.0012213
-0.00136069
-0.00155062
-0.00182186
-0.00221473
-0.00271009
-0.00330476
-0.00404243
-0.00493324
-0.00585812
-0.00682238
-0.0083196
-0.0126237
-0.0184516
-0.0190604
-0.0172743
-0.0164896
-0.0148229
-0.0125456
-0.0100897
-0.00815033
-0.00659175
-0.00511284
-0.00369107
-0.00248981
-0.00166736
-0.00120195
-0.000960301
-0.000882123
-0.000835802
-0.00120213
-0.00138688
-0.0016271
-0.00194339
-0.00237788
-0.00291791
-0.00357076
-0.00439465
-0.00537819
-0.00637906
-0.00739313
-0.00903784
-0.0133767
-0.0184144
-0.0186084
-0.0174724
-0.0164147
-0.0149321
-0.0127243
-0.0103276
-0.00856812
-0.00714991
-0.00575194
-0.00428965
-0.00292986
-0.00192855
-0.00135783
-0.00105457
-0.000907994
-0.000838075
-0.00121299
-0.001427
-0.00172659
-0.00208908
-0.00256191
-0.00314995
-0.00387821
-0.00480022
-0.005888
-0.00697287
-0.00805418
-0.00989214
-0.0141895
-0.0189057
-0.0176245
-0.0171345
-0.0163544
-0.0151382
-0.0130178
-0.0107112
-0.00899622
-0.00766206
-0.00635509
-0.00491845
-0.00346802
-0.00229468
-0.00158882
-0.00121591
-0.000977373
-0.000843825
-0.00120142
-0.00148542
-0.00185631
-0.00226241
-0.0027717
-0.00341894
-0.00424608
-0.00528887
-0.00649644
-0.00765196
-0.0088208
-0.0108483
-0.0149255
-0.0188061
-0.0170083
-0.016934
-0.0163139
-0.0153965
-0.0135245
-0.0112631
-0.0094243
-0.00806588
-0.00683454
-0.00548778
-0.00405516
-0.00277878
-0.00193008
-0.00147576
-0.00113144
-0.000888468
-0.00123527
-0.00156177
-0.00202133
-0.00246545
-0.00301993
-0.00374952
-0.00470737
-0.00590378
-0.00722871
-0.00841822
-0.00968498
-0.0118742
-0.0155266
-0.0178018
-0.0175161
-0.0167974
-0.0163575
-0.0157645
-0.0141512
-0.0119199
-0.00988997
-0.00842509
-0.00720537
-0.00596491
-0.00462527
-0.00334247
-0.00239564
-0.00186049
-0.00143136
-0.00102491
-0.00123407
-0.00166919
-0.00221632
-0.00269774
-0.00331819
-0.00416267
-0.00528143
-0.00665202
-0.00804887
-0.0092311
-0.0105865
-0.012895
-0.0159386
-0.0172557
-0.0169433
-0.0165778
-0.0164166
-0.0160671
-0.0147449
-0.0125912
-0.0104195
-0.00885329
-0.00756569
-0.006388
-0.00514787
-0.00390767
-0.00293051
-0.00235289
-0.00191602
-0.00139981
-0.00125333
-0.00181462
-0.00242675
-0.00295826
-0.00368026
-0.00467951
-0.00599062
-0.00752052
-0.00891364
-0.0100911
-0.0115086
-0.0137218
-0.0160505
-0.0167687
-0.0165552
-0.0164196
-0.0164365
-0.0162723
-0.0152234
-0.0131994
-0.0108322
-0.00934713
-0.00798289
-0.00679736
-0.00562671
-0.00442939
-0.0034437
-0.00288019
-0.00255735
-0.00219425
-0.0012799
-0.00200054
-0.00264268
-0.00326014
-0.00412821
-0.00532113
-0.00684081
-0.00846397
-0.00980231
-0.0110099
-0.0124637
-0.0144202
-0.0160433
-0.0163656
-0.0162576
-0.0162988
-0.0164413
-0.0165051
-0.0158255
-0.0140746
-0.011816
-0.00993351
-0.00851973
-0.00725651
-0.00609272
-0.00491801
-0.00388987
-0.00334168
-0.0032208
-0.00324385
-0.00137765
-0.0022174
-0.00288125
-0.00362993
-0.00468914
-0.00610991
-0.00781617
-0.00944952
-0.010739
-0.0119932
-0.0134374
-0.0150168
-0.0159913
-0.0160647
-0.0159654
-0.0160554
-0.0163336
-0.0167429
-0.0162523
-0.0147581
-0.0129864
-0.0108135
-0.00926588
-0.00787506
-0.00663641
-0.0054416
-0.00432566
-0.00370644
-0.00374582
-0.00406316
-0.00155194
-0.0024729
-0.0031892
-0.00411451
-0.00540739
-0.0070751
-0.00892445
-0.01051
-0.0117936
-0.0130806
-0.0144122
-0.0155166
-0.0159539
-0.0158905
-0.0158667
-0.016013
-0.0163039
-0.0165383
-0.0165699
-0.0155299
-0.0138011
-0.0118631
-0.0102783
-0.00878496
-0.00739542
-0.00609133
-0.00484639
-0.00403489
-0.00409667
-0.00457756
-0.00182964
-0.00279309
-0.00362193
-0.00476537
-0.0063239
-0.00824353
-0.0101761
-0.0116815
-0.0129998
-0.014269
-0.0153387
-0.015948
-0.0160115
-0.0158563
-0.0159026
-0.0159396
-0.0162923
-0.0166226
-0.0168267
-0.0163135
-0.0148992
-0.0131634
-0.0115746
-0.00998497
-0.0083951
-0.00690811
-0.00550131
-0.00439584
-0.00433461
-0.00495986
-0.00217374
-0.00320633
-0.00421025
-0.00561419
-0.00746725
-0.00963372
-0.0115287
-0.0130012
-0.0143669
-0.0154918
-0.0161823
-0.0163752
-0.016241
-0.0160808
-0.0160135
-0.0161263
-0.0163961
-0.016722
-0.0170261
-0.0169381
-0.0160349
-0.0145015
-0.0129079
-0.0113111
-0.00950786
-0.00780029
-0.00623583
-0.00484269
-0.00454548
-0.00525727
-0.00256102
-0.00372942
-0.00496236
-0.0066882
-0.00885785
-0.0111999
-0.0129699
-0.0145279
-0.0158333
-0.01665
-0.0169335
-0.0168423
-0.0166478
-0.0165308
-0.0164991
-0.0165454
-0.0166605
-0.0169003
-0.0172145
-0.0173934
-0.0170092
-0.0158987
-0.0143323
-0.0126755
-0.0106848
-0.00870578
-0.00696302
-0.00540479
-0.00479552
-0.00548068
-0.00301629
-0.00437573
-0.00589439
-0.0080067
-0.0103382
-0.0128421
-0.0146153
-0.0162171
-0.0172454
-0.0176158
-0.0175248
-0.0172736
-0.0170755
-0.016975
-0.0169335
-0.0169198
-0.0169557
-0.0170976
-0.017364
-0.0176619
-0.017696
-0.0170911
-0.0157911
-0.0140712
-0.0120039
-0.00971616
-0.00767108
-0.00602822
-0.00510132
-0.00566958
-0.00360046
-0.0051917
-0.00708405
-0.0096004
-0.0124597
-0.0148496
-0.0166428
-0.0178969
-0.018337
-0.0181709
-0.0177788
-0.0174291
-0.0171997
-0.0170605
-0.0169767
-0.0169412
-0.0169726
-0.0170957
-0.0173374
-0.0176892
-0.0180101
-0.0179421
-0.017114
-0.0155139
-0.0134738
-0.0109046
-0.0084539
-0.00659489
-0.00542039
-0.00587739
-0.00440426
-0.00626625
-0.00863679
-0.0116264
-0.0149634
-0.0168499
-0.0184919
-0.0190387
-0.0186497
-0.01798
-0.0173844
-0.0169412
-0.0166296
-0.0164228
-0.0163092
-0.0162924
-0.0163788
-0.0165696
-0.0168757
-0.0173191
-0.0178712
-0.0182966
-0.018099
-0.0169208
-0.0149663
-0.0123249
-0.00943624
-0.00713292
-0.00575753
-0.00609201
-0.00554422
-0.00770891
-0.010509
-0.0138662
-0.0168167
-0.0187684
-0.0196
-0.0191003
-0.0181881
-0.0172381
-0.0164564
-0.0158939
-0.0155181
-0.0152831
-0.0151652
-0.0151676
-0.0153055
-0.0155898
-0.0160195
-0.0165839
-0.0172773
-0.018053
-0.0185715
-0.018103
-0.0164045
-0.0139134
-0.0107046
-0.00783647
-0.00619526
-0.00630195
-0.00723523
-0.00972303
-0.0130376
-0.016441
-0.0189515
-0.0202321
-0.0198694
-0.0187878
-0.0175062
-0.0163453
-0.0154634
-0.0148802
-0.0145223
-0.0142858
-0.0141414
-0.0141104
-0.0142427
-0.014566
-0.0150668
-0.0157141
-0.0165389
-0.0174931
-0.0184589
-0.0188272
-0.0177433
-0.0155166
-0.0122372
-0.0088624
-0.00682058
-0.00650446
-0.00977912
-0.0124893
-0.0160849
-0.0189461
-0.0209104
-0.0210484
-0.020001
-0.01843
-0.0168698
-0.0155233
-0.0144565
-0.0137867
-0.0134027
-0.013175
-0.0130575
-0.0130707
-0.0132656
-0.0136565
-0.0141829
-0.014819
-0.0157342
-0.0168914
-0.0181083
-0.0190954
-0.0188391
-0.0170472
-0.014008
-0.0103027
-0.0077295
-0.00677283
-0.0135821
-0.0161761
-0.0192692
-0.0214488
-0.0225458
-0.022015
-0.02031
-0.0182071
-0.0162944
-0.0146916
-0.0135945
-0.0129503
-0.0125605
-0.0123127
-0.0122157
-0.0122441
-0.0124296
-0.0129021
-0.0127744
-0.014079
-0.0150569
-0.0163478
-0.0177962
-0.0191387
-0.0197735
-0.0183946
-0.0159519
-0.0118676
-0.00898777
-0.00726155
-0.0195152
-0.0214026
-0.0230231
-0.0242779
-0.0244885
-0.0229651
-0.0202875
-0.0177994
-0.0155846
-0.0137374
-0.0125824
-0.0120306
-0.0117187
-0.0114805
-0.0113967
-0.0114459
-0.0116596
-0.0120851
-0.0129195
-0.0133361
-0.014395
-0.0159118
-0.0177479
-0.0194565
-0.0205314
-0.0200236
-0.0180408
-0.0143502
-0.0107295
-0.0084763
-0.0292507
-0.0280769
-0.0269033
-0.0263896
-0.0254162
-0.0225767
-0.0193404
-0.0165272
-0.0145382
-0.0130318
-0.012007
-0.0115297
-0.0112146
-0.0109511
-0.010893
-0.0109823
-0.0112243
-0.0115682
-0.0119729
-0.0124624
-0.0134394
-0.0154351
-0.0176021
-0.0200069
-0.0215165
-0.0220562
-0.0200637
-0.0173807
-0.0129376
-0.010853
-0.0404518
-0.0331016
-0.0282233
-0.0264282
-0.0240533
-0.020891
-0.0179075
-0.0159342
-0.0144634
-0.013231
-0.0122408
-0.01173
-0.0113563
-0.0110165
-0.010819
-0.010869
-0.0111307
-0.0113994
-0.0118669
-0.0125747
-0.0131015
-0.0142981
-0.0169599
-0.020109
-0.0231277
-0.0244391
-0.0236435
-0.0208785
-0.0171508
-0.014814
-0.0439205
-0.0318621
-0.0256123
-0.0236459
-0.0213243
-0.0188807
-0.0172606
-0.0161217
-0.0151975
-0.0144748
-0.013402
-0.0126173
-0.0121372
-0.0117917
-0.0116132
-0.0116223
-0.0114959
-0.0122895
-0.0122037
-0.0150662
-0.0131557
-0.013889
-0.0160787
-0.0195479
-0.0233144
-0.0264561
-0.027941
-0.026324
-0.0241621
-0.0213303
-0.0378319
-0.026521
-0.0214047
-0.020115
-0.018628
-0.0174868
-0.0171945
-0.0172768
-0.0174283
-0.0160542
-0.0149125
-0.0139727
-0.0135054
-0.0131928
-0.0130615
-0.012738
-0.0128971
-0.0134124
-0.013788
-0.0135916
-0.0138608
-0.0143863
-0.0159345
-0.0186287
-0.0224916
-0.0265288
-0.0299852
-0.0322598
-0.0331685
-0.0334628
-0.0298107
-0.021225
-0.0177164
-0.0170216
-0.0163007
-0.0160116
-0.0166166
-0.0174043
-0.017501
-0.0183741
-0.0164374
-0.015399
-0.0149215
-0.0147055
-0.0145211
-0.0143504
-0.0137947
-0.0145011
-0.0144439
-0.0149105
-0.0149025
-0.0150592
-0.0160222
-0.0180558
-0.0210259
-0.0244586
-0.0282638
-0.0337546
-0.0411355
-0.048899
-0.0232734
-0.0169587
-0.0149112
-0.0147014
-0.0144634
-0.0144719
-0.0156023
-0.0161648
-0.01665
-0.0163279
-0.0171914
-0.016347
-0.0156691
-0.0154064
-0.0152819
-0.0154506
-0.0160372
-0.0150434
-0.0154159
-0.0148597
-0.0161085
-0.0157895
-0.0153158
-0.0167733
-0.0188641
-0.0214552
-0.0240899
-0.0293571
-0.0395032
-0.0534238
-0.0180993
-0.0137262
-0.0123057
-0.0133179
-0.0133763
-0.0138979
-0.0155497
-0.0154909
-0.0158983
-0.017405
-0.0175833
-0.0169282
-0.0160615
-0.015783
-0.0156158
-0.015599
-0.0157017
-0.0160413
-0.0155308
-0.0163748
-0.0166044
-0.0160067
-0.0146497
-0.0143599
-0.0166661
-0.0179456
-0.0196389
-0.0232821
-0.0321627
-0.0452807
-0.0136887
-0.0116063
-0.0105938
-0.0128363
-0.0133167
-0.0147405
-0.0163413
-0.0163794
-0.0166155
-0.0184661
-0.0180926