/*--------------------------------*- C++ -*----------------------------------*\
| =========                 |                                                 |
| \\      /  F ield         | OpenFOAM: The Open Source CFD Toolbox           |
|  \\    /   O peration     | Version:  v1606+                                |
|   \\  /    A nd           | Web:      www.OpenFOAM.com                      |
|    \\/     M anipulation  |                                                 |
\*---------------------------------------------------------------------------*/
FoamFile
{
    version     2.0;
    format      ascii;
    class       volScalarField;
    location    "0.78";
    object      nut.particles;
}
// * * * * * * * * * * * * * * * * * * * * * * * * * * * * * * * * * * * * * //

dimensions      [0 2 -1 0 0 0 0];

internalField   nonuniform List<scalar> 
6000
(
1.3569e-05
1.16551e-05
1.17036e-05
1.20362e-05
1.25681e-05
1.33327e-05
1.41151e-05
1.40146e-05
1.15693e-05
9.92596e-06
9.22331e-06
9.23988e-06
9.17613e-06
9.06302e-06
8.93734e-06
8.82942e-06
8.97806e-06
9.02347e-06
9.4616e-06
9.44339e-06
9.85583e-06
1.14692e-05
1.38859e-05
1.39018e-05
1.30977e-05
1.23309e-05
1.18724e-05
1.16004e-05
1.15385e-05
1.33773e-05
1.00404e-05
1.11819e-05
1.06429e-05
9.97517e-06
8.84284e-06
7.83346e-06
6.97364e-06
5.35358e-06
4.76364e-06
4.64065e-06
4.56819e-06
4.52422e-06
4.47348e-06
4.44578e-06
4.39998e-06
4.44681e-06
4.48665e-06
4.4815e-06
4.52115e-06
4.54108e-06
4.61578e-06
4.72614e-06
5.27595e-06
6.89034e-06
7.81745e-06
8.91772e-06
1.00511e-05
1.06507e-05
1.11656e-05
1.01401e-05
2.22741e-05
2.58296e-05
2.6514e-05
2.81637e-05
2.75332e-05
2.41946e-05
1.7933e-05
1.0742e-05
7.51561e-06
6.30701e-06
6.18288e-06
6.17843e-06
6.00407e-06
6.03813e-06
6.21094e-06
6.03654e-06
5.90539e-06
6.04583e-06
6.06008e-06
6.03458e-06
6.24507e-06
7.52054e-06
1.06577e-05
1.81283e-05
2.48021e-05
2.85947e-05
2.93575e-05
2.71176e-05
2.64065e-05
2.29186e-05
9.25251e-06
9.706e-06
1.02986e-05
1.35369e-05
1.92052e-05
2.96279e-05
2.95948e-05
2.30763e-05
1.43859e-05
9.4804e-06
8.18057e-06
8.00275e-06
8.17764e-06
8.93401e-06
1.02301e-05
9.66536e-06
8.53145e-06
7.99727e-06
7.7392e-06
7.98605e-06
9.30129e-06
1.43347e-05
2.25081e-05
2.96266e-05
3.05896e-05
1.91059e-05
1.31933e-05
1.01383e-05
9.70497e-06
9.23887e-06
3.5111e-06
3.13805e-06
3.40167e-06
3.89695e-06
4.89691e-06
8.12072e-06
1.9277e-05
3.42981e-05
2.56464e-05
1.88383e-05
1.41855e-05
1.37449e-05
1.56883e-05
2.65141e-05
2.79941e-05
2.70246e-05
2.26775e-05
1.43877e-05
1.29362e-05
1.37801e-05
1.81747e-05
2.50065e-05
3.38725e-05
2.05092e-05
7.79089e-06
4.65275e-06
3.72981e-06
3.30516e-06
3.07615e-06
3.39646e-06
2.44547e-06
2.13468e-06
2.26911e-06
2.32548e-06
2.3007e-06
2.46458e-06
3.49947e-06
7.86752e-06
2.09898e-05
3.22031e-05
2.66723e-05
2.6479e-05
2.85413e-05
3.33539e-05
3.45838e-05
3.47129e-05
3.16617e-05
2.7294e-05
2.53103e-05
2.58729e-05
3.08784e-05
2.17643e-05
8.47714e-06
3.43763e-06
2.38116e-06
2.22462e-06
2.26874e-06
2.22795e-06
2.10368e-06
2.34548e-06
2.92924e-06
2.38974e-06
2.56636e-06
2.51041e-06
2.17717e-06
1.88546e-06
1.80714e-06
2.05018e-06
3.9532e-06
1.47495e-05
2.80911e-05
2.80452e-05
3.39143e-05
3.72638e-05
3.67775e-05
3.70648e-05
3.92277e-05
3.29553e-05
2.70116e-05
2.66206e-05
1.47993e-05
4.03831e-06
2.03909e-06
1.77442e-06
1.85481e-06
2.15119e-06
2.50005e-06
2.57593e-06
2.38123e-06
2.84974e-06
5.02788e-06
3.38646e-06
3.86167e-06
3.62387e-06
2.8168e-06
2.06494e-06
1.76394e-06
1.74057e-06
1.80897e-06
4.01878e-06
2.82948e-05
3.08903e-05
2.19756e-05
9.62854e-06
6.32853e-06
7.18298e-06
1.14921e-05
3.15517e-05
2.98256e-05
2.61424e-05
4.15133e-06
1.75564e-06
1.68858e-06
1.73192e-06
2.04195e-06
2.81766e-06
3.64406e-06
3.91111e-06
3.42455e-06
4.91925e-06
9.82085e-06
5.07184e-06
6.06713e-06
5.70111e-06
4.56433e-06
3.01081e-06
2.03642e-06
1.7864e-06
1.77162e-06
2.41138e-06
1.16483e-05
2.16194e-05
3.96511e-06
2.64138e-06
2.34642e-06
2.24143e-06
2.43403e-06
4.33533e-06
3.10539e-05
1.59324e-05
2.53676e-06
1.72102e-06
1.73544e-06
1.9891e-06
2.96351e-06
4.49941e-06
5.65114e-06
6.04645e-06
5.18361e-06
9.71104e-06
0.0018337
9.33722e-06
8.10016e-06
7.56856e-06
7.00018e-06
5.03793e-06
2.64691e-06
1.80761e-06
1.79249e-06
2.19258e-06
5.16016e-06
6.14463e-06
1.98994e-06
2.21111e-06
2.37044e-06
2.2601e-06
1.88768e-06
1.99743e-06
6.05929e-06
8.32647e-06
2.49864e-06
1.75243e-06
1.76075e-06
2.5659e-06
4.86276e-06
6.81374e-06
7.50246e-06
8.25784e-06
9.71857e-06
0.00149225
0.00850676
0.0021018
7.51608e-05
9.13662e-06
8.85107e-06
7.52002e-06
3.36998e-06
1.85306e-06
1.77509e-06
2.11638e-06
3.5237e-06
3.21529e-06
1.95385e-06
2.60635e-06
3.21094e-06
3.2025e-06
2.61637e-06
1.94162e-06
3.02263e-06
5.7246e-06
2.50318e-06
1.74166e-06
1.83017e-06
3.29847e-06
7.33175e-06
9.07301e-06
9.66313e-06
0.000127369
0.00203807
0.00640054
0.008539
0.00838433
0.00229385
0.000101522
9.37004e-06
8.67458e-06
3.88927e-06
1.99946e-06
1.86921e-06
2.18419e-06
3.10685e-06
2.64658e-06
2.00507e-06
3.58085e-06
4.58339e-06
4.53522e-06
4.44427e-06
2.33986e-06
2.53763e-06
4.98818e-06
2.66381e-06
1.84623e-06
2.09932e-06
4.16248e-06
8.81101e-06
1.56789e-05
0.000249849
0.00253334
0.00625778
0.00642325
0.0085395
0.00853654
0.0074379
0.00129705
1.66032e-05
7.83809e-06
4.29891e-06
2.42899e-06
2.21927e-06
2.45629e-06
3.07299e-06
2.28793e-06
1.83178e-06
4.69088e-06
7.27198e-06
7.1615e-06
7.26109e-06
3.8272e-06
2.52274e-06
4.36142e-06
2.86425e-06
2.24498e-06
2.87051e-06
5.41628e-06
7.92312e-06
0.000123345
0.0017177
0.00557578
0.00642169
0.00642464
0.00853492
0.00853883
0.00852722
0.00526692
0.000184394
7.02863e-06
4.63088e-06
3.24498e-06
2.75354e-06
2.70615e-06
2.89608e-06
1.9175e-06
1.60467e-06
4.00719e-06
1.16357e-05
2.1451e-05
2.87192e-05
7.13719e-06
2.45555e-06
3.46588e-06
2.96064e-06
2.98285e-06
4.75808e-06
7.08274e-06
7.05911e-06
0.000379328
0.0039172
0.00641718
0.00642446
0.00642486
0.00473408
0.00852659
0.00853628
0.00850201
0.00135272
7.45279e-06
6.01704e-06
4.07023e-06
2.80612e-06
2.51246e-06
2.34187e-06
1.74629e-06
1.58544e-06
2.53853e-06
1.3091e-05
0.000503258
0.000501577
1.05334e-05
2.45461e-06
2.50581e-06
2.85132e-06
3.49217e-06
7.89545e-06
9.13333e-06
7.40246e-06
0.000810406
0.00616475
0.00641715
0.00639786
0.00451895
1.27143e-05
0.00664611
0.00851828
0.00852873
0.0054803
0.000290456
4.11423e-05
4.81518e-06
2.20791e-06
2.02165e-06
1.8301e-06
1.51961e-06
1.47173e-06
1.55415e-06
4.37118e-06
1.268e-05
0.000108206
8.95888e-06
2.3849e-06
2.30744e-06
2.41306e-06
2.96371e-06
9.53906e-06
1.09248e-05
8.62399e-06
0.00112983
0.00639211
0.00637686
5.2896e-05
7.89859e-06
3.13216e-06
5.93513e-06
0.00503883
0.00849868
0.00847303
0.00262502
0.00260053
1.21891e-05
1.86303e-06
1.60574e-06
1.4925e-06
1.34131e-06
1.39857e-06
1.60165e-06
1.90589e-06
1.68585e-06
5.08128e-06
8.88949e-06
2.33777e-06
1.97414e-06
2.11448e-06
2.3208e-06
8.64126e-06
5.63791e-05
1.20955e-05
0.00144689
0.00635288
0.00120941
5.56088e-06
2.45922e-06
1.66975e-06
1.66495e-06
8.45312e-06
0.00142162
0.000367897
8.6254e-06
6.19867e-06
2.65732e-05
3.49871e-06
2.19994e-06
2.19318e-06
2.03527e-06
2.25759e-06
2.66939e-06
1.49037e-06
9.30652e-07
1.31253e-06
7.17068e-06
3.18773e-06
1.70239e-06
1.82539e-06
2.27365e-06
5.31636e-06
0.000924579
0.00106917
0.00244628
0.00535777
1.18406e-05
3.0434e-06
2.52877e-06
1.69398e-06
1.39253e-06
2.67633e-06
6.65075e-06
4.15897e-06
1.64706e-06
1.46335e-06
6.61286e-06
1.33396e-05
1.07057e-05
9.79095e-06
6.99794e-06
5.24156e-06
2.46364e-06
1.08883e-06
9.07049e-07
9.81664e-07
5.32137e-06
7.18059e-06
1.85414e-06
1.88836e-06
2.56802e-06
6.25413e-06
2.98096e-05
0.003262
0.00328106
0.00327908
7.822e-06
4.00602e-06
4.18403e-06
2.36719e-06
1.68954e-06
2.13985e-06
2.74758e-06
1.69848e-06
1.13419e-06
1.19632e-06
1.65009e-06
1.26806e-05
1.36153e-05
7.98145e-06
5.13883e-06
2.83851e-06
1.21002e-06
9.08673e-07
9.11449e-07
1.04411e-06
3.2368e-06
9.88345e-06
3.33664e-06
2.96923e-06
4.82438e-06
1.27995e-05
7.23687e-06
1.4794e-05
0.00241006
3.36538e-05
6.61374e-06
4.91072e-06
6.19376e-06
8.43184e-06
3.11196e-06
3.22243e-06
2.53479e-06
2.37482e-06
1.88887e-06
1.44645e-06
1.33324e-06
1.75872e-06
1.91188e-06
1.45195e-06
1.22876e-06
9.92636e-07
8.59275e-07
8.82385e-07
9.49367e-07
1.13083e-06
2.12116e-06
8.45029e-06
6.14452e-06
5.17981e-06
7.43845e-06
6.95798e-06
1.80684e-06
4.37178e-06
9.78311e-06
7.83988e-06
5.88812e-06
4.8033e-06
6.8996e-06
0.0402474
0.00198368
0.000104999
5.90163e-06
4.38617e-06
3.37519e-06
2.70032e-06
1.81371e-06
1.1909e-06
9.11656e-07
7.86565e-07
7.69238e-07
7.90074e-07
8.49373e-07
9.17483e-07
1.04911e-06
1.22995e-06
1.78013e-06
3.87949e-06
3.55821e-06
3.3038e-06
3.68936e-06
1.39753e-06
1.10938e-06
2.58149e-06
5.59008e-06
5.50138e-06
4.88111e-06
4.39813e-06
6.57698e-06
0.0608905
0.0602677
0.0376918
0.0116137
0.00227083
8.3694e-05
5.86045e-06
3.59413e-06
2.04982e-06
1.25051e-06
9.92544e-07
8.60932e-07
8.6323e-07
9.30028e-07
1.04038e-06
1.18567e-06
1.25827e-06
1.30605e-06
1.36024e-06
1.296e-06
1.21368e-06
1.05021e-06
7.35016e-07
8.51243e-07
2.29101e-06
4.47778e-06
4.36526e-06
3.95609e-06
3.97647e-06
6.10876e-06
0.0610116
0.0610341
0.0611817
0.0607808
0.0460785
0.0221502
0.00424286
5.91939e-05
4.59187e-06
2.53607e-06
1.55748e-06
1.12733e-06
1.07586e-06
1.0582e-06
1.13834e-06
1.21814e-06
1.15596e-06
9.98585e-07
8.99375e-07
8.64571e-07
8.32665e-07
7.66195e-07
6.5565e-07
7.52462e-07
1.94053e-06
3.86943e-06
3.91558e-06
3.49885e-06
3.61149e-06
5.49979e-06
0.0397677
0.0608046
0.0611014
0.061489
0.0613072
0.0615752
0.046336
0.0161666
0.000616395
5.66281e-06
2.92064e-06
1.8106e-06
1.24757e-06
1.11603e-06
1.10858e-06
1.13238e-06
9.65669e-07
8.43113e-07
8.45393e-07
8.60882e-07
8.38449e-07
7.80367e-07
6.51142e-07
8.35127e-07
2.11253e-06
3.48641e-06
4.03742e-06
3.61106e-06
3.38596e-06
4.97373e-06
0.000578495
0.0109978
0.0317866
0.0603241
0.0611856
0.0613572
0.0621631
0.0611976
0.0257823
0.000980151
5.94196e-06
2.82127e-06
1.51425e-06
1.09027e-06
1.00323e-06
9.54739e-07
8.09532e-07
8.02166e-07
8.66387e-07
8.81575e-07
8.68798e-07
8.03187e-07
7.00353e-07
1.68355e-06
3.86567e-06
4.32143e-06
5.64222e-06
4.80439e-06
3.96409e-06
5.47451e-06
0.000428851
0.000429963
0.000433267
0.00088902
0.00131948
0.0322401
0.061527
0.0625162
0.0616822
0.0289981
0.000538475
4.37987e-06
1.88381e-06
1.02838e-06
8.21157e-07
7.83884e-07
7.46185e-07
8.02341e-07
8.90911e-07
9.06574e-07
8.93665e-07
8.23415e-07
8.79339e-07
5.36204e-06
5.37495e-06
6.44006e-06
6.97379e-06
5.86953e-06
5.17913e-06
6.56739e-06
0.00239163
0.00103544
0.000626371
9.94478e-05
1.25693e-05
1.35646e-05
0.0366939
0.0617577
0.0627202
0.0620952
0.0233367
2.30722e-05
2.36975e-06
9.20513e-07
6.40308e-07
6.6157e-07
6.96304e-07
8.00743e-07
8.82613e-07
9.24856e-07
9.12737e-07
8.62753e-07
1.19992e-06
6.69038e-06
4.98281e-06
7.38147e-06
7.33659e-06
7.18846e-06
6.37735e-06
7.57454e-06
0.0106807
0.00665591
0.00530697
0.00352435
0.000567464
1.33793e-05
0.000190922
0.0230546
0.0620542
0.0629979
0.062338
0.00905029
4.97178e-06
1.14148e-06
5.49015e-07
5.60216e-07
6.15693e-07
7.5302e-07
8.5331e-07
9.3488e-07
9.47369e-07
9.12306e-07
1.3951e-06
4.84246e-06
5.05259e-06
7.38921e-06
7.58006e-06
7.76149e-06
7.023e-06
8.28022e-06
0.0127977
0.0126907
0.0112896
0.00948545
0.00690086
0.00261573
1.38967e-05
1.18122e-05
0.0247637
0.0626887
0.0631037
0.0619111
0.00180193
3.74892e-06
1.25659e-06
5.4037e-07
5.809e-07
6.71333e-07
8.03787e-07
9.28797e-07
1.0015e-06
9.98666e-07
1.50432e-06
4.2227e-06
4.92075e-06
6.90025e-06
7.81221e-06
7.78908e-06
7.2054e-06
8.48963e-06
0.0128026
0.0125713
0.00976573
0.00635534
0.00681455
0.000991466
1.08951e-05
6.78018e-06
0.000143199
0.0403983
0.0630754
0.0631049
0.0409577
0.000615302
7.10571e-06
1.30616e-06
8.72729e-07
7.81399e-07
8.20966e-07
9.36142e-07
1.05413e-06
1.1025e-06
1.53747e-06
3.38332e-06
5.00193e-06
6.77241e-06
8.00315e-06
7.80474e-06
7.43512e-06
9.68107e-06
0.012796
0.0106813
0.00562454
0.00210403
0.00121704
1.29018e-05
4.87945e-06
6.19486e-06
9.22267e-06
0.00253087
0.0607076
0.0632614
0.0632511
0.0213932
0.000211864
6.96942e-06
2.29722e-06
1.75719e-06
1.30829e-06
1.10097e-06
1.16163e-06
1.23876e-06
1.44597e-06
2.49034e-06
5.35226e-06
7.03791e-06
8.2009e-06
7.99737e-06
7.67585e-06
1.94254e-05
0.012102
0.0042191
0.00296902
5.23307e-05
9.49799e-06
4.79534e-06
4.5302e-06
5.93811e-06
7.86746e-06
0.000139269
0.0175717
0.0635023
0.063415
0.0481541
0.00560775
1.3392e-05
5.94427e-06
5.94859e-06
3.63205e-06
1.82659e-06
1.43503e-06
1.39988e-06
1.45271e-06
1.85662e-06
3.7902e-06
7.64906e-06
8.24407e-06
7.79631e-06
7.80311e-06
1.98106e-05
0.00360534
0.000310075
0.000617343
8.77967e-06
4.63289e-06
4.33604e-06
4.63599e-06
6.12545e-06
7.83977e-06
2.79459e-05
0.0047093
0.0480463
0.0638365
0.0629181
0.00888596
1.79041e-05
1.42146e-05
1.9153e-05
1.05009e-05
4.09485e-06
2.047e-06
1.61309e-06
1.46455e-06
1.54398e-06
2.00904e-06
4.92857e-06
9.78826e-06
8.24994e-06
7.1284e-06
8.39373e-06
0.00106029
0.000241703
0.000246635
7.32651e-06
4.31378e-06
4.5896e-06
6.93403e-06
8.72593e-06
1.00504e-05
1.84449e-05
0.00179022
0.0303463
0.0633707
0.0636872
0.0127783
1.7881e-05
8.40151e-05
0.000520008
0.000301277
9.36738e-06
3.01562e-06
1.7343e-06
1.45592e-06
1.4083e-06
1.47011e-06
2.09143e-06
5.76131e-06
2.71686e-05
8.78882e-06
6.78424e-06
0.00152547
0.000679253
0.000588326
8.09459e-06
5.31534e-06
7.19354e-06
1.0461e-05
5.53268e-05
0.000193843
0.000192572
0.00141362
0.0208802
0.0640458
0.0634862
0.0194413
2.41878e-05
2.6152e-05
0.000518038
0.000516085
1.41123e-05
3.764e-06
1.70181e-06
1.37819e-06
1.35956e-06
1.30126e-06
1.34011e-06
3.25709e-06
4.90473e-05
0.00198724
6.73463e-06
0.00152872
0.00152545
0.00117631
3.04451e-05
1.49739e-05
2.94471e-05
4.05336e-05
5.31476e-05
8.58081e-05
0.000629039
0.00185058
0.0129146
0.0634388
0.064199
0.0414606
0.000707828
2.37585e-05
0.000467424
0.000437142
1.36831e-05
3.79243e-06
1.55451e-06
1.25862e-06
1.25169e-06
1.21581e-06
1.1812e-06
2.8032e-06
4.49267e-05
0.00386117
0.000483265
0.00152438
2.88473e-05
2.3139e-05
2.51491e-05
1.71228e-05
9.38035e-06
6.46784e-06
3.11261e-06
3.93374e-06
1.48817e-05
5.97735e-05
0.00517821
0.0446918
0.0637564
0.0574194
0.00744262
0.00045302
0.0015188
0.00297919
0.000186767
3.14173e-06
1.38256e-06
1.1623e-06
1.15439e-06
1.14343e-06
1.15302e-06
2.54299e-06
2.50003e-05
0.00387626
0.00352983
8.78737e-06
5.0354e-06
4.16623e-06
2.63456e-06
1.77836e-06
1.05061e-06
8.61423e-07
7.28295e-07
6.89404e-07
9.52388e-07
5.26924e-06
4.82711e-05
0.0109532
0.063959
0.0635014
0.0256774
0.00348497
0.00358016
0.0035062
3.31725e-05
3.4858e-06
1.47844e-06
1.27629e-06
1.22016e-06
1.20375e-06
1.22779e-06
2.66538e-06
1.49497e-05
0.00383137
0.0046457
2.65658e-06
1.66025e-06
1.17037e-06
9.74544e-07
8.76441e-07
7.94974e-07
7.41731e-07
6.86956e-07
6.19366e-07
5.5071e-07
6.89193e-07
5.58569e-06
0.00016414
0.0466697
0.0636678
0.0458053
0.00363279
0.00348345
2.36075e-05
1.43292e-05
1.03141e-05
3.008e-06
2.27547e-06
1.90865e-06
1.756e-06
1.79854e-06
3.44756e-06
1.03616e-05
0.00195759
0.00465038
3.00021e-06
1.53546e-06
9.93639e-07
9.08052e-07
8.60532e-07
8.02511e-07
7.48262e-07
6.87872e-07
6.15892e-07
5.40158e-07
4.81093e-07
8.24315e-07
1.37874e-05
0.00486537
0.062799
0.060203
0.00108876
1.7302e-05
2.07069e-06
3.74952e-06
1.81755e-05
1.04644e-05
6.60455e-06
4.53258e-06
3.81622e-06
3.82256e-06
5.33928e-06
1.05852e-05
0.000429124
0.00464523
2.82188e-06
1.48756e-06
1.00252e-06
9.3224e-07
8.74399e-07
8.08232e-07
7.51794e-07
6.88663e-07
6.14555e-07
5.33377e-07
4.68245e-07
4.77841e-07
2.89194e-06
0.00017705
0.0523091
0.0589704
0.000644754
4.89681e-06
9.11245e-07
9.69525e-07
3.74178e-06
1.56627e-05
1.39977e-05
1.04489e-05
8.6464e-06
8.35042e-06
9.86567e-06
1.41008e-05
1.36261e-05
0.000248583
2.64883e-06
1.42614e-06
1.01225e-06
9.50531e-07
8.84055e-07
8.16237e-07
7.56379e-07
6.88175e-07
6.08107e-07
5.23706e-07
4.52922e-07
4.38472e-07
1.69733e-06
2.51845e-05
0.0337754
0.0427165
0.00113378
1.73567e-06
7.88238e-07
7.5891e-07
9.32977e-07
2.49087e-06
4.9843e-06
7.48575e-06
8.56151e-06
9.11205e-06
9.59211e-06
8.30235e-06
4.25206e-06
6.71253e-06
2.46758e-06
1.37584e-06
1.02495e-06
9.58584e-07
8.86998e-07
8.1864e-07
7.5731e-07
6.86232e-07
6.0598e-07
5.19362e-07
4.4346e-07
4.16083e-07
1.3431e-06
2.66441e-05
0.0232319
0.0193364
1.76432e-05
1.15463e-06
7.04868e-07
6.94058e-07
7.32396e-07
8.64023e-07
1.25552e-06
1.86443e-06
2.30449e-06
2.52051e-06
2.3253e-06
1.85289e-06
1.53079e-06
1.89699e-06
2.29595e-06
1.32745e-06
1.03256e-06
9.64819e-07
8.90299e-07
8.23388e-07
7.60975e-07
6.87007e-07
6.01714e-07
5.09269e-07
4.35321e-07
4.02677e-07
8.19853e-07
1.55147e-05
0.0105466
0.0112908
9.52148e-06
8.64052e-07
6.73976e-07
6.36138e-07
6.67198e-07
7.65284e-07
8.98611e-07
1.07376e-06
1.25129e-06
1.32233e-06
1.31174e-06
1.30574e-06
1.40648e-06
1.84804e-06
2.12935e-06
1.27967e-06
1.03395e-06
9.66394e-07
8.91578e-07
8.27068e-07
7.62066e-07
6.84146e-07
5.92203e-07
5.04497e-07
4.28654e-07
3.89442e-07
5.82221e-07
5.18085e-06
0.000365049
0.00167417
2.32297e-06
7.21259e-07
6.26285e-07
5.80762e-07
6.02765e-07
6.98493e-07
8.52022e-07
1.01829e-06
1.14339e-06
1.20102e-06
1.24762e-06
1.30575e-06
1.40969e-06
1.72783e-06
1.98464e-06
1.24281e-06
1.03507e-06
9.66148e-07
8.92451e-07
8.31491e-07
7.61883e-07
6.7797e-07
5.84702e-07
4.91151e-07
4.17433e-07
3.81611e-07
5.27762e-07
2.65579e-06
1.50673e-05
1.15906e-05
1.26664e-06
7.11819e-07
5.87159e-07
5.3427e-07
5.48922e-07
6.38765e-07
7.92553e-07
9.78712e-07
1.14381e-06
1.22814e-06
1.28393e-06
1.34751e-06
1.41128e-06
1.60689e-06
1.89393e-06
1.22556e-06
1.03827e-06
9.64402e-07
8.93569e-07
8.32931e-07
7.58967e-07
6.66742e-07
5.67732e-07
4.82123e-07
4.09932e-07
3.68392e-07
5.00774e-07
2.32787e-06
8.33331e-06
5.14449e-06
1.24934e-06
6.59459e-07
5.56254e-07
5.0103e-07
5.03858e-07
5.87042e-07
7.38159e-07
9.34196e-07
1.12317e-06
1.23853e-06
1.30953e-06
1.38258e-06
1.43424e-06
1.52465e-06
1.84762e-06
1.21869e-06
1.03915e-06
9.5842e-07
8.94792e-07
8.33003e-07
7.49028e-07
6.49982e-07
5.53425e-07
4.66064e-07
4.01601e-07
3.64122e-07
4.8219e-07
2.29453e-06
7.96085e-06
4.62008e-06
1.23729e-06
6.12569e-07
5.35949e-07
4.79256e-07
4.71449e-07
5.45582e-07
6.90414e-07
8.90979e-07
1.09613e-06
1.24118e-06
1.32379e-06
1.40645e-06
1.46532e-06
1.48023e-06
1.8278e-06
1.21532e-06
1.03727e-06
9.52204e-07
8.95454e-07
8.28328e-07
7.33497e-07
6.30493e-07
5.33925e-07
4.55221e-07
3.92446e-07
3.52722e-07
4.75901e-07
2.4116e-06
7.79368e-06
4.45924e-06
1.18983e-06
6.03467e-07
5.27097e-07
4.65211e-07
4.47293e-07
5.10795e-07
6.49104e-07
8.49937e-07
1.07033e-06
1.23731e-06
1.33129e-06
1.41821e-06
1.48964e-06
1.45937e-06
1.83225e-06
1.21052e-06
1.02726e-06
9.48346e-07
8.93762e-07
8.1477e-07
7.12908e-07
6.09446e-07
5.18044e-07
4.40105e-07
3.84412e-07
3.4983e-07
4.80088e-07
2.50283e-06
7.6537e-06
4.51917e-06
1.16181e-06
5.84495e-07
5.14066e-07
4.56094e-07
4.29945e-07
4.83087e-07
6.11097e-07
8.09331e-07
1.04204e-06
1.22918e-06
1.33625e-06
1.42326e-06
1.50227e-06
1.44931e-06
1.85556e-06
1.2022e-06
1.01118e-06
9.40295e-07
8.83088e-07
7.95662e-07
6.91241e-07
5.88157e-07
4.99294e-07
4.27968e-07
3.74938e-07
3.42846e-07
4.77534e-07
2.56568e-06
7.51345e-06
4.76358e-06
1.25152e-06
5.8973e-07
4.99228e-07
4.50825e-07
4.15934e-07
4.61817e-07
5.79907e-07
7.70088e-07
1.01009e-06
1.21796e-06
1.33904e-06
1.42521e-06
1.50598e-06
1.44553e-06
1.86171e-06
1.18273e-06
9.90294e-07
9.28197e-07
8.67551e-07
7.73834e-07
6.65123e-07
5.65362e-07
4.7971e-07
4.12833e-07
3.68629e-07
3.38977e-07
4.84368e-07
2.6813e-06
7.02751e-06
4.59323e-06
1.36561e-06
6.17483e-07
4.96516e-07
4.41003e-07
4.0494e-07
4.42827e-07
5.52841e-07
7.32676e-07
9.73557e-07
1.20307e-06
1.33968e-06
1.42258e-06
1.49632e-06
1.44157e-06
1.85864e-06
1.15195e-06
9.69763e-07
9.18205e-07
8.49537e-07
7.46042e-07
6.37222e-07
5.4013e-07
4.61191e-07
4.02057e-07
3.59082e-07
3.35424e-07
5.02123e-07
3.04444e-06
6.97865e-06
4.60222e-06
1.36483e-06
6.29912e-07
4.97433e-07
4.36449e-07
3.95054e-07
4.27656e-07
5.28468e-07
6.99854e-07
9.34074e-07
1.18293e-06
1.34146e-06
1.4212e-06
1.48341e-06
1.43503e-06
1.8319e-06
1.11562e-06
9.56878e-07
9.08091e-07
8.23944e-07
7.13079e-07
6.058e-07
5.15694e-07
4.4351e-07
3.88322e-07
3.53754e-07
3.32847e-07
5.13547e-07
3.30811e-06
6.86015e-06
4.5638e-06
1.45157e-06
6.88856e-07
5.14935e-07
4.31693e-07
3.86452e-07
4.14477e-07
5.06678e-07
6.66969e-07
8.95403e-07
1.15406e-06
1.34366e-06
1.42296e-06
1.46933e-06
1.4309e-06
1.77329e-06
1.0952e-06
9.50849e-07
8.89981e-07
7.89853e-07
6.77668e-07
5.76074e-07
4.93402e-07
4.27381e-07
3.79087e-07
3.47112e-07
3.3282e-07
5.344e-07
3.55833e-06
6.75573e-06
4.79918e-06
1.57675e-06
7.51635e-07
5.42657e-07
4.33524e-07
3.81156e-07
4.03095e-07
4.85696e-07
6.34015e-07
8.53183e-07
1.11559e-06
1.34039e-06
1.43078e-06
1.45457e-06
1.42803e-06
1.70176e-06
1.08622e-06
9.4483e-07
8.63533e-07
7.54045e-07
6.4496e-07
5.50151e-07
4.72115e-07
4.12554e-07
3.68566e-07
3.43402e-07
3.33927e-07
5.5529e-07
3.75935e-06
6.45745e-06
4.81665e-06
1.80554e-06
8.39714e-07
5.66072e-07
4.35571e-07
3.80743e-07
3.95916e-07
4.66566e-07
6.01046e-07
8.09076e-07
1.07193e-06
1.32276e-06
1.4372e-06
1.44854e-06
1.43021e-06
1.62517e-06
1.07969e-06
9.35472e-07
8.36374e-07
7.21577e-07
6.15455e-07
5.24904e-07
4.51519e-07
3.98443e-07
3.60719e-07
3.40366e-07
3.38626e-07
5.93211e-07
4.18722e-06
6.43123e-06
4.85598e-06
1.86662e-06
9.04502e-07
5.85666e-07
4.37872e-07
3.84855e-07
3.93069e-07
4.50989e-07
5.68598e-07
7.61612e-07
1.02293e-06
1.2889e-06
1.42876e-06
1.44354e-06
1.43683e-06
1.54042e-06
1.07519e-06
9.27833e-07
8.08641e-07
6.90262e-07
5.86186e-07
4.99842e-07
4.32139e-07
3.85107e-07
3.54424e-07
3.40337e-07
3.48301e-07
6.3713e-07
4.45346e-06
6.33611e-06
4.936e-06
1.99234e-06
9.66558e-07
6.0309e-07
4.43495e-07
3.93112e-07
3.95671e-07
4.38953e-07
5.38937e-07
7.13219e-07
9.65432e-07
1.24914e-06
1.41259e-06
1.43357e-06
1.44438e-06
1.44286e-06
1.0723e-06
9.12008e-07
7.76496e-07
6.58104e-07
5.56861e-07
4.75626e-07
4.14431e-07
3.74169e-07
3.51092e-07
3.438e-07
3.63243e-07
7.09744e-07
4.69931e-06
6.12832e-06
4.64734e-06
2.15436e-06
1.05589e-06
6.16064e-07
4.56372e-07
4.05546e-07
4.02133e-07
4.32661e-07
5.13392e-07
6.66556e-07
8.99825e-07
1.18398e-06
1.38249e-06
1.42683e-06
1.45352e-06
1.35065e-06
1.06712e-06
8.85651e-07
7.45323e-07
6.28079e-07
5.30582e-07
4.54062e-07
3.9932e-07
3.66259e-07
3.50968e-07
3.50893e-07
3.87603e-07
8.14348e-07
4.63583e-06
5.88143e-06
4.86884e-06
2.20484e-06
1.10622e-06
6.45763e-07
4.71831e-07
4.23254e-07
4.14178e-07
4.337e-07
4.96251e-07
6.27095e-07
8.39766e-07
1.1124e-06
1.33703e-06
1.41234e-06
1.47021e-06
1.27325e-06
1.05413e-06
8.64554e-07
7.19052e-07
6.00018e-07
5.05164e-07
4.33928e-07
3.85516e-07
3.60517e-07
3.54991e-07
3.63774e-07
4.25537e-07
9.61967e-07
4.78811e-06
5.75351e-06
3.99342e-06
2.22892e-06
1.23522e-06
6.92197e-07
4.97207e-07
4.42412e-07
4.29545e-07
4.41106e-07
4.88864e-07
5.96713e-07
7.79973e-07
1.02588e-06
1.27954e-06
1.39413e-06
1.4973e-06
1.21175e-06
1.04206e-06
8.40555e-07
6.86296e-07
5.68472e-07
4.79068e-07
4.14157e-07
3.73848e-07
3.59618e-07
3.6501e-07
3.85983e-07
4.7931e-07
1.13842e-06
4.00452e-06
5.38454e-06
3.77552e-06
2.33163e-06
1.3892e-06
7.88244e-07
5.39617e-07
4.62691e-07
4.42474e-07
4.49989e-07
4.88297e-07
5.80861e-07
7.41092e-07
9.48406e-07
1.19246e-06
1.36233e-06
1.52514e-06
1.16598e-06
1.02338e-06
8.09387e-07
6.53324e-07
5.39869e-07
4.55941e-07
3.98323e-07
3.68067e-07
3.67345e-07
3.8451e-07
4.22931e-07
5.55485e-07
1.34396e-06
3.5116e-06
4.05917e-06
3.1726e-06
2.41681e-06
1.65314e-06
9.38191e-07
6.02762e-07
4.90672e-07
4.545e-07
4.55614e-07
4.87363e-07
5.67122e-07
7.13838e-07
9.00392e-07
1.11463e-06
1.33651e-06
1.5143e-06
1.1367e-06
1.00458e-06
7.80654e-07
6.21771e-07
5.11551e-07
4.33784e-07
3.85528e-07
3.69678e-07
3.84721e-07
4.13609e-07
4.71808e-07
6.68004e-07
1.5018e-06
2.94017e-06
3.03276e-06
2.78132e-06
2.51337e-06
1.93725e-06
1.13495e-06
6.90424e-07
5.31337e-07
4.74119e-07
4.62549e-07
4.8787e-07
5.55195e-07
6.84292e-07
8.56328e-07
1.03586e-06
1.26923e-06
1.40544e-06
1.12431e-06
9.84496e-07
7.45203e-07
5.868e-07
4.83525e-07
4.14492e-07
3.78865e-07
3.81417e-07
4.11463e-07
4.54277e-07
5.34538e-07
7.93878e-07
1.59114e-06
2.46987e-06
2.53305e-06
2.48385e-06
2.48192e-06
2.14086e-06
1.34865e-06
7.93113e-07
5.76879e-07
5.00768e-07
4.74247e-07
4.89435e-07
5.48426e-07
6.62393e-07
8.22781e-07
9.70395e-07
1.1451e-06
1.23104e-06
1.11583e-06
9.4927e-07
7.02547e-07
5.53411e-07
4.58145e-07
3.99791e-07
3.81663e-07
4.04895e-07
4.4806e-07
5.05644e-07
6.15632e-07
9.43162e-07
1.65284e-06
2.13968e-06
2.186e-06
2.25547e-06
2.38279e-06
2.26864e-06
1.58103e-06
9.29707e-07
6.30266e-07
5.32021e-07
4.90324e-07
4.91362e-07
5.38828e-07
6.38706e-07
7.83708e-07
9.11376e-07
1.01717e-06
1.08696e-06
1.08621e-06
8.91896e-07
6.56849e-07
5.20065e-07
4.34757e-07
3.91836e-07
3.9577e-07
4.39761e-07
4.95626e-07
5.68001e-07
7.47848e-07
1.12755e-06
1.69184e-06
1.92623e-06
1.9553e-06
2.06263e-06
2.27628e-06
2.32315e-06
1.81704e-06
1.11799e-06
7.26786e-07
5.79067e-07
5.15625e-07
4.9764e-07
5.27761e-07
6.14779e-07
7.47318e-07
8.6269e-07
9.20212e-07
9.6089e-07
1.0296e-06
8.29445e-07
6.158e-07
4.90215e-07
4.18084e-07
3.95501e-07
4.26112e-07
4.89053e-07
5.62495e-07
6.95612e-07
9.43874e-07
1.34513e-06
1.72023e-06
1.81462e-06
1.88113e-06
1.94613e-06
2.16393e-06
2.31088e-06
2.04762e-06
1.37487e-06
8.78009e-07
6.4606e-07
5.62546e-07
5.22167e-07
5.31469e-07
5.99784e-07
7.26184e-07
8.28944e-07
8.6917e-07
8.66952e-07
9.62651e-07
7.75857e-07
5.80151e-07
4.66418e-07
4.11789e-07
4.16377e-07
4.78152e-07
5.60193e-07
6.86186e-07
9.03574e-07
1.22544e-06
1.60106e-06
1.79942e-06
1.7948e-06
1.84893e-06
1.90297e-06
2.13555e-06
2.33213e-06
2.28796e-06
1.73117e-06
1.13329e-06
7.85327e-07
6.36498e-07
5.67682e-07
5.49404e-07
5.92122e-07
7.04036e-07
8.128e-07
8.50946e-07
8.23503e-07
8.99508e-07
7.30893e-07
5.49769e-07
4.50945e-07
4.2128e-07
4.62656e-07
5.55819e-07
6.842e-07
9.14434e-07
1.2393e-06
1.6303e-06
1.94186e-06
2.01995e-06
1.98014e-06
1.96699e-06
2.06513e-06
2.27849e-06
2.49187e-06
2.56421e-06
2.18328e-06
1.52322e-06
1.02795e-06
7.56536e-07
6.37575e-07
5.79172e-07
5.89816e-07
6.78289e-07
7.93727e-07
8.39998e-07
8.01249e-07
8.44886e-07
6.91262e-07
5.23456e-07
4.47106e-07
4.54307e-07
5.40545e-07
6.81144e-07
9.39563e-07
1.3246e-06
1.80734e-06
2.25994e-06
2.50189e-06
2.5276e-06
2.50741e-06
2.50943e-06
2.58934e-06
2.72423e-06
2.89984e-06
3.0155e-06
2.7924e-06
2.11458e-06
1.43215e-06
9.84e-07
7.34594e-07
6.26079e-07
5.93094e-07
6.51339e-07
7.67521e-07
8.3118e-07
8.0247e-07
7.99237e-07
6.55106e-07
5.06065e-07
4.64372e-07
5.20804e-07
6.68048e-07
9.54962e-07
1.44302e-06
2.12123e-06
2.8467e-06
3.35929e-06
3.56338e-06
3.60926e-06
3.64509e-06
3.68642e-06
3.71649e-06
3.74115e-06
3.8071e-06
3.87954e-06
3.72198e-06
3.04139e-06
2.11138e-06
1.37706e-06
9.34999e-07
7.01444e-07
6.14866e-07
6.31352e-07
7.47089e-07
8.20173e-07
8.07968e-07
7.61138e-07
6.26465e-07
5.0674e-07
5.14692e-07
6.41028e-07
9.55237e-07
1.55241e-06
2.5361e-06
3.8019e-06
4.87855e-06
5.47279e-06
5.74831e-06
5.93098e-06
6.07238e-06
6.12973e-06
6.05549e-06
5.88892e-06
5.72375e-06
5.58961e-06
5.33061e-06
4.58049e-06
3.3043e-06
2.08551e-06
1.2833e-06
8.50888e-07
6.6134e-07
6.20439e-07
7.15351e-07
8.11007e-07
8.25886e-07
7.29932e-07
6.13613e-07
5.39355e-07
6.22562e-07
9.2564e-07
1.596e-06
2.96887e-06
5.10525e-06
7.16584e-06
1.43323e-05
8.6398e-05
0.000217436
0.000366449
0.000467052
0.000469187
0.00036601
0.000218663
9.79237e-05
3.05762e-05
8.18952e-06
7.0926e-06
5.41529e-06
3.39534e-06
1.91604e-06
1.12868e-06
7.48249e-07
6.33163e-07
6.78845e-07
7.96515e-07
8.5278e-07
7.09582e-07
6.27559e-07
6.26374e-07
8.57608e-07
1.55727e-06
3.17789e-06
6.31111e-06
3.50489e-05
0.000548526
0.00163021
0.00305963
0.00445595
0.00546015
0.00589107
0.00573852
0.00504693
0.00394327
0.002653
0.00147553
0.000642378
0.000178532
9.46759e-06
5.74516e-06
3.11642e-06
1.61515e-06
9.28596e-07
6.78258e-07
6.57345e-07
7.71471e-07
8.78619e-07
7.1338e-07
6.91785e-07
8.10508e-07
1.42773e-06
3.04584e-06
6.81414e-06
0.000204272
0.00208348
0.00505072
0.00823036
0.0108464
0.0124109
0.0130039
0.0131084
0.012929
0.0123733
0.0112252
0.009316
0.00679646
0.00409553
0.00190156
0.000542878
1.41763e-05
5.24471e-06
2.49769e-06
1.26682e-06
7.71226e-07
6.6066e-07
7.49953e-07
9.0372e-07
7.74056e-07
8.57127e-07
1.26465e-06
2.74266e-06
6.39613e-06
0.00026989
0.00361963
0.00783451
0.0112281
0.0133225
0.0134367
0.0134462
0.0134502
0.0134552
0.0134555
0.013458
0.0134558
0.0134518
0.0129858
0.0102944
0.00657907
0.0031806
0.000755908
8.56804e-06
4.06357e-06
1.8575e-06
9.48788e-07
7.03277e-07
7.45366e-07
9.21614e-07
9.58271e-07
1.23057e-06
2.33688e-06
5.57687e-06
0.000101217
0.00391871
0.0070102
0.00858422
0.00920116
0.00881939
0.00872858
0.00870372
0.00908827
0.0099672
0.0106812
0.0116805
0.0125383
0.0131103
0.0130557
0.0126055
0.0108122
0.00764612
0.00377953
0.00048393
6.82665e-06
2.87229e-06
1.31006e-06
8.04279e-07
7.67386e-07
9.34143e-07
1.42183e-06
2.17543e-06
4.64727e-06
1.14504e-05
0.0025565
0.00420541
0.00428741
0.00298943
0.00155317
0.000949838
0.000731889
0.000634682
0.000726007
0.000980035
0.00122185
0.00158997
0.00205949
0.00285185
0.00410021
0.00572217
0.00727683
0.0074734
0.00601667
0.00307422
5.30548e-05
4.68872e-06
1.95409e-06
9.90207e-07
8.28326e-07
9.47127e-07
2.72901e-06
4.35486e-06
9.1065e-06
0.000660809
0.00246856
0.00194641
0.000743084
0.000150157
3.19547e-05
3.10203e-05
4.98194e-05
9.32937e-05
0.000117654
0.000150889
0.000196119
0.000213859
0.000234859
0.000257779
0.000298018
0.00044326
0.00103031
0.00238908
0.00349402
0.0033615
0.00118678
8.14317e-06
3.03407e-06
1.35775e-06
9.66407e-07
9.85663e-07
5.79947e-06
8.69916e-06
2.95187e-05
0.00133043
0.00129145
0.000504365
0.00012969
4.73309e-05
2.30591e-05
3.00314e-05
8.29475e-05
0.000200778
0.000216122
0.000249181
0.000303113
0.000299046
0.000308728
0.000315036
0.000325383
0.000291593
0.00021892
0.000219055
0.000619544
0.0013763
0.00131434
1.56961e-05
4.86967e-06
2.08948e-06
1.2785e-06
1.16759e-06
1.02285e-05
1.36202e-05
0.000430002
0.00135205
0.00079423
0.000234047
0.00010573
3.41867e-05
2.36207e-05
3.94755e-05
0.000184848
0.000495581
0.000458748
0.000493935
0.000509444
0.000510893
0.000512081
0.000513168
0.000514676
0.000510824
0.000316079
0.000203505
0.00017105
0.000401561
0.00064597
9.2357e-05