/*--------------------------------*- C++ -*----------------------------------*\
| =========                 |                                                 |
| \\      /  F ield         | OpenFOAM: The Open Source CFD Toolbox           |
|  \\    /   O peration     | Version:  v1606+                                |
|   \\  /    A nd           | Web:      www.OpenFOAM.com                      |
|    \\/     M anipulation  |                                                 |
\*---------------------------------------------------------------------------*/
FoamFile
{
    version     2.0;
    format      ascii;
    class       surfaceScalarField;
    location    "0.78";
    object      phi;
}
// * * * * * * * * * * * * * * * * * * * * * * * * * * * * * * * * * * * * * //

dimensions      [0 3 -1 0 0 0 0];

internalField   nonuniform List<scalar> 
11770
(
-3.98567e-06
5.13983e-05
-1.62523e-06
4.50241e-05
-1.20505e-07
4.59704e-05
8.91496e-07
4.64483e-05
9.38747e-07
4.73818e-05
1.19053e-06
4.70716e-05
2.19419e-06
4.61663e-05
4.54541e-08
4.92744e-05
-3.18355e-06
5.01828e-05
-6.25099e-06
4.98462e-05
-8.21398e-06
4.8571e-05
-8.14474e-06
4.63692e-05
-6.69085e-06
4.48678e-05
-4.38056e-06
4.39002e-05
-1.4656e-06
4.32201e-05
1.11427e-06
4.34883e-05
3.23912e-06
4.40206e-05
4.60174e-06
4.48923e-05
5.19413e-06
4.57808e-05
3.92751e-06
4.7827e-05
1.35488e-06
4.92867e-05
-1.30272e-06
4.95474e-05
-3.01315e-06
4.88102e-05
-1.71865e-06
4.58734e-05
-1.18211e-06
4.67786e-05
-8.69139e-07
4.71052e-05
2.34592e-07
4.63462e-05
1.65173e-06
4.6051e-05
3.91538e-06
4.51183e-05
5.13024e-05
-1.49962e-06
5.5799e-05
3.78759e-07
4.55683e-05
1.98909e-06
4.67731e-05
2.71251e-06
4.81304e-05
2.0746e-06
5.04675e-05
7.69472e-07
5.08189e-05
-2.60523e-06
5.19366e-05
-8.26389e-06
5.7437e-05
-1.18527e-05
5.64604e-05
-1.31372e-05
5.40066e-05
-1.26093e-05
5.09876e-05
-1.14283e-05
4.80747e-05
-9.41977e-06
4.57026e-05
-6.24418e-06
4.35512e-05
-1.51319e-06
4.13002e-05
2.69138e-06
4.21182e-05
5.37898e-06
4.41744e-05
7.64307e-06
4.54874e-05
8.8347e-06
4.74517e-05
9.69683e-06
4.98701e-05
8.93304e-06
5.29063e-05
5.89067e-06
5.52414e-05
9.50527e-07
5.6228e-05
-1.59582e-06
5.07958e-05
-2.27549e-06
4.98773e-05
-2.59363e-06
4.98508e-05
-1.84351e-06
4.79929e-05
-3.69307e-07
4.69923e-05
1.48016e-06
4.56921e-05
5.56768e-05
1.21484e-06
5.48017e-05
2.17723e-06
4.47751e-05
1.63035e-06
4.75047e-05
6.07054e-07
4.93518e-05
-1.11041e-06
5.24077e-05
-2.90686e-06
5.28761e-05
-7.64571e-06
5.70045e-05
-1.03777e-05
6.05741e-05
-1.19875e-05
5.84946e-05
-1.30017e-05
5.54587e-05
-1.20956e-05
5.05234e-05
-1.02562e-05
4.66594e-05
-8.50348e-06
4.43579e-05
-5.45535e-06
4.08982e-05
-5.72712e-07
3.67966e-05
3.24878e-06
3.86922e-05
5.30948e-06
4.25324e-05
7.24643e-06
4.39742e-05
9.17363e-06
4.596e-05
1.03797e-05
4.91076e-05
9.99361e-06
5.37262e-05
9.23173e-06
5.64242e-05
7.01156e-06
5.88469e-05
2.92037e-06
5.52037e-05
1.47314e-06
5.15769e-05
-4.17042e-07
5.19586e-05
-1.70449e-06
4.94756e-05
-2.23763e-06
4.7709e-05
-9.80807e-07
4.4602e-05
5.49122e-05
6.57717e-06
4.83021e-05
6.70805e-06
4.47121e-05
6.8699e-06
4.74135e-05
5.05288e-06
5.12433e-05
-7.04223e-07
5.82471e-05
-7.98621e-06
6.02523e-05
-1.24731e-05
6.16143e-05
-1.37916e-05
6.2052e-05
-1.51316e-05
5.99906e-05
-1.34849e-05
5.39722e-05
-1.06607e-05
4.7852e-05
-8.05029e-06
4.41857e-05
-5.92322e-06
4.23483e-05
-3.32591e-06
3.83983e-05
-1.913e-07
3.37466e-05
2.33416e-06
3.62597e-05
3.90409e-06
4.10743e-05
5.48033e-06
4.25243e-05
8.44659e-06
4.31387e-05
1.19894e-05
4.57192e-05
1.42017e-05
5.16687e-05
1.34159e-05
5.7363e-05
1.25009e-05
5.99126e-05
8.84472e-06
5.89697e-05
9.6119e-07
5.95492e-05
-5.23276e-06
5.8232e-05
-7.2566e-06
5.15719e-05
-6.80261e-06
4.73236e-05
-6.29943e-06
4.41643e-05
4.86887e-05
1.12789e-05
3.70766e-05
1.62442e-05
3.97997e-05
2.20593e-05
4.16533e-05
2.35787e-05
4.97827e-05
1.77207e-05
6.41705e-05
4.54849e-06
7.34971e-05
-7.55462e-06
7.38022e-05
-1.65575e-05
7.11551e-05
-1.87831e-05
6.23149e-05
-1.52853e-05
5.05674e-05
-9.88753e-06
4.25393e-05
-5.55069e-06
3.9925e-05
-3.12295e-06
3.99861e-05
-1.20163e-06
3.65294e-05
-2.89316e-07
3.28795e-05
5.24087e-07
3.54948e-05
1.41492e-06
4.02423e-05
3.61482e-06
4.0394e-05
8.44144e-06
3.839e-05
1.44488e-05
3.9794e-05
1.82102e-05
4.79944e-05
1.63456e-05
5.93203e-05
8.43436e-06
6.79107e-05
-4.01644e-06
7.14948e-05
-1.78815e-05
7.34827e-05
-2.41321e-05
6.45447e-05
-2.23857e-05
4.98814e-05
-1.61727e-05
4.11628e-05
-1.09699e-05
3.90116e-05
3.777e-05
1.29488e-05
2.41731e-05
2.28588e-05
2.99369e-05
3.55848e-05
2.89764e-05
4.76452e-05
3.77766e-05
5.30414e-05
5.88373e-05
4.23965e-05
8.42129e-05
1.88841e-05
9.73902e-05
-2.84918e-06
9.29682e-05
-1.66858e-05
7.62323e-05
-1.61176e-05
5.00745e-05
-9.42159e-06
3.59084e-05
-3.83427e-06
3.43951e-05
-9.88323e-07
3.71932e-05
-2.85618e-07
3.58778e-05
-1.80598e-06
3.44495e-05
-2.30046e-06
3.60398e-05
-9.60729e-07
3.89553e-05
2.38753e-06
3.70986e-05
8.22372e-06
3.261e-05
1.53932e-05
3.2685e-05
1.6476e-05
4.69813e-05
3.0752e-06
7.27961e-05
-1.80739e-05
8.91325e-05
-4.25587e-05
9.60506e-05
-5.31804e-05
8.41718e-05
-4.75626e-05
5.89868e-05
-3.52536e-05
3.76239e-05
-2.25138e-05
2.84692e-05
-1.28545e-05
2.93967e-05
2.49585e-05
1.06478e-05
1.35657e-05
1.93083e-05
2.13202e-05
3.17352e-05
1.6594e-05
4.75906e-05
2.1971e-05
6.50438e-05
4.14439e-05
7.34563e-05
7.58725e-05
6.11198e-05
0.000109806
3.22374e-05
0.000121932
-8.95269e-07
0.000109442
-1.3386e-05
6.26324e-05
-6.55749e-06
2.91348e-05
3.32094e-07
2.75533e-05
4.34347e-06
3.32312e-05
1.59995e-06
3.86716e-05
-4.17165e-06
4.02697e-05
-7.19682e-06
3.91144e-05
-6.82828e-06
3.8638e-05
-9.2654e-07
3.12442e-05
5.79879e-06
2.59308e-05
1.32537e-05
2.52803e-05
3.1825e-06
5.71144e-05
-2.9736e-05
0.000105787
-6.01831e-05
0.000119656
-7.2594e-05
0.000108538
-6.39644e-05
7.5611e-05
-4.64151e-05
4.14943e-05
-3.07794e-05
2.20351e-05
-1.87598e-05
1.64915e-05
-1.05453e-05
2.12234e-05
1.44515e-05
5.34343e-06
8.25718e-06
1.14459e-05
1.52579e-05
1.93021e-05
8.777e-06
3.13336e-05
9.9825e-06
5.07904e-05
2.20394e-05
7.1493e-05
5.5237e-05
7.48332e-05
0.000106548
6.09809e-05
0.000135871
3.14917e-05
0.000139015
1.02297e-06
9.317e-05
1.44761e-07
3.00578e-05
6.62907e-06
2.111e-05
-1.03234e-06
4.09452e-05
-6.19965e-06
4.3897e-05
-7.72708e-06
4.18546e-05
-6.40324e-06
3.78468e-05
-5.68864e-06
3.79795e-05
-7.93952e-06
3.3543e-05
-1.09434e-06
1.91259e-05
2.06799e-06
2.21584e-05
-2.47118e-05
8.39563e-05
-5.64981e-05
0.000137651
-7.24732e-05
0.000135713
-6.94967e-05
0.000105638
-4.91281e-05
5.53063e-05
-3.00653e-05
2.2481e-05
-1.84781e-05
1.04885e-05
-1.11125e-05
9.16286e-06
-5.38633e-06
1.5535e-05
9.09852e-06
6.14442e-07
7.6729e-06
6.32651e-06
9.58189e-06
1.00417e-05
5.09687e-06
1.6044e-05
4.01715e-06
2.9781e-05
8.34537e-06
5.41242e-05
3.09516e-05
7.02956e-05
9.04565e-05
6.55495e-05
0.000140709
5.4829e-05
0.000149825
2.98047e-05
0.000118273
1.0007e-05
4.99052e-05
1.75393e-06
2.94038e-05
-1.92568e-05
6.20187e-05
-2.41166e-05
4.88197e-05
-1.59439e-05
3.37412e-05
-5.80084e-06
2.77593e-05
-1.38293e-06
3.3618e-05
-7.60397e-06
3.98198e-05
-1.07305e-05
2.22874e-05
-2.20136e-05
3.34829e-05
-4.49459e-05
0.000106958
-5.99147e-05
0.000152705
-6.7049e-05
0.000142935
-5.19524e-05
9.06178e-05
-2.85415e-05
3.19504e-05
-1.52539e-05
9.2341e-06
-9.45079e-06
4.72038e-06
-5.99307e-06
5.7383e-06
-5.99509e-07
1.01756e-05
8.52793e-06
-1.96382e-07
7.8971e-06
3.63516e-06
5.7815e-06
5.8563e-06
2.90804e-06
8.75857e-06
1.14859e-06
1.56956e-05
1.44482e-06
3.36696e-05
1.30245e-05
5.6323e-05
6.78756e-05
6.32387e-05
0.000133885
6.31217e-05
0.000150035
5.26045e-05
0.000128877
2.47504e-05
7.78247e-05
-8.38161e-06
6.25904e-05
-3.28357e-05
8.65424e-05
-3.1799e-05
4.78457e-05
-2.01243e-05
2.21218e-05
-6.3084e-06
1.39944e-05
5.58471e-06
2.17769e-05
-3.06111e-07
4.57658e-05
-2.23896e-05
4.44228e-05
-4.12667e-05
5.2413e-05
-5.24595e-05
0.000118227
-5.8097e-05
0.000158432
-5.35186e-05
0.000138445
-3.16959e-05
6.8864e-05
-1.45218e-05
1.48212e-05
-7.69852e-06
2.44547e-06
-4.96e-06
2.01379e-06
-2.91206e-06
3.72104e-06
5.2756e-07
6.76596e-06
9.08257e-06
-2.18416e-07
8.1426e-06
1.7776e-06
3.81301e-06
4.04149e-06
6.7355e-07
6.27138e-06
-1.04982e-06
9.51865e-06
-1.76935e-06
1.94047e-05
3.17735e-06
3.94408e-05
4.79019e-05
5.61008e-05
0.000117312
6.39177e-05
0.00014231
5.94645e-05
0.00013342
3.35845e-05
0.00010378
-7.64467e-06
0.000103889
-3.09671e-05
0.000109942
-2.8493e-05
4.54334e-05
-1.8925e-05
1.26042e-05
-8.54728e-06
3.66255e-06
5.75745e-06
7.51886e-06
5.61292e-06
4.59654e-05
-2.33311e-05
7.34261e-05
-4.49176e-05
7.4061e-05
-5.42277e-05
0.00012762
-5.37308e-05
0.000158028
-3.74393e-05
0.000122238
-1.65564e-05
4.80403e-05
-7.72662e-06
6.02884e-06
-4.63462e-06
-6.15201e-07
-2.66851e-06
7.7486e-08
-8.89897e-07
1.97065e-06
5.79873e-07
5.32342e-06
9.68977e-06
-1.4656e-07
8.31622e-06
7.51596e-07
2.94135e-06
2.73375e-06
-1.28151e-06
5.11597e-06
-3.40273e-06
7.04127e-06
-3.6632e-06
1.13854e-05
-1.13198e-06
2.58524e-05
3.34888e-05
4.7233e-05
9.60105e-05
6.10626e-05
0.00012857
6.01401e-05
0.000134433
3.91579e-05
0.000124845
2.81701e-06
0.000140313
-2.22598e-05
0.000135105
-2.23105e-05
4.55452e-05
-1.60459e-05
6.38577e-06
-9.15871e-06
-3.18322e-06
2.11791e-06
-3.71744e-06
1.07088e-05
3.7429e-05
-1.45411e-05
9.87444e-05
-4.09957e-05
0.000100586
-5.3403e-05
0.000140116
-4.76209e-05
0.000152341
-2.35732e-05
9.82683e-05
-7.16238e-06
3.16804e-05
-4.94979e-06
3.85049e-06
-3.33654e-06
-2.1988e-06
-1.46025e-06
-1.7709e-06
-1.0138e-07
6.38417e-07
3.63945e-07
4.88518e-06
1.00821e-05
-4.18831e-07
8.76196e-06
1.98781e-07
2.35016e-06
1.55108e-06
-2.60727e-06
3.82463e-06
-5.64864e-06
5.8573e-06
-5.6657e-06
7.94083e-06
-3.18183e-06
1.85297e-05
2.29478e-05
4.06804e-05
7.39303e-05
5.66718e-05
0.000112664
5.86858e-05
0.00013251
4.27774e-05
0.000140843
1.69453e-05
0.000166239
-4.67342e-06
0.000156817
-1.50391e-05
5.59727e-05
-1.2397e-05
3.7859e-06
-8.5873e-06
-6.95562e-06
-2.08327e-06
-1.01864e-05
1.28608e-05
2.25352e-05
-7.22337e-06
0.000118907
-3.85294e-05
0.000131975
-5.24112e-05
0.000154096
-4.1935e-05
0.000141962
-1.52578e-05
7.16615e-05
-3.34811e-06
1.98154e-05
-4.01108e-06
4.54799e-06
-2.58633e-06
-3.59507e-06
-8.24884e-07
-3.50597e-06
1.86913e-07
-3.4729e-07
4.53298e-07
4.64645e-06
1.05653e-05
-1.33345e-06
1.01215e-05
-6.11404e-07
1.65453e-06
5.46657e-07
-3.73812e-06
2.09698e-06
-7.17162e-06
4.3875e-06
-7.92738e-06
6.70873e-06
-5.47008e-06
1.68411e-05
1.28581e-05
3.71236e-05
5.37093e-05
5.0936e-05
9.89311e-05
5.41905e-05
0.000129342
4.23943e-05
0.00015273
3.16364e-05
0.000177095
2.07145e-05
0.000167837
-3.55589e-06
8.03098e-05
-7.06419e-06
7.33367e-06
-7.1642e-06
-6.82136e-06
-4.63275e-06
-1.26863e-05
8.03318e-06
9.91351e-06
-3.93814e-06
0.000130966
-3.38021e-05
0.000161934
-4.60173e-05
0.000166417
-3.50844e-05
0.000131129
-1.1988e-05
4.86268e-05
-4.13771e-06
1.20054e-05
-3.69995e-06
4.1455e-06
-2.04504e-06
-5.22258e-06
-2.93668e-07
-5.23211e-06
9.3157e-07
-1.54694e-06
1.21646e-06
4.38951e-06
1.18139e-05
-3.16347e-06
1.33076e-05
-1.98265e-06
5.00682e-07
-5.4535e-07
-5.14679e-06
4.74497e-07
-8.16346e-06
2.18968e-06
-9.61463e-06
4.50006e-06
-7.74931e-06
1.513e-05
2.26458e-06
3.27675e-05
3.6123e-05
4.36405e-05
8.8128e-05
4.88755e-05
0.000124185
4.51599e-05
0.00015653
4.99901e-05
0.000172359
5.22167e-05
0.000165708
2.22441e-05
0.000110357
2.54262e-06
2.70765e-05
-5.43323e-06
1.1888e-06
-6.52021e-06
-1.1568e-05
-2.90464e-06
6.3396e-06
-5.23468e-06
0.000133388
-2.17851e-05
0.000178588
-3.18978e-05
0.000176637
-2.72643e-05
0.000126591
-1.21352e-05
3.35505e-05
-6.86815e-06
6.77498e-06
-3.65611e-06
9.68016e-07
-1.63875e-06
-7.21354e-06
3.90942e-07
-7.23758e-06
2.48405e-06
-3.61586e-06
3.22894e-06
3.67093e-06
1.50771e-05
-2.35872e-06
1.56964e-05
-4.46038e-06
2.63162e-06
-2.16019e-06
-7.41852e-06
-9.96253e-07
-9.29957e-06
-1.76655e-07
-1.04076e-05
5.77189e-09
-7.9038e-06
6.0062e-06
-3.70568e-06
2.26363e-05
1.95329e-05
3.36952e-05
7.7127e-05
4.38047e-05
0.00011414
5.41454e-05
0.000146265
6.90769e-05
0.000157512
8.18322e-05
0.000153042
6.73172e-05
0.000124951
2.86875e-05
6.5761e-05
-7.5865e-07
3.06759e-05
-1.38022e-05
1.50982e-06
-1.82e-05
1.07842e-05
-1.00937e-05
0.000125371
-1.01957e-05
0.000178792
-1.55006e-05
0.000182045
-1.88049e-05
0.000129982
-1.33465e-05
2.81382e-05
-9.32385e-06
2.78607e-06
-4.34104e-06
-3.98235e-06
-1.79151e-06
-9.73709e-06
7.91268e-07
-9.79678e-06
3.87552e-06
-6.67755e-06
6.01689e-06
1.55774e-06
2.11325e-05
-2.49453e-06
1.82314e-05
-6.75676e-06
6.927e-06
-4.56697e-06
-9.58425e-06
-2.37088e-06
-1.14707e-05
-9.29034e-07
-1.18257e-05
-4.46962e-06
-4.33855e-06
-8.0956e-06
-5.27645e-08
4.75103e-06
6.71678e-06
1.9507e-05
6.24187e-05
3.84253e-05
9.52771e-05
6.29783e-05
0.000121778
8.35211e-05
0.000137046
9.72156e-05
0.000139428
9.51199e-05
0.000127125
6.0309e-05
0.000100638
1.13544e-05
7.9686e-05
-2.49417e-05
3.78547e-05
-2.9987e-05
1.58814e-05
-1.35787e-05
0.000109044
-5.66954e-06
0.000170978
-2.61234e-06
0.000179084
-6.79257e-06
0.000134243
-1.31442e-05
3.45346e-05
-1.07153e-05
3.88563e-07
-5.89747e-06
-8.77049e-06
-2.99676e-06
-1.26115e-05
-6.05217e-08
-1.27083e-05
3.67965e-06
-1.03912e-05
2.30082e-06
2.97386e-06
2.34771e-05
3.80966e-06
1.44629e-05
-8.47369e-07
1.1622e-05
-3.06839e-06
-7.33553e-06
-2.19884e-06
-1.2318e-05
1.03769e-06
-1.50393e-05
-5.18306e-06
1.91331e-06
-1.58135e-05
1.06119e-05
-1.07672e-05
1.69882e-06
4.56036e-06
4.71315e-05
2.81857e-05
7.16998e-05
5.84975e-05
9.1526e-05
8.27193e-05
0.000112895
9.67827e-05
0.000125442
9.73251e-05
0.00012666
6.80617e-05
0.000129972
2.64488e-05
0.000121362
-1.82996e-05
8.26612e-05
-3.00559e-05
2.76889e-05
-1.28592e-05
9.19161e-05
-1.29034e-06
0.000159494
7.91102e-06
0.000169972
8.97682e-06
0.000133255
-6.06418e-06
4.96242e-05
-6.88079e-06
1.23406e-06
-5.44001e-06
-1.01844e-05
-3.4201e-06
-1.4605e-05
-7.7955e-07
-1.53225e-05
-1.05598e-06
-1.00845e-05
-5.87272e-06
7.83241e-06
1.76515e-05
8.1736e-06
6.32804e-06
1.10483e-05
8.78654e-06
7.75045e-06
-4.00391e-06
6.36354e-06
-1.09026e-05
4.67998e-06
-1.33241e-05
1.57198e-06
5.06011e-06
-6.18376e-06
1.84079e-05
-1.85621e-05
1.41132e-05
-6.10125e-07
2.92166e-05
1.91543e-05
5.19793e-05
4.23289e-05
6.84075e-05
6.40997e-05
9.1192e-05
7.80909e-05
0.000111526
7.75562e-05
0.000127271
6.02722e-05
0.00014733
3.65725e-05
0.000145131
3.33121e-06
0.000115967
-2.04873e-05
5.15602e-05
-9.03368e-06
8.05223e-05
5.31712e-06
0.000145223
1.79525e-05
0.000157422
2.63454e-05
0.000124939
1.37352e-05
6.22869e-05
-2.24855e-06
1.72505e-05
-5.55809e-06
-6.8488e-06
-4.71869e-06
-1.54178e-05
-4.55507e-06
-1.54592e-05
-7.53714e-06
-7.06899e-06
-7.4113e-06
7.74851e-06
1.02839e-05
5.28706e-06
1.07513e-06
1.05952e-05
3.51526e-06
1.03338e-05
-3.70762e-06
8.59919e-06
-9.13488e-06
5.17314e-06
-9.86308e-06
9.69886e-06
5.74169e-07
1.40343e-05
1.41148e-05
3.95719e-06
2.42333e-05
1.26179e-05
2.05924e-05
2.76708e-05
3.69726e-05
4.24642e-05
5.36721e-05
5.60814e-05
7.76408e-05
6.42301e-05
0.000103448
6.18922e-05
0.000129683
5.87435e-05
0.000150553
4.97276e-05
0.000154223
2.93961e-05
0.00013637
-6.19352e-06
8.72099e-05
-2.91802e-06
7.73049e-05
1.11889e-05
0.000131196
2.36717e-05
0.000145027
3.18505e-05
0.000116839
2.56772e-05
6.85152e-05
-3.78551e-06
4.67624e-05
-9.34718e-06
-1.2552e-06
-8.93337e-06
-1.58047e-05
-9.39936e-06
-1.49644e-05
-9.82734e-06
-6.6055e-06
-6.44991e-06
4.41343e-06
3.87445e-06
-2.18616e-06
3.28724e-06
5.04808e-07
8.55393e-07
1.2674e-06
-4.43965e-06
-3.61185e-07
-7.47455e-06
-5.8342e-09
-1.01863e-05
8.23308e-06
-7.62898e-06
2.3178e-05
-7.88908e-07
3.72091e-05
1.02501e-05
4.11657e-05
1.66857e-05
4.87552e-05
2.94398e-05
5.48146e-05
4.7674e-05
5.94105e-05
7.31101e-05
6.20028e-05
0.000100924
6.49211e-05
0.000126836
7.0548e-05
0.000145002
7.26001e-05
0.00015225
6.12309e-05
0.00014782
2.65006e-05
0.000122013
1.20063e-05
9.18596e-05
1.58898e-05
0.000127392
2.43509e-05
0.000136652
2.88434e-05
0.000112419
1.01277e-05
8.72898e-05
-1.0159e-05
6.71088e-05
-1.36365e-05
2.26398e-06
-1.17485e-05
-1.76612e-05
-1.05081e-05
-1.61726e-05
-8.8879e-06
-8.18939e-06
-4.70597e-06
2.7041e-07
-7.92912e-07
-2.64654e-06
5.95682e-06
-4.07607e-06
2.30875e-06
-6.02778e-06
-2.46376e-06
-6.63048e-06
-6.8457e-06
-6.20771e-06
-1.05811e-05
-1.90473e-06
-1.19012e-05
8.89537e-06
-1.15539e-05
2.6079e-05
-6.89042e-06
4.03857e-05
2.42974e-06
5.25271e-05
1.73553e-05
6.17574e-05
3.8505e-05
6.69924e-05
6.79402e-05
7.09199e-05
9.70653e-05
7.80874e-05
0.000119742
8.85314e-05
0.000134636
9.74681e-05
0.000143397
9.39832e-05
0.000151395
6.81545e-05
0.00014793
3.35659e-05
0.000126522
2.18919e-05
0.000139145
1.89182e-05
0.000139705
9.7062e-06
0.000121699
-1.40668e-05
0.000111131
-1.25279e-05
6.56319e-05
-1.03605e-05
1.40841e-07
-8.45941e-06
-1.95279e-05
-8.05681e-06
-1.65411e-05
-6.95191e-06
-9.25802e-06
-3.24343e-06
-3.39682e-06
-3.99932e-06
-2.3435e-06
8.32433e-06
-3.90856e-06
3.89709e-06
-5.62775e-06
-7.22071e-07
-7.20928e-06
-5.24178e-06
-8.41095e-06
-9.35642e-06
-7.68295e-06
-1.26042e-05
-4.65928e-06
-1.45487e-05
2.72906e-06
-1.42443e-05
1.53334e-05
-1.01326e-05
3.11942e-05
1.54437e-06
4.7331e-05
2.24255e-05
6.14564e-05
5.38787e-05
7.37888e-05
8.4803e-05
8.55205e-05
0.000108086
9.87517e-05
0.000121486
0.00011091
0.000131327
0.000114816
0.000147582
9.77859e-05
0.000165054
5.85673e-05
0.000165821
3.12582e-05
0.00016653
1.07166e-05
0.00016032
-1.29021e-05
0.000145388
-2.13561e-05
0.000119653
-9.5362e-06
5.38721e-05
-4.28538e-06
-5.06647e-06
-4.30935e-06
-1.94688e-05
-4.50009e-06
-1.63156e-05
-3.9825e-06
-9.7392e-06
-1.73281e-06
-5.60995e-06
-5.69667e-06
-1.88276e-06
1.02326e-05
-3.38681e-06
5.42536e-06
-5.00944e-06
9.23618e-07
-6.48801e-06
-3.74105e-06
-7.58884e-06
-8.23362e-06
-8.31899e-06
-1.18513e-05
-8.56679e-06
-1.42763e-05
-7.30014e-06
-1.54832e-05
-2.87008e-06
-1.45286e-05
8.7112e-06
-9.99535e-06
2.65142e-05
4.67274e-06
4.72943e-05
3.31585e-05
6.55285e-05
6.66377e-05
8.18538e-05
9.18363e-05
9.58065e-05
0.000107614
0.000107034
0.000120184
0.000110121
0.000144582
9.79007e-05
0.000177359
6.80983e-05
0.000195699
3.6611e-05
0.000198088
7.50985e-06
0.00018949
-1.54238e-05
0.00016839
-1.59986e-05
0.000120295
-1.63672e-06
3.95675e-05
2.78559e-06
-9.44586e-06
8.77786e-07
-1.75258e-05
-5.29491e-07
-1.48737e-05
-7.86479e-07
-9.44597e-06
-5.60061e-07
-5.80077e-06
-6.22098e-06
-1.4919e-06
1.17513e-05
-2.52648e-06
6.48491e-06
-4.16843e-06
2.58928e-06
-5.92315e-06
-1.96401e-06
-7.37606e-06
-6.75925e-06
-8.60873e-06
-1.05968e-05
-9.67365e-06
-1.31883e-05
-1.02984e-05
-1.48334e-05
-9.33227e-06
-1.54665e-05
-5.18802e-06
-1.41055e-05
7.36638e-06
-7.83945e-06
2.99013e-05
1.06763e-05
5.2355e-05
4.42477e-05
7.07201e-05
7.35427e-05
8.37359e-05
9.46742e-05
9.14986e-05
0.000112499
9.06369e-05
0.000145521
8.07461e-05
0.000187325
6.11178e-05
0.0002154
3.6185e-05
0.000223092
1.02106e-05
0.000215536
-9.241e-06
0.000187912
-8.86212e-06
0.000119982
7.44059e-06
2.33193e-05
9.83385e-06
-1.1798e-05
5.62777e-06
-1.32842e-05
2.72987e-06
-1.19414e-05
1.51287e-06
-8.19325e-06
5.58931e-07
-4.81235e-06
-5.62621e-06
7.93147e-07
1.09866e-05
-4.94029e-07
7.7984e-06
-2.53648e-06
4.65646e-06
-5.02092e-06
5.42568e-07
-7.60003e-06
-4.15937e-06
-9.57947e-06
-8.59628e-06
-1.12629e-05
-1.14824e-05
-1.26187e-05
-1.34536e-05
-1.30988e-05
-1.49605e-05
-1.14759e-05
-1.56995e-05
-5.13439e-06
-1.41462e-05
1.08583e-05
-5.27221e-06
3.44977e-05
2.0664e-05
5.33127e-05
5.4792e-05
6.65402e-05
8.15149e-05
7.26974e-05
0.000106411
7.21013e-05
0.000146188
6.67242e-05
0.000192774
5.54196e-05
0.000226778
3.73244e-05
0.000241263
1.50028e-05
0.000237933
-3.76234e-06
0.000206751
-2.38855e-06
0.000118675
1.31197e-05
7.86013e-06
1.12235e-05
-9.86465e-06
7.16612e-06
-9.19232e-06
3.80249e-06
-8.54499e-06
2.03709e-06
-6.39386e-06
1.22425e-06
-3.96402e-06
-4.36763e-06
1.96738e-06
9.04759e-06
2.37545e-06
7.41828e-06
1.03716e-06
6.02161e-06
-2.86592e-06
4.47071e-06
-8.43165e-06
1.42884e-06
-1.23498e-05
-4.65719e-06
-1.40137e-05
-9.79617e-06
-1.56177e-05
-1.18256e-05
-1.66292e-05
-1.39235e-05
-1.6515e-05
-1.57867e-05
-1.37961e-05
-1.68354e-05
-4.53263e-06
-1.44991e-05
1.5348e-05
8.30723e-07
3.58473e-05
3.43495e-05
5.01394e-05
6.72848e-05
5.80448e-05
9.85708e-05
6.23726e-05
0.000141927
6.41996e-05
0.000191018
6.0228e-05
0.000230825
4.69109e-05
0.000254658
2.61721e-05
0.000258752
6.52584e-06
0.000226475
6.52234e-06
0.000118746
1.07343e-05
3.68994e-06
6.60551e-06
-5.70029e-06
4.51675e-06
-7.07092e-06
2.42483e-06
-6.42121e-06
1.49801e-06
-5.43427e-06
1.23119e-06
-3.66331e-06
-3.10337e-06
-7.39871e-07
9.8159e-06
-1.80447e-06
8.51114e-06
-3.46157e-06
7.70645e-06
-6.23267e-06
7.26931e-06
-1.03681e-05
5.59024e-06
-1.52667e-05
2.65873e-07
-1.73992e-05
-7.64115e-06
-1.92616e-05
-9.93878e-06
-2.04607e-05
-1.26986e-05
-2.10782e-05
-1.51421e-05
-2.03984e-05
-1.7487e-05
-1.64778e-05
-1.83884e-05
-2.88575e-06
-1.27205e-05
1.90104e-05
1.2505e-05
3.5831e-05
5.05224e-05
4.86227e-05
8.58413e-05
6.08873e-05
0.000129729
7.21874e-05
0.000179788
7.65757e-05
0.000226512
6.884e-05
0.000262475
4.99382e-05
0.000277738
2.91548e-05
0.000247343
2.04684e-05
0.000127503
1.07176e-05
1.34826e-05
6.17913e-06
-1.12503e-06
4.11662e-06
-4.97595e-06
2.52203e-06
-4.79487e-06
1.57449e-06
-4.45504e-06
1.01938e-06
-3.07562e-06
-2.05184e-06
-8.69396e-07
1.07144e-05
-2.06396e-06
9.7343e-06
-3.48543e-06
9.15544e-06
-4.88901e-06
8.69925e-06
-7.51904e-06
8.24634e-06
-1.17779e-05
4.55042e-06
-1.79932e-05
-1.40004e-06
-2.30976e-05
-4.80938e-06
-2.45787e-05
-1.11907e-05
-2.54239e-05
-1.42685e-05
-2.59649e-05
-1.69162e-05
-2.48602e-05
-1.94623e-05
-1.84536e-05
-1.90911e-05
1.03045e-06
-6.93192e-06
2.319e-05
2.84186e-05
4.25679e-05
6.65242e-05
6.41048e-05
0.000108257
8.70471e-05
0.000156916
0.000102397
0.00021124
0.000102373
0.000262584
8.67428e-05
0.000293461
6.30908e-05
0.000271089
3.84447e-05
0.000152229
1.57403e-05
3.62366e-05
8.14045e-06
6.51382e-06
4.64537e-06
-1.44757e-06
2.93676e-06
-3.05436e-06
1.7551e-06
-3.24204e-06
9.54283e-07
-2.24284e-06
-1.06602e-06
-6.94938e-07
1.14393e-05
-1.72981e-06
1.07983e-05
-3.11479e-06
1.05682e-05
-4.87317e-06
1.04839e-05
-6.56956e-06
9.96851e-06
-1.09505e-05
8.95844e-06
-2.02427e-05
7.92289e-06
-2.69182e-05
1.89479e-06
-2.88864e-05
-9.19473e-06
-2.93856e-05
-1.37391e-05
-2.97362e-05
-1.65337e-05
-3.01543e-05
-1.9011e-05
-2.85212e-05
-2.06899e-05
-1.73774e-05
-1.80356e-05
8.82778e-06
2.26331e-06
3.32448e-05
4.21657e-05
6.25473e-05
7.90183e-05
9.7777e-05
0.000121757
0.000127684
0.000181414
0.000139726
0.000250635
0.000131099
0.000302194
0.000105181
0.000297119
6.1937e-05
0.000195569
2.38948e-05
7.43409e-05
1.10652e-05
1.93867e-05
5.87349e-06
3.77934e-06
3.54441e-06
-6.93134e-07
2.0201e-06
-1.68632e-06
1.05825e-06
-1.24932e-06
2.33863e-08
-2.85395e-07
1.1755e-05
-1.04782e-06
1.15903e-05
-2.34037e-06
1.1889e-05
-4.42107e-06
1.25916e-05
-6.73161e-06
1.23063e-05
-1.60068e-05
1.82661e-05
-2.87725e-05
2.07263e-05
-3.17653e-05
4.92182e-06
-3.27911e-05
-8.13827e-06
-3.27992e-05
-1.36995e-05
-3.24694e-05
-1.68301e-05
-3.22965e-05
-1.91492e-05
-3.16829e-05
-2.12677e-05
-2.76153e-05
-2.20671e-05
-9.27204e-06
-1.60403e-05
1.52561e-05
1.76898e-05
4.54064e-05
4.89279e-05
8.92711e-05
7.79594e-05
0.000135664
0.000135103
0.00016534
0.000221063
0.000170319
0.000297339
0.000148323
0.000319254
9.4577e-05
0.000249439
3.85266e-05
0.000130474
1.48471e-05
4.31166e-05
7.08735e-06
1.15766e-05
3.87916e-06
2.54784e-06
2.15062e-06
7.36767e-08
1.1048e-06
-1.72188e-07
1.15885e-06
3.60633e-08
1.17488e-05
-6.59814e-07
1.23154e-05
-1.86917e-06
1.31268e-05
-5.99611e-06
1.67473e-05
-1.93502e-05
2.56939e-05
-3.13944e-05
3.03531e-05
-3.58339e-05
2.521e-05
-3.54931e-05
4.61691e-06
-3.57514e-05
-7.84791e-06
-3.51885e-05
-1.42303e-05
-3.43028e-05
-1.76823e-05
-3.34714e-05
-1.99457e-05
-3.26826e-05
-2.20209e-05
-3.12338e-05
-2.34801e-05
-2.57553e-05
-2.14816e-05
-5.29611e-06
-2.72525e-06
1.8357e-05
2.5328e-05
6.05222e-05
3.58537e-05
0.000114953
8.0751e-05
0.000163473
0.000172655
0.000188828
0.000272132
0.000181209
0.000327041
0.000134574
0.00029623
6.82293e-05
0.00019693
2.31298e-05
8.82813e-05
8.19316e-06
2.65545e-05
3.68787e-06
7.08659e-06
1.98969e-06
1.80306e-06
8.23622e-07
1.02495e-06
2.01262e-06
-1.70394e-07
1.19475e-05
-1.95067e-06
1.41246e-05
-5.20122e-06
1.64061e-05
-1.94054e-05
3.09846e-05
-3.42367e-05
4.05678e-05
-3.889e-05
3.50529e-05
-3.75029e-05
2.38678e-05
-3.69005e-05
4.05033e-06
-3.67428e-05
-7.9739e-06
-3.62252e-05
-1.47163e-05
-3.53365e-05
-1.85385e-05
-3.41859e-05
-2.10626e-05
-3.3081e-05
-2.30916e-05
-3.17656e-05
-2.47612e-05
-3.00462e-05
-2.31656e-05
-2.08905e-05
-1.1839e-05
-3.66162e-06
8.14757e-06
2.67792e-05
5.46195e-06
7.58219e-05
3.17756e-05
0.000135249
0.000113338
0.000177856
0.00022969
0.000189282
0.000315803
0.000162382
0.00032331
0.000105076
0.000254377
4.4333e-05
0.000149112
1.23525e-05
5.85844e-05
3.70722e-06
1.57669e-05
2.37734e-06
3.16396e-06
8.932e-07
2.53907e-06
2.93565e-06
-9.30021e-07
1.29045e-05
-5.9617e-06
1.91851e-05
-1.52101e-05
2.56836e-05
-2.77173e-05
4.35305e-05
-3.58112e-05
4.87079e-05
-3.80185e-05
3.73068e-05
-3.548e-05
2.13721e-05
-3.52679e-05
3.87271e-06
-3.54312e-05
-7.78019e-06
-3.59424e-05
-1.4175e-05
-3.55117e-05
-1.89381e-05
-3.44544e-05
-2.20877e-05
-3.31364e-05
-2.4377e-05
-3.16119e-05
-2.62537e-05
-2.9199e-05
-2.55463e-05
-2.51279e-05
-1.58708e-05
-1.0694e-05
-6.24284e-06
6.14687e-06
-1.13378e-05
3.80396e-05
-6.49483e-08
9.27918e-05
5.8679e-05
0.000143764
0.000178862
0.000171281
0.000288464
0.000166704
0.000328069
0.000133096
0.000288137
7.86761e-05
0.000203637
3.00643e-05
0.000107259
8.01978e-06
3.78498e-05
5.62044e-06
5.59356e-06
1.24967e-06
6.94001e-06
4.21546e-06
-1.1697e-06
1.41005e-05
-6.25034e-06
2.42941e-05
-1.47172e-05
3.41813e-05
-2.20288e-05
5.08827e-05
-2.94307e-05
5.61561e-05
-3.10968e-05
3.90177e-05
-3.07195e-05
2.10338e-05
-3.21906e-05
5.37616e-06
-3.34355e-05
-6.50642e-06
-3.46383e-05
-1.29433e-05
-3.47345e-05
-1.88125e-05
-3.40115e-05
-2.27803e-05
-3.26819e-05
-2.56759e-05
-3.0867e-05
-2.80389e-05
-2.72673e-05
-2.91177e-05
-2.05809e-05
-2.25233e-05
-6.76715e-06
-2.00204e-05
1.99617e-06
-2.00668e-05
1.52228e-05
-1.32534e-05
5.27554e-05
2.12067e-05
9.84722e-05
0.00013325
0.000131023
0.000256073
0.000141363
0.000317898
0.000131399
0.000298244
9.77772e-05
0.000237369
5.21893e-05
0.000152922
2.17466e-05
6.83373e-05
1.10437e-05
1.63256e-05
3.43475e-06
1.45784e-05
7.67966e-06
-2.03861e-06
1.61647e-05
-6.10068e-06
2.83842e-05
-1.08058e-05
3.8918e-05
-1.25246e-05
5.26415e-05
-1.50201e-05
5.86973e-05
-1.70572e-05
4.10949e-05
-2.24205e-05
2.64316e-05
-2.68823e-05
9.86821e-06
-3.0083e-05
-3.27762e-06
-3.21074e-05
-1.0891e-05
-3.28112e-05
-1.80808e-05
-3.2559e-05
-2.3004e-05
-3.13376e-05
-2.68688e-05
-2.93263e-05
-3.00227e-05
-2.54482e-05
-3.29705e-05
-1.69491e-05
-3.09947e-05
-6.18611e-06
-3.07549e-05
3.18997e-07
-2.65435e-05
7.18924e-06
-2.00928e-05
2.80495e-05
3.89753e-07
5.68069e-05
0.000104584
8.28687e-05
0.000230149
9.99783e-05
0.000300935
0.000104527
0.000293826
8.81894e-05
0.000253815
5.43176e-05
0.000186874
2.35052e-05
9.92021e-05
1.09815e-05
2.88782e-05
5.15093e-06
2.04375e-05
1.28588e-05
-3.76115e-06
1.99505e-05
-8.30236e-06
3.29519e-05
-1.1952e-05
4.25981e-05
-8.35922e-06
4.90844e-05
-3.11191e-06
5.34901e-05
-4.67098e-06
4.26879e-05
-1.24978e-05
3.42881e-05
-2.12344e-05
1.86328e-05
-2.79958e-05
3.51037e-06
-3.14576e-05
-7.40172e-06
-3.06225e-05
-1.88886e-05
-3.03038e-05
-2.32958e-05
-2.90347e-05
-2.81114e-05
-2.67203e-05
-3.23122e-05
-2.334e-05
-3.63285e-05
-1.6403e-05
-3.79097e-05
-8.70498e-06
-3.84302e-05
-2.11252e-06
-3.31124e-05
3.31727e-06
-2.54968e-05
1.2638e-05
-8.89672e-06
2.29042e-05
9.43959e-05
3.84993e-05
0.000214672
5.91649e-05
0.000280399
7.13765e-05
0.000281735
6.79836e-05
0.000257312
4.59671e-05
0.000208976
1.81427e-05
0.000127087
5.9874e-06
4.10648e-05
1.51196e-06
2.49417e-05
1.43984e-05
-7.04455e-06
2.70159e-05
-1.15991e-05
3.75308e-05
-1.15856e-05
4.26158e-05
-3.99373e-06
4.15243e-05
4.71676e-06
4.48157e-05
2.06506e-06
4.53762e-05
-5.38588e-06
4.17748e-05
-2.17934e-05
3.50779e-05
-3.6181e-05
1.79348e-05
-3.63963e-05
-7.15478e-06
-2.97493e-05
-2.55101e-05
-2.78657e-05
-2.5154e-05
-2.63367e-05
-2.96159e-05
-2.36541e-05
-3.49721e-05
-2.04044e-05
-3.95586e-05
-1.54965e-05
-4.28e-05
-1.06122e-05
-4.32964e-05
-6.68398e-06
-3.70218e-05
-6.06468e-06
-2.60949e-05
-5.63637e-06
-9.29568e-06
-1.06303e-05
9.94613e-05
-1.11743e-06
0.000205265
2.50147e-05
0.000254381
4.52406e-05
0.000261617
5.2712e-05
0.000249941
4.29859e-05
0.000218791
2.30077e-05
0.000147133
6.64198e-06
5.7467e-05
1.35442e-06
3.02588e-05
1.57801e-05
-7.10606e-06
3.41504e-05
-8.44728e-06
3.89048e-05
-8.5397e-06
4.2742e-05
-1.12884e-05
4.43098e-05
-1.75489e-05
5.11145e-05
-2.76313e-05
5.54983e-05
-3.72149e-05
5.13982e-05
-4.36369e-05
4.15396e-05
-4.82594e-05
2.25965e-05
-5.11764e-05
-4.19927e-06
-4.44745e-05
-3.21776e-05
-2.76091e-05
-4.19946e-05
-2.38656e-05
-3.33367e-05
-2.07458e-05
-3.80715e-05
-1.73481e-05
-4.29387e-05
-1.36759e-05
-4.64577e-05
-1.07713e-05
-4.6187e-05
-8.49565e-06
-3.9284e-05
-1.58047e-05
-1.87679e-05
-3.14597e-05
6.39213e-06
-4.35271e-05
0.000111605
-3.01401e-05
0.00019198
1.35966e-06
0.000222986
2.83302e-05
0.000234748
4.43197e-05
0.000234049
4.52567e-05
0.000217946
3.27164e-05
0.000159747
1.08781e-05
7.93498e-05
3.15333e-06
3.80141e-05
1.89607e-05
-9.11984e-06
4.33071e-05
-1.97016e-05
4.95251e-05
-2.99141e-05
5.29925e-05
-4.10021e-05
5.54367e-05
-4.83023e-05
5.84537e-05
-5.12745e-05
5.85096e-05
-5.26496e-05
5.28124e-05
-5.22268e-05
4.11558e-05
-5.14621e-05
2.18705e-05
-5.15381e-05
-4.08501e-06
-5.12717e-05
-3.24061e-05
-3.75838e-05
-5.56507e-05
-2.19188e-05
-4.89794e-05
-1.82227e-05
-4.17494e-05
-1.45868e-05
-4.65587e-05
-1.11841e-05
-4.98475e-05
-7.95759e-06
-4.94014e-05
-7.25771e-06
-3.99772e-05
-2.90931e-05
3.08912e-06
-6.8743e-05
4.60899e-05
-6.17885e-05
0.00010474
-3.96395e-05
0.00016994
-8.946e-06
0.000192396
1.8315e-05
0.000207588
3.90896e-05
0.000213373
5.08909e-05
0.000206241
4.5069e-05
0.000165653
2.07201e-05
0.000103753
6.45041e-06
5.23163e-05
2.54361e-05
-1.73015e-05
6.06469e-05
-3.0648e-05
6.29107e-05
-4.13357e-05
6.37193e-05
-4.97017e-05
6.38419e-05
-5.43672e-05
6.31582e-05
-5.56188e-05
5.98002e-05
-5.50132e-05
5.22458e-05