/*--------------------------------*- C++ -*----------------------------------*\
| =========                 |                                                 |
| \\      /  F ield         | OpenFOAM: The Open Source CFD Toolbox           |
|  \\    /   O peration     | Version:  v1606+                                |
|   \\  /    A nd           | Web:      www.OpenFOAM.com                      |
|    \\/     M anipulation  |                                                 |
\*---------------------------------------------------------------------------*/
FoamFile
{
    version     2.0;
    format      ascii;
    class       volVectorField;
    location    "0.78";
    object      U.particles;
}
// * * * * * * * * * * * * * * * * * * * * * * * * * * * * * * * * * * * * * //

dimensions      [0 1 -1 0 0 0 0];

internalField   nonuniform List<vector> 
6000
(
(-0.00979665 -0.288038 0)
(-0.00117675 -0.289379 0)
(0.0176943 -0.296048 0)
(0.0272818 -0.324565 0)
(0.0241726 -0.36402 0)
(0.0129968 -0.390524 0)
(-0.00114586 -0.415523 0)
(-0.0136741 -0.431024 0)
(-0.0259075 -0.422754 0)
(-0.0354218 -0.44308 0)
(-0.0403593 -0.473693 0)
(-0.0369862 -0.510474 0)
(-0.0263568 -0.518474 0)
(-0.01516 -0.536948 0)
(-0.00394309 -0.544006 0)
(0.00596632 -0.546656 0)
(0.0146294 -0.543418 0)
(0.0233208 -0.531896 0)
(0.0343733 -0.525963 0)
(0.0367744 -0.47919 0)
(0.0326261 -0.450773 0)
(0.0241582 -0.42688 0)
(0.0140644 -0.428063 0)
(0.0038727 -0.410532 0)
(-0.00964045 -0.384144 0)
(-0.0200367 -0.357703 0)
(-0.023299 -0.323373 0)
(-0.0149459 -0.297113 0)
(0.00232509 -0.289637 0)
(0.0101314 -0.288113 0)
(0.0112587 0.154933 0)
(0.0154334 0.119003 0)
(0.0436594 0.126023 0)
(0.063226 0.155532 0)
(0.0706003 0.188133 0)
(0.064015 0.191583 0)
(0.0353813 0.187063 0)
(-0.0199141 0.189967 0)
(-0.061397 0.147564 0)
(-0.0644034 0.117745 0)
(-0.0526115 0.11043 0)
(-0.039935 0.106806 0)
(-0.0292412 0.0964171 0)
(-0.0186139 0.0972413 0)
(-0.0038445 0.0932331 0)
(0.0111482 0.0891374 0)
(0.020475 0.0924978 0)
(0.028163 0.100668 0)
(0.0378963 0.10135 0)
(0.0502874 0.100091 0)
(0.0623667 0.115024 0)
(0.0588582 0.147826 0)
(0.0186998 0.18633 0)
(-0.0332792 0.185904 0)
(-0.0592729 0.191048 0)
(-0.0646578 0.189105 0)
(-0.0584368 0.161096 0)
(-0.0408542 0.132726 0)
(-0.0137543 0.125092 0)
(-0.0103194 0.158661 0)
(0.0108416 -0.0581249 0)
(0.031229 -0.108491 0)
(0.0596676 -0.0967143 0)
(0.0712458 -0.052121 0)
(0.0686332 0.00729538 0)
(0.0562317 0.0807629 0)
(0.0189244 0.146426 0)
(-0.0395186 0.159298 0)
(-0.0711237 0.101578 0)
(-0.0700084 0.0370804 0)
(-0.0538056 0.00223995 0)
(-0.0323936 -0.00976175 0)
(-0.0219952 -0.0125157 0)
(-0.0180707 -0.00974942 0)
(-0.00231966 -0.0104039 0)
(0.0153257 -0.000733834 0)
(0.0200977 0.00206907 0)
(0.0196377 -0.0102105 0)
(0.031022 -0.0100517 0)
(0.0530201 -0.000579551 0)
(0.0692397 0.0334439 0)
(0.0726842 0.0991326 0)
(0.0423043 0.154185 0)
(-0.0133306 0.142705 0)
(-0.048729 0.0793899 0)
(-0.0635303 0.00727738 0)
(-0.0680066 -0.0516955 0)
(-0.0581857 -0.0963034 0)
(-0.0296769 -0.108313 0)
(-0.00904754 -0.0548792 0)
(0.0412595 -0.214175 0)
(0.0560126 -0.233625 0)
(0.0743747 -0.227386 0)
(0.0918485 -0.194835 0)
(0.0969035 -0.128122 0)
(0.0703651 -0.0277361 0)
(0.0294098 0.101875 0)
(-0.0259467 0.177454 0)
(-0.0619156 0.157535 0)
(-0.066166 0.104337 0)
(-0.0427094 0.0631933 0)
(-0.0159859 0.0564118 0)
(-0.00770305 0.0719295 0)
(-0.00887712 0.0747383 0)
(0.00170532 0.0623259 0)
(0.0142547 0.0718133 0)
(0.0133736 0.0829109 0)
(0.00366716 0.0702852 0)
(0.014293 0.0520029 0)
(0.0438496 0.0570253 0)
(0.0693184 0.0978355 0)
(0.0666342 0.152241 0)
(0.0334908 0.172458 0)
(-0.0202719 0.0989981 0)
(-0.0653794 -0.0309401 0)
(-0.0959279 -0.132157 0)
(-0.0921397 -0.197274 0)
(-0.073988 -0.229678 0)
(-0.0555593 -0.236262 0)
(-0.0424387 -0.214944 0)
(0.0262512 -0.287595 0)
(0.0511667 -0.295105 0)
(0.0731797 -0.294241 0)
(0.0983325 -0.283174 0)
(0.124517 -0.253317 0)
(0.135272 -0.200668 0)
(0.101399 -0.0885661 0)
(0.0347237 0.0709664 0)
(-0.0331633 0.133095 0)
(-0.0611993 0.106674 0)
(-0.0399589 0.0515284 0)
(-0.00958845 0.0483292 0)
(0.000819842 0.0708713 0)
(0.00442501 0.0511138 0)
(0.00759326 0.00867634 0)
(0.00547137 0.0394743 0)
(-0.000341506 0.0879886 0)
(-0.00498225 0.0772148 0)
(0.0074451 0.0408896 0)
(0.0422885 0.0412491 0)
(0.0664792 0.0983413 0)
(0.0398935 0.128192 0)
(-0.0249259 0.0710597 0)
(-0.0963274 -0.0891562 0)
(-0.135031 -0.202279 0)
(-0.12468 -0.255395 0)
(-0.0986701 -0.28493 0)
(-0.0731272 -0.296325 0)
(-0.0511206 -0.298085 0)
(-0.0295445 -0.290585 0)
(-0.0146281 -0.266494 0)
(0.0286675 -0.268572 0)
(0.0502688 -0.281927 0)
(0.0749993 -0.286195 0)
(0.106806 -0.275685 0)
(0.150835 -0.243498 0)
(0.163395 -0.196178 0)
(0.156828 -0.105431 0)
(0.0865854 0.00959847 0)
(-0.00250174 0.0602568 0)
(-0.0187113 0.0192997 0)
(-0.000828787 0.0168118 0)
(0.00573506 0.0255047 0)
(0.00940237 -0.0329225 0)
(0.00188664 -0.0822668 0)
(-0.00713008 -0.0480022 0)
(-0.00876877 0.0307587 0)
(-0.00687959 0.0456655 0)
(0.000862371 0.0127495 0)
(0.0224483 0.00559213 0)
(0.011241 0.0526278 0)
(-0.0772307 0.00896701 0)
(-0.151832 -0.10223 0)
(-0.163944 -0.1945 0)
(-0.15129 -0.240232 0)
(-0.107463 -0.272207 0)
(-0.0752851 -0.282851 0)
(-0.0508639 -0.279703 0)
(-0.0294119 -0.268806 0)
(0.00958049 -0.269828 0)
(-0.0253931 -0.218453 0)
(0.0170647 -0.245 0)
(0.0341483 -0.266949 0)
(0.0586137 -0.275716 0)
(0.0873257 -0.27063 0)
(0.132677 -0.245429 0)
(0.163383 -0.188011 0)
(0.200734 -0.153519 0)
(0.197936 -0.0662927 0)
(0.109482 -0.00446849 0)
(0.0299166 -0.0159377 0)
(0.00765934 -0.0425753 0)
(-0.00417182 -0.0751084 0)
(-0.0152124 -0.180358 0)
(-0.0196045 -0.241102 0)
(-0.00472806 -0.216044 0)
(0.00332732 -0.127738 0)
(0.00227816 -0.0468922 0)
(-0.00601298 -0.0404784 0)
(-0.0191843 -0.0327664 0)
(-0.0939311 -0.00800695 0)
(-0.187725 -0.0644384 0)
(-0.200627 -0.150816 0)
(-0.165158 -0.18572 0)
(-0.131876 -0.241739 0)
(-0.0874465 -0.2669 0)
(-0.0578497 -0.272335 0)
(-0.0340191 -0.264424 0)
(-0.016946 -0.244241 0)
(0.0247207 -0.219774 0)
(-0.0431908 -0.152858 0)
(0.00665846 -0.196154 0)
(0.0148956 -0.220318 0)
(0.0397315 -0.236002 0)
(0.0638187 -0.237643 0)
(0.101345 -0.220755 0)
(0.141741 -0.15623 0)
(0.179563 -0.113536 0)
(0.225403 -0.0433866 0)
(0.184342 -0.0123803 0)
(0.0965181 -0.0233517 0)
(-0.00987772 -0.0943573 0)
(-0.0597098 -0.197147 0)
(-0.0692415 -0.316233 0)
(-0.0452985 -0.3657 0)
(-0.00200531 -0.361958 0)
(0.0449519 -0.316911 0)
(0.0579333 -0.1911 0)
(0.00873898 -0.0951503 0)
(-0.0760431 -0.0380668 0)
(-0.164632 -0.0103589 0)
(-0.212005 -0.0341645 0)
(-0.18107 -0.108845 0)
(-0.14518 -0.154472 0)
(-0.101153 -0.216277 0)
(-0.0641343 -0.233764 0)
(-0.0387519 -0.232245 0)
(-0.0143813 -0.218338 0)
(-0.00588933 -0.194792 0)
(0.0410592 -0.15374 0)
(-0.0613733 -0.0809372 0)
(-0.0043092 -0.153547 0)
(0.00289236 -0.194199 0)
(0.0208375 -0.215876 0)
(0.0448032 -0.220344 0)
(0.0776639 -0.204427 0)
(0.111449 -0.141285 0)
(0.14221 -0.0784059 0)
(0.219061 -0.010539 0)
(0.229823 0.0231745 0)
(0.141514 -0.00865103 0)
(-0.0590686 -0.112877 0)
(-0.107986 -0.261888 0)
(-0.0957431 -0.353661 0)
(-0.0585744 -0.394554 0)
(-0.0123371 -0.401855 0)
(0.0569272 -0.380071 0)
(0.101132 -0.270781 0)
(0.0607287 -0.127954 0)
(-0.113693 -0.0156567 0)
(-0.200212 0.0329784 0)
(-0.211763 0.00917728 0)
(-0.145227 -0.0696387 0)
(-0.116091 -0.14035 0)
(-0.078064 -0.200936 0)
(-0.04397 -0.217479 0)
(-0.0184668 -0.213267 0)
(-0.000516098 -0.192293 0)
(0.00584268 -0.151602 0)
(0.0577208 -0.0819243 0)
(-0.0208785 -0.0430541 0)
(-0.0110649 -0.102276 0)
(-0.00623084 -0.162909 0)
(0.0120183 -0.196926 0)
(0.0311499 -0.208492 0)
(0.0582902 -0.195486 0)
(0.0728509 -0.13166 0)
(0.12133 -0.067471 0)
(0.205892 0.00732556 0)
(0.243449 0.0603642 0)
(0.177113 0.0405834 0)
(-0.0696892 -0.0676509 0)
(-0.119201 -0.238424 0)
(-0.10165 -0.329672 0)
(-0.0635433 -0.376581 0)
(-0.0278128 -0.389371 0)
(0.0429737 -0.369512 0)
(0.0975072 -0.277817 0)
(0.0982766 -0.111968 0)
(-0.123982 0.0252627 0)
(-0.222715 0.0756021 0)
(-0.202408 0.0352196 0)
(-0.120479 -0.0533198 0)
(-0.0767651 -0.12949 0)
(-0.0538687 -0.190221 0)
(-0.02495 -0.204158 0)
(-0.00660054 -0.193687 0)
(0.00986208 -0.158604 0)
(0.0129734 -0.102342 0)
(0.0198367 -0.043729 0)
(-0.00625118 -0.0296198 0)
(-0.0111367 -0.0791289 0)
(-0.00747178 -0.1291 0)
(0.00897605 -0.179438 0)
(0.0258721 -0.201799 0)
(0.0437001 -0.19557 0)
(0.0474295 -0.133634 0)
(0.10886 -0.0703264 0)
(0.189514 0.0160187 0)
(0.236352 0.105756 0)
(0.177222 0.106889 0)
(-0.0638975 0.0113713 0)
(-0.0989789 -0.166498 0)
(-0.099295 -0.289216 0)
(-0.0644391 -0.349665 0)
(-0.035576 -0.37359 0)
(0.0312394 -0.354847 0)
(0.077841 -0.270642 0)
(0.130159 -0.0601229 0)
(-0.0843603 0.079504 0)
(-0.216101 0.124132 0)
(-0.186741 0.0643785 0)
(-0.106978 -0.0458959 0)
(-0.0455211 -0.129102 0)
(-0.0308702 -0.188666 0)
(-0.0164164 -0.196425 0)
(-0.00164021 -0.173556 0)
(0.0102847 -0.128605 0)
(0.0114163 -0.0808772 0)
(0.00649426 -0.0305306 0)
(-0.002766 -0.0283969 0)
(-0.00779657 -0.076319 0)
(-0.00775756 -0.119044 0)
(0.00442298 -0.159529 0)
(0.0233517 -0.194373 0)
(0.0342202 -0.203385 0)
(0.0358681 -0.139755 0)
(0.101862 -0.0618746 0)
(0.176272 0.0273666 0)
(0.229028 0.155602 0)
(0.175868 0.181502 0)
(-0.0336777 0.0970867 0)
(-0.0761715 -0.0800971 0)
(-0.0824596 -0.232052 0)
(-0.0614924 -0.313635 0)
(-0.0393911 -0.351698 0)
(0.0179779 -0.338397 0)
(0.0605043 -0.250179 0)
(0.158453 -0.0186211 0)
(-0.0294198 0.13016 0)
(-0.203785 0.181473 0)
(-0.169216 0.0996191 0)
(-0.101413 -0.0344901 0)
(-0.032773 -0.132693 0)
(-0.0204183 -0.191739 0)
(-0.0152223 -0.186435 0)
(-0.00131294 -0.158291 0)
(0.00726304 -0.120093 0)
(0.00742942 -0.0774371 0)
(0.00267458 -0.0290593 0)
(-0.00124341 -0.0282676 0)
(-0.00464603 -0.07836 0)
(-0.00598495 -0.120282 0)
(-0.0013217 -0.155066 0)
(0.0172313 -0.183388 0)
(0.0321972 -0.212981 0)
(0.0407181 -0.148885 0)
(0.101276 -0.0443183 0)
(0.168431 0.0471371 0)
(0.231449 0.194685 0)
(0.173159 0.246171 0)
(-0.0181258 0.179259 0)
(-0.0348833 0.0166134 0)
(-0.0432909 -0.159043 0)
(-0.0483557 -0.267633 0)
(-0.0387525 -0.323472 0)
(-0.00244589 -0.325466 0)
(0.0395388 -0.241938 0)
(0.152078 0.0208454 0)
(-0.0192621 0.207662 0)
(-0.195751 0.240151 0)
(-0.163751 0.135679 0)
(-0.104322 -0.0287115 0)
(-0.0450787 -0.150731 0)
(-0.0219402 -0.200171 0)
(-0.0168491 -0.180195 0)
(-0.00196409 -0.1554 0)
(0.00358188 -0.120042 0)
(0.0033281 -0.078182 0)
(0.00120103 -0.0291756 0)
(0.00229335 -0.0281807 0)
(-0.00384216 -0.0838066 0)
(-0.00573884 -0.126036 0)
(-0.00470232 -0.15885 0)
(0.00525197 -0.180083 0)
(0.0266325 -0.220228 0)
(0.0457253 -0.156167 0)
(0.111012 -0.0329001 0)
(0.159353 0.0616668 0)
(0.2259 0.222418 0)
(0.151728 0.289543 0)
(-0.0243173 0.220958 0)
(0.00143179 0.0594335 0)
(0.0163098 -0.116416 0)
(-0.00399333 -0.220405 0)
(-0.0257172 -0.289024 0)
(-0.00726729 -0.317209 0)
(0.00913286 -0.241071 0)
(0.116994 0.0450014 0)
(-0.00740953 0.263049 0)
(-0.174851 0.297777 0)
(-0.15166 0.161646 0)
(-0.0933525 -0.0161135 0)
(-0.0664357 -0.161239 0)
(-0.031531 -0.207828 0)
(-0.0173443 -0.180393 0)
(-0.00262475 -0.159041 0)
(0.0017807 -0.124361 0)
(0.00206793 -0.0820309 0)
(-0.00119642 -0.0314772 0)
(0.00802494 -0.024934 0)
(-0.00440464 -0.0946868 0)
(-0.00927687 -0.137245 0)
(-0.00872911 -0.164964 0)
(-0.00498015 -0.188302 0)
(0.00932684 -0.223168 0)
(0.0325303 -0.148911 0)
(0.0935945 -0.0272732 0)
(0.13084 0.0685436 0)
(0.207196 0.250083 0)
(0.0975787 0.336286 0)
(-0.0343466 0.273558 0)
(0.0901786 0.11253 0)
(0.149418 -0.0971881 0)
(0.0762519 -0.203314 0)
(0.0174865 -0.270592 0)
(0.00664003 -0.312553 0)
(-0.00369756 -0.297046 0)
(0.0822095 0.0853359 0)
(0.0374415 0.289383 0)
(-0.13285 0.346347 0)
(-0.129671 0.171844 0)
(-0.0785069 -0.0320043 0)
(-0.0820316 -0.158896 0)
(-0.0367426 -0.21552 0)
(-0.015202 -0.18809 0)
(-0.00257616 -0.167469 0)
(0.00261213 -0.134063 0)
(0.00180936 -0.0863671 0)
(-0.00415463 -0.0336762 0)
(0.0116805 -0.051334 0)
(-0.0187087 -0.108454 0)
(-0.0202868 -0.152565 0)
(-0.0180394 -0.173675 0)
(-0.0143606 -0.190677 0)
(-0.0130015 -0.199825 0)
(-0.0145033 -0.164919 0)
(0.0183285 -0.0010348 0)
(0.0812844 0.111159 0)
(0.159726 0.312059 0)
(0.0454308 0.424132 0)
(0.00612272 0.390946 0)
(0.15185 0.309294 0)
(0.288767 0.00293382 0)
(0.276184 -0.272858 0)
(0.0980417 -0.334686 0)
(0.0299021 -0.333227 0)
(-0.00980839 -0.352602 0)
(0.0149208 0.0567253 0)
(0.0916464 0.32736 0)
(-0.068317 0.405512 0)
(-0.100727 0.201915 0)
(-0.0733988 -0.0451798 0)
(-0.0947404 -0.157203 0)
(-0.0416587 -0.228962 0)
(-0.0129154 -0.206684 0)
(-0.00303868 -0.183526 0)
(0.00377386 -0.151723 0)
(0.00709879 -0.113099 0)
(-0.0207871 -0.173408 0)
(-0.0103578 -0.37428 0)
(-0.0484973 -0.19871 0)
(-0.0543937 -0.171983 0)
(-0.0334347 -0.180773 0)
(-0.0247211 -0.188228 0)
(-0.0335082 -0.185827 0)
(-0.0701913 -0.155161 0)
(-0.0926254 -0.00505895 0)
(-0.0071965 0.240662 0)
(0.0519136 0.407972 0)
(0.0523554 0.478761 0)
(0.10932 0.500526 0)
(0.252706 0.429359 0)
(0.302908 0.216278 0)
(0.315864 -0.212291 0)
(0.268509 -0.489267 0)
(0.174686 -0.488099 0)
(0.0104673 -0.38884 0)
(-0.0302109 0.127956 0)
(0.10093 0.426761 0)
(-0.00411483 0.498133 0)
(-0.0326592 0.323794 0)
(-0.0697026 -0.0345926 0)
(-0.110147 -0.151078 0)
(-0.0529035 -0.237431 0)
(-0.0184831 -0.228947 0)
(-0.00801408 -0.20841 0)
(0.0033063 -0.180153 0)
(-0.0213713 -0.320451 0)
(-0.00940133 -0.320099 0)
(-0.014924 -0.33704 0)
(0.0313899 -0.360092 0)
(-0.0690895 -0.205811 0)
(-0.045166 -0.187633 0)
(-0.0275293 -0.210181 0)
(-0.0645906 -0.277702 0)
(-0.135398 -0.337656 0)
(-0.117123 -0.14101 0)
(-0.0803624 0.258687 0)
(-0.0190331 0.404942 0)
(0.0637296 0.467362 0)
(0.19164 0.483794 0)
(0.282003 0.409278 0)
(0.290301 0.148092 0)
(0.293252 -0.275189 0)
(0.32612 -0.462124 0)
(0.255848 -0.518691 0)
(0.134614 -0.413169 0)
(-0.093168 0.290334 0)
(0.0478489 0.53988 0)
(0.0438678 0.576382 0)
(0.0840071 0.484307 0)
(-0.0526023 0.0243618 0)
(-0.0535467 -0.132005 0)
(-0.0384399 -0.221607 0)
(-0.0199571 -0.24268 0)
(-0.00293818 -0.233397 0)
(0.0263431 -0.253096 0)
(-0.0487707 -0.301622 0)
(-0.0137955 -0.285347 0)
(-0.0284917 -0.286415 0)
(0.0222304 -0.315018 0)
(0.0199771 -0.343494 0)
(-0.0324233 -0.250125 0)
(-0.0456351 -0.453779 0)
(-0.0866966 -0.511366 0)
(-0.0936119 -0.50603 0)
(-0.0915433 -0.375361 0)
(-0.0909417 0.157237 0)
(-0.0151058 0.301864 0)
(0.0807908 0.283777 0)
(0.210405 0.296779 0)
(0.253859 0.202742 0)
(0.256211 -0.156552 0)
(0.292708 -0.373298 0)
(0.320064 -0.418987 0)
(0.320244 -0.42214 0)
(0.209159 -0.372492 0)
(-0.107038 0.306381 0)
(0.011812 0.567729 0)
(0.0710423 0.600987 0)
(0.156308 0.533496 0)
(0.1588 0.240777 0)
(0.0212778 -0.150505 0)
(-0.0208376 -0.217623 0)
(-0.0219936 -0.251194 0)
(-0.00447163 -0.247165 0)
(-0.0155474 -0.279256 0)
(-0.0512606 -0.28984 0)
(-0.0140421 -0.270435 0)
(-0.0509577 -0.183633 0)
(-0.0132759 -0.255658 0)
(-0.0279496 -0.286994 0)
(-0.0244241 -0.337966 0)
(-0.070976 -0.366726 0)
(-0.0917747 -0.426094 0)
(-0.0819561 -0.465951 0)
(-0.0742319 -0.472127 0)
(-0.0394076 -0.320121 0)
(0.0313556 -0.157477 0)
(0.102719 -0.189593 0)
(0.177039 -0.155152 0)
(0.197794 -0.215358 0)
(0.239803 -0.340476 0)
(0.302246 -0.368844 0)
(0.347397 -0.374803 0)
(0.344418 -0.378545 0)
(0.271115 -0.354539 0)
(-0.062854 0.172637 0)
(0.0124465 0.535967 0)
(0.0797258 0.574806 0)
(0.169653 0.507553 0)
(0.167749 0.177063 0)
(0.0730959 -0.272732 0)
(-0.0201304 -0.254668 0)
(-0.0378341 -0.269181 0)
(-0.0335929 -0.2827 0)
(-0.058421 -0.312382 0)
(-0.0411793 -0.286725 0)
(-0.0111458 -0.267058 0)
(-0.072774 -0.0498418 0)
(-0.0594295 -0.145543 0)
(-0.0783432 -0.211984 0)
(-0.0761243 -0.267022 0)
(-0.0736431 -0.321972 0)
(-0.0846566 -0.373291 0)
(-0.08627 -0.412905 0)
(-0.0858468 -0.447779 0)
(-0.0550162 -0.467954 0)
(-0.0272881 -0.453136 0)
(0.0304223 -0.42413 0)
(0.111164 -0.37244 0)
(0.174405 -0.353087 0)
(0.23696 -0.345826 0)
(0.303455 -0.344403 0)
(0.342033 -0.334637 0)
(0.351853 -0.318323 0)
(0.297098 -0.27659 0)
(0.0447567 -0.0314482 0)
(0.0377612 0.333706 0)
(0.0756529 0.397316 0)
(0.134912 0.323715 0)
(0.102668 -0.0686603 0)
(0.0560556 -0.321025 0)
(0.0138934 -0.365085 0)
(-0.026014 -0.31904 0)
(-0.039278 -0.345848 0)
(-0.034952 -0.325854 0)
(-0.0280395 -0.307768 0)
(-0.000676569 -0.279761 0)
(-0.0175128 -0.0361383 0)
(-0.0358691 -0.0769689 0)
(-0.0809487 -0.123025 0)
(-0.09479 -0.18345 0)
(-0.0972191 -0.23727 0)
(-0.0833677 -0.279017 0)
(-0.0860724 -0.337365 0)
(-0.0896437 -0.398626 0)
(-0.0996732 -0.435646 0)
(-0.0832912 -0.450556 0)
(-0.0472663 -0.435861 0)
(0.0360286 -0.401546 0)
(0.134406 -0.351144 0)
(0.215963 -0.33312 0)
(0.288045 -0.312953 0)
(0.326122 -0.29371 0)
(0.334007 -0.275388 0)
(0.292042 -0.228606 0)
(0.110765 -0.0787485 0)
(0.0575355 0.13245 0)
(0.0559707 0.153266 0)
(0.07994 0.0518449 0)
(0.075743 -0.201798 0)
(0.0774835 -0.306158 0)
(0.0568755 -0.349916 0)
(0.0217813 -0.358558 0)
(-0.00427123 -0.342598 0)
(-0.0152226 -0.326722 0)
(-0.0152254 -0.311447 0)
(0.00300477 -0.283796 0)
(-0.0100072 -0.0262579 0)
(-0.0292895 -0.0690482 0)
(-0.0467377 -0.110729 0)
(-0.0630406 -0.153551 0)
(-0.0809821 -0.190938 0)
(-0.0930777 -0.229651 0)
(-0.092867 -0.271779 0)
(-0.0878137 -0.307084 0)
(-0.0976331 -0.372912 0)
(-0.0976648 -0.413746 0)
(-0.0729327 -0.42816 0)
(-0.0187851 -0.416823 0)
(0.0842477 -0.354996 0)
(0.18368 -0.318105 0)
(0.257193 -0.282944 0)
(0.284332 -0.25801 0)
(0.27944 -0.240523 0)
(0.230071 -0.176887 0)
(0.10957 -0.0627129 0)
(0.0528887 0.0506321 0)
(0.0484859 0.0277978 0)
(0.0759037 -0.0833183 0)
(0.100249 -0.202995 0)
(0.114185 -0.283055 0)
(0.0903426 -0.326437 0)
(0.0485603 -0.329437 0)
(0.0170096 -0.323494 0)
(0.00170395 -0.314388 0)
(-0.00565844 -0.302358 0)
(0.010123 -0.274181 0)
(-0.00310522 -0.0209575 0)
(-0.0180581 -0.0617342 0)
(-0.0342079 -0.102446 0)
(-0.0492834 -0.142864 0)
(-0.0616868 -0.180696 0)
(-0.0720403 -0.214368 0)
(-0.0797025 -0.240441 0)
(-0.0858777 -0.262815 0)
(-0.0918253 -0.294154 0)
(-0.0998836 -0.348673 0)
(-0.0995087 -0.392602 0)
(-0.0712897 -0.410392 0)
(0.0175465 -0.364063 0)
(0.135496 -0.316925 0)
(0.206227 -0.262095 0)
(0.221332 -0.229908 0)
(0.196576 -0.197431 0)
(0.118916 -0.0993964 0)
(0.0405842 0.0196091 0)
(0.0384679 0.0431 0)
(0.0561835 -0.00235072 0)
(0.102911 -0.071222 0)
(0.126657 -0.156323 0)
(0.146554 -0.250588 0)
(0.118545 -0.30016 0)
(0.0778757 -0.29994 0)
(0.0368396 -0.294557 0)
(0.0130244 -0.28799 0)
(-0.000393991 -0.279081 0)
(0.00741253 -0.256449 0)
(0.00415684 -0.0149739 0)
(-0.00505399 -0.0551212 0)
(-0.0179941 -0.0943103 0)
(-0.0338563 -0.135204 0)
(-0.0513551 -0.175049 0)
(-0.0677349 -0.207128 0)
(-0.0784169 -0.230294 0)
(-0.0848161 -0.246797 0)
(-0.0888616 -0.259088 0)
(-0.0906964 -0.286262 0)
(-0.110358 -0.320241 0)
(-0.100388 -0.370971 0)
(-0.0576418 -0.383224 0)
(0.0784311 -0.304737 0)
(0.148217 -0.226318 0)
(0.130393 -0.194304 0)
(0.0714691 -0.108759 0)
(0.0170915 0.00873764 0)
(-0.00165125 0.107337 0)
(0.0304612 0.081017 0)
(0.076913 0.0301221 0)
(0.124634 -0.0193858 0)
(0.151845 -0.104095 0)
(0.16028 -0.23439 0)
(0.133069 -0.265793 0)
(0.0979529 -0.255024 0)
(0.04939 -0.25136 0)
(0.0186168 -0.249446 0)
(0.00300065 -0.246202 0)
(0.00685071 -0.232172 0)
(0.0235892 -0.00895949 0)
(0.0105677 -0.0509505 0)
(-0.00366205 -0.0866476 0)
(-0.0155878 -0.128482 0)
(-0.0390339 -0.17245 0)
(-0.0677206 -0.204927 0)
(-0.0881503 -0.226862 0)
(-0.0980651 -0.240687 0)
(-0.102781 -0.250169 0)
(-0.106923 -0.257739 0)
(-0.0967548 -0.283038 0)
(-0.11868 -0.332603 0)
(-0.106676 -0.360455 0)
(-0.00502389 -0.280707 0)
(0.080384 -0.173075 0)
(0.023386 -0.125002 0)
(-0.0194825 -0.0236817 0)
(-0.0366625 0.0737917 0)
(-0.00335606 0.149603 0)
(0.0423685 0.1184 0)
(0.104247 0.0765163 0)
(0.139937 0.0182417 0)
(0.190314 -0.0599759 0)
(0.136453 -0.22107 0)
(0.0952273 -0.223396 0)
(0.0849655 -0.198044 0)
(0.0440486 -0.196714 0)
(0.0153589 -0.204788 0)
(0.00360043 -0.212581 0)
(0.00810395 -0.203849 0)
(-0.000530892 -0.0289726 0)
(0.0328696 -0.0474813 0)
(0.0286823 -0.0779007 0)
(0.0212659 -0.122621 0)
(-0.0403818 -0.188851 0)
(-0.0879412 -0.211788 0)
(-0.108283 -0.228615 0)
(-0.118473 -0.239788 0)
(-0.125302 -0.249069 0)
(-0.128593 -0.256528 0)
(-0.12929 -0.261336 0)
(-0.116358 -0.284617 0)
(-0.138351 -0.322247 0)
(-0.0968986 -0.275057 0)
(0.0200842 -0.138571 0)
(-0.032779 -0.0730539 0)
(-0.062697 0.0132367 0)
(-0.0374082 0.115433 0)
(0.0189572 0.157503 0)
(0.0745749 0.150355 0)
(0.119497 0.106695 0)
(0.169246 0.0770967 0)
(0.210055 -0.0528039 0)
(0.0361828 -0.193918 0)
(0.0359879 -0.191766 0)
(0.0341054 -0.165906 0)
(0.014732 -0.170867 0)
(0.00678067 -0.18124 0)
(0.00325179 -0.188141 0)
(0.00730389 -0.176127 0)
(-0.00842273 -0.021225 0)
(-0.01115 -0.0401589 0)
(-0.0221745 -0.0500919 0)
(-0.0383299 -0.063623 0)
(-0.0819842 -0.112321 0)
(-0.126733 -0.224533 0)
(-0.139879 -0.231503 0)
(-0.14331 -0.241415 0)
(-0.150014 -0.25143 0)
(-0.15389 -0.259408 0)
(-0.155456 -0.266917 0)
(-0.149012 -0.265896 0)
(-0.156242 -0.301596 0)
(-0.141764 -0.306887 0)
(-0.0255876 -0.114867 0)
(-0.0678066 -0.0410026 0)
(-0.0662652 0.0228541 0)
(-0.020664 0.112599 0)
(0.0572759 0.144266 0)
(0.12525 0.161331 0)
(0.149912 0.150071 0)
(0.217154 0.110435 0)
(0.200751 -0.0102543 0)
(-0.0111864 -0.1536 0)
(0.0289315 -0.159449 0)
(0.0139159 -0.15713 0)
(0.0115524 -0.153724 0)
(0.00690539 -0.160836 0)
(0.00177153 -0.168484 0)
(0.00532243 -0.154133 0)
(-0.00410086 -0.01327 0)
(-0.011845 -0.0283519 0)
(-0.0223954 -0.0378164 0)
(-0.0329114 -0.0466624 0)
(-0.0521451 -0.0579061 0)
(-0.12073 -0.110005 0)
(-0.158893 -0.232994 0)
(-0.170202 -0.243779 0)
(-0.176041 -0.256221 0)
(-0.179534 -0.265647 0)
(-0.18115 -0.274513 0)
(-0.183562 -0.285451 0)
(-0.163043 -0.28089 0)
(-0.177406 -0.288464 0)
(-0.0901715 -0.0642227 0)
(-0.0742378 -0.0106409 0)
(-0.0476907 0.0498207 0)
(0.0261584 0.0907319 0)
(0.100558 0.143762 0)
(0.176143 0.180476 0)
(0.201927 0.199435 0)
(0.252933 0.163296 0)
(0.21547 0.0357546 0)
(-0.00252558 -0.0880314 0)
(0.0262587 -0.134769 0)
(0.0116173 -0.138841 0)
(0.00888956 -0.143551 0)
(0.00533152 -0.149561 0)
(0.00188753 -0.154039 0)
(0.0046286 -0.137242 0)
(-0.00285623 -0.00823215 0)
(-0.0108816 -0.0188753 0)
(-0.019626 -0.0267559 0)
(-0.0308839 -0.0352908 0)
(-0.0462974 -0.0472264 0)
(-0.0731341 -0.0833539 0)
(-0.24624 -0.220518 0)
(-0.205092 -0.250191 0)
(-0.205423 -0.261992 0)
(-0.204762 -0.273726 0)
(-0.203852 -0.284527 0)
(-0.202939 -0.298346 0)
(-0.206244 -0.312327 0)
(-0.195787 -0.312557 0)
(-0.143929 -0.108481 0)
(-0.0357772 -0.0135977 0)
(-0.0068094 0.0412237 0)
(0.0815309 0.0662663 0)
(0.151651 0.112795 0)
(0.22829 0.169575 0)
(0.278414 0.220772 0)
(0.32273 0.211663 0)
(0.308303 0.122833 0)
(0.00617132 -0.00649502 0)
(0.0258833 -0.0964499 0)
(0.0162607 -0.11917 0)
(0.00949417 -0.129068 0)
(0.00596152 -0.136587 0)
(0.00204674 -0.140226 0)
(0.00564778 -0.121406 0)
(-0.00137965 -0.0045585 0)
(-0.00697997 -0.0102352 0)
(-0.0144263 -0.0154325 0)
(-0.0287136 -0.0238431 0)
(-0.0454558 -0.0338305 0)
(-0.07525 -0.0610486 0)
(-0.331162 -0.251647 0)
(-0.312872 -0.286932 0)
(-0.232066 -0.271592 0)
(-0.227441 -0.279387 0)
(-0.222891 -0.294004 0)
(-0.218568 -0.308043 0)
(-0.216988 -0.329126 0)
(-0.214457 -0.345107 0)
(-0.180401 -0.306216 0)
(-0.0535759 -0.0628155 0)
(0.0188316 -0.00731826 0)
(0.114332 0.0223714 0)
(0.197605 0.0983646 0)
(0.263693 0.179801 0)
(0.335629 0.24655 0)
(0.388188 0.277513 0)
(0.390699 0.215325 0)
(0.0916763 0.0998896 0)
(0.0333766 -0.0403801 0)
(0.0254743 -0.0898919 0)
(0.0123952 -0.109371 0)
(0.00636452 -0.120653 0)
(0.00224955 -0.123905 0)
(0.00588887 -0.102199 0)
(0.00033705 -0.00128193 0)
(-0.00338171 -0.00186592 0)
(-0.0111056 -0.00187679 0)
(-0.0307221 -0.00628558 0)
(-0.0766332 -0.0206687 0)
(-0.332868 -0.185564 0)
(-0.358753 -0.27096 0)
(-0.340373 -0.295028 0)
(-0.297139 -0.297266 0)
(-0.240948 -0.288191 0)
(-0.236092 -0.301344 0)
(-0.229703 -0.318315 0)
(-0.2243 -0.336776 0)
(-0.21886 -0.356938 0)
(-0.209068 -0.362781 0)
(-0.147378 -0.21885 0)
(0.00429826 -0.115823 0)
(0.101027 -0.0718525 0)
(0.211847 0.033236 0)
(0.301057 0.147992 0)
(0.376683 0.262527 0)
(0.451257 0.346646 0)
(0.463937 0.313182 0)
(0.34188 0.239242 0)
(0.0961372 0.0662293 0)
(0.0392652 -0.0467676 0)
(0.0161162 -0.0843753 0)
(0.00683422 -0.101547 0)
(0.00228531 -0.106172 0)
(0.00140549 -0.0835151 0)
(0.00172406 0.00307702 0)
(-0.00431146 0.00627493 0)
(-0.0268075 0.019017 0)
(-0.087105 0.0293556 0)
(-0.345577 -0.0493692 0)
(-0.351913 -0.18699 0)
(-0.354232 -0.243759 0)
(-0.341812 -0.280716 0)
(-0.32734 -0.303929 0)
(-0.26224 -0.306092 0)
(-0.242485 -0.309271 0)
(-0.236222 -0.328453 0)
(-0.228607 -0.346103 0)
(-0.221806 -0.364705 0)
(-0.215211 -0.370865 0)
(-0.207485 -0.350037 0)
(-0.0618081 -0.198253 0)
(0.0325387 -0.193176 0)
(0.171029 -0.0696065 0)
(0.286861 0.0965017 0)
(0.394959 0.255054 0)
(0.45761 0.405953 0)
(0.521912 0.405111 0)
(0.491665 0.354483 0)
(0.3138 0.220662 0)
(0.0959043 0.0497156 0)
(0.0291935 -0.0497303 0)
(0.0136936 -0.080809 0)
(0.00770527 -0.0911227 0)
(-0.00114127 -0.0760965 0)
(0.00194547 0.00909359 0)
(-0.010083 0.0214565 0)
(-0.0878382 0.0664697 0)
(-0.260951 0.118477 0)
(-0.361552 -0.018375 0)
(-0.324647 -0.101579 0)
(-0.329994 -0.184148 0)
(-0.333015 -0.25176 0)
(-0.315452 -0.295817 0)
(-0.281673 -0.316453 0)
(-0.24864 -0.32268 0)
(-0.238658 -0.337806 0)
(-0.229996 -0.357669 0)
(-0.221901 -0.375277 0)
(-0.217325 -0.385933 0)
(-0.210423 -0.381938 0)
(-0.109348 -0.255393 0)
(-0.0162344 -0.309357 0)
(0.113218 -0.243325 0)
(0.247153 -0.00661678 0)
(0.379619 0.221087 0)
(0.447255 0.395559 0)
(0.541733 0.475594 0)
(0.557168 0.445042 0)
(0.508387 0.346834 0)
(0.332467 0.215372 0)
(0.110866 0.0339036 0)
(0.0439596 -0.0541031 0)
(0.0196666 -0.0792696 0)
(-0.000929804 -0.072367 0)
(0.00203047 0.0211014 0)
(-0.0150988 0.0933969 0)
(-0.0825587 0.187123 0)
(-0.223142 0.206866 0)
(-0.302886 0.0919191 0)
(-0.280851 -0.0339872 0)
(-0.298036 -0.106998 0)
(-0.302974 -0.195718 0)
(-0.302301 -0.273074 0)
(-0.285479 -0.311922 0)
(-0.249155 -0.332124 0)
(-0.235973 -0.347093 0)
(-0.226209 -0.370193 0)
(-0.217698 -0.391022 0)
(-0.2133 -0.41268 0)
(-0.206806 -0.424719 0)
(-0.0548929 -0.381682 0)
(0.0177174 -0.383606 0)
(0.0738839 -0.326876 0)
(0.153129 -0.103763 0)
(0.309565 0.176574 0)
(0.41984 0.371808 0)
(0.500081 0.49098 0)
(0.571946 0.498044 0)
(0.583255 0.440973 0)
(0.524382 0.348819 0)
(0.356183 0.232528 0)
(0.159023 0.020424 0)
(-0.00428861 0.0624505 0)
(-0.000762295 -0.0645816 0)
(-0.00711075 0.0397304 0)
(-0.0342374 0.137864 0)
(-0.0701493 0.230282 0)
(-0.127128 0.2892 0)
(-0.182933 0.240344 0)
(-0.183507 0.0872758 0)
(-0.218605 -0.0547895 0)
(-0.242005 -0.157489 0)
(-0.258636 -0.253471 0)
(-0.263325 -0.303062 0)
(-0.239751 -0.334876 0)
(-0.224977 -0.354781 0)
(-0.214674 -0.382104 0)
(-0.205262 -0.410487 0)
(-0.199409 -0.447047 0)
(-0.192196 -0.475536 0)
(-0.0345697 -0.495749 0)
(0.0155066 -0.42645 0)
(0.0514321 -0.364989 0)
(0.108225 -0.243215 0)
(0.23917 0.0997117 0)
(0.372989 0.350441 0)
(0.449413 0.484644 0)
(0.525241 0.53272 0)
(0.578589 0.493824 0)
(0.577651 0.424471 0)
(0.502593 0.3336 0)
(0.161682 0.180507 0)
(0.00235604 0.134806 0)
(0.000347636 0.0567784 0)
(-0.0283144 0.0578469 0)
(-0.0759145 0.167085 0)
(-0.0987685 0.254656 0)
(-0.114611 0.307036 0)
(-0.0925413 0.258313 0)
(-0.0615007 0.145561 0)
(-0.0960829 0.0909952 0)
(-0.190883 -0.103858 0)
(-0.219082 -0.247425 0)
(-0.24371 -0.29579 0)
(-0.221841 -0.33274 0)
(-0.204288 -0.358891 0)
(-0.194193 -0.390876 0)
(-0.183776 -0.428607 0)
(-0.174923 -0.473095 0)
(-0.169464 -0.515102 0)
(-0.0797086 -0.556991 0)
(-0.00395664 -0.478709 0)
(0.0383134 -0.406275 0)
(0.0835349 -0.274894 0)
(0.168995 0.153116 0)
(0.32022 0.380266 0)
(0.408551 0.505493 0)
(0.475197 0.552582 0)
(0.549498 0.534082 0)
(0.578939 0.475553 0)
(0.532727 0.40157 0)
(0.0613075 0.234431 0)
(-0.0118231 0.162479 0)
(-0.0261082 0.0752597 0)
(-0.0538414 0.0787969 0)
(-0.117073 0.183593 0)
(-0.133764 0.247143 0)
(-0.0887639 0.161659 0)
(-0.0285741 5.37503e-07 0)
(0.00643027 -0.332499 0)
(-0.00670548 -0.50132 0)
(0.0187402 -0.829153 0)
(-0.0862929 -0.814872 0)
(-0.218442 -0.473937 0)
(-0.20265 -0.369297 0)
(-0.179328 -0.36277 0)
(-0.166695 -0.397287 0)
(-0.156775 -0.444112 0)
(-0.146321 -0.490034 0)
(-0.137063 -0.537341 0)
(-0.097334 -0.567686 0)
(-0.0389053 -0.495692 0)
(-0.0223752 -0.409306 0)
(-0.011369 -0.29207 0)
(0.0397711 0.0882793 0)
(0.241411 0.446542 0)
(0.357499 0.577474 0)
(0.42871 0.612336 0)
(0.49903 0.603314 0)
(0.550835 0.563084 0)
(0.530317 0.505192 0)
(0.0578264 0.317939 0)
(-0.00785803 0.188816 0)
(-0.014359 0.0686956 0)
(-0.108307 0.0492974 0)
(-0.100149 -0.0749456 0)
(-0.10685 -0.0949813 0)
(-0.0528718 -0.38467 0)
(-0.0083203 -0.664327 0)
(0.0113685 -0.894198 0)
(0.024855 -0.976193 0)
(0.0443958 -1.05082 0)
(0.0627293 -1.10979 0)
(0.0510615 -1.13683 0)
(-0.0797738 -0.943524 0)
(-0.165106 -0.403614 0)
(-0.137514 -0.409599 0)
(-0.127766 -0.458981 0)
(-0.117357 -0.504588 0)
(-0.106514 -0.548628 0)
(-0.0903455 -0.567113 0)
(-0.0641066 -0.508758 0)
(-0.0756043 -0.417575 0)
(-0.109271 -0.331898 0)
(-0.0709928 0.322389 0)
(0.10777 0.662816 0)
(0.232372 0.736518 0)
(0.3243 0.736711 0)
(0.40854 0.722212 0)
(0.474439 0.704821 0)
(0.489515 0.637162 0)
(0.0775701 0.427073 0)
(0.0246754 0.231818 0)
(0.00438225 0.0828802 0)
(-0.0374511 -0.260259 0)
(-0.0467051 -0.575181 0)
(-0.0491537 -0.668994 0)
(-0.0180048 -0.758204 0)
(0.00393338 -0.840978 0)
(0.0266467 -0.906952 0)
(0.0486899 -0.963242 0)
(0.0701584 -1.02374 0)
(0.0969539 -1.09456 0)
(0.107171 -1.16173 0)
(0.0967225 -1.19912 0)
(-0.012162 -1.01641 0)
(-0.111855 -0.439949 0)
(-0.099914 -0.473634 0)
(-0.0905444 -0.521354 0)
(-0.0795868 -0.559283 0)
(-0.0725351 -0.575618 0)
(-0.0520397 -0.533181 0)
(-0.0860008 -0.522808 0)
(-0.210032 -0.591412 0)
(-0.215012 0.384748 0)
(-0.0253333 0.710387 0)
(0.107717 0.787763 0)
(0.213075 0.807281 0)
(0.304305 0.811136 0)
(0.377136 0.805155 0)
(0.436129 0.744739 0)
(0.150224 0.567044 0)
(0.0987948 0.282984 0)
(0.0287706 0.101177 0)
(-0.0103815 -0.38299 0)
(-0.0300139 -0.558144 0)
(-0.0252914 -0.640756 0)
(0.00137662 -0.717684 0)
(0.0184152 -0.79944 0)
(0.031946 -0.87254 0)
(0.0499241 -0.93842 0)
(0.0715594 -1.00163 0)