/*--------------------------------*- C++ -*----------------------------------*\
| =========                 |                                                 |
| \\      /  F ield         | OpenFOAM: The Open Source CFD Toolbox           |
|  \\    /   O peration     | Version:  v1606+                                |
|   \\  /    A nd           | Web:      www.OpenFOAM.com                      |
|    \\/     M anipulation  |                                                 |
\*---------------------------------------------------------------------------*/
FoamFile
{
    version     2.0;
    format      ascii;
    class       volScalarField;
    location    "0.84";
    object      p;
}
// * * * * * * * * * * * * * * * * * * * * * * * * * * * * * * * * * * * * * //

dimensions      [1 -1 -2 0 0 0 0];

internalField   nonuniform List<scalar> 
6000
(
105928
105924
105918
105913
105908
105904
105900
105898
105894
105885
105874
105863
105855
105847
105843
105841
105843
105844
105847
105852
105859
105864
105864
105863
105864
105867
105870
105874
105879
105883
105883
105881
105875
105866
105857
105847
105839
105830
105818
105804
105794
105787
105781
105777
105773
105771
105770
105770
105770
105773
105779
105788
105796
105802
105809
105816
105824
105830
105835
105837
105861
105859
105850
105840
105829
105819
105809
105797
105781
105768
105761
105755
105750
105747
105745
105742
105740
105738
105738
105739
105743
105752
105764
105773
105780
105789
105797
105805
105812
105814
105816
105814
105808
105801
105793
105785
105776
105762
105747
105738
105732
105727
105724
105722
105719
105717
105714
105711
105709
105709
105712
105718
105729
105740
105746
105752
105757
105762
105766
105767
105737
105736
105743
105748
105748
105746
105741
105731
105719
105710
105705
105701
105701
105699
105697
105694
105690
105686
105681
105680
105683
105688
105697
105704
105706
105704
105699
105692
105683
105682
105634
105632
105649
105667
105680
105690
105696
105698
105692
105682
105676
105674
105674
105673
105670
105667
105663
105658
105652
105649
105652
105659
105663
105658
105647
105631
105611
105589
105569
105569
105521
105520
105545
105574
105595
105614
105632
105653
105662
105653
105646
105643
105640
105636
105632
105628
105625
105622
105619
105616
105620
105625
105616
105591
105565
105537
105506
105472
105442
105442
105440
105442
105453
105481
105509
105532
105556
105583
105615
105620
105611
105602
105591
105579
105570
105566
105567
105573
105577
105579
105583
105578
105545
105508
105473
105438
105398
105365
105352
105350
105402
105400
105399
105406
105429
105453
105476
105501
105531
105563
105561
105542
105516
105493
105480
105477
105483
105498
105516
105527
105526
105497
105455
105419
105382
105341
105310
105302
105303
105306
105376
105371
105365
105362
105368
105382
105397
105409
105422
105443
105460
105440
105406
105380
105367
105365
105374
105392
105418
105435
105417
105383
105353
105325
105294
105265
105257
105262
105269
105277
105348
105342
105335
105326
105321
105324
105322
105314
105301
105290
105289
105279
105259
105242
105232
105234
105246
105263
105277
105276
105253
105248
105243
105232
105214
105207
105214
105226
105236
105244
105306
105305
105298
105286
105273
105264
105246
105211
105169
105122
105104
105099
105094
105084
105076
105087
105108
105124
105121
105090
105070
105092
105119
105132
105136
105149
105166
105183
105194
105197
105238
105247
105245
105233
105214
105189
105156
105093
105020
104965
104946
104943
104937
104922
104907
104916
104963
104992
104979
104938
104922
104938
104979
105018
105051
105080
105105
105123
105132
105127
105150
105160
105167
105161
105139
105100
105049
104981
104914
104877
104860
104848
104833
104813
104801
104800
104822
104878
104878
104852
104843
104849
104879
104918
104961
105000
105028
105045
105048
105044
105055
105062
105070
105070
105054
105017
104966
104910
104863
104839
104825
104811
104793
104775
104765
104760
104760
104789
104813
104805
104797
104795
104815
104845
104879
104914
104942
104955
104960
104960
104961
104964
104973
104976
104967
104944
104906
104865
104834
104818
104807
104793
104777
104761
104750
104742
104736
104746
104774
104769
104757
104748
104759
104783
104807
104834
104856
104870
104877
104879
104871
104871
104883
104889
104885
104872
104851
104827
104811
104801
104792
104780
104764
104747
104736
104727
104721
104720
104743
104733
104713
104701
104702
104722
104743
104763
104781
104793
104800
104802
104804
104803
104808
104813
104812
104803
104792
104786
104788
104788
104781
104767
104750
104732
104718
104708
104703
104700
104709
104690
104667
104657
104648
104664
104684
104699
104714
104725
104730
104731
104772
104769
104764
104761
104755
104747
104740
104737
104746
104760
104759
104746
104727
104707
104692
104681
104674
104671
104665
104636
104621
104615
104606
104612
104628
104641
104653
104662
104665
104664
104756
104749
104741
104731
104720
104712
104704
104699
104696
104702
104700
104689
104669
104650
104640
104633
104625
104620
104605
104585
104580
104575
104570
104570
104579
104589
104598
104605
104602
104601
104743
104732
104722
104711
104701
104692
104683
104673
104660
104646
104627
104601
104575
104565
104566
104565
104562
104556
104545
104544
104543
104539
104538
104535
104538
104541
104547
104549
104543
104539
104690
104700
104697
104689
104680
104670
104659
104645
104627
104603
104575
104548
104529
104520
104514
104511
104509
104504
104500
104510
104511
104508
104507
104503
104496
104495
104495
104493
104493
104492
104601
104614
104624
104631
104632
104628
104620
104608
104591
104568
104545
104526
104512
104500
104491
104484
104479
104475
104471
104476
104479
104477
104474
104464
104443
104445
104447
104453
104452
104453
104501
104517
104534
104547
104555
104559
104560
104556
104547
104534
104521
104508
104497
104486
104477
104469
104463
104457
104450
104444
104444
104441
104433
104411
104389
104393
104406
104412
104414
104415
104426
104435
104449
104463
104475
104484
104490
104494
104494
104492
104488
104484
104480
104473
104465
104456
104448
104440
104430
104417
104408
104397
104380
104355
104344
104348
104361
104371
104378
104380
104376
104376
104379
104387
104397
104409
104419
104428
104436
104442
104447
104452
104458
104458
104451
104442
104433
104423
104410
104393
104374
104353
104329
104310
104306
104307
104319
104333
104342
104345
104334
104327
104326
104327
104330
104336
104346
104361
104375
104387
104400
104413
104427
104436
104434
104426
104417
104406
104391
104369
104343
104315
104291
104278
104273
104270
104280
104294
104303
104308
104293
104286
104281
104276
104275
104277
104283
104292
104310
104328
104346
104366
104386
104404
104413
104409
104400
104387
104369
104343
104314
104285
104264
104252
104246
104241
104244
104255
104264
104268
104248
104246
104241
104235
104230
104225
104225
104231
104242
104264
104288
104312
104337
104361
104380
104385
104378
104363
104341
104312
104283
104257
104238
104227
104220
104215
104213
104220
104226
104230
104195
104194
104192
104191
104186
104182
104178
104176
104183
104198
104226
104254
104282
104309
104334
104350
104346
104330
104306
104277
104247
104223
104207
104198
104191
104186
104181
104185
104190
104194
104136
104137
104136
104134
104132
104133
104133
104131
104130
104141
104163
104193
104223
104251
104277
104297
104297
104287
104264
104234
104203
104182
104170
104164
104160
104154
104149
104150
104155
104160
104076
104078
104075
104072
104068
104068
104075
104082
104083
104088
104105
104133
104164
104192
104216
104232
104236
104232
104208
104177
104152
104137
104131
104129
104127
104124
104120
104120
104124
104130
104022
104021
104017
104008
103997
103989
104002
104020
104034
104039
104051
104075
104105
104134
104157
104170
104171
104162
104133
104107
104097
104095
104094
104096
104097
104097
104098
104099
104102
104107
103977
103974
103966
103951
103931
103919
103921
103943
103967
103989
103999
104019
104049
104079
104103
104114
104109
104092
104052
104042
104050
104057
104062
104066
104071
104075
104081
104086
104089
104092
103938
103934
103923
103905
103887
103880
103875
103877
103891
103927
103944
103964
103997
104030
104054
104067
104059
104029
104005
104005
104016
104027
104035
104041
104047
104056
104068
104078
104079
104080
103905
103900
103888
103873
103864
103860
103856
103853
103856
103869
103891
103915
103951
103988
104015
104029
104024
103999
103991
103992
103997
104006
104014
104020
104026
104036
104057
104067
104065
104064
103879
103874
103864
103855
103851
103848
103846
103845
103845
103847
103859
103878
103916
103955
103986
104004
104004
103991
103988
103987
103989
103993
103998
104003
104006
104014
104034
104034
104039
104038
103858
103854
103848
103844
103842
103840
103840
103841
103841
103841
103846
103859
103893
103932
103967
103990
103991
103986
103985
103983
103983
103984
103986
103988
103990
103993
104001
104003
104010
104011
103840
103838
103837
103837
103837
103836
103837
103838
103839
103838
103840
103850
103878
103916
103952
103980
103982
103980
103981
103978
103977
103976
103977
103977
103977
103977
103978
103978
103985
103986
103832
103832
103832
103832
103832
103834
103835
103836
103837
103836
103837
103844
103866
103903
103939
103968
103972
103971
103973
103973
103969
103969
103968
103967
103966
103964
103959
103957
103963
103964
103831
103831
103831
103831
103832
103833
103834
103834
103835
103835
103835
103841
103857
103892
103928
103956
103958
103959
103964
103966
103962
103961
103959
103958
103956
103953
103947
103945
103949
103951
103831
103830
103831
103831
103831
103832
103833
103833
103834
103833
103833
103838
103851
103884
103919
103944
103945
103946
103950
103956
103956
103954
103952
103950
103948
103945
103941
103939
103944
103944
103830
103830
103830
103830
103831
103831
103831
103832
103832
103832
103832
103836
103846
103876
103910
103933
103934
103933
103934
103943
103949
103947
103945
103943
103941
103939
103936
103936
103941
103940
103830
103829
103829
103830
103830
103830
103831
103831
103831
103832
103831
103833
103842
103868
103901
103923
103924
103922
103921
103927
103938
103940
103939
103937
103935
103934
103933
103933
103938
103936
103829
103829
103829
103829
103829
103829
103830
103830
103830
103831
103831
103832
103840
103860
103892
103912
103914
103912
103911
103911
103922
103929
103931
103931
103930
103929
103928
103929
103934
103931
103828
103828
103828
103828
103828
103828
103829
103829
103829
103830
103830
103831
103839
103855
103884
103902
103904
103903
103902
103900
103903
103914
103920
103923
103924
103924
103923
103923
103927
103924
103827
103827
103827
103827
103827
103828
103828
103828
103828
103829
103829
103830
103838
103851
103876
103893
103895
103894
103894
103892
103890
103895
103905
103911
103915
103916
103915
103916
103917
103918
103826
103826
103826
103826
103826
103827
103827
103827
103828
103828
103828
103830
103837
103848
103870
103886
103888
103887
103886
103885
103883
103881
103887
103894
103900
103903
103903
103903
103903
103906
103825
103825
103825
103825
103825
103826
103826
103826
103827
103827
103827
103829
103835
103846
103866
103882
103882
103881
103880
103879
103877
103874
103873
103876
103880
103884
103886
103885
103880
103884
103824
103824
103824
103824
103825
103825
103825
103825
103826
103826
103827
103828
103835
103844
103864
103880
103876
103875
103875
103874
103872
103870
103866
103864
103864
103865
103866
103866
103861
103861
103823
103823
103823
103823
103824
103824
103824
103824
103825
103825
103826
103827
103835
103845
103864
103875
103871
103870
103870
103869
103867
103865
103863
103860
103858
103856
103855
103854
103853
103853
103822
103822
103822
103822
103823
103823
103823
103823
103824
103824
103825
103826
103834
103847
103864
103869
103867
103866
103865
103864
103863
103861
103859
103857
103855
103854
103852
103852
103852
103852
103821
103821
103821
103821
103822
103822
103822
103822
103823
103823
103824
103825
103831
103845
103860
103864
103862
103862
103861
103861
103860
103858
103857
103855
103854
103853
103852
103851
103851
103852
103820
103820
103820
103820
103821
103821
103821
103821
103822
103822
103823
103824
103829
103840
103853
103859
103859
103858
103858
103857
103856
103855
103854
103853
103852
103851
103851
103850
103851
103851
103819
103819
103819
103819
103820
103820
103820
103820
103821
103821
103822
103823
103828
103836
103849
103856
103856
103855
103855
103854
103854
103853
103852
103851
103851
103850
103850
103849
103850
103850
103818
103818
103818
103818
103818
103819
103819
103819
103820
103820
103821
103822
103827
103835
103848
103854
103853
103853
103852
103852
103851
103851
103850
103850
103849
103849
103848
103848
103848
103849
103817
103817
103817
103817
103817
103818
103818
103818
103819
103819
103820
103821
103826
103834
103846
103851
103851
103850
103850
103850
103849
103849
103849
103848
103848
103847
103847
103847
103847
103848
103816
103816
103816
103816
103816
103817
103817
103817
103818
103818
103819
103820
103826
103834
103845
103850
103849
103848
103848
103848
103848
103847
103847
103847
103846
103846
103846
103846
103846
103846
103815
103815
103815
103815
103815
103815
103816
103816
103817
103817
103818
103819
103825
103835
103845
103848
103847
103846
103846
103846
103846
103846
103845
103845
103845
103845
103845
103844
103845
103845
103814
103814
103814
103814
103814
103814
103815
103815
103815
103816
103817
103818
103824
103835
103844
103846
103845
103845
103844
103844
103844
103844
103844
103844
103844
103843
103843
103843
103843
103843
103812
103812
103813
103813
103813
103813
103813
103814
103814
103815
103816
103817
103822
103835
103844
103844
103843
103843
103843
103843
103842
103842
103842
103842
103842
103842
103842
103842
103842
103842
103811
103811
103811
103811
103812
103812
103812
103813
103813
103814
103815
103816
103821
103834
103843
103843
103842
103841
103841
103841
103841
103841
103841
103841
103841
103841
103841
103840
103840
103840
103810
103810
103810
103810
103810
103811
103811
103811
103812
103813
103814
103815
103820
103832
103840
103840
103840
103839
103839
103839
103839
103839
103839
103839
103839
103839
103839
103839
103839
103839
103809
103809
103809
103809
103809
103809
103810
103810
103811
103811
103812
103814
103819
103829
103837
103838
103837
103837
103837
103837
103837
103837
103837
103837
103837
103838
103837
103837
103837
103837
103807
103807
103807
103807
103808
103808
103808
103809
103809
103810
103811
103813
103818
103826
103832
103834
103835
103834
103835
103835
103835
103835
103835
103835
103835
103835
103836
103836
103836
103836
103806
103806
103806
103806
103806
103807
103807
103807
103808
103809
103810
103812
103816
103823
103828
103830
103832
103832
103832
103832
103832
103832
103832
103832
103833
103833
103833
103833
103833
103833
103804
103804
103804
103805
103805
103805
103805
103806
103806
103807
103808
103810
103814
103819
103823
103826
103828
103829
103829
103829
103829
103829
103829
103829
103830
103830
103830
103830
103830
103831
103803
103803
103803
103803
103803
103803
103804
103804
103805
103805
103806
103808
103812
103815
103819
103822
103824
103825
103826
103826
103826
103826
103826
103826
103826
103826
103827
103827
103827
103827
103801
103801
103801
103801
103802
103802
103802
103802
103803
103803
103805
103806
103809
103812
103814
103817
103820
103822
103822
103822
103823
103823
103823
103823
103822
103822
103823
103823
103823
103823
103799
103800
103800
103800
103800
103800
103800
103801
103801
103801
103802
103804
103806
103808
103810
103812
103815
103817
103819
103819
103819
103819
103819
103819
103819
103818
103818
103818
103818
103818
103798
103798
103798
103798
103798
103798
103798
103799
103799
103799
103800
103801
103802
103803
103805
103808
103810
103813
103814
103815
103815
103815
103815
103815
103814
103814
103814
103814
103814
103814
103796
103796
103796
103796
103796
103796
103797
103796
103797
103797
103797
103797
103797
103799
103800
103802
103805
103808
103810
103811
103811
103811
103811
103811
103810
103810
103809
103809
103809
103810
103794
103794
103794
103794
103794
103794
103794
103794
103794
103794
103793
103792
103792
103793
103794
103796
103799
103802
103805
103806
103807
103807
103807
103806
103806
103805
103805
103805
103805
103805
103792
103792
103792
103792
103792
103792
103792
103792
103791
103790
103788
103786
103785
103786
103787
103789
103792
103795
103798
103801
103802
103803
103802
103802
103802
103801
103801
103801
103801
103801
103790
103790
103790
103790
103790
103790
103790
103789
103787
103784
103781
103778
103777
103777
103778
103780
103783
103787
103791
103795
103797
103798
103798
103798
103797
103797
103796
103796
103796
103796
103788
103788
103788
103788
103788
103788
103787
103786
103782
103777
103772
103768
103767
103766
103767
103770
103773
103778
103783
103788
103792
103793
103793
103793
103793
103792
103792
103792
103792
103792
103786
103786
103786
103786
103786
103785
103784
103781
103774
103767
103761
103757
103754
103754
103755
103758
103762
103767
103774
103780
103785
103788
103789
103789
103788
103788
103788
103788
103788
103788
103783
103783
103783
103783
103783
103783
103780
103774
103764
103755
103748
103743
103740
103740
103741
103744
103748
103755
103763
103771
103778
103782
103784
103784
103784
103784
103784
103784
103784
103784
103781
103781
103781
103781
103780
103779
103775
103764
103752
103741
103733
103727
103724
103723
103725
103728
103733
103741
103750
103760
103770
103776
103779
103779
103780
103780
103780
103780
103780
103780
103779
103778
103778
103778
103777
103775
103768
103753
103736
103723
103714
103708
103705
103704
103706
103710
103716
103725
103736
103749
103761
103770
103774
103775
103775
103776
103776
103776
103776
103776
103776
103776
103775
103775
103774
103771
103759
103737
103717
103704
103695
103689
103686
103686
103688
103691
103698
103707
103719
103735
103751
103764
103770
103771
103772
103772
103772
103773
103773
103773
103773
103773
103772
103771
103770
103767
103747
103718
103697
103683
103674
103668
103666
103667
103669
103673
103679
103689
103703
103721
103740
103757
103765
103767
103768
103768
103769
103769
103770
103769
103769
103769
103768
103767
103767
103762
103732
103701
103681
103666
103656
103651
103649
103649
103652
103656
103663
103672
103687
103706
103729
103752
103761
103763
103764
103765
103766
103766
103767
103766
103764
103764
103763
103762
103761
103750
103714
103687
103666
103651
103640
103634
103631
103632
103634
103640
103648
103659
103675
103697
103724
103750
103759
103760
103761
103762
103763
103763
103764
103763
103757
103756
103755
103754
103751
103731
103692
103663
103641
103625
103614
103608
103606
103608
103613
103621
103631
103645
103662
103685
103712
103744
103755
103756
103757
103759
103760
103760
103761
103760
103746
103745
103743
103742
103735
103707
103666
103635
103610
103593
103581
103574
103572
103574
103580
103589
103602
103619
103639
103665
103697
103734
103749
103751
103753
103755
103756
103757
103757
103757
103729
103728
103724
103720
103709
103676
103636
103603
103577
103559
103546
103538
103535
103537
103544
103555
103570
103589
103614
103644
103679
103721
103741
103744
103746
103749
103751
103753
103754
103754
103703
103700
103694
103684
103669
103638
103599
103565
103539
103520
103507
103499
103496
103498
103506
103518
103535
103558
103586
103620
103660
103703
103729
103735
103737
103741
103744
103747
103748
103749
103663
103659
103652
103638
103617
103588
103554
103522
103499
103482
103471
103463
103459
103461
103469
103482
103500
103524
103554
103590
103633
103679
103708
103718
103723
103728
103733
103737
103740
103741
103614
103611
103602
103587
103564
103536
103507
103482
103463
103450
103439
103431
103428
103430
103437
103450
103468
103491
103520
103555
103600
103645
103673
103690
103702
103710
103716
103722
103726
103727
103562
103559
103550
103534
103513
103489
103465
103444
103428
103416
103408
103402
103400
103402
103410
103423
103441
103464
103491
103524
103565
103603
103633
103655
103670
103681
103690
103698
103704
103705
103509
103506
103495
103479
103460
103440
103420
103403
103390
103380
103374
103369
103368
103371
103380
103393
103411
103434
103462
103494
103531
103567
103596
103617
103630
103640
103649
103657
103665
103667
103452
103448
103435
103420
103404
103388
103373
103360
103349
103341
103335
103331
103331
103336
103345
103359
103377
103399
103426
103457
103493
103528
103557
103576
103588
103595
103600
103605
103611
103614
103387
103380
103369
103357
103345
103333
103323
103313
103305
103298
103292
103288
103291
103296
103305
103319
103337
103358
103383
103413
103445
103478
103508
103528
103540
103547
103550
103553
103555
103557
103312
103305
103297
103289
103282
103274
103268
103262
103257
103252
103246
103243
103246
103252
103261
103275
103291
103310
103332
103358
103386
103416
103445
103468
103484
103494
103499
103501
103502
103503
103230
103226
103222
103219
103215
103212
103208
103205
103203
103202
103198
103196
103198
103204
103213
103225
103239
103255
103274
103297
103322
103349
103375
103399
103418
103432
103442
103448
103451
103452
103148
103148
103148
103148
103148
103147
103145
103145
103146
103147
103147
103147
103149
103154
103161
103172
103183
103196
103213
103233
103255
103279
103303
103324
103343
103359
103374
103386
103395
103398
103062
103069
103074
103077
103080
103080
103081
103083
103086
103090
103094
103096
103098
103101
103107
103114
103123
103135
103149
103166
103186
103207
103227
103246
103263
103280
103296
103311
103324
103331
102982
102992
103001
103008
103012
103013
103015
103020
103025
103031
103038
103042
103044
103046
103049
103054
103061
103070
103083
103098
103115
103131
103148
103165
103181
103198
103213
103225
103235
103242
102922
102925
102933
102941
102946
102947
102950
102956
102963
102970
102978
102984
102986
102986
102987
102990
102995
103004
103015
103027
103040
103053
103067
103081
103096
103111
103124
103133
103138
103140
102877
102875
102877
102881
102884
102885
102889
102893
102898
102905
102912
102918
102920
102920
102921
102923
102928
102935
102944
102954
102963
102973
102984
102995
103007
103017
103027
103034
103038
103037
102840
102838
102835
102833
102832
102832
102831
102829
102831
102836
102842
102847
102850
102851
102853
102855
102859
102865
102872
102878
102885
102892
102899
102907
102914
102920
102925
102929
102931
102931
102805
102802
102797
102791
102785
102781
102776
102770
102765
102766
102772
102776
102780
102782
102784
102787
102790
102793
102798
102802
102806
102810
102814
102818
102821
102822
102822
102821
102820
102818
102759
102756
102751
102744
102735
102729
102722
102715
102709
102705
102706
102709
102711
102714
102716
102718
102719
102721
102723
102724
102726
102728
102729
102729
102728
102725
102719
102713
102704
102693
102693
102693
102690
102684
102678
102672
102667
102663
102659
102654
102650
102648
102648
102649
102649
102650
102650
102649
102647
102646
102645
102646
102645
102642
102637
102630
102620
102607
102589
102568
102616
102622
102621
102619
102617
102615
102614
102613
102612
102608
102603
102597
102593
102590
102587
102585
102581
102577
102572
102568
102564
102563
102562
102557
102548
102538
102526
102513
102498
102489
102553
102554
102555
102557
102559
102561
102563
102565
102567
102565
102561
102556
102548
102541
102534
102527
102520
102512
102504
102497
102492
102489
102487
102480
102469
102460
102453
102449
102448
102450
102501
102498
102500
102504
102508
102511
102514
102518
102521
102523
102521
102517
102511
102503
102493
102483
102473
102464
102456
102450
102445
102441
102434
102426
102419
102418
102418
102420
102423
102425
102454
102454
102456
102458
102460
102462
102465
102468
102473
102477
102479
102479
102475
102469
102459
102449
102439
102431
102424
102419
102415
102409
102402
102397
102395
102396
102399
102403
102406
102406
102410
102413
102414
102414
102412
102412
102413
102416
102421
102427
102432
102435
102436
102433
102426
102418
102410
102403
102398
102393
102389
102384
102379
102377
102377
102379
102383
102387
102390
102390
102367
102369
102367
102364
102360
102359
102360
102363
102368
102374
102379
102383
102385
102387
102387
102383
102378
102374
102370
102366
102362
102359
102356
102357
102358
102361
102364
102368
102372
102373
102317
102314
102310
102306
102303
102304
102305
102309
102315
102319
102322
102323
102326
102329
102333
102337
102338
102337
102335
102333
102331
102329
102330
102332
102335
102337
102340
102344
102348
102350
102254
102249
102244
102243
102244
102246
102251
102256
102258
102258
102258
102259
102261
102266
102272
102279
102285
102288
102290
102291
102292
102294
102297
102300
102304
102306
102308
102309
102312
102315
102182
102180
102177
102180
102185
102190
102195
102196
102193
102191
102190
102191
102195
102200
102207
102215
102223
102230
102236
102241
102245
102250
102255
102260
102263
102264
102263
102261
102261
102263
102111
102111
102114
102120
102127
102132
102132
102128
102123
102120
102120
102123
102127
102134
102141
102149
102158
102166
102174
102182
102190
102198
102205
102210
102212
102211
102207
102201
102197
102198
102042
102047
102055
102062
102067
102066
102060
102054
102049
102048
102050
102054
102059
102066
102074
102082
102091
102100
102108
102117
102126
102136
102145
102150
102151
102148
102142
102134
102128
102127
101985
101990
101998
102002
102000
101992
101985
101979
101976
101976
101980
101985
101992
101999
102007
102015
102024
102032
102040
102049
102058
102067
102075
102081
102082
102078
102071
102063
102056
102053
101934
101937
101939
101934
101925
101916
101908
101903
101903
101906
101912
101918
101925
101932
101940
101948
101956
101963
101971
101979
101987
101995
102002
102006
102007
102004
101997
101989
101980
101973
101879
101878
101870
101858
101847
101837
101831
101830
101833
101838
101845
101851
101859
101866
101873
101880
101887
101895
101902
101909
101916
101923
101928
101932
101931
101928
101922
101914
101903
101887
101813
101804
101792
101780
101768
101760
101757
101760
101765
101772
101778
101785
101792
101799
101806
101812
101819
101825
101832
101838
101844
101851
101856
101859
101859
101855
101850
101842
101829
101818
101729
101720
101710
101699
101690
101687
101689
101693
101699
101706
101713
101719
101726
101732
101738
101744
101750
101756
101762
101768
101773
101778
101783
101786
101787
101786
101781
101773
101761
101760
101639
101634
101627
101619
101616
101618
101622
101628
101634
101641
101647
101653
101659
101665
101670
101676
101682
101687
101692
101697
101702
101706
101710
101713
101716
101717
101716
101711
101705
101705
101552
101549
101544
101542
101544
101550
101555
101562
101568
101575
101581
101586
101591
101597
101602
101607
101613
101617
101622
101626
101630
101633
101637
101639
101643
101647
101653
101656
101657
101655
101466
101465
101464
101467
101474
101480
101488
101495
101502
101508
101513
101518
101523
101528
101533
101538
101543
101548
101552
101556
101559
101562
101565
101567
101570
101575
101585
101597
101607
101607
101381
101382
101387
101395
101403
101411
101419
101427
101434
101440
101445
101449
101454
101459
101464
101469
101474
101479
101483
101486
101489
101492
101495
101496
101498
101502
101510
101525
101542
101549
101295
101301
101311
101322
101331
101341
101351
101359
101365
101371
101375
101380
101385
101390
101395
101400
101405
101410
101414
101417
101420
101423
101425
101425
101426
101428
101432
101443
101458
101470
101204
101217
101233
101247
101258
101271
101281
101290
101296
101301
101306
101310
101315
101320
101325
101331
101336
101341
101346
101349
101352
101354
101355
101354
101353
101353
101354
101359
101368
101375
101101
101129
101153
101171
101187
101202
101213
101221
101227
101232
101236
101240
101245
101250
101256
101261
101266
101272
101277
101281
101284
101285
101284
101282
101280
101278
101276
101275
101278
101282
101015
101044
101077
101099
101120
101135
101145
101153
101159
101162
101166
101171
101176
101180
101185
101191
101196
101202
101207
101212
101214
101214
101212
101209
101206
101202
101198
101193
101190
101191
100973
100981
101011
101036
101057
101071
101081
101087
101091
101094
101098
101102
101106
101110
101115
101120
101125
101131
101136
101140
101142
101141
101139
101136
101132
101126
101119
101113
101104
101097
100948
100947
100961
100983
101001
101011
101018
101022
101024
101026
101030
101033
101036
101040
101043
101048
101053
101058
101063
101066
101068
101068
101066
101063
101059
101052
101042
101031
101017
100997
100925
100925
100929
100941
100950
100956
100958
100959
100958
100959
100962
100963
100965
100968
100971
100974
100979
100983
100988
100991
100994
100995
100994
100991
100987
100980
100969
100954
100932
100904
100905
100906
100905
100909
100907
100904
100899
100895
100894
100894
100894
100893
100893
100894
100896
100899
100903
100907
100911
100915
100918
100921
100922
100921
100918
100912
100901
100886
100861
100848
100884
100884
100880
100875
100865
100851
100842
100835
100831
100828
100824
100821
100819
100818
100819
100821
100824
100828
100833
100837
100842
100847
100850
100852
100851
100849
100841
100827
100811
100810
100858
100856
100847
100832
100815
100798
100785
100777
100770
100761
100753
100747
100742
100739
100739
100741
100745
100749
100753
100759
100766
100773
100779
100784
100788
100790
100789
100783
100777
100777
100819
100813
100800
100781
100760
100742
100728
100716
100705
100693
100681
100670
100661
100656
100656
100659
100663
100667
100672
100679
100687
100698
100708
100717
100726
100734
100744
100747
100748
100748
100759
100752
100736
100718
100699
100682
100667
100654
100640
100624
100608
100592
100577
100570
100569
100574
100579
100584
100588
100594
100604
100620
100636
100650
100664
100679
100697
100709
100717
100719
100683
100675
100659
100644
100628
100614
100603
100591
100578
100562
100542
100522
100503
100492
100489
100491
100496
100501
100505
100512
100525
100544
100565
100583
100600
100619
100641
100661
100676
100682
100599
100591
100578
100565
100553
100543
100534
100526
100517
100504
100487
100467
100451
100440
100434
100431
100430
100433
100439
100448
100463
100482
100502