/*--------------------------------*- C++ -*----------------------------------*\
| =========                 |                                                 |
| \\      /  F ield         | OpenFOAM: The Open Source CFD Toolbox           |
|  \\    /   O peration     | Version:  v1606+                                |
|   \\  /    A nd           | Web:      www.OpenFOAM.com                      |
|    \\/     M anipulation  |                                                 |
\*---------------------------------------------------------------------------*/
FoamFile
{
    version     2.0;
    format      ascii;
    class       volVectorField;
    location    "0.84";
    object      Ur;
}
// * * * * * * * * * * * * * * * * * * * * * * * * * * * * * * * * * * * * * //

dimensions      [0 1 -1 0 0 0 0];

internalField   nonuniform List<vector> 
6000
(
(-0.0291294 -0.496963 0)
(-0.0845262 -0.52966 0)
(-0.101849 -0.56864 0)
(-0.095064 -0.599699 0)
(-0.0780004 -0.630999 0)
(-0.060355 -0.640736 0)
(-0.0436787 -0.621042 0)
(-0.0423216 -0.625177 0)
(-0.0816255 -0.638298 0)
(-0.128197 -0.677558 0)
(-0.136271 -0.695142 0)
(-0.12115 -0.680825 0)
(-0.102415 -0.668653 0)
(-0.0762011 -0.671358 0)
(-0.0397337 -0.673818 0)
(-0.00306019 -0.675369 0)
(0.0177567 -0.671029 0)
(0.0291997 -0.672606 0)
(0.0474815 -0.683591 0)
(0.072323 -0.694401 0)
(0.0752997 -0.675117 0)
(0.0321789 -0.63818 0)
(-0.00266373 -0.626723 0)
(0.00579178 -0.630098 0)
(0.0274739 -0.643016 0)
(0.0487673 -0.628217 0)
(0.0676326 -0.596482 0)
(0.0781385 -0.568498 0)
(0.0700789 -0.53336 0)
(0.0247222 -0.503918 0)
(-0.0331338 -0.742598 0)
(-0.116354 -0.735954 0)
(-0.192103 -0.786631 0)
(-0.228537 -0.844311 0)
(-0.238787 -0.904857 0)
(-0.229317 -0.955085 0)
(-0.215622 -0.97686 0)
(-0.222364 -0.961155 0)
(-0.239221 -0.949215 0)
(-0.225004 -1.02759 0)
(-0.178593 -1.06364 0)
(-0.140836 -1.04669 0)
(-0.116616 -1.04322 0)
(-0.0982962 -1.06799 0)
(-0.0733743 -1.08942 0)
(-0.0424977 -1.08358 0)
(-0.0170561 -1.04845 0)
(0.00656029 -1.04003 0)
(0.0374785 -1.05379 0)
(0.0899285 -1.07468 0)
(0.147679 -1.02674 0)
(0.165574 -0.950805 0)
(0.152677 -0.970906 0)
(0.154482 -0.982063 0)
(0.174549 -0.955894 0)
(0.186739 -0.902295 0)
(0.179958 -0.84488 0)
(0.151869 -0.797124 0)
(0.0911708 -0.754695 0)
(0.0249531 -0.763186 0)
(-0.0206591 -0.521359 0)
(-0.0932431 -0.494581 0)
(-0.172863 -0.581851 0)
(-0.212832 -0.659604 0)
(-0.233601 -0.716382 0)
(-0.239423 -0.758666 0)
(-0.262722 -0.761402 0)
(-0.321625 -0.774632 0)
(-0.334697 -0.824538 0)
(-0.284007 -0.938804 0)
(-0.217288 -0.978682 0)
(-0.162799 -0.947052 0)
(-0.121473 -0.922013 0)
(-0.0978228 -0.894682 0)
(-0.0884697 -0.914217 0)
(-0.0808706 -0.908209 0)
(-0.0644686 -0.904285 0)
(-0.0301608 -0.927507 0)
(0.0229299 -0.968378 0)
(0.0918173 -1.01416 0)
(0.175393 -0.953933 0)
(0.243252 -0.829398 0)
(0.241668 -0.785586 0)
(0.198805 -0.778416 0)
(0.186654 -0.76922 0)
(0.185119 -0.720843 0)
(0.167977 -0.667085 0)
(0.138269 -0.605556 0)
(0.075046 -0.528311 0)
(0.0156731 -0.552256 0)
(-0.00705084 -0.557147 0)
(-0.0342065 -0.51677 0)
(-0.0716719 -0.564953 0)
(-0.102375 -0.618927 0)
(-0.133467 -0.666328 0)
(-0.173687 -0.708586 0)
(-0.243339 -0.694834 0)
(-0.33183 -0.74621 0)
(-0.341275 -0.901279 0)
(-0.268536 -0.994737 0)
(-0.20149 -0.989221 0)
(-0.136769 -0.944987 0)
(-0.0944372 -0.887088 0)
(-0.0872742 -0.855317 0)
(-0.0911144 -0.852965 0)
(-0.101582 -0.852241 0)
(-0.106718 -0.866444 0)
(-0.0859774 -0.918019 0)
(-0.0197373 -0.98788 0)
(0.0609667 -1.03609 0)
(0.145366 -1.03352 0)
(0.241724 -0.922208 0)
(0.254745 -0.770322 0)
(0.183877 -0.721744 0)
(0.122698 -0.7227 0)
(0.0883365 -0.677658 0)
(0.0667979 -0.639328 0)
(0.0493451 -0.602466 0)
(0.0234002 -0.560069 0)
(0.00387824 -0.59659 0)
(-0.00125296 -0.589933 0)
(0.0190948 -0.578571 0)
(0.037989 -0.56209 0)
(0.0189699 -0.569061 0)
(-0.0118182 -0.594601 0)
(-0.0490919 -0.614356 0)
(-0.118601 -0.566532 0)
(-0.236634 -0.624682 0)
(-0.313075 -0.895247 0)
(-0.252384 -0.993015 0)
(-0.163794 -0.99316 0)
(-0.0759766 -0.93536 0)
(-0.044697 -0.818448 0)
(-0.0614979 -0.77182 0)
(-0.0786871 -0.765914 0)
(-0.0996396 -0.760019 0)
(-0.129241 -0.779954 0)
(-0.144533 -0.873232 0)
(-0.086783 -1.00141 0)
(0.025029 -1.05716 0)
(0.133188 -1.05472 0)
(0.219306 -0.943144 0)
(0.17722 -0.670681 0)
(0.0729457 -0.595671 0)
(0.00313587 -0.631669 0)
(-0.0298573 -0.617574 0)
(-0.0484184 -0.60671 0)
(-0.0556714 -0.613712 0)
(-0.030298 -0.632987 0)
(-0.00305274 -0.645128 0)
(-0.00626202 -0.646407 0)
(0.0449664 -0.684488 0)
(0.10558 -0.604496 0)
(0.0975685 -0.56872 0)
(0.0787674 -0.575347 0)
(0.0599307 -0.574131 0)
(0.0368011 -0.506433 0)
(-0.0455143 -0.502444 0)
(-0.22138 -0.784049 0)
(-0.261148 -0.995296 0)
(-0.141457 -1.03471 0)
(-0.0409753 -0.943724 0)
(-0.0281341 -0.757022 0)
(-0.046875 -0.696711 0)
(-0.0603129 -0.68421 0)
(-0.0774842 -0.676449 0)
(-0.103911 -0.698032 0)
(-0.139911 -0.818383 0)
(-0.120446 -1.03495 0)
(0.00455729 -1.11386 0)
(0.14851 -1.0828 0)
(0.15061 -0.873673 0)
(0.0122016 -0.560262 0)
(-0.072384 -0.533641 0)
(-0.106031 -0.596825 0)
(-0.123815 -0.611758 0)
(-0.131138 -0.625058 0)
(-0.127094 -0.672078 0)
(-0.0593844 -0.753884 0)
(0.000562571 -0.722033 0)
(-0.00444889 -0.742388 0)
(0.0808265 -0.861377 0)
(0.168387 -0.644901 0)
(0.152449 -0.565588 0)
(0.128222 -0.564062 0)
(0.123367 -0.561937 0)
(0.137389 -0.50991 0)
(0.122272 -0.473446 0)
(-0.0323932 -0.617034 0)
(-0.223935 -0.932659 0)
(-0.167839 -1.08492 0)
(-0.078412 -0.929174 0)
(-0.0651787 -0.700848 0)
(-0.0607081 -0.647846 0)
(-0.051674 -0.641752 0)
(-0.0426396 -0.632064 0)
(-0.0387753 -0.637534 0)
(-0.0571142 -0.736964 0)
(-0.073359 -1.01677 0)
(0.0233742 -1.17662 0)
(0.126722 -1.06805 0)
(-0.00459476 -0.730005 0)
(-0.150988 -0.523077 0)
(-0.18014 -0.538352 0)
(-0.177518 -0.589016 0)
(-0.183833 -0.61212 0)
(-0.194826 -0.643953 0)
(-0.197615 -0.731804 0)
(-0.100365 -0.942551 0)
(-0.00216921 -0.832791 0)
(0.0172596 -0.881111 0)
(0.102492 -1.1179 0)
(0.17345 -0.749273 0)
(0.18639 -0.579873 0)
(0.161685 -0.536018 0)
(0.155174 -0.538561 0)
(0.170254 -0.512349 0)
(0.201135 -0.508945 0)
(0.144729 -0.561827 0)
(-0.0681982 -0.793672 0)
(-0.208716 -1.06779 0)
(-0.178304 -0.915602 0)
(-0.139331 -0.699811 0)
(-0.0965707 -0.655344 0)
(-0.0547254 -0.652167 0)
(-0.0122444 -0.64085 0)
(0.0305025 -0.636197 0)
(0.055724 -0.700754 0)
(0.0480446 -0.963122 0)
(0.072042 -1.18912 0)
(0.0128809 -0.96432 0)
(-0.172155 -0.643832 0)
(-0.247833 -0.552514 0)
(-0.22757 -0.550652 0)
(-0.219744 -0.573481 0)
(-0.22967 -0.599037 0)
(-0.236382 -0.67779 0)
(-0.200938 -0.846533 0)
(-0.111525 -1.19879 0)
(-0.0175371 -0.971599 0)
(-0.0324118 -0.908294 0)
(-0.0412113 -1.14903 0)
(0.0658697 -1.01616 0)
(0.158921 -0.69751 0)
(0.170729 -0.503158 0)
(0.152667 -0.485643 0)
(0.148078 -0.491966 0)
(0.166363 -0.532479 0)
(0.198735 -0.60944 0)
(0.105776 -0.761691 0)
(-0.133381 -0.984717 0)
(-0.243633 -0.908091 0)
(-0.206693 -0.75916 0)
(-0.127682 -0.707554 0)
(-0.0556121 -0.690263 0)
(0.00856233 -0.674888 0)
(0.074233 -0.676156 0)
(0.1391 -0.74115 0)
(0.156557 -0.937538 0)
(0.0723482 -1.11376 0)
(-0.128528 -0.887151 0)
(-0.245869 -0.665989 0)
(-0.240044 -0.589679 0)
(-0.219407 -0.552189 0)
(-0.232559 -0.543258 0)
(-0.247992 -0.594293 0)
(-0.201184 -0.813426 0)
(-0.068159 -1.11555 0)
(0.0619549 -1.24461 0)
(0.0483341 -0.976049 0)
(-0.0832723 -0.692486 0)
(-0.184635 -0.999232 0)
(-0.149664 -1.06657 0)
(0.0141762 -0.973417 0)
(0.106889 -0.586919 0)
(0.0989826 -0.415495 0)
(0.0792743 -0.455756 0)
(0.0714049 -0.538102 0)
(0.0932917 -0.653694 0)
(0.10513 -0.815362 0)
(-0.0161166 -0.990407 0)
(-0.177483 -0.934291 0)
(-0.189242 -0.834001 0)
(-0.11998 -0.769878 0)
(-0.045677 -0.738243 0)
(0.0214643 -0.716736 0)
(0.0831709 -0.72039 0)
(0.146287 -0.795874 0)
(0.154012 -0.93271 0)
(0.00347645 -1.05581 0)
(-0.159426 -0.923618 0)
(-0.185028 -0.738401 0)
(-0.166947 -0.627371 0)
(-0.174444 -0.55427 0)
(-0.200538 -0.518623 0)
(-0.174733 -0.722133 0)
(-0.0122843 -1.1181 0)
(0.186549 -1.18162 0)
(0.230744 -1.0894 0)
(0.105208 -0.726649 0)
(-0.0554034 -0.510581 0)
(-0.166637 -0.845069 0)
(-0.236676 -0.995449 0)
(-0.196942 -1.07372 0)
(-0.037745 -0.854107 0)
(0.00749841 -0.435956 0)
(-0.0300122 -0.432567 0)
(-0.0583876 -0.556604 0)
(-0.065956 -0.700503 0)
(-0.033642 -0.877395 0)
(-0.0313544 -1.02829 0)
(-0.0814764 -0.980171 0)
(-0.101788 -0.889955 0)
(-0.0746319 -0.83074 0)
(-0.0199939 -0.808141 0)
(0.0397346 -0.774756 0)
(0.079199 -0.7521 0)
(0.0867909 -0.796792 0)
(0.0369158 -0.898761 0)
(-0.0688122 -1.0579 0)
(-0.078587 -1.03827 0)
(-0.0289198 -0.835611 0)
(-0.0467983 -0.68533 0)
(-0.0868399 -0.573743 0)
(-0.0916009 -0.60325 0)
(0.0325282 -1.03949 0)
(0.252462 -1.23525 0)
(0.303871 -1.11374 0)
(0.215769 -0.907796 0)
(0.0709575 -0.521842 0)
(-0.0026054 -0.450825 0)
(-0.0637604 -0.676638 0)
(-0.18932 -0.857774 0)
(-0.273637 -1.05027 0)
(-0.210636 -1.03299 0)
(-0.133719 -0.648237 0)
(-0.163241 -0.476834 0)
(-0.213725 -0.61287 0)
(-0.243801 -0.770246 0)
(-0.179861 -0.963446 0)
(-0.0667167 -1.05507 0)
(-0.0315221 -0.977735 0)
(-0.0442009 -0.90318 0)
(-0.0481818 -0.888328 0)
(0.00735872 -0.921931 0)
(0.0864518 -0.873054 0)
(0.102239 -0.781876 0)
(0.0367449 -0.758637 0)
(-0.0929969 -0.829982 0)
(-0.14798 -1.09465 0)
(0.0042206 -1.19898 0)
(0.140059 -0.955599 0)
(0.113651 -0.783165 0)
(0.0586061 -0.67813 0)
(0.117231 -0.884656 0)
(0.28214 -1.22014 0)
(0.360904 -1.22552 0)
(0.268136 -0.957548 0)
(0.10441 -0.698933 0)
(0.0120879 -0.443018 0)
(0.0301673 -0.485331 0)
(0.0189143 -0.586191 0)
(-0.0858128 -0.717627 0)
(-0.227362 -0.919048 0)
(-0.327648 -1.05831 0)
(-0.317101 -0.942777 0)
(-0.321449 -0.66933 0)
(-0.379632 -0.726362 0)
(-0.387014 -0.879056 0)
(-0.280646 -1.09196 0)
(-0.102049 -1.10415 0)
(-0.0416349 -0.961527 0)
(-0.0673776 -0.867282 0)
(-0.0907208 -0.922655 0)
(-0.0228986 -1.06413 0)
(0.151221 -0.976971 0)
(0.203513 -0.792152 0)
(0.0454857 -0.686152 0)
(-0.177373 -0.709085 0)
(-0.235374 -1.17863 0)
(-0.0117456 -1.40618 0)
(0.229583 -1.08067 0)
(0.284209 -0.90715 0)
(0.308956 -0.897877 0)
(0.390185 -1.12945 0)
(0.418515 -1.22981 0)
(0.325231 -1.08397 0)
(0.161331 -0.773714 0)
(0.0221564 -0.567553 0)
(-0.0169034 -0.445955 0)
(0.0301648 -0.542986 0)
(0.0498696 -0.564214 0)
(-0.00469949 -0.624709 0)
(-0.13407 -0.750151 0)
(-0.3352 -0.906828 0)
(-0.505581 -0.984867 0)
(-0.614437 -0.918417 0)
(-0.728998 -0.876124 0)
(-0.754782 -1.09312 0)
(-0.594794 -1.38355 0)
(-0.354316 -1.29869 0)
(-0.24727 -1.04721 0)
(-0.2392 -0.857573 0)
(-0.235536 -0.96747 0)
(-0.139621 -1.27902 0)
(0.0682866 -1.1245 0)
(0.24363 -0.744518 0)
(0.151652 -0.573412 0)
(-0.138147 -0.587741 0)
(-0.285047 -1.27748 0)
(-0.054622 -1.70892 0)
(0.320463 -1.37813 0)
(0.502436 -1.09856 0)
(0.550013 -1.07967 0)
(0.533927 -1.14959 0)
(0.419448 -1.09534 0)
(0.241065 -0.877803 0)
(0.0820354 -0.62514 0)
(-0.000569407 -0.502353 0)
(-0.0108924 -0.466396 0)
(0.0207793 -0.581077 0)
(0.0441801 -0.563516 0)
(0.0237382 -0.573313 0)
(-0.0574766 -0.615876 0)
(-0.21983 -0.683694 0)
(-0.443533 -0.758039 0)
(-0.667958 -0.805041 0)
(-0.878135 -0.864846 0)
(-1.05012 -1.17605 0)
(-1.00948 -1.54803 0)
(-0.822766 -1.4856 0)
(-0.764484 -1.24957 0)
(-0.726683 -1.0401 0)
(-0.657665 -1.14879 0)
(-0.460254 -1.50036 0)
(-0.179848 -1.5723 0)
(0.135437 -0.953119 0)
(0.220921 -0.447113 0)
(0.0293697 -0.469852 0)
(-0.227913 -1.22743 0)
(-0.183169 -1.85843 0)
(0.229353 -1.62643 0)
(0.468591 -1.14361 0)
(0.494622 -1.03946 0)
(0.455336 -1.04304 0)
(0.332255 -0.89548 0)
(0.170515 -0.680743 0)
(0.0584745 -0.521626 0)
(0.0133698 -0.462477 0)
(0.00135161 -0.47261 0)
(0.00966773 -0.586816 0)
(0.0356963 -0.5667 0)
(0.0329036 -0.535992 0)
(-0.0183264 -0.533277 0)
(-0.100905 -0.532907 0)
(-0.223818 -0.528094 0)
(-0.371219 -0.516748 0)
(-0.523045 -0.557701 0)
(-0.757509 -0.902581 0)
(-0.897544 -1.27636 0)
(-0.877374 -1.23859 0)
(-0.950713 -1.11933 0)
(-0.986867 -1.02867 0)
(-0.938316 -1.15683 0)
(-0.808574 -1.50268 0)
(-0.500741 -1.69568 0)
(0.0537839 -1.49097 0)
(0.226881 -0.559786 0)
(0.082154 -0.336788 0)
(-0.244971 -1.04774 0)
(-0.39012 -1.89139 0)
(0.0123934 -1.90005 0)
(0.323092 -1.18922 0)
(0.374447 -0.971649 0)
(0.339034 -0.918724 0)
(0.236992 -0.70307 0)
(0.12654 -0.529683 0)
(0.058553 -0.448807 0)
(0.0254473 -0.428428 0)
(0.00731145 -0.458538 0)
(6.83626e-07 -0.59922 0)
(0.0380444 -0.592626 0)
(0.0529751 -0.491315 0)
(0.00502063 -0.472983 0)
(-0.049746 -0.455003 0)
(-0.104091 -0.43515 0)
(-0.153454 -0.387838 0)
(-0.199132 -0.349685 0)
(-0.342181 -0.590632 0)
(-0.638107 -0.992016 0)
(-0.768805 -0.987162 0)
(-0.924742 -0.956356 0)
(-1.02824 -0.995542 0)
(-1.02942 -1.22268 0)
(-0.928696 -1.60081 0)
(-0.686406 -1.79961 0)
(-0.229733 -1.64666 0)
(0.204887 -0.935409 0)
(0.0739744 -0.342261 0)
(-0.30017 -0.804481 0)
(-0.556411 -1.92169 0)
(-0.23942 -2.25034 0)
(0.173402 -1.35356 0)
(0.307603 -0.913816 0)
(0.249355 -0.771097 0)
(0.160883 -0.547181 0)
(0.0975212 -0.428313 0)
(0.0543611 -0.393905 0)
(0.024697 -0.39473 0)
(0.00648546 -0.43299 0)
(-0.00729732 -0.676525 0)
(0.0150781 -0.684084 0)
(0.0381737 -0.46765 0)
(0.0136488 -0.42318 0)
(-0.0307909 -0.399629 0)
(-0.0601119 -0.408178 0)
(-0.0522533 -0.381205 0)
(-0.0117988 -0.332957 0)
(-0.0158685 -0.43888 0)
(-0.207112 -0.653985 0)
(-0.474997 -0.696845 0)
(-0.731011 -0.776919 0)
(-0.918997 -0.970972 0)
(-0.985278 -1.32548 0)
(-0.870788 -1.68256 0)
(-0.646225 -1.91816 0)
(-0.302128 -1.83615 0)
(0.0411806 -1.24086 0)
(-0.0393865 -0.399425 0)
(-0.300953 -0.668918 0)
(-0.539648 -1.88331 0)
(-0.403295 -2.41837 0)
(0.0243265 -1.6868 0)
(0.252138 -0.85831 0)
(0.181315 -0.601213 0)
(0.112041 -0.437293 0)
(0.0768224 -0.36324 0)
(0.044227 -0.351021 0)
(0.0163527 -0.36286 0)
(0.00228428 -0.404905 0)
(-0.0644432 -0.737674 0)
(-0.125935 -0.852587 0)
(-0.0834908 -0.559551 0)
(-0.0521624 -0.43827 0)
(-0.0582254 -0.408945 0)
(-0.0674132 -0.467388 0)
(-0.0451002 -0.487159 0)
(0.0223918 -0.503047 0)
(0.0915599 -0.535743 0)
(0.0435236 -0.582486 0)
(-0.122261 -0.593884 0)
(-0.293564 -0.653834 0)
(-0.462737 -0.864552 0)
(-0.582981 -1.29134 0)
(-0.583855 -1.77744 0)
(-0.488165 -2.12483 0)
(-0.297954 -2.06955 0)
(-0.130732 -1.52825 0)
(-0.182081 -0.525399 0)
(-0.270824 -0.693366 0)
(-0.415493 -1.83105 0)
(-0.389038 -2.43483 0)
(-0.100354 -2.06346 0)
(0.148822 -0.84238 0)
(0.130692 -0.468614 0)
(0.0868829 -0.362718 0)
(0.0617223 -0.3186 0)
(0.0307084 -0.319049 0)
(0.00284293 -0.339712 0)
(-0.00347597 -0.391134 0)
(-0.137326 -0.448798 0)
(-0.29326 -0.655757 0)
(-0.298341 -0.659388 0)
(-0.266777 -0.57039 0)
(-0.23436 -0.555201 0)
(-0.217476 -0.641067 0)
(-0.187134 -0.704944 0)
(-0.11263 -0.754878 0)
(-0.00212795 -0.672165 0)
(0.00434015 -0.675856 0)
(-0.0856402 -0.75383 0)
(-0.18556 -0.845229 0)
(-0.242862 -0.995373 0)
(-0.240855 -1.33893 0)
(-0.245594 -1.82167 0)
(-0.276543 -2.24583 0)
(-0.250664 -2.35246 0)
(-0.20855 -1.81091 0)
(-0.229149 -0.74455 0)
(-0.188691 -0.773958 0)
(-0.270053 -1.76594 0)
(-0.283005 -2.32782 0)
(-0.128976 -2.07724 0)
(0.038333 -0.90219 0)
(0.0851524 -0.380173 0)
(0.0627649 -0.310131 0)
(0.0445722 -0.287907 0)
(0.0109966 -0.302617 0)
(-0.0119345 -0.342891 0)
(-0.00535069 -0.490154 0)
(-0.0653455 -0.27303 0)
(-0.183902 -0.431449 0)
(-0.257101 -0.486883 0)
(-0.300363 -0.520545 0)
(-0.298592 -0.551516 0)
(-0.280455 -0.579112 0)
(-0.289279 -0.645203 0)
(-0.310285 -0.746401 0)
(-0.287165 -0.751779 0)
(-0.236246 -0.691254 0)
(-0.264664 -0.768057 0)
(-0.312458 -0.904059 0)
(-0.300681 -1.18002 0)
(-0.182586 -1.56342 0)
(-0.112202 -1.97948 0)
(-0.159903 -2.40196 0)
(-0.228445 -2.5559 0)
(-0.229899 -2.07335 0)
(-0.142794 -1.03826 0)
(-0.0487765 -0.854223 0)
(-0.155939 -1.67858 0)
(-0.200948 -2.13861 0)
(-0.0915621 -1.95181 0)
(-0.051603 -1.00285 0)
(0.0225022 -0.323919 0)
(0.0274459 -0.278627 0)
(0.0203021 -0.275406 0)
(-0.0113929 -0.301536 0)
(-0.036411 -0.410105 0)
(-0.0196395 -0.70398 0)
(0.025891 -0.358033 0)
(0.0178849 -0.389751 0)
(-0.0451421 -0.384439 0)
(-0.0909812 -0.40482 0)
(-0.119887 -0.416399 0)
(-0.148172 -0.436423 0)
(-0.200746 -0.490537 0)
(-0.29232 -0.580588 0)
(-0.390484 -0.649557 0)
(-0.468226 -0.679797 0)
(-0.540241 -0.752414 0)
(-0.612252 -0.948203 0)
(-0.632518 -1.34942 0)
(-0.514275 -1.79836 0)
(-0.368774 -2.13579 0)
(-0.321527 -2.43668 0)
(-0.308657 -2.55793 0)
(-0.236639 -2.2001 0)
(-0.0120861 -1.35992 0)
(0.0632243 -0.869488 0)
(-0.0726531 -1.56063 0)
(-0.160693 -1.98959 0)
(-0.132723 -1.84178 0)
(-0.137087 -1.05605 0)
(-0.0500431 -0.387371 0)
(-0.00114059 -0.277275 0)
(-0.00410185 -0.269494 0)
(-0.00654194 -0.292623 0)
(-0.00629311 -0.571328 0)
(-0.00830616 -0.819147 0)
(0.0305035 -0.440854 0)
(0.0543689 -0.436066 0)
(0.0410472 -0.420451 0)
(0.0192197 -0.412246 0)
(-0.0122239 -0.395917 0)
(-0.0428793 -0.387303 0)
(-0.0825092 -0.402827 0)
(-0.145257 -0.439092 0)
(-0.242266 -0.468982 0)
(-0.355532 -0.515897 0)
(-0.467297 -0.576772 0)
(-0.60149 -0.765814 0)
(-0.7759 -1.17861 0)
(-0.85299 -1.65816 0)
(-0.767346 -2.09038 0)
(-0.669545 -2.4218 0)
(-0.576714 -2.61307 0)
(-0.409174 -2.36062 0)
(-0.133874 -1.70097 0)
(0.00697032 -0.967342 0)
(-0.0621593 -1.44139 0)
(-0.179867 -1.87155 0)
(-0.280668 -1.81406 0)
(-0.316892 -1.19885 0)
(-0.151316 -0.753174 0)
(0.010542 -0.358962 0)
(0.0257115 -0.269503 0)
(0.0176639 -0.360437 0)
(0.00424054 -0.73035 0)
(0.0109001 -0.790249 0)
(0.0392994 -0.467664 0)
(0.0779928 -0.427321 0)
(0.0680154 -0.409666 0)
(0.0484794 -0.402443 0)
(0.0300401 -0.389787 0)
(0.012797 -0.373823 0)
(-0.00955587 -0.365456 0)
(-0.0421843 -0.361742 0)
(-0.0871841 -0.355324 0)
(-0.13294 -0.363739 0)
(-0.180624 -0.369514 0)
(-0.286008 -0.473573 0)
(-0.535082 -0.86086 0)
(-0.831612 -1.40018 0)
(-0.957814 -1.91682 0)
(-0.968468 -2.33429 0)
(-0.923841 -2.58839 0)
(-0.791077 -2.47724 0)
(-0.531096 -1.94326 0)
(-0.258191 -1.27593 0)
(-0.184729 -1.38396 0)
(-0.306357 -1.8004 0)
(-0.466882 -1.72878 0)
(-0.508083 -1.43417 0)
(-0.234207 -1.28089 0)
(0.0709671 -0.59113 0)
(0.0906437 -0.345119 0)
(0.0510872 -0.529263 0)
(0.0356986 -0.74441 0)
(0.015671 -0.746234 0)
(0.031456 -0.44082 0)
(0.0650609 -0.413498 0)
(0.0679066 -0.385574 0)
(0.0610454 -0.382465 0)
(0.0486375 -0.375963 0)
(0.0366731 -0.360342 0)
(0.0244481 -0.346145 0)
(0.00964286 -0.33037 0)
(-0.00690136 -0.311773 0)
(-0.0231739 -0.298977 0)
(-0.0360163 -0.28916 0)
(-0.0646347 -0.320279 0)
(-0.205743 -0.537347 0)
(-0.558496 -1.07431 0)
(-0.899846 -1.65822 0)
(-1.12012 -2.17862 0)
(-1.20624 -2.50529 0)
(-1.19576 -2.55709 0)
(-1.08117 -2.22507 0)
(-0.811242 -1.72769 0)
(-0.560399 -1.51435 0)
(-0.578137 -1.73018 0)
(-0.667618 -1.75376 0)
(-0.55998 -1.71551 0)
(-0.194154 -1.63295 0)
(0.107478 -0.791399 0)
(0.143634 -0.489388 0)
(0.123485 -0.566112 0)
(0.0836321 -0.680931 0)
(0.0247831 -0.680848 0)
(0.00121433 -0.380847 0)
(0.0121521 -0.421438 0)
(0.031758 -0.37429 0)
(0.0454859 -0.366669 0)
(0.052598 -0.365661 0)
(0.054003 -0.355905 0)
(0.0463002 -0.342361 0)
(0.0386919 -0.31914 0)
(0.0333917 -0.297477 0)
(0.029224 -0.278857 0)
(0.0302424 -0.26337 0)
(0.0373567 -0.263294 0)
(0.00413451 -0.335328 0)
(-0.216159 -0.663539 0)
(-0.639858 -1.25221 0)
(-1.05523 -1.90561 0)
(-1.33382 -2.32909 0)
(-1.50326 -2.50032 0)
(-1.55341 -2.37392 0)
(-1.40771 -2.0693 0)
(-1.19945 -1.82169 0)
(-1.04582 -1.87101 0)
(-0.909558 -1.93982 0)
(-0.634642 -2.03024 0)
(-0.212307 -1.89917 0)
(0.0794479 -0.920436 0)
(0.169177 -0.525721 0)
(0.152126 -0.512885 0)
(0.0932224 -0.585076 0)
(0.0277383 -0.600454 0)
(-0.0308525 -0.327339 0)
(-0.0340113 -0.382241 0)
(0.00225147 -0.383888 0)
(0.0177117 -0.381495 0)
(0.0280486 -0.382599 0)
(0.0412579 -0.365087 0)
(0.060181 -0.347214 0)
(0.0664918 -0.32764 0)
(0.0610453 -0.301593 0)
(0.060818 -0.277958 0)
(0.0676446 -0.261334 0)
(0.0789526 -0.253877 0)
(0.0815577 -0.274403 0)
(0.00277449 -0.403637 0)
(-0.305133 -0.842312 0)
(-0.780403 -1.49226 0)
(-1.21207 -2.02386 0)
(-1.5881 -2.33081 0)
(-1.84198 -2.38544 0)
(-1.90145 -2.28484 0)
(-1.7987 -2.14975 0)
(-1.57054 -2.13078 0)
(-1.21306 -2.20647 0)
(-0.798661 -2.32077 0)
(-0.357773 -2.07454 0)
(-0.00152858 -1.13773 0)
(0.152735 -0.52767 0)
(0.140471 -0.466151 0)
(0.0885448 -0.512115 0)
(0.0292487 -0.528212 0)
(-0.0259771 -0.287546 0)
(-0.0503764 -0.32521 0)
(-0.0448263 -0.35024 0)
(-0.0227444 -0.376212 0)
(0.00816746 -0.39999 0)
(0.0338289 -0.405494 0)
(0.0470767 -0.393531 0)
(0.0672557 -0.357588 0)
(0.0867874 -0.3215 0)
(0.0869797 -0.292235 0)
(0.0912838 -0.27096 0)
(0.102532 -0.261396 0)
(0.112905 -0.266344 0)
(0.098309 -0.307916 0)
(-0.0427885 -0.509696 0)
(-0.445608 -1.0886 0)
(-0.896808 -1.58266 0)
(-1.39071 -2.02737 0)
(-1.84572 -2.31881 0)
(-2.06197 -2.45107 0)
(-2.0773 -2.41748 0)
(-1.93492 -2.47488 0)
(-1.51467 -2.60736 0)
(-1.0427 -2.69133 0)
(-0.574624 -2.36186 0)
(-0.153348 -1.45149 0)
(0.089015 -0.585785 0)
(0.11441 -0.434525 0)
(0.0755028 -0.461711 0)
(0.0271342 -0.465807 0)
(-0.00432548 -0.281986 0)
(-0.0212041 -0.297755 0)
(-0.0400324 -0.307206 0)
(-0.0482986 -0.342911 0)
(-0.0455507 -0.363147 0)
(-0.0191057 -0.394725 0)
(0.0288778 -0.421467 0)
(0.0636185 -0.416581 0)
(0.0911661 -0.36267 0)
(0.110474 -0.313998 0)
(0.113233 -0.286725 0)
(0.119006 -0.27289 0)
(0.128128 -0.272693 0)
(0.132092 -0.292117 0)
(0.0904185 -0.367613 0)
(-0.139836 -0.711916 0)
(-0.560553 -1.17827 0)
(-1.07389 -1.67001 0)
(-1.54322 -2.02439 0)
(-1.91361 -2.40953 0)
(-1.98728 -2.68906 0)
(-1.83988 -2.79257 0)
(-1.51258 -2.95667 0)
(-1.08046 -3.0017 0)
(-0.69903 -2.68898 0)
(-0.307981 -1.79799 0)
(-0.00346698 -0.759597 0)
(0.0797026 -0.42338 0)
(0.0597928 -0.428191 0)
(0.0232762 -0.412423 0)
(-0.000388564 -0.304739 0)
(-0.0061791 -0.308065 0)
(-0.0112684 -0.308001 0)
(-0.0186427 -0.324389 0)
(-0.0305206 -0.328174 0)
(-0.0358262 -0.356287 0)
(-0.0249416 -0.374865 0)
(0.0219987 -0.414514 0)
(0.0824995 -0.427768 0)
(0.117138 -0.336063 0)
(0.132931 -0.300109 0)
(0.133384 -0.282737 0)
(0.13709 -0.281034 0)
(0.14091 -0.294378 0)
(0.129928 -0.338223 0)
(0.0225725 -0.497208 0)
(-0.263344 -0.811014 0)
(-0.668376 -1.21069 0)
(-1.13323 -1.63781 0)
(-1.55598 -2.14109 0)
(-1.72156 -2.68714 0)
(-1.58957 -3.13505 0)
(-1.27729 -3.33738 0)
(-0.94346 -3.34238 0)
(-0.645471 -2.96346 0)
(-0.372819 -2.05519 0)
(-0.0785921 -0.995569 0)
(0.0489532 -0.439883 0)
(0.0487689 -0.408558 0)
(0.0201395 -0.368407 0)
(0.00108306 -0.324775 0)
(-0.0019441 -0.319841 0)
(-0.00726574 -0.321895 0)
(-0.0089365 -0.333449 0)
(-0.00334416 -0.338705 0)
(0.00118415 -0.351905 0)
(-0.00755018 -0.344072 0)
(-0.0103315 -0.375097 0)
(0.037704 -0.422921 0)
(0.108056 -0.37881 0)
(0.137492 -0.302745 0)
(0.143436 -0.287836 0)
(0.140091 -0.283985 0)
(0.136692 -0.295996 0)
(0.123385 -0.331731 0)
(0.0593833 -0.42081 0)
(-0.0850795 -0.621996 0)
(-0.318398 -0.839099 0)
(-0.664995 -1.18436 0)
(-1.04505 -1.74695 0)
(-1.29842 -2.52268 0)
(-1.24073 -3.25218 0)
(-0.936491 -3.64862 0)
(-0.694764 -3.61393 0)
(-0.52394 -3.20234 0)
(-0.380779 -2.32502 0)
(-0.132917 -1.24948 0)
(0.0273889 -0.496218 0)
(0.0529661 -0.39875 0)
(0.0235173 -0.328341 0)
(0.00450167 -0.323925 0)
(-0.00139473 -0.3164 0)
(-0.016039 -0.32658 0)
(-0.0190303 -0.346909 0)
(-0.00977933 -0.37031 0)
(0.0160917 -0.396741 0)
(0.0395408 -0.370711 0)
(0.0277335 -0.356286 0)
(0.0241721 -0.382212 0)
(0.0824874 -0.41373 0)
(0.128611 -0.310649 0)
(0.142903 -0.285757 0)
(0.141101 -0.280761 0)
(0.128948 -0.287885 0)
(0.105544 -0.315541 0)
(0.0584854 -0.391759 0)
(-0.0179146 -0.561678 0)
(-0.15759 -0.630554 0)
(-0.366454 -0.864476 0)
(-0.596427 -1.4102 0)
(-0.766593 -2.29445 0)
(-0.764261 -3.19774 0)
(-0.527568 -3.78437 0)
(-0.346293 -3.75129 0)
(-0.288272 -3.32245 0)
(-0.242079 -2.4553 0)
(-0.130655 -1.46473 0)
(0.0226009 -0.587165 0)
(0.064413 -0.393326 0)
(0.0301511 -0.281559 0)
(-0.00194842 -0.310928 0)
(-0.0147448 -0.294386 0)
(-0.0378642 -0.312613 0)
(-0.0557709 -0.347741 0)
(-0.050171 -0.394898 0)
(0.0136568 -0.462175 0)
(0.0805663 -0.43005 0)
(0.0877147 -0.389545 0)
(0.062842 -0.37267 0)
(0.0640965 -0.395207 0)
(0.109105 -0.331709 0)
(0.139363 -0.284084 0)
(0.141664 -0.273275 0)
(0.125332 -0.271154 0)
(0.094208 -0.289693 0)
(0.0381073 -0.363026 0)
(-0.0400148 -0.541853 0)
(-0.150877 -0.558931 0)
(-0.253552 -0.732729 0)
(-0.279673 -1.24419 0)
(-0.249475 -2.13509 0)
(-0.212504 -3.07863 0)
(-0.0738567 -3.77391 0)
(0.0547265 -3.76521 0)
(0.0719237 -3.32985 0)
(0.0890081 -2.4628 0)
(0.0466492 -1.55033 0)
(0.0656135 -0.647332 0)
(0.0759429 -0.380189 0)
(0.0331333 -0.230849 0)
(-0.00973818 -0.284896 0)
(-0.0345856 -0.2669 0)
(-0.0709096 -0.285315 0)
(-0.109812 -0.323516 0)
(-0.108197 -0.419494 0)
(-0.0389869 -0.555857 0)
(0.0665189 -0.480693 0)
(0.123488 -0.416783 0)
(0.128839 -0.41258 0)
(0.10169 -0.376677 0)
(0.0987836 -0.366924 0)
(0.135838 -0.293254 0)
(0.146442 -0.26045 0)
(0.127853 -0.24887 0)
(0.0880127 -0.256227 0)
(0.0133193 -0.316242 0)
(-0.0935227 -0.469395 0)
(-0.220549 -0.525094 0)
(-0.221639 -0.71586 0)
(-0.00178208 -1.25905 0)
(0.228894 -2.07592 0)
(0.317854 -2.93288 0)
(0.380398 -3.6847 0)
(0.490278 -3.71755 0)
(0.52576 -3.29023 0)
(0.548753 -2.43403 0)
(0.379869 -1.35679 0)
(0.168953 -0.518726 0)
(0.0736472 -0.311127 0)
(0.0241212 -0.184256 0)
(-0.0141714 -0.248659 0)
(-0.0485957 -0.238419 0)
(-0.0923935 -0.24919 0)
(-0.136341 -0.283832 0)
(-0.156541 -0.484037 0)
(-0.163429 -0.696609 0)
(-0.0462638 -0.532554 0)
(0.0588153 -0.41831 0)
(0.164333 -0.483428 0)
(0.169816 -0.465701 0)
(0.131825 -0.398326 0)
(0.155 -0.300657 0)
(0.16475 -0.239753 0)
(0.137878 -0.219719 0)
(0.0900932 -0.214522 0)
(0.00471903 -0.248946 0)
(-0.144506 -0.33472 0)
(-0.261088 -0.467412 0)
(-0.18969 -0.827502 0)
(0.211223 -1.4679 0)
(0.54679 -2.04988 0)
(0.708571 -2.7973 0)
(0.748047 -3.49647 0)
(0.855467 -3.62118 0)
(0.959981 -3.24547 0)
(1.00662 -2.35771 0)
(0.733263 -1.06622 0)
(0.158253 -0.255935 0)
(0.027232 -0.224092 0)
(0.00637171 -0.176685 0)
(-0.0172925 -0.203365 0)
(-0.0571692 -0.202127 0)
(-0.104449 -0.21012 0)
(-0.146706 -0.271902 0)
(-0.201219 -0.535935 0)
(-0.12938 -0.571535 0)
(-0.105747 -0.560752 0)
(0.0772228 -0.703184 0)
(0.264838 -0.845417 0)
(0.270957 -0.645937 0)
(0.205842 -0.372135 0)
(0.191921 -0.275343 0)
(0.190244 -0.203986 0)
(0.154356 -0.180336 0)
(0.101777 -0.166516 0)
(0.0188045 -0.177252 0)
(-0.148123 -0.211882 0)
(-0.284541 -0.50247 0)
(-0.214019 -0.934152 0)
(0.261738 -1.59865 0)
(0.648375 -2.14378 0)
(0.866534 -2.76048 0)
(0.922152 -3.34984 0)
(1.02496 -3.51527 0)
(1.1802 -3.19172 0)
(1.18803 -2.15851 0)
(0.543995 -0.742997 0)
(0.0598547 -0.208637 0)
(-0.00695726 -0.220013 0)
(-0.00510772 -0.232417 0)
(-0.0167979 -0.158159 0)
(-0.0530562 -0.164919 0)
(-0.0923826 -0.179746 0)
(-0.123266 -0.259155 0)
(-0.137135 -0.389853 0)
(-0.100834 -0.448461 0)
(-0.0260123 -0.60156 0)
(0.279105 -1.13151 0)
(0.353228 -1.57568 0)
(0.345314 -0.994786 0)
(0.229817 -0.325512 0)
(0.215703 -0.19675 0)
(0.210021 -0.14984 0)
(0.172153 -0.133895 0)
(0.123823 -0.118414 0)
(0.0468325 -0.114005 0)
(-0.113165 -0.2046 0)
(-0.265332 -0.579766 0)
(-0.225679 -0.867389 0)
(0.175174 -1.57951 0)
(0.523792 -2.1767 0)
(0.775074 -2.73439 0)
(0.843004 -3.21451 0)
(0.929504 -3.40992 0)
(1.06465 -3.09023 0)
(0.906344 -1.96736 0)
(0.219026 -0.556093 0)
(0.025904 -0.236285 0)
(0.0136609 -0.230282 0)
(-0.00638163 -0.277391 0)
(-0.0163434 -0.136593 0)
(-0.0446549 -0.144941 0)
(-0.0627795 -0.146599 0)
(-0.0669841 -0.207131 0)
(-0.049989 -0.263717 0)
(0.016328 -0.518602 0)
(0.270052 -1.04959 0)
(0.29055 -1.59799 0)
(0.334315 -1.62901 0)
(0.36162 -1.05432 0)
(0.213977 -0.296886 0)
(0.197064 -0.106048 0)
(0.202646 -0.0983691 0)
(0.181411 -0.0940895 0)
(0.149972 -0.0834372 0)
(0.0760683 -0.0765148 0)
(-0.0590221 -0.282249 0)
(-0.151928 -0.627705 0)
(-0.178464 -0.868039 0)
(0.0275349 -1.58445 0)
(0.279227 -2.26579 0)
(0.532385 -2.72836 0)
(0.598727 -3.11763 0)
(0.651138 -3.28599 0)
(0.723484 -2.93217 0)
(0.54148 -1.76396 0)
(0.0913586 -0.419872 0)
(0.0368721 -0.209642 0)
(0.0326305 -0.221171 0)
(0.00447854 -0.266302 0)
(-0.00835598 -0.13424 0)
(-0.0132165 -0.135708 0)
(-0.00963166 -0.128421 0)
(0.0135404 -0.181205 0)
(0.113116 -0.356694 0)
(0.260244 -0.992529 0)
(0.310448 -1.52231 0)
(0.391078 -1.69371 0)
(0.366619 -1.59264 0)
(0.325995 -1.06835 0)
(0.205065 -0.29626 0)
(0.17721 -0.060945 0)
(0.190278 -0.0725652 0)
(0.183853 -0.0709948 0)
(0.16609 -0.0674335 0)
(0.0998582 -0.0725258 0)
(-0.00238261 -0.311667 0)
(-0.051925 -0.686133 0)
(-0.115063 -0.852187 0)
(-0.149172 -1.55685 0)
(0.0819041 -2.34624 0)
(0.230486 -2.741 0)
(0.273924 -3.03664 0)
(0.27968 -3.13843 0)
(0.343146 -2.77934 0)
(0.211586 -1.6521 0)
(0.0034045 -0.373384 0)
(0.0254953 -0.203237 0)
(0.033337 -0.20362 0)
(0.00655776 -0.240836 0)
(0.00703553 -0.109957 0)
(0.0278929 -0.232917 0)
(0.0843964 -0.466321 0)
(0.219959 -0.905323 0)
(0.340103 -1.16411 0)
(0.44538 -1.41481 0)
(0.49881 -1.5751 0)
(0.478935 -1.63785 0)
(0.405344 -1.50002 0)
(0.346053 -1.10435 0)
(0.216872 -0.365501 0)
(0.164253 -0.0503088 0)
(0.185058 -0.0604844 0)
(0.1855 -0.0574791 0)
(0.170191 -0.059391 0)
(0.112576 -0.0819419 0)
(0.0388053 -0.376124 0)
(0.0318205 -0.79861 0)
(-0.00906498 -0.890508 0)
(-0.175054 -1.41939 0)
(-0.0737308 -2.29884 0)
(-0.0262633 -2.72698 0)
(-0.0139473 -2.95779 0)
(-0.0718186 -3.0219 0)
(-0.0367635 -2.64877 0)
(-0.117657 -1.64813 0)
(-0.128986 -0.515655 0)
(0.00795834 -0.229024 0)
(0.0382474 -0.173642 0)
(0.0106083 -0.214214 0)
(0.0389274 -0.142077 0)
(0.186973 -0.649531 0)
(0.286654 -0.918439 0)
(0.408149 -1.06989 0)
(0.504425 -1.23507 0)
(0.559053 -1.40881 0)
(0.561918 -1.51817 0)
(0.511215 -1.53458 0)
(0.421263 -1.3942 0)
(0.391093 -1.08355 0)
(0.294975 -0.457818 0)
(0.159189 -0.0555113 0)
(0.175651 -0.0465323 0)
(0.183415 -0.0461848 0)
(0.169225 -0.0517697 0)
(0.111307 -0.0910853 0)
(0.07554 -0.55577 0)
(0.125188 -0.957753 0)
(0.117848 -0.952751 0)
(-0.08721 -1.16379 0)
(-0.187421 -2.02244 0)
(-0.172132 -2.62371 0)
(-0.220006 -2.85246 0)
(-0.321472 -2.88362 0)
(-0.357819 -2.53398 0)
(-0.369504 -1.71898 0)
(-0.258567 -0.756067 0)
(-0.0234472 -0.291625 0)
(0.0459832 -0.119896 0)
(0.0141026 -0.167664 0)
(0.108459 -0.468902 0)
(0.258856 -0.832079 0)
(0.372802 -1.006 0)
(0.471687 -1.1349 0)
(0.544597 -1.26206 0)
(0.575379 -1.38532 0)
(0.562343 -1.45854 0)
(0.511188 -1.43527 0)
(0.436128 -1.28814 0)
(0.396293 -1.03783 0)