/*--------------------------------*- C++ -*----------------------------------*\
| =========                 |                                                 |
| \\      /  F ield         | OpenFOAM: The Open Source CFD Toolbox           |
|  \\    /   O peration     | Version:  v1606+                                |
|   \\  /    A nd           | Web:      www.OpenFOAM.com                      |
|    \\/     M anipulation  |                                                 |
\*---------------------------------------------------------------------------*/
FoamFile
{
    version     2.0;
    format      ascii;
    class       surfaceScalarField;
    location    "1.9";
    object      phi;
}
// * * * * * * * * * * * * * * * * * * * * * * * * * * * * * * * * * * * * * //

dimensions      [0 3 -1 0 0 0 0];

internalField   nonuniform List<scalar> 
11770
(
6.71871e-07
4.56949e-05
2.50879e-06
4.47431e-05
4.56043e-06
4.47473e-05
6.50762e-06
4.49602e-05
6.78276e-06
4.67896e-05
3.95526e-06
5.0024e-05
-1.27669e-06
5.25007e-05
-5.10058e-06
5.09795e-05
-7.06671e-06
4.8864e-05
-7.54697e-06
4.70675e-05
-5.99539e-06
4.44212e-05
-4.65845e-06
4.44323e-05
-3.00337e-06
4.41707e-05
-6.94364e-07
4.34455e-05
6.0035e-08
4.49893e-05
-6.15231e-07
4.65439e-05
-7.72808e-07
4.64662e-05
-7.92444e-07
4.66884e-05
-5.3413e-07
4.67001e-05
-7.20155e-07
4.73752e-05
-1.99577e-06
4.86151e-05
-3.562e-06
4.89626e-05
-4.75377e-06
4.85853e-05
-5.41029e-06
4.80142e-05
-6.72151e-06
4.86644e-05
-8.99342e-06
4.96309e-05
-9.78608e-06
4.80901e-05
-7.48376e-06
4.48093e-05
-2.33429e-06
4.15859e-05
4.40854e-05
1.22485e-06
4.73302e-05
1.80226e-06
4.67916e-05
3.35386e-06
4.58662e-05
3.62663e-06
4.73814e-05
3.0477e-06
5.01234e-05
1.70111e-06
5.42583e-05
1.73531e-06
5.55112e-05
1.5837e-06
5.42392e-05
5.61572e-08
5.36019e-05
-2.42078e-06
5.28455e-05
-4.93744e-06
5.00847e-05
-4.72742e-06
4.69464e-05
-3.17639e-06
4.52439e-05
-1.58301e-06
4.44276e-05
-4.7509e-07
4.66024e-05
-7.91123e-07
4.9957e-05
-2.73587e-06
5.16687e-05
-6.58141e-06
5.36868e-05
-9.71422e-06
5.27501e-05
-1.22215e-05
5.26623e-05
-1.41121e-05
5.32655e-05
-1.44985e-05
5.20883e-05
-1.2998e-05
4.97828e-05
-1.01859e-05
4.78571e-05
-8.05349e-06
4.92211e-05
-7.8952e-06
5.22224e-05
-7.99469e-06
5.08861e-05
-5.57041e-06
4.49357e-05
-1.96729e-06
4.03823e-05
4.47785e-05
-4.33993e-06
5.22201e-05
-1.38612e-06
4.426e-05
1.25872e-06
4.35538e-05
1.23583e-06
4.77283e-05
1.69698e-06
4.99675e-05
3.93277e-06
5.23494e-05
8.3364e-06
5.14409e-05
1.10667e-05
5.1822e-05
1.10848e-05
5.39158e-05
8.00574e-06
5.63422e-05
2.49113e-06
5.64596e-05
-8.13054e-07
5.10521e-05
-2.12721e-06
4.70809e-05
-3.16115e-06
4.59473e-05
-1.66418e-06
4.57902e-05
-3.49123e-08
4.92502e-05
-4.42295e-06
5.66322e-05
-1.40518e-05
6.36728e-05
-2.26389e-05
6.16128e-05
-2.97273e-05
6.00057e-05
-3.33776e-05
5.71687e-05
-3.35217e-05
5.24808e-05
-3.09776e-05
4.74807e-05
-2.65971e-05
4.37149e-05
-2.03031e-05
4.31838e-05
-1.36146e-05
4.58328e-05
-9.52038e-06
4.70915e-05
-5.64966e-06
4.13515e-05
-6.40531e-07
3.56733e-05
4.46616e-05
-1.71384e-07
5.2549e-05
-1.74661e-06
4.60033e-05
-3.0915e-06
4.49889e-05
-2.28941e-06
4.70051e-05
2.00805e-06
4.57404e-05
9.67699e-06
4.47439e-05
1.68289e-05
4.43498e-05
2.22774e-05
4.64339e-05
2.57587e-05
5.04978e-05
2.59262e-05
5.62462e-05
2.11925e-05
6.13819e-05
1.13009e-05
6.14033e-05
2.37881e-06
5.63391e-05
-4.74119e-06
5.33027e-05
-4.23363e-06
4.55364e-05
-7.00404e-06
5.22581e-05
-1.8085e-05
6.78115e-05
-3.22985e-05
7.79485e-05
-4.479e-05
7.41618e-05
-5.11454e-05
6.64236e-05
-5.13126e-05
5.73993e-05
-4.79007e-05
4.91303e-05
-4.25741e-05
4.22133e-05
-3.59474e-05
3.71476e-05
-2.76993e-05
3.49992e-05
-1.85149e-05
3.67225e-05
-1.11586e-05
3.98282e-05
-6.56982e-06
3.68936e-05
-4.9606e-06
3.42456e-05
3.99299e-05
5.10869e-07
5.21263e-05
-2.19356e-06
4.88125e-05
-3.40492e-06
4.6253e-05
6.55165e-07
4.29861e-05
7.64151e-06
3.87904e-05
1.55352e-05
3.6884e-05
2.25979e-05
3.73198e-05
2.86216e-05
4.04434e-05
3.3355e-05
4.57971e-05
3.63857e-05
5.32401e-05
3.64789e-05
6.13064e-05
2.77715e-05
7.0269e-05
1.2607e-05
7.17449e-05
-1.35129e-06
6.74868e-05
-9.75312e-06
5.40293e-05
-2.21056e-05
6.45666e-05
-3.58982e-05
8.15707e-05
-4.48883e-05
8.6935e-05
-5.27402e-05
8.2028e-05
-5.39488e-05
6.76626e-05
-5.0501e-05
5.3989e-05
-4.46561e-05
4.33232e-05
-3.80903e-05
3.56846e-05
-3.18312e-05
3.09265e-05
-2.57962e-05
2.90051e-05
-1.95411e-05
3.05143e-05
-1.36453e-05
3.39941e-05
-9.01056e-06
3.23464e-05
-5.04198e-06
3.03885e-05
3.49944e-05
-3.18195e-06
5.53608e-05
-3.65915e-06
4.93554e-05
-1.14428e-06
4.37807e-05
4.62477e-06
3.72487e-05
1.02901e-05
3.31528e-05
1.54103e-05
3.17906e-05
2.00356e-05
3.27213e-05
2.50545e-05
3.5452e-05
3.05731e-05
4.03048e-05
3.56112e-05
4.82171e-05
3.80029e-05
5.89007e-05
3.2931e-05
7.53405e-05
1.70401e-05
8.77239e-05
9.95549e-07
8.3749e-05
-1.81047e-05
7.32515e-05
-3.39323e-05
8.02535e-05
-4.16362e-05
8.91645e-05
-4.48307e-05
9.00808e-05
-4.81285e-05
8.53106e-05
-4.61421e-05
6.56881e-05
-3.94203e-05
4.72938e-05
-3.12469e-05
3.51792e-05
-2.4447e-05
2.89139e-05
-1.96418e-05
2.61511e-05
-1.64879e-05
2.58828e-05
-1.45434e-05
2.86056e-05
-1.2842e-05
3.23343e-05
-1.05682e-05
3.01261e-05
-3.42487e-06
2.33138e-05
3.16348e-05
-4.77933e-06
6.01769e-05
-1.68525e-06
4.62995e-05
2.97419e-06
3.91514e-05
6.36177e-06
3.3887e-05
7.69839e-06
3.18407e-05
8.82084e-06
3.06926e-05
1.07746e-05
3.07926e-05
1.42386e-05
3.20134e-05
1.93289e-05
3.52393e-05
2.55226e-05
4.20401e-05
2.91107e-05
5.53033e-05
2.41063e-05
8.03237e-05
1.07832e-05
0.000101091
-2.0379e-06
9.67647e-05
-1.94831e-05
9.08511e-05
-3.12522e-05
9.19201e-05
-3.62187e-05
9.39829e-05
-3.89638e-05
9.27369e-05
-3.74171e-05
8.3724e-05
-3.03264e-05
5.85976e-05
-2.11276e-05
3.81148e-05
-1.41369e-05
2.82121e-05
-1.01835e-05
2.49845e-05
-8.25087e-06
2.42435e-05
-7.387e-06
2.50459e-05
-6.71483e-06
2.79634e-05
-5.06473e-06
3.07179e-05
-4.41669e-06
2.95146e-05
-3.72778e-06
2.26662e-05
2.79533e-05
-1.22399e-06
6.14377e-05
2.15902e-06
4.29479e-05
3.9914e-06
3.73474e-05
3.43317e-06
3.44714e-05
2.26309e-06
3.3036e-05
1.51953e-06
3.14603e-05
1.59494e-06
3.07409e-05
2.85184e-06
3.07803e-05
5.90301e-06
3.22121e-05
1.11713e-05
3.67934e-05
1.59177e-05
5.05651e-05
1.17624e-05
8.44916e-05
1.68634e-06
0.000111252
-8.47058e-06
0.000107109
-1.89796e-05
0.000101527
-2.58239e-05
9.87598e-05
-2.9682e-05
9.77095e-05
-3.1078e-05
9.40077e-05
-2.29259e-05
7.55141e-05
-1.14032e-05
4.70733e-05
-3.81934e-06
3.05487e-05
-8.02024e-07
2.52156e-05
-2.49356e-07
2.44531e-05
-5.11578e-07
2.45281e-05
-7.48258e-07
2.53069e-05
-1.18702e-07
2.73611e-05
8.58335e-07
2.97712e-05
1.54699e-06
2.8857e-05
-1.33582e-06
2.55797e-05
2.66526e-05
8.84411e-07
6.06031e-05
1.95403e-06
4.19142e-05
1.65611e-06
3.76774e-05
-2.4705e-07
3.64042e-05
-2.20384e-06
3.50202e-05
-3.68505e-06
3.29666e-05
-4.70294e-06
3.17824e-05
-5.17053e-06
3.12707e-05
-4.68416e-06
3.17493e-05
-2.18989e-06
3.43241e-05
2.14203e-06
4.62585e-05
1.17907e-06
8.55048e-05
-7.24108e-06
0.000119809
-1.60899e-05
0.000116143
-2.27288e-05
0.000108329
-2.47768e-05
0.000100876
-2.41165e-05
9.70093e-05
-1.96834e-05
8.94961e-05
-5.54029e-06
6.13316e-05
4.85808e-06
3.66843e-05
7.32755e-06
2.80998e-05
6.28153e-06
2.62823e-05
4.72287e-06
2.60329e-05
3.53115e-06
2.57417e-05
2.97863e-06
2.58825e-05
3.47731e-06
2.68879e-05
5.10204e-06
2.81748e-05
5.86542e-06
2.81229e-05
2.58463e-06
2.88899e-05
2.92701e-05
-2.62621e-06
6.32811e-05
6.75951e-07
3.86453e-05
-1.39391e-06
3.97769e-05
-5.0915e-06
4.01312e-05
-7.78657e-06
3.77433e-05
-9.13624e-06
3.43426e-05
-1.02871e-05
3.29576e-05
-1.12468e-05
3.22544e-05
-1.22961e-05
3.28232e-05
-1.30029e-05
3.50592e-05
-1.15649e-05
4.48598e-05
-9.49175e-06
8.35169e-05
-1.50866e-05
0.000125583
-2.43104e-05
0.000125558
-2.8354e-05
0.000112528
-2.39668e-05
9.65905e-05
-1.60079e-05
8.9099e-05
-3.59125e-06
7.70978e-05
1.0401e-05
4.73561e-05
1.46167e-05
3.24957e-05
1.31973e-05
2.95443e-05
1.01381e-05
2.93649e-05
7.24666e-06
2.89475e-05
5.30564e-06
2.77059e-05
4.69749e-06
2.65139e-05
5.70384e-06
2.59058e-05
7.92991e-06
2.59741e-05
9.55736e-06
2.65215e-05
8.41493e-06
3.00599e-05
3.77173e-05
-5.2766e-07
6.38508e-05
8.38547e-07
3.73088e-05
-1.07939e-06
4.17235e-05
-6.93258e-06
4.60133e-05
-1.20755e-05
4.29125e-05
-1.43964e-05
3.66878e-05
-1.48219e-05
3.34075e-05
-1.546e-05
3.29178e-05
-1.72484e-05
3.46383e-05
-2.04304e-05
3.8273e-05
-2.30699e-05
4.7548e-05
-2.1402e-05
8.19581e-05
-2.11654e-05
0.000125563
-2.79833e-05
0.000132622
-2.73549e-05
0.000112112
-1.64926e-05
8.58687e-05
-2.96106e-06
7.56633e-05
1.23179e-05
6.19031e-05
2.10459e-05
3.86773e-05
2.09544e-05
3.26256e-05
1.7422e-05
3.31075e-05
1.30977e-05
3.37174e-05
8.30506e-06
3.37671e-05
5.1888e-06
3.08474e-05
4.21333e-06
2.75128e-05
5.43169e-06
2.47097e-05
8.34881e-06
2.30788e-05
1.27826e-05
2.21092e-05
1.44761e-05
2.83932e-05
5.22288e-05
5.9562e-06
5.79272e-05
9.10169e-06
3.41898e-05
1.13465e-05
3.95068e-05
5.44085e-06
5.19502e-05
-4.41932e-06
5.28045e-05
-1.31257e-05
4.54213e-05
-1.5917e-05
3.62223e-05
-1.72824e-05
3.43067e-05
-1.90812e-05
3.64648e-05
-2.34081e-05
4.26357e-05
-2.88621e-05
5.30553e-05
-2.85599e-05
8.17642e-05
-2.19619e-05
0.000119181
-2.18727e-05
0.000132803
-1.76667e-05
0.000108165
-5.94448e-06
7.43412e-05
8.11618e-06
6.17319e-05
2.27272e-05
4.73885e-05
2.68984e-05
3.45662e-05
2.49607e-05
3.46049e-05
2.10528e-05
3.70518e-05
1.60635e-05
3.87403e-05
7.29489e-06
4.25695e-05
2.51249e-06
3.56589e-05
1.14977e-06
2.88992e-05
2.11391e-06
2.37671e-05
5.48995e-06
1.97223e-05
8.0467e-06
1.95721e-05
5.80583e-06
3.06648e-05
5.80742e-05
5.47503e-06
5.24805e-05
1.21302e-05
2.75585e-05
2.05102e-05
3.11532e-05
2.47557e-05
4.77361e-05
1.91297e-05
5.84645e-05
7.52704e-06
5.70566e-05
-4.27597e-06
4.80554e-05
-1.11755e-05
4.12313e-05
-1.48146e-05
4.01313e-05
-1.98669e-05
4.77243e-05
-2.75793e-05
6.08236e-05
-2.91468e-05
8.34301e-05
-2.02335e-05
0.000110439
-1.28928e-05
0.000125676
-8.08105e-06
0.00010356
8.67052e-08
6.63471e-05
1.3474e-05
4.84635e-05
2.59752e-05
3.49584e-05
2.88014e-05
3.17857e-05
2.80629e-05
3.53857e-05
2.6083e-05
3.90726e-05
2.13961e-05
4.34697e-05
5.32057e-06
5.86931e-05
-4.19516e-06
4.52022e-05
-4.45563e-06
2.91811e-05
-3.22188e-06
2.2554e-05
-1.50584e-06
1.80244e-05
-2.4937e-06
2.05781e-05
-7.82148e-06
3.6025e-05
5.02909e-05
5.05756e-06
4.74501e-05
7.95305e-06
2.46842e-05
1.30981e-05
2.60307e-05
2.22497e-05
3.86123e-05
2.69746e-05
5.3772e-05
2.78597e-05
5.62053e-05
2.25958e-05
5.33532e-05
1.44831e-05
4.9377e-05
4.95478e-06
4.96936e-05
-5.92491e-06
5.86439e-05
-1.43665e-05
6.93201e-05
-2.06326e-05
8.97794e-05
-1.40272e-05
0.000103953
-2.20194e-06
0.000113995
1.99174e-06
9.94994e-05
2.3955e-06
6.60504e-05
1.3085e-05
3.78539e-05
2.45353e-05
2.35492e-05
2.83028e-05
2.8056e-05
2.98872e-05
3.38422e-05
2.9866e-05
3.91437e-05
2.22732e-05
5.11104e-05
-7.72963e-08
8.10912e-05
-1.51469e-05
6.03026e-05
-1.1898e-05
2.59542e-05
-1.1135e-05
2.1814e-05
-1.30981e-05
2.00075e-05
-1.72038e-05
2.47108e-05
-1.32373e-05
3.20926e-05
3.70896e-05
6.49639e-06
4.09793e-05
4.97464e-06
2.62245e-05
3.3106e-06
2.77138e-05
7.55794e-06
3.43885e-05
1.56821e-05
4.56766e-05
2.11641e-05
5.07548e-05
2.52167e-05
4.93329e-05
2.73553e-05
4.72712e-05
2.44299e-05
5.26526e-05
1.53804e-05
6.77299e-05
5.17471e-06
7.95707e-05
-2.60974e-06
9.7624e-05
-7.30724e-07
0.000102151
9.67334e-06
0.000103682
1.15637e-05
9.76966e-05
6.15438e-06
7.15285e-05
1.124e-05
3.28213e-05
2.11532e-05
1.36644e-05
2.5986e-05
2.32576e-05
2.74095e-05
3.24682e-05
1.98338e-05
4.67689e-05
3.91887e-06
6.70716e-05
-1.27627e-05
9.78146e-05
-2.70576e-05
7.46296e-05
-2.4976e-05
2.3895e-05
-1.89808e-05
1.58392e-05
-1.69077e-05
1.79616e-05
-1.47867e-05
2.2622e-05
-8.31436e-06
2.56542e-05
2.88095e-05
6.57788e-06
3.44248e-05
3.37763e-06
2.94423e-05
-1.61388e-06
3.27233e-05
-4.71659e-06
3.75123e-05
-2.01926e-06
4.30041e-05
2.97576e-06
4.57875e-05
7.71819e-06
4.46193e-05
1.23841e-05
4.26349e-05
1.79945e-05
4.70738e-05
2.21841e-05
6.35762e-05
2.04235e-05
8.13724e-05
1.88202e-05
9.92766e-05
1.81026e-05
0.000102926
2.24049e-05
9.94428e-05
2.66542e-05
9.35035e-05
2.61194e-05
7.2098e-05
2.46413e-05
3.43268e-05
2.39337e-05
1.43963e-05
2.6214e-05
2.10188e-05
1.72699e-05
4.14658e-05
1.34596e-07
6.3961e-05
-1.32716e-05
8.05284e-05
-1.24378e-05
9.70315e-05
-1.5569e-05
7.78056e-05
-1.72597e-05
2.56104e-05
-1.0786e-05
9.38422e-06
-8.53406e-06
1.57347e-05
-6.46268e-06
2.05793e-05
-3.90643e-06
2.31282e-05
2.49346e-05
3.59002e-06
3.08557e-05
-3.45148e-07
3.33953e-05
-5.60542e-06
3.80034e-05
-1.03366e-05
4.22665e-05
-1.30124e-05
4.57054e-05
-1.36979e-05
4.64982e-05
-1.13458e-05
4.22926e-05
-7.64595e-06
3.89613e-05
-2.60714e-07
3.9717e-05
1.17435e-05
5.16054e-05
1.81715e-05
7.49835e-05
1.96687e-05
9.78267e-05
2.21281e-05
0.000100517
2.72482e-05
9.43675e-05
3.97047e-05
8.10772e-05
5.0552e-05
6.12529e-05
5.04189e-05
3.44727e-05
4.15379e-05
2.33242e-05
3.04101e-05
3.22087e-05
8.73068e-06
6.32091e-05
-4.58857e-06
7.7343e-05
-4.69491e-06
8.07006e-05
3.78015e-06
8.86284e-05
8.44174e-06
7.32097e-05
6.59466e-06
2.74941e-05
3.41582e-06
1.25856e-05
8.6635e-07
1.83081e-05
-1.46402e-06
2.2937e-05
-1.99547e-06
2.3688e-05
2.29671e-05
1.51374e-07
3.0724e-05
-3.99927e-06
3.75662e-05
-9.61799e-06
4.36459e-05
-1.47975e-05
4.74741e-05
-1.78256e-05
4.87642e-05
-2.02928e-05
4.89936e-05
-2.21152e-05
4.41402e-05
-2.16892e-05
3.8559e-05
-1.72211e-05
3.52739e-05
-5.66219e-06
4.0075e-05
7.18307e-06
6.21729e-05
1.27525e-05
9.22988e-05
1.59645e-05
9.73435e-05
2.34299e-05
8.6929e-05
3.73599e-05
6.71641e-05
5.22604e-05
4.63572e-05
5.67824e-05
2.99839e-05
5.01763e-05
2.99979e-05
2.76528e-05
5.48002e-05
9.31413e-06
8.16124e-05
5.94534e-06
8.07786e-05
1.55936e-05
7.11244e-05
2.78585e-05
7.64424e-05
3.11979e-05
6.99466e-05
2.26682e-05
3.6072e-05
1.36533e-05
2.1629e-05
7.25515e-06
2.47329e-05
5.0127e-07
2.97187e-05
-2.428e-06
2.66433e-05
2.05619e-05
-2.05861e-06
3.28019e-05
-6.2036e-06
4.17335e-05
-1.22274e-05
4.96981e-05
-1.79228e-05
5.32028e-05
-2.25338e-05
5.34118e-05
-2.46545e-05
5.11493e-05
-2.63607e-05
4.58752e-05
-2.77833e-05
4.00061e-05
-2.78106e-05
3.53247e-05
-2.3162e-05
3.54519e-05
-1.14124e-05
5.04536e-05
-8.56303e-07
8.17765e-05
3.99785e-06
9.2517e-05
1.4193e-05
7.6757e-05
2.8016e-05
5.33644e-05
3.7948e-05
3.64536e-05
4.08208e-05
2.71574e-05
3.68909e-05
3.3986e-05
2.34895e-05
6.82641e-05
1.53164e-05
8.98461e-05
1.9823e-05
7.63316e-05
3.64903e-05
5.45164e-05
4.74423e-05
6.556e-05
4.94053e-05
6.80614e-05
3.63014e-05
4.92336e-05
2.04317e-05
3.75361e-05
9.25879e-06
3.59368e-05
-1.54347e-06
4.05522e-05
-5.80737e-06
3.09362e-05
1.47783e-05
-2.37248e-06
3.51939e-05
-7.13017e-06
4.65155e-05
-1.45636e-05
5.71629e-05
-2.01677e-05
5.88451e-05
-2.47462e-05
5.80324e-05
-2.80177e-05
5.44612e-05
-2.99621e-05
4.78545e-05
-3.10258e-05
4.10984e-05
-3.24077e-05
3.6732e-05
-3.33758e-05
3.64466e-05
-2.88741e-05
4.59828e-05
-1.70702e-05
7.00062e-05
-6.38433e-06
8.18621e-05
5.06411e-06
6.53414e-05
1.44529e-05
4.40082e-05
1.90965e-05
3.18452e-05
2.02375e-05
2.60552e-05
1.81777e-05
3.60911e-05
1.8844e-05
6.76547e-05
2.44049e-05
8.43427e-05
3.40294e-05
6.6759e-05
4.59425e-05
4.26552e-05
5.40546e-05
5.75149e-05
5.2263e-05
6.9926e-05
4.05007e-05
6.10525e-05
2.38716e-05
5.4208e-05
7.82407e-06
5.20218e-05
-6.29838e-06
5.47113e-05
-9.77062e-06
3.44426e-05
5.03672e-06
-8.36462e-07
3.60444e-05
-8.93331e-06
5.46424e-05
-1.58379e-05
6.41038e-05
-2.04071e-05
6.34542e-05
-2.61653e-05
6.38321e-05
-3.04214e-05
5.87587e-05
-3.25832e-05
5.0057e-05
-3.37928e-05
4.23419e-05
-3.45658e-05
3.75343e-05
-3.59071e-05
3.78182e-05
-3.42522e-05
4.43627e-05
-2.44661e-05
6.02584e-05
-1.12656e-05
6.87009e-05
-1.57619e-06
5.56894e-05
2.148e-06
4.03161e-05
2.93272e-06
3.10899e-05
1.5969e-06
2.74206e-05
1.84392e-06
3.58806e-05
1.33001e-05
5.62468e-05
3.02261e-05
6.74694e-05
4.46258e-05
5.24099e-05
4.93938e-05
3.79406e-05
5.12678e-05
5.5702e-05
4.90469e-05
7.22025e-05
3.90041e-05
7.11411e-05
2.49696e-05
6.82828e-05
1.02785e-05
6.67509e-05
-7.57892e-07
6.57853e-05
-4.19053e-06
3.79098e-05
8.74926e-07
3.77472e-06
3.22815e-05
-1.01664e-06
5.94593e-05
-6.11458e-06
6.9233e-05
-1.52144e-05
7.25868e-05
-2.32529e-05
7.19036e-05
-2.98485e-05
6.53901e-05
-3.52272e-05
5.54751e-05
-3.55871e-05
4.27397e-05
-3.5524e-05
3.75037e-05
-3.45434e-05
3.68702e-05
-3.14054e-05
4.12613e-05
-2.37197e-05
5.26144e-05
-1.47864e-05
5.98111e-05
-9.40435e-06
5.03431e-05
-8.40371e-06
3.93432e-05
-9.36289e-06
3.2073e-05
-1.13686e-05
2.94508e-05
-8.61689e-06
3.31589e-05
5.4074e-06
4.22603e-05
2.50421e-05
4.78783e-05
3.9252e-05
3.8246e-05
4.40637e-05
3.31766e-05
3.9844e-05
5.99672e-05
3.52059e-05
7.68824e-05
2.86593e-05
7.77279e-05
2.05322e-05
7.6449e-05
1.1327e-05
7.5994e-05
4.30965e-06
7.28404e-05
-1.6028e-07
4.24139e-05
7.41564e-07
9.78653e-06
2.25099e-05
9.20614e-06
6.00603e-05
4.98545e-06
7.34776e-05
-4.07754e-06
8.16746e-05
-1.35315e-05
8.13849e-05
-2.51641e-05
7.70528e-05
-3.72247e-05
6.75685e-05
-3.8124e-05
4.36756e-05
-3.58842e-05
3.52976e-05
-3.2979e-05
3.39967e-05
-2.89897e-05
3.73059e-05
-2.45483e-05
4.82135e-05
-1.97757e-05
5.50804e-05
-1.66026e-05
4.72023e-05
-1.60023e-05
3.87678e-05
-1.69775e-05
3.30702e-05
-1.77243e-05
3.02201e-05
-1.44297e-05
2.98896e-05
-3.53908e-06
3.1399e-05
1.16372e-05
3.27354e-05
2.20373e-05
2.788e-05
2.55965e-05
2.96524e-05
2.64429e-05
5.91569e-05
2.67021e-05
7.66593e-05
2.35717e-05
8.08946e-05
1.77643e-05
8.22943e-05
1.03118e-05
8.34852e-05
6.75671e-06
7.64339e-05
3.72169e-06
4.54828e-05
4.48959e-06
7.06355e-06
1.546e-05
1.59673e-05
5.11752e-05
1.53182e-05
7.41487e-05
1.26838e-05
8.43323e-05
4.25379e-06
8.98402e-05
-1.17354e-05
9.3068e-05
-3.10808e-05
8.69413e-05
-4.04295e-05
5.30521e-05
-3.71131e-05
3.20105e-05
-3.2544e-05
2.94565e-05
-2.89787e-05
3.37705e-05
-2.76709e-05
4.69427e-05
-2.41317e-05
5.15783e-05
-2.07803e-05
4.388e-05
-1.9333e-05
3.73443e-05
-1.92605e-05
3.30191e-05
-1.91802e-05
3.01612e-05
-1.76462e-05
2.8378e-05
-1.31097e-05
2.68862e-05
-5.00246e-06
2.4653e-05
9.88654e-07
2.19141e-05
3.48775e-06
2.71826e-05
1.42909e-05
4.8388e-05
2.17187e-05
6.92667e-05
2.2451e-05
8.0197e-05
1.81296e-05
8.6651e-05
1.18111e-05
8.98426e-05
9.14178e-06
7.91425e-05
6.72539e-06
4.7933e-05
1.12412e-05
6.5908e-06
8.8811e-06
2.00581e-05
3.7725e-05
2.19649e-05
7.22638e-05
1.91923e-05
8.71286e-05
1.38525e-05
9.52048e-05
6.32605e-06
0.00010062
-6.516e-06
9.98101e-05
-3.16587e-05
7.82208e-05
-3.71778e-05
3.75502e-05
-3.2014e-05
2.43121e-05
-2.99774e-05
3.17584e-05
-2.91912e-05
4.61865e-05
-2.48545e-05
4.72719e-05
-2.11244e-05
4.0174e-05
-1.92385e-05
3.54792e-05
-1.85947e-05
3.23951e-05
-1.84363e-05
3.00225e-05
-1.82613e-05
2.82234e-05
-1.79081e-05
2.65543e-05
-1.75593e-05
2.43256e-05
-1.82482e-05
2.26258e-05
-1.60496e-05
2.50117e-05
-2.33443e-06
3.47053e-05
1.32597e-05
5.37085e-05
2.09194e-05
7.25742e-05
2.18691e-05
8.57372e-05
1.82562e-05
9.34937e-05
1.29163e-05
8.45224e-05
8.71112e-06
5.21723e-05
1.99787e-05
2.14886e-06
6.74239e-06
1.4939e-05
2.49495e-05
2.49543e-05
6.22691e-05
2.36256e-05
8.84812e-05
2.02057e-05
9.86502e-05
1.58987e-05
0.000104954
1.2965e-05
0.000102771
-2.65571e-06
9.38671e-05
-2.39936e-05
5.89093e-05
-2.88518e-05
2.91839e-05
-2.92678e-05
3.21921e-05
-2.72072e-05
4.41486e-05
-2.18926e-05
4.19802e-05
-1.83769e-05
3.6677e-05
-1.6843e-05
3.39622e-05
-1.65175e-05
3.20859e-05
-1.70783e-05
3.05998e-05
-1.82813e-05
2.94443e-05
-1.99254e-05
2.82181e-05
-2.22662e-05
2.66882e-05
-2.49144e-05
2.52978e-05
-2.53349e-05
2.54595e-05
-1.90849e-05
2.84858e-05
-3.72714e-06
3.83851e-05
1.15648e-05
5.73201e-05
2.11433e-05
7.61986e-05
2.2596e-05
9.20792e-05
1.77062e-05
8.94527e-05
1.11342e-05
5.8779e-05
3.11399e-05
-1.45526e-06
8.20644e-06
5.45083e-06
1.80555e-05
2.02248e-05
4.75132e-05
2.61688e-05
8.25607e-05
2.51079e-05
9.97371e-05
2.20994e-05
0.00010799
1.95351e-05
0.000105362
1.27508e-05
0.000100676
-7.26332e-06
7.89423e-05
-2.09864e-05
4.29219e-05
-2.49037e-05
3.61244e-05
-2.13124e-05
4.05746e-05
-1.64812e-05
3.71649e-05
-1.42642e-05
3.44737e-05
-1.32288e-05
3.2939e-05
-1.37405e-05
3.26095e-05
-1.51158e-05
3.19873e-05
-1.75411e-05
3.18836e-05
-2.08126e-05
3.15072e-05
-2.42575e-05
3.01548e-05
-2.67498e-05
2.78153e-05
-2.79611e-05
2.66988e-05
-2.69122e-05
2.74675e-05
-2.02751e-05
3.17809e-05
-5.51502e-06
4.25965e-05
9.74355e-06
6.09801e-05
1.93888e-05
8.2475e-05
2.0539e-05
8.8342e-05
1.40353e-05
6.53181e-05
4.52038e-05
-3.39344e-06
1.16077e-05
-1.63517e-06
1.63071e-05
9.76705e-06
3.61264e-05
2.2564e-05
6.97856e-05
2.72601e-05
9.50666e-05
2.5568e-05
0.000109709
1.96325e-05
0.000111323
1.06465e-05
0.000109683
-3.02657e-06
9.2632e-05
-1.68048e-05
5.6714e-05
-1.79572e-05
3.72895e-05
-1.35815e-05
3.62114e-05
-1.10153e-05
3.46097e-05
-1.02232e-05
3.36915e-05
-1.01346e-05
3.28586e-05
-1.08407e-05
3.33229e-05
-1.17279e-05
3.28821e-05
-1.43819e-05
3.45479e-05
-2.05314e-05
3.76718e-05
-2.59389e-05
3.5583e-05
-2.80927e-05
2.99936e-05
-2.94184e-05
2.80536e-05
-2.9523e-05
2.76038e-05
-2.73765e-05
2.96686e-05
-2.01654e-05
3.54219e-05
-7.05377e-06
4.79083e-05
7.6614e-06
6.78037e-05
1.57896e-05
8.02551e-05
1.49542e-05
6.61892e-05
6.01906e-05
-3.8576e-06
1.54724e-05
-5.36205e-06
1.78199e-05
7.32819e-07
3.00444e-05
1.33017e-05
5.72365e-05
2.29176e-05
8.54758e-05
2.26312e-05
0.000110023
1.39158e-05
0.000120064
2.15911e-06
0.000121462
-4.66876e-06
9.94795e-05
-7.79916e-06
5.98591e-05
-7.58726e-06
3.70869e-05
-5.97467e-06
3.46074e-05
-6.13066e-06
3.47737e-05
-7.36726e-06
3.49347e-05
-7.61886e-06
3.31166e-05
-8.14365e-06
3.38535e-05
-9.99333e-06
3.47414e-05
-1.33656e-05
3.79293e-05
-2.00894e-05
4.44095e-05
-2.6638e-05
4.21487e-05
-2.87595e-05
3.21369e-05
-2.95352e-05
2.88562e-05
-2.99894e-05
2.80899e-05
-2.90906e-05
2.88045e-05
-2.59211e-05
3.229e-05
-1.84197e-05
4.04483e-05
-6.35289e-06
5.57835e-05
6.21794e-06
6.77308e-05
1.17135e-05
6.07315e-05
7.19437e-05
-3.49239e-06
1.89713e-05
-6.75038e-06
2.10854e-05
-5.19158e-06
2.84967e-05
4.81118e-06
4.72513e-05
1.49374e-05
7.53739e-05
1.34059e-05
0.000111585
2.33483e-06
0.000131165
-6.68546e-06
0.000130511
-3.50532e-06
9.63221e-05
1.72243e-06
5.46455e-05
2.21646e-06
3.66006e-05
7.38374e-07
3.60928e-05
-2.4735e-06
3.79941e-05
-4.60565e-06
3.70775e-05
-7.70618e-06
3.62262e-05
-9.9062e-06
3.60691e-05
-1.02616e-05
3.51149e-05
-1.13432e-05
3.90265e-05
-1.83382e-05
5.14212e-05
-2.39849e-05
4.78128e-05
-2.78085e-05
3.59806e-05
-2.82701e-05
2.93417e-05
-2.8292e-05
2.81405e-05
-2.81095e-05
2.86552e-05
-2.64149e-05
3.06323e-05
-2.27551e-05
3.68304e-05
-1.39361e-05
4.7013e-05
-1.5252e-07
5.39971e-05
6.64861e-06
5.39728e-05
7.86446e-05
-3.40718e-06
2.23848e-05
-7.61461e-06
2.53004e-05
-9.16306e-06
3.00553e-05
-3.43355e-06
4.15369e-05
4.78567e-06
6.71774e-05
1.6516e-07
0.000116239
-1.04574e-05
0.000141822
-1.04416e-05
0.000130527
2.71877e-06
8.31835e-05
1.09305e-05
4.64456e-05
9.94944e-06
3.75896e-05
5.94358e-06
4.01079e-05
7.62099e-07
4.31871e-05
-4.01308e-06
4.18599e-05
-9.30011e-06
4.15361e-05
-1.22304e-05
3.90355e-05
-1.39435e-05
3.68589e-05
-1.2996e-05
3.81107e-05
-1.45922e-05
5.30459e-05
-1.76851e-05
5.09313e-05
-2.3649e-05
4.19683e-05
-2.50826e-05
3.0798e-05
-2.55556e-05
2.86397e-05
-2.54772e-05
2.86071e-05
-2.44437e-05
2.96329e-05
-2.15934e-05
3.40201e-05
-1.42204e-05
3.96862e-05
-2.68232e-06
4.25061e-05
2.76152e-06
4.85732e-05
8.14743e-05
-3.96474e-06
2.63568e-05
-8.7912e-06
3.01359e-05
-1.21611e-05
3.34362e-05
-1.11012e-05
4.04912e-05
-8.75251e-06
6.4851e-05
-1.47747e-05
0.000122297
-1.9519e-05
0.000146609
-5.54979e-06
0.000116591
1.2113e-05
6.55395e-05
1.53381e-05
4.32322e-05
1.16535e-05
4.12868e-05
7.77891e-06
4.39982e-05
3.12761e-06
4.78582e-05
-5.69276e-06
5.07125e-05
-1.13255e-05
4.72159e-05
-1.42598e-05
4.20176e-05
-1.67068e-05
3.93509e-05
-1.73284e-05
3.87789e-05
-1.29355e-05
4.87012e-05
-1.16225e-05
4.96558e-05
-1.5885e-05
4.6262e-05
-2.06269e-05
3.55657e-05
-2.20131e-05
3.00514e-05
-2.21565e-05
2.87787e-05
-2.13069e-05
2.88147e-05
-1.83321e-05
3.10817e-05
-1.23009e-05
3.36953e-05
-4.93705e-06
3.51828e-05
-9.50848e-07
4.46307e-05
8.06008e-05
-4.77673e-06
3.11431e-05
-1.03501e-05
3.57219e-05
-1.4872e-05
3.79723e-05
-1.76326e-05
4.3268e-05
-2.32027e-05
7.04484e-05
-2.65562e-05
0.000125696
-1.84678e-05
0.000138569
5.22932e-06
9.29275e-05
1.46757e-05
5.61138e-05
1.04012e-05
4.7528e-05
3.9747e-06
4.77391e-05
-1.83257e-06
4.98369e-05
-6.44281e-06
5.25097e-05
-9.59588e-06
5.39227e-05
-1.1384e-05
4.90689e-05
-1.43049e-05
4.49979e-05
-1.71925e-05
4.22962e-05
-1.963e-05
4.12763e-05
-1.48798e-05
4.40161e-05
-1.10798e-05
4.59104e-05
-1.03499e-05
4.55758e-05
-1.55947e-05
4.08446e-05
-1.79506e-05
3.24353e-05
-1.84912e-05
2.93474e-05
-1.79294e-05
2.82828e-05
-1.55355e-05
2.87207e-05
-1.13666e-05
2.95612e-05
-7.24644e-06
3.10972e-05
-4.539e-06
4.19649e-05
7.61327e-05
-5.33568e-06
3.64923e-05
-1.22129e-05
4.26177e-05
-1.81121e-05
4.3893e-05
-2.43005e-05
4.94806e-05
-3.43878e-05
8.05771e-05
-3.01705e-05
0.00012154
-6.02658e-06
0.00011448
1.32935e-05
7.36442e-05
1.28713e-05
5.657e-05
7.20725e-06
5.32316e-05
1.37016e-06
5.36209e-05
-3.3011e-06
5.45612e-05
-6.07025e-06
5.53434e-05
-7.36581e-06
5.52939e-05
-9.79247e-06
5.15701e-05
-1.27388e-05
4.80138e-05
-1.53887e-05
4.50137e-05
-1.72509e-05
4.32085e-05
-1.59721e-05
4.28117e-05
-1.27002e-05
4.27086e-05
-9.32761e-06
4.22639e-05
-1.07582e-05
4.23243e-05
-1.35409e-05
3.52544e-05
-1.46639e-05
3.0502e-05
-1.46638e-05
2.83134e-05
-1.32563e-05
2.73445e-05
-1.07406e-05
2.70769e-05
-8.12755e-06
2.85156e-05
-5.97125e-06
3.98484e-05
7.02154e-05
-5.03785e-06
4.15484e-05
-1.30962e-05
5.07019e-05
-2.17702e-05
5.25988e-05
-3.09566e-05
5.8707e-05
-3.80413e-05
8.77256e-05
-2.13005e-05
0.000104872
6.44433e-06
8.67954e-05
1.43556e-05
6.57834e-05
1.18324e-05
5.91473e-05
6.98588e-06
5.81354e-05
2.077e-06
5.85921e-05
-2.23316e-06
5.89407e-05
-5.40312e-06
5.85904e-05
-7.28183e-06
5.72553e-05
-9.62817e-06
5.39961e-05
-1.19163e-05
5.0378e-05
-1.38549e-05
4.70267e-05
-1.5021e-05
4.44498e-05
-1.4812e-05
4.268e-05
-1.33929e-05
4.1366e-05
-1.13609e-05
4.03046e-05
-8.78768e-06
3.98159e-05
-1.00343e-05
3.65514e-05
-1.14683e-05
3.19761e-05
-1.19519e-05
2.88319e-05
-1.13125e-05
2.67374e-05
-9.88306e-06
2.56784e-05
-8.22687e-06
2.68895e-05
-6.45448e-06
3.81154e-05
6.3819e-05
-3.24799e-06
4.48159e-05
-1.15519e-05
5.90357e-05
-2.23618e-05
6.34449e-05
-3.30535e-05
6.94528e-05
-3.03583e-05
8.51069e-05
-6.36755e-06
8.09548e-05
1.10502e-05
6.94448e-05
1.39158e-05
6.29858e-05
1.16888e-05
6.14454e-05
7.92944e-06
6.19679e-05
3.59486e-06
6.30031e-05
-8.09282e-07
6.34247e-05
-4.91759e-06
6.27814e-05
-8.09509e-06
6.05167e-05
-1.05953e-05
5.65781e-05
-1.23265e-05
5.21885e-05
-1.34665e-05
4.82445e-05
-1.39716e-05
4.50325e-05
-1.37999e-05
4.25861e-05
-1.30607e-05
4.07039e-05
-1.18652e-05
3.91844e-05
-9.95581e-06
3.79779e-05
-9.39581e-06
3.60526e-05
-1.00179e-05
3.26476e-05
-1.03536e-05
2.92085e-05
-1.00554e-05
2.64744e-05
-9.36748e-06
2.50221e-05
-8.86773e-06
2.64208e-05
-7.1199e-06
3.64073e-05
5.67511e-05
-2.49918e-06
4.73341e-05
-9.17528e-06
6.57433e-05
-1.77295e-05
7.2034e-05
-2.44836e-05
7.62597e-05
-1.33326e-05
7.40189e-05
4.27802e-06
6.34082e-05
1.23832e-05
6.1411e-05
1.38882e-05
6.15596e-05
1.22596e-05
6.31566e-05
9.15377e-06
6.51591e-05
5.0139e-06
6.72302e-05
1.87931e-07
6.83384e-05
-5.05307e-06
6.81099e-05
-9.5099e-06
6.50593e-05
-1.23309e-05
5.9482e-05
-1.37017e-05
5.36403e-05
-1.41759e-05
4.87984e-05
-1.40321e-05
4.49675e-05
-1.34591e-05
4.20908e-05
-1.26546e-05
3.99759e-05
-1.17433e-05
3.83474e-05
-1.06836e-05
3.69896e-05
-9.97909e-06
3.54133e-05
-9.96057e-06
3.26845e-05
-9.83549e-06
2.91291e-05
-9.44676e-06
2.61238e-05
-8.99057e-06
2.45994e-05
-8.77365e-06
2.62368e-05
-7.19085e-06
3.48653e-05
4.961e-05
-1.51743e-06
4.88725e-05
-2.39435e-06
6.66556e-05
-6.91824e-06
7.65996e-05
-8.10877e-06
7.74973e-05
2.83324e-06
6.31247e-05
1.06865e-05
5.56124e-05
1.45472e-05
5.7623e-05
1.51838e-05
6.10062e-05
1.37515e-05
6.46793e-05
1.06802e-05
6.83247e-05
6.49321e-06
7.15123e-05
1.50227e-06
7.34221e-05
-5.20037e-06
7.49043e-05
-1.17085e-05
7.16564e-05
-1.51134e-05
6.29708e-05
-1.61184e-05
5.4728e-05
-1.58669e-05
4.86278e-05
-1.50382e-05
4.42179e-05
-1.39154e-05
4.10457e-05
-1.27263e-05
3.88626e-05
-1.16657e-05
3.73601e-05
-1.08425e-05
3.62365e-05
-1.04947e-05
3.51313e-05
-1.0492e-05
3.27404e-05
-1.00546e-05
2.87408e-05
-9.3111e-06
2.5421e-05
-8.53106e-06
2.38547e-05
-7.66806e-06
2.54087e-05
-5.63681e-06
3.28765e-05
4.40239e-05
-8.90741e-08
4.89867e-05
2.05206e-06
6.45539e-05
9.78168e-08
7.86026e-05
6.63128e-06
7.10118e-05
1.37663e-05
5.604e-05
1.63865e-05
5.30533e-05
1.77585e-05
5.63261e-05
1.77685e-05
6.10834e-05
1.58312e-05
6.67129e-05
1.2287e-05
7.19675e-05
8.21371e-06
7.56812e-05
3.78775e-06
7.79402e-05
-4.51051e-06
8.32949e-05
-1.48651e-05
8.21019e-05
-1.89205e-05
6.71111e-05
-1.99381e-05
5.58293e-05
-1.85318e-05
4.73027e-05
-1.68226e-05
4.2588e-05
-1.51032e-05
3.94033e-05
-1.34362e-05
3.72705e-05
-1.19341e-05
3.59299e-05
-1.08024e-05
3.51733e-05
-1.05269e-05
3.49212e-05
-1.09506e-05
3.32248e-05
-1.05083e-05
2.835e-05
-9.36982e-06
2.43251e-05
-7.9393e-06
2.24608e-05
-5.99888e-06
2.35039e-05
-3.16182e-06
3.00818e-05
4.09137e-05
7.86735e-08
4.89388e-05
1.06899e-06
6.36078e-05
5.2224e-06
7.4504e-05
1.44477e-05
6.18408e-05
1.85897e-05
5.19562e-05
2.01611e-05
5.15487e-05
2.13565e-05
5.52089e-05
2.0918e-05
6.16126e-05
1.72029e-05
7.05257e-05
1.29753e-05
7.62882e-05
1.02055e-05
7.85386e-05
3.68947e-06
8.45445e-05
-9.11108e-06
9.61947e-05
-2.02242e-05
9.33165e-05
-2.29327e-05
6.99129e-05
-2.51921e-05
5.81735e-05
-2.19583e-05
4.41484e-05
-1.91497e-05
3.98573e-05
-1.68431e-05
3.71726e-05
-1.47914e-05
3.52924e-05
-1.28212e-05
3.403e-05
-1.10188e-05
3.34372e-05
-1.00819e-05
3.40479e-05
-1.10432e-05
3.42474e-05
-1.0894e-05
2.82538e-05
-9.4276e-06
2.2902e-05
-7.38968e-06
2.04595e-05
-4.65721e-06
2.08058e-05
-1.26776e-06
2.67322e-05
3.96967e-05
4.97478e-07
4.84776e-05
-6.7837e-07
6.48345e-05
8.77793e-06
6.5105e-05
1.70041e-05
5.3671e-05
2.04172e-05
4.86028e-05
2.30613e-05
4.89712e-05
2.54218e-05
5.29258e-05
2.4314e-05
6.28083e-05
1.77247e-05
7.72062e-05
1.43009e-05
7.97929e-05
1.06668e-05
8.22504e-05
-1.33405e-05
0.000108645
-4.46457e-05
0.000127618
-5.06624e-05
9.94487e-05
-4.01894e-05
5.95313e-05