/*--------------------------------*- C++ -*----------------------------------*\
| =========                 |                                                 |
| \\      /  F ield         | OpenFOAM: The Open Source CFD Toolbox           |
|  \\    /   O peration     | Version:  v1606+                                |
|   \\  /    A nd           | Web:      www.OpenFOAM.com                      |
|    \\/     M anipulation  |                                                 |
\*---------------------------------------------------------------------------*/
FoamFile
{
    version     2.0;
    format      ascii;
    class       volVectorField;
    location    "1.9";
    object      U.air;
}
// * * * * * * * * * * * * * * * * * * * * * * * * * * * * * * * * * * * * * //

dimensions      [0 1 -1 0 0 0 0];

internalField   nonuniform List<vector> 
6000
(
(-0.000312628 0.253973 0)
(0.0438125 0.16203 0)
(0.0722929 0.166843 0)
(0.103634 0.186275 0)
(0.119959 0.211434 0)
(0.10475 0.233735 0)
(0.0371828 0.237831 0)
(-0.0339842 0.241709 0)
(-0.0809824 0.226295 0)
(-0.106037 0.212716 0)
(-0.100139 0.189513 0)
(-0.0793986 0.175645 0)
(-0.0571132 0.172541 0)
(-0.024945 0.164072 0)
(1.54607e-05 0.1597 0)
(-0.00111346 0.160331 0)
(-0.00900897 0.171674 0)
(-0.00827103 0.193452 0)
(-0.00506496 0.219195 0)
(-0.00436397 0.252293 0)
(-0.0191593 0.270059 0)
(-0.0497575 0.272343 0)
(-0.079102 0.262279 0)
(-0.0955319 0.244435 0)
(-0.110976 0.229387 0)
(-0.138927 0.23601 0)
(-0.166871 0.237187 0)
(-0.154641 0.21798 0)
(-0.096567 0.182824 0)
(-0.0100871 0.242747 0)
(0.0220994 0.996815 0)
(0.0241216 1.03497 0)
(0.0559949 1.02752 0)
(0.0867324 1.02388 0)
(0.084935 1.03132 0)
(0.0665838 1.06566 0)
(0.0450845 1.10272 0)
(0.036488 1.07575 0)
(0.00964946 1.06345 0)
(-0.0276862 1.0603 0)
(-0.0699926 1.03816 0)
(-0.0887645 1.0366 0)
(-0.0632957 1.02738 0)
(-0.0341684 1.01827 0)
(-0.00759333 1.05068 0)
(0.00960469 1.08941 0)
(0.00052782 1.10401 0)
(-0.0351613 1.11424 0)
(-0.0853102 1.08606 0)
(-0.127156 1.05504 0)
(-0.164713 1.0428 0)
(-0.19179 1.02581 0)
(-0.19473 1.00844 0)
(-0.176789 1.0016 0)
(-0.153567 1.02674 0)
(-0.149505 1.04904 0)
(-0.162757 1.02908 0)
(-0.140627 0.98017 0)
(-0.0703467 0.939603 0)
(-0.0371054 0.957879 0)
(-0.039159 0.782355 0)
(-0.0310115 0.701363 0)
(0.0210265 0.67897 0)
(0.0476817 0.71265 0)
(0.0448889 0.761496 0)
(0.0549939 0.825019 0)
(0.0952347 0.821805 0)
(0.140713 0.822934 0)
(0.147683 0.837433 0)
(0.119283 0.843227 0)
(0.0487466 0.819325 0)
(-0.0203238 0.765132 0)
(-0.0398509 0.745163 0)
(-0.043752 0.74277 0)
(-0.0226423 0.753279 0)
(0.027544 0.797917 0)
(0.0198569 0.844623 0)
(-0.0820973 0.88746 0)
(-0.217383 0.873389 0)
(-0.329587 0.872355 0)
(-0.406744 0.864481 0)
(-0.434211 0.827849 0)
(-0.421091 0.778143 0)
(-0.381494 0.737853 0)
(-0.324557 0.741133 0)
(-0.244433 0.779262 0)
(-0.185933 0.767754 0)
(-0.138272 0.676144 0)
(-0.0644125 0.612312 0)
(-0.00934583 0.723475 0)
(0.00217969 0.847537 0)
(-0.00155802 0.731523 0)
(-0.0229711 0.729161 0)
(-0.0279166 0.779094 0)
(0.00173536 0.775323 0)
(0.0739145 0.766058 0)
(0.173716 0.759657 0)
(0.250887 0.778539 0)
(0.308436 0.82651 0)
(0.333819 0.896116 0)
(0.306675 0.946859 0)
(0.203224 0.910138 0)
(0.0807291 0.85977 0)
(-0.0253402 0.848063 0)
(-0.0457434 0.811025 0)
(-0.0291414 0.850536 0)
(-0.119996 0.975681 0)
(-0.302324 1.08453 0)
(-0.488545 1.0427 0)
(-0.621766 0.982144 0)
(-0.663042 0.895175 0)
(-0.640617 0.799191 0)
(-0.584561 0.71531 0)
(-0.509787 0.657247 0)
(-0.417979 0.637132 0)
(-0.308352 0.65967 0)
(-0.207767 0.693975 0)
(-0.131994 0.641567 0)
(-0.0911667 0.571333 0)
(-0.0520451 0.683141 0)
(0.00733567 0.770881 0)
(-0.00529086 0.719549 0)
(-0.0441603 0.689917 0)
(-0.0283967 0.678073 0)
(0.0398623 0.645975 0)
(0.140372 0.630837 0)
(0.235853 0.63449 0)
(0.325347 0.67122 0)
(0.4 0.736024 0)
(0.455189 0.824994 0)
(0.483715 0.916745 0)
(0.435296 0.985163 0)
(0.268163 0.95666 0)
(0.0676314 0.90724 0)
(-0.0670301 0.770031 0)
(-0.18926 0.881865 0)
(-0.362364 1.09123 0)
(-0.514139 1.18077 0)
(-0.630445 1.11416 0)
(-0.705671 0.977286 0)
(-0.695579 0.83613 0)
(-0.639539 0.717209 0)
(-0.55718 0.621389 0)
(-0.469907 0.552448 0)
(-0.387008 0.519365 0)
(-0.307223 0.53341 0)
(-0.230832 0.568115 0)
(-0.164266 0.540798 0)
(-0.102488 0.511223 0)
(-0.0505398 0.549842 0)
(-0.0247318 0.767738 0)
(-0.0542717 0.715797 0)
(-0.0490472 0.681586 0)
(0.00510551 0.619869 0)
(0.0820221 0.563308 0)
(0.156182 0.541841 0)
(0.228425 0.554736 0)
(0.299991 0.598289 0)
(0.377251 0.670261 0)
(0.452438 0.774544 0)
(0.500242 0.892772 0)
(0.487864 1.04291 0)
(0.336629 1.12302 0)
(0.117972 1.08868 0)
(-0.107704 0.931811 0)
(-0.338004 1.03693 0)
(-0.492827 1.18422 0)
(-0.549875 1.20324 0)
(-0.61215 1.15086 0)
(-0.639422 0.958308 0)
(-0.595506 0.767997 0)
(-0.503033 0.61888 0)
(-0.403847 0.525825 0)
(-0.323772 0.479824 0)
(-0.266806 0.468937 0)
(-0.225766 0.494212 0)
(-0.209043 0.533238 0)
(-0.182136 0.493784 0)
(-0.106507 0.428709 0)
(-0.0318299 0.527227 0)
(-0.0427025 0.843127 0)
(-0.0654781 0.731591 0)
(-0.00531646 0.636794 0)
(0.0488959 0.555214 0)
(0.0857532 0.521216 0)
(0.109714 0.507787 0)
(0.142042 0.515404 0)
(0.187058 0.539311 0)
(0.249544 0.592145 0)
(0.327989 0.689874 0)
(0.395322 0.843433 0)
(0.379628 1.08048 0)
(0.244194 1.26621 0)
(0.0616349 1.2132 0)
(-0.137734 1.13072 0)
(-0.334619 1.16641 0)
(-0.445233 1.21402 0)
(-0.49259 1.21657 0)
(-0.524765 1.14689 0)
(-0.483122 0.898558 0)
(-0.384022 0.656735 0)
(-0.282716 0.514163 0)
(-0.209849 0.456133 0)
(-0.166755 0.439661 0)
(-0.145132 0.449678 0)
(-0.132833 0.490832 0)
(-0.11889 0.528588 0)
(-0.0958171 0.496648 0)
(-0.0631936 0.378169 0)
(-0.0647795 0.4789 0)
(-0.0168805 0.934453 0)
(-0.00849919 0.704668 0)
(0.0393143 0.632631 0)
(0.0495349 0.587548 0)
(0.0436191 0.56146 0)
(0.0391868 0.534273 0)
(0.0414195 0.520911 0)
(0.0553899 0.519149 0)
(0.0890262 0.54057 0)
(0.148803 0.610247 0)
(0.221616 0.78432 0)
(0.224797 1.1308 0)
(0.110357 1.38639 0)
(-0.0328788 1.33878 0)
(-0.178584 1.27267 0)
(-0.295217 1.25741 0)
(-0.375105 1.26134 0)
(-0.420439 1.23659 0)
(-0.401225 1.0938 0)
(-0.267781 0.777254 0)
(-0.14469 0.541205 0)
(-0.0758607 0.448201 0)
(-0.0534451 0.435498 0)
(-0.0517769 0.443353 0)
(-0.0563818 0.463233 0)
(-0.0550292 0.502032 0)
(-0.023481 0.534492 0)
(-0.00624929 0.52179 0)
(-0.00550232 0.454369 0)
(-0.0239073 0.507347 0)
(0.00623105 1.04468 0)
(0.0136094 0.76969 0)
(0.0271501 0.693101 0)
(0.015333 0.650275 0)
(-0.00913141 0.613919 0)
(-0.0290581 0.573222 0)
(-0.042858 0.544548 0)
(-0.0502156 0.526067 0)
(-0.0462363 0.523405 0)
(-0.0181446 0.556458 0)
(0.0373374 0.720077 0)
(0.0713388 1.16355 0)
(-0.00529458 1.49252 0)
(-0.133391 1.45117 0)
(-0.251053 1.3718 0)
(-0.315926 1.31216 0)
(-0.341134 1.28752 0)
(-0.331844 1.23143 0)
(-0.216797 0.961012 0)
(-0.0392213 0.631101 0)
(0.0523792 0.474767 0)
(0.0615891 0.443281 0)
(0.0384916 0.452694 0)
(0.0125563 0.463572 0)
(-0.00279222 0.479335 0)
(0.00230774 0.50795 0)
(0.0326276 0.538504 0)
(0.0695277 0.528861 0)
(0.0591772 0.520577 0)
(0.0146319 0.558041 0)
(-0.0391375 1.07452 0)
(-0.0269612 0.817614 0)
(-0.0111221 0.778553 0)
(-0.0507505 0.743659 0)
(-0.0933478 0.67976 0)
(-0.113739 0.612329 0)
(-0.125002 0.572299 0)
(-0.137168 0.545846 0)
(-0.151845 0.534766 0)
(-0.156949 0.549664 0)
(-0.136329 0.682509 0)
(-0.0952596 1.16602 0)
(-0.11322 1.58936 0)
(-0.226855 1.56115 0)
(-0.344214 1.45128 0)
(-0.353523 1.32687 0)
(-0.295906 1.26218 0)
(-0.179055 1.14672 0)
(0.0125079 0.791102 0)
(0.144776 0.543732 0)
(0.181728 0.485207 0)
(0.144416 0.487217 0)
(0.0887305 0.496034 0)
(0.0436327 0.493756 0)
(0.0226519 0.492154 0)
(0.0318656 0.499202 0)
(0.0703728 0.506931 0)
(0.115609 0.511291 0)
(0.136302 0.55266 0)
(0.0752191 0.647067 0)
(0.00242733 1.03271 0)
(-0.00362622 0.663711 0)
(0.00857743 0.713252 0)
(-0.0471751 0.752714 0)
(-0.135038 0.743262 0)
(-0.187502 0.665818 0)
(-0.20077 0.595491 0)
(-0.199009 0.564316 0)
(-0.220616 0.564223 0)
(-0.258645 0.590784 0)
(-0.27851 0.70951 0)
(-0.270864 1.17227 0)
(-0.232444 1.67987 0)
(-0.285688 1.71825 0)
(-0.370531 1.52748 0)
(-0.306095 1.27635 0)
(-0.178177 1.16325 0)
(0.0351629 1.00255 0)
(0.201796 0.669211 0)
(0.291572 0.546807 0)
(0.268146 0.542956 0)
(0.199144 0.560194 0)
(0.11523 0.571732 0)
(0.0450134 0.541432 0)
(0.0136504 0.504668 0)
(0.0220386 0.475094 0)
(0.06468 0.456521 0)
(0.135863 0.445176 0)
(0.207757 0.579342 0)
(0.129703 0.759827 0)
(0.0594046 0.953718 0)
(0.102002 0.660822 0)
(0.15571 0.714358 0)
(0.142128 0.795135 0)
(0.0300791 0.747125 0)
(-0.112991 0.657227 0)
(-0.198293 0.634027 0)
(-0.219362 0.615457 0)
(-0.240964 0.621335 0)
(-0.291472 0.67744 0)
(-0.362071 0.810524 0)
(-0.389556 1.21779 0)
(-0.318316 1.69487 0)
(-0.26455 1.81777 0)
(-0.278013 1.55316 0)
(-0.182656 1.18203 0)
(-0.0369285 1.04525 0)
(0.197472 0.858026 0)
(0.342163 0.625694 0)
(0.376467 0.589419 0)
(0.327964 0.617184 0)
(0.25021 0.644978 0)
(0.124557 0.690145 0)
(0.00108209 0.618698 0)
(-0.042455 0.526346 0)
(-0.0364858 0.452091 0)
(0.00105576 0.392102 0)
(0.112743 0.371771 0)
(0.0977296 0.491276 0)
(0.0508335 0.873079 0)
(0.0484642 0.788149 0)
(0.116913 0.505819 0)
(0.224887 0.571075 0)
(0.332416 0.777465 0)
(0.322284 0.867078 0)
(0.200947 0.820041 0)
(0.0385321 0.649959 0)
(-0.0910745 0.601191 0)
(-0.157876 0.65548 0)
(-0.230369 0.776806 0)
(-0.34065 0.95068 0)
(-0.42179 1.29906 0)
(-0.356074 1.6814 0)
(-0.223226 1.85155 0)
(-0.153671 1.57455 0)
(-0.100233 1.14623 0)
(0.0465604 0.940686 0)
(0.265993 0.733881 0)
(0.395672 0.608845 0)
(0.41489 0.6237 0)
(0.385815 0.663429 0)
(0.336923 0.712001 0)
(0.151942 0.85729 0)
(-0.0884648 0.720673 0)
(-0.158199 0.542162 0)
(-0.140383 0.432883 0)
(-0.106521 0.340933 0)
(-0.0309642 0.383345 0)
(-0.0916884 0.60852 0)
(-0.069735 0.846638 0)
(0.0475816 0.745005 0)
(0.0856802 0.422365 0)
(0.150902 0.44207 0)
(0.255765 0.629465 0)
(0.363611 0.797713 0)
(0.387672 0.820708 0)
(0.360663 0.805094 0)
(0.268027 0.738967 0)
(0.148309 0.695232 0)
(-0.00253184 0.774947 0)
(-0.157285 0.945999 0)
(-0.285288 1.22724 0)
(-0.296279 1.53652 0)
(-0.153636 1.72495 0)
(-0.0347231 1.52791 0)
(-0.030538 1.10919 0)
(0.0392453 0.813625 0)
(0.254111 0.582051 0)
(0.383836 0.565581 0)
(0.42082 0.612051 0)
(0.421889 0.681107 0)
(0.370911 0.766503 0)
(0.113346 1.00523 0)
(-0.213879 0.827192 0)
(-0.300112 0.564142 0)
(-0.270084 0.425205 0)
(-0.233781 0.392123 0)
(-0.273763 0.438426 0)
(-0.233827 0.60467 0)
(-0.112346 0.690967 0)
(0.0627721 0.681099 0)
(0.0751935 0.422129 0)
(0.064174 0.420632 0)
(0.0891813 0.528782 0)
(0.193641 0.70458 0)
(0.288989 0.761357 0)
(0.342054 0.739488 0)
(0.373213 0.727251 0)
(0.363872 0.800361 0)
(0.277786 0.959983 0)
(0.118947 1.06778 0)
(-0.00695991 1.35808 0)
(-0.0707919 1.44223 0)
(0.0171932 1.50776 0)
(0.101185 1.39718 0)
(0.0657989 1.07157 0)
(0.0514461 0.681747 0)
(0.221276 0.416237 0)
(0.350318 0.487605 0)
(0.397349 0.596976 0)
(0.338308 0.648157 0)
(0.161142 0.824179 0)
(-0.0884852 1.25349 0)
(-0.34693 0.981751 0)
(-0.451245 0.438562 0)
(-0.408461 0.397026 0)
(-0.341419 0.394495 0)
(-0.291553 0.502524 0)
(-0.211226 0.556368 0)
(-0.0736699 0.590704 0)
(0.0685297 0.633064 0)
(0.060628 0.481917 0)
(0.00114279 0.493939 0)
(-0.0320428 0.551998 0)
(-0.0189138 0.635491 0)
(0.0611513 0.688777 0)
(0.133575 0.683896 0)
(0.182323 0.666346 0)
(0.23441 0.726516 0)
(0.291115 0.907298 0)
(0.271086 1.04911 0)
(0.234943 1.2397 0)
(0.200934 1.34299 0)
(0.215654 1.35899 0)
(0.277383 1.36031 0)
(0.300967 1.0996 0)
(0.320992 0.607773 0)
(0.323796 0.325124 0)
(0.385994 0.435278 0)
(0.340731 0.526185 0)
(0.132171 0.789935 0)
(-0.101899 1.00385 0)
(-0.185056 1.21112 0)
(-0.222483 1.02071 0)
(-0.29825 0.474965 0)
(-0.285044 0.26982 0)
(-0.209193 0.389716 0)
(-0.167855 0.473083 0)
(-0.115419 0.519927 0)
(-0.0429439 0.558478 0)
(0.0469486 0.617783 0)
(0.020242 0.562474 0)
(-0.0588783 0.591564 0)
(-0.129645 0.637657 0)
(-0.142276 0.687528 0)
(-0.142246 0.688767 0)
(-0.0999132 0.651359 0)
(-0.0585219 0.620914 0)
(-0.00398217 0.650455 0)
(0.117148 0.818264 0)
(0.216936 1.01058 0)
(0.241813 1.21732 0)
(0.242144 1.24549 0)
(0.269095 1.20119 0)
(0.37611 1.11242 0)
(0.571293 0.950048 0)
(0.684568 0.603242 0)
(0.655837 0.371573 0)
(0.503583 0.40243 0)
(0.310283 0.75998 0)
(-0.00417898 0.924095 0)
(-0.0876111 1.01678 0)
(-0.0464623 1.15055 0)
(0.0558637 0.97889 0)
(0.0407211 0.462823 0)
(0.0141894 0.272039 0)
(-0.0158182 0.385941 0)
(-0.0480062 0.478903 0)
(-0.0608564 0.514179 0)
(-0.0286625 0.52251 0)
(0.0122193 0.615802 0)
(-0.0219985 0.648767 0)
(-0.103473 0.701447 0)
(-0.194091 0.743165 0)
(-0.245483 0.762015 0)
(-0.244008 0.763416 0)
(-0.250965 0.690202 0)
(-0.239835 0.618221 0)
(-0.209119 0.594296 0)
(-0.112475 0.680817 0)
(0.0481433 0.945685 0)
(0.146662 1.17702 0)
(0.172348 1.20676 0)
(0.217738 1.12239 0)
(0.356837 0.946019 0)
(0.605454 0.756785 0)
(0.766289 0.531287 0)
(0.753207 0.480731 0)
(0.562078 0.651852 0)
(0.230076 0.902193 0)
(0.0486518 0.981455 0)
(0.0980569 0.972358 0)
(0.233971 1.06379 0)
(0.382335 1.00772 0)
(0.329126 0.574688 0)
(0.231387 0.381143 0)
(0.129767 0.456355 0)
(0.0199218 0.549228 0)
(-0.0556561 0.563955 0)
(-0.0376143 0.522326 0)
(-0.00609027 0.648787 0)
(-0.0449154 0.733718 0)
(-0.124914 0.814319 0)
(-0.222533 0.850675 0)
(-0.304141 0.85274 0)
(-0.344005 0.82637 0)
(-0.349474 0.751078 0)
(-0.350566 0.665108 0)
(-0.351142 0.590788 0)
(-0.311414 0.601574 0)
(-0.200659 0.802452 0)
(-0.0493819 1.14695 0)
(0.0328521 1.18162 0)
(0.110206 1.04259 0)
(0.293081 0.829078 0)
(0.487443 0.604236 0)
(0.592244 0.469851 0)
(0.562979 0.509624 0)
(0.443428 0.833971 0)
(0.218734 1.05493 0)
(0.183233 0.987713 0)
(0.337386 0.886269 0)
(0.543332 1.01086 0)
(0.664871 1.03111 0)
(0.592235 0.746681 0)
(0.391939 0.558801 0)
(0.194184 0.555266 0)
(0.030191 0.606178 0)
(-0.084089 0.552883 0)
(-0.0625849 0.453306 0)
(-0.00099773 0.696917 0)
(-0.0354904 0.82091 0)
(-0.134809 0.919604 0)
(-0.249068 0.94555 0)
(-0.33711 0.941636 0)
(-0.398205 0.895511 0)
(-0.432861 0.804044 0)
(-0.443835 0.704349 0)
(-0.446884 0.634674 0)
(-0.444716 0.612578 0)
(-0.406485 0.738951 0)
(-0.28353 1.03695 0)
(-0.121861 1.16945 0)
(0.0327588 0.96719 0)
(0.185235 0.685888 0)
(0.309248 0.52506 0)
(0.345199 0.440613 0)
(0.305546 0.542559 0)
(0.268168 0.919624 0)
(0.253189 1.09852 0)
(0.389514 0.975537 0)
(0.524886 0.72851 0)
(0.719941 0.93689 0)
(0.773885 1.02706 0)
(0.658411 0.839272 0)
(0.457029 0.703554 0)
(0.214812 0.676381 0)
(4.54602e-05 0.742301 0)
(-0.132857 0.587984 0)
(-0.0730448 0.30339 0)
(0.0145356 0.701676 0)
(-0.0207936 0.9658 0)
(-0.15763 1.09719 0)
(-0.247097 1.06765 0)
(-0.35059 1.01775 0)
(-0.443545 0.952858 0)
(-0.494911 0.855773 0)
(-0.514598 0.744199 0)
(-0.520792 0.670494 0)
(-0.5187 0.665925 0)
(-0.494145 0.75029 0)
(-0.394071 0.953195 0)
(-0.200164 1.0391 0)
(-0.0184308 0.857256 0)
(0.0833346 0.641422 0)
(0.123568 0.506017 0)
(0.10571 0.441014 0)
(0.0650577 0.558806 0)
(0.110755 0.86187 0)
(0.295496 1.02852 0)
(0.553376 0.854049 0)
(0.677367 0.682331 0)
(0.723287 0.868691 0)
(0.712424 1.03128 0)
(0.576853 0.954351 0)
(0.397237 0.870649 0)
(0.207564 0.816925 0)
(0.0439998 0.802035 0)
(-0.0536324 0.54935 0)
(-0.0287124 0.19668 0)
(-0.00743633 0.697301 0)
(0.0666856 0.89162 0)
(-0.0466301 0.983484 0)
(-0.155015 1.00016 0)
(-0.294717 1.07488 0)
(-0.421296 1.05927 0)
(-0.52721 0.91404 0)
(-0.575719 0.772287 0)
(-0.561345 0.692765 0)
(-0.543239 0.690209 0)
(-0.491688 0.758059 0)
(-0.38359 0.900669 0)
(-0.22689 0.973322 0)
(-0.0938629 0.820042 0)
(-0.0435522 0.641565 0)
(-0.048261 0.520727 0)
(-0.084637 0.474837 0)
(-0.103163 0.547816 0)
(-0.00192016 0.714942 0)
(0.246651 0.810705 0)
(0.530765 0.693765 0)
(0.618231 0.617907 0)
(0.616132 0.857936 0)
(0.506309 0.99732 0)
(0.395762 0.948641 0)
(0.297927 0.891327 0)
(0.188462 0.876042 0)
(0.0876419 0.856008 0)
(0.0133147 0.550999 0)
(-0.00573576 0.129048 0)
(0.0663042 0.491685 0)
(0.133899 0.966012 0)
(0.0862079 1.07028 0)
(-0.00910271 1.18255 0)
(-0.148369 1.12047 0)
(-0.299689 1.01826 0)
(-0.515692 0.967562 0)
(-0.624238 0.78734 0)
(-0.597872 0.680982 0)
(-0.537436 0.666899 0)
(-0.460906 0.722123 0)
(-0.371988 0.855844 0)
(-0.278642 0.922519 0)
(-0.198846 0.793147 0)
(-0.166791 0.646835 0)
(-0.174682 0.545983 0)
(-0.197587 0.504734 0)
(-0.187055 0.524134 0)
(-0.0851992 0.584394 0)
(0.121735 0.627866 0)
(0.329373 0.539954 0)
(0.372399 0.538844 0)
(0.404158 0.859601 0)
(0.347345 0.964825 0)
(0.311993 0.964056 0)
(0.258028 0.971524 0)
(0.163252 0.972521 0)
(0.09728 0.928715 0)
(0.0635317 0.641232 0)
(0.0220992 0.153742 0)
(0.0365157 0.405535 0)
(0.148653 0.803918 0)
(0.195454 0.960762 0)
(0.160243 1.0634 0)
(0.0930205 1.14541 0)
(-0.0725978 1.20126 0)
(-0.35667 1.12409 0)
(-0.583248 0.774742 0)
(-0.640208 0.615013 0)
(-0.54165 0.601004 0)
(-0.448698 0.661575 0)
(-0.393479 0.816012 0)
(-0.34633 0.86964 0)
(-0.280336 0.748498 0)
(-0.241133 0.634499 0)
(-0.231065 0.559617 0)
(-0.23374 0.521395 0)
(-0.220778 0.509373 0)
(-0.166663 0.503741 0)
(-0.0650821 0.484742 0)
(0.048332 0.425124 0)
(0.0780493 0.480861 0)
(0.149462 0.75696 0)
(0.249872 0.920715 0)
(0.287382 1.00244 0)
(0.253969 1.02647 0)
(0.178219 1.05687 0)
(0.118247 0.968828 0)
(0.104548 0.658638 0)
(0.0440571 0.214644 0)
(0.0320572 0.267677 0)
(0.166725 0.660035 0)
(0.272654 0.944583 0)
(0.239555 1.08172 0)
(0.182587 1.15349 0)
(0.102039 1.21358 0)
(-0.0437933 1.23558 0)
(-0.322763 0.96593 0)
(-0.599768 0.61426 0)
(-0.525441 0.509452 0)
(-0.457723 0.592367 0)
(-0.419596 0.776198 0)
(-0.378203 0.788727 0)
(-0.301025 0.681235 0)
(-0.25629 0.602141 0)
(-0.235393 0.553176 0)
(-0.229184 0.522734 0)
(-0.226421 0.503823 0)
(-0.220718 0.481532 0)
(-0.210576 0.437412 0)
(-0.204784 0.38707 0)
(-0.196276 0.433837 0)
(-0.0967191 0.605407 0)
(0.108014 0.8453 0)
(0.238151 0.969525 0)
(0.275517 1.08131 0)
(0.247466 1.12474 0)
(0.186007 1.00723 0)
(0.139899 0.705678 0)
(0.0580423 0.309159 0)
(0.0118759 0.213962 0)
(0.0888519 0.497552 0)
(0.270067 0.943295 0)
(0.294309 1.10988 0)
(0.244979 1.22018 0)
(0.186595 1.2866 0)
(0.151523 1.28245 0)
(-0.00698605 1.20081 0)
(-0.258231 0.722197 0)
(-0.471646 0.493046 0)
(-0.448518 0.556774 0)
(-0.410171 0.721707 0)
(-0.355568 0.696234 0)
(-0.273678 0.61089 0)
(-0.230857 0.563449 0)
(-0.21148 0.536112 0)
(-0.209535 0.517411 0)
(-0.220976 0.507246 0)
(-0.244032 0.494201 0)
(-0.280129 0.465689 0)
(-0.31889 0.435407 0)
(-0.325374 0.44104 0)
(-0.276749 0.498916 0)
(-0.116337 0.663831 0)
(0.0871718 0.899988 0)
(0.230712 1.04084 0)
(0.284541 1.16058 0)
(0.260822 1.14084 0)
(0.18513 0.782658 0)
(0.0766892 0.432034 0)
(-0.0169845 0.216448 0)
(0.00853474 0.385702 0)
(0.158111 0.782116 0)
(0.301595 1.1523 0)
(0.298213 1.243 0)
(0.256332 1.31968 0)
(0.224785 1.29521 0)
(0.168259 1.272 0)
(-0.0558431 1.01786 0)
(-0.248178 0.570869 0)
(-0.427425 0.543477 0)
(-0.352044 0.649856 0)
(-0.283159 0.602438 0)
(-0.221194 0.552388 0)
(-0.188965 0.530652 0)
(-0.176314 0.522419 0)
(-0.17957 0.514397 0)
(-0.20008 0.517174 0)
(-0.242155 0.525671 0)
(-0.301948 0.518389 0)
(-0.358985 0.496037 0)
(-0.385275 0.490703 0)
(-0.365178 0.508701 0)
(-0.298175 0.570584 0)
(-0.138688 0.737387 0)
(0.0571996 0.965433 0)
(0.218764 1.18906 0)
(0.273908 1.19477 0)
(0.237159 0.884589 0)
(0.0966423 0.595793 0)
(-0.0264259 0.247823 0)
(-0.0502419 0.338106 0)
(0.0353278 0.638643 0)
(0.206727 1.04547 0)
(0.307233 1.30085 0)
(0.311921 1.41697 0)
(0.252085 1.40847 0)
(0.160262 1.35833 0)
(0.00626255 1.15316 0)
(-0.18792 0.772329 0)
(-0.303524 0.553658 0)
(-0.252756 0.560626 0)
(-0.196063 0.532958 0)
(-0.17082 0.5176 0)
(-0.159654 0.507708 0)
(-0.153571 0.508329 0)
(-0.145399 0.500952 0)
(-0.142806 0.525556 0)
(-0.204111 0.567975 0)
(-0.301363 0.573429 0)
(-0.37375 0.537135 0)
(-0.409967 0.528421 0)
(-0.4188 0.536895 0)
(-0.387094 0.579659 0)
(-0.307684 0.659186 0)
(-0.158334 0.829795 0)
(0.0328895 1.06178 0)
(0.184377 1.18116 0)
(0.231105 0.96712 0)
(0.114803 0.797218 0)
(-0.0298023 0.303672 0)
(-0.0792129 0.344023 0)
(-0.0528736 0.546556 0)
(0.0774987 0.915121 0)
(0.232136 1.22478 0)
(0.286968 1.43644 0)
(0.217008 1.49199 0)
(0.0717239 1.49222 0)
(-0.0484583 1.28101 0)
(-0.11389 0.836024 0)
(-0.138313 0.528498 0)
(-0.117567 0.502273 0)
(-0.118061 0.510115 0)
(-0.139424 0.515491 0)
(-0.147741 0.502914 0)
(-0.13754 0.507721 0)
(-0.113323 0.51918 0)
(-0.108208 0.546762 0)
(-0.1635 0.659466 0)
(-0.273374 0.65674 0)
(-0.361558 0.563317 0)
(-0.402587 0.545257 0)
(-0.421485 0.556079 0)
(-0.41884 0.588476 0)
(-0.37972 0.656384 0)
(-0.293607 0.770781 0)
(-0.151887 0.97233 0)
(0.02004 1.10918 0)
(0.16196 0.970402 0)
(0.0977577 1.00239 0)
(-0.0284701 0.364531 0)
(-0.0910538 0.386258 0)
(-0.108131 0.514317 0)
(-0.0255138 0.802816 0)
(0.12938 1.13691 0)
(0.194989 1.4732 0)
(0.0921951 1.62786 0)
(-0.0625632 1.62498 0)
(-0.0939719 1.31421 0)
(-0.023603 0.815556 0)
(0.0185625 0.517995 0)
(-0.000889033 0.506649 0)
(-0.0580344 0.53683 0)
(-0.125823 0.547902 0)
(-0.119836 0.525736 0)
(-0.165533 0.537562 0)
(-0.125383 0.535948 0)
(-0.0728876 0.586685 0)
(-0.135387 0.733217 0)
(-0.20297 0.731492 0)
(-0.305603 0.600984 0)
(-0.358704 0.551603 0)
(-0.384498 0.55906 0)
(-0.393937 0.591349 0)
(-0.382718 0.648351 0)
(-0.341443 0.755755 0)
(-0.258902 0.911145 0)
(-0.0910851 1.01283 0)
(0.0844828 0.939444 0)
(0.0516531 1.1736 0)
(-0.0299438 0.426799 0)
(-0.102281 0.450473 0)
(-0.148358 0.528654 0)
(-0.115729 0.72269 0)
(0.00343816 1.05145 0)
(0.0511551 1.52701 0)
(-0.0862522 1.77172 0)
(-0.178618 1.70307 0)
(-0.0662112 1.23326 0)
(0.0936618 0.729698 0)
(0.148837 0.534356 0)
(0.0868823 0.557227 0)
(-0.0169061 0.609692 0)
(-0.0821656 0.604066 0)
(-0.131147 0.617726 0)
(-0.161273 0.607305 0)
(-0.163503 0.583366 0)
(-0.128875 0.605632 0)
(-0.12602 0.812387 0)
(-0.117145 0.784169 0)
(-0.2109 0.667999 0)
(-0.280504 0.563978 0)
(-0.321262 0.560004 0)
(-0.341413 0.588829 0)
(-0.34265 0.635611 0)
(-0.321984 0.73283 0)
(-0.263158 0.847766 0)
(-0.113083 0.893343 0)
(0.0229245 0.90719 0)
(0.0252662 1.28371 0)
(-0.035301 0.496662 0)
(-0.118774 0.530631 0)
(-0.186048 0.577617 0)
(-0.196494 0.695945 0)
(-0.145412 1.00545 0)
(-0.150955 1.62408 0)
(-0.260941 1.88869 0)
(-0.205877 1.65829 0)
(0.0495657 1.05935 0)
(0.207155 0.668751 0)
(0.197376 0.600932 0)
(0.113636 0.645684 0)
(0.0298947 0.708205 0)
(-0.034762 0.746001 0)
(-0.144783 0.73989 0)
(-0.144279 0.69557 0)
(-0.202993 0.656437 0)
(-0.232055 0.654403 0)
(-0.15834 0.844097 0)
(-0.0902493 0.845203 0)
(-0.0801293 0.750823 0)
(-0.182259 0.613965 0)
(-0.243814 0.574444 0)
(-0.277206 0.589408 0)
(-0.286852 0.62207 0)
(-0.272223 0.694381 0)
(-0.212822 0.76448 0)
(-0.106083 0.786256 0)
(-0.0245187 0.870827 0)
(5.67908e-05 1.33749 0)
(-0.0413176 0.581196 0)
(-0.137259 0.625518 0)
(-0.225152 0.651901 0)
(-0.272369 0.724333 0)
(-0.300928 1.05222 0)
(-0.368047 1.7174 0)
(-0.352196 1.92084 0)
(-0.0928181 1.46766 0)
(0.177018 0.911777 0)
(0.224041 0.729769 0)
(0.149432 0.723025 0)
(0.0396635 0.760671 0)
(-0.0371576 0.82485 0)
(-0.0815693 0.886207 0)
(-0.105447 0.839745 0)
(-0.14205 0.774039 0)
(-0.212376 0.736914 0)
(-0.275968 0.729731 0)
(-0.238884 0.808742 0)
(-0.120738 0.834023 0)
(-0.0546681 0.82649 0)
(-0.0871188 0.707784 0)
(-0.165417 0.610437 0)
(-0.208341 0.5988 0)
(-0.227595 0.614078 0)
(-0.219263 0.655965 0)
(-0.171189 0.692671 0)
(-0.103347 0.707694 0)
(-0.0642565 0.838495 0)
(-0.0274626 1.30391 0)
(-0.0441103 0.67732 0)
(-0.152222 0.739767 0)
(-0.269094 0.751595 0)
(-0.352962 0.818897 0)
(-0.452719 1.20552 0)
(-0.520848 1.7655 0)
(-0.282597 1.79314 0)
(0.104947 1.2397 0)
(0.25428 0.928017 0)
(0.24116 0.861783 0)
(0.134927 0.868962 0)
(0.0317801 0.898954 0)
(-0.0324867 0.937693 0)
(-0.0543489 0.960608 0)
(-0.0760759 0.905628 0)
(-0.128322 0.850292 0)
(-0.192446 0.812242 0)
(-0.247529 0.803516 0)
(-0.254735 0.840098 0)
(-0.197821 0.848157 0)
(-0.103198 0.819487 0)
(-0.0689864 0.799998 0)
(-0.101213 0.673697 0)
(-0.143263 0.623851 0)
(-0.170664 0.616496 0)
(-0.172475 0.629889 0)
(-0.144493 0.642598 0)
(-0.102383 0.658333 0)
(-0.0895292 0.815915 0)
(-0.030735 1.23184 0)
(-0.0430875 0.759108 0)
(-0.147235 0.884267 0)
(-0.304664 0.896283 0)
(-0.439711 0.981675 0)
(-0.568299 1.37533 0)
(-0.513162 1.70742 0)
(-0.0761625 1.51965 0)
(0.223035 1.15345 0)
(0.308624 1.01713 0)
(0.251878 0.984947 0)
(0.156031 0.993625 0)
(0.0644767 1.01013 0)
(-0.00886045 1.02242 0)
(-0.0549971 1.02008 0)
(-0.0925546 0.968406 0)
(-0.138644 0.914368 0)
(-0.184362 0.869359 0)
(-0.220749 0.846085 0)
(-0.234126 0.846514 0)
(-0.216842 0.848611 0)
(-0.174544 0.836578 0)
(-0.110191 0.814938 0)
(-0.0854404 0.732221 0)
(-0.107461 0.662417 0)
(-0.131416 0.631154 0)
(-0.13963 0.618687 0)
(-0.128589 0.613231 0)
(-0.110315 0.628245 0)
(-0.105657 0.797143 0)
(-0.0396805 1.13802 0)
(-0.0318268 0.808662 0)
(-0.115394 0.979357 0)
(-0.300383 1.03542 0)
(-0.478406 1.13626 0)
(-0.581563 1.436 0)
(-0.31535 1.48723 0)
(0.0819383 1.30189 0)
(0.291197 1.15271 0)
(0.316079 1.09115 0)
(0.261479 1.08306 0)
(0.18175 1.09428 0)
(0.0941522 1.10314 0)
(0.00758099 1.09997 0)
(-0.0663868 1.07615 0)
(-0.123315 1.02051 0)
(-0.166202 0.958907 0)
(-0.196481 0.90498 0)
(-0.215839 0.867311 0)
(-0.221878 0.845906 0)
(-0.214308 0.833473 0)
(-0.194074 0.821933 0)
(-0.155537 0.810252 0)
(-0.119609 0.762818 0)
(-0.114375 0.697288 0)
(-0.12373 0.649386 0)
(-0.12888 0.617347 0)
(-0.127653 0.600024 0)
(-0.127064 0.618869 0)
(-0.127181 0.784054 0)
(-0.0527826 1.04884 0)
(-0.0197121 0.820739 0)
(-0.0997104 1.08628 0)
(-0.23665 1.17817 0)
(-0.391542 1.26371 0)
(-0.369318 1.33767 0)
(-0.0807684 1.22665 0)
(0.196337 1.18912 0)
(0.310877 1.14819 0)
(0.31804 1.14233 0)
(0.273977 1.15813 0)
(0.203343 1.18069 0)
(0.114209 1.19226 0)
(0.0116232 1.18853 0)
(-0.089033 1.14997 0)
(-0.16411 1.0738 0)
(-0.206579 0.99133 0)
(-0.225677 0.923094 0)
(-0.230757 0.872342 0)
(-0.225876 0.838181 0)
(-0.213955 0.815405 0)
(-0.197821 0.79917 0)
(-0.176891 0.785431 0)
(-0.154487 0.759712 0)
(-0.142285 0.711955 0)
(-0.139165 0.659508 0)
(-0.136326 0.617932 0)
(-0.135563 0.596936 0)
(-0.138996 0.623374 0)
(-0.133851 0.772027 0)
(-0.0639297 0.970146 0)
(-0.0144788 0.850209 0)
(-0.0495882 1.12532 0)
(-0.108948 1.24546 0)
(-0.15726 1.29696 0)
(-0.0739346 1.17464 0)
(0.15477 1.07733 0)
(0.28867 1.10478 0)
(0.343402 1.13697 0)
(0.34111 1.17842 0)
(0.298327 1.21929 0)
(0.226322 1.25444 0)
(0.135738 1.27445 0)
(0.0183568 1.28844 0)
(-0.118248 1.24664 0)
(-0.221235 1.13348 0)
(-0.265838 1.0184 0)
(-0.272564 0.927471 0)
(-0.262294 0.86346 0)
(-0.245117 0.820219 0)
(-0.224637 0.792479 0)
(-0.204419 0.774236 0)
(-0.186713 0.760837 0)
(-0.174369 0.74573 0)
(-0.168991 0.712081 0)
(-0.163867 0.658771 0)
(-0.153406 0.613709 0)
(-0.144283 0.594084 0)
(-0.137459 0.626594 0)
(-0.113383 0.75914 0)
(-0.0560256 0.904736 0)
(-0.00456961 0.881755 0)
(-0.0162931 1.13138 0)
(-0.0151768 1.30409 0)
(0.0322855 1.26247 0)
(0.188322 1.05101 0)
(0.331851 1.00351 0)
(0.381629 1.06219 0)
(0.401555 1.13573 0)
(0.382897 1.20968 0)
(0.324964 1.26756 0)
(0.248082 1.30461 0)
(0.166866 1.32955 0)
(0.044136 1.382 0)
(-0.147568 1.3635 0)
(-0.291378 1.19428 0)
(-0.345172 1.03932 0)
(-0.342097 0.915966 0)
(-0.307822 0.840582 0)
(-0.275909 0.792309 0)
(-0.24608 0.762286 0)
(-0.218112 0.744303 0)
(-0.194708 0.734365 0)
(-0.182284 0.730643 0)
(-0.184467 0.710631 0)
(-0.186033 0.652332 0)
(-0.172149 0.602041 0)
(-0.15062 0.581916 0)
(-0.123992 0.61136 0)
(-0.0802176 0.728571 0)
(-0.0292768 0.864912 0)
(-0.00911439 0.9222 0)
(-0.0252401 1.13628 0)
(0.032233 1.31358 0)
(0.171177 1.17082 0)
(0.349686 0.995871 0)
(0.424809 0.981507 0)
(0.459271 1.04507 0)
(0.467715 1.13881 0)
(0.417318 1.24314 0)
(0.330505 1.29495 0)
(0.264967 1.31687 0)
(0.195927 1.37738 0)
(0.0165245 1.56814 0)
(-0.229738 1.58217 0)
(-0.358456 1.29597 0)
(-0.429445 1.05978 0)
(-0.429002 0.878962 0)
(-0.363798 0.79973 0)
(-0.312939 0.753737 0)
(-0.274866 0.724989 0)
(-0.240424 0.707657 0)
(-0.207548 0.699803 0)
(-0.183877 0.708002 0)
(-0.187269 0.711269 0)
(-0.200724 0.645581 0)
(-0.188641 0.581515 0)
(-0.15617 0.556511 0)
(-0.112785 0.576095 0)
(-0.0579919 0.680627 0)
(-0.00539823 0.845222 0)
(-0.000418908 0.960506 0)
(-0.0258736 1.16608 0)
(0.057547 1.24229 0)
(0.261734 1.0633 0)
(0.402506 0.954064 0)
(0.4729 0.950458 0)
(0.527194 1.01255 0)
(0.528538 1.13629 0)
(0.433899 1.28796 0)
(0.328469 1.3139 0)
(0.29226 1.31744 0)
(0.166024 1.54048 0)
(-0.327824 1.75308 0)
(-0.60417 1.60812 0)
(-0.654046 1.2204 0)
(-0.538306 0.997775 0)
(-0.510258 0.789268 0)
(-0.421289 0.737049 0)
(-0.350341 0.705258 0)
(-0.306784 0.682939 0)
(-0.270829 0.666244 0)
(-0.233284 0.656431 0)
(-0.194121 0.66792 0)
(-0.182726 0.702492 0)
(-0.206836 0.643501 0)
(-0.205037 0.552724 0)
(-0.162743 0.519264 0)
(-0.112528 0.528561 0)
(-0.0557102 0.623069 0)
(0.00242943 0.833683 0)
(0.0125323 0.984324 0)
(0.0113225 1.18976 0)
(0.116746 1.11115 0)
(0.291492 0.962007 0)
(0.408662 0.888102 0)
(0.503693 0.88198 0)
(0.58456 0.936079 0)
(0.602659 1.09161 0)
(0.57831 1.34064 0)
(0.450042 1.34984 0)
(0.278789 1.41281 0)
(-0.171618 1.89759 0)
(-0.700322 2.14036 0)
(-0.862338 1.63472 0)
(-0.786616 1.02647 0)
(-0.571613 0.802558 0)
(-0.513747 0.674314 0)
(-0.445505 0.657898 0)
(-0.37942 0.651528 0)
(-0.33692 0.640006 0)
(-0.304961 0.625005 0)
(-0.272159 0.612219 0)
(-0.231108 0.618438 0)
(-0.213289 0.689923 0)
(-0.211299 0.653954 0)
(-0.208551 0.513451 0)
(-0.170501 0.475387 0)
(-0.117029 0.477589 0)
(-0.0644965 0.567047 0)
(-0.00239464 0.818772 0)
(-0.000975697 0.968406 0)
(0.0382321 1.14596 0)
(0.164704 0.985268 0)
(0.296867 0.861192 0)
(0.403042 0.800817 0)
(0.507396 0.774882 0)
(0.593959 0.809352 0)
(0.711041 0.948232 0)
(0.750646 1.33465 0)
(0.499398 1.50701 0)
(-0.00410645 1.7396 0)
(-0.631126 2.33128 0)
(-0.947411 2.2349 0)
(-0.867762 1.41318 0)
(-0.715707 0.782138 0)
(-0.540633 0.589891 0)
(-0.468241 0.586549 0)
(-0.431649 0.584149 0)
(-0.393292 0.60152 0)
(-0.362205 0.599971 0)
(-0.336722 0.587038 0)
(-0.310386 0.572667 0)
(-0.275073 0.573728 0)
(-0.237156 0.647004 0)
(-0.204373 0.632131 0)
(-0.203156 0.481432 0)
(-0.170943 0.42825 0)
(-0.118405 0.428314 0)
(-0.0712013 0.517103 0)
(-0.00830244 0.797576 0)
(-0.0195073 0.965118 0)
(0.0749304 1.05255 0)
(0.187801 0.885249 0)
(0.283231 0.777752 0)