/*--------------------------------*- C++ -*----------------------------------*\
| =========                 |                                                 |
| \\      /  F ield         | OpenFOAM: The Open Source CFD Toolbox           |
|  \\    /   O peration     | Version:  v1606+                                |
|   \\  /    A nd           | Web:      www.OpenFOAM.com                      |
|    \\/     M anipulation  |                                                 |
\*---------------------------------------------------------------------------*/
FoamFile
{
    version     2.0;
    format      ascii;
    class       volVectorField;
    location    "1.9";
    object      U.particlesMean;
}
// * * * * * * * * * * * * * * * * * * * * * * * * * * * * * * * * * * * * * //

dimensions      [0 1 -1 0 0 0 0];

internalField   nonuniform List<vector> 
6000
(
(-0.00780914 -0.344927 0)
(-0.00205904 -0.382434 0)
(0.00687817 -0.382809 0)
(0.0126345 -0.389348 0)
(0.0143363 -0.398687 0)
(0.0136258 -0.410156 0)
(0.0127676 -0.424365 0)
(0.0104138 -0.436885 0)
(0.0073197 -0.445048 0)
(0.00431929 -0.453472 0)
(0.00127014 -0.455904 0)
(-0.00137591 -0.458039 0)
(-0.00337451 -0.461459 0)
(-0.00558193 -0.466326 0)
(-0.00813016 -0.469094 0)
(-0.0107731 -0.468637 0)
(-0.0133687 -0.465942 0)
(-0.0151482 -0.462347 0)
(-0.0169527 -0.461578 0)
(-0.0194526 -0.450533 0)
(-0.0230989 -0.437511 0)
(-0.0269811 -0.419783 0)
(-0.0284043 -0.403969 0)
(-0.0279265 -0.392485 0)
(-0.0267812 -0.380134 0)
(-0.0231389 -0.368013 0)
(-0.0175421 -0.360308 0)
(-0.00945215 -0.363733 0)
(0.00102032 -0.371343 0)
(0.00710589 -0.340471 0)
(0.0209987 0.0307765 0)
(0.0130588 0.0568632 0)
(0.020569 0.0583965 0)
(0.0304179 0.0630075 0)
(0.0359986 0.0684783 0)
(0.036293 0.0699331 0)
(0.0306003 0.0677281 0)
(0.0224076 0.0667305 0)
(0.0161729 0.0684389 0)
(0.0100497 0.0701301 0)
(0.00201879 0.068341 0)
(-0.00393579 0.0671861 0)
(-0.00663722 0.0631842 0)
(-0.00974146 0.05917 0)
(-0.0122257 0.056061 0)
(-0.0148764 0.0569191 0)
(-0.0197221 0.0604208 0)
(-0.0252497 0.063941 0)
(-0.0318768 0.0678785 0)
(-0.0386441 0.0690065 0)
(-0.0447398 0.0665748 0)
(-0.048913 0.0668932 0)
(-0.0535879 0.0663444 0)
(-0.0554689 0.0622675 0)
(-0.0515904 0.0551299 0)
(-0.0422314 0.0491726 0)
(-0.0288746 0.0443163 0)
(-0.016702 0.0464595 0)
(-0.00840095 0.0517844 0)
(-0.0191274 0.0313121 0)
(0.0033624 -0.0500193 0)
(0.00527926 -0.0522346 0)
(0.0143847 -0.0606229 0)
(0.024025 -0.0580799 0)
(0.0330458 -0.0463606 0)
(0.0384235 -0.0334255 0)
(0.037114 -0.026395 0)
(0.0312505 -0.0240364 0)
(0.026276 -0.0276627 0)
(0.0202497 -0.027758 0)
(0.0115905 -0.0284365 0)
(0.00325092 -0.0332725 0)
(-0.00399579 -0.0365833 0)
(-0.0112265 -0.0364778 0)
(-0.016391 -0.0360699 0)
(-0.0213015 -0.0333909 0)
(-0.0273429 -0.0312835 0)
(-0.0338163 -0.0312465 0)
(-0.0410484 -0.0291677 0)
(-0.0487279 -0.0273261 0)
(-0.0577708 -0.025847 0)
(-0.0632043 -0.0271842 0)
(-0.0643232 -0.0298757 0)
(-0.0634433 -0.0383207 0)
(-0.0568184 -0.0520813 0)
(-0.0413793 -0.061649 0)
(-0.0266363 -0.0647081 0)
(-0.0153116 -0.063914 0)
(-0.00414921 -0.050471 0)
(-0.00598123 -0.0441145 0)
(0.00634243 -0.0496331 0)
(0.00870821 -0.0517827 0)
(0.0128594 -0.0533727 0)
(0.0181748 -0.0481122 0)
(0.030463 -0.0367165 0)
(0.040978 -0.0259615 0)
(0.0498272 -0.0170201 0)
(0.0496172 -0.0102662 0)
(0.0440294 -0.00532534 0)
(0.0336228 -0.00165585 0)
(0.0219771 -0.000244801 0)
(0.00873262 -0.000979448 0)
(-0.00421281 -0.00440107 0)
(-0.0129443 -0.0117454 0)
(-0.0177189 -0.0167839 0)
(-0.0208342 -0.0146618 0)
(-0.0255288 -0.00777661 0)
(-0.0341129 -0.0029586 0)
(-0.0469375 0.000178814 0)
(-0.0613662 -0.000852089 0)
(-0.0739317 -0.00585811 0)
(-0.0801279 -0.0146875 0)
(-0.0803661 -0.0240748 0)
(-0.0758186 -0.037306 0)
(-0.0623093 -0.0547038 0)
(-0.0413738 -0.0645005 0)
(-0.023321 -0.065696 0)
(-0.0141569 -0.0610978 0)
(-0.00822446 -0.0535666 0)
(-0.00860961 -0.0481844 0)
(0.00115959 -0.064802 0)
(0.0057045 -0.0695107 0)
(0.0105145 -0.0735336 0)
(0.0170716 -0.0747294 0)
(0.0291093 -0.0665018 0)
(0.0450725 -0.0553889 0)
(0.0566928 -0.0397005 0)
(0.0616339 -0.0260492 0)
(0.0585363 -0.013889 0)
(0.0468323 -0.00540653 0)
(0.0333635 -0.000929233 0)
(0.015686 -0.000888398 0)
(0.00046177 -0.00764025 0)
(-0.00732787 -0.0207671 0)
(-0.0104634 -0.0283558 0)
(-0.0131587 -0.0256915 0)
(-0.0173311 -0.0158076 0)
(-0.025105 -0.00591451 0)
(-0.0384762 -0.000342017 0)
(-0.0558636 -0.0044617 0)
(-0.0694167 -0.0141363 0)
(-0.0760325 -0.0263782 0)
(-0.0792875 -0.0421561 0)
(-0.0758176 -0.0630038 0)
(-0.0621187 -0.0868419 0)
(-0.0438215 -0.0980008 0)
(-0.0237626 -0.0956453 0)
(-0.0119801 -0.0834113 0)
(-0.00596735 -0.0710693 0)
(-0.00368639 -0.0658518 0)
(0.000503534 -0.0652055 0)
(0.00363171 -0.0708689 0)
(0.00964703 -0.0785789 0)
(0.0207681 -0.0840878 0)
(0.0309011 -0.0783356 0)
(0.0463609 -0.0681222 0)
(0.0559545 -0.0515624 0)
(0.0635378 -0.0326688 0)
(0.0624882 -0.0141689 0)
(0.0534341 -0.00267788 0)
(0.0397735 0.00250199 0)
(0.0216836 0.00145038 0)
(0.00468654 -0.00974519 0)
(-0.00158978 -0.0245536 0)
(-0.00359434 -0.0323872 0)
(-0.00407867 -0.0293337 0)
(-0.00592158 -0.0188203 0)
(-0.0112284 -0.00901058 0)
(-0.0193849 -0.00217143 0)
(-0.0364764 -0.000730871 0)
(-0.0520392 -0.00682571 0)
(-0.0637307 -0.0207023 0)
(-0.0719236 -0.0426247 0)
(-0.072335 -0.0720308 0)
(-0.06139 -0.0996502 0)
(-0.0445819 -0.112557 0)
(-0.0276768 -0.108347 0)
(-0.0123218 -0.0915493 0)
(-0.0050967 -0.0751224 0)
(-0.000658461 -0.0691397 0)
(0.000139591 -0.0607989 0)
(0.00399412 -0.0741033 0)
(0.0135 -0.0873869 0)
(0.024171 -0.0938028 0)
(0.0358466 -0.0917859 0)
(0.047911 -0.0787466 0)
(0.0527641 -0.0587796 0)
(0.0592151 -0.0379128 0)
(0.0588611 -0.0138403 0)
(0.0500222 -0.000390632 0)
(0.039074 0.0040804 0)
(0.0263388 0.00451816 0)
(0.0130442 -0.00575614 0)
(0.00681873 -0.0227271 0)
(0.00447392 -0.0334212 0)
(0.00483211 -0.0312864 0)
(0.00493158 -0.0210014 0)
(0.00255161 -0.00941153 0)
(-0.00529297 0.00112672 0)
(-0.0183634 0.00521803 0)
(-0.033389 0.00259717 0)
(-0.0457221 -0.0115729 0)
(-0.0570999 -0.0391377 0)
(-0.0616384 -0.0760407 0)
(-0.0571287 -0.108908 0)
(-0.044296 -0.123936 0)
(-0.0298587 -0.12119 0)
(-0.0148714 -0.102065 0)
(-0.00495691 -0.0809836 0)
(0.0015596 -0.0668799 0)
(0.00141524 -0.0581073 0)
(0.00874658 -0.0747412 0)
(0.0158218 -0.0886801 0)
(0.0277606 -0.100458 0)
(0.0392117 -0.102289 0)
(0.0457737 -0.0877994 0)
(0.0429751 -0.0603672 0)
(0.0432912 -0.0370217 0)
(0.045035 -0.0102237 0)
(0.0399826 0.00671385 0)
(0.0312244 0.0110459 0)
(0.0247164 0.00883926 0)
(0.018596 -0.0015745 0)
(0.0146628 -0.0202409 0)
(0.0125113 -0.0324779 0)
(0.0124479 -0.0317706 0)
(0.0138895 -0.0226386 0)
(0.0127874 -0.00838979 0)
(0.0066726 0.00371959 0)
(-0.00366263 0.0139344 0)
(-0.017015 0.0148724 0)
(-0.028635 -0.00151134 0)
(-0.0394284 -0.031954 0)
(-0.0468844 -0.0704438 0)
(-0.0476537 -0.107449 0)
(-0.0416756 -0.125165 0)
(-0.0343857 -0.125104 0)
(-0.021229 -0.108095 0)
(-0.0101045 -0.0829296 0)
(0.00114606 -0.0642093 0)
(0.00303124 -0.0602018 0)
(0.0126274 -0.0716618 0)
(0.0177502 -0.088854 0)
(0.0273642 -0.105215 0)
(0.0338695 -0.105257 0)
(0.0371149 -0.0897118 0)
(0.0293703 -0.0564591 0)
(0.0250712 -0.0303764 0)
(0.0299296 -0.00682851 0)
(0.0310135 0.0123027 0)
(0.0227801 0.0224051 0)
(0.0194917 0.0168174 0)
(0.0206018 0.00239882 0)
(0.019881 -0.0160644 0)
(0.019054 -0.0290166 0)
(0.0181255 -0.0296863 0)
(0.0202829 -0.0210035 0)
(0.0189131 -0.00273274 0)
(0.0137193 0.0116687 0)
(0.00696519 0.0272468 0)
(-0.00303068 0.030569 0)
(-0.0144795 0.00980716 0)
(-0.0186853 -0.0229086 0)
(-0.0228262 -0.0630892 0)
(-0.0290823 -0.101294 0)
(-0.0344344 -0.122223 0)
(-0.033946 -0.124413 0)
(-0.026559 -0.110421 0)
(-0.0181602 -0.0837583 0)
(0.000132033 -0.0656717 0)
(0.00540624 -0.064285 0)
(0.0167222 -0.0714311 0)
(0.0205427 -0.0889504 0)
(0.0259851 -0.103181 0)
(0.0268671 -0.100513 0)
(0.0218856 -0.0790767 0)
(0.0132225 -0.0453902 0)
(0.00869011 -0.0223843 0)
(0.0129718 -0.000750333 0)
(0.021019 0.018161 0)
(0.0183209 0.0263485 0)
(0.0210998 0.0221546 0)
(0.023079 0.0077895 0)
(0.021603 -0.011434 0)
(0.0217977 -0.0270203 0)
(0.0208283 -0.0282208 0)
(0.0233127 -0.0178211 0)
(0.0215636 0.00279397 0)
(0.0215903 0.0217923 0)
(0.0154527 0.0395951 0)
(0.00697386 0.0397431 0)
(0.00339306 0.0196053 0)
(0.000570725 -0.016668 0)
(0.000759165 -0.0571334 0)
(-0.00488653 -0.0923028 0)
(-0.0192637 -0.11547 0)
(-0.0276478 -0.120069 0)
(-0.0256802 -0.10869 0)
(-0.0230413 -0.084628 0)
(-0.00349217 -0.0657195 0)
(0.00496748 -0.0720193 0)
(0.015304 -0.0788456 0)
(0.0209005 -0.0931947 0)
(0.0262186 -0.10278 0)
(0.0167426 -0.0964701 0)
(0.00730576 -0.0705748 0)
(-0.0012244 -0.0387495 0)
(-0.00257624 -0.0166436 0)
(-0.000474969 0.00152135 0)
(0.009335 0.0239807 0)
(0.0112798 0.0311818 0)
(0.0158013 0.0247913 0)
(0.0236843 0.00635093 0)
(0.0278169 -0.0107391 0)
(0.0254569 -0.0233164 0)
(0.0222101 -0.0258093 0)
(0.0241794 -0.0147723 0)
(0.0242901 0.00573287 0)
(0.0283168 0.029884 0)
(0.0219741 0.0426573 0)
(0.019651 0.0437853 0)
(0.0216213 0.0238009 0)
(0.018062 -0.00719819 0)
(0.0207387 -0.0469938 0)
(0.015451 -0.0830685 0)
(-0.00177676 -0.108218 0)
(-0.0178982 -0.117375 0)
(-0.0198241 -0.107935 0)
(-0.0211978 -0.0893464 0)
(-0.00634468 -0.0674287 0)
(0.00375243 -0.0783609 0)
(0.011896 -0.0870506 0)
(0.0173225 -0.0965207 0)
(0.0210694 -0.103407 0)
(0.00933224 -0.0951407 0)
(-0.00756834 -0.0693488 0)
(-0.0147106 -0.0360589 0)
(-0.0154327 -0.013971 0)
(-0.0110073 0.000792471 0)
(-0.00218493 0.020526 0)
(0.00680202 0.0273846 0)
(0.0109189 0.0190025 0)
(0.0219218 -0.00037596 0)
(0.0285143 -0.0141886 0)
(0.0280831 -0.0227847 0)
(0.024932 -0.0216577 0)
(0.0246836 -0.0096648 0)
(0.026025 0.00804031 0)
(0.0329921 0.0310582 0)
(0.0279601 0.0448019 0)
(0.0261432 0.0459148 0)
(0.0308102 0.0262237 0)
(0.0289661 -0.0045854 0)
(0.030683 -0.0428583 0)
(0.0273411 -0.0769784 0)
(0.0117237 -0.101928 0)
(-0.00693294 -0.112936 0)
(-0.0113445 -0.10718 0)
(-0.0141606 -0.0938859 0)
(-0.00392422 -0.0704049 0)
(0.00207302 -0.080603 0)
(0.00933301 -0.0907054 0)
(0.0128048 -0.0994958 0)
(0.01273 -0.103526 0)
(-0.0029315 -0.0834234 0)
(-0.020929 -0.0559472 0)
(-0.0242412 -0.0288434 0)
(-0.0226431 -0.00973986 0)
(-0.0196599 0.00185881 0)
(-0.010463 0.0185423 0)
(0.000652112 0.0246712 0)
(0.00453628 0.012713 0)
(0.0182409 -0.0042582 0)
(0.0281532 -0.016464 0)
(0.0285507 -0.0221943 0)
(0.0243527 -0.0202819 0)
(0.0256821 -0.010853 0)
(0.0326235 0.00478074 0)
(0.0347004 0.0318634 0)
(0.0290231 0.0484728 0)
(0.02989 0.0489861 0)
(0.0387015 0.02863 0)
(0.0382915 -0.000604543 0)
(0.0401101 -0.0428173 0)
(0.0372721 -0.0752227 0)
(0.0189522 -0.0946084 0)
(0.00192561 -0.106481 0)
(-0.00573079 -0.105136 0)
(-0.00712736 -0.0944067 0)
(0.000296094 -0.0747568 0)
(0.000514377 -0.0806754 0)
(0.00559579 -0.0907404 0)
(0.00731617 -0.0967116 0)
(0.00338999 -0.0967364 0)
(-0.0129793 -0.0700825 0)
(-0.0258856 -0.0479504 0)
(-0.0245457 -0.0273406 0)
(-0.0232867 -0.00931598 0)
(-0.0231176 0.00039781 0)
(-0.0150915 0.0137454 0)
(-0.00168576 0.0197265 0)
(0.00604133 0.00738883 0)
(0.016648 -0.0114414 0)
(0.0309821 -0.0203814 0)
(0.0301517 -0.0237591 0)
(0.0232683 -0.0197122 0)
(0.0214951 -0.0109537 0)
(0.0279765 0.000805525 0)
(0.026306 0.0310056 0)
(0.0277983 0.0509862 0)
(0.0311776 0.0494303 0)
(0.0396202 0.0290528 0)
(0.0432274 -0.00134534 0)
(0.0462855 -0.0419741 0)
(0.0396678 -0.0725925 0)
(0.0233674 -0.0901723 0)
(0.00709819 -0.0990408 0)
(-0.00042494 -0.101395 0)
(-0.00259528 -0.0940295 0)
(0.0031509 -0.076383 0)
(0.000440058 -0.0779861 0)
(0.00400767 -0.0883023 0)
(0.00456334 -0.0914876 0)
(-0.0017003 -0.0906429 0)
(-0.0250808 -0.0591928 0)
(-0.0277124 -0.042837 0)
(-0.0244808 -0.0272557 0)
(-0.0231474 -0.0110921 0)
(-0.0224789 0.00133831 0)
(-0.0165786 0.0131942 0)
(-0.00540218 0.0150199 0)
(0.00874699 0.000451875 0)
(0.0181086 -0.0179479 0)
(0.0338628 -0.0235325 0)
(0.0337952 -0.0256959 0)
(0.0271429 -0.0192421 0)
(0.0203492 -0.010022 0)
(0.0205322 -0.00225998 0)
(0.0158788 0.0344429 0)
(0.0239713 0.0547965 0)
(0.0277503 0.0521913 0)
(0.0349128 0.0314572 0)
(0.044273 -0.00231113 0)
(0.0451431 -0.0394838 0)
(0.0391495 -0.0692526 0)
(0.0255291 -0.086495 0)
(0.0138605 -0.0938644 0)
(0.00636202 -0.0943205 0)
(0.00262527 -0.0918586 0)
(0.00383295 -0.0753596 0)
(-0.000755186 -0.0742831 0)
(0.00188149 -0.0847091 0)
(0.00244045 -0.0884973 0)
(-0.000984237 -0.0827451 0)
(-0.0215515 -0.0544113 0)
(-0.0243286 -0.0394349 0)
(-0.0280913 -0.0252254 0)
(-0.0249315 -0.0111185 0)
(-0.0208163 0.00298528 0)
(-0.0138389 0.0112438 0)
(-0.00356611 0.00932096 0)
(0.0106369 -0.00653618 0)
(0.0166947 -0.0264866 0)
(0.0310759 -0.0320353 0)
(0.0392324 -0.0284557 0)
(0.0342411 -0.0192797 0)
(0.02933 -0.00973478 0)
(0.0181179 -0.00304884 0)
(0.00865727 0.0303719 0)
(0.0195888 0.0526819 0)
(0.0234396 0.0528843 0)
(0.0313652 0.0324183 0)
(0.0398624 -0.00128223 0)
(0.0346728 -0.0343486 0)
(0.0338245 -0.0664312 0)
(0.0244955 -0.0817656 0)
(0.0179556 -0.0836908 0)
(0.00912061 -0.088098 0)
(0.00509385 -0.0849376 0)
(0.00462174 -0.0703567 0)
(-0.00210853 -0.070058 0)
(0.000796857 -0.0810821 0)
(0.000907672 -0.086372 0)
(-0.00189793 -0.0803856 0)
(-0.0134098 -0.0585273 0)
(-0.0186118 -0.0405028 0)
(-0.0237389 -0.0278215 0)
(-0.0271035 -0.0111686 0)
(-0.0189389 0.00645068 0)
(-0.00901889 0.0120786 0)
(0.00162162 0.0090152 0)
(0.0126454 -0.00423814 0)
(0.0278235 -0.0313421 0)
(0.0298623 -0.0326914 0)
(0.0388327 -0.0247495 0)
(0.0358909 -0.0151717 0)
(0.0348111 -0.00494369 0)
(0.0181532 -0.00193235 0)
(0.00545161 0.025242 0)
(0.013769 0.0533204 0)
(0.0214452 0.0543887 0)
(0.0321862 0.030523 0)
(0.0357011 -0.00180921 0)
(0.0307992 -0.0345703 0)
(0.0287841 -0.067246 0)
(0.0176703 -0.079058 0)
(0.0119316 -0.0748945 0)
(0.00738843 -0.076353 0)
(0.00257508 -0.0780314 0)
(0.00281707 -0.0620637 0)
(-0.00198865 -0.0699046 0)
(0.00301584 -0.0823179 0)
(0.00371431 -0.0833559 0)
(0.000564413 -0.075057 0)
(-0.0112117 -0.0615556 0)
(-0.0193411 -0.0474114 0)
(-0.0241624 -0.0318907 0)
(-0.0239752 -0.0148945 0)
(-0.0154033 0.00754638 0)
(-0.00439 0.010553 0)
(0.00800857 0.00549873 0)
(0.0179853 -0.00694917 0)
(0.0323387 -0.0286542 0)
(0.0367705 -0.0342507 0)
(0.0369049 -0.0254751 0)
(0.0343847 -0.0104124 0)
(0.0369259 -0.00141845 0)
(0.020942 -0.000336489 0)
(0.00403126 0.0314287 0)
(0.00871765 0.0487985 0)
(0.0193796 0.0499976 0)
(0.0323122 0.0278646 0)
(0.032455 -0.00451031 0)
(0.027706 -0.0404401 0)
(0.0189222 -0.0673201 0)
(0.00748221 -0.0705625 0)
(-0.000929629 -0.0644377 0)
(4.42175e-05 -0.0670158 0)
(-0.00169623 -0.0717882 0)
(-0.00152922 -0.0557935 0)
(-0.00149833 -0.0658246 0)
(0.00528981 -0.0907568 0)
(0.00295969 -0.0877458 0)
(0.00265948 -0.0744133 0)
(-0.00601086 -0.0653128 0)
(-0.0159898 -0.0526661 0)
(-0.0221266 -0.0437496 0)
(-0.0219939 -0.0233083 0)
(-0.0120725 -0.00230964 0)
(-0.00032335 -0.00173609 0)
(0.0127362 -0.0061762 0)
(0.0235221 -0.0173365 0)
(0.0315629 -0.0365149 0)
(0.0389567 -0.0427374 0)
(0.038236 -0.0347775 0)
(0.0333629 -0.0148618 0)
(0.0330581 -0.00527818 0)
(0.0215261 0.00599154 0)
(0.00432147 0.0314224 0)
(0.0128575 0.0455864 0)
(0.0173066 0.0369561 0)
(0.0321124 0.017609 0)
(0.0283664 -0.0232169 0)
(0.0188437 -0.0572202 0)
(0.00469654 -0.0697135 0)
(-0.00432046 -0.063116 0)
(-0.0111822 -0.0628482 0)
(-0.00613072 -0.0691921 0)
(-0.0063002 -0.0692596 0)
(-0.0056053 -0.0520283 0)
(-0.00110776 -0.0590743 0)
(0.00735523 -0.0876699 0)
(0.00173082 -0.0973341 0)
(-0.00283741 -0.0874194 0)
(-0.0103723 -0.0796485 0)
(-0.0174323 -0.0697901 0)
(-0.0254622 -0.0597307 0)
(-0.0224143 -0.0427901 0)
(-0.00732575 -0.025319 0)
(0.00648548 -0.0284559 0)
(0.0194924 -0.0332323 0)
(0.0260466 -0.0411506 0)
(0.0323887 -0.0590797 0)
(0.0336889 -0.0614718 0)
(0.0342046 -0.0477741 0)
(0.0307756 -0.0252451 0)
(0.0262393 -0.00634349 0)
(0.0171954 0.00915575 0)
(0.00766692 0.0294362 0)
(0.0188641 0.0423786 0)
(0.0227496 0.036022 0)
(0.0279944 0.00335552 0)
(0.019996 -0.0493606 0)
(0.00939962 -0.0726233 0)
(-0.00201547 -0.0768248 0)
(-0.00898807 -0.0715321 0)
(-0.012452 -0.0740114 0)
(-0.00991125 -0.0797192 0)
(-0.0114853 -0.0732098 0)
(-0.0115045 -0.0564031 0)
(0.000849654 -0.0630097 0)
(0.00618512 -0.0914547 0)
(-0.00275131 -0.108495 0)
(-0.00938367 -0.105463 0)
(-0.013622 -0.10008 0)
(-0.0159656 -0.0826733 0)
(-0.0198478 -0.0702646 0)
(-0.0181643 -0.0689331 0)
(-0.00337834 -0.0553376 0)
(0.0124415 -0.054323 0)
(0.0222738 -0.0555314 0)
(0.0296477 -0.0646828 0)
(0.0270446 -0.0779887 0)
(0.0225105 -0.077823 0)
(0.0234915 -0.0602363 0)
(0.0214294 -0.0358589 0)
(0.0163602 -0.00526145 0)
(0.0111247 0.0120284 0)
(0.00629644 0.0233027 0)
(0.0148148 0.0359927 0)
(0.0262987 0.0250654 0)
(0.0180897 -0.011426 0)
(0.0104772 -0.0515207 0)
(0.00201189 -0.0708744 0)
(-0.00587595 -0.0773752 0)
(-0.00899921 -0.0855082 0)
(-0.0076597 -0.0935579 0)
(-0.0074049 -0.0969342 0)
(-0.0123366 -0.0889373 0)
(-0.0126968 -0.0739588 0)
(0.00376686 -0.0963205 0)
(0.00183678 -0.116916 0)
(-0.0106476 -0.114288 0)
(-0.0154936 -0.0991004 0)
(-0.0157961 -0.0925498 0)
(-0.0148037 -0.0819179 0)
(-0.0088469 -0.0731643 0)
(-0.00738435 -0.0812517 0)
(-0.00283863 -0.0799271 0)
(0.0114936 -0.0696699 0)
(0.0207785 -0.0656976 0)
(0.0274971 -0.0695319 0)
(0.022026 -0.0816221 0)
(0.0178368 -0.0822232 0)
(0.0190009 -0.0661079 0)
(0.0146823 -0.040327 0)
(0.00789649 -0.00202572 0)
(0.00513817 0.0186021 0)
(0.0047944 0.0252683 0)
(0.01096 0.0295471 0)
(0.0159488 0.0166307 0)
(0.0111389 -0.0105871 0)
(-0.00105186 -0.0473114 0)
(-0.00714381 -0.0694492 0)
(-0.00750962 -0.0796261 0)
(-0.00647914 -0.0887057 0)
(-0.00318466 -0.0977906 0)
(-0.000672417 -0.107255 0)
(-0.00318752 -0.113651 0)
(-0.00789189 -0.106643 0)
(-8.26186e-05 -0.110431 0)
(-0.00536241 -0.119584 0)
(-0.00857979 -0.108945 0)
(-0.00897408 -0.0951829 0)
(-0.00872966 -0.0880512 0)
(-0.00577045 -0.084718 0)
(0.000287469 -0.0774278 0)
(0.00393255 -0.0817552 0)
(0.00342145 -0.082906 0)
(0.00387789 -0.0832547 0)
(0.0180869 -0.074933 0)
(0.0231105 -0.0694613 0)
(0.0211177 -0.0780023 0)
(0.0177757 -0.078485 0)
(0.0149847 -0.0631835 0)
(0.00704856 -0.0304212 0)
(0.00114324 0.00159562 0)
(0.00104586 0.0236765 0)
(0.00485783 0.0265908 0)
(0.00655428 0.0211095 0)
(0.00794575 0.0114789 0)
(0.00481121 -0.0108538 0)
(-0.00329235 -0.0408563 0)
(-0.010018 -0.0649769 0)
(-0.0111733 -0.0827843 0)
(-0.00724632 -0.0894723 0)
(-0.00448466 -0.0984649 0)
(3.68281e-05 -0.108538 0)
(0.00173937 -0.117762 0)
(-0.00309124 -0.120199 0)
(-0.00177105 -0.107355 0)
(-0.00802649 -0.11295 0)
(-0.00782687 -0.10353 0)
(-0.00693102 -0.0911052 0)
(-0.00174478 -0.0865195 0)
(0.00398138 -0.0868936 0)
(0.00851608 -0.0848702 0)
(0.0159164 -0.0828678 0)
(0.0138088 -0.0812704 0)
(0.0104895 -0.0817315 0)
(0.0149109 -0.074469 0)
(0.0179273 -0.0626596 0)
(0.0182415 -0.0727664 0)
(0.0129647 -0.0725407 0)
(0.00679852 -0.0552415 0)
(0.00258948 -0.015549 0)
(-0.00450647 0.0117807 0)
(-0.000580479 0.0260775 0)
(0.00709971 0.0276387 0)
(0.00516154 0.0171513 0)
(0.0013464 0.00593193 0)
(-0.000401681 -0.0144455 0)
(-0.00495872 -0.0406935 0)
(-0.0110415 -0.0639523 0)
(-0.0174215 -0.0827232 0)
(-0.0120191 -0.088222 0)
(-0.00505904 -0.095557 0)
(-0.00152834 -0.10602 0)
(0.00101931 -0.113733 0)
(-2.61141e-05 -0.117433 0)
(-0.000467018 -0.098284 0)
(-0.00538262 -0.104829 0)
(-0.00727749 -0.0975618 0)
(-0.00245934 -0.0889634 0)
(0.00743124 -0.0875751 0)
(0.0154749 -0.0902261 0)
(0.020564 -0.0914301 0)
(0.0210328 -0.0869644 0)
(0.0221898 -0.0804116 0)
(0.0201156 -0.0789875 0)
(0.0105052 -0.0705803 0)
(0.00832505 -0.0656293 0)
(0.0101563 -0.06853 0)
(0.00689529 -0.0634896 0)
(0.000686766 -0.041368 0)
(-0.00412147 -0.00443361 0)
(-0.00908119 0.0218029 0)
(-0.00186327 0.0300129 0)
(0.007554 0.0264287 0)
(0.00767205 0.015311 0)
(0.00105519 -0.00165312 0)
(-0.000750786 -0.0206239 0)
(-0.00735798 -0.0416205 0)
(-0.0122921 -0.0604853 0)
(-0.015617 -0.079643 0)
(-0.0153963 -0.0873205 0)
(-0.00744765 -0.0925294 0)
(-0.00236838 -0.10167 0)
(-0.00253585 -0.109157 0)
(0.000908008 -0.11061 0)
(-0.00121042 -0.0942547 0)
(-0.00532597 -0.0947197 0)
(-0.00408241 -0.0911792 0)
(0.00700781 -0.0908429 0)
(0.0183452 -0.0923217 0)
(0.0246947 -0.0925986 0)
(0.0294564 -0.0944058 0)
(0.0293233 -0.090476 0)
(0.0308184 -0.0818812 0)
(0.0240576 -0.0725754 0)
(0.0129749 -0.0617253 0)
(0.00641649 -0.0617521 0)
(0.00358316 -0.0653203 0)
(0.000955194 -0.0566905 0)
(-0.00495191 -0.0252584 0)
(-0.00816898 0.00480005 0)
(-0.00942978 0.0297826 0)
(-0.00225411 0.0335616 0)
(0.00757734 0.0253262 0)
(0.011279 0.0113442 0)
(0.00859115 -0.0115463 0)
(-0.00211052 -0.0282969 0)
(-0.00691958 -0.0408415 0)
(-0.0108746 -0.0558097 0)
(-0.0133316 -0.0725652 0)
(-0.0180166 -0.0858433 0)
(-0.0117509 -0.0879459 0)
(-0.00295257 -0.0948676 0)
(-0.00181544 -0.0991457 0)
(0.000842114 -0.101538 0)
(-0.00644413 -0.0881165 0)
(0.000141992 -0.08783 0)
(0.00452831 -0.0922869 0)
(0.0195362 -0.0962835 0)
(0.0282183 -0.0956342 0)
(0.0340049 -0.0951041 0)
(0.0356764 -0.0973225 0)
(0.035715 -0.0885025 0)
(0.0336955 -0.0779062 0)
(0.0256264 -0.0705474 0)
(0.0151908 -0.0598727 0)
(0.00813454 -0.0590103 0)
(0.000683638 -0.0603463 0)
(-0.00645011 -0.0489556 0)
(-0.0071152 -0.0182196 0)
(-0.00691853 0.00710462 0)
(-0.00572389 0.0349006 0)
(0.000504989 0.0356872 0)
(0.0112448 0.0240877 0)
(0.0134126 0.00833026 0)
(0.0112444 -0.0162526 0)
(0.00234701 -0.0266048 0)
(-0.00295585 -0.0371645 0)
(-0.010928 -0.0499986 0)
(-0.00947843 -0.0608143 0)
(-0.0133748 -0.0785065 0)
(-0.0159913 -0.0881403 0)
(-0.00698873 -0.0915151 0)
(-0.00297956 -0.0899814 0)
(0.00335214 -0.0909006 0)
(-0.00909184 -0.0779447 0)
(-0.000600919 -0.0825322 0)
(0.00892886 -0.0949469 0)
(0.0225496 -0.0972456 0)
(0.0306144 -0.0949858 0)
(0.0350585 -0.0931831 0)
(0.0365229 -0.0940823 0)
(0.0381166 -0.0836659 0)
(0.0316118 -0.0662897 0)
(0.0248895 -0.0660124 0)
(0.015722 -0.0582623 0)
(0.00741613 -0.056546 0)
(0.000973601 -0.0554444 0)
(-0.00745459 -0.0452786 0)
(-0.00595637 -0.0166875 0)
(-0.00525931 0.00533338 0)
(0.00127833 0.0377699 0)
(0.00673999 0.0374781 0)
(0.0120439 0.022052 0)
(0.0122131 0.00490601 0)
(0.00995327 -0.0141088 0)
(0.00833941 -0.0233579 0)
(0.00200166 -0.0329953 0)
(-0.0106191 -0.0444739 0)
(-0.00806534 -0.0544655 0)
(-0.00898337 -0.0681006 0)
(-0.0133003 -0.083273 0)
(-0.00995869 -0.0911265 0)
(-0.00503424 -0.0866359 0)
(0.00332227 -0.0790507 0)
(-0.00380818 -0.0665945 0)
(0.00195062 -0.0851914 0)
(0.0093554 -0.0928817 0)
(0.0196238 -0.0965352 0)
(0.0262183 -0.0914996 0)
(0.0289678 -0.0874824 0)
(0.0310068 -0.0880297 0)
(0.0304778 -0.0827579 0)
(0.0281516 -0.0633431 0)
(0.0277862 -0.0625667 0)
(0.0145753 -0.0564988 0)
(0.00587457 -0.056278 0)
(0.000239288 -0.0544029 0)
(-0.00461398 -0.0461995 0)
(-0.00474055 -0.0193615 0)
(0.0015185 0.00315912 0)
(0.00806254 0.0395545 0)
(0.0112429 0.0360828 0)
(0.0110684 0.0153024 0)
(0.0114465 0.00230303 0)
(0.00714897 -0.0102183 0)
(0.00772707 -0.019926 0)
(0.00741453 -0.0304291 0)
(-0.00616544 -0.0406881 0)
(-0.00677883 -0.0518109 0)
(-0.00665823 -0.0638834 0)
(-0.0107438 -0.0811427 0)
(-0.00905596 -0.0929148 0)
(-0.0078207 -0.0915486 0)
(-0.00272729 -0.0733848 0)
(0.000651486 -0.0677962 0)
(0.0041719 -0.0867422 0)
(0.00727152 -0.0926121 0)
(0.0155761 -0.0934117 0)
(0.021695 -0.0871315 0)
(0.0241301 -0.0826054 0)
(0.0246558 -0.0816564 0)
(0.023911 -0.0790639 0)
(0.0221024 -0.0612269 0)
(0.0256211 -0.0569894 0)
(0.0138915 -0.0539351 0)
(0.00345892 -0.0543565 0)
(-0.00126645 -0.0540368 0)
(-0.00295013 -0.048979 0)
(-0.00285692 -0.0247288 0)
(0.00438913 0.00300904 0)
(0.0100376 0.0352095 0)
(0.0149504 0.0332805 0)
(0.0123765 0.0120597 0)
(0.0092824 0.00142018 0)
(0.00585629 -0.00685683 0)
(0.00584307 -0.0164763 0)
(0.00941623 -0.0277178 0)
(-0.00310496 -0.0406674 0)
(-0.0056037 -0.0511351 0)
(-0.00552131 -0.0631159 0)
(-0.00814865 -0.0794546 0)
(-0.00859503 -0.0963278 0)
(-0.00904503 -0.0987433 0)
(-0.00700025 -0.0822824 0)
(0.00230775 -0.0713075 0)
(0.00722242 -0.0904766 0)
(0.00653988 -0.096769 0)
(0.0104281 -0.0960706 0)
(0.0177718 -0.0867982 0)
(0.0215747 -0.0795146 0)
(0.0217208 -0.0749988 0)
(0.0183935 -0.0758776 0)
(0.0156729 -0.0644764 0)
(0.018837 -0.054952 0)
(0.01129 -0.0565406 0)
(-0.00224114 -0.0537279 0)
(-0.00638395 -0.0541828 0)
(-0.00659103 -0.0506735 0)
(-0.00953406 -0.0331051 0)
(-0.00457084 -0.000839661 0)
(0.00495914 0.0275598 0)
(0.0130898 0.028679 0)
(0.0160547 0.0158805 0)
(0.00914874 0.00109804 0)
(0.00432882 -0.0115476 0)
(0.00394513 -0.0154766 0)
(0.00648516 -0.0244124 0)
(-0.000247958 -0.0372319 0)
(-0.0049391 -0.0507044 0)
(-0.00590655 -0.0638464 0)
(-0.00826576 -0.0820917 0)
(-0.0101052 -0.1009 0)
(-0.00926176 -0.107219 0)
(-0.00830364 -0.0912898 0)
(0.00249595 -0.0786378 0)
(0.00897153 -0.0943221 0)
(0.00777424 -0.0966588 0)
(0.0116259 -0.0946085 0)
(0.013268 -0.0884775 0)
(0.0180565 -0.0769617 0)
(0.0176668 -0.0727941 0)
(0.0143981 -0.0726116 0)
(0.011055 -0.0674521 0)
(0.00999663 -0.051908 0)
(0.00834072 -0.0573376 0)
(-0.00784214 -0.0615234 0)
(-0.0126746 -0.0548361 0)
(-0.0129851 -0.0523118 0)
(-0.0180785 -0.0421967 0)
(-0.0172541 -0.0135584 0)
(-0.000218184 0.0161675 0)
(0.0136097 0.0219997 0)
(0.0210113 0.0146689 0)
(0.0112613 -0.0100244 0)
(0.00389417 -0.010374 0)
(0.00449906 -0.00969942 0)
(0.00578625 -0.0181267 0)
(0.00661651 -0.0317496 0)
(-0.00144743 -0.0463846 0)
(-0.00529748 -0.0630737 0)
(-0.00844152 -0.0832391 0)
(-0.010236 -0.104308 0)
(-0.00930046 -0.113725 0)
(-0.00814749 -0.102119 0)
(0.00177208 -0.082791 0)
(0.00857596 -0.0936974 0)
(0.00791026 -0.0945096 0)
(0.0115494 -0.0915862 0)
(0.0113906 -0.0865951 0)
(0.0145905 -0.0754553 0)
(0.0142359 -0.0675366 0)
(0.00884044 -0.0690172 0)
(0.00361589 -0.0660997 0)
(0.00106665 -0.0464559 0)
(-0.000604007 -0.0544915 0)
(-0.0128102 -0.063115 0)
(-0.021525 -0.0632497 0)
(-0.0245882 -0.0537649 0)
(-0.0275069 -0.0456016 0)
(-0.0232576 -0.0256474 0)
(-0.00912426 -0.00270403 0)
(0.0111097 0.00241019 0)
(0.017993 -0.00902353 0)
(0.0138379 -0.00818074 0)
(0.00706583 -0.00405884 0)
(0.00620346 -0.00162707 0)
(0.00729612 -0.00784638 0)
(0.00974918 -0.0232887 0)
(0.00845371 -0.0388684 0)
(-0.0011022 -0.057593 0)
(-0.007664 -0.0827376 0)
(-0.0087214 -0.106405 0)
(-0.00870622 -0.119341 0)
(-0.00733728 -0.11086 0)
(0.00457987 -0.0857772 0)
(0.00804968 -0.092562 0)
(0.00794612 -0.0928442 0)
(0.010543 -0.0889883 0)
(0.00870917 -0.0829472 0)
(0.0093542 -0.0709423 0)
(0.00826245 -0.0612293 0)
(0.00384862 -0.063237 0)
(-0.000832627 -0.0623701 0)
(-0.00672502 -0.0401059 0)
(-0.00528983 -0.0492992 0)
(-0.0181184 -0.058046 0)
(-0.0299281 -0.0637331 0)
(-0.0332918 -0.0567802 0)
(-0.0354992 -0.0486025 0)
(-0.0267907 -0.035157 0)
(-0.011185 -0.0249585 0)
(0.00260441 -0.0446436 0)
(0.00800715 -0.0306817 0)
(0.0129034 -0.0102015 0)
(0.0114353 0.00304935 0)
(0.0103421 0.00875074 0)
(0.00919895 0.00144553 0)
(0.0130177 -0.0126919 0)
(0.0140523 -0.0313249 0)
(0.00920689 -0.0490249 0)
(-0.00271461 -0.0789652 0)
(-0.00829613 -0.108573 0)
(-0.00820493 -0.122802 0)
(-0.0055369 -0.117647 0)
(0.00773136 -0.0911943 0)
(0.00795018 -0.0965377 0)
(0.00857491 -0.0924468 0)
(0.0118079 -0.0861584 0)
(0.00465095 -0.0785072 0)
(0.00167634 -0.0678727 0)
(0.00159826 -0.0619288 0)
(0.00152307 -0.0641018 0)
(-0.00693805 -0.0657492 0)
(-0.0142732 -0.0382371 0)
(-0.0114056 -0.0447952 0)
(-0.0203781 -0.0514142 0)
(-0.0352095 -0.0581044 0)
(-0.0391888 -0.0567798 0)
(-0.0408554 -0.05055 0)
(-0.0291655 -0.0418619 0)
(-0.0154136 -0.0465575 0)
(-0.00552577 -0.0656351 0)
(-0.00204785 -0.0451167 0)
(0.00718984 -0.017674 0)
(0.00991159 0.00545616 0)
(0.0130285 0.0176845 0)
(0.012486 0.0123715 0)
(0.0168388 -0.00310304 0)
(0.0167858 -0.0206456 0)
(0.013652 -0.0438987 0)
(0.0082043 -0.0715983 0)
(-0.00742475 -0.105069 0)
(-0.00840139 -0.121766 0)
(-0.00415062 -0.121996 0)
(0.00769072 -0.0992937 0)
(0.00791752 -0.101163 0)
(0.00959669 -0.0926025 0)
(0.00912692 -0.0790373 0)
(-0.00141108 -0.0703334 0)
(-0.000930025 -0.0659195 0)
(4.04886e-06 -0.0748078 0)
(0.000221854 -0.0924598 0)
(-0.00980366 -0.0948213 0)
(-0.019918 -0.0563395 0)
(-0.0196148 -0.0453062 0)
(-0.0222499 -0.0444499 0)
(-0.0367611 -0.0545579 0)
(-0.043314 -0.0564417 0)
(-0.043459 -0.0504423 0)
(-0.0321828 -0.044771 0)
(-0.0192096 -0.05991 0)
(-0.015511 -0.0818104 0)
(-0.012952 -0.0532632 0)
(-0.00103529 -0.0302628 0)
(0.00490553 0.00165527 0)
(0.0113598 0.0173203 0)
(0.0153274 0.0155329 0)
(0.0220921 0.0070668 0)
(0.0205047 -0.00945051 0)
(0.0143316 -0.0372243 0)
(0.0016871 -0.0752934 0)
(-0.00901205 -0.10326 0)
(-0.00799864 -0.119689 0)
(-0.00298133 -0.121306 0)
(0.00237128 -0.110373 0)
(0.0088123 -0.105028 0)
(0.00758161 -0.0912066 0)
(0.00494316 -0.0722895 0)
(-5.10224e-05 -0.0673355 0)
(0.00231431 -0.079502 0)
(-0.00613953 -0.0955925 0)
(-0.000120491 -0.120515 0)
(-0.00279166 -0.121356 0)
(-0.0178454 -0.0793666 0)
(-0.0206998 -0.0518124 0)
(-0.0229589 -0.0433391 0)
(-0.0363586 -0.0513706 0)
(-0.0468652 -0.0548658 0)
(-0.0451798 -0.0480463 0)
(-0.0365999 -0.0448343 0)
(-0.024494 -0.0650394 0)
(-0.0260464 -0.0904662 0)
(-0.0216841 -0.0552977 0)
(-0.00896678 -0.0347999 0)
(-0.000259809 -0.00274843 0)
(0.0101053 0.0146683 0)
(0.0144396 0.0163363 0)
(0.023792 0.0104288 0)
(0.0219242 -0.0064211 0)
(0.0107879 -0.0382852 0)
(-0.00671838 -0.0784393 0)
(-0.00912616 -0.101118 0)
(-0.00856721 -0.120885 0)
(-0.00316057 -0.122184 0)
(-0.00436174 -0.116647 0)
(0.00474307 -0.108712 0)
(0.000522059 -0.0862687 0)
(-0.00515268 -0.0766971 0)
(-0.00417721 -0.0881908 0)
(-0.000308669 -0.111284 0)
(0.000787046 -0.13808 0)
(0.00514888 -0.159074 0)
(0.00591962 -0.152827 0)
(-0.00466144 -0.0988867 0)
(-0.0163226 -0.0537759 0)
(-0.0234389 -0.0417678 0)
(-0.036513 -0.0499951 0)
(-0.0461979 -0.0495687 0)
(-0.0451396 -0.0441717 0)
(-0.0400583 -0.0433367 0)
(-0.0270725 -0.0701573 0)
(-0.0346264 -0.0956522 0)
(-0.0331638 -0.0588991 0)
(-0.0205662 -0.0394528 0)
(-0.00655593 -0.0112952 0)
(0.00704365 0.0120086 0)
(0.0118789 0.0165488 0)
(0.0215532 0.00832639 0)
(0.0245004 -0.00339068 0)
(0.0168834 -0.0311673 0)
(-0.00245156 -0.0713073 0)
(-0.00622803 -0.0983624 0)
(-0.00728277 -0.120962 0)
(-0.00269898 -0.125546 0)
(-0.00941142 -0.116272 0)
(0.00133094 -0.111987 0)