/*--------------------------------*- C++ -*----------------------------------*\
| =========                 |                                                 |
| \\      /  F ield         | OpenFOAM: The Open Source CFD Toolbox           |
|  \\    /   O peration     | Version:  v1606+                                |
|   \\  /    A nd           | Web:      www.OpenFOAM.com                      |
|    \\/     M anipulation  |                                                 |
\*---------------------------------------------------------------------------*/
FoamFile
{
    version     2.0;
    format      ascii;
    class       volVectorField;
    location    "1.9";
    object      Ur;
}
// * * * * * * * * * * * * * * * * * * * * * * * * * * * * * * * * * * * * * //

dimensions      [0 1 -1 0 0 0 0];

internalField   nonuniform List<vector> 
6000
(
(-0.0210141 -0.641589 0)
(-0.0644247 -0.641893 0)
(-0.0877094 -0.633588 0)
(-0.111073 -0.633034 0)
(-0.119804 -0.646782 0)
(-0.102364 -0.674128 0)
(-0.0593732 -0.690802 0)
(-0.00408769 -0.685356 0)
(0.042348 -0.688153 0)
(0.0731967 -0.679847 0)
(0.0764506 -0.661387 0)
(0.0607881 -0.656416 0)
(0.0427353 -0.652806 0)
(0.0156454 -0.651611 0)
(-0.00438963 -0.659669 0)
(-0.00119897 -0.673352 0)
(0.00454367 -0.67733 0)
(0.001553 -0.687188 0)
(-0.00509674 -0.692245 0)
(-0.00624075 -0.689189 0)
(0.0133914 -0.685392 0)
(0.0500792 -0.682316 0)
(0.0881238 -0.683384 0)
(0.111423 -0.690786 0)
(0.120655 -0.704111 0)
(0.138727 -0.707003 0)
(0.161961 -0.688867 0)
(0.157899 -0.656778 0)
(0.10729 -0.640149 0)
(0.0296733 -0.658161 0)
(0.00374065 -0.979558 0)
(-0.0210254 -0.923473 0)
(-0.0817463 -0.907798 0)
(-0.12626 -0.928552 0)
(-0.138593 -0.978951 0)
(-0.120646 -1.07331 0)
(-0.0877039 -1.14086 0)
(-0.0504932 -1.1278 0)
(-0.00210356 -1.10111 0)
(0.0529633 -1.05382 0)
(0.0886476 -0.990896 0)
(0.0861754 -0.964509 0)
(0.0579352 -0.951331 0)
(0.0256533 -0.943638 0)
(-0.00426744 -0.963072 0)
(-0.0280959 -0.980885 0)
(-0.0422761 -0.996223 0)
(-0.0293907 -1.0275 0)
(0.00320517 -1.04215 0)
(0.0386038 -1.05803 0)
(0.0792439 -1.07222 0)
(0.118172 -1.07682 0)
(0.146419 -1.0703 0)
(0.160456 -1.06303 0)
(0.174357 -1.07721 0)
(0.199032 -1.0895 0)
(0.21778 -1.0463 0)
(0.190421 -0.958088 0)
(0.0941538 -0.902564 0)
(0.0144286 -0.990918 0)
(0.0233765 -0.869688 0)
(0.00789836 -0.749219 0)
(-0.0595455 -0.753656 0)
(-0.0923273 -0.823784 0)
(-0.0957148 -0.89338 0)
(-0.102366 -0.977131 0)
(-0.113611 -1.0012 0)
(-0.124089 -1.00498 0)
(-0.111216 -1.0151 0)
(-0.0589264 -1.00141 0)
(0.0201539 -0.93138 0)
(0.0713616 -0.855414 0)
(0.0665761 -0.84902 0)
(0.0335031 -0.849518 0)
(-0.0125061 -0.847443 0)
(-0.07404 -0.871405 0)
(-0.0945714 -0.925225 0)
(-0.0238902 -0.992754 0)
(0.0873777 -0.98975 0)
(0.182898 -0.996142 0)
(0.255287 -0.997598 0)
(0.29306 -0.973251 0)
(0.300571 -0.933727 0)
(0.287541 -0.902276 0)
(0.268851 -0.902008 0)
(0.253158 -0.915586 0)
(0.230602 -0.875145 0)
(0.182466 -0.763778 0)
(0.0907017 -0.679792 0)
(0.0179081 -0.814301 0)
(-0.0100759 -0.928809 0)
(-0.0185331 -0.803624 0)
(-0.015601 -0.81468 0)
(-0.0138795 -0.871019 0)
(-0.028379 -0.867974 0)
(-0.0688789 -0.865309 0)
(-0.115111 -0.867226 0)
(-0.164533 -0.885496 0)
(-0.212142 -0.928552 0)
(-0.231208 -0.995241 0)
(-0.194945 -1.03114 0)
(-0.10189 -0.970816 0)
(-0.0211922 -0.911952 0)
(0.0131982 -0.907738 0)
(-0.0132647 -0.873962 0)
(-0.0527305 -0.909574 0)
(0.00391658 -1.04745 0)
(0.159389 -1.17061 0)
(0.326213 -1.13252 0)
(0.443054 -1.07634 0)
(0.482333 -0.99893 0)
(0.470891 -0.917868 0)
(0.434981 -0.851295 0)
(0.385994 -0.804764 0)
(0.325243 -0.782642 0)
(0.256191 -0.786658 0)
(0.205459 -0.796639 0)
(0.166557 -0.711623 0)
(0.12439 -0.642458 0)
(0.054691 -0.754471 0)
(-0.0112436 -0.83377 0)
(-0.00452839 -0.777735 0)
(0.0271528 -0.750339 0)
(0.0280768 -0.740071 0)
(-0.00974502 -0.728527 0)
(-0.0665951 -0.722736 0)
(-0.140566 -0.730972 0)
(-0.214523 -0.759868 0)
(-0.283189 -0.816496 0)
(-0.339467 -0.903855 0)
(-0.366656 -0.987747 0)
(-0.32457 -1.03752 0)
(-0.191532 -1.01072 0)
(-0.0472377 -0.985239 0)
(0.0303445 -0.855395 0)
(0.0993427 -0.964849 0)
(0.24853 -1.17956 0)
(0.397008 -1.27461 0)
(0.519138 -1.2012 0)
(0.585794 -1.05774 0)
(0.578013 -0.911092 0)
(0.529265 -0.79518 0)
(0.460346 -0.711828 0)
(0.387205 -0.663399 0)
(0.313607 -0.645255 0)
(0.249852 -0.660392 0)
(0.208275 -0.67429 0)
(0.181564 -0.604181 0)
(0.136288 -0.533332 0)
(0.0496187 -0.582761 0)
(0.0224017 -0.766186 0)
(0.051018 -0.703987 0)
(0.0565767 -0.668085 0)
(0.036854 -0.639104 0)
(-0.00922517 -0.612802 0)
(-0.074659 -0.590745 0)
(-0.151299 -0.594411 0)
(-0.227851 -0.625431 0)
(-0.300876 -0.692421 0)
(-0.372105 -0.797457 0)
(-0.424119 -0.922019 0)
(-0.414197 -1.06615 0)
(-0.283921 -1.15084 0)
(-0.0966401 -1.1429 0)
(0.0850891 -0.9896 0)
(0.268395 -1.0944 0)
(0.40371 -1.24442 0)
(0.476178 -1.27105 0)
(0.557008 -1.21284 0)
(0.577455 -1.01031 0)
(0.532505 -0.806233 0)
(0.446036 -0.652746 0)
(0.357733 -0.564986 0)
(0.288653 -0.529715 0)
(0.242526 -0.531351 0)
(0.211832 -0.56388 0)
(0.19336 -0.594573 0)
(0.190882 -0.5328 0)
(0.124304 -0.388215 0)
(0.031657 -0.461268 0)
(0.0408536 -0.743778 0)
(0.0675688 -0.644469 0)
(0.0444976 -0.599595 0)
(0.0104314 -0.54734 0)
(-0.0299058 -0.510436 0)
(-0.0718842 -0.484058 0)
(-0.114817 -0.484473 0)
(-0.161175 -0.505435 0)
(-0.219558 -0.559553 0)
(-0.293121 -0.664601 0)
(-0.362347 -0.831212 0)
(-0.36464 -1.06989 0)
(-0.235438 -1.26031 0)
(-0.0598766 -1.22939 0)
(0.121279 -1.15089 0)
(0.298607 -1.18192 0)
(0.394057 -1.23883 0)
(0.46668 -1.25562 0)
(0.524348 -1.18352 0)
(0.479744 -0.921554 0)
(0.379943 -0.658351 0)
(0.282368 -0.504552 0)
(0.213666 -0.447433 0)
(0.174015 -0.439691 0)
(0.156012 -0.460606 0)
(0.15033 -0.505974 0)
(0.14394 -0.537251 0)
(0.131853 -0.481002 0)
(0.0726693 -0.346222 0)
(0.0146012 -0.437905 0)
(0.0205279 -0.754549 0)
(0.0232698 -0.628401 0)
(-0.00191054 -0.58105 0)
(-0.0189525 -0.528397 0)
(-0.0336362 -0.489296 0)
(-0.0450517 -0.456195 0)
(-0.0563706 -0.439293 0)
(-0.0740908 -0.435282 0)
(-0.106739 -0.458438 0)
(-0.163408 -0.53756 0)
(-0.236652 -0.728834 0)
(-0.259478 -1.08361 0)
(-0.152367 -1.33957 0)
(0.00654152 -1.31636 0)
(0.152803 -1.25531 0)
(0.280934 -1.23699 0)
(0.364569 -1.24168 0)
(0.451378 -1.23903 0)
(0.453819 -1.10046 0)
(0.319648 -0.766674 0)
(0.191565 -0.50096 0)
(0.124872 -0.396893 0)
(0.100686 -0.385673 0)
(0.096882 -0.402599 0)
(0.100489 -0.432807 0)
(0.102214 -0.47579 0)
(0.0784074 -0.497437 0)
(0.0234521 -0.463325 0)
(0.0175762 -0.404341 0)
(0.0207636 -0.473865 0)
(0.00688907 -0.878956 0)
(0.00382074 -0.678974 0)
(-0.0112874 -0.622358 0)
(-0.0128543 -0.572608 0)
(-0.00711346 -0.524201 0)
(-0.00322259 -0.475558 0)
(-0.000138302 -0.439943 0)
(0.000273411 -0.413646 0)
(-0.00859254 -0.404593 0)
(-0.0394844 -0.439788 0)
(-0.102207 -0.621207 0)
(-0.154302 -1.07893 0)
(-0.082805 -1.40731 0)
(0.0713264 -1.39512 0)
(0.207338 -1.33121 0)
(0.30212 -1.26734 0)
(0.364146 -1.24012 0)
(0.418661 -1.20241 0)
(0.319635 -0.933071 0)
(0.130509 -0.573162 0)
(0.0301355 -0.39386 0)
(0.0119692 -0.359308 0)
(0.0306583 -0.37771 0)
(0.0536234 -0.399586 0)
(0.066402 -0.424587 0)
(0.0588184 -0.456453 0)
(0.0203211 -0.473312 0)
(-0.0257672 -0.460752 0)
(-0.0252222 -0.458449 0)
(-0.00291285 -0.524573 0)
(0.0419727 -1.07101 0)
(0.0511993 -0.764275 0)
(0.0215638 -0.70855 0)
(0.0331588 -0.655964 0)
(0.0499673 -0.579585 0)
(0.0525983 -0.508162 0)
(0.0492633 -0.459876 0)
(0.0529123 -0.423506 0)
(0.06429 -0.399344 0)
(0.0672738 -0.400093 0)
(0.0312204 -0.531587 0)
(-0.0397536 -1.02191 0)
(-0.0235215 -1.44571 0)
(0.13427 -1.46192 0)
(0.280353 -1.38369 0)
(0.336185 -1.26215 0)
(0.338946 -1.2046 0)
(0.305606 -1.09412 0)
(0.126797 -0.719483 0)
(-0.0357432 -0.443356 0)
(-0.0800058 -0.375511 0)
(-0.0516859 -0.385244 0)
(-0.00348017 -0.406044 0)
(0.0337108 -0.415457 0)
(0.0483834 -0.422939 0)
(0.0352309 -0.434452 0)
(-0.00428224 -0.437909 0)
(-0.0498721 -0.43584 0)
(-0.0744645 -0.477267 0)
(-0.0393405 -0.597979 0)
(0.0205491 -1.20511 0)
(0.0100756 -0.833954 0)
(-0.012408 -0.817521 0)
(0.0206106 -0.773085 0)
(0.0730195 -0.680083 0)
(0.0993677 -0.568009 0)
(0.0958695 -0.485037 0)
(0.0895433 -0.443175 0)
(0.105518 -0.423588 0)
(0.141915 -0.426067 0)
(0.14976 -0.513856 0)
(0.0972651 -0.938975 0)
(0.0580315 -1.43959 0)
(0.165004 -1.53447 0)
(0.296303 -1.40985 0)
(0.298489 -1.1915 0)
(0.229896 -1.10246 0)
(0.121227 -0.926448 0)
(-0.0590419 -0.566468 0)
(-0.151736 -0.425128 0)
(-0.140933 -0.420785 0)
(-0.0817228 -0.445838 0)
(-0.0145504 -0.469083 0)
(0.0373382 -0.451745 0)
(0.0566031 -0.425655 0)
(0.0436999 -0.403591 0)
(0.00405428 -0.385486 0)
(-0.0568825 -0.369405 0)
(-0.119988 -0.507456 0)
(-0.0786254 -0.753525 0)
(-0.0251083 -1.12684 0)
(-0.090841 -0.833698 0)
(-0.173937 -0.893902 0)
(-0.171366 -0.980698 0)
(-0.0624601 -0.923453 0)
(0.0454772 -0.70471 0)
(0.094178 -0.559921 0)
(0.101091 -0.497772 0)
(0.107976 -0.477581 0)
(0.149805 -0.501601 0)
(0.21122 -0.59196 0)
(0.219381 -0.93365 0)
(0.153009 -1.37827 0)
(0.152086 -1.54172 0)
(0.212816 -1.36969 0)
(0.186465 -1.07776 0)
(0.102263 -0.984475 0)
(-0.0329887 -0.78121 0)
(-0.172558 -0.523653 0)
(-0.216298 -0.467152 0)
(-0.175333 -0.486722 0)
(-0.111026 -0.519056 0)
(-0.0112585 -0.576962 0)
(0.0796197 -0.520625 0)
(0.104063 -0.441819 0)
(0.0915004 -0.378917 0)
(0.0566219 -0.325917 0)
(-0.0294078 -0.308186 0)
(-0.127244 -0.617761 0)
(-0.0921985 -1.00581 0)
(-0.0101874 -0.907285 0)
(-0.0897039 -0.620207 0)
(-0.24509 -0.689727 0)
(-0.384126 -0.91696 0)
(-0.369021 -1.03234 0)
(-0.239217 -1.00688 0)
(-0.0757271 -0.834081 0)
(0.0166452 -0.64982 0)
(0.0530639 -0.59148 0)
(0.104589 -0.638832 0)
(0.216714 -0.767985 0)
(0.292295 -1.058 0)
(0.232551 -1.37946 0)
(0.146659 -1.56645 0)
(0.131727 -1.37986 0)
(0.118725 -1.05562 0)
(0.0535777 -0.915106 0)
(-0.100281 -0.674759 0)
(-0.221228 -0.519711 0)
(-0.239768 -0.501356 0)
(-0.207448 -0.524399 0)
(-0.162793 -0.569878 0)
(-0.0281161 -0.728254 0)
(0.149583 -0.611938 0)
(0.202677 -0.455939 0)
(0.177887 -0.364022 0)
(0.155803 -0.280832 0)
(0.0895291 -0.353661 0)
(0.0267977 -0.718386 0)
(0.0168343 -0.957936 0)
(-0.00596251 -0.804282 0)
(-0.0477139 -0.465154 0)
(-0.149659 -0.477278 0)
(-0.322237 -0.696664 0)
(-0.442745 -0.90533 0)
(-0.452676 -0.9571 0)
(-0.415795 -0.970551 0)
(-0.311642 -0.935456 0)
(-0.183436 -0.902082 0)
(-0.0204288 -0.943755 0)
(0.154112 -1.02729 0)
(0.285857 -1.22244 0)
(0.298345 -1.43163 0)
(0.186207 -1.59494 0)
(0.108954 -1.45332 0)
(0.119656 -1.13196 0)
(0.0613873 -0.844804 0)
(-0.101518 -0.564359 0)
(-0.220178 -0.487745 0)
(-0.245257 -0.489955 0)
(-0.223226 -0.529098 0)
(-0.171759 -0.613241 0)
(-0.00789011 -0.911935 0)
(0.253588 -0.752805 0)
(0.313901 -0.489887 0)
(0.281852 -0.363431 0)
(0.253425 -0.338917 0)
(0.225234 -0.494104 0)
(0.197583 -0.670072 0)
(0.0858007 -0.750784 0)
(-0.0151082 -0.690015 0)
(-0.0248513 -0.392474 0)
(-0.0447484 -0.361304 0)
(-0.138113 -0.495945 0)
(-0.300217 -0.732343 0)
(-0.391577 -0.838111 0)
(-0.433932 -0.85095 0)
(-0.457128 -0.874145 0)
(-0.436517 -0.97615 0)
(-0.328245 -1.14478 0)
(-0.133027 -1.2297 0)
(0.0761739 -1.46942 0)
(0.151739 -1.51438 0)
(0.100321 -1.55021 0)
(0.0526746 -1.46968 0)
(0.0927697 -1.20868 0)
(0.0390782 -0.771026 0)
(-0.106931 -0.428097 0)
(-0.217434 -0.425791 0)
(-0.236255 -0.484041 0)
(-0.187583 -0.58257 0)
(-0.0768747 -0.814659 0)
(0.131105 -1.27361 0)
(0.436129 -1.08517 0)
(0.463378 -0.575931 0)
(0.393368 -0.374324 0)
(0.312544 -0.442801 0)
(0.270811 -0.544145 0)
(0.199601 -0.58887 0)
(0.0731218 -0.61854 0)
(-0.016165 -0.612016 0)
(-0.012231 -0.398961 0)
(0.0237679 -0.365299 0)
(0.0161391 -0.409981 0)
(-0.0837176 -0.545586 0)
(-0.205409 -0.680063 0)
(-0.269552 -0.729211 0)
(-0.312451 -0.754326 0)
(-0.35075 -0.853552 0)
(-0.378818 -1.06026 0)
(-0.320075 -1.1917 0)
(-0.199565 -1.32595 0)
(-0.126532 -1.43648 0)
(-0.102667 -1.44213 0)
(-0.116931 -1.48014 0)
(-0.108169 -1.26498 0)
(-0.123814 -0.776128 0)
(-0.203905 -0.386368 0)
(-0.283322 -0.409966 0)
(-0.261665 -0.584361 0)
(-0.116496 -0.904273 0)
(0.108671 -1.09083 0)
(0.245766 -1.25083 0)
(0.403182 -1.10379 0)
(0.404814 -0.59829 0)
(0.302632 -0.346404 0)
(0.223877 -0.425955 0)
(0.174752 -0.497315 0)
(0.118891 -0.538673 0)
(0.0447825 -0.568622 0)
(-0.0182656 -0.574981 0)
(-0.00796407 -0.460606 0)
(0.0583006 -0.442153 0)
(0.106308 -0.452234 0)
(0.0718549 -0.492506 0)
(-0.0237766 -0.555908 0)
(-0.0906661 -0.609955 0)
(-0.119186 -0.645695 0)
(-0.1545 -0.726939 0)
(-0.242086 -0.928626 0)
(-0.299104 -1.11971 0)
(-0.267676 -1.26681 0)
(-0.205805 -1.30407 0)
(-0.179462 -1.28974 0)
(-0.234531 -1.22804 0)
(-0.395553 -1.07988 0)
(-0.488371 -0.724585 0)
(-0.501794 -0.491159 0)
(-0.486921 -0.561796 0)
(-0.314602 -0.902531 0)
(-0.00117975 -1.04367 0)
(0.131147 -1.1135 0)
(0.159769 -1.19654 0)
(0.181421 -1.03088 0)
(0.0915886 -0.52338 0)
(0.0588504 -0.309404 0)
(0.070231 -0.408175 0)
(0.0837705 -0.493027 0)
(0.0770025 -0.522798 0)
(0.0328121 -0.525931 0)
(-0.00762795 -0.575937 0)
(0.00778364 -0.538634 0)
(0.0661807 -0.536765 0)
(0.130562 -0.541487 0)
(0.157149 -0.546521 0)
(0.119308 -0.545761 0)
(0.0532501 -0.545148 0)
(0.0267558 -0.564788 0)
(0.0197186 -0.611689 0)
(-0.0427522 -0.744406 0)
(-0.163608 -1.02303 0)
(-0.214488 -1.22365 0)
(-0.15859 -1.2515 0)
(-0.143217 -1.1712 0)
(-0.264518 -1.00746 0)
(-0.494837 -0.816341 0)
(-0.644729 -0.600726 0)
(-0.707069 -0.579593 0)
(-0.610219 -0.766857 0)
(-0.260619 -1.01827 0)
(-0.0427383 -1.08517 0)
(-0.0201379 -1.07579 0)
(-0.0798229 -1.12596 0)
(-0.126867 -1.0369 0)
(-0.160387 -0.599539 0)
(-0.122494 -0.397523 0)
(-0.0444279 -0.464066 0)
(0.0338122 -0.547243 0)
(0.0787612 -0.565316 0)
(0.0417906 -0.527822 0)
(-0.0036871 -0.602318 0)
(0.00755679 -0.612462 0)
(0.059552 -0.632719 0)
(0.130479 -0.633001 0)
(0.185454 -0.624072 0)
(0.197872 -0.605898 0)
(0.175336 -0.564477 0)
(0.153644 -0.533819 0)
(0.146985 -0.540168 0)
(0.129806 -0.608565 0)
(0.0487042 -0.82923 0)
(-0.058553 -1.15912 0)
(-0.0627967 -1.15762 0)
(-0.103213 -1.02109 0)
(-0.273017 -0.816751 0)
(-0.44371 -0.603945 0)
(-0.549175 -0.497083 0)
(-0.577235 -0.568695 0)
(-0.492306 -0.894619 0)
(-0.245981 -1.10089 0)
(-0.153883 -1.08796 0)
(-0.250973 -1.01059 0)
(-0.375848 -1.08524 0)
(-0.439462 -1.07342 0)
(-0.395465 -0.842219 0)
(-0.240735 -0.60895 0)
(-0.101711 -0.581608 0)
(0.00663343 -0.657193 0)
(0.0836668 -0.664302 0)
(0.0491841 -0.58392 0)
(-0.0181591 -0.647889 0)
(-0.0245364 -0.692567 0)
(0.0425864 -0.721322 0)
(0.137906 -0.711158 0)
(0.205138 -0.701133 0)
(0.244103 -0.670333 0)
(0.257313 -0.613882 0)
(0.255397 -0.556248 0)
(0.253995 -0.528949 0)
(0.255264 -0.560706 0)
(0.226826 -0.704021 0)
(0.132093 -0.967436 0)
(0.0220979 -1.05679 0)
(-0.0955324 -0.867405 0)
(-0.234695 -0.616915 0)
(-0.339144 -0.481378 0)
(-0.392009 -0.438438 0)
(-0.382343 -0.560642 0)
(-0.331695 -0.929595 0)
(-0.249245 -1.08399 0)
(-0.296359 -1.02386 0)
(-0.455774 -0.853038 0)
(-0.621716 -1.0688 0)
(-0.688128 -1.18903 0)
(-0.629729 -1.0887 0)
(-0.454733 -1.00245 0)
(-0.226684 -0.989573 0)
(-0.0117058 -1.05478 0)
(0.128259 -0.927381 0)
(0.0681525 -0.670721 0)
(-0.0421674 -0.65157 0)
(-0.0432075 -0.836987 0)
(0.0415249 -0.866406 0)
(0.126699 -0.80367 0)
(0.216461 -0.761247 0)
(0.293134 -0.721293 0)
(0.325183 -0.665752 0)
(0.330241 -0.593629 0)
(0.330357 -0.554401 0)
(0.33302 -0.575958 0)
(0.311734 -0.669311 0)
(0.217736 -0.805777 0)
(0.0599364 -0.867893 0)
(-0.0902332 -0.707231 0)
(-0.175948 -0.525194 0)
(-0.209869 -0.425387 0)
(-0.205917 -0.407186 0)
(-0.176435 -0.546201 0)
(-0.191758 -0.849129 0)
(-0.28893 -0.992659 0)
(-0.433886 -0.845818 0)
(-0.616814 -0.80145 0)
(-0.747138 -1.07045 0)
(-0.751574 -1.2915 0)
(-0.619118 -1.23097 0)
(-0.438623 -1.15149 0)
(-0.22569 -1.08553 0)
(-0.0436054 -1.07416 0)
(0.0623644 -0.850828 0)
(0.0351831 -0.535747 0)
(-0.0706479 -0.669625 0)
(-0.0766441 -1.06618 0)
(0.0443906 -1.13028 0)
(0.125841 -0.988606 0)
(0.215705 -0.872381 0)
(0.292431 -0.817243 0)
(0.370483 -0.725425 0)
(0.396019 -0.628494 0)
(0.373115 -0.576435 0)
(0.356381 -0.593047 0)
(0.317839 -0.659603 0)
(0.215426 -0.730505 0)
(0.0685913 -0.761428 0)
(-0.0458067 -0.634434 0)
(-0.0889488 -0.495975 0)
(-0.0800075 -0.410891 0)
(-0.0444383 -0.401929 0)
(-0.0226605 -0.503695 0)
(-0.0907169 -0.680081 0)
(-0.260863 -0.772189 0)
(-0.450964 -0.672165 0)
(-0.642535 -0.758539 0)
(-0.729352 -1.08101 0)
(-0.601491 -1.25828 0)
(-0.457095 -1.20811 0)
(-0.344313 -1.13839 0)
(-0.211247 -1.10569 0)
(-0.0832828 -1.08179 0)
(0.00567432 -0.802374 0)
(0.0130906 -0.427087 0)
(-0.061159 -0.81501 0)
(-0.122399 -1.27539 0)
(-0.041785 -1.36177 0)
(0.0770651 -1.4581 0)
(0.223262 -1.33496 0)
(0.346722 -1.13046 0)
(0.415888 -0.847551 0)
(0.446289 -0.658991 0)
(0.410292 -0.573391 0)
(0.350208 -0.570757 0)
(0.282296 -0.616502 0)
(0.196883 -0.692815 0)
(0.106901 -0.709333 0)
(0.0358339 -0.598247 0)
(0.00915445 -0.490743 0)
(0.0209548 -0.421453 0)
(0.0448805 -0.410151 0)
(0.0408989 -0.456629 0)
(-0.036551 -0.532096 0)
(-0.189155 -0.584331 0)
(-0.342856 -0.528067 0)
(-0.465418 -0.657532 0)
(-0.555956 -1.03106 0)
(-0.460661 -1.1745 0)
(-0.385971 -1.19097 0)
(-0.295675 -1.1789 0)
(-0.189695 -1.1649 0)
(-0.0900838 -1.11157 0)
(-0.0386767 -0.847665 0)
(-0.00913842 -0.406458 0)
(-0.0351681 -0.689818 0)
(-0.141332 -1.08289 0)
(-0.151778 -1.21675 0)
(-0.0819599 -1.31158 0)
(0.0130514 -1.3772 0)
(0.205162 -1.41112 0)
(0.480357 -1.30009 0)
(0.494449 -0.771247 0)
(0.448515 -0.526509 0)
(0.355862 -0.516046 0)
(0.263407 -0.560472 0)
(0.206168 -0.65929 0)
(0.162163 -0.647801 0)
(0.110581 -0.556359 0)
(0.0786777 -0.477831 0)
(0.0725882 -0.430234 0)
(0.0772401 -0.416106 0)
(0.067237 -0.425201 0)
(0.0186833 -0.436814 0)
(-0.0698761 -0.434336 0)
(-0.144044 -0.402385 0)
(-0.188717 -0.549929 0)
(-0.293411 -0.878707 0)
(-0.363652 -1.06101 0)
(-0.365794 -1.15015 0)
(-0.292432 -1.19548 0)
(-0.187239 -1.20944 0)
(-0.107074 -1.11049 0)
(-0.0728829 -0.8159 0)
(-0.0269578 -0.41742 0)
(-0.034073 -0.494274 0)
(-0.168038 -0.885273 0)
(-0.233636 -1.16168 0)
(-0.159882 -1.28463 0)
(-0.0714195 -1.33861 0)
(0.0409039 -1.37837 0)
(0.221451 -1.39392 0)
(0.493155 -1.12837 0)
(0.4229 -0.557788 0)
(0.345171 -0.443475 0)
(0.273824 -0.517996 0)
(0.243848 -0.621269 0)
(0.199189 -0.567221 0)
(0.141411 -0.494111 0)
(0.104298 -0.442671 0)
(0.0864602 -0.417057 0)
(0.0810764 -0.407885 0)
(0.0783266 -0.407584 0)
(0.073059 -0.400255 0)
(0.0640623 -0.369233 0)
(0.0579619 -0.340831 0)
(0.0423574 -0.444109 0)
(-0.0635246 -0.685632 0)
(-0.242776 -0.959357 0)
(-0.313046 -1.0749 0)
(-0.299149 -1.17115 0)
(-0.246636 -1.23589 0)
(-0.162139 -1.11362 0)
(-0.100772 -0.816039 0)
(-0.0367929 -0.458724 0)
(-0.0102936 -0.393482 0)
(-0.0974871 -0.675094 0)
(-0.244105 -1.1219 0)
(-0.219902 -1.27371 0)
(-0.132788 -1.35887 0)
(-0.0377668 -1.40985 0)
(0.0441365 -1.40122 0)
(0.220392 -1.33473 0)
(0.420126 -0.848942 0)
(0.344397 -0.459275 0)
(0.268249 -0.465844 0)
(0.25805 -0.542763 0)
(0.210162 -0.483543 0)
(0.14268 -0.423424 0)
(0.102931 -0.396765 0)
(0.0835495 -0.390482 0)
(0.0774799 -0.392297 0)
(0.0806978 -0.40024 0)
(0.0946899 -0.401491 0)
(0.126565 -0.384598 0)
(0.161613 -0.368105 0)
(0.158004 -0.405625 0)
(0.0909253 -0.523103 0)
(-0.0473199 -0.731348 0)
(-0.210676 -0.982767 0)
(-0.266432 -1.08945 0)
(-0.267057 -1.1885 0)
(-0.225082 -1.19842 0)
(-0.141762 -0.841483 0)
(-0.0509537 -0.525608 0)
(0.00977369 -0.343249 0)
(-0.0139834 -0.51149 0)
(-0.145064 -0.910152 0)
(-0.245856 -1.27744 0)
(-0.192138 -1.3444 0)
(-0.104852 -1.40566 0)
(-0.0284954 -1.38367 0)
(0.0293377 -1.36233 0)
(0.236531 -1.11808 0)
(0.359106 -0.63026 0)
(0.292844 -0.420899 0)
(0.241839 -0.437432 0)
(0.18464 -0.394053 0)
(0.128255 -0.362174 0)
(0.0971096 -0.35864 0)
(0.0797287 -0.367722 0)
(0.0704176 -0.378897 0)
(0.0658512 -0.400102 0)
(0.0885156 -0.423041 0)
(0.13796 -0.428391 0)
(0.187126 -0.419975 0)
(0.210151 -0.434151 0)
(0.186998 -0.479341 0)
(0.110829 -0.594229 0)
(-0.0171512 -0.777234 0)
(-0.154305 -0.995157 0)
(-0.220589 -1.15791 0)
(-0.230376 -1.15372 0)
(-0.17938 -0.872922 0)
(-0.068545 -0.620905 0)
(0.0198355 -0.32708 0)
(0.0317775 -0.415532 0)
(-0.0344818 -0.714161 0)
(-0.166747 -1.11763 0)
(-0.215034 -1.36055 0)
(-0.157944 -1.46934 0)
(-0.0832666 -1.44595 0)
(-0.00162866 -1.39632 0)
(0.122541 -1.18489 0)
(0.234041 -0.720191 0)
(0.232148 -0.373448 0)
(0.188245 -0.339076 0)
(0.140533 -0.325003 0)
(0.119779 -0.32637 0)
(0.112152 -0.335406 0)
(0.100043 -0.352061 0)
(0.0686948 -0.349494 0)
(0.0316586 -0.383308 0)
(0.0440886 -0.451543 0)
(0.120392 -0.475758 0)
(0.18749 -0.455449 0)
(0.221181 -0.463905 0)
(0.231097 -0.493579 0)
(0.203423 -0.559478 0)
(0.129953 -0.673905 0)
(0.0249262 -0.829209 0)
(-0.0928314 -1.00758 0)
(-0.168438 -1.08087 0)
(-0.170163 -0.878895 0)
(-0.0792049 -0.73621 0)
(0.0277517 -0.340769 0)
(0.0613232 -0.375145 0)
(0.0363581 -0.577802 0)
(-0.0590691 -0.941699 0)
(-0.154021 -1.24621 0)
(-0.159555 -1.42251 0)
(-0.0906189 -1.46189 0)
(0.0150705 -1.45039 0)
(0.116532 -1.21622 0)
(0.131175 -0.706134 0)
(0.107428 -0.310078 0)
(0.103234 -0.284657 0)
(0.108082 -0.303413 0)
(0.133093 -0.324381 0)
(0.149062 -0.330984 0)
(0.122971 -0.320768 0)
(0.0595915 -0.316359 0)
(-0.0190294 -0.34626 0)
(-0.0293416 -0.488977 0)
(0.0675286 -0.537012 0)
(0.160343 -0.477278 0)
(0.203203 -0.477797 0)
(0.225538 -0.507122 0)
(0.228399 -0.559841 0)
(0.200207 -0.644599 0)
(0.136113 -0.76059 0)
(0.0444329 -0.904766 0)
(-0.0495215 -0.991194 0)
(-0.113874 -0.843259 0)
(-0.0704613 -0.841405 0)
(0.0316963 -0.371368 0)
(0.0799273 -0.378477 0)
(0.0847588 -0.503696 0)
(0.0214523 -0.791652 0)
(-0.0769359 -1.1111 0)
(-0.1053 -1.39132 0)
(-0.0270022 -1.5199 0)
(0.0970378 -1.50418 0)
(0.132653 -1.17848 0)
(0.0471557 -0.638352 0)
(0.00651339 -0.292658 0)
(0.030079 -0.286752 0)
(0.0932117 -0.329901 0)
(0.167003 -0.35957 0)
(0.177348 -0.353635 0)
(0.0924712 -0.341599 0)
(0.0446173 -0.339424 0)
(-0.0122446 -0.349622 0)
(-0.0825516 -0.567882 0)
(-0.0237349 -0.622215 0)
(0.0779209 -0.514127 0)
(0.152315 -0.482744 0)
(0.186314 -0.508414 0)
(0.204558 -0.557682 0)
(0.20395 -0.630333 0)
(0.178225 -0.738799 0)
(0.12797 -0.863934 0)
(0.0433035 -0.919755 0)
(-0.0477973 -0.802187 0)
(-0.0447398 -0.927899 0)
(0.0332408 -0.415676 0)
(0.0940338 -0.416124 0)
(0.123391 -0.481857 0)
(0.0897697 -0.676132 0)
(0.0131071 -0.976704 0)
(0.00671061 -1.38511 0)
(0.0955601 -1.5812 0)
(0.19082 -1.51191 0)
(0.114071 -1.05123 0)
(-0.0390506 -0.521742 0)
(-0.0754778 -0.317854 0)
(-0.0172901 -0.335063 0)
(0.0930453 -0.39643 0)
(0.172844 -0.421331 0)
(0.130384 -0.428268 0)
(0.0514636 -0.430292 0)
(0.0553392 -0.406716 0)
(0.0311834 -0.409314 0)
(-0.0642038 -0.624938 0)
(-0.0847722 -0.663192 0)
(-0.0191369 -0.586467 0)
(0.0728658 -0.500778 0)
(0.12648 -0.508525 0)
(0.157846 -0.55363 0)
(0.170618 -0.616801 0)
(0.16487 -0.722122 0)
(0.139716 -0.827761 0)
(0.07109 -0.8461 0)
(-0.0138457 -0.776675 0)
(-0.0244143 -1.02296 0)
(0.0349493 -0.473855 0)
(0.105422 -0.475885 0)
(0.15691 -0.502578 0)
(0.156299 -0.613995 0)
(0.121086 -0.888733 0)
(0.147592 -1.40049 0)
(0.232728 -1.62091 0)
(0.224981 -1.41914 0)
(0.0297789 -0.860521 0)
(-0.118093 -0.47454 0)
(-0.129112 -0.386233 0)
(-0.0419558 -0.411831 0)
(0.0715992 -0.475244 0)
(0.109794 -0.535206 0)
(0.0378324 -0.544976 0)
(0.0232957 -0.523298 0)
(0.0852604 -0.49537 0)
(0.120141 -0.497519 0)
(0.0354966 -0.645636 0)
(-0.109077 -0.688567 0)
(-0.103171 -0.666945 0)
(-0.0195771 -0.560467 0)
(0.0564347 -0.522779 0)
(0.10343 -0.554862 0)
(0.126144 -0.606086 0)
(0.12815 -0.694308 0)
(0.106233 -0.767991 0)
(0.0496745 -0.761531 0)
(-0.00552853 -0.761067 0)
(-0.0115633 -1.10655 0)
(0.0353242 -0.546913 0)
(0.11394 -0.551941 0)
(0.188319 -0.555252 0)
(0.224369 -0.615034 0)
(0.249879 -0.905132 0)
(0.299326 -1.42359 0)
(0.317414 -1.60016 0)
(0.148054 -1.21926 0)
(-0.110151 -0.728982 0)
(-0.199943 -0.533844 0)
(-0.140521 -0.507456 0)
(-0.0489714 -0.530882 0)
(-0.00171045 -0.591532 0)
(-0.00377421 -0.662129 0)
(-0.0122112 -0.647096 0)
(0.0236002 -0.603594 0)
(0.0977136 -0.584046 0)
(0.165149 -0.594401 0)
(0.125585 -0.693659 0)
(-0.00982432 -0.730474 0)
(-0.11175 -0.704468 0)
(-0.0958846 -0.653262 0)
(-0.0104293 -0.558411 0)
(0.0484872 -0.566021 0)
(0.0816295 -0.602323 0)
(0.0901071 -0.663786 0)
(0.0695973 -0.705333 0)
(0.0257749 -0.693386 0)
(-0.00233552 -0.760523 0)
(-0.00275774 -1.1094 0)
(0.0313932 -0.632368 0)
(0.117604 -0.64987 0)
(0.219791 -0.638354 0)
(0.294202 -0.683835 0)
(0.37382 -1.01805 0)
(0.413993 -1.43162 0)
(0.273994 -1.45668 0)
(-0.041461 -1.02684 0)
(-0.256122 -0.72856 0)
(-0.259921 -0.649545 0)
(-0.163854 -0.647185 0)
(-0.0728477 -0.672444 0)
(-0.0234619 -0.712766 0)
(-0.0253867 -0.745164 0)
(-0.0217372 -0.712811 0)
(0.025784 -0.678946 0)
(0.0902374 -0.660656 0)
(0.148135 -0.672697 0)
(0.156417 -0.733131 0)
(0.0988229 -0.764175 0)
(0.00187484 -0.750616 0)
(-0.0676671 -0.721216 0)
(-0.0494481 -0.621831 0)
(0.00328684 -0.59479 0)
(0.0422611 -0.609433 0)
(0.0579849 -0.641716 0)
(0.047161 -0.659873 0)
(0.0175271 -0.659366 0)
(0.0111819 -0.782197 0)
(0.0118292 -1.04783 0)
(0.0241238 -0.702713 0)
(0.11256 -0.784034 0)
(0.243522 -0.772297 0)
(0.361645 -0.84205 0)
(0.461765 -1.16179 0)
(0.415573 -1.36102 0)
(0.10644 -1.25117 0)
(-0.224186 -0.945715 0)
(-0.327365 -0.798345 0)
(-0.280555 -0.758508 0)
(-0.194914 -0.761849 0)
(-0.114102 -0.775977 0)
(-0.0508143 -0.791291 0)
(-0.0157156 -0.799855 0)
(0.0121971 -0.76783 0)
(0.0521616 -0.73612 0)
(0.0953148 -0.713205 0)
(0.132454 -0.712638 0)
(0.147881 -0.736842 0)
(0.133194 -0.761786 0)
(0.0926322 -0.768591 0)
(0.0242756 -0.760622 0)
(-0.0197141 -0.690274 0)
(-0.0048408 -0.639389 0)
(0.0234748 -0.628606 0)
(0.0409593 -0.633207 0)
(0.0417164 -0.635137 0)
(0.0346848 -0.645148 0)
(0.0449201 -0.808188 0)
(0.0296184 -0.979342 0)
(0.0119406 -0.737765 0)
(0.100172 -0.941572 0)
(0.266377 -0.962865 0)
(0.432112 -1.05505 0)
(0.492822 -1.23308 0)
(0.287825 -1.20367 0)
(-0.0803124 -1.0991 0)
(-0.298684 -0.937827 0)
(-0.332335 -0.86493 0)
(-0.285754 -0.847618 0)
(-0.216202 -0.851071 0)
(-0.139734 -0.855658 0)
(-0.0632333 -0.854947 0)
(0.00132967 -0.843186 0)
(0.0501454 -0.808058 0)
(0.0875162 -0.770986 0)
(0.115493 -0.741711 0)
(0.135446 -0.728183 0)
(0.143951 -0.730461 0)
(0.139552 -0.740566 0)
(0.122445 -0.748852 0)
(0.0845541 -0.753584 0)
(0.0426564 -0.721883 0)
(0.0287224 -0.676207 0)
(0.0366136 -0.649316 0)
(0.04699 -0.634634 0)
(0.0547529 -0.627503 0)
(0.0650181 -0.649056 0)
(0.080063 -0.819155 0)
(0.0438911 -0.918734 0)
(0.0130143 -0.749205 0)
(0.0922653 -1.05795 0)
(0.248422 -1.16494 0)
(0.403467 -1.21458 0)
(0.368439 -1.15669 0)
(0.0782216 -1.02736 0)
(-0.195875 -0.986557 0)
(-0.314133 -0.931806 0)
(-0.326358 -0.911355 0)
(-0.289949 -0.913772 0)
(-0.230067 -0.924412 0)
(-0.153255 -0.929621 0)
(-0.0626791 -0.928662 0)
(0.0267378 -0.903959 0)
(0.0925638 -0.850801 0)
(0.129505 -0.795506 0)
(0.14734 -0.754125 0)
(0.154067 -0.728648 0)
(0.15274 -0.717781 0)
(0.145085 -0.716187 0)
(0.133051 -0.719062 0)
(0.114675 -0.722351 0)
(0.0916459 -0.713725 0)
(0.0753904 -0.686907 0)
(0.0694878 -0.658505 0)
(0.0699898 -0.637419 0)
(0.0773404 -0.630215 0)
(0.0920919 -0.665523 0)
(0.101142 -0.819133 0)
(0.0497728 -0.868149 0)
(0.019158 -0.753726 0)
(0.0591566 -1.06813 0)
(0.148298 -1.21126 0)
(0.225621 -1.2264 0)
(0.0690968 -0.989474 0)
(-0.152613 -0.887207 0)
(-0.283734 -0.903758 0)
(-0.339276 -0.919059 0)
(-0.340958 -0.942405 0)
(-0.306374 -0.965531 0)
(-0.24521 -0.986379 0)
(-0.166913 -0.9987 0)
(-0.0638657 -1.01612 0)
(0.0573611 -0.99053 0)
(0.147471 -0.902584 0)
(0.185442 -0.817992 0)
(0.191897 -0.756052 0)
(0.18474 -0.717984 0)
(0.172919 -0.697634 0)
(0.158723 -0.689647 0)
(0.144377 -0.68852 0)
(0.131032 -0.690949 0)
(0.120343 -0.69292 0)
(0.11355 -0.681603 0)
(0.106339 -0.655518 0)
(0.0990405 -0.634969 0)
(0.0980309 -0.632995 0)
(0.102552 -0.677026 0)
(0.0929984 -0.807563 0)
(0.0397 -0.848517 0)
(0.022392 -0.778748 0)
(0.0441019 -1.04547 0)
(0.0793046 -1.23508 0)
(0.0210337 -1.14168 0)
(-0.180916 -0.875552 0)
(-0.321558 -0.821204 0)
(-0.369237 -0.863179 0)
(-0.389184 -0.917355 0)
(-0.374812 -0.970177 0)
(-0.324132 -1.00833 0)
(-0.258651 -1.02846 0)
(-0.189349 -1.04283 0)
(-0.0813497 -1.09979 0)
(0.0851842 -1.10428 0)
(0.211456 -0.963606 0)
(0.25693 -0.839004 0)
(0.254175 -0.747484 0)
(0.224693 -0.697565 0)
(0.200078 -0.670959 0)
(0.178999 -0.659225 0)
(0.159546 -0.656477 0)
(0.143013 -0.659792 0)
(0.134811 -0.670977 0)
(0.137365 -0.674912 0)
(0.137398 -0.647664 0)
(0.126645 -0.625572 0)
(0.113116 -0.626569 0)
(0.0977086 -0.669049 0)
(0.0674453 -0.782106 0)
(0.023152 -0.858126 0)
(0.027318 -0.841508 0)
(0.0632698 -1.03685 0)
(0.0219119 -1.19324 0)
(-0.15894 -1.01609 0)
(-0.334031 -0.834012 0)
(-0.406749 -0.805775 0)
(-0.4386 -0.850709 0)
(-0.447843 -0.92226 0)
(-0.402141 -1.0034 0)
(-0.324481 -1.03003 0)
(-0.27143 -1.01963 0)
(-0.21648 -1.05617 0)
(-0.0834684 -1.23398 0)
(0.123752 -1.30605 0)
(0.272753 -1.07998 0)
(0.332982 -0.866748 0)
(0.328644 -0.721033 0)
(0.270707 -0.664561 0)
(0.228817 -0.637325 0)
(0.201624 -0.624731 0)
(0.178461 -0.620955 0)
(0.155543 -0.623563 0)
(0.13968 -0.642186 0)
(0.147558 -0.670087 0)
(0.160684 -0.640427 0)
(0.150828 -0.607942 0)
(0.12594 -0.60667 0)
(0.0936334 -0.640621 0)
(0.0517014 -0.743145 0)
(0.0142155 -0.869502 0)
(0.019314 -0.927008 0)
(0.0547589 -1.0631 0)
(-0.0376782 -1.09119 0)
(-0.243855 -0.916686 0)
(-0.380861 -0.801351 0)
(-0.446964 -0.782006 0)
(-0.497708 -0.825401 0)
(-0.501684 -0.925218 0)
(-0.41249 -1.04973 0)
(-0.309028 -1.01114 0)
(-0.289533 -0.959699 0)
(-0.234093 -1.17784 0)
(-0.052483 -1.632 0)
(0.220163 -1.65762 0)
(0.362919 -1.22406 0)
(0.43514 -0.83339 0)
(0.395884 -0.649295 0)
(0.314271 -0.61438 0)
(0.253605 -0.596767 0)
(0.222188 -0.587658 0)
(0.199339 -0.582989 0)
(0.174393 -0.581617 0)
(0.146644 -0.598498 0)
(0.148037 -0.653745 0)
(0.17591 -0.640005 0)
(0.172831 -0.585068 0)
(0.138283 -0.575506 0)
(0.0991852 -0.599733 0)
(0.0542425 -0.694278 0)
(0.0158425 -0.874157 0)
(0.0031686 -0.988564 0)
(0.0054563 -1.07953 0)
(-0.0977829 -0.967704 0)
(-0.268221 -0.821765 0)
(-0.38021 -0.741724 0)
(-0.468339 -0.724233 0)
(-0.545616 -0.759613 0)
(-0.564273 -0.896622 0)
(-0.443705 -1.08849 0)
(-0.322829 -1.00841 0)
(-0.320596 -1.00775 0)
(-0.166686 -1.58918 0)