/*--------------------------------*- C++ -*----------------------------------*\
| =========                 |                                                 |
| \\      /  F ield         | OpenFOAM: The Open Source CFD Toolbox           |
|  \\    /   O peration     | Version:  2.4.0                                 |
|   \\  /    A nd           | Web:      www.OpenFOAM.org                      |
|    \\/     M anipulation  |                                                 |
\*---------------------------------------------------------------------------*/
FoamFile
{
    version     2.0;
    format      ascii;
    class       surfaceScalarField;
    location    "6.5";
    object      phiAlpha;
}
// * * * * * * * * * * * * * * * * * * * * * * * * * * * * * * * * * * * * * //

dimensions      [0 3 -1 0 0 0 0];

internalField   nonuniform List<scalar> 
9024
(
1.25037e-14
-1.30002e-14
1.82803e-14
2.14685e-13
-5.08052e-13
5.25386e-13
-4.61825e-11
3.81831e-11
-2.50996e-12
9.30902e-11
-2.50998e-12
8.69956e-18
1.39803e-11
1.03454e-12
-1.43596e-10
6.40561e-12
-6.96378e-10
5.76408e-11
-7.65245e-10
6.88667e-11
-8.87441e-17
1.26516e-11
2.17085e-18
-9.09151e-17
8.65754e-14
2.80312e-13
5.57108e-12
9.09482e-14
-3.51344e-11
2.62682e-11
-3.53776e-10
3.0889e-10
-6.93174e-11
3.4899e-10
-6.93174e-11
2.79728e-17
-3.06622e-10
1.98025e-11
-2.98936e-10
6.65173e-11
-7.74085e-11
1.26502e-11
-8.63158e-12
3.19448e-17
-6.41893e-14
-4.00259e-15
1.73325e-16
1.9854e-14
1.36269e-13
3.54029e-13
2.25099e-13
1.98745e-15
-1.57701e-10
8.12638e-11
-8.27818e-10
1.15038e-09
-4.88166e-11
7.40959e-10
-4.88167e-11
5.14471e-17
-7.65628e-11
1.49899e-12
-1.26506e-11
1.10242e-12
-5.03606e-16
1.04915e-16
-5.76545e-16
8.63947e-17
-4.66029e-15
6.56824e-17
2.88064e-16
-3.45445e-16
1.41136e-14
3.69773e-14
1.23152e-14
3.29683e-15
-4.76578e-10
2.73334e-10
-2.05722e-09
2.09101e-09
-5.41464e-12
1.26539e-09
-5.41467e-12
7.96681e-17
-1.11121e-12
-2.96982e-14
-5.1779e-16
-8.28444e-15
-5.85771e-16
1.65012e-16
-7.58084e-16
2.36505e-16
-8.19101e-16
1.303e-16
9.4134e-17
-6.16097e-16
-6.86137e-16
3.71088e-14
-2.89855e-15
4.96171e-15
-1.3278e-09
7.42479e-10
-2.2246e-09
3.19554e-09
-1.44595e-16
2.1867e-09
-1.75345e-16
1.10418e-16
-2.99916e-14
1.19575e-16
-5.83734e-14
2.1664e-14
-5.98294e-14
4.21351e-14
-1.08202e-15
1.26081e-14
-1.17613e-15
2.30461e-16
1.88411e-16
-6.79172e-16
4.41346e-14
9.00823e-13
4.19462e-14
6.55221e-15
-1.70937e-09
9.42762e-10
-2.38272e-09
3.64139e-09
-1.55238e-16
2.36254e-09
-1.84412e-16
1.39593e-16
-2.38637e-16
1.54261e-16
-6.4817e-14
1.12442e-14
-8.86921e-14
7.18629e-14
-1.12178e-13
2.87229e-14
-7.01839e-15
1.60786e-14
5.40501e-17
-7.00052e-15
2.07112e-13
9.74785e-13
2.10016e-13
3.2695e-15
-1.01015e-09
3.25556e-10
-3.29539e-09
2.06595e-09
-1.27699e-16
1.24147e-09
-1.50255e-16
1.62149e-16
-1.695e-16
1.92746e-16
-1.85284e-16
1.12417e-14
-5.63313e-15
7.7329e-14
-1.20047e-16
4.7205e-15
-2.10331e-16
1.63032e-14
1.84348e-14
-1.8853e-14
2.27739e-15
2.2058e-13
7.8019e-13
4.07635e-13
-1.83148e-10
9.54144e-11
-7.07907e-11
9.23291e-16
2.66698e-10
7.4033e-12
-2.17352e-09
2.19543e-09
-5.77937e-09
9.98434e-09
-4.39898e-09
6.36784e-09
-5.63718e-11
3.61966e-09
-1.73562e-10
1.17171e-10
-6.52632e-11
6.9185e-11
8.05223e-13
-1.79466e-12
-1.21595e-16
2.20701e-13
-2.45194e-16
4.07758e-13
-3.47118e-16
9.54145e-11
-3.78148e-16
9.38033e-16
7.40206e-12
8.7414e-16
-1.28914e-09
1.00046e-09
-3.18369e-09
3.66142e-09
-3.22074e-09
6.62056e-09
-3.75588e-09
3.93914e-09
-9.43483e-10
2.19667e-09
-8.33636e-13
4.10438e-11
-6.54644e-14
4.14701e-14
-1.83345e-10
6.85325e-10
-7.22738e-10
7.15095e-09
-1.55139e-16
6.91212e-09
-4.52421e-17
8.40712e-16
9.24661e-17
7.23856e-16
1.46952e-09
1.0874e-09
2.72057e-09
-1.73282e-11
2.68728e-09
6.17115e-10
1.29775e-09
9.2993e-11
1.95348e-10
1.6368e-10
4.95736e-13
6.88286e-11
-3.92128e-14
4.64025e-13
-3.26793e-10
1.16521e-09
1.26508e-09
7.98631e-09
2.06852e-09
8.42056e-09
1.09225e-09
5.18756e-09
-7.58214e-11
5.46223e-10
9.22508e-10
-1.46536e-11
7.24843e-10
-2.78556e-12
5.03123e-10
-2.57772e-13
2.9598e-10
6.83379e-11
3.40624e-11
-3.35575e-11
6.15105e-13
1.0227e-10
-7.35335e-14
6.54532e-13
6.33345e-10
2.7126e-10
7.30545e-09
3.31574e-11
1.04916e-08
4.70355e-10
7.24474e-09
2.95929e-10
1.38358e-11
-8.57957e-11
7.46912e-14
-4.81357e-15
2.19198e-13
-5.38354e-14
7.90731e-17
-3.84744e-14
6.83379e-11
7.66686e-20
4.08237e-08
1.64568e-09
1.0037e-07
1.58697e-07
1.55851e-07
-1.98458e-07
-1.07177e-16
1.21051e-18
-1.51287e-14
1.50038e-14
-1.26389e-10
-4.41375e-11
-1.88539e-09
2.63012e-11
-3.42312e-09
2.46461e-10
-1.25606e-10
3.70765e-11
-5.84295e-16
-1.25606e-10
-4.64417e-16
-2.4405e-16
-1.12394e-11
1.12388e-11
-4.52263e-10
2.18174e-10
-2.9185e-10
3.97308e-10
3.6893e-10
1.98358e-14
-2.09464e-18
-4.57238e-09
-1.01098e-17
-1.81897e-08
-4.17222e-12
-1.93769e-08
-6.61558e-12
-2.16192e-08
-6.40735e-10
-5.17593e-09
-2.88534e-09
-2.60615e-09
-7.95058e-09
-2.38542e-10
-9.30026e-09
-2.43905e-12
-2.07065e-09
-1.23356e-15
6.37491e-11
-7.97219e-17
3.97306e-10
3.68929e-10
-3.52972e-16
5.44108e-18
-3.51175e-16
-1.1898e-17
-4.17253e-12
-3.26951e-17
5.00123e-09
-4.93834e-09
-3.16107e-08
-2.50058e-08
-1.11305e-07
-2.57563e-08
-5.60139e-08
-2.57882e-08
-5.29195e-08
-3.28233e-08
-2.71919e-08
-4.25632e-08
-1.45099e-08
-3.71822e-08
-3.3989e-09
-3.01441e-08
-2.13341e-08
-4.74172e-16
4.09125e-17
-5.39482e-16
5.62062e-17
3.28378e-11
-3.28383e-11
-1.63055e-07
-5.02712e-10
-1.69703e-07
-7.79503e-17
-1.87937e-07
-1.37666e-16
-1.10294e-07
-1.25966e-16
-3.52134e-08
-1.4459e-11
-4.53953e-08
-3.29235e-10
-4.44914e-08
-1.66598e-08
-1.44002e-08
-6.02352e-08
-3.57343e-08
-5.11248e-16
7.16425e-17
-8.29829e-10
2.43604e-12
-1.28668e-09
-8.51813e-13
-3.88612e-16
-1.54704e-15
-3.8531e-16
-8.15458e-17
-3.94301e-16
-1.28381e-16
-3.5641e-16
-1.64151e-16
-2.77767e-16
-1.44591e-11
-2.1299e-16
-3.29235e-10
-1.61224e-08
-5.37469e-10
-1.59885e-08
-5.51241e-09
-1.06747e-09
-4.11153e-13
2.08822e-15
-9.39169e-13
-1.31332e-14
-3.68505e-16
6.58292e-17
-3.5255e-16
-1.56779e-15
-3.56968e-16
-7.93671e-17
-3.90796e-16
-8.37048e-17
-3.55983e-16
-1.93264e-16
3.21722e-11
-2.2665e-12
-4.69433e-10
-2.38866e-10
-8.38836e-11
-1.85808e-09
-4.82459e-17
-5.5963e-09
-1.06747e-09
-2.73726e-15
2.46094e-15
-1.23907e-15
5.72152e-17
-2.25492e-15
-1.4412e-17
-2.86747e-13
-4.50375e-17
4.75076e-15
-2.49595e-12
-2.69843e-16
4.94374e-15
-3.11858e-16
-1.52987e-16
-2.2665e-12
-3.09619e-16
8.71935e-11
3.39611e-11
-1.02722e-09
-3.54305e-10
-4.5411e-10
-7.3046e-09
-8.28274e-09
-1.39211e-16
-1.79215e-12
-6.87618e-17
-1.12077e-15
-1.26643e-17
-1.53503e-16
9.87473e-14
-9.99819e-14
-2.69514e-13
-4.70154e-13
-1.97448e-10
-8.31072e-10
-6.54172e-11
-2.58294e-09
-1.56213e-16
-6.54173e-11
-1.99553e-16
3.39612e-11
-3.54305e-10
-6.75585e-16
-1.94849e-09
-3.31353e-09
-2.52349e-08
7.10261e-11
-1.35173e-13
6.55625e-10
-1.89335e-09
6.77809e-10
-3.32493e-09
2.76495e-10
-4.30586e-09
8.58507e-10
-5.80801e-10
4.41501e-09
2.47952e-10
3.85955e-09
5.27021e-10
5.78535e-10
1.14425e-09
3.76928e-11
-9.03729e-09
3.11733e-11
-2.33002e-10
-2.11582e-09
-1.56505e-09
-2.73507e-08
5.93442e-13
-2.59822e-13
2.88291e-08
-6.04706e-10
3.03005e-08
-9.48035e-10
3.17925e-08
-1.10909e-09
5.94629e-09
-6.84967e-09
3.00679e-09
-2.47178e-09
2.44051e-09
-2.47819e-10
4.11435e-08
-6.65363e-09
3.21985e-08
-3.20447e-08
1.98635e-09
-3.54683e-08
1.50909e-09
-3.7556e-09
-1.37102e-08
-2.37495e-13
6.26457e-13
7.99169e-11
1.72904e-13
8.87555e-10
-5.83933e-10
9.22105e-08
-3.872e-10
1.96329e-07
-2.51635e-09
1.82582e-07
-1.08347e-10
1.6663e-07
1.5635e-08
1.45469e-07
1.4507e-08
1.22516e-07
-9.09141e-09
2.6927e-08
-2.98189e-08
-6.66918e-11
-6.83151e-10
-7.66108e-10
7.9069e-09
-2.18709e-07
4.85231e-11
9.1013e-09
2.39674e-09
1.12969e-10
1.76082e-09
1.07856e-10
2.2652e-09
-2.87986e-09
3.67017e-09
-1.65419e-09
2.17917e-07
6.68964e-09
2.10008e-07
2.24155e-08
1.96425e-07
4.49188e-09
7.84869e-09
1.10387e-10
-2.60966e-09
1.24617e-10
2.93398e-09
1.65142e-15
-1.65148e-15
-8.00369e-16
2.4471e-15
-5.95113e-12
5.95033e-12
-3.94213e-10
1.8953e-10
-5.97283e-10
5.72504e-10
-6.17698e-10
2.04143e-11
-7.97057e-10
2.72966e-10
-1.41075e-11
2.91432e-10
-1.41076e-11
1.40887e-17
-1.92348e-11
1.90397e-12
-5.32625e-11
3.42926e-10
5.38512e-11
-8.02099e-11
-2.37429e-14
2.20916e-14
2.86628e-12
2.62485e-11
-1.63711e-10
2.31389e-10
-2.96747e-10
1.95107e-10
-1.13907e-10
8.13349e-11
-1.34572e-09
9.3851e-10
-2.95846e-09
1.64949e-09
-3.21158e-11
2.2723e-10
-3.21159e-11
4.43056e-17
-1.87201e-09
6.61654e-12
-3.76487e-08
3.67589e-09
3.6695e-09
-4.12569e-08
-2.12824e-14
4.33758e-14
-1.83115e-10
1.50913e-10
-1.73115e-10
4.74551e-10
9.84948e-11
5.09711e-11
-2.62664e-09
1.59398e-09
-6.06278e-09
1.19201e-08
-2.2723e-10
2.94581e-09
-2.56033e-16
8.27957e-17
-3.09648e-16
8.96849e-17
-5.48867e-09
7.71391e-11
-4.79353e-08
4.41763e-09
6.34599e-09
-5.06202e-08
-3.28733e-14
7.62434e-14
-1.31762e-10
1.69498e-10
2.69363e-10
3.50208e-10
-5.3145e-10
4.46915e-11
-9.12807e-09
8.05961e-09
-1.55953e-08
1.8348e-08
-2.59109e-16
3.91834e-09
-2.64874e-16
1.18947e-16
6.08007e-15
-6.29881e-15
-2.82779e-09
1.22368e-10
-7.36178e-09
1.04115e-11
1.15451e-16
-5.37689e-09
-9.18431e-12
2.47255e-12
-9.46425e-11
2.37173e-11
8.06363e-11
5.73604e-12
-8.84853e-10
1.08775e-11
-1.38721e-08
1.02057e-08
-1.29922e-08
1.75116e-08
-8.7843e-13
1.54625e-08
-8.78497e-13
1.51492e-16
-1.34761e-11
5.88443e-13
-1.04119e-11
5.56498e-12
-6.13331e-16
2.43307e-16
2.10246e-16
-7.01961e-16
-8.28685e-12
1.08355e-11
-5.73515e-12
-1.16396e-11
-1.58628e-16
5.5416e-16
-1.17559e-10
3.69576e-16
-1.47507e-08
5.58253e-09
-1.78804e-08
2.05936e-08
-1.74148e-12
1.28494e-08
-1.74146e-12
1.75364e-16
1.23183e-14
1.02788e-12
-4.28467e-16
5.57767e-12
-4.72664e-16
2.916e-16
1.63323e-13
-1.63603e-13
-4.69397e-12
1.5529e-11
7.26942e-14
3.93882e-11
-1.41135e-16
7.38625e-14
-6.83249e-10
6.83249e-10
-5.33096e-09
1.52892e-09
-9.86225e-09
1.28689e-09
-1.34679e-12
2.02972e-09
-1.51043e-13
-1.19561e-12
-9.03137e-13
1.84699e-13
-1.31588e-10
1.18881e-10
-1.56026e-10
2.05472e-10
1.2788e-10
-2.45788e-14
7.90726e-15
4.02417e-11
2.01675e-11
4.42258e-11
-3.4291e-09
1.93622e-08
-5.38402e-11
5.17162e-08
-3.00612e-11
7.31872e-10
-8.14607e-11
1.62932e-09
-6.14745e-11
1.73569e-10
-1.16564e-11
7.37618e-11
-1.61636e-11
3.98669e-12
-8.41798e-11
6.95371e-11
-7.84496e-11
2.20875e-10
1.32846e-10
-4.01784e-11
-1.1821e-11
7.89116e-11
-2.05493e-10
1.21018e-10
-4.46784e-09
2.48844e-08
-6.09569e-09
5.56605e-08
-2.14466e-09
4.84406e-08
-4.1527e-12
1.87985e-08
-7.97063e-14
1.23069e-11
5.1565e-12
4.00141e-12
2.24338e-11
2.05093e-11
4.09791e-11
1.51758e-12
5.02323e-11
-6.95294e-12
-5.96723e-12
2.80329e-11
2.26486e-11
2.19901e-09
3.85527e-10
1.87719e-09
-3.44386e-09
6.35314e-09
7.35971e-09
4.23807e-08
1.72664e-08
4.10102e-08
5.06324e-09
2.11432e-08
-1.10547e-11
1.3478e-09
-7.05371e-12
3.12748e-16
3.22912e-11
8.8453e-13
3.43062e-11
-5.58898e-13
5.96746e-12
-1.12823e-12
4.27374e-17
1.31572e-16
-4.25559e-10
2.19808e-09
5.63102e-10
5.63138e-10
3.38516e-09
-6.05955e-12
1.65361e-08
-1.15171e-09
2.60371e-08
-6.99889e-10
1.13889e-08
2.44434e-09
2.65447e-12
1.59881e-09
-1.30879e-13
2.78426e-12
5.567e-13
-8.12061e-14
1.12849e-12
-1.62973e-15
2.19151e-16
3.26556e-18
1.79854e-17
1.96633e-16
1.98713e-09
-3.99977e-13
5.87516e-09
-1.34063e-10
6.19069e-09
-8.41792e-12
3.78337e-09
-9.16194e-11
6.4575e-10
-4.15934e-11
8.85344e-10
-1.09888e-10
9.85087e-10
-4.24573e-11
1.35866e-10
3.52996e-12
1.37061e-15
1.41059e-16
4.74242e-16
-8.41124e-16
4.60993e-16
-2.52045e-17
4.83321e-16
-7.21627e-16
-8.86531e-11
2.32779e-11
-1.20329e-09
4.28589e-11
-6.12494e-09
-9.87713e-11
-5.97561e-09
-8.81907e-11
-6.26386e-11
-1.37528e-17
-6.26386e-11
-2.79742e-17
-1.67005e-11
-1.23777e-10
-1.24222e-11
-4.27902e-12
-9.5063e-12
-2.91653e-12
-3.85067e-12
1.58044e-12
-2.848e-13
3.90396e-15
-2.8532e-13
-4.35987e-08
2.35762e-09
-4.38764e-08
3.28021e-10
-8.17669e-09
-4.25692e-18
-2.29149e-16
-1.3027e-16
-2.39661e-16
-3.49378e-17
-2.50592e-16
-5.48797e-17
-1.53064e-09
-1.19846e-10
-6.47055e-10
-2.56378e-09
-2.55675e-11
-1.11026e-09
-2.52859e-12
-1.72429e-11
-1.13507e-12
2.78408e-12
-4.96607e-13
-2.90712e-08
2.82311e-09
-2.72246e-16
8.39997e-11
-2.73063e-16
-1.40002e-17
-3.01411e-16
-8.71397e-17
-3.14618e-16
-5.74602e-17
-3.17068e-16
-8.88416e-17
-1.19846e-10
-1.22486e-16
-9.08016e-09
-5.29798e-09
-1.6165e-08
-1.68577e-08
-2.81848e-09
-1.88353e-08
-4.20039e-11
-2.75079e-09
-4.15066e-11
-8.40095e-11
-1.92494e-13
-1.82883e-15
-6.03807e-15
-1.05733e-15
1.07419e-15
-3.60776e-16
-3.34475e-17
-3.71471e-16
-6.84792e-17
-3.84855e-16
-1.17183e-16
-3.86282e-16
-1.68927e-16
-1.99915e-08
-3.95124e-10
-3.36444e-08
-1.41659e-08
-1.46966e-08
-3.18243e-08
-1.37721e-09
-1.69411e-08
-7.81972e-09
-1.68691e-13
-2.45276e-14
-3.59473e-13
4.87137e-14
-1.06664e-14
4.37754e-14
-3.63851e-16
-1.00362e-14
-4.04441e-16
-6.63228e-17
-4.31594e-16
-1.29745e-16
-4.3558e-16
-2.04643e-16
-3.95124e-10
-2.85671e-16
-4.04451e-09
-4.22381e-11
-1.73596e-08
-6.28708e-09
-5.26337e-09
-5.39483e-08
-3.78882e-08
-5.19321e-13
6.59924e-14
-6.93614e-13
1.4934e-13
-6.30384e-13
5.30829e-14
-3.51023e-16
-3.65569e-16
-3.75897e-16
-5.45807e-17
-4.2136e-16
-1.33458e-16
-4.54269e-16
-2.29838e-16
-4.1179e-16
-3.91816e-16
-3.38565e-16
-4.22383e-11
-6.25854e-09
-2.85341e-11
-1.63594e-08
-4.03037e-16
-2.24886e-16
-1.01089e-13
1.73147e-14
-1.01051e-13
3.54006e-14
-1.28978e-13
3.50665e-14
-2.41291e-15
9.44561e-15
-2.96167e-16
-1.79927e-15
-3.42767e-16
1.89954e-16
-3.95475e-13
3.94846e-13
-3.08969e-11
3.65974e-11
-3.04511e-11
-3.45436e-11
-2.22682e-16
-1.46387e-11
-8.88397e-17
-5.32964e-16
-3.13725e-16
-1.08156e-15
5.41245e-12
-7.55498e-17
3.43931e-14
-9.16014e-17
3.50803e-14
-5.40803e-15
1.47601e-14
-4.23437e-12
3.46514e-12
-6.01517e-11
-5.37148e-11
-5.58987e-11
-2.92074e-10
-6.69581e-11
-2.19621e-10
-5.12292e-11
-8.73795e-11
-2.45859e-16
3.22148e-12
-1.04232e-16
-6.78803e-16
-3.59289e-16
2.90864e-11
3.94856e-11
3.23147e-11
7.08367e-11
3.86138e-11
2.37277e-10
6.84511e-11
4.09748e-11
2.03829e-10
-2.88153e-12
3.75731e-10
-2.88802e-10
1.34396e-10
-6.20997e-10
6.98891e-12
-8.26111e-10
-8.31401e-12
-1.39251e-10
-1.25997e-12
-1.0674e-10
-3.89056e-13
-8.71571e-13
2.70852e-12
3.94857e-11
3.24964e-17
1.82608e-09
1.01639e-10
1.84764e-09
2.45973e-10
1.62596e-09
2.57648e-10
1.57106e-09
5.23858e-11
1.43691e-09
-1.59664e-10
1.11405e-09
-2.93124e-10
3.06901e-10
-2.62676e-10
-2.64089e-11
-2.77381e-13
1.30792e-10
-2.40419e-10
4.98371e-11
-1.33232e-09
-2.1261e-10
2.01254e-16
1.85555e-17
1.80402e-10
1.28864e-13
4.17944e-10
2.52197e-11
7.62148e-10
5.28308e-11
7.55059e-10
4.21247e-11
5.227e-10
2.74292e-11
2.61906e-10
2.24613e-11
2.86358e-13
-1.58307e-13
1.10315e-12
-2.53301e-13
1.89967e-10
-2.62282e-13
6.76362e-10
-7.07593e-10
-1.55199e-10
2.43079e-13
2.02007e-16
3.11881e-14
-4.49669e-17
6.57626e-14
2.55938e-11
1.22367e-11
1.59956e-10
2.66792e-16
5.43616e-11
2.03087e-16
2.74286e-11
-6.0612e-15
2.24678e-11
6.7703e-13
4.42891e-15
1.68368e-12
-1.46577e-12
1.62891e-12
-2.18413e-12
1.18457e-09
-8.07711e-12
3.85003e-10
-3.41964e-15
2.79466e-15
-7.57207e-16
1.69241e-14
-1.56739e-15
8.1018e-16
-2.4119e-15
8.4451e-16
-4.28313e-11
4.28289e-11
-5.02221e-09
4.9614e-10
-1.39797e-08
1.35708e-10
-1.48899e-08
9.10168e-10
-1.6891e-08
2.00111e-09
-1.81368e-08
1.24574e-09
-7.52067e-17
6.19395e-10
9.31022e-18
-8.45169e-17
8.81176e-15
4.50117e-14
-8.27819e-13
8.76167e-13
-1.68107e-11
1.00659e-10
3.31376e-10
1.01499e-09
-9.97099e-10
1.92241e-09
-1.46832e-08
2.30735e-09
-1.02214e-08
2.98291e-09
-2.19067e-09
4.08631e-17
-2.44646e-09
2.53121e-17
-1.50479e-09
5.91918e-12
-1.76528e-16
1.61363e-11
2.24125e-17
-1.89631e-16
4.38858e-14
4.54605e-16
8.3793e-12
4.5123e-11
1.45202e-10
1.04573e-09
-5.23104e-10
1.52778e-09
-1.01582e-08
2.69548e-09
-2.98291e-09
1.60242e-09
-2.15376e-16
6.88491e-17
-2.50547e-16
7.16251e-17
-3.05694e-16
6.8752e-17
5.91883e-12
6.58999e-17
-5.37855e-09
6.93789e-11
8.78217e-09
-1.03977e-07
-9.80137e-14
9.77182e-14
-1.02572e-10
1.85105e-10
-2.64551e-10
1.09887e-09
-2.96952e-09
1.19646e-09
-4.96103e-09
2.65255e-10
-2.10887e-16
-1.14323e-10
-2.4462e-16
1.03001e-16
-2.85503e-16
1.00219e-16
-3.00984e-16
9.44608e-17
2.23441e-13
-2.23665e-13
-1.2005e-07
3.21181e-09
1.12794e-08
-1.42996e-07
3.82241e-12
1.62735e-11
-9.97365e-11
8.0396e-11
-9.48151e-11
1.04153e-10
-1.15144e-09
8.64627e-10
-3.18039e-09
6.8593e-09
-1.29154e-15
1.21366e-09
-1.32758e-15
1.38575e-16
-3.2829e-16
6.23417e-16
-2.90939e-14
2.8876e-14
-1.19291e-09
1.91263e-11
-9.42204e-09
-1.75187e-10
-5.69149e-11
-7.2937e-09
-1.1767e-11
6.66557e-11
-2.02227e-11
8.88519e-11
-2.99843e-12
8.69282e-11
-4.73552e-09
2.65397e-09
-7.80809e-09
1.00232e-08
-4.51774e-16
6.5903e-09
-2.94692e-16
1.64847e-16
-1.25811e-17
1.5733e-16
-2.46069e-11
3.56382e-12
-1.29499e-10
2.59163e-11
-5.8724e-11
-1.832e-13
-1.15639e-10
-5.0811e-16
-1.17586e-11
7.84143e-11
-3.60864e-11
1.1318e-10
-5.95029e-10
6.45871e-10
-8.51128e-09
3.17887e-09
-9.93069e-09
1.13433e-08
-2.40425e-16
9.11639e-09
-2.81999e-16
1.74256e-16
-3.14528e-16
1.64683e-16
1.14636e-12
-4.78385e-14
3.80307e-11
2.32503e-14
-2.07382e-10
2.882e-11
2.16817e-10
-5.31933e-10
-1.29035e-09
2.53553e-09
-1.08926e-09
4.71218e-08
-6.89563e-10
1.99872e-08
-3.74373e-09
8.69257e-10
-9.70504e-09
4.32002e-09
-2.63601e-09
9.55667e-09
-5.5826e-14
1.9599e-09
-5.764e-14
6.99932e-16
-2.33327e-14
2.12141e-14
-1.87681e-16
1.05714e-16
2.55884e-11
9.02309e-17
1.09978e-11
-1.36234e-10
-6.08837e-09
6.47059e-09
-1.9964e-08
6.10085e-08
-1.41625e-09
6.37769e-08
-5.46992e-10
7.83321e-16
-2.01387e-09
6.94053e-16
-2.17988e-09
-6.34434e-13
-1.0563e-09
6.27277e-10
-2.0668e-14
1.73536e-10
-5.30232e-17
5.98518e-16
-1.25845e-17
6.58831e-17
2.25898e-17
5.44397e-17
2.96781e-11
1.7012e-12
-1.29684e-08
6.86511e-09
-1.59426e-08
6.3971e-08
-2.03959e-16
4.79628e-08
-1.63661e-16
7.35197e-16
-9.51547e-17
6.12506e-16
-7.97024e-14
-5.54843e-13
3.61275e-11
1.95566e-11
1.00075e-10
3.52452e-11
1.00041e-10
5.58976e-12
3.53861e-10
-1.52534e-15
9.50286e-10
-1.46326e-12
3.57522e-11
8.77921e-10
-2.91927e-09
6.97104e-10
2.22993e-09
1.68879e-09
6.75543e-09
2.39689e-09
-3.84272e-13
2.1092e-09
-7.15499e-13
3.31827e-13
1.74064e-12
8.12959e-13
1.76972e-12
-1.38292e-13
6.58104e-12
-7.88599e-13
8.96241e-12
-1.63324e-12
7.64561e-12
-8.13027e-15
8.48768e-10
-4.5417e-14
-4.10539e-11
2.01392e-09
5.43379e-11
6.42765e-10
1.50612e-10
-1.0677e-09
7.64367e-10
-6.23139e-10
1.06684e-09
6.21815e-11
-4.97241e-12
1.29391e-10
-4.23438e-12
7.63721e-14
9.19464e-12
1.25245e-13
2.65553e-11
-1.97692e-12
8.81023e-13
-7.02583e-12
1.21591e-13
-1.47246e-12
7.61166e-14
-9.77546e-17
7.72908e-11
6.60942e-13
-9.38556e-17
9.33871e-18
-1.01314e-16
7.45802e-18
-1.26905e-16
2.55915e-17
-1.47323e-16
7.54845e-18
1.06258e-09
-1.13211e-09
-1.64937e-08
4.60376e-10
-5.48688e-08
3.50688e-09
-9.47569e-09
-3.14016e-09
-5.10458e-09
-4.37111e-09
-1.61442e-09
-3.49016e-09
-3.11635e-10
-2.0934e-09
-5.98629e-10
-4.0012e-10
4.0012e-10
-1.55079e-09
8.46668e-10
-1.03229e-09
2.02302e-10
-1.63087e-08
-1.18678e-09
-1.03602e-07
-5.93105e-09
-1.00012e-07
-5.62338e-09
-7.60202e-08
-1.79908e-08
-3.95133e-08
-2.80591e-08
-1.42279e-08
-3.01365e-08
-4.42129e-09
-1.35935e-08
-1.48003e-09
-1.68343e-09
-2.07866e-09
-1.12477e-07
8.8844e-09
-1.20539e-07
8.90639e-09
-1.22616e-07
2.28218e-09
-1.23754e-07
-5.89112e-11
-1.11946e-07
-2.10549e-09
-9.23113e-08
-4.90334e-09
-8.09119e-08
-2.14115e-08
-7.46765e-08
-2.64132e-08
-4.92322e-08
-3.36917e-08
-1.85581e-09
-2.67427e-08
-4.42383e-10
-3.50155e-09
-2.90235e-09
-1.3406e-07
-8.48448e-11
-8.22472e-08
4.63152e-09
-3.60967e-10
-1.09768e-10
-4.14233e-10
-3.02283e-14
-4.74067e-09
-5.39058e-12
-8.18631e-09
-1.04389e-10
-6.99684e-09
-2.03499e-10
-3.00406e-09
-5.51833e-11
-8.35878e-09
-1.02659e-09
-4.18547e-09
-1.17787e-08
-1.39659e-09
2.25502e-09
-1.10284e-09
-2.49275e-09
-6.78707e-11
-4.84941e-10
1.42586e-11
-9.0557e-12
2.14442e-12
-3.20875e-13
2.5629e-14
-3.77279e-16
-5.71113e-12
-3.20255e-16
-1.04389e-10
-2.56956e-16
-2.03499e-10
-1.97647e-16
-5.51834e-11
-1.02659e-09
-3.25832e-16
-4.06739e-09
-2.14388e-08
-2.66375e-09
-6.6659e-09
-3.87083e-10
-5.10394e-16
-6.78708e-11
-5.40246e-16
1.42579e-11
-5.17034e-16
2.14428e-12
-3.70811e-12
3.73251e-12
-1.63187e-10
-9.25901e-11
-3.06814e-10
-8.8238e-10
-1.52038e-10
-5.8348e-10
1.4527e-11
-4.11753e-11
1.45271e-11
-4.64624e-16
-8.24044e-09
-2.40167e-08
-2.49298e-09
-4.81457e-08
-5.04135e-09
-1.3786e-09
2.7472e-10
-3.95621e-10
1.67223e-10
-2.41207e-10
2.02601e-11
-5.7314e-10
-1.43855e-10
-1.52479e-09
-3.92132e-10
-9.99867e-10
-8.77192e-10
-5.62688e-10
-8.58397e-10
1.58135e-11
-1.37485e-10
1.58136e-11
-5.74796e-16
-1.66339e-08
-4.95198e-09
2.26538e-08
-1.55969e-07
-8.75123e-08
-6.92497e-10
1.81177e-10
-7.73478e-10
2.48204e-10
-8.92023e-10
1.38804e-10
-1.01329e-09
-2.25872e-11
-1.24845e-09
-1.56975e-10
-1.07252e-09
-1.4444e-10
-3.67335e-10
-1.2538e-10
-3.16509e-11
-7.60283e-11
-3.28333e-16
-3.16513e-11
-4.91627e-09
-3.5709e-11
-7.97961e-08
-5.42031e-08
-1.67308e-07
2.44464e-11
7.46303e-11
8.50726e-11
-6.611e-12
7.10304e-11
1.2929e-12
2.9205e-11
1.53052e-12
7.34824e-12
3.11963e-12
-3.3247e-12
-1.8088e-10
-5.32835e-12
-7.6264e-11
-1.10494e-10
-6.94773e-12
6.43311e-11
-9.09199e-10
1.36613e-09
-2.11842e-09
-3.10921e-08
-2.5233e-09
-1.31408e-10
4.84285e-10
1.0205e-10
-5.84181e-13
1.70491e-11
5.18499e-13
4.46321e-14
1.64124e-12
5.52555e-13
3.8231e-10
-2.13852e-10
6.12707e-10
-8.61887e-10
4.23523e-10
-1.5297e-09
3.19842e-10
-5.31487e-10
4.31228e-10
-1.53017e-09
5.80486e-12
-1.60882e-09
-2.34615e-17
-2.51749e-09
-1.31408e-10
2.21372e-09
5.16938e-11
4.57178e-10
3.03235e-11
4.57316e-10
6.15415e-14
5.82775e-09
1.31238e-10
5.6467e-09
-3.28004e-11
5.38683e-09
-6.02023e-10
4.84609e-09
-9.8896e-10
2.46255e-10
-4.38484e-10
1.24506e-09
-1.35095e-10
1.05991e-09
-1.32442e-09
2.14812e-10
-1.85312e-09
-3.94497e-10
9.65097e-11
1.25323e-13
4.06997e-11
2.82013e-12
4.25414e-12
6.33894e-13
1.35492e-10
4.98255e-17
3.87033e-09
6.04088e-12
8.05143e-09
1.83967e-10
3.97641e-09
2.58772e-10
3.63112e-10
4.43832e-11
2.28017e-10
-2.00709e-16
1.39278e-09
1.07126e-10
2.11144e-09
4.62113e-11
6.42769e-10
9.39862e-10
-6.22022e-10
1.00865e-09
-2.74747e-10
2.46562e-09
-1.45697e-09
4.54807e-10
-2.0394e-11
-1.70816e-11
3.06372e-10
-1.30859e-17
1.17697e-11
-2.52837e-17
1.21974e-17
-3.92846e-17
1.52134e-17
-6.67612e-13
3.47924e-14
-3.01272e-12
4.83256e-13
-3.36613e-12
5.24716e-13
2.21886e-14
-8.65617e-17
-4.945e-11
-3.55735e-11
-1.91613e-10
-2.90432e-12
-3.48956e-10
3.5671e-11
-3.89101e-10
-2.32666e-11
-2.04524e-10
-6.23831e-11
-2.32475e-15
5.22215e-11
-2.34812e-15
3.55139e-17
-8.8229e-14
8.61454e-16
-1.86675e-12
2.84026e-13
-1.09418e-12
3.01791e-14
-2.42049e-14
-3.31356e-15
-6.58557e-16
-9.70349e-16
-6.64518e-11
-8.67154e-13
-3.5671e-11
1.70504e-10
-1.1802e-16
9.28027e-17
-2.27499e-11
-5.1674e-13
-1.16079e-10
3.40157e-11
-8.3776e-15
3.06733e-10
-8.39585e-15
7.96365e-17
-1.24461e-13
4.17353e-15
-4.91589e-14
-6.5907e-15
-1.63201e-14
-5.2416e-16
-2.042e-14
-2.89777e-15
3.84041e-15
1.03049e-14
-2.58818e-11
2.50138e-11
-1.42305e-12
6.10348e-10
-1.42312e-12
1.58869e-16
-2.31611e-11
6.30284e-13
-2.67007e-10
1.79751e-10
-2.51941e-10
2.98073e-10
-4.29391e-15
5.32869e-11
-2.22045e-16
1.01633e-16
-6.93696e-15
1.22169e-16
-3.28106e-14
1.32507e-14
-4.78242e-14
1.95053e-14
2.83421e-15
7.32075e-15
-8.72556e-11
1.1197e-10
-8.20354e-17
8.38647e-10
-1.62267e-16
2.3193e-16
-1.01605e-12
1.64614e-12
-2.84913e-10
1.02636e-10
-2.53652e-10
2.59731e-10
-1.55218e-16
1.2809e-11
-1.84713e-16
1.31127e-16
-2.16456e-16
1.5391e-16
-9.78833e-14
1.10917e-13
5.43172e-14
7.61553e-14
1.29447e-16
5.70261e-14
-1.48223e-10
1.30318e-10
-2.27989e-11
1.05596e-09
-7.29312e-12
1.77068e-11
-6.46788e-12
3.03876e-10
-4.73355e-11
2.62501e-10
-2.93535e-11
5.55639e-11
-1.86828e-11
1.33415e-11
-1.96866e-11
7.00445e-12
-1.63985e-11
1.99596e-11
-4.14934e-16
1.64018e-11
-2.27225e-16
7.59752e-14
1.75817e-16
-2.81793e-16
-1.06827e-10
1.71866e-11
-1.9856e-10
4.36876e-10
-4.01329e-10
1.62814e-10
-4.25896e-10
1.10084e-09
-4.37461e-11
5.91355e-10
-4.93369e-13
3.07457e-12
2.84818e-13
5.40922e-13
1.23291e-12
3.49389e-12
7.95619e-12
1.36774e-11
-1.25215e-10
4.67953e-11
-2.19622e-10
4.80899e-10
2.425e-10
-1.73595e-16
-1.7056e-11
-7.68108e-13
-8.80253e-12
-4.3908e-11
-1.17426e-10
6.85062e-11
-3.48738e-10
1.2899e-09
-7.56512e-11
1.09209e-09
-4.79678e-14
1.7797e-10
-1.37582e-12
1.09823e-13
-7.06411e-13
2.95723e-12
-5.91117e-15
-2.75559e-13
2.31749e-11
2.69763e-12
-3.73894e-10
4.36877e-10
1.45778e-09
-3.00829e-10
-3.58313e-12
8.28902e-13
-2.63849e-12
2.10145e-11
-1.22109e-10
2.51756e-10
-8.88318e-11
5.5867e-10
-3.95684e-11
5.7404e-10
-4.08041e-14
1.05426e-10
-5.7754e-13
8.10225e-13
3.1033e-12
1.41302e-11
3.30428e-12
2.7219e-12
5.56522e-11
1.83856e-11
5.31685e-10
1.92059e-10
5.42253e-10
8.68323e-10
8.2881e-13
9.48866e-17
-4.69773e-12
2.38494e-11
3.75989e-11
7.0976e-10
4.8642e-10
1.44345e-09
2.83889e-10
5.61377e-10
1.57176e-16
3.39527e-10
1.90607e-16
8.09709e-13
2.40349e-16
1.41307e-11
2.7214e-16
2.72139e-12
3.22953e-16
1.83861e-11
6.96667e-12
1.85092e-10
4.84611e-11
5.60829e-10
-4.34158e-18
9.92282e-17
8.86296e-12
1.49864e-11
7.54921e-10
1.44145e-12
1.34465e-09
1.49335e-11
2.36964e-09
1.52274e-10
1.39837e-08
9.6253e-10
4.75956e-08
6.94953e-09
5.10695e-08
4.90092e-09
4.62076e-08
6.68718e-09
1.85011e-08
8.68362e-09
2.10972e-09
2.85289e-09
2.15818e-09
9.6055e-16
5.1401e-10
-2.08632e-10
2.04036e-10
-1.99387e-10
-1.69312e-11
-1.48173e-10
4.44568e-16
-1.99889e-12
1.52273e-10
7.76975e-18
5.01853e-08
2.8579e-10
7.91828e-08
2.53657e-09
8.38461e-08
2.22471e-09
9.14613e-08
7.98464e-10
9.96061e-08
2.55349e-09
9.36913e-08
6.75303e-09
1.47234e-08
2.81143e-09
-9.00684e-17
3.40779e-18
-8.64214e-17
-6.33714e-18
-1.48912e-08
-4.29328e-11
-3.11225e-08
-3.05325e-09
-2.12194e-08
-9.93841e-09
-6.53723e-09
-1.46822e-08
3.85792e-09
-1.04135e-08
3.89319e-09
-4.85819e-11
6.91596e-10
3.1741e-09
-9.12504e-10
1.6041e-09
-8.04513e-10
-1.31645e-10
-8.04513e-10
-6.35532e-16
4.36488e-17
-7.30393e-16
2.52199e-15
-4.18931e-11
-1.03849e-12
-1.20618e-08
-3.16766e-10
-3.90232e-08
-2.50435e-10
-6.12123e-08
-2.49478e-11
-6.14231e-08
-2.50466e-11
-4.03737e-08
-1.68152e-09
-3.44284e-08
-4.87501e-09
-2.78588e-08
-1.59604e-08
-1.1828e-08
-1.61359e-08
-1.26598e-08
1.00317e-14
7.39231e-17
-2.7596e-11
4.38049e-12
-5.3264e-11
-1.63979e-11
-2.58117e-12
-2.85077e-10
-5.17366e-16
-2.53015e-10
-4.7818e-16
-2.49479e-11
-4.30081e-16
-2.50467e-11
-1.68152e-09
-1.49079e-16
-4.78571e-09
-2.82393e-10
-5.60571e-09
-2.88281e-09
-5.37062e-09
-3.39938e-09
-1.68489e-08
6.78722e-14
-6.2013e-14
-9.80404e-10
7.58229e-11
-2.07428e-09
5.95645e-11
-2.20457e-09
-1.54802e-10
-8.03917e-10
-3.63825e-10
-1.72758e-10
-4.05226e-10
-5.35418e-16
-2.35574e-16
-4.34762e-16
-2.83162e-16
-3.0847e-16
-2.82394e-10
-1.54107e-16
-2.88281e-09
-1.80809e-09
-1.5913e-09
-3.07082e-09
-3.74545e-10
6.65546e-12
-2.20738e-09
2.47944e-10
-2.33449e-09
1.86656e-10
-2.41555e-09
-7.37384e-11
-2.39408e-09
-3.85315e-10
-6.72003e-16
-4.93949e-10
-6.14656e-16
-3.08594e-16
2.6674e-14
-2.79809e-14
-6.70726e-10
-8.06816e-11
-1.56018e-09
-3.02635e-09
-2.35716e-10
-3.48166e-09
-3.30654e-09
6.65502e-12
1.33614e-16
-4.03825e-10
3.15205e-11
-1.91842e-09
1.2439e-10
-2.02488e-09
3.27272e-11
-2.09512e-09
-3.15074e-10
-2.29576e-13
-2.84709e-10
-1.52236e-13
-7.71085e-14
1.75509e-15
-1.9089e-13
-7.98424e-11
-6.90319e-13
-2.21676e-09
-3.99237e-10
-8.68618e-10
-6.72208e-09
-6.15664e-09
-1.90846e-16
1.46662e-16
-2.81089e-16
3.15206e-11
-1.76499e-11
1.42042e-10
-4.75575e-10
3.22622e-11
-5.05382e-10
-1.16866e-11
-5.25002e-12
-1.34029e-13
-1.68319e-12
-2.96643e-13
-1.10871e-12
-1.67095e-12
1.74553e-13
-1.10545e-12
-3.99136e-10
-7.96228e-15
-1.91668e-09
-3.08608e-10
-6.17917e-09
-4.28694e-10
1.41724e-09
-4.18358e-10
8.56019e-10
-2.12284e-10
5.24804e-10
-8.82131e-12
1.14823e-10
-4.879e-16
-7.40077e-12
-1.35098e-13
-4.80911e-17
-6.2253e-13
-3.32504e-13
-4.01315e-13
-1.10031e-12
-2.18286e-13
4.6657e-13
-1.00284e-15
-4.73773e-13
-1.43839e-10
-1.64858e-10
-2.56634e-10
1.12274e-09
1.15832e-09
1.08625e-09
8.97012e-10
1.0388e-09
5.67757e-10
2.25964e-10
1.56921e-10
-1.18253e-13
-2.27943e-11
-1.18302e-13
-4.52171e-17
4.35988e-13
-1.60644e-13
3.09138e-13
-1.89757e-15
3.5278e-14
-2.56744e-12
-8.68201e-12
-2.60798e-13
-1.11379e-13
-3.9563e-09
-2.56746e-10
2.29611e-09
1.82903e-11
2.69733e-09
1.83555e-10
1.57013e-09
1.18992e-10
3.43011e-10
1.97447e-11
-1.34304e-13
-1.25166e-12
-4.22063e-14
-9.2865e-14
1.22255e-13
-1.28338e-14
1.20353e-13
-2.9884e-17
3.11107e-10
-4.6165e-10
3.1087e-10
-1.8439e-13
2.27698e-09
-1.16115e-08
-2.04229e-08
1.41973e-11
4.09461e-12
4.41433e-11
3.52547e-11
2.21024e-11
5.53966e-11
4.77813e-12
1.25873e-11
4.42476e-12
-8.09491e-12
1.29978e-14
-7.55446e-14
1.34648e-16
-2.70719e-17
9.04101e-17
-2.40263e-17
1.3913e-09
3.29434e-11
1.3914e-09
-1.09638e-13
1.95359e-08
-6.41001e-09
-8.8703e-10
-7.84618e-11
3.08977e-11
1.29546e-09
2.33791e-11
3.98429e-09
-8.4798e-11
2.6557e-09
1.24521e-10
7.58932e-14
1.92373e-11
2.652e-16
-3.48236e-17
2.03477e-16
-3.91624e-17
1.78044e-16
-3.79052e-17
1.41693e-09
5.8113e-10
1.58821e-09
-1.71569e-10
3.62977e-08
3.70995e-10
3.56347e-08
5.01681e-08
9.0606e-09
-2.67212e-08
5.13994e-08
2.58902e-09
4.75258e-08
5.56824e-10
1.7701e-08
8.62276e-10
-7.76336e-11
2.81526e-10
-5.24058e-13
-7.75783e-11
1.35428e-12
-1.44953e-14
3.70433e-13
3.11769e-14
6.04613e-18
2.40477e-15
1.64569e-09
5.8003e-19
2.90905e-06
2.86432e-07
2.69605e-08
2.77285e-06
9.78537e-09
1.85961e-08
-1.85159e-08
9.20169e-09
2.36774e-09
1.76278e-08
2.51194e-09
1.96485e-08
5.79818e-09
6.13131e-09
4.38464e-09
4.18268e-13
6.22068e-11
-1.36807e-13
-6.90929e-15
4.62942e-13
-4.87426e-13
1.06381e-13
-1.48415e-13
1.06383e-13
-1.3353e-19
3.09734e-06
5.99891e-08
3.68955e-07
3.79193e-06
1.23279e-06
6.25314e-07
-2.03345e-06
4.55919e-07
1.58768e-07
2.35736e-07
-4.99765e-08
1.44596e-07
-1.85206e-07
1.87104e-08
-2.19306e-07
1.89646e-13
4.5487e-09
2.00479e-13
4.70293e-13
4.0125e-12
2.88775e-13
1.69366e-12
-1.39461e-16
1.69366e-12
-2.09302e-19
1.74069e-06
1.19968e-08
3.37164e-07
3.97704e-06
3.51796e-06
6.2307e-07
-3.58811e-06
3.43184e-06
2.49845e-07
3.50044e-06
-4.26786e-08
3.38637e-06
-2.52767e-07
2.30231e-06
-5.10137e-07
4.30915e-07
-6.65142e-07