/*--------------------------------*- C++ -*----------------------------------*\
| =========                 |                                                 |
| \\      /  F ield         | OpenFOAM: The Open Source CFD Toolbox           |
|  \\    /   O peration     | Version:  v1606+                                |
|   \\  /    A nd           | Web:      www.OpenFOAM.com                      |
|    \\/     M anipulation  |                                                 |
\*---------------------------------------------------------------------------*/
FoamFile
{
    version     2.0;
    format      ascii;
    class       volVectorField;
    location    "0.0045";
    object      U;
}
// * * * * * * * * * * * * * * * * * * * * * * * * * * * * * * * * * * * * * //

dimensions      [0 1 -1 0 0 0 0];

internalField   nonuniform List<vector> 
2450
(
(-0.00310442 0.019064 0)
(-0.111776 0.0297284 0)
(-0.198273 0.0531881 0)
(-0.25817 0.0389464 0)
(-0.527259 0.00228693 0)
(-0.285147 -0.0973796 0)
(-0.752337 -0.0921214 0)
(0.385231 -0.622 0)
(2.0603 -0.114856 0)
(2.26558 0.0548373 0)
(2.1504 0.0918622 0)
(2.02027 0.0880647 0)
(1.8889 0.0722571 0)
(1.74953 0.0607245 0)
(1.62528 0.0505157 0)
(1.51713 0.0427691 0)
(1.42144 0.0369248 0)
(1.33551 0.0321236 0)
(1.2589 0.0280048 0)
(1.19011 0.0244734 0)
(1.12808 0.0214517 0)
(1.07185 0.0188626 0)
(1.02063 0.0166357 0)
(0.97374 0.0147117 0)
(0.930642 0.0130417 0)
(0.890897 0.0115863 0)
(0.854142 0.0103134 0)
(0.820069 0.00919607 0)
(0.788397 0.00821228 0)
(0.758869 0.00734345 0)
(0.731238 0.00657353 0)
(0.705266 0.00588892 0)
(0.680727 0.00527787 0)
(0.657409 0.00473035 0)
(0.635118 0.00423781 0)
(0.613682 0.00379284 0)
(0.592951 0.00338933 0)
(0.572802 0.0030221 0)
(0.553134 0.00268683 0)
(0.533869 0.00237989 0)
(0.514946 0.00209819 0)
(0.49632 0.00183936 0)
(0.477955 0.00160133 0)
(0.459825 0.00138191 0)
(0.441905 0.00117978 0)
(0.424173 0.00099345 0)
(0.406608 0.000821518 0)
(0.389185 0.000663452 0)
(0.371883 0.000518066 0)
(0.354676 0.00038341 0)
(0.337542 0.000259412 0)
(0.320457 0.000144489 0)
(0.303398 3.88317e-05 0)
(0.286345 -5.98124e-05 0)
(0.26928 -0.000149688 0)
(0.252192 -0.000229299 0)
(0.235071 -0.000302578 0)
(0.217905 -0.000370185 0)
(0.20069 -0.000430805 0)
(0.183423 -0.000485829 0)
(0.166103 -0.000535332 0)
(0.14873 -0.000579927 0)
(0.131303 -0.000619825 0)
(0.113832 -0.000654358 0)
(0.0963342 -0.000684679 0)
(0.0788114 -0.000710427 0)
(0.0612646 -0.000731556 0)
(0.0437182 -0.000749714 0)
(0.0262306 -0.000755996 0)
(0.0087594 -0.000775077 0)
(0.00457698 0.0736496 0)
(-0.0726246 0.0909712 0)
(-0.150819 0.136182 0)
(-0.241116 0.119715 0)
(-0.597439 0.118334 0)
(-0.365071 0.183384 0)
(-1.48597 -0.116927 0)
(0.274094 0.0731269 0)
(2.245 0.177863 0)
(2.37355 0.273406 0)
(2.17087 0.286382 0)
(1.99788 0.254388 0)
(1.86124 0.212768 0)
(1.7276 0.179308 0)
(1.60719 0.150945 0)
(1.50349 0.127616 0)
(1.41078 0.110313 0)
(1.32658 0.0958563 0)
(1.25124 0.0835065 0)
(1.18355 0.0729646 0)
(1.12246 0.0639674 0)
(1.06703 0.0562653 0)
(1.01647 0.0496409 0)
(0.970142 0.0439151 0)
(0.927513 0.0389428 0)
(0.888164 0.0346071 0)
(0.851748 0.0308129 0)
(0.817964 0.0274813 0)
(0.786541 0.0245468 0)
(0.757226 0.0219543 0)
(0.729779 0.0196564 0)
(0.703966 0.0176126 0)
(0.679564 0.015788 0)
(0.656365 0.0141528 0)
(0.634177 0.0126814 0)
(0.61283 0.0113518 0)
(0.592177 0.0101457 0)
(0.572096 0.0090479 0)
(0.552488 0.00804531 0)
(0.533277 0.00712741 0)
(0.514402 0.006285 0)
(0.49582 0.00551077 0)
(0.477495 0.00479854 0)
(0.4594 0.00414248 0)
(0.441513 0.00353778 0)
(0.423812 0.0029805 0)
(0.406275 0.00246655 0)
(0.38888 0.00199243 0)
(0.371601 0.00155492 0)
(0.354416 0.00115259 0)
(0.337301 0.000780833 0)
(0.320234 0.000438874 0)
(0.303192 0.000122739 0)
(0.286155 -0.000168335 0)
(0.269109 -0.000434849 0)
(0.252038 -0.000675044 0)
(0.234929 -0.000896727 0)
(0.217775 -0.00109837 0)
(0.200573 -0.00127994 0)
(0.183318 -0.00144449 0)
(0.166008 -0.00159209 0)
(0.148644 -0.00172454 0)
(0.131226 -0.001843 0)
(0.113763 -0.00194568 0)
(0.0962693 -0.00203461 0)
(0.0787478 -0.00211203 0)
(0.0611988 -0.00218052 0)
(0.043664 -0.00224788 0)
(0.0261911 -0.00228599 0)
(0.00872806 -0.00230056 0)
(-0.00895711 0.034586 0)
(-0.0744222 0.0833383 0)
(-0.116449 0.183267 0)
(-0.148124 0.278695 0)
(-0.351861 0.24685 0)
(-0.344176 0.514764 0)
(-0.635087 -0.04233 0)
(0.580345 0.72322 0)
(2.08684 0.694016 0)
(2.27103 0.552297 0)
(2.10168 0.481529 0)
(1.94329 0.407646 0)
(1.81337 0.34379 0)
(1.6874 0.290647 0)
(1.57344 0.247942 0)
(1.47646 0.212281 0)
(1.38968 0.182336 0)
(1.3087 0.157748 0)
(1.23599 0.137218 0)
(1.17056 0.119893 0)
(1.11137 0.105172 0)
(1.05751 0.0925814 0)
(1.00827 0.0817467 0)
(0.963028 0.0723717 0)
(0.92132 0.064221 0)
(0.882753 0.0571056 0)
(0.847002 0.0508724 0)
(0.813788 0.0453936 0)
(0.782856 0.0405641 0)
(0.753963 0.0362943 0)
(0.726881 0.032507 0)
(0.701382 0.029136 0)
(0.677252 0.0261248 0)
(0.654287 0.0234243 0)
(0.632302 0.0209929 0)
(0.611132 0.0187947 0)
(0.590633 0.0167997 0)
(0.570688 0.0149827 0)
(0.5512 0.0133228 0)
(0.532095 0.0118026 0)
(0.513317 0.010407 0)
(0.494821 0.00912391 0)
(0.476575 0.00794296 0)
(0.458552 0.00685582 0)
(0.440732 0.00585378 0)
(0.423092 0.00492998 0)
(0.40561 0.00407808 0)
(0.388264 0.00329183 0)
(0.371034 0.00256606 0)
(0.353894 0.00189805 0)
(0.33682 0.00128238 0)
(0.319791 0.000716036 0)
(0.302784 0.000192847 0)
(0.285781 -0.000286241 0)
(0.268767 -0.000726324 0)
(0.251724 -0.00112929 0)
(0.234642 -0.00149684 0)
(0.217517 -0.00183069 0)
(0.200339 -0.00213298 0)
(0.183107 -0.00240586 0)
(0.165819 -0.00265031 0)
(0.148475 -0.00286872 0)
(0.131077 -0.00306163 0)
(0.113633 -0.0032282 0)
(0.0961572 -0.0033716 0)
(0.0786486 -0.00349329 0)
(0.0611039 -0.00359498 0)
(0.0435811 -0.00368748 0)
(0.0261455 -0.00376047 0)
(0.00871691 -0.00378737 0)
(-0.00448746 0.158993 0)
(-0.0391569 0.175056 0)
(-0.0162041 0.308288 0)
(-0.149516 0.297024 0)
(-0.272484 0.371976 0)
(-0.262985 0.67688 0)
(-0.251529 0.188603 0)
(1.18831 0.996769 0)
(2.10836 0.983133 0)
(2.14058 0.762279 0)
(1.99229 0.641424 0)
(1.86302 0.545431 0)
(1.74403 0.461075 0)
(1.63135 0.391408 0)
(1.52871 0.335611 0)
(1.43785 0.289746 0)
(1.35622 0.249084 0)
(1.28145 0.215531 0)
(1.21336 0.187622 0)
(1.15149 0.164131 0)
(1.09513 0.144171 0)
(1.04358 0.127076 0)
(0.996242 0.112337 0)
(0.952594 0.0995575 0)
(0.912225 0.0884264 0)
(0.874794 0.0786925 0)
(0.840014 0.0701521 0)
(0.807634 0.0626352 0)
(0.77742 0.0560006 0)
(0.749147 0.0501281 0)
(0.722599 0.0449134 0)
(0.697563 0.0402671 0)
(0.673832 0.0361126 0)
(0.651212 0.0323832 0)
(0.629527 0.0290223 0)
(0.608616 0.0259815 0)
(0.588345 0.0232198 0)
(0.5686 0.020703 0)
(0.549289 0.0184024 0)
(0.530343 0.0162942 0)
(0.511706 0.0143583 0)
(0.493339 0.0125779 0)
(0.47521 0.0109382 0)
(0.457295 0.00942823 0)
(0.439572 0.0080368 0)
(0.422022 0.00675354 0)
(0.404624 0.00556991 0)
(0.387355 0.00447895 0)
(0.370195 0.00347299 0)
(0.35312 0.0025444 0)
(0.336108 0.00168933 0)
(0.319135 0.000901254 0)
(0.30218 0.000176171 0)
(0.285227 -0.000489914 0)
(0.268258 -0.00110144 0)
(0.251259 -0.001663 0)
(0.23422 -0.00217358 0)
(0.217132 -0.00263837 0)
(0.199992 -0.00305964 0)
(0.182795 -0.00343874 0)
(0.16554 -0.00377802 0)
(0.148228 -0.00407951 0)
(0.130862 -0.00434464 0)
(0.113448 -0.00457312 0)
(0.0959983 -0.0047697 0)
(0.0785174 -0.00493362 0)
(0.0609962 -0.00506507 0)
(0.0434887 -0.00516964 0)
(0.0260827 -0.00525343 0)
(0.00869892 -0.00529388 0)
(-0.0766882 0.031772 0)
(-0.134813 0.0505356 0)
(-0.256579 0.169977 0)
(-0.315873 0.243092 0)
(0.0216063 0.592533 0)
(-0.0292552 0.522087 0)
(0.725065 0.790571 0)
(1.59413 1.26823 0)
(1.89854 1.13785 0)
(1.9533 0.92324 0)
(1.86325 0.77456 0)
(1.75919 0.656779 0)
(1.65828 0.558864 0)
(1.56145 0.477093 0)
(1.47169 0.410527 0)
(1.38993 0.354838 0)
(1.31545 0.307375 0)
(1.24723 0.267314 0)
(1.18459 0.233503 0)
(1.1271 0.204819 0)
(1.0743 0.180313 0)
(1.02566 0.159237 0)
(0.980733 0.141 0)
(0.939103 0.125142 0)
(0.90044 0.111292 0)
(0.864463 0.0991527 0)
(0.830929 0.0884803 0)
(0.799622 0.0790707 0)
(0.770333 0.0707516 0)
(0.742861 0.0633764 0)
(0.717005 0.0568181 0)
(0.692566 0.0509669 0)
(0.669353 0.0457282 0)
(0.647182 0.0410198 0)
(0.625886 0.0367719 0)
(0.605315 0.0329245 0)
(0.58534 0.0294269 0)
(0.565857 0.0262368 0)
(0.546778 0.0233184 0)
(0.528038 0.0206424 0)
(0.509588 0.0181842 0)
(0.491389 0.0159224 0)
(0.473414 0.0138385 0)
(0.45564 0.0119181 0)
(0.438046 0.0101477 0)
(0.420615 0.00851492 0)
(0.403326 0.00700898 0)
(0.386158 0.00562055 0)
(0.369091 0.00434006 0)
(0.352102 0.00315885 0)
(0.33517 0.00206954 0)
(0.318271 0.00106617 0)
(0.301386 0.000143626 0)
(0.284497 -0.000704702 0)
(0.267589 -0.0014829 0)
(0.250647 -0.00219651 0)
(0.233662 -0.00284792 0)
(0.216626 -0.00343977 0)
(0.199535 -0.00397532 0)
(0.182385 -0.00445731 0)
(0.165175 -0.00488791 0)
(0.147906 -0.0052693 0)
(0.130581 -0.00560546 0)
(0.113206 -0.00589491 0)
(0.095794 -0.00614169 0)
(0.0783505 -0.00634688 0)
(0.0608654 -0.00651055 0)
(0.0433909 -0.00663526 0)
(0.0260215 -0.00672401 0)
(0.00867985 -0.00676877 0)
(-0.117273 0.379879 0)
(-0.241379 0.43341 0)
(-0.271098 0.538596 0)
(-0.108875 0.257538 0)
(0.0151214 0.106367 0)
(0.554949 0.524934 0)
(1.28596 1.24825 0)
(1.64681 1.29344 0)
(1.79336 1.19662 0)
(1.78959 1.01895 0)
(1.72469 0.866483 0)
(1.646 0.741434 0)
(1.5635 0.635536 0)
(1.48271 0.54692 0)
(1.40639 0.47299 0)
(1.3347 0.410573 0)
(1.26872 0.357675 0)
(1.20758 0.312646 0)
(1.15087 0.27424 0)
(1.0983 0.241367 0)
(1.04954 0.213084 0)
(1.00426 0.188624 0)
(0.962141 0.167364 0)
(0.922879 0.148806 0)
(0.886228 0.132547 0)
(0.851974 0.118256 0)
(0.819924 0.105661 0)
(0.789897 0.0945324 0)
(0.761717 0.0846738 0)
(0.735205 0.0759176 0)
(0.710181 0.0681177 0)
(0.686464 0.0611476 0)
(0.663876 0.0548972 0)
(0.642247 0.0492714 0)
(0.621423 0.0441886 0)
(0.601263 0.0395792 0)
(0.581649 0.0353839 0)
(0.562483 0.0315533 0)
(0.543687 0.0280457 0)
(0.525201 0.0248271 0)
(0.506979 0.0218683 0)
(0.488986 0.0191445 0)
(0.471199 0.0166334 0)
(0.453598 0.0143184 0)
(0.436163 0.012183 0)
(0.418878 0.0102131 0)
(0.401724 0.00839594 0)
(0.384681 0.00671949 0)
(0.367729 0.00517338 0)
(0.350846 0.00374757 0)
(0.334012 0.00243289 0)
(0.317206 0.0012219 0)
(0.300407 0.000107616 0)
(0.283598 -0.000916343 0)
(0.266764 -0.00185585 0)
(0.249892 -0.00271643 0)
(0.232975 -0.00350153 0)
(0.216003 -0.00421468 0)
(0.198973 -0.00485956 0)
(0.181881 -0.00543964 0)
(0.164727 -0.00595737 0)
(0.147509 -0.00641601 0)
(0.130235 -0.00681975 0)
(0.11291 -0.00716603 0)
(0.0955454 -0.00746005 0)
(0.0781478 -0.00770437 0)
(0.0607075 -0.0078988 0)
(0.0432758 -0.00804587 0)
(0.0259511 -0.0081467 0)
(0.00865678 -0.00819776 0)
(-0.155189 0.378789 0)
(-0.29154 0.371049 0)
(-0.577807 0.161101 0)
(-0.492149 0.174701 0)
(0.491951 0.749616 0)
(1.26027 1.29419 0)
(1.48305 1.45701 0)
(1.58803 1.39372 0)
(1.63955 1.24444 0)
(1.62822 1.07775 0)
(1.58518 0.929972 0)
(1.52723 0.802652 0)
(1.46316 0.69341 0)
(1.39878 0.60157 0)
(1.33535 0.523021 0)
(1.27463 0.456599 0)
(1.21755 0.399918 0)
(1.16381 0.351295 0)
(1.11332 0.309468 0)
(1.06595 0.273368 0)
(1.02156 0.242088 0)
(0.979944 0.21487 0)
(0.940914 0.191095 0)
(0.904284 0.170253 0)
(0.869888 0.151925 0)
(0.837574 0.135766 0)
(0.807202 0.121483 0)
(0.77863 0.108832 0)
(0.751714 0.0975992 0)
(0.7263 0.087601 0)
(0.70223 0.0786772 0)
(0.679341 0.0706875 0)
(0.657472 0.0635098 0)
(0.636469 0.0570383 0)
(0.616189 0.0511821 0)
(0.596505 0.0458633 0)
(0.57731 0.0410159 0)
(0.558513 0.0365842 0)
(0.540047 0.0325221 0)
(0.521856 0.0287911 0)
(0.503901 0.0253583 0)
(0.48615 0.0221955 0)
(0.468584 0.0192787 0)
(0.451186 0.0165883 0)
(0.433938 0.0141058 0)
(0.416825 0.0118146 0)
(0.39983 0.0097003 0)
(0.382934 0.00774908 0)
(0.366118 0.00594954 0)
(0.34936 0.00428967 0)
(0.332643 0.00275927 0)
(0.315945 0.00134965 0)
(0.299248 5.2284e-05 0)
(0.282534 -0.00113947 0)
(0.265788 -0.00223415 0)
(0.249001 -0.0032338 0)
(0.232164 -0.00414562 0)
(0.215268 -0.004974 0)
(0.19831 -0.00572289 0)
(0.181287 -0.00639569 0)
(0.164198 -0.00699589 0)
(0.147043 -0.00752754 0)
(0.12983 -0.00799366 0)
(0.112565 -0.0083933 0)
(0.0952554 -0.00873152 0)
(0.0779118 -0.00901195 0)
(0.0605244 -0.00923481 0)
(0.0431441 -0.00940222 0)
(0.0258714 -0.00951471 0)
(0.00863015 -0.00957133 0)
(-0.10173 0.618488 0)
(-0.290037 0.806528 0)
(-0.129909 1.04233 0)
(0.566632 1.42472 0)
(1.08688 1.70563 0)
(1.31327 1.68166 0)
(1.40991 1.55652 0)
(1.44871 1.42159 0)
(1.47718 1.26217 0)
(1.475 1.10683 0)
(1.44846 0.965632 0)
(1.40856 0.840994 0)
(1.3621 0.733783 0)
(1.31225 0.641036 0)
(1.26142 0.561252 0)
(1.21162 0.492962 0)
(1.16343 0.434112 0)
(1.11715 0.383201 0)
(1.07296 0.339041 0)
(1.03092 0.300626 0)
(0.991049 0.267103 0)
(0.953276 0.237755 0)
(0.917525 0.211981 0)
(0.88371 0.189283 0)
(0.851741 0.169245 0)
(0.821532 0.151516 0)
(0.792989 0.135798 0)
(0.766011 0.121837 0)
(0.740484 0.109409 0)
(0.71628 0.0983215 0)
(0.693265 0.0884026 0)
(0.671293 0.0795031 0)
(0.650223 0.0714919 0)
(0.629916 0.064255 0)
(0.610244 0.0576943 0)
(0.591093 0.0517256 0)
(0.572367 0.0462777 0)
(0.553986 0.0412903 0)
(0.535891 0.0367133 0)
(0.518034 0.0325045 0)
(0.50038 0.028628 0)
(0.482904 0.0250519 0)
(0.46559 0.021756 0)
(0.448423 0.018714 0)
(0.431388 0.0159045 0)
(0.414471 0.0133101 0)
(0.397658 0.0109154 0)
(0.38093 0.00870496 0)
(0.364269 0.00666541 0)
(0.347656 0.00478302 0)
(0.331072 0.00304881 0)
(0.314499 0.00145119 0)
(0.297918 -1.9065e-05 0)
(0.281312 -0.00137084 0)
(0.26467 -0.0026091 0)
(0.247982 -0.00374014 0)
(0.231236 -0.00477158 0)
(0.214427 -0.00570823 0)
(0.197552 -0.00655441 0)
(0.180608 -0.0073142 0)
(0.163595 -0.00799174 0)
(0.146512 -0.00859162 0)
(0.12937 -0.00911431 0)
(0.112172 -0.00956411 0)
(0.0949269 -0.00994383 0)
(0.0776449 -0.0102578 0)
(0.0603181 -0.0105067 0)
(0.0429972 -0.0106925 0)
(0.0257834 -0.0108161 0)
(0.00860077 -0.0108778 0)
(0.0916587 1.73155 0)
(0.269327 1.7823 0)
(0.453822 1.89435 0)
(0.719597 1.96991 0)
(0.970852 1.88083 0)
(1.13372 1.72231 0)
(1.22944 1.55469 0)
(1.28852 1.40175 0)
(1.32347 1.25271 0)
(1.33093 1.10922 0)
(1.31866 0.977486 0)
(1.29501 0.860623 0)
(1.2631 0.757406 0)
(1.22623 0.666914 0)
(1.18729 0.588346 0)
(1.14752 0.520023 0)
(1.1078 0.460472 0)
(1.06876 0.408472 0)
(1.03075 0.36298 0)
(0.994023 0.323095 0)
(0.958693 0.288042 0)
(0.924827 0.257163 0)
(0.892446 0.229897 0)
(0.861551 0.20577 0)
(0.832122 0.184382 0)
(0.804128 0.165389 0)
(0.777523 0.148496 0)
(0.75224 0.133445 0)
(0.728197 0.120011 0)
(0.705291 0.107994 0)
(0.683409 0.097217 0)
(0.662427 0.087525 0)
(0.642221 0.0787808 0)
(0.622668 0.0708652 0)
(0.603656 0.0636747 0)
(0.585085 0.0571213 0)
(0.566871 0.0511296 0)
(0.548946 0.0456363 0)
(0.531258 0.0405881 0)
(0.513768 0.0359406 0)
(0.496446 0.0316561 0)
(0.479276 0.0277003 0)
(0.462244 0.0240509 0)
(0.445333 0.0206806 0)
(0.428533 0.0175651 0)
(0.411835 0.0146892 0)
(0.395224 0.0120331 0)
(0.378683 0.00958073 0)
(0.362196 0.00731724 0)
(0.345744 0.00522745 0)
(0.329312 0.00330213 0)
(0.312878 0.00152848 0)
(0.296426 -0.000102515 0)
(0.279945 -0.00160213 0)
(0.26342 -0.00297427 0)
(0.24684 -0.00422904 0)
(0.230197 -0.00537224 0)
(0.213486 -0.00640945 0)
(0.196705 -0.00734568 0)
(0.179851 -0.00818557 0)
(0.162922 -0.00893432 0)
(0.145921 -0.00959731 0)
(0.128858 -0.010172 0)
(0.111736 -0.0106675 0)
(0.0945622 -0.0110855 0)
(0.0773496 -0.0114296 0)
(0.0600908 -0.011702 0)
(0.0428362 -0.0119045 0)
(0.0256872 -0.0120392 0)
(0.00856875 -0.0121059 0)
(0.100814 1.96813 0)
(0.302757 1.94559 0)
(0.51049 1.91538 0)
(0.70681 1.87222 0)
(0.852489 1.76144 0)
(0.975831 1.63447 0)
(1.07947 1.49605 0)
(1.14408 1.35878 0)
(1.18351 1.2227 0)
(1.19927 1.09246 0)
(1.19964 0.973155 0)
(1.18839 0.864774 0)
(1.16838 0.767486 0)
(1.1432 0.681427 0)
(1.11455 0.605463 0)
(1.08377 0.538478 0)
(1.0519 0.479439 0)
(1.01967 0.427385 0)
(0.987588 0.381445 0)
(0.955994 0.340849 0)
(0.925124 0.30492 0)
(0.895135 0.27307 0)
(0.866136 0.244792 0)
(0.838198 0.219648 0)
(0.811362 0.197262 0)
(0.785647 0.177308 0)
(0.761045 0.159499 0)
(0.737525 0.143581 0)
(0.715031 0.129331 0)
(0.693485 0.116549 0)
(0.672794 0.105056 0)
(0.652855 0.0946936 0)
(0.633561 0.0853217 0)
(0.614807 0.0768184 0)
(0.596497 0.0690775 0)
(0.578545 0.062008 0)
(0.560879 0.0555328 0)
(0.543442 0.0495869 0)
(0.526192 0.0441154 0)
(0.509099 0.0390716 0)
(0.492137 0.0344167 0)
(0.475297 0.0301178 0)
(0.458568 0.0261439 0)
(0.441936 0.0224704 0)
(0.425395 0.0190765 0)
(0.408938 0.0159419 0)
(0.392549 0.0130451 0)
(0.376214 0.010369 0)
(0.359916 0.00789689 0)
(0.343641 0.00561906 0)
(0.327374 0.00351787 0)
(0.311095 0.0015821 0)
(0.294789 -0.000197882 0)
(0.278442 -0.00183167 0)
(0.262045 -0.00332924 0)
(0.245585 -0.0046975 0)
(0.229057 -0.00594309 0)
(0.212455 -0.00707229 0)
(0.195777 -0.00809072 0)
(0.179021 -0.00900368 0)
(0.162185 -0.00981704 0)
(0.145275 -0.0105356 0)
(0.1283 -0.011158 0)
(0.11126 -0.0116947 0)
(0.0941654 -0.0121469 0)
(0.0770293 -0.0125179 0)
(0.0598444 -0.0128115 0)
(0.0426617 -0.0130291 0)
(0.0255831 -0.0131735 0)
(0.00853425 -0.0132451 0)
(0.0910988 1.90364 0)
(0.274976 1.87442 0)
(0.453157 1.82003 0)
(0.608466 1.73896 0)
(0.745824 1.63931 0)
(0.863769 1.54112 0)
(0.951319 1.42232 0)
(1.0147 1.30081 0)
(1.05702 1.17954 0)
(1.08133 1.06402 0)
(1.09096 0.956342 0)
(1.08934 0.856926 0)
(1.07977 0.767042 0)
(1.06423 0.686212 0)
(1.04436 0.613817 0)
(1.02151 0.549193 0)
(0.996725 0.491612 0)
(0.970773 0.440348 0)
(0.944226 0.394711 0)
(0.917505 0.354065 0)
(0.89092 0.317841 0)
(0.864703 0.285528 0)
(0.839028 0.25668 0)
(0.814024 0.230905 0)
(0.789783 0.207858 0)
(0.766365 0.187233 0)
(0.743796 0.16876 0)
(0.722073 0.152195 0)
(0.701164 0.13732 0)
(0.681014 0.123937 0)
(0.661551 0.11187 0)
(0.642691 0.100961 0)
(0.624343 0.0910692 0)
(0.606421 0.082072 0)
(0.588843 0.0738627 0)
(0.571538 0.0663496 0)
(0.554447 0.0594548 0)
(0.537526 0.0531129 0)
(0.52074 0.0472682 0)
(0.504067 0.0418729 0)
(0.48749 0.0368868 0)
(0.471001 0.0322799 0)
(0.454595 0.0280176 0)
(0.438264 0.0240738 0)
(0.422003 0.0204298 0)
(0.405803 0.0170598 0)
(0.389651 0.0139442 0)
(0.373535 0.0110662 0)
(0.357446 0.00840671 0)
(0.341366 0.00595536 0)
(0.325276 0.00369416 0)
(0.309164 0.00161127 0)
(0.293014 -0.000305132 0)
(0.276815 -0.00206198 0)
(0.260556 -0.00367182 0)
(0.244228 -0.00514205 0)
(0.227824 -0.00647973 0)
(0.211341 -0.00769154 0)
(0.194775 -0.00878365 0)
(0.178126 -0.00976228 0)
(0.161391 -0.0106331 0)
(0.144581 -0.011399 0)
(0.1277 -0.0120645 0)
(0.110748 -0.0126374 0)
(0.0937397 -0.0131198 0)
(0.076686 -0.0135149 0)
(0.0595811 -0.0138265 0)
(0.0424762 -0.0140574 0)
(0.0254725 -0.0142101 0)
(0.00849735 -0.0142861 0)
(0.0802629 1.74946 0)
(0.239771 1.72753 0)
(0.392802 1.68309 0)
(0.529634 1.61744 0)
(0.652918 1.53777 0)
(0.758641 1.44239 0)
(0.839116 1.33944 0)
(0.901324 1.23354 0)
(0.946729 1.12842 0)
(0.976068 1.02657 0)
(0.992564 0.930004 0)
(0.999121 0.840382 0)
(0.99769 0.758004 0)
(0.989995 0.682833 0)
(0.977546 0.614657 0)
(0.961576 0.553097 0)
(0.943065 0.497672 0)
(0.922779 0.44786 0)
(0.901313 0.403135 0)
(0.87913 0.362996 0)
(0.856591 0.326976 0)
(0.833979 0.294649 0)
(0.811517 0.265632 0)
(0.789377 0.239579 0)
(0.767691 0.216181 0)
(0.746549 0.195161 0)
(0.726007 0.176265 0)
(0.706085 0.159263 0)
(0.686772 0.143947 0)
(0.668034 0.130125 0)
(0.649816 0.117625 0)
(0.632051 0.106292 0)
(0.614669 0.095988 0)
(0.597598 0.0865917 0)
(0.580772 0.0779977 0)
(0.564134 0.0701153 0)
(0.547639 0.0628671 0)
(0.531252 0.0561884 0)
(0.514949 0.0500234 0)
(0.498715 0.0443252 0)
(0.482542 0.0390537 0)
(0.466426 0.0341761 0)
(0.45036 0.0296606 0)
(0.434347 0.0254808 0)
(0.41838 0.0216127 0)
(0.402452 0.0180337 0)
(0.386555 0.0147238 0)
(0.370676 0.0116659 0)
(0.354806 0.00884248 0)
(0.33893 0.00623493 0)
(0.323031 0.00383014 0)
(0.307098 0.00161593 0)
(0.291118 -0.000420184 0)
(0.275077 -0.00228788 0)
(0.258967 -0.00399781 0)
(0.24278 -0.00555845 0)
(0.22651 -0.00697743 0)
(0.210153 -0.0082618 0)
(0.193708 -0.00941887 0)
(0.177173 -0.0104549 0)
(0.160549 -0.0113747 0)
(0.143845 -0.0121815 0)
(0.127063 -0.0128845 0)
(0.110205 -0.0134885 0)
(0.0932889 -0.0139957 0)
(0.0763238 -0.0144111 0)
(0.0593037 -0.0147381 0)
(0.0422803 -0.0149806 0)
(0.0253558 -0.0151408 0)
(0.00845852 -0.0152204 0)
(0.0698226 1.60657 0)
(0.208075 1.58717 0)
(0.341379 1.54857 0)
(0.462938 1.49202 0)
(0.571291 1.42446 0)
(0.665893 1.34227 0)
(0.742801 1.25442 0)
(0.803844 1.16381 0)
(0.850128 1.07245 0)
(0.882953 0.983017 0)
(0.904814 0.897613 0)
(0.917376 0.817128 0)
(0.922242 0.74209 0)
(0.920899 0.672763 0)
(0.914636 0.60916 0)
(0.904536 0.55111 0)
(0.891496 0.498326 0)
(0.876244 0.450457 0)
(0.85937 0.407123 0)
(0.841352 0.367943 0)
(0.822577 0.332549 0)
(0.803362 0.300594 0)
(0.78396 0.271757 0)
(0.764575 0.245742 0)
(0.745367 0.222279 0)
(0.726449 0.201116 0)
(0.707899 0.182022 0)
(0.689755 0.164783 0)
(0.672025 0.149201 0)
(0.654691 0.135095 0)
(0.637717 0.122299 0)
(0.621051 0.110662 0)
(0.60464 0.100053 0)
(0.588428 0.0903515 0)
(0.572364 0.0814567 0)
(0.556405 0.0732798 0)
(0.540518 0.0657455 0)
(0.524679 0.0587903 0)
(0.508874 0.0523599 0)
(0.493095 0.0464087 0)
(0.477338 0.0408982 0)
(0.461606 0.0357899 0)
(0.445898 0.0310574 0)
(0.430215 0.0266741 0)
(0.414555 0.0226143 0)
(0.398914 0.0188561 0)
(0.383283 0.0153792 0)
(0.367655 0.0121644 0)
(0.352016 0.00919544 0)
(0.336355 0.00645432 0)
(0.320659 0.00392511 0)
(0.304916 0.00159684 0)
(0.289113 -0.000542843 0)
(0.27324 -0.00250691 0)
(0.257289 -0.00430367 0)
(0.241251 -0.00594239 0)
(0.225124 -0.0074312 0)
(0.208902 -0.00877765 0)
(0.192584 -0.00999036 0)
(0.176172 -0.0110743 0)
(0.159667 -0.0120349 0)
(0.143073 -0.012877 0)
(0.126394 -0.0136108 0)
(0.109638 -0.0142401 0)
(0.0928183 -0.0147676 0)
(0.0759451 -0.0151993 0)
(0.0590136 -0.0155394 0)
(0.0420759 -0.0157911 0)
(0.0252343 -0.0159573 0)
(0.0084181 -0.0160397 0)
(0.0609063 1.46736 0)
(0.181463 1.45071 0)
(0.297399 1.41817 0)
(0.405749 1.37062 0)
(0.503509 1.31332 0)
(0.588878 1.24531 0)
(0.660791 1.17089 0)
(0.719439 1.09323 0)
(0.765995 1.01421 0)
(0.801284 0.93632 0)
(0.826708 0.860856 0)
(0.843623 0.788791 0)
(0.853344 0.720805 0)
(0.85708 0.657286 0)
(0.855904 0.598387 0)
(0.850751 0.544092 0)
(0.842419 0.494261 0)
(0.831582 0.448683 0)
(0.818805 0.407099 0)
(0.804561 0.369235 0)
(0.789246 0.33481 0)
(0.77319 0.303552 0)
(0.756668 0.275198 0)
(0.739901 0.249501 0)
(0.723066 0.226225 0)
(0.706293 0.205149 0)
(0.689675 0.186064 0)
(0.673264 0.168772 0)
(0.657083 0.153089 0)
(0.64113 0.138845 0)
(0.625381 0.125883 0)
(0.609803 0.114059 0)
(0.594356 0.103247 0)
(0.579 0.0933337 0)
(0.563698 0.0842211 0)
(0.548421 0.0758244 0)
(0.533147 0.0680717 0)
(0.517864 0.0609013 0)
(0.502566 0.0542607 0)
(0.487251 0.0481054 0)
(0.471922 0.0423968 0)
(0.456583 0.037105 0)
(0.441244 0.0321966 0)
(0.425903 0.0276454 0)
(0.410562 0.0234281 0)
(0.395217 0.0195215 0)
(0.379864 0.0159051 0)
(0.364494 0.012559 0)
(0.349097 0.00946678 0)
(0.333661 0.00661139 0)
(0.318176 0.00397885 0)
(0.302633 0.00155507 0)
(0.287017 -0.000672302 0)
(0.27132 -0.00271654 0)
(0.255535 -0.00458577 0)
(0.239655 -0.00628946 0)
(0.223678 -0.00783605 0)
(0.207597 -0.0092339 0)
(0.191414 -0.0104925 0)
(0.175131 -0.0116141 0)
(0.158749 -0.0126081 0)
(0.142271 -0.013479 0)
(0.125701 -0.0142369 0)
(0.10905 -0.014886 0)
(0.0923311 -0.0154288 0)
(0.0755536 -0.0158736 0)
(0.0587142 -0.0162233 0)
(0.0418651 -0.0164819 0)
(0.025109 -0.0166527 0)
(0.0083765 -0.0167371 0)
(0.0532495 1.339 0)
(0.158868 1.3254 0)
(0.2613 1.29828 0)
(0.358179 1.25934 0)
(0.446052 1.21023 0)
(0.523534 1.15306 0)
(0.590769 1.08997 0)
(0.647222 1.02365 0)
(0.693265 0.955672 0)
(0.729629 0.887715 0)
(0.757309 0.821074 0)
(0.777343 0.756733 0)
(0.790751 0.695388 0)
(0.798492 0.637485 0)
(0.801451 0.583266 0)
(0.800418 0.53282 0)
(0.796093 0.48612 0)
(0.789087 0.443061 0)
(0.779927 0.403487 0)
(0.769067 0.367211 0)
(0.756898 0.334029 0)
(0.743752 0.303736 0)
(0.729911 0.276121 0)
(0.715604 0.250981 0)
(0.701016 0.228116 0)
(0.686288 0.207331 0)
(0.671522 0.18844 0)
(0.65678 0.171263 0)
(0.642098 0.155631 0)
(0.627483 0.141385 0)
(0.612929 0.128379 0)
(0.598414 0.116479 0)
(0.583913 0.105563 0)
(0.5694 0.0955276 0)
(0.554852 0.0862786 0)
(0.540253 0.0777361 0)
(0.525592 0.0698322 0)
(0.510866 0.0625081 0)
(0.496077 0.0557145 0)
(0.481229 0.0494086 0)
(0.466337 0.0435528 0)
(0.451405 0.038119 0)
(0.436438 0.033074 0)
(0.421446 0.0283924 0)
(0.406432 0.0240505 0)
(0.391391 0.0200255 0)
(0.376322 0.0162975 0)
(0.361218 0.0128465 0)
(0.346071 0.00965632 0)
(0.33087 0.00670815 0)
(0.315605 0.00399318 0)
(0.300268 0.00149242 0)
(0.284845 -0.000805405 0)
(0.26933 -0.00291384 0)
(0.253719 -0.00484041 0)
(0.238005 -0.00659576 0)
(0.222183 -0.00818816 0)
(0.206249 -0.00962634 0)
(0.190207 -0.0109188 0)
(0.17406 -0.0120698 0)
(0.157804 -0.0130882 0)
(0.141446 -0.0139809 0)
(0.124989 -0.0147564 0)
(0.108447 -0.0154196 0)
(0.0918324 -0.0159741 0)
(0.0751525 -0.0164276 0)
(0.0584078 -0.0167835 0)
(0.0416495 -0.0170463 0)
(0.0249809 -0.0172199 0)
(0.00833396 -0.0173057 0)
(0.0473084 1.2219 0)
(0.140702 1.21063 0)
(0.23135 1.18843 0)
(0.317745 1.15606 0)
(0.397247 1.11457 0)
(0.468643 1.0665 0)
(0.531417 1.0132 0)
(0.585162 0.956369 0)
(0.630079 0.897546 0)
(0.666705 0.838154 0)
(0.695742 0.779344 0)
(0.717951 0.722017 0)
(0.734107 0.666835 0)
(0.744966 0.614262 0)
(0.751246 0.564592 0)
(0.753611 0.517982 0)
(0.752666 0.474487 0)
(0.748954 0.434083 0)
(0.742958 0.396694 0)
(0.735107 0.362206 0)
(0.725774 0.330482 0)
(0.715285 0.301368 0)
(0.703916 0.274704 0)
(0.691898 0.250325 0)
(0.679417 0.228061 0)
(0.666618 0.207746 0)
(0.653607 0.189213 0)
(0.640455 0.172302 0)
(0.627206 0.156859 0)
(0.613877 0.142737 0)
(0.600473 0.129801 0)
(0.586986 0.117926 0)
(0.573404 0.107002 0)
(0.559713 0.0969297 0)
(0.545905 0.0876226 0)
(0.531972 0.0790068 0)
(0.517918 0.0710184 0)
(0.503745 0.0636027 0)
(0.489465 0.0567132 0)
(0.475089 0.0503105 0)
(0.460631 0.0443596 0)
(0.446104 0.0388249 0)
(0.431517 0.0336829 0)
(0.41688 0.0289083 0)
(0.402196 0.0244766 0)
(0.387466 0.0203661 0)
(0.372687 0.0165565 0)
(0.357855 0.0130288 0)
(0.342961 0.00976667 0)
(0.328001 0.00675194 0)
(0.312964 0.00397234 0)
(0.297838 0.0014121 0)
(0.282614 -0.000942053 0)
(0.267289 -0.00309463 0)
(0.251857 -0.00506261 0)
(0.236312 -0.00685598 0)
(0.220651 -0.0084823 0)
(0.20487 -0.00994889 0)
(0.188974 -0.0112629 0)
(0.172965 -0.0124355 0)
(0.156841 -0.0134707 0)
(0.140605 -0.0143786 0)
(0.124265 -0.0151642 0)
(0.107834 -0.0158343 0)
(0.091325 -0.0163957 0)
(0.0747463 -0.0168535 0)
(0.0580981 -0.0172128 0)
(0.0414317 -0.0174781 0)
(0.0248515 -0.0176528 0)
(0.00829103 -0.0177393 0)
(0.0419922 1.11554 0)
(0.125387 1.106 0)
(0.20673 1.08772 0)
(0.284336 1.06085 0)
(0.356517 1.02632 0)
(0.422185 0.985702 0)
(0.480646 0.940227 0)
(0.531576 0.891303 0)
(0.575062 0.840274 0)
(0.611438 0.788328 0)
(0.641182 0.736456 0)
(0.664843 0.685452 0)
(0.683004 0.635934 0)
(0.696255 0.588357 0)
(0.705176 0.543037 0)
(0.710318 0.500177 0)
(0.712199 0.459885 0)
(0.711299 0.4222 0)
(0.708053 0.387106 0)
(0.702857 0.354548 0)
(0.696062 0.324439 0)
(0.687978 0.296674 0)
(0.67887 0.271133 0)
(0.668963 0.247682 0)
(0.658438 0.226182 0)
(0.647441 0.206489 0)
(0.636079 0.188459 0)
(0.624426 0.171947 0)
(0.612532 0.156815 0)
(0.600425 0.14293 0)
(0.588118 0.130168 0)
(0.575615 0.118415 0)
(0.562916 0.107571 0)
(0.550019 0.0975434 0)
(0.536928 0.0882537 0)
(0.523648 0.0796343 0)
(0.510187 0.0716263 0)
(0.49656 0.0641796 0)
(0.482784 0.0572503 0)
(0.468875 0.0508014 0)
(0.454851 0.0448004 0)
(0.440728 0.0392129 0)
(0.426522 0.0340174 0)
(0.412241 0.0291888 0)
(0.397891 0.0247037 0)
(0.383473 0.0205413 0)
(0.368987 0.0166812 0)
(0.354431 0.0131057 0)
(0.339797 0.00979712 0)
(0.325079 0.00673978 0)
(0.310269 0.00391755 0)
(0.295357 0.00131912 0)
(0.280342 -0.00106889 0)
(0.265214 -0.00325222 0)
(0.249962 -0.0052471 0)
(0.234589 -0.00706521 0)
(0.219094 -0.00871221 0)
(0.203472 -0.0101952 0)
(0.187725 -0.0115233 0)
(0.171855 -0.0127062 0)
(0.155864 -0.0137498 0)
(0.139755 -0.0146636 0)
(0.123536 -0.0154535 0)
(0.107218 -0.0161252 0)
(0.0908152 -0.0166881 0)
(0.0743376 -0.0171468 0)
(0.0577858 -0.0175068 0)
(0.0412123 -0.0177725 0)
(0.0247212 -0.0179472 0)
(0.00824768 -0.0180338 0)
(0.0377885 1.01903 0)
(0.112888 1.01129 0)
(0.186213 0.995973 0)
(0.256356 0.973377 0)
(0.322108 0.944258 0)
(0.382551 0.909665 0)
(0.437023 0.870686 0)
(0.485215 0.828483 0)
(0.527111 0.784161 0)
(0.562893 0.738709 0)
(0.592872 0.692973 0)
(0.617435 0.647651 0)
(0.637017 0.603304 0)
(0.652074 0.560368 0)
(0.66307 0.519164 0)
(0.670463 0.479919 0)
(0.674693 0.442777 0)
(0.676178 0.407822 0)
(0.675309 0.375081 0)
(0.672442 0.344543 0)
(0.667904 0.316165 0)
(0.661981 0.289878 0)
(0.654925 0.265593 0)
(0.646948 0.243206 0)
(0.638226 0.222604 0)
(0.628896 0.203663 0)
(0.619066 0.186257 0)
(0.608812 0.17026 0)
(0.598188 0.155548 0)
(0.58723 0.142001 0)
(0.575959 0.129507 0)
(0.564389 0.117965 0)
(0.552531 0.107283 0)
(0.540396 0.0973775 0)
(0.527995 0.0881779 0)
(0.515344 0.0796223 0)
(0.502462 0.0716573 0)
(0.489369 0.0642379 0)
(0.476086 0.0573239 0)
(0.462639 0.0508796 0)
(0.449043 0.044873 0)
(0.435321 0.0392819 0)
(0.421494 0.0340768 0)
(0.407567 0.0292337 0)
(0.39355 0.0247315 0)
(0.379445 0.0205508 0)
(0.365254 0.0166719 0)
(0.350974 0.0130773 0)
(0.336599 0.00974782 0)
(0.322125 0.00666979 0)
(0.307547 0.00382924 0)
(0.292856 0.00121443 0)
(0.278048 -0.0011858 0)
(0.263115 -0.00338553 0)
(0.248049 -0.00539684 0)
(0.232851 -0.00722296 0)
(0.217526 -0.00887431 0)
(0.202064 -0.0103623 0)
(0.186468 -0.0116949 0)
(0.170742 -0.0128771 0)
(0.154887 -0.0139198 0)
(0.138905 -0.0148315 0)
(0.122806 -0.0156198 0)
(0.106602 -0.0162897 0)
(0.0903057 -0.0168501 0)
(0.0739299 -0.0173063 0)
(0.0574747 -0.0176638 0)
(0.0409933 -0.0179272 0)
(0.0245911 -0.0181006 0)
(0.00820469 -0.0181863 0)
(0.0342574 0.931064 0)
(0.102328 0.924496 0)
(0.16883 0.911453 0)
(0.232631 0.892245 0)
(0.292809 0.86746 0)
(0.348615 0.837877 0)
(0.399466 0.804387 0)
(0.445054 0.767925 0)
(0.485292 0.729392 0)
(0.520254 0.689611 0)
(0.550128 0.6493 0)