/*--------------------------------*- C++ -*----------------------------------*\
| =========                 |                                                 |
| \\      /  F ield         | OpenFOAM: The Open Source CFD Toolbox           |
|  \\    /   O peration     | Version:  v1606+                                |
|   \\  /    A nd           | Web:      www.OpenFOAM.com                      |
|    \\/     M anipulation  |                                                 |
\*---------------------------------------------------------------------------*/
FoamFile
{
    version     2.0;
    format      ascii;
    class       surfaceScalarField;
    location    "8";
    object      alphaPhi;
}
// * * * * * * * * * * * * * * * * * * * * * * * * * * * * * * * * * * * * * //

dimensions      [0 3 -1 0 0 0 0];

internalField   nonuniform List<scalar> 
9981
(
3.79132
0.00799107
3.75409
0.0372338
3.69451
0.0595779
3.61584
0.0786737
3.50915
0.10669
3.37398
0.13517
3.22962
0.144354
3.08618
0.143445
2.92522
0.160953
2.73288
0.192344
2.5248
0.208085
2.31534
0.209458
2.09068
0.224661
1.83103
0.25965
1.54016
0.290873
1.23361
0.306542
0.918429
0.315186
0.594685
0.323744
0.265423
0.329263
0.265423
3.64961
0.0215851
3.61164
0.0752047
3.55247
0.118753
3.47338
0.157763
3.36874
0.211336
3.24364
0.260263
3.11038
0.27762
2.97007
0.283755
2.8182
0.312817
2.64958
0.360966
2.46316
0.394505
2.27793
0.394692
2.10523
0.397356
1.91135
0.453525
1.65554
0.546686
1.34201
0.620067
1.00539
0.651811
0.674517
0.654615
0.356781
0.646999
0.622203
3.52102
0.0325467
3.48453
0.111693
3.42638
0.176895
3.34915
0.234999
3.24754
0.312945
3.1218
0.386006
2.98978
0.409638
2.85678
0.416755
2.69871
0.470887
2.51958
0.540097
2.34565
0.568431
2.15383
0.586513
1.90888
0.642309
1.63248
0.729926
1.36357
0.815589
1.10592
0.877717
0.843052
0.914684
0.565946
0.931722
0.278599
0.934347
0.900802
3.39516
0.042833
3.35949
0.147365
3.30444
0.231943
3.22911
0.310332
3.12871
0.413343
3.01116
0.503558
2.87947
0.541327
2.73665
0.559578
2.58576
0.621772
2.40614
0.719724
2.1936
0.780966
1.96522
0.814889
1.71101
0.896519
1.43431
1.00662
1.17191
1.07799
0.938006
1.11162
0.713645
1.13904
0.476438
1.16893
0.227188
1.1836
1.12799
3.27363
0.0526516
3.23939
0.181611
3.18417
0.287159
3.11414
0.380359
3.01946
0.508029
2.90469
0.618327
2.78904
0.656972
2.66865
0.679973
2.54192
0.748501
2.40545
0.856198
2.24309
0.943324
2.08837
0.969604
1.98092
1.00397
1.86597
1.12157
1.66027
1.28369
1.36089
1.41101
1.02305
1.47688
0.694338
1.49765
0.373552
1.50438
1.50154
3.15581
0.0626632
3.12359
0.213831
3.07088
0.339872
3.00127
0.449973
2.91397
0.59533
2.80024
0.732052
2.68674
0.770478
2.58093
0.785773
2.44189
0.887543
2.28754
1.01055
2.1554
1.07547
2.0071
1.1179
1.81571
1.19536
1.6001
1.33718
1.35852
1.52527
1.08541
1.68413
0.794516
1.76777
0.502178
1.78998
0.23163
1.77493
1.73317
3.04273
0.0723442
3.01055
0.246016
2.96184
0.388579
2.89207
0.519746
2.80318
0.684216
2.70183
0.833403
2.58518
0.887132
2.46962
0.901327
2.34408
1.01308
2.18925
1.16538
2.02019
1.24453
1.8267
1.3114
1.58509
1.43697
1.3275
1.59477
1.10639
1.74638
0.919592
1.87092
0.737784
1.94958
0.539801
1.98797
0.311155
2.00358
2.04433
2.93425
0.0811533
2.90294
0.277327
2.85362
0.437901
2.79057
0.582792
2.70314
0.771654
2.60246
0.934081
2.49775
0.991838
2.38968
1.0094
2.28101
1.12176
2.14288
1.30351
1.96545
1.42195
1.77483
1.50202
1.56341
1.64838
1.32184
1.83635
1.06988
1.99834
0.831893
2.10891
0.591024
2.19045
0.348334
2.23066
0.0865842
2.26533
2.13091
2.82888
0.0898989
2.80219
0.304021
2.75314
0.48695
2.68902
0.646912
2.60967
0.851003
2.51593
1.02783
2.42922
1.07855
2.3383
1.10033
2.23619
1.22386
2.115
1.4247
1.96775
1.5692
1.81515
1.65462
1.67376
1.78977
1.5101
2.00001
1.31793
2.19051
1.09703
2.3298
0.877513
2.40996
0.622205
2.48596
0.375317
2.51222
2.50623
2.72703
0.0988399
2.70467
0.32638
2.65703
0.534596
2.58919
0.714748
2.52074
0.919459
2.44751
1.10106
2.36733
1.15873
2.28004
1.18761
2.17808
1.32583
2.0683
1.53448
1.94789
1.68961
1.82188
1.78063
1.7009
1.91076
1.5655
2.1354
1.36308
2.39293
1.11887
2.57401
0.833507
2.69533
0.587464
2.73201
0.32184
2.77784
2.82807
2.62905
0.107748
2.60731
0.348127
2.56455
0.577351
2.50012
0.779183
2.43726
0.982314
2.37705
1.16127
2.29717
1.23861
2.20658
1.2782
2.11324
1.41917
2.02243
1.62529
1.91874
1.7933
1.79996
1.89941
1.66857
2.04215
1.52269
2.28128
1.35004
2.56558
1.10386
2.82019
0.844977
2.95422
0.507715
3.06927
0.194315
3.09124
3.02238
2.53495
0.116255
2.51432
0.368763
2.47757
0.614095
2.41848
0.83828
2.35501
1.04578
2.2989
1.21738
2.22955
1.30796
2.14774
1.36
2.07664
1.49027
2.00805
1.69387
1.9245
1.87686
1.80413
2.01978
1.65525
2.19103
1.49407
2.44246
1.28968
2.76997
1.09014
3.01973
0.809311
3.23504
0.614143
3.26444
0.329718
3.37566
3.3521
2.44512
0.123479
2.4276
0.386276
2.39389
0.647806
2.33714
0.895035
2.27448
1.10843
2.22639
1.26548
2.18037
1.35398
2.12445
1.41591
2.07649
1.53823
2.03027
1.7401
1.96129
1.94584
1.84571
2.13535
1.69536
2.34138
1.50316
2.63465
1.32329
2.94985
1.04841
3.29461
0.832735
3.45072
0.431422
3.66575
0.178008
3.62908
3.53011
2.35969
0.128283
2.34562
0.400343
2.3109
0.682525
2.25493
0.951001
2.20118
1.16218
2.17155
1.29511
2.15555
1.36998
2.13248
1.43898
2.10627
1.56444
2.07803
1.76835
2.02057
2.00329
1.9222
2.23372
1.77237
2.49122
1.60789
2.79913
1.3806
3.17714
1.21555
3.45965
0.910377
3.75589
0.803253
3.77287
0.418807
4.01352
3.94892
2.27829
0.129776
2.26558
0.413059
2.22715
0.720955
2.17508
1.00306
2.14022
1.19704
2.13772
1.29762
2.1525
1.3552
2.16071
1.43077
2.15677
1.56839
2.14219
1.78293
2.09949
2.04598
2.01296
2.32026
1.88682
2.61735
1.7143
2.97165
1.53822
3.35322
1.26147
3.7364
1.07203
3.94533
0.619181
4.22573
0.542147
4.09056
4.49106
2.19981
0.128082
2.18516
0.427708
2.14363
0.762481
2.10275
1.04394
2.09496
1.20484
2.12332
1.26925
2.16658
1.31195
2.20187
1.39547
2.21985
1.55041
2.22045
1.78232
2.19404
2.07239
2.12633
2.38797
2.01662
2.72707
1.8699
3.11837
1.67365
3.54947
1.437
3.97305
1.06133
4.321
0.803022
4.48404
0.0355836
4.85799
4.52665
2.12305
0.124397
2.10419
0.446575
2.0637
0.802971
2.04204
1.06559
2.06552
1.18136
2.12414
1.21063
2.19266
1.24343
2.25103
1.3371
2.29018
1.51127
2.30876
1.76375
2.30192
2.07923
2.25854
2.43135
2.17403
2.81157
2.06122
3.23118
1.89377
3.71692
1.68942
4.1774
1.41008
4.60033
0.982385
4.91174
0.847389
4.99299
5.37404
2.04739
0.120453
2.024
0.469964
1.99071
0.836261
1.99453
1.06177
2.0496
1.1263
2.13505
1.12518
2.22484
1.15364
2.30258
1.25936
2.36142
1.45243
2.40003
1.72514
2.41664
2.06261
2.4028
2.44518
2.35526
2.85912
2.27339
3.31305
2.16237
3.82794
1.96353
4.37625
1.66716
4.8967
1.24818
5.33071
0.479435
5.76174
5.85347
1.97262
0.118077
1.94639
0.49619
1.9268
0.855854
1.95933
1.02923
2.04307
1.04257
2.14998
1.01827
2.25595
1.04767
2.34882
1.16648
2.42484
1.37641
2.48411
1.66587
2.52668
2.02005
2.54777
2.4241
2.54207
2.86481
2.5063
3.34882
2.43968
3.89456
2.31023
4.5057
2.0423
5.16463
1.64133
5.73168
1.27452
6.12855
7.12799
1.89894
0.118796
1.8731
0.522024
1.87271
0.856244
1.93383
0.968111
2.04063
0.935776
2.16194
0.896954
2.27766
0.93195
2.3804
1.06374
2.46997
1.28685
2.54873
1.58711
2.61869
1.95008
2.67889
2.3639
2.72417
2.81954
2.75461
3.31837
2.76541
3.88376
2.73135
4.53975
2.65941
5.23657
2.19027
6.20083
1.46286
6.85596
8.59085
-2.92523
2.92523
-3.08068
0.155446
-2.21218
-0.77547
-1.68857
-0.494951
-2.28107
0.592493
-0.931023
-0.802544
2.17337
-3.1044
8.29177
-5.30859
11.1349
-3.743
3.90062
-0.766467
1.91636
0.00408109
5.60105
0.170388
7.80871
0.708083
7.07191
0.736804
6.18434
0.321904
5.60376
-0.0295992
5.67277
-0.116431
1.28579
-1.26367e-06
0.965193
-1.68653e-06
1.1591
-1.03331e-06
0.378934
-5.97605e-05
-4.57486e-07
0.00182767
1.40065e-16
-4.57486e-07
1.21413e-16
6.93595e-18
1.21248e-16
1.6557e-19
1.1949
-0.0119067
1.18933
-0.0397921
1.16929
-0.0187763
1.13304
-0.000460319
1.10472
-0.000741766
0.0206058
0.00240587
1.49769e-11
-4.93851e-05
1.09596e-11
4.01727e-12
8.61169e-12
4.47797e-12
1.41839e-12
1.20177e-12
9.9327e-15
4.26781e-14
4.57514e-16
1.03481e-16
2.74548e-17
5.14859e-18
2.17432e-18
3.54995e-19
1.52631e-19
2.23589e-20
8.44773e-21
1.13452e-21
3.76649e-22
4.72232e-23
1.39612e-23
1.65935e-24
4.37988e-25
4.99959e-26
1.17212e-26
1.30013e-27
2.6869e-28
2.92882e-29
5.29391e-30
5.73421e-31
8.99094e-32
9.78468e-33
1.31865e-33
1.45787e-34
1.67044e-35
1.89784e-36
1.82451e-37
2.15655e-38
1.71157e-39
2.13297e-40
1.37046e-41
1.82769e-42
9.28098e-44
1.34775e-44
5.24699e-46
8.47653e-47
2.43119e-48
4.481e-49
8.97721e-51
1.96692e-51
2.53753e-53
6.85695e-54
5.09269e-56
1.88759e-56
3.7081e-59
-0.628371
0.839614
-0.578948
-0.0760778
-1.42106
-1.60622e-17
-2.35589
0.003736
-2.2981
-0.00733941
-1.48547
-2.18158
1.20105
-8.84131
5.29735
-9.40489
6.45078
-7.74773
1.40514
-2.01052
1.37885
-0.0235305
5.18267
0.327916
7.51987
0.88662
7.32073
0.93594
3.61467
0.204787
0.116431
-0.0208115
1.79336e-16
-5.70771e-18
1.58113e-16
-1.26367e-06
1.70211e-16
-1.68653e-06
1.71645e-16
-1.03331e-06
-5.83341e-05
-1.42635e-06
0.000246373
2.1043e-05
1.76608e-05
2.56764e-06
0.0291148
-0.0290971
0.581401
-0.0848098
0.281156
-0.130503
0.0213768
-0.0793976
0.000460249
-0.000242663
1.72814e-07
-1.77523e-08
-0.000741815
-3.66559e-09
0.0041433
-1.67003e-05
-1.40432e-06
0.000591994
-3.23767e-11
-1.40429e-06
5.65413e-11
5.00199e-11
2.00248e-11
2.07208e-11
1.67144e-13
1.40864e-12
6.1945e-17
3.37064e-15
3.44316e-17
1.26489e-17
2.56031e-18
8.23359e-19
1.30099e-19
3.76019e-20
6.296e-21
1.6693e-21
2.83418e-22
7.01543e-23
1.12914e-23
2.64878e-24
3.93324e-25
8.85853e-26
1.19334e-26
2.61117e-27
3.13903e-28
6.74933e-29
7.12795e-30
1.52288e-30
1.3927e-31
2.98931e-32
2.33555e-33
5.09242e-34
3.3535e-35
7.51422e-36
4.11026e-37
9.58275e-38
4.28219e-39
1.05285e-39
3.7694e-41
9.92132e-42
2.77944e-43
7.96907e-44
1.69577e-45
5.4105e-46
8.40992e-48
3.06399e-48
3.30079e-50
1.42771e-50
9.84594e-53
5.27033e-53
2.07793e-55
1.51545e-55
3.10054e-58
-0.0454763
1.19644
-1.27585e-16
-0.0160819
-2.20221e-16
5.36418e-17
0.003736
2.57055e-16
-1.78741
-0.0363188
-2.49031
-5.63631
0.802474
-12.1341
3.59186
-12.1943
0.864289
-3.88688
0.20111
-0.276774
0.16694
-0.0357708
0.76383
-0.00574908
1.19735
-1.14001e-06
1.04934
0
0.124145
0
-3.71463e-06
-4.40431e-05
-3.89448e-06
1.79848e-07
1.18686e-05
6.38496e-07
1.4674e-05
-9.28087e-06
1.89953e-05
1.20478e-05
1.33859e-05
1.53727e-05
2.32635e-05
9.52792e-07
0.0571337
-0.0570976
0.921697
-0.11196
1.10028
-0.167655
0.924847
-0.0508093
0.0660481
-0.0204012
1.61563e-07
-4.42816e-08
-8.96678e-08
3.09938e-09
2.62751e-07
8.4841e-08
-1.65471e-05
-6.35449e-10
0.000104123
-1.86459e-07
-1.03791e-08
1.28176e-05
2.42902e-13
-1.03221e-08
1.68076e-11
1.08184e-11
6.59047e-13
2.246e-12
4.01292e-16
2.72664e-14
3.69339e-17
1.97844e-17
3.32825e-18
1.57197e-18
1.85751e-19
7.91207e-20
8.04507e-21
3.15014e-21
3.09719e-22
1.13365e-22
1.08945e-23
3.78196e-24
3.46373e-25
1.15503e-25
9.82778e-27
3.18534e-27
2.46022e-28
7.8385e-29
5.37793e-30
1.70311e-30
1.01838e-31
3.24084e-32
1.66129e-33
5.37186e-34
2.32532e-35
7.72908e-36
2.78257e-37
9.62592e-38
2.83447e-39
1.03436e-39
2.44362e-41
9.54917e-42
1.76815e-43
7.52942e-44
1.061e-45
5.02917e-46
5.18799e-48
2.80982e-48
2.01384e-50
1.29347e-50
5.95656e-53
4.74564e-53
1.25335e-55
1.35157e-55
2.75479e-58
-0.153688
1.39822
-0.167343
0.0563845
0.0134861
0.219428
0.0135242
-3.81057e-05
-1.35865
-0.0944717
-1.26328
-9.926
0.365973
-13.7634
2.79009
-10.0298
0.273953
-0.323881
-0.00281544
-2.95369e-06
0.0115221
-4.36382e-05
1.14001e-06
-1.88284e-11
7.70344e-17
1.82751e-17
7.38002e-17
1.34857e-17
7.38547e-17
4.27712e-18
-1.6329e-05
-2.77142e-05
0.000328145
0.000174864
0.00103302
0.000245242
0.00109145
0.00011298
0.00116316
0.000113756
0.000261156
-0.00109599
0.00530815
-0.0050553
0.824789
-0.0484883
0.987003
-0.00044498
0.570959
-0.00307829
0.0204012
-1.89994e-08
1.10966e-16
-8.28585e-18
-3.00526e-08
-1.4229e-08
2.94624e-07
1.78133e-07
1.43587e-07
8.88186e-08
6.63398e-09
2.0671e-08
-1.79373e-07
-4.93466e-12
1.2406e-06
-1.21449e-09
-1.90235e-11
9.64791e-08
8.31352e-13
-1.0531e-11
1.08715e-12
4.24135e-13
7.18995e-15
6.45597e-14
1.7355e-16
1.2072e-16
5.74792e-18
3.54899e-18
2.71531e-19
1.51767e-19
1.09238e-20
5.62612e-21
3.55138e-22
1.71223e-22
1.01324e-23
4.637e-24
2.66634e-25
1.17278e-25
6.48352e-27
2.77293e-27
1.43246e-28
6.02413e-29
2.83001e-30
1.18318e-30
4.94e-32
2.07577e-32
7.54851e-34
3.22338e-34
1.00204e-35
4.39915e-36
1.14794e-37
5.24587e-38
1.12754e-39
5.43626e-40
9.42602e-42
4.86752e-42
6.64428e-44
3.73969e-44
3.89925e-46
2.44336e-46
1.87111e-48
1.34013e-48
7.15106e-51
6.06979e-51
2.08847e-53
2.20124e-53
4.35545e-56
6.18816e-56
1.24954e-58
-0.11907
1.18321
-0.0323005
0.0289732
-3.71585e-06
0.263019
-1.50147e-05
0.000249623
-0.516352
-0.0352291
-0.478868
-7.28271
0.184842
-4.81935
0.269556
-6.61903
5.83387e-08
-0.0543219
1.53042e-06
-2.54861e-06
1.88284e-11
-4.21044e-05
6.15182e-17
-2.56309e-18
4.14583e-17
3.64973e-17
4.49494e-17
1.18322e-17
4.69043e-17
4.84626e-19
0.00474541
1.53741e-05
0.00400569
0.000817199
0.0024712
0.00028323
0.00271521
4.20064e-05
0.138841
0.00102461
0.140383
-0.000250362
0.142948
-3.1369e-18
0.0115743
-2.88546e-10
0.00307829
-6.84837e-11
6.38053e-17
-8.6541e-18
5.55622e-17
-1.89994e-08
5.1194e-08
-5.1194e-08
1.04888e-06
7.56004e-08
5.64879e-07
3.67333e-07
3.12183e-09
1.55732e-07
-1.60469e-10
2.45507e-10
5.02969e-11
2.88869e-10
-1.1715e-09
2.00446e-11
1.00062e-08
-1.2296e-09
-1.87178e-12
3.44385e-10
1.27188e-14
1.15062e-13
1.45443e-15
1.78716e-15
7.91319e-17
6.71558e-17
4.73157e-18
3.58512e-18
2.32939e-19
1.60377e-19
8.90471e-21
5.66325e-21
2.74932e-22
1.63923e-22
7.23388e-24
4.09756e-24
1.68044e-25
9.15373e-26
3.51302e-27
1.86141e-27
6.68115e-29
3.48181e-29
1.16013e-30
6.01148e-31
1.83025e-32
9.53296e-33
2.59394e-34
1.37317e-34
3.25866e-36
1.77369e-36
3.58351e-38
2.03049e-38
3.41173e-40
2.03975e-40
2.78291e-42
1.78224e-42
1.92292e-44
1.34247e-44
1.10994e-46
8.62819e-47
5.25212e-49
4.66727e-49
1.9833e-51
2.08793e-51
5.73306e-54
7.4974e-54
1.18518e-56
2.08515e-56
4.17044e-59
-0.166533
-0.00460063
-0.127425
0.0572797
-0.00529825
0.0439504
-0.00234566
-0.000682347
-0.0174902
-0.0445298
-0.00946817
-0.0243764
-0.000582703
-0.170499
0.250597
-11.5298
-0.000188886
-0.040786
-1.29582e-05
-0.000174796
3.85844e-05
-2.28183e-05
0.000261718
-0.000223133
0.00390013
-7.03229e-05
0.00404259
-0.000105504
0.0042153
-0.00020014
0.00428544
-2.52955e-05
0.00159011
0.000222266
-0.000105088
-1.07696e-05
0.000101543
1.78194e-05
0.00025036
-5.56978e-06
1.4289e-12
-1.89536e-09
5.35741e-17
-5.19645e-11
4.71468e-17
-2.88546e-10
4.21408e-17
-6.84837e-11
4.53048e-17
-1.01145e-17
4.96857e-07
-2.06541e-08
7.32325e-07
-2.07792e-08
6.84231e-07
2.15453e-07
3.11291e-07
2.40595e-07
-2.54943e-10
2.16567e-08
1.54977e-12
1.02387e-11
1.49303e-11
3.81151e-11
1.42501e-12
2.05239e-11
7.64351e-10
1.24113e-10
1.19851e-11
6.18546e-11
2.17175e-15
5.27516e-13
3.02557e-16
3.41534e-16
2.07927e-17
2.07172e-17
1.13039e-18
1.01055e-18
5.20692e-20
4.24476e-20
1.97904e-21
1.49378e-21
6.26527e-23
4.43988e-23
1.7026e-24
1.1473e-24
4.08357e-26
2.64773e-26
8.80935e-28
5.55813e-28
1.72421e-29
1.07022e-29
3.05805e-31
1.88764e-31
4.87485e-33
3.02504e-33
6.90862e-35
4.35764e-35
8.61194e-37
5.58559e-37
9.35397e-39
6.316e-39
8.77674e-41
6.25343e-41
7.05105e-43
5.38203e-43
4.79977e-45
3.99429e-45
2.73124e-47
2.53103e-47
1.27517e-49
1.351e-49
4.75522e-52
5.96715e-52
1.35872e-54
2.11824e-54
2.77809e-57
5.82177e-57
1.15109e-59
-0.0467267
0.0421261
-0.0122425
0.142368
-0.00234918
-0.00010253
-0.0291365
0.0113493
-0.00366691
-0.0555027
-0.00510262
-0.0321192
0.086507
-1.4303
-0.00236245
-13.8578
-0.000232791
-6.29232e-08
-1.32118e-06
-0.000159093
1.84411e-05
-8.32839e-05
0.000374297
-0.00030246
0.000386922
-0.000119979
0.000642713
-0.000190132
0.00122574
-0.000262515
0.00107122
-0.00010891
0.000127838
-2.0503e-05
1.25374e-06
1.62142e-07
9.26607e-06
-1.28677e-06
5.92651e-07
-1.87802e-07
-1.76343e-08
4.20936e-09
4.76882e-09
1.66244e-09
2.69974e-09
8.08171e-10
1.9528e-10
-5.74685e-13
2.03613e-10
-8.33548e-12
1.61578e-07
-3.60685e-11
1.79527e-07
-2.55941e-10
1.40709e-07
3.29964e-08
6.87929e-09
-1.74021e-11
2.50326e-11
1.65984e-13
2.74417e-12
1.08197e-11
2.13671e-11
4.9945e-11
4.91782e-11
1.04153e-10
5.35267e-11
1.51023e-11
3.0618e-12
3.50959e-12
9.41294e-16
3.87639e-14
4.13991e-17
5.3213e-17
3.35715e-18
3.82792e-18
2.14287e-19
2.20134e-19
1.02564e-20
9.63792e-21
3.91371e-22
3.41237e-22
1.25734e-23
1.03066e-23
3.525e-25
2.75007e-25
8.80575e-27
6.61424e-27
1.97872e-28
1.44683e-28
4.00073e-30
2.87862e-30
7.23625e-32
5.17883e-32
1.16122e-33
8.35573e-34
1.63981e-35
1.19949e-35
2.02316e-37
1.52185e-37
2.1668e-39
1.69691e-39
2.00127e-41
1.65391e-41
1.58193e-43
1.40067e-43
1.05982e-45
1.02317e-45
5.93905e-48
6.38534e-48
2.73279e-50
3.35929e-50
1.00513e-52
1.46328e-52
2.83499e-55
5.12787e-55
5.72446e-58
1.39141e-57
2.71673e-60
-0.0208212
0.0629473
0.00388065
0.323952
-0.00722096
0.00335016
-0.0177931
0.00638867
0.000911726
-0.00162911
-0.13198
0.0303403
-0.494688
-11.4172
-8.86465e-07
-11.84
-9.49388e-07
-3.14541e-19
-5.69754e-05
-5.20966e-05
-0.000379142
-0.00104782
-5.26295e-05
-0.00215841
1.78101e-05
-0.00175839
3.44233e-05
-2.43559e-05
4.16942e-05
-8.95079e-05
0.000107593
-3.30282e-05
2.55212e-05
-6.46244e-06
-1.43119e-06
7.8096e-07
2.52187e-07
-5.82687e-08
2.60423e-07
-5.10077e-08
-4.86363e-09
6.29605e-09
1.48027e-10
2.34579e-10
2.72424e-11
1.06605e-11
7.78882e-13
6.15449e-15
4.06305e-12
-4.68423e-15
-3.19956e-11
-8.01107e-15
6.16645e-11
1.77406e-15
1.73777e-11
5.39028e-15
2.01015e-15
4.07385e-14
6.70207e-15
9.24795e-14
5.00147e-12
1.89813e-11
1.47734e-11
5.32641e-11
1.80216e-11
2.91459e-11
6.55792e-13
6.26225e-13
1.40343e-14
1.1414e-14
2.35097e-17
1.04853e-16
1.60846e-17
2.31616e-17
1.04355e-18
1.33758e-18
5.26571e-20
6.10097e-20
2.29376e-21
2.43733e-21
8.48083e-23
8.37679e-23
2.70505e-24
2.51513e-24
7.61234e-26
6.74222e-26
1.91693e-27
1.63561e-27
4.3356e-29
3.60263e-29
8.77452e-31
7.17679e-31
1.57797e-32
1.284e-32
2.50338e-34
2.04838e-34
3.48152e-36
2.8962e-36
4.22146e-38
3.61153e-38
4.43973e-40
3.95467e-40
4.02685e-42
3.78538e-42
3.12745e-44
3.14998e-44
2.0602e-46
2.26271e-46
1.13617e-48
1.38977e-48
5.14944e-51
7.20208e-51
1.86708e-53
3.09246e-53
5.19549e-56
1.06926e-55
1.03551e-58
2.86369e-58
5.52026e-61
-0.0627759
0.132676
-0.00644355
0.929302
-0.0043497
0.00165913
0.00214648
0.0019736
0.000517372
-1.13722e-16
-0.814122
-0.621066
-0.597544
-12.795
-1.05437e-05
-8.95381e-18
-1.05437e-05
-3.85622e-17
-0.000260178
-2.53043e-05
-0.000861341
-0.00161975
-0.000711446
-0.00270806
-0.000134461
-0.00193562
-4.32712e-05
-0.00112245
-4.6092e-06
-0.000119359
9.56767e-07
-3.89011e-05
2.88258e-06
2.40796e-06
-4.58563e-07
1.81297e-06
-2.38285e-08
5.75373e-08
-3.64166e-10
-1.15361e-11
1.17367e-12
-1.49429e-12
4.21998e-13
1.75319e-12
5.9281e-15
1.22203e-13
-1.6664e-15
1.62728e-14
-4.93512e-15
-3.56511e-15
-6.07395e-15
-3.07842e-15
-7.58667e-15
2.34508e-15
-1.34943e-14
1.05522e-14
-1.00746e-13
7.84313e-14
-4.59113e-13
2.66732e-12
2.09328e-12
1.66041e-11
5.10805e-12
1.33318e-11
3.66825e-13
6.04999e-13
1.30984e-15
2.60403e-15
4.50791e-17
1.07424e-16
3.88319e-17
7.06798e-17
3.33228e-18
5.31385e-18
2.03949e-19
2.90124e-19
1.05795e-20
1.3637e-20
4.56923e-22
5.41254e-22
1.66746e-23
1.83888e-23
5.29009e-25
5.49792e-25
1.49013e-26
1.47644e-26
3.75976e-28
3.5908e-28
8.49019e-30
7.90008e-30
1.70639e-31
1.56337e-31
3.03227e-33
2.76446e-33
4.73621e-35
4.34265e-35
6.4709e-37
6.03272e-37
7.7007e-39
7.38384e-39
7.94777e-41
7.93507e-41
7.07708e-43
7.45722e-43
5.39996e-45
6.09702e-45
3.4978e-47
4.30682e-47
1.89851e-49
2.60363e-49
8.47639e-52
1.32922e-51
3.03019e-54
5.62728e-54
8.32057e-57
1.92014e-56
1.63741e-59
5.07795e-59
9.66991e-62
-0.0522779
0.185985
-0.0483332
1.00851
-0.0019736
-0.00412914
-5.99876e-17
1.65421e-16
0.000278791
-0.000278791
-0.900851
-2.87789
-6.97852e-19
-12.4631
-4.6092e-18
-3.23634e-19
1.68345e-07
-1.68345e-07
-0.000105703
2.44746e-06
-0.000639194
-1.5638e-13
-0.00112669
-0.000112678
-0.00121025
-0.00151218
-0.000535772
-0.000869463
-0.000100695
-5.91607e-05
-3.41263e-06
-1.39759e-08
-9.85692e-07
5.0515e-10
-5.75373e-08
2.02018e-09
-6.91944e-14
6.10745e-14
-1.16002e-11
7.66662e-14
-2.43546e-13
4.13793e-12
-3.66756e-14
9.85975e-14
-1.47863e-14
4.44725e-14
-1.27477e-14
2.22492e-14
-1.17138e-14
4.47641e-15
-8.63631e-15
1.65953e-15
-9.49098e-15
4.46712e-15
-1.19389e-14
1.03842e-14
-2.01686e-13
1.04343e-13
-5.65962e-13
1.53574e-12
3.06317e-13
2.45818e-12
1.49427e-13
2.55335e-13
4.46018e-16
1.29104e-15
1.0367e-16
2.96612e-16
4.00275e-17
9.38275e-17
6.06864e-18
1.2136e-17
5.20611e-19
9.11779e-19
3.41945e-20
5.34823e-20
1.78305e-21
2.5309e-21
7.62841e-23
9.96517e-23
2.78193e-24
3.38748e-24
8.89701e-26
1.02197e-25
2.53115e-27
2.77389e-27
6.42365e-29
6.7895e-29
1.44913e-30
1.4929e-30
2.89009e-32
2.93255e-32
5.06965e-34
5.11999e-34
7.79011e-36
7.91388e-36
1.04519e-37
1.07973e-37
1.22067e-39
1.29707e-39
1.23653e-41
1.36821e-41
1.08132e-43
1.26285e-43
8.10939e-46
1.01489e-45
5.16777e-48
7.05342e-48
2.76225e-50
4.19945e-50
1.21575e-52
2.11358e-52
4.28872e-55
8.82976e-55
1.16328e-57
2.97646e-57
2.26342e-60
7.78382e-60
1.46714e-62
0.00619049
0.185532
-0.00964263
0.939285
-0.00112448
0.137369
-0.00112448
1.14099e-16
-0.01792
-0.0928843
-0.821199
-4.40922
-5.44105e-08
-4.59493
-5.44105e-08
-5.30472e-19
-8.23927e-07
5.19175e-09
-7.36576e-17
-1.6515e-13
-2.5055e-17
-1.56435e-13
-0.000112678
-8.90264e-17
-0.000121301
-1.22171e-08
-5.49249e-05
-6.98553e-06
-7.94773e-09
-2.04881e-05
-2.19234e-08
-1.07542e-13
-2.02029e-09
3.57585e-10
-9.97926e-14
1.17265e-14
-1.11269e-13
1.00572e-13
-3.96905e-13
2.38428e-13
-4.68728e-14
2.75116e-14
-1.70345e-14
1.70061e-14
-9.59867e-15
1.29566e-14
-8.17331e-15
7.72409e-15
-8.01064e-15
4.16172e-15
-6.5378e-15
3.0021e-15
-5.33845e-15
3.21856e-15
-6.81476e-15
4.14034e-15
-1.10921e-13
1.77778e-14
-4.88138e-14
9.50307e-14
6.17951e-15
2.65808e-14
1.74404e-16
4.79685e-16
4.22169e-17
1.80546e-16
1.9382e-17
6.15681e-17
6.26972e-18
1.61431e-17
8.56155e-19
1.87191e-18
7.55957e-20
1.44534e-19
4.93319e-21
8.424e-21
2.5424e-22
3.94288e-22
1.08977e-23
1.55688e-23
4.02904e-25
5.37043e-25
1.31056e-26
1.64924e-26
3.77578e-28
4.53624e-28
9.62572e-30
1.11593e-29
2.16317e-31
2.44535e-31
4.26889e-33
4.75459e-33
7.3763e-35
8.17895e-35
1.11367e-36
1.24236e-36
1.46654e-38
1.66386e-38
1.68089e-40
1.96178e-40
1.67186e-42
2.03205e-42
1.4367e-44
1.84323e-44
1.05989e-46
1.45726e-46
6.65162e-49
9.97464e-49
3.50564e-51
5.85592e-51
1.52336e-53
2.91005e-53
5.31344e-56
1.20208e-55
1.42741e-58
4.01377e-58
2.756e-61
1.04174e-60
1.95325e-63
0.0175687
0.225282
-0.0344655
0.337454
-1.16008e-17
0.127691
2.03075e-19
9.618e-17
-0.291188
-0.174292
-0.141348
-4.34631
-2.18292e-09
-1.94922e-06
-2.18292e-09
-2.04701e-17
-2.35751e-16
-6.52888e-10
-1.65063e-13
-2.48147e-16
9.48557e-15
9.93796e-12
-1.84013e-17
9.38085e-15
-1.60923e-17
-1.22171e-08
-6.98553e-06
-1.7083e-17
-2.51676e-09
-1.24158e-12
-2.51671e-09
-2.81267e-13
-1.33806e-13
-3.93575e-14
-9.62843e-14
-1.26799e-16
-1.06896e-13
4.1939e-14
-3.65475e-15
4.90469e-14
-3.08037e-15
2.73739e-16
-1.81577e-15
6.92325e-16
-1.2725e-15
5.35201e-16
-1.41411e-15
4.81926e-16
-1.74602e-15
4.55742e-16
-1.60739e-15
5.02296e-16
-7.49491e-16
1.34674e-15
-7.46629e-16
1.06026e-15
-3.08232e-15
3.26541e-16
-4.2898e-16
5.73709e-16
3.03449e-19
1.37799e-16
1.19483e-17
1.04724e-16
8.9665e-18
4.3659e-17
3.73131e-18
1.31445e-17
8.90719e-19
2.51307e-18
1.13173e-19
2.69586e-19
9.63976e-21
2.00295e-20
6.16488e-22
1.14315e-21
3.17794e-23
5.35231e-23
1.38309e-24
2.14692e-24
5.21662e-26
7.55997e-26
1.72407e-27
2.36037e-27
5.00346e-29
6.54343e-29
1.27309e-30
1.60736e-30
2.8341e-32
3.49049e-32
5.51212e-34
6.69071e-34
9.35963e-36
1.1313e-35
1.3869e-37
1.68684e-37
1.79217e-39
2.21718e-39
2.0167e-41
2.56686e-41
1.97113e-43
2.61299e-43
1.66648e-45
2.33203e-45
1.21115e-47
1.81647e-47
7.49956e-50
1.22685e-49
3.90687e-52
7.11981e-52
1.68175e-54
3.50505e-54
5.82641e-57
1.43819e-56
1.56006e-59
4.78681e-59
3.01549e-62
1.24396e-61
2.34885e-64
0.00910665
0.198863
-0.031652
-0.00447467
-1.98989e-17
0.00647198
2.67293e-18
7.98647e-17
-0.108943
-0.225086
-5.29132e-07
-1.16536e-06
-5.65663e-11
-2.47224e-06
-3.17993e-10
2.61426e-10
1.14551e-10
1.57957e-10
-1.61073e-06
-4.69113e-16
-3.82194e-07
-0.000803217
5.02805e-08
-1.20014e-05
-1.88519e-13
-1.32783e-14
-1.05305e-17
-1.88505e-13
-3.79534e-13
-8.62079e-13
-6.17782e-14
-1.8794e-13
-5.16975e-14
-2.31781e-14
-2.4646e-14
-1.1529e-15
-1.26838e-14
1.46658e-15
-1.44659e-16
6.78518e-16
-1.40482e-16
1.5866e-16
-1.26106e-16
2.10866e-16
-1.33339e-16
2.26755e-16
-1.16747e-16
2.41158e-16
-1.37555e-16
1.80773e-16
-1.97945e-16
1.84856e-16
-1.53372e-16
2.74086e-16
-8.41727e-17
2.59251e-16
-3.48112e-17
1.96343e-16
-1.35426e-17
1.27301e-16
-3.45004e-19
1.00005e-16
2.26406e-18
2.45655e-17
1.5577e-18
8.64333e-18
5.67129e-19
2.2144e-18
1.1198e-19
3.45606e-19
1.31592e-20
3.4059e-20
1.08317e-21
2.43722e-21
6.8908e-23
1.38165e-22
3.59871e-24
6.55096e-24
1.59679e-25
2.67934e-25
6.11947e-27
9.59002e-27
2.03761e-28
3.01801e-28
5.90239e-30
8.35482e-30
1.48757e-31
2.0337e-31
3.26314e-33
4.3533e-33
6.23545e-35
8.20091e-35
1.03897e-36
1.36102e-36
1.51059e-38
1.99158e-38
1.91649e-40
2.5705e-40
2.11963e-42
2.92524e-42
2.03906e-44
2.93114e-44
1.6996e-46
2.5793e-46
1.22032e-48
1.98499e-48
7.48458e-51
1.32802e-50
3.87497e-53
7.65983e-53
1.66509e-55
3.76452e-55
5.79306e-58
1.55125e-57
1.57016e-60
5.22701e-60
3.10444e-63
1.3896e-62
2.71965e-65
0.00458674
0.178116
-3.62477e-05
3.37389e-05
3.28519e-05
-7.30145e-06
0.000289987
0.0017981
-1.87735e-08
-0.211053
-1.18414e-06
-2.73897e-18
-0.000285132
-3.51778e-07
3.81823e-05
-0.0151365
-6.61042e-17
3.81824e-05
-0.00222497
0.00222497
-1.7377e-05
-0.0204057
-8.10593e-14
-5.83323e-06
-8.00458e-14
-1.52815e-14
-5.35856e-13
-1.55265e-13
-1.85088e-13
-3.58623e-13
-1.10679e-13
-2.12402e-14
-8.64987e-15
-3.34489e-15
-5.96291e-16
-3.41941e-17
-1.63692e-16
9.50222e-17
-5.87036e-17
8.46442e-17
-4.67739e-17
5.22186e-17
-3.98079e-17
5.9578e-17
-4.01131e-17
6.31906e-17
-3.53008e-17
6.97741e-17
-3.70847e-17
5.97761e-17
-4.65562e-17
6.00136e-17
-3.10603e-17
7.85391e-17
-1.80153e-17
6.16578e-17
-7.47574e-18
4.71805e-17
-1.91101e-18
2.93568e-17
-1.11628e-19
1.41775e-17
3.21715e-19
4.3685e-18
2.16226e-19
1.36837e-18
6.98374e-20
3.02005e-19
1.22201e-20
4.11877e-20
1.3603e-21
3.81667e-21
1.1031e-22
2.68016e-22
7.06982e-24
1.52768e-23
3.75062e-25
7.35169e-25
1.68673e-26
3.04691e-26
6.50105e-28
1.09694e-27
2.1579e-29
3.44232e-29
6.18597e-31
9.43389e-31
1.53531e-32
2.2622e-32
3.30762e-34
4.75734e-34
6.20092e-36
8.79502e-36
1.01376e-37
1.43247e-37
1.44737e-39
2.05872e-39
1.80556e-41
2.6131e-41
1.96699e-43
2.92951e-43
1.86805e-45
2.89823e-45
1.54169e-47
2.5254e-47
1.10034e-49
1.93208e-49
6.74491e-52
1.29199e-51
3.51643e-54
7.50457e-54
1.53745e-56
3.75296e-56
5.51851e-59
1.59557e-58
1.57045e-61
5.64539e-61
3.32733e-64
1.60847e-63
3.44578e-66
-3.37389e-05
0.163612
-5.5434e-18
2.42479e-18
-3.93355e-05
3.2034e-05
-0.00454421
0.00478417
-3.54391e-17
-3.68143e-18
-1.51991e-17
-3.87104e-18
-3.51778e-07
-1.07996e-17
-0.148966
-0.409157
-0.414259
-11.7638
-0.0197699
-15.5404
5.83323e-06
-0.00118149
-1.48611e-16
-8.75693e-15
-9.39518e-15
-7.17896e-15
-2.54652e-13
-1.1864e-14
-1.18932e-14
-2.19695e-14
-5.12746e-15
-3.61425e-16
-1.54229e-16
-5.60268e-17
-6.83332e-17
-7.14181e-18
-3.22638e-17
1.76993e-18
-1.54905e-17
1.28096e-17
-1.12894e-17
1.15446e-17
-8.64056e-18
1.26163e-17
-8.4791e-18
1.24968e-17
-8.05797e-18
1.42862e-17
-8.079e-18
1.44027e-17
-8.89083e-18
1.4839e-17
-5.79294e-18
1.74667e-17
-3.23221e-18
1.32284e-17
-1.22173e-18
9.46559e-18
-2.7625e-19
5.18257e-18
-2.20674e-20
2.09954e-18
3.83803e-20
6.5852e-19
2.5438e-20
1.83367e-19
7.34917e-21
3.51321e-20
1.18798e-21
4.36443e-21
1.2833e-22
3.89507e-22
1.03865e-23
2.71846e-23
6.7193e-25
1.56046e-24
3.59682e-26
7.56842e-26
1.62172e-27
3.1433e-27
6.21771e-29
1.12563e-28
2.03963e-30
3.49145e-30
5.75314e-32
9.41739e-32
1.40172e-33
2.2175e-33
2.96227e-35
4.57573e-35
5.44947e-37
8.30299e-37
8.75182e-39
1.32875e-38
1.22954e-40
1.87948e-40
1.51282e-42
2.35332e-42
1.63067e-44
2.61075e-44
1.53905e-46
2.56716e-46
1.27022e-48
2.23722e-48
9.14802e-51
1.72726e-50
5.73075e-53
1.18049e-52
3.10659e-55
7.13024e-55
1.44356e-57
3.78996e-57
5.64545e-60
1.75565e-59
1.7928e-62
6.93236e-62
4.31455e-65
2.24371e-64
5.50008e-67
-3.26573e-05
0.152122
-3.26573e-05
2.437e-18
-0.000719301
0.000406499
-3.47036e-19
0.00102779
-1.99717e-18
-9.28309e-19
-1.21905e-17
-2.09492e-17
-1.38778e-17
-3.4874e-17
-0.333926
-0.32786
-0.575093
-17.773
-0.149443
-20.3088
2.09075e-16
-0.150625
1.08704e-15
-3.99356e-17
-2.30935e-15
-1.79403e-17
-5.40553e-15
-9.14181e-15
-1.12706e-16
-1.30772e-16
-7.39529e-17
-5.7395e-17
-2.08544e-17
-1.53508e-17
-9.34648e-18
-2.23558e-18
-5.33181e-18
-1.65073e-19
-3.11628e-18
1.62113e-18
-2.1537e-18
2.02141e-18
-1.53646e-18
2.18376e-18
-1.47192e-18
2.08446e-18
-1.46578e-18
2.42867e-18
-1.43776e-18
2.72044e-18
-1.41214e-18
2.89383e-18
-9.41959e-19
3.12761e-18
-4.96264e-19
2.42733e-18
-1.70181e-19
1.614e-18
-3.75608e-20
7.81439e-19
-3.33064e-21
2.9658e-19
4.00386e-21
8.67756e-20
2.60973e-21
2.1326e-20
6.86979e-22
3.61931e-21
1.0549e-22
4.21479e-22
1.1216e-23
3.67514e-23
9.07953e-25
2.55447e-24
5.89035e-26
1.46681e-25
3.14824e-27
7.09354e-27
1.4083e-28
2.92099e-28
5.32754e-30
1.03185e-29
1.71804e-31
3.14646e-31
4.75527e-33
8.32925e-33
1.13646e-34
1.92423e-34
2.35738e-36
3.89829e-36
4.26302e-38
6.95517e-38
6.74529e-40
1.09685e-39
9.36661e-42
1.53378e-41
1.14441e-43
1.90735e-43
1.23329e-45
2.11583e-45
1.17548e-47
2.10128e-47
9.94107e-50
1.87662e-49
7.48542e-52
1.51495e-51
5.02932e-54
1.11057e-53
3.0074e-56
7.39996e-56
1.58046e-58
4.44863e-58
7.09501e-61
2.36567e-60
2.58811e-63
1.07307e-62
7.06548e-66
3.93993e-65
1.07337e-67
-4.07108e-05
-5.42052e-08
-4.07108e-05
3.11562e-18
-0.000626986
0.000433194
-1.33913e-17
0.000141944
-1.4727e-17
-7.21321e-19
-1.90151e-17
-2.30763e-17
-5.20417e-17
-3.39083e-17
0.00766494
-0.198006
0.0929777
-17.9107
-0.0699185
-20.0935
-5.36297e-18
-0.521223
2.27225e-18
-4.64781e-17
-6.14754e-16
5.97499e-16
-4.87903e-17
-3.39484e-12
-2.40003e-17
-1.28794e-18