/*--------------------------------*- C++ -*----------------------------------*\
| =========                 |                                                 |
| \\      /  F ield         | OpenFOAM: The Open Source CFD Toolbox           |
|  \\    /   O peration     | Version:  v1606+                                |
|   \\  /    A nd           | Web:      www.OpenFOAM.com                      |
|    \\/     M anipulation  |                                                 |
\*---------------------------------------------------------------------------*/
FoamFile
{
    version     2.0;
    format      ascii;
    class       volScalarField;
    location    "8";
    object      nut;
}
// * * * * * * * * * * * * * * * * * * * * * * * * * * * * * * * * * * * * * //

dimensions      [0 2 -1 0 0 0 0];

internalField   nonuniform List<scalar> 
5080
(
0.0150509
0.0151118
0.0151721
0.0152323
0.0152923
0.0153508
0.0154109
0.0154763
0.015547
0.0156244
0.0157169
0.0158418
0.0160302
0.0163293
0.0167823
0.0173455
0.0178164
0.0179254
0.0173865
0.00631604
0.0350909
0.0347833
0.0344429
0.0342021
0.0340627
0.0338552
0.0336129
0.0337446
0.0341575
0.0344019
0.0345619
0.0348029
0.036156
0.0405039
0.04921
0.0610207
0.0716451
0.0764397
0.0690839
0.0134504
0.0355844
0.0360635
0.0366397
0.0375531
0.0386502
0.0394529
0.0398688
0.0406102
0.0419661
0.0425385
0.041836
0.0430999
0.0505827
0.0640456
0.0782736
0.0904172
0.101404
0.108352
0.0965826
0.0160098
0.0360046
0.0368556
0.037697
0.0390161
0.0405042
0.0411874
0.0416158
0.0425913
0.0437762
0.0439312
0.0439507
0.0475006
0.0579613
0.0738888
0.0922658
0.110426
0.126223
0.13393
0.115521
0.0177466
0.0365218
0.0377712
0.0389237
0.0405334
0.0419848
0.0422897
0.0417514
0.0413873
0.0414918
0.0412181
0.0407889
0.0436079
0.0534964
0.0718547
0.0974778
0.127423
0.153569
0.164369
0.139564
0.0203528
0.0371199
0.0388964
0.0402792
0.0422165
0.043718
0.0431522
0.0411814
0.0391695
0.0382571
0.0369668
0.0361276
0.0406363
0.0547333
0.0778863
0.106577
0.137053
0.163468
0.174684
0.145837
0.0209961
0.037778
0.0400946
0.0418525
0.0440452
0.0452362
0.0433937
0.0398323
0.0360278
0.0339657
0.0327077
0.0333601
0.0407799
0.0588257
0.0851719
0.113961
0.142242
0.166876
0.179547
0.151526
0.0219371
0.0384844
0.0414097
0.0434653
0.0456995
0.0463565
0.0429208
0.0369274
0.0311713
0.0285798
0.0281792
0.0305032
0.0393679
0.0582986
0.0857365
0.116549
0.147067
0.174829
0.189203
0.158587
0.0222466
0.0391948
0.0427072
0.0448956
0.0466668
0.0456476
0.0395158
0.0307432
0.0239903
0.0219728
0.0229089
0.0266479
0.0360498
0.0541221
0.0806675
0.112056
0.145667
0.176536
0.195513
0.166386
0.023905
0.0397962
0.0438125
0.0455477
0.0450631
0.040284
0.030854
0.021319
0.016484
0.0163531
0.0188386
0.0239043
0.0337381
0.0508846
0.0758529
0.107434
0.1434
0.18009
0.201833
0.174261
0.0247023
0.0402164
0.0441419
0.0439799
0.0391244
0.0299836
0.0200919
0.0141048
0.0129574
0.0150695
0.0191204
0.0254392
0.0358232
0.0521467
0.0751394
0.104516
0.140726
0.179276
0.2078
0.180977
0.0250769
0.0402387
0.0428191
0.0390752
0.0296677
0.0195731
0.013597
0.0124742
0.0150556
0.0200086
0.0262596
0.0340796
0.0450511
0.0603158
0.0802653
0.105296
0.13762
0.176796
0.207193
0.183141
0.0258397
0.0393829
0.0386437
0.0303886
0.0198131
0.0136695
0.0130258
0.0168193
0.0242773
0.0338458
0.0436143
0.0533812
0.0644094
0.0775844
0.0928941
0.110723
0.136174
0.171317
0.208594
0.185386
0.026429
0.0367242
0.0304994
0.0200487
0.0136322
0.0134446
0.0187416
0.0293089
0.0442458
0.0608257
0.0756419
0.0875706
0.0976281
0.106952
0.115038
0.123853
0.137266
0.167086
0.201637
0.191915
0.0277709
0.0315473
0.0204919
0.0131294
0.012837
0.0191078
0.0326017
0.0532267
0.0785947
0.10426
0.125351
0.139558
0.147804
0.151166
0.150655
0.146287
0.148396
0.163686
0.204901
0.197608
0.0293796
0.0248354
0.0133674
0.0112167
0.0168196
0.0313202
0.0562405
0.0899956
0.127904
0.163877
0.192044
0.209079
0.215329
0.212445
0.201093
0.184669
0.168608
0.1749
0.203152
0.224548
0.0298958
0.0184618
0.0100894
0.0127432
0.025112
0.0504278
0.0894468
0.13801
0.18924
0.235934
0.271749
0.292625
0.298111
0.289721
0.268945
0.23818
0.206731
0.190643
0.214142
0.220906
0.0341329
0.013594
0.00930654
0.0167715
0.037639
0.076051
0.130493
0.194007
0.258225
0.315454
0.359266
0.385228
0.391996
0.380558
0.35289
0.310164
0.262623
0.226684
0.226703
0.238229
0.036792
0.0103839
0.0100747
0.0231295
0.0544146
0.107413
0.177347
0.254943
0.331132
0.398235
0.450034
0.482087
0.49235
0.481317
0.450271
0.401277
0.340558
0.285957
0.266565
0.264492
0.0441512
0.00850535
0.0120656
0.0319846
0.0754903
0.143785
0.228533
0.318921
0.405758
0.481706
0.541015
0.579576
0.595158
0.58767
0.558198
0.508391
0.442131
0.37743
0.328141
0.313938
0.0542124
0.285424
0.371316
0.474791
0.516148
0.46434
0.45715
0.452027
0.376408
0.355044
0.331966
0.305188
0.276368
0.246891
0.222019
0.20692
0.203448
0.208383
0.213711
0.217772
0.222849
0.226176
0.219385
0.205402
0.188275
0.174237
0.166486
0.162656
0.161522
0.162329
0.164905
0.165519
0.158288
0.136044
0.0992201
0.0585772
0.0284391
0.0120634
0.00533999
0.00360982
0.00333532
0.00326563
0.00322069
0.00318257
0.00314879
0.00311837
0.00309062
0.00306502
0.00304118
0.00301881
0.00299767
0.00297758
0.00295838
0.00293996
0.00292223
0.00290509
0.00288829
0.00287255
0.00285449
0.00284338
0.00281859
0.570563
1.42979
2.12123
2.53899
2.27075
2.15737
1.69983
0.998406
0.952899
0.943965
0.904667
0.823293
0.715334
0.649158
0.654585
0.709559
0.773277
0.831691
0.868085
0.901068
0.955239
0.858165
0.640081
0.54087
0.514735
0.511543
0.519872
0.536484
0.555517
0.573192
0.573636
0.438167
0.228923
0.0930295
0.0286831
0.00662821
0.00150255
0.00109894
0.00419812
0.0110765
0.0131788
0.0132068
0.013119
0.0130923
0.0131098
0.0131502
0.0132007
0.0132563
0.0133144
0.0133722
0.0134278
0.0134814
0.0135339
0.0135838
0.0136304
0.0136625
0.0137157
0.0137035
0.0137791
0.0136605
0.592955
1.76632
2.7198
3.24418
2.95063
2.56829
1.62165
0.859179
0.850819
0.929551
0.982391
0.965687
0.912442
0.876436
0.888049
0.935658
0.998554
1.04349
1.05013
1.01873
0.984528
0.954346
0.844343
0.762743
0.727701
0.719098
0.721157
0.737309
0.759428
0.725546
0.588262
0.386768
0.197161
0.0769852
0.0225617
0.00519555
0.00144527
0.00185214
0.00884821
0.0239931
0.0286912
0.0281781
0.0273904
0.0268427
0.0264812
0.0262384
0.0260716
0.0259576
0.0258818
0.0258322
0.0258
0.0257813
0.0257743
0.0257747
0.025782
0.0257662
0.0258272
0.0257067
0.0258868
0.0255459
0.655241
1.99322
2.97479
3.64655
3.53124
2.61204
1.4279
0.822498
0.832743
0.880832
0.955231
0.987137
0.984962
0.981444
1.00803
1.05839
1.11574
1.17536
1.17269
1.13199
1.09019
1.02366
0.963858
0.917529
0.887751
0.876135
0.876025
0.895217
0.914129
0.838391
0.622284
0.366736
0.172972
0.0635638
0.0178874
0.00424154
0.0016041
0.00334814
0.0162435
0.037284
0.0417595
0.039948
0.0381002
0.0367728
0.0358306
0.0351462
0.0346374
0.034254
0.0339621
0.0337368
0.0335604
0.033422
0.0333145
0.0332303
0.0331697
0.033089
0.0331363
0.0329173
0.0331834
0.0326967
0.727064
2.30207
3.15566
3.81149
3.8966
2.63665
1.37163
0.877262
0.898391
0.901677
0.935609
0.999615
1.05806
1.0896
1.11715
1.1559
1.20524
1.24235
1.23289
1.21017
1.17897
1.13909
1.10368
1.07171
1.04472
1.0283
1.02247
1.012
0.967397
0.831272
0.583025
0.322782
0.141532
0.0483314
0.0129798
0.00331348
0.00198222
0.00625449
0.0265245
0.0475962
0.0491783
0.0460367
0.0433875
0.0414975
0.0401412
0.0391448
0.0383972
0.037827
0.0373857
0.0370391
0.0367637
0.0365435
0.0363675
0.0362257
0.0361185
0.0359966
0.0360283
0.0357584
0.0360623
0.0355161
0.80236
2.55139
3.4113
3.93871
4.18049
2.69154
1.44192
0.968513
0.967801
0.935448
0.904845
0.991771
1.1189
1.21073
1.2881
1.35678
1.39656
1.39899
1.3855
1.37759
1.34948
1.31679
1.2635
1.1567
1.05084
1.00026
1.00906
0.998978
0.924793
0.746985
0.488489
0.251584
0.101557
0.0320762
0.00837798
0.00263268
0.00300212
0.0122524
0.0391304
0.0541899
0.0523447
0.0483457
0.0453119
0.0431659
0.0416231
0.0404876
0.0396347
0.0389825
0.0384755
0.0380757
0.037757
0.0375013
0.0372957
0.0371291
0.0370015
0.0368624
0.0368849
0.0365967
0.0369112
0.0363506
0.835018
2.64564
3.69037
4.08392
4.25349
2.77661
1.59791
1.06381
1.04439
0.939671
0.722018
0.7902
0.965593
1.12839
1.27439
1.39493
1.45459
1.47125
1.46842
1.44188
1.36499
1.23822
1.0124
0.791869
0.688713
0.715031
0.785815
0.814357
0.749215
0.575376
0.35158
0.167249
0.0619409
0.0183246
0.00503729
0.00257421
0.00586872
0.0237894
0.0513161
0.0574777
0.0531955
0.048862
0.0457484
0.0435524
0.0419703
0.0408043
0.0399273
0.0392554
0.0387318
0.0383181
0.0379879
0.0377229
0.0375095
0.0373362
0.0372028
0.0370592
0.0370779
0.0367858
0.0371014
0.0365437
0.819673
2.57208
3.7817
4.1624
4.22913
2.86058
1.75017
1.17406
1.14748
0.960059
0.575546
0.573845
0.728383
0.923267
1.09827
1.24779
1.33384
1.35429
1.31086
1.18145
0.95698
0.671141
0.397298
0.299004
0.330125
0.41311
0.506362
0.559812
0.516943
0.377741
0.214365
0.0934444
0.0320061
0.00933074
0.00337039
0.00387254
0.0135399
0.0408919
0.0596748
0.0583627
0.0529426
0.0486392
0.0456143
0.0434748
0.041927
0.0407825
0.0399192
0.0392558
0.0387374
0.038327
0.0379993
0.037736
0.0375238
0.0373512
0.037218
0.0370749
0.0370923
0.036802
0.0371153
0.0365662
0.785292
2.37639
3.69654
4.20186
4.5378
2.93175
1.91065
1.35919
1.29605
0.951855
0.494417
0.42442
0.540664
0.708532
0.829531
0.942171
1.02736
0.989835
0.844011
0.614581
0.39478
0.214276
0.114899
0.105069
0.152565
0.212327
0.279474
0.327571
0.307501
0.216588
0.110016
0.043884
0.0144632
0.0049087
0.00355225
0.00886135
0.0299692
0.0573706
0.0631918
0.0577953
0.0521817
0.0481107
0.0452582
0.0432268
0.0417479
0.0406487
0.0398158
0.0391731
0.0386693
0.0382696
0.0379499
0.0376928
0.0374852
0.0373162
0.0371855
0.0370448
0.037062
0.0367759
0.0370853
0.0365469
0.73841
2.12166
3.50822
4.16134
4.76719
2.98422
2.14973
1.68421
1.5383
0.929949
0.430327
0.316484
0.39508
0.519776
0.554239
0.560175
0.575715
0.486286
0.350245
0.207687
0.115121
0.0598493
0.0422898
0.0460028
0.0644985
0.0965305
0.136274
0.164907
0.154298
0.102763
0.0475403
0.0179236
0.00656312
0.00392445
0.0071209
0.0228451
0.0522275
0.0666305
0.0631992
0.0564828
0.0511814
0.0474397
0.0448002
0.0429029
0.0415105
0.0404684
0.0396742
0.0390585
0.0385741
0.0381888
0.03788
0.0376311
0.0374299
0.0372657
0.0371386
0.0370013
0.0370188
0.036738
0.0370424
0.036516
0.690582
1.87551
3.19643
4.06355
4.69565
3.15563
2.52792
2.24939
1.80343
1.04215
0.395508
0.231162
0.263044
0.349366
0.348236
0.288092
0.245455
0.163403
0.105236
0.0556699
0.0312425
0.0200797
0.017804
0.0200006
0.0266294
0.0391191
0.0563165
0.0686977
0.063147
0.0400107
0.0179268
0.00746419
0.00453983
0.00685225
0.0194759
0.0474586
0.0684241
0.0686122
0.0614144
0.0548427
0.0500648
0.0466914
0.044284
0.0425344
0.0412382
0.0402604
0.0395102
0.0389255
0.0384637
0.0380953
0.0377991
0.0375598
0.0373659
0.0372074
0.0370845
0.0369512
0.0369693
0.0366949
0.0369934
0.03648
0.657457
1.87481
3.05686
4.02822
4.60934
3.42528
3.17857
3.12548
1.95635
1.42353
0.480132
0.187715
0.168399
0.206393
0.198953
0.142868
0.103899
0.047408
0.0292129
0.0159023
0.0109479
0.00896346
0.00852131
0.00917204
0.0112076
0.015148
0.0206357
0.0244462
0.0219996
0.0140276
0.00735235
0.00517063
0.00753478
0.0189381
0.0450274
0.0693834
0.0734918
0.0666082
0.0589527
0.053091
0.0488959
0.0458991
0.0437305
0.0421349
0.0409406
0.0400316
0.0393291
0.0387785
0.0383417
0.0379919
0.0377098
0.0374811
0.0372953
0.0371432
0.0370251
0.0368963
0.0369151
0.0366478
0.0369397
0.0364405
0.644621
2.12939
3.17377
4.13635
4.48993
3.78837
4.21524
3.24761
2.37125
1.51911
0.750264
0.201877
0.126609
0.117969
0.0995317
0.0652392
0.0461159
0.018687
0.0122866
0.00858882
0.00728491
0.00656448
0.00610748
0.00595521
0.0062223
0.00705278
0.00832217
0.00912981
0.00833022
0.00647194
0.00593696
0.00923665
0.0208328
0.0455227
0.0705427
0.0775088
0.0715192
0.0631852
0.0563546
0.0513373
0.0477153
0.0450859
0.043154
0.0417139
0.0406238
0.0397864
0.0391343
0.03862
0.03821
0.0378801
0.0376131
0.0373959
0.037219
0.0370738
0.0369609
0.0368371
0.0368567
0.0365972
0.0368818
0.0363977
0.652116
2.437
3.30786
4.29761
4.37131
4.2474
4.37268
3.69283
2.70228
1.49094
1.07907
0.304004
0.15993
0.0972243
0.0511484
0.0354527
0.0240604
0.0163485
0.0133135
0.0116154
0.0101851
0.00899284
0.00801655
0.00722003
0.00659445
0.00620936
0.00610953
0.00617917
0.00638301
0.00756525
0.0123155
0.0253869
0.0489425
0.0724162
0.0804551
0.0755217
0.0670484
0.0595569
0.0538461
0.0496406
0.0465523
0.0442701
0.0425666
0.0412793
0.0402934
0.0395288
0.0389286
0.0384521
0.0380701
0.0377612
0.0375101
0.0373051
0.0371376
0.0369998
0.0368925
0.036774
0.0367946
0.0365433
0.0368201
0.0363521
0.67615
2.52316
3.329
4.32299
4.20151
4.2258
4.05493
3.60239
2.12773
1.35546
1.32577
0.47009
0.244694
0.1642
0.0582621
0.0489277
0.0319481
0.0309328
0.027957
0.0248284
0.0211842
0.0178997
0.0155308
0.0137094
0.012191
0.0109571
0.0102428
0.0104746
0.0125111
0.0185701
0.0325562
0.0548951
0.0748355
0.0820633
0.0780056
0.0699591
0.0622896
0.0561631
0.0515161
0.0480355
0.0454287
0.0434669
0.0419789
0.0408386
0.039955
0.0392629
0.038715
0.038277
0.0379236
0.0376364
0.0374018
0.0372095
0.0370519
0.0369218
0.0368204
0.0367075
0.0367291
0.0364866
0.0367549
0.0363039
0.696532
2.48047
3.2706
4.15989
4.03857
3.76793
3.95478
2.84268
1.70783
1.19953
1.30411
0.629444
0.314515
0.296781
0.142626
0.11196
0.0790278
0.07311
0.0645551
0.0556663
0.0468063
0.0387187
0.0331394
0.0293138
0.0265829
0.0246496
0.023919
0.0255289
0.0314052
0.0438362
0.0618068
0.0770059
0.0820333
0.0785206
0.0713874
0.0641117
0.0579731
0.0531291
0.0493965
0.0465418
0.0443601
0.0426884
0.0413999
0.0403987
0.0396136
0.0389923
0.0384962
0.0380966
0.0377721
0.0375069
0.0372892
0.0371099
0.0369625
0.0368405
0.0367452
0.0366381
0.0366606
0.0364274
0.0366868
0.0362535
0.703668
2.40367
3.17727
3.94068
3.83254
3.50481
3.58699
2.43633
1.51052
1.10799
1.21067
0.74567
0.354369
0.398945
0.27668
0.207515
0.159423
0.137622
0.116813
0.0995021
0.0841512
0.0708711
0.0612882
0.0548764
0.0508226
0.0485612
0.0483831
0.0514152
0.058694
0.0689993
0.0776358
0.080171
0.0769784
0.0710493
0.0646834
0.0589802
0.0542532
0.0504711
0.047495
0.0451698
0.0433575
0.041944
0.0408375
0.0399657
0.0392738
0.0387206
0.038275
0.0379132
0.0376174
0.0373741
0.0371734
0.0370074
0.0368703
0.0367565
0.0366674
0.0365663
0.0365896
0.036366
0.0366162
0.0362012
0.695675
2.31645
3.06969
3.75414
3.66071
3.38957
3.22817
2.23975
1.46634
1.08271
1.14447
0.862126
0.374884
0.382867
0.390644
0.29471
0.234127
0.192207
0.159143
0.133145
0.11218
0.0959829
0.0844035
0.0767381
0.0720588
0.0696197
0.0691456
0.07069
0.0737188
0.0763673
0.0765482
0.0737198
0.0690653
0.0639014
0.0590032
0.0547076
0.0511073
0.0481689
0.0458069
0.0439235
0.0424277
0.0412411
0.040298
0.0395448
0.0389399
0.0384512
0.0380539
0.0377288
0.037461
0.0372394
0.0370555
0.0369027
0.036776
0.0366704
0.0365876
0.0364926
0.0365168
0.036303
0.0365436
0.0361473
0.686926
2.23868
2.96947
3.61787
3.62867
3.3689
2.96809
2.15696
1.47365
1.08892
1.10396
0.940613
0.395858
0.299886
0.446725
0.351466
0.280543
0.223315
0.180946
0.147688
0.122744
0.104674
0.0921701
0.0839595
0.0788605
0.0758923
0.0743254
0.0736021
0.0730411
0.0718054
0.0693969
0.0659233
0.0619795
0.0580503
0.054415
0.0512051
0.048468
0.0461893
0.0443207
0.042802
0.0415743
0.0405847
0.0397865
0.0391405
0.0386156
0.0381871
0.0378355
0.0375454
0.0373047
0.0371041
0.0369367
0.0367969
0.0366804
0.0365831
0.0365065
0.0364175
0.0364425
0.0362388
0.0364694
0.0360923
0.668591
2.14839
2.87909
3.48427
3.64998
3.38259
2.86293
2.14222
1.50259
1.10841
1.08838
0.973212
0.413907
0.230186
0.414048
0.373479
0.29697
0.231183
0.184868
0.148046
0.121941
0.103338
0.0905852
0.0820512
0.0765153
0.0729402
0.0705345
0.0686846
0.0668976
0.0648059
0.0622712
0.0593629
0.0563524
0.05344
0.0507488
0.0483452
0.0462616
0.0444956
0.0430208
0.0418008
0.0407982
0.0399776
0.0393064
0.0387562
0.0383039
0.0379309
0.0376219
0.0373647
0.0371497
0.0369694
0.0368179
0.0366908
0.0365844
0.0364951
0.0364247
0.0363417
0.0363673
0.0361738
0.0363944
0.0360365
0.641793
2.02781
2.76457
3.3402
3.64323
3.44558
2.87034
2.16933
1.54327
1.135
1.08668
0.988097
0.425688
0.192814
0.294182
0.356614
0.289453
0.221643
0.176353
0.140051
0.115421
0.097771
0.0856099
0.0772523
0.0716062
0.0677455
0.0649667
0.0627596
0.0607516
0.0587117
0.0565454
0.0542645
0.0519942
0.0498261
0.0478196
0.04601
0.0444199
0.0430511
0.0418892
0.0409125
0.0400975
0.0394207
0.0388597
0.0383941
0.038007
0.0376845
0.0374148
0.0371884
0.0369976
0.0368364
0.0367002
0.0365852
0.0364886
0.0364071
0.0363427
0.0362657
0.0362918
0.0361084
0.0363188
0.0359803
0.617589
1.86597
2.57824
3.15074
3.58689
3.50357
2.91795
2.21836
1.58002
1.16164
1.07743
0.992475
0.451522
0.178015
0.186647
0.29108
0.266045
0.20213
0.160937
0.12803
0.106376
0.0906276
0.0796621
0.0719328
0.0665417
0.0627276
0.0599076
0.0576763
0.0557425
0.0539254
0.0521323
0.0503439
0.048614
0.0469812
0.0454709
0.0441002
0.0428831
0.0418218
0.0409079
0.0401283
0.0394686
0.0389135
0.0384473
0.0380558
0.0377267
0.0374497
0.0372158
0.0370177
0.0368494
0.0367062
0.0365844
0.036481
0.0363937
0.0363198
0.0362611
0.03619
0.0362164
0.0360432
0.0362433
0.035924
0.588911
1.52552
2.21114
2.87167
3.47366
3.53447
2.97432
2.26211
1.61009
1.18529
1.07704
0.976662
0.472504
0.171236
0.123853
0.200732
0.23269
0.178887
0.143018
0.114913
0.0966182
0.0831317
0.0736262
0.0667747
0.0618769
0.0583239
0.0556587
0.0535547
0.0517865
0.0502048
0.0487218
0.0473046
0.045969
0.0447252
0.0435784
0.0425344
0.0416005
0.0407773
0.0400595
0.0394392
0.0389076
0.0384545
0.0380694
0.0377422
0.0374642
0.0372277
0.037026
0.0368537
0.0367061
0.0365796
0.0364713
0.036379
0.0363005
0.0362337
0.0361806
0.036115
0.0361416
0.0359785
0.0361682
0.035868
0.549067
1.16974
1.84339
2.64948
3.39677
3.54371
3.00536
2.27338
1.63219
1.20443
1.09075
0.964867
0.469579
0.163939
0.0892289
0.126597
0.190946
0.155915
0.125667
0.102321
0.0871796
0.0759062
0.067892
0.0619956
0.0577005
0.0545224
0.0521123
0.050211
0.0486403
0.0472806
0.0460517
0.0449194
0.0438775
0.0429216
0.042045
0.0412469
0.0405291
0.0398909
0.0393282
0.0388362
0.0384096
0.0380418
0.0377255
0.0374537
0.0372201
0.0370193
0.0368465
0.0366974
0.0365687
0.0364575
0.0363618
0.0362797
0.0362095
0.0361494
0.0361015
0.0360413
0.0360679
0.0359146
0.0360941
0.0358126
0.493484
0.999263
1.67148
2.55756
3.35302
3.52773
3.00467
2.27456
1.63728
1.21368
1.11038
0.967799
0.447709
0.153091
0.0676922
0.0773695
0.142156
0.134319
0.10996
0.0909617
0.0785771
0.0692779
0.0626498
0.057685
0.0540131
0.0512537
0.0491385
0.04747
0.0461055
0.04495
0.0439337
0.0430255
0.0422078
0.0414689
0.0407961
0.0401848
0.0396333
0.0391391
0.0386992
0.0383105
0.0379698
0.0376728
0.0374144
0.0371898
0.0369947
0.0368251
0.0366777
0.0365494
0.0364377
0.0363406
0.0362564
0.0361837
0.0361212
0.0360674
0.0360243
0.0359692
0.0359956
0.035852
0.0360213
0.035758
0.43286
0.903535
1.58041
2.49082
3.28407
3.50072
2.9913
2.26154
1.62494
1.21089
1.12941
0.982238
0.410166
0.132357
0.0515797
0.0494254
0.0973473
0.114235
0.0963997
0.0811699
0.0709976
0.0634033
0.0579952
0.053881
0.0507994
0.0484543
0.0466381
0.0452046
0.0440422
0.0430708
0.0422355
0.0415065
0.0408641
0.0402915
0.0397746
0.0393066
0.0388834
0.0385019
0.0381594
0.0378538
0.0375831
0.0373445
0.0371345
0.0369499
0.0367877
0.0366452
0.0365201
0.0364103
0.0363139
0.0362294
0.0361557
0.0360915
0.036036
0.035988
0.0359494
0.0358991
0.0359251
0.035791
0.0359502
0.0357047
0.375569
0.859734
1.51645
2.41687
3.2189
3.47434
2.96095
2.22711
1.59319
1.19576
1.13963
1.00148
0.372759
0.10285
0.0371577
0.03374
0.0670261
0.095719
0.0845888
0.0729269
0.0644373
0.0583417
0.0539529
0.0505873
0.0480368
0.0460689
0.0445363
0.0433256
0.0423505
0.0415435
0.0408622
0.0402794
0.0397757
0.0393324
0.0389362
0.038579
0.0382557
0.0379625
0.0376971
0.0374582
0.0372444
0.0370537
0.036884
0.036733
0.0365987
0.0364795
0.0363739
0.0362803
0.0361975
0.0361243
0.0360599
0.0360035
0.0359544
0.0359117
0.0358771
0.0358314
0.0358568
0.0357317
0.035881
0.0356527
0.337996
0.897689
1.51774
2.40697
3.22306
3.45163
2.90698
2.16807
1.54112
1.16898
1.13594
1.01957
0.364519
0.0799536
0.0248777
0.0239612
0.0506705
0.0810554
0.0745288
0.0658276
0.0589531
0.0541003
0.050516
0.0477862
0.0456905
0.0440531
0.0427763
0.0417682
0.0409593
0.0402964
0.0397456
0.0392829
0.0388896
0.0385483
0.0382463
0.0379755
0.0377302
0.0375065
0.0373023
0.0371167
0.0369488
0.0367973
0.0366607
0.0365377
0.0364271
0.0363279
0.036239
0.0361596
0.0360887
0.0360255
0.0359695
0.03592
0.0358766
0.0358386
0.0358078
0.0357661
0.0357909
0.0356745
0.0358142
0.0356023
0.353549
0.989685
1.577
2.46724
3.27468
3.42076
2.82608
2.08129
1.46852
1.13224
1.1267
1.03425
0.388592
0.0773706
0.017438
0.0141344
0.0343298
0.06714
0.0660083
0.0597449
0.0543439
0.0505538
0.047668
0.0454551
0.0437267
0.0423735
0.0413153
0.0404823
0.0398169
0.0392776
0.0388359
0.0384713
0.0381664
0.0379058
0.037678
0.0374749
0.0372906
0.0371215
0.0369658
0.0368227
0.0366917
0.0365719
0.0364626
0.0363628
0.036272
0.0361897
0.0361153
0.0360481
0.0359876
0.0359331
0.0358844
0.035841
0.0358028
0.035769
0.0357415
0.0357037
0.0357276
0.0356195
0.0357498
0.0355537
0.383167
1.13255
1.65547
2.53482
3.32862
3.36767
2.71272
1.96285
1.37568
1.0882
1.11708
1.04406
0.415739
0.0843248
0.0145
0.00846684
0.0239299
0.0564942
0.0592112
0.054696
0.0505792
0.0476299
0.0453258
0.0435362
0.0421158
0.0409958
0.0401173
0.0394285
0.0388832
0.0384467
0.038095
0.03781
0.0375759
0.0373795
0.0372101
0.0370599
0.0369235
0.0367973
0.0366798
0.0365704
0.0364688
0.0363746
0.0362874
0.0362068
0.0361326
0.0360646
0.0360024
0.0359457
0.0358941
0.0358472
0.0358048
0.0357668
0.035733
0.035703
0.0356785
0.0356442
0.035667
0.0355668
0.0356882
0.0355071
0.423376
1.27994
1.78091
2.61883
3.35168
3.27997
2.55272
1.80716
1.26493
1.04053
1.10854
1.04741
0.436733
0.0967743
0.0155763
0.00513064
0.0122585
0.0423145
0.0530333
0.0504382
0.047472
0.0452367
0.043434
0.041988
0.0408148
0.0398799
0.0391452
0.0385726
0.0381246
0.0377718
0.0374931
0.037272
0.0370946
0.036949
0.0368254
0.0367167
0.0366175
0.0365248
0.0364372
0.0363543
0.0362761
0.0362025
0.0361333
0.0360684
0.0360079
0.0359518
0.0358999
0.035852
0.0358079
0.0357675
0.0357306
0.0356973
0.0356675
0.0356408
0.0356189
0.0355877
0.0356094
0.0355167
0.0356294
0.0354624
0.453901
1.45858
1.99262
2.76724
3.31702
3.08625
2.30566
1.60954
1.14222
0.9951
1.10594
1.04171
0.444964
0.103351
0.0161533
0.00395294
0.00817501
0.034337
0.048423
0.0472118
0.0451158
0.0434196
0.0419875
0.0407901
0.039797
0.0389977
0.0383706
0.0378868
0.0375146
0.037228
0.0370071
0.0368367
0.0367041
0.0365982
0.0365104
0.0364337
0.0363632
0.0362964
0.036232
0.0361699
0.0361102
0.0360529
0.0359981
0.035946
0.0358968
0.0358505
0.0358071
0.0357666
0.0357289
0.035694
0.0356618
0.0356325
0.035606
0.0355822
0.0355626
0.0355343
0.0355548
0.0354692
0.0355734
0.0354199
0.485368
1.71298
2.27204
3.04008
3.39443
2.81717
2.03507
1.3889
1.0203
0.959758
1.11501
1.02455
0.455384
0.118387
0.0212658
0.00399056
0.00420282
0.021512
0.0430521
0.044399
0.0431348
0.0419556
0.0408651
0.0398769
0.0390204
0.0383177
0.0377666
0.0373468
0.0370311
0.0367947
0.0366184
0.0364873
0.0363893
0.0363142
0.0362537
0.0362013
0.0361528
0.0361057
0.0360592
0.0360131
0.0359678
0.0359233
0.0358801
0.0358383
0.0357981
0.0357598
0.0357235
0.0356891
0.0356567
0.0356263
0.0355981
0.0355722
0.0355487
0.0355274
0.0355097
0.035484
0.0355032
0.0354242
0.0355204
0.0353795
0.501441
1.91795
2.51407
3.25155
3.32626
2.46455
1.69111
1.15296
0.91555
0.943726
1.14325
0.991395
0.402735
0.0921859
0.0137507
0.00278626
0.00584424
0.0286532
0.0428521
0.0430833
0.042205
0.0412508
0.0402541
0.0393098
0.03849
0.037825
0.0373128
0.0369323
0.036655
0.0364549
0.0363118
0.0362103
0.0361385
0.0360864
0.0360463
0.036012
0.0359798
0.0359475
0.0359144
0.0358805
0.0358462
0.0358118
0.0357775
0.0357438
0.0357109
0.035679
0.0356483
0.0356189
0.0355909
0.0355643
0.0355395
0.0355164
0.0354954
0.0354762
0.0354602
0.0354367
0.0354546
0.0353818
0.0354704
0.0353413
0.513158
2.00717
2.6275
3.19301
2.77641
1.9362
1.30415
0.939662
0.848529
0.957007
1.18021
0.925451
0.320027
0.062217
0.00891603
0.00282481
0.0119879
0.0383868
0.0435958
0.0425189
0.0415165
0.0406072
0.0397229
0.0388806
0.038118
0.0374798
0.0369864
0.0366263
0.036372
0.0361957
0.0360754
0.0359948
0.0359416
0.035906
0.0358803
0.0358589
0.0358383
0.0358167
0.0357935
0.0357687
0.0357427
0.0357159
0.0356886
0.0356612
0.035634
0.0356072
0.035581
0.0355556
0.035531
0.0355076
0.0354855
0.0354649
0.0354459
0.0354285
0.0354139
0.0353925
0.0354089
0.035342
0.0354233
0.0353052
0.517879
1.9879
2.52203
2.78456
2.01018
1.37021
0.953482
0.792159
0.831158
1.00206
1.18455
0.852029
0.25909
0.0347554
0.00442852
0.0107315
0.0463322
0.0552148
0.0493154
0.0451446
0.0430605
0.0416848
0.0403527
0.0390997
0.0380735
0.0373136
0.0367776
0.0364102
0.0361636
0.036001
0.0358958
0.0358298
0.0357896
0.0357654
0.0357496
0.0357371
0.0357246
0.0357104
0.0356941
0.0356758
0.0356558
0.0356345
0.0356123
0.0355896
0.0355666
0.0355436
0.0355209
0.0354985
0.0354768
0.0354559
0.0354361
0.0354174
0.0354002
0.0353843
0.0353708
0.0353512
0.0353662
0.0353047
0.035379
0.0352712
0.544717
1.88156
2.46746
2.01524
1.3633
0.918871
0.727014
0.74441
0.868461
1.07169
1.15793
0.85901
0.300536
0.0450979
0.00492419
0.00635138
0.0133483
0.0466254
0.0652238
0.0522735
0.0464439
0.0428362
0.0405657
0.0390969
0.0380473
0.0372569
0.0366833
0.0362923
0.0360368
0.035874
0.0357731
0.0357127
0.0356783
0.0356593
0.0356483
0.0356404
0.0356323
0.0356226
0.0356107
0.0355968
0.035581
0.0355638
0.0355455
0.0355263
0.0355066
0.0354866
0.0354667
0.0354469
0.0354274
0.0354086
0.0353906
0.0353737
0.0353578
0.0353432
0.0353308
0.0353127
0.0353262
0.0352699
0.0353374
0.0352393
0.572584
1.89694
1.63224
1.14079
0.788202
0.634114
0.663703
0.790552
0.951086
1.11174
1.05134
0.657955
0.17328
0.0193105
0.0111234
0.0152251
0.0128756
0.00606191
0.0154562
0.0516969
0.0507275
0.0475428
0.0440263
0.0409133
0.0387461
0.0374377
0.0366763
0.0362229
0.0359482
0.0357821
0.0356836
0.0356273
0.0355969
0.0355816
0.0355739
0.0355689
0.0355636
0.0355567
0.0355475
0.0355362
0.035523
0.0355081
0.0354919
0.0354746
0.0354568
0.0354385
0.0354202
0.0354019
0.0353839
0.0353664
0.0353497
0.0353339
0.0353191
0.0353054
0.0352938
0.035277
0.0352889
0.0352374
0.0352985
0.0352092
0.494692
0.795693
0.664657
0.537481
0.504921
0.600852
0.748553
0.892312
0.99831
1.01642
1.0413
0.699879
0.314955
0.11335
0.0657277
0.105576
0.119305
0.0815313
0.0249338
0.0050017
0.00576004
0.0143271
0.0294988
0.0383636
0.0388956
0.0377013
0.0367853
0.0362364
0.0359186
0.0357345
0.0356285
0.0355691
0.0355374
0.0355213
0.0355133
0.0355082
0.0355033
0.0354971
0.035489
0.035479
0.0354672
0.0354539
0.0354393
0.0354238
0.0354077
0.0353912
0.0353745
0.0353579
0.0353415
0.0353256
0.0353104
0.0352959
0.0352823
0.0352698
0.035259
0.0352435
0.0352539
0.0352071
0.0352619
0.035181
0.366517
0.342408
0.361305
0.445354
0.597231
0.759269
0.883055
1.02
1.03632
0.876769
0.9657
0.555118
0.235804
0.105297
0.141925
0.263277
0.359825
0.349896
0.243297
0.112368
0.0347486
0.00823921
0.00412744
0.0117642
0.031584
0.0376802
0.0370433
0.0363615
0.035968
0.0357452
0.0356186
0.0355472
0.0355077
0.0354861
0.0354738
0.0354657
0.0354587
0.0354512
0.0354426
0.0354327
0.0354216
0.0354092
0.0353958
0.0353815
0.0353666
0.0353514
0.035336
0.0353207
0.0353055
0.0352907
0.0352765
0.0352629
0.0352502
0.0352383
0.035228
0.0352134
0.0352221
0.0351794
0.0352284
0.0351544
0.00760147
0.0152871
0.0436714
0.100978
0.184752
0.283424
0.38534
0.481481
0.56503
0.630951
0.67581
0.69766
0.696336
0.672366
0.629219
0.564554
0.504812
0.439249
0.401987
0.165848
0.0074492
0.0200701
0.0590442
0.131852
0.231408
0.343553
0.456216
0.560641
0.650667
0.722204
0.772812
0.80126
0.80783
0.792738
0.761337
0.709588
0.663154
0.575029
0.534117
0.345658
0.00801081
0.026994
0.0792047
0.169425
0.285524
0.411323
0.534392
0.646239
0.741558
0.817485
0.872832
0.907498
0.922158
0.918688
0.899061
0.867259
0.837862
0.742771
0.665682
0.55703
0.00944733
0.037121
0.106056
0.216201
0.350347
0.490512
0.623796
0.742172
0.841557
0.920626
0.979632
1.01974
1.04216
1.05022
1.04358
1.02836
1.01513
0.9466
0.840208
0.750255
0.012233
0.0523789
0.142828
0.276439
0.430874
0.586172
0.72912
0.852783
0.954895
1.03597
1.09778
1.14262
1.17248
1.19069
1.19812
1.19699
1.19513
1.16609
1.07968
0.965215
0.0174447
0.0761897
0.194777
0.356468
0.533302
0.70337
0.854182
0.981078
1.08428
1.16632
1.23039
1.2796
1.31663
1.34428
1.36477
1.37818
1.38758
1.38658
1.34221
1.25545
0.0273497
0.11461
0.270488
0.464975
0.66394
0.845384
0.99999
1.1268
1.22893
1.31078
1.37662
1.43006
1.47399
1.51085
1.54295
1.57044
1.59369
1.61315
1.61014
1.57982
0.0483882
0.18298
0.387895
0.61504
0.828657
1.01258
1.16376
1.28562
1.38377
1.46387
1.53067
1.58783
1.63807
1.68342
1.72565
1.76537
1.80255
1.839
1.8663
1.8817
0.110799
0.327398
0.581831
0.823014
1.03069
1.20145
1.33908
1.44989
1.54051
1.61669
1.68294
1.74244
1.79738
1.84917
1.89889
1.94711
1.99397
2.04103
2.08463
2.12339
0.312709
0.616517
0.876394
1.08919
1.26199
1.40217
1.51623
1.61025
1.68977
1.75944
1.8227
1.88184
1.93823
1.99249
2.04483
2.09526
2.14361
2.19033
2.23331
2.27013
0.77643
1.06047
1.24488
1.38599
1.50207
1.60037
1.68467
1.75811
1.82372
1.88419
1.94144
1.99658
2.05002
2.10148
2.15014
2.19505
2.23489
2.26837
2.293
2.30438
1.54084
1.57077
1.61645
1.67002
1.72621
1.78219
1.83636
1.88829
1.93834
1.9871
2.03494
2.08185
2.12731
2.17027
2.20886
2.24091
2.26356
2.27456
2.2723
2.25996
1.99792
1.94804
1.91189
1.90626
1.91856
1.9408
1.96859
1.9995
2.0321
2.06553
2.09909
2.13221
2.16362
2.19175
2.21519
2.23179
2.23785
2.22782
2.19636
2.15104
2.16401
2.13011
2.09985
2.07921
2.07039
2.07063
2.07775
2.08867
2.10019
2.11032
2.11839
2.12362
2.12464
2.11972
2.10776
2.08757
2.05476
2.0007
1.91842
1.82551
2.19314
2.19457
2.18541
2.17237
2.15824
2.14758
2.13937
2.13091
2.11969
2.10424
2.08309
2.05505
2.01856
1.97194
1.91321
1.84011
1.74969
1.63881
1.50653
1.36584
2.18706
2.20446
2.2053
2.19677
2.18333
2.16707
2.14818
2.12486
2.09465
2.05554
2.00669
1.94715
1.87517
1.78816
1.68296
1.55578
1.4024
1.22044
1.01459
0.803389
2.15384