/*--------------------------------*- C++ -*----------------------------------*\
| =========                 |                                                 |
| \\      /  F ield         | OpenFOAM: The Open Source CFD Toolbox           |
|  \\    /   O peration     | Version:  v1606+                                |
|   \\  /    A nd           | Web:      www.OpenFOAM.com                      |
|    \\/     M anipulation  |                                                 |
\*---------------------------------------------------------------------------*/
FoamFile
{
    version     2.0;
    format      ascii;
    class       volScalarField;
    location    "8";
    object      p_rgh;
}
// * * * * * * * * * * * * * * * * * * * * * * * * * * * * * * * * * * * * * //

dimensions      [1 -1 -2 0 0 0 0];

internalField   nonuniform List<scalar> 
5080
(
419490
419518
419567
419638
419727
419833
419944
420064
420205
420352
420498
420648
420800
420949
421090
421215
421316
421394
421444
421471
419368
419401
419456
419529
419619
419724
419836
419957
420097
420244
420389
420538
420691
420841
420988
421125
421237
421319
421375
421418
419172
419204
419257
419330
419422
419527
419640
419764
419903
420049
420195
420343
420490
420629
420755
420867
420964
421044
421107
421160
418884
418915
418968
419042
419133
419240
419355
419483
419630
419786
419944
420104
420263
420413
420547
420663
420761
420837
420897
420950
418518
418549
418602
418676
418767
418873
418985
419108
419249
419396
419543
419693
419844
419986
420116
420240
420347
420429
420488
420570
418084
418115
418168
418241
418332
418437
418550
418674
418815
418961
419109
419259
419408
419548
419689
419829
419953
420042
420120
420183
417591
417622
417675
417748
417839
417945
418059
418186
418331
418484
418637
418794
418943
419073
419184
419289
419378
419468
419507
419631
417046
417077
417130
417203
417294
417399
417514
417642
417791
417948
418109
418276
418444
418596
418727
418829
418922
418966
419063
419048
416457
416487
416539
416611
416701
416803
416915
417043
417191
417345
417505
417671
417837
417994
418126
418242
418314
418426
418425
418660
415829
415859
415910
415980
416067
416164
416273
416398
416540
416690
416844
417002
417161
417308
417455
417569
417670
417681
417798
417733
415171
415200
415249
415317
415400
415493
415599
415720
415860
416006
416155
416308
416455
416602
416723
416866
416937
417121
417042
417404
414489
414517
414563
414627
414707
414796
414898
415018
415156
415301
415446
415591
415738
415857
415978
416019
416102
415983
416182
415897
413790
413815
413857
413918
413994
414079
414176
414292
414428
414571
414710
414851
414983
415115
415179
415272
415232
415456
415114
415799
413077
413100
413137
413195
413267
413346
413437
413547
413676
413811
413941
414062
414179
414260
414310
414254
414220
413949
414226
413601
412356
412376
412410
412465
412531
412603
412686
412787
412903
413024
413134
413227
413297
413334
413303
413211
413019
412970
412536
413252
411634
411652
411684
411734
411793
411856
411930
412017
412114
412211
412290
412340
412349
412317
412189
412009
411724
411338
411383
410413
410918
410934
410964
411009
411059
411111
411171
411240
411312
411374
411409
411397
411329
411178
410932
410507
409992
409355
408514
409003
410212
410227
410255
410293
410334
410373
410416
410461
410499
410516
410493
410406
410231
409942
409496
408832
407942
406939
405987
404762
409523
409536
409561
409593
409622
409645
409666
409681
409679
409643
409553
409380
409085
408638
407951
406997
405573
403751
401463
399302
408854
408866
408888
408912
408927
408931
408926
408906
408858
408767
408607
408344
407929
407300
406365
404971
402958
399843
396827
387682
30092.8
14964.6
17979.7
35399.1
84169.9
170326
221132
200161
89310.4
15647.1
3712.67
3494.58
15087.4
9238.97
6157.96
4405.14
3062.91
2246.53
1236.41
1428.98
1198.92
372.856
283.661
364.9
430.539
594.743
569.787
409.613
519.054
685.377
381.72
185.868
161.084
161.888
141.751
122.336
108.23
97.6746
89.4612
82.8799
77.4892
72.9937
69.1883
65.9296
63.1156
60.6696
58.5322
56.6581
55.0117
53.5642
52.2926
51.1777
50.2033
49.3558
48.6252
48.0031
47.4866
47.0614
46.7605
46.4742
14543
4770.86
8166.1
17445.2
56019.8
126892
187882
170474
57422.9
4736.9
-924.177
1457.38
11672.7
8829.36
5244.07
958.007
10.29
2.93487
-3.3418
-10.3851
49.6316
122.138
206.989
327.562
627.718
812.715
247.629
-70.4734
-94.3327
-68.941
-17.652
45.8961
121.615
142.17
133.93
119.907
107.52
97.523
89.4973
82.9762
77.5968
73.0943
69.2767
66.0052
63.1782
60.7189
58.5692
56.6846
55.0293
53.5745
52.2963
51.1754
50.1954
49.3435
48.6094
47.9842
47.4649
47.0378
46.7357
46.4485
10486.2
3569.78
6368.76
9256.08
29888.5
87322.6
135805
116723
17118.6
2250.74
329.679
931.342
2331.49
2132.03
900.984
11.9365
20.2252
35.6058
54.9028
80.6651
121.564
197.545
228.901
801.421
1249.31
1124.1
645.389
-58.6656
-66.8473
-25.3228
7.67798
63.6179
108.221
126.293
124.45
115.267
105.253
96.3589
88.8613
82.6079
77.3715
72.9478
69.1743
65.9281
63.1162
60.6659
58.5209
56.6382
54.9836
53.5286
52.2497
51.1277
50.1465
49.2935
48.5582
47.9318
47.4117
46.9842
46.6817
46.3937
12073.2
3133.41
7080.59
5678.03
15704.5
53948
81411.9
51349.9
2077.34
85.0438
0.207368
41.298
68.9168
60.1088
3.81683
-23.8175
-9.56839
10.0434
20.3764
29.39
69.5066
113.331
1236.2
1493.52
1462
297.903
-101.496
-96.7439
-83.5368
-47.9599
-4.27155
48.6096
90.0864
110.214
113.7
108.982
101.665
94.2497
87.5603
81.7627
76.7952
72.536
68.8664
65.6882
62.9219
60.5028
58.3796
56.5127
54.8695
53.4226
52.1495
51.0315
50.0535
49.2028
48.4692
47.844
47.325
46.8985
46.5966
46.3085
12175.2
2533.14
6013.15
3434.51
7169.69
30908.7
32742.3
7058.19
1396.89
65.854
34.2794
25.2681
36.5745
37.5146
5.84737
-17.6555
-8.21263
14.9073
31.3189
89.3146
316.572
333.398
121.247
-15.3277
-46.4506
-68.4117
-94.8047
-105.242
-86.9305
-50.8367
-8.77393
37.4217
75.0859
95.9824
102.949
101.814
97.1015
91.3302
85.6393
80.4527
75.8678
71.8531
68.3451
65.2775
62.5886
60.2244
58.1413
56.3042
54.6834
53.2533
51.9927
50.8845
49.9144
49.0697
48.3407
47.7192
47.2032
46.7792
46.4788
46.1915
6584.23
1864.41
3522.07
1827.68
3468.28
11584.8
16831.5
8443.18
678.295
156.351
34.6368
15.958
32.455
42.3601
13.4802
-21.9877
-22.6409
-0.709308
23.3944
20.94
7.21098
13.7499
20.1147
8.24736
-27.0474
-63.7947
-99.6393
-113.916
-96.2205
-57.1492
-13.3203
29.5982
63.3266
83.6871
92.7146
94.3024
91.8993
87.7759
83.1816
78.7135
74.6025
70.9041
67.6117
64.6947
62.1132
59.8277
57.8034
56.0106
54.4231
53.0184
51.7776
50.6853
49.7276
48.8928
48.1715
47.5563
47.0453
46.6253
46.3274
46.0419
795.99
867.811
360.011
921.427
2448.3
6908.02
13025.9
21689
276.859
107.347
51.5367
23.3081
18.6908
16.375
0.211304
-27.3926
-34.1323
-10.887
17.2572
24.349
17.2277
18.1356
18.0828
5.39057
-20.2881
-56.1679
-93.4065
-110.25
-96.1427
-58.6335
-15.6696
23.7436
53.7468
73.0865
83.2539
86.8243
86.3536
83.7672
80.29
76.6022
73.0281
69.7019
66.6717
63.942
61.4966
59.3123
57.3645
55.63
54.087
52.7166
51.503
50.4323
49.4919
48.6709
47.9607
47.3543
46.8504
46.4358
46.1415
45.8588
197.533
775.55
84.9332
325.612
1633.76
4740.06
20974.1
25230.3
-52.3762
51.822
48.6074
39.064
16.6054
5.69384
-13.3026
-34.0728
-38.3295
-15.613
9.06324
19.116
16.987
18.0594
19.4799
10.5032
-13.2982
-45.205
-78.6796
-94.8961
-83.9251
-52.3022
-14.4781
19.6702
45.9977
64.0391
74.694
79.6326
80.7039
79.4784
77.0754
74.1838
71.1822
68.2679
65.5365
63.0255
60.7419
58.6793
56.8246
55.1617
53.6741
52.347
51.1677
50.1245
49.2063
48.4031
47.7072
47.1123
46.6174
46.2097
45.9202
45.6413
-252.237
3499.24
-92.8482
-176.958
872.231
3472.37
29004.3
16568.4
-216.535
-4.21749
28.6791
38.8509
29.654
7.80952
-12.7147
-30.3011
-35.2698
-16.7766
2.33516
13.8277
14.8953
15.5996
15.174
7.81876
-8.86273
-33.2366
-56.7096
-70.933
-64.6981
-40.9822
-10.9316
17.1966
39.8968
56.4203
67.0827
72.8868
75.133
75.0646
73.6471
71.5276
69.1086
66.6293
64.2223
61.9542
59.8543
57.9317
56.185
54.606
53.1841
51.9089
50.7711
49.7612
48.8698
48.0884
47.41
46.8293
46.3455
45.9463
45.6628
45.3886
-1286.77
5127.42
-483.993
-603.159
48.5136
7539.08
29242
-43.6592
-250.479
-45.9121
3.25865
25.7202
32.772
21.5299
-6.35848
-20.0201
-26.56
-13.9951
-1.0651
9.11471
11.7821
12.9356
12.0372
6.34398
-5.78272
-23.3322
-40.1099
-49.9612
-46.034
-29.2719
-6.69787
15.9393
35.2101
50.0887
60.4082
66.6761
69.7767
70.6564
70.1048
68.7037
66.8545
64.8168
62.7488
60.7409
58.8415
57.0744
55.4487
53.9646
52.6177
51.4025
50.3129
49.3419
48.4819
47.7261
47.0686
46.5047
46.0341
45.6449
45.3684
45.0999
-2258.21
4778.53
-517.291
-968.494
-1053.61
11484.6
24481.3
-553.768
-258.213
-43.8557
12.2778
10.195
21.3147
7.66274
-1.24721
-11.0069
-16.1953
-8.85343
-1.54196
6.41263
9.46006
10.7365
9.75399
5.38985
-3.41215
-15.8314
-27.4488
-33.976
-31.2828
-19.5559
-2.79493
15.5386
31.6819
44.8799
54.6147
61.0447
64.7323
66.3546
66.5339
65.7785
64.4673
62.8633
61.1388
59.401
57.7137
56.1135
54.6196
53.2399
51.9767
50.8289
49.7936
48.8666
48.0424
47.3158
46.6823
46.1378
45.6824
45.3048
45.0364
44.7746
-2625.12
3865.45
-1506.14
-1584.28
-1441.18
11025.8
-1297.43
-906.616
-413.453
-97.6186
45.7083
8.98648
27.3329
12.4043
5.66517
-2.54011
-7.14762
-3.58083
-0.075324
5.55322
8.02989
9.1645
8.28964
4.95015
-1.4589
-10.1626
-18.1782
-22.5382
-20.4743
-12.0133
0.352161
15.7981
29.0572
40.616
49.6278
56.0079
60.0573
62.2292
63.0039
62.8111
61.9932
60.8031
59.4168
57.9516
56.4825
55.057
53.703
52.4359
51.2636
50.1895
49.2141
48.3356
47.5513
46.8576
46.2511
45.7283
45.29
44.9255
44.6664
44.4122
-2599.37
-2838.5
-2802.1
-2543.24
-1998.11
-11.6603
-1890.62
-1071.64
-617.235
-190.159
110.609
13.7465
37.2666
21.338
12.915
4.44817
0.589728
1.30867
2.30819
5.81218
7.40757
8.23289
7.4769
4.93772
0.284282
-5.78882
-11.2631
-14.1122
-12.4412
-6.06478
3.67212
15.628
27.0034
37.1217
45.3703
51.5509
55.7733
58.3258
59.5688
59.8525
59.4749
58.6695
57.6078
56.4106
55.1609
53.9141
52.7058
51.5574
50.4819
49.4867
48.5756
47.75
47.0095
46.3519
45.7749
45.2761
44.8566
44.5067
44.258
44.0122
-2666.19
-3835.93
-3776.74
-3368.97
-2298.08
-2928.03
-2396.42
-1638.72
-1084.75
16.1117
258.516
48.6765
49.463
29.3821
20.0279
10.288
7.12624
5.20771
5.01083
6.68358
7.45659
7.87446
7.18283
5.24655
1.88068
-2.33267
-6.02823
-7.79952
-6.34795
-1.39299
6.32793
15.8413
25.4371
34.2712
41.7583
47.6307
51.8788
54.6721
56.269
56.9446
56.95
56.4932
55.7355
54.7963
53.7625
52.6953
51.6356
50.6099
49.6353
48.723
47.8803
47.1113
46.4178
45.7992
45.2541
44.7811
44.3822
44.0483
43.811
43.5745
-2643.92
-3891.18
-3893.17
-3786.43
-3274.16
-3275.96
-2750.94
-1146.26
16971.3
29428.2
243.864
100.963
46.6567
37.3844
25.6822
15.2081
12.3716
8.79642
7.61446
7.88534
7.96399
7.96302
7.28042
5.7812
3.35371
0.452511
-1.99527
-3.00414
-1.67053
2.29474
8.48955
16.1972
24.2709
31.9565
38.6976
44.1921
48.3594
51.2815
53.1323
54.12
54.4497
54.3017
53.8225
53.1268
52.3019
51.4118
50.5009
49.5993
48.7281
47.9018
47.1307
46.4216
45.7778
45.2004
44.6891
44.2437
43.8669
43.5504
43.3254
43.0989
-2549.44
-3895.47
-3898.32
-3854.7
-3648.52
-3461.81
-3063.07
221.275
71181.5
75565.8
-157.81
102.263
26.7189
42.1479
28.068
19.4723
16.0997
11.8633
9.93477
9.21624
8.72166
8.35607
7.64828
6.45671
4.70669
2.72953
1.15843
0.686076
1.95091
5.21261
10.2563
16.5851
23.4017
30.0687
36.0967
41.179
45.1928
48.1558
50.1753
51.4023
51.9995
52.1185
51.8897
51.4197
50.7934
50.0747
49.31
48.5323
47.7654
47.0271
46.3301
45.6831
45.0911
44.5565
44.0807
43.6645
43.3113
43.0132
42.8012
42.5854
-3310.07
-3907.84
-3906.73
-3870.96
-3758.75
-3646.28
-3367.43
-289.401
78283.7
82119.6
651.56
92.577
5.99324
42.8288
26.9174
21.9637
18.423
14.2163
11.7898
10.4787
9.56213
8.91896
8.17582
7.19893
5.93396
4.60698
3.6514
3.55395
4.77093
7.51897
11.6896
16.9508
22.7342
28.5105
33.876
38.5377
42.3505
45.2876
47.405
48.8071
49.6186
49.964
49.9559
49.6915
49.2504
48.6949
48.0716
47.4155
46.7529
46.1035
45.4819
44.8983
44.3595
43.8692
43.4302
43.0445
42.716
42.4373
42.2389
42.0342
-3891.57
-3922.88
-3929.09
-3936.36
-3865.32
-3802.92
-3603.45
5336.42
83610.3
88028.5
1878.61
65.2408
20.0419
39.8423
25.7268
23.0368
19.5409
15.7471
13.1595
11.5321
10.3559
9.5328
8.76639
7.94536
7.02656
6.15739
5.63209
5.79342
6.96947
9.33441
12.8381
17.2579
22.1933
27.2039
31.9674
36.2174
39.8012
42.6631
44.8215
46.3434
47.3213
47.8542
48.0373
47.9567
47.6855
47.2827
46.7944
46.2564
45.6964
45.1355
44.5896
44.0701
43.5851
43.14
42.739
42.3849
42.082
41.8231
41.6387
41.4456
-3908.72
-3924.41
-3938.79
-3974.09
-3940.89
-3900.49
-3872.42
27828
89816.5
76973.4
2057.3
32.7407
25.6227
35.747
24.1805
23.2557
19.7796
16.4869
14.0056
12.2877
11.0084
10.102
9.34161
8.64495
7.97651
7.43031
7.20442
7.5419
8.67891
10.7509
13.7375
17.4899
21.7275
26.0867
30.3119
34.1706
37.5123
40.2646
42.4195
44.0153
45.1173
45.8017
46.147
46.2279
46.11
45.8481
45.4869
45.0622
44.602
44.128
43.6569
43.2013
42.7704
42.3712
42.0089
41.6871
41.4102
41.1715
41.0013
40.8203
-3884.68
-3913.52
-3929.92
-3974.47
-3971.28
-3940.01
-3987.29
37596.2
97289.5
28617.1
549.749
31.6569
24.0227
30.7057
22.6551
22.4695
19.3103
16.5427
14.3444
12.7084
11.4565
10.5547
9.84103
9.25657
8.77621
8.46093
8.44436
8.90041
9.99847
11.8403
14.4209
17.6409
21.3021
25.1098
28.8595
32.3541
35.4516
38.0721
40.1904
41.8228
43.0121
43.8151
44.2953
44.5156
44.534
44.4005
44.1576
43.84
43.4755
43.0857
42.6877
42.295
41.9181
41.565
41.2418
40.9525
40.7018
40.4834
40.3277
40.1591
-3854.28
-3872.56
-3908.22
-3950.45
-3961.84
-3945.14
-3979.02
12227.8
81015.4
17839.6
1334.15
58.9935
31.2063
28.4027
21.4845
20.5726
18.1517
16.0166
14.2165
12.7914
11.6676
10.8465
10.2192
9.74884
9.41971
9.27498
9.40784
9.94315
11.0015
12.6591
14.9177
17.7096
20.8936
24.2352
27.5685
30.7295
33.5887
36.0651
38.1228
39.7621
41.0076
41.9003
42.4898
42.8285
42.9663
42.9484
42.8142
42.5967
42.3226
42.0133
41.6859
41.3547
41.031
40.7238
40.4396
40.1827
39.9581
39.7601
39.6189
39.4631
-3807.39
-3844.34
-3882.68
-3919.11
-3930.58
-3934.23
-3946.68
-4126.87
34681.7
60781.2
5592.32
53.4913
31.6
25.0777
19.5708
18.46
16.6471
15.0406
13.6454
12.5436
11.6323
10.9545
10.4493
10.1005
9.90356
9.89236
10.1361
10.7242
11.7432
13.2503
15.2506
17.699
20.4865
23.4339
26.4047
29.2637
31.8959
34.2231
36.2039
37.8269
39.1031
40.0601
40.7361
41.1735
41.4145
41.4992
41.4635
41.3382
41.1487
40.9154
40.6556
40.3839
40.1123
39.8501
39.6043
39.3793
39.1805
39.0029
38.8765
38.7336
-3766.18
-3818.1
-3854.05
-3886.3
-3890.73
-3907.96
-3897.43
-3983.51
90578.5
105388
7947.39
-2.65004
12.6661
16.544
15.4193
15.5232
14.6045
13.6476
12.7593
12.002
11.3576
10.8716
10.5186
10.3018
10.2283
10.3299
10.6603
11.2847
12.2663
13.6486
15.4396
17.6136
20.0707
22.6838
25.3403
27.9283
30.3479
32.5264
34.42
36.0092
37.2953
38.2954
39.0378
39.5558
39.8846
40.0591
40.1116
40.0704
39.9588
39.7966
39.6008
39.3862
39.1649
38.9464
38.738
38.5441
38.3708
38.2135
38.1019
37.9721
-3711.8
-3777.84
-3816.93
-3830.01
-3833.39
-3873.05
-3855.12
-3917
122067
111362
5865.51
-55.4387
-10.5512
4.50169
8.89119
11.3976
11.889
11.8188
11.5278
11.1933
10.8589
10.6026
10.4258
10.352
10.3996
10.6023
11.0045
11.656
12.6043
13.8817
15.4984
17.4608
19.6395
21.9682
24.3525
26.6992
28.9225
30.9566
32.7571
34.3001
35.5798
36.6055
37.3967
37.979
38.3812
38.6332
38.7637
38.798
38.7577
38.6613
38.5256
38.365
38.1918
38.0153
37.8428
37.6792
37.5308
37.3936
37.2968
37.1799
-3533.77
-3558.69
-3412
-3429.08
-3810.97
-3837.57
-3834.67
6912.5
128746
83041.6
1961.14
-70.0972
-23.628
-6.63114
1.56032
6.53007
8.66685
9.61443
10.0106
10.1584
10.1628
10.1633
10.1795
10.2565
10.4251
10.7225
11.188
11.8628
12.7842
13.9747
15.4263
17.257
19.1889
21.2739
23.4227
25.5558
27.6002
29.4965
31.202
32.6903
33.9513
34.9881
35.8131
36.4452
36.9075
37.2256
37.4241
37.5256
37.5496
37.5136
37.4337
37.3239
37.196
37.0593
36.9211
36.7866
36.6624
36.545
36.4627
36.3586
-2748.42
-2852.8
-2896.97
-3446.34
-3767.83
-3794.93
-3808.69
18120.2
137085
72945.4
435.417
-49.1116
-24.1413
-11.3052
-3.86624
2.06516
5.36547
7.23069
8.31185
8.95709
9.31315
9.57962
9.79587
10.0275
10.3166
10.7045
11.2289
11.9267
12.8293
13.9557
15.3098
16.9383
18.7039
20.5889
22.536
24.4813
26.3639
28.1309
29.742
31.1706
32.4038
33.44
34.286
34.9552
35.4658
35.8391
36.0963
36.2568
36.3384
36.3573
36.3287
36.2659
36.1804
36.081
35.9753
35.8686
35.7678
35.6697
35.6016
35.5099
-3220.32
-2862.69
-3081.81
-3676.05
-3722.29
-3750.72
-3775.03
27666.2
151192
74505.5
158.707
-22.3433
-17.907
-10.8033
-6.53474
-1.1669
2.49779
4.9687
6.58936
7.67246
8.37104
8.88874
9.29705
9.68094
10.0872
10.562
11.1429
11.8647
12.7554
13.8303
15.1001
16.5757
18.1899
19.9065
21.6809
23.462
25.1991
26.8459
28.3653
29.7317
30.9308
31.9573
32.8136
33.5088
34.0571
34.4759
34.7829
34.9948
35.1273
35.1956
35.2138
35.1943
35.1479
35.0833
35.008
34.9276
34.8492
34.7697
34.7151
34.6355
-3317.24
-3566.24
-3648.98
-3665.69
-3690.83
-3712.76
-3745.44
40530
163880
78576.5
187.225
-7.63255
-10.7459
-8.49241
-7.10441
-3.01099
0.370011
3.05488
4.99975
6.40487
7.38396
8.12638
8.70747
9.23533
9.75137
10.3094
10.9452
11.6916
12.5772
13.6093
14.8114
16.1679
17.6497
19.2226
20.8488
22.4866
24.0937
25.6297
27.0615
28.3653
29.5259
30.5355
31.3934
32.1052
32.682
33.1374
33.486
33.7419
33.9191
34.0315
34.0918
34.1118
34.1012
34.0687
34.0217
33.9661
33.9088
33.8469
33.8053
33.7373
-3633.72
-3678.4
-3645.55
-3630.6
-3659.38
-3680.36
-3721.57
61098
176200
81124.6
81.7477
-2.59007
-7.43732
-6.16063
-6.44754
-3.73047
-0.949669
1.61034
3.65323
5.2327
6.4059
7.32112
8.0599
8.71401
9.32663
9.96323
10.6512
11.4195
12.3097
13.3123
14.4495
15.7134
17.0841
18.5344
20.0331
21.546
23.0369
24.4717
25.8211
27.0632
28.1826
29.1699
30.0223
30.743
31.3402
31.8244
32.207
32.5001
32.7161
32.8673
32.9654
33.0209
33.0429
33.0399
33.019
32.9864
32.9489
32.9035
32.8741
32.817
-3648.98
-3568.84
-3501.55
-3519.42
-3647.91
-3652.04
-3701.59
89661
186776
80225.8
-10.9197
-1.21696
-6.13674
-5.27682
-5.73213
-3.88057
-1.67301
0.594524
2.56646
4.18875
5.47044
6.50653
7.36753
8.12652
8.83367
9.5389
10.2761
11.0735
11.9588
12.94
14.0268
15.2158
16.4937
17.8398
19.229
20.6326
22.0203
23.3631
24.6357
25.8181
26.8948
27.8559
28.6973
29.4206
30.0313
30.537
30.9468
31.2708
31.5199
31.7051
31.8367
31.9239
31.9754
31.9991
32.0023
31.9909
31.9718
31.9417
31.9235
31.8767
-3618.64
-3384.76
-3358.64
-3533.58
-3626.93
-3619.21
-3753.54
130179
195601
77563
-9.52261
-1.73644
-5.88171
-4.93735
-5.09875
-3.70066
-1.96565
-0.0700197
1.71105
3.27672
4.59268
5.70045
6.64986
7.49503
8.28111
9.04915
9.83154
10.6551
11.5423
12.5056
13.5517
14.6794
15.8799
17.1377
18.4326
19.7406
21.0367
22.2964
23.4981
24.6231
25.6567
26.589
27.4154
28.136
28.7541
29.275
29.7058
30.055
30.3321
30.5466
30.7074
30.8228
30.9007
30.9486
30.9737
30.9818
30.9795
30.9635
30.9555
30.9184
-3515.35
-3477.04
-3459.66
-3594.86
-3596.93
-3561.91
-3841.3
176540
204670
69783.9
-2.22238
-3.75178
-7.02784
-5.24617
-4.88981
-3.67978
-2.23301
-0.619908
0.970592
2.44605
3.75542
4.90338
5.9166
6.83118
7.68307
8.50606
9.32918
10.177
11.0694
12.0188
13.0319
14.1092
15.2449
16.4276
17.641
18.8655
20.0804
21.2655
22.4017
23.4721
24.463
25.365
26.1734
26.887
27.5074
28.0379
28.4841
28.8533
29.1535
29.393
29.5791
29.7193
29.8206
29.8904
29.9353
29.9611
29.974
29.9708
29.9721
29.9438
-3325.73
-3508.64
-3611.05
-3606.25
-3600.97
-3605.59
58217.8
210547
214103
52206.3
-6.64453
-7.6272
-10.4913
-6.81055
-5.3579
-3.95151
-2.58359
-1.16071
0.272253
1.65922
2.94712
4.11728
5.17614
6.14528
7.0513
7.92133
8.7805
9.65071
10.5493
11.4883
12.4745
13.5099
14.5911
15.7096
16.8524
18.0039
19.1471
20.265
21.341
22.3598
23.3089
24.18
24.9683
25.6715
26.2897
26.825
27.2818
27.6663
27.9852
28.2453
28.453
28.6146
28.7367
28.8259
28.8888
28.9305
28.9572
28.9655
28.9751
28.9548
-3303.62
-3505.61
-3607.51
-3614.98
-3529.28
-3754.7
158161
226621
208109
25968.8
-29.7786
-13.9954
-15.3854
-9.54455
-6.88314
-4.94636
-3.38124
-1.9306
-0.525541
0.836895
2.12588
3.3232
4.42465
5.44195
6.39474
7.3055
8.19623
9.08626
9.99104
10.9218
11.8859
12.8863
13.9213
14.9846
16.0662
17.1537
18.2334
19.2908
20.3112
21.2813
22.1903
23.0305
23.7971
24.4871
25.0995
25.6355
26.0987
26.4942
26.8276
27.1045
27.3301
27.5101
27.6502
27.7567
27.8356
27.8917
27.9306
27.9492
27.9662
27.953
-3407.77
-3613.92
-3616.23
-3637.03
-3590.89
41841.2
219061
236856
159611
6089.1
-42.5466
-21.2556
-18.9297
-12.5048
-8.9043
-6.39265
-4.51901
-2.91662
-1.44071
-0.0319015
1.29953
2.53847
3.67982
4.73614
5.72623
6.67001
7.58667
8.49304
9.40289
10.3269
11.2725
12.2432
13.2385
14.254
15.2822
16.3136
17.3367
18.3392
19.3084
20.2328
21.1034
21.9132
22.6571
23.3317
23.9352
24.4685
24.9344
25.3371
25.6813
25.9712
26.2114
26.4067
26.5624
26.6841
26.7771
26.8459
26.8957
26.9233
26.9468
26.94
-3618.68
-3619.07
-3612.77
-3573.63
-3960.48
195639
245582
247325
93309.2
-29.6963
-34.4032
-22.7315
-17.7148
-14.0393
-10.7913
-8.17
-5.95065
-4.09696
-2.46397
-0.94848
0.453538
1.74447
2.92759
4.02328
5.04884
6.02183
6.95994
7.87923
8.79269
9.71059
10.6402
11.5852
12.546
13.5197
14.5012
15.4827
16.455
17.4074
18.3293
19.2112
20.0452
20.8251
21.5456
22.2029
22.7951
23.3228
23.7884
24.1951
24.5464
24.846
25.0976
25.3055
25.4743
25.609
25.7144
25.7943
25.8537
25.8892
25.9182
25.917
-3300.32
-3595.6
-3609.84
-3709.01
132421
254872
256070
248119
33101
-28.5961
-27.7621
-23.3966
-19.8435
-15.2088
-12.1755
-9.87832
-7.51241
-5.43749
-3.64633
-1.97163
-0.41452
0.978458
2.22074
3.34535
4.38811
5.37579
6.32621
7.25307
8.16768
9.0792
9.99417
10.9163
11.8466
12.7836
13.7236
14.6606
15.5869
16.4934
17.3716
18.2137
19.013
19.7635
20.4599
21.0985
21.6776
22.1976
22.6601
23.0677
23.4232
23.7293
23.9894
24.2072
24.3868
24.5325
24.6485
24.738
24.8055
24.848
24.8817
24.8852
-3469.11
-3584.55
-3707.62
79653.2
255439
265325
266731
133067
-3.32593
-22.0401
-30.1535
-17.6034
-16.7515
-15.0687
-13.9566
-12.0375
-9.42649
-6.91151
-4.78241
-2.89562
-1.19008
0.271331
1.52819
2.66406
3.72483
4.72841
5.68892
6.62046
7.53427
8.43873
9.33974
10.2409
11.1439
12.0481
12.9509
13.8475
14.7316
15.5959
16.4338
17.2387
18.0046
18.726
19.3979
20.0169
20.5814
21.0917
21.549
21.9549
22.3116
22.6214
22.8873
23.1125
23.3007
23.4554
23.5802
23.6778
23.7523
23.8006
23.8383
23.8457
-3859.92
-998.786
81776.4
259920
275156
275831
264403
43431.3
-36.1006
-19.5575
-15.4405
-15.612
-16.1192
-14.6881
-13.8851
-13.9752
-11.8649
-8.78146
-6.2626
-4.14244
-2.14197
-0.401391
0.948972
2.0979
3.13368
4.11361
5.06333
5.99016
6.8988
7.79434
8.68122
9.56269
10.4406
11.3149
12.1838
13.0433
13.8884
14.7139
15.5142
16.2839
17.0177
17.7102
18.3572
18.9559
19.5048
20.004
20.4539
20.8559
21.2113
21.5223
21.7915
22.0219
22.2165
22.3783
22.5101
22.6143
22.6946
22.7478
22.7889
22.7995
62062.9
175425
285643
286557
286475
287135
134787
-13.9892
-38.3634
-33.8517
-16.4019
-16.3969
-14.6998
-15.6174
-19.0324
-19.6825
-16.2184
-11.1592
-7.55716
-5.06849
-2.70391
-0.778246
0.468925
1.49829
2.50039
3.48452
4.43716
5.36161
6.26418
7.14967
8.02207
8.88451
9.73892
10.5855
11.4228
12.2479
13.0572
13.8465
14.6117
15.3479
16.0502
16.7143
17.3364
17.9143
18.4468
18.9335
19.3744
19.7702
20.1222
20.4322
20.7026
20.936
21.135
21.3019
21.439
21.5483
21.6333
21.6904
21.7343
21.7475
408208
408220
408238
408253
408252
408234
408199
408141
408048
407903
407679
407336
406811
406020
404827
402996
400427
395293
390297
370924
407577
407589
407604
407608
407588
407546
407479
407383
407248
407058
406784
406381
405783
404864
403535
401209
398499
390926
383200
356099
406953
406964
406976
406967
406927
406860
406762
406633
406465
406245
405945
405515
404898
403935
402628
400187
397454
390769
382817
370188
406337
406350
406358
406335
406276
406184
406062
405910
405725
405495
405196
404781
404201
403310
402109
400082
397449
393255
386667
381885
405732
405748
405752
405715
405640
405531
405394
405235
405052
404836
404566
404201
403698
402954
401926
400415
398187
395831
390814
387508
405138
405160
405160
405114
405028
404911
404775
404626
404465
404284
404062
403769
403365
402783
401960
400861
399105
397496
393988
390916
404556
404585
404583
404533
404445
404335
404215
404094
403971
403838
403677
403464
403163
402726
402094
401261
399931
398595
396203
393657
403985
404023
404025
403977
403897
403806
403718
403637
403562
403484
403390
403255
403050
402735
402261
401613
400616
399488
397788
395782
403396
403468
403482
403442
403382
403324
403277
403242
403218
403197
403167
403105
402986
402774
402427
401921
401165
400233
398948
397360
402910
402948
402948
402924
402889
402870
402869
402886
402914
402948
402976
402977
402928
402797
402547
402150
401563
400802
399787
398484
354748
360742
361335
356755
352209
352855
356624
362871
370119
377731
384997
391245
396098
399582
401775
401316
399663
396161
390215
378567
34749
48284.8
60470.4
67771.8
68810.5
67916.9
66971.7
67766.9
70665.7
76078.9
83214.5
90960.4
98414.9
105062
107407
105443
99318.9
87712.7
69798.9
45134
-16.7264
-4.65405
-0.828715
0.105166
1.26145
2.46332
3.04412
2.25365
0.355116
-1.93084
-3.71131
-4.94318
-7.16177
-9.63298
-12.0948
-14.396
-17.2029
-19.6898
-20.6899
-16.5392
4.23895
4.49111
4.05227
3.5373
2.97734
2.57173
2.40324
2.43072
2.63472
2.90746
3.05456
2.97028
3.01473
3.02891
2.91565
2.58983
1.93377
0.787071
-0.970315
-3.09073
-2.08236
-1.24505
-0.199871
0.405017
1.06163
1.48349
1.58319
1.34691
0.749881
-0.0968386
-0.879298
-1.54851
-2.29832
-3.1119
-3.92676
-4.69859
-5.41456
-6.02945
-6.49488
-6.53075
0.859308
0.676326
1.04312
1.24232
1.32972
1.34876
1.32786
1.25671
1.12272
0.941691
0.621463
0.238049
-0.180634
-0.63095
-1.11633
-1.64516
-2.22991
-2.87409
-3.56866
-4.20313
0.591583
0.411829
0.652142
0.804704
0.910119
0.963335
0.945728
0.8215
0.621314
0.351959
0.0341477
-0.319168
-0.707739
-1.12683
-1.56746
-2.02108
-2.48154
-2.94246
-3.39881
-3.81612
0.556863
0.437101
0.568383
0.658883
0.719475
0.741004
0.70893
0.612214
0.456911
0.250001
0.00044126
-0.282608
-0.593218
-0.926427
-1.2778
-1.64427
-2.02342
-2.41051
-2.79531
-3.15536
0.439751
0.410452
0.469033
0.517027
0.545116
0.542927
0.502045
0.416668
0.287437
0.118106
-0.0859932
-0.318795
-0.575226
-0.850998
-1.14224
-1.44548
-1.75697
-2.07156
-2.38205
-2.67175
0.280943
0.34675
0.353024
0.37781
0.385296
0.370427
0.327637
0.253067
0.146223
0.00911975
-0.15473
-0.341077
-0.545708
-0.764642
-0.994244
-1.23139
-1.47305
-1.71518
-1.9528
-2.17981
0.110773
0.270184
0.233824
0.24689
0.243189
0.222975
0.18341
0.121666
0.036902
-0.0699115
-0.196554
-0.34
-0.49678
-0.663218
-0.835921
-1.01258
-1.19196
-1.37211
-1.54838
-1.71618
-0.0579932
0.203444
0.11138
0.126942
0.117408
0.097006
0.0647667
0.0180566
-0.0441577
-0.121575
-0.212943
-0.316214
-0.428673
-0.546966
-0.667647
-0.788718
-0.90986
-1.03065
-1.14948
-1.26426
-0.24068
0.175255
-0.0212038
0.0145022
-0.000723411
-0.017989
-0.0396143
-0.0688795
-0.106908
-0.153812
-0.209108
-0.271789
-0.340422
-0.412549
-0.484957
-0.556122
-0.62593
-0.691793
-0.753484
-0.812834
-0.650017
0.192681
-0.156927
-0.101456
-0.122124
-0.133895
-0.142445
-0.150636
-0.159639
-0.170513
-0.184302
-0.2017
-0.222622
-0.246839
-0.274568
-0.304354
-0.332121
-0.355731
-0.374698
-0.38959
335236
321045
308046
312775
323636
336219
352599
362044
363317
366733
363485
358469
350539
339401
322349
313025
313754
306757
305004
318283
330291
346580
357832
360432
361791
360428
355770
349425
340408
330444
348464
335411
321772
318481
325995
336929
348150
356365
359252
359747
358215
354509
349301
342735
335652
368155
355698
346269
341789
343040
347989
353667
357922
359661
359312
357444
354272
349935
344875
339572
379400
370927
364087
359421
357599
358274
359947
361267
361420
360329
358105
355002
351152
346868
320137
386110
380469
375222
370874
367940
366480
365802
365197
364063
362213
359631
356378
327341
240877
66274.6
390337
386227
382028
378171
375109
372833
370973
369242
367314
364882
339992
251493
69455.6
-33.6037
-28.2343
393245
390085
386697
383323
380328
377853
375605
373403
353280
271780
87231.1
-32.7459
-27.0939
-5.70347
-13.1546
395354
392902
390091
387211
384408
382277
358723
281951
103903
-37.6452
-27.3723
-3.93422
-11.9795
-15.7269
-16.6816
396752
394865
393074
380322
339318
247319
77118.5
-49.1412
-24.6208
-0.675169
-9.53407
-14.0716
-15.2601
-13.8488
-13.0082
357247
316198
249448
126146
3092.7
-59.4371
-12.8878
2.91787
-6.14413
-11.7623
-13.6379
-12.769
-12.2909
-12.5748
-12.9743
7626.89
-41.8854
-39.7873
-24.8645
0.043346
-0.220183
-6.17111
-11.0149
-12.4079
-11.4871
-11.2814
-11.4912
-11.9855
-11.6145
-11.4276
-2.27972
3.30819
-1.41748
-5.63247
-7.74054
-11.2292
-10.6533
-9.87935
-9.743
-10.0335
-10.4233
-10.5246
-10.4853
-10.4479
-10.3181
-5.06605
-8.12447
-9.91122
-10.1449
-8.31716
-7.72691
-7.93442
-8.54341
-9.06788
-9.28091
-9.39383
-9.45999
-9.49815
-9.44475
-9.38753
-5.66326
-5.32784
-5.86962
-6.59538
-6.82926
-7.33817
-7.80256
-7.96677
-8.09739
-8.23283
-8.33975
-8.39986
-8.41417
-8.36523
-8.24144
-4.59087
-4.91439
-5.67755
-6.36784
-6.43935
-6.58198
-6.73321
-6.95378
-7.12249
-7.24932
-7.34074
-7.39534
-7.41065
-7.38437
-7.32628
-4.13562
-4.44336
-4.79652
-5.1508
-5.43638
-5.70365
-5.89986
-6.05952
-6.196
-6.30514
-6.3849
-6.43352
-6.45048
-6.43577
-6.39545
-3.48774
-3.82609
-4.18284
-4.46859
-4.67317
-4.87046
-5.03915
-5.18339
-5.30285
-5.39634
-5.46487
-5.50749
-5.52455
-5.51637
-5.48591
-2.94328
-3.21101
-3.46797
-3.70506
-3.90416
-4.0755
-4.21948
-4.34027
-4.43975
-4.51789
-4.57509
-4.61108
-4.62656
-4.62201
-4.59871
-2.40443
-2.62622
-2.83049
-3.01161
-3.16888
-3.30592
-3.42297
-3.52122
-3.60145
-3.66423
-3.71013
-3.73919
-3.75206
-3.74945
-3.73253
-1.88323
-2.0483
-2.20079
-2.3374
-2.45733
-2.5614
-2.64981
-2.724
-2.78444
-2.83169
-2.86604
-2.88792
-2.89787
-2.89737
-2.89123
-1.37893
-1.49087
-1.59303
-1.68441
-1.76491
-1.83494
-1.89459
-1.94445
-1.98468
-2.01598
-2.03827
-2.05168
-2.05596
-2.04946
-2.02677
-0.874219
-0.936022
-0.992489
-1.0423
-1.08538
-1.12182
-1.15246
-1.17803
-1.19828
-1.21388
-1.22478
-1.23085
-1.23289
-1.23043
-1.2255
-0.402068
-0.412564
-0.420498
-0.425711
-0.42866
-0.429467
-0.428528
-0.426735
-0.424506
-0.422131
-0.419631
-0.416401
-0.411058
-0.395126
-0.392592
298409
297198
298189
298316
298054
207007
51644.6
-22.8177
-41.9439
-25.7922
-15.7782
-12.8164
-7.75037