/*--------------------------------*- C++ -*----------------------------------*\
| =========                 |                                                 |
| \\      /  F ield         | OpenFOAM: The Open Source CFD Toolbox           |
|  \\    /   O peration     | Version:  v1606+                                |
|   \\  /    A nd           | Web:      www.OpenFOAM.com                      |
|    \\/     M anipulation  |                                                 |
\*---------------------------------------------------------------------------*/
FoamFile
{
    version     2.0;
    format      ascii;
    class       volVectorField;
    location    "0.26";
    object      Ur;
}
// * * * * * * * * * * * * * * * * * * * * * * * * * * * * * * * * * * * * * //

dimensions      [0 1 -1 0 0 0 0];

internalField   nonuniform List<vector> 
6000
(
(0.0032302 -0.573383 0)
(-0.00543655 -0.596957 0)
(-0.00523553 -0.625742 0)
(-0.00963304 -0.622172 0)
(-0.0153195 -0.631859 0)
(-0.0214462 -0.637737 0)
(-0.0281964 -0.657869 0)
(-0.0320472 -0.672996 0)
(-0.0325767 -0.688852 0)
(-0.0288925 -0.698343 0)
(-0.022377 -0.697501 0)
(-0.0159315 -0.695836 0)
(-0.0119072 -0.701692 0)
(-0.00814164 -0.706866 0)
(-0.00132368 -0.713253 0)
(0.004896 -0.707277 0)
(0.00832907 -0.70457 0)
(0.0123456 -0.698917 0)
(0.0186116 -0.700836 0)
(0.026131 -0.702588 0)
(0.0319453 -0.696354 0)
(0.0339524 -0.683225 0)
(0.0319494 -0.669671 0)
(0.0275536 -0.654423 0)
(0.0217698 -0.641168 0)
(0.016703 -0.63187 0)
(0.0108547 -0.619661 0)
(0.00579465 -0.622003 0)
(0.00520353 -0.595608 0)
(-0.00340057 -0.571253 0)
(0.0147402 -0.940578 0)
(0.027453 -0.912495 0)
(0.0246854 -0.910917 0)
(0.014761 -0.89092 0)
(-0.00189193 -0.888012 0)
(-0.0172488 -0.890275 0)
(-0.0272913 -0.903218 0)
(-0.0312708 -0.913768 0)
(-0.0302213 -0.922766 0)
(-0.0274227 -0.92742 0)
(-0.0233705 -0.926956 0)
(-0.0171228 -0.926916 0)
(-0.00960292 -0.928353 0)
(-0.00325614 -0.929103 0)
(-0.000946386 -0.930374 0)
(0.0013931 -0.929082 0)
(0.00689401 -0.928474 0)
(0.0133884 -0.927243 0)
(0.0196271 -0.927565 0)
(0.0239512 -0.928944 0)
(0.0280756 -0.927383 0)
(0.0324814 -0.921369 0)
(0.0344814 -0.912303 0)
(0.0304406 -0.900199 0)
(0.018584 -0.889445 0)
(0.000616548 -0.886348 0)
(-0.0168204 -0.889188 0)
(-0.0266222 -0.909718 0)
(-0.028494 -0.913926 0)
(-0.0148337 -0.941085 0)
(0.0261282 -0.792924 0)
(0.0419279 -0.721222 0)
(0.0335981 -0.717276 0)
(0.0221061 -0.690282 0)
(0.000950903 -0.688901 0)
(-0.0191516 -0.696132 0)
(-0.0335527 -0.716091 0)
(-0.0382107 -0.734724 0)
(-0.0357342 -0.749558 0)
(-0.0298541 -0.75804 0)
(-0.0232945 -0.761571 0)
(-0.0163018 -0.763515 0)
(-0.00930381 -0.762954 0)
(-0.00377424 -0.763072 0)
(-0.000727111 -0.762344 0)
(0.00209478 -0.762801 0)
(0.00648323 -0.762242 0)
(0.0122131 -0.763774 0)
(0.018514 -0.763171 0)
(0.0245107 -0.761762 0)
(0.0315932 -0.758177 0)
(0.0384169 -0.748358 0)
(0.0413507 -0.733168 0)
(0.0358944 -0.713174 0)
(0.0197201 -0.693443 0)
(-0.0020286 -0.685981 0)
(-0.0239785 -0.68812 0)
(-0.0361482 -0.715656 0)
(-0.0437589 -0.724048 0)
(-0.0263487 -0.794867 0)
(0.022537 -0.835312 0)
(0.0402217 -0.720611 0)
(0.0342559 -0.709344 0)
(0.0250961 -0.676533 0)
(0.0129145 -0.667506 0)
(-0.00217952 -0.669845 0)
(-0.0162628 -0.688982 0)
(-0.0236966 -0.711035 0)
(-0.0243003 -0.727797 0)
(-0.0211543 -0.737402 0)
(-0.015787 -0.741979 0)
(-0.00969325 -0.743846 0)
(-0.00453776 -0.741499 0)
(-0.00111358 -0.739218 0)
(0.000248561 -0.735881 0)
(0.00098948 -0.737704 0)
(0.00285054 -0.738725 0)
(0.00659857 -0.742952 0)
(0.0119417 -0.742775 0)
(0.0173576 -0.740821 0)
(0.0223504 -0.737753 0)
(0.0258617 -0.727443 0)
(0.0253149 -0.710058 0)
(0.0173089 -0.686174 0)
(0.00206907 -0.666377 0)
(-0.0139538 -0.664431 0)
(-0.0262553 -0.674632 0)
(-0.0356937 -0.707704 0)
(-0.0418469 -0.725102 0)
(-0.0232435 -0.839659 0)
(0.000598098 -0.859613 0)
(0.0121532 -0.755341 0)
(0.0247926 -0.743073 0)
(0.0270088 -0.71847 0)
(0.0247146 -0.704232 0)
(0.0179721 -0.69439 0)
(0.0107891 -0.700251 0)
(0.00503558 -0.714286 0)
(0.00206138 -0.725211 0)
(0.00166901 -0.73036 0)
(0.0030101 -0.731078 0)
(0.00402066 -0.728975 0)
(0.00413029 -0.723952 0)
(0.00328476 -0.719374 0)
(0.00157897 -0.715063 0)
(-0.000681335 -0.716625 0)
(-0.0025692 -0.719194 0)
(-0.00340611 -0.725329 0)
(-0.00326893 -0.728436 0)
(-0.00176492 -0.730253 0)
(-0.000627448 -0.730871 0)
(-0.00137483 -0.725319 0)
(-0.00454557 -0.713748 0)
(-0.0106821 -0.698194 0)
(-0.0184837 -0.692122 0)
(-0.0257897 -0.704171 0)
(-0.0282326 -0.719393 0)
(-0.0253996 -0.743381 0)
(-0.0123624 -0.760248 0)
(-0.000807928 -0.865061 0)
(-0.00794956 -0.973214 0)
(0.00139628 -0.947291 0)
(0.0258308 -0.947928 0)
(0.0372838 -0.934931 0)
(0.0424185 -0.917398 0)
(0.0415345 -0.895067 0)
(0.0345256 -0.878949 0)
(0.0245553 -0.871676 0)
(0.0179714 -0.865806 0)
(0.0154941 -0.857878 0)
(0.0149896 -0.847851 0)
(0.0139139 -0.835728 0)
(0.0111872 -0.823567 0)
(0.00729649 -0.8146 0)
(0.00272441 -0.808863 0)
(-0.00240356 -0.809817 0)
(-0.00719535 -0.814912 0)
(-0.0111334 -0.824912 0)
(-0.0137662 -0.836099 0)
(-0.0141986 -0.84793 0)
(-0.0147272 -0.858768 0)
(-0.0176605 -0.866823 0)
(-0.0246285 -0.872321 0)
(-0.0350496 -0.878899 0)
(-0.0428576 -0.894685 0)
(-0.0448644 -0.91973 0)
(-0.0398526 -0.939688 0)
(-0.0262923 -0.953209 0)
(-0.000306145 -0.952528 0)
(0.00840904 -0.977002 0)
(-0.0153345 -1.18875 0)
(-0.0116767 -1.21512 0)
(0.0258733 -1.21707 0)
(0.0541519 -1.19215 0)
(0.0681273 -1.16949 0)
(0.0687397 -1.14907 0)
(0.0549021 -1.1359 0)
(0.0389669 -1.13361 0)
(0.0319805 -1.12987 0)
(0.0312067 -1.12054 0)
(0.0328909 -1.1073 0)
(0.0323011 -1.08967 0)
(0.0263566 -1.07294 0)
(0.0173346 -1.06103 0)
(0.00593519 -1.05322 0)
(-0.00663 -1.05426 0)
(-0.0178854 -1.06138 0)
(-0.0267059 -1.07463 0)
(-0.0318779 -1.09038 0)
(-0.0326263 -1.10735 0)
(-0.0313721 -1.1214 0)
(-0.0320364 -1.1311 0)
(-0.0388393 -1.1342 0)
(-0.0550253 -1.13541 0)
(-0.0715352 -1.14669 0)
(-0.0742942 -1.16967 0)
(-0.0595712 -1.19617 0)
(-0.0259472 -1.22327 0)
(0.0155845 -1.21869 0)
(0.0174273 -1.1886 0)
(0.000797736 -1.2459 0)
(0.0384179 -1.30304 0)
(0.104132 -1.30833 0)
(0.120105 -1.25941 0)
(0.101662 -1.2251 0)
(0.0761562 -1.20172 0)
(0.038204 -1.18953 0)
(0.0111971 -1.1998 0)
(0.00552281 -1.20237 0)
(0.0103156 -1.19544 0)
(0.016965 -1.18531 0)
(0.0198978 -1.16998 0)
(0.0176756 -1.15599 0)
(0.0121664 -1.14685 0)
(0.00412759 -1.13924 0)
(-0.00497217 -1.14074 0)
(-0.0129244 -1.14662 0)
(-0.0181136 -1.15774 0)
(-0.0195981 -1.17029 0)
(-0.0166106 -1.18458 0)
(-0.00989924 -1.1959 0)
(-0.00476665 -1.20384 0)
(-0.0110589 -1.20053 0)
(-0.0400739 -1.18826 0)
(-0.0810789 -1.19563 0)
(-0.109279 -1.22193 0)
(-0.12767 -1.26386 0)
(-0.107363 -1.3181 0)
(-0.0365888 -1.30676 0)
(0.000721708 -1.24266 0)
(0.0798309 -1.41491 0)
(0.248024 -1.4815 0)
(0.376845 -1.41938 0)
(0.378329 -1.26903 0)
(0.304127 -1.26236 0)
(0.196865 -1.23152 0)
(0.0894663 -1.24881 0)
(-0.00975958 -1.31839 0)
(-0.0570666 -1.36783 0)
(-0.0641414 -1.38531 0)
(-0.0508389 -1.38003 0)
(-0.0324322 -1.35922 0)
(-0.0176371 -1.33919 0)
(-0.00823195 -1.32358 0)
(-0.00253616 -1.31154 0)
(0.00199019 -1.31328 0)
(0.00772549 -1.32401 0)
(0.0175654 -1.34207 0)
(0.0329037 -1.36061 0)
(0.052297 -1.37988 0)
(0.0661063 -1.38621 0)
(0.0581663 -1.36814 0)
(0.00746339 -1.31519 0)
(-0.0973539 -1.24188 0)
(-0.208785 -1.22347 0)
(-0.316434 -1.25607 0)
(-0.389606 -1.27163 0)
(-0.386311 -1.4309 0)
(-0.251723 -1.48989 0)
(-0.0802696 -1.4137 0)
(0.146775 -1.48215 0)
(0.341839 -1.41754 0)
(0.449955 -1.23774 0)
(0.439715 -0.991612 0)
(0.356852 -0.876048 0)
(0.261221 -0.91519 0)
(0.126057 -0.871788 0)
(0.022325 -0.973426 0)
(-0.0632771 -1.06607 0)
(-0.105262 -1.12892 0)
(-0.109694 -1.16047 0)
(-0.0908266 -1.16989 0)
(-0.0652497 -1.17053 0)
(-0.0398153 -1.16751 0)
(-0.0132647 -1.1637 0)
(0.0140357 -1.16438 0)
(0.0403881 -1.16803 0)
(0.0656105 -1.17204 0)
(0.0907655 -1.171 0)
(0.110373 -1.1604 0)
(0.106183 -1.12819 0)
(0.0626505 -1.06335 0)
(-0.0261625 -0.966024 0)
(-0.134347 -0.861365 0)
(-0.272682 -0.907922 0)
(-0.364793 -0.870087 0)
(-0.446509 -0.993472 0)
(-0.456033 -1.24839 0)
(-0.34635 -1.42571 0)
(-0.149812 -1.48397 0)
(0.0950601 -1.54178 0)
(0.224775 -1.42835 0)
(0.325853 -1.2032 0)
(0.354394 -0.905002 0)
(0.357944 -0.818741 0)
(0.262283 -0.745108 0)
(0.143391 -0.777168 0)
(0.0605097 -0.833382 0)
(-0.00718919 -0.939604 0)
(-0.0668118 -1.02427 0)
(-0.0902577 -1.07628 0)
(-0.0829113 -1.0892 0)
(-0.0608711 -1.08549 0)
(-0.0377105 -1.07996 0)
(-0.0126841 -1.07629 0)
(0.0132851 -1.0767 0)
(0.038081 -1.08061 0)
(0.06088 -1.0868 0)
(0.0824181 -1.09064 0)
(0.0899506 -1.07746 0)
(0.0665924 -1.02394 0)
(0.0060943 -0.936759 0)
(-0.063546 -0.825674 0)
(-0.148998 -0.763006 0)
(-0.269003 -0.732167 0)
(-0.363999 -0.813407 0)
(-0.357516 -0.909332 0)
(-0.326941 -1.21452 0)
(-0.2265 -1.43673 0)
(-0.0973168 -1.54607 0)
(0.0568812 -1.62715 0)
(0.120631 -1.46796 0)
(0.208967 -1.22381 0)
(0.276965 -0.883847 0)
(0.303352 -0.74 0)
(0.237373 -0.615427 0)
(0.140693 -0.641919 0)
(0.0709019 -0.801017 0)
(0.0199585 -0.859567 0)
(-0.0294839 -0.962571 0)
(-0.0629046 -1.04165 0)
(-0.0723425 -1.0862 0)
(-0.0569027 -1.09193 0)
(-0.0345198 -1.0909 0)
(-0.0115992 -1.08947 0)
(0.0116804 -1.08974 0)
(0.0344681 -1.09147 0)
(0.0565958 -1.09288 0)
(0.0720561 -1.0873 0)
(0.0629024 -1.0427 0)
(0.0292804 -0.961732 0)
(-0.020793 -0.855741 0)
(-0.0734435 -0.791727 0)
(-0.143973 -0.627466 0)
(-0.240742 -0.603539 0)
(-0.306618 -0.737839 0)
(-0.276445 -0.890818 0)
(-0.206225 -1.23397 0)
(-0.120247 -1.47445 0)
(-0.0579545 -1.63233 0)
(0.0364151 -1.63714 0)
(0.0652891 -1.46752 0)
(0.12701 -1.23714 0)
(0.201511 -0.885306 0)
(0.245218 -0.696755 0)
(0.20851 -0.525414 0)
(0.140512 -0.544311 0)
(0.0712469 -0.717916 0)
(0.0255337 -0.795694 0)
(-0.000406742 -0.900386 0)
(-0.0315266 -0.985689 0)
(-0.052531 -1.05048 0)
(-0.0506916 -1.07677 0)
(-0.0320795 -1.07944 0)
(-0.0107899 -1.07915 0)
(0.0106403 -1.07918 0)
(0.0319064 -1.07954 0)
(0.0506254 -1.07702 0)
(0.0528251 -1.05188 0)
(0.031928 -0.986462 0)
(0.000501016 -0.899147 0)
(-0.0260578 -0.790913 0)
(-0.07355 -0.705397 0)
(-0.143633 -0.531331 0)
(-0.210232 -0.516778 0)
(-0.244278 -0.697378 0)
(-0.197691 -0.893592 0)
(-0.123256 -1.24494 0)
(-0.0648598 -1.47223 0)
(-0.0372362 -1.64188 0)
(0.0302267 -1.62377 0)
(0.043788 -1.44341 0)
(0.0771595 -1.22591 0)
(0.136158 -0.883429 0)
(0.189008 -0.673573 0)
(0.17484 -0.461614 0)
(0.126688 -0.464519 0)
(0.0599459 -0.636076 0)
(0.0303316 -0.744421 0)
(0.0259949 -0.843367 0)
(-0.00320807 -0.930876 0)
(-0.0247392 -1.00488 0)
(-0.0343215 -1.05332 0)
(-0.025778 -1.06866 0)
(-0.0088897 -1.07154 0)
(0.0091428 -1.07145 0)
(0.0260543 -1.0687 0)
(0.0348582 -1.05367 0)
(0.0252968 -1.00604 0)
(0.0034412 -0.931261 0)
(-0.0259234 -0.841842 0)
(-0.0307339 -0.739061 0)
(-0.0612785 -0.62322 0)
(-0.128048 -0.452402 0)
(-0.174854 -0.45512 0)
(-0.186116 -0.677298 0)
(-0.130959 -0.890595 0)
(-0.0738944 -1.23142 0)
(-0.0437649 -1.44631 0)
(-0.0314751 -1.62929 0)
(0.0357407 -1.6043 0)
(0.0404509 -1.3982 0)
(0.0477007 -1.1916 0)
(0.0846503 -0.868222 0)
(0.135719 -0.663275 0)
(0.13947 -0.418126 0)
(0.10744 -0.399194 0)
(0.0517 -0.559259 0)
(0.0296656 -0.762154 0)
(0.0282222 -0.79327 0)
(0.00920026 -0.881049 0)
(-0.00334109 -0.959046 0)
(-0.0127072 -1.01706 0)
(-0.0131941 -1.04555 0)
(-0.00483253 -1.0538 0)
(0.00577585 -1.05323 0)
(0.0142031 -1.04545 0)
(0.0135355 -1.0173 0)
(0.00371003 -0.959573 0)
(-0.00921757 -0.881224 0)
(-0.0282082 -0.791707 0)
(-0.029861 -0.756012 0)
(-0.0516762 -0.547513 0)
(-0.106569 -0.388407 0)
(-0.137559 -0.413981 0)
(-0.131464 -0.668945 0)
(-0.0796482 -0.874009 0)
(-0.0450848 -1.19478 0)
(-0.0408493 -1.39896 0)
(-0.0372796 -1.61026 0)
(0.0448232 -1.58934 0)
(0.0411866 -1.33264 0)
(0.0262359 -1.13571 0)
(0.0463977 -0.840977 0)
(0.0874009 -0.65389 0)
(0.101848 -0.391334 0)
(0.0827749 -0.353004 0)
(0.0469549 -0.499795 0)
(0.018475 -0.71061 0)
(0.0107811 -0.753356 0)
(0.0108436 -0.83945 0)
(0.00858354 -0.91874 0)
(0.00479461 -0.976306 0)
(7.53848e-05 -1.01052 0)
(-0.000120939 -1.02261 0)
(0.00147304 -1.02307 0)
(0.00130068 -1.01023 0)
(-0.00385803 -0.97611 0)
(-0.00818908 -0.918774 0)
(-0.0107671 -0.839288 0)
(-0.0106673 -0.751778 0)
(-0.0179687 -0.704946 0)
(-0.0454153 -0.489568 0)
(-0.0801296 -0.343535 0)
(-0.0984363 -0.388892 0)
(-0.0826433 -0.660195 0)
(-0.0424104 -0.845339 0)
(-0.0242085 -1.13651 0)
(-0.0407522 -1.33174 0)
(-0.0455263 -1.59705 0)
(0.0412912 -1.5745 0)
(0.0274564 -1.25387 0)
(0.00522747 -1.06397 0)
(0.0182261 -0.804212 0)
(0.0466027 -0.639162 0)
(0.0632522 -0.376194 0)
(0.0543842 -0.324285 0)
(0.0332589 -0.454653 0)
(0.00171583 -0.653383 0)
(-0.000663182 -0.713999 0)
(0.0164316 -0.801456 0)
(0.0178131 -0.880226 0)
(0.0179124 -0.929184 0)
(0.0102112 -0.962936 0)
(0.00391929 -0.976086 0)
(-0.00196551 -0.976627 0)
(-0.00863684 -0.96228 0)
(-0.0167879 -0.928269 0)
(-0.0172011 -0.879553 0)
(-0.0161831 -0.800784 0)
(0.000802482 -0.712282 0)
(-0.000919847 -0.648495 0)
(-0.0308413 -0.446206 0)
(-0.0505687 -0.316235 0)
(-0.0588707 -0.374564 0)
(-0.0423882 -0.644856 0)
(-0.0157676 -0.807207 0)
(-0.00355215 -1.06416 0)
(-0.0251881 -1.25316 0)
(-0.039979 -1.58146 0)
(0.0229512 -1.53452 0)
(-0.00118959 -1.17432 0)
(-0.0184283 -0.993852 0)
(0.000218669 -0.769092 0)
(0.0186004 -0.614691 0)
(0.0297243 -0.367609 0)
(0.0293601 -0.306795 0)
(0.0202781 -0.414311 0)
(-0.00342186 -0.586896 0)
(-0.0157244 -0.719586 0)
(0.00154159 -0.751428 0)
(0.0233822 -0.830686 0)
(0.0292239 -0.876607 0)
(0.0155316 -0.910787 0)
(0.00583937 -0.924687 0)
(-0.00400495 -0.923779 0)
(-0.014051 -0.909642 0)
(-0.0281021 -0.875179 0)
(-0.0227395 -0.829525 0)
(-0.00126702 -0.750463 0)
(0.0159281 -0.717615 0)
(0.00422811 -0.582891 0)
(-0.0177271 -0.407882 0)
(-0.0251016 -0.300374 0)
(-0.0248065 -0.365908 0)
(-0.0152001 -0.618209 0)
(0.000740622 -0.771192 0)
(0.0193814 -0.994602 0)
(0.00320682 -1.17482 0)
(-0.0210356 -1.53847 0)
(0.00101696 -1.45854 0)
(-0.0280425 -1.09842 0)
(-0.0417978 -0.931006 0)
(-0.00580479 -0.727329 0)
(0.00777415 -0.570729 0)
(0.00088191 -0.352985 0)
(0.00643742 -0.298063 0)
(0.0126683 -0.38565 0)
(0.0100456 -0.524799 0)
(-0.00685932 -0.651123 0)
(-0.00679696 -0.750822 0)
(0.00723048 -0.838182 0)
(0.0116835 -0.807088 0)
(0.0109173 -0.83545 0)
(0.00473105 -0.847918 0)
(-0.00335287 -0.847358 0)
(-0.00974858 -0.834014 0)
(-0.0109164 -0.805246 0)
(-0.00692318 -0.836327 0)
(0.00670848 -0.749321 0)
(0.00673823 -0.649247 0)
(-0.00959609 -0.521662 0)
(-0.010601 -0.381347 0)
(-0.00223209 -0.293566 0)
(0.00433635 -0.350864 0)
(-0.00449723 -0.571422 0)
(0.00596996 -0.72841 0)
(0.0414403 -0.932229 0)
(0.0284091 -1.09996 0)
(-0.000323196 -1.46143 0)
(-0.0117451 -1.36843 0)
(-0.0447622 -1.02686 0)
(-0.0295901 -0.865936 0)
(0.00398761 -0.735531 0)
(-0.0136278 -0.506827 0)
(-0.0284346 -0.332578 0)
(-0.0143904 -0.298332 0)
(0.00829413 -0.36955 0)
(0.0230839 -0.479132 0)
(0.0236862 -0.589513 0)
(0.0204454 -0.681298 0)
(0.00987974 -0.757939 0)
(0.00686449 -0.794105 0)
(0.0126587 -0.819623 0)
(0.00554505 -0.828167 0)
(-0.00457024 -0.827635 0)
(-0.0119117 -0.817741 0)
(-0.00660268 -0.791523 0)
(-0.0101307 -0.75555 0)
(-0.0210397 -0.679594 0)
(-0.0242342 -0.587891 0)
(-0.0230705 -0.476747 0)
(-0.00710127 -0.366739 0)
(0.0177213 -0.296221 0)
(0.0335188 -0.330665 0)
(0.0179572 -0.504375 0)
(-0.00342354 -0.734691 0)
(0.0280342 -0.866758 0)
(0.0436009 -1.02874 0)
(0.0112552 -1.37126 0)
(-0.0238388 -1.26092 0)
(-0.0236826 -0.966879 0)
(0.0150205 -0.878822 0)
(-0.00228589 -0.635545 0)
(-0.0499118 -0.43189 0)
(-0.0569027 -0.317634 0)
(-0.0304237 -0.308019 0)
(0.00637178 -0.36427 0)
(0.0328197 -0.449419 0)
(0.0463014 -0.543444 0)
(0.0507808 -0.624855 0)
(0.0453098 -0.686303 0)
(0.0355564 -0.715595 0)
(0.0248839 -0.730505 0)
(0.00882762 -0.734019 0)
(-0.00864027 -0.733319 0)
(-0.024854 -0.72841 0)
(-0.0358249 -0.712692 0)
(-0.0459848 -0.68353 0)
(-0.0518253 -0.622966 0)
(-0.0475122 -0.542002 0)
(-0.0337486 -0.447903 0)
(-0.00649137 -0.363076 0)
(0.0325348 -0.308864 0)
(0.0620069 -0.317552 0)
(0.0554891 -0.426744 0)
(0.00438218 -0.629863 0)
(-0.0173735 -0.879135 0)
(0.0214844 -0.969454 0)
(0.0234669 -1.26444 0)
(-0.00677452 -1.1481 0)
(0.020275 -1.00545 0)
(0.0292436 -0.779989 0)
(-0.0332911 -0.517121 0)
(-0.0822597 -0.372322 0)
(-0.0763098 -0.324352 0)
(-0.034834 -0.328567 0)
(0.00885043 -0.369782 0)
(0.0414274 -0.435379 0)
(0.0627549 -0.511815 0)
(0.0720593 -0.577302 0)
(0.0676178 -0.622867 0)
(0.0529985 -0.646119 0)
(0.0334191 -0.655873 0)
(0.0110943 -0.657321 0)
(-0.0117244 -0.656604 0)
(-0.0340454 -0.653764 0)
(-0.0536442 -0.643109 0)
(-0.0684638 -0.619899 0)
(-0.0733855 -0.575114 0)
(-0.0646033 -0.51051 0)
(-0.0432217 -0.434947 0)
(-0.00953358 -0.370371 0)
(0.0357344 -0.330982 0)
(0.0794057 -0.326188 0)
(0.0878562 -0.369895 0)
(0.0384618 -0.507945 0)
(-0.0295732 -0.776337 0)
(-0.023719 -1.00977 0)
(0.00549691 -1.15238 0)
(0.00598729 -1.14124 0)
(0.0217197 -0.945807 0)
(-0.00368006 -0.673418 0)
(-0.0758755 -0.430615 0)
(-0.108343 -0.367305 0)
(-0.0782914 -0.355018 0)
(-0.028606 -0.361828 0)
(0.0157482 -0.390881 0)
(0.0509496 -0.439087 0)
(0.0741511 -0.494241 0)
(0.0818682 -0.537804 0)
(0.0745552 -0.565607 0)
(0.0569214 -0.579402 0)
(0.0346568 -0.584483 0)
(0.0111021 -0.58494 0)
(-0.0123896 -0.584349 0)
(-0.0357938 -0.582753 0)
(-0.0578192 -0.576824 0)
(-0.0753647 -0.562835 0)
(-0.0830102 -0.535482 0)
(-0.0758435 -0.492824 0)
(-0.0525296 -0.439159 0)
(-0.0161164 -0.392339 0)
(0.0290837 -0.364157 0)
(0.0784877 -0.356529 0)
(0.111342 -0.367925 0)
(0.0835044 -0.425814 0)
(0.00849336 -0.663314 0)
(-0.0241145 -0.948664 0)
(-0.00777672 -1.14889 0)
(-0.00672263 -1.04885 0)
(-0.0118603 -0.891231 0)
(-0.0632562 -0.589826 0)
(-0.125488 -0.416922 0)
(-0.11986 -0.397415 0)
(-0.0711382 -0.394466 0)
(-0.0219591 -0.402029 0)
(0.0230873 -0.423439 0)
(0.0573574 -0.455415 0)
(0.0750628 -0.489707 0)
(0.0762151 -0.515289 0)
(0.0655991 -0.530363 0)
(0.0483901 -0.537696 0)
(0.0287124 -0.540218 0)
(0.00885448 -0.540316 0)
(-0.0106823 -0.539965 0)
(-0.0303013 -0.539191 0)
(-0.0495486 -0.5361 0)
(-0.0663149 -0.528478 0)
(-0.0766607 -0.513377 0)
(-0.075338 -0.488168 0)
(-0.0574025 -0.45501 0)
(-0.022961 -0.424376 0)
(0.0218335 -0.403461 0)
(0.0706645 -0.395215 0)
(0.120004 -0.397359 0)
(0.131732 -0.415911 0)
(0.0724395 -0.578719 0)
(0.0135292 -0.889967 0)
(0.00516866 -1.05718 0)
(-0.0129408 -0.975104 0)
(-0.052703 -0.842108 0)
(-0.123167 -0.556711 0)
(-0.153098 -0.442181 0)
(-0.114343 -0.42966 0)
(-0.0663819 -0.430385 0)
(-0.0211026 -0.438247 0)
(0.018426 -0.455014 0)
(0.0453511 -0.476974 0)
(0.0567368 -0.500382 0)
(0.055609 -0.519633 0)
(0.0468019 -0.53275 0)
(0.0340971 -0.540479 0)
(0.0199918 -0.544309 0)
(0.00582151 -0.545555 0)
(-0.00810951 -0.545374 0)
(-0.0220125 -0.54378 0)
(-0.0355976 -0.539629 0)
(-0.0475973 -0.531668 0)
(-0.0555827 -0.518389 0)
(-0.0558633 -0.499215 0)
(-0.0440807 -0.476432 0)
(-0.0176545 -0.455385 0)
(0.0210614 -0.439012 0)
(0.0661839 -0.430731 0)
(0.114677 -0.429475 0)
(0.15613 -0.441654 0)
(0.130608 -0.548336 0)
(0.0585508 -0.836225 0)
(0.0132227 -0.982483 0)
(-0.0139204 -0.917503 0)
(-0.0831908 -0.780348 0)
(-0.151229 -0.554279 0)
(-0.148894 -0.471649 0)
(-0.107366 -0.459815 0)
(-0.066232 -0.462298 0)
(-0.0294751 -0.470234 0)
(-0.0013588 -0.483782 0)
(0.0162382 -0.500825 0)
(0.0250716 -0.520025 0)
(0.0273052 -0.5378 0)
(0.0247089 -0.551779 0)
(0.0189118 -0.561306 0)
(0.0113276 -0.566946 0)
(0.00302026 -0.569373 0)
(-0.00539226 -0.569202 0)
(-0.0134685 -0.566456 0)
(-0.0205958 -0.560553 0)
(-0.025736 -0.550875 0)
(-0.0275224 -0.536881 0)
(-0.0244256 -0.519303 0)
(-0.0149908 -0.500554 0)
(0.00252235 -0.484047 0)
(0.0300486 -0.470904 0)
(0.0665414 -0.462998 0)
(0.108238 -0.460534 0)
(0.151287 -0.472665 0)
(0.157936 -0.549536 0)
(0.0892422 -0.769996 0)
(0.0148312 -0.923272 0)
(-0.00930369 -0.880111 0)
(-0.0819363 -0.71401 0)
(-0.14766 -0.560952 0)
(-0.136322 -0.500608 0)
(-0.103265 -0.488886 0)
(-0.0706706 -0.491676 0)
(-0.0440372 -0.498753 0)
(-0.0249016 -0.509047 0)
(-0.0111414 -0.521786 0)
(-0.000740426 -0.536266 0)
(0.006215 -0.550054 0)
(0.00934238 -0.561293 0)
(0.00895629 -0.569102 0)
(0.00598976 -0.573892 0)
(0.00147092 -0.575998 0)
(-0.0035038 -0.575835 0)
(-0.00786972 -0.573434 0)
(-0.0105356 -0.568429 0)
(-0.010498 -0.560532 0)
(-0.00683774 -0.549362 0)
(0.000717265 -0.535812 0)
(0.011697 -0.521667 0)
(0.02583 -0.509287 0)
(0.0448936 -0.499465 0)
(0.0712845 -0.492856 0)
(0.104117 -0.490609 0)
(0.138046 -0.502834 0)
(0.152167 -0.560058 0)
(0.0886703 -0.705708 0)
(0.0129384 -0.883206 0)
(-0.02109 -0.839943 0)
(-0.0856641 -0.671052 0)
(-0.131712 -0.569383 0)
(-0.123677 -0.524646 0)
(-0.100612 -0.514171 0)
(-0.0769411 -0.516233 0)
(-0.0578722 -0.521704 0)
(-0.0423158 -0.529146 0)
(-0.0278205 -0.538457 0)
(-0.014441 -0.548721 0)
(-0.00400555 -0.55801 0)
(0.00234672 -0.564755 0)
(0.00478003 -0.568784 0)
(0.00397843 -0.570937 0)
(0.00098991 -0.571604 0)
(-0.00272473 -0.571515 0)
(-0.00562372 -0.570637 0)
(-0.0062473 -0.56836 0)
(-0.00353745 -0.564305 0)
(0.0031668 -0.557688 0)
(0.013997 -0.548614 0)
(0.0278155 -0.538589 0)
(0.042752 -0.529515 0)
(0.0585131 -0.52249 0)
(0.0774221 -0.517668 0)
(0.100923 -0.516406 0)
(0.12427 -0.527398 0)
(0.133958 -0.570551 0)
(0.0916217 -0.667668 0)
(0.0254244 -0.840888 0)
(-0.0325219 -0.807609 0)
(-0.0888382 -0.648744 0)
(-0.116641 -0.572758 0)
(-0.113978 -0.54048 0)
(-0.0992343 -0.532848 0)
(-0.0828943 -0.534898 0)
(-0.0678182 -0.539793 0)
(-0.0522974 -0.54646 0)
(-0.0357181 -0.554268 0)
(-0.0196726 -0.561563 0)
(-0.0064563 -0.566085 0)
(0.00224905 -0.5675 0)
(0.00593033 -0.566629 0)
(0.00514291 -0.565167 0)
(0.00152139 -0.564161 0)
(-0.00307568 -0.564081 0)
(-0.0066497 -0.564982 0)
(-0.00734322 -0.566391 0)
(-0.00350944 -0.567305 0)
(0.0054182 -0.56609 0)
(0.0189348 -0.561824 0)
(0.0353481 -0.554767 0)
(0.0523128 -0.547141 0)
(0.0680799 -0.54075 0)
(0.0830384 -0.5364 0)
(0.0989808 -0.535066 0)
(0.113513 -0.543047 0)
(0.116654 -0.574403 0)
(0.0907726 -0.648852 0)
(0.0342405 -0.807761 0)
(-0.0253339 -0.790627 0)
(-0.0738267 -0.630112 0)
(-0.10326 -0.569831 0)
(-0.106698 -0.54842 0)
(-0.0990623 -0.544926 0)
(-0.0878254 -0.548611 0)
(-0.0741496 -0.555225 0)
(-0.0571858 -0.563515 0)
(-0.037811 -0.570642 0)
(-0.0177272 -0.575564 0)
(-0.000807712 -0.573725 0)
(0.00958851 -0.568558 0)
(0.0127788 -0.561279 0)
(0.00973521 -0.555583 0)
(0.00314733 -0.552699 0)
(-0.0046234 -0.552642 0)
(-0.0111914 -0.555481 0)
(-0.0142077 -0.561164 0)
(-0.0109966 -0.568531 0)
(-0.000505887 -0.574006 0)
(0.0166612 -0.576208 0)
(0.0371198 -0.571599 0)
(0.0569075 -0.564619 0)
(0.074137 -0.556447 0)
(0.0877065 -0.550096 0)
(0.0984264 -0.54683 0)
(0.105457 -0.550437 0)
(0.101708 -0.571228 0)
(0.0723211 -0.630705 0)
(0.0246251 -0.790076 0)
(-0.0189253 -0.760632 0)
(-0.0622149 -0.60246 0)
(-0.0946716 -0.559523 0)
(-0.102827 -0.549181 0)
(-0.10063 -0.551025 0)
(-0.092597 -0.558878 0)
(-0.0789563 -0.570104 0)
(-0.0587227 -0.581528 0)
(-0.0344342 -0.587452 0)
(-0.00754058 -0.591745 0)
(0.0144194 -0.579557 0)
(0.0245628 -0.566357 0)
(0.0247517 -0.551349 0)
(0.017079 -0.541428 0)
(0.00559066 -0.536451 0)
(-0.0070709 -0.536455 0)
(-0.0185499 -0.541381 0)
(-0.0262433 -0.551301 0)
(-0.0261784 -0.566355 0)
(-0.0160954 -0.580042 0)
(0.00601109 -0.592709 0)
(0.0333308 -0.588985 0)
(0.0582271 -0.583193 0)
(0.0788754 -0.57171 0)
(0.0924952 -0.560377 0)
(0.100015 -0.552503 0)
(0.101503 -0.550489 0)
(0.0928717 -0.560086 0)
(0.0603325 -0.601782 0)
(0.0179916 -0.757179 0)
(-0.0238006 -0.711727 0)
(-0.0673278 -0.572347 0)
(-0.0944727 -0.54572 0)
(-0.103541 -0.544691 0)
(-0.104914 -0.552801 0)
(-0.0988732 -0.566786 0)
(-0.0826337 -0.585087 0)
(-0.0542093 -0.600522 0)
(-0.0233576 -0.600768 0)
(0.0114727 -0.609792 0)
(0.0384456 -0.579586 0)
(0.0446179 -0.557922 0)
(0.0389862 -0.535461 0)
(0.0250243 -0.522599 0)
(0.00805687 -0.516684 0)
(-0.00960987 -0.51671 0)
(-0.0265477 -0.522607 0)
(-0.0405387 -0.535424 0)
(-0.0464354 -0.557769 0)
(-0.0404414 -0.580194 0)
(-0.0135628 -0.61074 0)
(0.02159 -0.602953 0)
(0.0533748 -0.60288 0)
(0.0825951 -0.587234 0)
(0.0990918 -0.568431 0)
(0.10471 -0.55394 0)
(0.10263 -0.545446 0)
(0.0932031 -0.54583 0)
(0.0665037 -0.57126 0)
(0.0236157 -0.707621 0)
(-0.0297647 -0.659529 0)
(-0.074206 -0.549766 0)
(-0.0965018 -0.532417 0)
(-0.107308 -0.535995 0)
(-0.111586 -0.550247 0)
(-0.104625 -0.57221 0)
(-0.0772127 -0.601594 0)
(-0.0336076 -0.615241 0)
(0.00105014 -0.600739 0)
(0.0352334 -0.619185 0)
(0.0615206 -0.568377 0)
(0.0621915 -0.539949 0)
(0.0496154 -0.512965 0)
(0.0299055 -0.499747 0)
(0.00928674 -0.494579 0)
(-0.0109603 -0.494645 0)
(-0.0314993 -0.499829 0)
(-0.0511775 -0.512908 0)
(-0.0640783 -0.539498 0)
(-0.0635906 -0.568986 0)
(-0.0375735 -0.619337 0)
(-0.00358837 -0.603105 0)
(0.0318221 -0.618197 0)
(0.0767592 -0.604525 0)
(0.10521 -0.574269 0)
(0.112031 -0.551109 0)
(0.106937 -0.536288 0)
(0.095515 -0.532427 0)
(0.0735233 -0.54917 0)
(0.0296594 -0.656297 0)
(-0.0302729 -0.606311 0)
(-0.0732155 -0.529521 0)
(-0.0967791 -0.518342 0)
(-0.112331 -0.523067 0)
(-0.115488 -0.544041 0)
(-0.0957375 -0.57866 0)
(-0.0425321 -0.620845 0)
(0.0129947 -0.615424 0)
(0.0381687 -0.58327 0)
(0.0502564 -0.605569 0)
(0.0637928 -0.552598 0)
(0.0660725 -0.514357 0)
(0.0496977 -0.486148 0)
(0.0286094 -0.475447 0)
(0.00862049 -0.472758 0)
(-0.0104553 -0.472878 0)
(-0.030289 -0.475646 0)
(-0.0511952 -0.486119 0)
(-0.0677004 -0.513598 0)
(-0.0657901 -0.552996 0)
(-0.0521425 -0.60514 0)
(-0.0406008 -0.584858 0)
(-0.0162577 -0.617916 0)
(0.0404563 -0.624378 0)
(0.0960203 -0.581979 0)
(0.1166 -0.544723 0)
(0.112493 -0.522859 0)
(0.0959447 -0.518005 0)
(0.0720526 -0.528939 0)
(0.0297152 -0.603654 0)
(-0.0270246 -0.5533 0)
(-0.0675797 -0.505157 0)
(-0.095251 -0.499627 0)
(-0.113082 -0.506208 0)
(-0.102412 -0.542339 0)
(-0.0454889 -0.596742 0)
(0.0275898 -0.63713 0)
(0.0591742 -0.598848 0)
(0.0570797 -0.558798 0)
(0.0438241 -0.574724 0)
(0.0479031 -0.546691 0)
(0.0545354 -0.48843 0)
(0.0386501 -0.460653 0)
(0.0212427 -0.454595 0)
(0.00601303 -0.454929 0)
(-0.00804097 -0.455103 0)
(-0.0230578 -0.454951 0)
(-0.0401175 -0.460794 0)
(-0.0557829 -0.487556 0)
(-0.0500043 -0.546163 0)
(-0.0457737 -0.575969 0)
(-0.0583497 -0.559936 0)
(-0.0614873 -0.599814 0)
(-0.0309285 -0.640228 0)
(0.0444011 -0.602888 0)
(0.103624 -0.543445 0)
(0.113706 -0.505595 0)
(0.0946931 -0.498746 0)
(0.0663027 -0.504191 0)
(0.0263276 -0.551042 0)
(-0.0229316 -0.503796 0)
(-0.062335 -0.477756 0)
(-0.0904684 -0.474644 0)
(-0.0985714 -0.490086 0)
(-0.0544381 -0.564176 0)
(0.032087 -0.625348 0)
(0.0784503 -0.62631 0)
(0.0700143 -0.575933 0)
(0.0526062 -0.543514 0)
(0.0343405 -0.552901 0)
(0.0328878 -0.544671 0)
(0.0341182 -0.465943 0)
(0.0209673 -0.441763 0)
(0.00990928 -0.44092 0)
(0.00214594 -0.443825 0)
(-0.00435337 -0.444014 0)
(-0.0119525 -0.441398 0)
(-0.0226262 -0.442169 0)
(-0.0353837 -0.465232 0)
(-0.0352119 -0.542377 0)
(-0.0371721 -0.555524 0)
(-0.0536051 -0.545912 0)
(-0.0700957 -0.577237 0)
(-0.0796212 -0.628163 0)
(-0.0337352 -0.63359 0)
(0.0545896 -0.567208 0)
(0.0995116 -0.490124 0)
(0.0903244 -0.47342 0)
(0.0611301 -0.476263 0)
(0.022297 -0.502053 0)
(-0.0193942 -0.460822 0)
(-0.0548458 -0.450792 0)
(-0.0726988 -0.448226 0)
(-0.048743 -0.491038 0)
(0.0208309 -0.608482 0)
(0.0755044 -0.639586 0)
(0.0759513 -0.603196 0)
(0.0600868 -0.56265 0)
(0.0484834 -0.535341 0)
(0.0329013 -0.536621 0)
(0.0181187 -0.529507 0)
(0.00726245 -0.448076 0)
(-0.00119899 -0.432505 0)
(-0.00324072 -0.436456 0)
(-0.00204869 -0.440785 0)
(-0.000236808 -0.440943 0)
(0.000922455 -0.436885 0)
(-0.000959735 -0.433041 0)
(-0.00917958 -0.447563 0)
(-0.020678 -0.525895 0)
(-0.035773 -0.539477 0)
(-0.0500591 -0.539312 0)
(-0.0604876 -0.564878 0)
(-0.0758934 -0.606269 0)
(-0.0768912 -0.645566 0)
(-0.0216655 -0.612821 0)
(0.051104 -0.494735 0)
(0.0742333 -0.446316 0)
(0.0541517 -0.448305 0)
(0.018714 -0.459351 0)
(-0.0176914 -0.429457 0)
(-0.035212 -0.428998 0)
(-0.0262214 -0.433895 0)
(0.0206667 -0.515655 0)
(0.0670239 -0.612317 0)
(0.0685364 -0.629321 0)
(0.0564625 -0.585895 0)
(0.0467532 -0.55096 0)
(0.0401039 -0.526682 0)
(0.0279965 -0.520112 0)
(-0.00109776 -0.501698 0)
(-0.0240766 -0.441431 0)
(-0.0234902 -0.436062 0)
(-0.0147469 -0.441864 0)
(-0.00546596 -0.445953 0)
(0.00334641 -0.445976 0)
(0.0123424 -0.441958 0)
(0.0207076 -0.436227 0)
(0.0213376 -0.440753 0)
(-0.00122959 -0.497467 0)
(-0.0301966 -0.521926 0)
(-0.042363 -0.530644 0)
(-0.0487281 -0.553853 0)
(-0.0582747 -0.589186 0)
(-0.0708882 -0.634136 0)
(-0.0687399 -0.618167 0)
(-0.0164318 -0.528242 0)
(0.0327215 -0.431313 0)
(0.0360641 -0.424113 0)
(0.0166692 -0.427065 0)
(-0.000752145 -0.41206 0)
(0.0178739 -0.446217 0)
(0.049486 -0.433346 0)
(0.0621062 -0.519556 0)
(0.0566135 -0.587164 0)
(0.0474972 -0.611459 0)
(0.0375554 -0.571269 0)
(0.0283226 -0.539505 0)
(0.0210608 -0.514023 0)
(0.00297969 -0.498276 0)
(-0.0328632 -0.481481 0)
(-0.0496718 -0.45203 0)
(-0.0368984 -0.45104 0)
(-0.0210214 -0.454771 0)
(-0.00716706 -0.456979 0)
(0.00555763 -0.45682 0)
(0.0190094 -0.454349 0)
(0.0341209 -0.450353 0)
(0.0463044 -0.45042 0)
(0.0307738 -0.477234 0)
(-0.00464594 -0.497624 0)
(-0.0246664 -0.51641 0)
(-0.0321575 -0.542252 0)
(-0.0413129 -0.573973 0)
(-0.0527126 -0.615933 0)
(-0.0628377 -0.599303 0)
(-0.0584168 -0.542858 0)
(-0.0393902 -0.429172 0)
(-0.0103727 -0.426658 0)
(0.00506186 -0.405518 0)
(0.0208982 -0.420348 0)
(0.0887347 -0.509696 0)
(0.124626 -0.444722 0)
(0.0727923 -0.494882 0)
(0.0223632 -0.572517 0)
(0.0152493 -0.60581 0)
(0.00948883 -0.562268 0)
(0.00157168 -0.528622 0)
(-0.0189382 -0.50231 0)
(-0.0468014 -0.491556 0)
(-0.0629323 -0.484641 0)
(-0.0569419 -0.472301 0)
(-0.0386514 -0.470344 0)
(-0.0215702 -0.470495 0)
(-0.00709575 -0.470413 0)
(0.00629404 -0.470111 0)
(0.0204251 -0.469584 0)
(0.03682 -0.468799 0)
(0.0544083 -0.469658 0)
(0.0608431 -0.480033 0)
(0.0445783 -0.488042 0)
(0.0149363 -0.500752 0)
(-0.00732102 -0.528539 0)
(-0.0166442 -0.562496 0)
(-0.0265839 -0.605654 0)
(-0.0295183 -0.586802 0)
(-0.0630067 -0.51299 0)
(-0.107638 -0.43591 0)
(-0.0787408 -0.487663 0)
(-0.0191047 -0.410365 0)
(0.02612 -0.459855 0)
(0.105505 -0.548542 0)
(0.148481 -0.485862 0)