/*--------------------------------*- C++ -*----------------------------------*\
| =========                 |                                                 |
| \\      /  F ield         | OpenFOAM: The Open Source CFD Toolbox           |
|  \\    /   O peration     | Version:  v1606+                                |
|   \\  /    A nd           | Web:      www.OpenFOAM.com                      |
|    \\/     M anipulation  |                                                 |
\*---------------------------------------------------------------------------*/
FoamFile
{
    version     2.0;
    format      ascii;
    class       volScalarField;
    location    "0.0037";
    object      epsilon;
}
// * * * * * * * * * * * * * * * * * * * * * * * * * * * * * * * * * * * * * //

dimensions      [0 2 -3 0 0 0 0];

internalField   nonuniform List<scalar> 
2450
(
111.313
97.7229
80.4783
69.9913
65.0989
73.917
106.383
117.353
117.643
114.665
111.934
109.886
108.345
107.283
106.55
106.058
105.721
105.484
105.313
105.187
105.092
105.02
104.965
104.921
104.887
104.86
104.838
104.82
104.805
104.793
104.783
104.774
104.767
104.761
104.756
104.751
104.747
104.743
104.74
104.737
104.734
104.731
104.729
104.727
104.725
104.723
104.722
104.721
104.719
104.718
104.717
104.717
104.716
104.715
104.715
104.715
104.714
104.714
104.714
104.714
104.714
104.714
104.714
104.713
104.713
104.713
104.712
104.71
104.709
104.709
97.4951
87.939
75.4126
67.4487
64.4971
76.215
108.573
118.044
117.349
114.197
111.696
109.677
108.196
107.183
106.484
106.014
105.691
105.463
105.298
105.176
105.084
105.014
104.96
104.918
104.885
104.858
104.836
104.819
104.804
104.793
104.783
104.774
104.767
104.761
104.756
104.751
104.747
104.743
104.74
104.737
104.734
104.732
104.73
104.728
104.726
104.724
104.723
104.721
104.72
104.719
104.718
104.717
104.717
104.716
104.716
104.715
104.715
104.715
104.715
104.715
104.714
104.714
104.714
104.714
104.714
104.713
104.712
104.71
104.709
104.709
80.2303
75.5508
69.0003
66.3354
67.3969
89.9036
113.671
119.102
116.947
113.661
111.286
109.373
107.988
107.047
106.399
105.96
105.656
105.439
105.282
105.165
105.076
105.009
104.956
104.915
104.883
104.857
104.835
104.818
104.804
104.793
104.783
104.775
104.768
104.762
104.757
104.752
104.748
104.745
104.741
104.738
104.736
104.733
104.731
104.729
104.727
104.725
104.724
104.723
104.722
104.721
104.72
104.719
104.718
104.718
104.717
104.717
104.717
104.716
104.716
104.716
104.716
104.716
104.716
104.716
104.715
104.715
104.713
104.711
104.709
104.709
69.6199
66.9644
66.5895
66.5091
79.9183
105.59
118.439
119.375
116.273
113.026
110.73
108.965
107.734
106.872
106.289
105.89
105.61
105.408
105.26
105.149
105.065
105.001
104.95
104.911
104.879
104.854
104.834
104.817
104.803
104.792
104.783
104.775
104.768
104.762
104.757
104.753
104.749
104.745
104.742
104.739
104.737
104.734
104.732
104.73
104.728
104.727
104.725
104.724
104.723
104.722
104.721
104.72
104.72
104.719
104.719
104.718
104.718
104.718
104.718
104.718
104.717
104.717
104.717
104.717
104.717
104.716
104.714
104.712
104.71
104.709
65.1414
68.1197
68.5416
78.1825
104.448
116.134
120.608
118.874
114.909
112.131
110.022
108.479
107.413
106.67
106.162
105.808
105.555
105.37
105.234
105.13
105.051
104.99
104.943
104.905
104.875
104.851
104.831
104.815
104.802
104.791
104.782
104.774
104.768
104.762
104.757
104.753
104.749
104.745
104.742
104.739
104.737
104.735
104.732
104.731
104.729
104.727
104.726
104.725
104.724
104.723
104.722
104.721
104.721
104.72
104.72
104.719
104.719
104.719
104.719
104.718
104.718
104.718
104.718
104.718
104.718
104.717
104.715
104.713
104.71
104.71
74.987
82.7802
94.781
107.403
114.875
120.239
120.082
116.833
113.442
111.024
109.238
107.978
107.079
106.458
106.026
105.717
105.493
105.327
105.203
105.108
105.035
104.978
104.933
104.897
104.869
104.846
104.827
104.812
104.799
104.789
104.78
104.773
104.766
104.761
104.756
104.752
104.748
104.745
104.742
104.739
104.737
104.734
104.732
104.731
104.729
104.727
104.726
104.725
104.724
104.723
104.722
104.722
104.721
104.72
104.72
104.72
104.719
104.719
104.719
104.719
104.719
104.719
104.719
104.719
104.718
104.717
104.716
104.713
104.711
104.71
106.678
109.721
113.659
117.607
119.632
120.018
117.687
114.384
111.792
109.879
108.493
107.473
106.755
106.25
105.888
105.624
105.428
105.281
105.169
105.083
105.016
104.964
104.922
104.889
104.862
104.84
104.823
104.808
104.796
104.786
104.778
104.771
104.765
104.76
104.755
104.751
104.747
104.744
104.741
104.739
104.736
104.734
104.732
104.73
104.729
104.727
104.726
104.725
104.724
104.723
104.722
104.722
104.721
104.721
104.72
104.72
104.72
104.719
104.719
104.719
104.719
104.719
104.719
104.719
104.719
104.718
104.716
104.713
104.711
104.71
118.517
117.873
117.866
118.584
118.508
116.942
114.444
112.136
110.271
108.873
107.799
107.02
106.461
106.055
105.756
105.532
105.363
105.234
105.135
105.057
104.997
104.948
104.91
104.879
104.854
104.834
104.817
104.804
104.793
104.783
104.775
104.769
104.763
104.758
104.754
104.75
104.746
104.743
104.74
104.738
104.736
104.734
104.732
104.73
104.729
104.727
104.726
104.725
104.724
104.723
104.722
104.722
104.721
104.721
104.72
104.72
104.72
104.72
104.72
104.72
104.719
104.719
104.719
104.719
104.719
104.718
104.716
104.714
104.711
104.71
118.501
117.629
117.122
116.645
115.37
113.727
111.941
110.338
109.045
108.003
107.217
106.635
106.202
105.877
105.632
105.444
105.3
105.188
105.1
105.031
104.976
104.933
104.898
104.869
104.846
104.827
104.812
104.799
104.789
104.78
104.772
104.766
104.761
104.756
104.752
104.748
104.745
104.742
104.739
104.737
104.735
104.733
104.731
104.73
104.728
104.727
104.726
104.725
104.724
104.723
104.723
104.722
104.721
104.721
104.721
104.72
104.72
104.72
104.72
104.72
104.72
104.72
104.72
104.72
104.719
104.718
104.716
104.714
104.711
104.711
115.558
115
114.427
113.58
112.502
111.285
110.061
108.983
108.053
107.317
106.749
106.314
105.978
105.719
105.519
105.362
105.239
105.143
105.066
105.005
104.956
104.917
104.885
104.859
104.838
104.821
104.806
104.794
104.785
104.776
104.769
104.764
104.758
104.754
104.75
104.747
104.744
104.741
104.738
104.736
104.734
104.732
104.731
104.729
104.728
104.727
104.726
104.725
104.724
104.723
104.723
104.722
104.722
104.721
104.721
104.721
104.72
104.72
104.72
104.72
104.72
104.72
104.72
104.72
104.719
104.719
104.717
104.714
104.712
104.711
112.637
112.279
111.797
111.163
110.379
109.524
108.706
107.946
107.307
106.79
106.377
106.048
105.788
105.581
105.417
105.287
105.183
105.1
105.034
104.98
104.936
104.901
104.872
104.849
104.829
104.814
104.8
104.79
104.78
104.773
104.766
104.761
104.756
104.752
104.748
104.745
104.742
104.74
104.737
104.735
104.733
104.732
104.73
104.729
104.727
104.726
104.725
104.725
104.724
104.723
104.723
104.722
104.722
104.721
104.721
104.721
104.721
104.721
104.72
104.72
104.72
104.72
104.72
104.72
104.72
104.719
104.717
104.714
104.712
104.711
110.448
110.211
109.864
109.399
108.844
108.275
107.705
107.192
106.753
106.384
106.08
105.83
105.627
105.462
105.328
105.22
105.132
105.061
105.003
104.956
104.917
104.886
104.86
104.839
104.821
104.807
104.795
104.785
104.776
104.769
104.763
104.758
104.754
104.75
104.746
104.743
104.741
104.738
104.736
104.734
104.732
104.731
104.729
104.728
104.727
104.726
104.725
104.724
104.724
104.723
104.723
104.722
104.722
104.722
104.721
104.721
104.721
104.721
104.721
104.721
104.721
104.721
104.721
104.721
104.72
104.719
104.717
104.715
104.712
104.712
108.867
108.693
108.469
108.142
107.767
107.375
106.995
106.646
106.338
106.07
105.843
105.651
105.492
105.359
105.25
105.16
105.085
105.024
104.974
104.933
104.899
104.871
104.848
104.829
104.813
104.8
104.789
104.78
104.772
104.765
104.76
104.755
104.751
104.748
104.744
104.742
104.739
104.737
104.735
104.733
104.731
104.73
104.729
104.728
104.727
104.726
104.725
104.724
104.724
104.723
104.723
104.722
104.722
104.722
104.722
104.721
104.721
104.721
104.721
104.721
104.721
104.721
104.721
104.721
104.721
104.72
104.718
104.715
104.713
104.712
107.754
107.632
107.466
107.252
107.006
106.746
106.488
106.245
106.023
105.826
105.653
105.505
105.378
105.271
105.182
105.106
105.044
104.991
104.948
104.912
104.882
104.857
104.836
104.819
104.805
104.793
104.783
104.775
104.768
104.762
104.757
104.752
104.749
104.745
104.742
104.74
104.738
104.735
104.734
104.732
104.731
104.729
104.728
104.727
104.726
104.725
104.725
104.724
104.724
104.723
104.723
104.722
104.722
104.722
104.722
104.722
104.722
104.721
104.721
104.721
104.721
104.721
104.721
104.721
104.721
104.72
104.718
104.716
104.713
104.712
106.977
106.892
106.782
106.641
106.477
106.299
106.119
105.945
105.782
105.634
105.501
105.385
105.284
105.197
105.123
105.06
105.006
104.962
104.924
104.892
104.866
104.844
104.826
104.81
104.797
104.787
104.778
104.77
104.764
104.758
104.753
104.75
104.746
104.743
104.74
104.738
104.736
104.734
104.732
104.731
104.73
104.728
104.727
104.726
104.726
104.725
104.724
104.724
104.723
104.723
104.723
104.723
104.722
104.722
104.722
104.722
104.722
104.722
104.722
104.722
104.722
104.722
104.722
104.722
104.721
104.721
104.719
104.716
104.714
104.713
106.444
106.384
106.31
106.214
106.1
105.975
105.846
105.718
105.595
105.482
105.379
105.286
105.205
105.133
105.072
105.019
104.973
104.935
104.902
104.875
104.851
104.832
104.815
104.802
104.79
104.78
104.772
104.765
104.76
104.755
104.75
104.747
104.744
104.741
104.738
104.736
104.734
104.733
104.731
104.73
104.729
104.728
104.727
104.726
104.725
104.725
104.724
104.724
104.723
104.723
104.723
104.723
104.722
104.722
104.722
104.722
104.722
104.722
104.722
104.722
104.722
104.722
104.722
104.722
104.722
104.721
104.719
104.717
104.714
104.713
106.07
106.027
105.975
105.907
105.826
105.735
105.639
105.543
105.449
105.361
105.279
105.205
105.139
105.08
105.028
104.983
104.945
104.911
104.883
104.859
104.838
104.821
104.806
104.794
104.783
104.775
104.767
104.761
104.756
104.751
104.747
104.744
104.741
104.739
104.736
104.734
104.733
104.731
104.73
104.729
104.728
104.727
104.726
104.725
104.725
104.724
104.724
104.723
104.723
104.723
104.723
104.723
104.723
104.722
104.722
104.722
104.722
104.722
104.722
104.723
104.723
104.723
104.723
104.723
104.722
104.721
104.72
104.717
104.715
104.714
105.801
105.768
105.73
105.681
105.621
105.553
105.481
105.407
105.334
105.264
105.198
105.138
105.083
105.034
104.991
104.952
104.919
104.89
104.865
104.844
104.826
104.811
104.797
104.786
104.777
104.769
104.762
104.757
104.752
104.748
104.744
104.741
104.739
104.736
104.734
104.733
104.731
104.73
104.729
104.728
104.727
104.726
104.725
104.725
104.724
104.724
104.723
104.723
104.723
104.723
104.723
104.723
104.723
104.723
104.723
104.723
104.723
104.723
104.723
104.723
104.723
104.723
104.723
104.723
104.723
104.722
104.72
104.718
104.715
104.714
105.601
105.576
105.548
105.511
105.466
105.414
105.358
105.3
105.242
105.185
105.132
105.082
105.037
104.995
104.958
104.926
104.897
104.872
104.85
104.831
104.815
104.801
104.79
104.78
104.771
104.764
104.758
104.753
104.748
104.745
104.742
104.739
104.736
104.734
104.733
104.731
104.73
104.728
104.727
104.727
104.726
104.725
104.725
104.724
104.724
104.723
104.723
104.723
104.723
104.723
104.723
104.723
104.723
104.723
104.723
104.723
104.723
104.723
104.723
104.723
104.724
104.724
104.724
104.724
104.723
104.723
104.721
104.718
104.716
104.715
105.451
105.431
105.41
105.381
105.346
105.306
105.261
105.215
105.168
105.122
105.078
105.036
104.998
104.963
104.931
104.903
104.878
104.855
104.836
104.82
104.805
104.793
104.782
104.773
104.766
104.759
104.754
104.749
104.745
104.742
104.739
104.736
104.734
104.732
104.731
104.729
104.728
104.727
104.726
104.725
104.725
104.724
104.724
104.724
104.723
104.723
104.723
104.723
104.723
104.723
104.723
104.723
104.723
104.723
104.723
104.723
104.723
104.723
104.724
104.724
104.724
104.724
104.724
104.724
104.724
104.723
104.721
104.719
104.716
104.716
105.336
105.32
105.303
105.281
105.253
105.22
105.184
105.146
105.108
105.07
105.033
104.998
104.965
104.935
104.907
104.883
104.861
104.841
104.824
104.809
104.796
104.785
104.776
104.768
104.761
104.755
104.75
104.746
104.742
104.739
104.736
104.734
104.732
104.73
104.729
104.728
104.727
104.726
104.725
104.724
104.724
104.724
104.723
104.723
104.723
104.723
104.723
104.723
104.723
104.723
104.723
104.723
104.723
104.723
104.723
104.723
104.723
104.724
104.724
104.724
104.724
104.725
104.725
104.725
104.724
104.724
104.722
104.719
104.717
104.716
105.246
105.233
105.219
105.202
105.179
105.152
105.123
105.091
105.059
105.027
104.996
104.966
104.938
104.911
104.887
104.866
104.846
104.829
104.814
104.8
104.789
104.779
104.77
104.763
104.756
104.751
104.746
104.742
104.739
104.736
104.734
104.732
104.73
104.729
104.727
104.726
104.725
104.725
104.724
104.723
104.723
104.723
104.723
104.722
104.722
104.722
104.722
104.722
104.722
104.722
104.723
104.723
104.723
104.723
104.723
104.723
104.724
104.724
104.724
104.724
104.725
104.725
104.725
104.725
104.725
104.724
104.723
104.72
104.717
104.717
105.175
105.164
105.153
105.139
105.12
105.098
105.073
105.047
105.02
104.992
104.965
104.939
104.914
104.891
104.87
104.851
104.834
104.818
104.804
104.792
104.782
104.773
104.765
104.758
104.752
104.747
104.743
104.739
104.736
104.734
104.732
104.73
104.728
104.727
104.726
104.725
104.724
104.723
104.723
104.723
104.722
104.722
104.722
104.722
104.722
104.722
104.722
104.722
104.722
104.722
104.723
104.723
104.723
104.723
104.723
104.724
104.724
104.724
104.725
104.725
104.725
104.725
104.726
104.726
104.725
104.725
104.723
104.721
104.718
104.717
105.119
105.11
105.101
105.089
105.073
105.054
105.033
105.011
104.987
104.963
104.94
104.917
104.895
104.875
104.856
104.839
104.823
104.809
104.796
104.785
104.776
104.767
104.76
104.754
104.748
104.744
104.74
104.737
104.734
104.732
104.73
104.728
104.726
104.725
104.724
104.723
104.723
104.722
104.722
104.722
104.721
104.721
104.721
104.721
104.721
104.722
104.722
104.722
104.722
104.722
104.723
104.723
104.723
104.723
104.724
104.724
104.724
104.724
104.725
104.725
104.725
104.726
104.726
104.726
104.726
104.725
104.724
104.721
104.719
104.718
105.074
105.066
105.059
105.049
105.035
105.019
105.001
104.981
104.96
104.939
104.918
104.898
104.879
104.861
104.844
104.828
104.814
104.801
104.789
104.779
104.77
104.763
104.756
104.75
104.745
104.741
104.737
104.734
104.732
104.729
104.728
104.726
104.725
104.724
104.723
104.722
104.722
104.721
104.721
104.721
104.721
104.721
104.721
104.721
104.721
104.721
104.721
104.722
104.722
104.722
104.722
104.723
104.723
104.723
104.724
104.724
104.724
104.725
104.725
104.725
104.726
104.726
104.726
104.727
104.726
104.726
104.724
104.722
104.719
104.718
105.038
105.031
105.025
105.016
105.004
104.99
104.974
104.957
104.938
104.92
104.901
104.883
104.865
104.849
104.833
104.819
104.806
104.794
104.783
104.774
104.766
104.758
104.752
104.747
104.742
104.738
104.735
104.732
104.729
104.727
104.726
104.724
104.723
104.722
104.722
104.721
104.721
104.72
104.72
104.72
104.72
104.72
104.72
104.72
104.721
104.721
104.721
104.721
104.722
104.722
104.722
104.723
104.723
104.723
104.724
104.724
104.725
104.725
104.725
104.726
104.726
104.727
104.727
104.727
104.727
104.726
104.725
104.722
104.72
104.719
105.009
105.003
104.998
104.99
104.98
104.967
104.953
104.937
104.921
104.904
104.887
104.87
104.854
104.839
104.825
104.811
104.799
104.788
104.778
104.769
104.762
104.755
104.749
104.744
104.739
104.736
104.732
104.73
104.727
104.726
104.724
104.723
104.722
104.721
104.72
104.72
104.72
104.719
104.719
104.719
104.719
104.72
104.72
104.72
104.72
104.721
104.721
104.721
104.722
104.722
104.722
104.723
104.723
104.723
104.724
104.724
104.725
104.725
104.726
104.726
104.726
104.727
104.727
104.727
104.727
104.727
104.725
104.723
104.72
104.719
104.986
104.981
104.976
104.969
104.96
104.949
104.935
104.921
104.906
104.891
104.875
104.86
104.845
104.831
104.817
104.805
104.794
104.783
104.774
104.766
104.758
104.752
104.746
104.741
104.737
104.733
104.73
104.728
104.726
104.724
104.722
104.721
104.72
104.72
104.719
104.719
104.719
104.719
104.719
104.719
104.719
104.719
104.719
104.72
104.72
104.72
104.721
104.721
104.721
104.722
104.722
104.722
104.723
104.723
104.724
104.724
104.725
104.725
104.726
104.726
104.727
104.727
104.728
104.728
104.728
104.727
104.726
104.723
104.721
104.72
104.968
104.963
104.958
104.952
104.944
104.934
104.921
104.908
104.894
104.88
104.865
104.851
104.837
104.824
104.811
104.8
104.789
104.779
104.77
104.762
104.755
104.749
104.743
104.739
104.735
104.731
104.728
104.726
104.724
104.722
104.721
104.72
104.719
104.718
104.718
104.718
104.718
104.718
104.718
104.718
104.718
104.718
104.719
104.719
104.719
104.72
104.72
104.721
104.721
104.721
104.722
104.722
104.723
104.723
104.724
104.724
104.725
104.725
104.726
104.726
104.727
104.727
104.728
104.728
104.728
104.727
104.726
104.723
104.721
104.72
104.953
104.948
104.945
104.939
104.931
104.921
104.91
104.898
104.885
104.871
104.858
104.844
104.831
104.818
104.806
104.795
104.785
104.775
104.767
104.759
104.752
104.746
104.741
104.736
104.732
104.729
104.726
104.724
104.722
104.72
104.719
104.718
104.718
104.717
104.717
104.717
104.717
104.717
104.717
104.717
104.717
104.718
104.718
104.718
104.719
104.719
104.72
104.72
104.72
104.721
104.721
104.722
104.722
104.723
104.723
104.724
104.724
104.725
104.725
104.726
104.727
104.727
104.727
104.728
104.728
104.727
104.726
104.723
104.721
104.72
104.941
104.937
104.933
104.928
104.921
104.912
104.901
104.889
104.877
104.864
104.851
104.838
104.825
104.813
104.802
104.791
104.781
104.772
104.763
104.756
104.749
104.743
104.738
104.734
104.73
104.727
104.724
104.722
104.72
104.718
104.717
104.716
104.716
104.715
104.715
104.715
104.715
104.715
104.715
104.716
104.716
104.716
104.717
104.717
104.718
104.718
104.718
104.719
104.719
104.72
104.72
104.721
104.721
104.722
104.722
104.723
104.723
104.724
104.725
104.725
104.726
104.726
104.727
104.727
104.727
104.726
104.725
104.722
104.72
104.719
104.932
104.928
104.924
104.919
104.912
104.903
104.893
104.882
104.87
104.857
104.845
104.832
104.82
104.808
104.797
104.786
104.777
104.768
104.759
104.752
104.746
104.74
104.735
104.731
104.727
104.724
104.721
104.719
104.717
104.716
104.715
104.714
104.713
104.713
104.713
104.713
104.713
104.713
104.713
104.713
104.714
104.714
104.715
104.715
104.716
104.716
104.717
104.717
104.717
104.718
104.718
104.719
104.719
104.72
104.721
104.721
104.722
104.722
104.723
104.723
104.724
104.725
104.725
104.725
104.725
104.725
104.723
104.721
104.718
104.718
104.925
104.92
104.917
104.911
104.904
104.896
104.886
104.875
104.863
104.851
104.839
104.827
104.815
104.803
104.792
104.782
104.772
104.763
104.755
104.748
104.742
104.736
104.731
104.727
104.723
104.72
104.718
104.715
104.714
104.712
104.711
104.711
104.71
104.71
104.71
104.71
104.71
104.71
104.71
104.711
104.711
104.711
104.712
104.712
104.713
104.713
104.714
104.714
104.715
104.715
104.716
104.716
104.717
104.717
104.718
104.719
104.719
104.72
104.72
104.721
104.722
104.722
104.723
104.723
104.723
104.722
104.721
104.719
104.716
104.715
104.921
104.916
104.912
104.906
104.899
104.891
104.881
104.87
104.859
104.847
104.835
104.822
104.811
104.799
104.788
104.778
104.769
104.76
104.752
104.745
104.738
104.733
104.728
104.724
104.72
104.717
104.714
104.712
104.711
104.709
104.708
104.708
104.707
104.707
104.707
104.707
104.707
104.707
104.707
104.708
104.708
104.709
104.709
104.71
104.71
104.711
104.711
104.712
104.712
104.713
104.713
104.714
104.714
104.715
104.715
104.716
104.717
104.717
104.718
104.718
104.719
104.72
104.72
104.721
104.721
104.72
104.718
104.716
104.714
104.713
104.924
104.919
104.915
104.909
104.902
104.893
104.883
104.872
104.86
104.848
104.836
104.823
104.811
104.8
104.789
104.778
104.769
104.76
104.752
104.744
104.738
104.732
104.727
104.723
104.719
104.716
104.713
104.711
104.709
104.708
104.707
104.706
104.706
104.705
104.705
104.705
104.705
104.706
104.706
104.706
104.707
104.707
104.708
104.708
104.709
104.709
104.71
104.71
104.711
104.711
104.712
104.712
104.713
104.713
104.714
104.715
104.715
104.716
104.716
104.717
104.718
104.718
104.719
104.719
104.719
104.719
104.717
104.715
104.713
104.712
)
;

boundaryField
{
    left
    {
        type            symmetryPlane;
    }
    right
    {
        type            symmetryPlane;
    }
    top
    {
        type            symmetryPlane;
    }
    bottom
    {
        type            symmetryPlane;
    }
    frontAndBack
    {
        type            empty;
    }
}


// ************************************************************************* //
