/*--------------------------------*- C++ -*----------------------------------*\
| =========                 |                                                 |
| \\      /  F ield         | OpenFOAM: The Open Source CFD Toolbox           |
|  \\    /   O peration     | Version:  v1606+                                |
|   \\  /    A nd           | Web:      www.OpenFOAM.com                      |
|    \\/     M anipulation  |                                                 |
\*---------------------------------------------------------------------------*/
FoamFile
{
    version     2.0;
    format      ascii;
    class       volScalarField;
    location    "0.8";
    object      k.air;
}
// * * * * * * * * * * * * * * * * * * * * * * * * * * * * * * * * * * * * * //

dimensions      [0 2 -2 0 0 0 0];

internalField   nonuniform List<scalar> 
6000
(
0.890257
0.95292
0.968222
0.978009
0.988946
1.00061
1.01144
1.02253
1.02902
1.03163
1.03046
1.02639
1.02164
1.01741
1.01443
1.01439
1.01634
1.01965
1.0234
1.02737
1.03008
1.0292
1.02393
1.01345
1.00221
0.989955
0.978357
0.96804
0.95244
0.890075
0.642238
0.925667
1.01011
1.06101
1.10909
1.15636
1.20679
1.25863
1.28733
1.29111
1.28232
1.26935
1.25543
1.24336
1.23644
1.23685
1.24481
1.2549
1.26949
1.28252
1.29015
1.28697
1.26036
1.21108
1.16108
1.11285
1.06395
1.01151
0.924644
0.640695
0.465
0.831669
0.999753
1.10872
1.19533
1.26636
1.32308
1.3711
1.4093
1.43309
1.44366
1.44819
1.45234
1.45944
1.4651
1.46365
1.45876
1.45643
1.45718
1.45594
1.44707
1.42527
1.38953
1.34323
1.28614
1.21276
1.1222
1.00803
0.834391
0.463825
0.434916
0.861205
1.0952
1.26754
1.40171
1.50062
1.56475
1.60216
1.63786
1.67049
1.69166
1.70265
1.71206
1.72351
1.73186
1.73096
1.72492
1.72186
1.72058
1.71621
1.70096
1.67333
1.64126
1.60515
1.54037
1.43849
1.29868
1.11585
0.871355
0.438438
0.461428
0.968859
1.30127
1.56632
1.76389
1.893
1.97283
1.99311
1.99171
2.0073
2.02764
2.04271
2.05914
2.08048
2.09598
2.0927
2.07876
2.07122
2.07006
2.06907
2.05976
2.05056
2.05375
2.0344
1.95452
1.82257
1.61649
1.3416
0.995571
0.469894
0.480057
1.0647
1.50063
1.89167
2.2414
2.49485
2.59653
2.59774
2.54595
2.51119
2.5118
2.52344
2.54694
2.58022
2.60179
2.59568
2.57277
2.55605
2.55637
2.56843
2.58471
2.62659
2.67773
2.67752
2.57522
2.31811
1.96034
1.559
1.1045
0.495533
0.484681
1.13268
1.66473
2.14591
2.62466
3.07384
3.3798
3.45308
3.34025
3.21882
3.16971
3.15816
3.17496
3.20616
3.22512
3.21791
3.19525
3.18062
3.1928
3.23458
3.30588
3.43288
3.54028
3.46873
3.16779
2.71875
2.23732
1.74405
1.18866
0.506892
0.5189
1.23769
1.8281
2.36792
2.8962
3.42562
3.93713
4.25722
4.24059
4.05111
3.92323
3.88961
3.90275
3.93289
3.95257
3.93991
3.90835
3.89704
3.91843
3.98734
4.13879
4.33298
4.34513
4.03085
3.53538
3.01815
2.48979
1.93673
1.31852
0.553029
0.614916
1.4112
2.01852
2.58385
3.15706
3.71376
4.19663
4.60829
4.83932
4.81083
4.67707
4.65674
4.7183
4.7728
4.77389
4.74719
4.70477
4.66491
4.65727
4.72467
4.89508
4.95645
4.72852
4.31665
3.85546
3.31956
2.74921
2.16814
1.52618
0.666674
0.735984
1.62195
2.23546
2.79734
3.37452
3.95994
4.45335
4.76964
5.01274
5.24217
5.32784
5.40353
5.55036
5.55042
5.49188
5.4465
5.41045
5.37905
5.34857
5.36704
5.3802
5.19681
4.93866
4.62229
4.16156
3.59884
3.02147
2.43655
1.77847
0.806851
0.829071
1.83002
2.4631
3.01756
3.58098
4.17435
4.72959
5.03013
5.19522
5.46792
5.81634
6.10361
6.28079
6.15593
6.05584
6.00684
5.98228
5.98273
6.00759
5.95991
5.76316
5.47056
5.27718
4.98922
4.47141
3.89303
3.31737
2.72724
2.03481
0.919771
0.894084
2.00204
2.66786
3.23493
3.79561
4.39373
5.00012
5.36254
5.48147
5.70812
6.12126
6.59042
6.75675
6.65662
6.56764
6.524
6.52288
6.56281
6.63402
6.52992
6.20276
5.8756
5.74119
5.38936
4.81964
4.22321
3.63222
3.01403
2.27091
1.01068
0.946663
2.12769
2.82724
3.42175
3.9982
4.60253
5.23668
5.68325
5.79914
5.95489
6.3019
6.76967
7.01023
7.10561
7.12441
7.0954
7.109
7.17363
7.21652
7.06719
6.66322
6.36226
6.24845
5.79327
5.18872
4.57323
3.94932
3.28557
2.48078
1.10079
0.99277
2.22146
2.94182
3.55735
4.15658
4.76904
5.41549
5.94388
6.09754
6.2038
6.46385
6.86174
7.18182
7.46699
7.72692
7.77416
7.78532
7.83323
7.80634
7.57607
7.13595
6.88831
6.73865
6.1869
5.55593
4.92218
4.25689
3.54287
2.67957
1.19176
1.03103
2.28743
3.01736
3.64177
4.25222
4.87057
5.52649
6.127
6.36356
6.46214
6.66924
7.00633
7.35392
7.73848
8.27196
8.56355
8.55763
8.52613
8.39685
8.0672
7.62026
7.42169
7.20135
6.57802
5.92068
5.26337
4.5533
3.78686
2.86835
1.28283
1.04949
2.318
3.05773
3.68775
4.2961
4.91348
5.57175
6.22295
6.57597
6.71744
6.90968
7.21007
7.56051
7.98587
8.64702
9.32947
9.4727
9.23454
8.97494
8.54721
8.10211
7.92292
7.65003
6.98384
6.29652
5.60321
4.84427
4.01989
3.03879
1.35212
0.96469
2.29421
3.06738
3.71462
4.32253
4.92996
5.56499
6.2101
6.68902
6.93261
7.14673
7.41513
7.75068
8.18967
8.87931
9.79726
10.2799
9.84292
9.48123
9.00624
8.55302
8.37058
8.09776
7.41156
6.69043
5.95068
5.13947
4.24935
3.17657
1.33023
0.964432
2.23831
3.05061
3.73676
4.35733
4.95403
5.54979
6.15488
6.70296
7.06184
7.33464
7.59068
7.89992
8.34565
9.04014
9.96341
10.5298
10.1656
9.78363
9.37204
8.93088
8.74738
8.53397
7.86473
7.10624
6.31451
5.44904
4.48069
3.27893
1.36186
0.987795
2.25219
3.06936
3.76463
4.41307
5.01795
5.57537
6.11953
6.65749
7.09342
7.43633
7.76167
8.09447
8.54032
9.19035
9.97589
10.4634
10.2662
9.90312
9.60984
9.22955
9.04733
8.90948
8.35348
7.56519
6.70902
5.77196
4.7059
3.39416
1.42968
1.03357
2.32537
3.14131
3.82098
4.45315
5.03633
5.58617
6.1442
6.67629
7.16668
7.57691
7.9751
8.36898
8.80663
9.33285
9.87431
10.2708
10.2805
9.96904
9.78144
9.48929
9.32982
9.23949
8.90044
8.12634
7.17074
6.13405
4.98426
3.61995
1.5572
1.15382
2.45639
3.23973
3.88303
4.47525
5.05283
5.61983
6.18022
6.75697
7.32089
7.83751
8.29155
8.70345
9.10813
9.49398
9.82426
10.1156
10.2845
10.0927
9.97588
9.77651
9.67283
9.63167
9.49262
8.75319
7.69946
6.54328
5.34789
3.94371
1.72977
1.15552
2.51743
3.29416
3.91961
4.50236
5.08577
5.68085
6.26898
6.8455
7.4178
7.96042
8.47491
8.96132
9.38641
9.71105
9.9389
10.1278
10.3585
10.3681
10.2951
10.1707
10.1297
10.1291
9.98607
9.29518
8.21222
7.0041
5.758
4.29154
1.89753
1.14161
2.52777
3.29614
3.91494
4.49831
5.08884
5.69688
6.31391
6.92032
7.50854
8.06865
8.61053
9.14123
9.60038
9.93691
10.1514
10.294
10.5573
10.8292
10.8264
10.7295
10.7078
10.6764
10.3848
9.69512
8.64453
7.43409
6.14859
4.62213
2.0527
1.14124
2.51805
3.27705
3.89116
4.46925
5.05257
5.65628
6.28443
6.92379
7.56011
8.18928
8.78665
9.34431
9.81509
10.158
10.3907
10.561
10.846
11.2842
11.4513
11.405
11.3282
11.1485
10.7868
10.0771
9.04703
7.84365
6.52166
4.93091
2.19669
1.14431
2.50236
3.25162
3.857
4.42699
5.0018
5.59817
6.22626
6.88721
7.57311
8.27675
8.97254
9.59727
10.0955
10.4388
10.6792
10.8731
11.1452
11.5922
11.9481
12.0356
11.8949
11.5955
11.216
10.4879
9.4817
8.28995
6.91717
5.23554
2.3329
1.10258
2.47866
3.22185
3.82081
4.38298
4.94855
5.5371
6.16119
6.82962
7.54734
8.30919
9.08988
9.81494
10.3882
10.768
11.0222
11.2307
11.4763
11.8656
12.3001
12.5224
12.4088
12.1306
11.7605
11.0496
10.049
8.8358
7.40032
5.60099
2.48689
1.10115
2.43971
3.18649
3.79045
4.34375
4.89973
5.47898
6.095
6.76069
7.48642
8.2784
9.11338
9.92916
10.6147
11.0854
11.3947
11.6452
11.8996
12.242
12.6631
12.9554
12.9578
12.8433
12.5722
11.8783
10.8376
9.547
8.02233
6.07873
2.68795
1.1058
2.44126
3.18466
3.76726
4.31008
4.86074
5.42591
6.03003
6.68414
7.40009
8.18957
9.04868
9.92092
10.7207
11.3292
11.7544
12.1043
12.4401
12.7885
13.1652
13.4629
13.5991
13.747
13.6682
12.9884
11.8662
10.4462
8.78721
6.66932
2.94331
1.10496
2.43461
3.17308
3.75795
4.30213
4.83178
5.37761
5.96744
6.60296
7.29772
8.065
8.91028
9.80232
10.6836
11.4608
12.0505
12.5557
13.0513
13.4809
13.8268
14.0841
14.3263
14.771
14.9426
14.3314
13.1063
11.5157
9.67457
7.35255
3.25215
1.09756
2.42615
3.15916
3.74146
4.28288
4.81369
5.34874
5.91034
6.51778
7.18402
7.92117
8.73555
9.61829
10.5313
11.4221
12.2042
12.9069
13.6285
14.2322
14.6027
14.7906
15.0689
15.7707
16.2797
15.8155
14.514
12.729
10.6595
8.0962
3.59269
1.09715
2.42282
3.15211
3.73113
4.26526
4.78786
5.32068
5.86109
6.42395
7.06012
7.76833
8.55231
9.41221
10.3322
11.2737
12.1861
13.0805
14.0186
14.8892
15.428
15.5741
15.7674
16.5549
17.4705
17.3034
16.0111
14.0335
11.7087
8.87545
3.94291
1.09781
2.42462
3.15375
3.73433
4.2643
4.77226
5.2795
5.79363
6.32871
6.92293
7.60724
8.36686
9.20476
10.1166
11.0798
12.0625
13.0672
14.1591
15.2857
16.1314
16.409
16.4527
17.0931
18.2399
18.5363
17.4597
15.3493
12.7766
9.66011
4.29266
1.10648
2.43221
3.1701
3.75453
4.2795
4.7628
5.23475
5.70772
6.22402
6.78739
7.43814
8.17725
8.99644
9.90041
10.8724
11.8847
12.9388
14.1216
15.4101
16.5493
17.0895
17.1206
17.5195
18.6215
19.3472
18.6728
16.5589
13.7948
10.41
4.63529
1.1177
2.44788
3.19102
3.78201
4.28361
4.72244
5.15752
5.6095
6.10244
6.6459
7.26443
7.98073
8.78376
9.68076
10.6609
11.6933
12.7635
13.9723
15.3355
16.6855
17.471
17.612
17.8665
18.7794
19.7119
19.4632
17.4881
14.6159
11.0502
4.96244
1.12316
2.46418
3.21196
3.78126
4.23718
4.64314
5.0527
5.49426
5.97612
6.50181
7.08874
7.77446
8.56189
9.451
10.4401
11.489
12.5717
13.7755
15.1654
16.6216
17.5752
17.8257
18.0347
18.7554
19.6798
19.7073
17.9871
15.1042
11.3436
5.08052
1.11276
2.4565
3.19806
3.73186
4.16314
4.55996
4.96432
5.40166
5.86923
6.3563
6.90409
7.55376
8.32344
9.20362
10.1962
11.261
12.3731
13.5745
14.969
16.4631
17.4893
17.7879
17.9779
18.5148
19.2778
19.4645
18.0183
15.2178
11.4172
5.03893
1.10244
2.43257
3.14998
3.66343
4.08519
4.48137
4.90291
5.36452
5.80693
6.21144
6.69402
7.30552
8.05765
8.93402
9.92967
11.0129
12.1497
13.3598
14.7672
16.273
17.2804
17.5845
17.7465
18.0677
18.5396
18.7433
17.6681
15.086
11.3498
4.91452
1.08983
2.4042
3.09183
3.60507
4.04076
4.45449
4.89035
5.34243
5.74038
6.07362
6.45058
7.00993
7.75391
8.63904
9.64527
10.7433
11.8996
13.1342
14.5641
16.0174
16.9234
17.2369
17.3891
17.5631
17.7598
17.8273
17.0653
14.7649
11.1594
4.93276
1.13334
2.38795
3.04885
3.55322
4.00111
4.4275
4.8255
5.1894
5.53163
5.86785
6.21704
6.67982
7.41172
8.32092
9.35631
10.4849
11.6646
12.8962
14.3096
15.6189
16.3844
16.734
16.909
16.9834
16.9712
16.8619
16.2778
14.2899
10.8897
4.83479
1.14747
2.37757
3.01035
3.48767
3.90147
4.27324
4.61361
4.94634
5.28416
5.61752
5.96554
6.38753
7.0461
7.98256
9.06934
10.2667
11.5072
12.7598
14.0435
15.045
15.722
16.0998
16.2689
16.2659
16.1192
15.8692
15.3175
13.6644
10.6394
4.74725
1.12808
2.34511
2.93401
3.35667
3.71738
4.05064
4.37078
4.69261
5.02396
5.35553
5.6917
6.08674
6.68209
7.62123
8.76552
10.0554
11.4207
12.7094
13.7841
14.4718
15.0449
15.3852
15.4982
15.4228
15.1961
14.852
14.3044
12.9556
10.3066
4.6701
1.09998
2.27269
2.81866
3.20385
3.52998
3.83398
4.13323
4.43895
4.75551
5.07725
5.40461
5.77292
6.31872
7.23452
8.41559
9.76783
11.2189
12.5093
13.4644
14.0337
14.4104
14.6303
14.6544
14.5135
14.249
13.856
13.3081
12.1399
9.79042
4.5187
1.06803
2.18115
2.68942
3.04331
3.342
3.62127
3.89871
4.18406
4.48051
4.78535
5.09933
5.44641
5.94336
6.81548
8.0051
9.37534
10.84
12.1283
13.0559
13.6511
13.899
13.9701
13.8773
13.6576
13.3461
12.9152
12.3331
11.2599
9.17813
4.29917
1.01697
2.06538
2.54483
2.87618
3.15389
3.4119
3.66772
3.93074
4.20413
4.48746
4.78307
5.10861
5.55502
6.3607
7.53146
8.88234
10.2805
11.5537
12.4901
13.1262
13.4674
13.4577
13.2681
12.9574
12.5719
12.0989
11.4635
10.3983
8.527
4.14511
0.959712
1.94041
2.39466
2.70849
2.96896
3.20801
3.44272
3.68222
3.93029
4.1892
4.46366
4.76697
5.16237
5.87336
6.9893
8.27814
9.56203
10.7876
11.7632
12.4459
12.8514
12.9633
12.7702
12.3919
11.9353
11.4112
10.7132
9.63803
7.91213
3.92568
0.899408
1.81408
2.24623
2.54518
2.79043
3.01184
3.22552
3.44006
3.65995
3.89043
4.14018
4.42014
4.7675
5.36738
6.38995
7.57113
8.74153
9.86576
10.8553
11.6022
12.0287
12.2057
12.1254
11.7851
11.2964
10.72
9.98928
8.94832
7.31674
3.63358
0.839811
1.69271
2.10471
2.38983
2.62077
2.82516
3.01756
3.20557
3.39427
3.59169
3.81056
4.06305
4.36803
4.86289
5.76042
6.80266
7.85537
8.85906
9.8109
10.5991
11.0844
11.2713
11.2268
10.987
10.5696
10.0134
9.29985
8.31384
6.73992
3.26122
0.782743
1.57958
1.97295
2.2447
2.46179
2.64956
2.82068
2.98157
3.13777
3.29933
3.48162
3.69991
3.96891
4.38205
5.11659
6.04497
6.96525
7.85044
8.72476
9.50739
10.0548
10.2995
10.2824
10.0882
9.75043
9.29066
8.66779
7.77027
6.29364
3.02851
0.730374
1.47691
1.85253
2.1112
2.31485
2.48659
2.63706
2.77158
2.89623
3.02279
3.16753
3.34664
3.57452
3.92358
4.51624
5.32163
6.11729
6.89149
7.67243
8.41274
8.99055
9.30971
9.3614
9.22329
8.95437
8.58349
8.06493
7.28253
5.94782
2.9122
0.684232
1.38582
1.7443
1.99014
2.18086
2.33731
2.46811
2.57767
2.67306
2.76746
2.87747
3.01878
3.2026
3.48587
3.9721
4.64528
5.33182
6.00489
6.69264
7.37392
7.95133
8.32851
8.46299
8.39566
8.19535
7.89463
7.45973
6.77732
5.57667
2.78436
0.645154
1.30667
1.64844
1.88165
2.05994
2.20172
2.31359
2.39956
2.46794
2.53323
2.61209
2.71921
2.86141
3.08092
3.47242
4.02854
4.61576
5.20402
5.80958
6.42816
6.98699
7.39949
7.60622
7.61158
7.47637
7.23016
6.85603
6.25207
5.16621
2.61752
0.612817
1.23911
1.5644
1.78514
1.95139
2.07871
2.17193
2.23538
2.27895
2.31798
2.36899
2.44576
2.55087
2.71546
3.02458
3.48382
3.98337
4.49591
5.03285
5.59441
6.127
6.55758
6.8199
6.89256
6.81131
6.60953
6.27789
5.7327
4.74251
2.42761
0.586284
1.18219
1.49116
1.6996
1.85387
1.96643
2.04093
2.08295
2.10382
2.11946
2.14613
2.19642
2.26953
2.38879
2.63104
3.01055
3.43744
3.88538
4.36412
4.87548
5.3801
5.81795
6.12169
6.25106
6.21599
6.04889
5.74556
5.24231
4.33125
2.23189
0.565347
1.13467
1.42734
1.62367
1.76566
1.86286
1.9185
1.94022
1.94088
1.9362
1.94198
1.97015
2.01733
2.10074
2.28801
2.60149
2.96981
3.365
3.79532
4.26288
4.74
5.17858
5.51326
5.68978
5.69536
5.55488
5.2702
4.79587
3.95099
2.04523
0.549971
1.09508
1.37151
1.55571
1.68479
1.76576
1.8027
1.80623
1.78906
1.7671
1.75587
1.76625
1.79294
1.84961
1.99396
2.25267
2.57175
2.92465
3.31393
3.74285
4.19315
4.62767
4.98531
5.20163
5.2444
5.12525
4.85398
4.39982
3.61087
1.87652
0.539482
1.06148
1.32217
1.49391
1.60918
1.67315
1.69289
1.67995
1.6477
1.61165
1.58689
1.58357
1.59477
1.63073
1.74171
1.95763
2.23678
2.55293
2.90655
3.30068
3.72415
4.14991
4.52358
4.77384
4.85139
4.75249
4.49218
4.05376
3.31249
1.72825
0.531907
1.03169
1.27769
1.43672
1.53718
1.58426
1.58828
1.561
1.51628
1.46925
1.43444
1.42095
1.42079
1.44146
1.52733
1.70892
1.95388
2.23858
2.5603
2.9224
3.31862
3.73059
4.11293
4.39228
4.50315
4.42592
4.17703
3.75281
3.05231
1.59905
0.525472
1.00448
1.23701
1.38287
1.46765
1.49893
1.48857
1.44907
1.39442
1.33939
1.2979
1.27754
1.26973
1.27812
1.34475
1.49887
1.71533
1.97136
2.26397
2.59638
2.96502
3.35818
3.74092
4.04406
4.18713
4.13488
3.9001
3.49044
2.82507
1.48491
0.518912
0.979231
1.19957
1.33162
1.40033
1.41699
1.39372
1.34393
1.28149
1.22107
1.17592
1.15183
1.13825
1.1385
1.19045
1.32065
1.51178
1.74275
2.00887
2.31354
2.65468
3.025
3.39966
3.71913
3.89295
3.87019
3.65366
3.2602
2.6268
1.38547
0.511601
0.95603
1.16534
1.28278
1.33563
1.33855
1.30383
1.24537
1.17713
1.11375
1.06743
1.04179
1.02457
1.02026
1.06145
1.17139
1.33923
1.54618
1.78833
2.0672
2.38156
2.72674
3.08578
3.41177
3.61308
3.62378
3.43047
3.05625
2.45342
1.29839
0.503904
0.935308
1.13422
1.23609
1.27374
1.2637
1.21889
1.15327
1.08112
1.01712
0.971997
0.946537
0.928657
0.921636
0.954368
1.04664
1.19261
1.37808
1.5978
1.85234
2.14119
2.46074
2.79882
3.1206
3.34335
3.38825
3.22381
2.87253
2.30091
1.22396
0.496848
0.917653
1.10548
1.1913
1.21449
1.19249
1.13878
1.06733
0.993079
0.930664
0.888722
0.865153
0.848184
0.840033
0.86559
0.942477
1.06847
1.23368
1.4328
1.66447
1.92955
2.22452
2.53931
2.84793
3.08245
3.15784
3.02651
2.70277
2.16338
1.1576
0.490561
0.902845
1.0784
1.14793
1.15749
1.12464
1.063
0.986958
0.912424
0.853547
0.816278
0.795999
0.781259
0.773574
0.792651
0.8553
0.962966
1.10925
1.28923
1.49942
1.7426
2.01484
2.30675
2.59711
2.83252
2.92905
2.83136
2.53961
2.03525
1.0981
0.485642
0.890709
1.05217
1.10561
1.10238
1.05958
0.990739
0.911296
0.838325
0.784755
0.753261
0.7373
0.724926
0.71925
0.734161
0.783946
0.873549
1.00146
1.16234
1.35263
1.5762
1.82787
2.099
2.37039
2.59823
2.70308
2.6326
2.37407
1.91008
1.03905
0.481453
0.880329
1.02571
1.06383
1.04854
0.996339
0.920824
0.839292
0.769635
0.722651
0.697447
0.685044
0.676101
0.674181
0.686443
0.724993
0.797923
0.906973
1.04888
1.22131
1.42648
1.65979
1.91328
2.16832
2.38536
2.48885
2.43293
2.19845
1.76913
0.979395
0.477606
0.870968
0.998222
1.02196
0.99537
0.933893
0.852311
0.770216
0.70549
0.665778
0.64649
0.638015
0.634641
0.636647
0.647176
0.676209
0.733
0.823274
0.947017
1.10228
1.29001
1.50715
1.74633
1.98953
2.19846
2.29808
2.24423
2.0158
1.60465
0.912723
0.473716
0.861648
0.969251
0.979424
0.942055
0.871128
0.78453
0.703758
0.645372
0.613349
0.60021
0.59631
0.59858
0.603949
0.61269
0.633618
0.676142
0.748216
0.854129
0.993251
1.16422
1.36676
1.59432
1.82983
2.03621
2.13698
2.08153
1.84101
1.42423
0.833902
0.468084
0.850949
0.938476
0.935655
0.887489
0.807278
0.717114
0.639614
0.588772
0.564629
0.556226
0.557685
0.565581
0.573426
0.58062
0.594996
0.62503
0.680169
0.768413
0.890323
1.04497
1.23437
1.45211
1.68278
1.89099
1.99934
1.94707
1.68899
1.2567
0.749311
0.461367
0.837553
0.905799
0.890456
0.830576
0.741594
0.649707
0.577283
0.534514
0.516733
0.51381
0.521756
0.534291
0.543522
0.54928
0.558272
0.577681
0.617244
0.686936
0.79123
0.930573
1.10599
1.31379
1.54148
1.75404
1.87353
1.83139
1.56369
1.11997
0.666928
0.451004
0.821297
0.870682
0.843096
0.770551
0.673957
0.582487
0.516984
0.482558
0.470433
0.474325
0.488148
0.503472
0.513252
0.517835
0.522468
0.533442
0.559543
0.611351
0.697512
0.819724
0.979345
1.17692
1.40083
1.61816
1.75176
1.72641
1.46165
1.02117
0.594131
0.43813
0.797791
0.832295
0.792631
0.70687
0.604541
0.516101
0.458818
0.432139
0.427546
0.437906
0.456077
0.472508
0.482048
0.485599
0.487197
0.492226
0.507424
0.542837
0.609817
0.714276
0.856706
1.03951
1.25868
1.48105
1.63024
1.62781
1.37698
0.950914
0.535539
0.423985
0.765563
0.78896
0.737422
0.639224
0.533958
0.450773
0.40252
0.384524
0.388169
0.404593
0.425036
0.441233
0.450055
0.452933
0.453019
0.454059
0.46082
0.482077
0.530111
0.614682
0.739421
0.905551
1.11503
1.34136
1.5109
1.53582
1.30877
0.904533
0.488987
0.407356
0.724808
0.739235
0.6758
0.567197
0.461787
0.387439
0.349427
0.341917
0.352924
0.373932
0.394896
0.410248
0.418554
0.421181
0.420417
0.418672
0.419315
0.429281
0.459941
0.523943
0.629138
0.777672
0.972422
1.20131
1.39282
1.44887
1.25247
0.869088
0.458488
0.388369
0.677484
0.681853
0.606299
0.491361
0.390883
0.32733
0.301765
0.304368
0.322108
0.345452
0.365972
0.380482
0.388565
0.39117
0.389786
0.385953
0.382401
0.383973
0.400095
0.444393
0.528942
0.659944
0.83869
1.06057
1.27469
1.36532
1.20263
0.839068
0.438564
0.367499
0.62481
0.617691
0.530963
0.413517
0.322652
0.272714
0.260708
0.271788
0.295005
0.318943
0.338714
0.352663
0.360662
0.363245
0.361357
0.356095
0.349347
0.34513
0.350076
0.37707
0.441241
0.552777
0.715401
0.926979
1.15856
1.28518
1.1586
0.812355
0.424652
0.344787
0.566977
0.547309
0.450069
0.338629
0.26049
0.225311
0.225477
0.243757
0.269911
0.294058
0.31343
0.327132
0.335063
0.337543
0.335207
0.328848
0.319869
0.311106
0.308235
0.321233
0.366632
0.458794
0.60476
0.804088
1.03904
1.20218
1.11748
0.788831
0.414198
0.320447
0.503051
0.473981
0.37132
0.268774
0.20576
0.185541
0.194246
0.219214
0.247116
0.271671
0.291106
0.304819
0.312707
0.314998
0.312166
0.304813
0.294024
0.281775
0.272979
0.275217
0.304249
0.377902
0.505955
0.691791
0.923241
1.11005
1.07523
0.767455
0.406162
0.294457
0.433516
0.398285
0.298658
0.208813
0.16032
0.152047
0.167681
0.197874
0.22763
0.253105
0.273008
0.286917
0.294789
0.296826
0.293402
0.285001
0.272505
0.257483
0.243331
0.237789
0.252905
0.30948
0.419548
0.587493
0.809416
1.01346
1.0323
0.747468
0.399174
0.26637
0.361729
0.326361
0.234201
0.159821
0.123679
0.123906
0.14541
0.179896
0.211886
0.238598
0.259205
0.273458
0.281347
0.283094
0.279026
0.269566
0.255442
0.237802
0.219091
0.207209
0.211426
0.252777
0.346289
0.495622
0.70195
0.911396
0.977666
0.725727
0.393621
0.23767
0.288163
0.25866
0.180892
0.120586
0.0952446
0.0998644
0.12609
0.164795
0.199528
0.228165
0.250036
0.264883
0.272861
0.274328
0.269546
0.258834
0.242783
0.222438
0.199717
0.181491
0.178228
0.206629
0.285394
0.415219
0.600576
0.805602
0.897061
0.700334
0.386155
0.206394
0.219859
0.197633
0.137287
0.0902157
0.0735008
0.0795611
0.108891
0.152325
0.190557
0.221947
0.245587
0.261185
0.269353
0.270538
0.265076
0.253131
0.234973
0.21136
0.183978
0.159352
0.151197
0.169686
0.235311
0.347604
0.508332
0.694654
0.789954
0.660303
0.374419
0.175316
0.169631
0.148944
0.102579
0.0690723
0.0578494
0.0631108
0.0910109
0.138939
0.180884
0.215412
0.241672
0.259071
0.268166
0.269532
0.263659
0.25065
0.230511
0.203464
0.170949
0.140105
0.128631
0.140504
0.195986
0.292527
0.430465
0.587053
0.663193
0.590627
0.355957
0.147284
0.135433
0.111264
0.0798367
0.0562544
0.0471789
0.0508508
0.0754136
0.126738
0.171171
0.206819
0.234337
0.253283
0.26357
0.265671
0.259922
0.246306
0.224736
0.195071
0.158184
0.122122
0.109099
0.118187
0.167682
0.250829
0.365583
0.482388
0.532925
0.498458
0.328423
0.121326
0.107664
0.0868929
0.0653757
0.0470963
0.039149
0.0419548
0.0652396
0.119519
0.165272
0.199576
0.226198
0.244995
0.255799
0.258664
0.253627
0.24034
0.218397
0.187441
0.147673
0.106342
0.0914638
0.0991721
0.145338
0.216269
0.303649
0.381353
0.410969
0.396994
0.290631
0.10054
0.0879683
0.0703201
0.0536541
0.0392419
0.0331658
0.0357458
0.0598995
0.116378
0.162552
0.194625
0.218905
0.236479
0.246978
0.250137
0.245859
0.233554
0.212525
0.18202
0.141626
0.095885
0.0779646
0.0823848
0.120983
0.178356
0.242321
0.293213
0.310429
0.302603
0.245947
0.0847576
0.0724415
0.056067
0.0427462
0.0317575
0.0276735
0.0321322
0.0605722
0.113747
0.15997
0.191878
0.212839
0.227766
0.236744
0.239512
0.235784
0.224836
0.205812
0.177735
0.139946
0.0928317
0.0672552
0.0669475
0.0955794
0.139389
0.183679
0.217664
0.229471
0.226905
0.2031
0.0700298
0.0573125
0.0427846
0.0318389
0.023911
0.0227329
0.0323004
0.065477
0.112598
0.1554
0.188559
0.207306
0.219021
0.225989
0.228058
0.224764
0.215331
0.199002
0.174954
0.141339
0.0957751
0.0603925
0.0535444
0.0700201
0.104251
0.134507
0.157657
0.166329
0.167101
0.165146
0.0558184
0.0428545
0.029959
0.0215006
0.0180818
0.0211792
0.0363216
0.072772
0.112897
0.150292
0.182044
0.200315
0.209898
0.215345
0.216977
0.214345
0.206815
0.193866
0.174469
0.145547
0.104156
0.06032
0.0456437
0.0496919
0.0730882
0.0981765
0.116089
0.123795
0.126372
0.137991
0.0425714
0.0296126
0.0194217
0.0153733
0.016218
0.0230905
0.0456521
0.0783391
0.112934
0.14585
0.174162
0.192278
0.20085
0.205287
0.20676
0.205054
0.199628
0.189908
0.174237
0.148749
0.111613
0.0668551
0.0429695
0.0381827
0.0477332
0.0672278
0.0852827
0.0972388
0.102227
0.119042
0.0317445
0.0198621
0.0144608
0.0141357
0.0172005
0.0300726
0.0545726
0.0830096
0.112809
0.141776
0.166726
0.1843
0.1926
0.196294
0.197837
0.197108
0.193552
0.186324
0.172886
0.149666
0.117244
0.0787395
0.0454388
0.0337912
0.0332119
0.0422127
0.0572816
0.0742231
0.0867209
0.103656
0.0249743
0.0160064
0.0141625
0.0153591
0.0223943
0.0409634
0.0633053
0.0882363
0.11351
0.1382
0.160177
0.176384
0.184835
0.18845
0.190269
0.190465
0.188456
0.183134
0.171538
0.152376
0.126526
0.0934343
0.0564175
0.0348696
0.0292389
0.0299037
0.0367533
0.0507806
0.0697512
0.0887779
0.0225889
0.0162978
0.0169461
0.0221538
0.035207
0.0528052
0.0729726
0.0946578
0.115832
0.13629
0.154994
0.169194
0.177411
0.181575
0.183888
0.184834
0.184078
0.180521
0.171895
0.158362
0.138694
0.110737
0.0763829
0.0440575
0.031156
0.0285342
0.0292714
0.0347952
0.0503939
0.071583
0.0228647
0.0213448
0.0281336
0.0379665
0.0504447
0.0659116
0.0834605
0.101738
0.11934
0.136
0.15155
0.163291
0.170626
0.175267
0.178297
0.179952
0.180004
0.178005
0.173228
0.165224
0.152171
0.130738
0.0992877
0.0675355
0.043125
0.0328616
0.0300742
0.030463
0.0364008
0.0543349
0.0264744
0.0361611
0.0449108
0.0548508
0.0666466
0.0804835
0.0950823
0.109046
0.122915
0.136181
0.14908
0.15845
0.164643
0.169339
0.173046
0.17553
0.176246
0.17525
0.173514
0.170651
0.16393
0.148098
0.122097
0.0931762
0.0703043
0.0516404
0.0388415
0.032807
0.0324408
0.0415648
0.0351591
0.0489083
0.0596181
0.0708846
0.0835327
0.0967644
0.108277
0.117565
0.126839
0.136554
0.146814
0.154261
0.159564
0.164049
0.168095
0.171363
0.173074
0.173029
0.1728
0.172746
0.170379
0.158263
0.138474
0.114821
0.0963717
0.0802084
0.0637806
0.045781
0.0351069
0.0369335
0.0408861
0.0569594
0.0708867
0.084
0.0985495
0.111949
0.121535
0.127239
0.132093
0.137649
0.144823
0.150996
0.155649
0.159867
0.163952
0.167691
0.170511
0.171965
0.172669
0.173232
0.172941
0.163983
0.149218
0.133292
0.118987
0.105844
0.0914594
0.0731351
0.0486963
0.037634
0.0432278
0.0618249
0.0790931
0.092397
0.107293
0.121763
0.131699
0.135716
0.137567
0.140692
0.144616
0.149172
0.153285
0.15717
0.161116
0.165079
0.168748
0.171731
0.173653
0.174837
0.17479
0.169722
0.16122
0.151562
0.139138
0.128093
0.115866
0.101529
0.0754954
0.0430925
0.0437195
0.0624208
0.0805048
0.095273
0.110328
0.124992
0.135936
0.140391
0.141457
0.143396
0.146493
0.149551
0.152999
0.156377
0.159948
0.163956
0.168258
0.172371
0.176016
0.178625
0.178948
0.176819
0.17615
0.170271
0.157722
0.146857
0.135842
0.124176
0.104269
0.0584693
0.043038
0.061099
0.0786671
0.0939584
0.109361
0.123339
0.134524
0.140366
0.142633
0.144432
0.147994
0.152062
0.154768
0.157363
0.160417
0.164329
0.169025
0.174364
0.180191
0.185111
0.186714
0.185639
0.190602
0.187003
0.174098
0.162013
0.150299
0.138162
0.124178
0.0785827
0.0396065
0.054939
0.0740093
0.0905776
0.106101
0.118941
0.129909
0.138048
0.142104
0.144658
0.147788
0.152429
0.157209
0.160492
0.162952
0.166514
0.171562
0.177982
0.185395
0.192434
0.195783
0.196127
0.2019
0.198527
0.186339
0.173781
0.16143
0.148654
0.132567
0.0917496
0.0350784
0.0515854
0.0727509
0.0895296
0.103866
0.115494
0.125605
0.134215
0.140276
0.14412
0.147328
0.151276
0.156281
0.161014
0.165556
0.170348
0.176174
0.1834
0.192123
0.200981
0.205599
0.206335
0.208072
0.203534
0.193843
0.182039
0.169067
0.155126
0.136387
0.0982929
0.0347715
0.053155
0.0740051
0.0903068
0.103552
0.113927
0.12278
0.130532
0.13689
0.141874
0.145864
0.149816
0.154287
0.159347
0.164846
0.17108
0.178569
0.1874
0.197381
0.206764
0.212583
0.213911
0.212437
0.206842
0.198882
0.188671
0.178377
0.165248
0.140424
0.0966022
0.0364794
0.0591412
0.078144
0.0928713
0.104367
0.1134
0.120977
0.127542
0.133133
0.138014
0.14258
0.147229
0.152245
0.15766
0.163432
0.169973
0.17768
0.186761
0.1966
0.206104
0.214351
0.218203
0.216401
0.212798
0.207507
0.199525
0.186988
0.168163
0.136207
0.088951
0.0408285
0.0656493
0.0835359
0.0959471
0.105628
0.113268
0.119808
0.125411
0.130223
0.134633
0.139022
0.143764
0.149104
0.15497
0.16117
0.16771
0.174964
0.183268
0.192481
0.202369
0.212023
0.217963
0.217578
0.214104
0.212101
0.203679
0.18634
0.164121
0.12859
0.0792142
0.0436774
0.0691239
0.0859885
0.097308
0.105953
0.113028
0.119009
0.124056
0.128457
0.132529
0.13657
0.140876
0.145721
0.151216
0.157221
0.163573
0.170444
0.178256
0.187201
0.197049
0.206873
0.214029
0.214428
0.210554
0.206451
0.197097
0.179993
0.15676
0.12375
0.074564
0.0447711
0.0691724
0.0854263
0.0967084
0.105517
0.112706
0.118512
0.123314
0.127497
0.131347
0.135106
0.138992
0.143204
0.147895
0.153095
0.158774
0.165065
0.172332
0.180748
0.189941
0.198808
0.204861
0.20488
0.200116
0.193564
0.184354
0.169873
0.148506
0.117917
0.0722719
0.0442611
0.066646
0.0825025
0.0948026
0.104864
0.112555
0.118279
0.122916
0.12693
0.130612
0.134159
0.137729
0.141463
0.145488
0.149891
0.154722
0.1601
0.16628
0.173354
0.180939
0.187922
0.191996
0.190995
0.185683
0.178437
0.169696
0.156875
0.136693
0.10617
0.0675374
0.0408636
0.0584999
0.0782284
0.0937901
0.104832
0.112607
0.118164
0.122659
0.126568
0.130139
0.133521
0.136822
0.140154
0.143641
0.147385
0.151438
0.155866
0.160782
0.166168
0.171662
0.176307
0.178402
0.176604
0.171151
0.163459
0.154081
0.140969
0.120316
0.0867939
0.0579667
0.0356573
0.0541972
0.0772214
0.0939907
0.105092
0.112657
0.118129
0.122628
0.126514
0.129972
0.133148
0.136149
0.139082
0.142076
0.145217
0.148534
0.152049
0.155762
0.159571
0.163122
0.165597
0.165984
0.16344
0.157937
0.149885
0.139314
0.124639
0.102669
0.0672299
0.047719
0.0346994
0.0554571
0.0780503
0.0941933
0.105335
0.112763
0.1183
0.122875
0.126735
0.130038
0.13293
0.135572
0.138113
0.140658
0.143246
0.145884
0.148555
0.151194
0.153656
0.155585
0.156362
0.155298
0.151974
0.146318
0.138144
0.126839
0.111043
0.088816
0.0554506
0.0396388
0.0362076
0.0604682
0.0805437
0.0949406
0.105699
0.113204
0.118903
0.123524
0.127218
0.130207
0.132727
0.13497
0.137124
0.139266
0.141388
0.143455
0.145405
0.147148
0.148527
0.149216
0.148732
0.146525
0.142447
0.13653
0.128441
0.117267
0.101771
0.0809796
0.0532361
0.0359154
0.0412733
0.0663598
0.0841755
0.0973647
0.107144
0.11397
0.119332
0.123939
0.127466
0.130198
0.132394
0.134286
0.136102
0.137903
0.13964
0.141237
0.142609
0.143659
0.144229
0.144063
0.142741
0.139809
0.135201
0.129053
0.121162
0.110733
0.0966627
0.0783811
0.0541801
0.0357448
0.0440432
0.068719
0.087373
0.100379
0.108054
0.113851
0.119518
0.124072
0.127449
0.129981
0.131886
0.133528
0.135094
0.136616
0.138029
0.139248
0.140181
0.140728
0.140759
0.140049
0.138285
0.135107
0.130364
0.124231
0.116659
0.107151
0.0948888
0.0788269
0.0574684
0.0372091
0.0445054
0.0702296
0.0877005
0.100195
0.107452
0.113842
0.119618
0.124027
0.127229
0.129486
0.131196
0.132693
0.134099
0.135415
0.136577
0.13751
0.138127
0.138348
0.138059
0.137085
0.135222
0.13221
0.127731
0.121938
0.114855
0.106147
0.0951006
0.0813557
0.064997
0.0424992
0.0449482
0.0695038
0.0859605
0.0978723
0.106445
0.11378
0.119638
0.123833
0.126722
0.128759
0.130385
0.131825
0.13314
0.134318
0.135302
0.136033
0.136445
0.136482
0.136058
0.135058
0.133372
0.130897
0.127088
0.121722
0.114968
0.106633
0.0962913
0.0836893
0.0677517
0.0473566
0.0446134
0.0656989
0.0807537
0.094653
0.105452
0.113766
0.119597
0.123442