/*--------------------------------*- C++ -*----------------------------------*\
| =========                 |                                                 |
| \\      /  F ield         | OpenFOAM: The Open Source CFD Toolbox           |
|  \\    /   O peration     | Version:  v1606+                                |
|   \\  /    A nd           | Web:      www.OpenFOAM.com                      |
|    \\/     M anipulation  |                                                 |
\*---------------------------------------------------------------------------*/
FoamFile
{
    version     2.0;
    format      ascii;
    class       volScalarField;
    location    "0.8";
    object      nut.air;
}
// * * * * * * * * * * * * * * * * * * * * * * * * * * * * * * * * * * * * * //

dimensions      [0 2 -1 0 0 0 0];

internalField   nonuniform List<scalar> 
6000
(
0.000529723
0.00490325
0.00784834
0.00855169
0.00880008
0.00894105
0.00902475
0.00908715
0.00912882
0.00916028
0.00918213
0.00919291
0.00919563
0.00919196
0.00918746
0.00918677
0.00919011
0.00919354
0.00919208
0.00918415
0.00916619
0.00913887
0.00909933
0.00903727
0.00895047
0.00880679
0.00855392
0.00784735
0.00490061
0.00052967
0.000449827
0.00326453
0.00632467
0.00815344
0.00909269
0.00963107
0.0100159
0.0103177
0.0105401
0.0106994
0.0108149
0.0108952
0.0109438
0.010966
0.0109741
0.0109758
0.0109775
0.0109597
0.0109278
0.0108596
0.0107453
0.0105871
0.0103642
0.01006
0.00966687
0.00911346
0.0081675
0.0063356
0.00326307
0.000449289
0.000382685
0.00293517
0.00591549
0.00796293
0.00922174
0.01004
0.0106403
0.011129
0.0115562
0.011911
0.0121764
0.0123574
0.0124808
0.0125594
0.0126002
0.012606
0.0125784
0.0125145
0.0124117
0.0122486
0.0120031
0.0116585
0.0112326
0.0107353
0.0101223
0.00928655
0.00801359
0.00595287
0.00294873
0.000382192
0.000369899
0.00307944
0.00612674
0.00834361
0.00983148
0.010883
0.0116759
0.0123063
0.0128747
0.0133357
0.0136821
0.0139318
0.0141042
0.0142179
0.0142813
0.0142874
0.0142432
0.0141554
0.0140031
0.0137692
0.0134405
0.0130024
0.0124605
0.011831
0.0110305
0.00996085
0.00845248
0.00619571
0.00311432
0.00037132
0.00038136
0.00340493
0.0067328
0.00922234
0.0109035
0.0120687
0.0129726
0.0136837
0.0142718
0.0148039
0.0152393
0.0155648
0.0158114
0.0160037
0.0161224
0.0161172
0.0160136
0.0158657
0.0156559
0.0153601
0.0149643
0.0144701
0.0139056
0.013212
0.0123009
0.0111065
0.00938091
0.00685131
0.0034689
0.000384718
0.000389994
0.00346741
0.00714357
0.0101003
0.0122495
0.0137657
0.0147362
0.0154932
0.0160924
0.0166216
0.0171059
0.0175197
0.0178813
0.018182
0.0183507
0.0183376
0.0181676
0.0179144
0.0176215
0.0172718
0.0168547
0.0163883
0.015822
0.0150749
0.0140733
0.0125075
0.0102985
0.00728534
0.00353596
0.000396069
0.000391745
0.00348152
0.00745092
0.0107954
0.0133884
0.0154325
0.0169195
0.017899
0.0184942
0.0189495
0.0194231
0.0198878
0.0203221
0.0206734
0.0208603
0.0208498
0.0206564
0.020343
0.0199892
0.0196178
0.0192474
0.0188717
0.0183052
0.0173219
0.0157998
0.0136988
0.0110401
0.00762257
0.00356954
0.000400381
0.000404689
0.00370369
0.0079291
0.0115395
0.0143721
0.0167543
0.0187535
0.0202184
0.0210761
0.0215559
0.0219579
0.0224472
0.0229454
0.0233589
0.0235966
0.0235743
0.0233124
0.02295
0.0225372
0.0221521
0.0218779
0.0214894
0.0206655
0.0192044
0.017188
0.0147583
0.0118523
0.00815334
0.00382797
0.000417524
0.000439911
0.00411708
0.00858778
0.0124411
0.0154794
0.0180038
0.0200842
0.0217684
0.0230348
0.0238699
0.0244069
0.0249795
0.025695
0.0262713
0.0265051
0.0264526
0.0261393
0.0256176
0.025016
0.0245517
0.0241888
0.0234846
0.0222779
0.0206058
0.018518
0.0159552
0.012839
0.0088932
0.00428776
0.000457853
0.000481661
0.0046144
0.00937758
0.0134128
0.0166221
0.0192597
0.0213734
0.0229719
0.0243102
0.0255296
0.0264814
0.0273259
0.0282689
0.0287307
0.0288161
0.0287066
0.0284457
0.0279803
0.02726
0.0265701
0.0258933
0.0248492
0.0235623
0.0219796
0.01988
0.0172076
0.0139126
0.00977042
0.0048414
0.000504084
0.00051176
0.00514968
0.0102321
0.014401
0.0177456
0.0205046
0.0227225
0.0243293
0.0255251
0.0268304
0.0281134
0.0292917
0.030227
0.030474
0.0304449
0.0302862
0.0300475
0.0297228
0.0291435
0.0283
0.0273328
0.0261806
0.0249882
0.0234231
0.0212597
0.0184653
0.0150133
0.0107061
0.00542264
0.00053867
0.000531725
0.00555346
0.0109931
0.0153544
0.0188254
0.0216872
0.0240024
0.0256364
0.0268288
0.0280631
0.0294349
0.0307725
0.0316158
0.0319199
0.031901
0.0317196
0.0314558
0.031168
0.0307434
0.0298839
0.0287976
0.0275822
0.0264158
0.0248371
0.0226175
0.0197193
0.0160957
0.0115409
0.00586178
0.000564865
0.000547186
0.00577848
0.0115332
0.0161602
0.0198009
0.0227451
0.0251222
0.0268389
0.0280529
0.0292199
0.0305594
0.0318485
0.0327359
0.0332768
0.0334108
0.0332259
0.032929
0.0326107
0.0322106
0.0313986
0.0302634
0.0290426
0.0278546
0.026188
0.0239146
0.0209316
0.0170918
0.0122138
0.00615433
0.000589523
0.000560354
0.0059252
0.0118774
0.01674
0.0205811
0.0236183
0.0260527
0.027908
0.0292224
0.0303594
0.0316189
0.0328147
0.0337847
0.0345144
0.0349348
0.0348472
0.0345344
0.0341526
0.0337174
0.0329236
0.0317694
0.0305794
0.0293081
0.0274993
0.0251404
0.022059
0.0179807
0.0127874
0.00641859
0.000613454
0.000570936
0.00601861
0.0120917
0.0171071
0.0211131
0.024265
0.0268187
0.028868
0.0303378
0.0314799
0.0326747
0.0338416
0.0347952
0.0355851
0.0362924
0.0365188
0.0362204
0.0358023
0.0352683
0.0344692
0.0333305
0.0322112
0.0308238
0.0288246
0.0263223
0.0230994
0.018784
0.0133102
0.00667246
0.000636543
0.000575857
0.00607405
0.0122126
0.0173266
0.0214404
0.0247226
0.0274472
0.0296884
0.0313273
0.0325036
0.0336529
0.0347819
0.0357205
0.0365535
0.0373797
0.0380153
0.0379997
0.037457
0.0367911
0.0359752
0.034897
0.0338443
0.0323815
0.0301903
0.027496
0.0240791
0.0195304
0.0138088
0.00693284
0.000654368
0.000552159
0.00605782
0.0122196
0.0174635
0.0216981
0.0250955
0.0279205
0.0302696
0.0320628
0.0333226
0.0344714
0.0355611
0.0365148
0.0373642
0.0382078
0.03909
0.0395184
0.0389267
0.0381647
0.0373308
0.0363427
0.03536
0.0339074
0.0315684
0.028659
0.0250078
0.0202289
0.0142696
0.0071667
0.000648243
0.000551984
0.00568614
0.011929
0.017522
0.02198
0.0254675
0.0282728
0.0306432
0.0324925
0.0339128
0.0351403
0.0362471
0.0372123
0.0380912
0.0389654
0.0398824
0.0403933
0.0399842
0.0392654
0.0384989
0.0375889
0.0366542
0.0353087
0.0329244
0.0297926
0.0258805
0.0208609
0.0145814
0.00716338
0.000655809
0.000558901
0.00556179
0.0118411
0.0175934
0.0223593
0.0259517
0.0286849
0.0309555
0.0328073
0.0344254
0.0358015
0.0370266
0.0380823
0.0390279
0.0398772
0.0405658
0.040939
0.0408031
0.0401834
0.0395299
0.0386792
0.0377363
0.0364923
0.0342297
0.0309125
0.0267226
0.0214097
0.0147469
0.00703047
0.000672702
0.000571733
0.00568328
0.0121074
0.0178728
0.0226335
0.0262441
0.0290631
0.0314585
0.033456
0.0352433
0.0368445
0.0382538
0.0394159
0.0403429
0.0410138
0.0414086
0.0416486
0.0416387
0.0410942
0.0405036
0.0397041
0.0387317
0.0374809
0.0354501
0.0321516
0.0276715
0.021985
0.0150239
0.00716308
0.00070194
0.000604128
0.00610933
0.0126539
0.0183009
0.0228877
0.0265339
0.0295202
0.0320787
0.0343856
0.0364658
0.0383091
0.039787
0.0409154
0.0417165
0.0421724
0.0423879
0.0425326
0.0426488
0.0421897
0.0415817
0.040797
0.0397887
0.0384825
0.0366484
0.0334705
0.0288133
0.0227202
0.0155897
0.00753551
0.000739772
0.000604478
0.00641005
0.0130971
0.0186938
0.0232312
0.0269516
0.0300851
0.0327965
0.0352194
0.0373672
0.039209
0.040728
0.0419315
0.0427744
0.043247
0.0434217
0.0436197
0.0437801
0.0435899
0.0429853
0.0421512
0.0410833
0.0396646
0.0377372
0.0346449
0.029984
0.0237184
0.0163542
0.00797281
0.000774918
0.000600902
0.00645579
0.0131592
0.0188121
0.0234391
0.0272813
0.0305267
0.0333185
0.0357769
0.0379304
0.0397817
0.041347
0.0426352
0.0435975
0.0442242
0.0446026
0.0447826
0.0450704
0.0452175
0.0447205
0.0438052
0.0426116
0.0410043
0.0387554
0.0356158
0.0309669
0.0246241
0.0170452
0.00836473
0.000806103
0.000600851
0.00643128
0.0131176
0.0188054
0.0234932
0.0273966
0.0307089
0.033591
0.0361246
0.0383319
0.0402538
0.0418983
0.0432756
0.044354
0.0451273
0.0456647
0.0460526
0.0463926
0.0466426
0.0463058
0.0454031
0.0440585
0.0422074
0.0397521
0.0364736
0.031769
0.0253685
0.0176143
0.00869658
0.000834018
0.000601686
0.00639444
0.0130554
0.0187405
0.0234494
0.0273824
0.0307263
0.0336423
0.0362325
0.0385365
0.0405726
0.0423509
0.0438535
0.0450491
0.0459407
0.0466017
0.0470907
0.0474366
0.0476242
0.0473928
0.046586
0.0451925
0.0432251
0.040691
0.0372656
0.0324529
0.0260412
0.0181216
0.00897239
0.000859694
0.000590818
0.00636719
0.0129722
0.018646
0.0233561
0.0272895
0.030635
0.0335495
0.0361507
0.0385142
0.0406692
0.042594
0.0442401
0.0455684
0.0465739
0.0473252
0.0478693
0.0481969
0.0483119
0.0481134
0.0474025
0.0460666
0.0441494
0.0415984
0.0380711
0.0331586
0.0267099
0.0186916
0.00928909
0.000887857
0.000590328
0.00621022
0.0128086
0.0185288
0.0232378
0.027156
0.0304783
0.0333622
0.0359384
0.0383006
0.0405101
0.0425505
0.0443309
0.0457976
0.046921
0.0477565
0.0483563
0.0487165
0.0488439
0.0486833
0.0480598
0.0468232
0.0450213
0.0425399
0.0389989
0.0340425
0.0275286
0.0194183
0.00970423
0.000923378
0.000591447
0.00624927
0.0128491
0.0184636
0.0231107
0.0270174
0.0302887
0.0331188
0.0356367
0.0379471
0.0401281
0.0422051
0.0440936
0.0456761
0.0469204
0.0478631
0.0485514
0.0490094
0.0492345
0.0491657
0.0486422
0.0475288
0.0458722
0.0435301
0.0400823
0.0351377
0.0285545
0.0202735
0.0101906
0.000966572
0.000591232
0.00629257
0.012898
0.0185096
0.0231391
0.0269171
0.0300851
0.0328462
0.0352794
0.037502
0.0396
0.0416204
0.0435239
0.0452124
0.0465881
0.0476504
0.0484484
0.0490474
0.0494252
0.0494977
0.0491097
0.048151
0.0466997
0.0445174
0.0412525
0.0363688
0.0297219
0.0211926
0.0107035
0.00101623
0.000589209
0.00628346
0.0128621
0.018469
0.0230907
0.0268576
0.0299474
0.0325686
0.0348845
0.0369961
0.0389837
0.0408985
0.0427418
0.0444549
0.0459384
0.047122
0.0480474
0.0488165
0.0493882
0.0496327
0.0494058
0.0486245
0.047409
0.0454587
0.0424063
0.0376633
0.0309774
0.0221507
0.0112128
0.00106814
0.000589049
0.00626021
0.0128122
0.0184017
0.0229848
0.026715
0.0297887
0.0323008
0.0344434
0.0364459
0.0383196
0.0401171
0.041862
0.0435298
0.045053
0.0463261
0.0473925
0.0483314
0.0491379
0.0495984
0.0495391
0.0489164
0.0479062
0.0462273
0.043408
0.038911
0.0322312
0.0231277
0.0117204
0.00111893
0.000589098
0.00623487
0.0127778
0.0183741
0.0229189
0.0265542
0.0295319
0.0319683
0.0340099
0.0358592
0.0376289
0.0393142
0.040956
0.0425511
0.0440583
0.0454161
0.0465856
0.0476742
0.0487023
0.0494153
0.0495565
0.0490619
0.0481657
0.0466616
0.0441085
0.0399566
0.0333798
0.0240975
0.0122135
0.0011674
0.00059127
0.00621456
0.012819
0.0184547
0.022945
0.0264301
0.0292472
0.0315731
0.0335676
0.0353012
0.0369285
0.0385066
0.0400513
0.0415844
0.0430723
0.0444807
0.045735
0.0469583
0.0481358
0.0490741
0.0494359
0.0490775
0.0481898
0.0467576
0.0444324
0.040626
0.0343179
0.0250133
0.0126719
0.00121303
0.000594185
0.00625844
0.012953
0.0186497
0.023005
0.0263111
0.0289674
0.0311731
0.0330695
0.0347242
0.0362248
0.0376966
0.0391549
0.0406374
0.0421233
0.0435799
0.0448803
0.0461847
0.0474688
0.0485904
0.0491461
0.0488982
0.0479857
0.0465226
0.0443214
0.040793
0.0348807
0.0257061
0.0130567
0.00125525
0.000595863
0.0063246
0.0131262
0.0186792
0.0228361
0.0260261
0.0285734
0.0307083
0.0325402
0.0341211
0.0355158
0.0368736
0.0382575
0.0396961
0.0411941
0.0426944
0.0440562
0.0453689
0.0467074
0.047966
0.0486445
0.0484401
0.0474875
0.0459604
0.0437903
0.040473
0.0350211
0.0260486
0.0130937
0.00126843
0.000593136
0.00632564
0.0131194
0.0185057
0.0225429
0.0256763
0.0281855
0.0302692
0.0320198
0.0334819
0.034772
0.0360184
0.0373321
0.0387322
0.0402371
0.0417661
0.0432138
0.0445329
0.0458967
0.0472157
0.0479695
0.0477401
0.0467656
0.0451735
0.0429426
0.0398077
0.0346091
0.0259169
0.0131109
0.00126257
0.000590478
0.0062871
0.0129299
0.0182169
0.0221849
0.0252968
0.0278685
0.0299772
0.0316
0.0328299
0.0339521
0.0350914
0.0363358
0.0377069
0.0392135
0.0407713
0.0422779
0.0436273
0.0450192
0.0463632
0.0470937
0.0468612
0.0458392
0.0441019
0.0417897
0.0387095
0.033914
0.0256456
0.0131148
0.0012465
0.000587157
0.00623309
0.0126873
0.0179664
0.0220113
0.0251599
0.0277311
0.0297673
0.0312284
0.032269
0.0330804
0.0340558
0.0352374
0.0365943
0.0381074
0.0396879
0.0412254
0.0426266
0.0440665
0.0453937
0.0460017
0.0457455
0.0447394
0.0430343
0.0406714
0.0375768
0.0330626
0.02523
0.0128871
0.00124895
0.000598449
0.0061656
0.0125497
0.0178005
0.0218688
0.0249603
0.0273192
0.0291193
0.0304945
0.0315605
0.0323271
0.0329707
0.0340547
0.0354008
0.0369365
0.0385584
0.040118
0.0415145
0.0429944
0.0442868
0.0447738
0.0445233
0.0435587
0.0418904
0.039521
0.0364063
0.0320971
0.0247544
0.0127639
0.00123663
0.00060241
0.00607477
0.0123362
0.0174482
0.0213714
0.0243104
0.0265492
0.0282805
0.0296293
0.0306712
0.0314633
0.032043
0.0328554
0.0341543
0.0357332
0.0374547
0.0391119
0.0405541
0.0419976
0.0430321
0.043431
0.0431782
0.0422416
0.0406213
0.0382822
0.035161
0.0308896
0.0240038
0.0127813
0.00122586
0.000597237
0.00604953
0.0120967
0.0169532
0.0207134
0.0235575
0.0257304
0.0274117
0.0287226
0.029734
0.0304965
0.0310655
0.0316693
0.0328777
0.0345084
0.0363765
0.0382502
0.0398587
0.0411361
0.0418237
0.0420738
0.0417607
0.0408187
0.0392305
0.0369386
0.0338391
0.0295968
0.0230988
0.0126597
0.00121652
0.00058977
0.00596582
0.0117905
0.0164352
0.020048
0.0227986
0.0249022
0.0265273
0.0277905
0.0287627
0.0294904
0.0300174
0.0304953
0.0315959
0.0332557
0.0352408
0.0372871
0.0390191
0.0402275
0.040811
0.0408155
0.0403876
0.0393961
0.0377997
0.0355425
0.0324888
0.0283371
0.0220847
0.0121676
0.00119726
0.000581222
0.00578223
0.0113926
0.0158651
0.0193479
0.0220157
0.0240556
0.0256264
0.0268409
0.0277713
0.0284639
0.0289557
0.0293416
0.0303183
0.0319734
0.0340216
0.0361473
0.0379558
0.039188
0.0398948
0.0398383
0.0392462
0.0381711
0.0365122
0.0342309
0.0311862
0.0270914
0.0210081
0.0115703
0.00116833
0.000567232
0.00553567
0.0109189
0.0152384
0.0186102
0.0212064
0.023191
0.0247134
0.0258831
0.0267735
0.0274336
0.0278987
0.028223
0.0290426
0.0306603
0.0327238
0.0348198
0.0366676
0.0379552
0.0387765
0.0389903
0.0384367
0.0372904
0.0355463
0.033182
0.0300888
0.0259712
0.019965
0.0109332
0.00114447
0.000551078
0.005269
0.0104119
0.0145812
0.0178502
0.0203802
0.0223151
0.0237942
0.0249232
0.0257775
0.0264103
0.0268598
0.0271514
0.0277675
0.0293031
0.0313246
0.033332
0.0351612
0.036514
0.0374272
0.0378259
0.0375789
0.0365874
0.0348655
0.0324464
0.0292709
0.0250487
0.0190167
0.0103566
0.00111587
0.000533494
0.00500097
0.00990253
0.0139192
0.0170855
0.0195481
0.0214342
0.0228722
0.0239633
0.0247837
0.0253918
0.0258302
0.0261033
0.0265042
0.0279035
0.029819
0.0317747
0.0334807
0.0348627
0.0358574
0.0363423
0.0362682
0.0355445
0.0340619
0.0317664
0.0285816
0.0242584
0.0181821
0.00979583
0.00107488
0.000515501
0.00474478
0.00941238
0.0132729
0.016331
0.0187199
0.0205531
0.0219489
0.0230032
0.0237912
0.0243742
0.0247995
0.0250658
0.0253032
0.026499
0.028269
0.0301327
0.0316982
0.0330499
0.0340905
0.0346586
0.0346671
0.0340895
0.0328671
0.0308101
0.0277774
0.0235092
0.0175089
0.00934445
0.00101882
0.000497662
0.00450935
0.008956
0.0126568
0.0155984
0.0179035
0.0196757
0.0210249
0.0220419
0.0227993
0.0233579
0.0237696
0.0240479
0.0242461
0.0251121
0.0267685
0.0284392
0.0298759
0.0311543
0.0321961
0.0328362
0.0329474
0.032478
0.0314272
0.0295731
0.0267674
0.0227113
0.0169329
0.00904664
0.00097955
0.000480724
0.00430233
0.00854344
0.0120812
0.0148961
0.0171046
0.0188042
0.0200991
0.021076
0.0218047
0.0223425
0.0227396
0.0230195
0.0232277
0.0238453
0.0252847
0.0267485
0.0280575
0.0292425
0.03025
0.0309332
0.0311486
0.0308038
0.0299009
0.0282157
0.0256304
0.0218121
0.0163223
0.0087673
0.000959976
0.000465299
0.00412712
0.00817921
0.0115514
0.0142291
0.0163265
0.0179395
0.0191691
0.0200997
0.0207982
0.0213171
0.0217009
0.0219701
0.0221533
0.0226348
0.0237937
0.0250791
0.0262637
0.0273521
0.0283077
0.0290061
0.0293056
0.0290893
0.0283013
0.0267976
0.0243849
0.0207824
0.0155754
0.0083849
0.000939329
0.000451821
0.00398278
0.00786198
0.0110667
0.0135984
0.0155694
0.0170808
0.0182319
0.019106
0.0197685
0.0202667
0.0206369
0.0208908
0.0210294
0.02138
0.0223112
0.023432
0.0245049
0.0255031
0.0264016
0.0270984
0.0274599
0.0273541
0.0266698
0.0253239
0.0230558
0.0196406
0.0147033
0.00791007
0.000911379
0.000440345
0.003864
0.00758523
0.0106218
0.0129992
0.0148317
0.0162267
0.0172858
0.0180914
0.0187092
0.0191806
0.0195342
0.0197695
0.0198613
0.0200929
0.0208484
0.0218185
0.0227822
0.023699
0.0245441
0.0252325
0.0256403
0.0256258
0.0250536
0.0238163
0.0216972
0.0184538
0.0137782
0.0073998
0.000878213
0.000430686
0.00376505
0.00733969
0.0102086
0.0124255
0.0141094
0.015376
0.0163306
0.01706
0.0176213
0.0180589
0.0183898
0.0186018
0.0186479
0.0187828
0.0193904
0.020232
0.0210953
0.0219371
0.022734
0.0234133
0.0238597
0.0239273
0.0234641
0.0223302
0.0203573
0.0172848
0.0128677
0.00690049
0.000842414
0.000422907
0.00368243
0.0071165
0.00981883
0.0118705
0.0134002
0.0145299
0.0153717
0.0160158
0.0165184
0.0169107
0.0172133
0.0174002
0.0174069
0.0174531
0.0179263
0.0186567
0.0194352
0.0202125
0.0209676
0.0216391
0.0221213
0.0222682
0.0219153
0.0208988
0.019072
0.0161796
0.0120203
0.00644407
0.000806623
0.000417106
0.00361249
0.00690758
0.00944409
0.011328
0.0127
0.0136898
0.0144227
0.014976
0.0154103
0.0157556
0.0160227
0.0161799
0.0161497
0.0161221
0.0164734
0.0170985
0.0178064
0.0185294
0.0192487
0.0199134
0.0204292
0.0206544
0.0204158
0.0195365
0.0178598
0.015163
0.0112598
0.00604386
0.000772728
0.000413065
0.00354574
0.00670257
0.00907546
0.0107932
0.0120066
0.0128681
0.0134914
0.0139542
0.0143178
0.0146138
0.0148414
0.0149649
0.0148925
0.0147964
0.0150497
0.0155876
0.0162301
0.0169048
0.0175921
0.0182488
0.0187933
0.0190941
0.0189709
0.0182413
0.0167294
0.0142388
0.0105888
0.00569865
0.000741586
0.000410091
0.0034714
0.00649123
0.00870605
0.0102613
0.0113258
0.0120693
0.012588
0.0129647
0.0132604
0.0135054
0.0136945
0.0137809
0.0136657
0.0135159
0.0136888
0.0141474
0.0147321
0.0153631
0.0160196
0.0166644
0.0172286
0.0175951
0.0175859
0.0170089
0.0156744
0.0133971
0.00999481
0.00539639
0.000713237
0.000407533
0.0033855
0.00626902
0.0083309
0.00972942
0.0106645
0.0112967
0.01172
0.0120186
0.012253
0.0124515
0.0126043
0.0126554
0.0124972
0.012304
0.0124133
0.0128098
0.0133399
0.0139274
0.0145525
0.0151799
0.0157515
0.0161676
0.016265
0.0158322
0.0146825
0.0126215
0.00946148
0.0051277
0.000687236
0.000404916
0.0032874
0.00603429
0.00794768
0.00920164
0.0100232
0.0105535
0.0108919
0.0111223
0.011305
0.0114652
0.011588
0.0116062
0.0114178
0.0111968
0.0112495
0.0115867
0.0120689
0.012615
0.0132063
0.0138103
0.0143766
0.0148231
0.0150086
0.0147041
0.0137406
0.0118948
0.00897405
0.00488763
0.000663684
0.000402
0.00318136
0.00579098
0.00755764
0.00868175
0.00940125
0.00984083
0.0101054
0.0102792
0.0104217
0.0105538
0.0106534
0.0106419
0.0104351
0.0102017
0.010215
0.0104992
0.0109283
0.0114319
0.0119872
0.0125623
0.0131123
0.0135699
0.0138173
0.0136207
0.0128361
0.0112
0.00851797
0.00467038
0.000642306
0.000398921
0.003075
0.00554295
0.00716333
0.0081743
0.00879819
0.00915783
0.00935958
0.00948917
0.00960497
0.00972102
0.0098058
0.00977615
0.00956439
0.00933169
0.00931463
0.00954262
0.00991825
0.0103761
0.0108924
0.0114343
0.0119601
0.0124118
0.0126925
0.012585
0.0119559
0.0105235
0.00807855
0.00446952
0.000623425
0.00039609
0.00297131
0.00528944
0.00676918
0.0076778
0.00821336
0.00850209
0.00865139
0.00874937
0.00885223
0.00896504
0.00904539
0.00900836
0.00880528
0.00858319
0.00854177
0.00870892
0.00902553
0.00943679
0.00991113
0.0104175
0.0109151
0.01135
0.0116404
0.0116012
0.0110926
0.00984976
0.00763746
0.00427053
0.000606133
0.000393554
0.00287226
0.0050325
0.00637847
0.00719075
0.0076448
0.00787007
0.00797664
0.00805567
0.00815949
0.0082817
0.00836896
0.00833836
0.00816075
0.00795175
0.00787858
0.00798401
0.00823894
0.00859999
0.00902921
0.00949903
0.00996781
0.0103817
0.0106674
0.0106762
0.0102441
0.00916628
0.00717585
0.00406059
0.000590198
0.000391549
0.0027797
0.0047785
0.00599427
0.00671203
0.00708965
0.00725766
0.0073309
0.00740374
0.00752222
0.00766579
0.00777157
0.00775769
0.00761218
0.00742933
0.00732874
0.00735976
0.007544
0.00784898
0.00823042
0.0086646
0.00910596
0.00949991
0.00977627
0.00981396
0.00941874
0.00847016
0.00667741
0.00383406
0.000573967
0.000389854
0.00268213
0.00451556
0.00561398
0.00623914
0.0065446
0.00666077
0.00670998
0.00678894
0.00693438
0.00710984
0.00724335
0.00725948
0.00715686
0.00699999
0.00686787
0.00682608
0.00692949
0.00716914
0.0075024
0.00790045
0.00831581
0.00869355
0.00896324
0.00901473
0.00863669
0.00777099
0.00611819
0.00348883
0.000557135
0.000388273
0.0025785
0.00424824
0.00523484
0.00577057
0.00600625
0.00607621
0.00611075
0.00620672
0.00638843
0.00660298
0.00677265
0.00683202
0.00677596
0.00664492
0.00648789
0.00637299
0.00638658
0.00655248
0.00683328
0.00719317
0.00758382
0.00794958
0.0082185
0.00828041
0.00791725
0.00709399
0.00550768
0.00302215
0.000537775
0.000386693
0.00246867
0.00397877
0.00485475
0.00530551
0.0054725
0.00550297
0.00553248
0.00565502
0.00588058
0.00614153
0.0063547
0.00646387
0.00645643
0.00634813
0.0061699
0.0059891
0.00590938
0.0059927
0.00621553
0.00653307
0.00689875
0.00725536
0.00752866
0.0076094
0.00727192
0.00648127
0.00492253
0.00254807
0.000514017
0.000384409
0.00235238
0.00370838
0.00447336
0.00484151
0.0049437
0.00494202
0.00497614
0.00513368
0.00540893
0.00571906
0.00598114
0.00614407
0.00618193
0.00609394
0.00590158
0.00566536
0.00549503
0.00548759
0.00564333
0.00591315
0.00625244
0.00660136
0.00688365
0.00698997
0.00669466
0.00596977
0.00445024
0.0021941
0.000487271
0.000381668
0.00222984
0.00343754
0.00409367
0.00437728
0.00442068
0.00439575
0.00444409
0.00464309
0.0049688
0.00533043
0.00564532
0.00586211
0.00593952
0.00587019
0.0056709
0.00539265
0.0051409
0.00503598
0.00511494
0.00533361
0.00564163
0.00598175
0.00627876
0.00642123
0.00619036
0.00555557
0.00412201
0.00198947
0.000459758
0.000377504
0.00210775
0.00316731
0.00371777
0.00391571
0.00390776
0.0038696
0.0039419
0.0041874
0.00456354
0.00497555
0.00534598
0.00560923
0.00571882
0.00566708
0.00546771
0.00516258
0.00484497
0.00464287
0.00463377
0.00479375
0.00506476
0.00539432
0.00570906
0.00589672
0.00574265
0.00521267
0.00391272
0.0019153
0.000433999
0.000372118
0.00197093
0.00289563
0.00334675
0.00346117
0.00341159
0.00337121
0.00347569
0.00376936
0.00419853
0.00465808
0.00507992
0.00537808
0.00551215
0.00547744
0.0052855
0.00496924
0.00460493
0.00431437
0.0042069
0.00429718
0.00452653
0.00483649
0.00516631
0.00540487
0.00533092
0.0049136
0.0037723
0.00191106
0.000412098
0.000366156
0.00181824
0.00261658
0.00298081
0.0030207
0.00294024
0.00290861
0.00305144
0.00339601
0.00387329
0.0043856
0.00484352
0.00516429
0.00531639
0.00529793
0.00512007
0.00480626
0.00441487
0.0040516
0.00384196
0.00384524
0.0040246
0.00431057
0.00464709
0.00493107
0.00495082
0.00464715
0.00367028
0.00196854
0.000393827
0.000359036
0.00165013
0.00233505
0.00262273
0.00260071
0.00250086
0.00249005
0.00267552
0.00307806
0.00359697
0.00415821
0.00463556
0.0049679
0.00513339
0.00513082
0.00496936
0.00466684
0.00426557
0.00385013
0.00354417
0.00344721
0.00356102
0.00381745
0.0041489
0.00447206
0.00459059
0.00439912
0.00358215
0.00202543
0.000381347
0.000350695
0.00148826
0.00206057
0.00227917
0.00220852
0.00210228
0.00211918
0.00235847
0.00281423
0.00338421
0.00397087
0.00445434
0.00479028
0.00496492
0.0049768
0.00483272
0.00454375
0.0041466
0.00369961
0.00331248
0.0031093
0.00314075
0.0033595
0.00368139
0.00402691
0.00424204
0.00415999
0.00348917
0.00206365
0.000372976
0.000341269
0.00133707
0.00180019
0.00194965
0.0018428
0.00174363
0.00179854
0.00210597
0.00260582
0.00322993
0.00382022
0.00429788
0.00463112
0.00481063
0.00483435
0.0047069
0.00443589
0.00404408
0.00358624
0.00313802
0.00283293
0.00276974
0.0029364
0.0032458
0.00360514
0.0038987
0.00392256
0.00338737
0.00207888
0.000367017
0.000330687
0.00118511
0.00155097
0.0016325
0.00150908
0.00142473
0.00153023
0.00190522
0.00246082
0.00311033
0.00369392
0.00415949
0.00448617
0.00466693
0.00469962
0.00458717
0.00433404
0.00395539
0.00348819
0.00300546
0.00261176
0.00244797
0.00255117
0.0028418
0.00321213
0.0035546
0.00367766
0.00327193
0.002074
0.000362468
0.000318922
0.00103044
0.00131792
0.00134003
0.00120656
0.00114511
0.0013144
0.00173642
0.00235806
0.00301042
0.00358263
0.00403564
0.00435613
0.00453694
0.0045759
0.00447485
0.00423622
0.00387016
0.00339956
0.00289424
0.00243302
0.00217099
0.00220215
0.00246613
0.0028441
0.00322104
0.00340332
0.00312894
0.00205128
0.000358926
0.000305872
0.000871063
0.00110096
0.00107727
0.0009419
0.000908001
0.0011355
0.0015922
0.00225991
0.00291834
0.00348341
0.00393114
0.00424892
0.00443023
0.00447302
0.00437833
0.00414747
0.00378798
0.0033167
0.0027798
0.00228129
0.00193138
0.00188623
0.00211454
0.00248651
0.00288805
0.00310469
0.00296126
0.00201
0.000355775
0.000291053
0.000711705
0.000899681
0.000847744
0.000722135
0.000712663
0.000967047
0.00144626
0.00215844
0.00282687
0.00339658
0.00384661
0.00416656
0.00434995
0.00439431
0.00430093
0.00407156
0.00371121
0.00322922
0.00266071
0.00213095
0.00171777
0.00160311
0.00179217
0.0021456
0.00255352
0.00280296
0.00276605
0.00193492
0.000353211
0.00027506
0.00055642
0.000712669
0.000655444
0.000541479
0.000552368
0.000789022
0.00128549
0.00204771
0.00273821
0.00332669
0.00379079
0.00411962
0.00430746
0.00435201
0.00425447
0.00401644
0.00364429
0.00314184
0.00253688
0.00195628
0.00151789
0.00134968
0.00150718
0.00183223
0.00221898
0.0025122
0.00254218
0.00184011
0.000349938
0.000256587
0.000419974
0.000546426
0.000493969
0.000392425
0.000416332
0.000612306
0.00111541
0.00192697
0.00265436
0.00327265
0.00375713
0.00409816
0.0042923
0.00433666
0.00423341
0.00398358
0.00359117
0.003063
0.00239813
0.00175397
0.00131713
0.00111838
0.00125708
0.00155966
0.00191309
0.00220636
0.00226834
0.00168124
0.000344734
0.000236467
0.00032583
0.000405366
0.000351476
0.000282729
0.000310743
0.000461047
0.000912508
0.00178275
0.00254598
0.00319332
0.00370424
0.00406314
0.00426657
0.00431351
0.00420697
0.0039478
0.00353659
0.00297577
0.00225173
0.00152979
0.00111004
0.00090351
0.00103571
0.00131797
0.00164961
0.00191979
0.00187689
0.00139267
0.000336394
0.000216832
0.000266661
0.000294574
0.000263293
0.000221109
0.000242403
0.000357687
0.000739273
0.00165137
0.00243751
0.00310168
0.00362562
0.00399169
0.00420054
0.00425055
0.00414219
0.00387532
0.00344821
0.00285743
0.00208561
0.00129025
0.000902692
0.000713904
0.000847025
0.00110156
0.00139507
0.00157948
0.00143387
0.0010518
0.000323375
0.00019682
0.000222114
0.000232279
0.000217878
0.000187098
0.0002024
0.000296623
0.000649488
0.0015799
0.0023809
0.00304089
0.00355589
0.00391457
0.00411957
0.00416803
0.00406104
0.00379518
0.00336545
0.0027624
0.00196772
0.00109269
0.00072483
0.000559316
0.000692859
0.000909264
0.00112599
0.00120076
0.00104128
0.000758782
0.000304647
0.000179021
0.000195957
0.000200187
0.000191111
0.000166832
0.00018445
0.00026551
0.000637107
0.00159181
0.002384
0.00302181
0.0035138
0.00385542
0.00404964
0.00409527
0.00399142
0.00373311
0.00331354
0.00272139
0.00193838
0.000988695
0.000608915
0.00044538
0.000551531
0.00072201
0.000866045
0.000878186
0.000744202
0.000555776
0.000280509
0.000164354
0.000178907
0.000178066
0.000170947
0.000150818
0.000173915
0.000264024
0.000743023
0.00166524
0.00242515
0.00303544
0.00349577
0.00381213
0.00398837
0.00402807
0.00392853
0.00368359
0.00328579
0.00272427
0.00199094
0.00101959
0.000533085
0.000364122
0.000427593
0.000555511
0.000640917
0.000636351
0.0005382
0.000418592
0.000255071
0.000149553
0.000159986
0.000156354
0.000144966
0.000128384
0.000165092
0.000323235
0.000926612
0.00177781
0.00248591
0.0030658
0.00349138
0.00377928
0.00393658
0.00396984
0.00387634
0.00364957
0.00328223
0.00276281
0.00206494
0.001151
0.00050008
0.000315095
0.000315524
0.000423124
0.000471315
0.000463568
0.000396991
0.000319711
0.000229899
0.000133713
0.000137033
0.000125492
0.000109396
0.000116474
0.000191209
0.000453312
0.00116679
0.00191161
0.0025507
0.0030873
0.00348465
0.00374868
0.00389157
0.00392145
0.00383829
0.00363653
0.00330966
0.00284428
0.00221133
0.00139068
0.000559981
0.000306797
0.000235938
0.000306546
0.000361389
0.000358924
0.000311438
0.000256212
0.000209856
0.000116942
0.000108454
9.24836e-05
9.51566e-05
0.000140016
0.000264842
0.000716684
0.00138559
0.00203956
0.00261652
0.00310145
0.00347303
0.00371878
0.00385175
0.00388061
0.0038114
0.0036377
0.00335289
0.00294241
0.00237516
0.00163775
0.000762818
0.000342357
0.000215209
0.000210806
0.000264258
0.000287698
0.000270096
0.000224795
0.000194781
0.000100968
8.46468e-05
8.94532e-05
0.000126268
0.000193533
0.000449884
0.000999355
0.00158569
0.00216412
0.00267935
0.00311875
0.00346597
0.00369651
0.00382072
0.00385114
0.00379482
0.00364677
0.00339665
0.00302586
0.00250992
0.00184808
0.00109158
0.000454396
0.000248915
0.000174112
0.000179387
0.000210799
0.000230188
0.000211273
0.000181775
8.92547e-05
9.04897e-05
0.000129991
0.000180136
0.000329032
0.000787284
0.00128061
0.00179017
0.00229012
0.00274474
0.00314302
0.00346349
0.00368234
0.00380078
0.00383454
0.00378894
0.00365925
0.00343637
0.00310213
0.00265542
0.00212195
0.00147925
0.000720856
0.000328226
0.000213314
0.000157293
0.000151317
0.000172186
0.000187247
0.000168528
8.44891e-05
0.000127481
0.00020552
0.000363067
0.000737
0.00115675
0.00158588
0.00202754
0.00243842
0.00282728
0.00317986
0.00346852
0.00367353
0.00379144
0.00383009
0.00379191
0.00367682
0.00348396
0.00320014
0.00285129
0.00242913
0.00188887
0.00122859
0.000528346
0.000288071
0.000213308
0.00015821
0.000133853
0.000146054
0.00015179
8.47788e-05
0.000220931
0.000515459
0.000885616
0.0012138
0.00154406
0.00189778
0.00226048
0.00260723
0.0029299
0.00323012
0.00348326
0.00367135
0.00378984
0.00383557
0.00380543
0.00370215
0.00353459
0.00331214
0.00304517
0.00270586
0.00226827
0.0017319
0.00111552
0.00053408