/*--------------------------------*- C++ -*----------------------------------*\
| =========                 |                                                 |
| \\      /  F ield         | OpenFOAM: The Open Source CFD Toolbox           |
|  \\    /   O peration     | Version:  v1606+                                |
|   \\  /    A nd           | Web:      www.OpenFOAM.com                      |
|    \\/     M anipulation  |                                                 |
\*---------------------------------------------------------------------------*/
FoamFile
{
    version     2.0;
    format      ascii;
    class       volScalarField;
    location    "0.8";
    object      nut.particles;
}
// * * * * * * * * * * * * * * * * * * * * * * * * * * * * * * * * * * * * * //

dimensions      [0 2 -1 0 0 0 0];

internalField   nonuniform List<scalar> 
6000
(
1.104e-05
9.87024e-06
9.75061e-06
1.0345e-05
1.1021e-05
1.16901e-05
1.27458e-05
1.3036e-05
1.20545e-05
1.07701e-05
1.00639e-05
9.69059e-06
9.38951e-06
8.93875e-06
8.78988e-06
8.61018e-06
9.03085e-06
9.22219e-06
1.00284e-05
1.06083e-05
1.07796e-05
1.17392e-05
1.25071e-05
1.23867e-05
1.14736e-05
1.08931e-05
1.03493e-05
9.78249e-06
9.88019e-06
1.09009e-05
8.54295e-06
7.91008e-06
7.12559e-06
6.20981e-06
5.19505e-06
4.49227e-06
4.18765e-06
4.05783e-06
4.01034e-06
3.92831e-06
3.85556e-06
3.79796e-06
3.7402e-06
3.70049e-06
3.6643e-06
3.69863e-06
3.7378e-06
3.74731e-06
3.79278e-06
3.82576e-06
3.90766e-06
3.99284e-06
4.02608e-06
4.1063e-06
4.45477e-06
5.18705e-06
6.18675e-06
7.0863e-06
7.86561e-06
8.52576e-06
7.93503e-05
0.000111802
0.00011012
5.0513e-05
1.46647e-05
9.64927e-06
7.04749e-06
5.03044e-06
4.3126e-06
4.20597e-06
4.33606e-06
4.36466e-06
4.22164e-06
4.0995e-06
4.02012e-06
3.95399e-06
4.04584e-06
4.28935e-06
4.30684e-06
4.25881e-06
4.19884e-06
4.33692e-06
5.05923e-06
7.04308e-06
9.72683e-06
1.50405e-05
6.7159e-05
0.00013799
0.000139817
9.11274e-05
2.54501e-05
2.55478e-05
0.000118273
0.000265286
0.000261357
0.000257118
2.03393e-05
8.77678e-06
5.39047e-06
4.47792e-06
4.39341e-06
4.4475e-06
4.50599e-06
4.84765e-06
5.18625e-06
4.95081e-06
4.54598e-06
4.41847e-06
4.34652e-06
4.32358e-06
4.47307e-06
5.48661e-06
8.8703e-06
2.49017e-05
0.000328905
0.000333226
0.000337124
0.000126784
2.65055e-05
2.58445e-05
8.03714e-06
7.14811e-06
1.00823e-05
2.19254e-05
0.000270347
0.000267578
0.000260343
8.41717e-05
1.00293e-05
6.84152e-06
6.30879e-06
6.82352e-06
8.06749e-06
1.0556e-05
1.22253e-05
1.13992e-05
9.00427e-06
7.26232e-06
6.48987e-06
6.30201e-06
6.96135e-06
1.03623e-05
0.000113148
0.000332003
0.000339256
0.000341869
2.09862e-05
9.80686e-06
7.19369e-06
7.89687e-06
3.16595e-06
2.78634e-06
3.23628e-06
4.46945e-06
1.068e-05
0.00014551
0.000274297
0.000265237
0.000211364
1.48971e-05
1.22438e-05
1.36988e-05
9.82361e-05
0.00088232
0.000884607
0.000882673
0.000625772
2.22657e-05
1.26672e-05
1.22085e-05
1.5224e-05
0.000310209
0.000336746
0.000345582
0.000107828
1.00707e-05
4.29832e-06
3.13183e-06
2.67516e-06
3.03777e-06
2.64957e-06
2.43303e-06
2.52396e-06
2.74798e-06
3.29869e-06
5.6552e-06
2.10166e-05
0.00025302
0.00052913
0.000521937
0.000408027
0.000880805
0.000887323
0.000889332
0.000888628
0.000889172
0.000886322
0.000885106
0.000741722
0.000418764
0.000517187
0.000524062
0.000196718
1.95153e-05
5.36191e-06
3.21526e-06
2.69678e-06
2.46162e-06
2.32627e-06
2.55287e-06
3.4514e-06
2.59877e-06
2.95382e-06
3.13576e-06
3.13503e-06
3.64036e-06
4.28839e-06
7.59171e-06
1.78653e-05
0.000142396
0.000891868
0.000889498
0.000892982
0.00089367
0.000897999
0.000895012
0.000893861
0.000887055
0.000885061
0.000882804
9.51874e-05
1.60195e-05
6.96288e-06
3.94169e-06
3.46981e-06
3.0494e-06
3.09454e-06
2.91506e-06
2.56068e-06
3.36151e-06
6.07376e-06
3.48382e-06
4.30501e-06
4.62106e-06
4.34998e-06
3.67199e-06
2.97192e-06
2.59367e-06
3.44414e-06
9.22398e-06
0.000888058
0.000893439
0.000892654
0.000150012
2.30048e-05
2.24897e-05
0.000224774
0.000888373
0.000882698
0.000878597
8.34318e-06
3.14081e-06
2.35099e-06
2.69561e-06
3.42961e-06
4.21021e-06
4.56035e-06
4.32596e-06
3.55518e-06
6.00486e-06
1.18771e-05
5.34638e-06
5.81952e-06
6.12595e-06
6.17408e-06
5.1855e-06
3.32364e-06
2.20894e-06
1.92264e-06
2.76723e-06
1.07158e-05
0.000886872
1.50844e-05
5.64911e-06
4.31464e-06
4.16579e-06
5.20492e-06
1.30836e-05
0.00087996
1.25419e-05
2.70123e-06
1.78791e-06
1.97992e-06
2.9096e-06
4.76365e-06
6.06313e-06
6.2209e-06
6.11856e-06
5.6066e-06
2.19966e-05
0.00254622
1.0488e-05
7.53536e-06
6.90538e-06
7.49472e-06
7.45427e-06
4.23565e-06
2.20257e-06
1.87718e-06
1.9678e-06
4.19207e-06
1.45449e-05
3.39694e-06
2.62327e-06
2.85331e-06
2.7396e-06
2.61947e-06
3.20596e-06
1.24018e-05
7.08441e-06
2.21356e-06
1.78945e-06
2.025e-06
3.62724e-06
7.04256e-06
7.99024e-06
7.63382e-06
8.55724e-06
1.70431e-05
0.00394312
0.00854004
0.00260719
1.91481e-05
7.92343e-06
7.71384e-06
8.34697e-06
4.78683e-06
2.24009e-06
1.79618e-06
1.88719e-06
2.82789e-06
4.62504e-06
2.01768e-06
2.5467e-06
3.72965e-06
3.82869e-06
3.52008e-06
2.7673e-06
4.16956e-06
5.67742e-06
2.36194e-06
1.82931e-06
2.27226e-06
4.52418e-06
8.39081e-06
9.35022e-06
9.83605e-06
0.000148286
0.00421096
0.0092524
0.00895873
0.00845831
0.00255416
1.7167e-05
7.76186e-06
7.3136e-06
4.45951e-06
2.32019e-06
1.74876e-06
1.88381e-06
2.44403e-06
2.83005e-06
1.91596e-06
2.41763e-06
5.07613e-06
6.78917e-06
6.41112e-06
3.4166e-06
3.59306e-06
5.02099e-06
2.59484e-06
2.05538e-06
2.83954e-06
5.36444e-06
7.96318e-06
1.04081e-05
0.000174419
0.00387999
0.00932214
0.00929938
0.00813078
0.00884706
0.00756041
0.00146875
9.0447e-06
5.927e-06
3.98683e-06
2.46198e-06
1.83676e-06
1.89034e-06
2.3087e-06
2.41274e-06
1.78055e-06
1.78683e-06
4.71846e-06
1.03415e-05
9.94502e-06
6.38675e-06
3.8795e-06
4.84236e-06
2.90271e-06
2.59183e-06
4.05592e-06
6.44743e-06
7.25097e-06
1.72151e-05
0.00200086
0.00848981
0.00997004
0.00891547
0.00588371
0.00885363
0.00884166
0.00555987
0.000421299
6.20187e-06
4.8677e-06
2.81732e-06
1.82662e-06
1.69407e-06
2.1105e-06
1.97617e-06
1.41074e-06
1.32618e-06
2.5164e-06
1.045e-05
1.27447e-05
9.92495e-06
4.1895e-06
4.47595e-06
3.08518e-06
3.30576e-06
6.19082e-06
7.98791e-06
7.28692e-06
0.000135237
0.00576325
0.0100228
0.00994904
0.00785087
0.00154287
0.00881791
0.00885787
0.00862722
0.0036231
0.000192782
8.92332e-06
4.17901e-06
1.53774e-06
1.38875e-06
1.76999e-06
1.63017e-06
1.29451e-06
1.22582e-06
1.25781e-06
3.44781e-06
1.80081e-05
1.08084e-05
4.01222e-06
3.42726e-06
3.01141e-06
3.53631e-06
7.76454e-06
9.00831e-06
7.7816e-06
0.000541292
0.00998166
0.00996634
0.0100044
0.00325787
1.20729e-05
0.00279555
0.00881349
0.00863092
0.00599098
0.00553716
0.00290565
8.99187e-06
1.27602e-06
1.14255e-06
1.47279e-06
1.40236e-06
1.17004e-06
1.14128e-06
1.18772e-06
1.65459e-06
2.852e-06
6.92664e-06
3.36686e-06
2.41226e-06
2.65362e-06
2.89311e-06
7.09279e-06
8.83534e-06
8.20411e-06
0.00108538
0.00993751
0.0100269
0.00399164
1.044e-05
2.87217e-06
3.77707e-06
0.00163022
0.00400689
0.00301814
0.000905063
6.2204e-05
1.79213e-05
1.68663e-06
1.26412e-06
1.55403e-06
1.39938e-06
1.34616e-06
1.52622e-06
1.90976e-06
1.67803e-06
1.25892e-06
4.03086e-06
3.24265e-06
1.97712e-06
2.14877e-06
1.99462e-06
4.60128e-06
8.93236e-06
9.19401e-06
0.00146079
0.0100423
0.00986059
1.22639e-05
5.34613e-06
1.4995e-06
1.1879e-06
3.78291e-06
1.30612e-05
1.29809e-05
3.85629e-06
3.57946e-06
1.16292e-05
1.6698e-05
6.65665e-06
6.94559e-06
4.88088e-06
4.00216e-06
4.2125e-06
3.18787e-06
1.6108e-06
1.13276e-06
3.18418e-06
4.49502e-06
1.6719e-06
1.80828e-06
1.64169e-06
2.64076e-06
3.49571e-05
0.000486792
0.00311602
0.00621122
0.00370916
6.69129e-06
4.75636e-06
1.77932e-06
1.1525e-06
1.53825e-06
3.08497e-06
2.78871e-06
1.29139e-06
1.48772e-06
3.26926e-06
1.68752e-05
1.99587e-05
2.05823e-05
1.99739e-05
1.19532e-05
5.79643e-06
2.31164e-06
1.22691e-06
1.1245e-06
2.72653e-06
7.21996e-06
1.69036e-06
1.66142e-06
1.59486e-06
2.74715e-06
1.47803e-05
0.00198669
0.00395682
0.00395659
1.45437e-05
5.16679e-06
5.94615e-06
9.53882e-06
2.50239e-06
2.47453e-06
1.8875e-06
1.79256e-06
1.91286e-06
1.908e-06
2.17225e-06
5.25242e-06
1.01048e-05
6.68905e-06
4.64436e-06
3.5068e-06
2.12672e-06
1.24929e-06
1.10878e-06
1.1263e-06
2.14558e-06
8.53009e-06
3.00084e-06
2.13883e-06
2.32314e-06
5.15377e-06
6.30095e-06
1.25555e-05
0.000851617
2.32463e-05
6.53044e-06
4.42456e-06
6.65437e-06
0.0776492
0.00903574
0.000122575
5.51417e-06
3.85347e-06
3.58591e-06
3.24933e-06
2.52948e-06
2.00638e-06
1.69808e-06
1.43759e-06
1.26858e-06
1.13346e-06
1.0259e-06
9.94567e-07
1.08013e-06
1.15372e-06
1.77773e-06
7.39814e-06
6.56562e-06
3.9659e-06
4.7784e-06
7.22088e-06
2.38981e-06
3.3665e-06
8.07702e-06
7.00102e-06
4.41244e-06
4.14204e-06
6.43254e-06
0.0782941
0.0780319
0.0592196
0.0159703
0.00217696
0.000109738
6.17068e-06
4.24074e-06
2.7764e-06
1.8542e-06
1.25678e-06
1.03618e-06
9.17823e-07
8.93583e-07
9.68187e-07
1.06684e-06
1.17055e-06
1.56746e-06
4.05787e-06
5.37089e-06
4.53314e-06
4.83751e-06
3.06946e-06
1.15175e-06
1.71733e-06
4.33645e-06
4.85274e-06
3.9809e-06
3.79409e-06
6.11486e-06
0.0783067
0.0782962
0.0781821
0.077889
0.0559471
0.0235724
0.00372562
0.000138838
5.42182e-06
3.16388e-06
1.94519e-06
1.18845e-06
9.79294e-07
8.90465e-07
9.45334e-07
1.04947e-06
1.13154e-06
1.24336e-06
1.53075e-06
2.03209e-06
2.14566e-06
1.77015e-06
1.0426e-06
9.13489e-07
1.60318e-06
3.70555e-06
4.71518e-06
3.76099e-06
3.528e-06
5.64446e-06
0.0782716
0.0781978
0.0782857
0.078193
0.0781135
0.0763011
0.0482383
0.0179204
0.00136428
6.37e-06
3.35623e-06
1.87663e-06
1.13081e-06
9.02578e-07
9.14941e-07
1.00833e-06
1.01714e-06
9.94537e-07
9.45694e-07
9.43647e-07
9.55278e-07
8.49155e-07
7.83922e-07
1.04782e-06
2.27499e-06
3.50603e-06
5.21265e-06
4.23493e-06
3.33181e-06
5.33115e-06
0.00261526
0.0608152
0.0780012
0.0781414
0.0780755
0.0780254
0.0779262
0.0696847
0.0329409
0.00306536
6.63792e-06
2.84177e-06
1.28753e-06
9.3748e-07
8.61412e-07
9.18853e-07
8.92544e-07
8.90216e-07
8.9146e-07
8.75113e-07
8.57224e-07
8.15882e-07
8.48523e-07
1.8725e-06
3.34473e-06
4.72557e-06
6.06977e-06
5.21815e-06
3.99672e-06
5.93862e-06
0.000567051
0.000577579
0.00828738
0.0688407
0.0778187
0.0780066
0.078007
0.0779193
0.0767686
0.0423288
0.00278026
5.12387e-06
1.7898e-06
9.34615e-07
7.57471e-07
8.1325e-07
8.27387e-07
8.64435e-07
9.30127e-07
9.29108e-07
9.18128e-07
8.80967e-07
9.72146e-07
2.50359e-06
3.52862e-06
6.08227e-06
6.34528e-06
6.10918e-06
5.13389e-06
7.12299e-06
0.0026134
0.000400318
0.000400675
0.000495354
0.0038341
0.0758611
0.0778624
0.0778933
0.0778182
0.077569
0.0418263
0.000857818
2.92881e-06
9.62789e-07
6.96582e-07
7.09103e-07
7.63005e-07
8.72284e-07
9.57398e-07
9.96971e-07
9.90008e-07
9.60132e-07
1.04449e-06
2.0098e-06
3.40259e-06
6.21633e-06
6.49402e-06
6.81561e-06
6.23723e-06
8.26618e-06
0.0104637
0.00417123
0.00202293
0.000486781
0.000485361
0.000558603
0.036388
0.0776475
0.0778115
0.077778
0.0775732
0.0261239
8.66925e-06
2.17024e-06
1.03882e-06
6.42494e-07
6.81365e-07
8.28984e-07
9.61573e-07
1.05778e-06
1.07564e-06
1.04361e-06
1.10731e-06
1.79316e-06
3.2505e-06
5.8231e-06
6.83738e-06
6.97098e-06
6.72182e-06
8.97119e-06
0.0110599
0.0110415
0.0109056
0.00777759
0.00463523
0.000861814
0.000752414
0.0260058
0.0775263
0.0777641
0.0776959
0.076144
0.0127022
7.507e-06
2.71943e-06
9.20557e-07
7.04038e-07
7.68252e-07
8.9776e-07
1.05968e-06
1.1586e-06
1.1557e-06
1.24001e-06
1.77069e-06
2.92956e-06
5.27429e-06
7.2087e-06
7.10578e-06
6.757e-06
8.99767e-06
0.00967986
0.00960374
0.00946522
0.00945311
0.00930063
0.00653737
0.000635659
2.62339e-05
0.00989121
0.077401
0.0776629
0.0775718
0.0587269
0.00414605
6.46528e-06
2.5774e-06
1.15392e-06
1.19396e-06
1.11476e-06
1.08683e-06
1.23415e-06
1.27341e-06
1.39498e-06
1.75858e-06
2.60427e-06
4.75334e-06
7.49104e-06
7.26055e-06
6.78673e-06
8.76792e-06
0.00377406
0.00407855
0.00260456
0.00646465
0.0052219
0.0064547
0.00631973
1.09496e-05
1.07167e-05
0.012036
0.0773903
0.0775898
0.0770318
0.028271
0.000234879
6.23205e-06
3.09221e-06
3.18682e-06
2.46355e-06
1.70374e-06
1.46519e-06
1.43168e-06
1.47448e-06
1.74962e-06
2.46634e-06
4.28725e-06
7.10228e-06
7.36634e-06
6.86725e-06
8.77902e-06
0.00187656
0.00076375
0.000760232
0.000938649
0.000103714
2.21563e-05
1.85695e-05
8.20009e-06
7.14038e-06
0.000157144
0.0355493
0.0774329
0.0774258
0.0605178
0.00264765
1.02353e-05
8.91305e-06
7.83754e-06
6.04421e-06
3.50896e-06
2.12203e-06
1.69013e-06
1.54341e-06
1.66063e-06
2.14868e-06
3.65343e-06
5.63318e-06
7.16574e-06
6.83261e-06
8.92081e-06
0.00209473
0.000411433
0.000980314
0.000366168
8.36392e-06
4.89573e-06
4.80793e-06
6.034e-06
7.4241e-06
1.05483e-05
0.00643066
0.070754
0.0773515
0.0771734
0.00778616
1.18801e-05
1.39227e-05
1.22247e-05
1.08738e-05
6.77713e-06
3.09504e-06
1.88467e-06
1.57314e-06
1.54147e-06
1.68421e-06
2.35055e-06
4.2715e-06
5.51225e-06
5.2419e-06
7.87425e-06
0.00210867
0.000374205
0.000976547
1.03238e-05
4.50123e-06
4.07811e-06
4.7155e-06
7.57646e-06
9.97325e-06
9.92073e-06
0.0014172
0.0396884
0.0773081
0.0771649
0.01627
1.15686e-05
1.23193e-05
2.19941e-05
4.34461e-05
9.64216e-06
3.71741e-06
1.91684e-06
1.51291e-06
1.41419e-06
1.42202e-06
1.5546e-06
4.85248e-06
6.61318e-05
5.62492e-06
5.06685e-06
0.000487185
0.000368518
0.000490214
6.13771e-06
3.88724e-06
3.69944e-06
5.19683e-06
1.30249e-05
2.32955e-05
1.79452e-05
0.000675932
0.0217782
0.0771918
0.077177
0.0440833
0.000318298
9.82058e-06
1.19073e-05
0.000183294
9.75684e-06
3.23078e-06
1.73951e-06
1.41294e-06
1.30092e-06
1.29091e-06
1.58398e-06
1.09636e-05
0.00090079
5.83798e-06
4.88659e-06
0.000637348
0.000362024
6.81772e-05
6.07204e-06
4.24252e-06
8.80785e-06
1.19439e-05
2.48397e-05
2.02394e-05
2.63007e-05
0.000525294
0.0102139
0.0695565
0.0771363
0.0729837
0.00380277
8.31102e-06
1.03752e-05
0.000444859
7.74879e-06
2.11137e-06
1.41059e-06
1.27666e-06
1.24847e-06
1.23046e-06
1.79967e-06
1.05793e-05
0.00089764
0.000379015
6.47721e-06
0.0012079
0.000354569
0.000219062
1.45852e-05
1.42053e-05
1.76317e-05
1.2603e-05
2.65024e-06
1.93703e-06
4.53456e-06
2.30732e-05
0.00177917
0.0392129
0.0770951
0.0769323
0.012506
0.00014231
0.000302388
0.000450586
4.0456e-06
1.26823e-06
1.09108e-06
1.1328e-06
1.19793e-06
1.18718e-06
1.71752e-06
6.05631e-06
0.000893608
0.00039145
0.00041222
0.000344513
1.63973e-05
1.77706e-05
1.54968e-05
6.32759e-06
1.88057e-06
1.33048e-06
8.60123e-07
7.30274e-07
8.62891e-07
3.04711e-06
2.91836e-05
0.00694983
0.0769226
0.0769108
0.0182622
0.000825666
0.000847988
0.000383443
1.99005e-06
8.7621e-07
8.73029e-07
9.98499e-07
1.09644e-06
1.09887e-06
1.38102e-06
2.75459e-06
0.000260022
0.000425354
0.00042533
5.00126e-06
2.91781e-06
2.29082e-06
1.65371e-06
1.18079e-06
8.81549e-07
8.13952e-07
7.54432e-07
6.90694e-07
6.08989e-07
7.02266e-07
5.21818e-06
0.000111398
0.061252
0.0767106
0.0169037
2.04139e-05
3.10751e-05
1.15484e-05
2.66261e-06
8.015e-07
7.40952e-07
8.66855e-07
9.60526e-07
9.84929e-07
1.0379e-06
1.76963e-06
1.16194e-05
0.00043012
0.000438287
2.89479e-06
2.01109e-06
1.17757e-06
9.61217e-07
8.9468e-07
8.41846e-07
8.01677e-07
7.50193e-07
6.85163e-07
6.01437e-07
5.15464e-07
1.40669e-06
1.91199e-05
0.0313324
0.0766219
0.0203329
9.58094e-06
4.2881e-06
3.61421e-06
5.48509e-06
1.58111e-06
8.08279e-07
8.10313e-07
8.6063e-07
8.89688e-07
8.97048e-07
1.40765e-06
4.54268e-06
0.00012041
0.000426829
3.39453e-06
1.79226e-06
1.063e-06
9.39659e-07
8.93267e-07
8.47274e-07
8.02592e-07
7.46707e-07
6.74125e-07
5.88059e-07
4.9639e-07
9.3634e-07
1.3561e-05
0.0169087
0.0764339
0.0228898
1.36494e-05
1.70969e-06
1.64224e-06
6.56095e-06
8.13472e-06
1.7327e-06
1.2078e-06
1.01113e-06
9.5395e-07
9.26312e-07
1.23214e-06
3.94714e-06
1.7792e-05
0.000344107
3.17343e-06
1.68807e-06
1.06749e-06
9.58363e-07
8.97747e-07
8.4821e-07
8.01992e-07
7.42121e-07
6.61983e-07
5.7333e-07
4.87797e-07
6.39523e-07
8.54821e-06
0.00912422
0.0762691
0.0193569
1.54796e-05
1.42327e-06
1.00783e-06
2.54931e-06
1.00769e-05
7.25362e-06
3.39387e-06
1.91391e-06
1.56717e-06
1.41697e-06
1.51661e-06
4.52269e-06
1.51534e-05
0.00160366
2.96649e-06
1.61363e-06
1.06943e-06
9.64552e-07
9.01723e-07
8.53931e-07
8.02991e-07
7.37089e-07
6.51302e-07
5.62463e-07
4.77904e-07
5.1649e-07
5.26052e-06
0.00479118
0.075969
0.00920752
1.22822e-05
1.2512e-06
8.98821e-07
9.68658e-07
2.61627e-06
9.06382e-06
8.04505e-06
4.79676e-06
3.38032e-06
2.81524e-06
2.7521e-06
5.74826e-06
1.12582e-05
0.00161643
2.7799e-06
1.53771e-06
1.06633e-06
9.65528e-07
9.04331e-07
8.57536e-07
8.01578e-07
7.24005e-07
6.31329e-07
5.43455e-07
4.66782e-07
4.45318e-07
3.14502e-06
0.00148379
0.0709064
0.00468195
8.39955e-06
1.03478e-06
8.5377e-07
8.24912e-07
9.57873e-07
2.13364e-06
4.31137e-06
5.96857e-06
5.38839e-06
4.80153e-06
5.02783e-06
8.0558e-06
8.44247e-06
1.86255e-05
2.61629e-06
1.47112e-06
1.06282e-06
9.65454e-07
9.06482e-07
8.58912e-07
7.95691e-07
7.09445e-07
6.20301e-07
5.32046e-07
4.56182e-07
4.12774e-07
1.96424e-06
9.48506e-05
0.0501411
0.000531098
2.44779e-06
9.02753e-07
8.04715e-07
7.49355e-07
7.91523e-07
9.24952e-07
1.36413e-06
2.2924e-06
3.07722e-06
3.62492e-06
4.07642e-06
4.13102e-06
2.76649e-06
2.55652e-06
2.48749e-06
1.42977e-06
1.06399e-06
9.651e-07
9.11308e-07
8.59842e-07
7.88017e-07
6.96669e-07
5.98971e-07
5.10567e-07
4.44448e-07
3.93909e-07
1.08039e-06
2.65187e-05
0.0195125
1.34412e-05
1.28201e-06
8.41474e-07
7.36547e-07
6.83386e-07
7.12931e-07
8.23119e-07
9.68783e-07
1.23104e-06
1.5212e-06
1.61547e-06
1.62054e-06
1.51567e-06
1.4314e-06
1.59194e-06
2.39843e-06
1.40714e-06
1.06327e-06
9.63165e-07
9.12726e-07
8.5735e-07
7.73518e-07
6.72931e-07
5.78894e-07
4.99806e-07
4.31414e-07
3.79034e-07
6.22412e-07
9.0407e-06
0.00455355
4.79766e-06
1.09898e-06
7.61328e-07
6.67653e-07
6.10665e-07
6.4052e-07
7.51673e-07
9.19844e-07
1.08933e-06
1.24086e-06
1.33326e-06
1.36002e-06
1.37884e-06
1.42596e-06
1.55551e-06
2.35322e-06
1.39504e-06
1.06058e-06
9.60582e-07
9.12787e-07
8.48846e-07
7.55547e-07
6.55122e-07
5.64077e-07
4.78326e-07
4.15986e-07
3.686e-07
5.28095e-07
4.68377e-06
7.03078e-05
3.78264e-06
1.16299e-06
6.89412e-07
5.95755e-07
5.44747e-07
5.74516e-07
6.85246e-07
8.57287e-07
1.06216e-06
1.23302e-06
1.33149e-06
1.38124e-06
1.43055e-06
1.4675e-06
1.49326e-06
2.34102e-06
1.38611e-06
1.05015e-06
9.5728e-07
9.08299e-07
8.32787e-07
7.35283e-07
6.33538e-07
5.38522e-07
4.64133e-07
4.05075e-07
3.54892e-07
4.91527e-07
4.13851e-06
1.43242e-05
4.41141e-06
1.17662e-06
6.21018e-07
5.40136e-07
4.8832e-07
5.1976e-07
6.29881e-07
8.01822e-07
1.02054e-06
1.22445e-06
1.34692e-06
1.40658e-06
1.45625e-06
1.49247e-06
1.45643e-06
2.35296e-06
1.37324e-06
1.03426e-06
9.50448e-07
8.96203e-07
8.14438e-07
7.10983e-07
6.08833e-07
5.21549e-07
4.44253e-07
3.89532e-07
3.47892e-07
4.72246e-07
4.08642e-06
1.35722e-05
4.74095e-06
1.23625e-06
6.03859e-07
4.93969e-07
4.46532e-07
4.78726e-07
5.85558e-07
7.56366e-07
9.8018e-07
1.2084e-06
1.35593e-06
1.42611e-06
1.47561e-06
1.5113e-06
1.44186e-06
2.35577e-06
1.346e-06
1.01421e-06
9.41036e-07
8.82393e-07
7.91284e-07
6.84175e-07
5.84432e-07
4.96579e-07
4.30611e-07
3.80845e-07
3.35122e-07
4.72338e-07
4.50606e-06
1.33308e-05
4.86191e-06
1.24082e-06
5.99876e-07
4.62347e-07
4.11465e-07
4.46563e-07
5.49379e-07
7.17187e-07
9.43212e-07
1.18909e-06
1.36349e-06
1.444e-06
1.49108e-06
1.52191e-06
1.44007e-06
2.341e-06
1.30698e-06
9.97317e-07
9.34619e-07
8.66456e-07
7.63346e-07
6.5417e-07
5.57673e-07
4.80591e-07
4.14147e-07
3.66796e-07
3.31083e-07
4.80597e-07
4.91704e-06
1.32346e-05
5.42454e-06
1.30914e-06
5.96402e-07
4.35185e-07
3.88595e-07
4.2254e-07
5.19447e-07
6.79717e-07
9.06524e-07
1.16461e-06
1.36781e-06
1.46061e-06
1.50332e-06
1.52443e-06
1.4411e-06
2.28953e-06
1.27462e-06
9.90801e-07
9.27675e-07
8.41797e-07
7.31221e-07
6.26384e-07
5.35756e-07
4.60409e-07
4.01193e-07
3.59084e-07
3.21569e-07
4.76759e-07
5.06688e-06
1.32922e-05
6.26383e-06
1.47214e-06
6.05214e-07
4.1654e-07
3.72927e-07
4.04271e-07
4.94184e-07
6.44871e-07
8.66323e-07
1.1346e-06
1.36582e-06
1.47614e-06
1.51527e-06
1.52118e-06
1.44246e-06
2.21264e-06
1.2549e-06
9.88471e-07
9.13339e-07
8.12379e-07
7.01696e-07
6.00199e-07
5.13782e-07
4.44025e-07
3.86409e-07
3.49104e-07
3.1939e-07
4.97777e-07
5.43968e-06
1.26119e-05
6.59114e-06
1.61548e-06
6.0454e-07
4.01772e-07
3.62913e-07
3.92387e-07
4.70686e-07
6.09656e-07
8.21398e-07
1.09597e-06
1.35414e-06
1.48821e-06
1.52375e-06
1.51628e-06
1.44817e-06
2.13153e-06
1.24341e-06
9.8722e-07
8.94347e-07
7.84483e-07
6.74221e-07
5.77741e-07
4.92728e-07
4.25825e-07
3.7598e-07
3.41092e-07
3.13608e-07
5.30965e-07
6.39891e-06
1.25931e-05
6.87042e-06
1.62058e-06
5.95554e-07
3.93124e-07
3.59957e-07
3.85326e-07
4.52042e-07
5.75045e-07
7.74564e-07
1.04711e-06
1.32957e-06
1.49362e-06
1.53112e-06
1.51034e-06
1.45912e-06
2.04311e-06
1.22983e-06
9.85556e-07
8.75823e-07
7.59179e-07
6.49177e-07
5.52645e-07
4.71917e-07
4.10122e-07
3.61951e-07
3.34698e-07
3.1449e-07
5.77921e-07
7.36295e-06
1.22662e-05
6.75001e-06
1.63705e-06
5.88543e-07
3.87827e-07
3.59867e-07
3.81809e-07
4.36784e-07
5.43121e-07
7.25281e-07
9.92797e-07
1.29241e-06
1.49079e-06
1.53816e-06
1.50873e-06
1.4756e-06
1.94368e-06
1.21465e-06
9.84081e-07
8.55756e-07
7.33169e-07
6.22483e-07
5.28544e-07
4.52814e-07
3.93698e-07
3.54574e-07
3.29711e-07
3.15778e-07
6.49536e-07
8.51565e-06
1.2306e-05
6.87881e-06
1.57182e-06
5.72054e-07
3.91506e-07
3.64943e-07
3.8105e-07
4.25399e-07
5.15007e-07
6.76862e-07
9.30365e-07
1.24037e-06
1.47329e-06
1.53562e-06
1.5057e-06
1.49377e-06
1.82652e-06
1.19897e-06
9.7684e-07
8.30938e-07
7.05664e-07
5.96668e-07
5.06516e-07
4.34335e-07
3.80764e-07
3.44527e-07
3.27723e-07
3.2466e-07
7.31132e-07
8.94122e-06
1.15334e-05
6.62542e-06
1.66629e-06
5.84328e-07
3.97261e-07
3.72514e-07
3.82807e-07
4.19209e-07
4.93405e-07
6.33407e-07
8.66299e-07
1.17235e-06
1.4417e-06
1.52759e-06
1.50075e-06
1.51326e-06
1.69464e-06
1.18325e-06
9.59588e-07
8.06367e-07
6.80115e-07
5.73054e-07
4.857e-07
4.16976e-07
3.67289e-07
3.39528e-07
3.28627e-07
3.39896e-07
8.6473e-07
9.58818e-06
1.1336e-05
5.77776e-06
1.56612e-06
6.06106e-07
4.13837e-07
3.80803e-07
3.86514e-07
4.16758e-07
4.79872e-07
5.98189e-07
8.05261e-07
1.09168e-06
1.38309e-06
1.50577e-06
1.49767e-06
1.53429e-06
1.56421e-06
1.16691e-06
9.4347e-07
7.84956e-07
6.55447e-07
5.49328e-07
4.6488e-07
3.99739e-07
3.55813e-07
3.35494e-07
3.32788e-07
3.64573e-07
1.01695e-06
9.18169e-06
1.10275e-05
5.09849e-06
1.62504e-06
6.63427e-07
4.40998e-07
3.90022e-07
3.90477e-07
4.16942e-07
4.71442e-07
5.73708e-07
7.53859e-07
1.01486e-06
1.30239e-06
1.46707e-06
1.49076e-06
1.56113e-06
1.45059e-06
1.15208e-06
9.29912e-07
7.59747e-07
6.27742e-07
5.24191e-07
4.43559e-07
3.83264e-07
3.47069e-07
3.3698e-07
3.42311e-07
4.02799e-07
1.18009e-06
7.81035e-06
1.04535e-05
4.44033e-06
1.83049e-06
7.8386e-07
4.75458e-07
4.03765e-07
3.93579e-07
4.16339e-07
4.65658e-07
5.55653e-07
7.13159e-07
9.41824e-07
1.19924e-06
1.41038e-06
1.47892e-06
1.59554e-06
1.35845e-06
1.13897e-06
9.07147e-07
7.28785e-07
5.9949e-07
5.00378e-07
4.23748e-07
3.6963e-07
3.44031e-07
3.43817e-07
3.57753e-07
4.56279e-07
1.35502e-06
5.64361e-06
7.72178e-06
4.46058e-06
2.06109e-06
9.10149e-07
5.23065e-07
4.23257e-07
4.01143e-07
4.15839e-07
4.60289e-07
5.41987e-07
6.83281e-07
8.90963e-07
1.10626e-06
1.326e-06
1.45319e-06
1.62968e-06
1.28658e-06
1.12318e-06
8.81899e-07
7.01211e-07
5.73923e-07
4.77229e-07
4.04977e-07
3.59257e-07
3.46126e-07
3.54893e-07
3.80193e-07
5.22383e-07
1.56004e-06
4.71168e-06
5.1263e-06
3.65323e-06
2.3218e-06
1.09406e-06
5.77704e-07
4.49225e-07
4.14355e-07
4.19362e-07
4.55911e-07
5.28871e-07
6.53925e-07
8.45076e-07
1.05025e-06
1.24647e-06
1.43131e-06
1.63456e-06
1.24161e-06
1.11336e-06
8.56864e-07
6.70533e-07
5.44781e-07
4.52437e-07
3.86867e-07
3.53103e-07
3.5372e-07
3.71163e-07
4.14896e-07
5.85348e-07
1.61612e-06
3.56385e-06
3.89886e-06
3.44036e-06
2.50639e-06
1.26532e-06
6.52185e-07
4.79252e-07
4.30536e-07
4.26909e-07
4.54659e-07
5.18706e-07
6.30658e-07
7.9896e-07
9.92363e-07
1.17549e-06
1.39097e-06
1.5534e-06
1.2219e-06
1.09722e-06
8.19646e-07
6.35679e-07
5.15901e-07
4.29246e-07
3.73384e-07
3.54155e-07
3.67192e-07
3.9555e-07
4.57639e-07
6.83984e-07
1.62494e-06
2.88728e-06
3.04306e-06
2.91403e-06
2.50709e-06
1.45677e-06
7.46206e-07
5.17542e-07
4.50134e-07
4.35504e-07
4.54055e-07
5.0788e-07
6.11017e-07
7.67008e-07
9.40906e-07
1.09554e-06
1.28099e-06
1.36616e-06
1.21205e-06
1.05849e-06
7.74529e-07
6.02004e-07
4.87274e-07
4.07642e-07
3.64421e-07
3.62102e-07
3.87643e-07
4.29429e-07
5.12314e-07
7.97641e-07
1.62498e-06
2.30657e-06
2.40732e-06
2.50627e-06
2.42036e-06
1.65316e-06
8.75998e-07
5.7322e-07
4.82651e-07
4.50647e-07
4.56666e-07
4.98227e-07
5.85969e-07
7.30337e-07
8.90224e-07
1.00836e-06
1.12697e-06
1.20308e-06
1.1878e-06
9.96207e-07
7.28584e-07
5.67072e-07
4.5897e-07
3.90163e-07
3.63117e-07
3.79447e-07
4.17254e-07
4.74548e-07
5.90136e-07
9.31981e-07
1.5858e-06
1.9229e-06
2.00332e-06
2.16632e-06
2.24602e-06
1.82007e-06
1.05001e-06
6.52041e-07
5.31632e-07
4.82176e-07
4.69324e-07
4.9703e-07
5.68259e-07
6.96272e-07
8.49959e-07
9.48919e-07
1.00385e-06
1.05283e-06
1.14433e-06
9.3333e-07
6.88876e-07
5.35807e-07
4.35637e-07
3.80069e-07
3.74119e-07
4.09691e-07
4.60056e-07
5.32217e-07
7.11842e-07
1.08e-06
1.54168e-06
1.70834e-06
1.76351e-06
1.91619e-06
2.08878e-06
1.95496e-06
1.28788e-06
7.87139e-07
5.95767e-07
5.32242e-07
4.97969e-07
5.05466e-07
5.62456e-07
6.73041e-07
8.23863e-07
9.11593e-07
9.45612e-07
9.45034e-07
1.09099e-06
8.80325e-07
6.52791e-07
5.06616e-07
4.16716e-07
3.79836e-07
3.99558e-07
4.52545e-07
5.19128e-07
6.4659e-07
8.81914e-07
1.25475e-06
1.53361e-06
1.61928e-06
1.69551e-06
1.77054e-06
1.99571e-06
2.04436e-06
1.57766e-06
9.99099e-07
6.90457e-07
5.93431e-07
5.39035e-07
5.17866e-07
5.55069e-07
6.5102e-07
7.99198e-07
8.9587e-07
9.23019e-07
8.9178e-07
1.03341e-06
8.34262e-07
6.18081e-07
4.79727e-07
4.05119e-07
3.93488e-07
4.41172e-07
5.09937e-07
6.21147e-07
8.248e-07
1.1306e-06
1.47486e-06
1.61571e-06
1.59529e-06
1.64956e-06
1.75836e-06
2.01377e-06
2.1357e-06
1.88912e-06
1.29351e-06
8.60699e-07
6.56922e-07
5.92336e-07
5.40123e-07
5.46615e-07
6.25036e-07
7.66347e-07
8.80991e-07
9.13393e-07
8.62314e-07
9.78584e-07
7.92319e-07
5.82661e-07
4.57129e-07
4.04524e-07
4.24581e-07
4.9785e-07
5.99155e-07
8.07121e-07
1.11657e-06
1.49758e-06
1.78822e-06
1.84905e-06
1.81962e-06
1.82529e-06
1.95543e-06
2.16437e-06
2.31548e-06
2.24693e-06
1.70238e-06
1.1369e-06
8.03404e-07
6.503e-07
5.79127e-07
5.48472e-07
6.00224e-07
7.29825e-07
8.6198e-07
9.07468e-07
8.57242e-07
9.29716e-07
7.50796e-07
5.5055e-07
4.43664e-07
4.19891e-07
4.76412e-07
5.79078e-07
7.94236e-07
1.14724e-06
1.6219e-06
2.07229e-06
2.29594e-06
2.32137e-06
2.31838e-06
2.34033e-06
2.41923e-06
2.55527e-06
2.69573e-06
2.71891e-06
2.26443e-06
1.56803e-06
1.05365e-06
7.69832e-07
6.37609e-07
5.6518e-07
5.83805e-07
6.92966e-07
8.46288e-07
9.02437e-07
8.56379e-07
8.86138e-07
7.1235e-07
5.25369e-07
4.43036e-07
4.57518e-07
5.57793e-07
7.67769e-07
1.18204e-06
1.81035e-06
2.52246e-06
3.00687e-06
3.17197e-06
3.20914e-06
3.24799e-06
3.28887e-06
3.31201e-06
3.35161e-06
3.43261e-06
3.45106e-06
3.07589e-06
2.25531e-06
1.47503e-06
9.80379e-07
7.21183e-07
6.00399e-07
5.73619e-07
6.56531e-07
8.17615e-07
8.95213e-07
8.68513e-07
8.46416e-07
6.79489e-07
5.10058e-07
4.62088e-07
5.2774e-07
7.23181e-07
1.16858e-06
2.00097e-06
3.13902e-06
4.10641e-06
4.56037e-06
4.7206e-06
4.83494e-06
4.93208e-06
4.97199e-06
4.91891e-06
4.82197e-06
4.75007e-06
4.65821e-06
4.2923e-06
3.35279e-06
2.18909e-06
1.34068e-06
8.82571e-07
6.59756e-07
5.78001e-07
6.30936e-07
7.8116e-07
8.83069e-07
8.89403e-07
8.093e-07
6.529e-07
5.09881e-07
5.10324e-07
6.56577e-07
1.08416e-06
2.08069e-06
3.80675e-06
5.59594e-06
6.52181e-06
1.04904e-05
3.47981e-05
7.32141e-05
9.91794e-05
9.28015e-05
5.73126e-05
2.2538e-05
7.52389e-06
6.52591e-06
6.06033e-06
5.03221e-06
3.3998e-06
1.97217e-06
1.14229e-06
7.49786e-07
6.0129e-07
6.1111e-07
7.48407e-07
8.69921e-07
9.11061e-07
7.75133e-07
6.35983e-07
5.34109e-07
6.05952e-07
9.50417e-07
1.90345e-06
4.15014e-06
6.98501e-06
0.000101726
0.000452793
0.00106996
0.00181855
0.00243424
0.0026943
0.00253803
0.00202066
0.00132446
0.000682574
0.000264755
6.71611e-05
7.18275e-06
5.27011e-06
3.05339e-06
1.58623e-06
9.2253e-07
6.4835e-07
5.99751e-07
7.14843e-07
8.52705e-07
9.35701e-07
7.46693e-07
6.36413e-07
5.96898e-07
7.95372e-07
1.56154e-06
3.69886e-06
7.5549e-06
0.00043749
0.00182477
0.00398598
0.00626729
0.00794875
0.00879698
0.00899364
0.00866976
0.00781392
0.00637513
0.00441936
0.00238107
0.000930521
0.000230874
7.92277e-06
4.70098e-06
2.33717e-06
1.18078e-06
7.22195e-07
6.0256e-07
6.8381e-07
8.31008e-07
9.65726e-07
7.32882e-07
6.68513e-07
7.23831e-07
1.21385e-06
2.75941e-06
6.86304e-06
0.000613873
0.00341294
0.0071865
0.0102046
0.010952
0.010962
0.0109659
0.010968
0.0109677
0.0109654
0.0109598
0.0104716
0.00792882
0.0044242
0.00168982
0.000295035
6.7477e-06
3.47867e-06
1.58099e-06
8.40585e-07
6.24521e-07
6.59317e-07
8.1036e-07
9.9655e-07
7.57583e-07
7.60953e-07
9.64797e-07
2.03826e-06
5.1183e-06
0.000273172
0.00377406
0.00706284
0.00851695
0.00884565
0.00893636
0.00942029
0.00998924
0.0106687
0.0109367
0.0109401
0.0109416
0.0109384
0.0109191
0.00986625
0.00600476
0.0021088
0.000122006
5.07767e-06
2.18415e-06
1.04634e-06
6.70961e-07
6.47254e-07
7.91859e-07
1.01919e-06
8.69176e-07
9.64005e-07
1.48236e-06
3.51201e-06
9.92064e-06
0.00234214
0.00353401
0.00289124
0.00123334
0.000821161
0.000518269
0.000404408
0.000440334
0.000621013
0.000800738
0.00118709
0.00183722
0.00301843
0.00461466
0.00640715
0.00637569
0.00531811
0.00158141
7.77583e-06
3.14412e-06
1.36089e-06
7.44465e-07
6.51499e-07
7.76373e-07
1.02192e-06
1.16836e-06
1.41859e-06
2.45483e-06
5.96568e-06
0.000298068
0.00148968
0.000718559
6.76751e-05
5.32184e-05
5.30808e-05
5.97682e-05
6.01443e-05
6.02274e-05
6.19534e-05
7.55987e-05
9.91655e-05
0.000116998
0.000124534
0.000158317
0.000394602
0.00162749
0.00302399
0.00263898
0.00036773
4.86505e-06
1.75631e-06
8.55056e-07
6.83227e-07
7.68447e-07
1.00048e-06
1.92962e-06
2.55908e-06
4.34323e-06
9.18161e-06
0.000283637
0.000359959
0.00012076
6.76412e-05
0.000116711
0.000271523
0.00034999
0.000267566
0.000259227
0.000310196
0.000342691
0.000402946
0.000425909
0.000389833
0.000333175
0.000336667
0.00033933
0.000451381
0.000904999
0.000511075
6.28184e-06