/*--------------------------------*- C++ -*----------------------------------*\
| =========                 |                                                 |
| \\      /  F ield         | OpenFOAM: The Open Source CFD Toolbox           |
|  \\    /   O peration     | Version:  v1606+                                |
|   \\  /    A nd           | Web:      www.OpenFOAM.com                      |
|    \\/     M anipulation  |                                                 |
\*---------------------------------------------------------------------------*/
FoamFile
{
    version     2.0;
    format      ascii;
    class       volScalarField;
    location    "0.8";
    object      pMean;
}
// * * * * * * * * * * * * * * * * * * * * * * * * * * * * * * * * * * * * * //

dimensions      [1 -1 -2 0 0 0 0];

internalField   nonuniform List<scalar> 
6000
(
108208
108208
108208
108208
108207
108207
108206
108206
108207
108207
108208
108208
108209
108209
108209
108209
108209
108209
108208
108208
108207
108207
108207
108207
108207
108208
108208
108209
108209
108208
108136
108136
108136
108135
108135
108134
108134
108134
108134
108135
108136
108137
108138
108138
108139
108139
108138
108138
108137
108137
108136
108135
108134
108134
108134
108135
108136
108137
108137
108136
108086
108087
108086
108086
108086
108085
108085
108086
108087
108088
108090
108091
108092
108092
108093
108093
108092
108092
108091
108090
108089
108087
108086
108086
108086
108086
108087
108087
108087
108087
108031
108031
108030
108029
108029
108029
108029
108029
108031
108033
108034
108036
108037
108038
108038
108038
108038
108037
108036
108035
108033
108031
108030
108029
108029
108030
108030
108031
108031
108032
107980
107979
107978
107977
107976
107975
107975
107975
107975
107977
107980
107981
107982
107984
107984
107984
107984
107983
107981
107980
107978
107976
107975
107975
107976
107977
107978
107979
107980
107981
107931
107930
107928
107927
107926
107924
107923
107923
107922
107923
107925
107926
107927
107929
107930
107930
107929
107927
107927
107926
107924
107923
107923
107924
107925
107926
107928
107929
107931
107932
107880
107878
107877
107875
107874
107874
107873
107872
107871
107871
107872
107872
107873
107874
107876
107876
107874
107873
107873
107873
107872
107872
107873
107874
107875
107875
107876
107877
107879
107881
107826
107823
107821
107820
107821
107821
107822
107821
107821
107820
107819
107819
107819
107820
107822
107822
107820
107819
107820
107820
107821
107822
107822
107822
107822
107821
107820
107821
107824
107827
107767
107763
107761
107761
107764
107767
107768
107769
107769
107768
107767
107766
107766
107768
107770
107769
107767
107767
107767
107768
107769
107770
107769
107769
107767
107764
107762
107761
107764
107768
107703
107701
107700
107702
107706
107710
107714
107716
107717
107717
107717
107716
107716
107718
107720
107719
107718
107717
107717
107718
107718
107717
107716
107714
107710
107706
107702
107700
107701
107704
107640
107639
107640
107642
107647
107653
107659
107663
107665
107666
107668
107668
107668
107670
107672
107672
107671
107670
107669
107669
107667
107665
107663
107659
107653
107647
107642
107640
107640
107641
107579
107578
107580
107583
107589
107596
107603
107609
107613
107615
107618
107619
107620
107622
107624
107624
107623
107622
107621
107619
107616
107613
107609
107603
107596
107588
107583
107579
107578
107579
107519
107519
107520
107524
107530
107538
107547
107555
107560
107564
107568
107570
107571
107573
107575
107576
107575
107574
107573
107569
107564
107560
107554
107546
107537
107529
107523
107520
107518
107519
107461
107460
107462
107465
107471
107480
107490
107499
107506
107512
107518
107521
107522
107523
107526
107527
107526
107525
107523
107518
107513
107506
107498
107488
107478
107470
107464
107461
107460
107460
107405
107404
107405
107408
107413
107421
107432
107443
107452
107461
107467
107472
107474
107475
107476
107478
107478
107477
107473
107467
107460
107451
107441
107429
107419
107411
107406
107404
107403
107404
107351
107350
107351
107353
107356
107363
107373
107386
107398
107409
107416
107423
107427
107428
107428
107428
107428
107427
107422
107415
107407
107396
107383
107370
107359
107353
107350
107349
107349
107349
107298
107297
107298
107298
107300
107305
107315
107329
107343
107355
107364
107370
107377
107379
107379
107378
107377
107374
107368
107361
107351
107339
107324
107310
107301
107296
107295
107294
107294
107295
107244
107244
107244
107244
107245
107249
107258
107271
107286
107300
107309
107315
107321
107325
107325
107324
107322
107317
107312
107305
107294
107280
107264
107251
107244
107240
107239
107238
107238
107238
107189
107188
107188
107189
107190
107194
107202
107213
107228
107242
107252
107258
107262
107266
107267
107265
107263
107257
107253
107247
107235
107220
107205
107194
107186
107182
107181
107180
107180
107180
107131
107130
107130
107131
107134
107139
107147
107157
107170
107184
107194
107200
107202
107204
107205
107204
107201
107197
107194
107187
107175
107161
107148
107136
107128
107124
107121
107120
107120
107120
107071
107071
107071
107072
107077
107085
107093
107102
107114
107126
107137
107143
107144
107144
107143
107141
107140
107138
107136
107129
107117
107104
107091
107080
107072
107065
107062
107060
107060
107060
107011
107012
107012
107016
107022
107031
107041
107050
107059
107071
107081
107087
107088
107086
107083
107082
107081
107081
107078
107071
107060
107047
107035
107024
107015
107008
107003
107001
107001
107001
106952
106953
106955
106959
106966
106975
106985
106995
107005
107015
107025
107031
107032
107029
107026
107024
107023
107023
107021
107013
107002
106988
106976
106966
106957
106949
106945
106942
106942
106943
106893
106893
106896
106900
106905
106913
106923
106934
106946
106957
106966
106972
106973
106970
106967
106965
106965
106965
106962
106953
106939
106926
106914
106905
106897
106891
106887
106884
106884
106884
106832
106833
106835
106837
106841
106847
106855
106865
106878
106893
106904
106910
106911
106909
106906
106904
106905
106905
106900
106889
106875
106862
106851
106843
106837
106833
106830
106828
106827
106827
106771
106772
106773
106774
106775
106777
106782
106791
106804
106819
106834
106843
106847
106847
106845
106844
106844
106843
106836
106823
106809
106797
106788
106782
106779
106778
106776
106774
106772
106771
106712
106712
106712
106711
106709
106708
106710
106717
106728
106743
106759
106773
106781
106783
106783
106782
106783
106780
106770
106756
106743
106733
106727
106724
106723
106724
106724
106722
106720
106719
106655
106655
106654
106651
106648
106644
106642
106645
106654
106668
106685
106702
106714
106720
106721
106722
106722
106716
106705
106691
106679
106671
106668
106667
106667
106669
106670
106671
106670
106668
106598
106598
106596
106593
106588
106584
106580
106580
106585
106596
106612
106631
106648
106657
106661
106661
106660
106653
106640
106626
106616
106611
106610
106610
106610
106612
106615
106618
106619
106618
106543
106542
106538
106534
106529
106524
106520
106518
106520
106529
106543
106562
106582
106594
106600
106601
106598
106590
106576
106564
106556
106552
106551
106551
106553
106555
106559
106562
106565
106565
106486
106484
106480
106475
106470
106464
106460
106458
106459
106466
106479
106495
106515
106531
106538
106540
106536
106526
106513
106504
106497
106493
106491
106492
106494
106497
106501
106505
106508
106510
106429
106426
106422
106416
106410
106405
106401
106399
106401
106407
106418
106433
106450
106465
106475
106477
106473
106464
106454
106446
106440
106436
106433
106432
106434
106438
106442
106446
106449
106452
106371
106368
106363
106357
106351
106346
106344
106344
106346
106352
106362
106374
106388
106401
106410
106413
106410
106404
106397
106390
106385
106381
106377
106375
106376
106378
106382
106386
106390
106393
106313
106310
106305
106299
106294
106290
106290
106291
106295
106300
106308
106318
106330
106340
106347
106348
106347
106343
106339
106335
106332
106328
106324
106321
106319
106320
106323
106327
106331
106333
106256
106253
106248
106243
106239
106238
106239
106241
106245
106249
106254
106263
106272
106281
106286
106286
106285
106284
106282
106281
106278
106276
106272
106269
106266
106265
106266
106269
106273
106275
106200
106197
106193
106190
106188
106188
106190
106192
106195
106198
106202
106208
106216
106223
106228
106228
106227
106227
106226
106226
106225
106224
106222
106219
106215
106213
106212
106214
106217
106219
106146
106144
106141
106139
106139
106141
106143
106144
106145
106146
106149
106153
106160
106167
106171
106172
106171
106171
106171
106171
106172
106172
106172
106169
106166
106163
106161
106162
106163
106165
106095
106093
106092
106092
106094
106096
106097
106097
106097
106096
106096
106099
106104
106110
106115
106116
106116
106116
106115
106116
106118
106120
106121
106120
106118
106115
106112
106111
106112
106112
106046
106045
106046
106047
106050
106051
106051
106050
106048
106046
106045
106045
106048
106054
106058
106060
106060
106060
106059
106060
106063
106067
106069
106070
106070
106068
106065
106063
106061
106061
105998
105998
106001
106003
106005
106005
106003
106001
105998
105995
105993
105992
105993
105997
106002
106004
106004
106004
106004
106005
106008
106012
106016
106019
106020
106019
106018
106015
106012
106011
105950
105952
105955
105957
105957
105956
105953
105949
105945
105942
105940
105938
105939
105941
105946
105948
105949
105949
105949
105950
105953
105957
105961
105965
105968
105969
105969
105966
105963
105961
105902
105904
105906
105907
105906
105903
105898
105894
105890
105887
105885
105884
105884
105886
105890
105893
105894
105894
105894
105895
105896
105899
105904
105908
105913
105916
105917
105916
105913
105912
105854
105855
105855
105853
105850
105846
105841
105836
105833
105830
105829
105829
105829
105831
105834
105837
105839
105838
105838
105838
105839
105841
105845
105850
105855
105859
105862
105863
105863
105862
105802
105802
105801
105798
105793
105788
105782
105778
105774
105773
105773
105773
105773
105775
105778
105781
105783
105782
105782
105781
105781
105783
105785
105790
105796
105801
105805
105808
105810
105809
105747
105746
105744
105739
105734
105728
105722
105718
105716
105715
105715
105716
105716
105718
105721
105724
105726
105725
105724
105724
105724
105724
105726
105730
105735
105741
105746
105750
105753
105754
105689
105687
105684
105679
105673
105667
105662
105659
105657
105657
105657
105658
105658
105659
105662
105666
105667
105666
105666
105666
105666
105666
105667
105669
105674
105680
105686
105691
105694
105695
105628
105626
105622
105616
105610
105605
105601
105599
105598
105598
105598
105599
105599
105600
105603
105606
105607
105607
105607
105607
105607
105607
105607
105609
105612
105617
105623
105629
105633
105635
105565
105563
105558
105553
105547
105543
105541
105539
105539
105538
105538
105538
105538
105539
105541
105545
105545
105546
105546
105547
105547
105547
105548
105549
105550
105554
105560
105565
105569
105572
105501
105498
105494
105489
105484
105482
105480
105479
105478
105477
105477
105477
105477
105477
105479
105482
105483
105484
105484
105485
105486
105487
105488
105488
105489
105491
105495
105500
105505
105507
105436
105434
105430
105425
105422
105420
105419
105418
105417
105416
105415
105415
105414
105414
105416
105419
105420
105421
105422
105423
105425
105426
105427
105428
105428
105429
105431
105436
105439
105442
105372
105369
105366
105362
105360
105359
105358
105357
105356
105354
105353
105352
105351
105351
105352
105354
105356
105356
105358
105360
105362
105364
105366
105367
105367
105367
105368
105371
105374
105377
105306
105304
105302
105299
105298
105297
105297
105295
105293
105291
105289
105288
105286
105286
105287
105289
105290
105291
105292
105295
105298
105301
105303
105305
105305
105305
105305
105306
105309
105311
105241
105239
105237
105236
105236
105235
105234
105232
105230
105227
105225
105222
105221
105219
105220
105221
105222
105223
105225
105227
105231
105234
105238
105241
105243
105243
105242
105242
105243
105244
105176
105175
105174
105174
105174
105173
105170
105167
105164
105162
105158
105155
105153
105151
105151
105152
105153
105153
105155
105157
105160
105164
105169
105175
105178
105180
105180
105179
105178
105179
105111
105111
105112
105112
105111
105108
105104
105100
105097
105093
105090
105086
105083
105081
105080
105081
105081
105081
105083
105084
105087
105090
105096
105102
105109
105114
105116
105116
105114
105114
105047
105048
105049
105048
105045
105041
105035
105031
105027
105023
105019
105014
105011
105008
105007
105007
105007
105007
105008
105009
105011
105013
105017
105024
105033
105041
105047
105049
105049
105048
104981
104982
104983
104980
104975
104968
104963
104958
104954
104950
104945
104940
104936
104933
104932
104931
104931
104931
104931
104932
104933
104934
104937
104942
104950
104961
104971
104977
104980
104980
104914
104914
104911
104905
104899
104893
104888
104885
104880
104874
104869
104863
104859
104856
104854
104853
104852
104852
104852
104852
104853
104853
104855
104858
104865
104875
104887
104898
104905
104907
104842
104840
104833
104826
104820
104817
104813
104809
104803
104796
104790
104784
104779
104776
104774
104773
104772
104772
104771
104771
104771
104771
104771
104773
104778
104787
104799
104812
104823
104827
104763
104758
104751
104745
104742
104740
104736
104730
104723
104715
104708
104702
104697
104694
104692
104691
104690
104690
104690
104690
104689
104689
104688
104688
104691
104699
104710
104723
104735
104741
104678
104673
104668
104665
104665
104662
104657
104649
104640
104631
104624
104618
104613
104610
104608
104607
104607
104606
104607
104607
104607
104607
104606
104606
104607
104612
104622
104634
104645
104652
104593
104590
104588
104589
104587
104582
104574
104563
104553
104544
104537
104531
104527
104524
104523
104522
104522
104522
104522
104524
104525
104526
104527
104527
104527
104530
104536
104546
104556
104562
104510
104510
104512
104512
104507
104498
104486
104474
104464
104455
104448
104442
104439
104436
104435
104435
104435
104436
104437
104439
104442
104446
104450
104452
104453
104453
104455
104461
104468
104474
104430
104433
104435
104431
104421
104408
104395
104382
104372
104363
104357
104352
104349
104347
104346
104346
104347
104348
104351
104354
104358
104364
104370
104376
104380
104380
104379
104381
104385
104389
104352
104354
104352
104343
104329
104314
104300
104288
104278
104270
104264
104260
104258
104256
104256
104256
104257
104259
104262
104266
104272
104279
104287
104296
104303
104306
104306
104306
104307
104309
104272
104271
104263
104249
104234
104218
104204
104192
104182
104175
104170
104167
104165
104164
104164
104164
104166
104168
104171
104176
104182
104190
104200
104211
104221
104228
104232
104232
104231
104232
104184
104179
104167
104152
104135
104120
104106
104094
104085
104080
104076
104073
104071
104071
104071
104072
104073
104075
104079
104083
104090
104098
104109
104121
104133
104144
104153
104156
104156
104156
104088
104081
104068
104052
104036
104021
104008
103997
103989
103984
103980
103978
103977
103977
103977
103978
103980
103982
103985
103989
103995
104004
104015
104028
104043
104056
104067
104075
104078
104078
103988
103980
103968
103953
103937
103923
103910
103901
103893
103888
103885
103883
103883
103883
103884
103885
103886
103888
103890
103894
103900
103908
103920
103934
103949
103965
103978
103989
103995
103996
103886
103879
103868
103854
103840
103827
103815
103806
103799
103793
103790
103789
103789
103790
103791
103792
103793
103794
103796
103800
103805
103814
103825
103839
103855
103872
103887
103899
103907
103910
103787
103781
103770
103758
103745
103733
103723
103714
103707
103701
103697
103696
103697
103698
103699
103700
103701
103702
103704
103707
103712
103721
103732
103746
103761
103778
103794
103807
103816
103819
103690
103685
103675
103664
103653
103642
103633
103624
103617
103612
103608
103607
103608
103609
103610
103611
103612
103613
103614
103616
103622
103631
103641
103654
103669
103684
103700
103714
103723
103726
103596
103592
103584
103574
103564
103554
103545
103537
103531
103526
103523
103521
103522
103523
103524
103525
103525
103526
103527
103530
103535
103543
103553
103564
103578
103592
103607
103620
103629
103633
103506
103502
103495
103487
103478
103468
103460
103452
103447
103443
103440
103438
103438
103438
103439
103439
103440
103441
103443
103446
103451
103457
103466
103477
103489
103503
103516
103528
103536
103540
103417
103414
103410
103402
103394
103384
103376
103369
103364
103361
103359
103357
103355
103355
103355
103355
103356
103357
103359
103362
103367
103372
103379
103390
103402
103415
103428
103439
103446
103449
103331
103330
103326
103320
103310
103301
103292
103285
103281
103279
103277
103274
103272
103271
103271
103271
103272
103273
103275
103278
103282
103286
103293
103302
103315
103328
103341
103352
103357
103360
103246
103246
103243
103236
103226
103216
103207
103201
103197
103195
103193
103191
103189
103187
103187
103186
103187
103188
103190
103193
103196
103200
103206
103215
103227
103240
103253
103264
103271
103273
103162
103160
103157
103149
103140
103130
103121
103116
103112
103110
103109
103106
103104
103103
103102
103101
103102
103103
103105
103108
103110
103113
103118
103127
103138
103151
103165
103176
103183
103186
103076
103073
103068
103060
103051
103043
103035
103030
103027
103025
103023
103021
103019
103017
103016
103015
103016
103017
103019
103021
103023
103026
103031
103038
103049
103062
103076
103087
103094
103097
102987
102985
102978
102970
102962
102955
102949
102945
102942
102939
102937
102934
102932
102930
102929
102929
102929
102930
102932
102934
102937
102940
102945
102951
102961
102973
102986
102996
103004
103007
102898
102895
102888
102880
102874
102869
102864
102860
102856
102853
102850
102847
102845
102843
102842
102841
102842
102843
102845
102847
102850
102854
102859
102866
102875
102885
102896
102906
102913
102917
102808
102805
102800
102794
102789
102784
102780
102775
102771
102766
102762
102759
102757
102755
102754
102754
102754
102756
102758
102760
102764
102769
102775
102782
102791
102800
102808
102816
102823
102827
102720
102718
102714
102710
102706
102701
102696
102690
102685
102679
102675
102671
102669
102667
102666
102666
102667
102668
102670
102674
102678
102685
102691
102699
102707
102715
102722
102729
102735
102738
102634
102633
102631
102628
102624
102618
102612
102605
102599
102593
102588
102584
102581
102579
102578
102578
102579
102581
102584
102588
102593
102600
102608
102616
102624
102631
102638
102644
102649
102651
102550
102550
102548
102545
102541
102535
102528
102521
102513
102507
102501
102497
102494
102492
102491
102491
102492
102494
102497
102502
102509
102516
102524
102532
102540
102547
102554
102560
102564
102566
102468
102468
102466
102462
102457
102450
102443
102435
102428
102421
102415
102411
102408
102406
102406
102406
102407
102409
102412
102417
102424
102431
102440
102448
102456
102463
102470
102476
102480
102481
102386
102386
102383
102378
102372
102365
102358
102350
102343
102336
102331
102327
102324
102322
102322
102322
102323
102325
102329
102333
102340
102347
102355
102364
102371
102378
102385
102392
102396
102397
102305
102304
102300
102294
102287
102280
102272
102265
102258
102253
102248
102244
102242
102241
102240
102241
102242
102244
102247
102251
102257
102264
102271
102279
102287
102294
102301
102307
102312
102314
102223
102221
102216
102209
102202
102195
102188
102181
102176
102171
102167
102165
102163
102162
102162
102162
102163
102165
102167
102171
102176
102182
102189
102196
102203
102210
102217
102223
102228
102231
102140
102138
102133
102126
102119
102112
102106
102100
102096
102092
102089
102087
102086
102086
102086
102086
102087
102088
102090
102093
102097
102102
102108
102115
102121
102128
102134
102140
102145
102147
102058
102056
102051
102045
102038
102032
102027
102022
102018
102016
102014
102013
102012
102011
102011
102012
102012
102014
102015
102018
102021
102025
102030
102036
102042
102048
102053
102059
102063
102066
101978
101975
101971
101967
101961
101956
101951
101947
101944
101942
101940
101939
101939
101938
101938
101939
101940
101941
101942
101944
101946
101949
101954
101959
101965
101971
101976
101979
101982
101985
101899
101897
101895
101892
101888
101883
101878
101874
101871
101869
101868
101867
101867
101866
101867
101867
101868
101869
101870
101872
101873
101876
101880
101885
101891
101896
101900
101902
101904
101906
101824
101823
101821
101819
101816
101812
101808
101804
101801
101798
101797
101796
101796
101796
101796
101796
101797
101798
101799
101800
101802
101805
101808
101813
101818
101822
101825
101827
101829
101829
101751
101751
101750
101748
101745
101742
101738
101734
101731
101729
101727
101726
101726
101726
101726
101726
101727
101728
101729
101730
101732
101734
101738
101742
101746
101749
101751
101754
101754
101755
101681
101681
101680
101678
101676
101672
101669
101665
101662
101660
101658
101657
101657
101657
101657
101657
101658
101659
101659
101661
101662
101665
101668
101672
101675
101677
101679
101681
101682
101682
101612
101612
101611
101609
101607
101604
101600
101597
101594
101591
101590
101589
101589
101588
101589
101589
101590
101590
101591
101592
101594
101596
101599
101602
101605
101607
101608
101610
101610
101610
101542
101543
101542
101541
101538
101535
101532
101528
101526
101524
101522
101521
101521
101521
101521
101522
101522
101523
101523
101524
101525
101528
101530
101533
101535
101536
101538
101539
101539
101538
101472
101473
101472
101471
101469
101466
101464
101461
101459
101457
101456
101455
101455
101455
101455
101455
101456
101456
101457
101458
101459
101461
101463
101464
101465
101466
101467
101467
101468
101467
101404
101404
101403
101402
101400
101399
101398
101396
101395
101394
101393
101392
101392
101392
101392
101393
101393
101393
101394
101395
101396
101397
101398
101398
101398
101398
101398
101398
101398
101398
101337
101337
101336
101335
101335
101335
101335
101335
101335
101334
101334
101333
101333
101333
101334
101334
101334
101335
101335
101336
101337
101337
101337
101336
101334
101333
101333
101332
101332
101332
101273
101273
101272
101272
101272
101273
101274
101276
101277
101277
101277
101277
101277
101277
101277
101278
101278
101278
101279
101279
101280
101280
101278
101276
101274
101272
101271
101270
101270
101270
101211
101210
101210
101210
101211
101213
101216
101218
101220
101221
101222
101222
101222
101222
101222
101223
101223
101223
101224
101224
101225
101224
101222
101219
101216
101213
101211
101210
101209
101209
101151
101150
101151
101152
101154
101157
101160
101162
101165
101166
101167
101168
101168
101168
101169
101169
101169
101170
101170
101170
101170
101169
101167
101164
101161
101157
101154
101152
101151
101151
101093
101092
101093
101096
101099
101102
101105
101108
101111
101113
101114
101114
101115
101115
101116
101116
101116
101117
101117
101117
101116
101115
101113
101110
101107
101103
101099
101096
101095
101094
101036
101037
101039
101042
101045
101049
101052
101055
101058
101060
101061
101062
101062
101063
101063
101064
101064
101064
101065
101064
101063
101062
101060
101057
101054
101050
101046
101043
101040
101040
100983
100984
100987
100990
100994
100997
101000
101003
101005
101007
101009
101010
101011
101011
101011
101012
101012
101012
101013
101012
101011
101010
101007
101005
101002
100998
100995
100991
100988
100987
100932
100933
100936
100940
100943
100946
100949
100952
100954
100956
100958
100959
100960
100960
100960
100960
100961
100961
100961
100960
100959
100958
100956
100953
100950
100948
100944
100941
100938
100937
100883
100884
100887
100890
100893
100896
100899
100901
100903
100905
100907
100908
100909
100909
100910
100910
100910
100910
100910
100909
100908
100906
100904
100902
100900
100897
100895
100892
100889
100888
100835
100837
100839
100842
100845
100847
100849
100851
100853
100855
100857
100858
100859
100859
100860
100860
100860
100860
100860
100859
100857
100856
100854
100852
100850
100848
100845
100843
100841
100840
100789
100790
100792
100794
100797
100799
100800
100802
100804
100806
100807
100809
100810
100810
100810
100810
100811
100810
100810
100809
100807
100806
100804
100802
100801
100799
100797
100795
100794
100793
100744
100745
100746
100748
100750
100751
100753
100754
100755
100757
100759
100760
100761
100762
100762
100762
100762
100762
100761
100760
100758
100757
100755
100754
100753
100751
100750
100749
100748
100747
100700
100700
100701
100702
100704
100705
100706
100707
100708
100710
100711
100713
100714
100714
100715
100715
100715
100714
100713
100712
100711
100709
100708
100707
100706
100705
100704
100703
100703
100703
100657
100657
100658
100658
100659
100660
100660
100661
100662
100664
100665
100666
100668
100668
100669
100669
100669
100668
100667
100666
100665
100663
100662
100661
100661
100661
100660
100660
100659
100660
100615
100615
100615
100616
100616
100617
100617
100618
100619
100620
100621
100622
100623
100624
100624
100625
100624
100624
100623
100622
100621
100620
100619
100618
100618
100618
100618
100618
100617
100618
100575
100574
100575
100575
100575
100576
100576
100576
100577
100578
100579
100580
100581
100581
100582
100582
100582
100581
100580
100580
100579
100578
100577
100577
100577
100577
100577
100577
100577
100578
100536
100535
100535
100535
100536
100536
100537
100537
100537
100538
100539
100539
100540
100541
100541
100541
100541
100540
100540
100539
100539
100538
100538
100538
100538
100538
100538
100539
100539
100539
100498
100497
100497
100497
100497
100498
100498
100499
100499
100499
100500
100500
100501
100502
100502
100502
100502
100502
100501
100501
100501
100501
100501
100501
100501
100501
100501
100501
100502
100502
100462
100461
100461
100461
100461
100461
100462
100462
100462
100463
100463
100463
100464
100465
100465
100465
100465
100465
100464
100464
100464
100464
100464
100465
100465
100465
100465
100466
100466
100466
100426
100426
100425
100425
100426
100426
100427
100427
100427
100428
100428
100429
100430
100430
100430
100431
100430
100430
100430
100430
100430
100429
100430
100430
100430
100431
100431
100430
100430
100431
100392
100391
100391
100392
100392
100393
100393
100394
100395
100395
100396
100397
100397
100398
100398
100398
100398
100398
100397
100397
100397
100397
100397
100397
100397
100397
100397
100396
100396
100396
100359
100358
100359
100360
100361
100362
100362
100363
100364
100364
100365
100365
100366
100366
100367
100367
100367
100367
100366
100366
100366
100366
100366
100365
100365
100365
100364
100363
100363
100362
100327
100327
100328
100329
100331
100332
100333
100333
100334
100334
100335
100336
100336
100337
100337
100337
100337
100337
100337
100336
100336
100336
100336
100335
100335
100334
100333
100332
100331
100330
100299
100299
100300
100301
100302
100303
100304
100305
100305
100306
100307
100307
100308
100308
100308
100309
100308
100308
100308
100308
100307
100307
100307
100306
100306
100305
100303
100302
100301
100301
100272
100272
100273
100274
100275
100276
100277
100277
100278
100279
100279
100280
100280
100281
100281
100281
100281
100281
100280
100280
100280
100279
100279
100278
100277
100277
100275
100274
100273
100273
100247
100247
100247
100248
100249
100250
100250
100251
100252
100252
100253
100254
100254
100255
100255
100255
100255
100254
100254
100254
100253
100252
100252
100251
100251
100250
100248
100247
100246
100247
100222
100222
100222
100222
100223
100224
100225
100226
100226
100227
100228
100229
100229
100229
100230
100230
100230
100229
100229
100228
100228
100227
100226
100226
100225
100224
100223
100222
100221
100221
100198
100198
100198
100198
100199
100200
100201
100202
100203
100204
100204
100205
100205
100206
100206
100206
100206
100205
100205
100204
100204
100203
100202
100202
100201
100200
100198
100197
100197
100197
100175
100174
100175
100175
100176
100177
100178
100179
100180
100181
100182
100182
100183
100183
100183
100183
100183
100183
100182
100182
100181
100181
100180
100179
100178
100177
100176
100175
100174
100174
100153
100153
100153
100154
100155
100156
100157
100158
100159
100160
100161
100161
100162
100162
100162
100162
100162
100162
100161
100161
100160
100159
100159
100158
100157
100156
100155
100154
100153
100153
100132
100132
100133
100135
100136
100137
100138
100139
100140
100140
100141
100142
100142
100142
100143
100143
100142
100142
100142
100141
100140
100140
100139
100139
100138
100137
100136
100135
100134
100134
100114
100114
100115
100117
100118
100119
100120
100121
100122
100122
100123
100124
100124
100125
100125
100125
100125
100124
100124
100123
100123
100122
100122
100121
100120
100120
100119
100118
100117
100117
100097
100098
100099
100100
100101
100102
100103
100104
100105
100106
100107
100108
100108
100109
100109
100109
100109
100108
100108
100107
100107
100106
100106
100105
100104
100104
100103
100102
100101
100101
100082
100082
100083
100085
100086
100087
100088
100089
100090
100091
100092
100093
100093
100094
100094
100094
100094
100094
100093
100093
100092
100092
100091
100090
100089
100089
100088
100087
100086
100086
100069
100069
100070
100071
100072
100073
100074
100075
100076
100077
100078
100078
100079
100080
100080
100080
100080
100080
100080
100079
100079
100078
100077
100076
100075
100075
100074
100073
100072
100073
100057
100057
100057
100058
100059
100060
100061
100062
100063
100064
100065
100065
100066
100067
100067
100067
100067
100067
100067
100066
100066
100065
100064
100063
100063
100062
100061
100060
100060
100060
100046
100046
100046
100047
100048
100049
100049
100050
100051
100052
100052
100053
100054
100054
100055
100055
100055
100055
100055
100054
100054
100053
100052
100052
100051
100050
100050
100049
100049
100049
100037
100036
100037
100037
100038
100038
100039
100039
100040
100041
100041
100042
100042
100043
100043
100044
100044
100044
100044
100043
100043
100042
100042
100041
100041
100040
100040
100039
100039
100039
100029
100028
100029
100029
100029
100029
100030
100030
100031
100031
100031
100032
100032
100033
100033
100033
100033
100033
100033
100033
100033
100032