/*--------------------------------*- C++ -*----------------------------------*\
| =========                 |                                                 |
| \\      /  F ield         | OpenFOAM: The Open Source CFD Toolbox           |
|  \\    /   O peration     | Version:  v1606+                                |
|   \\  /    A nd           | Web:      www.OpenFOAM.com                      |
|    \\/     M anipulation  |                                                 |
\*---------------------------------------------------------------------------*/
FoamFile
{
    version     2.0;
    format      ascii;
    class       volVectorField;
    location    "0.8";
    object      U.particlesMean;
}
// * * * * * * * * * * * * * * * * * * * * * * * * * * * * * * * * * * * * * //

dimensions      [0 1 -1 0 0 0 0];

internalField   nonuniform List<vector> 
6000
(
(-0.00722836 -0.348146 0)
(-0.000926792 -0.3764 0)
(0.00641023 -0.373265 0)
(0.0136554 -0.373408 0)
(0.0181189 -0.380675 0)
(0.0198192 -0.389926 0)
(0.0191408 -0.397589 0)
(0.0171238 -0.403788 0)
(0.0147784 -0.407651 0)
(0.0121616 -0.414117 0)
(0.00959557 -0.422741 0)
(0.00800108 -0.431046 0)
(0.00563582 -0.437267 0)
(0.00335166 -0.442913 0)
(0.00145349 -0.444771 0)
(-0.000603081 -0.4446 0)
(-0.00272752 -0.442888 0)
(-0.00562805 -0.437216 0)
(-0.00768327 -0.432663 0)
(-0.0102883 -0.422381 0)
(-0.0130433 -0.413989 0)
(-0.0156702 -0.406479 0)
(-0.0180521 -0.40173 0)
(-0.0198098 -0.3956 0)
(-0.0204497 -0.38847 0)
(-0.0184979 -0.37811 0)
(-0.0136771 -0.371388 0)
(-0.00616835 -0.372557 0)
(0.00138852 -0.375389 0)
(0.00767797 -0.349082 0)
(0.0155708 0.0308806 0)
(0.00522993 0.0531831 0)
(0.0113367 0.0485121 0)
(0.0169446 0.0470218 0)
(0.0252488 0.0494997 0)
(0.0306079 0.0507573 0)
(0.0312467 0.0497144 0)
(0.0276216 0.0518677 0)
(0.0230417 0.0529419 0)
(0.0190211 0.0549981 0)
(0.0132347 0.0574247 0)
(0.00794397 0.0559704 0)
(0.00457961 0.0518889 0)
(0.00242414 0.0511543 0)
(0.00156822 0.049769 0)
(0.000723274 0.0495939 0)
(-0.00126449 0.0511884 0)
(-0.00440034 0.0523851 0)
(-0.00864857 0.0572378 0)
(-0.0147197 0.0573889 0)
(-0.020193 0.0546769 0)
(-0.0243938 0.0525475 0)
(-0.0291219 0.0509202 0)
(-0.0323425 0.0495496 0)
(-0.0312271 0.0508191 0)
(-0.0252903 0.0485969 0)
(-0.0166196 0.0465276 0)
(-0.0107649 0.0488865 0)
(-0.00493229 0.0534279 0)
(-0.0152621 0.03017 0)
(-0.00522025 -0.0418956 0)
(-0.000727758 -0.054546 0)
(0.0112578 -0.0576244 0)
(0.0164769 -0.0581045 0)
(0.0257156 -0.0550234 0)
(0.0335165 -0.0457077 0)
(0.037423 -0.0346956 0)
(0.034675 -0.0269977 0)
(0.0293471 -0.0230424 0)
(0.0220252 -0.0210942 0)
(0.0133195 -0.0225939 0)
(0.00767038 -0.0267207 0)
(0.00421115 -0.0323988 0)
(0.00217205 -0.0361491 0)
(0.00204891 -0.036668 0)
(0.00155614 -0.0358257 0)
(-0.000647325 -0.0340048 0)
(-0.0040937 -0.0307345 0)
(-0.0085276 -0.0247886 0)
(-0.0146421 -0.0213363 0)
(-0.0235 -0.0212008 0)
(-0.0303729 -0.0231368 0)
(-0.0356315 -0.027495 0)
(-0.0379642 -0.035863 0)
(-0.0333254 -0.0466585 0)
(-0.025306 -0.0559525 0)
(-0.0160689 -0.0590946 0)
(-0.010698 -0.0585317 0)
(0.00136469 -0.0547916 0)
(0.00564479 -0.0413604 0)
(0.00411783 -0.0402226 0)
(0.00270598 -0.0582221 0)
(0.00658932 -0.061311 0)
(0.0096448 -0.0628043 0)
(0.0178478 -0.0610215 0)
(0.0282269 -0.0533953 0)
(0.038936 -0.0408078 0)
(0.0428502 -0.0278616 0)
(0.0404644 -0.0170028 0)
(0.0332205 -0.00768438 0)
(0.0223956 -0.00431356 0)
(0.0115522 -0.00632682 0)
(0.00249442 -0.0100806 0)
(-0.000601781 -0.0163518 0)
(0.00131993 -0.0212914 0)
(0.00367179 -0.0187417 0)
(0.00281659 -0.0127276 0)
(-0.0030187 -0.00839677 0)
(-0.0129073 -0.00506351 0)
(-0.0236714 -0.00425413 0)
(-0.0337481 -0.00843708 0)
(-0.0407089 -0.0178071 0)
(-0.0427225 -0.0287257 0)
(-0.0385031 -0.0422206 0)
(-0.0275746 -0.0546579 0)
(-0.0172104 -0.0621574 0)
(-0.00913104 -0.0636269 0)
(-0.00608675 -0.0618858 0)
(-0.00219187 -0.0580467 0)
(-0.00377453 -0.0397159 0)
(0.00553592 -0.0550696 0)
(-0.00399521 -0.0719557 0)
(-0.00504083 -0.0783881 0)
(-0.00294925 -0.0897707 0)
(0.00758426 -0.0943026 0)
(0.020897 -0.0883556 0)
(0.0344518 -0.072002 0)
(0.0439557 -0.0532849 0)
(0.0455523 -0.0356776 0)
(0.0395225 -0.0212034 0)
(0.0295408 -0.0145316 0)
(0.0154045 -0.0131553 0)
(0.00251952 -0.0203227 0)
(-0.00218518 -0.0345094 0)
(0.000876079 -0.0442554 0)
(0.00550623 -0.0399795 0)
(0.00552402 -0.0267673 0)
(-0.00283209 -0.016109 0)
(-0.017154 -0.0116726 0)
(-0.0308492 -0.0148598 0)
(-0.0398031 -0.0221344 0)
(-0.0454574 -0.0366173 0)
(-0.0433745 -0.0542179 0)
(-0.0335308 -0.0734301 0)
(-0.020056 -0.0895718 0)
(-0.00687604 -0.0953022 0)
(0.00345329 -0.0906473 0)
(0.00558093 -0.0792324 0)
(0.00452546 -0.071667 0)
(-0.00513528 -0.0537843 0)
(0.00225883 -0.0532832 0)
(-0.0128891 -0.0629818 0)
(-0.0183756 -0.0785324 0)
(-0.0157189 -0.0968736 0)
(-0.00538093 -0.10659 0)
(0.0107373 -0.105003 0)
(0.0280669 -0.0890121 0)
(0.0423741 -0.0654543 0)
(0.0482694 -0.0430994 0)
(0.0447274 -0.0261617 0)
(0.0357932 -0.019262 0)
(0.0217319 -0.0175017 0)
(0.00792851 -0.0262798 0)
(0.000863272 -0.046027 0)
(0.00117363 -0.0589633 0)
(0.00486793 -0.0541143 0)
(0.00347058 -0.0353862 0)
(-0.00750908 -0.0200427 0)
(-0.0232506 -0.0150529 0)
(-0.0370105 -0.0195877 0)
(-0.0451054 -0.0271374 0)
(-0.0478723 -0.0441073 0)
(-0.0414989 -0.0664656 0)
(-0.0267795 -0.0904238 0)
(-0.00956128 -0.10573 0)
(0.00626877 -0.107134 0)
(0.0162506 -0.0973034 0)
(0.0187342 -0.0790139 0)
(0.0132115 -0.062221 0)
(-0.00297147 -0.0517939 0)
(-0.00384661 -0.0378675 0)
(-0.0194824 -0.0571947 0)
(-0.0255328 -0.0779467 0)
(-0.0247019 -0.0986062 0)
(-0.016266 -0.112839 0)
(0.000136131 -0.11577 0)
(0.0188799 -0.102974 0)
(0.0396021 -0.0778361 0)
(0.0491657 -0.0477985 0)
(0.0490772 -0.0273316 0)
(0.0397649 -0.0186421 0)
(0.0268068 -0.0171728 0)
(0.0142071 -0.0280649 0)
(0.00637989 -0.0515142 0)
(0.00212895 -0.0658587 0)
(0.00232986 -0.0607395 0)
(-0.00240907 -0.0402744 0)
(-0.0126843 -0.021272 0)
(-0.0275685 -0.014661 0)
(-0.0404262 -0.0187763 0)
(-0.0492627 -0.0283486 0)
(-0.0484751 -0.0489652 0)
(-0.0382275 -0.0792759 0)
(-0.0174445 -0.104187 0)
(0.0011463 -0.116319 0)
(0.0170968 -0.113054 0)
(0.0251598 -0.0984687 0)
(0.0257842 -0.0776474 0)
(0.0193282 -0.0558117 0)
(0.00301515 -0.0364686 0)
(-0.00348513 -0.0258928 0)
(-0.0197829 -0.045436 0)
(-0.0244036 -0.0683481 0)
(-0.023053 -0.091426 0)
(-0.0182233 -0.109864 0)
(-0.0074354 -0.11749 0)
(0.00834148 -0.108189 0)
(0.0288967 -0.0849639 0)
(0.0444007 -0.0501545 0)
(0.0486488 -0.0264716 0)
(0.0389822 -0.0170474 0)
(0.0288093 -0.0177796 0)
(0.0203875 -0.0287497 0)
(0.012319 -0.0544945 0)
(0.00409738 -0.0693643 0)
(-0.00310864 -0.0640028 0)
(-0.00984984 -0.0443719 0)
(-0.018046 -0.0215656 0)
(-0.0287108 -0.0160925 0)
(-0.039294 -0.0168701 0)
(-0.0483672 -0.0273745 0)
(-0.0434206 -0.0513671 0)
(-0.0274881 -0.0863118 0)
(-0.00728065 -0.109483 0)
(0.00848802 -0.117933 0)
(0.0189538 -0.110145 0)
(0.023449 -0.0913154 0)
(0.0242723 -0.0681426 0)
(0.0196046 -0.0445625 0)
(0.0024658 -0.0234291 0)
(-0.00385888 -0.0200593 0)
(-0.0152058 -0.0329819 0)
(-0.0185324 -0.0572771 0)
(-0.0184981 -0.0831924 0)
(-0.0177306 -0.104731 0)
(-0.0112174 -0.118326 0)
(-0.00164872 -0.112539 0)
(0.0157746 -0.0888145 0)
(0.035918 -0.0521009 0)
(0.0448715 -0.0222561 0)
(0.034497 -0.0098517 0)
(0.0260968 -0.00999114 0)
(0.0239969 -0.0240202 0)
(0.0165223 -0.0500837 0)
(0.00537133 -0.0646105 0)
(-0.009032 -0.0592955 0)
(-0.016377 -0.0401626 0)
(-0.0229421 -0.0136241 0)
(-0.0253526 -0.00935525 0)
(-0.0342811 -0.00984762 0)
(-0.0437541 -0.0231493 0)
(-0.0348413 -0.0532685 0)
(-0.014536 -0.0899114 0)
(0.00228798 -0.114272 0)
(0.0112906 -0.118363 0)
(0.0174982 -0.10441 0)
(0.0183417 -0.0827433 0)
(0.0180357 -0.0567468 0)
(0.0146728 -0.03232 0)
(0.00344088 -0.0193688 0)
(0.000440865 -0.00967079 0)
(-0.00861679 -0.018853 0)
(-0.0108235 -0.0443856 0)
(-0.0120774 -0.0734299 0)
(-0.013543 -0.096982 0)
(-0.0107363 -0.112397 0)
(-0.00781437 -0.111473 0)
(0.00622543 -0.0914089 0)
(0.0219882 -0.0500014 0)
(0.036034 -0.0150865 0)
(0.0286508 0.000791853 0)
(0.0217323 0.00125222 0)
(0.0232702 -0.0173047 0)
(0.0169837 -0.0410327 0)
(0.00484774 -0.0553437 0)
(-0.013709 -0.05128 0)
(-0.0206007 -0.0327141 0)
(-0.025593 -0.00636061 0)
(-0.0184411 0.00125864 0)
(-0.0264272 -0.00115595 0)
(-0.0345622 -0.0162419 0)
(-0.020943 -0.0513061 0)
(-0.00523436 -0.0929283 0)
(0.00773632 -0.112052 0)
(0.0110399 -0.112331 0)
(0.0137263 -0.0967121 0)
(0.0119517 -0.0730993 0)
(0.0103499 -0.0439825 0)
(0.00811682 -0.0184346 0)
(-0.000679406 -0.00908326 0)
(0.00241664 -0.00340619 0)
(-0.00390937 -0.0113985 0)
(-0.00399359 -0.0366727 0)
(-0.00451973 -0.0690714 0)
(-0.00828365 -0.0917496 0)
(-0.00916459 -0.107891 0)
(-0.0118152 -0.108687 0)
(-0.000369101 -0.0907133 0)
(0.00885311 -0.0525579 0)
(0.022865 -0.00977483 0)
(0.0208926 0.00737292 0)
(0.0111991 0.00932171 0)
(0.020595 -0.0102001 0)
(0.0161174 -0.0320771 0)
(0.00382069 -0.0444837 0)
(-0.0165275 -0.0426341 0)
(-0.0215848 -0.0270872 0)
(-0.0210463 -0.00573185 0)
(-0.00555176 0.0102674 0)
(-0.0160652 0.00373529 0)
(-0.0201293 -0.0119 0)
(-0.00809211 -0.052836 0)
(0.00230856 -0.0904563 0)
(0.0120883 -0.108877 0)
(0.00928155 -0.107397 0)
(0.00796987 -0.0915261 0)
(0.0039168 -0.0689282 0)
(0.0031619 -0.0365321 0)
(0.00290717 -0.0114423 0)
(-0.00259314 -0.00325283 0)
(0.00351668 -0.00147199 0)
(-0.00117586 -0.00979242 0)
(0.00195482 -0.0323977 0)
(0.00341248 -0.0652637 0)
(-0.00175503 -0.0892346 0)
(-0.00361371 -0.104455 0)
(-0.0116083 -0.104218 0)
(-0.00856313 -0.0888619 0)
(-0.00136609 -0.0544769 0)
(0.00732483 -0.0107287 0)
(0.0103751 0.0106748 0)
(0.00189455 0.0123301 0)
(0.0133428 -0.00585721 0)
(0.0140462 -0.0247246 0)
(0.00409581 -0.034364 0)
(-0.0156068 -0.0340612 0)
(-0.0183837 -0.0243177 0)
(-0.0104113 -0.00841697 0)
(0.00738131 0.0104791 0)
(-0.0016954 0.00556678 0)
(-0.00370069 -0.0123163 0)
(0.00414001 -0.0518362 0)
(0.0103298 -0.087436 0)
(0.0113549 -0.103637 0)
(0.0037138 -0.103741 0)
(0.00128192 -0.0886882 0)
(-0.00427042 -0.0651997 0)
(-0.00277925 -0.0322615 0)
(0.00053072 -0.00990633 0)
(-0.00377135 -0.00136505 0)
(0.00422976 -0.00212644 0)
(0.00110757 -0.0109849 0)
(0.00747714 -0.0308402 0)
(0.00969584 -0.0623565 0)
(0.00417474 -0.0867823 0)
(-0.0011403 -0.102789 0)
(-0.00946659 -0.100004 0)
(-0.0136619 -0.0840424 0)
(-0.0138214 -0.0545617 0)
(-0.00559289 -0.00947384 0)
(-0.00223914 0.0140795 0)
(-0.00847176 0.0161115 0)
(0.00417911 -0.00228335 0)
(0.0123886 -0.0177028 0)
(0.00339451 -0.0243035 0)
(-0.0132007 -0.0259394 0)
(-0.0142986 -0.0239657 0)
(0.00348537 -0.0121344 0)
(0.0182184 0.0118667 0)
(0.0127131 0.00906382 0)
(0.0101541 -0.00860418 0)
(0.0163413 -0.0492437 0)
(0.0149422 -0.0820791 0)
(0.00905485 -0.0991403 0)
(0.00123057 -0.100827 0)
(-0.00534263 -0.0856768 0)
(-0.0109401 -0.0615561 0)
(-0.00841099 -0.0307535 0)
(-0.00165354 -0.0108336 0)
(-0.00428738 -0.00190166 0)
(0.00563617 -0.00286582 0)
(0.00335798 -0.0121527 0)
(0.0132969 -0.0291222 0)
(0.0156334 -0.0579551 0)
(0.00938777 -0.0836274 0)
(0.000711634 -0.0989407 0)
(-0.0101628 -0.0958407 0)
(-0.0170119 -0.0786817 0)
(-0.0219185 -0.0509535 0)
(-0.0193516 -0.00775528 0)
(-0.0151737 0.014262 0)
(-0.0147694 0.0161613 0)
(-0.00616503 -0.00837212 0)
(0.0110689 -0.0165791 0)
(0.00466137 -0.0187967 0)
(-0.00929223 -0.0213686 0)
(-0.00882208 -0.0264174 0)
(0.0145176 -0.0200406 0)
(0.0258929 0.0079492 0)
(0.0259295 0.00997749 0)
(0.0256031 -0.00523945 0)
(0.0250205 -0.0426017 0)
(0.0208242 -0.076622 0)
(0.0100961 -0.0940005 0)
(-0.000914127 -0.0958271 0)
(-0.0107732 -0.0821541 0)
(-0.0165635 -0.0561186 0)
(-0.0129674 -0.0281016 0)
(-0.00292569 -0.0108682 0)
(-0.00510964 -0.00139367 0)
(0.0074781 -0.00398443 0)
(0.00549671 -0.0139702 0)
(0.0188922 -0.0275518 0)
(0.0215743 -0.0535334 0)
(0.0126556 -0.0793717 0)
(0.000266726 -0.0904902 0)
(-0.0145931 -0.0875761 0)
(-0.0251804 -0.0720041 0)
(-0.0317945 -0.0440267 0)
(-0.0332579 -0.00443019 0)
(-0.0297155 0.014672 0)
(-0.0180945 0.0138816 0)
(-0.00806439 -0.0129466 0)
(0.00920857 -0.0188259 0)
(0.00612409 -0.01944 0)
(0.0016884 -0.0218419 0)
(0.00337674 -0.0273427 0)
(0.0207878 -0.0335419 0)
(0.0294714 0.00557302 0)
(0.0405882 0.0122841 0)
(0.0390752 -1.69535e-05 0)
(0.0349227 -0.0331164 0)
(0.0287325 -0.0726037 0)
(0.0137963 -0.0876587 0)
(-0.000300206 -0.089528 0)
(-0.0127338 -0.0800435 0)
(-0.0191126 -0.0523966 0)
(-0.015324 -0.0252783 0)
(-0.00307707 -0.0105261 0)
(-0.00601273 -0.000413999 0)
(0.00884354 -0.00450786 0)
(0.00570842 -0.0156161 0)
(0.0208795 -0.0276603 0)
(0.0245962 -0.0516613 0)
(0.0189073 -0.0764708 0)
(0.00222788 -0.0800582 0)
(-0.0220188 -0.0774674 0)
(-0.0402071 -0.0636369 0)
(-0.043144 -0.0366 0)
(-0.0428858 -0.00455826 0)
(-0.0393068 0.0106062 0)
(-0.0260393 0.00643339 0)
(-0.0138814 -0.00895694 0)
(0.00364744 -0.0315766 0)
(0.0181322 -0.0327164 0)
(0.0138078 -0.0339597 0)
(0.0232731 -0.0409174 0)
(0.0305043 -0.0457733 0)
(0.0369621 -0.00291018 0)
(0.0504591 0.0117752 0)
(0.0479159 0.00234675 0)
(0.0464648 -0.0230447 0)
(0.0369001 -0.0649823 0)
(0.017118 -0.0824302 0)
(0.0022149 -0.0861691 0)
(-0.0113361 -0.0770718 0)
(-0.0173053 -0.0475973 0)
(-0.0139704 -0.0230479 0)
(-0.00109902 -0.0094741 0)
(-0.00634124 0.00128805 0)
(0.00953219 -0.00666093 0)
(0.00689689 -0.0163556 0)
(0.0223175 -0.0260736 0)
(0.0273417 -0.0436084 0)
(0.0158036 -0.0702707 0)
(0.000243813 -0.0754517 0)
(-0.0231122 -0.0754195 0)
(-0.0508541 -0.059546 0)
(-0.0560416 -0.0271788 0)
(-0.0513814 -0.00410042 0)
(-0.0437355 0.00512095 0)
(-0.0290111 0.00198032 0)
(-0.00995761 -0.0186856 0)
(0.0012495 -0.0246705 0)
(0.0230053 -0.0381571 0)
(0.0270982 -0.050714 0)
(0.0374285 -0.0549521 0)
(0.0313975 -0.0553228 0)
(0.0390842 -0.00318154 0)
(0.0521946 0.0128014 0)
(0.0548326 0.00776617 0)
(0.055573 -0.0139237 0)
(0.0432674 -0.0546509 0)
(0.0236701 -0.074233 0)
(0.00436935 -0.0800583 0)
(-0.0112028 -0.0709678 0)
(-0.0242962 -0.037651 0)
(-0.0197871 -0.0200179 0)
(-0.00557814 -0.00952716 0)
(-0.00852963 0.00306203 0)
(0.0103742 -0.00490543 0)
(0.0128083 -0.0185306 0)
(0.0294482 -0.0207957 0)
(0.0362541 -0.0339531 0)
(0.0193851 -0.0660633 0)
(-0.00228322 -0.0836573 0)
(-0.0307384 -0.0786418 0)
(-0.0504389 -0.0610609 0)
(-0.0627058 -0.0257616 0)
(-0.055603 -0.0076955 0)
(-0.0415129 -0.00584575 0)
(-0.0240399 -0.0111408 0)
(-0.00440438 -0.0388774 0)
(0.00575513 -0.0395596 0)
(0.0268059 -0.0521753 0)
(0.0318295 -0.0614828 0)
(0.0412602 -0.0679208 0)
(0.0340757 -0.0684864 0)
(0.0339774 -0.00345648 0)
(0.0504317 0.0141199 0)
(0.056343 0.00931389 0)
(0.0601732 -0.00695497 0)
(0.0525436 -0.0445604 0)
(0.0302648 -0.0680822 0)
(0.00196108 -0.0750508 0)
(-0.0228403 -0.058793 0)
(-0.0409269 -0.0257355 0)
(-0.0315481 -0.0134091 0)
(-0.014213 -0.00938274 0)
(-0.0126371 0.00418995 0)
(0.012126 -0.000484668 0)
(0.0186938 -0.018439 0)
(0.0329794 -0.02649 0)
(0.0435665 -0.0310512 0)
(0.0254774 -0.0584077 0)
(0.00352835 -0.0782461 0)
(-0.0272503 -0.0848341 0)
(-0.0501644 -0.065917 0)
(-0.0572255 -0.0311083 0)
(-0.0528304 -0.0205736 0)
(-0.0353177 -0.0210976 0)
(-0.0132307 -0.0328964 0)
(0.00265414 -0.0646635 0)
(0.0156118 -0.0748568 0)
(0.0294667 -0.0755671 0)
(0.0327329 -0.0781917 0)
(0.0342922 -0.087614 0)
(0.0291568 -0.0777273 0)
(0.0241589 -0.0160738 0)
(0.042843 0.0100501 0)
(0.0534657 0.0058204 0)
(0.0673912 -0.00605724 0)
(0.0621083 -0.0429138 0)
(0.0269344 -0.0748805 0)
(-0.011815 -0.0636928 0)
(-0.0340773 -0.0440327 0)
(-0.0498246 -0.0257199 0)
(-0.037651 -0.0232648 0)
(-0.0226439 -0.01583 0)
(-0.0166204 0.0019937 0)
(0.014037 -3.50186e-05 0)
(0.0227863 -0.0240521 0)
(0.0318213 -0.04466 0)
(0.0358443 -0.0469888 0)
(0.0200318 -0.0567778 0)
(-0.00349587 -0.0741157 0)
(-0.0270833 -0.0823889 0)
(-0.0464906 -0.0883032 0)
(-0.0531202 -0.0593454 0)
(-0.0454647 -0.0459208 0)
(-0.0256354 -0.0493565 0)
(-0.0054864 -0.0598089 0)
(0.0137161 -0.0976095 0)
(0.0223148 -0.103219 0)
(0.0322474 -0.0952561 0)
(0.0348127 -0.0942302 0)
(0.0298047 -0.09864 0)
(0.0187072 -0.0869107 0)
(0.0171381 -0.0281722 0)
(0.0357281 -0.00259828 0)
(0.0489532 -0.00783262 0)
(0.0661542 -0.0271712 0)
(0.0485386 -0.0705266 0)
(0.0220849 -0.0739698 0)
(-0.00537745 -0.0642218 0)
(-0.03048 -0.0483069 0)
(-0.0424022 -0.0463284 0)
(-0.0400042 -0.0514771 0)
(-0.0289567 -0.0284989 0)
(-0.0199128 -0.00724151 0)
(0.014259 -0.0168662 0)
(0.02306 -0.0432763 0)
(0.024383 -0.0736409 0)
(0.0161585 -0.076984 0)
(0.00156104 -0.0718098 0)
(-0.0186383 -0.0702486 0)
(-0.0392081 -0.0765696 0)
(-0.0476396 -0.0982611 0)
(-0.0440326 -0.096375 0)
(-0.0399243 -0.0787161 0)
(-0.0229669 -0.0669376 0)
(-0.000612205 -0.0767381 0)
(0.0182937 -0.104073 0)
(0.0260013 -0.111881 0)
(0.0343758 -0.105409 0)
(0.0333251 -0.101047 0)
(0.0240562 -0.0962935 0)
(0.0110855 -0.0771707 0)
(0.0124187 -0.0398469 0)
(0.0273188 -0.0175578 0)
(0.0499529 -0.0417909 0)
(0.0412581 -0.0707908 0)
(0.0349732 -0.0799171 0)
(0.0232909 -0.0683654 0)
(0.00276042 -0.0633744 0)
(-0.0181253 -0.0724929 0)
(-0.0296401 -0.0804489 0)
(-0.0374796 -0.0824084 0)
(-0.0351049 -0.0597406 0)
(-0.0210558 -0.0396175 0)
(0.0127545 -0.0718235 0)
(0.0182181 -0.0883656 0)
(0.0098542 -0.0850024 0)
(6.98144e-05 -0.0705013 0)
(-0.0106057 -0.0604928 0)
(-0.020781 -0.0547672 0)
(-0.0271083 -0.0726117 0)
(-0.0346413 -0.102237 0)
(-0.0434535 -0.108813 0)
(-0.0346039 -0.0954531 0)
(-0.0217198 -0.0784412 0)
(-0.00176234 -0.0770007 0)
(0.0197528 -0.100621 0)
(0.0270236 -0.109529 0)
(0.0344725 -0.10119 0)
(0.0301125 -0.0930355 0)
(0.0161935 -0.0842415 0)
(0.0032506 -0.0605501 0)
(0.00941772 -0.0366883 0)
(0.0279566 -0.0360869 0)
(0.0322083 -0.0638136 0)
(0.0245495 -0.0806248 0)
(0.0197812 -0.0844234 0)
(0.0128866 -0.0708615 0)
(0.00590395 -0.0644129 0)
(-0.00245135 -0.0762792 0)
(-0.0101449 -0.0877068 0)
(-0.0168317 -0.0994585 0)
(-0.0224771 -0.108135 0)
(-0.0160979 -0.0946589 0)
(0.00994137 -0.0955637 0)
(0.00747662 -0.0948653 0)
(0.00317932 -0.0769784 0)
(-0.0048348 -0.0628977 0)
(-0.0109277 -0.0564286 0)
(-0.0103067 -0.0567438 0)
(-0.010443 -0.0750922 0)
(-0.0131816 -0.099515 0)
(-0.0243566 -0.110568 0)
(-0.035633 -0.103304 0)
(-0.0216704 -0.0819865 0)
(-0.00315116 -0.07693 0)
(0.0188629 -0.0967731 0)
(0.026216 -0.0988244 0)
(0.0299002 -0.0891686 0)
(0.0228943 -0.075576 0)
(0.00519022 -0.063789 0)
(-0.00299953 -0.0442488 0)
(0.00787457 -0.0333325 0)
(0.0199712 -0.0508667 0)
(0.0188449 -0.0722439 0)
(0.0114604 -0.0870248 0)
(0.00576786 -0.0895003 0)
(0.00131215 -0.0752918 0)
(0.00155177 -0.0684325 0)
(0.00324574 -0.0708585 0)
(-0.00124468 -0.0805734 0)
(-0.00535345 -0.0957992 0)
(-0.00559859 -0.114731 0)
(-0.0075821 -0.113671 0)
(0.00380954 -0.0913359 0)
(-0.0013751 -0.0871326 0)
(-0.00416535 -0.0675606 0)
(-0.00912655 -0.0551431 0)
(-0.00497137 -0.0550977 0)
(0.00482229 -0.0658109 0)
(0.00805645 -0.0818921 0)
(0.00631056 -0.102994 0)
(-0.00314839 -0.111017 0)
(-0.0212851 -0.108136 0)
(-0.0279038 -0.0894146 0)
(-0.0052085 -0.0771467 0)
(0.0126777 -0.0905681 0)
(0.0194504 -0.0868786 0)
(0.0206597 -0.0779448 0)
(0.0111617 -0.059259 0)
(-0.00564532 -0.0440431 0)
(-0.0067591 -0.0342567 0)
(0.00682177 -0.0329542 0)
(0.0148899 -0.0546874 0)
(0.010265 -0.0731151 0)
(8.00819e-05 -0.0877818 0)
(-0.00736483 -0.0900056 0)
(-0.00962492 -0.080599 0)
(-0.00733241 -0.0733038 0)
(8.05962e-05 -0.0662033 0)
(0.00370468 -0.0701698 0)
(0.00111824 -0.0846088 0)
(6.92815e-05 -0.1039 0)
(-0.000826028 -0.106773 0)
(-0.000592406 -0.0831945 0)
(-0.00123551 -0.0788149 0)
(-0.00920397 -0.0590596 0)
(-0.00607542 -0.0540089 0)
(0.00798208 -0.0625376 0)
(0.0192299 -0.0758123 0)
(0.0232502 -0.0895484 0)
(0.0209335 -0.10845 0)
(0.0110761 -0.109138 0)
(-0.00582734 -0.105081 0)
(-0.0236405 -0.0992776 0)
(-0.0195678 -0.0874015 0)
(-0.00159736 -0.08543 0)
(0.00818016 -0.0758645 0)
(0.00835152 -0.0629861 0)
(-0.00289226 -0.042715 0)
(-0.0131374 -0.0278892 0)
(-0.0061438 -0.0245212 0)
(0.00559683 -0.0318348 0)
(0.0106435 -0.052546 0)
(0.0040172 -0.0692669 0)
(-0.00758501 -0.0825683 0)
(-0.0166391 -0.0892676 0)
(-0.0191321 -0.0840722 0)
(-0.0170304 -0.0775814 0)
(-0.0100367 -0.0699592 0)
(0.0014583 -0.0655863 0)
(0.00587118 -0.0732585 0)
(-0.000193817 -0.0928656 0)
(0.00186893 -0.095921 0)
(-0.00469062 -0.0725024 0)
(-0.00758916 -0.0637774 0)
(-0.00803628 -0.0536266 0)
(0.00901897 -0.0606196 0)
(0.0254289 -0.0747289 0)
(0.0319344 -0.0837436 0)
(0.0353865 -0.0967954 0)
(0.0334832 -0.112201 0)
(0.0218275 -0.111974 0)
(0.00414126 -0.104431 0)
(-0.0123075 -0.0944623 0)
(-0.0234848 -0.0864916 0)
(-0.0157808 -0.0843428 0)
(-0.00159744 -0.0690496 0)
(-0.00416908 -0.0461941 0)
(-0.0124646 -0.0289163 0)
(-0.0128652 -0.0190195 0)
(-0.00568541 -0.0200818 0)
(0.00693557 -0.0289149 0)
(0.00719578 -0.0474157 0)
(-0.000142636 -0.066666 0)
(-0.0127194 -0.0795176 0)
(-0.0211748 -0.0874021 0)
(-0.0266328 -0.0854298 0)
(-0.0259344 -0.0770002 0)
(-0.0226271 -0.0722776 0)
(-0.0110528 -0.0666292 0)
(0.00525537 -0.0643334 0)
(0.00575332 -0.0739351 0)
(0.00634135 -0.0817063 0)
(-0.0101465 -0.0580482 0)
(-0.00296392 -0.0517602 0)
(0.00960384 -0.0608423 0)
(0.0310501 -0.0753567 0)
(0.0399492 -0.08305 0)
(0.0433025 -0.0901229 0)
(0.0454778 -0.10216 0)
(0.0423584 -0.11451 0)
(0.0297139 -0.11161 0)
(0.0126974 -0.105776 0)
(-0.00541864 -0.0932597 0)
(-0.0177384 -0.0819157 0)
(-0.0206217 -0.078114 0)
(-0.0145633 -0.063771 0)
(-0.0101786 -0.0412871 0)
(-0.0117857 -0.0289325 0)
(-0.00989495 -0.0120002 0)
(-0.00189663 -0.0127902 0)
(0.00842186 -0.0242716 0)
(0.00556366 -0.0417265 0)
(-0.00441376 -0.0599894 0)
(-0.0129153 -0.070561 0)
(-0.0225014 -0.0821662 0)
(-0.0370735 -0.082744 0)
(-0.0345066 -0.0739284 0)
(-0.0276622 -0.0692179 0)
(-0.0253541 -0.0727925 0)
(-0.00848802 -0.0680018 0)
(0.0034281 -0.0603118 0)
(0.0119717 -0.0637606 0)
(-0.0100067 -0.0402382 0)
(0.00354005 -0.0543991 0)
(0.0253584 -0.0712401 0)
(0.0402625 -0.0758028 0)
(0.0461401 -0.0773949 0)
(0.0455765 -0.0850637 0)
(0.0489453 -0.0990217 0)
(0.0474772 -0.112333 0)
(0.0360303 -0.110221 0)
(0.018702 -0.102847 0)
(-0.000658255 -0.0913825 0)
(-0.0154615 -0.0784157 0)
(-0.0198544 -0.0703072 0)
(-0.0222959 -0.0649861 0)
(-0.0124559 -0.0399135 0)
(-0.0150842 -0.0319486 0)
(-0.00563059 -0.00734615 0)
(0.0023443 -0.00820065 0)
(0.0100612 -0.0197234 0)
(0.00559071 -0.0335958 0)
(-0.00675879 -0.0489312 0)
(-0.0145781 -0.0619957 0)
(-0.0252324 -0.0724325 0)
(-0.0479742 -0.0753161 0)
(-0.042071 -0.0719855 0)
(-0.0338683 -0.0685539 0)
(-0.0272879 -0.0693734 0)
(-0.0195003 -0.0723126 0)
(-0.00355389 -0.0596676 0)
(0.010898 -0.0421591 0)
(0.00238213 -0.0300601 0)
(0.0143052 -0.0666519 0)
(0.0324798 -0.0788468 0)
(0.043417 -0.0771106 0)
(0.0446389 -0.0690691 0)
(0.0416465 -0.075554 0)
(0.0448135 -0.0916345 0)
(0.0475843 -0.105663 0)
(0.0397009 -0.108609 0)
(0.0235201 -0.100853 0)
(0.00301735 -0.0876027 0)
(-0.0132777 -0.07596 0)
(-0.0185944 -0.064307 0)
(-0.0234771 -0.0643194 0)
(-0.0166608 -0.0338892 0)
(-0.0104167 -0.0304392 0)
(-0.00132036 -0.00356822 0)
(0.0056664 -0.00345084 0)
(0.010396 -0.012828 0)
(0.00461509 -0.0235298 0)
(-0.00867123 -0.0380403 0)
(-0.0186222 -0.0491957 0)
(-0.0272348 -0.062064 0)
(-0.0533333 -0.0718405 0)
(-0.050008 -0.0742069 0)
(-0.0406361 -0.0714349 0)
(-0.0316958 -0.072108 0)
(-0.0211756 -0.0745564 0)
(-0.0118898 -0.0698575 0)
(-0.00409674 -0.0319694 0)
(0.0113083 -0.0384973 0)
(0.0189439 -0.0741062 0)
(0.0316247 -0.0798471 0)
(0.0401639 -0.071587 0)
(0.0433977 -0.0637781 0)
(0.0444755 -0.0721148 0)
(0.0451677 -0.0862011 0)
(0.0458958 -0.0982818 0)
(0.0416561 -0.104552 0)
(0.0271436 -0.101339 0)
(0.00533086 -0.086255 0)
(-0.011851 -0.0723307 0)
(-0.0195354 -0.0618778 0)
(-0.0227374 -0.0630569 0)
(-0.0216611 -0.0399862 0)
(-0.0041338 -0.0274132 0)
(0.000934556 -0.0047815 0)
(0.00732479 -7.49929e-05 0)
(0.0102263 -0.00682673 0)
(0.00370443 -0.0156829 0)
(-0.00919958 -0.026943 0)
(-0.0193676 -0.0427046 0)
(-0.0259309 -0.0552678 0)
(-0.0563135 -0.0689195 0)
(-0.056713 -0.0766903 0)
(-0.0477048 -0.0754704 0)
(-0.0380539 -0.0777521 0)
(-0.0259451 -0.0805465 0)
(-0.0165847 -0.0791265 0)
(-0.0144533 -0.0494023 0)
(0.0167646 -0.0518313 0)
(0.0210853 -0.0860413 0)
(0.0296231 -0.0850933 0)
(0.0379834 -0.0727946 0)
(0.0428165 -0.065113 0)
(0.0456918 -0.0718654 0)
(0.0480034 -0.0819395 0)
(0.0440414 -0.0969633 0)
(0.0400998 -0.104494 0)
(0.0299709 -0.104221 0)
(0.0082399 -0.0965286 0)
(-0.0114665 -0.0721322 0)
(-0.0200597 -0.0601002 0)
(-0.0235184 -0.0637988 0)
(-0.0250612 -0.0521653 0)
(-0.00950841 -0.0252145 0)
(-0.00113155 -0.00517625 0)
(0.00487549 0.00188051 0)
(0.00759106 -0.000476859 0)
(-3.94147e-05 -0.0141924 0)
(-0.0114437 -0.0360149 0)
(-0.0211591 -0.0432962 0)
(-0.026046 -0.050215 0)
(-0.0502132 -0.0617549 0)
(-0.0598759 -0.0772037 0)
(-0.0535037 -0.0809892 0)
(-0.0451328 -0.0866451 0)
(-0.033314 -0.0914541 0)
(-0.0199699 -0.0902943 0)
(-0.0173767 -0.0622258 0)
(0.0190303 -0.075889 0)
(0.0214668 -0.101117 0)
(0.0286808 -0.0931187 0)
(0.0376663 -0.0781836 0)
(0.040823 -0.0690286 0)
(0.0457714 -0.0738559 0)
(0.0464933 -0.0837008 0)
(0.0410689 -0.0995524 0)
(0.0365793 -0.107604 0)
(0.0277289 -0.105918 0)
(0.0142875 -0.104874 0)
(-0.00801606 -0.0935979 0)
(-0.0221261 -0.0621385 0)
(-0.0250057 -0.0633464 0)
(-0.0277954 -0.0563473 0)
(-0.0224461 -0.0330726 0)
(-0.0056567 -0.0154043 0)
(0.00305239 -0.00329033 0)
(0.00779983 -0.0113447 0)
(-0.00286234 -0.0417734 0)
(-0.0141776 -0.0407366 0)
(-0.0207616 -0.0390279 0)
(-0.0243636 -0.0428942 0)
(-0.0332757 -0.0514632 0)
(-0.0553778 -0.0705949 0)
(-0.0562373 -0.082845 0)
(-0.0495574 -0.0931206 0)
(-0.0370509 -0.100898 0)
(-0.0227659 -0.101587 0)
(-0.0194186 -0.0772901 0)
(0.0192644 -0.0969199 0)
(0.0211304 -0.110285 0)
(0.0281666 -0.0993348 0)
(0.0362245 -0.0829589 0)
(0.0383552 -0.0751016 0)
(0.044869 -0.077194 0)
(0.0438246 -0.0842933 0)
(0.0414895 -0.0954891 0)
(0.0327804 -0.106376 0)
(0.026053 -0.106619 0)
(0.0174954 -0.10526 0)
(-0.000438586 -0.100439 0)
(-0.0213143 -0.0832941 0)
(-0.0274628 -0.0622774 0)
(-0.0287742 -0.0539576 0)
(-0.023889 -0.0388516 0)
(-0.0128299 -0.0301923 0)
(0.000401824 -0.0280366 0)
(0.000670623 -0.0537613 0)
(-0.0131874 -0.052693 0)
(-0.0157437 -0.0392784 0)
(-0.0197917 -0.0322172 0)
(-0.0221206 -0.0329919 0)
(-0.0251044 -0.0419067 0)
(-0.0362168 -0.0594687 0)
(-0.0518898 -0.0801545 0)
(-0.0499222 -0.0975044 0)
(-0.038577 -0.108904 0)
(-0.0249183 -0.110917 0)
(-0.0201951 -0.0925415 0)
(0.0189401 -0.113347 0)
(0.020842 -0.118848 0)
(0.0281866 -0.105666 0)
(0.0337383 -0.0884005 0)
(0.0360999 -0.0813525 0)
(0.0441588 -0.0790821 0)
(0.0437769 -0.0811537 0)
(0.038754 -0.0901214 0)
(0.0326018 -0.102157 0)
(0.0257683 -0.104117 0)
(0.0182851 -0.101433 0)
(0.00333761 -0.093663 0)
(-0.0168399 -0.0810779 0)
(-0.0291388 -0.0643562 0)
(-0.0296684 -0.0517485 0)
(-0.0230331 -0.0397186 0)
(-0.012485 -0.0441682 0)
(-0.016566 -0.103569 0)
(-0.0214968 -0.0857114 0)
(-0.0243633 -0.0589723 0)
(-0.0211515 -0.039382 0)
(-0.0207412 -0.0265679 0)
(-0.0196903 -0.0219018 0)
(-0.0203979 -0.030093 0)
(-0.023848 -0.0480493 0)
(-0.0320391 -0.0682923 0)
(-0.0418033 -0.0963984 0)
(-0.0371614 -0.114197 0)
(-0.0258708 -0.119611 0)
(-0.0208339 -0.10835 0)
(0.0190378 -0.129931 0)
(0.0202251 -0.128305 0)
(0.0286859 -0.113135 0)
(0.0350848 -0.0947819 0)
(0.0385668 -0.0839296 0)
(0.0441699 -0.0791403 0)
(0.0426161 -0.0776103 0)
(0.0387213 -0.0901525 0)
(0.03319 -0.0978 0)
(0.02695 -0.0989907 0)
(0.0194771 -0.0931524 0)
(0.00447157 -0.0840105 0)
(-0.0149058 -0.0733409 0)
(-0.0278348 -0.0601308 0)
(-0.0310471 -0.0507029 0)
(-0.0243588 -0.0447507 0)
(-0.0169907 -0.0755041 0)
(-0.0294099 -0.121566 0)
(-0.0385466 -0.104852 0)
(-0.0398442 -0.0704554 0)
(-0.0309837 -0.0427753 0)
(-0.0252327 -0.0255962 0)
(-0.0209918 -0.0159436 0)
(-0.016903 -0.0190332 0)
(-0.0173501 -0.0359206 0)
(-0.0184769 -0.057796 0)
(-0.0216365 -0.0822281 0)
(-0.0286709 -0.109289 0)
(-0.0260952 -0.123086 0)
(-0.0206624 -0.124183 0)
(0.0173566 -0.145005 0)
(0.0192753 -0.13764 0)
(0.0274911 -0.120773 0)
(0.0355641 -0.098647 0)
(0.0394072 -0.0825514 0)
(0.044477 -0.0770006 0)
(0.0442549 -0.0817384 0)
(0.0412149 -0.0919538 0)
(0.0372777 -0.097335 0)
(0.0298468 -0.0938898 0)
(0.0209059 -0.0841857 0)
(0.00635555 -0.0739315 0)
(-0.0119528 -0.0654137 0)
(-0.025463 -0.0545886 0)
(-0.0306179 -0.0478508 0)
(-0.0256736 -0.0475559 0)
(-0.0202161 -0.0957608 0)
(-0.0344222 -0.132895 0)
(-0.0466395 -0.12013 0)
(-0.0507347 -0.0917869 0)
(-0.0428451 -0.0516163 0)
(-0.032264 -0.0294599 0)
(-0.0239511 -0.0157034 0)
(-0.0165002 -0.0124124 0)
(-0.0123682 -0.0239904 0)
(-0.0112136 -0.0467398 0)
(-0.0159833 -0.0742701 0)
(-0.0199711 -0.0985285 0)
(-0.0208996 -0.122364 0)
(-0.0175583 -0.132308 0)
(0.0143991 -0.15656 0)
(0.0165168 -0.145666 0)
(0.0239816 -0.124161 0)
(0.0315459 -0.101611 0)
(0.0371356 -0.0855643 0)
(0.0440821 -0.084264 0)
(0.0467625 -0.0886738 0)
(0.0460097 -0.100367 0)
(0.043684 -0.105324 0)
(0.0335286 -0.092261 0)
(0.0241019 -0.07578 0)
(0.0100681 -0.0633548 0)
(-0.00758324 -0.0561377 0)
(-0.0216143 -0.0481631 0)
(-0.0278938 -0.0445548 0)
(-0.026109 -0.0496629 0)
(-0.022424 -0.100092 0)
(-0.0351979 -0.129223 0)
(-0.0505271 -0.121874 0)
(-0.0569313 -0.102927 0)
(-0.0531569 -0.0610781 0)
(-0.0403917 -0.034978 0)
(-0.0289583 -0.0187229 0)
(-0.018034 -0.0108308 0)
(-0.0100914 -0.0154928 0)
(-0.00551845 -0.0339808 0)
(-0.0131354 -0.0645404 0)
(-0.0173468 -0.0928227 0)
(-0.0152967 -0.125007 0)
(-0.013748 -0.140832 0)
(0.00876402 -0.164394 0)
(0.0137166 -0.15047 0)
(0.0175213 -0.123787 0)
(0.025906 -0.103346 0)
(0.0330878 -0.0950061 0)
(0.0412049 -0.10582 0)
(0.0479911 -0.116293 0)
(0.0579939 -0.138439 0)
(0.0590116 -0.147781 0)
(0.0445987 -0.116781 0)
(0.0277034 -0.0740465 0)
(0.0153213 -0.0533049 0)
(-0.00162079 -0.0463988 0)
(-0.0166256 -0.0408702 0)
(-0.0232913 -0.0401589 0)
(-0.0250084 -0.0471892 0)
(-0.0214244 -0.0972305 0)
(-0.0344992 -0.118045 0)
(-0.0534304 -0.115942 0)
(-0.0648196 -0.106549 0)
(-0.0631228 -0.0711305 0)
(-0.0490146 -0.041067 0)
(-0.0352027 -0.0245153 0)
(-0.0214342 -0.0136092 0)
(-0.0100665 -0.0119375 0)
(-0.00195004 -0.0235576 0)
(-0.00634062 -0.0503517 0)
(-0.0106922 -0.0852556 0)
(-0.0108228 -0.127288 0)
(-0.00860253 -0.15031 0)
(0.000944134 -0.167865 0)
(0.00907355 -0.153189 0)
(0.011449 -0.123748 0)