/*--------------------------------*- C++ -*----------------------------------*\
| =========                 |                                                 |
| \\      /  F ield         | OpenFOAM: The Open Source CFD Toolbox           |
|  \\    /   O peration     | Version:  v1606+                                |
|   \\  /    A nd           | Web:      www.OpenFOAM.com                      |
|    \\/     M anipulation  |                                                 |
\*---------------------------------------------------------------------------*/
FoamFile
{
    version     2.0;
    format      ascii;
    class       volScalarField;
    location    "0.0038";
    object      alphat;
}
// * * * * * * * * * * * * * * * * * * * * * * * * * * * * * * * * * * * * * //

dimensions      [1 -1 -1 0 0 0 0];

internalField   nonuniform List<scalar> 
2450
(
3.00487e-06
2.54376e-06
2.12081e-06
1.86741e-06
1.8693e-06
4.66805e-06
0.000146211
0.000438897
0.000601664
0.000669658
0.000705739
0.000715014
0.000715275
0.000713758
0.000711501
0.000709928
0.000708848
0.000708089
0.000707543
0.00070714
0.000706838
0.000706608
0.000706431
0.000706293
0.000706187
0.000706103
0.000706038
0.000705988
0.00070595
0.000705921
0.000705899
0.000705882
0.00070587
0.000705861
0.000705854
0.000705848
0.000705843
0.000705838
0.000705834
0.000705829
0.000705823
0.000705818
0.000705812
0.000705807
0.000705801
0.000705796
0.00070579
0.000705785
0.00070578
0.000705776
0.000705773
0.00070577
0.000705767
0.000705765
0.000705764
0.000705763
0.000705762
0.000705763
0.000705763
0.000705764
0.000705765
0.000705766
0.000705766
0.000705764
0.000705759
0.000705747
0.000705728
0.0007057
0.000705673
0.000705653
2.53733e-06
2.27158e-06
1.98527e-06
1.77625e-06
1.92563e-06
5.50958e-06
0.000186655
0.00048043
0.000609611
0.00067991
0.000711286
0.000716256
0.000715808
0.000713911
0.000711622
0.00071003
0.000708932
0.000708159
0.0007076
0.000707188
0.000706877
0.000706641
0.000706459
0.000706318
0.000706208
0.000706122
0.000706056
0.000706004
0.000705965
0.000705935
0.000705913
0.000705896
0.000705883
0.000705874
0.000705867
0.000705861
0.000705855
0.000705851
0.000705846
0.000705841
0.000705835
0.00070583
0.000705824
0.000705819
0.000705813
0.000705807
0.000705802
0.000705796
0.000705792
0.000705787
0.000705784
0.000705781
0.000705778
0.000705776
0.000705774
0.000705773
0.000705773
0.000705773
0.000705774
0.000705774
0.000705775
0.000705776
0.000705776
0.000705774
0.000705768
0.000705754
0.000705729
0.000705693
0.000705658
0.000705642
2.11257e-06
1.9898e-06
1.83295e-06
1.84055e-06
2.39684e-06
1.4427e-05
0.000264787
0.000542136
0.000640763
0.000694012
0.000715122
0.000717238
0.000715811
0.000713635
0.000711449
0.000709934
0.000708884
0.000708139
0.000707597
0.000707196
0.000706893
0.000706661
0.000706483
0.000706344
0.000706237
0.000706153
0.000706088
0.000706038
0.000705999
0.00070597
0.000705949
0.000705933
0.000705921
0.000705912
0.000705905
0.0007059
0.000705895
0.00070589
0.000705885
0.00070588
0.000705875
0.000705869
0.000705864
0.000705858
0.000705852
0.000705846
0.000705841
0.000705835
0.000705831
0.000705826
0.000705822
0.000705819
0.000705816
0.000705814
0.000705813
0.000705812
0.000705811
0.000705811
0.000705812
0.000705812
0.000705813
0.000705814
0.000705814
0.000705812
0.000705805
0.000705789
0.000705758
0.000705711
0.00070566
0.000705638
1.85528e-06
1.80893e-06
1.86657e-06
2.12031e-06
5.4042e-06
7.98849e-05
0.000405283
0.000605317
0.000671138
0.000707572
0.000717761
0.000717804
0.000715448
0.00071312
0.000711115
0.000709728
0.000708757
0.000708061
0.000707551
0.00070717
0.00070688
0.000706659
0.000706487
0.000706354
0.00070625
0.000706169
0.000706107
0.000706058
0.000706022
0.000705994
0.000705974
0.000705959
0.000705947
0.000705939
0.000705933
0.000705927
0.000705923
0.000705918
0.000705913
0.000705908
0.000705903
0.000705897
0.000705892
0.000705886
0.00070588
0.000705874
0.000705868
0.000705863
0.000705858
0.000705853
0.00070585
0.000705846
0.000705843
0.000705841
0.000705839
0.000705838
0.000705838
0.000705838
0.000705838
0.000705839
0.000705839
0.00070584
0.00070584
0.000705838
0.000705831
0.000705814
0.00070578
0.000705726
0.000705666
0.000705639
1.92851e-06
2.17163e-06
2.68064e-06
5.91915e-06
6.44662e-05
0.000323127
0.000553867
0.000652662
0.000698372
0.000716936
0.000719295
0.000717472
0.000714971
0.000712457
0.000710689
0.000709458
0.000708582
0.000707945
0.000707473
0.000707118
0.000706846
0.000706637
0.000706474
0.000706347
0.000706248
0.000706171
0.000706112
0.000706066
0.000706031
0.000706005
0.000705985
0.000705971
0.00070596
0.000705952
0.000705946
0.000705941
0.000705936
0.000705932
0.000705927
0.000705922
0.000705917
0.000705911
0.000705905
0.000705899
0.000705893
0.000705887
0.000705881
0.000705876
0.000705871
0.000705866
0.000705862
0.000705858
0.000705856
0.000705853
0.000705851
0.00070585
0.000705849
0.000705849
0.000705849
0.00070585
0.00070585
0.000705851
0.000705851
0.000705849
0.000705841
0.000705824
0.000705788
0.000705732
0.000705669
0.000705638
5.88123e-06
1.10103e-05
3.68229e-05
0.000127271
0.000299626
0.000517022
0.000639128
0.000690596
0.000716045
0.000720645
0.000719133
0.000716862
0.00071388
0.000711731
0.000710223
0.000709152
0.000708377
0.000707805
0.000707375
0.000707048
0.000706797
0.000706601
0.000706449
0.00070633
0.000706237
0.000706164
0.000706107
0.000706064
0.000706031
0.000706007
0.000705988
0.000705975
0.000705965
0.000705957
0.000705951
0.000705946
0.000705941
0.000705937
0.000705932
0.000705927
0.000705921
0.000705916
0.00070591
0.000705903
0.000705897
0.000705891
0.000705885
0.00070588
0.000705874
0.00070587
0.000705865
0.000705862
0.000705858
0.000705856
0.000705854
0.000705853
0.000705852
0.000705851
0.000705851
0.000705852
0.000705852
0.000705853
0.000705852
0.00070585
0.000705842
0.000705824
0.000705789
0.000705731
0.000705667
0.000705635
0.000152689
0.000213685
0.000317007
0.000439843
0.000547022
0.000644079
0.00069026
0.000717143
0.00072161
0.0007207
0.000717948
0.000715244
0.000712776
0.00071101
0.000709749
0.000708835
0.000708159
0.000707652
0.000707266
0.000706969
0.000706739
0.000706558
0.000706417
0.000706306
0.000706219
0.000706151
0.000706098
0.000706058
0.000706027
0.000706004
0.000705987
0.000705974
0.000705965
0.000705958
0.000705952
0.000705947
0.000705942
0.000705938
0.000705933
0.000705928
0.000705922
0.000705916
0.00070591
0.000705904
0.000705897
0.000705891
0.000705885
0.000705879
0.000705874
0.000705869
0.000705864
0.00070586
0.000705857
0.000705854
0.000705852
0.00070585
0.000705849
0.000705849
0.000705848
0.000705849
0.000705849
0.000705849
0.000705849
0.000705846
0.000705838
0.00070582
0.000705784
0.000705727
0.000705662
0.00070563
0.000465704
0.000489561
0.000537532
0.000603718
0.000655001
0.000693498
0.000718236
0.000723229
0.000721687
0.000719091
0.000716367
0.000713712
0.000711753
0.000710333
0.000709294
0.000708521
0.000707938
0.000707494
0.000707151
0.000706885
0.000706676
0.000706511
0.000706382
0.000706279
0.000706199
0.000706136
0.000706087
0.00070605
0.000706021
0.000706
0.000705984
0.000705972
0.000705963
0.000705957
0.000705951
0.000705946
0.000705942
0.000705937
0.000705932
0.000705927
0.000705921
0.000705915
0.000705908
0.000705902
0.000705895
0.000705889
0.000705883
0.000705877
0.000705871
0.000705866
0.000705861
0.000705857
0.000705853
0.000705851
0.000705848
0.000705846
0.000705845
0.000705844
0.000705843
0.000705843
0.000705843
0.000705843
0.000705843
0.00070584
0.000705832
0.000705814
0.000705778
0.00070572
0.000705655
0.000705624
0.000612859
0.000624961
0.000648549
0.000679358
0.000702822
0.000719137
0.000722718
0.000722154
0.000719669
0.000717077
0.000714404
0.000712366
0.00071085
0.00070972
0.000708869
0.000708222
0.000707724
0.000707338
0.000707037
0.000706799
0.000706612
0.000706463
0.000706345
0.000706251
0.000706178
0.00070612
0.000706075
0.000706041
0.000706015
0.000705995
0.00070598
0.00070597
0.000705961
0.000705955
0.00070595
0.000705945
0.00070594
0.000705935
0.00070593
0.000705925
0.000705919
0.000705913
0.000705906
0.000705899
0.000705892
0.000705886
0.000705879
0.000705873
0.000705867
0.000705862
0.000705857
0.000705853
0.000705849
0.000705846
0.000705843
0.000705841
0.000705839
0.000705838
0.000705837
0.000705837
0.000705837
0.000705837
0.000705836
0.000705833
0.000705825
0.000705806
0.00070577
0.000705712
0.000705647
0.000705616
0.000680908
0.000688364
0.000700078
0.000713563
0.00071949
0.000721638
0.000721404
0.000719541
0.000717246
0.000714752
0.000712767
0.000711242
0.000710074
0.000709177
0.000708484
0.000707945
0.000707522
0.000707189
0.000706925
0.000706715
0.000706548
0.000706414
0.000706308
0.000706223
0.000706156
0.000706104
0.000706063
0.000706032
0.000706008
0.00070599
0.000705977
0.000705967
0.000705959
0.000705953
0.000705948
0.000705943
0.000705938
0.000705933
0.000705928
0.000705922
0.000705916
0.00070591
0.000705903
0.000705896
0.000705889
0.000705882
0.000705876
0.000705869
0.000705863
0.000705858
0.000705853
0.000705848
0.000705844
0.00070584
0.000705837
0.000705835
0.000705833
0.000705831
0.00070583
0.00070583
0.000705829
0.000705829
0.000705828
0.000705824
0.000705816
0.000705798
0.000705761
0.000705704
0.000705639
0.000705607
0.000712854
0.000715394
0.000717838
0.00071979
0.00072076
0.000720361
0.000718728
0.000716868
0.000714708
0.000712905
0.000711462
0.00071032
0.000709418
0.000708705
0.000708141
0.000707692
0.000707335
0.000707049
0.000706819
0.000706635
0.000706487
0.000706367
0.000706272
0.000706196
0.000706135
0.000706088
0.000706051
0.000706023
0.000706001
0.000705985
0.000705973
0.000705964
0.000705957
0.000705951
0.000705946
0.000705941
0.000705936
0.000705931
0.000705926
0.00070592
0.000705914
0.000705907
0.0007059
0.000705893
0.000705886
0.000705879
0.000705872
0.000705865
0.000705859
0.000705853
0.000705847
0.000705843
0.000705838
0.000705834
0.000705831
0.000705828
0.000705826
0.000705824
0.000705823
0.000705822
0.000705821
0.00070582
0.000705819
0.000705815
0.000705807
0.000705788
0.000705752
0.000705694
0.000705629
0.000705597
0.000717342
0.000718628
0.000719473
0.000719601
0.000718808
0.000717857
0.000716027
0.000714296
0.00071277
0.000711488
0.000710432
0.000709569
0.000708868
0.000708299
0.000707839
0.000707467
0.000707165
0.00070692
0.000706721
0.000706559
0.000706428
0.000706323
0.000706238
0.000706169
0.000706115
0.000706073
0.00070604
0.000706014
0.000705995
0.00070598
0.000705969
0.000705961
0.000705954
0.000705949
0.000705944
0.000705939
0.000705934
0.000705929
0.000705923
0.000705917
0.000705911
0.000705904
0.000705896
0.000705889
0.000705882
0.000705874
0.000705867
0.00070586
0.000705854
0.000705848
0.000705842
0.000705837
0.000705832
0.000705828
0.000705824
0.000705821
0.000705819
0.000705816
0.000705815
0.000705813
0.000705812
0.000705811
0.00070581
0.000705806
0.000705797
0.000705778
0.000705742
0.000705684
0.000705619
0.000705587
0.000717247
0.000717729
0.00071756
0.000717318
0.000716155
0.00071488
0.000713592
0.000712392
0.000711325
0.000710402
0.000709617
0.000708958
0.000708409
0.000707954
0.000707577
0.000707268
0.000707013
0.000706803
0.000706631
0.00070649
0.000706375
0.000706281
0.000706206
0.000706145
0.000706097
0.000706059
0.000706029
0.000706007
0.000705989
0.000705976
0.000705966
0.000705958
0.000705952
0.000705947
0.000705942
0.000705937
0.000705932
0.000705926
0.00070592
0.000705914
0.000705907
0.0007059
0.000705893
0.000705885
0.000705877
0.00070587
0.000705863
0.000705855
0.000705849
0.000705842
0.000705836
0.000705831
0.000705826
0.000705821
0.000705817
0.000705814
0.000705811
0.000705808
0.000705806
0.000705805
0.000705803
0.000705802
0.0007058
0.000705796
0.000705787
0.000705768
0.000705731
0.000705673
0.000705608
0.000705576
0.000715225
0.000715405
0.000715055
0.00071441
0.000713598
0.000712719
0.000711838
0.000711003
0.000710241
0.000709564
0.000708972
0.000708462
0.000708028
0.000707661
0.000707352
0.000707094
0.000706878
0.000706699
0.00070655
0.000706427
0.000706326
0.000706244
0.000706177
0.000706123
0.00070608
0.000706047
0.00070602
0.000706
0.000705984
0.000705972
0.000705963
0.000705956
0.00070595
0.000705945
0.00070594
0.000705935
0.000705929
0.000705924
0.000705917
0.000705911
0.000705904
0.000705896
0.000705889
0.000705881
0.000705873
0.000705865
0.000705858
0.00070585
0.000705843
0.000705836
0.00070583
0.000705824
0.000705819
0.000705814
0.00070581
0.000705806
0.000705803
0.0007058
0.000705797
0.000705795
0.000705793
0.000705792
0.000705789
0.000705785
0.000705776
0.000705757
0.00070572
0.000705662
0.000705596
0.000705565
0.000712845
0.000712995
0.000712765
0.00071233
0.000711785
0.000711184
0.000710572
0.000709977
0.00070942
0.000708912
0.000708458
0.000708059
0.000707713
0.000707414
0.000707159
0.000706943
0.00070676
0.000706607
0.000706478
0.000706371
0.000706283
0.000706211
0.000706152
0.000706104
0.000706066
0.000706036
0.000706012
0.000705994
0.00070598
0.000705969
0.000705961
0.000705954
0.000705948
0.000705943
0.000705938
0.000705932
0.000705927
0.000705921
0.000705914
0.000705907
0.0007059
0.000705892
0.000705884
0.000705876
0.000705868
0.00070586
0.000705852
0.000705845
0.000705837
0.00070583
0.000705824
0.000705818
0.000705812
0.000705807
0.000705802
0.000705798
0.000705794
0.000705791
0.000705788
0.000705786
0.000705783
0.000705781
0.000705779
0.000705774
0.000705765
0.000705745
0.000705708
0.00070565
0.000705585
0.000705553
0.000711172
0.000711303
0.000711161
0.000710873
0.000710501
0.00071008
0.000709641
0.000709206
0.000708789
0.000708402
0.000708048
0.000707732
0.000707452
0.000707208
0.000706996
0.000706814
0.000706659
0.000706527
0.000706416
0.000706323
0.000706245
0.000706182
0.00070613
0.000706087
0.000706054
0.000706027
0.000706006
0.00070599
0.000705977
0.000705967
0.000705959
0.000705952
0.000705946
0.000705941
0.000705936
0.00070593
0.000705924
0.000705918
0.000705911
0.000705904
0.000705896
0.000705888
0.00070588
0.000705872
0.000705863
0.000705855
0.000705847
0.000705839
0.000705831
0.000705824
0.000705817
0.000705811
0.000705805
0.000705799
0.000705794
0.000705789
0.000705785
0.000705782
0.000705778
0.000705776
0.000705773
0.000705771
0.000705768
0.000705763
0.000705753
0.000705733
0.000705696
0.000705638
0.000705573
0.000705541
0.000710003
0.000710116
0.000710031
0.000709835
0.000709573
0.00070927
0.000708946
0.000708619
0.000708301
0.000707999
0.00070772
0.000707466
0.000707238
0.000707036
0.000706859
0.000706705
0.000706572
0.000706459
0.000706362
0.000706281
0.000706213
0.000706157
0.000706111
0.000706074
0.000706044
0.00070602
0.000706001
0.000705986
0.000705974
0.000705965
0.000705957
0.000705951
0.000705945
0.000705939
0.000705934
0.000705928
0.000705921
0.000705915
0.000705907
0.0007059
0.000705892
0.000705884
0.000705875
0.000705867
0.000705858
0.00070585
0.000705841
0.000705833
0.000705825
0.000705818
0.00070581
0.000705804
0.000705797
0.000705791
0.000705786
0.000705781
0.000705776
0.000705772
0.000705769
0.000705765
0.000705763
0.00070576
0.000705757
0.000705751
0.000705741
0.000705721
0.000705684
0.000705626
0.00070556
0.000705529
0.000709167
0.000709266
0.000709215
0.000709079
0.000708889
0.000708664
0.000708419
0.000708168
0.00070792
0.000707681
0.000707457
0.00070725
0.000707062
0.000706894
0.000706744
0.000706613
0.000706499
0.000706401
0.000706317
0.000706246
0.000706187
0.000706137
0.000706096
0.000706063
0.000706036
0.000706015
0.000705997
0.000705984
0.000705973
0.000705964
0.000705956
0.00070595
0.000705944
0.000705938
0.000705932
0.000705925
0.000705918
0.000705911
0.000705904
0.000705896
0.000705888
0.000705879
0.00070587
0.000705862
0.000705853
0.000705844
0.000705835
0.000705827
0.000705819
0.000705811
0.000705803
0.000705796
0.00070579
0.000705783
0.000705778
0.000705772
0.000705767
0.000705763
0.000705759
0.000705755
0.000705752
0.000705749
0.000705745
0.00070574
0.00070573
0.000705709
0.000705672
0.000705613
0.000705548
0.000705517
0.000708557
0.000708641
0.000708613
0.000708517
0.000708375
0.000708204
0.000708015
0.000707818
0.00070762
0.000707428
0.000707246
0.000707075
0.000706918
0.000706777
0.00070665
0.000706537
0.000706439
0.000706353
0.00070628
0.000706218
0.000706165
0.000706121
0.000706085
0.000706055
0.000706031
0.000706011
0.000705995
0.000705982
0.000705972
0.000705963
0.000705956
0.000705949
0.000705942
0.000705936
0.000705929
0.000705923
0.000705915
0.000705908
0.0007059
0.000705892
0.000705883
0.000705874
0.000705865
0.000705856
0.000705847
0.000705838
0.000705829
0.000705821
0.000705812
0.000705804
0.000705796
0.000705789
0.000705782
0.000705775
0.000705769
0.000705763
0.000705758
0.000705753
0.000705749
0.000705745
0.000705741
0.000705738
0.000705734
0.000705728
0.000705718
0.000705697
0.000705659
0.000705601
0.000705535
0.000705504
0.000708101
0.000708174
0.000708161
0.000708092
0.000707985
0.000707851
0.000707702
0.000707544
0.000707384
0.000707227
0.000707076
0.000706934
0.000706802
0.000706681
0.000706572
0.000706475
0.00070639
0.000706315
0.00070625
0.000706195
0.000706148
0.000706109
0.000706076
0.000706049
0.000706027
0.000706009
0.000705994
0.000705982
0.000705972
0.000705963
0.000705955
0.000705948
0.000705941
0.000705934
0.000705927
0.00070592
0.000705912
0.000705905
0.000705896
0.000705888
0.000705879
0.00070587
0.00070586
0.000705851
0.000705842
0.000705833
0.000705823
0.000705815
0.000705806
0.000705797
0.000705789
0.000705782
0.000705774
0.000705767
0.000705761
0.000705755
0.000705749
0.000705744
0.000705739
0.000705735
0.000705731
0.000705727
0.000705723
0.000705717
0.000705706
0.000705685
0.000705647
0.000705589
0.000705523
0.000705492
0.000707756
0.00070782
0.000707817
0.000707767
0.000707684
0.000707578
0.000707458
0.000707329
0.000707198
0.000707067
0.00070694
0.00070682
0.000706707
0.000706604
0.00070651
0.000706425
0.00070635
0.000706284
0.000706227
0.000706178
0.000706136
0.000706101
0.000706071
0.000706046
0.000706025
0.000706009
0.000705994
0.000705982
0.000705972
0.000705963
0.000705956
0.000705948
0.00070594
0.000705933
0.000705925
0.000705918
0.00070591
0.000705901
0.000705893
0.000705884
0.000705874
0.000705865
0.000705855
0.000705846
0.000705836
0.000705827
0.000705818
0.000705808
0.000705799
0.000705791
0.000705782
0.000705774
0.000705767
0.000705759
0.000705753
0.000705746
0.00070574
0.000705735
0.000705729
0.000705725
0.00070572
0.000705716
0.000705712
0.000705705
0.000705694
0.000705673
0.000705635
0.000705576
0.000705511
0.00070548
0.000707492
0.000707548
0.000707552
0.000707517
0.000707452
0.000707366
0.000707267
0.00070716
0.00070705
0.00070694
0.000706833
0.00070673
0.000706632
0.000706543
0.00070646
0.000706386
0.00070632
0.000706261
0.00070621
0.000706166
0.000706128
0.000706095
0.000706068
0.000706045
0.000706026
0.000706009
0.000705996
0.000705984
0.000705973
0.000705964
0.000705956
0.000705948
0.00070594
0.000705932
0.000705924
0.000705915
0.000705907
0.000705898
0.000705889
0.000705879
0.00070587
0.00070586
0.00070585
0.000705841
0.000705831
0.000705821
0.000705812
0.000705802
0.000705793
0.000705784
0.000705775
0.000705767
0.000705759
0.000705752
0.000705744
0.000705738
0.000705731
0.000705725
0.00070572
0.000705715
0.00070571
0.000705706
0.000705701
0.000705694
0.000705683
0.000705661
0.000705623
0.000705565
0.000705499
0.000705468
0.000707288
0.000707338
0.000707348
0.000707323
0.000707271
0.000707201
0.000707118
0.000707028
0.000706934
0.00070684
0.000706747
0.000706658
0.000706574
0.000706495
0.000706422
0.000706356
0.000706297
0.000706244
0.000706198
0.000706157
0.000706123
0.000706093
0.000706067
0.000706045
0.000706027
0.000706011
0.000705997
0.000705986
0.000705975
0.000705966
0.000705956
0.000705948
0.000705939
0.00070593
0.000705922
0.000705913
0.000705904
0.000705894
0.000705885
0.000705875
0.000705865
0.000705855
0.000705845
0.000705835
0.000705825
0.000705816
0.000705806
0.000705796
0.000705787
0.000705778
0.000705769
0.00070576
0.000705752
0.000705744
0.000705736
0.000705729
0.000705723
0.000705716
0.000705711
0.000705705
0.0007057
0.000705695
0.00070569
0.000705683
0.000705672
0.00070565
0.000705612
0.000705553
0.000705488
0.000705456
0.00070713
0.000707175
0.00070719
0.000707173
0.000707131
0.000707072
0.000707001
0.000706924
0.000706844
0.000706762
0.000706681
0.000706603
0.000706528
0.000706458
0.000706393
0.000706334
0.00070628
0.000706233
0.00070619
0.000706153
0.00070612
0.000706093
0.000706068
0.000706047
0.000706029
0.000706014
0.000706
0.000705988
0.000705977
0.000705967
0.000705957
0.000705948
0.000705938
0.000705929
0.00070592
0.00070591
0.000705901
0.000705891
0.000705881
0.000705871
0.000705861
0.000705851
0.000705841
0.00070583
0.00070582
0.00070581
0.0007058
0.00070579
0.000705781
0.000705771
0.000705762
0.000705753
0.000705745
0.000705737
0.000705729
0.000705721
0.000705715
0.000705708
0.000705702
0.000705696
0.000705691
0.000705686
0.00070568
0.000705673
0.000705661
0.00070564
0.000705601
0.000705542
0.000705477
0.000705445
0.000707007
0.000707049
0.000707067
0.000707056
0.000707022
0.000706972
0.000706911
0.000706844
0.000706774
0.000706702
0.00070663
0.000706561
0.000706494
0.000706431
0.000706372
0.000706318
0.000706269
0.000706225
0.000706186
0.000706151
0.000706121
0.000706094
0.000706071
0.000706051
0.000706033
0.000706017
0.000706003
0.000705991
0.000705979
0.000705968
0.000705958
0.000705948
0.000705938
0.000705928
0.000705918
0.000705908
0.000705898
0.000705888
0.000705878
0.000705867
0.000705857
0.000705846
0.000705836
0.000705825
0.000705815
0.000705805
0.000705795
0.000705785
0.000705775
0.000705765
0.000705756
0.000705747
0.000705738
0.00070573
0.000705722
0.000705714
0.000705707
0.0007057
0.000705693
0.000705687
0.000705682
0.000705676
0.000705671
0.000705663
0.000705651
0.000705629
0.000705591
0.000705531
0.000705466
0.000705435
0.000706913
0.000706951
0.000706972
0.000706966
0.000706938
0.000706895
0.000706842
0.000706783
0.00070672
0.000706656
0.000706592
0.000706529
0.000706469
0.000706411
0.000706358
0.000706308
0.000706263
0.000706222
0.000706185
0.000706152
0.000706123
0.000706097
0.000706075
0.000706054
0.000706037
0.000706021
0.000706006
0.000705993
0.000705981
0.00070597
0.000705959
0.000705948
0.000705937
0.000705927
0.000705916
0.000705906
0.000705895
0.000705885
0.000705874
0.000705863
0.000705853
0.000705842
0.000705831
0.000705821
0.00070581
0.0007058
0.000705789
0.000705779
0.000705769
0.000705759
0.00070575
0.00070574
0.000705731
0.000705723
0.000705715
0.000705707
0.000705699
0.000705692
0.000705685
0.000705679
0.000705673
0.000705667
0.000705661
0.000705654
0.000705641
0.00070562
0.000705581
0.000705521
0.000705456
0.000705425
0.000706841
0.000706876
0.0007069
0.000706898
0.000706874
0.000706837
0.000706789
0.000706736
0.00070668
0.000706622
0.000706564
0.000706506
0.000706451
0.000706398
0.000706348
0.000706302
0.00070626
0.000706221
0.000706186
0.000706154
0.000706126
0.000706101
0.000706078
0.000706058
0.00070604
0.000706024
0.000706009
0.000705995
0.000705983
0.000705971
0.000705959
0.000705948
0.000705936
0.000705925
0.000705914
0.000705904
0.000705893
0.000705882
0.000705871
0.00070586
0.000705849
0.000705838
0.000705827
0.000705816
0.000705805
0.000705794
0.000705784
0.000705773
0.000705763
0.000705753
0.000705744
0.000705734
0.000705725
0.000705716
0.000705708
0.0007057
0.000705692
0.000705684
0.000705677
0.000705671
0.000705665
0.000705659
0.000705653
0.000705645
0.000705632
0.00070561
0.000705571
0.000705512
0.000705447
0.000705416
0.000706785
0.000706819
0.000706844
0.000706845
0.000706826
0.000706792
0.000706749
0.000706701
0.000706649
0.000706596
0.000706543
0.00070649
0.000706438
0.000706389
0.000706342
0.000706298
0.000706258
0.000706221
0.000706187
0.000706157
0.000706129
0.000706104
0.000706082
0.000706062
0.000706043
0.000706027
0.000706011
0.000705997
0.000705984
0.000705971
0.000705958
0.000705946
0.000705935
0.000705923
0.000705912
0.0007059
0.000705889
0.000705878
0.000705866
0.000705855
0.000705844
0.000705833
0.000705821
0.00070581
0.000705799
0.000705789
0.000705778
0.000705767
0.000705757
0.000705747
0.000705737
0.000705728
0.000705718
0.000705709
0.0007057
0.000705692
0.000705684
0.000705677
0.000705669
0.000705663
0.000705656
0.00070565
0.000705644
0.000705636
0.000705623
0.000705601
0.000705562
0.000705502
0.000705437
0.000705406
0.000706742
0.000706774
0.0007068
0.000706804
0.000706788
0.000706757
0.000706718
0.000706673
0.000706625
0.000706576
0.000706526
0.000706476
0.000706428
0.000706381
0.000706337
0.000706295
0.000706256
0.00070622
0.000706188
0.000706158
0.00070613
0.000706106
0.000706083
0.000706063
0.000706044
0.000706027
0.000706011
0.000705996
0.000705982
0.000705969
0.000705956
0.000705943
0.000705931
0.000705919
0.000705907
0.000705895
0.000705883
0.000705872
0.00070586
0.000705849
0.000705837
0.000705826
0.000705814
0.000705803
0.000705792
0.000705781
0.00070577
0.00070576
0.000705749
0.000705739
0.000705729
0.000705719
0.00070571
0.0007057
0.000705692
0.000705683
0.000705675
0.000705667
0.00070566
0.000705653
0.000705646
0.00070564
0.000705633
0.000705625
0.000705612
0.00070559
0.00070555
0.000705491
0.000705426
0.000705395
0.000706706
0.000706736
0.000706764
0.000706769
0.000706754
0.000706726
0.00070669
0.000706648
0.000706603
0.000706556
0.000706509
0.000706462
0.000706415
0.000706371
0.000706328
0.000706288
0.00070625
0.000706215
0.000706183
0.000706153
0.000706126
0.000706102
0.000706079
0.000706058
0.000706039
0.000706021
0.000706005
0.000705989
0.000705975
0.000705961
0.000705947
0.000705934
0.000705922
0.000705909
0.000705897
0.000705885
0.000705873
0.000705861
0.000705849
0.000705837
0.000705825
0.000705814
0.000705802
0.000705791
0.00070578
0.000705769
0.000705758
0.000705747
0.000705737
0.000705726
0.000705716
0.000705706
0.000705697
0.000705687
0.000705678
0.00070567
0.000705661
0.000705653
0.000705646
0.000705639
0.000705632
0.000705625
0.000705619
0.00070561
0.000705597
0.000705575
0.000705535
0.000705476
0.00070541
0.000705379
0.000706673
0.0007067
0.000706726
0.000706732
0.000706719
0.000706693
0.000706658
0.000706618
0.000706575
0.00070653
0.000706485
0.00070644
0.000706395
0.000706352
0.000706311
0.000706271
0.000706235
0.0007062
0.000706168
0.000706139
0.000706112
0.000706087
0.000706064
0.000706043
0.000706023
0.000706005
0.000705988
0.000705972
0.000705957
0.000705942
0.000705929
0.000705915
0.000705902
0.000705889
0.000705876
0.000705864
0.000705852
0.00070584
0.000705827
0.000705816
0.000705804
0.000705792
0.00070578
0.000705769
0.000705758
0.000705747
0.000705736
0.000705725
0.000705714
0.000705704
0.000705693
0.000705683
0.000705674
0.000705664
0.000705655
0.000705646
0.000705638
0.00070563
0.000705622
0.000705615
0.000705608
0.000705601
0.000705594
0.000705586
0.000705573
0.00070555
0.000705511
0.000705451
0.000705385
0.000705354
0.000706638
0.000706659
0.00070668
0.000706684
0.000706671
0.000706646
0.000706612
0.000706574
0.000706533
0.00070649
0.000706446
0.000706402
0.000706358
0.000706316
0.000706275
0.000706237
0.0007062
0.000706166
0.000706134
0.000706105
0.000706078
0.000706053
0.000706029
0.000706008
0.000705988
0.00070597
0.000705952
0.000705936
0.00070592
0.000705906
0.000705891
0.000705877
0.000705864
0.000705851
0.000705838
0.000705825
0.000705813
0.000705801
0.000705789
0.000705777
0.000705765
0.000705753
0.000705741
0.00070573
0.000705718
0.000705707
0.000705696
0.000705685
0.000705675
0.000705664
0.000705654
0.000705644
0.000705634
0.000705625
0.000705615
0.000705607
0.000705598
0.00070559
0.000705582
0.000705575
0.000705568
0.000705561
0.000705554
0.000705545
0.000705532
0.000705509
0.00070547
0.00070541
0.000705344
0.000705313
0.000706601
0.000706612
0.000706622
0.00070662
0.000706605
0.00070658
0.000706548
0.000706511
0.00070647
0.000706428
0.000706385
0.000706342
0.000706299
0.000706258
0.000706218
0.000706179
0.000706143
0.00070611
0.000706078
0.000706048
0.000706021
0.000705996
0.000705972
0.000705951
0.000705931
0.000705912
0.000705894
0.000705877
0.000705862
0.000705847
0.000705832
0.000705818
0.000705805
0.000705792
0.000705779
0.000705766
0.000705753
0.000705741
0.000705729
0.000705717
0.000705705
0.000705693
0.000705682
0.00070567
0.000705659
0.000705648
0.000705637
0.000705626
0.000705615
0.000705605
0.000705594
0.000705584
0.000705575
0.000705565
0.000705556
0.000705547
0.000705539
0.00070553
0.000705523
0.000705515
0.000705508
0.000705501
0.000705494
0.000705485
0.000705472
0.000705449
0.000705409
0.00070535
0.000705285
0.000705254
0.000706559
0.000706562
0.000706557
0.000706547
0.000706529
0.000706503
0.000706471
0.000706435
0.000706395
0.000706354
0.000706312
0.00070627
0.000706228
0.000706188
0.000706148
0.000706111
0.000706075
0.000706041
0.00070601
0.000705981
0.000705954
0.000705929
0.000705906
0.000705884
0.000705864
0.000705845
0.000705827
0.000705811
0.000705795
0.00070578
0.000705766
0.000705752
0.000705738
0.000705725
0.000705713
0.0007057
0.000705688
0.000705675
0.000705663
0.000705651
0.00070564
0.000705628
0.000705617
0.000705605
0.000705594
0.000705583
0.000705572
0.000705561
0.000705551
0.00070554
0.00070553
0.00070552
0.00070551
0.000705501
0.000705492
0.000705483
0.000705474
0.000705466
0.000705458
0.000705451
0.000705444
0.000705437
0.00070543
0.000705421
0.000705408
0.000705385
0.000705345
0.000705286
0.000705223
0.000705195
0.000706489
0.000706496
0.000706485
0.000706471
0.000706452
0.000706427
0.000706397
0.000706363
0.000706327
0.000706289
0.00070625
0.00070621
0.000706172
0.000706134
0.000706097
0.000706062
0.000706029
0.000705997
0.000705968
0.000705941
0.000705915
0.000705891
0.000705869
0.000705849
0.00070583
0.000705812
0.000705795
0.000705779
0.000705764
0.00070575
0.000705736
0.000705722
0.000705709
0.000705697
0.000705684
0.000705672
0.00070566
0.000705648
0.000705636
0.000705624
0.000705613
0.000705601
0.00070559
0.000705579
0.000705568
0.000705557
0.000705546
0.000705535
0.000705525
0.000705514
0.000705504
0.000705494
0.000705485
0.000705475
0.000705466
0.000705457
0.000705448
0.00070544
0.000705433
0.000705425
0.000705418
0.000705411
0.000705404
0.000705395
0.000705381
0.000705358
0.000705318
0.00070526
0.000705201
0.000705178
)
;

boundaryField
{