/*--------------------------------*- C++ -*----------------------------------*\
| =========                 |                                                 |
| \\      /  F ield         | OpenFOAM: The Open Source CFD Toolbox           |
|  \\    /   O peration     | Version:  v1606+                                |
|   \\  /    A nd           | Web:      www.OpenFOAM.com                      |
|    \\/     M anipulation  |                                                 |
\*---------------------------------------------------------------------------*/
FoamFile
{
    version     2.0;
    format      ascii;
    class       volScalarField;
    location    "1.54";
    object      alpha.air;
}
// * * * * * * * * * * * * * * * * * * * * * * * * * * * * * * * * * * * * * //

dimensions      [0 0 0 0 0 0 0];

internalField   nonuniform List<scalar> 
6000
(
0.565506
0.565506
0.565506
0.565506
0.569967
0.596766
0.628852
0.618922
0.592028
0.583674
0.583673
0.583673
0.583673
0.583673
0.583672
0.583672
0.583672
0.583672
0.583672
0.59443
0.621801
0.608727
0.576915
0.558936
0.556758
0.556758
0.556758
0.556758
0.556758
0.556758
0.587499
0.593402
0.599493
0.616798
0.639588
0.645498
0.645499
0.645498
0.645498
0.644117
0.635984
0.631399
0.627237
0.622006
0.628278
0.627735
0.617665
0.622451
0.629908
0.636182
0.636181
0.636183
0.636182
0.614222
0.595353
0.579884
0.569636
0.571715
0.57868
0.564177
0.548837
0.548838
0.548837
0.549792
0.575192
0.608004
0.634299
0.643683
0.645261
0.643991
0.632137
0.629942
0.629825
0.658809
0.668684
0.666618
0.639306
0.622106
0.622106
0.631019
0.636108
0.615908
0.565728
0.53601
0.525391
0.525398
0.525393
0.544599
0.584665
0.567959
0.568883
0.583763
0.553656
0.51869
0.50861
0.545884
0.598037
0.634712
0.645156
0.645178
0.640754
0.633478
0.648941
0.670348
0.67017
0.670278
0.667416
0.627026
0.623712
0.634614
0.635682
0.592635
0.506086
0.505968
0.518235
0.535696
0.568448
0.603033
0.651901
0.633525
0.636644
0.663835
0.631608
0.571629
0.491049
0.48541
0.518908
0.593363
0.625921
0.639354
0.641341
0.642105
0.667588
0.670148
0.670263
0.670127
0.67019
0.648783
0.631095
0.62377
0.608943
0.558636
0.496896
0.514785
0.579665
0.610658
0.647694
0.666218
0.666234
0.666232
0.675984
0.675997
0.67599
0.667202
0.573495
0.485494
0.485398
0.537813
0.580387
0.606145
0.614896
0.626151
0.664469
0.670255
0.670124
0.670191
0.670048
0.653825
0.623085
0.581981
0.549962
0.51395
0.496993
0.568311
0.641898
0.660598
0.666227
0.666229
0.666231
0.66623
0.675974
0.675977
0.675978
0.675962
0.671496
0.546165
0.485489
0.500604
0.529327
0.548478
0.561583
0.585363
0.637642
0.66195
0.664434
0.664276
0.660685
0.638151
0.586508
0.524573
0.493083
0.480042
0.485196
0.554096
0.623927
0.647312
0.652522
0.666226
0.666229
0.666227
0.675956
0.675967
0.675962
0.675948
0.675931
0.618423
0.485474
0.482938
0.49284
0.496839
0.506635
0.530816
0.582054
0.621274
0.629886
0.629002
0.621317
0.59412
0.534654
0.486086
0.472915
0.467842
0.46774
0.516021
0.588202
0.604325
0.605438
0.630925
0.656829
0.65806
0.645403
0.65055
0.648379
0.651861
0.657698
0.605108
0.474668
0.462219
0.470288
0.469741
0.473863
0.484861
0.515886
0.552
0.563579
0.561839
0.554849
0.532051
0.493308
0.474316
0.471058
0.468006
0.467755
0.520684
0.571063
0.564924
0.554953
0.562887
0.599673
0.615816
0.570634
0.576572
0.572679
0.579787
0.594979
0.563355
0.460398
0.460418
0.460357
0.461127
0.46285
0.464583
0.473288
0.489814
0.498221
0.496886
0.493179
0.483463
0.472971
0.471185
0.471388
0.468304
0.497609
0.610768
0.607643
0.565549
0.536462
0.526425
0.526654
0.553713
0.508845
0.513429
0.513217
0.517459
0.547954
0.547446
0.460479
0.460318
0.460438
0.460488
0.461084
0.461226
0.462598
0.466175
0.468764
0.466501
0.463993
0.463925
0.463899
0.463864
0.471536
0.541738
0.684321
0.755372
0.69348
0.610051
0.577118
0.537811
0.505858
0.505931
0.506306
0.536503
0.513223
0.532261
0.589053
0.600663
0.527897
0.460491
0.460367
0.460451
0.460395
0.460461
0.460433
0.460503
0.460532
0.473718
0.489943
0.491939
0.495147
0.524365
0.621798
0.762657
0.844091
0.838024
0.744917
0.646017
0.618612
0.610345
0.545012
0.481934
0.531369
0.593328
0.572333
0.596265
0.680888
0.715542
0.685759
0.591846
0.528857
0.476766
0.460521
0.46048
0.460609
0.501344
0.570209
0.646306
0.690691
0.701848
0.711339
0.761934
0.833172
0.874241
0.885023
0.85859
0.746884
0.622604
0.610263
0.618699
0.618694
0.496919
0.570952
0.608787
0.607933
0.628829
0.739408
0.817568
0.827912
0.809446
0.731645
0.648217
0.596929
0.582264
0.622024
0.687762
0.756186
0.807507
0.836172
0.851231
0.862467
0.875552
0.884453
0.885049
0.885045
0.857136
0.736063
0.584676
0.592025
0.618697
0.618696
0.567008
0.577093
0.608631
0.608553
0.568594
0.747487
0.866381
0.889909
0.896022
0.842315
0.778319
0.734691
0.720463
0.732253
0.756159
0.784556
0.810392
0.832138
0.852279
0.869384
0.878042
0.883086
0.885045
0.882212
0.83107
0.703424
0.579882
0.577829
0.61684
0.618695
0.58799
0.563919
0.608561
0.608435
0.532889
0.728358
0.87663
0.903623
0.904272
0.869192
0.800719
0.741828
0.715732
0.711174
0.721333
0.738178
0.755141
0.775828
0.805577
0.83691
0.859278
0.8717
0.878475
0.862803
0.770604
0.648556
0.574143
0.560693
0.583669
0.599715
0.566506
0.546737
0.608447
0.608456
0.533054
0.663029
0.871501
0.904127
0.904165
0.881256
0.807337
0.734854
0.691324
0.670942
0.665356
0.665424
0.671866
0.695119
0.735008
0.780444
0.824735
0.851183
0.855082
0.814606
0.697219
0.589077
0.535535
0.524635
0.53168
0.542514
0.522022
0.528143
0.591858
0.603072
0.572523
0.58623
0.858896
0.904162
0.904153
0.889622
0.807329
0.720039
0.669117
0.63519
0.609542
0.59836
0.59763
0.617472
0.65948
0.717229
0.781928
0.82372
0.809431
0.728582
0.609979
0.52162
0.48961
0.482382
0.480707
0.482615
0.477283
0.501237
0.55651
0.571812
0.572168
0.552375
0.806336
0.900702
0.904171
0.893894
0.797843
0.683147
0.635457
0.597216
0.561787
0.542018
0.536186
0.546188
0.582359
0.646083
0.723319
0.776564
0.731544
0.618472
0.519745
0.47364
0.4624
0.458008
0.455925
0.455531
0.454432
0.47443
0.505039
0.518741
0.535199
0.528522
0.70321
0.867775
0.891476
0.883193
0.77251
0.617432
0.577359
0.54195
0.510947
0.496255
0.493664
0.496874
0.516553
0.566843
0.644192
0.692981
0.622565
0.52161
0.469655
0.457978
0.453853
0.452196
0.452189
0.452192
0.45219
0.459078
0.465275
0.469803
0.47642
0.483923
0.577862
0.763955
0.831516
0.826901
0.708443
0.538301
0.50384
0.479923
0.467844
0.46538
0.467239
0.471259
0.479472
0.506142
0.5613
0.580471
0.524158
0.472492
0.459332
0.455524
0.452381
0.452185
0.452189
0.452351
0.452195
0.458959
0.458963
0.458997
0.459021
0.459065
0.477624
0.626803
0.712535
0.710791
0.611177
0.475492
0.456039
0.452504
0.452467
0.452481
0.454371
0.457503
0.462436
0.477176
0.50392
0.496011
0.471643
0.461424
0.459976
0.456897
0.453835
0.452635
0.453906
0.459286
0.458268
0.458986
0.459062
0.524413
0.550648
0.544442
0.555183
0.59063
0.62865
0.620674
0.55874
0.464558
0.452552
0.452474
0.452462
0.452447
0.452463
0.452454
0.453366
0.46139
0.475869
0.467815
0.461475
0.461505
0.4631
0.475962
0.508268
0.554791
0.579134
0.555132
0.56236
0.517634
0.616529
0.743759
0.763405
0.751088
0.735406
0.684483
0.678518
0.658542
0.632995
0.593562
0.533867
0.477458
0.452551
0.452467
0.452441
0.452456
0.452449
0.453323
0.462984
0.468986
0.525346
0.591441
0.633492
0.667498
0.704025
0.729116
0.73747
0.730373
0.737047
0.690201
0.780758
0.829278
0.829294
0.829294
0.821623
0.796345
0.778424
0.764945
0.76993
0.776211
0.74511
0.674574
0.554165
0.463213
0.452524
0.452463
0.452464
0.453692
0.466111
0.568939
0.712913
0.7597
0.774265
0.77532
0.775225
0.769433
0.767234
0.773398
0.77426
0.733499
0.801246
0.829294
0.829294
0.829294
0.826661
0.823157
0.820496
0.820703
0.823709
0.823834
0.819781
0.799747
0.746537
0.64077
0.532314
0.47402
0.456755
0.455191
0.518795
0.708326
0.777938
0.781156
0.781156
0.772837
0.753288
0.728362
0.713886
0.714436
0.719413
0.712222
0.784465
0.819321
0.826973
0.82334
0.817139
0.814036
0.814087
0.817224
0.821096
0.818298
0.808863
0.798681
0.795222
0.782586
0.727094
0.651155
0.557408
0.523688
0.633508
0.740681
0.767924
0.771456
0.768959
0.755735
0.727856
0.691158
0.655622
0.64357
0.646257
0.694191
0.762816
0.797414
0.809313
0.806559
0.80069
0.795661
0.794491
0.797641
0.80118
0.793193
0.776418
0.769794
0.782402
0.81856
0.840344
0.825169
0.749512
0.652606
0.672403
0.715486
0.745343
0.754616
0.753266
0.742711
0.71925
0.681634
0.628007
0.595324
0.585847
0.673609
0.740998
0.771469
0.783739
0.78354
0.780041
0.774882
0.772537
0.7736
0.773674
0.758167
0.732579
0.72921
0.761702
0.830369
0.881539
0.893162
0.870447
0.721058
0.659523
0.676439
0.717438
0.739184
0.742032
0.73651
0.719137
0.688467
0.625898
0.577161
0.547153
0.65242
0.716729
0.741355
0.756444
0.757115
0.753637
0.748952
0.747868
0.749085
0.745046
0.718953
0.684853
0.692723
0.755353
0.844854
0.89467
0.904492
0.901668
0.798155
0.657618
0.64171
0.684802
0.720734
0.73105
0.731376
0.720667
0.702662
0.652554
0.59758
0.534202
0.633166
0.691729
0.711479
0.724929
0.724935
0.721266
0.7151
0.713271
0.714538
0.706047
0.67171
0.637905
0.671332
0.77259
0.864835
0.897376
0.904526
0.904588
0.865233
0.683013
0.626135
0.649452
0.692279
0.715464
0.722962
0.721151
0.709879
0.683174
0.661275
0.535478
0.610873
0.668414
0.683131
0.691957
0.687954
0.678273
0.668913
0.66702
0.665958
0.651843
0.615335
0.603185
0.674791
0.811484
0.885598
0.897631
0.902242
0.904544
0.890358
0.774491
0.626076
0.622428
0.655975
0.68881
0.706441
0.714585
0.709992
0.697481
0.707184
0.559049
0.590009
0.645472
0.653032
0.654204
0.642105
0.624847
0.609645
0.60383
0.602634
0.589487
0.563136
0.580354
0.699405
0.846605
0.898161
0.900493
0.900514
0.903331
0.900103
0.853163
0.679525
0.621252
0.627998
0.653299
0.678985
0.698099
0.705002
0.701517
0.711983
0.591107
0.565684
0.619597
0.620009
0.609604
0.584844
0.561104
0.545149
0.537645
0.537824
0.533839
0.533342
0.572407
0.722003
0.859557
0.90129
0.904579
0.901603
0.903545
0.906086
0.888342
0.786079
0.62137
0.61641
0.624312
0.645891
0.676701
0.69891
0.703897
0.711639
0.6096
0.540396
0.588108
0.580666
0.55733
0.528411
0.506881
0.496982
0.494773
0.495851
0.499528
0.518883
0.57929
0.731659
0.856317
0.897751
0.90607
0.907497
0.910392
0.915087
0.909981
0.863639
0.696715
0.616573
0.616151
0.620469
0.656888
0.694786
0.707709
0.711712
0.622187
0.521146
0.554049
0.537924
0.508184
0.486917
0.478327
0.475707
0.476263
0.478745
0.482414
0.499666
0.560879
0.721879
0.837878
0.885825
0.905167
0.916635
0.925454
0.929124
0.926904
0.903604
0.807398
0.664963
0.616131
0.606684
0.639909
0.68843
0.70848
0.711395
0.629946
0.51104
0.52244
0.498487
0.476912
0.467332
0.465141
0.465952
0.468008
0.470905
0.474932
0.485135
0.524799
0.685231
0.803138
0.866866
0.904243
0.927381
0.939732
0.94114
0.938914
0.926214
0.880411
0.78715
0.679937
0.593071
0.623772
0.672577
0.693979
0.711467
0.61918
0.507914
0.496674
0.472321
0.460089
0.456797
0.456872
0.459557
0.463529
0.466322
0.47067
0.477551
0.505696
0.644051
0.76413
0.846611
0.905301
0.937725
0.943693
0.943694
0.943678
0.938329
0.918367
0.877755
0.744228
0.547078
0.602605
0.64519
0.669119
0.700092
0.581227
0.506296
0.47702
0.458338
0.452497
0.451776
0.451898
0.455112
0.461396
0.464408
0.467812
0.472969
0.498766
0.606609
0.726986
0.831448
0.908134
0.943649
0.943667
0.943672
0.943663
0.943235
0.937136
0.90851
0.719521
0.488977
0.573518
0.610863
0.634309
0.630407
0.540301
0.503882
0.46704
0.452427
0.451755
0.451767
0.451761
0.45274
0.46064
0.465515
0.467266
0.470543
0.489966
0.570809
0.69353
0.824943
0.911291
0.943629
0.943654
0.943658
0.943653
0.943631
0.943177
0.908665
0.606334
0.487349
0.541117
0.577774
0.587198
0.556986
0.502908
0.504374
0.465467
0.451771
0.451783
0.456885
0.456676
0.453413
0.46151
0.470096
0.472197
0.472678
0.478228
0.530038
0.655035
0.815831
0.913128
0.941251
0.940883
0.940253
0.941251
0.940724
0.939137
0.891314
0.542797
0.4739
0.49806
0.527917
0.536254
0.505753
0.478729
0.504367
0.468119
0.45183
0.469123
0.626531
0.672905
0.505485
0.468904
0.468916
0.468938
0.468947
0.468962
0.475455
0.593451
0.787774
0.891126
0.913489
0.909652
0.905953
0.909818
0.905735
0.896667
0.807943
0.484281
0.467441
0.464972
0.478663
0.491694
0.478817
0.47249
0.464522
0.464296
0.474637
0.68745
0.838049
0.854058
0.790819
0.700575
0.655234
0.639483
0.59448
0.523959
0.500124
0.589009
0.738397
0.817451
0.835255
0.825063
0.815341
0.814807
0.797129
0.758921
0.629356
0.471886
0.465134
0.452908
0.452495
0.460472
0.46233
0.472459
0.470385
0.464473
0.638458
0.866526
0.90375
0.897181
0.88868
0.871398
0.873708
0.879114
0.871829
0.820702
0.736205
0.689318
0.705878
0.743096
0.760678
0.752087
0.739011
0.721217
0.687241
0.622446
0.498049
0.465926
0.465956
0.451523
0.450983
0.451013
0.452683
0.486431
0.499481
0.56241
0.823205
0.909331
0.916059
0.909554
0.895954
0.888646
0.894386
0.910396
0.925127
0.92698
0.907627
0.848613
0.77744
0.766511
0.774048
0.775025
0.76595
0.738925
0.715907
0.68385
0.635115
0.567086
0.546829
0.532691
0.451207
0.45098
0.451036
0.491373
0.515286
0.620818
0.860746
0.912515
0.915915
0.91504
0.895934
0.876736
0.870327
0.886341
0.92071
0.933254
0.934036
0.92411
0.890013
0.860051
0.851975
0.855083
0.852592
0.834447
0.834886
0.845706
0.862524
0.83718
0.829214
0.811538
0.603963
0.451205
0.451021
0.495913
0.520595
0.624658
0.829834
0.911431
0.916052
0.915865
0.895508
0.868111
0.853639
0.86074
0.909201
0.931671
0.935723
0.936721
0.934096
0.925361
0.920102
0.920247
0.920281
0.916817
0.920775
0.927346
0.930421
0.924707
0.918898
0.907235
0.817545
0.535357
0.451184
0.523313
0.528197
0.56135
0.770818
0.905698
0.915964
0.915891
0.895413
0.861626
0.838194
0.837582
0.893946
0.927773
0.93623
0.938311
0.938689
0.938633
0.938034
0.93791
0.93794
0.93768
0.938008
0.937986
0.934261
0.926972
0.917624
0.907912
0.887257
0.723358
0.468916
0.523891
0.521933
0.523681
0.724858
0.898488
0.916001
0.915849
0.895291
0.855433
0.822068
0.818035
0.87813
0.921734
0.936195
0.938635
0.93867
0.938654
0.938625
0.938621
0.938589
0.938563
0.938501
0.936198
0.930841
0.922016
0.910352
0.898312
0.886137
0.799166
0.534423
0.526656
0.505561
0.505707
0.71623
0.895861
0.915853
0.915802
0.893238
0.849365
0.807952
0.801898
0.864411
0.914733
0.934514
0.938597
0.938635
0.938624
0.938622
0.938592
0.938571
0.938468
0.936675
0.932046
0.925065
0.915204
0.902551
0.888285
0.872458
0.79713
0.57573
0.512684
0.505454
0.50885
0.750287
0.898445
0.915832
0.913701
0.887691
0.844158
0.797633
0.790275
0.854688
0.908269
0.931104
0.938587
0.938595
0.938612
0.93859
0.938569
0.938129
0.936584
0.932881
0.927046
0.919312
0.909023
0.895341
0.8791
0.858565
0.777081
0.56226
0.499549
0.502656
0.546026
0.793094
0.902812
0.915764
0.906559
0.879768
0.839506
0.79113
0.78224
0.848952
0.903037
0.9268
0.937169
0.938589
0.938584
0.937815
0.937108
0.935876
0.932933
0.928349
0.922084
0.913855
0.902801
0.887678
0.869135
0.843547
0.757964
0.555437
0.486548
0.492779
0.558534
0.804916
0.902817
0.911686
0.893907
0.869349
0.830655
0.783825
0.775242
0.846711
0.899734
0.923031
0.934273
0.937434
0.937636
0.9358
0.933875
0.931929
0.928543
0.923565
0.916776
0.907658
0.895058
0.878072
0.856904
0.826035
0.738846
0.553163
0.477846
0.48534
0.560506
0.802881
0.88952
0.896385
0.876644
0.854727
0.815651
0.77534
0.772994
0.8463
0.8976
0.920097
0.931164
0.934743
0.934877
0.932732
0.929999
0.927162
0.923564
0.917921
0.909976
0.899152
0.884208
0.864932
0.84073
0.804705
0.717276
0.552622
0.473314
0.485072
0.574103
0.779233
0.859437
0.868568
0.856041
0.835296
0.797592
0.764091
0.773021
0.848253
0.896104
0.917535
0.928215
0.931666
0.931503
0.929143
0.925775
0.921934
0.9174
0.910445
0.900589
0.887137
0.869304
0.847522
0.819245
0.776131
0.685703
0.536401
0.470946
0.483855
0.578555
0.748809
0.820945
0.833912
0.829508
0.811858
0.778913
0.751653
0.776429
0.851743
0.895022
0.915042
0.925057
0.92818
0.928034
0.925452
0.921015
0.915936
0.909643
0.900642
0.888281
0.871729
0.850904
0.825627
0.790915
0.736313
0.642432
0.517103
0.470846
0.473714
0.586332
0.714626
0.775371
0.794901
0.797187
0.784248
0.756516
0.73832
0.782443
0.856089
0.894256
0.9126
0.921476
0.924066
0.92393
0.92101
0.915362
0.908539
0.899952
0.88834
0.873361
0.854029
0.830051
0.799314
0.754455
0.685942
0.59095
0.502913
0.470821
0.529384
0.60305
0.678323
0.719787
0.745575
0.756829
0.750334
0.730791
0.7267
0.790001
0.859959
0.893356
0.909858
0.917233
0.919062
0.918825
0.91515
0.908119
0.899278
0.888156
0.874093
0.856837
0.834925
0.806859
0.767612
0.710006
0.62947
0.54205
0.493932
0.470817
0.601094
0.614347
0.628591
0.65399
0.681194
0.703233
0.708788
0.701703
0.720771
0.798622
0.862524
0.891914
0.906257
0.911834
0.912772
0.912315
0.907615
0.899287
0.888349
0.874888
0.858747
0.839067
0.8136
0.778681
0.72863
0.660026
0.574186
0.508017
0.49264
0.470803
0.601166
0.593916
0.583167
0.589761
0.607502
0.638968
0.661785
0.673144
0.719923
0.806578
0.863705
0.889762
0.901408
0.904855
0.905165
0.904251
0.898467
0.88907
0.876155
0.860424
0.841818
0.818565
0.78751
0.743512
0.68409
0.609046
0.530178
0.489656
0.491377
0.48901
0.579204
0.554054
0.536323
0.533536
0.534407
0.568163
0.614539
0.6523
0.72222
0.812868
0.86404
0.88655
0.894668
0.896142
0.896293
0.894466
0.887764
0.877401
0.862579
0.844188
0.822096
0.79371
0.754926
0.701889
0.636515
0.562663
0.502093
0.481567
0.483693
0.483108
0.514077
0.490492
0.479946
0.478543
0.479066
0.491804
0.54891
0.635655
0.736129
0.818496
0.862556
0.880997
0.885457
0.88579
0.885743
0.882699
0.875249
0.863734
0.846935
0.82528
0.798288
0.762613
0.715039
0.655151
0.588837
0.52604
0.488308
0.478365
0.476966
0.474339
0.45349
0.449105
0.448166
0.448423
0.449376
0.452079
0.475962
0.60369
0.74279
0.820806
0.859318
0.871593
0.873464
0.873587
0.872825
0.868496
0.86021
0.847205
0.82809
0.802311
0.768298
0.723663
0.668043
0.605674
0.545765
0.502334
0.483264
0.477119
0.473982
0.47066
0.447663
0.447659
0.447671
0.44768
0.447694
0.447755
0.47023
0.574271
0.6962
0.786757
0.844105
0.858532
0.858475
0.858006
0.856731
0.850859
0.841372
0.826372
0.804179
0.77262
0.729766
0.676252
0.615845
0.557857
0.513475
0.49031
0.481253
0.476536
0.473207
0.469635
0.447643
0.447659
0.447683
0.450189
0.449553
0.463958
0.499781
0.542614
0.566453
0.664931
0.787752
0.831788
0.836404
0.835297
0.834736
0.827308
0.816257
0.798613
0.77191
0.732975
0.681438
0.621838
0.56377
0.519461
0.494947
0.48468
0.479623
0.475938
0.472986
0.469362
0.447653
0.452353
0.468866
0.475013
0.47515
0.484415
0.487425
0.482681
0.475379
0.528703
0.672776
0.766755
0.792601
0.796676
0.798709
0.791702
0.779359
0.759076
0.727294
0.681573
0.624664
0.566376
0.521068
0.496217
0.48595
0.481117
0.477806
0.475033
0.472664
0.469354
0.4586
0.474589
0.474583
0.465965
0.458374
0.458923
0.455474
0.455033
0.465146
0.489683
0.556972
0.651718
0.705111
0.725082
0.734086
0.731991
0.720633
0.700101
0.666766
0.619651
0.56615
0.520869
0.49516
0.484984
0.480715
0.478013
0.475778
0.473806
0.472035
0.469344
0.490829
0.468361
0.449157
0.443179
0.443276
0.445002
0.447479
0.455013
0.468833
0.479574
0.484143
0.527653
0.578392
0.610863
0.629112
0.636361
0.630881
0.615502
0.589262
0.554002
0.518266
0.494113
0.483349
0.479028
0.476729
0.475084
0.473641
0.472376
0.471144
0.469277
0.46911
0.442456
0.441769
0.443067
0.446152
0.447054
0.449801
0.457387
0.465479
0.461588
0.45522
0.46497
0.483014
0.500948
0.515932
0.52734
0.529676
0.523099
0.510748
0.498162
0.488538
0.4819
0.477619
0.474998
0.473404
0.472349
0.471482
0.470836
0.470134
0.469116
0.444108
0.441676
0.44194
0.460168
0.453731
0.449605
0.449328
0.452773
0.452318
0.445397
0.443762
0.446924
0.450174
0.453841
0.458487
0.463197
0.465953
0.465574
0.46446
0.466069
0.47046
0.47318
0.472742
0.471435
0.470358
0.469704
0.469279
0.469177
0.469051
0.468931
0.440265
0.441894
0.472465
0.475626
0.457604
0.445123
0.443155
0.442615
0.439257
0.436856
0.438007
0.440049
0.441395
0.442807
0.444602
0.446517
0.44824
0.44929
0.450154
0.45239
0.457286
0.463028
0.466184
0.466889
0.466847
0.466778
0.466844
0.467261
0.467807
0.468739
0.440542
0.481273
0.481431
0.475554
0.444571
0.435644
0.434894
0.434076
0.432946
0.433332
0.434859
0.43631
0.43741
0.438552
0.439833
0.441182
0.442491
0.443539
0.444435
0.445936
0.449005
0.453591
0.457988
0.460736
0.462169
0.463045
0.463819
0.464889
0.466226
0.468466
0.456467
0.485888
0.471137
0.449312
0.431426
0.429492
0.43049
0.43088
0.431468
0.432439
0.43336
0.434153
0.434997
0.435918
0.436909
0.437945
0.438967
0.439877
0.440719
0.441871
0.443888
0.447002
0.4507
0.454017
0.456502
0.45836
0.459967
0.461811
0.464089
0.467952
0.475607
0.485808
0.446356
0.429943
0.425727
0.427641
0.430091
0.431475
0.432343
0.432935
0.433174
0.433255
0.433625
0.434205
0.434894
0.435655
0.43644
0.437202
0.437971
0.438942
0.44042
0.4426
0.445364
0.448278
0.450944
0.453289
0.455496
0.458001
0.461236
0.466971
0.479601
0.45324
0.428836
0.423879
0.425163
0.428703
0.432253
0.434557
0.435193
0.434644
0.433828
0.43334
0.4331
0.433236
0.433597
0.434087
0.434647
0.435243
0.435893
0.436703
0.437842
0.439447
0.441511
0.443859
0.446256
0.448601
0.450992
0.453814
0.457728
0.465283
0.458863
0.430683
0.423855
0.423811
0.427497
0.43544
0.441806
0.444037
0.442329
0.438543
0.435547
0.433863
0.43307
0.432782
0.432816
0.433046
0.433389
0.433805
0.434301
0.434937
0.435813
0.437021
0.438588
0.440449
0.442485
0.44462
0.446924
0.449737
0.453911
0.462781
0.435047
0.423761
0.423674
0.425965
0.43978
0.463599
0.471149
0.468849
0.45863
0.445735
0.438279
0.434746
0.433184
0.432549
0.432335
0.432345
0.432492
0.432733
0.433064
0.433521
0.434167
0.435067
0.436258
0.437728
0.439422
0.441301
0.443419
0.446068
0.450182
0.459597
0.425576
0.423573
0.423858
0.443436
0.486107
0.516069
0.51397
0.504408
0.486212
0.456407
0.441041
0.435366
0.433162
0.432323
0.431975
0.431841
0.431834
0.431919
0.432092
0.432376
0.432812
0.433453
0.434337
0.435481
0.436872
0.438498
0.440408
0.442852
0.446755
0.456024
0.423318
0.423715
0.443359
0.518028
0.559514
0.551635
0.534704
0.523715
0.512267
0.467716
0.442159
0.435082
0.432805
0.43199
0.431634
0.431435
0.431327
0.431291
0.431324
0.431446
0.431691
0.432102
0.432721
0.433579
0.434693
0.436075
0.437776
0.44001
0.443659
0.452314
0.424472
0.442233
0.518033
0.629852
0.611107
0.561522
0.531383
0.526136
0.507592
0.466467
0.440401
0.433887
0.432078
0.43155
0.43128
0.431072
0.430914
0.430797
0.430722
0.430704
0.430776
0.430976
0.431348
0.431939
0.432789
0.433929
0.435413
0.437435
0.440822
0.448626
0.439696
0.503078
0.617771
0.629891
0.627388
0.556591
0.513694
0.518984
0.494472
0.45637
0.436496
0.432165
0.431295
0.431104
0.43092
0.43073
0.430558
0.430404
0.430264
0.430148
0.430078
0.430087
0.43022
0.430536
0.431103
0.431979
0.433225
0.435023
0.438141
0.445038
0.464072
0.598543
0.629891
0.629957
0.621427
0.53836
0.48761
0.499641
0.471094
0.442917
0.43286
0.43088
0.430759
0.430719
0.430571
0.430401
0.430237
0.43007
0.429899
0.429729
0.429569
0.429443
0.429392
0.429465
0.429723
0.430246
0.431157
0.432666
0.435494
0.441541
0.480307
0.625515
0.62939
0.629891
0.610476
0.509068
0.471009
0.471615
0.449706
0.434943
0.430725
0.430305
0.430422
0.430374
0.430237
0.430089
0.429934
0.429765
0.429578
0.429378
0.42917
0.428973
0.428812
0.428718
0.428726
0.428914
0.429396
0.430402
0.432757
0.438007
0.485383
0.563772
0.58716
0.622172
0.595135
0.485696
0.457437
0.451116
0.437944
0.431355
0.429872
0.430003
0.430096
0.43003
0.429914
0.429786
0.429642
0.429475
0.429283
0.429065
0.428828
0.428583
0.42835
0.42815
0.428014
0.427983
0.428102
0.428553
0.430147
0.434305
0.485425
0.477473
0.476497
0.55316
0.54135
0.479114
0.446642
0.438987
0.43263
0.429904
0.42954
0.429686
0.429713
0.429656
0.429571
0.42947
0.429348
0.429196
0.429007
0.428781
0.42852
0.428236
0.427945
0.42767
0.427433
0.427262
0.427172
0.427241
0.428055
0.430879
0.47596
0.450847
0.448625
0.471295
0.461477
0.455512
0.439065
0.433238
0.430335
0.429319
0.429255
0.429284
0.429262
0.429222
0.429175
0.429117
0.429037
0.428921
0.428753
0.428526
0.428247
0.427926
0.427581
0.427236
0.426916
0.426643
0.426423
0.426285
0.426589
0.428223
0.461688
0.446977
0.446987
0.450385
0.443339
0.440691
0.433981
0.430654
0.429334
0.428917
0.428838
0.42877
0.428722
0.428706
0.428706
0.428709
0.428697
0.428643
0.428521
0.428312
0.428018
0.42766
0.427258
0.426841
0.426439
0.426075
0.425754
0.425489
0.425496
0.426277
0.456748
0.446417
0.447224
0.446067
0.440868
0.435518
0.431215
0.429355
0.428709
0.428422
0.428246
0.428121
0.428072
0.428089
0.428148
0.428234
0.428316
0.428358
0.428316
0.428153
0.427855
0.427452
0.426983
0.426485
0.425996
0.42554
0.425123
0.424748
0.424537
0.4248
0.454011
0.446032
0.44773
0.445097
0.438676
0.432857
0.429638
0.428501
0.428078
0.42775
0.427485
0.427329
0.427294
0.42735
0.427484
0.427676
0.42789
0.428071
0.428149
0.428064
0.427779
0.427312
0.426754
0.426161
0.42558
0.425034
0.424525
0.424042
0.423655
0.423597
0.451726
0.446043
0.448535
0.444084
0.436379
0.431038
0.428548
0.427744
0.427318
0.426907
0.426572
0.426393
0.426375
0.426474
0.426695
0.427017
0.427403
0.42779
0.428053
0.428064
0.427787
0.427233
0.426529
0.425807
0.425133
0.424526
0.423955
0.423371
0.422826
0.422538
0.44894
0.44597
0.450994
0.443243
0.434407
0.429714
0.427686
0.426969
0.426435
0.425922
0.425522
0.425318
0.425306
0.425446
0.425758
0.426229
0.426852
0.427575
0.428152
0.428328
0.428012
0.42728
0.426332
0.425368
0.42451
0.4239
0.423372
0.422734
0.422049
0.421565
0.446022
0.44604
0.458549
0.442904
0.432886
0.428671
0.426919
0.426128
0.425442
0.424816
0.424348
0.424109
0.424086
0.424253
0.424652
0.425317
0.426378
0.427829
0.429314
0.430078
0.429735
0.428507
0.426947
0.425235
0.423842
0.423062
0.422702
0.422118
0.421353
0.420727
0.446028
0.449434
0.465296
0.442613
0.431713
0.427785
0.426163
0.42521
0.424354
0.423611
0.423067
0.422776
0.422719
0.422889
0.423395
0.424526
0.426766
0.43039
0.434567
0.436961
0.437033
0.435135
0.432215
0.428038
0.42489
0.422661
0.422122
0.421604
0.420772
0.420162
0.446058
0.465358
0.465322
0.442052
0.430624
0.426911
0.425342
0.424202
0.423181
0.422325
0.421699
0.421332
0.421205
0.42136
0.422189
0.424724
0.430301
0.440711
0.45153
0.458407
0.461624
0.459651
0.454425
0.441909
0.433972
0.426648
0.423176
0.421559
0.420303
0.419895
0.451655
0.486844
0.464619
0.442367
0.429603
0.425828
0.424332
0.423077
0.421931
0.420981
0.42027
0.419789
0.419519
0.419678
0.421594
0.428079
0.444919
0.47143
0.485734
0.496484
0.50384
0.505138
0.502319
0.48177
0.468519
0.448937
0.43139
0.423977
0.42031
0.419866
0.460794
0.49212
0.463185
0.446967
0.429377
0.424592
0.423096
0.421827
0.420615
0.419601
0.418802
0.418142
0.417663
0.418283
0.423708
0.443931
0.495236
0.518002
0.5224
0.525434
0.529818
0.531187
0.530982
0.524392
0.526118
0.514505
0.461659
0.435969
0.424955
0.419911
0.473891
0.536573
0.464325
0.465058
0.431159
0.423788
0.421799
0.420469
0.41923
0.418198
0.417306
0.416425
0.41613
0.419325
0.435316
0.504351
0.532066
0.532078
0.532046
0.53205
0.532022
0.532014
0.53195
0.53064
0.530511
0.530563
0.526762
0.474751
0.455008
0.424214
0.584721
0.647391
0.522721
0.4797
0.433089
0.42359
0.420584
0.418985
0.41774
0.416753
0.415791
0.414874
0.41562
0.42529
0.466839
0.532013
0.532055
0.532039
0.532039
0.53201
0.532007
0.531099
0.531024
0.527893
0.530215
0.529707
0.521205
0.518902
0.518898
0.449626
0.678918
0.679231
0.628392
0.47832
0.434199
0.423651
0.419373
0.417298
0.41609
0.415264
0.414472
0.414483
0.416843
0.438086
0.525913
0.532003
0.532021
0.530354
0.527872
0.527901
0.528117
0.525134
0.499121
0.466953
0.477765
0.493
0.485671
0.512239
0.51897
0.508137
0.638905
0.645048
0.605803
0.482698
0.435383
0.423469
0.417776
0.415199
0.414256
0.413982
0.414077
0.414455
0.42252
0.460696
0.526264
0.524547
0.517091
0.509245
0.510683
0.515831
0.517569
0.492674
0.452881
0.438209
0.43644
0.442522
0.441791
0.453995
0.470153
0.508262
0.539511
0.565751
0.528049
0.464277
0.435931
0.423229
0.415417
0.412429
0.412261
0.412977
0.414379
0.418054
0.431824
0.483965
0.524968
0.520955
0.519849
0.500985
0.500978
0.501658
0.490053
0.463109
0.439909
0.434194
0.429072
0.426479
0.425935
0.426819
0.432085
0.466258
0.47585
0.495897
0.473583
0.457734
0.441613
0.424225
0.412069
0.408806
0.409842
0.412399
0.416277
0.422922
0.436444
0.47114
0.504677
0.545236
0.585171
0.540408
0.501731
0.491232
0.470332
0.446095
0.436997
0.434432
0.430112
0.426456
0.424747
0.424703
0.424749
0.427997
0.449624
0.467627
0.464958
0.45976
0.458568
0.428412
0.407075
0.404121
0.406989
0.412036
0.418764
0.427875
0.440843
0.455671
0.475009
0.578459
0.653464
0.623994
0.556704
0.511296
0.471732
0.442365
0.437581
0.43566
0.432956
0.42902
0.424931
0.424694
0.424691
0.424706
0.436925
0.449758
0.460182
0.474449
0.498545
0.435762
0.400224
0.399508
0.403986
0.411765
0.421912
0.434799
0.453083
0.464069
0.464037
0.565017
0.654632
0.655035
0.628754
0.574839
0.504761
0.449703
0.44122
0.441465
0.440791
0.437449
0.430243
0.424778
0.424741
0.424694
0.435654
0.438424
0.466629
0.552919
0.552675
0.447342
0.399279
0.399202
0.400987
0.411773
0.428139
0.451439
0.470253
0.523253
0.603375
0.650901
0.65424
0.655563
0.654963
0.619721
0.557345
0.485466
0.452897
0.453041
0.451334
0.447961
0.44399
0.435989
0.434803
0.425148
0.439075
0.437874
0.457889
0.55379
0.537288
0.440058
0.399358
0.399206
0.400009
0.41488
0.445928
0.494312
0.734984
0.831625
0.909306
0.877094
0.760584
0.690572
0.658477
0.615778
0.561392
0.512007
0.478659
0.471555
0.469012
0.470795
0.48539
0.525429
0.587664
0.583323
0.466695
0.437909
0.438874
0.491901
0.467414
0.427478
0.404572
0.39921
0.401435
0.425603
0.484591
0.767904
0.950192
0.970292
0.979436
0.974577
0.940387
0.874846
0.785731
0.708627
0.637587
0.59269
0.57027
0.562762
0.577793
0.624522
0.694575
0.775523
0.841053
0.858101
0.470228
0.438098
0.438118
0.4394
0.434344
0.422699
0.408512
0.399314
0.403376
0.441794
0.638111
0.920969
0.975188
0.980425
0.983498
0.98529
0.9846
0.976542
0.953098
0.921721
0.88586
0.859168
0.84366
0.841129
0.863307
0.902037
0.93706
0.960045
0.969809
0.96865
0.469671
0.469543
0.450318
0.441378
0.429433
0.421933
0.410639
0.402845
0.410149
0.460258
0.743864
0.950008
0.976826
0.98081
0.983652
0.985866
0.987075
0.987351
0.986726
0.984989
0.982649
0.980906
0.980069
0.981324
0.985555
0.989998
0.992648
0.99342
0.990848
0.98185
0.639869
0.739306
0.602363
0.490023
0.431325
0.423615
0.413249
0.406139