/*--------------------------------*- C++ -*----------------------------------*\
| =========                 |                                                 |
| \\      /  F ield         | OpenFOAM: The Open Source CFD Toolbox           |
|  \\    /   O peration     | Version:  v1606+                                |
|   \\  /    A nd           | Web:      www.OpenFOAM.com                      |
|    \\/     M anipulation  |                                                 |
\*---------------------------------------------------------------------------*/
FoamFile
{
    version     2.0;
    format      ascii;
    class       volScalarField;
    location    "1.54";
    object      nut.particles;
}
// * * * * * * * * * * * * * * * * * * * * * * * * * * * * * * * * * * * * * //

dimensions      [0 2 -1 0 0 0 0];

internalField   nonuniform List<scalar> 
6000
(
1.24367e-05
9.59249e-06
9.31424e-06
9.17961e-06
9.44753e-06
8.74594e-06
8.32586e-06
1.05057e-05
1.37728e-05
1.51975e-05
1.53017e-05
1.49835e-05
1.51956e-05
1.61907e-05
1.677e-05
1.6538e-05
1.50772e-05
1.38566e-05
1.34996e-05
1.2243e-05
9.29612e-06
8.37024e-06
8.61028e-06
9.10242e-06
8.92772e-06
8.94947e-06
9.22926e-06
9.45268e-06
9.73134e-06
1.28798e-05
6.64698e-06
6.31781e-06
5.67889e-06
4.63805e-06
3.75479e-06
3.64897e-06
3.86592e-06
4.03151e-06
4.11498e-06
4.21567e-06
4.45965e-06
4.63266e-06
4.92084e-06
5.30926e-06
5.14161e-06
5.1602e-06
5.44157e-06
5.15614e-06
4.7949e-06
4.45641e-06
4.41329e-06
4.16481e-06
3.82186e-06
4.48444e-06
5.4205e-06
6.45512e-06
7.38178e-06
7.6769e-06
7.69762e-06
8.73322e-06
1.2216e-05
1.3295e-05
1.26139e-05
1.0378e-05
6.91609e-06
4.86623e-06
3.95285e-06
3.81625e-06
3.90652e-06
4.12158e-06
4.57026e-06
4.72302e-06
4.89001e-06
3.93991e-06
3.62016e-06
3.70558e-06
4.65633e-06
5.34051e-06
5.19299e-06
4.6585e-06
4.34695e-06
4.99959e-06
7.50713e-06
1.07844e-05
1.41007e-05
1.56858e-05
1.67262e-05
1.46762e-05
1.06907e-05
1.13358e-05
1.00883e-05
9.78794e-06
1.29379e-05
1.65629e-05
1.43026e-05
8.00572e-06
4.78804e-06
3.79359e-06
3.63579e-06
3.7215e-06
3.93224e-06
4.2695e-06
3.96155e-06
3.39856e-06
3.38012e-06
3.39348e-06
3.49054e-06
4.77859e-06
4.7658e-06
4.19199e-06
4.06577e-06
5.54425e-06
1.25636e-05
1.54561e-05
1.61917e-05
1.37678e-05
9.96336e-06
7.25794e-06
5.03678e-06
5.66637e-06
5.41934e-06
4.50677e-06
6.05603e-06
1.08268e-05
4.54927e-05
9.61777e-05
1.05628e-05
5.24498e-06
4.12891e-06
3.74017e-06
3.65382e-06
3.71362e-06
3.23905e-06
3.26407e-06
3.26704e-06
3.28233e-06
3.29419e-06
3.82374e-06
4.25901e-06
4.27638e-06
4.70062e-06
7.1806e-06
1.62577e-05
1.51573e-05
8.61116e-06
6.2672e-06
4.454e-06
3.81688e-06
3.86605e-06
3.93461e-06
3.50717e-06
3.536e-06
3.58131e-06
4.01017e-06
9.60504e-06
9.8601e-05
9.46839e-05
8.80571e-06
5.94371e-06
4.72902e-06
4.42469e-06
4.18463e-06
3.22253e-06
3.09562e-06
3.12565e-06
3.1659e-06
3.20817e-06
3.55702e-06
4.30805e-06
5.81072e-06
7.7144e-06
1.12249e-05
1.63015e-05
8.13401e-06
4.47183e-06
3.72696e-06
3.4833e-06
3.52013e-06
3.53337e-06
3.64453e-06
3.23486e-06
3.25279e-06
3.29606e-06
3.36032e-06
3.60574e-06
1.14098e-05
9.40477e-05
1.30124e-05
9.50973e-06
7.79458e-06
6.77314e-06
5.54753e-06
3.86129e-06
3.26587e-06
3.21594e-06
3.23052e-06
3.35646e-06
4.01141e-06
5.88941e-06
9.96653e-06
2.60966e-05
0.000204014
9.52396e-05
9.66183e-06
5.56134e-06
4.14105e-06
3.7907e-06
3.35428e-06
3.3656e-06
3.47559e-06
3.01284e-06
3.03743e-06
3.11315e-06
3.23104e-06
3.34605e-06
5.58434e-06
9.33946e-05
0.000133862
2.68409e-05
1.53584e-05
1.17626e-05
9.09827e-06
6.0235e-06
4.53292e-06
4.22211e-06
4.26034e-06
4.62494e-06
5.82889e-06
9.75512e-06
8.34271e-05
0.000521251
0.000959557
0.000972535
1.74691e-05
8.56976e-06
6.32676e-06
5.74725e-06
4.40039e-06
3.49139e-06
3.54149e-06
3.6955e-06
3.63182e-06
3.81065e-06
3.9253e-06
4.03964e-06
6.61801e-06
0.000420965
0.00182828
0.000717405
0.000766036
0.000462432
0.000100519
1.15815e-05
8.44351e-06
7.66263e-06
7.87676e-06
8.55152e-06
1.07134e-05
2.66829e-05
0.000438154
0.000655149
0.000942187
0.000975007
2.28662e-05
1.15189e-05
1.01693e-05
9.91646e-06
8.38387e-06
5.62764e-06
4.93599e-06
7.3273e-06
7.27533e-06
7.788e-06
7.76859e-06
7.8369e-06
1.17162e-05
0.00225001
0.00224038
0.0022551
0.00206856
0.00170346
0.00139889
0.000498048
4.66911e-05
1.60646e-05
1.77949e-05
2.8112e-05
0.000126859
0.000518888
0.000645215
0.000629718
0.000913144
2.88769e-05
9.77165e-06
9.10851e-06
1.13384e-05
1.3092e-05
1.37007e-05
1.17582e-05
8.56832e-06
1.5259e-05
1.62852e-05
1.6352e-05
1.63328e-05
1.39859e-05
1.6462e-05
0.00223527
0.00226772
0.0022357
0.00222251
0.00207849
0.0020456
0.00175293
0.00116595
0.000862513
0.00112426
0.00149974
0.00151079
0.00151432
0.00152118
0.000629127
2.15285e-05
5.50635e-06
2.64901e-06
4.01748e-06
6.84503e-06
8.25602e-06
1.23451e-05
1.57801e-05
1.35721e-05
1.75017e-05
1.36203e-05
1.7139e-05
1.47554e-05
9.5777e-06
9.87395e-06
1.81862e-05
0.0022281
0.00225738
0.00223315
0.00224596
0.00222884
0.00223653
0.00222182
0.00222152
0.000491209
6.60934e-05
5.20823e-05
3.75558e-05
2.68109e-05
1.06458e-05
2.74561e-06
1.31729e-06
1.30077e-06
2.10449e-06
3.86791e-06
4.62517e-06
5.38015e-06
1.04069e-05
0.000157638
1.28276e-05
6.91149e-06
8.2861e-06
7.66127e-06
4.24557e-06
3.47978e-06
4.54764e-06
1.02483e-05
2.06859e-05
0.000336111
0.00222955
0.00223858
0.00221276
3.65214e-05
1.83332e-05
8.26743e-06
5.19715e-06
4.67381e-06
4.24748e-06
2.55301e-06
1.23925e-06
9.19475e-07
8.69259e-07
9.81643e-07
1.70601e-06
3.7351e-06
4.16894e-06
4.28716e-06
4.62755e-06
1.85619e-05
7.60857e-06
5.00978e-06
4.89962e-06
4.89433e-06
2.68839e-06
1.58765e-06
1.4215e-06
1.43772e-06
2.63055e-06
6.163e-06
1.05153e-05
1.23416e-05
8.13969e-06
3.90723e-06
1.85549e-06
1.14325e-06
8.76616e-07
7.80028e-07
7.43492e-07
7.1722e-07
7.32292e-07
7.88709e-07
7.97189e-07
8.52615e-07
1.56394e-06
4.46791e-06
4.36918e-06
3.915e-06
4.00447e-06
6.84319e-06
6.24293e-06
4.46353e-06
4.25347e-06
8.00187e-06
2.48459e-06
1.07907e-06
9.15554e-07
7.67394e-07
9.36165e-07
1.43579e-06
2.10199e-06
2.40559e-06
2.04013e-06
1.556e-06
1.1448e-06
9.1323e-07
7.49011e-07
6.50203e-07
6.24639e-07
6.63523e-07
7.14179e-07
7.43925e-07
7.37547e-07
8.65266e-07
1.73804e-06
4.27699e-06
4.65782e-06
3.67341e-06
3.75776e-06
4.82709e-06
6.47722e-06
4.25389e-06
4.03942e-06
1.0053e-05
3.14593e-06
1.00275e-06
8.57575e-07
7.70762e-07
8.12681e-07
1.18063e-06
1.78475e-06
2.20963e-06
2.24983e-06
1.96597e-06
1.57916e-06
1.25733e-06
1.02179e-06
8.44755e-07
7.57174e-07
7.36769e-07
7.58656e-07
7.40056e-07
7.62421e-07
1.1691e-06
2.54977e-06
4.40188e-06
5.31514e-06
4.70888e-06
4.25025e-06
5.5436e-06
6.9397e-06
3.95425e-06
3.8668e-06
7.13027e-06
4.72948e-06
1.06913e-06
8.68795e-07
8.16369e-07
7.9908e-07
1.11881e-06
1.74637e-06
2.47885e-06
2.92456e-06
2.91712e-06
2.73187e-06
2.41453e-06
1.90947e-06
1.39906e-06
1.07382e-06
9.3117e-07
8.69758e-07
8.28593e-07
9.49794e-07
1.95876e-06
4.28576e-06
6.91503e-06
7.90369e-06
7.74312e-06
7.22866e-06
8.56743e-06
7.74554e-06
4.36768e-06
3.96424e-06
4.90247e-06
7.101e-06
1.10378e-06
8.54659e-07
8.27985e-07
7.84048e-07
1.08362e-06
1.79968e-06
2.66994e-06
3.60414e-06
4.35504e-06
4.53077e-06
4.36619e-06
3.59375e-06
2.58298e-06
1.77582e-06
1.21457e-06
1.03626e-06
1.07939e-06
1.7118e-06
4.0641e-06
8.88536e-06
4.43181e-05
0.000143926
0.000184168
0.000139692
0.000295535
9.98121e-06
5.93118e-06
5.27328e-06
4.95863e-06
8.64454e-06
1.51728e-06
8.43075e-07
8.26735e-07
7.71567e-07
1.08874e-06
2.21464e-06
3.20557e-06
4.58123e-06
6.13381e-06
7.24764e-06
7.68872e-06
6.9827e-06
5.1209e-06
3.20686e-06
1.98312e-06
1.41354e-06
1.89905e-06
4.39199e-06
1.04802e-05
0.000474911
0.00179067
0.00292797
0.00368919
0.00385419
0.00435251
0.000427266
1.03051e-05
9.22703e-06
7.84579e-06
9.48243e-06
3.17163e-06
1.00991e-06
8.9468e-07
8.55446e-07
1.38721e-06
3.60313e-06
5.14052e-06
7.26611e-06
9.88409e-06
1.46497e-05
2.19995e-05
1.41699e-05
1.02389e-05
6.80091e-06
3.98566e-06
2.86499e-06
4.96013e-06
1.18235e-05
0.000775152
0.00293948
0.0046416
0.00557622
0.0055805
0.00557846
0.00557942
0.00259778
0.00128993
0.000759543
0.00033339
0.000117289
9.05341e-06
2.25653e-06
1.43206e-06
1.3719e-06
2.71761e-06
8.33702e-06
1.13002e-05
0.000206294
0.000957083
0.00127447
0.00102759
0.00063695
0.000220884
1.33953e-05
8.71591e-06
7.93356e-06
1.30295e-05
0.000551836
0.00253007
0.0038595
0.00546435
0.00558384
0.00558084
0.00548127
0.00557677
0.00263285
0.0026334
0.00262706
0.0026228
0.00261332
0.000307863
1.07383e-05
5.12231e-06
4.54615e-06
8.4636e-06
0.00037805
0.00364451
0.00538934
0.00541113
0.00540203
0.00438211
0.00309757
0.00178461
0.000303202
1.59107e-05
2.17781e-05
0.000613593
0.00200416
0.00235555
0.00331616
0.004654
0.00531678
0.00462086
0.00254312
0.00284777
0.00262951
0.00261477
3.10505e-05
2.46276e-05
2.47991e-05
2.39994e-05
2.08796e-05
1.48196e-05
1.4924e-05
2.42029e-05
0.00142985
0.00536882
0.0054089
0.00541505
0.00542319
0.00541385
0.00541915
0.00489881
0.00200883
0.00036108
0.000966927
0.00200064
0.00200033
0.00168013
0.000382252
3.96351e-05
2.43059e-05
1.80028e-05
2.25715e-05
2.15492e-05
3.08527e-05
1.11158e-05
3.01074e-06
2.5002e-06
2.91849e-06
3.32746e-06
6.30042e-06
7.34392e-06
9.93597e-06
1.18371e-05
1.79037e-05
3.47319e-05
0.000318143
0.00536808
0.00541204
0.00542722
0.00541839
0.00542232
0.00492274
0.0016793
0.000850116
2.94442e-05
1.49971e-05
9.60414e-06
6.5419e-06
4.07908e-06
2.79311e-06
2.38081e-06
2.75447e-06
3.74239e-06
5.91638e-06
1.50399e-06
1.04879e-06
1.0933e-06
1.14146e-06
1.30322e-06
1.75881e-06
2.21989e-06
2.67674e-06
2.55807e-06
2.38217e-06
3.51168e-06
7.86505e-06
2.93054e-05
0.001658
0.00537982
0.00541533
0.00541313
0.00472422
0.00117618
1.65893e-05
3.38537e-06
2.0004e-06
1.65809e-06
1.57048e-06
1.48311e-06
1.42137e-06
1.31308e-06
1.19513e-06
1.82356e-06
2.76277e-06
1.04839e-06
9.86198e-07
1.03533e-06
1.06515e-06
1.12576e-06
1.21287e-06
1.32889e-06
1.39614e-06
1.39017e-06
1.40194e-06
1.49444e-06
1.863e-06
3.29603e-06
1.08874e-05
2.85008e-05
0.000464073
0.00336696
0.00400429
2.63341e-05
3.17005e-06
1.54193e-06
1.50863e-06
1.48997e-06
1.55799e-06
1.74361e-06
1.96712e-06
1.97636e-06
1.83413e-06
2.67347e-06
3.14691e-06
1.11038e-06
9.86765e-07
9.86483e-07
1.04696e-06
1.11651e-06
1.17373e-06
1.23225e-06
1.26185e-06
1.25831e-06
1.32346e-06
1.51832e-06
1.73274e-06
1.98022e-06
2.40548e-06
4.6324e-06
8.12754e-06
1.44992e-05
2.34098e-05
6.15363e-06
1.90814e-06
1.62785e-06
1.61362e-06
1.64976e-06
1.80956e-06
2.17692e-06
2.73606e-06
3.27856e-06
3.32219e-06
4.90072e-06
3.38259e-06
1.26302e-06
1.03755e-06
1.0414e-06
1.08132e-06
1.10699e-06
1.16392e-06
1.2375e-06
1.27208e-06
1.29465e-06
1.40135e-06
1.7441e-06
2.1327e-06
2.15784e-06
1.82125e-06
1.73775e-06
1.9879e-06
2.69842e-06
5.06165e-06
3.37876e-06
2.27658e-06
1.84992e-06
1.79102e-06
1.83648e-06
1.99215e-06
2.34224e-06
3.01889e-06
4.23777e-06
5.10009e-06
8.46567e-06
3.80826e-06
1.43421e-06
1.21181e-06
1.12833e-06
1.13637e-06
1.1887e-06
1.27554e-06
1.36602e-06
1.43631e-06
1.46764e-06
1.74408e-06
2.40359e-06
2.92969e-06
2.50855e-06
1.63544e-06
1.27013e-06
1.19849e-06
1.15924e-06
2.78685e-06
3.78487e-06
2.96944e-06
2.16216e-06
1.91509e-06
1.92526e-06
2.02791e-06
2.2986e-06
2.85029e-06
4.42197e-06
6.21368e-06
1.27256e-05
4.3672e-06
1.69573e-06
1.47495e-06
1.33281e-06
1.3286e-06
1.38126e-06
1.46636e-06
1.54257e-06
1.60967e-06
1.72072e-06
2.27466e-06
3.50071e-06
3.92073e-06
2.58032e-06
1.45292e-06
1.17367e-06
1.12042e-06
1.05857e-06
1.56993e-06
3.97009e-06
3.88974e-06
2.64028e-06
2.06719e-06
1.9786e-06
2.00463e-06
2.17562e-06
2.44643e-06
3.49936e-06
5.45299e-06
1.56853e-05
4.82086e-06
2.04291e-06
1.81791e-06
1.64777e-06
1.62575e-06
1.65635e-06
1.77673e-06
1.89743e-06
1.97898e-06
2.21559e-06
3.2127e-06
5.24316e-06
4.64045e-06
2.2155e-06
1.32322e-06
1.2232e-06
1.1534e-06
1.07948e-06
1.16355e-06
3.75259e-06
4.49571e-06
3.38775e-06
2.41678e-06
2.07309e-06
1.99621e-06
2.03929e-06
2.1933e-06
2.62811e-06
3.13763e-06
1.61978e-05
5.64804e-06
2.44568e-06
2.21627e-06
2.05317e-06
2.06698e-06
2.19717e-06
2.40135e-06
2.5414e-06
2.73073e-06
3.24661e-06
4.93476e-06
7.01703e-06
4.28531e-06
1.62545e-06
1.15737e-06
1.30229e-06
1.24835e-06
1.14071e-06
1.09182e-06
1.88831e-06
4.99418e-06
4.22696e-06
3.0795e-06
2.37699e-06
2.10554e-06
2.00837e-06
2.0779e-06
2.23607e-06
2.08739e-06
1.28014e-05
6.49814e-06
2.93225e-06
2.77349e-06
2.68306e-06
2.8447e-06
3.20867e-06
3.68936e-06
4.02892e-06
4.32129e-06
5.19475e-06
7.39903e-06
7.87682e-06
3.12841e-06
1.17816e-06
1.00476e-06
1.16318e-06
1.3192e-06
1.23289e-06
1.11319e-06
1.23384e-06
3.83338e-06
4.37718e-06
3.7388e-06
2.96742e-06
2.41818e-06
2.14032e-06
2.06449e-06
2.10122e-06
1.9444e-06
9.11418e-06
7.86777e-06
3.60991e-06
3.55801e-06
3.74898e-06
4.4647e-06
5.41895e-06
6.35024e-06
7.02849e-06
7.30867e-06
8.11861e-06
8.90443e-06
7.30179e-06
2.26629e-06
1.00242e-06
9.43826e-07
1.01391e-06
1.20997e-06
1.24326e-06
1.14843e-06
1.12494e-06
1.72613e-06
4.90217e-06
4.06107e-06
3.59453e-06
2.93095e-06
2.36114e-06
2.05815e-06
2.00048e-06
1.88796e-06
7.07926e-06
9.97102e-06
4.69256e-06
4.88295e-06
5.764e-06
7.42658e-06
9.2845e-06
1.21834e-05
1.69112e-05
1.43745e-05
1.05332e-05
8.78661e-06
5.5559e-06
1.82874e-06
9.40655e-07
8.91706e-07
9.60691e-07
1.04185e-06
1.15462e-06
1.10221e-06
1.04726e-06
1.11298e-06
3.0363e-06
4.28721e-06
3.74654e-06
3.35052e-06
2.52743e-06
1.97391e-06
1.83128e-06
1.7773e-06
5.73645e-06
1.22927e-05
6.30632e-06
7.05141e-06
9.29658e-06
6.90887e-05
0.000254836
0.000361738
0.000336129
0.00024016
0.000141014
9.00082e-06
5.26622e-06
1.71355e-06
9.55227e-07
8.62174e-07
9.07304e-07
9.47155e-07
1.02173e-06
1.0197e-06
9.81383e-07
9.6268e-07
1.31675e-06
3.08564e-06
3.72719e-06
3.49424e-06
2.61946e-06
1.8851e-06
1.67137e-06
1.63862e-06
4.51011e-06
1.41849e-05
8.43029e-06
1.07966e-05
0.000308629
0.00101384
0.00130744
0.00119043
0.00093584
0.000660997
0.000398411
9.04147e-05
6.16232e-06
2.05823e-06
1.06504e-06
8.7213e-07
8.42472e-07
8.54111e-07
9.26755e-07
9.60915e-07
9.3606e-07
9.00808e-07
8.9038e-07
1.23649e-06
2.34214e-06
3.87062e-06
2.725e-06
1.9485e-06
1.718e-06
1.49669e-06
3.86731e-06
1.52857e-05
1.30048e-05
0.000556354
0.00231849
0.00334575
0.00331793
0.0024601
0.00157171
0.00113937
0.000679201
0.000280493
7.21814e-06
2.63856e-06
1.24046e-06
8.99635e-07
7.69498e-07
7.96856e-07
8.79725e-07
9.19501e-07
9.02598e-07
8.62146e-07
7.97485e-07
7.3985e-07
1.69138e-06
6.787e-06
3.06488e-06
2.30495e-06
1.95498e-06
1.51936e-06
4.31827e-06
1.58408e-05
0.000304215
0.00281889
0.00538892
0.00583758
0.00575847
0.00403299
0.00200122
0.00142111
0.000956443
0.000510783
8.22303e-06
3.27097e-06
1.50475e-06
9.15461e-07
7.17882e-07
7.67526e-07
8.55893e-07
8.67197e-07
8.56404e-07
8.2278e-07
7.47299e-07
6.45606e-07
3.11271e-06
5.01842e-05
3.63474e-06
2.99833e-06
2.46983e-06
2.50394e-06
5.5811e-06
1.65968e-05
0.00104869
0.0054305
0.00585102
0.00584458
0.00584843
0.00524506
0.00217868
0.00125134
0.00102045
0.000689946
3.85671e-05
4.28803e-06
1.79367e-06
8.7801e-07
6.90486e-07
7.32964e-07
7.94303e-07
7.88962e-07
7.76802e-07
7.47928e-07
6.77705e-07
7.63362e-07
9.70227e-06
6.16173e-05
4.623e-06
3.65764e-06
3.49213e-06
4.43036e-06
7.56463e-06
1.64769e-05
0.00125847
0.00584032
0.00583492
0.0033211
0.00340333
0.00487174
0.00197589
0.000729374
0.000564074
0.000531279
0.000257462
6.55202e-06
2.41495e-06
9.3639e-07
6.76117e-07
6.97013e-07
7.3509e-07
7.09759e-07
6.84527e-07
6.55601e-07
5.99105e-07
8.40798e-07
1.57305e-05
0.000453192
7.68251e-06
5.41771e-06
5.17957e-06
6.92714e-06
0.000238213
1.37218e-05
0.000922676
0.00580305
0.000831948
1.03824e-05
6.91463e-06
3.16072e-05
0.000850746
0.000846951
0.000843865
0.000842526
0.000839787
0.00037602
5.60334e-06
1.35704e-06
7.9099e-07
7.72595e-07
8.06416e-07
8.05608e-07
7.20359e-07
6.99047e-07
6.64156e-07
1.43471e-06
0.000116699
0.000998877
0.00133008
0.000240042
2.6154e-05
0.00023482
0.000541915
0.00140906
0.00144145
0.000424005
5.22314e-06
1.20167e-06
9.0713e-07
2.19249e-06
5.83204e-06
8.76038e-06
1.0725e-05
1.68711e-05
3.25884e-05
3.84034e-05
1.28157e-05
2.84522e-06
1.68086e-06
1.61761e-06
1.88202e-06
1.98982e-06
1.7176e-06
1.86846e-06
2.57326e-06
6.49243e-06
0.000589521
0.00130801
0.00514695
0.00538681
0.00221718
0.00179768
0.000544141
0.000724487
0.00141909
7.56318e-06
8.52059e-07
5.86812e-07
5.60918e-07
5.60702e-07
7.0121e-07
7.6136e-07
8.40495e-07
1.04741e-06
1.93105e-06
4.81103e-06
7.86919e-06
7.15926e-06
5.12618e-06
4.42493e-06
4.81867e-06
5.13876e-06
5.73834e-06
7.54931e-06
1.32622e-05
3.94183e-05
0.00120109
0.00119168
0.00600571
0.0063737
0.00634914
0.00527402
7.20507e-05
3.17644e-05
1.04994e-05
1.00274e-06
5.41825e-07
5.33581e-07
5.13083e-07
5.12086e-07
5.14682e-07
4.97593e-07
5.07084e-07
5.64659e-07
6.39465e-07
8.05429e-07
1.53379e-06
3.76127e-06
4.39266e-06
3.9126e-06
3.62987e-06
3.84952e-06
5.10256e-06
6.17063e-06
8.13874e-06
1.25665e-05
2.20975e-05
2.93218e-05
3.35097e-05
0.00622596
0.00637506
0.00633311
2.86244e-05
2.41142e-05
3.16794e-06
6.46145e-07
5.22773e-07
5.22163e-07
4.99175e-07
5.1544e-07
5.50901e-07
5.68457e-07
5.63527e-07
5.62596e-07
6.08838e-07
6.65957e-07
7.55487e-07
1.01907e-06
1.408e-06
1.56303e-06
1.53209e-06
1.55555e-06
1.77384e-06
1.68367e-06
1.4402e-06
1.14946e-06
1.63093e-06
1.77571e-06
2.07071e-06
1.35495e-05
0.0062219
0.00634553
1.6388e-05
1.94458e-05
2.13073e-06
7.79333e-07
5.2392e-07
5.20053e-07
5.05893e-07
5.24198e-07
5.66972e-07
6.1149e-07
6.2744e-07
5.71732e-07
6.12238e-07
6.63112e-07
7.01816e-07
7.36755e-07
7.91362e-07
8.39335e-07
8.48851e-07
8.41073e-07
8.26056e-07
7.70709e-07
7.02311e-07
6.37852e-07
6.00172e-07
5.70813e-07
5.73148e-07
1.57883e-06
2.45092e-05
0.00623462
1.35019e-05
1.45591e-05
3.08646e-06
1.07943e-06
5.42147e-07
5.20792e-07
5.11737e-07
5.26514e-07
5.78493e-07
6.61726e-07
7.15319e-07
6.03568e-07
6.1579e-07
6.58684e-07
6.99277e-07
7.18997e-07
7.27561e-07
7.3669e-07
7.40257e-07
7.30384e-07
7.0868e-07
6.80332e-07
6.45731e-07
6.11496e-07
5.77862e-07
5.53545e-07
5.3124e-07
5.51929e-07
2.85555e-06
0.000856317
1.355e-05
1.279e-05
4.19154e-06
1.46062e-06
5.66159e-07
5.2165e-07
5.12403e-07
5.26104e-07
5.90392e-07
7.18128e-07
7.93513e-07
6.38564e-07
6.25228e-07
6.57835e-07
6.95544e-07
7.19158e-07
7.23545e-07
7.22705e-07
7.22365e-07
7.11861e-07
6.93106e-07
6.68461e-07
6.38128e-07
6.05055e-07
5.76191e-07
5.5424e-07
5.37461e-07
5.18733e-07
8.12249e-07
1.13071e-05
1.38075e-05
1.53529e-05
5.3992e-06
1.51976e-06
5.65422e-07
5.17564e-07
5.06691e-07
5.21086e-07
6.03514e-07
7.73089e-07
8.46468e-07
6.70863e-07
6.28805e-07
6.62373e-07
6.91124e-07
7.11796e-07
7.18375e-07
7.14981e-07
7.07226e-07
6.97571e-07
6.78809e-07
6.55227e-07
6.29031e-07
6.01315e-07
5.76321e-07
5.57154e-07
5.44712e-07
5.36791e-07
7.31086e-07
3.64796e-06
1.46352e-05
1.54555e-05
5.93691e-06
1.11194e-06
5.27016e-07
5.03328e-07
4.97309e-07
5.20875e-07
6.12313e-07
7.93138e-07
8.82891e-07
7.0325e-07
6.30268e-07
6.60725e-07
6.86482e-07
7.03717e-07
7.12886e-07
7.10682e-07
6.95783e-07
6.84889e-07
6.67576e-07
6.45265e-07
6.2144e-07
5.95984e-07
5.71909e-07
5.56225e-07
5.4904e-07
5.56354e-07
8.12766e-07
4.08051e-06
1.50629e-05
1.43273e-05
4.16746e-06
7.53197e-07
4.73671e-07
4.79515e-07
4.92797e-07
5.2011e-07
6.12339e-07
8.00649e-07
9.34619e-07
7.2269e-07
6.38674e-07
6.68093e-07
6.88161e-07
6.99413e-07
7.04032e-07
7.05842e-07
6.90076e-07
6.74399e-07
6.57776e-07
6.36147e-07
6.12484e-07
5.87809e-07
5.65327e-07
5.54717e-07
5.56413e-07
5.82756e-07
9.09656e-07
4.49466e-06
7.70493e-05
2.48904e-05
3.96485e-06
6.78108e-07
4.41634e-07
4.53714e-07
4.91377e-07
5.24634e-07
6.34407e-07
8.41978e-07
9.94684e-07
7.34267e-07
6.43247e-07
6.68629e-07
6.94784e-07
7.02275e-07
7.01219e-07
6.97234e-07
6.88302e-07
6.66355e-07
6.47355e-07
6.25407e-07
6.01372e-07
5.78002e-07
5.61342e-07
5.58314e-07
5.72268e-07
6.16381e-07
9.98269e-07
4.6954e-06
0.000275155
8.93734e-05
4.29159e-06
6.80294e-07
4.44185e-07
4.54377e-07
5.11506e-07
5.55128e-07
6.93459e-07
8.96821e-07
1.02071e-06
7.41666e-07
6.48714e-07
6.68155e-07
6.94948e-07
7.06089e-07
7.06207e-07
6.92415e-07
6.79896e-07
6.60687e-07
6.37093e-07
6.15395e-07
5.93593e-07
5.75077e-07
5.6839e-07
5.78148e-07
6.07203e-07
6.6333e-07
1.1076e-06
4.48588e-06
0.000494237
9.26636e-05
3.63771e-06
7.95047e-07
5.15321e-07
5.07932e-07
5.48949e-07
6.13105e-07
7.49802e-07
9.87589e-07
1.03139e-06
7.36699e-07
6.53155e-07
6.67347e-07
6.87454e-07
6.96951e-07
7.01593e-07
6.93298e-07
6.72834e-07
6.55242e-07
6.32023e-07
6.12374e-07
5.95752e-07
5.8771e-07
5.95671e-07
6.19524e-07
6.64251e-07
7.65345e-07
1.34209e-06
4.97238e-06
0.000660708
0.000111903
3.57162e-06
9.9725e-07
6.32487e-07
6.00534e-07
6.1774e-07
6.9026e-07
8.3162e-07
1.09419e-06
1.02777e-06
7.29185e-07
6.57414e-07
6.69597e-07
6.82311e-07
6.88237e-07
6.90442e-07
6.84384e-07
6.70506e-07
6.49318e-07
6.31016e-07
6.16091e-07
6.10119e-07
6.18724e-07
6.43717e-07
6.84838e-07
7.384e-07
9.89783e-07
1.79926e-06
5.86722e-06
0.00066753
0.000467353
3.76618e-06
1.31704e-06
8.09278e-07
6.99256e-07
6.91608e-07
7.68431e-07
9.84606e-07
1.23048e-06
9.98458e-07
7.15548e-07
6.59515e-07
6.686e-07
6.78629e-07
6.83807e-07
6.85311e-07
6.75853e-07
6.61733e-07
6.46548e-07
6.34222e-07
6.31597e-07
6.40202e-07
6.66057e-07
7.11273e-07
7.48771e-07
9.4999e-07
1.40683e-06
2.728e-06
6.76975e-06
0.0006684
1.00113e-05
3.41103e-06
1.76211e-06
1.24244e-06
9.88156e-07
9.07207e-07
9.76284e-07
1.19241e-06
1.37055e-06
9.59986e-07
7.04746e-07
6.60859e-07
6.64906e-07
6.71739e-07
6.76431e-07
6.775e-07
6.70803e-07
6.61801e-07
6.52107e-07
6.51104e-07
6.61606e-07
6.85051e-07
7.28374e-07
7.82077e-07
9.31398e-07
1.30305e-06
2.17635e-06
4.37892e-06
1.66529e-05
0.000668123
4.15476e-06
3.05358e-06
2.71851e-06
2.10956e-06
1.61026e-06
1.33199e-06
1.31071e-06
1.48201e-06
1.44337e-06
9.06377e-07
6.98411e-07
6.62761e-07
6.62042e-07
6.66853e-07
6.72925e-07
6.73659e-07
6.70379e-07
6.66343e-07
6.66703e-07
6.77362e-07
7.00502e-07
7.40379e-07
7.98817e-07
9.09522e-07
1.23012e-06
1.90341e-06
3.54487e-06
6.52228e-06
2.20725e-05
0.000669379
3.64475e-06
3.56143e-06
3.87107e-06
3.56975e-06
2.89772e-06
2.14024e-06
1.82887e-06
1.83239e-06
1.44511e-06
8.67411e-07
6.95244e-07
6.61826e-07
6.57475e-07
6.64709e-07
6.71895e-07
6.72974e-07
6.74585e-07
6.76981e-07
6.88788e-07
7.13142e-07
7.53545e-07
8.1226e-07
8.95064e-07
1.16787e-06
1.71919e-06
2.91814e-06
5.63443e-06
4.02076e-05
2.86215e-05
4.65528e-05
4.09785e-06
4.81044e-06
5.61805e-06
5.72678e-06
5.5918e-06
3.8902e-06
2.52605e-06
2.10325e-06
1.44658e-06
8.36488e-07
6.8398e-07
6.52913e-07
6.54121e-07
6.66271e-07
6.71983e-07
6.7704e-07
6.84771e-07
6.95629e-07
7.21478e-07
7.65016e-07
8.2478e-07
8.91341e-07
1.12668e-06
1.59951e-06
2.5394e-06
4.5503e-06
8.18683e-06
0.000158886
0.000114367
0.000125729
7.39689e-06
3.49314e-05
0.00020156
0.000245532
0.000228065
2.71346e-05
5.19874e-06
2.58833e-06
1.24184e-06
7.77345e-07
6.73395e-07
6.43243e-07
6.55841e-07
6.71734e-07
6.77821e-07
6.89648e-07
7.0478e-07
7.27785e-07
7.70953e-07
8.35312e-07
8.93765e-07
1.10921e-06
1.52366e-06
2.34509e-06
3.92027e-06
6.91378e-06
5.33623e-05
0.000252223
0.00030475
0.000429961
0.00482719
0.00785497
0.00872218
0.00847539
0.00762012
0.00564303
0.000351928
4.31908e-06
1.08632e-06
6.92422e-07
6.41368e-07
6.49581e-07
6.69292e-07
6.84761e-07
6.9614e-07
7.15921e-07
7.40794e-07
7.79915e-07
8.41851e-07
9.09752e-07
1.10441e-06
1.49243e-06
2.23813e-06
3.64698e-06
6.14625e-06
9.60786e-06
0.000124322
0.000299583
0.000450789
0.000680911
0.00922912
0.00923326
0.00922079
0.00921145
0.00919733
0.00913565
0.000723859
5.8508e-06
1.65573e-06
7.86644e-07
6.28754e-07
6.56468e-07
6.9407e-07
7.13795e-07
7.31425e-07
7.62419e-07
8.00217e-07
8.57724e-07
9.26247e-07
1.10835e-06
1.48874e-06
2.205e-06
3.55406e-06
5.87733e-06
9.12859e-06
3.84597e-05
0.00016879
0.000324471
0.000497927
0.000771272
0.00925191
0.00923508
0.0092101
0.00696461
0.00747602
0.00150239
1.34873e-05
7.80641e-06
6.2056e-06
2.57061e-06
8.80404e-07
7.13594e-07
7.44455e-07
7.75183e-07
7.90852e-07
8.37423e-07
8.89889e-07
9.57867e-07
1.14958e-06
1.51947e-06
2.2324e-06
3.576e-06
5.91737e-06
9.14614e-06
1.76457e-05
0.000101002
0.000213775
0.000351694
0.000512611
0.000797562
0.00924222
0.00547989
0.000849576
0.000398624
0.000391856
0.000107437
6.73767e-05
0.000139685
0.000380701
1.01827e-05
2.69593e-06
1.12461e-06
9.17057e-07
9.14134e-07
9.18455e-07
9.86337e-07
1.09295e-06
1.28865e-06
1.65399e-06
2.36064e-06
3.71915e-06
6.14539e-06
9.56208e-06
1.54714e-05
8.31737e-05
0.00017355
0.000275105
0.000396117
0.00053424
0.000798989
0.00274123
0.000420619
0.000421047
0.00119234
0.0028119
0.00264612
0.00387976
0.00407324
0.00131132
4.76954e-05
8.5082e-06
3.23269e-06
1.93175e-06
1.60887e-06
1.50309e-06
1.55856e-06
1.7428e-06
2.09535e-06
2.78324e-06
4.13646e-06
6.59857e-06
1.02293e-05
1.86052e-05
9.78195e-05
0.00018466
0.000268272
0.000360472
0.00046375
0.000578065
0.000800652
3.71843e-05
0.000900767
0.00781405
0.0153216
0.0151535
0.0124554
0.00942517
0.00408309
0.000854662
0.000219979
0.000114853
1.15957e-05
6.71566e-06
4.69008e-06
3.89097e-06
3.65614e-06
3.87039e-06
4.46878e-06
5.67196e-06
7.88507e-06
1.12676e-05
2.25799e-05
0.000126596
0.000234625
0.000319197
0.000394982
0.000474155
0.00055486
0.0006452
0.000807679
0.000826185
0.0166429
0.0180116
0.0155207
0.0109389
0.00988548
0.00727436
0.00313933
0.00126354
0.00196592
0.00399288
0.00134089
0.00013628
1.57966e-05
1.30036e-05
1.1323e-05
1.09257e-05
1.16329e-05
1.32195e-05
1.56518e-05
5.6936e-05
0.000157636
0.000284788
0.000400393
0.000489393
0.000557576
0.000619866
0.000670319
0.000729547
0.000823902
0.0137833
0.0182064
0.0176621
0.00230296
0.00470537
0.00743504
0.00766771
0.00523263
0.0055034
0.0119133
0.0143401
0.0100334
0.00698221
0.00465166
0.00278082
0.00164084
0.00119792
0.00125101
0.00142078
0.00118104
0.0007044
0.000504853
0.000532532
0.000624655
0.00071118
0.000768901
0.000808692
0.000818459
0.000830708
0.000842746
0.0214362
0.017756
0.000551296
0.00037047
0.00306399
0.0122863
0.015366
0.0163452
0.0241181
0.0320407
0.0279433
0.0219871
0.0188085
0.0159908
0.0130353
0.010502
0.00865918
0.00770237
0.00699643
0.00546001
0.00317545
0.00167045
0.00116413
0.00107232
0.00107727
0.0010857
0.00107712
0.00102597
0.000962509
0.000862565
0.0207588
0.00017378
0.000168745
0.000374091
0.0130782
0.0370662
0.0405966
0.0448693
0.0515846
0.0491731
0.0407732
0.0342108
0.0299957
0.0262014
0.0225479
0.0192768
0.0165809
0.0147085
0.0132834
0.0112098
0.0079499
0.00477962
0.00293691
0.00216142
0.00183965
0.00166586
0.00152559
0.00134999
0.00115749
0.000891368
0.00347598
8.68063e-05
0.000649804
0.00768249
0.0624015
0.0759287
0.070286
0.0668775
0.0620708
0.0549459
0.0490036
0.0444473
0.0400917
0.0358611
0.0318405
0.0281477
0.0249529
0.0224293
0.0203385
0.0178026
0.0141343
0.00994421
0.00658342
0.00455943
0.00346257
0.002817
0.00235505
0.00191511
0.00147966
0.000947304
0.000372331
8.7757e-05
0.0106931
0.0749608
0.0842519
0.079967
0.073966
0.0620218
0.055611
0.0516529
0.050145
0.0496437
0.0474271
0.0441642
0.0405966
0.0370168
0.0336801
0.0307466
0.0280628
0.0250246
0.0210567
0.0163732
0.0119573
0.00862064
0.00640756
0.00494125
0.0038706
0.00293196
0.00204344
0.00106279
0.00021919
0.00496951
0.0773474
0.0884967
0.0855361
0.0776385
0.0562385
0.0422995
0.0391487
0.041854
0.046257
0.0491272
0.050606
0.0497616
0.0475934
0.0448048
0.0418367
0.0389123
0.0359698
0.0326338
0.0284926
0.0235866
0.0185564
0.014181
0.010813
0.00831537
0.00637316
0.0046629
0.00302246
0.00129189
0.00266575
0.0685777
0.0885514
0.0886557
0.0802862
0.0379951
0.0179385
0.013899
0.0168921
0.0262294
0.0375026
0.0460579
0.0507952
0.052646
0.0524268
0.050951
0.0488303
0.046389
0.0436476
0.0403846
0.0363176
0.031418
0.0260897
0.0209834
0.0165906
0.0130071
0.0100316
0.00732722
0.00461329
0.00171808
0.0398505
0.0887713
0.0889743
0.0837138
0.0226865
0.00156755
0.000649448
0.000854433
0.00273595
0.0114668
0.0270571
0.0413359
0.0500811
0.0541944
0.0556651
0.0555964
0.0545816
0.0529703
0.0508352
0.0480381
0.0443685
0.039753
0.0344235
0.0288824
0.0236536
0.0190122
0.0149103
0.0110446
0.00697409
0.00245634
0.084595
0.0892076
0.0885442
0.0148816
8.50882e-05
1.26776e-05
1.25496e-05
1.37109e-05
8.27521e-05
0.00349962
0.0195922
0.0383319
0.0502203
0.0557496
0.0582364
0.0592215
0.059275
0.0586428
0.0573832
0.0553842
0.0524487
0.0484451
0.043452
0.0378045
0.0319809
0.0263682
0.0210843
0.0159073
0.0102245
0.00365276
0.089802
0.0888753
0.0150114
1.25966e-05
8.35102e-06
8.69428e-06
9.61251e-06
1.047e-05
1.16623e-05
0.000973009
0.0172208
0.0396793
0.0524962
0.0581227
0.060785
0.0623331
0.0631891
0.0634819
0.0632111
0.0622452
0.0603507
0.0573107
0.0530481
0.0476952
0.0416024
0.0351886
0.0287187
0.0220849
0.0145081
0.00550633
0.0871175
0.017073
1.09741e-05
4.3987e-06
5.25616e-06
7.68022e-06
9.2684e-06
9.68142e-06
1.18619e-05
0.00112436
0.0210977
0.0459196
0.0574833
0.0614312
0.063566
0.0652608
0.0665894
0.0675847
0.0682308
0.0683867
0.0677702
0.0660653
0.0630201
0.0584992
0.052603
0.0456859
0.0381186
0.0299042
0.0200955
0.00829395
0.0229009
1.15608e-05
4.2156e-06
4.26837e-06
4.45753e-06
7.46759e-06
1.11579e-05
1.03958e-05
2.04432e-05
0.00351131
0.0334477
0.0568594
0.063444
0.0649946
0.0665326
0.0681679
0.0696734
0.0710645
0.07235
0.073432
0.0740924
0.0740077
0.0727558
0.0698766
0.0650078
0.0582064
0.0498331
0.0399669
0.0275027
0.0124077
0.0014764
4.67267e-06
3.98035e-06
3.93644e-06
4.52209e-06
8.49923e-06
6.48059e-05
1.33904e-05
0.000650076
0.0157868
0.0521363
0.0668737
0.0679077
0.0682557
0.0695634
0.0710835
0.0725994
0.0741653
0.0750543
0.0754204
0.075764
0.0760347
0.0761456
0.0759879
0.0754324
0.0725126
0.0645686
0.0534115
0.0377454
0.0184943
0.000193511
3.6388e-06
3.74531e-06
3.80395e-06
4.77497e-06
1.18159e-05
0.000656562
0.000610798
0.00735076
0.0403535
0.0682034
0.0719637
0.0708971
0.0713349
0.0725956
0.0739867
0.0749788
0.0753422
0.0757435
0.0761754
0.0766233
0.0770515
0.0774012
0.0776065
0.0775875
0.0771797
0.0761374
0.0710775
0.0528099
0.0279423
9.54589e-05
8.41519e-06
6.65193e-06
4.13736e-06
5.47093e-06
8.89205e-05
0.00311995
0.00628495
0.0281498
0.0629629
0.0751108
0.0748051
0.0739239
0.0745532
0.0750226
0.0752969
0.0756064
0.0759648
0.0763805
0.0768514
0.0773667
0.0778998
0.0784094
0.0788469
0.0791465
0.0792134
0.0789525
0.0779653
0.0734407
0.0436233
9.36402e-05
0.000294326
0.000345325
1.3043e-05
1.11712e-05