/*--------------------------------*- C++ -*----------------------------------*\
| =========                 |                                                 |
| \\      /  F ield         | OpenFOAM: The Open Source CFD Toolbox           |
|  \\    /   O peration     | Version:  v1606+                                |
|   \\  /    A nd           | Web:      www.OpenFOAM.com                      |
|    \\/     M anipulation  |                                                 |
\*---------------------------------------------------------------------------*/
FoamFile
{
    version     2.0;
    format      ascii;
    class       volVectorField;
    location    "1.54";
    object      U;
}
// * * * * * * * * * * * * * * * * * * * * * * * * * * * * * * * * * * * * * //

dimensions      [0 1 -1 0 0 0 0];

internalField   nonuniform List<vector> 
6000
(
(-0.00574199 -0.00539447 0)
(-0.00594918 -0.036379 0)
(-0.0067104 -0.0405912 0)
(0.0150893 -0.0376557 0)
(0.036642 -0.047622 0)
(0.0521271 -0.0534694 0)
(0.0434737 -0.0461034 0)
(0.0209806 -0.0909812 0)
(0.0163585 -0.13023 0)
(0.0165605 -0.136985 0)
(0.0188285 -0.126481 0)
(0.022188 -0.116438 0)
(0.0240097 -0.11323 0)
(0.0143023 -0.10997 0)
(-0.0068557 -0.108847 0)
(-0.0435963 -0.107785 0)
(-0.0653319 -0.113301 0)
(-0.0652531 -0.122346 0)
(-0.0615677 -0.119363 0)
(-0.0637186 -0.0854854 0)
(-0.0934652 -0.0234561 0)
(-0.126757 -0.0228654 0)
(-0.128574 -0.0354885 0)
(-0.0962058 -0.0272802 0)
(-0.0530101 -0.0131558 0)
(-0.00728127 0.00323008 0)
(0.0338103 0.0136589 0)
(0.0598212 0.0260534 0)
(0.0401638 0.0264587 0)
(0.0165279 0.0371701 0)
(0.0213264 0.653149 0)
(-0.0237228 0.690036 0)
(-0.0595924 0.65694 0)
(-0.0457892 0.624456 0)
(-0.00274645 0.628721 0)
(0.0502117 0.634779 0)
(0.0982219 0.653886 0)
(0.114207 0.669126 0)
(0.0963101 0.671187 0)
(0.0590969 0.670648 0)
(0.0474447 0.641434 0)
(0.0577494 0.640995 0)
(0.0644624 0.651006 0)
(0.041516 0.653939 0)
(-0.00217076 0.682231 0)
(-0.0496152 0.68666 0)
(-0.089538 0.657221 0)
(-0.118692 0.66267 0)
(-0.161385 0.668971 0)
(-0.192379 0.6773 0)
(-0.213969 0.67443 0)
(-0.216983 0.65948 0)
(-0.174796 0.627599 0)
(-0.0947483 0.578145 0)
(-0.0356255 0.578507 0)
(0.0188943 0.576631 0)
(0.0599019 0.583726 0)
(0.0913385 0.633239 0)
(0.0599574 0.727415 0)
(-0.00498115 0.651365 0)
(-0.00292647 0.467708 0)
(-0.0467135 0.544249 0)
(-0.112488 0.47586 0)
(-0.118661 0.390202 0)
(-0.0772563 0.34863 0)
(-0.00189833 0.35471 0)
(0.0716642 0.42265 0)
(0.116027 0.482431 0)
(0.114053 0.49626 0)
(0.102427 0.496195 0)
(0.0883684 0.45453 0)
(0.0892335 0.448766 0)
(0.0798396 0.474897 0)
(0.0430314 0.559637 0)
(-0.00420613 0.591618 0)
(-0.046932 0.594813 0)
(-0.105836 0.532663 0)
(-0.14646 0.49682 0)
(-0.16987 0.508651 0)
(-0.191906 0.531889 0)
(-0.222566 0.542337 0)
(-0.221315 0.457095 0)
(-0.136649 0.307964 0)
(-0.0482937 0.301355 0)
(-0.00142259 0.333743 0)
(0.0346326 0.345181 0)
(0.0590318 0.360919 0)
(0.0747589 0.41879 0)
(0.0553475 0.580134 0)
(0.00444785 0.496532 0)
(-0.0247792 0.517945 0)
(-0.0399038 0.625959 0)
(-0.102547 0.537768 0)
(-0.14198 0.432943 0)
(-0.136277 0.353985 0)
(-0.0796634 0.34632 0)
(-0.00313729 0.40044 0)
(0.0858623 0.498202 0)
(0.106446 0.53927 0)
(0.113855 0.529177 0)
(0.104655 0.496548 0)
(0.0960402 0.479006 0)
(0.0623524 0.546768 0)
(0.0179203 0.618427 0)
(-0.00454953 0.628134 0)
(-0.0236165 0.642328 0)
(-0.0686024 0.646714 0)
(-0.125713 0.545226 0)
(-0.169141 0.547496 0)
(-0.184841 0.572045 0)
(-0.179964 0.582478 0)
(-0.147328 0.457408 0)
(-0.0705438 0.267211 0)
(-0.0229669 0.292934 0)
(0.00905201 0.342319 0)
(0.00346088 0.345975 0)
(0.00043041 0.389062 0)
(-0.0215245 0.468441 0)
(-0.00789978 0.674713 0)
(0.0133728 0.571834 0)
(-0.0488882 0.558404 0)
(-0.0212864 0.689608 0)
(-0.0291616 0.59024 0)
(-0.0795874 0.44555 0)
(-0.128803 0.292288 0)
(-0.115217 0.258336 0)
(-0.0544401 0.290925 0)
(0.0273924 0.425898 0)
(0.0854247 0.514986 0)
(0.0977336 0.545489 0)
(0.101157 0.509852 0)
(0.0889264 0.49596 0)
(0.056623 0.601067 0)
(0.0174825 0.635365 0)
(-0.000251211 0.645536 0)
(-0.0166345 0.659901 0)
(-0.0383565 0.683234 0)
(-0.0830496 0.622962 0)
(-0.134199 0.591884 0)
(-0.138086 0.576963 0)
(-0.0956553 0.544283 0)
(-0.0432104 0.394605 0)
(-0.023553 0.192349 0)
(-0.0391887 0.226564 0)
(-0.0109888 0.337435 0)
(-0.0509639 0.37452 0)
(-0.0704359 0.448661 0)
(-0.0849998 0.52049 0)
(-0.0486743 0.587866 0)
(0.0153263 0.576805 0)
(-0.0213783 0.611503 0)
(0.0206942 0.623855 0)
(0.0611135 0.62065 0)
(0.0449454 0.588238 0)
(-0.0439221 0.350411 0)
(-0.0814362 0.209943 0)
(-0.0695256 0.224682 0)
(-0.00536631 0.35643 0)
(0.0449992 0.46315 0)
(0.0896079 0.51872 0)
(0.113091 0.517869 0)
(0.0914695 0.525529 0)
(0.0692211 0.650041 0)
(0.0456469 0.667099 0)
(0.0199239 0.666475 0)
(0.00105908 0.68379 0)
(-0.0132115 0.712274 0)
(-0.031245 0.669488 0)
(-0.0417778 0.608726 0)
(-0.0277378 0.535467 0)
(0.0120326 0.491293 0)
(0.0331394 0.396475 0)
(-0.00380996 0.254438 0)
(-0.0726181 0.253913 0)
(-0.0846265 0.410883 0)
(-0.124025 0.440618 0)
(-0.127408 0.442616 0)
(-0.0940509 0.472032 0)
(-0.0525436 0.52813 0)
(0.00298008 0.55046 0)
(0.0186559 0.572227 0)
(0.0504269 0.566172 0)
(0.0951645 0.566304 0)
(0.135155 0.571597 0)
(0.0671736 0.533978 0)
(0.00235118 0.22566 0)
(-0.0523814 0.179082 0)
(-0.0227376 0.318218 0)
(0.00780938 0.418778 0)
(0.0403676 0.476481 0)
(0.0672345 0.498625 0)
(0.0732598 0.526727 0)
(0.0805064 0.648072 0)
(0.0855876 0.712194 0)
(0.0600068 0.703812 0)
(0.0436705 0.707431 0)
(0.0414245 0.719227 0)
(0.054887 0.677096 0)
(0.0482043 0.597653 0)
(0.0589756 0.510283 0)
(0.0534129 0.470112 0)
(0.0358378 0.408072 0)
(-0.000258405 0.32483 0)
(-0.0806526 0.321047 0)
(-0.193426 0.446726 0)
(-0.197406 0.444034 0)
(-0.173108 0.402679 0)
(-0.110337 0.435565 0)
(-0.0545782 0.486868 0)
(-0.00300165 0.522579 0)
(0.0263357 0.54682 0)
(0.0746434 0.53679 0)
(0.121368 0.532314 0)
(0.172062 0.559011 0)
(0.165504 0.584171 0)
(0.106453 0.366279 0)
(-0.0212906 0.186497 0)
(-0.0143565 0.321268 0)
(-0.010989 0.406659 0)
(-0.00144073 0.456064 0)
(0.00893842 0.486082 0)
(0.0130335 0.521002 0)
(0.0301646 0.618622 0)
(0.0571307 0.702252 0)
(0.070777 0.71041 0)
(0.0820122 0.707715 0)
(0.103019 0.706521 0)
(0.125377 0.674119 0)
(0.133328 0.58728 0)
(0.125677 0.522192 0)
(0.0948848 0.498606 0)
(0.0478508 0.449945 0)
(-0.00513313 0.38922 0)
(-0.11946 0.432675 0)
(-0.277725 0.510115 0)
(-0.279779 0.427438 0)
(-0.24786 0.33075 0)
(-0.170927 0.347486 0)
(-0.0889864 0.448353 0)
(-0.0064829 0.494515 0)
(0.0348658 0.486795 0)
(0.092456 0.498076 0)
(0.147831 0.477048 0)
(0.218279 0.523542 0)
(0.257317 0.625666 0)
(0.209426 0.484659 0)
(0.0457279 0.264671 0)
(0.00909385 0.336477 0)
(-0.0120308 0.412041 0)
(-0.0298197 0.455919 0)
(-0.0367104 0.486557 0)
(-0.0403912 0.515465 0)
(-0.0246214 0.583262 0)
(0.0127803 0.662029 0)
(0.0556506 0.680894 0)
(0.0893667 0.675614 0)
(0.123752 0.672594 0)
(0.158593 0.645736 0)
(0.174553 0.581856 0)
(0.168644 0.547588 0)
(0.144514 0.537123 0)
(0.102688 0.504949 0)
(0.0485692 0.478815 0)
(-0.144219 0.582569 0)
(-0.312663 0.586511 0)
(-0.309089 0.401908 0)
(-0.27852 0.27466 0)
(-0.226139 0.244155 0)
(-0.143814 0.336778 0)
(-0.0134334 0.423499 0)
(0.0329237 0.408124 0)
(0.095306 0.431012 0)
(0.150189 0.386438 0)
(0.249502 0.429812 0)
(0.317258 0.617034 0)
(0.221558 0.612268 0)
(0.0634289 0.341911 0)
(0.00021731 0.388251 0)
(-0.0449259 0.439139 0)
(-0.0681233 0.47149 0)
(-0.0761 0.492853 0)
(-0.0729046 0.511227 0)
(-0.0543559 0.548779 0)
(-0.010814 0.601803 0)
(0.0415886 0.626801 0)
(0.0797237 0.630123 0)
(0.110925 0.62733 0)
(0.141726 0.607069 0)
(0.161064 0.570868 0)
(0.168731 0.550053 0)
(0.18219 0.549037 0)
(0.181706 0.554002 0)
(0.0882712 0.586325 0)
(-0.176108 0.747178 0)
(-0.289766 0.617501 0)
(-0.262497 0.348571 0)
(-0.212805 0.240076 0)
(-0.201429 0.194813 0)
(-0.174324 0.215474 0)
(-0.0282353 0.330043 0)
(0.0330315 0.331887 0)
(0.107981 0.370526 0)
(0.163933 0.282259 0)
(0.278962 0.319469 0)
(0.326455 0.596386 0)
(0.257563 0.714373 0)
(0.0114676 0.447561 0)
(-0.0814625 0.447333 0)
(-0.116505 0.46974 0)
(-0.130613 0.48098 0)
(-0.122331 0.487646 0)
(-0.0983421 0.496589 0)
(-0.0634994 0.517123 0)
(-0.0165637 0.549922 0)
(0.0357451 0.580638 0)
(0.0742029 0.606289 0)
(0.0911857 0.609154 0)
(0.104607 0.590956 0)
(0.121853 0.561615 0)
(0.137927 0.539382 0)
(0.162542 0.540563 0)
(0.149164 0.567988 0)
(-0.0736038 0.816088 0)
(-0.363446 1.09724 0)
(-0.380085 0.649933 0)
(-0.268705 0.261024 0)
(-0.177048 0.212146 0)
(-0.135252 0.179643 0)
(-0.159386 0.147892 0)
(-0.0585699 0.213046 0)
(0.0277891 0.240022 0)
(0.127821 0.296897 0)
(0.196294 0.166295 0)
(0.2684 0.221336 0)
(0.292363 0.59474 0)
(0.153382 0.855704 0)
(-0.0954992 0.634927 0)
(-0.207425 0.487664 0)
(-0.22889 0.495051 0)
(-0.216872 0.481241 0)
(-0.180734 0.461921 0)
(-0.133875 0.458219 0)
(-0.0749081 0.473695 0)
(-0.0121691 0.515851 0)
(0.0245924 0.56265 0)
(0.0584396 0.619443 0)
(0.0750641 0.616607 0)
(0.0684778 0.591561 0)
(0.0799554 0.553546 0)
(0.0972662 0.508136 0)
(0.0587245 0.468072 0)
(-0.11029 0.812231 0)
(-0.415569 1.20189 0)
(-0.515693 1.19403 0)
(-0.391109 0.582248 0)
(-0.252441 0.146264 0)
(-0.156004 0.143379 0)
(-0.0935167 0.204837 0)
(-0.103203 0.146123 0)
(-0.0725625 0.115041 0)
(0.012573 0.153878 0)
(0.13487 0.253682 0)
(0.199839 0.115792 0)
(0.261865 0.192005 0)
(0.257924 0.796816 0)
(0.162837 1.12585 0)
(-0.0879034 0.871415 0)
(-0.295821 0.537814 0)
(-0.36618 0.458098 0)
(-0.310062 0.442932 0)
(-0.246312 0.426747 0)
(-0.195624 0.4223 0)
(-0.131344 0.428796 0)
(-0.0556826 0.458803 0)
(-0.0167862 0.478198 0)
(-0.00206237 0.492916 0)
(0.0209647 0.556488 0)
(0.0264791 0.541625 0)
(0.012834 0.511065 0)
(-0.0610585 0.591363 0)
(-0.246993 0.77811 0)
(-0.458859 1.09537 0)
(-0.54152 1.27161 0)
(-0.432617 1.05535 0)
(-0.243008 0.415847 0)
(-0.118596 0.0188668 0)
(-0.075884 0.0674699 0)
(-0.0334049 0.163355 0)
(-0.0224259 0.186023 0)
(-0.0319782 0.0131659 0)
(0.000247433 0.104812 0)
(0.103909 0.157043 0)
(0.136186 0.0766021 0)
(0.223032 0.136512 0)
(0.323788 0.811635 0)
(0.335298 1.27556 0)
(0.111593 1.20063 0)
(-0.248328 0.867336 0)
(-0.504648 0.53003 0)
(-0.546086 0.291662 0)
(-0.487072 0.282075 0)
(-0.411619 0.288532 0)
(-0.372471 0.277276 0)
(-0.339106 0.366912 0)
(-0.323077 0.546542 0)
(-0.278479 0.617074 0)
(-0.207268 0.665038 0)
(-0.154216 0.667797 0)
(-0.172579 0.69107 0)
(-0.269065 0.787709 0)
(-0.393612 0.926632 0)
(-0.459457 1.08744 0)
(-0.427144 1.14996 0)
(-0.236848 0.859106 0)
(-0.0497745 0.284134 0)
(0.00285106 -0.0459455 0)
(-0.00407049 0.0272653 0)
(0.0149319 0.130255 0)
(0.0259764 0.161682 0)
(0.0362217 0.0335819 0)
(0.00518714 0.0653084 0)
(0.0565008 0.114739 0)
(0.049635 0.0502744 0)
(0.10556 -0.0167572 0)
(0.211511 0.667504 0)
(0.372716 1.35952 0)
(0.176303 1.46913 0)
(-0.154998 1.27581 0)
(-0.510206 0.81956 0)
(-0.728162 0.501167 0)
(-0.782245 0.349818 0)
(-0.775686 0.323664 0)
(-0.75127 0.356913 0)
(-0.705845 0.416415 0)
(-0.630434 0.473648 0)
(-0.497166 0.441694 0)
(-0.37969 0.477009 0)
(-0.270915 0.538909 0)
(-0.220346 0.65999 0)
(-0.241755 0.804953 0)
(-0.294388 0.956791 0)
(-0.328379 1.07098 0)
(-0.253368 1.03307 0)
(-0.0401543 0.63527 0)
(0.119838 0.183559 0)
(0.108355 -0.015119 0)
(0.0636944 0.0368123 0)
(0.0553174 0.141758 0)
(0.0519054 0.167908 0)
(0.0313646 0.0875216 0)
(-0.00280516 0.0360993 0)
(0.0277121 0.103672 0)
(-0.00946663 0.0485635 0)
(0.0242073 -0.0641897 0)
(0.0563055 0.503756 0)
(0.282883 1.36249 0)
(0.133404 1.65127 0)
(-0.106611 1.52286 0)
(-0.426471 1.08359 0)
(-0.635903 0.567043 0)
(-0.712681 0.351024 0)
(-0.721996 0.277019 0)
(-0.703753 0.267896 0)
(-0.664077 0.295959 0)
(-0.593306 0.326615 0)
(-0.493648 0.326323 0)
(-0.387975 0.361102 0)
(-0.267304 0.419371 0)
(-0.192076 0.609624 0)
(-0.159319 0.816857 0)
(-0.177052 0.992968 0)
(-0.206438 1.05716 0)
(-0.0854416 0.890205 0)
(0.105547 0.458038 0)
(0.17701 0.122538 0)
(0.151594 0.0421447 0)
(0.0891673 0.0717049 0)
(0.0608568 0.140055 0)
(0.0466323 0.183894 0)
(0.0282303 0.127658 0)
(-0.015164 0.0284925 0)
(0.00673621 0.11123 0)
(-0.00840664 0.0681615 0)
(-0.0322843 -0.0608893 0)
(-0.021838 0.269386 0)
(0.162566 1.32279 0)
(0.115601 1.79175 0)
(-0.0488363 1.74493 0)
(-0.303302 1.36454 0)
(-0.497083 0.715408 0)
(-0.557779 0.385696 0)
(-0.545849 0.256777 0)
(-0.528859 0.227366 0)
(-0.498914 0.239724 0)
(-0.448056 0.23878 0)
(-0.389211 0.220967 0)
(-0.330006 0.236858 0)
(-0.25422 0.331656 0)
(-0.16668 0.543629 0)
(-0.0993595 0.778288 0)
(-0.110587 1.01033 0)
(-0.107989 1.00162 0)
(0.0601268 0.710321 0)
(0.199174 0.317117 0)
(0.218373 0.132613 0)
(0.166147 0.106605 0)
(0.100701 0.130847 0)
(0.0576397 0.166835 0)
(0.0374389 0.194308 0)
(0.0204317 0.165104 0)
(-0.0301037 0.0406185 0)
(-0.021734 0.106809 0)
(-0.0360729 0.0879205 0)
(-0.0873967 0.0392156 0)
(-0.102114 0.181006 0)
(0.0165928 1.23877 0)
(0.120894 1.86075 0)
(0.0119915 1.89637 0)
(-0.181415 1.58436 0)
(-0.343472 0.83186 0)
(-0.379281 0.394812 0)
(-0.365365 0.251522 0)
(-0.365056 0.213226 0)
(-0.359899 0.210894 0)
(-0.340476 0.207433 0)
(-0.317974 0.193205 0)
(-0.290399 0.197139 0)
(-0.249554 0.256582 0)
(-0.175433 0.435318 0)
(-0.0994481 0.772899 0)
(-0.083392 1.0098 0)
(-0.0229029 0.893706 0)
(0.144299 0.559885 0)
(0.224406 0.261064 0)
(0.198597 0.175895 0)
(0.142168 0.172778 0)
(0.0895434 0.184016 0)
(0.0516438 0.19598 0)
(0.0292304 0.205056 0)
(0.010902 0.191418 0)
(-0.0393779 0.0796602 0)
(-0.0427422 0.115482 0)
(-0.0625247 0.112642 0)
(-0.130411 0.105774 0)
(-0.0971395 0.147891 0)
(-0.11596 1.04139 0)
(0.133873 1.87883 0)
(0.0737813 2.01641 0)
(-0.0785832 1.75733 0)
(-0.194162 0.961797 0)
(-0.192397 0.377111 0)
(-0.192164 0.265403 0)
(-0.227757 0.230047 0)
(-0.255517 0.210975 0)
(-0.257678 0.19916 0)
(-0.260605 0.181484 0)
(-0.258198 0.177471 0)
(-0.244754 0.218158 0)
(-0.205184 0.366421 0)
(-0.132066 0.699192 0)
(-0.0729878 1.01801 0)
(0.0771166 0.787608 0)
(0.201495 0.407184 0)
(0.214063 0.258732 0)
(0.172553 0.224244 0)
(0.126447 0.219094 0)
(0.0857838 0.218826 0)
(0.0542698 0.219485 0)
(0.0302894 0.218863 0)
(0.00906839 0.209454 0)
(-0.0265069 0.119203 0)
(-0.0400714 0.129226 0)
(-0.0613708 0.14409 0)
(-0.123739 0.170792 0)
(-0.149001 0.211192 0)
(-0.190931 0.821239 0)
(0.0710833 1.82261 0)
(0.128285 2.14753 0)
(0.0442207 1.91665 0)
(-0.0189955 0.996115 0)
(-0.0390783 0.34868 0)
(-0.0695293 0.308288 0)
(-0.120097 0.277752 0)
(-0.157969 0.243443 0)
(-0.181582 0.215583 0)
(-0.201401 0.195765 0)
(-0.218081 0.18373 0)
(-0.226681 0.205096 0)
(-0.212513 0.313425 0)
(-0.165241 0.607723 0)
(-0.0360253 0.86855 0)
(0.173977 0.587145 0)
(0.220297 0.357127 0)
(0.202004 0.290178 0)
(0.163449 0.271861 0)
(0.122984 0.260253 0)
(0.088642 0.253327 0)
(0.0589223 0.248957 0)
(0.0327597 0.243463 0)
(0.00908926 0.231357 0)
(-0.012494 0.14381 0)
(-0.0241986 0.139484 0)
(-0.0488008 0.177027 0)
(-0.111115 0.230363 0)
(-0.188834 0.297805 0)
(-0.216823 0.655101 0)
(-0.070243 1.63419 0)
(0.114516 2.1227 0)
(0.174334 1.98684 0)
(0.142609 1.06263 0)
(0.0216762 0.412445 0)
(-0.0129115 0.361802 0)
(-0.0610477 0.313816 0)
(-0.0960926 0.269103 0)
(-0.123823 0.238261 0)
(-0.148012 0.216794 0)
(-0.16953 0.203647 0)
(-0.184464 0.212301 0)
(-0.182665 0.288175 0)
(-0.147986 0.512258 0)
(0.0351999 0.640121 0)
(0.193283 0.456946 0)
(0.21473 0.36316 0)
(0.189493 0.333343 0)
(0.151556 0.312964 0)
(0.116806 0.294316 0)
(0.0855947 0.283597 0)
(0.0559898 0.274585 0)
(0.0309181 0.265104 0)
(0.00939569 0.249049 0)
(0.00293493 0.150926 0)
(0.00740979 0.150883 0)
(-0.0243917 0.231072 0)
(-0.106472 0.311795 0)
(-0.210523 0.399314 0)
(-0.277917 0.610244 0)
(-0.18861 1.38092 0)
(0.00318173 1.94318 0)
(0.233204 1.88032 0)
(0.205974 1.10774 0)
(0.0912056 0.495643 0)
(0.0379165 0.404065 0)
(-0.014506 0.348821 0)
(-0.0553695 0.300164 0)
(-0.0871865 0.262897 0)
(-0.111574 0.23755 0)
(-0.130406 0.220828 0)
(-0.140861 0.221274 0)
(-0.13519 0.269285 0)
(-0.0852018 0.41355 0)
(0.0745225 0.452349 0)
(0.164146 0.398555 0)
(0.17555 0.379887 0)
(0.156292 0.365738 0)
(0.133348 0.341993 0)
(0.108693 0.322336 0)
(0.0757375 0.314786 0)
(0.0373417 0.306846 0)
(0.0180911 0.288699 0)
(0.0117896 0.266983 0)
(0.0379873 0.143085 0)
(0.0606957 0.157007 0)
(0.0174313 0.307172 0)
(-0.106762 0.403639 0)
(-0.22849 0.479239 0)
(-0.31385 0.531617 0)
(-0.320809 1.0831 0)
(-0.0891914 1.50341 0)
(0.236025 1.59051 0)
(0.344935 1.12206 0)
(0.203488 0.64774 0)
(0.0896145 0.481224 0)
(0.00973855 0.391789 0)
(-0.0352796 0.335097 0)
(-0.065466 0.291322 0)
(-0.0872636 0.259034 0)
(-0.102007 0.232143 0)
(-0.104338 0.221712 0)
(-0.089038 0.241984 0)
(-0.029476 0.316868 0)
(0.0814166 0.360109 0)
(0.123431 0.394439 0)
(0.0995203 0.427856 0)
(0.068315 0.425585 0)
(0.068549 0.407448 0)
(0.0584401 0.390679 0)
(0.0282502 0.391085 0)
(-0.00345725 0.372701 0)
(0.00392694 0.329049 0)
(0.0210402 0.335807 0)
(0.0966886 0.056176 0)
(0.117463 0.155874 0)
(0.0478244 0.398901 0)
(-0.0538042 0.567219 0)
(-0.145774 0.636457 0)
(-0.248773 0.828617 0)
(-0.203186 1.00086 0)
(0.00577234 1.26123 0)
(0.311332 1.26742 0)
(0.484379 1.0093 0)
(0.416647 0.669678 0)
(0.198478 0.605058 0)
(0.0460697 0.507028 0)
(-0.00367519 0.369041 0)
(-0.0462597 0.303609 0)
(-0.0643831 0.277706 0)
(-0.0796644 0.239858 0)
(-0.0790295 0.216402 0)
(-0.057337 0.206772 0)
(0.00140161 0.23744 0)
(0.0890668 0.296676 0)
(0.063669 0.334038 0)
(-0.00770682 0.377197 0)
(-0.0829207 0.320162 0)
(-0.149093 0.286848 0)
(-0.198912 0.318695 0)
(-0.209568 0.333227 0)
(-0.158552 0.287721 0)
(-0.0925029 0.195622 0)
(-0.0288622 0.228283 0)
(0.032046 -0.128788 0)
(0.0639856 0.261961 0)
(0.00953335 0.53428 0)
(0.00599644 0.619911 0)
(0.0113055 0.717384 0)
(0.0366354 0.857798 0)
(0.126446 1.0693 0)
(0.319662 1.20989 0)
(0.57869 1.21567 0)
(0.772058 1.16034 0)
(0.808835 1.04778 0)
(0.684237 0.843075 0)
(0.494552 0.592999 0)
(0.208769 0.482722 0)
(0.0284924 0.382895 0)
(-0.0169918 0.299353 0)
(-0.0639758 0.244359 0)
(-0.0731521 0.210039 0)
(-0.0500157 0.165426 0)
(0.0201431 0.156746 0)
(0.0618907 0.243578 0)
(-0.0206914 0.530172 0)
(-0.143568 0.647214 0)
(-0.257916 0.62423 0)
(-0.365035 0.551629 0)
(-0.423172 0.483762 0)
(-0.391516 0.375729 0)
(-0.289151 0.272316 0)
(-0.17938 0.22808 0)
(-0.0579889 0.233838 0)
(0.00404662 -0.0854111 0)
(0.0188921 0.220452 0)
(0.0410507 0.462511 0)
(0.0848224 0.534546 0)
(0.140687 0.607366 0)
(0.235869 0.68721 0)
(0.376906 0.802229 0)
(0.570239 0.906028 0)
(0.780576 0.960155 0)
(0.959229 0.961399 0)
(1.08957 0.936533 0)
(1.17959 0.933757 0)
(1.17043 0.963056 0)
(0.961637 0.816595 0)
(0.599037 0.530667 0)
(0.203312 0.433194 0)
(-0.0438894 0.283818 0)
(-0.10397 0.206866 0)
(-0.0974703 0.130245 0)
(-0.0526922 0.14035 0)
(-0.157016 0.377063 0)
(-0.245425 0.680514 0)
(-0.297374 0.661313 0)
(-0.332647 0.613801 0)
(-0.373216 0.533989 0)
(-0.384686 0.401983 0)
(-0.346574 0.233944 0)
(-0.270403 0.0941157 0)
(-0.172035 0.0348976 0)
(-0.0510067 0.042291 0)
(0.00447947 -0.143655 0)
(0.0395077 0.225639 0)
(0.082414 0.40183 0)
(0.146578 0.491813 0)
(0.231914 0.525993 0)
(0.342703 0.554817 0)
(0.477876 0.619572 0)
(0.63636 0.669287 0)
(0.80599 0.719647 0)
(0.984578 0.756975 0)
(1.15522 0.756908 0)
(1.30472 0.735192 0)
(1.47226 0.866331 0)
(1.51247 1.03284 0)
(1.31494 1.09679 0)
(0.81213 0.930267 0)
(0.169296 0.572222 0)
(-0.169413 0.313329 0)
(-0.243184 0.142293 0)
(-0.393872 0.120635 0)
(-0.421401 0.473585 0)
(-0.37403 0.628336 0)
(-0.319142 0.639622 0)
(-0.29336 0.613048 0)
(-0.279306 0.529514 0)
(-0.266531 0.376546 0)
(-0.250884 0.189919 0)
(-0.211998 0.0118674 0)
(-0.146889 -0.0693982 0)
(-0.0460694 -0.0654302 0)
(-0.00803888 -0.159443 0)
(0.0461174 0.147799 0)
(0.118309 0.36236 0)
(0.193547 0.388127 0)
(0.282081 0.406432 0)
(0.378856 0.413922 0)
(0.519549 0.503405 0)
(0.664307 0.539148 0)
(0.812254 0.589101 0)
(0.93304 0.572048 0)
(1.13574 0.606643 0)
(1.29108 0.578567 0)
(1.4503 0.702514 0)
(1.56112 0.978439 0)
(1.52284 1.30648 0)
(1.21667 1.53439 0)
(0.557975 1.28945 0)
(-0.172218 0.696766 0)
(-0.498439 0.226482 0)
(-0.596353 0.23466 0)
(-0.543571 0.370233 0)
(-0.397069 0.515283 0)
(-0.290275 0.57185 0)
(-0.226058 0.562674 0)
(-0.180022 0.501501 0)
(-0.157433 0.373817 0)
(-0.159067 0.195429 0)
(-0.145086 -0.0193084 0)
(-0.116515 -0.130289 0)
(-0.0424313 -0.154976 0)
(-0.0054768 -0.170262 0)
(0.0250903 0.0857061 0)
(0.109063 0.259113 0)
(0.208807 0.328764 0)
(0.293044 0.344099 0)
(0.388384 0.340831 0)
(0.497658 0.353661 0)
(0.630732 0.383585 0)
(0.758296 0.437378 0)
(0.880517 0.461781 0)
(1.01838 0.425527 0)
(1.15055 0.393356 0)
(1.28077 0.537325 0)
(1.3837 0.905487 0)
(1.39022 1.43768 0)
(1.21885 1.9385 0)
(0.775284 1.93298 0)
(0.134688 1.46215 0)
(-0.413976 0.532524 0)
(-0.562759 0.211517 0)
(-0.512593 0.234249 0)
(-0.384934 0.381026 0)
(-0.261286 0.484352 0)
(-0.174668 0.500944 0)
(-0.108364 0.463042 0)
(-0.0679076 0.359913 0)
(-0.0622283 0.203519 0)
(-0.070359 -0.031561 0)
(-0.0805248 -0.161728 0)
(-0.0375544 -0.225283 0)
(-0.0136031 -0.174534 0)
(0.00656836 0.0400866 0)
(0.0699227 0.159707 0)
(0.162159 0.227595 0)
(0.255456 0.229462 0)
(0.353446 0.223135 0)
(0.454836 0.235914 0)
(0.568537 0.269422 0)
(0.678327 0.323192 0)
(0.791211 0.352196 0)
(0.907233 0.301085 0)
(0.996408 0.263387 0)
(1.08256 0.426425 0)
(1.14487 0.886261 0)
(1.11052 1.55512 0)
(0.983829 2.1521 0)
(0.760605 2.26699 0)
(0.420925 1.98182 0)
(-0.176075 1.01367 0)
(-0.438257 0.258097 0)
(-0.452455 0.151441 0)
(-0.374466 0.25678 0)
(-0.253388 0.380944 0)
(-0.147847 0.416565 0)
(-0.0630735 0.399215 0)
(-0.00367412 0.325115 0)
(0.0229475 0.211674 0)
(0.0182679 -0.00489459 0)
(-0.0409043 -0.155086 0)
(-0.0339637 -0.286167 0)
(-0.0140205 -0.162115 0)
(0.00345528 0.00271389 0)
(0.043918 0.0845325 0)
(0.119301 0.139976 0)
(0.203225 0.139972 0)
(0.294357 0.130759 0)
(0.392304 0.130926 0)
(0.485918 0.16322 0)
(0.580763 0.222455 0)
(0.68483 0.254464 0)
(0.779873 0.198387 0)
(0.8362 0.167049 0)
(0.868112 0.357588 0)
(0.932229 0.94326 0)
(0.849378 1.68676 0)
(0.756211 2.23593 0)
(0.714997 2.41953 0)
(0.602528 2.28011 0)
(0.206725 1.56589 0)
(-0.25044 0.432094 0)
(-0.387892 0.13871 0)
(-0.357908 0.161609 0)
(-0.261378 0.265302 0)
(-0.147339 0.319665 0)
(-0.0466168 0.319656 0)
(0.0287313 0.277248 0)
(0.0736572 0.1896 0)
(0.0857169 0.0317495 0)
(0.005611 -0.0741833 0)
(-0.0183974 -0.334043 0)
(-0.0129084 -0.158612 0)
(-0.00232141 -0.0163676 0)
(0.0257799 0.0375799 0)
(0.086369 0.066699 0)
(0.160756 0.0534699 0)
(0.239781 0.0375856 0)
(0.315794 0.0411573 0)
(0.39283 0.0766581 0)
(0.474289 0.130804 0)
(0.566082 0.162772 0)
(0.643 0.116438 0)
(0.688404 0.109497 0)
(0.697157 0.331879 0)
(0.743242 0.996846 0)
(0.655767 1.77544 0)
(0.616474 2.20554 0)
(0.68652 2.42817 0)
(0.708161 2.40443 0)
(0.533896 1.9622 0)
(0.018348 0.907488 0)
(-0.281166 0.196566 0)
(-0.322178 0.112194 0)
(-0.265741 0.160526 0)
(-0.1655 0.208677 0)
(-0.0571386 0.222736 0)
(0.0312077 0.212366 0)
(0.0850645 0.154398 0)
(0.100958 0.0507448 0)
(0.0510462 0.0243995 0)
(0.0164026 -0.335521 0)
(-0.0132919 -0.147482 0)
(-0.00199357 -0.0334988 0)
(0.0208642 -0.00672462 0)
(0.0716493 0.00561291 0)
(0.133913 -0.0137508 0)
(0.19503 -0.0286221 0)
(0.24932 -0.0244022 0)
(0.302369 0.00757956 0)
(0.363783 0.0530412 0)
(0.44221 0.0855987 0)
(0.507361 0.0505171 0)
(0.548775 0.0515442 0)
(0.574055 0.333654 0)
(0.618374 1.08685 0)
(0.568788 1.81402 0)
(0.589755 2.14328 0)
(0.677265 2.33909 0)
(0.767005 2.41513 0)
(0.720361 2.18504 0)
(0.366278 1.43491 0)
(-0.108799 0.424245 0)
(-0.270291 0.120374 0)
(-0.247186 0.0929332 0)
(-0.178202 0.104715 0)
(-0.07968 0.117161 0)
(0.0126508 0.133582 0)
(0.0712864 0.117453 0)
(0.0846344 0.0564622 0)
(0.0632513 0.0488309 0)
(0.048919 -0.295151 0)
(-0.0117014 -0.140579 0)
(0.00122746 -0.0483681 0)
(0.0241545 -0.0401755 0)
(0.0718857 -0.0490721 0)
(0.124574 -0.0733111 0)
(0.167439 -0.0786538 0)
(0.1993 -0.0666338 0)
(0.229142 -0.0392257 0)
(0.268778 -0.00462938 0)
(0.328075 0.0125417 0)
(0.384954 -0.00497882 0)
(0.416665 0.0100491 0)
(0.444159 0.335538 0)
(0.50865 1.07666 0)
(0.560833 1.75908 0)
(0.646039 2.08807 0)
(0.713373 2.23347 0)
(0.782309 2.35882 0)
(0.79069 2.28864 0)
(0.602839 1.79786 0)
(0.148446 0.906341 0)
(-0.135712 0.184454 0)
(-0.192397 0.07233 0)
(-0.165101 0.0350442 0)
(-0.0946284 0.020221 0)
(-0.0135772 0.0519686 0)
(0.0466741 0.0802573 0)
(0.0665232 0.0583715 0)
(0.0564636 0.0587484 0)
(0.0598302 -0.23857 0)
(-0.00970038 -0.134618 0)
(0.0057596 -0.0695639 0)
(0.0373677 -0.078237 0)
(0.0829513 -0.0992473 0)
(0.12228 -0.114716 0)
(0.145936 -0.105768 0)
(0.159774 -0.0849966 0)
(0.173635 -0.0617893 0)
(0.195431 -0.0421573 0)
(0.227925 -0.0358475 0)
(0.262513 -0.0488554 0)
(0.289191 -0.0269027 0)
(0.315017 0.305359 0)
(0.420422 0.979049 0)
(0.568844 1.62464 0)
(0.711135 2.00031 0)
(0.764423 2.19603 0)
(0.778145 2.32349 0)
(0.783993 2.33823 0)
(0.695814 2.01757 0)
(0.407053 1.29996 0)
(0.046958 0.419737 0)
(-0.11061 0.104417 0)
(-0.134597 0.0115819 0)
(-0.0953002 -0.0493319 0)
(-0.0362067 -0.0198921 0)
(0.018565 0.0416865 0)
(0.0513963 0.0517736 0)
(0.0461734 0.0555904 0)
(0.0652883 -0.184285 0)
(-0.00693074 -0.132786 0)
(0.0121137 -0.0988223 0)
(0.0494203 -0.119478 0)
(0.0867003 -0.139078 0)
(0.106193 -0.136321 0)
(0.117759 -0.117541 0)
(0.124402 -0.0941099 0)
(0.129818 -0.0725433 0)
(0.136445 -0.0579901 0)
(0.146466 -0.0563776 0)
(0.152218 -0.0651432 0)
(0.152911 -0.0423696 0)
(0.186015 0.242023 0)
(0.322243 0.815155 0)
(0.528785 1.43111 0)
(0.704052 1.88908 0)
(0.748319 2.18638 0)
(0.729633 2.34945 0)
(0.725458 2.36972 0)
(0.701968 2.1405 0)
(0.563714 1.56779 0)
(0.259252 0.74903 0)
(0.000276316 0.209068 0)
(-0.0819857 0.0106476 0)
(-0.0785189 -0.0914595 0)
(-0.0420706 -0.0717142 0)
(-0.00469514 0.00113156 0)
(0.0438212 0.036387 0)
(0.0339765 0.0564095 0)
(0.0645248 -0.136493 0)
(-0.0017722 -0.131839 0)
(0.0191204 -0.131607 0)
(0.0518605 -0.155345 0)
(0.0754202 -0.161389 0)
(0.0864012 -0.145882 0)
(0.0910174 -0.1221 0)
(0.0919148 -0.0958544 0)
(0.0898298 -0.0733857 0)
(0.0863337 -0.0598269 0)
(0.0824039 -0.0568613 0)
(0.0736657 -0.0632389 0)
(0.0652706 -0.056387 0)
(0.0869267 0.162268 0)
(0.205281 0.618325 0)
(0.410092 1.20995 0)
(0.582038 1.77864 0)
(0.613571 2.19469 0)
(0.587983 2.38105 0)
(0.600022 2.37493 0)
(0.626301 2.1803 0)
(0.578175 1.71869 0)
(0.37959 1.05414 0)
(0.0829841 0.478417 0)
(-0.0225082 0.0768309 0)
(-0.0347054 -0.113206 0)
(-0.0227671 -0.0970551 0)
(-0.0137677 -0.0353075 0)
(0.0341352 0.00538062 0)
(0.0190534 0.0700845 0)
(0.0595188 -0.0984256 0)
(0.00155679 -0.141661 0)
(0.0212291 -0.162138 0)
(0.0458088 -0.181095 0)
(0.0592166 -0.172246 0)
(0.0626287 -0.149246 0)
(0.0611431 -0.122007 0)
(0.0571934 -0.0927522 0)
(0.0492524 -0.067111 0)
(0.0377806 -0.0525767 0)
(0.0251958 -0.0468188 0)
(0.0093801 -0.0490035 0)
(-0.00688087 -0.0486553 0)
(-0.0141224 0.091145 0)
(0.0855328 0.490501 0)
(0.244087 1.02392 0)
(0.367636 1.69995 0)
(0.366592 2.21235 0)
(0.352155 2.3586 0)
(0.395184 2.32357 0)
(0.454307 2.15845 0)
(0.457393 1.79096 0)
(0.332509 1.25218 0)
(0.0954678 0.701857 0)
(0.0476 0.131962 0)
(0.0362818 -0.113033 0)
(0.0212086 -0.0826674 0)
(-0.0120172 -0.0509977 0)
(0.0107589 -0.0120513 0)
(0.000924928 0.0793351 0)
(0.0487933 -0.0700397 0)
(0.0036337 -0.148358 0)
(0.0207372 -0.187208 0)
(0.0382939 -0.194076 0)
(0.0442814 -0.175904 0)
(0.0395007 -0.144852 0)
(0.0274639 -0.114606 0)
(0.0166944 -0.0844478 0)
(0.00510071 -0.0546902 0)
(-0.0124391 -0.0382416 0)
(-0.0317741 -0.0303145 0)
(-0.051763 -0.0276739 0)
(-0.0760577 -0.0229747 0)
(-0.104774 0.0613478 0)
(-0.0504458 0.364294 0)
(0.0559632 0.906927 0)
(0.0980376 1.68234 0)
(0.0769643 2.23133 0)
(0.0831601 2.32152 0)
(0.140059 2.2601 0)
(0.215546 2.10524 0)
(0.251446 1.81793 0)
(0.185786 1.38652 0)
(0.0404136 0.817388 0)
(0.0966459 0.108252 0)
(0.0354142 -0.0842209 0)
(0.0483417 -0.036189 0)
(-0.0120108 -0.0345048 0)
(-0.00656144 -0.00416464 0)
(-0.00444042 0.0280343 0)
(0.043971 -0.0511892 0)
(0.00275492 -0.163305 0)
(0.0235757 -0.202715 0)
(0.0371871 -0.203143 0)
(0.0410621 -0.174165 0)
(0.0220601 -0.125927 0)
(-0.0138476 -0.0942046 0)
(-0.0369504 -0.0723636 0)
(-0.0474908 -0.0394182 0)
(-0.0658504 -0.0188846 0)
(-0.0898663 -0.00908803 0)
(-0.114656 -0.000804614 0)
(-0.144771 0.0118963 0)
(-0.17646 0.0646295 0)
(-0.167675 0.296082 0)
(-0.132747 0.871818 0)
(-0.178548 1.70433 0)
(-0.218439 2.22434 0)
(-0.189502 2.27292 0)
(-0.114746 2.18336 0)
(-0.0242559 2.03561 0)
(0.0401773 1.79644 0)
(0.0390854 1.43463 0)
(-0.000738722 0.839444 0)
(0.0435561 0.0305541 0)
(0.00361835 -0.0364501 0)
(0.00628259 -0.0221048 0)
(-0.0182759 -0.017229 0)
(-0.00982199 -0.00797894 0)
(0.00824612 -0.0096223 0)
(0.0382155 -0.0195193 0)
(-0.0039227 -0.1839 0)
(0.0324618 -0.219673 0)
(0.0500283 -0.213242 0)
(0.0597284 -0.171681 0)
(0.0209895 -0.0898929 0)
(-0.0759768 -0.0517741 0)
(-0.116272 -0.0601209 0)
(-0.114667 -0.0278016 0)
(-0.125875 -0.000199844 0)
(-0.149438 0.0156647 0)
(-0.182738 0.0302046 0)
(-0.221282 0.0483081 0)
(-0.25775 0.0910154 0)
(-0.282402 0.282906 0)
(-0.345187 0.945539 0)
(-0.486858 1.78819 0)
(-0.520036 2.24281 0)
(-0.454658 2.23361 0)
(-0.335841 2.10552 0)
(-0.206323 1.96112 0)
(-0.105845 1.74861 0)
(-0.0445039 1.41386 0)
(0.0490997 0.814728 0)
(0.019357 0.0614649 0)
(0.000483173 0.00950168 0)
(-0.0194669 -0.00345318 0)
(-0.0301585 -0.0220559 0)
(-0.0120535 -0.0262264 0)
(0.00846135 -0.0311293 0)
(0.0151696 0.00542999 0)
(-0.0393277 -0.210391 0)
(0.0564246 -0.254778 0)
(0.08311 -0.234599 0)
(0.0895518 -0.169703 0)
(0.026434 0.0386937 0)
(-0.137704 0.0735173 0)
(-0.184358 -0.0365905 0)
(-0.17843 -0.0171534 0)
(-0.180679 0.0208304 0)
(-0.192419 0.0572746 0)
(-0.232993 0.0850554 0)
(-0.287434 0.104 0)
(-0.329478 0.146508 0)
(-0.399625 0.370464 0)
(-0.604779 1.15631 0)
(-0.749334 1.9591 0)
(-0.723054 2.26686 0)
(-0.589095 2.16769 0)
(-0.428618 1.99947 0)
(-0.276082 1.88805 0)
(-0.147845 1.68341 0)
(-0.0379493 1.34975 0)
(0.169837 0.731904 0)
(0.0415281 0.146277 0)
(0.0177796 0.0614125 0)
(-0.0237922 0.0150063 0)
(-0.0371073 -0.0226786 0)
(-0.0244187 -0.0466128 0)
(0.000390961 -0.0483385 0)
(0.00204862 0.0107843 0)
(0.0330556 -0.175145 0)
(0.109304 -0.312519 0)
(0.144993 -0.260935 0)
(0.163895 -0.111847 0)
(-0.0183078 0.176289 0)