/*--------------------------------*- C++ -*----------------------------------*\
| =========                 |                                                 |
| \\      /  F ield         | OpenFOAM: The Open Source CFD Toolbox           |
|  \\    /   O peration     | Version:  v1606+                                |
|   \\  /    A nd           | Web:      www.OpenFOAM.com                      |
|    \\/     M anipulation  |                                                 |
\*---------------------------------------------------------------------------*/
FoamFile
{
    version     2.0;
    format      ascii;
    class       volVectorField;
    location    "1.54";
    object      U.airMean;
}
// * * * * * * * * * * * * * * * * * * * * * * * * * * * * * * * * * * * * * //

dimensions      [0 1 -1 0 0 0 0];

internalField   nonuniform List<vector> 
6000
(
(-0.0179287 0.268715 0)
(-0.000835926 0.232315 0)
(0.0153153 0.239678 0)
(0.023091 0.234793 0)
(0.0246579 0.227249 0)
(0.0204989 0.217098 0)
(0.0173264 0.211661 0)
(0.0131009 0.210929 0)
(0.00768941 0.213035 0)
(0.00308927 0.212327 0)
(-0.00116488 0.211091 0)
(-0.00411008 0.209712 0)
(-0.00662067 0.211191 0)
(-0.00955269 0.212194 0)
(-0.0121263 0.214011 0)
(-0.0141888 0.214019 0)
(-0.0159352 0.212614 0)
(-0.0170653 0.209647 0)
(-0.0181189 0.204002 0)
(-0.0203157 0.203826 0)
(-0.0235808 0.210089 0)
(-0.0276851 0.215467 0)
(-0.033679 0.218946 0)
(-0.0401481 0.225406 0)
(-0.0443599 0.233887 0)
(-0.0448271 0.241421 0)
(-0.0375957 0.246909 0)
(-0.023418 0.247906 0)
(-0.00165446 0.236582 0)
(0.0175034 0.269652 0)
(0.0194386 0.985804 0)
(0.0274822 0.971898 0)
(0.0539292 0.985387 0)
(0.0674054 0.999635 0)
(0.0684254 1.01786 0)
(0.058263 1.02621 0)
(0.0402774 1.02631 0)
(0.0201151 1.02897 0)
(0.00537299 1.02483 0)
(-0.00222304 1.02338 0)
(-0.00728293 1.02254 0)
(-0.0105746 1.02217 0)
(-0.0144496 1.02189 0)
(-0.0184968 1.02016 0)
(-0.0192595 1.01718 0)
(-0.0175209 1.01633 0)
(-0.0164498 1.01706 0)
(-0.0169418 1.01845 0)
(-0.0207002 1.02413 0)
(-0.0283838 1.02745 0)
(-0.0372852 1.02536 0)
(-0.0478349 1.02623 0)
(-0.0661245 1.03017 0)
(-0.0860213 1.02641 0)
(-0.0998807 1.01513 0)
(-0.100054 0.999802 0)
(-0.0837426 0.978209 0)
(-0.058194 0.967618 0)
(-0.0250645 0.960989 0)
(-0.0172581 0.985308 0)
(0.00688935 0.788282 0)
(0.0238513 0.739013 0)
(0.0529205 0.753612 0)
(0.0674605 0.772499 0)
(0.0726972 0.798676 0)
(0.0699054 0.811829 0)
(0.0581798 0.821823 0)
(0.0395728 0.823284 0)
(0.0234219 0.812408 0)
(0.0108322 0.804414 0)
(0.00258028 0.797456 0)
(-0.00382981 0.795041 0)
(-0.0116622 0.798055 0)
(-0.0181564 0.796211 0)
(-0.0193074 0.792218 0)
(-0.0193384 0.790727 0)
(-0.0214991 0.791385 0)
(-0.0268045 0.793095 0)
(-0.0332369 0.796872 0)
(-0.039219 0.802443 0)
(-0.049257 0.809384 0)
(-0.0644883 0.819195 0)
(-0.0822668 0.824937 0)
(-0.100082 0.822436 0)
(-0.111143 0.803946 0)
(-0.104385 0.775826 0)
(-0.0844862 0.749532 0)
(-0.0594828 0.736948 0)
(-0.0241007 0.731242 0)
(-0.00817493 0.790668 0)
(0.0183317 0.80553 0)
(0.0336004 0.768205 0)
(0.0528212 0.786326 0)
(0.0697318 0.812846 0)
(0.0841524 0.847991 0)
(0.085182 0.867174 0)
(0.0792302 0.884628 0)
(0.0645584 0.889712 0)
(0.0441527 0.882391 0)
(0.0252903 0.871313 0)
(0.013021 0.863562 0)
(0.00055878 0.863334 0)
(-0.0126826 0.863197 0)
(-0.0185544 0.852096 0)
(-0.0167574 0.842497 0)
(-0.0143848 0.842855 0)
(-0.0161307 0.849799 0)
(-0.0240238 0.856849 0)
(-0.0358054 0.863078 0)
(-0.0463675 0.868307 0)
(-0.0589109 0.876826 0)
(-0.079429 0.88817 0)
(-0.10191 0.892159 0)
(-0.120168 0.883396 0)
(-0.121325 0.84899 0)
(-0.105608 0.809099 0)
(-0.0830138 0.777036 0)
(-0.059089 0.761964 0)
(-0.0378799 0.757914 0)
(-0.0189864 0.807716 0)
(0.0119642 0.76518 0)
(0.0256288 0.735766 0)
(0.0430136 0.744027 0)
(0.0683385 0.76854 0)
(0.0941448 0.813666 0)
(0.104593 0.849218 0)
(0.101163 0.877156 0)
(0.0893951 0.892762 0)
(0.066986 0.890049 0)
(0.0415733 0.873225 0)
(0.0250303 0.86055 0)
(0.00964417 0.860821 0)
(-0.00522562 0.856278 0)
(-0.0124487 0.836098 0)
(-0.0100322 0.822272 0)
(-0.00456738 0.824086 0)
(-0.00321236 0.836957 0)
(-0.0106048 0.852048 0)
(-0.025768 0.862972 0)
(-0.0411465 0.866898 0)
(-0.0609899 0.881118 0)
(-0.0906416 0.895948 0)
(-0.119982 0.893419 0)
(-0.137108 0.870088 0)
(-0.130862 0.813987 0)
(-0.108307 0.763893 0)
(-0.0771511 0.728759 0)
(-0.0487957 0.718497 0)
(-0.0302079 0.723747 0)
(-0.0142994 0.763748 0)
(0.00579377 0.743064 0)
(0.0156853 0.719491 0)
(0.0312769 0.71544 0)
(0.0595988 0.733394 0)
(0.0914465 0.783225 0)
(0.118151 0.834042 0)
(0.120661 0.87392 0)
(0.112076 0.898965 0)
(0.0899341 0.908951 0)
(0.0620341 0.892639 0)
(0.0387402 0.875821 0)
(0.0167796 0.875608 0)
(-0.00257973 0.865886 0)
(-0.0116278 0.83668 0)
(-0.00659055 0.814582 0)
(0.00658045 0.817053 0)
(0.0150271 0.837206 0)
(0.0093076 0.863743 0)
(-0.00786464 0.879254 0)
(-0.0321104 0.886399 0)
(-0.0642436 0.908765 0)
(-0.102505 0.922533 0)
(-0.134161 0.908152 0)
(-0.149073 0.864832 0)
(-0.135854 0.787675 0)
(-0.103792 0.726803 0)
(-0.0667369 0.69001 0)
(-0.0343886 0.686984 0)
(-0.0179279 0.706667 0)
(-0.00718041 0.738263 0)
(0.00189018 0.732247 0)
(0.0084487 0.702053 0)
(0.0196561 0.688064 0)
(0.0419719 0.697239 0)
(0.0778323 0.737825 0)
(0.117945 0.80299 0)
(0.132252 0.865955 0)
(0.124427 0.90316 0)
(0.100788 0.922994 0)
(0.0729538 0.908689 0)
(0.0448699 0.889947 0)
(0.0154483 0.889335 0)
(-0.00789956 0.872854 0)
(-0.0168701 0.828088 0)
(-0.00764681 0.793075 0)
(0.0128802 0.794258 0)
(0.0266248 0.825686 0)
(0.0227984 0.869287 0)
(0.00277626 0.894925 0)
(-0.0280432 0.910263 0)
(-0.0656477 0.936866 0)
(-0.102978 0.944988 0)
(-0.135155 0.91914 0)
(-0.148243 0.852779 0)
(-0.132003 0.751072 0)
(-0.0914813 0.679797 0)
(-0.0480194 0.647813 0)
(-0.0208862 0.65755 0)
(-0.00996608 0.689716 0)
(-0.00188178 0.725114 0)
(0.00315666 0.724825 0)
(0.00562569 0.695512 0)
(0.00744771 0.671477 0)
(0.0276021 0.666528 0)
(0.0633927 0.694445 0)
(0.105115 0.767771 0)
(0.124881 0.855128 0)
(0.11493 0.914652 0)
(0.0885766 0.941625 0)
(0.0607595 0.929023 0)
(0.0319302 0.913977 0)
(0.0014085 0.904392 0)
(-0.0199163 0.875448 0)
(-0.02415 0.816944 0)
(-0.00991955 0.767182 0)
(0.0121698 0.767703 0)
(0.0276646 0.811195 0)
(0.0252136 0.870074 0)
(0.00616959 0.90909 0)
(-0.0239693 0.93557 0)
(-0.0581278 0.962905 0)
(-0.0904001 0.968886 0)
(-0.119211 0.93463 0)
(-0.132104 0.845433 0)
(-0.118214 0.719443 0)
(-0.0779354 0.631695 0)
(-0.0360638 0.613832 0)
(-0.0134585 0.640571 0)
(-0.0103329 0.683834 0)
(-0.00404335 0.715989 0)
(0.00149812 0.719849 0)
(0.0022098 0.696005 0)
(-0.00138337 0.655661 0)
(0.0179801 0.633955 0)
(0.0512376 0.653645 0)
(0.0840982 0.736263 0)
(0.0973572 0.844732 0)
(0.0881698 0.929905 0)
(0.0648782 0.958515 0)
(0.0370006 0.947192 0)
(0.00470925 0.93515 0)
(-0.0196824 0.918946 0)
(-0.032694 0.872029 0)
(-0.0290855 0.799488 0)
(-0.012254 0.740107 0)
(0.00555359 0.742226 0)
(0.0204222 0.794432 0)
(0.0190042 0.867995 0)
(0.00221647 0.921917 0)
(-0.020455 0.953334 0)
(-0.0465921 0.981509 0)
(-0.0714366 0.983356 0)
(-0.0852978 0.941118 0)
(-0.0921477 0.832359 0)
(-0.0884803 0.692205 0)
(-0.0631572 0.588015 0)
(-0.030504 0.581345 0)
(-0.0133139 0.626088 0)
(-0.0122567 0.679823 0)
(-0.00333428 0.706162 0)
(0.000609065 0.717197 0)
(0.00154859 0.696755 0)
(-0.000305807 0.645535 0)
(0.0148429 0.60506 0)
(0.0400725 0.623551 0)
(0.0562063 0.720552 0)
(0.0580079 0.83855 0)
(0.0530766 0.938655 0)
(0.0396847 0.973314 0)
(0.0126908 0.974813 0)
(-0.0243334 0.952803 0)
(-0.0393236 0.927058 0)
(-0.0404896 0.860798 0)
(-0.0339029 0.779482 0)
(-0.0171131 0.714933 0)
(-0.00306383 0.719293 0)
(0.0113976 0.775757 0)
(0.0129914 0.861814 0)
(0.00452611 0.930054 0)
(-0.0120749 0.962865 0)
(-0.0369129 0.995926 0)
(-0.0501621 0.984255 0)
(-0.0474822 0.931683 0)
(-0.0430647 0.820556 0)
(-0.0438379 0.679294 0)
(-0.0395782 0.561054 0)
(-0.0267205 0.558148 0)
(-0.0166237 0.616045 0)
(-0.0141355 0.672238 0)
(-0.00204073 0.698923 0)
(0.0010208 0.71106 0)
(0.00580833 0.691901 0)
(0.00772891 0.635353 0)
(0.0191494 0.583809 0)
(0.0250517 0.607637 0)
(0.0213255 0.713685 0)
(0.0113406 0.837066 0)
(0.0148688 0.938138 0)
(0.0107759 0.981807 0)
(-0.0115158 1.00435 0)
(-0.0486958 0.975689 0)
(-0.0580277 0.925724 0)
(-0.0493299 0.848871 0)
(-0.0383931 0.763032 0)
(-0.0240938 0.698106 0)
(-0.0119518 0.700669 0)
(0.00468983 0.75521 0)
(0.0119283 0.84957 0)
(0.0160044 0.931949 0)
(-0.000175078 0.972009 0)
(-0.0231901 1.0081 0)
(-0.030745 0.974009 0)
(-0.0170948 0.907016 0)
(0.00321572 0.803154 0)
(0.00519743 0.667123 0)
(-0.00559561 0.552781 0)
(-0.0167933 0.546193 0)
(-0.0173536 0.609561 0)
(-0.0162836 0.660981 0)
(-0.00391273 0.688308 0)
(0.00295844 0.702914 0)
(0.012698 0.68239 0)
(0.0168854 0.626704 0)
(0.0227213 0.571464 0)
(0.0106073 0.606193 0)
(-0.0175432 0.717425 0)
(-0.0317468 0.828424 0)
(-0.021294 0.926678 0)
(-0.0161407 0.98301 0)
(-0.0318767 1.0231 0)
(-0.0597881 0.992988 0)
(-0.0682906 0.918012 0)
(-0.0575824 0.83724 0)
(-0.0464777 0.747812 0)
(-0.0302368 0.684866 0)
(-0.017855 0.686086 0)
(-0.00240722 0.740156 0)
(0.0080224 0.83391 0)
(0.0235937 0.928691 0)
(0.0104862 0.983635 0)
(-0.00974777 1.0164 0)
(-0.0149445 0.963282 0)
(0.00551194 0.873917 0)
(0.0334794 0.774378 0)
(0.0446579 0.655812 0)
(0.0279057 0.558744 0)
(1.70799e-05 0.547097 0)
(-0.0117682 0.607235 0)
(-0.0140877 0.651356 0)
(-0.00504513 0.676119 0)
(0.0037008 0.691032 0)
(0.0162346 0.668027 0)
(0.0212354 0.615823 0)
(0.0196191 0.561934 0)
(-0.00526679 0.624664 0)
(-0.0472438 0.731151 0)
(-0.0563767 0.819518 0)
(-0.0409382 0.910485 0)
(-0.031444 0.980471 0)
(-0.0385152 1.0351 0)
(-0.0578475 1.00736 0)
(-0.0679801 0.909915 0)
(-0.0596244 0.825465 0)
(-0.0455392 0.731625 0)
(-0.0316382 0.672348 0)
(-0.0226103 0.673441 0)
(-0.0127316 0.728379 0)
(0.00261255 0.815784 0)
(0.0222671 0.921642 0)
(0.0144508 0.994472 0)
(0.00300194 1.02199 0)
(0.00555686 0.952406 0)
(0.028173 0.843153 0)
(0.0555056 0.745657 0)
(0.0699411 0.643136 0)
(0.050302 0.569255 0)
(0.0155621 0.557089 0)
(-0.0059533 0.605161 0)
(-0.0110367 0.645344 0)
(-0.0044027 0.665416 0)
(0.00452332 0.678404 0)
(0.0147208 0.653519 0)
(0.014491 0.606593 0)
(0.00335822 0.558368 0)
(-0.0235906 0.644359 0)
(-0.0577651 0.734459 0)
(-0.0536816 0.802052 0)
(-0.0366524 0.889579 0)
(-0.0273973 0.971057 0)
(-0.0272492 1.03164 0)
(-0.0336642 1.01098 0)
(-0.0463183 0.902596 0)
(-0.042096 0.805801 0)
(-0.0255049 0.716333 0)
(-0.0211253 0.664454 0)
(-0.0234165 0.669438 0)
(-0.026347 0.724616 0)
(-0.0110094 0.797489 0)
(0.0120252 0.915318 0)
(0.01552 1.00213 0)
(0.011193 1.0196 0)
(0.0204484 0.937691 0)
(0.0435311 0.814963 0)
(0.0688674 0.722888 0)
(0.0794618 0.638285 0)
(0.0627381 0.582484 0)
(0.0262312 0.576305 0)
(-0.00124564 0.605643 0)
(-0.00965679 0.635686 0)
(-0.00249476 0.655553 0)
(0.00444607 0.663563 0)
(0.01156 0.643496 0)
(0.00781028 0.6034 0)
(-0.0144163 0.564599 0)
(-0.0476759 0.65265 0)
(-0.0593627 0.725599 0)
(-0.0431396 0.781675 0)
(-0.0241436 0.870066 0)
(-0.0147333 0.962448 0)
(-0.00795926 1.01933 0)
(0.00038621 1.00596 0)
(-0.00699691 0.899512 0)
(-0.00502875 0.784713 0)
(0.0116767 0.708942 0)
(0.00284839 0.668884 0)
(-0.0131406 0.680787 0)
(-0.0298567 0.731213 0)
(-0.0200319 0.779445 0)
(-0.000985763 0.907726 0)
(0.0128628 1.01004 0)
(0.0155918 1.02089 0)
(0.0257242 0.928354 0)
(0.0460586 0.79323 0)
(0.0669147 0.705513 0)
(0.0814956 0.636564 0)
(0.0705817 0.594089 0)
(0.03745 0.598391 0)
(0.00576058 0.612499 0)
(-0.00316538 0.628216 0)
(-0.000345341 0.647408 0)
(0.00139891 0.652641 0)
(0.00643323 0.633699 0)
(0.00544078 0.604538 0)
(-0.0189462 0.588371 0)
(-0.0511376 0.65839 0)
(-0.0514564 0.711515 0)
(-0.0376671 0.759381 0)
(-0.0191295 0.849982 0)
(-0.00674957 0.949649 0)
(0.0108341 0.992946 0)
(0.0347076 0.985464 0)
(0.0405477 0.893023 0)
(0.0366082 0.767138 0)
(0.0480282 0.703855 0)
(0.0384465 0.687276 0)
(0.0125875 0.702816 0)
(-0.0122153 0.747352 0)
(-0.0202906 0.776794 0)
(-0.0152962 0.899775 0)
(0.00137092 1.00946 0)
(0.0137806 1.01927 0)
(0.0280318 0.926517 0)
(0.0413886 0.784154 0)
(0.053289 0.693064 0)
(0.0744655 0.629534 0)
(0.072422 0.604388 0)
(0.047048 0.625478 0)
(0.0142665 0.622077 0)
(0.00617404 0.62505 0)
(0.00434576 0.648736 0)
(-0.00268788 0.6509 0)
(-0.000711225 0.627022 0)
(-8.97697e-05 0.607323 0)
(-0.022176 0.614707 0)
(-0.0465621 0.655571 0)
(-0.0404755 0.702708 0)
(-0.035279 0.743042 0)
(-0.0284025 0.832465 0)
(-0.0117147 0.929739 0)
(0.0189743 0.959125 0)
(0.0572601 0.956383 0)
(0.0766931 0.884609 0)
(0.0795394 0.760363 0)
(0.0727218 0.706275 0)
(0.0701168 0.707252 0)
(0.0468255 0.737347 0)
(0.0180433 0.781048 0)
(-0.0168323 0.797111 0)
(-0.0344341 0.900848 0)
(-0.022496 1.00393 0)
(0.00678637 1.00789 0)
(0.0335441 0.924879 0)
(0.0424815 0.785566 0)
(0.0491055 0.687646 0)
(0.0661023 0.618243 0)
(0.0634221 0.612529 0)
(0.042657 0.648416 0)
(0.0187765 0.639457 0)
(0.0119439 0.625967 0)
(0.00690486 0.659138 0)
(-0.00417368 0.653012 0)
(-0.00295652 0.622816 0)
(0.000243712 0.61733 0)
(-0.0190021 0.640838 0)
(-0.0410062 0.656978 0)
(-0.042085 0.699971 0)
(-0.0476466 0.74234 0)
(-0.0485164 0.822469 0)
(-0.0295503 0.907123 0)
(0.0101771 0.921854 0)
(0.0586653 0.921847 0)
(0.0909544 0.870556 0)
(0.099792 0.76498 0)
(0.0926289 0.71906 0)
(0.0914616 0.721966 0)
(0.073644 0.764615 0)
(0.0451701 0.823039 0)
(-0.00982808 0.845561 0)
(-0.0535978 0.916151 0)
(-0.0403586 0.985258 0)
(0.00513169 0.979379 0)
(0.0479938 0.913282 0)
(0.0594945 0.793661 0)
(0.0621547 0.689227 0)
(0.0597702 0.621813 0)
(0.0441281 0.632688 0)
(0.0258712 0.670748 0)
(0.0164106 0.655798 0)
(0.0144496 0.631153 0)
(0.00636387 0.672374 0)
(-0.00114967 0.657605 0)
(0.00433102 0.618716 0)
(0.00230274 0.62865 0)
(-0.0111542 0.667263 0)
(-0.0336938 0.674837 0)
(-0.0471124 0.70922 0)
(-0.0612356 0.746798 0)
(-0.066705 0.816704 0)
(-0.0424465 0.883196 0)
(0.000204685 0.887409 0)
(0.0494616 0.886022 0)
(0.0879791 0.853499 0)
(0.101239 0.76605 0)
(0.103912 0.723316 0)
(0.103452 0.743228 0)
(0.0865186 0.791606 0)
(0.0551663 0.865537 0)
(-0.00718586 0.907331 0)
(-0.058121 0.933927 0)
(-0.0332459 0.955627 0)
(0.0204519 0.937257 0)
(0.0758893 0.883974 0)
(0.0909329 0.797522 0)
(0.0773268 0.696638 0)
(0.0487495 0.64196 0)
(0.0213009 0.657338 0)
(0.00725102 0.685231 0)
(0.0078087 0.666762 0)
(0.00773203 0.640436 0)
(0.00192507 0.688971 0)
(0.00641839 0.654121 0)
(0.0198715 0.621009 0)
(0.0111485 0.642905 0)
(-0.0107738 0.687057 0)
(-0.0371617 0.694336 0)
(-0.0627161 0.716517 0)
(-0.0822195 0.754972 0)
(-0.0789647 0.805888 0)
(-0.0347738 0.848521 0)
(0.0142042 0.85632 0)
(0.057705 0.854145 0)
(0.093563 0.835342 0)
(0.111027 0.762608 0)
(0.109673 0.721133 0)
(0.104269 0.755493 0)
(0.0881963 0.816613 0)
(0.0517642 0.909516 0)
(-0.00511358 0.962041 0)
(-0.0362656 0.942838 0)
(-0.000590923 0.918566 0)
(0.0557791 0.888876 0)
(0.113678 0.845136 0)
(0.125237 0.801037 0)
(0.092747 0.721009 0)
(0.0502106 0.670706 0)
(0.0180199 0.673579 0)
(0.00534828 0.687914 0)
(-0.000566598 0.672794 0)
(-0.00804269 0.649039 0)
(-0.00941874 0.693646 0)
(0.0103443 0.648346 0)
(0.0180632 0.625656 0)
(-0.000750288 0.659095 0)
(-0.0279069 0.703139 0)
(-0.0535534 0.717527 0)
(-0.0814449 0.739843 0)
(-0.0980206 0.757104 0)
(-0.0817541 0.773149 0)
(-0.0277698 0.803119 0)
(0.0293398 0.822307 0)
(0.070814 0.82883 0)
(0.105343 0.814392 0)
(0.124912 0.759169 0)
(0.11875 0.727728 0)
(0.103963 0.765805 0)
(0.0815778 0.839495 0)
(0.0431734 0.946815 0)
(0.00437198 0.994629 0)
(-0.00406987 0.938149 0)
(0.0375588 0.882754 0)
(0.098664 0.839603 0)
(0.141666 0.81371 0)
(0.145253 0.811704 0)
(0.106342 0.753692 0)
(0.0629555 0.702585 0)
(0.0313066 0.691636 0)
(0.0127992 0.695251 0)
(-0.00221529 0.68303 0)
(-0.014819 0.653703 0)
(-0.0146341 0.681985 0)
(0.00818598 0.634529 0)
(-0.00949102 0.633632 0)
(-0.0457639 0.685453 0)
(-0.0724183 0.725384 0)
(-0.0877988 0.736922 0)
(-0.0977849 0.752393 0)
(-0.09719 0.751236 0)
(-0.0822363 0.737077 0)
(-0.0382404 0.743624 0)
(0.0223879 0.77892 0)
(0.0756896 0.800381 0)
(0.115552 0.795501 0)
(0.140843 0.754467 0)
(0.141942 0.739276 0)
(0.126611 0.778288 0)
(0.092545 0.865014 0)
(0.0518696 0.974169 0)
(0.028485 1.01034 0)
(0.0303404 0.930597 0)
(0.0689514 0.842933 0)
(0.121077 0.799449 0)
(0.145659 0.796623 0)
(0.143614 0.817041 0)
(0.111462 0.780537 0)
(0.0786606 0.726247 0)
(0.0539101 0.710856 0)
(0.0342857 0.708546 0)
(0.0194335 0.694442 0)
(0.00673247 0.654783 0)
(-0.0073553 0.665392 0)
(-0.00394466 0.646841 0)
(-0.0388811 0.679732 0)
(-0.0816069 0.715817 0)
(-0.100372 0.730857 0)
(-0.103386 0.735922 0)
(-0.0938693 0.746135 0)
(-0.0823932 0.744645 0)
(-0.077589 0.725563 0)
(-0.0615599 0.709512 0)
(-0.0135598 0.728921 0)
(0.0533907 0.757028 0)
(0.11028 0.76383 0)
(0.147865 0.737977 0)
(0.162767 0.735111 0)
(0.153839 0.793049 0)
(0.116048 0.899593 0)
(0.0767298 0.994974 0)
(0.0630595 1.0193 0)
(0.0710592 0.924089 0)
(0.0975964 0.811362 0)
(0.1286 0.773858 0)
(0.139797 0.790534 0)
(0.13268 0.823536 0)
(0.109224 0.802641 0)
(0.0820687 0.744008 0)
(0.0627603 0.719694 0)
(0.049168 0.70792 0)
(0.0427667 0.694254 0)
(0.0284264 0.671197 0)
(0.00225235 0.671751 0)
(-0.0145522 0.666009 0)
(-0.0540609 0.709147 0)
(-0.0882939 0.735765 0)
(-0.105579 0.742803 0)
(-0.104129 0.736651 0)
(-0.0881805 0.737892 0)
(-0.0685143 0.740017 0)
(-0.0664825 0.730494 0)
(-0.0679439 0.698125 0)
(-0.0404888 0.690409 0)
(0.0196553 0.711341 0)
(0.0902819 0.725422 0)
(0.138111 0.717084 0)
(0.163186 0.727562 0)
(0.163107 0.807836 0)
(0.139197 0.931052 0)
(0.108632 1.01672 0)
(0.104882 1.02224 0)
(0.121818 0.918107 0)
(0.13222 0.803282 0)
(0.136324 0.766426 0)
(0.131878 0.792253 0)
(0.119246 0.830209 0)
(0.10236 0.818797 0)
(0.0729558 0.763505 0)
(0.0533832 0.728377 0)
(0.0456355 0.708971 0)
(0.0426857 0.691119 0)
(0.0328396 0.681472 0)
(0.00978115 0.681696 0)
(-0.0144299 0.695236 0)
(-0.0482054 0.744678 0)
(-0.0801846 0.759571 0)
(-0.0942639 0.754029 0)
(-0.0911999 0.735358 0)
(-0.0769808 0.724991 0)
(-0.0572648 0.729749 0)
(-0.0542622 0.738586 0)
(-0.0624099 0.702109 0)
(-0.0478543 0.672653 0)
(-0.0054578 0.668603 0)
(0.0564789 0.679777 0)
(0.112719 0.69343 0)
(0.144733 0.715367 0)
(0.154015 0.815913 0)
(0.145262 0.948075 0)
(0.131661 1.0306 0)
(0.141557 1.01389 0)
(0.16897 0.913186 0)
(0.172916 0.815896 0)
(0.153331 0.777821 0)
(0.130465 0.802483 0)
(0.110572 0.837379 0)
(0.096312 0.831587 0)
(0.0665837 0.787737 0)
(0.0382459 0.733655 0)
(0.0322851 0.709015 0)
(0.0316477 0.692179 0)
(0.02265 0.694932 0)
(0.0104308 0.698197 0)
(-0.0131286 0.719117 0)
(-0.0392296 0.777027 0)
(-0.0625611 0.77865 0)
(-0.0685088 0.760335 0)
(-0.0664789 0.733829 0)
(-0.0615581 0.719583 0)
(-0.0501346 0.720814 0)
(-0.0431885 0.740251 0)
(-0.050769 0.707101 0)
(-0.0481138 0.665335 0)
(-0.0197658 0.648841 0)
(0.0256806 0.64547 0)
(0.0783657 0.661125 0)
(0.116829 0.696579 0)
(0.131632 0.81403 0)
(0.136388 0.952585 0)
(0.14319 1.02915 0)
(0.168386 0.99463 0)
(0.204598 0.902006 0)
(0.211441 0.833381 0)
(0.183088 0.807342 0)
(0.139903 0.823461 0)
(0.106818 0.846348 0)
(0.0899064 0.839729 0)
(0.0648265 0.811245 0)
(0.0298483 0.745169 0)
(0.0167601 0.706441 0)
(0.0196308 0.691074 0)
(0.0139052 0.704294 0)
(0.00712249 0.710712 0)
(-0.0194521 0.739646 0)
(-0.0285884 0.791595 0)
(-0.0371796 0.783191 0)
(-0.0352616 0.75983 0)
(-0.038502 0.734653 0)
(-0.0414228 0.717327 0)
(-0.0426263 0.716901 0)
(-0.0350119 0.73721 0)
(-0.0400821 0.716221 0)
(-0.0464383 0.662994 0)
(-0.031055 0.63076 0)
(0.00510504 0.617252 0)
(0.0494101 0.630614 0)
(0.0845579 0.677162 0)
(0.103256 0.802482 0)
(0.117901 0.940614 0)
(0.145348 1.00892 0)
(0.184585 0.966538 0)
(0.227896 0.88481 0)
(0.241839 0.846411 0)
(0.215743 0.845147 0)
(0.157023 0.863014 0)
(0.106747 0.868655 0)
(0.0789547 0.849852 0)
(0.0592912 0.831927 0)
(0.0285106 0.769288 0)
(0.00446892 0.707367 0)
(0.00672247 0.686285 0)
(0.00770521 0.706649 0)
(0.00989069 0.718327 0)
(-0.0233506 0.7615 0)
(-0.0220118 0.788067 0)
(-0.0146752 0.777837 0)
(-0.0127762 0.760173 0)
(-0.0178961 0.737926 0)
(-0.0257446 0.722415 0)
(-0.0339028 0.717949 0)
(-0.0278922 0.729061 0)
(-0.0303016 0.725251 0)
(-0.0471351 0.667947 0)
(-0.0424923 0.615113 0)
(-0.0156969 0.593257 0)
(0.0198963 0.603279 0)
(0.0507553 0.658486 0)
(0.0750287 0.786166 0)
(0.0973007 0.918915 0)
(0.141473 0.973334 0)
(0.193328 0.932702 0)
(0.237215 0.861422 0)
(0.257219 0.850829 0)
(0.234533 0.881892 0)
(0.171176 0.915542 0)
(0.108642 0.906854 0)
(0.0650101 0.873327 0)
(0.044327 0.85012 0)
(0.0211571 0.79355 0)
(-0.00159335 0.722153 0)
(-0.00592507 0.684562 0)
(0.0021273 0.701052 0)
(0.0117873 0.729483 0)
(-0.0154675 0.786266 0)
(-0.00978005 0.773957 0)
(0.00254899 0.770595 0)
(0.00480094 0.759993 0)
(-0.00298053 0.740681 0)
(-0.0142136 0.72951 0)
(-0.0251338 0.721843 0)
(-0.0262882 0.719958 0)
(-0.0275724 0.731884 0)
(-0.0492332 0.680758 0)
(-0.0568745 0.605447 0)
(-0.0377775 0.574103 0)
(-0.0111441 0.58241 0)
(0.0157433 0.638909 0)
(0.0474891 0.763055 0)
(0.0863486 0.889891 0)
(0.13978 0.929828 0)
(0.198785 0.896473 0)
(0.235162 0.838567 0)
(0.253538 0.84589 0)
(0.236047 0.912715 0)
(0.176776 0.970467 0)
(0.110271 0.956262 0)
(0.0529152 0.910285 0)
(0.0231291 0.8721 0)
(0.00423134 0.810883 0)
(-0.0126057 0.736687 0)
(-0.0154517 0.685999 0)
(-0.00557501 0.69156 0)
(0.00550637 0.740378 0)
(-0.00434824 0.796627 0)
(0.00258589 0.76461 0)
(0.0165783 0.763857 0)
(0.0200118 0.762806 0)
(0.0114234 0.748762 0)
(-0.00256385 0.740679 0)
(-0.0173263 0.730459 0)
(-0.0288514 0.72095 0)
(-0.0341011 0.7374 0)
(-0.0537851 0.698394 0)
(-0.0707081 0.603713 0)
(-0.0598033 0.5597 0)
(-0.0387007 0.5671 0)
(-0.0126111 0.619467 0)
(0.0254885 0.729427 0)
(0.0804438 0.849211 0)
(0.139922 0.884845 0)
(0.200217 0.859426 0)
(0.229592 0.819896 0)
(0.237677 0.837027 0)
(0.222657 0.935468 0)
(0.173683 1.01708 0)
(0.110708 1.01081 0)
(0.0434991 0.95431 0)
(0.00347103 0.897461 0)
(-0.0160331 0.825861 0)
(-0.0263117 0.747901 0)
(-0.0248811 0.684944 0)
(-0.0143719 0.685003 0)
(-0.00294016 0.741133 0)
(0.00329048 0.8021 0)
(0.0131981 0.755435 0)
(0.0271634 0.75581 0)
(0.0334182 0.763415 0)
(0.0274841 0.758558 0)
(0.00970337 0.755579 0)
(-0.0112979 0.746221 0)
(-0.035298 0.731938 0)
(-0.0499414 0.739209 0)
(-0.0668062 0.712614 0)
(-0.0858825 0.605289 0)
(-0.0804124 0.544626 0)
(-0.0607429 0.552537 0)
(-0.033122 0.598563 0)
(0.00979488 0.69091 0)
(0.0710445 0.803944 0)
(0.136876 0.839906 0)
(0.196003 0.820738 0)
(0.224629 0.804265 0)
(0.219627 0.834023 0)
(0.197637 0.944845 0)
(0.158771 1.04644 0)
(0.106415 1.0576 0)
(0.0386648 1.00245 0)
(-0.0122391 0.92258 0)
(-0.0361812 0.836633 0)
(-0.042703 0.750219 0)
(-0.0379966 0.68077 0)
(-0.0248605 0.675459 0)
(-0.0106473 0.735118 0)
(0.00874614 0.795615 0)
(0.0218484 0.744699 0)
(0.0367172 0.746021 0)
(0.0462854 0.760361 0)
(0.0407847 0.768208 0)
(0.0183811 0.773513 0)
(-0.0126166 0.764003 0)
(-0.0460575 0.750658 0)
(-0.072369 0.744619 0)
(-0.0887622 0.719391 0)
(-0.102907 0.606655 0)
(-0.102627 0.529531 0)
(-0.08 0.533676 0)
(-0.0469812 0.572651 0)
(-0.000767408 0.651696 0)
(0.0604937 0.751246 0)
(0.130371 0.789782 0)
(0.187326 0.779726 0)
(0.216967 0.787021 0)
(0.199452 0.840771 0)
(0.163175 0.95329 0)
(0.13628 1.06303 0)
(0.0991378 1.09203 0)
(0.0404263 1.04692 0)
(-0.020885 0.95128 0)
(-0.0540003 0.845635 0)
(-0.0608307 0.747066 0)
(-0.0529589 0.671926 0)
(-0.0350359 0.66282 0)
(-0.0150815 0.716902 0)
(0.0119986 0.781789 0)
(0.0290041 0.731555 0)
(0.0454167 0.734102 0)
(0.0534746 0.756388 0)
(0.0440052 0.778066 0)
(0.0152014 0.794767 0)
(-0.0264095 0.788036 0)
(-0.0664806 0.772806 0)
(-0.0972631 0.753493 0)
(-0.111134 0.719868 0)
(-0.116943 0.601328 0)
(-0.116319 0.514711 0)
(-0.0942559 0.503914 0)
(-0.0550796 0.538286 0)
(-0.00466316 0.609811 0)
(0.0565683 0.698574 0)
(0.121045 0.737421 0)
(0.175467 0.739824 0)
(0.198004 0.774339 0)
(0.166398 0.857459 0)
(0.126338 0.961415 0)
(0.107983 1.0662 0)
(0.0875293 1.1134 0)
(0.0423335 1.08492 0)
(-0.0179322 0.987578 0)
(-0.0640489 0.85788 0)
(-0.0747171 0.73953 0)
(-0.0619606 0.656178 0)
(-0.0400914 0.644176 0)
(-0.0167937 0.694722 0)
(0.0170708 0.762945 0)
(0.0380075 0.718103 0)
(0.051299 0.723852 0)
(0.0488021 0.757211 0)
(0.0288255 0.791365 0)
(-0.00600616 0.820184 0)
(-0.0507955 0.81521 0)
(-0.0911919 0.793361 0)
(-0.116513 0.758803 0)
(-0.122016 0.710947 0)
(-0.117814 0.593124 0)
(-0.116655 0.496187 0)
(-0.0950339 0.475442 0)
(-0.053925 0.496372 0)
(-0.00316479 0.562838 0)
(0.0555929 0.646296 0)
(0.114191 0.687077 0)
(0.157449 0.699306 0)
(0.159953 0.770898 0)
(0.127486 0.871952 0)
(0.0932832 0.973845 0)
(0.0788254 1.06432 0)
(0.0699551 1.1236 0)
(0.0433974 1.11359 0)
(-0.00680593 1.02265 0)
(-0.0541534 0.876274 0)
(-0.0710813 0.731111 0)
(-0.060037 0.634444 0)
(-0.040727 0.624282 0)
(-0.018214 0.669879 0)
(0.0257023 0.735953 0)
(0.047315 0.705978 0)
(0.0500657 0.723021 0)
(0.0332712 0.771391 0)
(-0.00126239 0.81056 0)
(-0.038286 0.841894 0)
(-0.0778501 0.839332 0)
(-0.111386 0.810436 0)
(-0.132765 0.760762 0)
(-0.125046 0.694926 0)
(-0.110875 0.585061 0)
(-0.107505 0.479486 0)
(-0.0899876 0.445739 0)
(-0.0504881 0.457259 0)
(-0.00385474 0.515154 0)
(0.0506249 0.593251 0)
(0.0989327 0.633395 0)
(0.132633 0.67724 0)
(0.12536 0.775824 0)
(0.0976605 0.883935 0)
(0.0698837 0.988696 0)
(0.0544351 1.06308 0)
(0.0529193 1.12575 0)
(0.0418348 1.12942 0)
(0.00671411 1.05204 0)
(-0.0369137 0.895966 0)
(-0.0497111 0.728607 0)
(-0.04712 0.621853 0)
(-0.0380451 0.610869 0)
(-0.0184744 0.642499 0)
(0.0309183 0.700822 0)
(0.048957 0.698698 0)
(0.0386478 0.731735 0)
(0.00684704 0.792805 0)
(-0.0379614 0.833684 0)
(-0.0713123 0.859828 0)
(-0.101714 0.860491 0)
(-0.131112 0.826518 0)
(-0.148253 0.759636 0)
(-0.13113 0.668193 0)
(-0.106855 0.570519 0)
(-0.0968388 0.465905 0)
(-0.0848838 0.419779 0)
(-0.05025 0.422291 0)
(-0.0094104 0.470568 0)
(0.0384703 0.545648 0)
(0.0795397 0.592041 0)
(0.104917 0.655198 0)
(0.101892 0.778141 0)
(0.0837326 0.891827 0)
(0.0618289 1.00094 0)
(0.0466611 1.06652 0)
(0.0460251 1.12175 0)
(0.0447512 1.137 0)
(0.0231616 1.07205 0)
(-0.0118791 0.914752 0)
(-0.02815 0.724569 0)
(-0.0364925 0.622219 0)
(-0.0349952 0.603181 0)
(-0.0184508 0.615881 0)
(0.0254506 0.65406 0)
(0.0389864 0.693322 0)
(0.013905 0.74109 0)
(-0.0266683 0.812406 0)
(-0.0730419 0.853854 0)
(-0.10738 0.873944 0)
(-0.134772 0.874666 0)
(-0.145681 0.833569 0)
(-0.145183 0.746362 0)
(-0.125644 0.638488 0)
(-0.0986144 0.547245 0)
(-0.084477 0.452467 0)
(-0.0772851 0.398378 0)
(-0.0507884 0.394614 0)
(-0.0190286 0.433798 0)
(0.0182443 0.503624 0)
(0.0550387 0.557695 0)
(0.0781512 0.636235 0)
(0.0855846 0.773619 0)
(0.0806495 0.8988 0)
(0.0672825 1.00928 0)
(0.0580388 1.07171 0)
(0.0542735 1.11913 0)
(0.0583975 1.136 0)
(0.050031 1.08223 0)
(0.0217614 0.93242 0)
(-0.00933338 0.733823 0)
(-0.0262478 0.629399 0)
(-0.0318897 0.597213 0)
(-0.0178018 0.589249 0)
(0.0127604 0.616237 0)
(0.0130556 0.691168 0)
(-0.0246605 0.753747 0)
(-0.0680027 0.834032 0)
(-0.113979 0.870741 0)
(-0.148751 0.884551 0)
(-0.164258 0.868576 0)
(-0.157196 0.822209 0)
(-0.136958 0.72187 0)
(-0.114376 0.608566 0)
(-0.0840931 0.523162 0)
(-0.0665531 0.4433 0)
(-0.0639872 0.383324 0)
(-0.04778 0.37387 0)
(-0.0274615 0.408327 0)
(-0.00404522 0.471223 0)
(0.0273722 0.530877 0)
(0.0483261 0.618563 0)
(0.0649861 0.759673 0)
(0.0759926 0.897413 0)
(0.074902 1.00843 0)
(0.0738802 1.07519 0)
(0.0751179 1.11645 0)
(0.0853439 1.12916 0)
(0.0870573 1.08769 0)
(0.0633566 0.959145 0)
(0.0184357 0.762355 0)
(-0.0108872 0.640271 0)
(-0.0221653 0.59608 0)
(-0.01367 0.568526 0)
(-0.00518775 0.596796 0)
(-0.0194436 0.711869 0)
(-0.0737673 0.778837 0)
(-0.104725 0.853646 0)
(-0.143888 0.888787 0)
(-0.177339 0.896806 0)
(-0.189252 0.861349 0)
(-0.165344 0.792961 0)
(-0.123894 0.686413 0)
(-0.0947531 0.578102 0)
(-0.0757647 0.495181 0)
(-0.0554798 0.437594 0)
(-0.0497805 0.377137 0)
(-0.0438636 0.363512 0)
(-0.0352762 0.395781 0)
(-0.0220246 0.453056 0)
(0.000359458 0.512725 0)
(0.015266 0.602126 0)
(0.0374168 0.73701 0)
(0.0614061 0.885801 0)
(0.0737753 0.999994 0)
(0.0859389 1.06935 0)
(0.0982519 1.10557 0)
(0.1153 1.1166 0)
(0.121865 1.09076 0)
(0.102558 0.985896 0)
(0.0479379 0.801186 0)
(0.00752713 0.660362 0)
(-0.0117533 0.59855 0)
(-0.00862273 0.555281 0)
(-0.026356 0.607673 0)
(-0.0533076 0.743721 0)
(-0.103548 0.802139 0)
(-0.127579 0.872376 0)
(-0.154075 0.90742 0)
(-0.178361 0.900645 0)
(-0.178098 0.836782 0)
(-0.146274 0.752992 0)
(-0.103302 0.64796 0)
(-0.073043 0.549849 0)
(-0.062101 0.478968 0)
(-0.0534953 0.423692 0)
(-0.0424272 0.374726 0)
(-0.0407318 0.359768 0)
(-0.040621 0.391241 0)
(-0.0303323 0.443405 0)
(-0.0192262 0.502467 0)
(-0.0111458 0.587046 0)
(0.00896714 0.711523 0)
(0.0393365 0.864272 0)
(0.0673821 0.978336 0)
(0.0941307 1.05017 0)
(0.117349 1.08773 0)
(0.137089 1.10115 0)
(0.148356 1.09156 0)
(0.134246 1.01386 0)
(0.0777935 0.849315 0)
(0.0265484 0.692064 0)
(-0.00260148 0.609053 0)
(-0.00397803 0.547531 0)
(-0.0358873 0.649874 0)
(-0.0710385 0.782081 0)
(-0.104824 0.825734 0)
(-0.116439 0.886831 0)
(-0.135667 0.924015 0)
(-0.150402 0.904669 0)
(-0.144766 0.818402 0)
(-0.119828 0.720897 0)
(-0.0857369 0.62119 0)
(-0.0621989 0.53504 0)
(-0.0503835 0.468523 0)
(-0.0485369 0.418759 0)
(-0.0435505 0.368462 0)
(-0.0444759 0.360112 0)
(-0.0454903 0.391162 0)
(-0.0391628 0.438298 0)
(-0.0341946 0.494979 0)
(-0.0256774 0.577356 0)
(-0.011781 0.689445 0)
(0.0221201 0.832063 0)
(0.0652903 0.946337 0)
(0.101621 1.02251 0)
(0.131904 1.06557 0)
(0.15238 1.08639 0)
(0.164244 1.09171 0)
(0.153081 1.03983 0)
(0.101444 0.904349 0)
(0.0433058 0.734647 0)
(0.008257 0.625823 0)
(0.000748757 0.547304 0)
(-0.0387964 0.706359 0)
(-0.0628428 0.808353 0)
(-0.0821263 0.845336 0)
(-0.0942471 0.910591 0)
(-0.113243 0.945279 0)
(-0.119173 0.906806 0)
(-0.112522 0.807247 0)
(-0.0950201 0.698183 0)
(-0.0717809 0.601809 0)
(-0.0555939 0.525794 0)
(-0.0470979 0.464629 0)
(-0.0458231 0.417686 0)
(-0.0489218 0.369595 0)
(-0.0541169 0.361277 0)
(-0.0533631 0.388763 0)
(-0.0493579 0.434222 0)
(-0.0390014 0.485792 0)
(-0.0273125 0.56761 0)
(-0.0198819 0.668761 0)
(0.0128441 0.78902 0)
(0.0635118 0.905578 0)
(0.106545 0.989297 0)
(0.140435 1.04114 0)
(0.159983 1.07261 0)
(0.170338 1.09093 0)
(0.160416 1.06233 0)