/*--------------------------------*- C++ -*----------------------------------*\
| =========                 |                                                 |
| \\      /  F ield         | OpenFOAM: The Open Source CFD Toolbox           |
|  \\    /   O peration     | Version:  v1606+                                |
|   \\  /    A nd           | Web:      www.OpenFOAM.com                      |
|    \\/     M anipulation  |                                                 |
\*---------------------------------------------------------------------------*/
FoamFile
{
    version     2.0;
    format      ascii;
    class       volVectorField;
    location    "1.54";
    object      Ur;
}
// * * * * * * * * * * * * * * * * * * * * * * * * * * * * * * * * * * * * * //

dimensions      [0 1 -1 0 0 0 0];

internalField   nonuniform List<vector> 
6000
(
(0.00151048 -0.567887 0)
(-0.00823757 -0.571427 0)
(-0.01836 -0.556967 0)
(-0.038943 -0.540533 0)
(-0.0487734 -0.54588 0)
(-0.0425948 -0.59784 0)
(-0.017492 -0.689006 0)
(0.0122501 -0.701592 0)
(0.0192772 -0.666308 0)
(0.0152435 -0.66603 0)
(0.00500393 -0.669755 0)
(-0.00866843 -0.675308 0)
(-0.0133018 -0.687495 0)
(-0.0196568 -0.706251 0)
(-0.015505 -0.724432 0)
(0.0024653 -0.721481 0)
(0.0049972 -0.690435 0)
(-0.00262001 -0.66807 0)
(-0.00433568 -0.656474 0)
(0.000968227 -0.667803 0)
(0.0300134 -0.702263 0)
(0.0696195 -0.63873 0)
(0.0910501 -0.55369 0)
(0.0753574 -0.514187 0)
(0.0312997 -0.515936 0)
(-0.0136034 -0.525269 0)
(-0.0555975 -0.539424 0)
(-0.0731219 -0.561898 0)
(-0.0309008 -0.591713 0)
(-0.00236534 -0.580666 0)
(0.011216 -0.909373 0)
(0.0410674 -0.899496 0)
(0.0633151 -0.847137 0)
(0.0467047 -0.814148 0)
(0.000279912 -0.830532 0)
(-0.0430418 -0.868582 0)
(-0.0705912 -0.934829 0)
(-0.0747406 -0.971585 0)
(-0.0561528 -0.981655 0)
(-0.0396 -0.992948 0)
(-0.0401018 -0.980051 0)
(-0.0594744 -0.98293 0)
(-0.0835023 -1.00159 0)
(-0.0744806 -1.03884 0)
(-0.0284229 -1.07941 0)
(0.0294317 -1.07748 0)
(0.073588 -1.00551 0)
(0.0756395 -0.963612 0)
(0.0593922 -0.961734 0)
(0.0766672 -0.986847 0)
(0.113505 -0.99982 0)
(0.1403 -0.930256 0)
(0.1135 -0.823637 0)
(0.0344888 -0.760971 0)
(-0.037475 -0.767256 0)
(-0.0898203 -0.797191 0)
(-0.124062 -0.837036 0)
(-0.136645 -0.909355 0)
(-0.083199 -1.01216 0)
(-0.0146052 -0.964183 0)
(0.0206195 -0.86417 0)
(0.0824596 -0.884207 0)
(0.133244 -0.798672 0)
(0.125273 -0.680885 0)
(0.0614023 -0.618253 0)
(-0.0277512 -0.647907 0)
(-0.0845488 -0.73096 0)
(-0.0873536 -0.787199 0)
(-0.0665119 -0.803827 0)
(-0.0589823 -0.808599 0)
(-0.0672741 -0.777084 0)
(-0.0947476 -0.777619 0)
(-0.117153 -0.80951 0)
(-0.0952816 -0.915811 0)
(-0.0421847 -0.959454 0)
(0.011279 -0.963542 0)
(0.0822947 -0.878742 0)
(0.105957 -0.796036 0)
(0.0744595 -0.789384 0)
(0.0702305 -0.830391 0)
(0.114114 -0.863944 0)
(0.152158 -0.77451 0)
(0.0786573 -0.586703 0)
(-0.0379026 -0.574596 0)
(-0.105356 -0.649736 0)
(-0.144236 -0.729406 0)
(-0.154132 -0.799092 0)
(-0.14304 -0.89275 0)
(-0.0933539 -1.05901 0)
(-0.0223441 -0.950538 0)
(0.0149212 -0.995961 0)
(0.0927098 -1.10024 0)
(0.182013 -0.988161 0)
(0.221152 -0.812282 0)
(0.185884 -0.623948 0)
(0.0925405 -0.569561 0)
(-0.00528326 -0.630437 0)
(-0.0621109 -0.753812 0)
(-0.07472 -0.796999 0)
(-0.0790438 -0.806793 0)
(-0.0894172 -0.787511 0)
(-0.110974 -0.774364 0)
(-0.104856 -0.852641 0)
(-0.0724535 -0.950598 0)
(-0.0512004 -0.968657 0)
(-0.0292791 -0.981367 0)
(0.0243766 -0.964639 0)
(0.0741622 -0.828414 0)
(0.0819872 -0.807485 0)
(0.0737032 -0.838886 0)
(0.0624062 -0.853044 0)
(0.0323018 -0.730554 0)
(-0.0429547 -0.536215 0)
(-0.142314 -0.620415 0)
(-0.183876 -0.773122 0)
(-0.175744 -0.850416 0)
(-0.137477 -0.936356 0)
(-0.0645305 -1.02896 0)
(-0.0373267 -1.22228 0)
(-0.0232233 -1.0877 0)
(0.0261707 -1.06252 0)
(0.0674237 -1.2284 0)
(0.114877 -1.12387 0)
(0.221382 -0.951579 0)
(0.275355 -0.688047 0)
(0.20831 -0.535277 0)
(0.091811 -0.510726 0)
(0.0155581 -0.657567 0)
(-0.0265123 -0.724643 0)
(-0.0631743 -0.739632 0)
(-0.0952885 -0.724474 0)
(-0.125031 -0.72798 0)
(-0.120132 -0.860892 0)
(-0.0888966 -0.928107 0)
(-0.0683227 -0.945393 0)
(-0.0431026 -0.956182 0)
(-0.0121699 -0.955876 0)
(0.0420918 -0.847329 0)
(0.0796099 -0.775301 0)
(0.0517458 -0.742427 0)
(-0.0274859 -0.721814 0)
(-0.105393 -0.614556 0)
(-0.161371 -0.497111 0)
(-0.216776 -0.627814 0)
(-0.214364 -0.855203 0)
(-0.136623 -0.919836 0)
(-0.0595261 -1.00953 0)
(0.00652684 -1.07827 0)
(0.00531905 -1.13149 0)
(-0.0114708 -1.08406 0)
(0.0231911 -1.08446 0)
(0.0227848 -1.14604 0)
(0.0132744 -1.14354 0)
(0.0946261 -1.11397 0)
(0.251994 -0.836027 0)
(0.29837 -0.579765 0)
(0.201589 -0.488307 0)
(0.119752 -0.580848 0)
(0.0676858 -0.644989 0)
(0.0172187 -0.66126 0)
(-0.0390707 -0.64118 0)
(-0.0974812 -0.657401 0)
(-0.137167 -0.81999 0)
(-0.121245 -0.888944 0)
(-0.0854005 -0.906317 0)
(-0.0555464 -0.921267 0)
(-0.0284151 -0.931625 0)
(0.0103985 -0.84834 0)
(0.0319212 -0.72765 0)
(-0.0134079 -0.624866 0)
(-0.0965837 -0.587793 0)
(-0.164262 -0.52501 0)
(-0.193009 -0.467625 0)
(-0.210717 -0.64779 0)
(-0.175835 -0.920449 0)
(-0.0734836 -0.974246 0)
(-0.0138001 -0.982764 0)
(-0.00512952 -1.00807 0)
(-0.00196898 -1.03197 0)
(0.00045803 -1.02058 0)
(0.00211908 -1.01213 0)
(-0.00445418 -1.0417 0)
(-0.0129314 -1.05574 0)
(-0.00373567 -1.07363 0)
(0.143226 -1.02756 0)
(0.284153 -0.647597 0)
(0.25436 -0.468371 0)
(0.170289 -0.518052 0)
(0.129046 -0.574665 0)
(0.0796657 -0.582892 0)
(0.0266903 -0.568754 0)
(-0.0192933 -0.590897 0)
(-0.0749062 -0.748908 0)
(-0.10577 -0.842222 0)
(-0.0962621 -0.863844 0)
(-0.0805152 -0.884029 0)
(-0.0658297 -0.899219 0)
(-0.0509031 -0.828898 0)
(-0.0655104 -0.671578 0)
(-0.0995283 -0.555392 0)
(-0.131542 -0.532638 0)
(-0.138284 -0.501504 0)
(-0.107044 -0.462925 0)
(-0.0840332 -0.652937 0)
(-0.0626666 -0.942663 0)
(0.00279178 -0.985665 0)
(0.0217335 -0.929772 0)
(-0.0098887 -0.953698 0)
(-0.0107685 -0.967957 0)
(0.00233099 -0.963438 0)
(-0.0139097 -0.933467 0)
(-0.0308261 -0.962863 0)
(-0.0416886 -0.986659 0)
(-0.038675 -1.03335 0)
(0.0405625 -1.07028 0)
(0.192275 -0.773501 0)
(0.195442 -0.420573 0)
(0.147423 -0.468156 0)
(0.126789 -0.527316 0)
(0.0995622 -0.53305 0)
(0.0758493 -0.526173 0)
(0.0586411 -0.543954 0)
(0.0163499 -0.662913 0)
(-0.0454313 -0.776039 0)
(-0.0794133 -0.807963 0)
(-0.0955563 -0.821966 0)
(-0.114068 -0.835204 0)
(-0.137447 -0.781212 0)
(-0.162011 -0.639292 0)
(-0.171086 -0.551529 0)
(-0.153746 -0.547222 0)
(-0.108195 -0.540278 0)
(-0.0483679 -0.537553 0)
(0.00118185 -0.768353 0)
(0.0614153 -1.06677 0)
(0.124756 -1.00785 0)
(0.125982 -0.873603 0)
(0.0678273 -0.860129 0)
(0.0186842 -0.910284 0)
(0.00673534 -0.907218 0)
(-0.0209826 -0.837511 0)
(-0.0514512 -0.881653 0)
(-0.0800064 -0.907165 0)
(-0.097648 -0.997569 0)
(-0.0447939 -1.11687 0)
(0.0579582 -0.878399 0)
(0.0734038 -0.429956 0)
(0.0718813 -0.46883 0)
(0.0904899 -0.520893 0)
(0.0938856 -0.525653 0)
(0.0970319 -0.524548 0)
(0.0996749 -0.536541 0)
(0.0741295 -0.612835 0)
(0.0120536 -0.710033 0)
(-0.0472954 -0.748188 0)
(-0.0903792 -0.763085 0)
(-0.135013 -0.775369 0)
(-0.18372 -0.737524 0)
(-0.212869 -0.637226 0)
(-0.206598 -0.582325 0)
(-0.179429 -0.584638 0)
(-0.132393 -0.603335 0)
(-0.0689689 -0.681278 0)
(0.0599715 -1.0557 0)
(0.214198 -1.24606 0)
(0.252146 -1.04351 0)
(0.224368 -0.863234 0)
(0.16917 -0.78126 0)
(0.0896502 -0.803634 0)
(0.0230175 -0.827972 0)
(-0.018568 -0.769872 0)
(-0.0521047 -0.827356 0)
(-0.0932686 -0.843163 0)
(-0.129539 -0.961403 0)
(-0.11896 -1.18076 0)
(-0.0569641 -1.06065 0)
(-0.00615109 -0.562589 0)
(0.0306068 -0.54929 0)
(0.0716325 -0.556733 0)
(0.0920156 -0.547167 0)
(0.101416 -0.540052 0)
(0.102645 -0.547181 0)
(0.0837011 -0.596872 0)
(0.0303763 -0.672776 0)
(-0.0341453 -0.716681 0)
(-0.0831681 -0.737413 0)
(-0.12858 -0.744579 0)
(-0.17618 -0.712313 0)
(-0.201829 -0.642246 0)
(-0.203806 -0.600799 0)
(-0.204619 -0.598163 0)
(-0.19043 -0.655211 0)
(-0.0782149 -0.848781 0)
(0.207787 -1.38364 0)
(0.419194 -1.3683 0)
(0.365404 -1.04537 0)
(0.286144 -0.87394 0)
(0.234274 -0.7846 0)
(0.147515 -0.719356 0)
(0.0487711 -0.737752 0)
(-0.0281216 -0.76323 0)
(-0.0603241 -0.864693 0)
(-0.108986 -0.852928 0)
(-0.180392 -0.972787 0)
(-0.186926 -1.30296 0)
(-0.104492 -1.31997 0)
(-0.000552026 -0.784098 0)
(0.0660123 -0.658243 0)
(0.0949009 -0.610399 0)
(0.113768 -0.56731 0)
(0.109368 -0.543305 0)
(0.08859 -0.542658 0)
(0.0553106 -0.574037 0)
(0.0044369 -0.634528 0)
(-0.0533186 -0.687175 0)
(-0.0905657 -0.720331 0)
(-0.11001 -0.733421 0)
(-0.130458 -0.693505 0)
(-0.147474 -0.629332 0)
(-0.163171 -0.593812 0)
(-0.185116 -0.617932 0)
(-0.137761 -0.756963 0)
(0.104452 -1.21176 0)
(0.508567 -1.71372 0)
(0.589572 -1.39566 0)
(0.434458 -0.949954 0)
(0.301319 -0.836963 0)
(0.23722 -0.787909 0)
(0.184092 -0.682386 0)
(0.0754129 -0.61767 0)
(-0.0564185 -0.745465 0)
(-0.109325 -0.928221 0)
(-0.159646 -0.846193 0)
(-0.2789 -0.954717 0)
(-0.310451 -1.36617 0)
(-0.21151 -1.46735 0)
(-0.0322588 -0.995663 0)
(0.116447 -0.72875 0)
(0.166121 -0.661187 0)
(0.165188 -0.577366 0)
(0.130867 -0.533949 0)
(0.0820144 -0.51969 0)
(0.0218217 -0.532119 0)
(-0.0439771 -0.598523 0)
(-0.0899983 -0.686783 0)
(-0.104756 -0.77126 0)
(-0.0936974 -0.800652 0)
(-0.0841329 -0.737311 0)
(-0.0934341 -0.651968 0)
(-0.0975897 -0.628156 0)
(-0.0663776 -0.781897 0)
(0.119661 -1.24064 0)
(0.467631 -1.63316 0)
(0.694378 -1.70276 0)
(0.61359 -1.23855 0)
(0.418362 -0.748104 0)
(0.271072 -0.70591 0)
(0.182912 -0.764906 0)
(0.150817 -0.66822 0)
(0.074648 -0.485857 0)
(-0.0489671 -0.669267 0)
(-0.148783 -0.895233 0)
(-0.240277 -0.784876 0)
(-0.38919 -0.847884 0)
(-0.538681 -1.30088 0)
(-0.468947 -1.5362 0)
(-0.239145 -1.24697 0)
(0.0462578 -0.844715 0)
(0.200576 -0.728637 0)
(0.21507 -0.628778 0)
(0.164934 -0.577252 0)
(0.0960415 -0.550373 0)
(0.0183335 -0.565347 0)
(-0.0480352 -0.658776 0)
(-0.0800444 -0.806121 0)
(-0.0933 -1.00037 0)
(-0.0930092 -1.07927 0)
(-0.0730031 -1.00886 0)
(-0.0387937 -0.925439 0)
(0.0576068 -1.02666 0)
(0.263392 -1.20655 0)
(0.503138 -1.49204 0)
(0.626359 -1.65818 0)
(0.628899 -1.52616 0)
(0.449521 -0.981846 0)
(0.26897 -0.506893 0)
(0.156883 -0.53941 0)
(0.0749791 -0.657939 0)
(0.0507867 -0.68949 0)
(0.0235371 -0.419461 0)
(-0.0317289 -0.580344 0)
(-0.122199 -0.742842 0)
(-0.223801 -0.660067 0)
(-0.386506 -0.629273 0)
(-0.668823 -1.15066 0)
(-0.694547 -1.53294 0)
(-0.479741 -1.47602 0)
(-0.0842259 -1.26172 0)
(0.286649 -1.0402 0)
(0.389488 -0.812741 0)
(0.376153 -0.699785 0)
(0.311203 -0.678839 0)
(0.248442 -0.776577 0)
(0.212187 -0.950453 0)
(0.205716 -1.12391 0)
(0.177174 -1.13713 0)
(0.130975 -1.15438 0)
(0.102033 -1.12256 0)
(0.155616 -1.11008 0)
(0.282928 -1.17078 0)
(0.435088 -1.2849 0)
(0.530867 -1.44191 0)
(0.535308 -1.52734 0)
(0.430358 -1.30032 0)
(0.227504 -0.771 0)
(0.109432 -0.361054 0)
(0.0570702 -0.436042 0)
(0.00936317 -0.57907 0)
(-0.0205021 -0.617231 0)
(-0.0160064 -0.426307 0)
(-0.0262613 -0.488811 0)
(-0.0754162 -0.616293 0)
(-0.112924 -0.551993 0)
(-0.214902 -0.374674 0)
(-0.564919 -0.923253 0)
(-0.706786 -1.5348 0)
(-0.517626 -1.66563 0)
(-0.140549 -1.57461 0)
(0.324169 -1.21876 0)
(0.61929 -0.978022 0)
(0.730582 -0.850358 0)
(0.741071 -0.836346 0)
(0.704133 -0.871295 0)
(0.650475 -0.908254 0)
(0.560404 -0.934648 0)
(0.422013 -0.863817 0)
(0.314627 -0.879721 0)
(0.219582 -0.914594 0)
(0.205159 -0.999685 0)
(0.259798 -1.13168 0)
(0.342136 -1.28158 0)
(0.39974 -1.40519 0)
(0.40002 -1.39489 0)
(0.219654 -1.05188 0)
(0.0336735 -0.579563 0)
(-0.00698976 -0.313478 0)
(-0.00290607 -0.37493 0)
(-0.0241882 -0.510722 0)
(-0.0356142 -0.548257 0)
(-0.0165839 -0.422941 0)
(-0.0192584 -0.413392 0)
(-0.0421177 -0.55658 0)
(-0.0395988 -0.514646 0)
(-0.0665678 -0.283001 0)
(-0.330367 -0.699431 0)
(-0.586947 -1.48116 0)
(-0.447978 -1.79586 0)
(-0.159461 -1.76352 0)
(0.258799 -1.40698 0)
(0.543361 -0.98044 0)
(0.686397 -0.799429 0)
(0.719677 -0.728575 0)
(0.694107 -0.712773 0)
(0.634984 -0.716736 0)
(0.540957 -0.717432 0)
(0.433161 -0.703623 0)
(0.325055 -0.740172 0)
(0.208888 -0.779733 0)
(0.156668 -0.936215 0)
(0.166345 -1.13763 0)
(0.229885 -1.30751 0)
(0.281703 -1.38229 0)
(0.256279 -1.24368 0)
(0.0317473 -0.847194 0)
(-0.105373 -0.442894 0)
(-0.0938025 -0.311598 0)
(-0.0482174 -0.350215 0)
(-0.037975 -0.446471 0)
(-0.0397809 -0.501071 0)
(-0.0164171 -0.41069 0)
(-0.00841059 -0.35576 0)
(-0.0129475 -0.517972 0)
(0.00507436 -0.488688 0)
(0.0463274 -0.286258 0)
(-0.0673455 -0.507097 0)
(-0.431134 -1.40875 0)
(-0.387897 -1.88339 0)
(-0.180811 -1.92505 0)
(0.163278 -1.59702 0)
(0.427135 -1.0643 0)
(0.544374 -0.786747 0)
(0.551564 -0.663553 0)
(0.523839 -0.628668 0)
(0.46729 -0.606852 0)
(0.389979 -0.584961 0)
(0.309677 -0.559176 0)
(0.232353 -0.588519 0)
(0.166991 -0.694825 0)
(0.110685 -0.905152 0)
(0.0969108 -1.11623 0)
(0.166604 -1.32402 0)
(0.193424 -1.32198 0)
(0.0941777 -1.03429 0)
(-0.102331 -0.631894 0)
(-0.166219 -0.380145 0)
(-0.13387 -0.324657 0)
(-0.0785688 -0.354137 0)
(-0.0445053 -0.413234 0)
(-0.0384998 -0.460515 0)
(-0.0194218 -0.411506 0)
(0.00662943 -0.32068 0)
(0.0222325 -0.472291 0)
(0.0420305 -0.463608 0)
(0.114954 -0.332989 0)
(0.0761857 -0.345211 0)
(-0.250914 -1.26953 0)
(-0.37267 -1.89514 0)
(-0.212569 -2.00596 0)
(0.0639024 -1.72717 0)
(0.308199 -1.09031 0)
(0.379727 -0.721793 0)
(0.36296 -0.593079 0)
(0.3439 -0.553208 0)
(0.298211 -0.517325 0)
(0.25107 -0.497394 0)
(0.215974 -0.481158 0)
(0.190798 -0.498929 0)
(0.15748 -0.581124 0)
(0.0984676 -0.790519 0)
(0.0595287 -1.12933 0)
(0.113602 -1.30885 0)
(0.126571 -1.19071 0)
(-0.0473843 -0.844663 0)
(-0.183977 -0.510492 0)
(-0.196881 -0.382343 0)
(-0.14968 -0.367616 0)
(-0.0922404 -0.388925 0)
(-0.0526796 -0.421347 0)
(-0.0380928 -0.451193 0)
(-0.0182196 -0.431259 0)
(0.0175444 -0.315752 0)
(0.0522943 -0.43682 0)
(0.0814085 -0.441195 0)
(0.167565 -0.374457 0)
(0.192929 -0.300979 0)
(-0.051138 -0.974908 0)
(-0.351992 -1.79296 0)
(-0.265901 -2.00859 0)
(-0.0393912 -1.80924 0)
(0.188302 -1.14981 0)
(0.190356 -0.611224 0)
(0.16864 -0.517421 0)
(0.168045 -0.486427 0)
(0.156312 -0.454546 0)
(0.149221 -0.4417 0)
(0.150612 -0.440574 0)
(0.157524 -0.45424 0)
(0.15642 -0.514566 0)
(0.131095 -0.684637 0)
(0.0862731 -1.02768 0)
(0.0641446 -1.31746 0)
(0.00414541 -1.06807 0)
(-0.156577 -0.677081 0)
(-0.238867 -0.494912 0)
(-0.218482 -0.440804 0)
(-0.159313 -0.433994 0)
(-0.104507 -0.442957 0)
(-0.0647612 -0.457738 0)
(-0.0389217 -0.470841 0)
(-0.0146371 -0.462748 0)
(0.0225979 -0.339269 0)
(0.060701 -0.419358 0)
(0.10024 -0.442883 0)
(0.193071 -0.425942 0)
(0.273803 -0.358262 0)
(0.158168 -0.769253 0)
(-0.190227 -1.59326 0)
(-0.254528 -1.9286 0)
(-0.142369 -1.81634 0)
(-0.00589497 -1.14466 0)
(-0.000483813 -0.502107 0)
(0.00359962 -0.463801 0)
(0.0305053 -0.444085 0)
(0.051004 -0.421632 0)
(0.073087 -0.421168 0)
(0.0997104 -0.433911 0)
(0.12983 -0.452725 0)
(0.152684 -0.50009 0)
(0.149203 -0.633941 0)
(0.114956 -0.937032 0)
(0.0154031 -1.16756 0)
(-0.142352 -0.913379 0)
(-0.260096 -0.650862 0)
(-0.274763 -0.55364 0)
(-0.221776 -0.516837 0)
(-0.159727 -0.499888 0)
(-0.110134 -0.496708 0)
(-0.0710551 -0.499216 0)
(-0.0395401 -0.501229 0)
(-0.0126127 -0.496184 0)
(0.0154066 -0.37439 0)
(0.0400812 -0.427037 0)
(0.0804538 -0.483268 0)
(0.167846 -0.516052 0)
(0.292276 -0.505487 0)
(0.27334 -0.700411 0)
(0.0495239 -1.51312 0)
(-0.120225 -1.89172 0)
(-0.14498 -1.76903 0)
(-0.151836 -1.11392 0)
(-0.13528 -0.482133 0)
(-0.089273 -0.468969 0)
(-0.0378688 -0.452634 0)
(-0.00118302 -0.436184 0)
(0.0341131 -0.436696 0)
(0.0673494 -0.450664 0)
(0.101496 -0.47394 0)
(0.1326 -0.520083 0)
(0.139543 -0.636842 0)
(0.103179 -0.88887 0)
(-0.046926 -1.02173 0)
(-0.235921 -0.858578 0)
(-0.30133 -0.698198 0)
(-0.268156 -0.625739 0)
(-0.20455 -0.582342 0)
(-0.149696 -0.555436 0)
(-0.105402 -0.546615 0)
(-0.0679724 -0.538489 0)
(-0.035412 -0.527455 0)
(-0.00998595 -0.522533 0)
(-0.0036572 -0.394999 0)
(-0.016497 -0.452504 0)
(0.011858 -0.569356 0)
(0.114286 -0.657156 0)
(0.268585 -0.728544 0)
(0.351964 -0.930885 0)
(0.273341 -1.56973 0)
(0.0616281 -2.01765 0)
(-0.104798 -1.89306 0)
(-0.236944 -1.21055 0)
(-0.204963 -0.591982 0)
(-0.117737 -0.541691 0)
(-0.0451613 -0.512107 0)
(-0.00143878 -0.482157 0)
(0.0283526 -0.469312 0)
(0.0530082 -0.475779 0)
(0.0745398 -0.495812 0)
(0.091737 -0.540144 0)
(0.0911704 -0.645802 0)
(0.038059 -0.845299 0)
(-0.107501 -0.921448 0)
(-0.249366 -0.836832 0)
(-0.272692 -0.752821 0)
(-0.227926 -0.682094 0)
(-0.177952 -0.624568 0)
(-0.136596 -0.594876 0)
(-0.0926485 -0.590173 0)
(-0.0437001 -0.576373 0)
(-0.0190575 -0.535379 0)
(-0.00914345 -0.531506 0)
(-0.0394682 -0.397886 0)
(-0.0755377 -0.50446 0)
(-0.0324294 -0.750879 0)
(0.0700568 -0.872601 0)
(0.225495 -0.982928 0)
(0.477836 -1.34583 0)
(0.517737 -1.86849 0)
(0.244771 -2.22175 0)
(-0.0695045 -2.07309 0)
(-0.241587 -1.53001 0)
(-0.20338 -0.883338 0)
(-0.0919237 -0.676154 0)
(-0.00451253 -0.577352 0)
(0.0311395 -0.530684 0)
(0.0399093 -0.50422 0)
(0.0470991 -0.500828 0)
(0.0511645 -0.509351 0)
(0.0472086 -0.540871 0)
(0.0224328 -0.618542 0)
(-0.0549229 -0.765395 0)
(-0.168452 -0.831572 0)
(-0.240595 -0.881016 0)
(-0.214831 -0.873659 0)
(-0.147238 -0.807562 0)
(-0.103918 -0.751715 0)
(-0.0764289 -0.74389 0)
(-0.0490733 -0.774278 0)
(-0.0196701 -0.77235 0)
(-0.00719593 -0.677036 0)
(-0.00500634 -0.683095 0)
(-0.059423 -0.467361 0)
(-0.110052 -0.680437 0)
(-0.0323933 -1.2531 0)
(0.115171 -1.42585 0)
(0.260433 -1.51401 0)
(0.423708 -1.7515 0)
(0.410483 -1.99314 0)
(0.181851 -2.27615 0)
(-0.159392 -2.1892 0)
(-0.34547 -1.83422 0)
(-0.242972 -1.32433 0)
(-0.0849074 -0.926754 0)
(-0.0061754 -0.708992 0)
(0.0444548 -0.567645 0)
(0.058111 -0.514791 0)
(0.0502588 -0.523565 0)
(0.0394386 -0.520052 0)
(0.0154989 -0.529056 0)
(-0.0303013 -0.558215 0)
(-0.128906 -0.645266 0)
(-0.243476 -0.780819 0)
(-0.270869 -1.01292 0)
(-0.194594 -1.10494 0)
(-0.0937621 -1.12805 0)
(0.00341591 -1.14281 0)
(0.0893686 -1.19294 0)
(0.128033 -1.21712 0)
(0.0951933 -1.17128 0)
(0.0493944 -1.05804 0)
(0.0195391 -1.05801 0)
(-0.0456796 -0.668867 0)
(-0.0642172 -1.09011 0)
(0.0145864 -1.30776 0)
(0.0555867 -1.38841 0)
(0.0784072 -1.4921 0)
(0.0829304 -1.65073 0)
(0.00788852 -1.92062 0)
(-0.184971 -2.09756 0)
(-0.45931 -2.08357 0)
(-0.652849 -1.96692 0)
(-0.637417 -1.80844 0)
(-0.446665 -1.57015 0)
(-0.22278 -1.2352 0)
(-0.0846229 -0.794281 0)
(-0.0250073 -0.591683 0)
(0.0253925 -0.542856 0)
(0.0451878 -0.537859 0)
(0.0198744 -0.51773 0)
(-0.0350262 -0.476304 0)
(-0.144893 -0.510936 0)
(-0.240469 -0.853145 0)
(-0.221677 -1.35006 0)
(-0.0464881 -1.4628 0)
(0.114097 -1.42962 0)
(0.267016 -1.35708 0)
(0.361428 -1.28553 0)
(0.349659 -1.17611 0)
(0.2526 -1.07037 0)
(0.149626 -1.01949 0)
(0.0547477 -0.999396 0)
(-0.00968127 -0.673567 0)
(-0.0135152 -0.978384 0)
(-0.0110402 -1.19766 0)
(-0.0306852 -1.2681 0)
(-0.0606491 -1.33765 0)
(-0.135765 -1.4268 0)
(-0.274858 -1.54767 0)
(-0.467349 -1.64975 0)
(-0.669954 -1.67375 0)
(-0.830718 -1.63389 0)
(-0.928262 -1.59566 0)
(-0.978732 -1.59634 0)
(-0.959295 -1.65366 0)
(-0.705576 -1.50627 0)
(-0.364985 -1.07305 0)
(-0.14761 -0.718287 0)
(-0.0171455 -0.601627 0)
(0.0685748 -0.50313 0)
(0.0651421 -0.406954 0)
(-0.0335068 -0.51887 0)
(-0.0808227 -1.12697 0)
(0.0710468 -1.41787 0)
(0.161288 -1.40817 0)
(0.226704 -1.36131 0)
(0.301076 -1.28518 0)
(0.342122 -1.16119 0)
(0.321881 -0.99322 0)
(0.249717 -0.841628 0)
(0.151873 -0.768651 0)
(0.051203 -0.752803 0)
(-0.0182265 -0.570866 0)
(-0.0505401 -0.968815 0)
(-0.0640771 -1.11909 0)
(-0.0981077 -1.20088 0)
(-0.157863 -1.24263 0)
(-0.259266 -1.27679 0)
(-0.389164 -1.33018 0)
(-0.541485 -1.36936 0)
(-0.714123 -1.38732 0)
(-0.867872 -1.384 0)
(-1.00281 -1.3761 0)
(-1.14135 -1.36226 0)
(-1.34698 -1.5299 0)
(-1.38724 -1.70175 0)
(-1.14363 -1.71465 0)
(-0.651389 -1.36939 0)
(-0.230422 -0.962836 0)
(0.122166 -0.635509 0)
(0.229194 -0.518524 0)
(0.206829 -0.799895 0)
(0.255589 -1.18223 0)
(0.248266 -1.33812 0)
(0.2075 -1.36147 0)
(0.20159 -1.3448 0)
(0.212253 -1.27537 0)
(0.224048 -1.13549 0)
(0.229146 -0.948171 0)
(0.196209 -0.753711 0)
(0.127799 -0.657977 0)
(0.0451781 -0.632095 0)
(-0.00647074 -0.516168 0)
(-0.044308 -0.867644 0)
(-0.109835 -1.08806 0)
(-0.155246 -1.07978 0)
(-0.220789 -1.09972 0)
(-0.307121 -1.10957 0)
(-0.440821 -1.20632 0)
(-0.584125 -1.22866 0)
(-0.750522 -1.24709 0)
(-0.844523 -1.17735 0)
(-1.01615 -1.2163 0)
(-1.18103 -1.19239 0)
(-1.37961 -1.33839 0)
(-1.51787 -1.62915 0)
(-1.4241 -1.86308 0)
(-1.06378 -1.8718 0)
(-0.55155 -1.57603 0)
(0.0479407 -1.27825 0)
(0.423911 -0.876657 0)
(0.515475 -0.887252 0)
(0.440481 -1.04638 0)
(0.298297 -1.20339 0)
(0.196442 -1.27786 0)
(0.141613 -1.28668 0)
(0.113168 -1.24227 0)
(0.112488 -1.12658 0)
(0.138442 -0.950294 0)
(0.141661 -0.717251 0)
(0.104525 -0.587488 0)
(0.0401228 -0.530056 0)
(-0.00175033 -0.465098 0)
(-0.0253659 -0.772948 0)
(-0.100799 -0.948847 0)
(-0.181464 -1.02017 0)
(-0.25144 -1.02319 0)
(-0.325378 -1.00812 0)
(-0.429756 -1.01527 0)
(-0.557361 -1.03276 0)
(-0.698114 -1.061 0)
(-0.80638 -1.04871 0)
(-0.913788 -1.00677 0)
(-1.07937 -0.988742 0)
(-1.27322 -1.17718 0)
(-1.40662 -1.55606 0)
(-1.34238 -1.92831 0)
(-1.08774 -2.16723 0)
(-0.710477 -2.05044 0)
(-0.126884 -1.7585 0)
(0.379818 -1.14053 0)
(0.527038 -0.827693 0)
(0.438564 -0.86146 0)
(0.29808 -1.03275 0)
(0.177977 -1.16057 0)
(0.0967298 -1.19989 0)
(0.0441214 -1.18489 0)
(0.0224181 -1.10208 0)
(0.0422286 -0.960089 0)
(0.0698178 -0.711919 0)
(0.0746762 -0.556831 0)
(0.0351225 -0.437959 0)
(0.0030582 -0.431033 0)
(-0.00519635 -0.693329 0)
(-0.0590967 -0.818571 0)
(-0.136979 -0.883444 0)
(-0.210485 -0.879826 0)
(-0.296211 -0.859699 0)
(-0.399449 -0.851451 0)
(-0.510477 -0.869731 0)
(-0.61928 -0.903184 0)
(-0.714729 -0.900003 0)
(-0.814076 -0.844866 0)
(-0.96484 -0.82943 0)
(-1.13055 -1.04809 0)
(-1.21342 -1.49582 0)
(-1.08037 -1.96109 0)
(-0.869393 -2.29708 0)
(-0.670325 -2.30803 0)
(-0.33737 -2.10225 0)
(0.156628 -1.54371 0)
(0.420119 -0.842067 0)
(0.405925 -0.729792 0)
(0.304757 -0.865214 0)
(0.183653 -1.02005 0)
(0.0790013 -1.08675 0)
(0.00307313 -1.09752 0)
(-0.0422384 -1.04906 0)
(-0.0479311 -0.95417 0)
(-0.0161691 -0.740811 0)
(0.040702 -0.582473 0)
(0.0359442 -0.363747 0)
(0.00615653 -0.407359 0)
(0.00830216 -0.634066 0)
(-0.0244944 -0.722571 0)
(-0.0843623 -0.767989 0)
(-0.157519 -0.75043 0)
(-0.241591 -0.722677 0)
(-0.33065 -0.705378 0)
(-0.429217 -0.72091 0)
(-0.525855 -0.755896 0)
(-0.615862 -0.76131 0)
(-0.714079 -0.708491 0)
(-0.850015 -0.709161 0)
(-0.990272 -0.957346 0)
(-1.02121 -1.51063 0)
(-0.810509 -2.04891 0)
(-0.646473 -2.3643 0)
(-0.591793 -2.42699 0)
(-0.479591 -2.30182 0)
(-0.088229 -1.79559 0)
(0.252569 -0.979425 0)
(0.368563 -0.674016 0)
(0.313299 -0.722785 0)
(0.210201 -0.859899 0)
(0.0939259 -0.949913 0)
(-0.00352408 -0.983106 0)
(-0.0686139 -0.971269 0)
(-0.0973643 -0.907165 0)
(-0.0866716 -0.763653 0)
(-0.00514826 -0.670283 0)
(0.025847 -0.306599 0)
(0.00632636 -0.386401 0)
(0.014356 -0.589971 0)
(-0.00189979 -0.64536 0)
(-0.0448334 -0.667996 0)
(-0.10561 -0.635331 0)
(-0.178067 -0.593453 0)
(-0.256394 -0.569751 0)
(-0.33625 -0.586007 0)
(-0.416896 -0.621064 0)
(-0.501473 -0.62395 0)
(-0.599293 -0.581869 0)
(-0.732593 -0.613907 0)
(-0.847168 -0.907552 0)
(-0.795969 -1.5261 0)
(-0.594559 -2.16378 0)
(-0.498938 -2.43492 0)
(-0.533479 -2.46622 0)
(-0.537962 -2.40071 0)
(-0.344509 -2.02198 0)
(0.0635934 -1.33951 0)
(0.29801 -0.694514 0)
(0.312556 -0.627157 0)
(0.239072 -0.710931 0)
(0.134177 -0.797844 0)
(0.0238389 -0.848577 0)
(-0.0606022 -0.872942 0)
(-0.0998943 -0.842752 0)
(-0.0934463 -0.756136 0)
(-0.0366586 -0.752299 0)
(0.0045203 -0.287464 0)
(0.0079678 -0.370963 0)
(0.0203207 -0.555877 0)
(0.0114009 -0.581841 0)
(-0.0221055 -0.575664 0)
(-0.0739657 -0.5274 0)
(-0.131276 -0.481949 0)
(-0.185077 -0.458088 0)
(-0.241979 -0.466418 0)
(-0.308705 -0.496951 0)
(-0.387462 -0.498952 0)
(-0.4787 -0.468703 0)
(-0.590203 -0.511099 0)
(-0.701882 -0.886061 0)
(-0.633976 -1.58577 0)
(-0.489581 -2.1946 0)
(-0.450713 -2.47887 0)
(-0.514047 -2.51155 0)
(-0.548048 -2.43599 0)
(-0.487118 -2.19093 0)
(-0.137701 -1.55292 0)
(0.183658 -0.850775 0)
(0.298616 -0.590749 0)
(0.254611 -0.599551 0)
(0.175003 -0.651046 0)
(0.0703191 -0.702205 0)
(-0.028069 -0.758843 0)
(-0.0755402 -0.778918 0)
(-0.065755 -0.739614 0)
(-0.0350468 -0.758967 0)
(-0.00655012 -0.31098 0)
(0.00860542 -0.357277 0)
(0.0202323 -0.523417 0)
(0.0115154 -0.52475 0)
(-0.0188915 -0.492806 0)
(-0.0621075 -0.437236 0)
(-0.102888 -0.397316 0)
(-0.136079 -0.380665 0)
(-0.170518 -0.382382 0)
(-0.219573 -0.396168 0)
(-0.288532 -0.394829 0)
(-0.366224 -0.375448 0)
(-0.437124 -0.408085 0)
(-0.539161 -0.835792 0)
(-0.504364 -1.54686 0)
(-0.484672 -2.14483 0)
(-0.482612 -2.42459 0)
(-0.513737 -2.53496 0)
(-0.549351 -2.48599 0)
(-0.515636 -2.2928 0)
(-0.315305 -1.81502 0)
(0.0486011 -1.16877 0)
(0.224634 -0.583489 0)
(0.246358 -0.526097 0)
(0.195995 -0.536111 0)
(0.112791 -0.561815 0)
(0.0142867 -0.639718 0)
(-0.0423619 -0.71419 0)
(-0.0404286 -0.719796 0)
(-0.0225409 -0.743266 0)
(-0.00474934 -0.338416 0)
(0.00975811 -0.351228 0)
(0.0174896 -0.487145 0)
(0.000698928 -0.467374 0)
(-0.0326203 -0.418874 0)
(-0.0668692 -0.373727 0)
(-0.0911616 -0.347041 0)
(-0.109681 -0.335269 0)
(-0.129387 -0.331176 0)
(-0.160199 -0.326764 0)
(-0.20847 -0.309643 0)
(-0.26311 -0.289678 0)
(-0.306956 -0.33307 0)
(-0.392798 -0.771809 0)
(-0.413073 -1.43869 0)
(-0.494455 -2.01511 0)
(-0.543892 -2.3301 0)
(-0.549789 -2.49623 0)
(-0.527506 -2.52409 0)
(-0.476665 -2.36215 0)
(-0.375029 -2.00457 0)
(-0.0945254 -1.35525 0)
(0.12568 -0.710142 0)
(0.219921 -0.49118 0)
(0.212522 -0.462756 0)
(0.14534 -0.443598 0)
(0.0569204 -0.52187 0)
(-0.00668247 -0.638447 0)
(-0.0222297 -0.683163 0)
(-0.0114588 -0.703829 0)
(0.000976917 -0.347605 0)
(0.0104574 -0.354137 0)
(0.0116446 -0.446282 0)
(-0.0160611 -0.4111 0)
(-0.0492567 -0.363544 0)
(-0.073589 -0.333438 0)
(-0.0852047 -0.318776 0)
(-0.0921539 -0.308699 0)
(-0.101131 -0.298287 0)
(-0.115451 -0.282164 0)
(-0.134955 -0.252823 0)
(-0.156846 -0.222392 0)
(-0.180782 -0.255098 0)
(-0.260446 -0.673738 0)
(-0.33414 -1.26682 0)
(-0.471754 -1.82763 0)
(-0.549756 -2.21601 0)
(-0.540659 -2.45497 0)
(-0.476489 -2.54472 0)
(-0.410983 -2.39822 0)
(-0.356798 -2.08991 0)
(-0.217167 -1.53454 0)
(0.00858329 -0.883531 0)
(0.168871 -0.518044 0)
(0.225624 -0.399221 0)
(0.172221 -0.33901 0)
(0.0886801 -0.409092 0)
(0.0239287 -0.544782 0)
(-0.0132127 -0.616069 0)
(-0.00851716 -0.643095 0)
(0.00764082 -0.330551 0)
(0.00794159 -0.363146 0)
(0.000185526 -0.40299 0)
(-0.0339643 -0.360751 0)
(-0.0604811 -0.326836 0)
(-0.0710051 -0.308998 0)
(-0.0732 -0.298889 0)
(-0.0736024 -0.289366 0)
(-0.0743655 -0.276307 0)
(-0.0766908 -0.255339 0)
(-0.0784305 -0.225226 0)
(-0.0753184 -0.192236 0)
(-0.0747375 -0.200664 0)
(-0.132772 -0.530869 0)
(-0.243194 -1.04915 0)
(-0.387111 -1.5929 0)
(-0.467092 -2.0789 0)
(-0.428767 -2.39717 0)
(-0.341295 -2.53134 0)
(-0.29378 -2.40101 0)
(-0.271412 -2.10241 0)
(-0.211416 -1.63873 0)
(-0.0225506 -1.03022 0)
(0.186256 -0.657628 0)
(0.26583 -0.375613 0)
(0.172117 -0.23203 0)
(0.0908124 -0.311764 0)
(0.0356069 -0.442503 0)
(-0.00586833 -0.519729 0)
(-0.00616041 -0.570223 0)
(0.00993148 -0.282357 0)
(0.00120313 -0.372402 0)
(-0.0161198 -0.360797 0)
(-0.0462584 -0.321303 0)
(-0.0612584 -0.30017 0)
(-0.0632423 -0.292502 0)
(-0.0592983 -0.285858 0)
(-0.0537286 -0.276895 0)
(-0.047629 -0.264371 0)
(-0.041676 -0.242427 0)
(-0.0340221 -0.214991 0)
(-0.0198024 -0.183846 0)
(-0.00782486 -0.180295 0)
(-0.0426876 -0.42168 0)
(-0.143379 -0.886186 0)
(-0.25336 -1.37111 0)
(-0.289949 -1.95197 0)
(-0.221343 -2.34308 0)
(-0.141695 -2.46818 0)
(-0.11724 -2.34875 0)
(-0.105489 -2.06969 0)
(-0.0801423 -1.68687 0)
(0.0596742 -1.1753 0)
(0.25706 -0.698398 0)
(0.279452 -0.344467 0)
(0.105463 -0.130394 0)
(0.0522841 -0.2411 0)
(0.0228778 -0.358447 0)
(0.00821898 -0.434717 0)
(-0.00464332 -0.489684 0)
(-0.00266265 -0.229346 0)
(-0.00863699 -0.372444 0)
(-0.0318431 -0.32204 0)
(-0.0527633 -0.290382 0)
(-0.0612833 -0.283424 0)
(-0.0588346 -0.290088 0)
(-0.0466551 -0.28602 0)
(-0.0331439 -0.272027 0)
(-0.0214353 -0.260445 0)
(-0.0103285 -0.240799 0)
(0.00334827 -0.216835 0)
(0.0249329 -0.188791 0)
(0.0454845 -0.18159 0)
(0.0371107 -0.332593 0)
(-0.0331561 -0.702606 0)
(-0.103748 -1.20584 0)
(-0.0830004 -1.83762 0)
(0.0342669 -2.29783 0)
(0.0846596 -2.39065 0)
(0.0822827 -2.26562 0)
(0.0975187 -2.01769 0)
(0.118317 -1.7019 0)
(0.198313 -1.27861 0)
(0.384368 -0.791023 0)
(0.194229 -0.250941 0)
(0.0126736 -0.088184 0)
(0.00345088 -0.200956 0)
(0.002416 -0.305511 0)
(0.00908039 -0.36927 0)
(-0.0103016 -0.368254 0)
(-0.0141538 -0.200221 0)
(-0.018541 -0.360908 0)
(-0.0448714 -0.289123 0)
(-0.0597255 -0.26724 0)
(-0.0731424 -0.282254 0)
(-0.065447 -0.319998 0)
(-0.0323813 -0.315056 0)
(-0.00731212 -0.273161 0)
(0.00503497 -0.258905 0)
(0.0164441 -0.246231 0)
(0.0337888 -0.229077 0)
(0.0629705 -0.206038 0)
(0.0940836 -0.194013 0)
(0.106127 -0.273135 0)
(0.0747598 -0.566655 0)
(0.0743811 -1.13071 0)
(0.18656 -1.80105 0)
(0.312929 -2.23003 0)
(0.3459 -2.27686 0)
(0.32948 -2.13363 0)
(0.305828 -1.92601 0)
(0.300919 -1.65916 0)
(0.357135 -1.29525 0)
(0.429548 -0.791865 0)
(0.0455805 -0.161305 0)
(-0.0543523 -0.0922744 0)
(-0.0335414 -0.178496 0)
(-0.0160075 -0.26643 0)
(-0.00867338 -0.31069 0)
(-0.0177683 -0.277556 0)
(-0.0132983 -0.183274 0)
(-0.0247191 -0.332034 0)
(-0.0569812 -0.258259 0)
(-0.0807617 -0.250225 0)
(-0.116244 -0.292619 0)
(-0.0913369 -0.372561 0)
(0.0016935 -0.370448 0)
(0.0404325 -0.266464 0)
(0.0325106 -0.252999 0)
(0.0360902 -0.252222 0)
(0.0550858 -0.248111 0)
(0.0920864 -0.234378 0)
(0.134372 -0.219796 0)
(0.162253 -0.246369 0)
(0.168266 -0.475911 0)
(0.247744 -1.08528 0)
(0.412285 -1.81828 0)
(0.57962 -2.0822 0)
(0.562071 -2.04264 0)
(0.496721 -1.88937 0)
(0.460315 -1.74843 0)
(0.437985 -1.52914 0)
(0.445913 -1.19129 0)
(0.364109 -0.67028 0)
(-0.0280127 -0.123444 0)
(-0.0871708 -0.107472 0)
(-0.0516883 -0.153247 0)
(-0.0319008 -0.21686 0)
(-0.0222899 -0.252273 0)
(-0.020665 -0.216869 0)
(-0.0108477 -0.170611 0)
(-0.0315177 -0.252021 0)
(-0.0784351 -0.207523 0)
(-0.119635 -0.228207 0)
(-0.131155 -0.330897 0)
(-0.100161 -0.536762 0)