/*--------------------------------*- C++ -*----------------------------------*\
| =========                 |                                                 |
| \\      /  F ield         | OpenFOAM: The Open Source CFD Toolbox           |
|  \\    /   O peration     | Version:  v1606+                                |
|   \\  /    A nd           | Web:      www.OpenFOAM.com                      |
|    \\/     M anipulation  |                                                 |
\*---------------------------------------------------------------------------*/
FoamFile
{
    version     2.0;
    format      ascii;
    class       volScalarField;
    location    "1.63";
    object      alpha.particles;
}
// * * * * * * * * * * * * * * * * * * * * * * * * * * * * * * * * * * * * * //

dimensions      [0 0 0 0 0 0 0];

internalField   nonuniform List<scalar> 
6000
(
0.397456
0.432947
0.432949
0.432957
0.432986
0.432995
0.432996
0.432996
0.432996
0.432994
0.424149
0.404151
0.396262
0.394352
0.395341
0.397924
0.40295
0.434382
0.434688
0.434689
0.43469
0.434691
0.434692
0.434692
0.427557
0.41171
0.376117
0.366468
0.367464
0.361976
0.344418
0.349312
0.373217
0.392291
0.408794
0.423075
0.430831
0.432964
0.427737
0.408717
0.394347
0.394394
0.394339
0.394393
0.394339
0.394394
0.394346
0.394459
0.419582
0.431807
0.424572
0.41495
0.393755
0.374442
0.3619
0.361918
0.361895
0.361917
0.361991
0.36172
0.344417
0.351889
0.366295
0.364859
0.379106
0.403498
0.431917
0.451405
0.46113
0.461098
0.441706
0.431959
0.42681
0.431445
0.43762
0.429675
0.42353
0.444636
0.466601
0.459252
0.42829
0.409067
0.393949
0.382207
0.374036
0.371739
0.366772
0.362893
0.361755
0.361724
0.346687
0.353771
0.356985
0.35716
0.357245
0.366114
0.386939
0.410012
0.456748
0.473606
0.473726
0.461178
0.455091
0.459719
0.46695
0.459825
0.454046
0.477661
0.480605
0.459242
0.415771
0.409408
0.416377
0.422696
0.421896
0.419123
0.409529
0.38495
0.373512
0.382316
0.4113
0.403665
0.394137
0.377947
0.36907
0.369421
0.368082
0.367975
0.396514
0.454231
0.480415
0.48037
0.48031
0.480593
0.480545
0.479958
0.477381
0.480707
0.480513
0.431442
0.386908
0.421623
0.466944
0.48538
0.497636
0.499344
0.495058
0.465523
0.436508
0.44811
0.494052
0.480527
0.469464
0.447921
0.424089
0.417126
0.4003
0.362304
0.33241
0.363558
0.425545
0.480481
0.480807
0.48058
0.48089
0.480564
0.480841
0.480552
0.464925
0.361136
0.342146
0.419269
0.483798
0.483766
0.489965
0.499348
0.49935
0.499347
0.499349
0.499348
0.513253
0.513253
0.51325
0.506741
0.477958
0.476184
0.449517
0.368202
0.289588
0.271105
0.30597
0.390141
0.480582
0.480917
0.480604
0.48089
0.480593
0.480859
0.381916
0.295089
0.304284
0.397158
0.446329
0.399327
0.379532
0.414547
0.453646
0.49022
0.497438
0.499343
0.51325
0.513247
0.49056
0.404642
0.396379
0.437105
0.445166
0.365278
0.262444
0.222315
0.228914
0.269054
0.370852
0.473458
0.48099
0.480602
0.480978
0.424895
0.305349
0.26393
0.283727
0.353355
0.360389
0.313726
0.306195
0.308909
0.32869
0.337416
0.338382
0.350914
0.447824
0.406158
0.330786
0.299244
0.29939
0.334915
0.381635
0.332571
0.244636
0.207594
0.204605
0.2143
0.250648
0.331628
0.410065
0.408382
0.369768
0.302887
0.266135
0.253457
0.273659
0.319325
0.322454
0.306195
0.306195
0.320475
0.326467
0.292159
0.265222
0.265222
0.308066
0.299411
0.299315
0.29938
0.299318
0.300954
0.33979
0.306673
0.238563
0.205521
0.199447
0.197205
0.198372
0.216578
0.243971
0.241656
0.222958
0.214928
0.230446
0.245073
0.267835
0.313689
0.331617
0.323893
0.338633
0.373725
0.385618
0.35356
0.270611
0.265221
0.308829
0.299384
0.299408
0.299318
0.299409
0.321106
0.363167
0.325527
0.253463
0.213184
0.198968
0.188795
0.184467
0.18471
0.186053
0.184873
0.183943
0.183797
0.196364
0.2258
0.257156
0.311392
0.351499
0.363565
0.386352
0.420476
0.43401
0.437935
0.361068
0.265222
0.362502
0.324209
0.317746
0.317069
0.336375
0.37849
0.407163
0.369749
0.295637
0.239237
0.203967
0.185382
0.184398
0.184252
0.184109
0.183973
0.18387
0.183902
0.183724
0.197498
0.236168
0.30474
0.38273
0.421582
0.434917
0.459799
0.475265
0.490647
0.470559
0.343053
0.425627
0.390807
0.39663
0.397691
0.422747
0.452896
0.467875
0.441714
0.367419
0.287313
0.222754
0.187792
0.184392
0.184298
0.184156
0.184043
0.183951
0.183819
0.18379
0.183899
0.211427
0.287233
0.40937
0.48186
0.48028
0.495775
0.509025
0.522831
0.522665
0.470686
0.498829
0.481782
0.491998
0.496309
0.509516
0.517423
0.518512
0.508536
0.461676
0.36202
0.262904
0.201229
0.186003
0.186978
0.187579
0.185488
0.183952
0.183861
0.183868
0.183885
0.194267
0.263574
0.412675
0.512577
0.51069
0.518841
0.528768
0.536346
0.536371
0.536337
0.543795
0.541435
0.545351
0.547276
0.549104
0.548798
0.546347
0.54117
0.525267
0.457331
0.336444
0.240292
0.20754
0.207724
0.208402
0.201608
0.190941
0.183969
0.183885
0.183981
0.186738
0.248319
0.408611
0.522389
0.526
0.531107
0.534517
0.536389
0.51893
0.488602
0.557973
0.556988
0.557384
0.557909
0.558231
0.558075
0.556829
0.554
0.549569
0.525749
0.435366
0.321858
0.266507
0.262252
0.26413
0.250371
0.226802
0.206207
0.195554
0.191877
0.198091
0.260717
0.423786
0.528253
0.534587
0.536362
0.536392
0.536338
0.414837
0.363358
0.559957
0.559951
0.559949
0.559937
0.559934
0.559926
0.55991
0.557594
0.556062
0.553271
0.519097
0.427911
0.362746
0.352672
0.367442
0.353331
0.320442
0.284222
0.253371
0.241258
0.254213
0.326006
0.465535
0.536234
0.536367
0.53639
0.53633
0.459252
0.343551
0.342827
0.559963
0.559963
0.559961
0.559958
0.559927
0.559914
0.559877
0.555709
0.554013
0.553933
0.552699
0.514256
0.464487
0.460458
0.485462
0.47734
0.43961
0.38398
0.33789
0.324206
0.346049
0.42594
0.520512
0.536339
0.536366
0.536326
0.479171
0.35828
0.342856
0.342843
0.559963
0.55995
0.559952
0.559923
0.55426
0.550374
0.548289
0.546792
0.54412
0.549006
0.552738
0.547115
0.526146
0.526276
0.514749
0.478829
0.435591
0.391122
0.368347
0.369253
0.392417
0.440668
0.468589
0.47339
0.481839
0.449817
0.38495
0.356517
0.342871
0.342856
0.559894
0.55296
0.555078
0.556011
0.499653
0.448616
0.474544
0.518755
0.529617
0.534911
0.5469
0.547079
0.529344
0.448685
0.38446
0.33756
0.308316
0.300341
0.302138
0.308962
0.317505
0.318227
0.28462
0.299181
0.335731
0.377203
0.399809
0.391956
0.367457
0.37309
0.511312
0.446803
0.504737
0.458902
0.344216
0.259754
0.264731
0.35816
0.46896
0.529692
0.54131
0.542814
0.426614
0.29157
0.235629
0.201691
0.180183
0.173217
0.17629
0.177724
0.173944
0.167091
0.181987
0.240746
0.325888
0.402991
0.440326
0.437437
0.420507
0.426096
0.442537
0.401009
0.419888
0.379192
0.280812
0.175724
0.129263
0.137294
0.22925
0.39087
0.461268
0.432829
0.323417
0.252035
0.215039
0.184819
0.155648
0.132584
0.120525
0.114707
0.11509
0.13208
0.188807
0.273653
0.370609
0.443484
0.472448
0.474997
0.469267
0.471251
0.44623
0.401003
0.4133
0.415807
0.353079
0.216715
0.11304
0.0809918
0.0811862
0.157969
0.268555
0.313774
0.306154
0.275386
0.240875
0.20694
0.171883
0.140593
0.120415
0.114472
0.114962
0.152335
0.240707
0.349347
0.440247
0.48625
0.498751
0.500817
0.498961
0.499942
0.489844
0.447286
0.460549
0.467298
0.442893
0.33726
0.171316
0.0809458
0.0775423
0.0864803
0.159447
0.261193
0.310131
0.310411
0.287441
0.251305
0.208867
0.167287
0.136735
0.124474
0.139506
0.213327
0.333476
0.443566
0.50006
0.514072
0.516804
0.516821
0.514846
0.516892
0.523962
0.504527
0.505478
0.506597
0.500745
0.451523
0.3104
0.126747
0.0775579
0.0881295
0.13956
0.237751
0.316027
0.337031
0.326319
0.296706
0.251991
0.204906
0.172034
0.162193
0.202363
0.317084
0.44333
0.509233
0.524392
0.528311
0.529292
0.528251
0.526028
0.528658
0.540556
0.534378
0.533051
0.532986
0.530776
0.516121
0.435992
0.245175
0.109382
0.114025
0.15063
0.231932
0.318314
0.355783
0.354473
0.332977
0.290367
0.245959
0.222164
0.233326
0.314769
0.441013
0.513726
0.530965
0.536029
0.538604
0.539335
0.538406
0.536733
0.538977
0.545809
0.544914
0.545369
0.54551
0.544674
0.539879
0.50736
0.379073
0.206279
0.176131
0.196101
0.250731
0.330643
0.381137
0.384074
0.362539
0.323498
0.29511
0.297376
0.351294
0.449441
0.516271
0.536373
0.542244
0.545703
0.547806
0.54868
0.54844
0.547872
0.549405
0.546582
0.546984
0.546986
0.546985
0.546982
0.546969
0.540574
0.482792
0.344117
0.273344
0.284618
0.313809
0.372367
0.421745
0.421185
0.391649
0.365766
0.372957
0.415074
0.477384
0.523859
0.541847
0.547892
0.551592
0.554319
0.556137
0.557253
0.557795
0.558242
0.559351
0.546671
0.546989
0.546988
0.546969
0.546914
0.546914
0.546898
0.540451
0.456344
0.391198
0.398458
0.410815
0.441048
0.47216
0.462245
0.437727
0.441722
0.47691
0.516222
0.540147
0.550131
0.553989
0.556693
0.559187
0.561247
0.562894
0.564165
0.5652
0.56605
0.566993
0.54674
0.546982
0.546901
0.521053
0.449924
0.461202
0.488777
0.518227
0.51269
0.491559
0.493214
0.496201
0.505308
0.5126
0.503797
0.503073
0.520608
0.543892
0.556532
0.560325
0.561533
0.562265
0.563249
0.564533
0.565848
0.567303
0.568788
0.569934
0.570551
0.571078
0.546687
0.539886
0.448644
0.351506
0.299922
0.302422
0.323489
0.37542
0.487187
0.53437
0.534324
0.532818
0.535825
0.52902
0.527211
0.544856
0.557566
0.56321
0.565249
0.567
0.567791
0.567641
0.567292
0.567168
0.567526
0.568671
0.571037
0.571477
0.571484
0.571488
0.464772
0.390025
0.312797
0.26974
0.264747
0.262018
0.262019
0.268956
0.344572
0.463569
0.532522
0.536667
0.536693
0.52706
0.539103
0.558389
0.562984
0.563089
0.564632
0.568354
0.569991
0.569861
0.568776
0.566866
0.565699
0.565907
0.570355
0.571432
0.571443
0.571489
0.367524
0.313451
0.309273
0.300508
0.29842
0.291887
0.28249
0.27517
0.279446
0.323314
0.418601
0.511546
0.536648
0.527106
0.550194
0.560426
0.560497
0.557584
0.556995
0.564628
0.569985
0.570008
0.568687
0.564597
0.558935
0.554272
0.561362
0.561708
0.560532
0.571394
0.371524
0.325092
0.352337
0.352022
0.352949
0.345956
0.331112
0.31164
0.296605
0.298037
0.314621
0.388307
0.476591
0.531892
0.55925
0.559409
0.552259
0.543022
0.540345
0.548159
0.569894
0.570003
0.568411
0.562579
0.552057
0.542733
0.534925
0.423675
0.472385
0.556686
0.389059
0.329147
0.397142
0.402489
0.408499
0.40274
0.38657
0.362103
0.33735
0.320212
0.31704
0.337977
0.418831
0.542264
0.558578
0.551015
0.536628
0.524382
0.520747
0.528107
0.561519
0.569927
0.567656
0.562715
0.550914
0.547413
0.415797
0.291415
0.32081
0.473988
0.39892
0.329558
0.432072
0.450064
0.461177
0.457583
0.439852
0.40863
0.381111
0.365974
0.355962
0.364698
0.430716
0.5462
0.546915
0.531918
0.50431
0.468722
0.4439
0.463196
0.516682
0.563455
0.562915
0.561466
0.555017
0.544344
0.322369
0.272807
0.272678
0.370203
0.420435
0.329792
0.445047
0.485262
0.501277
0.502007
0.487503
0.45375
0.419764
0.419648
0.416352
0.402792
0.409848
0.456639
0.46372
0.436057
0.367823
0.283408
0.242721
0.281411
0.36823
0.48351
0.551952
0.560772
0.560718
0.442349
0.307779
0.304519
0.290642
0.351553
0.475522
0.351075
0.448331
0.504443
0.521586
0.527522
0.521901
0.495894
0.459589
0.463711
0.449966
0.372466
0.27691
0.217989
0.223806
0.19364
0.134955
0.0899133
0.0765299
0.105447
0.203481
0.357293
0.454777
0.479106
0.453319
0.365875
0.346083
0.355507
0.30463
0.382621
0.527482
0.438639
0.481261
0.521765
0.538316
0.542363
0.540475
0.526217
0.500274
0.473708
0.365275
0.200605
0.0974566
0.0569264
0.0560863
0.0465165
0.0349369
0.0290465
0.0282451
0.0427288
0.119383
0.269149
0.379763
0.412975
0.409042
0.394976
0.395369
0.38689
0.301942
0.408384
0.54358
0.530774
0.526399
0.543171
0.549915
0.549821
0.549803
0.542403
0.516146
0.414564
0.184656
0.0553288
0.0289441
0.0233774
0.0233477
0.0230915
0.0226857
0.0226796
0.022684
0.0300936
0.0805446
0.233493
0.391327
0.441852
0.444508
0.439723
0.434171
0.395249
0.302119
0.420243
0.530736
0.550072
0.549905
0.549973
0.549831
0.549925
0.549826
0.549499
0.523327
0.371106
0.0845375
0.0230002
0.0226156
0.0226156
0.0226156
0.0226643
0.0235423
0.0240158
0.0240504
0.0292286
0.0641406
0.196231
0.39127
0.466341
0.476954
0.473
0.466406
0.394359
0.302402
0.421242
0.50481
0.549908
0.550252
0.544734
0.475265
0.529423
0.547088
0.54944
0.537984
0.394709
0.0504839
0.0226157
0.0226156
0.0239868
0.0265335
0.030654
0.034861
0.0364756
0.0372079
0.0436176
0.0804707
0.180019
0.388308
0.483794
0.505046
0.505808
0.495977
0.389292
0.302488
0.421381
0.469678
0.550185
0.549853
0.464727
0.239409
0.255512
0.456375
0.54251
0.542416
0.403453
0.0746983
0.036476
0.0345882
0.0385455
0.0473002
0.0610495
0.0734812
0.0780716
0.0830878
0.0992845
0.157535
0.253654
0.390742
0.498958
0.520635
0.520643
0.514338
0.383667
0.302389
0.429358
0.468262
0.549837
0.524295
0.247741
0.0855267
0.0902552
0.207873
0.444401
0.531818
0.4365
0.178416
0.0923641
0.0808491
0.084175
0.0983195
0.120818
0.142389
0.15103
0.166547
0.196993
0.265227
0.354752
0.443526
0.496471
0.467857
0.497969
0.49937
0.391456
0.329261
0.488348
0.468258
0.54872
0.340126
0.0960471
0.0669351
0.0736245
0.115838
0.21676
0.306378
0.333934
0.274276
0.169264
0.14977
0.152909
0.166512
0.182446
0.197582
0.204799
0.229636
0.266654
0.315096
0.373425
0.405198
0.33812
0.195675
0.251068
0.390211
0.439463
0.448489
0.523611
0.474817
0.465621
0.200789
0.0692664
0.0670102
0.0867539
0.130674
0.169115
0.18195
0.18514
0.225236
0.191246
0.179621
0.189327
0.200993
0.202132
0.202132
0.201314
0.211691
0.22591
0.221372
0.19971
0.154957
0.0945926
0.0773551
0.112483
0.306965
0.496896
0.518949
0.523576
0.482536
0.400349
0.148622
0.0732688
0.0780484
0.10546
0.150837
0.180046
0.164794
0.126381
0.126651
0.14139
0.145008
0.156911
0.166124
0.16829
0.15667
0.147156
0.135129
0.12113
0.0926039
0.0689891
0.0599023
0.0613056
0.0662146
0.0900713
0.251808
0.507745
0.523523
0.523634
0.445174
0.349251
0.140589
0.087458
0.0958905
0.124519
0.166186
0.188238
0.164658
0.103515
0.0683097
0.0760814
0.085175
0.0933476
0.0971319
0.0966748
0.0853572
0.0769647
0.0664417
0.057673
0.0507417
0.050914
0.0540983
0.0619079
0.0717013
0.0859474
0.178397
0.44534
0.529537
0.523669
0.41492
0.331366
0.149258
0.10357
0.114211
0.145822
0.181255
0.190408
0.159051
0.088174
0.0480808
0.0459799
0.0496691
0.0526073
0.0533809
0.0525255
0.0488773
0.0470639
0.0450667
0.0453289
0.0468266
0.0511149
0.0579339
0.0665853
0.0767481
0.0896152
0.144405
0.368465
0.529476
0.523641
0.409907
0.329807
0.159737
0.118959
0.133244
0.168349
0.196592
0.19081
0.144318
0.071584
0.0414569
0.0400927
0.0405639
0.0412184
0.041435
0.0413845
0.0411322
0.0420986
0.0426212
0.0449542
0.0488603
0.0541058
0.0619014
0.0701801
0.0799307
0.0942338
0.138276
0.300351
0.50856
0.531978
0.418026
0.32094
0.166341
0.134937
0.15428
0.189699
0.210258
0.189722
0.120545
0.0560747
0.0401016
0.0401019
0.0400975
0.0401068
0.0401207
0.0402197
0.0405385
0.0420014
0.0436615
0.0467766
0.0519148
0.0575661
0.0647006
0.0727984
0.0829112
0.0997139
0.155915
0.288011
0.399818
0.531938
0.421635
0.297786
0.17541
0.153864
0.178812
0.210515
0.216771
0.178659
0.0905641
0.0456603
0.0401087
0.0401032
0.0401063
0.0401069
0.0401172
0.0403422
0.0411949
0.0429262
0.0456458
0.0495317
0.0546269
0.0602095
0.0669193
0.0749503
0.0851859
0.10462
0.174711
0.328789
0.343344
0.470286
0.421662
0.277361
0.18725
0.17653
0.206505
0.232449
0.217986
0.147686
0.0630644
0.0415563
0.0401128
0.040113
0.040107
0.0401169
0.0401242
0.0409761
0.0425922
0.0446659
0.0478649
0.0520265
0.0568065
0.0623078
0.069039
0.0775343
0.0885434
0.111174
0.196795
0.354004
0.338992
0.430716
0.417758
0.263444
0.200961
0.204837
0.237483
0.254326
0.208942
0.102083
0.048476
0.0408912
0.0402672
0.0401241
0.0401183
0.0402113
0.0404684
0.0421037
0.0441258
0.0463741
0.0497588
0.0539371
0.0586585
0.0643387
0.0713927
0.080361
0.0914864
0.120742
0.226982
0.372755
0.338992
0.424593
0.371321
0.260097
0.225521
0.241251
0.275923
0.263147
0.167815
0.0666813
0.0442035
0.041466
0.0410593
0.0405302
0.0406228
0.040946
0.0414911
0.0435202
0.0455842
0.0478059
0.0513739
0.0556083
0.0603427
0.0663444
0.0737717
0.0830682
0.0945025
0.132889
0.266512
0.387401
0.338991
0.424908
0.330858
0.272483
0.262164
0.28896
0.323601
0.25505
0.108518
0.0520309
0.0438874
0.0430426
0.0425072
0.0418628
0.0420426
0.0423657
0.0429698
0.0449915
0.0469303
0.0490373
0.052744
0.057134
0.0620819
0.0685198
0.0763071
0.085724
0.0982741
0.149294
0.310669
0.402235
0.341121
0.43148
0.308332
0.29556
0.306966
0.344159
0.358456
0.213164
0.0779404
0.0489359
0.045092
0.0452866
0.0444302
0.0440848
0.0441774
0.0441364
0.0446314
0.0464062
0.0481534
0.0502726
0.0540308
0.0585866
0.0638644
0.0707046
0.0787775
0.0881554
0.10205
0.167645
0.355498
0.417276
0.360488
0.45628
0.303804
0.305274
0.349343
0.391032
0.368442
0.183097
0.0722259
0.0493686
0.0469195
0.0478053
0.0467726
0.0465707
0.0463908
0.0459825
0.046451
0.0478972
0.0493819
0.051626
0.0554094
0.0601076
0.0657026
0.0727737
0.0810009
0.0903962
0.105656
0.184916
0.39224
0.440151
0.417711
0.506398
0.303804
0.306528
0.379465
0.421717
0.372236
0.180262
0.0772861
0.05113
0.0483665
0.0501156
0.0494089
0.0487866
0.0482887
0.0477378
0.048434
0.0495667
0.0508423
0.0531929
0.0568891
0.0616682
0.06741
0.0745619
0.083013
0.0926299
0.109135
0.194704
0.41655
0.474665
0.504598
0.533389
0.303804
0.311117
0.400811
0.439172
0.39776
0.225235
0.0927221
0.0536357
0.0493258
0.0517961
0.0520183
0.0506395
0.0499398
0.0495149
0.0505804
0.0512963
0.0525542
0.0549398
0.0584729
0.0631513
0.0689462
0.0761846
0.0849142
0.0949786
0.112754
0.198091
0.426286
0.516964
0.533391
0.533401
0.32104
0.339197
0.420067
0.452082
0.436074
0.285144
0.110546
0.0561738
0.0497992
0.0524542
0.0540663
0.0523433
0.0515599
0.0513117
0.0527323
0.0531654
0.0544471
0.0567858
0.0601766
0.0646436
0.0704709
0.0778268
0.0867671
0.0973879
0.116528
0.19155
0.420071
0.53337
0.5334
0.533398
0.381609
0.378211
0.443155
0.465892
0.457398
0.310336
0.118989
0.058478
0.0501995
0.0521022
0.0551034
0.0542544
0.0534151
0.052852
0.0546675
0.055236
0.056479
0.0587431
0.0619707
0.066248
0.0720535
0.0794274
0.0884336
0.099473
0.1202
0.18212
0.370903
0.528342
0.53338
0.521824
0.435712
0.423988
0.478037
0.482032
0.466068
0.304297
0.118222
0.0605252
0.0508152
0.0514142
0.0553039
0.0565046
0.0557935
0.0540515
0.056316
0.0574742
0.058543
0.060738
0.0638136
0.0679032
0.0736186
0.08091
0.0898586
0.101109
0.124276
0.199408
0.352449
0.467932
0.465768
0.503588
0.49347
0.471339
0.505682
0.504658
0.467844
0.261859
0.111804
0.063344
0.0524302
0.0514664
0.0550776
0.0586591
0.0587136
0.0553818
0.05774
0.0597351
0.0606933
0.0627637
0.0656246
0.0695451
0.0750781
0.0822125
0.0910557
0.10237
0.129063
0.226415
0.385573
0.463593
0.463617
0.479308
0.530125
0.519173
0.527654
0.522986
0.444717
0.225719
0.107215
0.0671574
0.0557797
0.0530701
0.0551272
0.0606773
0.0618542
0.0577523
0.0593496
0.0620043
0.0631002
0.0649176
0.0674513
0.0711335
0.0763811
0.0832884
0.0919997
0.103316
0.134717
0.255028
0.423476
0.488693
0.46359
0.488965
0.533106
0.533103
0.5331
0.527991
0.390993
0.203367
0.108584
0.0734448
0.0611173
0.0577933
0.0581651
0.0639902
0.0654743
0.0617062
0.0621821
0.0647686
0.0661862
0.0676389
0.0696825
0.0729231
0.0777415
0.0844214
0.0931384
0.104379
0.1462
0.297342
0.44868
0.48895
0.482752
0.508056
0.533105
0.533099
0.525056
0.489613
0.359081
0.225653
0.133564
0.0854534
0.0696135
0.0664027
0.0667293
0.0704514
0.071108
0.0680683
0.0675405
0.0693518
0.0708444
0.0719661
0.0734413
0.0759717
0.080319
0.0870689
0.0963267
0.108711
0.173076
0.358942
0.488661
0.500247
0.507393
0.527897
0.520605
0.504248
0.488203
0.484446
0.463066
0.347747
0.185913
0.105034
0.0837285
0.0802976
0.0810428
0.0816481
0.0808801
0.0782717
0.0767659
0.0774133
0.0784871
0.079382
0.0805413
0.0826659
0.0873132
0.0956456
0.107526
0.12626
0.225466
0.433937
0.51564
0.519527
0.530271
0.540406
0.519678
0.51619
0.52287
0.523666
0.510924
0.43282
0.244055
0.132273
0.104773
0.100641
0.100506
0.0976987
0.0950851
0.0921336
0.0897819
0.0892443
0.0897854
0.0904069
0.0916786
0.0945719
0.101344
0.114702
0.134122
0.170207
0.295006
0.481522
0.52766
0.532971
0.539971
0.542774
0.542825
0.542171
0.541089
0.534012
0.524982
0.453892
0.279319
0.166196
0.135768
0.130242
0.125964
0.119057
0.11333
0.109032
0.105739
0.10423
0.104275
0.104803
0.106664
0.111186
0.121665
0.142437
0.174572
0.23226
0.350531
0.485905
0.532735
0.535671
0.540417
0.542474
0.548612
0.546861
0.543677
0.538045
0.529563
0.450988
0.310188
0.215322
0.183175
0.172866
0.161413
0.148218
0.137063
0.129809
0.124978
0.12265
0.122394
0.123233
0.126232
0.133165
0.147923
0.175113
0.219645
0.29348
0.399016
0.492712
0.525982
0.531569
0.535929
0.538211
0.546831
0.542365
0.536642
0.531075
0.512516
0.446914
0.354578
0.289672
0.257335
0.234913
0.211003
0.186996
0.167766
0.155735
0.148673
0.14559
0.145259
0.147042
0.152214
0.162702
0.182157
0.216584
0.274444
0.361638
0.457986
0.512156
0.520357
0.526388
0.531074
0.535285
0.537674
0.526786
0.516717
0.500128
0.48458
0.459791
0.424267
0.392549
0.361336
0.324822
0.282713
0.24188
0.210114
0.190342
0.179807
0.175728
0.175462
0.179246
0.188405
0.205284
0.233479
0.278663
0.346174
0.430275
0.499273
0.525844
0.528211
0.530536
0.532664
0.536074
0.524704
0.504648
0.497722
0.496669
0.496143
0.49941
0.500705
0.492715
0.472683
0.436663
0.381786
0.321749
0.272898
0.241675
0.225499
0.219557
0.219518
0.226903
0.242761
0.270078
0.311821
0.367952
0.431017
0.485373
0.513884
0.526222
0.532799
0.535722
0.5368
0.538365
0.510624
0.505746
0.510646
0.519424
0.531547
0.540978
0.545279
0.54444
0.538408
0.52386
0.488838
0.426807
0.363658
0.319679
0.295769
0.287009
0.287294
0.299714
0.324187
0.361994
0.41162
0.462985
0.500443
0.517323
0.520029
0.523689
0.530274
0.534912
0.538227
0.539658
0.511301
0.523886
0.538416
0.548424
0.555217
0.555752
0.555329
0.550962
0.547761
0.546923
0.543957
0.517615
0.467462
0.419514
0.390751
0.379942
0.380278
0.396255
0.424087
0.459183
0.49369
0.518326
0.53028
0.533095
0.529348
0.525408
0.527664
0.53215
0.536982
0.539648
0.525085
0.546611
0.555617
0.559262
0.559219
0.555755
0.548295
0.54053
0.536093
0.537341
0.543345
0.544439
0.532864
0.50455
0.481921
0.472334
0.472636
0.485362
0.502936
0.518802
0.528684
0.534334
0.539231
0.541833
0.539729
0.53329
0.52967
0.530578
0.534485
0.538868
0.545133
0.557609
0.559723
0.559358
0.553228
0.537281
0.518464
0.50975
0.507217
0.511059
0.530182
0.54442
0.546962
0.541294
0.531579
0.526675
0.526726
0.530866
0.535093
0.537943
0.539443
0.54092
0.543743
0.546413
0.546512
0.54267
0.536279
0.532262
0.532405
0.536734
0.556507
0.559793
0.559711
0.54958
0.524787
0.499295
0.48767
0.481472
0.480039
0.485849
0.513963
0.541639
0.549029
0.549195
0.545857
0.543753
0.543403
0.543824
0.544517
0.545129
0.545395
0.545785
0.547229
0.549203
0.55011
0.548669
0.54409
0.537609
0.533033
0.533833
0.559839
0.559763
0.548848
0.510228
0.481031
0.478023
0.47807
0.47846
0.478474
0.482089
0.514344
0.543749
0.552529
0.553104
0.551032
0.549675
0.549308
0.549308
0.5495
0.549726
0.549787
0.549822
0.550396
0.551527
0.552363
0.551987
0.549593
0.544389
0.536585
0.533927
0.558693
0.549004
0.51384
0.472767
0.472647
0.47428
0.479374
0.48308
0.483232
0.488995
0.524048
0.551666
0.556901
0.556208
0.554511
0.553545
0.553196
0.553111
0.553156
0.55323
0.553213
0.553129
0.553263
0.553756
0.554242
0.554146
0.552923
0.549721
0.542243
0.533985
0.550081
0.525495
0.485677
0.472865
0.47281
0.480516
0.490627
0.492877
0.49747
0.518382
0.547702
0.559538
0.560138
0.558517
0.557171
0.556471
0.556149
0.556016
0.555984
0.55598
0.555931
0.555822
0.555774
0.555891
0.556036
0.555879
0.555091
0.553152
0.547738
0.536404
0.535899
0.512217
0.509105
0.49826
0.49687
0.492566
0.502755
0.525804
0.538438
0.55231
0.562011
0.563371
0.561725
0.560098
0.559124
0.558601
0.558326
0.5582
0.558161
0.558153
0.558119
0.558035
0.557938
0.557877
0.55779
0.557479
0.556736
0.555264
0.551425
0.540924
0.519793
0.512439
0.527101
0.536037
0.539422
0.540507
0.545167
0.557709
0.562908
0.56569
0.565663
0.563985
0.562245
0.561097
0.560424
0.560045
0.559856
0.559795
0.559813
0.55986
0.559889
0.559868
0.559797
0.559688
0.559492
0.559066
0.558237
0.556771
0.553529
0.544899
0.516467
0.525061
0.548927
0.556768
0.560757
0.56444
0.567206
0.56806
0.568059
0.566502
0.565012
0.563416
0.562159
0.561521
0.561127
0.560922
0.56086
0.560911
0.56103
0.561174
0.561301
0.561376
0.561383
0.561311
0.561115
0.560668
0.559788
0.558203
0.554998
0.547578
0.52031
0.55189
0.56477
0.567618
0.569695
0.569817
0.569767
0.568144
0.566198
0.564648
0.563372
0.562346
0.561765
0.561426
0.561316
0.561323
0.56143
0.561624
0.561874
0.562146
0.562398
0.562595
0.562712
0.562735
0.56262
0.562251
0.561426
0.559797
0.556461
0.549573
0.536724
0.566459
0.571195
0.571229
0.571206
0.569807
0.566427
0.563766
0.561873
0.561329
0.561099
0.560977
0.561018
0.561068
0.56116
0.561337
0.561623
0.561973
0.562378
0.562812
0.563213
0.563551
0.5638
0.563944
0.563959
0.563746
0.563095
0.561576
0.558181
0.551463
0.555117
0.571174
0.571252
0.571233
0.569296
0.561371
0.555883
0.554889
0.555925
0.557507
0.558716
0.559541
0.560105
0.560498
0.560819
0.561153
0.561523
0.561979
0.562538
0.563151
0.563756
0.564273
0.564668
0.564942
0.565092
0.565072
0.564689
0.563449
0.560201
0.553624
0.566707
0.571232
0.571252
0.569641
0.553869
0.531594
0.535701
0.542798
0.549736
0.554203
0.556818
0.558363
0.559293
0.559906
0.560375
0.560802
0.561251
0.561777
0.562396
0.563127
0.563978
0.564759
0.565358
0.565765
0.566027
0.566168
0.566084
0.565266
0.56243
0.556249
0.571232
0.571266
0.571121
0.543964
0.505203
0.494711
0.515952
0.533567
0.546298
0.552765
0.555968
0.55771
0.55874
0.559416
0.559917
0.56035
0.560793
0.561315
0.561982
0.562844
0.563855
0.564955
0.565892
0.566504
0.566854
0.567069
0.567205
0.566857
0.564688
0.559323
0.571256
0.57111
0.546348
0.465058
0.456731
0.484228
0.51306
0.53517
0.547374
0.553204
0.556031
0.557503
0.558419
0.559033
0.559472
0.559821
0.560157
0.56057
0.561175
0.562084
0.563327
0.564778
0.56619
0.567211
0.567737
0.567939
0.568115
0.568131
0.566768
0.562619
0.571121
0.545861
0.466882
0.438781
0.443389
0.488876
0.516692
0.539248
0.549637
0.554108
0.556254
0.557444
0.558199
0.558703
0.559021
0.559209
0.559326
0.559468
0.559798
0.560544
0.561917
0.56383
0.565896
0.567645
0.568654
0.568988
0.569046
0.569172
0.56854
0.565808
0.55397
0.460069
0.438783
0.439027
0.444901
0.495348
0.524556
0.544232
0.551757
0.554878
0.556441
0.557382
0.557998
0.558381
0.558544
0.558495
0.558248
0.557864
0.55753
0.557606
0.558543
0.560502
0.563632
0.566691
0.568945
0.570039
0.570218
0.570213
0.569972
0.568546
0.519259
0.439022
0.439064
0.43884
0.453721
0.496812
0.532503
0.54763
0.552974
0.555253
0.556492
0.557291
0.557793
0.558054
0.55803
0.557662
0.556848
0.555532
0.553786
0.551954
0.550622
0.550306
0.55455
0.560347
0.566302
0.569772
0.571301
0.571401
0.57122
0.570618
0.494198
0.439107
0.443236
0.439087
0.474894
0.501844
0.538646
0.549528
0.553566
0.555407
0.556495
0.557187
0.55759
0.557728
0.557492
0.556704
0.555083
0.552277
0.547908
0.541576
0.532865
0.523615
0.527291
0.536139
0.552645
0.564308
0.570145
0.572163
0.572298
0.572047
0.488024
0.439241
0.456687
0.445982
0.491408
0.516504
0.543251
0.550794
0.553914
0.555495
0.556476
0.557086
0.557404
0.557414
0.556945
0.555649
0.553003
0.548185
0.539883
0.526144
0.506174
0.489923
0.490124
0.493805
0.511946
0.540167
0.561164
0.569969
0.572474
0.572677
0.47705
0.452059
0.483322
0.477095
0.501694
0.53061
0.546255
0.551632
0.554148
0.555547
0.556445
0.557
0.557246
0.557133
0.556407
0.554529
0.550675
0.543354
0.529948
0.509921
0.490142
0.481217
0.474344
0.468262
0.467851
0.492441
0.526016
0.559416
0.569409
0.572646
0.472785
0.479012
0.520947
0.524636
0.519012
0.537842
0.548112
0.552227
0.554326
0.555578
0.556421
0.556946
0.557136
0.556906
0.555898
0.553328
0.547927
0.537031
0.519092
0.501651
0.492424
0.485275
0.47794
0.469009
0.462566
0.463448
0.482158
0.530652
0.559149
0.56868
0.482035
0.525963
0.547775
0.546028
0.536616
0.543831
0.549665
0.552738
0.554471
0.555599
0.556417
0.556945
0.557106
0.556777
0.555446
0.55198
0.544432
0.529134
0.508201
0.507951
0.511686
0.506725
0.495807
0.479226
0.46261
0.462567
0.473961
0.507441
0.542274
0.55986
0.51649
0.54779
0.547864
0.547829
0.546348
0.547803
0.550889
0.553131
0.554569
0.555616
0.556446
0.557014
0.55719
0.556816
0.55511
0.550368
0.539779
0.521691
0.514375
0.533402
0.547191
0.537307
0.515531
0.49997
0.483333
0.471875
0.476965
0.518011
0.530119
0.548765
0.54681
0.547853
0.547827
0.547047
0.548074
0.549823
0.551762
0.553403
0.554625
0.555638
0.556519
0.557172
0.557424
0.557072
0.555058
0.548733
0.536663
0.527867
0.532392
0.551243
0.55749
0.555608
0.549651
0.539982
0.510038
0.490469
0.501757
0.540453
0.527752
0.534076
0.547835
0.547802
0.542715
0.540037
0.547157
0.550693
0.552414
0.553624
0.554663
0.555671
0.556638
0.55743
0.557846
0.557679
0.555686
0.549095
0.541623
0.540421
0.547583
0.553426
0.558987
0.561789
0.562428
0.559066
0.547078
0.536607
0.530427
0.540809
0.527557
0.512143
0.547796
0.531506
0.52535
0.53199
0.54569
0.551347
0.553042
0.553853
0.554697
0.55571
0.55679
0.557762
0.55842
0.558635
0.557309
0.552816
0.549184
0.552666
0.55571
0.558572
0.562326
0.565645
0.567623
0.567402
0.564624
0.559935
0.552288
0.550006
0.541029
0.512135
0.537846
0.506539
0.524472
0.530081
0.54528
0.55217
0.553709
0.554085
0.554716
0.555736
0.556941
0.558099
0.559017
0.559668
0.559168
0.556963
0.555908
0.559662
0.561992
0.563725
0.565878
0.567088
0.568293
0.569729
0.569803
0.568741
0.565819
0.563421
0.556468
0.521722
0.505751
0.506362
0.528976
0.530963
0.546003
0.553279
0.554401
0.554269
0.554679
0.555721
0.557053
0.558379
0.559494
0.560418
0.560323
0.558854
0.559987
0.563356
0.564671
0.564653
0.564436
0.557708
0.55661
0.566085
0.569806
0.570819
0.570864
0.570511
0.566232
0.546388
0.447496
0.498315
0.533466
0.532633
0.548243
0.554836
0.555056
0.554314
0.554518
0.555626
0.557098
0.558578
0.559801
0.560616
0.560611
0.559348
0.561894
0.564647
0.564637
0.563361
0.554673
0.547793
0.547869
0.548524
0.560799
0.568619
0.571
0.571614
0.570667
0.561974
0.410387
0.477079
0.535822
0.538443
0.552633
0.55654
0.555473
0.554049
0.554111
0.555404
0.557081
0.5587
0.559939
0.560617
0.560617
0.559856
0.562711
0.56459
0.563936
0.558542
0.547905
0.547992
0.547968
0.548155
0.548453
0.560416
0.568758
0.571619
0.571733
0.568109
0.417908
0.489066
0.541267
0.550015
0.557038
0.557203
0.555271
0.553149
0.55328
0.555019
0.557017
0.558771
0.559966
0.560621
0.560587
0.560623
0.563187
0.564591
0.56295
0.556096