/*--------------------------------*- C++ -*----------------------------------*\
| =========                 |                                                 |
| \\      /  F ield         | OpenFOAM: The Open Source CFD Toolbox           |
|  \\    /   O peration     | Version:  v1606+                                |
|   \\  /    A nd           | Web:      www.OpenFOAM.com                      |
|    \\/     M anipulation  |                                                 |
\*---------------------------------------------------------------------------*/
FoamFile
{
    version     2.0;
    format      ascii;
    class       volVectorField;
    location    "1.63";
    object      U;
}
// * * * * * * * * * * * * * * * * * * * * * * * * * * * * * * * * * * * * * //

dimensions      [0 1 -1 0 0 0 0];

internalField   nonuniform List<vector> 
6000
(
(-0.0292775 -0.0197692 0)
(-0.0425916 -0.0852093 0)
(-0.0418005 -0.0563891 0)
(-0.0299695 -0.0301915 0)
(-0.029769 -0.0258433 0)
(-0.0243887 -0.0348462 0)
(-0.0135559 -0.0618655 0)
(-0.00225443 -0.0880475 0)
(0.0158487 -0.112221 0)
(0.0229501 -0.125036 0)
(0.00665739 -0.109403 0)
(-0.0171863 -0.0789273 0)
(-0.0341618 -0.0911784 0)
(-0.0394898 -0.0957825 0)
(-0.0335891 -0.0987455 0)
(-0.030314 -0.0941061 0)
(-0.0423859 -0.0903941 0)
(-0.0555177 -0.121893 0)
(-0.0438716 -0.100454 0)
(-0.0199601 -0.0636414 0)
(-0.0224616 -0.030343 0)
(-0.0363948 -0.0100608 0)
(-0.0395497 0.0105348 0)
(-0.0411554 0.0144402 0)
(-0.0359428 0.0109737 0)
(-0.0112991 0.0171851 0)
(0.00678906 0.0243937 0)
(0.00746894 -0.00398125 0)
(0.00541394 -0.0324874 0)
(0.00993901 0.023065 0)
(0.0463866 0.663905 0)
(0.0398072 0.686575 0)
(0.034937 0.636629 0)
(0.0478066 0.623653 0)
(0.0472284 0.626478 0)
(0.0517424 0.626244 0)
(0.0661629 0.646234 0)
(0.0610498 0.651016 0)
(0.040365 0.664773 0)
(-0.00299967 0.705409 0)
(-0.0421258 0.719487 0)
(-0.0503601 0.689617 0)
(-0.0429256 0.665176 0)
(-0.0345071 0.645573 0)
(-0.0238327 0.638818 0)
(-0.0182867 0.646254 0)
(-0.0269053 0.671733 0)
(-0.0545383 0.694878 0)
(-0.0791278 0.630476 0)
(-0.101131 0.626808 0)
(-0.142784 0.665589 0)
(-0.178278 0.641346 0)
(-0.166328 0.614236 0)
(-0.140972 0.608921 0)
(-0.113006 0.594212 0)
(-0.07428 0.556968 0)
(-0.0281114 0.583034 0)
(0.0172962 0.622563 0)
(0.0107633 0.608982 0)
(-0.0249559 0.589065 0)
(0.0218284 0.427025 0)
(0.0715192 0.448431 0)
(0.103973 0.411682 0)
(0.13154 0.454433 0)
(0.127224 0.466085 0)
(0.125068 0.440693 0)
(0.119402 0.42852 0)
(0.0970655 0.468756 0)
(0.0362359 0.497333 0)
(-0.0105781 0.509609 0)
(-0.0288475 0.508137 0)
(-0.0355138 0.469168 0)
(-0.0336733 0.453224 0)
(-0.0308367 0.439716 0)
(-0.026631 0.431057 0)
(-0.0294389 0.465597 0)
(-0.0370148 0.520692 0)
(-0.0351181 0.500163 0)
(-0.0607032 0.477621 0)
(-0.134809 0.516035 0)
(-0.230023 0.576786 0)
(-0.293203 0.502168 0)
(-0.27784 0.449655 0)
(-0.225748 0.428013 0)
(-0.157451 0.408485 0)
(-0.0979497 0.378806 0)
(-0.0348612 0.390161 0)
(0.0196763 0.424421 0)
(0.0165062 0.508051 0)
(-0.0126846 0.48702 0)
(0.0273652 0.454701 0)
(0.105742 0.468231 0)
(0.145113 0.458823 0)
(0.190383 0.486207 0)
(0.219845 0.512525 0)
(0.252018 0.500017 0)
(0.26756 0.508933 0)
(0.234117 0.585823 0)
(0.139468 0.601169 0)
(0.0310392 0.604201 0)
(-0.0271451 0.577519 0)
(-0.0508379 0.538382 0)
(-0.0499052 0.508582 0)
(-0.0362682 0.482049 0)
(-0.0334578 0.468907 0)
(-0.0385546 0.498103 0)
(-0.022489 0.545543 0)
(-0.00385995 0.533524 0)
(-0.0435447 0.56149 0)
(-0.160499 0.656449 0)
(-0.314476 0.743863 0)
(-0.395109 0.575623 0)
(-0.359515 0.429121 0)
(-0.265308 0.385207 0)
(-0.185017 0.375553 0)
(-0.126662 0.354562 0)
(-0.061929 0.379622 0)
(-0.0247196 0.484264 0)
(-0.0104612 0.563236 0)
(-0.0189975 0.506049 0)
(0.0186706 0.357258 0)
(0.0755242 0.38914 0)
(0.12675 0.37643 0)
(0.197359 0.421658 0)
(0.253922 0.456542 0)
(0.333002 0.428623 0)
(0.424861 0.485391 0)
(0.4473 0.656004 0)
(0.338037 0.753496 0)
(0.147265 0.686354 0)
(0.0031616 0.632932 0)
(-0.0682381 0.546749 0)
(-0.0711965 0.476411 0)
(-0.05054 0.459874 0)
(-0.0370955 0.465648 0)
(-0.033353 0.485142 0)
(-0.00948708 0.518459 0)
(0.0188793 0.547768 0)
(-0.00848583 0.611003 0)
(-0.15152 0.795393 0)
(-0.347866 0.872182 0)
(-0.399445 0.539837 0)
(-0.330228 0.304884 0)
(-0.247997 0.278468 0)
(-0.2003 0.30165 0)
(-0.16405 0.292679 0)
(-0.124075 0.312094 0)
(-0.0724137 0.42804 0)
(-0.0361905 0.545228 0)
(-0.00937879 0.478972 0)
(0.00150708 0.323288 0)
(0.0344967 0.34498 0)
(0.0834264 0.326367 0)
(0.138718 0.371272 0)
(0.188698 0.392875 0)
(0.282779 0.313344 0)
(0.414128 0.365626 0)
(0.533513 0.635372 0)
(0.52271 0.94429 0)
(0.313785 0.906135 0)
(0.098462 0.739376 0)
(-0.0261959 0.580596 0)
(-0.083387 0.493111 0)
(-0.0674762 0.44497 0)
(-0.0430002 0.453572 0)
(-0.020319 0.474224 0)
(0.00995053 0.493787 0)
(0.0509354 0.534288 0)
(0.0154978 0.655011 0)
(-0.132836 1.02096 0)
(-0.29105 1.02887 0)
(-0.280335 0.50437 0)
(-0.22085 0.220961 0)
(-0.208387 0.244148 0)
(-0.227831 0.255258 0)
(-0.231821 0.235163 0)
(-0.209726 0.260809 0)
(-0.143466 0.374146 0)
(-0.0665196 0.50462 0)
(-0.00550874 0.468166 0)
(0.00570415 0.322377 0)
(0.061433 0.315365 0)
(0.127231 0.282858 0)
(0.147713 0.321623 0)
(0.138057 0.327651 0)
(0.190754 0.194553 0)
(0.277675 0.202894 0)
(0.420786 0.51488 0)
(0.529671 1.01505 0)
(0.455767 1.15382 0)
(0.265953 0.985199 0)
(0.086707 0.687654 0)
(0.00045111 0.475401 0)
(-0.0353042 0.440005 0)
(-0.0167184 0.435543 0)
(0.00585001 0.454745 0)
(0.0370275 0.468677 0)
(0.047071 0.497337 0)
(-0.0193342 0.790816 0)
(-0.172537 1.20868 0)
(-0.214494 1.07773 0)
(-0.166501 0.468247 0)
(-0.187427 0.197752 0)
(-0.239847 0.278618 0)
(-0.254066 0.302057 0)
(-0.235582 0.209167 0)
(-0.194035 0.160677 0)
(-0.13062 0.190921 0)
(-0.0690294 0.336744 0)
(-0.00381086 0.361504 0)
(0.0346087 0.248815 0)
(0.116226 0.194834 0)
(0.142848 0.175957 0)
(0.154609 0.299673 0)
(0.167284 0.292117 0)
(0.175535 0.139451 0)
(0.185992 0.0986159 0)
(0.252856 0.388408 0)
(0.396175 0.95114 0)
(0.477654 1.22354 0)
(0.457329 1.1612 0)
(0.336482 0.923526 0)
(0.167153 0.5751 0)
(0.0885957 0.397971 0)
(0.0552181 0.397482 0)
(0.0579678 0.413382 0)
(0.0405145 0.41691 0)
(-0.0418125 0.535479 0)
(-0.194312 0.970679 0)
(-0.2631 1.24031 0)
(-0.203978 1.02781 0)
(-0.178447 0.483725 0)
(-0.276137 0.292941 0)
(-0.373562 0.361186 0)
(-0.357139 0.317147 0)
(-0.312443 0.246605 0)
(-0.228522 0.183271 0)
(-0.142387 0.230926 0)
(-0.0804817 0.343038 0)
(0.00263351 0.361491 0)
(0.0266774 0.117646 0)
(0.0770396 0.154169 0)
(0.083873 0.258874 0)
(0.133792 0.341632 0)
(0.213165 0.33614 0)
(0.225329 0.195469 0)
(0.168122 0.0966898 0)
(0.161916 0.318141 0)
(0.284024 0.813892 0)
(0.431305 1.1135 0)
(0.537734 1.12512 0)
(0.585174 1.04119 0)
(0.475977 0.818213 0)
(0.291109 0.540821 0)
(0.167807 0.388656 0)
(0.0968783 0.402871 0)
(-0.000475141 0.487388 0)
(-0.181901 0.739987 0)
(-0.334693 1.04808 0)
(-0.31824 1.17641 0)
(-0.249302 0.974344 0)
(-0.259218 0.557962 0)
(-0.350345 0.409387 0)
(-0.402007 0.389124 0)
(-0.38393 0.279591 0)
(-0.332904 0.1457 0)
(-0.254992 0.0683225 0)
(-0.159172 0.143748 0)
(-0.0728015 0.31261 0)
(0.0169901 0.375445 0)
(-0.000605679 0.174942 0)
(0.0331981 0.201942 0)
(0.0453759 0.194241 0)
(0.103361 0.218825 0)
(0.157212 0.237087 0)
(0.178109 0.232085 0)
(0.142686 0.168823 0)
(0.141697 0.305993 0)
(0.240891 0.684425 0)
(0.397389 0.969486 0)
(0.505303 0.971303 0)
(0.594837 0.95687 0)
(0.606601 0.879821 0)
(0.524994 0.790158 0)
(0.340499 0.645664 0)
(0.160538 0.663049 0)
(-0.0307741 0.795514 0)
(-0.205035 0.980973 0)
(-0.276014 1.09428 0)
(-0.269939 1.12251 0)
(-0.259219 0.963178 0)
(-0.291737 0.611693 0)
(-0.350115 0.430467 0)
(-0.360846 0.363688 0)
(-0.314531 0.223945 0)
(-0.264477 0.0659058 0)
(-0.230667 -0.0111738 0)
(-0.174959 -0.00603193 0)
(-0.0820329 0.202713 0)
(0.0199738 0.315486 0)
(0.00407316 0.124399 0)
(0.0412527 0.155336 0)
(0.0465439 0.170626 0)
(0.0409483 0.201883 0)
(0.0566683 0.24192 0)
(0.0776061 0.206867 0)
(0.0935699 0.132605 0)
(0.109278 0.241955 0)
(0.207506 0.544728 0)
(0.381514 0.832064 0)
(0.480314 0.886988 0)
(0.530703 0.921914 0)
(0.542101 0.896558 0)
(0.497866 0.835427 0)
(0.386694 0.780506 0)
(0.231713 0.803565 0)
(0.084798 0.893997 0)
(-0.0193929 1.03302 0)
(-0.0765165 1.11345 0)
(-0.126709 1.14858 0)
(-0.185538 1.00195 0)
(-0.244351 0.671614 0)
(-0.271541 0.442718 0)
(-0.246673 0.322135 0)
(-0.190506 0.184813 0)
(-0.169586 0.0491198 0)
(-0.169508 -0.0166801 0)
(-0.150097 -0.0547403 0)
(-0.107339 0.0408585 0)
(-0.0276512 0.343475 0)
(-0.012246 0.0859653 0)
(-0.0051954 0.152251 0)
(-0.0107753 0.193804 0)
(-0.0111826 0.221948 0)
(0.00577483 0.210837 0)
(0.0304526 0.166269 0)
(0.0227602 0.137321 0)
(0.0236331 0.197396 0)
(0.109419 0.394683 0)
(0.287322 0.658973 0)
(0.434839 0.865162 0)
(0.464534 0.907746 0)
(0.456872 0.901028 0)
(0.428708 0.880457 0)
(0.369487 0.867431 0)
(0.289448 0.902895 0)
(0.20983 0.980367 0)
(0.149543 1.08268 0)
(0.101992 1.18113 0)
(0.046995 1.19227 0)
(-0.0516017 1.09385 0)
(-0.140278 0.728334 0)
(-0.146312 0.418867 0)
(-0.119854 0.270508 0)
(-0.0830035 0.160375 0)
(-0.0788047 0.0495101 0)
(-0.0872148 -0.0114191 0)
(-0.0905537 -0.0436298 0)
(-0.0789233 -0.0242221 0)
(-0.0736146 0.246629 0)
(-0.0138081 0.117999 0)
(-0.0158744 0.171312 0)
(-0.0151449 0.167495 0)
(-0.00259682 0.187567 0)
(0.0109797 0.184612 0)
(0.00833838 0.172212 0)
(-0.0175128 0.162595 0)
(-0.0463533 0.181834 0)
(-0.0185549 0.271435 0)
(0.114135 0.470152 0)
(0.30228 0.746384 0)
(0.374107 0.877976 0)
(0.385325 0.917562 0)
(0.376155 0.914418 0)
(0.364291 0.919254 0)
(0.341828 0.962836 0)
(0.308296 1.03554 0)
(0.267933 1.13539 0)
(0.226418 1.22308 0)
(0.177597 1.28227 0)
(0.0926203 1.22632 0)
(-0.000965953 0.80695 0)
(-0.0241395 0.399202 0)
(-0.0160967 0.234855 0)
(0.0037649 0.15297 0)
(-0.000536722 0.0570577 0)
(-0.00991414 -0.00168988 0)
(-0.0176466 -0.0321328 0)
(-0.0281333 -0.00853172 0)
(-0.0151583 0.150557 0)
(-0.0128386 0.125954 0)
(-0.00416826 0.153126 0)
(0.0024784 0.161249 0)
(0.00720513 0.179664 0)
(0.00797558 0.186722 0)
(-0.00295314 0.191657 0)
(-0.0270386 0.19783 0)
(-0.0567265 0.209534 0)
(-0.0802709 0.234077 0)
(-0.0531971 0.325812 0)
(0.105482 0.580624 0)
(0.273424 0.858095 0)
(0.31683 0.902471 0)
(0.336788 0.898823 0)
(0.371327 0.901514 0)
(0.396775 0.962769 0)
(0.399758 1.06065 0)
(0.374103 1.1728 0)
(0.329524 1.2607 0)
(0.28187 1.31887 0)
(0.218091 1.26484 0)
(0.126461 0.903683 0)
(0.0713029 0.402993 0)
(0.0603018 0.220727 0)
(0.0739806 0.148712 0)
(0.0709208 0.0644613 0)
(0.0645365 0.00783094 0)
(0.0542884 -0.0159459 0)
(0.0300286 0.0254032 0)
(7.94202e-05 0.16675 0)
(-0.00306998 0.134454 0)
(-0.00398493 0.146816 0)
(-0.00518591 0.158018 0)
(-0.00795054 0.175756 0)
(-0.0140133 0.190522 0)
(-0.0270137 0.205686 0)
(-0.0475782 0.221605 0)
(-0.0738425 0.237982 0)
(-0.0971048 0.255423 0)
(-0.119453 0.286305 0)
(-0.0985918 0.420601 0)
(0.0707537 0.709577 0)
(0.211449 0.879305 0)
(0.28949 0.87961 0)
(0.372455 0.873298 0)
(0.459074 0.970634 0)
(0.486909 1.05526 0)
(0.471339 1.21017 0)
(0.409261 1.31134 0)
(0.344585 1.38355 0)
(0.278162 1.34958 0)
(0.210188 0.998981 0)
(0.162414 0.436224 0)
(0.134121 0.225898 0)
(0.140252 0.146487 0)
(0.139203 0.0673495 0)
(0.137585 0.0138707 0)
(0.14085 -0.00844591 0)
(0.117996 0.0537858 0)
(-0.00603574 0.169542 0)
(-0.00060949 0.138137 0)
(-0.00482331 0.15013 0)
(-0.0111734 0.166008 0)
(-0.0200023 0.184925 0)
(-0.0325266 0.20466 0)
(-0.0505966 0.225423 0)
(-0.0739018 0.24669 0)
(-0.102581 0.267554 0)
(-0.133418 0.285767 0)
(-0.157123 0.309958 0)
(-0.179129 0.368143 0)
(-0.142945 0.552291 0)
(0.00524997 0.738231 0)
(0.130344 0.755112 0)
(0.230579 0.744038 0)
(0.356368 0.861336 0)
(0.450535 1.06944 0)
(0.476279 1.31763 0)
(0.42215 1.4128 0)
(0.33947 1.48906 0)
(0.279518 1.43151 0)
(0.277691 1.05604 0)
(0.241097 0.475712 0)
(0.200717 0.245425 0)
(0.197474 0.152061 0)
(0.191185 0.0693195 0)
(0.189782 0.0121364 0)
(0.194879 0.000371488 0)
(0.117355 0.154328 0)
(0.0134702 0.269999 0)
(-0.000692532 0.141707 0)
(-0.00689823 0.156118 0)
(-0.0156983 0.175325 0)
(-0.0273421 0.196953 0)
(-0.0443614 0.223088 0)
(-0.068996 0.250832 0)
(-0.0987275 0.276392 0)
(-0.132754 0.300499 0)
(-0.17043 0.319684 0)
(-0.201524 0.336004 0)
(-0.21718 0.373091 0)
(-0.225312 0.474028 0)
(-0.150408 0.60726 0)
(-0.0206945 0.637356 0)
(0.0490686 0.625936 0)
(0.125323 0.744035 0)
(0.204391 0.976004 0)
(0.281906 1.25698 0)
(0.30003 1.49204 0)
(0.261696 1.58475 0)
(0.265421 1.46597 0)
(0.322342 1.02583 0)
(0.295789 0.503589 0)
(0.249962 0.281641 0)
(0.227249 0.168259 0)
(0.210113 0.0714953 0)
(0.210525 0.0260374 0)
(0.146369 0.0641967 0)
(0.014949 0.270789 0)
(-0.000601021 0.291418 0)
(-0.000881472 0.145291 0)
(-0.00722246 0.163744 0)
(-0.0158906 0.186242 0)
(-0.0256095 0.210465 0)
(-0.0450659 0.245917 0)
(-0.0799939 0.283379 0)
(-0.122982 0.31233 0)
(-0.165106 0.338281 0)
(-0.207526 0.357328 0)
(-0.24165 0.3669 0)
(-0.256359 0.376763 0)
(-0.242817 0.436327 0)
(-0.207858 0.513888 0)
(-0.0955412 0.554372 0)
(-0.0466172 0.577205 0)
(-0.00590015 0.689342 0)
(0.0433071 0.883282 0)
(0.0922658 1.1596 0)
(0.123445 1.4201 0)
(0.161667 1.49759 0)
(0.24702 1.35142 0)
(0.308907 0.952384 0)
(0.303034 0.54904 0)
(0.258115 0.348459 0)
(0.208965 0.208896 0)
(0.1823 0.101789 0)
(0.119378 0.0588744 0)
(-0.000519303 0.191222 0)
(-0.0260268 0.284693 0)
(-0.0031855 0.279943 0)
(-7.17654e-05 0.148428 0)
(-0.0058359 0.169106 0)
(-0.0111884 0.192827 0)
(-0.009081 0.215525 0)
(-0.023182 0.267099 0)
(-0.0815126 0.329097 0)
(-0.163807 0.35944 0)
(-0.221086 0.378861 0)
(-0.258527 0.395105 0)
(-0.27799 0.388861 0)
(-0.277972 0.37991 0)
(-0.253016 0.391745 0)
(-0.192493 0.444721 0)
(-0.106261 0.485979 0)
(-0.0824414 0.520089 0)
(-0.0827679 0.624578 0)
(-0.102235 0.802936 0)
(-0.0955292 1.08962 0)
(-0.0314679 1.32195 0)
(0.073905 1.36741 0)
(0.193233 1.22203 0)
(0.239613 0.886511 0)
(0.200442 0.549234 0)
(0.157874 0.379639 0)
(0.0799202 0.202086 0)
(0.00166165 0.11923 0)
(-0.0707498 0.156795 0)
(-0.0711572 0.227078 0)
(-0.0438309 0.273831 0)
(-0.00837524 0.267766 0)
(-0.00192933 0.144659 0)
(-0.00335774 0.189519 0)
(-0.0060431 0.190405 0)
(0.00707557 0.217815 0)
(0.0183411 0.34421 0)
(-0.0343658 0.446751 0)
(-0.222658 0.461348 0)
(-0.315583 0.431389 0)
(-0.339555 0.418494 0)
(-0.318062 0.38986 0)
(-0.289134 0.360144 0)
(-0.243378 0.338084 0)
(-0.165064 0.373823 0)
(-0.136271 0.398621 0)
(-0.178841 0.483206 0)
(-0.238 0.643064 0)
(-0.278057 0.844319 0)
(-0.262953 1.04578 0)
(-0.179594 1.19462 0)
(-0.0709014 1.21661 0)
(0.0174166 1.1027 0)
(0.0385179 0.854547 0)
(-0.0455181 0.678418 0)
(-0.142863 0.467062 0)
(-0.178542 0.302789 0)
(-0.165833 0.19163 0)
(-0.129205 0.150282 0)
(-0.0903602 0.177303 0)
(-0.0534953 0.240614 0)
(-0.0131172 0.232528 0)
(-0.0195125 0.188436 0)
(0.0237717 0.175908 0)
(0.012684 0.22247 0)
(0.082678 0.185209 0)
(0.169914 0.209709 0)
(0.220286 0.586211 0)
(0.0186026 0.677483 0)
(-0.235079 0.463733 0)
(-0.347477 0.395304 0)
(-0.330397 0.358747 0)
(-0.295231 0.326394 0)
(-0.25364 0.284965 0)
(-0.254994 0.316663 0)
(-0.318626 0.557994 0)
(-0.390269 0.722616 0)
(-0.433553 0.869235 0)
(-0.409693 0.970882 0)
(-0.369335 1.13959 0)
(-0.311693 1.25345 0)
(-0.264551 1.28828 0)
(-0.254995 1.23045 0)
(-0.288693 1.06551 0)
(-0.298448 0.808324 0)
(-0.239119 0.533421 0)
(-0.146993 0.262134 0)
(-0.0842574 0.130424 0)
(-0.0664047 0.11115 0)
(-0.0594169 0.148947 0)
(-0.0398783 0.201624 0)
(-0.0105382 0.197498 0)
(0.000428701 0.0834956 0)
(0.0375556 0.157296 0)
(0.0571213 0.0656684 0)
(0.101548 0.0609873 0)
(0.173747 0.232431 0)
(0.30549 0.591774 0)
(0.402718 0.926568 0)
(0.189597 0.856493 0)
(-0.164811 0.571893 0)
(-0.317932 0.291604 0)
(-0.377025 0.312252 0)
(-0.417338 0.281444 0)
(-0.57065 0.432303 0)
(-0.629289 0.610057 0)
(-0.612382 0.676022 0)
(-0.55552 0.713515 0)
(-0.511265 0.858736 0)
(-0.467162 1.0555 0)
(-0.43958 1.21448 0)
(-0.437387 1.28746 0)
(-0.438797 1.22627 0)
(-0.393447 0.995637 0)
(-0.255644 0.638854 0)
(-0.103107 0.367563 0)
(0.00178123 0.171691 0)
(0.0134722 0.111589 0)
(-0.00669934 0.120604 0)
(-0.0232022 0.151375 0)
(-0.0188307 0.182096 0)
(-0.00383702 0.182204 0)
(-0.0165289 0.121067 0)
(0.00386768 0.180889 0)
(-0.00288769 0.114888 0)
(-0.0168408 0.0636066 0)
(-0.0129123 0.095559 0)
(0.120097 0.384899 0)
(0.380547 0.838273 0)
(0.431974 1.06698 0)
(0.133594 0.989309 0)
(-0.279813 0.63554 0)
(-0.524829 0.414165 0)
(-0.664672 0.414752 0)
(-0.743022 0.490923 0)
(-0.721747 0.550557 0)
(-0.662625 0.602947 0)
(-0.606045 0.688039 0)
(-0.551345 0.788633 0)
(-0.519626 0.98168 0)
(-0.4882 1.14685 0)
(-0.463456 1.20784 0)
(-0.404513 1.13315 0)
(-0.265612 0.826581 0)
(-0.0786374 0.477829 0)
(0.0567485 0.23308 0)
(0.0814395 0.1495 0)
(0.0499798 0.139652 0)
(0.0163106 0.148898 0)
(-0.0027232 0.16187 0)
(-0.0057034 0.175483 0)
(0.00141476 0.177523 0)
(-0.0232653 0.129149 0)
(-0.0177188 0.168603 0)
(-0.0292376 0.12262 0)
(-0.0608148 0.0905761 0)
(-0.0975886 0.0818232 0)
(-0.0866907 0.161694 0)
(0.101484 0.558325 0)
(0.366339 1.09584 0)
(0.234049 1.21123 0)
(-0.140313 1.0428 0)
(-0.47347 0.717831 0)
(-0.609798 0.531497 0)
(-0.64521 0.474193 0)
(-0.620522 0.489126 0)
(-0.576677 0.53145 0)
(-0.537239 0.619078 0)
(-0.515444 0.780119 0)
(-0.494173 0.944146 0)
(-0.477158 1.12132 0)
(-0.416372 1.16794 0)
(-0.279037 1.00276 0)
(-0.081015 0.648597 0)
(0.0865651 0.312496 0)
(0.109405 0.203475 0)
(0.0723024 0.179792 0)
(0.0399274 0.172488 0)
(0.0157413 0.170732 0)
(0.00262995 0.170832 0)
(-0.00139571 0.174772 0)
(0.00311602 0.176982 0)
(-0.0157009 0.151741 0)
(-0.0203279 0.164904 0)
(-0.0323454 0.145114 0)
(-0.0609812 0.133228 0)
(-0.102738 0.129644 0)
(-0.136532 0.144081 0)
(-0.112273 0.300478 0)
(0.128999 0.972277 0)
(0.22423 1.42095 0)
(0.010159 1.31573 0)
(-0.218143 0.943203 0)
(-0.3786 0.642171 0)
(-0.426012 0.475867 0)
(-0.446766 0.464011 0)
(-0.441024 0.5067 0)
(-0.435495 0.59245 0)
(-0.435124 0.752878 0)
(-0.444325 0.957729 0)
(-0.409064 1.04405 0)
(-0.306397 1.03476 0)
(-0.109524 0.828022 0)
(0.0956143 0.44672 0)
(0.121928 0.279675 0)
(0.0835509 0.234753 0)
(0.054946 0.214464 0)
(0.0292423 0.198647 0)
(0.0116473 0.185938 0)
(0.00216015 0.177621 0)
(-0.0010904 0.175273 0)
(0.00261685 0.176301 0)
(-0.00905177 0.168959 0)
(-0.0193701 0.169336 0)
(-0.0319211 0.163913 0)
(-0.0568157 0.16635 0)
(-0.0950757 0.174242 0)
(-0.137416 0.188472 0)
(-0.171219 0.243702 0)
(-0.131933 0.714885 0)
(0.125574 1.44617 0)
(0.105174 1.446 0)
(0.0232042 1.11863 0)
(-0.121788 0.789121 0)
(-0.199863 0.537021 0)
(-0.259739 0.486545 0)
(-0.291821 0.522368 0)
(-0.318927 0.608051 0)
(-0.354506 0.764 0)
(-0.366753 0.932 0)
(-0.309791 0.990969 0)
(-0.141345 0.881448 0)
(0.075613 0.604858 0)
(0.122305 0.387228 0)
(0.0937248 0.306169 0)
(0.0698246 0.270802 0)
(0.0431131 0.24241 0)
(0.0222259 0.217664 0)
(0.00824629 0.197589 0)
(0.000291048 0.183019 0)
(-0.00214661 0.175501 0)
(0.00136663 0.174978 0)
(-0.00549054 0.182205 0)
(-0.0150433 0.178521 0)
(-0.0272252 0.181637 0)
(-0.0515567 0.19771 0)
(-0.0931756 0.22158 0)
(-0.147257 0.248253 0)
(-0.203083 0.298106 0)
(-0.227715 0.510457 0)
(-0.0659318 1.31317 0)
(0.0992655 1.40168 0)
(0.135246 1.16544 0)
(0.0845074 0.913007 0)
(0.00532517 0.634286 0)
(-0.062282 0.539986 0)
(-0.12757 0.571856 0)
(-0.194416 0.662494 0)
(-0.258932 0.802024 0)
(-0.248757 0.885049 0)
(-0.119095 0.845108 0)
(0.0475234 0.693343 0)
(0.101574 0.504382 0)
(0.10089 0.396288 0)
(0.0849818 0.340139 0)
(0.0598511 0.299138 0)
(0.037349 0.263882 0)
(0.0200821 0.233372 0)
(0.00776752 0.20774 0)
(0.00025189 0.188018 0)
(-0.00232957 0.175864 0)
(-1.1627e-05 0.173098 0)
(-0.00167637 0.189706 0)
(-0.00347618 0.186074 0)
(-0.0104806 0.198073 0)
(-0.0322136 0.230763 0)
(-0.0795408 0.277303 0)
(-0.148367 0.317789 0)
(-0.219866 0.365082 0)
(-0.257092 0.480706 0)
(-0.240345 1.05282 0)
(0.00186099 1.29285 0)
(0.129116 1.11092 0)
(0.189713 0.926861 0)
(0.163093 0.711987 0)
(0.101799 0.608721 0)
(0.0169336 0.647981 0)
(-0.0766381 0.741791 0)
(-0.110318 0.820803 0)
(-0.0577302 0.816913 0)
(0.0227444 0.723959 0)
(0.0664915 0.592326 0)
(0.0968089 0.491118 0)
(0.095622 0.419161 0)
(0.0776295 0.365406 0)
(0.0568982 0.320839 0)
(0.0384834 0.281841 0)
(0.0232162 0.247358 0)
(0.0115186 0.217524 0)
(0.00362202 0.193665 0)
(-0.000341792 0.177618 0)
(-0.000713251 0.171702 0)
(0.00409359 0.186604 0)
(0.0180001 0.182627 0)
(0.0234522 0.204793 0)
(0.015416 0.258588 0)
(-0.0338338 0.347364 0)
(-0.124475 0.398367 0)
(-0.217802 0.452888 0)
(-0.284017 0.522877 0)
(-0.313378 0.857581 0)
(-0.0852227 1.06044 0)
(0.0977922 0.937766 0)
(0.202985 0.853696 0)
(0.22996 0.733837 0)
(0.191983 0.676519 0)
(0.106589 0.732528 0)
(0.0465446 0.802544 0)
(0.0244228 0.824004 0)
(0.0206702 0.75176 0)
(0.0512294 0.65648 0)
(0.0860566 0.57123 0)
(0.0968551 0.496622 0)
(0.0910844 0.434812 0)
(0.0774077 0.383346 0)
(0.0613775 0.338386 0)
(0.0454412 0.29767 0)
(0.0309975 0.260571 0)
(0.0191997 0.227565 0)
(0.0103456 0.200635 0)
(0.00401011 0.181622 0)
(5.83832e-06 0.171998 0)
(0.0123648 0.166122 0)
(0.0524352 0.162874 0)
(0.0646401 0.209493 0)
(0.0478874 0.302671 0)
(0.0157873 0.443979 0)
(-0.0796109 0.492221 0)
(-0.176483 0.566418 0)
(-0.298025 0.619493 0)
(-0.29512 0.808806 0)
(-0.0835006 0.840018 0)
(0.0800287 0.792713 0)
(0.176491 0.769751 0)
(0.223666 0.721547 0)
(0.205178 0.730994 0)
(0.148823 0.801076 0)
(0.080705 0.843518 0)
(0.0632169 0.806263 0)
(0.0804491 0.728608 0)
(0.0928292 0.646383 0)
(0.0980515 0.569663 0)
(0.0978735 0.501253 0)
(0.0931272 0.444477 0)
(0.0838927 0.396388 0)
(0.0712413 0.35306 0)
(0.056834 0.312298 0)
(0.0424545 0.273726 0)
(0.0302179 0.238073 0)
(0.0199612 0.209398 0)
(0.010126 0.188919 0)
(0.00186311 0.175476 0)
(0.0229095 0.154755 0)
(0.0654294 0.150458 0)
(0.107982 0.229146 0)
(0.0946274 0.216246 0)
(0.0762055 0.468394 0)
(0.0672723 0.55329 0)
(0.0201197 0.629581 0)
(-0.0769455 0.647689 0)
(-0.113159 0.608462 0)
(-0.0521817 0.690016 0)
(0.0523141 0.696046 0)
(0.13577 0.706746 0)
(0.184435 0.70253 0)
(0.177024 0.772844 0)
(0.130523 0.85984 0)
(0.114993 0.840316 0)
(0.128315 0.79506 0)
(0.128881 0.732855 0)
(0.117373 0.656021 0)
(0.10662 0.57464 0)
(0.101893 0.505304 0)
(0.0986682 0.45074 0)
(0.0932091 0.405676 0)
(0.0841428 0.36522 0)
(0.0716922 0.325895 0)
(0.0572577 0.287383 0)
(0.0444797 0.249912 0)
(0.0318389 0.222574 0)
(0.0165926 0.202103 0)
(0.00365925 0.183204 0)
(0.0565781 0.0694051 0)
(0.0390312 0.027156 0)
(0.0167875 0.188634 0)
(0.0304275 0.380313 0)
(0.0975054 0.478717 0)
(0.211436 0.587558 0)
(0.286639 0.749523 0)
(0.284968 0.919347 0)
(0.196139 0.757089 0)
(0.0801887 0.607693 0)
(0.0669749 0.657325 0)
(0.112075 0.667403 0)
(0.166236 0.681475 0)
(0.168984 0.807667 0)
(0.168931 0.87056 0)
(0.186904 0.831742 0)
(0.19007 0.802483 0)
(0.170644 0.755641 0)
(0.13728 0.679381 0)
(0.111151 0.586634 0)
(0.10222 0.50996 0)
(0.101098 0.45452 0)
(0.0999531 0.410869 0)
(0.0968538 0.373609 0)
(0.0896368 0.336894 0)
(0.0767731 0.299882 0)
(0.0661143 0.26039 0)
(0.0479412 0.242 0)
(0.0201611 0.221934 0)
(0.00206193 0.192108 0)
(-0.00469263 0.0178557 0)
(-0.0621455 0.218235 0)
(-0.0977533 0.195356 0)
(-0.000666734 0.235211 0)
(0.131039 0.28775 0)
(0.282638 0.39898 0)
(0.434688 0.579326 0)
(0.577365 0.80198 0)
(0.613033 0.937802 0)
(0.478734 0.848292 0)
(0.294099 0.643038 0)
(0.173495 0.634661 0)
(0.176098 0.647122 0)
(0.206185 0.806888 0)
(0.242949 0.827137 0)
(0.264277 0.824433 0)
(0.255414 0.820453 0)
(0.220258 0.793957 0)
(0.16005 0.720099 0)
(0.105199 0.609345 0)
(0.0885181 0.513674 0)
(0.0912631 0.45468 0)
(0.0956345 0.410054 0)
(0.101535 0.373962 0)
(0.106919 0.340878 0)
(0.10642 0.306244 0)
(0.114941 0.26174 0)
(0.0759838 0.279693 0)
(0.00790375 0.244591 0)
(-0.00594791 0.188103 0)
(-0.0283207 0.0704448 0)
(-0.0767866 0.26698 0)
(-0.0874086 0.0947663 0)
(0.0149731 0.107893 0)
(0.132772 0.139907 0)
(0.26888 0.236551 0)
(0.424 0.405722 0)
(0.593459 0.640882 0)
(0.733565 0.858392 0)
(0.771056 0.964597 0)
(0.65418 0.976934 0)
(0.463439 0.739222 0)
(0.275601 0.642219 0)
(0.276981 0.773827 0)
(0.320459 0.788457 0)
(0.332778 0.821705 0)
(0.319034 0.846288 0)
(0.278813 0.851555 0)
(0.200785 0.798479 0)
(0.0816778 0.647685 0)
(0.0552515 0.513213 0)
(0.0589773 0.450505 0)
(0.0687045 0.403198 0)
(0.0823661 0.364957 0)
(0.101493 0.337267 0)
(0.11745 0.299474 0)
(0.177685 0.306073 0)
(0.107563 0.425818 0)
(0.00815916 0.391731 0)
(0.00565337 0.177518 0)
(-0.034256 0.0906658 0)
(-0.0583756 0.344962 0)
(-0.0690538 0.0218335 0)
(0.0211354 0.0128916 0)
(0.111043 0.0265645 0)
(0.21837 0.103171 0)
(0.347304 0.248952 0)
(0.498059 0.473905 0)
(0.645159 0.720519 0)
(0.76038 0.906432 0)
(0.795506 1.04647 0)
(0.728034 1.0375 0)
(0.466694 0.909771 0)
(0.383578 0.732025 0)
(0.392322 0.782444 0)
(0.382072 0.829282 0)
(0.368336 0.877685 0)
(0.339146 0.926544 0)
(0.268168 0.935529 0)
(0.0976885 0.764715 0)
(0.0104874 0.530105 0)
(0.004098 0.447162 0)
(0.0141518 0.392015 0)
(0.0375118 0.344568 0)
(0.0694883 0.311034 0)
(0.134697 0.231526 0)
(0.141943 0.218675 0)
(0.0738817 0.454232 0)
(-0.0151557 0.300402 0)
(-0.00824846 0.267151 0)
(-0.0563791 0.10768 0)
(-0.0119597 0.395556 0)
(-0.0365144 -0.0370264 0)
(0.022544 -0.0603978 0)
(0.0815996 -0.0517663 0)
(0.156022 0.00363201 0)
(0.257037 0.12222 0)
(0.391577 0.338866 0)
(0.5245 0.591859 0)
(0.653139 0.775712 0)
(0.78744 0.977971 0)
(0.835723 1.13162 0)
(0.699583 1.02501 0)
(0.47555 0.764196 0)
(0.413975 0.806749 0)
(0.391264 0.839298 0)
(0.40378 0.886014 0)
(0.372159 0.942449 0)
(0.245592 0.995792 0)
(0.0551798 0.916851 0)
(-0.0815589 0.572491 0)
(-0.0935797 0.445845 0)
(-0.0763925 0.375184 0)
(-0.0331542 0.311489 0)
(0.000374167 0.26444 0)
(0.146918 0.262354 0)
(0.0148251 0.31601 0)
(0.0426795 0.531295 0)
(0.0309107 0.5414 0)
(0.00485611 0.0218681 0)
(-0.0854495 0.116872 0)
(0.0559957 0.408647 0)
(0.0123308 -0.0498914 0)
(0.0283395 -0.102182 0)
(0.0524255 -0.0989372 0)
(0.0930629 -0.0693361 0)
(0.162049 0.0112039 0)
(0.28303 0.206998 0)
(0.435454 0.473002 0)
(0.581051 0.608331 0)
(0.77139 0.808607 0)
(0.900384 1.09634 0)
(0.867568 1.1092 0)
(0.578009 0.85924 0)
(0.405267 0.864704 0)
(0.379193 0.804136 0)
(0.34688 0.871164 0)
(0.203875 1.08422 0)
(-0.0582078 1.27129 0)
(-0.308603 1.11307 0)
(-0.510778 0.582887 0)
(-0.371967 0.473428 0)
(-0.186992 0.362728 0)
(-0.119587 0.29362 0)
(-0.0649148 0.239663 0)
(-0.128087 0.17022 0)
(-0.12913 0.377359 0)
(-0.0173921 0.388392 0)
(0.0500308 0.538709 0)
(0.0246629 0.161873 0)
(-0.110806 0.123618 0)
(0.0883421 0.367248 0)
(0.0682706 -0.015102 0)
(0.0460434 -0.102295 0)
(0.0479588 -0.115744 0)
(0.064769 -0.107358 0)
(0.10223 -0.0671435 0)
(0.187079 0.0556646 0)
(0.355963 0.307758 0)
(0.568135 0.421105 0)
(0.689957 0.602148 0)
(0.795717 0.967382 0)
(0.793692 1.25871 0)
(0.609933 1.24606 0)
(0.383417 1.06935 0)
(0.192946 0.958919 0)
(-0.0322844 1.15346 0)
(-0.302893 1.4642 0)
(-0.55817 1.64424 0)
(-0.79186 1.4422 0)
(-0.982659 0.798558 0)
(-0.902144 0.123199 0)
(-0.758752 -0.0317249 0)
(-0.53575 0.155665 0)
(-0.364322 0.166091 0)
(-0.429226 0.180198 0)
(-0.237011 0.240879 0)
(-0.0494903 0.200961 0)
(0.00275044 0.564254 0)
(-0.00256146 0.13006 0)
(-0.0530416 0.148364 0)
(0.0427291 0.221443 0)
(0.0826126 0.0115423 0)
(0.0679548 -0.083194 0)
(0.0542219 -0.112606 0)
(0.0541944 -0.121708 0)
(0.0743178 -0.108418 0)
(0.129893 -0.0510837 0)
(0.270674 0.101339 0)
(0.494544 0.211248 0)
(0.540513 0.478387 0)
(0.64086 1.1233 0)
(0.557228 1.57375 0)
(0.374813 1.58366 0)
(0.125239 1.37806 0)
(-0.160675 1.30058 0)
(-0.442104 1.42277 0)
(-0.649829 1.62782 0)
(-0.769905 1.73493 0)
(-0.879383 1.53271 0)
(-0.991198 0.87395 0)
(-0.981169 0.218519 0)
(-0.915135 -0.0512426 0)
(-0.816362 -0.0659921 0)
(-0.648822 -0.000202445 0)
(-0.458564 0.0554066 0)
(-0.229835 0.0157166 0)
(-0.0643997 0.0693993 0)
(-0.0373394 0.616922 0)
(-0.00414518 0.0895263 0)
(-0.0126927 0.178739 0)
(0.0173164 0.0933994 0)
(0.097189 -0.00136773 0)
(0.0951011 -0.0652182 0)
(0.0656619 -0.0903335 0)
(0.0400145 -0.120956 0)
(0.0447556 -0.134414 0)
(0.0851649 -0.127523 0)
(0.19224 -0.0721967 0)
(0.385197 0.0604343 0)
(0.521549 0.63888 0)
(0.401684 1.31284 0)
(0.199833 1.60568 0)
(0.0595155 1.63152 0)
(-0.128395 1.53717 0)
(-0.362085 1.48905 0)
(-0.562144 1.56446 0)
(-0.671149 1.69758 0)
(-0.696266 1.74467 0)
(-0.69185 1.525 0)
(-0.743458 0.91599 0)
(-0.748558 0.20696 0)
(-0.643617 -0.152485 0)
(-0.587614 -0.168309 0)
(-0.49696 -0.135388 0)
(-0.353346 -0.138716 0)
(-0.187835 -0.16368 0)
(-0.0758203 -0.00941202 0)
(-0.0593969 0.610735 0)
(0.0196871 0.0513876 0)
(0.0441635 0.178765 0)
(0.0808607 0.0150647 0)
(0.147949 -0.0339159 0)
(0.159158 -0.0476934 0)
(0.0885975 -0.0357533 0)
(-0.00124758 -0.101133 0)
(-0.0161175 -0.145505 0)
(0.00926669 -0.185684 0)
(0.0699926 -0.203472 0)
(0.212806 -0.102904 0)
(0.341545 0.714609 0)
(0.100756 1.36209 0)
(-0.0562588 1.66968 0)
(-0.172802 1.75289 0)
(-0.31165 1.70857 0)
(-0.455323 1.66101 0)
(-0.546206 1.67474 0)
(-0.564048 1.72761 0)
(-0.509263 1.71295 0)
(-0.421362 1.47823 0)
(-0.3891 0.924175 0)
(-0.404401 0.221791 0)
(-0.383283 -0.195034 0)
(-0.383059 -0.232603 0)
(-0.354809 -0.227113 0)
(-0.26743 -0.263464 0)
(-0.154627 -0.296928 0)
(-0.0800451 -0.050442 0)
(-0.0701048 0.567322 0)
(0.0530803 0.0265912 0)
(0.134838 0.121261 0)
(0.174874 -0.0690574 0)
(0.252637 -0.0749278 0)
(0.278793 -0.0429885 0)
(0.187566 0.103531 0)
(-0.0872576 -0.0570086 0)
(-0.124683 -0.160193 0)
(-0.0961146 -0.228272 0)
(-0.0544025 -0.281736 0)
(0.0204877 -0.208991 0)
(0.0739087 0.796334 0)
(-0.1231 1.4875 0)
(-0.239038 1.80842 0)
(-0.333912 1.88535 0)
(-0.415722 1.8337 0)
(-0.465692 1.74842 0)
(-0.457354 1.6966 0)
(-0.398192 1.69217 0)
(-0.299878 1.63342 0)
(-0.172638 1.39889 0)
(-0.0734176 0.897717 0)
(-0.0661059 0.312321 0)
(-0.128209 -0.136407 0)
(-0.194887 -0.22619 0)
(-0.21163 -0.254331 0)
(-0.190107 -0.327385 0)
(-0.136546 -0.381321 0)
(-0.094789 -0.0746559 0)
(-0.081739 0.491364 0)
(0.0869225 0.00922298 0)
(0.181074 -0.0650639 0)
(0.23116 -0.187974 0)
(0.322728 -0.141621 0)
(0.391052 -0.00113875 0)
(0.294876 0.405423 0)
(-0.130875 0.241431 0)
(-0.211443 -0.141397 0)
(-0.183027 -0.263551 0)
(-0.148642 -0.311682 0)
(-0.138989 -0.205276 0)
(-0.190295 0.907318 0)
(-0.277218 1.62939 0)