/*--------------------------------*- C++ -*----------------------------------*\
| =========                 |                                                 |
| \\      /  F ield         | OpenFOAM: The Open Source CFD Toolbox           |
|  \\    /   O peration     | Version:  v1606+                                |
|   \\  /    A nd           | Web:      www.OpenFOAM.com                      |
|    \\/     M anipulation  |                                                 |
\*---------------------------------------------------------------------------*/
FoamFile
{
    version     2.0;
    format      ascii;
    class       volVectorField;
    location    "1.63";
    object      U.particles;
}
// * * * * * * * * * * * * * * * * * * * * * * * * * * * * * * * * * * * * * //

dimensions      [0 1 -1 0 0 0 0];

internalField   nonuniform List<vector> 
6000
(
(-0.00679231 -0.417148 0)
(-0.00105006 -0.433022 0)
(0.0126093 -0.408087 0)
(0.0314413 -0.391689 0)
(0.0370721 -0.39561 0)
(0.0417254 -0.407236 0)
(0.0416426 -0.435371 0)
(0.0296961 -0.460581 0)
(0.0191502 -0.477962 0)
(0.0102716 -0.486592 0)
(-2.7008e-05 -0.481511 0)
(-0.00463213 -0.478344 0)
(-0.00895621 -0.505657 0)
(-0.0136818 -0.509815 0)
(-0.0102179 -0.508593 0)
(-0.00965437 -0.504115 0)
(-0.0191793 -0.499292 0)
(-0.0313462 -0.480545 0)
(-0.0384708 -0.456104 0)
(-0.0525789 -0.424815 0)
(-0.0821428 -0.401962 0)
(-0.105493 -0.375799 0)
(-0.106636 -0.345359 0)
(-0.0958587 -0.326879 0)
(-0.0765151 -0.32693 0)
(-0.0455747 -0.327636 0)
(-0.0202325 -0.375842 0)
(-0.00164208 -0.42465 0)
(-0.000996995 -0.45259 0)
(-0.00293185 -0.391892 0)
(0.0435175 -0.0279426 0)
(0.0427685 0.020176 0)
(0.0433139 0.016169 0)
(0.0632029 0.0121225 0)
(0.0819194 0.0274622 0)
(0.101165 0.0489067 0)
(0.119052 0.0891979 0)
(0.110255 0.108679 0)
(0.0836501 0.141586 0)
(0.0320125 0.168659 0)
(-0.00639647 0.157228 0)
(-0.00990781 0.127234 0)
(-0.00162062 0.105146 0)
(0.0027042 0.0980071 0)
(-0.00389051 0.100802 0)
(-0.0170796 0.0963279 0)
(-0.0338952 0.105387 0)
(-0.0715088 0.144678 0)
(-0.12057 0.123573 0)
(-0.165729 0.105868 0)
(-0.201578 0.0849562 0)
(-0.211489 0.045201 0)
(-0.178803 -0.00502734 0)
(-0.137672 -0.0180481 0)
(-0.0990464 -0.0294967 0)
(-0.0587906 -0.0379188 0)
(-0.0219189 -0.00681745 0)
(0.0147404 0.0334907 0)
(0.0116433 0.0161184 0)
(-0.0217868 -0.00328019 0)
(0.00946255 -0.12276 0)
(0.0292525 -0.0925343 0)
(0.0399571 -0.118211 0)
(0.0690181 -0.123943 0)
(0.0897327 -0.120395 0)
(0.121653 -0.120869 0)
(0.14326 -0.0935013 0)
(0.149006 -0.0249838 0)
(0.103605 0.05113 0)
(0.047037 0.0950406 0)
(0.0153834 0.0752175 0)
(0.00380208 0.0274413 0)
(0.0087512 0.0156366 0)
(0.0058274 0.0292358 0)
(-0.0116284 0.0443219 0)
(-0.0367351 0.0566199 0)
(-0.0502588 0.0846356 0)
(-0.0679469 0.10681 0)
(-0.132228 0.110668 0)
(-0.223465 0.0841888 0)
(-0.27771 0.0195293 0)
(-0.264741 -0.0758018 0)
(-0.206305 -0.108745 0)
(-0.148398 -0.108151 0)
(-0.0940358 -0.105783 0)
(-0.0573645 -0.105247 0)
(-0.0187066 -0.0891437 0)
(0.0226531 -0.0707347 0)
(0.0235419 0.0157398 0)
(-0.00660046 0.00598604 0)
(-0.00452296 -0.0274973 0)
(0.0186403 -0.021789 0)
(0.0201793 -0.0538047 0)
(0.0468349 -0.082357 0)
(0.0730468 -0.10935 0)
(0.117028 -0.146324 0)
(0.168439 -0.13806 0)
(0.205933 -0.064879 0)
(0.187934 0.045172 0)
(0.11136 0.115979 0)
(0.0459728 0.123012 0)
(0.0123343 0.0908699 0)
(0.00275732 0.0733879 0)
(-0.000960737 0.0767303 0)
(-0.0183889 0.0890858 0)
(-0.0457632 0.099039 0)
(-0.055042 0.117671 0)
(-0.0621974 0.142858 0)
(-0.136638 0.159683 0)
(-0.251218 0.135441 0)
(-0.308431 0.050852 0)
(-0.280507 -0.064029 0)
(-0.228481 -0.10536 0)
(-0.157538 -0.0922462 0)
(-0.099923 -0.0653649 0)
(-0.0653158 -0.0527008 0)
(-0.0274203 -0.0154629 0)
(-0.00782251 0.0473788 0)
(0.00658977 0.0980241 0)
(-0.00988428 0.0742189 0)
(-0.0106734 0.0158668 0)
(-0.00520304 0.0180054 0)
(0.00336493 -0.0370052 0)
(0.0354995 -0.0714817 0)
(0.0651744 -0.108454 0)
(0.113773 -0.170957 0)
(0.176212 -0.181412 0)
(0.224166 -0.124485 0)
(0.256865 -0.00831468 0)
(0.203162 0.0833367 0)
(0.106939 0.125749 0)
(0.0283785 0.0958832 0)
(-0.00310056 0.0654567 0)
(-0.00875894 0.0761727 0)
(-0.0206636 0.0975909 0)
(-0.0452424 0.11152 0)
(-0.058087 0.125014 0)
(-0.0682684 0.152811 0)
(-0.131571 0.172477 0)
(-0.240799 0.127446 0)
(-0.276605 0.0159185 0)
(-0.248488 -0.10084 0)
(-0.220762 -0.145403 0)
(-0.174554 -0.135976 0)
(-0.135484 -0.0840212 0)
(-0.105933 -0.0614839 0)
(-0.0756245 -0.0167097 0)
(-0.0366711 0.0808326 0)
(-0.0179029 0.157789 0)
(-0.00461691 0.121979 0)
(-0.0118675 0.0567164 0)
(-0.00571789 0.0540659 0)
(0.0171107 0.00323315 0)
(0.0423645 -0.0246627 0)
(0.0609087 -0.0815128 0)
(0.110726 -0.171022 0)
(0.158586 -0.190586 0)
(0.196022 -0.149131 0)
(0.237862 -0.0477579 0)
(0.240609 0.0328407 0)
(0.185858 0.0751015 0)
(0.10702 0.0850992 0)
(0.0297706 0.06846 0)
(-0.00146634 0.0572809 0)
(-0.017977 0.0836532 0)
(-0.0373251 0.106115 0)
(-0.0528642 0.116387 0)
(-0.0690606 0.137811 0)
(-0.121 0.156569 0)
(-0.186424 0.118131 0)
(-0.179538 0.0290224 0)
(-0.157377 -0.102596 0)
(-0.158393 -0.181862 0)
(-0.170837 -0.200126 0)
(-0.167367 -0.200426 0)
(-0.146292 -0.188545 0)
(-0.117689 -0.138625 0)
(-0.0748516 -0.00668041 0)
(-0.0400183 0.123841 0)
(-0.00193412 0.100104 0)
(-0.00449319 0.0500054 0)
(0.0279776 0.0276097 0)
(0.0709231 -0.0353781 0)
(0.0902213 -0.067122 0)
(0.0854639 -0.114802 0)
(0.113477 -0.19738 0)
(0.121004 -0.213984 0)
(0.135472 -0.172929 0)
(0.165884 -0.0728557 0)
(0.200287 -0.0143135 0)
(0.21329 0.0100991 0)
(0.18753 0.0192662 0)
(0.132722 0.0353196 0)
(0.06481 0.0432658 0)
(0.020439 0.0551197 0)
(-0.0129562 0.0761508 0)
(-0.0410657 0.0861955 0)
(-0.0743937 0.0955937 0)
(-0.113335 0.103624 0)
(-0.126112 0.0995102 0)
(-0.0991293 0.0336401 0)
(-0.0887207 -0.0942167 0)
(-0.13843 -0.209002 0)
(-0.177674 -0.272788 0)
(-0.159088 -0.317329 0)
(-0.132365 -0.324965 0)
(-0.106763 -0.305817 0)
(-0.0768206 -0.235874 0)
(-0.0419847 -0.10044 0)
(0.00451605 -0.0661658 0)
(0.0140067 -0.0568263 0)
(0.0623413 -0.125902 0)
(0.0815685 -0.197214 0)
(0.100282 -0.26291 0)
(0.123667 -0.279734 0)
(0.127677 -0.276116 0)
(0.0992734 -0.252686 0)
(0.0763846 -0.173692 0)
(0.0953769 -0.0899638 0)
(0.140593 -0.0471668 0)
(0.186723 -0.0298095 0)
(0.215321 -0.0339808 0)
(0.200271 -0.028813 0)
(0.161939 -0.00776921 0)
(0.0950645 0.0044963 0)
(0.0386578 0.00824845 0)
(-0.0146906 0.0109488 0)
(-0.0737069 0.0321152 0)
(-0.112568 0.06171 0)
(-0.100061 0.0727767 0)
(-0.0664431 0.023575 0)
(-0.0707887 -0.0937118 0)
(-0.144474 -0.19839 0)
(-0.187239 -0.281188 0)
(-0.15355 -0.341997 0)
(-0.126605 -0.361057 0)
(-0.0999316 -0.361204 0)
(-0.0728555 -0.331206 0)
(-0.0436165 -0.280417 0)
(0.0171221 -0.239132 0)
(0.0147423 -0.233372 0)
(0.0496571 -0.254256 0)
(0.0534198 -0.304849 0)
(0.0881506 -0.342121 0)
(0.126615 -0.329839 0)
(0.124944 -0.301082 0)
(0.0658837 -0.246468 0)
(0.0184275 -0.172515 0)
(0.0511458 -0.104154 0)
(0.104288 -0.0662179 0)
(0.155547 -0.0485656 0)
(0.197924 -0.0470191 0)
(0.204653 -0.0585797 0)
(0.19075 -0.0570576 0)
(0.140607 -0.0539219 0)
(0.0802246 -0.0629372 0)
(0.0281684 -0.0637279 0)
(-0.0220966 -0.0283412 0)
(-0.0736512 0.0379434 0)
(-0.0745059 0.0587239 0)
(-0.0493473 0.0308649 0)
(-0.0596812 -0.0523526 0)
(-0.110885 -0.113914 0)
(-0.137159 -0.182973 0)
(-0.130184 -0.268888 0)
(-0.124412 -0.31027 0)
(-0.105589 -0.328046 0)
(-0.0806902 -0.320929 0)
(-0.0620276 -0.284608 0)
(0.0189277 -0.260626 0)
(-0.00344437 -0.264001 0)
(0.0397228 -0.273801 0)
(0.0495615 -0.313346 0)
(0.0731284 -0.307059 0)
(0.080286 -0.27281 0)
(0.053468 -0.208987 0)
(0.00442825 -0.138881 0)
(-0.0255064 -0.116618 0)
(-0.00205672 -0.0920757 0)
(0.0572769 -0.0675677 0)
(0.111675 -0.0516586 0)
(0.15102 -0.0461517 0)
(0.168209 -0.0514996 0)
(0.162915 -0.0608174 0)
(0.137126 -0.0699371 0)
(0.10191 -0.0792866 0)
(0.0745264 -0.0736372 0)
(0.0473263 -0.0442444 0)
(0.00895803 0.0159897 0)
(-0.0248492 0.0590833 0)
(-0.0223476 0.0530479 0)
(-0.0401027 -0.00161246 0)
(-0.0905086 -0.0608547 0)
(-0.117433 -0.128861 0)
(-0.112347 -0.213611 0)
(-0.107622 -0.264544 0)
(-0.0973602 -0.288573 0)
(-0.074786 -0.295408 0)
(-0.0672664 -0.245708 0)
(-0.00639307 -0.207178 0)
(-0.0106124 -0.222532 0)
(0.0166662 -0.248622 0)
(0.0261316 -0.250745 0)
(0.0107656 -0.225973 0)
(0.00306659 -0.16591 0)
(-0.0179604 -0.122562 0)
(-0.0190113 -0.103961 0)
(-0.0363407 -0.0829722 0)
(-0.0349338 -0.0673384 0)
(0.00290672 -0.055207 0)
(0.0611583 -0.044179 0)
(0.0993949 -0.0325568 0)
(0.122972 -0.0286559 0)
(0.125771 -0.0315113 0)
(0.118897 -0.0343712 0)
(0.110282 -0.0362411 0)
(0.102329 -0.0299031 0)
(0.0946955 -0.0124783 0)
(0.0805871 0.0203686 0)
(0.0476584 0.0621701 0)
(0.0268977 0.0774437 0)
(0.0060812 0.0520512 0)
(-0.0359614 0.0100911 0)
(-0.0649442 -0.0520872 0)
(-0.0628581 -0.136555 0)
(-0.067864 -0.201776 0)
(-0.0662848 -0.239014 0)
(-0.0480997 -0.256388 0)
(-0.0517944 -0.226164 0)
(-0.0382342 -0.149024 0)
(-0.0219187 -0.180976 0)
(-0.0209798 -0.195396 0)
(-0.0252845 -0.153015 0)
(-0.0372747 -0.124268 0)
(-0.0397438 -0.0953999 0)
(-0.0363095 -0.0665289 0)
(-0.0504702 -0.0417168 0)
(-0.0661237 -0.0340452 0)
(-0.063765 -0.0308769 0)
(-0.0447488 -0.0309709 0)
(-0.0104581 -0.0281644 0)
(0.0461798 -0.0104462 0)
(0.072643 -0.00227377 0)
(0.0901136 0.00404169 0)
(0.0966797 0.00576127 0)
(0.108847 0.00702012 0)
(0.119148 0.0125778 0)
(0.125685 0.0252654 0)
(0.129726 0.052082 0)
(0.118323 0.0827134 0)
(0.0988634 0.105268 0)
(0.0712703 0.0974263 0)
(0.0325136 0.072913 0)
(-0.00790705 0.022762 0)
(-0.0130321 -0.0698013 0)
(-0.0197176 -0.146359 0)
(-0.0211207 -0.192555 0)
(-0.0096337 -0.209492 0)
(-0.00305453 -0.210261 0)
(-0.0319799 -0.122496 0)
(-0.0095514 -0.0918919 0)
(-0.00634179 -0.0936255 0)
(-0.0146427 -0.081266 0)
(-0.0204844 -0.0597152 0)
(-0.0223385 -0.0295013 0)
(-0.0290108 -0.000514833 0)
(-0.0472518 0.0204173 0)
(-0.0766326 0.0252834 0)
(-0.0970237 0.0162979 0)
(-0.0913293 0.00326899 0)
(-0.0692147 -0.00236784 0)
(-0.0308262 0.00948317 0)
(0.0292529 0.042833 0)
(0.0526617 0.0475884 0)
(0.0727109 0.0447693 0)
(0.102447 0.0455737 0)
(0.130023 0.0527191 0)
(0.149685 0.0749044 0)
(0.16021 0.0990394 0)
(0.165998 0.122267 0)
(0.162059 0.136242 0)
(0.14393 0.133471 0)
(0.0916994 0.124001 0)
(0.0443486 0.0750334 0)
(0.0382887 -0.0159241 0)
(0.0288004 -0.100411 0)
(0.0258402 -0.1533 0)
(0.0312075 -0.179576 0)
(0.0362817 -0.179044 0)
(0.0262882 -0.121871 0)
(-0.00831691 -0.0406861 0)
(0.00180797 -0.042204 0)
(0.00103954 -0.0234609 0)
(-0.00425929 -0.0028652 0)
(-0.0113785 0.0219152 0)
(-0.0198918 0.0448517 0)
(-0.031281 0.0655544 0)
(-0.0491036 0.0806545 0)
(-0.0855386 0.0776409 0)
(-0.130169 0.0498759 0)
(-0.125584 0.0371347 0)
(-0.0961819 0.0409499 0)
(-0.0266043 0.077167 0)
(0.0152383 0.0847895 0)
(0.0542386 0.0713692 0)
(0.0985889 0.0719966 0)
(0.137626 0.0916974 0)
(0.166584 0.10978 0)
(0.194716 0.133147 0)
(0.216085 0.151468 0)
(0.219733 0.1689 0)
(0.208623 0.1658 0)
(0.136542 0.162766 0)
(0.0891019 0.10492 0)
(0.0879498 0.0157813 0)
(0.0821382 -0.06997 0)
(0.0800278 -0.128754 0)
(0.0750528 -0.161498 0)
(0.0535626 -0.159682 0)
(0.0121705 -0.0863775 0)
(-0.0012117 -0.014034 0)
(-0.00378064 -0.0127912 0)
(-0.010277 0.00108962 0)
(-0.0171439 0.0189646 0)
(-0.0243875 0.0400321 0)
(-0.031405 0.0622751 0)
(-0.0392502 0.0848071 0)
(-0.048679 0.105516 0)
(-0.0616603 0.121909 0)
(-0.101136 0.114812 0)
(-0.167816 0.0838465 0)
(-0.154167 0.0808792 0)
(-0.0868795 0.103654 0)
(-0.0176294 0.1029 0)
(0.0323072 0.0862777 0)
(0.082713 0.0996289 0)
(0.133949 0.11829 0)
(0.180458 0.150572 0)
(0.208985 0.183898 0)
(0.231729 0.217962 0)
(0.259843 0.230757 0)
(0.255404 0.226704 0)
(0.185306 0.215078 0)
(0.135364 0.127802 0)
(0.135819 0.032559 0)
(0.134858 -0.0525744 0)
(0.132757 -0.116468 0)
(0.128733 -0.158588 0)
(0.098617 -0.185889 0)
(-0.0164466 -0.160836 0)
(-0.0014268 -0.00282847 0)
(-0.00867786 0.00351278 0)
(-0.018326 0.0176154 0)
(-0.0285772 0.0349464 0)
(-0.0391492 0.0546913 0)
(-0.0492967 0.0761285 0)
(-0.0588724 0.0989511 0)
(-0.0693074 0.121601 0)
(-0.0799229 0.142285 0)
(-0.0945484 0.158735 0)
(-0.139722 0.145591 0)
(-0.19712 0.121467 0)
(-0.14167 0.122815 0)
(-0.0524464 0.119307 0)
(-0.00314848 0.117607 0)
(0.0554048 0.138954 0)
(0.108844 0.17946 0)
(0.144623 0.24633 0)
(0.183319 0.303304 0)
(0.217814 0.344954 0)
(0.266037 0.357511 0)
(0.290119 0.328947 0)
(0.219579 0.262996 0)
(0.17451 0.141321 0)
(0.178671 0.0430905 0)
(0.174515 -0.0436476 0)
(0.1655 -0.110839 0)
(0.162012 -0.154546 0)
(0.0833089 -0.226543 0)
(0.00423498 -0.249459 0)
(-0.00315271 0.00368276 0)
(-0.0139673 0.0147928 0)
(-0.0259089 0.0300904 0)
(-0.0388802 0.0473042 0)
(-0.053591 0.0668082 0)
(-0.0688508 0.0882066 0)
(-0.0823377 0.11159 0)
(-0.0961936 0.134716 0)
(-0.111771 0.155064 0)
(-0.123191 0.171003 0)
(-0.140448 0.180334 0)
(-0.19072 0.160514 0)
(-0.185855 0.137801 0)
(-0.0901432 0.13698 0)
(-0.0453849 0.168009 0)
(-0.00359538 0.216608 0)
(0.0406778 0.295813 0)
(0.0955999 0.361111 0)
(0.14538 0.416393 0)
(0.188707 0.451807 0)
(0.246085 0.459168 0)
(0.281044 0.412125 0)
(0.237464 0.274501 0)
(0.210444 0.146957 0)
(0.206594 0.0466782 0)
(0.188964 -0.0463169 0)
(0.177641 -0.104453 0)
(0.113029 -0.175527 0)
(0.00168077 -0.241394 0)
(8.848e-05 -0.242432 0)
(-0.00476302 0.00783028 0)
(-0.0181739 0.0231495 0)
(-0.0316406 0.0402967 0)
(-0.0455733 0.0569858 0)
(-0.0649629 0.0763295 0)
(-0.0871141 0.0975194 0)
(-0.10677 0.122653 0)
(-0.124816 0.148121 0)
(-0.145709 0.167289 0)
(-0.161604 0.177633 0)
(-0.172141 0.179166 0)
(-0.184164 0.176767 0)
(-0.203649 0.143627 0)
(-0.126254 0.154326 0)
(-0.0892631 0.203491 0)
(-0.0486697 0.255612 0)
(0.00400928 0.312585 0)
(0.0596526 0.369379 0)
(0.106925 0.432809 0)
(0.15436 0.472257 0)
(0.217693 0.474259 0)
(0.239058 0.423372 0)
(0.243308 0.277638 0)
(0.23604 0.147137 0)
(0.20623 0.0397441 0)
(0.168707 -0.0540555 0)
(0.0943102 -0.150583 0)
(-0.0130532 -0.218155 0)
(-0.0120067 -0.208427 0)
(0.0022801 -0.20443 0)
(-0.00569814 0.0118263 0)
(-0.021602 0.0296611 0)
(-0.0346586 0.0491777 0)
(-0.0435035 0.0629365 0)
(-0.0645268 0.0854663 0)
(-0.101463 0.109595 0)
(-0.142831 0.135933 0)
(-0.170405 0.164562 0)
(-0.190324 0.181229 0)
(-0.198367 0.182104 0)
(-0.199987 0.175234 0)
(-0.204512 0.158502 0)
(-0.196879 0.139749 0)
(-0.152179 0.113529 0)
(-0.13492 0.0940825 0)
(-0.108372 0.0892187 0)
(-0.0805671 0.102285 0)
(-0.0324757 0.179967 0)
(0.0320204 0.287248 0)
(0.0921732 0.348863 0)
(0.14442 0.348665 0)
(0.147528 0.282426 0)
(0.147442 0.127771 0)
(0.181719 0.043597 0)
(0.131253 -0.0814651 0)
(0.0533481 -0.160897 0)
(-0.0117569 -0.188813 0)
(-0.0168702 -0.178579 0)
(-0.0114208 -0.169671 0)
(0.00411748 -0.163485 0)
(-0.00721066 0.0202754 0)
(-0.0214544 0.0383276 0)
(-0.0376619 0.0614536 0)
(-0.0351751 0.0697405 0)
(-0.0550431 0.0925777 0)
(-0.109746 0.0984068 0)
(-0.224465 0.149296 0)
(-0.263609 0.178296 0)
(-0.262613 0.188476 0)
(-0.232026 0.179829 0)
(-0.215693 0.163145 0)
(-0.210222 0.136555 0)
(-0.192816 0.096543 0)
(-0.202814 -0.0857741 0)
(-0.221052 -0.170723 0)
(-0.212119 -0.182325 0)
(-0.181491 -0.159401 0)
(-0.137941 -0.0924025 0)
(-0.0795758 0.0021343 0)
(-0.033605 0.0567063 0)
(0.00156279 0.0569082 0)
(0.0326793 -0.0360539 0)
(0.0431674 -0.159416 0)
(0.0411573 -0.208872 0)
(0.0237817 -0.192764 0)
(-0.00015117 -0.165515 0)
(-0.0118688 -0.151535 0)
(-0.0186675 -0.13823 0)
(-0.0142882 -0.126913 0)
(-0.000454839 -0.118653 0)
(-0.0363076 0.0299069 0)
(-0.0153711 -0.0805252 0)
(-0.045755 0.0642226 0)
(-0.0341227 -0.0137143 0)
(-0.0312544 -0.257559 0)
(-0.0293161 -0.141656 0)
(-0.147375 -0.0126329 0)
(-0.250871 0.0189796 0)
(-0.282754 0.123723 0)
(-0.24701 0.157296 0)
(-0.216716 0.144873 0)
(-0.196727 0.102209 0)
(-0.214328 -0.0565312 0)
(-0.255618 -0.182458 0)
(-0.248485 -0.208069 0)
(-0.233202 -0.210821 0)
(-0.206348 -0.199003 0)
(-0.17468 -0.169382 0)
(-0.134939 -0.114339 0)
(-0.0933523 -0.0778615 0)
(-0.0459104 -0.0853111 0)
(0.0228647 -0.14347 0)
(0.0499379 -0.17889 0)
(0.0499714 -0.178071 0)
(0.0388608 -0.148911 0)
(0.0281199 -0.128897 0)
(0.00407702 -0.11081 0)
(-0.0125109 -0.0956098 0)
(-0.0138843 -0.0855666 0)
(-0.00397255 -0.0812632 0)
(-0.0198359 -0.155142 0)
(-0.00539206 -0.176184 0)
(-0.00756264 -0.189536 0)
(-0.0266823 -0.204312 0)
(-0.049233 -0.22103 0)
(-0.0473985 -0.200367 0)
(0.0105317 -0.0509368 0)
(-0.0726023 -0.0939583 0)
(-0.156402 -0.0838296 0)
(-0.18196 -0.0116081 0)
(-0.206787 0.0750246 0)
(-0.198123 -0.024683 0)
(-0.249387 -0.120365 0)
(-0.243324 -0.129345 0)
(-0.232719 -0.150827 0)
(-0.219784 -0.160427 0)
(-0.199971 -0.155804 0)
(-0.173804 -0.135022 0)
(-0.144301 -0.0991298 0)
(-0.0976073 -0.0711785 0)
(-0.0144324 -0.0920762 0)
(0.0527047 -0.120459 0)
(0.0598308 -0.137592 0)
(0.0586026 -0.121186 0)
(0.0620262 -0.0969158 0)
(0.0414571 -0.0784874 0)
(0.013228 -0.0643155 0)
(-0.00592345 -0.0562217 0)
(-0.00878713 -0.0535947 0)
(-0.00174591 -0.0528744 0)
(-0.0226528 -0.106167 0)
(-0.0107743 -0.129942 0)
(-0.0154793 -0.139996 0)
(-0.0274158 -0.145024 0)
(-0.0495952 -0.1564 0)
(-0.0697832 -0.154685 0)
(-0.0338028 0.0190803 0)
(0.0358888 0.0334591 0)
(-0.02802 -0.0717188 0)
(-0.00362797 -0.0843684 0)
(-0.0459438 -0.131035 0)
(-0.131073 -0.108324 0)
(-0.193233 -0.0808896 0)
(-0.201275 -0.0761151 0)
(-0.200765 -0.0860705 0)
(-0.193204 -0.0974585 0)
(-0.180269 -0.0967181 0)
(-0.160581 -0.0844628 0)
(-0.134564 -0.0603266 0)
(-0.086996 -0.0385591 0)
(0.0213902 -0.0518598 0)
(0.0600968 -0.0744312 0)
(0.0665454 -0.0800816 0)
(0.0741698 -0.0592074 0)
(0.05752 -0.035631 0)
(0.0251129 -0.0238907 0)
(0.00108372 -0.0250907 0)
(-0.00861373 -0.0304918 0)
(-0.00714343 -0.0350487 0)
(0.00115335 -0.0340417 0)
(-0.019829 -0.0587894 0)
(-0.0102628 -0.0837044 0)
(-0.0153893 -0.090774 0)
(-0.0268696 -0.0881528 0)
(-0.0438551 -0.0902327 0)
(-0.0608141 -0.104838 0)
(-0.0808139 -0.0275155 0)
(0.031341 0.129547 0)
(0.0698346 0.103742 0)
(0.0819091 0.0626383 0)
(0.0634118 -0.044516 0)
(-0.0076278 -0.0648212 0)
(-0.097171 -0.0399341 0)
(-0.13701 -0.0239639 0)
(-0.150896 -0.0220442 0)
(-0.153874 -0.0266592 0)
(-0.148019 -0.0301789 0)
(-0.136316 -0.0235506 0)
(-0.114646 -0.00814785 0)
(-0.0593431 0.000438636 0)
(0.0487315 -0.00391043 0)
(0.0697143 -0.0239073 0)
(0.0775462 -0.011473 0)
(0.0505976 0.0124569 0)
(0.0109417 0.0182135 0)
(-0.00857959 0.00771451 0)
(-0.0162641 -0.00509586 0)
(-0.0158023 -0.0175915 0)
(-0.00948454 -0.0258062 0)
(0.00137096 -0.0227621 0)
(-0.00847763 -0.0276615 0)
(-0.00598916 -0.0478285 0)
(-0.0105343 -0.0522923 0)
(-0.015167 -0.0454289 0)
(-0.0259138 -0.0355753 0)
(-0.0405303 -0.0376414 0)
(-0.0631248 -0.0361589 0)
(-0.0398051 0.160086 0)
(0.0897923 0.21616 0)
(0.103805 0.182726 0)
(0.123313 0.0620271 0)
(0.0887789 0.00972499 0)
(0.0122512 0.0169549 0)
(-0.050469 0.0324676 0)
(-0.0823634 0.0417972 0)
(-0.0999111 0.0447613 0)
(-0.103358 0.0447122 0)
(-0.0963291 0.0427139 0)
(-0.0731661 0.0479821 0)
(0.003567 0.0522514 0)
(0.0716541 0.0420438 0)
(0.0853498 0.0506792 0)
(0.0384322 0.066676 0)
(-0.00544094 0.0616294 0)
(-0.0200273 0.0442581 0)
(-0.0259436 0.0253712 0)
(-0.026293 0.0064896 0)
(-0.0215359 -0.00988367 0)
(-0.0125368 -0.0205511 0)
(-0.000203321 -0.0171342 0)
(-0.00261521 -0.0143978 0)
(-0.00393261 -0.0289209 0)
(-0.00625622 -0.0311431 0)
(-0.00892964 -0.0224435 0)
(-0.01304 -0.00898353 0)
(-0.0197469 0.00644681 0)
(-0.0382073 0.0122363 0)
(-0.0874214 0.105405 0)
(0.0774933 0.272603 0)
(0.0998114 0.23715 0)
(0.152357 0.150786 0)
(0.142326 0.0993263 0)
(0.10439 0.09461 0)
(0.0402584 0.104017 0)
(-0.00410225 0.11051 0)
(-0.0329922 0.116313 0)
(-0.0487132 0.11819 0)
(-0.0455502 0.11883 0)
(-0.012183 0.117225 0)
(0.0656378 0.117473 0)
(0.0903547 0.129805 0)
(0.0264682 0.126501 0)
(-0.0169048 0.107398 0)
(-0.0267517 0.0844006 0)
(-0.0312912 0.0608351 0)
(-0.0327504 0.0373462 0)
(-0.030553 0.0154679 0)
(-0.0246029 -0.00332223 0)
(-0.0148417 -0.0158247 0)
(-0.00209364 -0.0137804 0)
(-0.000965795 -0.00881594 0)
(-0.00247802 -0.0192509 0)
(-0.00430369 -0.0195225 0)
(-0.00824614 -0.00918695 0)
(-0.0140299 0.0066063 0)
(-0.0190855 0.0269584 0)
(-0.0300995 0.0519544 0)
(-0.0494369 0.0734658 0)
(0.0113887 0.2925 0)
(0.0849161 0.263243 0)
(0.15429 0.211917 0)
(0.179242 0.184785 0)
(0.16495 0.178862 0)
(0.128219 0.18463 0)
(0.0778656 0.192233 0)
(0.0356433 0.193637 0)
(0.00918495 0.195414 0)
(0.0216165 0.195985 0)
(0.0759713 0.204462 0)
(0.0811072 0.214429 0)
(0.010768 0.185797 0)
(-0.021504 0.154822 0)
(-0.0259742 0.126794 0)
(-0.0282921 0.100073 0)
(-0.0304387 0.0735633 0)
(-0.0307953 0.0480169 0)
(-0.02861 0.0243031 0)
(-0.0234104 0.00395254 0)
(-0.0148457 -0.00982387 0)
(-0.00366917 -0.0104292 0)
(0.000414746 -0.0073407 0)
(0.00269922 -0.0165178 0)
(0.0017856 -0.015928 0)
(-0.00453265 -0.00240933 0)
(-0.0161229 0.0148053 0)
(-0.0284567 0.0363521 0)
(-0.0355621 0.0603961 0)
(-0.034584 0.0816675 0)
(-0.0645461 0.275071 0)
(0.0728619 0.276967 0)
(0.15132 0.256398 0)
(0.195616 0.25251 0)
(0.206625 0.251865 0)
(0.192252 0.260704 0)
(0.146356 0.276077 0)
(0.0990642 0.277232 0)
(0.098408 0.278275 0)
(0.0997154 0.299128 0)
(0.0554825 0.28919 0)
(-0.00843333 0.24094 0)
(-0.0195505 0.20217 0)
(-0.0172541 0.169649 0)
(-0.0160269 0.140578 0)
(-0.0174732 0.112589 0)
(-0.0196266 0.0852319 0)
(-0.0209548 0.0586711 0)
(-0.0204278 0.0337881 0)
(-0.0174291 0.0124216 0)
(-0.0117901 -0.00240625 0)
(-0.00420816 -0.00624683 0)
(0.00247923 -0.0109376 0)
(0.0121894 -0.0226695 0)
(0.0137705 -0.0234 0)
(0.00697 -0.00045291 0)
(-0.0077279 0.0222488 0)
(-0.0326657 0.0436345 0)
(-0.0505372 0.0672468 0)
(-0.0593089 0.0927118 0)
(-0.073976 0.196257 0)
(0.0740079 0.261306 0)
(0.149471 0.269363 0)
(0.197211 0.286501 0)
(0.226073 0.292716 0)
(0.228128 0.320886 0)
(0.192749 0.352107 0)
(0.17235 0.361892 0)
(0.124933 0.376483 0)
(0.0370704 0.351418 0)
(-0.00575407 0.302292 0)
(-0.00702006 0.252936 0)
(-0.00125227 0.213747 0)
(0.00366172 0.180914 0)
(0.00449159 0.151725 0)
(0.00215184 0.124079 0)
(-0.00155908 0.0966932 0)
(-0.00512832 0.0695957 0)
(-0.00726685 0.043814 0)
(-0.00738802 0.0215395 0)
(-0.00581088 0.0055159 0)
(-0.00304181 -0.00163942 0)
(0.0057237 -0.0218651 0)
(0.0260382 -0.0365977 0)
(0.0313163 -0.0398836 0)
(0.0192435 -0.0433841 0)
(0.0226657 -0.092231 0)
(0.00400808 -0.0651421 0)
(-0.0179851 0.00141555 0)
(-0.0607036 0.0407143 0)
(-0.0356778 0.196804 0)
(0.091623 0.215604 0)
(0.151105 0.247701 0)
(0.193487 0.283136 0)
(0.225657 0.306122 0)
(0.232457 0.356166 0)
(0.215421 0.408332 0)
(0.139222 0.440774 0)
(0.0675825 0.413439 0)
(0.0375656 0.364765 0)
(0.0272362 0.311435 0)
(0.026654 0.263587 0)
(0.02926 0.223178 0)
(0.0315278 0.190111 0)
(0.030973 0.161931 0)
(0.0272536 0.13539 0)
(0.0213466 0.108411 0)
(0.0148123 0.0809224 0)
(0.00957678 0.0540555 0)
(0.00590457 0.0307866 0)
(0.00255063 0.0136634 0)
(-0.000364097 0.00303313 0)
(0.0110948 -0.0375375 0)
(0.0274877 -0.081475 0)
(0.0491565 -0.153671 0)
(0.0635569 -0.485652 0)
(0.095856 -0.490727 0)
(0.135251 -0.46038 0)
(0.171758 -0.409337 0)
(0.186716 -0.329369 0)
(0.133278 -0.07879 0)
(0.11366 0.146832 0)
(0.143669 0.215969 0)
(0.183983 0.262935 0)
(0.211615 0.301852 0)
(0.210474 0.369457 0)
(0.171016 0.454879 0)
(0.12464 0.455476 0)
(0.0994482 0.420143 0)
(0.0839249 0.373424 0)
(0.0722095 0.321082 0)
(0.0638242 0.271724 0)
(0.0608132 0.230829 0)
(0.060611 0.198527 0)
(0.0594654 0.171905 0)
(0.0552798 0.14701 0)
(0.0475961 0.120716 0)
(0.0376703 0.0928347 0)
(0.0292146 0.0647357 0)
(0.0212273 0.0395645 0)
(0.0116457 0.0211173 0)
(0.00268484 0.00680515 0)
(0.0370931 -0.215176 0)
(0.0128709 -0.433091 0)
(0.0172142 -0.493954 0)
(0.0531581 -0.490476 0)
(0.0972777 -0.47346 0)
(0.147779 -0.444849 0)
(0.196553 -0.40369 0)
(0.243435 -0.353804 0)
(0.2729 -0.28957 0)
(0.198988 -0.0685277 0)
(0.169269 0.176105 0)
(0.187613 0.243546 0)
(0.21218 0.282455 0)
(0.203997 0.383932 0)
(0.181935 0.476172 0)
(0.163018 0.460523 0)
(0.150713 0.428318 0)
(0.136158 0.383529 0)
(0.11584 0.32836 0)
(0.0972318 0.276174 0)
(0.0881364 0.235519 0)
(0.0862042 0.205359 0)
(0.0859279 0.181378 0)
(0.0837515 0.158975 0)
(0.0765172 0.133803 0)
(0.0627807 0.105183 0)
(0.0511669 0.0741441 0)
(0.0368464 0.0456859 0)
(0.0190607 0.0272542 0)
(0.00435584 0.00944432 0)
(-0.0145868 -0.424459 0)
(-0.0149261 -0.443335 0)
(0.0021813 -0.462254 0)
(0.0472537 -0.461592 0)
(0.095005 -0.448152 0)
(0.146104 -0.420206 0)
(0.196585 -0.380141 0)
(0.248451 -0.327347 0)
(0.290724 -0.274679 0)
(0.325019 -0.230586 0)
(0.307176 -0.109255 0)
(0.228691 0.153221 0)
(0.221527 0.247056 0)
(0.231386 0.409026 0)
(0.224162 0.462933 0)
(0.211381 0.459102 0)
(0.204132 0.436054 0)
(0.192364 0.396102 0)
(0.161848 0.334113 0)
(0.123947 0.273345 0)
(0.106448 0.234081 0)
(0.103789 0.208427 0)
(0.10547 0.189432 0)
(0.108503 0.171008 0)
(0.107739 0.147551 0)
(0.0947556 0.117712 0)
(0.0847859 0.0810731 0)
(0.0536309 0.0512081 0)
(0.0140001 0.034745 0)
(0.00184478 0.0129865 0)
(-0.0250793 -0.381154 0)
(-0.0126235 -0.408119 0)
(-0.00687638 -0.438876 0)
(0.0361682 -0.434208 0)
(0.0841461 -0.417087 0)
(0.133904 -0.384307 0)
(0.18559 -0.341216 0)
(0.237703 -0.287362 0)
(0.280454 -0.23285 0)
(0.320101 -0.191467 0)
(0.345238 -0.142801 0)
(0.371486 -0.0853713 0)
(0.2786 0.135602 0)
(0.261506 0.430487 0)
(0.253433 0.452862 0)
(0.252033 0.457411 0)
(0.255103 0.446262 0)
(0.254909 0.419585 0)
(0.224441 0.364885 0)
(0.13534 0.258371 0)
(0.112306 0.227361 0)
(0.108907 0.207316 0)
(0.112125 0.196145 0)
(0.118717 0.183436 0)
(0.124506 0.164664 0)
(0.1153 0.130722 0)
(0.13749 0.0890683 0)
(0.0520011 -0.0495568 0)
(-0.00795324 0.0364801 0)
(0.00111596 0.0215375 0)
(-0.0396669 -0.338533 0)
(-0.0160878 -0.380122 0)
(-0.0178803 -0.413584 0)
(0.0236574 -0.410276 0)
(0.0625745 -0.395089 0)
(0.107529 -0.363083 0)
(0.157437 -0.318108 0)
(0.214334 -0.258592 0)
(0.261626 -0.197874 0)
(0.297234 -0.151131 0)
(0.32979 -0.101868 0)
(0.413212 -0.0580985 0)
(0.319276 0.218482 0)
(0.279647 0.399729 0)
(0.269855 0.445032 0)
(0.277796 0.461721 0)
(0.294727 0.466017 0)
(0.315916 0.464007 0)
(0.306098 0.446615 0)
(0.188443 0.311882 0)
(0.113262 0.215977 0)
(0.0993473 0.202604 0)
(0.103456 0.200669 0)
(0.109643 0.189653 0)
(0.115865 0.168851 0)
(0.139858 0.0995384 0)
(0.0766225 -0.218805 0)
(-0.0674308 -0.529978 0)
(-0.0322368 -0.511555 0)
(0.0140039 0.0218413 0)
(-0.0739217 -0.292702 0)
(-0.01078 -0.35883 0)
(-0.020289 -0.400492 0)
(0.00764041 -0.388815 0)
(0.0337506 -0.37261 0)
(0.0677344 -0.347523 0)
(0.111378 -0.307983 0)
(0.171857 -0.24369 0)
(0.229652 -0.171158 0)
(0.273544 -0.122573 0)
(0.332496 -0.0792561 0)
(0.422312 -0.0269325 0)
(0.418519 0.148666 0)
(0.294578 0.338397 0)
(0.270525 0.436441 0)
(0.291454 0.470831 0)
(0.334406 0.464673 0)
(0.354587 0.410721 0)
(0.317731 0.361667 0)
(0.214837 0.342811 0)
(0.0897148 0.152621 0)
(0.0658968 0.193665 0)
(0.0782579 0.196201 0)
(0.079828 0.171083 0)
(0.0713387 0.149526 0)
(0.156804 0.115187 0)
(-0.0687768 -0.453182 0)
(-0.0726469 -0.534674 0)
(-0.0186893 -0.512963 0)
(0.0193745 -0.484328 0)
(-0.114833 -0.213433 0)
(-0.00189717 -0.325968 0)
(-0.019554 -0.381928 0)
(-0.0105812 -0.371098 0)
(-0.000861959 -0.359977 0)
(0.0187631 -0.347954 0)
(0.0505282 -0.320382 0)
(0.108293 -0.250694 0)
(0.182883 -0.167655 0)
(0.252307 -0.121 0)
(0.343264 -0.083175 0)
(0.404263 -0.0359457 0)
(0.433292 -0.00212808 0)
(0.306962 0.164705 0)
(0.261813 0.40111 0)
(0.308132 0.372991 0)
(0.327032 0.297161 0)
(0.292998 0.184899 0)
(0.217342 0.118685 0)
(0.0971563 0.111419 0)
(-0.0914325 -0.136436 0)
(-0.0191493 0.133475 0)
(0.0480129 0.140407 0)
(0.033836 0.111129 0)
(0.0325124 0.0769993 0)
(-0.0786138 -0.21048 0)
(-0.125534 -0.528698 0)
(-0.0703179 -0.53146 0)
(-0.0223074 -0.496193 0)
(0.0132038 -0.442248 0)
(-0.129578 -0.123202 0)
(-0.00255709 -0.252805 0)
(-0.0249812 -0.343974 0)
(-0.0285053 -0.346441 0)
(-0.0200787 -0.350756 0)
(-0.00716727 -0.348445 0)
(0.00978243 -0.335365 0)
(0.0423611 -0.299135 0)
(0.119718 -0.202 0)
(0.239434 -0.169338 0)
(0.255193 -0.16914 0)
(0.248276 -0.178373 0)
(0.186996 -0.240679 0)
(0.11529 -0.198552 0)
(0.184695 0.0884242 0)
(0.189118 0.0743476 0)
(0.168024 0.0177293 0)
(0.114285 -0.0293951 0)
(0.0628626 -0.0540857 0)
(-0.0040794 -0.115375 0)
(-0.10793 -0.312495 0)
(-0.249492 -0.471517 0)
(-0.288606 -0.415176 0)
(-0.158094 -0.162129 0)
(-0.0644976 -0.221889 0)
(-0.20697 -0.516297 0)
(-0.117863 -0.539641 0)
(-0.0632951 -0.536121 0)
(-0.0260723 -0.488794 0)
(0.010201 -0.410561 0)
(-0.0468631 -0.0700089 0)
(-0.0119479 -0.193242 0)
(-0.0296294 -0.295137 0)
(-0.0251938 -0.320559 0)
(-0.0222422 -0.335842 0)
(-0.018485 -0.342282 0)
(-0.0115718 -0.336441 0)
(0.00238506 -0.32103 0)
(0.0501947 -0.262955 0)
(0.140854 -0.268651 0)
(-0.00844258 -0.355245 0)
(-0.0489568 -0.381104 0)
(-0.0398212 -0.321643 0)
(-0.0764218 -0.259133 0)
(-0.0191262 -0.12402 0)
(-0.0219986 -0.0922982 0)
(-0.0199267 -0.0943433 0)
(-0.0324062 -0.0817501 0)
(-0.0264137 -0.0880678 0)
(-0.015793 -0.153368 0)
(-0.060057 -0.330846 0)
(-0.160616 -0.468824 0)
(-0.235395 -0.490158 0)
(-0.25208 -0.48779 0)
(-0.230844 -0.502846 0)
(-0.18468 -0.523167 0)
(-0.110943 -0.555937 0)
(-0.0584586 -0.551061 0)
(-0.0334261 -0.489795 0)
(0.0131032 -0.395955 0)
(0.00131824 -0.0569882 0)
(-0.0031688 -0.185175 0)
(0.0148885 -0.267178 0)
(0.00858049 -0.301349 0)
(-0.0058801 -0.325743 0)
(-0.0226183 -0.338642 0)
(-0.0299912 -0.334633 0)
(-0.0276488 -0.326334 0)
(-0.00377929 -0.306096 0)
(0.0220996 -0.330909 0)
(-0.179301 -0.383069 0)
(-0.226325 -0.339407 0)
(-0.153493 -0.258473 0)
(-0.164892 -0.181316 0)
(-0.146871 -0.123305 0)
(-0.128966 -0.0844126 0)
(-0.0925994 -0.0803683 0)
(-0.0713021 -0.074518 0)
(-0.0441325 -0.085243 0)
(-0.00294928 -0.116377 0)
(-0.00813707 -0.268849 0)
(-0.0891041 -0.421213 0)
(-0.166111 -0.471516 0)
(-0.197207 -0.476016 0)
(-0.198696 -0.490989 0)
(-0.155802 -0.530425 0)
(-0.097468 -0.573002 0)
(-0.0516569 -0.575351 0)
(-0.035441 -0.503787 0)
(0.0323974 -0.389461 0)
(0.0567002 -0.074536 0)
(0.0665184 -0.203384 0)
(0.0762682 -0.264654 0)
(0.0647423 -0.296561 0)
(0.0240949 -0.322691 0)
(-0.0317675 -0.341574 0)
(-0.0575049 -0.334908 0)
(-0.0618263 -0.330848 0)
(-0.050533 -0.327683 0)
(-0.0344044 -0.353577 0)
(-0.243009 -0.301823 0)
(-0.290163 -0.175879 0)
(-0.217403 -0.135395 0)