/*--------------------------------*- C++ -*----------------------------------*\
| =========                 |                                                 |
| \\      /  F ield         | OpenFOAM: The Open Source CFD Toolbox           |
|  \\    /   O peration     | Version:  v1606+                                |
|   \\  /    A nd           | Web:      www.OpenFOAM.com                      |
|    \\/     M anipulation  |                                                 |
\*---------------------------------------------------------------------------*/
FoamFile
{
    version     2.0;
    format      ascii;
    class       volScalarField;
    location    "1.86";
    object      nut.air;
}
// * * * * * * * * * * * * * * * * * * * * * * * * * * * * * * * * * * * * * //

dimensions      [0 2 -1 0 0 0 0];

internalField   nonuniform List<scalar> 
6000
(
0.000528146
0.0048653
0.00773902
0.00843229
0.00867453
0.00878241
0.0088274
0.00884892
0.00886779
0.0088926
0.00891431
0.00892406
0.00893371
0.00893948
0.00893632
0.00894118
0.00895128
0.0089708
0.00897894
0.00897032
0.0089411
0.00890829
0.00887753
0.00884407
0.00879783
0.00869793
0.00845504
0.00774365
0.00484439
0.000527442
0.000449435
0.00312951
0.00600431
0.00773077
0.0085593
0.00895901
0.00914399
0.00926014
0.0093762
0.00949479
0.00960609
0.00969096
0.00974052
0.00977762
0.00979319
0.00981644
0.00983896
0.00984723
0.00983118
0.00976586
0.00967619
0.00954549
0.00939759
0.00924752
0.00904567
0.00867398
0.00784023
0.00609606
0.00319794
0.000442301
0.000387511
0.00273242
0.00530093
0.00710302
0.00817256
0.008798
0.00918608
0.00947416
0.00969322
0.00984983
0.0099501
0.0100624
0.0101584
0.0102197
0.0102682
0.0103008
0.0103259
0.0103271
0.0103057
0.0102446
0.0101414
0.00997209
0.00975042
0.00946325
0.00906009
0.00841486
0.00731598
0.00549146
0.00283391
0.000390174
0.000356896
0.00255447
0.00486404
0.00663507
0.00784055
0.00864466
0.00920081
0.00960089
0.0099183
0.0101713
0.0103708
0.0105312
0.0106647
0.0107589
0.0108581
0.010912
0.0109245
0.0109041
0.0108653
0.0107897
0.0106232
0.0103692
0.0100349
0.00961034
0.00904792
0.00823382
0.00697409
0.00512653
0.00270692
0.000367434
0.000335197
0.00240536
0.00453734
0.00624704
0.00754118
0.00849774
0.00921512
0.00977911
0.0102141
0.0105588
0.0108245
0.011021
0.0111793
0.011319
0.011436
0.0115192
0.011561
0.0115594
0.0115045
0.0113967
0.0111868
0.0108712
0.0104387
0.00988481
0.00915967
0.00819862
0.00685973
0.00497439
0.00261774
0.000349575
0.000311765
0.00222192
0.00422328
0.00595034
0.00740065
0.00855914
0.00947447
0.0101988
0.010745
0.0111368
0.011428
0.0116455
0.0118304
0.0120067
0.0121352
0.0122297
0.0122737
0.0122453
0.0121478
0.0119817
0.0117528
0.011447
0.0110211
0.0104127
0.00957776
0.00846774
0.0070075
0.00504315
0.00259162
0.000326434
0.00028623
0.002122
0.00415789
0.00604567
0.00767291
0.00902641
0.0100914
0.0109037
0.0115052
0.0119219
0.0121831
0.0123813
0.012564
0.0127403
0.0128595
0.0129329
0.0129482
0.0128899
0.0127769
0.0126229
0.0124512
0.0121888
0.0117614
0.0111236
0.0102346
0.00906081
0.00750601
0.00545937
0.00276101
0.000322404
0.00028645
0.00218959
0.00443751
0.00655008
0.00837809
0.00980701
0.0108993
0.0117233
0.0123619
0.0128008
0.0130548
0.0131745
0.0133187
0.0134775
0.0135774
0.0136315
0.013634
0.0135759
0.0134835
0.0134189
0.0133328
0.013121
0.0127154
0.0120485
0.0110757
0.00979255
0.00813315
0.00604019
0.00327724
0.000341344
0.000299099
0.00232606
0.00485212
0.00709897
0.0090346
0.0105678
0.0117603
0.012663
0.013346
0.0138128
0.0140803
0.0141439
0.0141653
0.0142613
0.0143435
0.0143931
0.014407
0.0143833
0.0143638
0.0144003
0.0143917
0.0142786
0.0139711
0.0132632
0.0121029
0.0106064
0.00874081
0.0064201
0.00350584
0.000395272
0.000299548
0.00232226
0.00493888
0.00728879
0.00930187
0.0109662
0.0123657
0.0135067
0.0143659
0.0149554
0.0152723
0.0153308
0.0152558
0.0152453
0.0152879
0.0153245
0.0153661
0.0153825
0.0154328
0.0155262
0.0156196
0.0156424
0.0153995
0.0146063
0.0132263
0.0113848
0.00912246
0.00638853
0.00333497
0.000401746
0.000293038
0.00241712
0.00506376
0.00745168
0.00949534
0.0112069
0.0126798
0.0139687
0.0150631
0.0158885
0.0164302
0.0166424
0.0165818
0.0164675
0.0164444
0.0164514
0.0164925
0.0165047
0.0165619
0.0167099
0.0168812
0.0169498
0.0166039
0.01565
0.014088
0.0120116
0.00940097
0.00626386
0.00302725
0.000393395
0.000288369
0.00267754
0.00542193
0.00780749
0.00981446
0.0115241
0.0129872
0.0142472
0.0153532
0.0163167
0.0170496
0.0175282
0.0177573
0.0177391
0.0176441
0.0175762
0.0175829
0.0175659
0.0176376
0.0178278
0.0179738
0.0177626
0.017054
0.0161268
0.0147245
0.0126525
0.00994051
0.00651182
0.00285534
0.000371195
0.000289311
0.00288979
0.00581992
0.00823698
0.0102406
0.0119162
0.0133531
0.014595
0.0156383
0.0165354
0.0172833
0.0179026
0.0183453
0.0185992
0.0186178
0.0185103
0.018473
0.0184558
0.018556
0.0187661
0.0186072
0.0180174
0.0173759
0.0165615
0.0152651
0.0132992
0.0106225
0.00717885
0.00313991
0.000358757
0.000296887
0.00313749
0.00625618
0.0087097
0.0106914
0.0123295
0.0137218
0.0149259
0.0159613
0.0168241
0.0175245
0.0181348
0.0186141
0.0189867
0.019162
0.0191511
0.0191044
0.0191149
0.0192655
0.0192836
0.0188153
0.018243
0.0176168
0.016864
0.0156657
0.0137979
0.0112229
0.00791375
0.00370861
0.00037046
0.000315421
0.00332266
0.00660577
0.00915187
0.0111384
0.0127578
0.0141122
0.0152655
0.0162636
0.0171242
0.0178313
0.0183961
0.0188757
0.0192353
0.01947
0.0195466
0.0195305
0.0195643
0.0196772
0.0194302
0.0189758
0.0184491
0.017819
0.017051
0.0159011
0.0141085
0.0116274
0.00842303
0.00424948
0.000404273
0.000332737
0.00345933
0.00689004
0.00956102
0.011613
0.0132503
0.0145888
0.0156879
0.0166014
0.0173783
0.0180506
0.018599
0.0190703
0.0194545
0.0197299
0.0198628
0.0198793
0.0198865
0.0198575
0.0195257
0.0190971
0.0185961
0.0179318
0.0171313
0.0160209
0.0142911
0.0118694
0.00868363
0.00451253
0.000440208
0.000342782
0.00350146
0.00711938
0.00993558
0.0120897
0.0137901
0.0151543
0.0162484
0.0171022
0.0177478
0.0182864
0.018793
0.019268
0.0196735
0.0199736
0.0201427
0.0201772
0.0201091
0.0199387
0.0195804
0.0191679
0.0186666
0.0179677
0.0171788
0.016126
0.0144417
0.0120011
0.00868677
0.00438409
0.000469193
0.000364975
0.00356371
0.00727753
0.0102449
0.0125644
0.0143815
0.0157953
0.0168998
0.0177391
0.0183279
0.0187405
0.0191321
0.0195519
0.0199369
0.0202431
0.0204331
0.0204358
0.0202576
0.0199764
0.0196357
0.0192267
0.0187083
0.0180295
0.0173304
0.0163693
0.0146645
0.0121504
0.00872724
0.00424986
0.000467297
0.000401752
0.00368018
0.00747
0.0106064
0.0130742
0.0149868
0.016476
0.0176175
0.0184632
0.0190179
0.0193645
0.0197134
0.0200435
0.0203487
0.0206275
0.0207812
0.0207242
0.0204546
0.0201001
0.0197604
0.0193528
0.0188563
0.0182965
0.0176418
0.0165197
0.0146602
0.0120615
0.00859065
0.00416828
0.000455143
0.000407317
0.00375882
0.00753379
0.0107464
0.013326
0.0153664
0.0169588
0.0181838
0.0191238
0.0197712
0.02008
0.0204114
0.0207444
0.0210029
0.0212289
0.0213147
0.0211833
0.0208466
0.0204353
0.0200518
0.0196238
0.0191408
0.0185808
0.0177021
0.0163263
0.0143855
0.0118093
0.0084054
0.00414303
0.000451461
0.000399028
0.0036762
0.00741339
0.0106393
0.0132657
0.0153777
0.017058
0.018377
0.0194311
0.0202513
0.0207384
0.0210914
0.0215117
0.0217976
0.0219687
0.0220063
0.021857
0.0215069
0.0210326
0.0205417
0.0200019
0.0193702
0.0186095
0.0175122
0.0160175
0.0140738
0.0115377
0.00824272
0.00418823
0.00045316
0.000388269
0.00348318
0.00723494
0.0104664
0.0131152
0.0152681
0.0170165
0.0184307
0.0195865
0.0205117
0.02119
0.0217051
0.0222551
0.022637
0.0228633
0.0229122
0.0227613
0.0223894
0.0218473
0.0211954
0.0203701
0.0194414
0.0184489
0.0172611
0.0157388
0.0137947
0.0113011
0.00812814
0.00424578
0.00045702
0.000382926
0.00336603
0.00703472
0.0102502
0.012928
0.0151367
0.016966
0.0184947
0.0197722
0.0207937
0.0215994
0.0223074
0.0229964
0.0234983
0.023832
0.0239726
0.0238829
0.0235378
0.0229132
0.0220267
0.0208946
0.0195831
0.0183527
0.0170791
0.0155349
0.0135956
0.0111517
0.00809366
0.0042897
0.000460023
0.000384388
0.00341604
0.0069418
0.0100881
0.0127852
0.0150537
0.0169894
0.0186596
0.0200764
0.0211966
0.0221154
0.0229412
0.0237875
0.0244516
0.0249333
0.025179
0.0251553
0.0248523
0.024223
0.0232134
0.0217918
0.0201142
0.0185238
0.0170298
0.0154224
0.0134957
0.0111082
0.00812094
0.00432508
0.000461323
0.000391561
0.00359385
0.00704575
0.0101143
0.012819
0.0151662
0.0172181
0.0190292
0.0205499
0.0217417
0.0227426
0.0236805
0.0247297
0.0255926
0.0262139
0.0265682
0.0266254
0.0263803
0.0257552
0.0246518
0.0231393
0.0212646
0.0192014
0.0172943
0.0154769
0.0135006
0.0111387
0.0081775
0.00435232
0.000462314
0.000408019
0.00387035
0.00743949
0.0104905
0.0132007
0.0156108
0.0177661
0.0196552
0.0211991
0.022408
0.0234497
0.024646
0.0258936
0.0269141
0.0276765
0.0281253
0.0282214
0.028033
0.0274724
0.0263341
0.0247033
0.0227339
0.0205177
0.0181516
0.0158953
0.0136828
0.0112274
0.00822995
0.0043728
0.000463846
0.000430422
0.00421755
0.00808086
0.0112454
0.0139837
0.0164236
0.0186168
0.0204903
0.0219826
0.0231929
0.0243927
0.0258736
0.0272535
0.0284113
0.0292759
0.0297318
0.0297568
0.0295336
0.0290188
0.0280375
0.0264032
0.0243424
0.0220288
0.0195256
0.0168726
0.014215
0.011446
0.00830234
0.00438899
0.000465697
0.000454773
0.00456541
0.00880473
0.0121924
0.015024
0.0174961
0.0196585
0.0214437
0.0228823
0.0241897
0.0257145
0.0273364
0.0287966
0.0300317
0.0308764
0.0311882
0.0311068
0.0307952
0.0302561
0.0294364
0.0279865
0.0259616
0.0235924
0.0210001
0.0181941
0.0151914
0.0119757
0.00849499
0.00442019
0.000468387
0.000481145
0.00487292
0.0095051
0.0131928
0.0161893
0.0187061
0.020794
0.0225073
0.0240034
0.0255779
0.027355
0.0290064
0.0304799
0.0316494
0.032297
0.0325
0.0324262
0.0320523
0.0314478
0.0305844
0.0292727
0.0274333
0.0251202
0.0224946
0.0195933
0.0163884
0.0128445
0.00895395
0.00454954
0.00047469
0.000507104
0.00516982
0.0101557
0.0141817
0.0174135
0.0200033
0.0220378
0.023793
0.0255052
0.0273973
0.0292316
0.0308592
0.0322145
0.033175
0.0336321
0.0338371
0.033759
0.0333448
0.032689
0.0317112
0.030418
0.0287362
0.026565
0.0239732
0.0210075
0.0176504
0.0138436
0.00958022
0.00476274
0.000488594
0.000533243
0.00536372
0.0107311
0.0151418
0.0186749
0.0213726
0.0234614
0.0254068
0.0274312
0.0294862
0.0313286
0.0328828
0.0340324
0.0347103
0.0350758
0.0352462
0.0351161
0.0346626
0.0339462
0.0328942
0.031649
0.0300548
0.0279999
0.0254546
0.0224374
0.0189359
0.014878
0.0102482
0.00500271
0.000510613
0.000572149
0.00540633
0.0111995
0.0160546
0.0199165
0.0227715
0.0250659
0.0273022
0.0296021
0.0317682
0.0336634
0.0351817
0.0361765
0.036633
0.0368737
0.0368731
0.0366347
0.0361305
0.0353546
0.0343771
0.0332159
0.0316091
0.0295738
0.0270112
0.0239025
0.0202327
0.0159189
0.0109415
0.00530104
0.000536616
0.000605766
0.0056021
0.0116075
0.0168966
0.0210859
0.0241233
0.0267257
0.0293232
0.031888
0.0342275
0.0362826
0.0379385
0.0389871
0.0393268
0.0393894
0.0391068
0.0386327
0.0380372
0.0372688
0.0363962
0.0351627
0.0334969
0.0313901
0.0286901
0.0254084
0.0215174
0.0169336
0.0116202
0.00560757
0.00056249
0.000635774
0.00597375
0.0121085
0.017616
0.0220292
0.0253608
0.0283806
0.0313975
0.0342418
0.0368393
0.0392098
0.0412123
0.0424466
0.042799
0.0426774
0.042168
0.0414225
0.0406015
0.0397553
0.0387037
0.0372252
0.0354971
0.0332514
0.0304076
0.0268928
0.0227308
0.0178682
0.0122349
0.00587236
0.000582771
0.00067387
0.00645088
0.0128455
0.0183823
0.022861
0.0265977
0.0301271
0.0335187
0.0366222
0.039519
0.0422513
0.0445213
0.0457306
0.0460229
0.0457786
0.0452056
0.0443572
0.0433078
0.0421323
0.0407435
0.0390885
0.037169
0.0348273
0.0318789
0.0281673
0.023768
0.0186533
0.0127502
0.00608769
0.000598292
0.000712318
0.00707106
0.0137821
0.0193053
0.0238984
0.0280468
0.0320214
0.0356478
0.0389602
0.0420659
0.0448889
0.0470344
0.0478786
0.0480145
0.0476514
0.0470288
0.0461379
0.0449673
0.0435817
0.0419888
0.0402247
0.0382182
0.0358203
0.0328049
0.0290275
0.0245155
0.0192372
0.0131426
0.00625952
0.000609067
0.000748542
0.00761902
0.01477
0.0204394
0.0252529
0.0297807
0.0339836
0.0377438
0.0411702
0.0442979
0.0469277
0.0485232
0.0489802
0.0489547
0.0485012
0.0478003
0.0468719
0.0456898
0.0442966
0.0427138
0.040917
0.0388107
0.0363443
0.0332878
0.0294825
0.0249459
0.0196094
0.0134064
0.00638116
0.000615067
0.000783945
0.00804224
0.0156695
0.0217034
0.0268764
0.0316415
0.0359396
0.039778
0.0431963
0.0462225
0.0485483
0.049457
0.0496643
0.0495358
0.0490472
0.0483044
0.047348
0.0461718
0.0447877
0.0431744
0.041279
0.039081
0.0365665
0.0334617
0.0296469
0.0251334
0.0197982
0.0135601
0.00645859
0.000616828
0.000811448
0.00844227
0.0165136
0.0230311
0.0285593
0.0334682
0.0378513
0.0417218
0.0450575
0.0478796
0.0496986
0.0501135
0.0502178
0.0500655
0.0495591
0.0487674
0.0477655
0.0465522
0.0451015
0.0433899
0.0414145
0.0391624
0.0365788
0.0334345
0.0296382
0.0251621
0.0198625
0.013632
0.00649907
0.000615963
0.000832128
0.00874333
0.0173093
0.0243358
0.0301717
0.03523
0.0397044
0.0435953
0.0468798
0.0493578
0.0504193
0.0506122
0.0507251
0.0505838
0.0500466
0.0491842
0.0480881
0.0467656
0.0452127
0.043416
0.0413649
0.0390633
0.0364412
0.0333012
0.0295147
0.0250773
0.0198317
0.0136486
0.00652799
0.00061389
0.000863301
0.00901795
0.0180741
0.0255782
0.0317202
0.0369646
0.0415296
0.0454013
0.0484762
0.0503729
0.0508963
0.0510644
0.0512058
0.051049
0.0504534
0.0494951
0.0482609
0.046804
0.045153
0.0432897
0.041199
0.0388669
0.0361878
0.0330546
0.0292969
0.024909
0.0197346
0.0136244
0.00655384
0.000612711
0.000903257
0.00936695
0.0188576
0.0267875
0.0332525
0.0387074
0.0433105
0.0469966
0.0496491
0.0509236
0.0513174
0.0514782
0.0516055
0.0513928
0.0507257
0.0496638
0.0483058
0.0467475
0.0450177
0.0431077
0.0409948
0.0386382
0.0358936
0.0327229
0.0290171
0.0246951
0.0195982
0.013567
0.00657241
0.000613467
0.000937401
0.00969548
0.0196204
0.0279814
0.0348134
0.0403808
0.0447702
0.0480802
0.0501739
0.0512018
0.0516165
0.0518227
0.0518924
0.0516139
0.050878
0.0497293
0.0483076
0.0466957
0.0449212
0.0429663
0.0408061
0.0383768
0.0355883
0.0323988
0.0287405
0.0244902
0.01945
0.0134821
0.00657275
0.000615487
0.000965301
0.00992173
0.0202338
0.0290393
0.0362232
0.0415798
0.0454648
0.048387
0.0502921
0.0513803
0.0518581
0.0520601
0.0520832
0.0517597
0.050976
0.0497939
0.0483411
0.0467049
0.0449054
0.042899
0.0406561
0.0381361
0.0352825
0.0320762
0.0284639
0.0242939
0.0193341
0.0134115
0.00655138
0.000615763
0.000990245
0.00996863
0.0204841
0.0295064
0.0367645
0.0418293
0.0453909
0.0481723
0.0501247
0.0512926
0.0518507
0.0521135
0.0521864
0.0518987
0.0511156
0.0499144
0.0484315
0.0467643
0.0449301
0.0428771
0.0405511
0.0379458
0.0350264
0.0317786
0.0281914
0.0241185
0.0193148
0.0134039
0.00653566
0.000610845
0.00102736
0.00970835
0.0200856
0.0291663
0.0364707
0.041463
0.0449582
0.0476975
0.0496974
0.0509495
0.0516331
0.0520138
0.052207
0.052018
0.0512792
0.0500815
0.048598
0.0469138
0.0450285
0.0429162
0.0405451
0.037913
0.0350072
0.0317817
0.0281869
0.024168
0.0193524
0.0135054
0.00653361
0.000602581
0.00107402
0.0095223
0.0193943
0.0283335
0.0356223
0.0407623
0.0443556
0.0470778
0.0491311
0.0504695
0.051295
0.0518101
0.0521495
0.0520866
0.0514379
0.0502976
0.0488572
0.04719
0.0452858
0.0431349
0.040733
0.0380736
0.0351481
0.0319216
0.0283115
0.0242416
0.0193832
0.0134974
0.00656889
0.000615883
0.00105901
0.00973763
0.0191964
0.0274911
0.0344934
0.0398264
0.0436339
0.0464125
0.0484482
0.0498352
0.0508501
0.0515228
0.0519859
0.0520333
0.0515192
0.0505109
0.0491763
0.0475871
0.0457187
0.0435644
0.0411317
0.0384285
0.0354401
0.0321321
0.0284545
0.024304
0.019435
0.0134985
0.00655853
0.000633111
0.00103073
0.00975061
0.0189144
0.0267498
0.0334363
0.0388443
0.0428434
0.0457346
0.0478601
0.0493145
0.0504071
0.0512091
0.0516933
0.0517864
0.0513953
0.0505578
0.0493925
0.0479614
0.0462252
0.0441265
0.0416646
0.0388974
0.0358575
0.0324827
0.0287248
0.0244837
0.0195267
0.0135334
0.00647916
0.000649281
0.00100439
0.00949986
0.0185266
0.0261331
0.0325559
0.0379572
0.0421698
0.045192
0.0473717
0.0488498
0.0499745
0.0507857
0.0512889
0.0513779
0.0510374
0.0503191
0.0493168
0.0480702
0.0465519
0.0446358
0.0422259
0.0394147
0.036331
0.0329084
0.0290726
0.0247283
0.0196548
0.0134733
0.00631366
0.000675322
0.000994554
0.00918375
0.0181414
0.0256636
0.0319377
0.0372437
0.0415286
0.0446745
0.0468765
0.048366
0.0494842
0.0502309
0.0506428
0.0506981
0.0504229
0.0498304
0.0489628
0.0478827
0.0465781
0.0449242
0.042691
0.0399001
0.036793
0.033338
0.0294349
0.024986
0.0197649
0.0134069
0.00621985
0.000696646
0.000984059
0.00898665
0.0178306
0.0253107
0.0314901
0.0366934
0.0409285
0.0440655
0.0462681
0.047772
0.0488139
0.0494792
0.0498123
0.049845
0.0496024
0.0491172
0.0484197
0.0474997
0.0463602
0.0449393
0.0429732
0.0403317
0.0372425
0.0337389
0.029766
0.0252254
0.0198502
0.0134303
0.00637492
0.000701404
0.000976602
0.00888292
0.0175888
0.0249894
0.031101
0.0362092
0.0403
0.0433227
0.0454828
0.0469714
0.0479388
0.0485615
0.048838
0.048859
0.0486698
0.0482895
0.0477169
0.0469558
0.0459868
0.0447518
0.0430655
0.0406982
0.0376965
0.0341178
0.0300561
0.0254581
0.0199689
0.013473
0.00649618
0.000708196
0.000974134
0.00889307
0.0174933
0.0247282
0.030723
0.0357178
0.0395864
0.0424317
0.0445262
0.0459788
0.0468976
0.0474925
0.0477464
0.0477888
0.0476632
0.0473801
0.0469304
0.0463015
0.0454732
0.0444081
0.0429743
0.0409175
0.0380961
0.0345397
0.0303918
0.0256991
0.0201252
0.0135289
0.00656152
0.000718174
0.000964331
0.00910419
0.0176021
0.0245509
0.0303366
0.0351515
0.0387762
0.04145
0.0434586
0.0448594
0.0457427
0.0463116
0.0465792
0.0466668
0.0466127
0.0464209
0.0460797
0.0455713
0.0448691
0.0439315
0.0426768
0.0408993
0.0383914
0.0350186
0.0308377
0.0260528
0.0203972
0.0136773
0.00662064
0.000733038
0.000935697
0.00931882
0.0177877
0.0243968
0.0298531
0.0344518
0.0378959
0.0404118
0.0423129
0.0436534
0.0445059
0.0450612
0.0453654
0.0455134
0.045537
0.0454337
0.0451893
0.0447849
0.0441897
0.0433628
0.0422389
0.0406818
0.0384711
0.0353901
0.0313341
0.0265475
0.0208707
0.0141061
0.00685844
0.00075953
0.000895591
0.00916647
0.0177276
0.0240315
0.0290724
0.0335355
0.0369476
0.039324
0.0411078
0.0423824
0.0432129
0.0437688
0.0441302
0.0443511
0.044456
0.0444368
0.0442777
0.0439606
0.0434541
0.0427179
0.0416903
0.0402795
0.0382808
0.0355607
0.0318348
0.027078
0.0214793
0.0148407
0.00736427
0.000785794
0.000855201
0.00873221
0.0170468
0.0232609
0.0281132
0.0323306
0.0357426
0.0381275
0.0398718
0.0410895
0.0419078
0.0424704
0.0429094
0.0432063
0.0433904
0.043446
0.0433584
0.0431114
0.0426761
0.0420112
0.0410559
0.0397238
0.0378971
0.035407
0.032033
0.0275276
0.0220536
0.0156269
0.0079489
0.000792819
0.000809806
0.00820517
0.0160623
0.0222196
0.0270511
0.0310316
0.0342637
0.0367529
0.0385031
0.0397707
0.0406291
0.0412232
0.0417348
0.0421005
0.0423521
0.0424669
0.0424337
0.0422404
0.0418591
0.0412475
0.0403431
0.0390631
0.0373234
0.034974
0.0318209
0.0277709
0.0225713
0.016184
0.00823433
0.000807545
0.000767186
0.00771267
0.015184
0.0212016
0.0259584
0.0297674
0.0328437
0.0352756
0.0371073
0.0383728
0.0393425
0.040056
0.040611
0.0410374
0.0413376
0.0414914
0.0414958
0.0413421
0.041002
0.0404298
0.0395566
0.0382987
0.0365935
0.0342875
0.0312195
0.0277935
0.0232375
0.0167538
0.00816839
0.000819051
0.000731948
0.00729861
0.0144932
0.0203959
0.0250483
0.028666
0.0315722
0.0339493
0.0358171
0.0372315
0.0382501
0.0390199
0.0395849
0.0400331
0.0403582
0.0405311
0.0405603
0.040438
0.0401327
0.0395929
0.0387374
0.0374981
0.0358033
0.0334586
0.0307514
0.0276277
0.0233308
0.0168624
0.00802998
0.000841549
0.000696942
0.00695694
0.0140438
0.0199424
0.0244857
0.0279328
0.0306984
0.0330538
0.0350273
0.0365426
0.0376121
0.0383069
0.0388102
0.0392155
0.0395068
0.0396757
0.0397168
0.0396191
0.0393408
0.0388196
0.0379695
0.0367563
0.0350449
0.0329016
0.0303581
0.0271956
0.0229454
0.0166033
0.0080757
0.000855177
0.000657785
0.00676034
0.0138417
0.0197591
0.0239981
0.0272106
0.0298337
0.0321297
0.0341053
0.0357264
0.0369753
0.0378105
0.0383389
0.0386717
0.0389044
0.0390463
0.0390897
0.038997
0.0387125
0.0381893
0.0373511
0.0360863
0.0344177
0.0322651
0.0295825
0.0265545
0.0224512
0.016313
0.00810999
0.000845767
0.000637057
0.00666329
0.0137304
0.0192848
0.0233281
0.0263408
0.0288801
0.0310905
0.0329825
0.0345797
0.0359045
0.0369507
0.0376906
0.0381505
0.0384259
0.0385891
0.0386343
0.0385092
0.0381674
0.0375561
0.0365991
0.0352352
0.0333933
0.0311387
0.0286162
0.0258293
0.0218823
0.015932
0.00798042
0.00082728
0.000626217
0.00663587
0.0135751
0.0186763
0.0224906
0.0254481
0.0279541
0.0300893
0.0318989
0.0334303
0.0347218
0.0357932
0.036638
0.0372541
0.037646
0.0378559
0.0378819
0.0376935
0.0372465
0.0364877
0.0353808
0.0339178
0.0321213
0.0300226
0.0277014
0.025104
0.0212826
0.015488
0.00777783
0.000808382
0.000621062
0.00652357
0.0130376
0.0179934
0.0216957
0.0246451
0.0271045
0.0291658
0.0308986
0.0323647
0.0336074
0.0346438
0.0354774
0.0361099
0.0365322
0.0367433
0.036737
0.0364961
0.0359892
0.0351854
0.0340722
0.0326577
0.0309624
0.0290186
0.0268744
0.0244217
0.0206905
0.0149931
0.00754469
0.000788723
0.000623991
0.00629194
0.0126047
0.0174316
0.0210747
0.0239713
0.0263592
0.0283401
0.0299938
0.03139
0.0325755
0.0335667
0.0343653
0.0349683
0.0353681
0.0355555
0.0355208
0.0352533
0.0347309
0.0339376
0.0328676
0.0315274
0.0299371
0.0281276
0.0261315
0.0237934
0.0201353
0.0144984
0.00728907
0.000769799
0.000632432
0.00615074
0.0123732
0.0170971
0.0206413
0.0234394
0.025732
0.02762
0.029185
0.030502
0.0316194
0.0325539
0.0333063
0.0338718
0.0342418
0.0344052
0.0343524
0.0340748
0.0335572
0.0327906
0.0317731
0.0305101
0.0290186
0.0273283
0.0254609
0.023227
0.0196408
0.01408
0.00710931
0.000753882
0.000634721
0.0061531
0.0123428
0.0169753
0.0203647
0.0230378
0.0252199
0.0270003
0.0284636
0.0296916
0.030732
0.031601
0.0322993
0.0328215
0.0331593
0.0333007
0.0332375
0.0329614
0.0324611
0.0317305
0.0307688
0.0295807
0.0281806
0.0265961
0.0248431
0.0227184
0.0192365
0.0137708
0.00699051
0.000740821
0.000627436
0.00614648
0.0123727
0.0169484
0.0202024
0.0227473
0.0248061
0.026464
0.0278155
0.0289478
0.0299068
0.0307057
0.0313458
0.0318226
0.0321274
0.0322484
0.0321789
0.0319105
0.0314332
0.0307417
0.0298349
0.0287162
0.0273993
0.025905
0.0242545
0.0222529
0.0189348
0.013623
0.00697406
0.000724406
0.00061609
0.00615157
0.0124158
0.0169807
0.0201357
0.0225473
0.0244668
0.0259921
0.0272262
0.0282601
0.0291365
0.0298646
0.0304458
0.030877
0.0311494
0.0312512
0.0311771
0.0309183
0.0304649
0.0298114
0.0289552
0.0278981
0.0266508
0.0252306
0.0236649
0.0217991
0.0186847
0.0135875
0.00699262
0.000694062
0.000602663
0.00616273
0.0124719
0.0170632
0.0201413
0.0224094
0.0241786
0.0255664
0.026682
0.0276192
0.0284143
0.0290732
0.029597
0.0299836
0.0302247
0.0303082
0.0302298
0.0299799
0.0295486
0.0289295
0.0281177
0.0271124
0.0259196
0.0245545
0.0230454
0.0212959
0.0183897
0.0134641
0.00679685
0.00065251
0.000592934
0.00616014
0.0125137
0.0171541
0.0201702
0.0222979
0.0239157
0.0251675
0.02617
0.0270165
0.0277338
0.0283265
0.0287955
0.0291393
0.02935
0.0294159
0.0293326
0.02909
0.0286778
0.0280881
0.0273136
0.0263499
0.0251985
0.0238692
0.0223868
0.0206953
0.0179795
0.0132417
0.00643027
0.000622845
0.00058061
0.00617447
0.0125255
0.0171998
0.0201684
0.0221715
0.0236499
0.0247758
0.0256809
0.0264428
0.0270874
0.0276182
0.028036
0.0283393
0.0285205
0.0285699
0.0284807
0.0282435
0.0278472
0.0272819
0.0265379
0.0256069
0.0244863
0.02318
0.0217055
0.0200213
0.0175034
0.0130655
0.00632394
0.000611447
0.000566677
0.0061475
0.0124575
0.0171514
0.0200875
0.0219941
0.0233507
0.0243758
0.0251998
0.0258895
0.0264676
0.0269413
0.0273118
0.0275777
0.0277313
0.027765
0.0276695
0.0274361
0.0270527
0.0265075
0.0257883
0.0248831
0.0237856
0.0224956
0.021025
0.0193302
0.0169572
0.0128152
0.00636998
0.000614727
0.000557054
0.00608064
0.0123322
0.0170112
0.0199091
0.0217397
0.0230034
0.0239547
0.0247155
0.0253442
0.0258653
0.0262886
0.0266169
0.0268487
0.0269773
0.0269963
0.026895
0.0266642
0.0262917
0.0257635
0.0250646
0.0241804
0.0231008
0.021823
0.0203599
0.0186723
0.0163481
0.0123812
0.00617268
0.00061365
0.000553295
0.00602988
0.0121818
0.016793
0.0196341
0.0213988
0.0226021
0.023506
0.0242183
0.0247985
0.0252722
0.0256531
0.0259453
0.0261475
0.0262547
0.0262601
0.026154
0.0259255
0.0255626
0.0250492
0.0243679
0.0235017
0.0224376
0.0211712
0.0197221
0.0180626
0.0157771
0.0119307
0.00593354
0.000600355
0.000545835
0.00596722
0.0120606
0.0165187
0.0192634
0.020975
0.0221449
0.0230214
0.0237005
0.0242434
0.0246817
0.0250301
0.0252935
0.0254716
0.0255606
0.0255545
0.0254447
0.0252189
0.0248647
0.0243648
0.0236994
0.02285
0.0218007
0.0205495
0.0191232
0.0175085
0.0152711
0.0115517
0.00589284
0.000585694
0.000529591
0.0058784
0.0119353
0.0161817
0.0188017
0.0204734
0.0216312
0.022496
0.0231559
0.0236753
0.0240906
0.0244174
0.0246601
0.0248198
0.0248945
0.0248794
0.0247668
0.0245438
0.0241979
0.0237102
0.0230594
0.0222261
0.0211917
0.0199598
0.0185636
0.0170011
0.014819
0.0112146
0.00583261
0.000583715
0.0005169
0.00573181
0.0117249
0.0157751
0.0182693
0.0199092
0.0210711
0.0219352
0.0225882
0.023096
0.0235
0.0238159
0.0240463
0.0241932
0.0242577
0.0242358
0.0241209
0.0239004
0.0235616
0.0230845
0.022447
0.0216288
0.0206096
0.0193993
0.0180354
0.0165327
0.0144194
0.0109234
0.00571585
0.000583807
0.000504217
0.00559307
0.0114614
0.0153266
0.0177009
0.0193095
0.0204856
0.0213553
0.0220099
0.0225147
0.0229153
0.0232285
0.0234543
0.0235946
0.0236522
0.0236255
0.0235082
0.023289
0.0229554
0.0224864
0.0218604
0.0210549
0.0200535
0.0188667
0.0175357
0.0160916
0.0140773
0.0107195
0.00559656
0.000584226
0.000490905
0.00547063
0.0111537
0.0148539
0.0171206
0.0187047
0.0198947
0.0207737
0.0214359
0.0219431
0.0223446
0.0226603
0.0228876
0.0230264
0.0230802
0.0230496
0.0229293
0.0227092
0.0223776
0.0219133
0.0212956
0.0205012
0.0195187
0.0183574
0.0170602
0.0156815
0.0138025
0.0106444
0.00560152
0.000575708
0.000478354
0.00532797
0.0107769
0.0143346
0.0165361
0.0181117
0.0193094
0.0202051
0.0208787
0.0213917
0.0217963
0.0221168
0.0223494
0.0224901
0.0225422
0.0225079
0.0223831
0.0221592
0.0218253
0.0213613
0.0207468
0.0199619
0.0189961
0.0178575
0.0165908
0.015271
0.0135693
0.0106359
0.00562753
0.000559837
0.000464143
0.00515918
0.0103696
0.0137981
0.0159608
0.0175378
0.0187433
0.0196612
0.0203483
0.0208697
0.0212785
0.0216035
0.021842
0.0219857
0.0220368
0.0219982
0.021867
0.0216357
0.0212947
0.0208256
0.0202088
0.0194283
0.018473
0.0173487
0.0161011
0.0148255
0.0132906
0.0105515
0.00562583
0.000542013
0.000449779
0.00497153
0.00994848
0.0132648
0.0154065
0.0169947
0.0182141
0.0191539
0.0198546
0.0203861
0.0207981
0.0211243
0.0213663
0.0215118
0.021561
0.0215167
0.0213765
0.0211344
0.0207814
0.0203018
0.0196778
0.0188955
0.0179432
0.0168249
0.0155832
0.0143221
0.0128936
0.0102736
0.00551279
0.000532633
0.000436002
0.00476771
0.00952883
0.0127489
0.0148909
0.0164996
0.0177372
0.0186919
0.0194092
0.0199482
0.0203594
0.0206814
0.0209216
0.0210655
0.0211102
0.0210578
0.0209062
0.0206502
0.0202814
0.0197871
0.0191518
0.0183636
0.0174117
0.0162979
0.0150563
0.0137783
0.0123752
0.00988991
0.00534043
0.000520023
0.000427257
0.00462073
0.00916072
0.0122867
0.0144326
0.016063
0.0173175
0.0182826
0.0190171
0.0195588
0.0199647
0.0202756
0.0205063
0.020643
0.0206792
0.0206163
0.0204507
0.0201786
0.0197918
0.0192802
0.0186314
0.0178361
0.0168867
0.0157841
0.0145509
0.0132497
0.0118425
0.00951498
0.00519531
0.000510318
0.000423041
0.00457656
0.00886523
0.0118922
0.0140416
0.0156885
0.0169529
0.0179253
0.0186745
0.0192155
0.0196123
0.0199051
0.0201176
0.0202402
0.0202642
0.0201878
0.0200062
0.0197168
0.0193112
0.0187813
0.0181181
0.0173157
0.0163715
0.0152873
0.0140745
0.0127647
0.0113443
0.00919419
0.005176
0.000508727
0.000421299
0.0044781
0.00860359
0.0115593
0.0137102
0.0153675
0.0166357
0.0176121
0.0183698
0.0189112
0.0192957
0.0195644
0.0197515
0.0198543
0.019862
0.0197696
0.0195712
0.0192641
0.0188401
0.0182921
0.0176144
0.0168043
0.0158658
0.0148012
0.0136131
0.0123104
0.0108868
0.00886333
0.0051686
0.000505701
0.000417309
0.00431424
0.00834278
0.0112745
0.0134315
0.0150902
0.0163534
0.0173293
0.0180885
0.0186312
0.0190021
0.0192435
0.0194016
0.0194814
0.0194705
0.0193607
0.0191455
0.0188212
0.0183804
0.0178157
0.017124
0.0163052
0.0153702
0.0143226
0.0131577
0.0118652
0.0104309
0.00847722
0.00501082
0.000498133
0.000408595
0.00417784
0.00811735
0.0110417
0.0131945
0.0148365
0.0160862
0.0170567
0.0178108
0.0183513
0.0187092
0.0189259
0.0190579
0.019116
0.0190864
0.0189592
0.0187285
0.018389
0.0179339
0.0173555
0.0166508
0.0158231
0.0148878
0.0138526
0.0127084
0.0114295
0.00997926
0.00805176
0.0047626
0.000492337
0.000407884
0.00407127
0.00793102
0.0108365
0.0129627
0.0145796
0.0158139
0.0167684
0.0175086
0.0180397
0.0183876
0.0185906
0.0187076
0.0187495
0.018704
0.0185616
0.0183176
0.0179664
0.0175009
0.016913
0.0161982
0.0153622
0.0144226
0.0133928
0.012264
0.0110005
0.0095379
0.00762143
0.00448494
0.00048779
0.00040222
0.00398946
0.00774104
0.0105868
0.0126692
0.0142732
0.0155036
0.0164423
0.0171565
0.017678
0.0180201
0.0182221
0.0183377
0.0183724
0.0183148
0.0181614
0.0179078
0.0175498
0.0170791
0.0164873
0.0157669
0.0149248
0.0139789
0.012947
0.0118244
0.0105707
0.00909841
0.00719084
0.00419971
0.000472735
0.000392342
0.00386545
0.007479
0.010231
0.0122809
0.0138882
0.0151324
0.0160688
0.016757
0.0172659
0.0176069
0.0178194
0.0179395
0.0179752
0.0179098
0.0177495
0.0174918
0.0171332
0.0166637
0.0160737
0.0153538
0.0145104
0.0135599
0.0125226
0.0113979
0.0101479
0.00867894
0.00679185
0.0039407
0.000459175
0.000378024
0.00366984
0.00710925
0.00977019
0.0118055
0.013437
0.0147214
0.0156643
0.0163324
0.0168245
0.0171595
0.0173852
0.0175098
0.0175467
0.0174787
0.0173162
0.0170614
0.0167083
0.0162462
0.0156636
0.014951
0.0141129
0.0131648
0.0121246
0.0109922
0.00973807
0.00827501
0.00641059
0.00370096
0.00044284
0.000358251
0.00340162
0.00665596
0.00925382
0.0113166
0.0129914
0.0142959
0.0152352
0.0158856
0.016355
0.0166846
0.0169131
0.0170399
0.0170762
0.0170114