/*--------------------------------*- C++ -*----------------------------------*\
| =========                 |                                                 |
| \\      /  F ield         | OpenFOAM: The Open Source CFD Toolbox           |
|  \\    /   O peration     | Version:  v1606+                                |
|   \\  /    A nd           | Web:      www.OpenFOAM.com                      |
|    \\/     M anipulation  |                                                 |
\*---------------------------------------------------------------------------*/
FoamFile
{
    version     2.0;
    format      ascii;
    class       surfaceScalarField;
    location    "1.86";
    object      phi.particles;
}
// * * * * * * * * * * * * * * * * * * * * * * * * * * * * * * * * * * * * * //

dimensions      [0 3 -1 0 0 0 0];

internalField   nonuniform List<scalar> 
11770
(
-4.00252e-06
-2.13133e-05
-5.01673e-06
-2.19181e-05
-5.35383e-06
-2.084e-05
-5.77531e-06
-1.98461e-05
-6.10743e-06
-1.84683e-05
-6.21697e-06
-1.85713e-05
-5.50499e-06
-2.01175e-05
-4.01627e-06
-2.25276e-05
-2.45683e-06
-2.43847e-05
-9.31486e-07
-2.32618e-05
6.0437e-08
-2.36418e-05
2.21294e-07
-2.4179e-05
5.48587e-08
-2.35753e-05
-3.64524e-08
-2.48338e-05
1.29336e-08
-2.54933e-05
4.66701e-08
-2.53359e-05
1.7105e-07
-2.46307e-05
6.97877e-07
-2.36463e-05
1.59422e-06
-2.32877e-05
2.96337e-06
-2.32135e-05
4.59039e-06
-2.31695e-05
6.22943e-06
-2.39138e-05
7.6402e-06
-2.42896e-05
8.21212e-06
-2.39228e-05
8.04517e-06
-2.2954e-05
7.39871e-06
-2.20898e-05
6.65289e-06
-2.15635e-05
5.63125e-06
-2.16912e-05
3.90167e-06
-2.40699e-05
-2.4356e-05
1.99364e-06
-2.56816e-06
-1.50589e-06
2.55218e-06
-4.74396e-06
2.1866e-06
-7.03511e-06
1.34099e-06
-8.44603e-06
6.95146e-07
-8.10702e-06
-2.01081e-07
-5.92105e-06
-2.55119e-06
-2.60997e-06
-4.79939e-06
5.10252e-07
-4.99462e-06
1.71965e-06
-2.53125e-06
6.69711e-07
-9.58614e-07
-2.19988e-07
-1.4651e-06
-1.56962e-07
-3.70178e-06
-2.68179e-07
-4.46997e-06
-9.55726e-07
-3.18624e-06
-2.54088e-06
-1.45844e-06
-4.02882e-06
-1.90419e-06
-4.15826e-06
-3.30723e-06
-2.94657e-06
-4.77081e-06
-7.87455e-07
-5.91497e-06
1.86933e-06
-5.50738e-06
5.00992e-06
-4.85655e-06
8.13888e-06
-4.06103e-06
1.04856e-05
-3.34126e-06
1.19523e-05
-2.37718e-06
1.22796e-05
-4.7096e-07
1.0781e-05
8.89123e-07
6.58442e-06
1.84295e-06
8.69214e-07
1.91868e-06
-3.26205e-06
-9.90442e-07
-2.02935e-06
-2.44969e-06
7.49387e-07
-4.17594e-06
-3.4026e-07
-4.99058e-06
-7.26238e-07
-5.35967e-06
-2.59203e-07
-5.0155e-06
-6.94988e-07
-3.99065e-06
-3.06262e-06
-2.36394e-06
-4.37402e-06
5.94783e-07
-5.25247e-06
3.19016e-06
-4.97012e-06
3.38862e-06
-2.65553e-06
2.154e-06
-3.53349e-06
5.554e-07
-6.86467e-06
-1.20283e-06
-8.02312e-06
-3.24465e-06
-7.0103e-06
-5.36844e-06
-5.15587e-06
-6.60102e-06
-5.17277e-06
-6.03811e-06
-6.85504e-06
-4.52207e-06
-7.33105e-06
-3.37914e-06
-6.30696e-06
-2.53634e-06
-4.74882e-06
-1.24312e-06
-3.50152e-06
7.54124e-07
-2.69153e-06
3.45514e-06
-2.3853e-06
7.06111e-06
-1.50847e-06
9.22957e-06
1.42476e-06
8.04319e-06
3.57476e-06
5.16317e-06
5.67153e-06
2.21049e-06
5.61195e-06
3.66457e-06
-8.24112e-07
3.78243e-06
-1.45687e-06
5.56804e-06
-1.94206e-06
5.53511e-06
-1.58013e-06
5.37756e-06
-5.46783e-07
4.78973e-06
1.8996e-06
4.78254e-06
4.1165e-06
3.93179e-06
3.79213e-06
4.05318e-06
2.95e-06
3.23751e-06
3.58397e-06
1.73669e-06
3.86163e-06
2.33239e-06
2.36214e-06
2.01928e-06
-1.65599e-07
-3.17576e-07
-3.02093e-06
-2.09537e-06
-5.02308e-06
-2.17478e-06
-6.13555e-06
-1.27281e-06
-6.84104e-06
-1.2456e-06
-6.47812e-06
-2.43899e-06
-5.77277e-06
-2.20777e-06
-5.59192e-06
-5.28816e-07
-5.59745e-06
1.58409e-06
-6.05192e-06
3.07701e-06
-6.64831e-06
3.10154e-06
-6.39787e-06
2.09015e-06
-3.56344e-06
1.38176e-06
1.26542e-06
2.46641e-06
4.50018e-06
4.91385e-06
4.74051e-06
1.02975e-05
2.09507e-06
1.42449e-05
1.26374e-05
4.42237e-07
1.01727e-05
1.35636e-06
1.18561e-05
2.77227e-06
1.1636e-05
4.95353e-06
9.22433e-06
8.12185e-06
7.27192e-06
1.00161e-05
7.40106e-06
8.75206e-06
7.42567e-06
6.18676e-06
7.93707e-06
3.8228e-06
8.06951e-06
2.64613e-06
7.59493e-06
2.50854e-06
6.98117e-06
1.8289e-06
6.50894e-06
7.4351e-07
4.06391e-06
-6.16905e-07
2.25419e-06
-2.6204e-06
2.07084e-06
-4.19023e-06
2.57955e-06
-4.07855e-06
2.21113e-06
-2.46451e-06
7.15863e-07
-9.58395e-07
1.13097e-06
9.9417e-08
3.82953e-06
4.50409e-07
6.7401e-06
-3.34078e-07
7.39975e-06
-1.66994e-06
6.34093e-06
-2.97911e-06
4.60931e-06
-3.73541e-06
2.93946e-06
-2.09698e-06
2.8975e-06
1.53783e-06
4.85646e-06
3.24402e-06
1.04878e-05
1.12091e-06
2.22833e-05
2.06749e-05
1.41285e-06
1.43447e-05
3.75272e-06
1.47723e-05
7.07978e-06
1.25948e-05
1.00653e-05
8.50598e-06
1.0353e-05
7.73003e-06
8.20826e-06
8.88494e-06
5.67576e-06
9.34072e-06
3.71247e-06
1.0109e-05
1.67689e-06
1.09401e-05
-5.4208e-07
1.16854e-05
-1.59975e-06
1.15538e-05
-1.29652e-06
1.04892e-05
-3.55036e-07
8.26717e-06
1.20277e-07
6.57978e-06
-5.28619e-07
6.53209e-06
-1.05354e-06
7.29972e-06
2.8475e-07
6.55783e-06
3.11961e-06
4.31601e-06
4.82025e-06
5.38783e-06
5.04403e-06
9.19225e-06
4.09491e-06
1.05027e-05
2.62059e-06
9.91566e-06
1.60099e-06
8.34773e-06
7.80618e-07
6.46913e-06
4.24775e-08
4.85436e-06
-3.26346e-07
4.24456e-06
8.12432e-07
5.51128e-06
1.3574e-06
1.03583e-05
4.05004e-07
2.21119e-05
2.32736e-05
1.78491e-06
6.24726e-06
5.56856e-06
5.02934e-06
8.93129e-06
1.9871e-06
9.42743e-06
8.03219e-07
7.86075e-06
2.42671e-06
5.4316e-06
6.72045e-06
2.71656e-06
8.98357e-06
-7.2165e-08
1.04251e-05
-2.48633e-06
1.15163e-05
-4.36107e-06
1.2997e-05
-5.97378e-06
1.40873e-05
-6.13784e-06
1.39748e-05
-3.83773e-06
1.20861e-05
-5.87931e-07
9.88446e-06
1.64045e-06
9.57671e-06
3.16774e-06
1.10481e-05
5.91946e-06
1.0698e-05
8.96716e-06
7.83181e-06
9.94073e-06
9.78665e-06
9.27492e-06
1.20603e-05
8.26656e-06
1.21026e-05
6.63355e-06
1.12313e-05
4.48539e-06
9.72357e-06
2.36418e-06
7.54808e-06
7.05527e-07
5.62433e-06
-2.507e-07
4.87387e-06
-4.85596e-07
5.53881e-06
-3.76375e-07
9.70999e-06
2.95157e-07
1.08822e-05
1.38554e-05
2.02638e-06
-1.0961e-05
4.27215e-06
-1.15931e-05
6.41437e-06
-1.42295e-05
6.91596e-06
-1.45608e-05
4.95581e-06
-1.30806e-05
1.90704e-06
-8.54044e-06
-1.13315e-06
1.05989e-06
-3.58521e-06
7.46622e-06
-5.83338e-06
1.0618e-05
-7.75208e-06
1.29441e-05
-8.8766e-06
1.48266e-05
-1.00474e-05
1.61649e-05
-7.95944e-06
1.55357e-05
-2.62893e-06
1.25354e-05
2.50247e-06
1.09261e-05
7.0547e-06
1.28534e-05
1.17684e-05
1.29129e-05
1.44351e-05
1.06558e-05
1.46736e-05
1.12726e-05
1.44215e-05
1.23678e-05
1.28504e-05
1.27096e-05
1.04447e-05
1.207e-05
7.3385e-06
1.07348e-05
4.13317e-06
8.12135e-06
1.30704e-06
5.07292e-06
-1.21358e-06
7.70418e-07
-3.13916e-06
-2.97744e-06
-2.23656e-06
-8.86352e-06
1.07548e-06
-9.02043e-06
-6.38404e-06
2.46491e-06
-1.95183e-05
2.90966e-06
-1.85609e-05
2.63698e-06
-2.12112e-05
1.70572e-06
-2.21407e-05
1.12254e-06
-2.27575e-05
5.45494e-07
-2.2314e-05
-1.83639e-06
-1.51487e-05
-4.65562e-06
-7.89798e-06
-7.43211e-06
2.7226e-06
-9.83628e-06
9.84413e-06
-1.14893e-05
1.4807e-05
-1.25303e-05
1.761e-05
-1.05147e-05
1.84976e-05
-4.71044e-06
1.48039e-05
2.31538e-06
1.07228e-05
9.58539e-06
1.21285e-05
1.59481e-05
1.15765e-05
1.92791e-05
1.04981e-05
1.96731e-05
9.92042e-06
1.87857e-05
1.19456e-05
1.69919e-05
1.29563e-05
1.41274e-05
1.31754e-05
1.00157e-05
1.23163e-05
4.78368e-06
2.47761e-06
-6.99759e-07
-9.68829e-06
-3.72379e-06
-1.50626e-05
-3.21092e-06
-1.89736e-05
-2.61806e-06
-2.53839e-05
-1.28457e-06
-1.93695e-05
-1.72517e-05
1.76262e-06
-1.6508e-05
1.14426e-06
-1.56113e-05
-7.78674e-07
-1.72112e-05
-1.53601e-06
-1.81279e-05
-8.91287e-07
-1.95871e-05
5.13828e-07
-2.0845e-05
1.99969e-06
-2.19782e-05
6.43254e-07
-2.16565e-05
-3.18413e-06
-1.47177e-05
-7.38742e-06
-6.04339e-06
-1.09025e-05
4.30167e-06
-1.26429e-05
1.20897e-05
-1.10902e-05
1.67443e-05
-5.46284e-06
1.50973e-05
1.95831e-06
9.06637e-06
9.93738e-06
7.57741e-06
1.7535e-05
6.08283e-06
2.1287e-05
6.56795e-06
2.20048e-05
8.26381e-06
2.18409e-05
1.11784e-05
2.13409e-05
1.36336e-05
1.68433e-05
1.19669e-05
6.299e-06
3.64102e-06
-3.16262e-06
-1.29358e-05
-5.71463e-06
-2.43702e-05
-5.06171e-06
-2.50544e-05
-4.10625e-06
-2.30409e-05
-3.77194e-06
-2.14742e-05
-2.62559e-06
-1.59982e-05
-1.20625e-05
7.75648e-07
-9.65692e-06
-1.40699e-06
-8.55177e-06
-3.48687e-06
-9.34554e-06
-4.52376e-06
-1.14948e-05
-4.01818e-06
-1.36154e-05
-2.4381e-06
-1.55775e-05
-2.51307e-07
-1.7682e-05
2.64753e-06
-2.0294e-05
5.68071e-06
-2.21161e-05
6.48376e-06
-1.90033e-05
2.76659e-06
-1.08807e-05
-2.71618e-06
-2.54257e-06
-5.77447e-06
5.07403e-06
-3.8272e-06
7.75471e-06
2.65607e-06
3.6673e-06
9.64966e-06
3.09445e-07
1.70564e-05
-1.13585e-06
2.15802e-05
2.20559e-07
2.24451e-05
5.73945e-06
2.32497e-05
1.03572e-05
1.85921e-05
9.84308e-06
5.0016e-06
4.54063e-06
-2.90267e-06
-5.74446e-06
-2.59131e-06
-1.96048e-05
-2.94141e-06
-2.34252e-05
-3.35965e-06
-2.17082e-05
-3.26415e-06
-1.72849e-05
-3.70995e-06
-1.38374e-05
-3.81611e-06
-8.8947e-06
-3.95086e-06
6.64171e-07
-2.66986e-06
-3.51769e-06
4.22667e-07
-6.32556e-06
-2.54409e-07
-7.23299e-06
-3.27921e-06
-6.9675e-06
-6.43396e-06
-5.76779e-06
-9.27001e-06
-3.61724e-06
-1.21728e-05
-1.10883e-06
-1.55819e-05
2.04589e-06
-1.78467e-05
8.01514e-06
-1.78114e-05
1.20981e-05
-1.37664e-05
1.18445e-05
-1.06457e-05
9.30375e-06
-6.33688e-06
6.08303e-06
-3.66337e-06
6.70118e-06
-4.72404e-06
1.04352e-05
-6.46721e-06
1.59449e-05
-6.64985e-06
1.93621e-05
-6.35098e-06
2.04236e-05
2.33635e-06
1.63637e-05
3.71475e-06
4.69856e-06
3.20232e-06
-2.50839e-06
2.04007e-08
4.03452e-07
-3.37545e-06
2.3236e-06
-1.63612e-05
7.19894e-07
-2.05596e-05
-3.58866e-07
-1.71953e-05
-1.37581e-06
-1.12715e-05
-3.12166e-06
-6.34528e-06
-4.28958e-06
-1.64617e-06
1.2992e-06
2.16637e-06
2.63977e-06
-2.50109e-06
6.85993e-06
-7.52846e-06
8.12547e-06
-9.79112e-06
5.58541e-06
-9.63526e-06
1.2389e-06
-8.69753e-06
-2.41626e-06
-7.13806e-06
-5.67312e-06
-4.77757e-06
-9.37023e-06
-1.45365e-06
-1.3056e-05
4.56627e-06
-1.46609e-05
1.0283e-05
-9.48805e-06
1.41771e-05
-7.80122e-06
1.6423e-05
-7.26101e-06
1.56056e-05
-7.47431e-06
1.31963e-05
-9.37687e-06
1.23656e-05
-1.00759e-05
1.53378e-05
-9.25052e-06
1.6232e-05
-9.55678e-06
1.10824e-05
-4.49996e-06
3.0072e-06
-2.82118e-06
-1.00177e-06
9.68049e-07
1.43464e-06
2.39478e-06
5.96059e-06
1.13509e-06
6.7228e-06
-1.1651e-05
4.61263e-06
-1.64501e-05
3.35885e-06
-1.23524e-05
1.86582e-06
-6.99251e-06
-6.36994e-07
-1.97589e-06
-3.51092e-06
2.34416e-06
3.67521e-06
8.8167e-07
4.39036e-06
-1.50998e-06
9.5053e-06
-5.49311e-06
1.21927e-05
-9.84388e-06
1.1486e-05
-1.12807e-05
8.01078e-06
-1.05626e-05
3.76669e-06
-9.42182e-06
3.64034e-07
-7.89375e-06
-2.88432e-06
-5.18062e-06
-6.83329e-06
-1.89941e-07
-9.41167e-06
5.52774e-06
-5.04196e-06
1.09764e-05
-2.73797e-06
1.59664e-05
-3.19829e-06
1.80675e-05
-4.20679e-06
1.66462e-05
-7.82605e-06
1.43972e-05
-9.21874e-06
1.40015e-05
-8.3055e-06
9.7188e-06
-8.43039e-06
1.6601e-06
-7.48638e-06
-1.41781e-06
-1.80418e-06
1.07466e-06
1.27967e-06
6.53032e-06
5.1517e-06
1.20685e-05
4.13306e-06
1.14562e-05
-6.10457e-06
7.69011e-06
-1.13145e-05
5.83293e-06
-8.65507e-06
3.97554e-06
-4.89356e-06
1.84932e-06
-2.30134e-07
-3.45146e-07
3.93768e-06
3.84503e-06
-7.23219e-07
4.5732e-06
-2.90088e-06
1.083e-05
-5.25274e-06
1.38239e-05
-7.76898e-06
1.37952e-05
-1.00606e-05
1.14106e-05
-1.09705e-05
7.52701e-06
-1.05447e-05
4.29304e-06
-9.88017e-06
1.89425e-06
-8.64783e-06
-7.87518e-07
-5.62725e-06
-3.35219e-06
1.15293e-06
-1.985e-06
7.5746e-06
2.23178e-06
1.27721e-05
1.25808e-06
1.73582e-05
1.27278e-07
1.75821e-05
-3.93334e-06
1.48341e-05
-5.17535e-06
1.06878e-05
-4.72103e-06
2.0219e-06
-5.65245e-06
-3.57354e-06
-4.0209e-06
-1.43188e-06
1.14872e-06
2.40914e-06
1.91588e-06
1.02474e-05
6.59895e-06
1.77457e-05
6.81923e-06
1.68025e-05
3.55409e-08
1.20025e-05
-6.60836e-06
9.26797e-06
-6.92197e-06
6.12144e-06
-4.37457e-06
3.00153e-06
8.03487e-09
1.16803e-06
2.55758e-06
-1.39393e-06
-1.69517e-06
4.58981e-06
-3.70413e-06
1.18397e-05
-5.7352e-06
1.51282e-05
-7.5038e-06
1.50012e-05
-8.72743e-06
1.22367e-05
-9.41275e-06
8.56285e-06
-9.7297e-06
5.70006e-06
-1.01107e-05
3.90447e-06
-1.03901e-05
2.39641e-06
-9.39344e-06
8.08644e-07
-4.11764e-06
2.678e-07
2.87546e-06
6.42241e-06
9.58538e-06
5.52643e-06
1.59122e-05
3.10856e-06
1.7997e-05
9.20007e-07
1.54191e-05
1.44273e-06
7.79213e-06
2.13869e-06
-3.19393e-06
1.00365e-07
-5.66745e-06
-1.57996e-07
-7.97824e-07
3.6503e-06
3.56738e-06
3.82225e-06
1.36013e-05
7.87746e-06
2.29655e-05
9.29963e-06
2.28462e-05
5.2747e-06
1.73628e-05
-2.4574e-06
1.22454e-05
-6.49547e-06
7.86982e-06
-7.09418e-06
3.49328e-06
-6.74666e-06
1.81867e-06
-1.30022e-05
-1.7974e-05
-2.34197e-06
3.3994e-06
-4.02074e-06
1.11652e-05
-5.15025e-06
1.4989e-05
-5.98528e-06
1.50044e-05
-6.73008e-06
1.16192e-05
-7.49287e-06
7.90559e-06
-8.22247e-06
5.471e-06
-8.87165e-06
4.20621e-06
-9.52467e-06
3.38608e-06
-9.84561e-06
2.30531e-06
-8.1438e-06
1.50485e-06
-2.29472e-06
6.50196e-06
6.86845e-06
7.5866e-06
1.39502e-05
7.54109e-06
1.45352e-05
8.52025e-06
9.60632e-06
9.951e-06
1.07675e-06
1.00318e-05
-7.99453e-06
7.83939e-06
-6.98784e-06
6.24114e-06
-5.36047e-07
5.16626e-06
5.31601e-06
6.57e-06
1.65413e-05
9.58847e-06
2.62009e-05
9.48262e-06
2.76329e-05
4.75121e-06
2.12599e-05
-6.63227e-06
1.20774e-05
-1.30667e-05
4.61482e-06
-2.00761e-05
-3.38865e-07
-2.22203e-05
-7.12504e-07
-2.86852e-05
-3.08353e-05
-2.68619e-06
-5.27388e-06
-3.74439e-06
-9.42562e-06
-3.21325e-06
-6.5695e-06
-2.55632e-06
-6.05799e-06
-2.8872e-06
-4.46731e-06
-4.27087e-06
-1.00193e-06
-5.79781e-06
-1.6372e-06
-7.34885e-06
-1.83913e-06
-8.57669e-06
-4.38681e-08
-8.90044e-06
1.51085e-06
-8.0121e-06
1.29284e-06
-2.79653e-06
4.65558e-06
4.70525e-06
9.40758e-06
6.51334e-06
1.42299e-05
2.82763e-06
1.599e-05
-9.78598e-07
1.62807e-05
-4.82227e-06
1.52492e-05
-9.54176e-06
1.35325e-05
-8.61261e-06
1.29496e-05
-1.57375e-06
9.31838e-06
7.69758e-06
6.58756e-06
1.7187e-05
6.39491e-06
2.10262e-05
2.9956e-06
1.52694e-05
-5.66819e-06
6.42695e-06
-1.75107e-05
-8.89198e-07
-2.22295e-05
-4.06851e-06
-2.84549e-05
-2.39668e-06
-2.82106e-05
-7.64839e-07
-2.85878e-05
-2.95104e-05
-7.46555e-07
-2.4999e-05
3.09971e-06
-3.06443e-05
4.62734e-06
-2.98984e-05
5.35318e-06
-2.94772e-05
4.05949e-06
-2.65931e-05
1.88671e-06
-2.23416e-05
2.93489e-07
-2.18583e-05
-1.23755e-06
-2.10936e-05
-3.8732e-06
-1.72606e-05
-6.5147e-06
-1.04205e-05
-7.21436e-06
-3.20448e-06
-4.44259e-06
4.50323e-06
-1.82737e-06
1.23647e-05
-3.04946e-06
1.83921e-05
-5.43825e-06
1.95242e-05
-7.13573e-06
1.88689e-05
-8.02854e-06
1.76787e-05
-8.274e-06
1.62144e-05
-7.15418e-06
1.553e-05
-3.37252e-06
1.47312e-05
3.06855e-06
6.34034e-06
6.7177e-06
-2.25225e-06
3.25236e-06
-8.5309e-06
-2.64551e-06
-1.63144e-05
-5.43724e-06
-2.10634e-05
-5.6112e-06
-2.20382e-05
-4.51011e-06
-2.34264e-05
-2.3905e-06
-2.25994e-05
-3.24167e-07
-2.40911e-05
-2.51995e-05
-5.20786e-07
-3.35752e-05
3.79492e-06
-3.0799e-05
6.67488e-06
-3.10058e-05
9.184e-06
-3.05921e-05
1.04162e-05
-3.07916e-05
1.04805e-05
-3.23177e-05
1.04359e-05
-3.31317e-05
1.07496e-05
-3.26958e-05
1.00861e-05
-3.01604e-05
3.79912e-06
-2.39399e-05
-4.50212e-06
-1.1735e-05
-6.39841e-06
4.04813e-06
-6.01329e-06
1.41339e-05
-7.57577e-06
2.01704e-05
-9.01345e-06
2.08234e-05
-9.81484e-06
1.97111e-05
-1.03044e-05
1.81634e-05
-9.91412e-06
1.64405e-05
-6.8982e-06
1.53117e-05
-2.5295e-06
1.54356e-05
-4.84307e-06
9.72683e-06
-9.65616e-06
-7.78004e-06
-1.1337e-05
-1.44194e-05
-1.16134e-05
-1.82021e-05
-8.76979e-06
-1.80157e-05
-5.97314e-06
-1.74314e-05
-3.89344e-06
-1.70222e-05
-1.41225e-06
-1.71806e-05
1.18583e-07
-1.88654e-05
-2.05315e-05
-5.42431e-07
-2.89145e-05
3.83352e-06
-2.71643e-05
7.20517e-06
-2.75246e-05
1.03465e-05
-2.68412e-05
1.27422e-05
-2.69162e-05
1.3984e-05
-2.80545e-05
1.48517e-05
-2.95496e-05
1.56754e-05
-2.96978e-05
1.67028e-05
-2.79499e-05
1.44754e-05
-2.45157e-05
1.63091e-06
-1.68756e-05
-7.33982e-06
2.86734e-06
-7.84398e-06
1.57127e-05
-9.44999e-06
2.16255e-05
-1.01483e-05
2.14492e-05
-1.04051e-05
1.99683e-05
-1.04235e-05
1.82757e-05
-1.02377e-05
1.64821e-05
-8.8922e-06
1.48532e-05
-5.05003e-06
1.40688e-05
-8.93758e-06
1.27168e-05
-1.7918e-05
-3.10461e-06
-1.80978e-05
-1.19803e-05
-1.44667e-05
-1.59301e-05
-1.093e-05
-1.44874e-05
-6.84704e-06
-1.35086e-05
-3.13452e-06
-1.16477e-05
-2.17862e-07
-1.23243e-05
8.46756e-07
-1.3453e-05
-1.54916e-05
-7.18564e-07
-2.35303e-05
3.12759e-06
-2.33888e-05
7.09904e-06
-2.36899e-05
1.08881e-05
-2.30543e-05
1.39689e-05
-2.28529e-05
1.61397e-05
-2.37947e-05
1.78814e-05
-2.51169e-05
1.92649e-05
-2.56374e-05
2.00423e-05
-2.39373e-05
2.09899e-05
-2.09561e-05
8.68542e-06
-1.52754e-05
-5.75014e-06
4.29929e-06
-8.32709e-06
1.84623e-05
-9.27571e-06
2.28782e-05
-9.40459e-06
2.18154e-05
-9.47766e-06
2.01879e-05
-9.51306e-06
1.85285e-05
-9.4255e-06
1.68602e-05
-9.16683e-06
1.52928e-05
-8.28709e-06
1.40635e-05
-9.90088e-06
1.35159e-05
-1.8237e-05
6.92648e-06
-2.15332e-05
-3.74148e-06
-1.60915e-05
-1.08145e-05
-1.19536e-05
-1.22469e-05
-7.81103e-06
-1.03289e-05
-2.70928e-06
-7.79662e-06
7.33131e-07
-7.35044e-06
1.29142e-06
-7.25986e-06
-1.0409e-05
-7.98017e-07
-1.76666e-05
2.29909e-06
-1.87519e-05
6.81656e-06
-1.94387e-05
1.11714e-05
-1.92265e-05
1.51284e-05
-1.87557e-05
1.83559e-05
-1.92382e-05
2.09027e-05
-2.03381e-05
2.27366e-05
-2.1093e-05
2.31125e-05
-1.97994e-05
2.40924e-05
-1.74248e-05
1.32019e-05
-1.19316e-05
-2.91399e-06
1.15538e-05
-6.68861e-06
2.19113e-05
-6.96551e-06
2.3306e-05
-7.16198e-06
2.19602e-05
-7.5472e-06
2.05232e-05
-8.01266e-06
1.90769e-05
-8.43066e-06
1.75173e-05
-8.72262e-06
1.60261e-05
-8.74337e-06
1.46711e-05
-9.12559e-06
1.33934e-05
-1.53212e-05
1.18143e-05
-2.16772e-05
5.23724e-06
-1.87371e-05
-1.17352e-06
-1.26638e-05
-6.78444e-06
-8.01024e-06
-6.76834e-06
-3.06532e-06
-4.3268e-06
1.00052e-06
-2.17834e-06
1.29335e-06
-1.37588e-06
-5.75383e-06
-8.48418e-07
-1.11087e-05
1.37107e-06
-1.28729e-05
6.12304e-06
-1.47103e-05
1.10457e-05
-1.48606e-05
1.57332e-05
-1.41027e-05
1.97729e-05
-1.43234e-05
2.33461e-05
-1.59257e-05
2.51951e-05
-1.68103e-05
2.52952e-05
-1.62022e-05
2.60531e-05
-1.40789e-05
1.43596e-05
-4.83826e-06
-6.30927e-07
2.084e-05
-3.23891e-06
2.36897e-05
-3.94696e-06
2.30186e-05
-4.50427e-06
2.23159e-05
-5.20059e-06
2.11883e-05
-6.22578e-06
1.98089e-05
-7.42307e-06
1.82676e-05
-8.50564e-06
1.66863e-05
-9.16229e-06
1.54057e-05
-9.78422e-06
1.38523e-05
-1.24661e-05
1.13963e-05
-1.54643e-05
9.32704e-06
-1.67447e-05
5.46431e-06
-1.37894e-05
2.13961e-06
-8.34939e-06
-3.12174e-07
-3.22022e-06
-4.1279e-07
2.83326e-07
1.77554e-06
9.88526e-07
2.93689e-06
-1.83664e-06
-1.55555e-06
-5.13459e-06
3.07736e-07
-6.84597e-06
5.11299e-06
-9.85488e-06
1.04379e-05
-1.04877e-05
1.59229e-05
-9.76887e-06
2.07353e-05
-1.02916e-05
2.44986e-05
-1.23323e-05
2.58774e-05
-1.34279e-05
2.60481e-05
-1.30448e-05
2.27135e-05
-9.16232e-06
9.59489e-06
1.19156e-05
-2.17784e-08
2.42218e-05
-4.55461e-07
2.33651e-05
-7.43848e-07
2.32161e-05
-1.56889e-06
2.24893e-05
-2.68762e-06
2.17993e-05
-4.21489e-06
2.08966e-05
-6.50524e-06
1.95689e-05
-8.55024e-06
1.77803e-05
-1.0069e-05
1.57391e-05
-1.11584e-05
1.39937e-05
-1.15551e-05
1.21446e-05
-1.37048e-05
9.29377e-06
-1.40344e-05
6.83003e-06
-1.12751e-05
5.08169e-06
-7.12261e-06
5.23098e-06
-3.35332e-06
5.26228e-06
-4.49228e-07
4.72009e-06
5.57138e-07
5.81505e-06
1.34752e-06
-1.29309e-06
-1.7166e-06
-7.97419e-07
-2.22216e-06
3.94295e-06
-5.52007e-06
9.59087e-06
-7.22579e-06
1.54398e-05
-6.66906e-06
2.05574e-05
-7.97395e-06
2.34858e-05
-9.88786e-06
2.41812e-05
-1.05229e-05
2.43264e-05
-8.54846e-06
1.38342e-05
4.01288e-06
2.70425e-06
2.29685e-05
2.43681e-06
2.28742e-05
2.78396e-06
2.31472e-05
2.26528e-06
2.28481e-05
1.8577e-06
2.28376e-05
5.59082e-07
2.26632e-05
-1.5925e-06
2.28987e-05
-5.73636e-06
2.34024e-05
-1.01218e-05
2.04482e-05
-1.15845e-05
1.65816e-05
-1.22215e-05
1.42399e-05
-1.29437e-05
1.19636e-05
-1.29115e-05
9.87448e-06
-1.4e-05
6.90141e-06
-1.22052e-05
4.06453e-06
-7.19608e-06
4.04107e-06
-3.15655e-06
7.96294e-06
-1.22035e-06
8.75535e-06
2.53244e-08
8.31603e-06
4.34547e-06
1.11764e-07
1.35595e-08
-2.21545e-07
2.10157e-07
2.23305e-06
-2.18562e-06
7.78926e-06
-4.6713e-06
1.3641e-05
-4.96293e-06
1.83542e-05
-6.65505e-06
2.01462e-05
-7.17885e-06
2.03126e-05
-5.58721e-06
1.61924e-05
1.88629e-06
8.72366e-06
1.738e-05
4.75665e-06
2.1473e-05
5.73869e-06
2.18995e-05
5.55563e-06
2.22524e-05
5.69336e-06
2.27426e-05
5.00007e-06
2.29478e-05
3.49297e-06
2.6478e-05
4.93203e-08
2.93189e-05
-6.47698e-06
3.2831e-05
-1.14731e-05
2.67268e-05
-1.32331e-05
1.87636e-05
-1.35149e-05
1.45103e-05
-1.34112e-05
1.21436e-05
-1.36354e-05
9.54031e-06
-1.3268e-05
7.1304e-06
-1.32749e-05
4.14729e-06
-1.02431e-05
1.65667e-06
-4.952e-06
3.88971e-06
-1.14625e-06
8.91619e-06
9.12537e-08
9.70561e-06
7.32881e-06
-7.9905e-08
8.36587e-07
-2.87247e-07
1.2837e-06
1.08652e-06
-5.77127e-07
5.35866e-06
-2.70191e-06
1.06434e-05
-3.45616e-06
1.37146e-05
-3.26004e-06
1.42166e-05
-1.71768e-06
1.3093e-05
2.77992e-06
9.67213e-06
1.28605e-05
7.3155e-06
1.92683e-05
8.28415e-06
1.93483e-05
8.43268e-06
2.06665e-05
8.63473e-06
2.14697e-05
9.01968e-06
2.20422e-05
1.00526e-05
2.59138e-05
1.0221e-05
3.21337e-05
-7.22733e-07
3.74662e-05
-1.47875e-05
4.36078e-05
-1.867e-05
3.26695e-05
-1.64032e-05
2.31745e-05
-1.45686e-05
1.47301e-05
-1.39831e-05
1.18472e-05
-1.3475e-05
9.43109e-06
-1.31952e-05
6.71089e-06
-1.24994e-05
4.06363e-06
-1.15934e-05
1.52741e-06
-8.33608e-06
1.19889e-07
-2.76004e-06
3.25396e-06
1.6674e-07
7.37423e-06
8.98856e-06
-2.78479e-07
1.15386e-06
-6.18545e-07
1.84131e-06
2.54968e-07
-3.07875e-07
3.18342e-06
-2.09961e-06
6.57673e-06
-1.79001e-06
7.74184e-06
1.79327e-06
7.70761e-06
5.28336e-06
8.21083e-06
1.01672e-05
9.40435e-06
1.58126e-05
9.55212e-06
1.67054e-05
1.05206e-05
1.84703e-05
1.07248e-05
1.94236e-05
1.19499e-05
2.06487e-05
1.3206e-05
2.23817e-05
1.49783e-05
3.17877e-05
1.21002e-05
3.61384e-05
-1.98308e-06
4.68658e-05
-1.71687e-05
5.45252e-05
-2.03147e-05
4.00571e-05
-1.98606e-05
2.923e-05
-1.7276e-05
1.73437e-05
-1.42669e-05
1.10842e-05
-1.33246e-05
8.88507e-06
-1.26137e-05
6.28119e-06
-1.17892e-05
3.67373e-06
-1.07966e-05
1.16332e-06
-9.08349e-06
-7.85228e-07
-5.12631e-06
-9.16968e-07
-1.48807e-06
3.10667e-06
8.09902e-06
-3.87097e-07
8.63028e-07
-8.02815e-07
1.74384e-06
-3.27646e-07
-9.98875e-07
1.73462e-06
-2.39702e-06
3.78229e-06
-6.81416e-07
3.87704e-06
5.30185e-06
5.30919e-06
1.07034e-05
8.79142e-06
1.29858e-05
9.89065e-06
1.43356e-05
1.11834e-05
1.56878e-05
1.16797e-05
1.73297e-05
1.28935e-05
1.88276e-05
1.43084e-05
1.94637e-05
1.58023e-05
2.86716e-05
1.51191e-05
3.86694e-05
9.34488e-06
4.40085e-05
-3.77457e-06
5.88936e-05
-1.35349e-05
6.37499e-05
-1.44204e-05
4.97454e-05
-1.73929e-05
3.85628e-05
-1.85205e-05
2.22151e-05
-1.49002e-05
1.18655e-05
-1.31333e-05
8.2916e-06
-1.19581e-05
5.66006e-06
-1.09485e-05
3.03582e-06
-9.82462e-06
5.75055e-07
-8.39624e-06
-1.48937e-06
-6.0385e-06
-2.32045e-06
-3.21541e-06
6.09585e-08
5.32681e-06
-5.70644e-07
-4.46723e-07
-1.07374e-06
-3.58383e-06
-9.44035e-07
-3.02125e-06
3.52708e-07
-3.49953e-06
1.98957e-06
-9.06814e-07
3.09441e-06
7.61297e-06
6.26384e-06
1.27878e-05
9.77835e-06
1.26238e-05
1.10356e-05
1.32083e-05
1.20325e-05
1.49516e-05
1.28906e-05
1.64283e-05
1.42953e-05
1.82074e-05
1.44913e-05
2.06046e-05
1.19289e-05
3.63316e-05
7.84026e-06
4.53873e-05
2.62468e-06
5.32401e-05
-3.86792e-06
6.73201e-05
-5.96762e-06
6.79182e-05
-5.98957e-06
5.59138e-05
-1.19115e-05
4.08339e-05
-1.60274e-05
2.52964e-05
-1.41637e-05
1.35889e-05
-1.24575e-05
8.36407e-06
-1.11073e-05
5.18672e-06
-9.94308e-06
2.37602e-06
-8.74014e-06
-6.39526e-08
-7.44686e-06
-2.10882e-06
-5.89213e-06
-3.21229e-06
-3.69917e-06
-2.13579e-06
2.22523e-06
5.11999e-07
-5.10824e-06
-1.47728e-06
-1.25262e-05
-2.42461e-06
-6.82214e-06
-1.70056e-06
-5.86587e-06
-1.0542e-06
-3.68434e-06
2.75926e-06
8.92751e-06
8.23329e-06
1.21655e-05
1.05902e-05
1.13832e-05
1.17153e-05
1.243e-05
1.23813e-05
1.41124e-05
1.33459e-05
1.57528e-05
1.38765e-05
1.77841e-05
9.43518e-06
2.25196e-05
1.1795e-06
3.75326e-05
-4.67488e-06
4.6488e-05
-6.41726e-06
5.55079e-05
-5.24295e-06
6.75875e-05
-1.85577e-06
6.64019e-05
-3.48841e-06
5.34268e-05
-8.2503e-06
3.77427e-05
-9.2275e-06
2.64184e-05
-1.0255e-05
1.41641e-05
-1.02395e-05
8.9073e-06
-9.63176e-06
5.10542e-06
-8.66269e-06
1.82693e-06
-7.53782e-06
-6.70891e-07
-6.32348e-06
-2.67668e-06
-5.04648e-06
-3.8383e-06
-3.33964e-06
-3.60967e-06
-5.24493e-07
-7.23742e-07
-9.06978e-06
2.28528e-07
-1.49121e-05
-3.31016e-06
-1.42414e-05
-2.68567e-06
-1.00792e-05
-1.41207e-06
-4.57162e-06
4.86407e-06
8.90977e-06
9.86411e-06
1.04065e-05
1.13011e-05
1.02395e-05
1.21577e-05
1.17218e-05
1.2365e-05
1.32365e-05
1.22104e-05
1.49497e-05
9.68845e-06
1.74142e-05
1.06704e-06
2.41009e-05
-8.73278e-06
3.49294e-05
-1.44919e-05
4.26095e-05
-1.59361e-05
4.96073e-05
-1.0792e-05
5.74271e-05
-1.64813e-06
5.65843e-05
1.57456e-06
4.40778e-05
8.37748e-07
3.60383e-05
-1.5978e-06
2.55342e-05
-5.76309e-06
1.63508e-06
-7.6272e-06
7.14941e-06
-8.04069e-06
4.28792e-06
-7.29061e-06
9.96425e-07
-6.39403e-06
-1.52073e-06
-5.22536e-06
-3.2855e-06
-4.05531e-06
-4.32218e-06
-2.62651e-06
-4.46478e-06
-2.72248e-06
-1.93097e-06
-7.23391e-06
3.76533e-06
-1.2925e-05
2.80981e-06
-1.7576e-05
2.24076e-07
-1.63692e-05
2.29725e-06
-1.92836e-06
8.66646e-06
7.99992e-06
1.13084e-05
8.31084e-06
1.23917e-05
9.21206e-06
1.27145e-05
1.0699e-05
1.25546e-05
1.21438e-05
1.19641e-05
1.40795e-05
3.19412e-06
1.48202e-05
-1.20757e-05
1.55063e-05
-2.1685e-05
2.69086e-05
-2.68311e-05
2.6725e-05
-2.61403e-05
2.48567e-05
-1.90649e-05
2.88778e-05
-1.03888e-05
2.69691e-05
-3.91615e-07
1.17435e-05
5.97797e-06
5.37093e-06
-2.16487e-07
-6.19678e-06
-6.63314e-06
-2.81009e-05
-6.17019e-06
-1.4825e-05
-7.09631e-06
2.47177e-07
-6.23753e-06
-7.25612e-07
-5.4968e-06
-2.85926e-06
-4.36282e-06
-4.01592e-06
-3.22178e-06
-4.81395e-06
-1.79123e-06
-5.05379e-06
-4.21747e-06
-1.42139e-06
-4.54125e-06
3.19759e-06
-1.16694e-05
6.98682e-06
-1.58782e-05
7.0482e-06
-1.78933e-05
8.12276e-06
1.31513e-06
1.18703e-05
6.28034e-06
1.28431e-05
6.60528e-06
1.35387e-05
8.27802e-06
1.3582e-05
9.51187e-06
1.37547e-05
1.11428e-05
1.19362e-05
1.18406e-05
-9.99203e-06
5.8214e-06
-3.0476e-05
-9.879e-07
-3.46522e-05
7.4948e-07
-3.80331e-05
-6.35529e-06
-3.65513e-05
-1.26887e-05
-3.06993e-05
-1.275e-05
-2.57786e-05
-1.56457e-05
-2.2364e-05
-2.73737e-05
-1.89481e-05
-3.26668e-05
-1.62343e-05
-4.05952e-05
-1.41575e-05
-4.40754e-05
-1.08472e-05
-3.45257e-05
-7.77739e-06
-5.71946e-06
-5.90953e-06
-3.86124e-06
-4.91188e-06
-4.54909e-06
-3.90227e-06
-4.97858e-06
-2.75109e-06
-5.4071e-06
-1.44152e-06
-5.60847e-06
-5.30828e-06
-6.139e-07
-3.44137e-06
1.78044e-06
-1.10713e-05
6.69515e-06
-1.54207e-05
9.84126e-06
-1.52772e-05
1.21921e-05
2.89872e-06
1.32773e-05
4.32072e-06
1.41838e-05
5.66368e-06
1.45039e-05
7.1712e-06
1.50855e-05
8.51552e-06
1.6654e-05
9.41554e-06
-1.25473e-06
6.79445e-06
-3.09569e-05
2.46065e-06
-4.24122e-05
-6.22961e-06
-4.27936e-05
-1.34729e-05
-4.18922e-05
-2.13263e-05
-3.94759e-05
-2.79309e-05
-3.61632e-05
-3.26201e-05
-3.18799e-05
-3.59008e-05
-2.69148e-05
-3.99306e-05
-2.10594e-05
-4.19593e-05
-1.59383e-05
-4.47447e-05
-1.33575e-05
-4.48804e-05
-1.12832e-05
-3.44731e-05
-8.40311e-06
-9.39825e-06
-6.10865e-06
-7.12845e-06
-4.79932e-06
-6.20186e-06
-3.80899e-06
-5.97814e-06
-2.64406e-06
-6.08562e-06
-1.37997e-06
-6.26454e-06
-6.39744e-06
1.27028e-06
-3.85831e-06
3.03246e-06
-1.1189e-05
6.7677e-06
-1.57815e-05
1.18018e-05
-1.33668e-05
1.39469e-05
1.05962e-06
1.44275e-05
3.00031e-06
1.50575e-05
4.79029e-06
1.555e-05
6.26562e-06
1.68671e-05
7.86438e-06
1.85001e-05
7.1705e-06
-9.21387e-06
4.117e-06
-4.18123e-05
8.9849e-06
-4.46866e-05
-2.56661e-07
-4.28684e-05
-8.69955e-06
-4.09196e-05
-1.72641e-05
-3.77324e-05
-2.57233e-05
-3.36339e-05
-3.17606e-05
-2.86143e-05
-3.62701e-05
-2.33572e-05
-3.90408e-05
-1.82191e-05
-4.12847e-05
-1.36972e-05
-4.41213e-05
-1.17754e-05
-4.39763e-05
-9.71471e-06
-2.94246e-05
-7.72513e-06
-1.10537e-05
-6.29086e-06
-9.17819e-06
-5.06946e-06
-7.52106e-06
-3.96521e-06
-6.78887e-06
-2.77541e-06
-6.80783e-06
-1.4737e-06
-7.08503e-06
-7.62139e-06
3.77561e-06
-6.91476e-06
5.4444e-06
-1.24635e-05
9.30614e-06
-1.66027e-05
1.36043e-05
-1.31789e-05
1.47424e-05
-1.84653e-06
1.50142e-05
1.79085e-06
1.55281e-05
3.81146e-06
1.65766e-05
5.61463e-06
1.88038e-05
6.60544e-06
1.91879e-05
5.15889e-06
-1.26486e-05
1.15907e-05
-4.3893e-05
1.76996e-05
-4.43343e-05
6.93923e-06
-4.20472e-05
-3.37326e-06
-3.95312e-05
-1.41029e-05
-3.56687e-05
-2.37854e-05
-3.06255e-05
-2.99957e-05
-2.58567e-05
-3.55519e-05
-2.10267e-05
-3.78462e-05
-1.59869e-05
-4.00852e-05
-1.24195e-05
-4.31629e-05
-1.17643e-05
-4.30028e-05
-9.90031e-06
-2.50159e-05
-7.50563e-06
-1.3285e-05
-6.57478e-06
-1.06413e-05
-5.42225e-06
-8.47254e-06
-4.2984e-06
-7.51483e-06
-3.00833e-06
-7.62633e-06
-1.61539e-06
-8.11799e-06
-9.0148e-06
5.00882e-06
-1.17944e-05
7.41074e-06
-1.45246e-05
1.07861e-05
-1.77066e-05
1.37053e-05
-1.50756e-05
1.44804e-05
-5.06683e-06
1.48138e-05
1.25808e-10
1.58164e-05
2.93652e-06
1.71336e-05
4.82265e-06
2.08745e-05
5.457e-06
3.79117e-06
6.97352e-06
-3.07339e-05
2.46221e-05
-4.44823e-05
2.57725e-05
-4.39661e-05
1.28818e-05
-4.12893e-05
5.04633e-07
-3.76501e-05
-1.17148e-05
-3.27619e-05
-2.24364e-05
-2.68148e-05
-2.84148e-05
-2.15658e-05
-3.40475e-05
-1.70993e-05
-3.67568e-05
-1.32951e-05
-3.87134e-05
-1.09903e-05
-4.18459e-05
-1.04595e-05
-4.20512e-05
-9.45481e-06
-2.37726e-05
-8.01884e-06
-1.54507e-05
-7.07091e-06
-1.20282e-05
-5.9426e-06
-9.50945e-06
-4.7135e-06
-8.3712e-06
-3.25703e-06
-8.64209e-06
-1.73195e-06
-9.37934e-06
-1.05579e-05
5.98681e-06
-1.92805e-05
8.70201e-06
-1.77109e-05
1.0975e-05
-1.91302e-05
1.27672e-05
-1.70928e-05
1.35777e-05
-8.73181e-06
1.42139e-05
-2.37093e-06
1.54845e-05
2.00868e-06
1.73393e-05
4.6993e-06
1.94133e-05
5.41431e-06
-7.04792e-06
1.85526e-05
-4.05028e-05
3.56558e-05
-4.5023e-05
3.16636e-05
-4.27646e-05
1.71585e-05
-3.96755e-05
3.19507e-06
-3.38819e-05
-9.58763e-06
-2.67246e-05
-2.09307e-05
-2.04308e-05
-2.65186e-05
-1.65103e-05
-3.16276e-05
-1.3232e-05
-3.46179e-05
-1.06687e-05
-3.72529e-05
-9.50493e-06
-4.04038e-05
-9.78011e-06
-4.04563e-05
-1.03313e-05
-2.32738e-05
-9.10868e-06
-1.72631e-05