/*--------------------------------*- C++ -*----------------------------------*\
| =========                 |                                                 |
| \\      /  F ield         | OpenFOAM: The Open Source CFD Toolbox           |
|  \\    /   O peration     | Version:  v1606+                                |
|   \\  /    A nd           | Web:      www.OpenFOAM.com                      |
|    \\/     M anipulation  |                                                 |
\*---------------------------------------------------------------------------*/
FoamFile
{
    version     2.0;
    format      ascii;
    class       surfaceScalarField;
    location    "1.86";
    object      phi.air;
}
// * * * * * * * * * * * * * * * * * * * * * * * * * * * * * * * * * * * * * //

dimensions      [0 3 -1 0 0 0 0];

internalField   nonuniform List<scalar> 
11770
(
-7.01402e-06
9.99454e-05
-5.37992e-06
9.2001e-05
-2.95189e-06
9.05964e-05
-1.62561e-07
8.93984e-05
1.22046e-06
8.85928e-05
1.56908e-07
8.80521e-05
-1.34177e-06
8.59268e-05
-2.05353e-06
8.42564e-05
-2.13643e-06
8.43412e-05
-1.80012e-06
8.50719e-05
-1.22304e-06
8.61097e-05
1.98311e-08
8.76003e-05
-7.88145e-07
9.03585e-05
-3.01222e-06
9.24378e-05
-2.21712e-06
9.03117e-05
-1.70287e-06
9.04494e-05
-1.8866e-06
9.08042e-05
-4.54445e-06
9.19777e-05
-7.70322e-06
9.13987e-05
-9.38524e-06
8.90305e-05
-8.2884e-06
8.59299e-05
-7.42835e-06
8.40238e-05
-7.41186e-06
8.25552e-05
-6.61549e-06
8.15712e-05
-6.85253e-06
8.345e-05
-5.00183e-06
8.50962e-05
-3.12466e-06
8.68759e-05
1.68785e-06
8.57656e-05
3.91155e-06
8.91792e-05
9.4419e-05
2.01963e-07
8.59631e-05
-3.84714e-06
8.19921e-05
-6.68023e-06
8.01149e-05
-9.24742e-06
7.90126e-05
-1.03545e-05
7.78631e-05
-1.12462e-05
7.77756e-05
-6.51847e-06
7.29176e-05
1.28371e-06
6.92957e-05
7.72133e-06
7.00938e-05
1.0802e-05
7.28942e-05
9.74053e-06
7.65708e-05
6.48923e-06
7.92567e-05
2.99512e-06
8.24431e-05
-1.57882e-06
8.48346e-05
-4.2152e-06
8.09326e-05
-7.86954e-06
8.21347e-05
-1.29802e-05
8.43997e-05
-1.9269e-05
8.68573e-05
-2.56592e-05
8.65657e-05
-2.85458e-05
8.15494e-05
-2.67984e-05
7.44673e-05
-1.94704e-05
6.87214e-05
-9.2301e-06
6.57406e-05
1.86693e-08
6.5446e-05
5.38305e-06
6.9669e-05
4.71804e-06
7.37319e-05
6.21736e-06
7.40513e-05
4.57058e-06
7.66466e-05
-4.66265e-07
8.31211e-05
8.43965e-05
-1.81424e-06
8.84734e-05
-5.97376e-06
8.69306e-05
-9.66423e-06
8.48727e-05
-1.24472e-05
8.23042e-05
-1.28988e-05
7.87751e-05
-1.07887e-05
7.62175e-05
-6.11202e-06
6.86396e-05
2.28723e-06
6.13301e-05
1.04666e-05
6.20107e-05
1.7786e-05
6.69342e-05
2.0635e-05
7.55668e-05
1.56346e-05
8.44044e-05
6.81066e-06
9.01224e-05
-4.12575e-07
9.1205e-05
-7.91241e-06
8.78675e-05
-1.49866e-05
8.92308e-05
-2.33053e-05
9.179e-05
-3.02756e-05
9.24874e-05
-3.66342e-05
9.09721e-05
-3.96821e-05
8.31154e-05
-3.66768e-05
7.17416e-05
-2.86706e-05
6.18763e-05
-1.74955e-05
5.59101e-05
-5.3516e-06
5.44213e-05
3.29562e-06
6.07768e-05
8.07743e-06
6.8427e-05
1.12593e-05
7.12609e-05
8.08864e-06
7.88843e-05
4.58471e-06
8.62374e-05
8.71999e-05
-2.36475e-06
8.86423e-05
-7.08517e-06
8.89948e-05
-1.23159e-05
8.67857e-05
-1.44192e-05
8.14818e-05
-1.30168e-05
7.54274e-05
-7.7322e-06
6.9192e-05
-6.75079e-07
5.97818e-05
8.14173e-06
5.20619e-05
1.68206e-05
5.31886e-05
2.33312e-05
5.90883e-05
2.60821e-05
7.08882e-05
1.93373e-05
8.78253e-05
8.18563e-06
9.76259e-05
-3.35066e-07
9.70134e-05
-1.09401e-05
9.46674e-05
-2.07025e-05
9.51684e-05
-2.92091e-05
9.67819e-05
-3.60036e-05
9.59092e-05
-4.17342e-05
9.29974e-05
-4.28869e-05
8.10462e-05
-3.80206e-05
6.51806e-05
-3.01939e-05
5.44656e-05
-2.19585e-05
4.98512e-05
-1.31759e-05
4.86048e-05
-3.44101e-06
5.33619e-05
5.99572e-06
6.05093e-05
1.21058e-05
6.60606e-05
1.44859e-05
7.65152e-05
7.81931e-06
9.0878e-05
9.22826e-05
-2.88237e-06
9.16934e-05
-6.16465e-06
9.23175e-05
-9.37837e-06
9.00176e-05
-8.01522e-06
8.17917e-05
-3.76568e-06
7.39819e-05
1.56627e-06
6.80782e-05
6.21186e-06
6.11551e-05
9.03736e-06
5.51282e-05
1.32118e-05
5.36094e-05
1.86417e-05
5.55211e-05
2.32589e-05
6.64328e-05
1.93375e-05
9.06683e-05
9.42042e-06
0.000106311
3.09331e-07
0.000105222
-9.21485e-06
0.000103343
-1.84675e-05
0.000103176
-2.62924e-05
0.000102953
-3.29537e-05
0.000100333
-3.33383e-05
9.18555e-05
-2.62932e-05
7.33929e-05
-1.80048e-05
5.70163e-05
-1.25068e-05
5.12479e-05
-1.00122e-05
5.17081e-05
-8.48135e-06
5.27393e-05
-3.99873e-06
5.62037e-05
2.23467e-06
6.06475e-05
6.172e-06
6.63067e-05
1.2775e-05
7.54974e-05
7.7948e-06
9.78517e-05
0.000101229
-1.67444e-06
9.95578e-05
-8.43674e-07
9.8306e-05
1.86261e-06
9.51658e-05
5.88049e-06
8.71292e-05
7.18005e-06
8.22232e-05
7.04121e-06
7.74439e-05
5.88534e-06
6.92485e-05
2.47704e-06
6.23378e-05
6.78089e-07
5.86928e-05
2.94391e-06
5.67959e-05
1.00855e-05
6.15446e-05
1.4694e-05
8.66399e-05
7.72086e-06
0.000111298
-6.85443e-07
0.000111836
-8.00446e-06
0.000109303
-1.52054e-05
0.00010847
-2.20047e-05
0.00010708
-2.44434e-05
0.000100245
-1.54618e-05
8.27567e-05
-3.81604e-06
6.29979e-05
1.90325e-06
5.39832e-05
1.47152e-06
5.4384e-05
-1.1341e-06
5.61386e-05
-3.6012e-06
5.71201e-05
-3.45275e-06
5.94779e-05
-8.20999e-07
6.35026e-05
4.40287e-07
7.06516e-05
1.56527e-06
8.2836e-05
4.28296e-06
0.000107965
0.000115706
5.21087e-07
0.000110642
6.2437e-06
0.00010497
1.23699e-05
0.000102391
1.17535e-05
9.90043e-05
7.52087e-06
9.59393e-05
2.17492e-06
8.96419e-05
-2.26129e-06
7.8413e-05
-6.84429e-06
7.01573e-05
-1.0979e-05
6.5576e-05
-1.35932e-05
6.24237e-05
-9.40712e-06
6.21587e-05
9.5852e-07
8.0383e-05
1.66343e-06
0.000110529
-4.26723e-06
0.000115703
-7.72194e-06
0.000111291
-1.13085e-05
0.000110307
-1.40825e-05
0.00010763
-7.87647e-06
9.37028e-05
6.84626e-06
7.06269e-05
1.6376e-05
5.80913e-05
1.5781e-05
5.7283e-05
1.08412e-05
6.06109e-05
5.01215e-06
6.32767e-05
5.75006e-07
6.31769e-05
-1.12043e-06
6.31676e-05
-5.66107e-07
6.53624e-05
2.34671e-06
7.1533e-05
-9.45546e-07
8.91889e-05
1.20195e-06
0.000119174
0.000129956
3.01074e-06
0.000105688
1.00167e-05
9.71386e-05
1.48976e-05
9.4566e-05
1.05389e-05
9.70567e-05
7.83053e-07
0.000100474
-1.06239e-05
0.000100181
-1.59799e-05
8.73572e-05
-1.631e-05
7.58338e-05
-1.93221e-05
7.22791e-05
-2.48152e-05
7.03115e-05
-2.75338e-05
6.89006e-05
-1.94941e-05
8.04458e-05
-1.0824e-05
0.000107303
-1.11543e-05
0.000116609
-8.47014e-06
0.000109307
-4.79328e-06
0.000107203
1.15046e-06
0.000102723
1.35855e-05
8.487e-05
2.76137e-05
6.32125e-05
3.06218e-05
5.94405e-05
2.57984e-05
6.38131e-05
1.89467e-05
6.94065e-05
1.00753e-05
7.47298e-05
4.33045e-06
7.21446e-05
2.47489e-06
6.78894e-05
2.75406e-06
6.88436e-05
5.93431e-06
7.2945e-05
1.12865e-05
8.70331e-05
4.86072e-06
0.000115089
0.000126667
6.64088e-06
8.42398e-05
1.3443e-05
7.66261e-05
1.78205e-05
7.59911e-05
1.60589e-05
8.3307e-05
8.42446e-06
9.11055e-05
-2.41026e-06
9.42887e-05
-1.45697e-05
8.85604e-05
-2.13377e-05
8.17581e-05
-2.51283e-05
7.92999e-05
-3.08054e-05
7.93547e-05
-3.89414e-05
7.9615e-05
-3.81769e-05
8.69134e-05
-2.65434e-05
0.000105332
-1.85682e-05
0.000114447
-8.43824e-06
0.000103796
5.19719e-06
9.82697e-05
1.84831e-05
9.49918e-05
3.23465e-05
7.76596e-05
4.18493e-05
6.08463e-05
4.05321e-05
6.34306e-05
3.62805e-05
6.99913e-05
2.91289e-05
7.79849e-05
1.23837e-05
8.89342e-05
-1.22356e-06
8.75039e-05
-5.08108e-06
8.00981e-05
-2.96896e-06
7.08823e-05
2.91124e-06
6.40842e-05
1.03454e-05
7.03157e-05
7.55003e-06
9.9183e-05
0.000112827
8.26859e-06
6.82034e-05
1.97893e-05
5.88076e-05
2.62765e-05
6.26916e-05
3.09462e-05
7.11917e-05
3.33373e-05
8.05422e-05
2.96175e-05
8.79551e-05
1.55208e-05
8.98296e-05
-2.27565e-06
8.56502e-05
-1.52317e-05
8.37822e-05
-2.74175e-05
8.80856e-05
-4.01346e-05
9.26972e-05
-4.50951e-05
9.709e-05
-3.69162e-05
0.000106369
-2.27048e-05
0.00010841
-7.45969e-06
9.49227e-05
1.30378e-05
8.53118e-05
2.80321e-05
8.62392e-05
4.1844e-05
7.02428e-05
4.81374e-05
5.80123e-05
4.92321e-05
6.34743e-05
4.63111e-05
7.10421e-05
3.06663e-05
8.85311e-05
-5.78508e-06
0.000116791
-3.81515e-05
0.000113753
-4.81596e-05
8.61303e-05
-4.11271e-05
6.19661e-05
-2.8207e-05
4.88203e-05
-1.39994e-05
5.07592e-05
-2.37495e-07
7.88577e-05
0.000102816
4.94851e-06
6.26812e-05
1.71802e-05
4.79008e-05
2.37193e-05
5.6148e-05
3.03598e-05
6.44887e-05
3.93725e-05
7.12423e-05
4.78009e-05
7.82291e-05
5.05409e-05
8.36099e-05
4.12595e-05
8.70484e-05
2.19604e-05
9.07153e-05
6.59587e-07
9.40909e-05
-2.00825e-05
9.79575e-05
-3.53071e-05
0.000103107
-3.80217e-05
0.000109857
-2.40968e-05
0.000101813
-6.70758e-06
8.25562e-05
1.37187e-05
6.9885e-05
2.83471e-05
7.38512e-05
4.35196e-05
5.8964e-05
5.18392e-05
5.24986e-05
5.34022e-05
6.00156e-05
4.17829e-05
7.79289e-05
-1.08584e-06
0.00011801
-5.08844e-05
0.000146563
-8.25029e-05
0.000127578
-7.95198e-05
7.3572e-05
-6.45469e-05
4.50471e-05
-4.92857e-05
3.61203e-05
-3.17107e-05
3.77594e-05
-1.02439e-05
6.10637e-05
9.21092e-05
2.19228e-06
6.37087e-05
8.3645e-06
4.57619e-05
1.28975e-05
5.4391e-05
1.7614e-05
6.19318e-05
2.50971e-05
6.59642e-05
3.59827e-05
6.93973e-05
4.7142e-05
7.35981e-05
5.42129e-05
7.95404e-05
5.25236e-05
8.90535e-05
3.90998e-05
9.95324e-05
2.0564e-05
0.000104368
1.32686e-06
0.000105525
-1.50713e-05
0.000107523
-1.90884e-05
9.67199e-05
-1.01596e-05
7.35262e-05
9.67295e-06
5.29021e-05
2.52042e-05
5.78101e-05
4.25605e-05
4.54556e-05
5.09484e-05
4.56323e-05
4.44719e-05
6.38816e-05
6.26274e-06
0.000102377
-3.71544e-05
0.000144904
-6.54272e-05
0.000160212
-7.55197e-05
0.000123562
-6.16244e-05
5.2414e-05
-4.87273e-05
3.03866e-05
-4.08094e-05
3.03722e-05
-3.29439e-05
3.60606e-05
-1.66842e-05
5.30609e-05
8.14513e-05
2.64295e-06
6.65613e-05
4.91883e-07
5.3977e-05
-3.20207e-07
6.11721e-05
1.11263e-06
6.49651e-05
4.14711e-06
6.66299e-05
1.10981e-05
6.62422e-05
2.24585e-05
6.56732e-05
3.58319e-05
6.85661e-05
4.80254e-05
7.83897e-05
5.05846e-05
9.60959e-05
4.61832e-05
0.000105224
3.68785e-05
0.000108112
2.08363e-05
0.000111354
-4.79769e-07
0.000100527
-6.27029e-06
6.70139e-05
6.63092e-06
3.86966e-05
2.5186e-05
3.84712e-05
4.23229e-05
3.07567e-05
4.68256e-05
4.32149e-05
1.19447e-05
8.38274e-05
-2.59527e-05
0.000125883
-4.1131e-05
0.000154101
-4.63662e-05
0.000159981
-4.42157e-05
0.000112562
-3.24015e-05
3.41142e-05
-2.62546e-05
2.09099e-05
-2.43207e-05
2.89565e-05
-2.41415e-05
4.10254e-05
-1.66864e-05
5.69132e-05
7.67328e-05
3.80005e-06
6.97103e-05
-4.79829e-06
6.67559e-05
-8.87269e-06
7.24148e-05
-1.02101e-05
7.43632e-05
-1.12606e-05
7.31278e-05
-9.60728e-06
6.92207e-05
-3.96501e-06
6.49337e-05
7.12318e-06
6.21891e-05
2.44308e-05
6.47999e-05
4.2651e-05
7.99679e-05
4.5423e-05
0.000101661
4.08707e-05
0.000110126
3.77054e-05
0.000111155
2.1456e-05
0.000109353
9.69149e-06
7.04968e-05
1.18377e-05
3.21027e-05
2.79201e-05
2.23928e-05
4.0201e-05
1.94548e-05
2.72227e-05
4.82871e-05
-1.24377e-05
0.000107478
-2.64099e-05
0.00013539
-2.65195e-05
0.000152833
-2.1394e-05
0.000152175
-1.34116e-05
0.000100319
-8.14529e-06
2.5244e-05
-7.75151e-06
1.88213e-05
-9.92663e-06
3.19274e-05
-1.40088e-05
4.76025e-05
-1.3674e-05
6.36281e-05
7.57894e-05
1.62831e-06
7.20411e-05
-7.55517e-06
7.77732e-05
-1.40405e-05
8.21125e-05
-1.75766e-05
8.31722e-05
-1.92167e-05
8.12774e-05
-2.02978e-05
7.6318e-05
-2.00389e-05
7.02763e-05
-1.62577e-05
6.45073e-05
-6.06973e-06
6.05801e-05
1.53738e-05
6.37724e-05
3.46273e-05
8.54065e-05
3.52772e-05
0.000108385
3.08871e-05
0.000114093
2.93586e-05
0.000109977
2.5574e-05
7.34003e-05
2.18183e-05
3.50193e-05
2.74929e-05
1.87253e-05
3.02708e-05
1.6951e-05
2.29943e-06
6.52322e-05
-1.53863e-05
0.000119994
-1.6039e-05
0.000135491
-1.04078e-05
0.000146033
1.95904e-06
0.000139694
1.39351e-05
8.99249e-05
1.31865e-05
2.76312e-05
9.15419e-06
2.47917e-05
4.01136e-06
4.01259e-05
-2.21755e-06
5.71632e-05
-7.34866e-06
7.29279e-05
7.88212e-05
1.7231e-07
7.39435e-05
-6.9743e-06
8.61992e-05
-1.50124e-05
9.10682e-05
-2.12694e-05
9.07483e-05
-2.34534e-05
8.63725e-05
-2.49068e-05
8.15433e-05
-2.69843e-05
7.67706e-05
-2.86174e-05
7.20863e-05
-2.72765e-05
6.70479e-05
-1.70715e-05
6.23016e-05
7.07725e-06
6.9351e-05
2.06333e-05
9.89712e-05
2.22041e-05
0.000114179
3.00364e-05
0.000104814
3.36269e-05
7.19553e-05
2.91978e-05
4.03782e-05
2.49649e-05
2.5047e-05
1.57184e-05
2.51146e-05
-7.62255e-06
8.15223e-05
-1.10864e-05
0.000123402
-3.96089e-06
0.00012951
9.91799e-06
0.000133643
2.92495e-05
0.000126169
4.13214e-05
8.63872e-05
3.48753e-05
4.18577e-05
2.56775e-05
4.0446e-05
1.89522e-05
5.30589e-05
1.12599e-05
6.93671e-05
1.59398e-06
8.37677e-05
8.17237e-05
4.63852e-06
7.35638e-05
-5.66433e-06
9.5212e-05
-1.4423e-05
9.77488e-05
-2.14796e-05
9.64685e-05
-2.39792e-05
9.0249e-05
-2.59622e-05
8.58367e-05
-2.8927e-05
8.21512e-05
-3.34851e-05
7.93513e-05
-3.81592e-05
7.62657e-05
-3.74449e-05
7.04423e-05
-2.40631e-05
6.87934e-05
-3.2099e-06
9.04241e-05
1.04134e-05
0.000107781
2.36159e-05
9.71064e-05
3.03951e-05
6.95205e-05
2.52178e-05
4.82547e-05
1.53721e-05
3.60446e-05
1.84955e-07
3.80064e-05
-9.20086e-06
8.86777e-05
-3.69855e-06
0.000120782
1.07402e-05
0.000119609
3.46501e-05
0.000117441
5.88754e-05
0.000115873
6.68212e-05
9.44303e-05
5.23621e-05
6.93613e-05
3.49058e-05
6.29221e-05
1.81007e-05
6.65806e-05
5.45284e-06
7.21571e-05
-3.84582e-06
7.71081e-05
6.35411e-05
6.20525e-06
6.94611e-05
-5.60941e-06
0.000102501
-1.12133e-05
0.000100674
-1.55717e-05
9.97611e-05
-1.97604e-05
9.49228e-05
-2.39394e-05
9.05427e-05
-2.80235e-05
8.8106e-05
-3.49658e-05
8.85134e-05
-4.43785e-05
8.74112e-05
-4.79866e-05
7.77664e-05
-4.17482e-05
7.15947e-05
-2.21233e-05
8.48922e-05
-3.63826e-06
0.000100429
9.29729e-06
9.24877e-05
1.44738e-05
7.12987e-05
9.73579e-06
5.55647e-05
-8.77995e-07
4.60705e-05
-1.34565e-05
5.09086e-05
-8.04139e-06
8.74349e-05
6.19454e-06
0.000112877
2.92834e-05
0.00010592
5.70581e-05
0.000104999
7.65129e-05
0.000115333
7.9147e-05
0.000106024
5.31263e-05
8.75745e-05
3.02448e-05
6.84134e-05
1.15048e-05
6.79068e-05
-2.90616e-06
7.26668e-05
-1.15793e-05
7.49765e-05
4.53798e-05
4.09953e-06
5.91649e-05
-1.04763e-06
8.93636e-05
-5.31909e-06
8.91702e-05
-1.08885e-05
8.88209e-05
-1.82214e-05
8.60729e-05
-2.52515e-05
8.63325e-05
-3.00054e-05
8.54979e-05
-3.57646e-05
8.88365e-05
-4.7194e-05
9.50075e-05
-5.63409e-05
8.93711e-05
-4.91589e-05
7.17529e-05
-3.44476e-05
7.65766e-05
-1.70762e-05
9.15042e-05
-3.94574e-06
8.83277e-05
-1.06249e-06
7.38813e-05
-5.7373e-06
6.23145e-05
-1.45342e-05
5.54205e-05
-2.08959e-05
6.00318e-05
-6.46093e-06
8.22473e-05
1.41341e-05
0.000102149
4.11229e-05
9.16784e-05
6.8419e-05
9.30634e-05
7.75905e-05
0.000110953
6.60599e-05
0.000102041
4.27506e-05
8.83753e-05
1.80563e-05
8.06112e-05
1.278e-06
7.86577e-05
-8.67514e-06
7.88667e-05
-1.22807e-05
7.64527e-05
3.37297e-05
-1.46891e-06
5.37146e-05
-1.60928e-06
8.0238e-05
-4.99746e-06
8.31175e-05
-1.25442e-05
8.55128e-05
-2.49574e-05
8.5316e-05
-3.80034e-05
8.35703e-05
-4.76456e-05
7.97371e-05
-4.9749e-05
7.63342e-05
-5.18285e-05
8.01872e-05
-6.35648e-05
8.4578e-05
-5.33892e-05
6.53415e-05
-3.738e-05
6.50355e-05
-2.32435e-05
8.0141e-05
-1.34725e-05
8.27625e-05
-1.20934e-05
7.49674e-05
-1.63344e-05
6.78487e-05
-2.22117e-05
6.35302e-05
-2.29197e-05
6.56461e-05
-7.36328e-06
7.50831e-05
1.89722e-05
8.59683e-05
4.38172e-05
7.57595e-05
6.04389e-05
7.70417e-05
5.4956e-05
9.76716e-05
3.82591e-05
9.99002e-05
2.41205e-05
9.44942e-05
1.1816e-05
9.07097e-05
-5.4823e-07
8.90656e-05
-1.1103e-05
8.7453e-05
-8.9455e-06
7.41133e-05
2.5664e-05
1.38321e-06
5.10649e-05
1.05348e-06
7.87417e-05
-1.97997e-06
8.46286e-05
-7.85024e-06
8.97862e-05
-1.78723e-05
9.29878e-05
-3.07197e-05
9.11889e-05
-4.45273e-05
8.65507e-05
-4.87843e-05
7.41919e-05
-4.72833e-05
7.16013e-05
-5.70033e-05
7.72893e-05
-5.63265e-05
5.56949e-05
-3.60263e-05
5.0749e-05
-2.52919e-05
6.92262e-05
-1.97447e-05
7.7619e-05
-1.77602e-05
7.35697e-05
-1.96083e-05
7.03591e-05
-2.32794e-05
6.82552e-05
-2.32902e-05
6.86876e-05
-1.29839e-05
7.04452e-05
9.48517e-06
6.95261e-05
2.79426e-05
5.86617e-05
3.29052e-05
6.2574e-05
2.53071e-05
9.11881e-05
1.95004e-05
9.94248e-05
1.45899e-05
9.78508e-05
7.24379e-06
9.62333e-05
-1.79392e-06
9.60008e-05
-1.08939e-05
9.52553e-05
-3.26533e-06
6.72478e-05
2.23521e-05
8.56522e-06
4.31881e-05
7.37064e-06
7.91043e-05
3.85641e-06
8.64067e-05
-1.3294e-06
9.33793e-05
-7.9959e-06
9.83628e-05
-1.84676e-05
0.000100655
-2.65484e-05
9.22068e-05
-2.9588e-05
7.53136e-05
-2.61483e-05
6.86443e-05
-3.03703e-05
7.74125e-05
-3.76396e-05
5.68238e-05
-2.79454e-05
4.662e-05
-2.26254e-05
6.38456e-05
-1.87065e-05
7.35117e-05
-1.66498e-05
7.18236e-05
-1.74935e-05
7.18816e-05
-2.04043e-05
7.1856e-05
-2.25046e-05
7.17609e-05
-2.02962e-05
7.03249e-05
-1.18792e-05
6.42699e-05
-4.04855e-06
5.30956e-05
-8.82137e-07
5.75088e-05
7.85108e-06
8.11152e-05
1.01249e-05
9.56101e-05
8.51314e-06
9.89922e-05
3.1348e-06
0.000100874
-3.66528e-06
0.000101947
-4.3977e-06
9.68432e-05
2.71718e-06
6.14637e-05
2.46295e-05
9.71489e-06
3.43844e-05
1.61445e-05
7.37268e-05
1.29338e-05
8.91777e-05
8.66314e-06
9.75291e-05
3.69473e-06
0.000103606
-1.3411e-06
0.000106119
-3.85952e-06
9.40586e-05
-5.9537e-06
7.64057e-05
-6.10862e-06
6.96031e-05
-7.18576e-06
7.86951e-05
-1.31416e-05
6.3785e-05
-1.60714e-05
5.33122e-05
-1.4705e-05
6.26259e-05
-1.06963e-05
7.04445e-05
-9.92829e-06
7.22422e-05
-1.20084e-05
7.51268e-05
-1.63149e-05
7.69807e-05
-2.16242e-05
7.77145e-05
-2.65862e-05
7.60708e-05
-3.09142e-05
7.04065e-05
-3.40476e-05
6.29464e-05
-2.68641e-05
6.19361e-05
-8.79949e-06
7.13637e-05
3.56241e-06
8.58759e-05
6.33766e-06
9.71223e-05
3.59853e-06
0.000104897
3.4305e-07
0.000107158
6.4696e-06
9.40545e-05
7.65012e-06
6.24326e-05
3.20201e-05
5.05945e-06
3.02436e-05
1.84354e-05
6.30201e-05
2.15627e-05
8.84126e-05
2.12996e-05
0.000100354
1.91561e-05
0.000108322
1.95462e-05
0.000107923
1.90913e-05
9.60607e-05
1.58895e-05
8.01552e-05
8.96565e-06
7.61063e-05
8.83309e-06
7.94104e-05
7.3919e-07
7.33856e-05
-1.29641e-06
6.04352e-05
-1.19897e-06
6.45879e-05
1.23194e-06
7.11605e-05
-8.78881e-07
7.56634e-05
-5.35744e-06
8.03179e-05
-1.16161e-05
8.40666e-05
-2.04461e-05
8.73557e-05
-3.05075e-05
8.70897e-05
-4.01761e-05
8.08739e-05
-4.82555e-05
7.53207e-05
-4.29377e-05
7.30157e-05
-2.71901e-05
7.1786e-05
-8.28019e-06
7.77903e-05
2.01504e-06
9.15026e-05
6.07893e-06
0.000104078
9.29726e-06
0.000108292
1.38269e-05
9.43669e-05
1.05257e-05
6.82096e-05
4.23154e-05
2.03794e-07
3.19232e-05
1.21987e-05
5.48505e-05
2.29617e-05
8.2071e-05
2.93046e-05
9.83513e-05
3.27857e-05
0.00010888
3.52222e-05
0.000109333
3.50883e-05
9.93018e-05
2.861e-05
8.75918e-05
1.72077e-05
8.60591e-05
1.32971e-05
8.35668e-05
7.53163e-06
7.89224e-05
1.2453e-05
6.47202e-05
1.29588e-05
6.72161e-05
1.19144e-05
7.34773e-05
8.55418e-06
8.02151e-05
2.3561e-06
8.67259e-05
-5.14624e-06
9.0765e-05
-1.78148e-05
9.83004e-05
-3.5034e-05
0.000102212
-4.54432e-05
9.23397e-05
-5.23465e-05
8.4163e-05
-5.39037e-05
7.93909e-05
-4.26051e-05
7.77862e-05
-2.45108e-05
7.6726e-05
-5.71332e-06
8.42112e-05
7.91524e-06
9.75842e-05
1.55133e-05
0.000106356
1.70267e-05
9.74533e-05
1.17127e-05
7.5593e-05
5.35415e-05
-3.64523e-06
3.82804e-05
5.50011e-06
5.06787e-05
1.93907e-05
7.30702e-05
2.98918e-05
9.25826e-05
3.76473e-05
0.000105611
4.23306e-05
0.000108988
4.01189e-05
0.000104102
2.92771e-05
9.78755e-05
1.70006e-05
9.58731e-05
9.07676e-06
9.13589e-05
1.99858e-05
7.6077e-05
2.54891e-05
6.60425e-05
2.43706e-05
6.9549e-05
2.27341e-05
7.64553e-05
1.77883e-05
8.4194e-05
8.27021e-06
9.27359e-05
1.34597e-06
9.29943e-05
-1.34185e-05
0.000105002
-3.92711e-05
0.000116432
-5.20744e-05
9.94983e-05
-5.65553e-05
8.80399e-05
-5.7324e-05
8.17567e-05
-5.43046e-05
7.84383e-05
-4.17023e-05
7.82629e-05
-2.15865e-05
8.01582e-05
5.26107e-07
8.76923e-05
1.60112e-05
9.85294e-05
1.66832e-05
0.000100242
1.17879e-05
8.21009e-05
6.45738e-05
-6.2242e-06
4.49208e-05
-1.65074e-06
5.07338e-05
1.18338e-05
6.49571e-05
2.47468e-05
8.36261e-05
3.63226e-05
9.80479e-05
4.10328e-05
0.00010709
3.40417e-05
0.000110902
2.03555e-05
0.000108873
9.79962e-06
0.000104375
1.42785e-05
8.973e-05
3.38506e-05
7.12737e-05
3.50901e-05
6.79241e-05
3.45173e-05
7.18079e-05
3.19056e-05
7.79275e-05
2.19398e-05
8.89006e-05
6.53891e-06
9.75205e-05
-2.43575e-07
9.184e-05
-1.42942e-05
0.000109221
-3.4693e-05
0.000122738
-5.58093e-05
0.000104559
-6.06822e-05
8.57455e-05
-5.93283e-05
7.87595e-05
-5.59138e-05
7.60218e-05
-5.01682e-05
7.51284e-05
-3.70611e-05
7.6861e-05
-1.7106e-05
8.03246e-05
4.65903e-06
8.77549e-05
1.27752e-05
9.7428e-05
1.12815e-05
8.66504e-05
7.58137e-05
-5.87952e-06
5.0665e-05
-7.53622e-06
5.39593e-05
2.28248e-06
5.93395e-05
1.59375e-05
7.33358e-05
2.91013e-05
8.75405e-05
3.05005e-05
0.000106059
1.91872e-05
0.000119893
7.65862e-06
0.00011803
9.87015e-06
0.000103753
3.17463e-05
7.98946e-05
4.11366e-05
6.96749e-05
4.1783e-05
6.95287e-05
4.18994e-05
7.17725e-05
3.59165e-05
7.8662e-05
1.83863e-05
9.29695e-05
4.47336e-06
0.000100724
-7.36375e-06
0.000102733
-2.23427e-05
0.000123644
-3.24558e-05
0.000127948
-5.37465e-05
0.000109082
-6.10703e-05
7.90119e-05
-5.93667e-05
7.13853e-05
-5.47279e-05
6.99727e-05
-4.94479e-05
7.03513e-05
-4.1961e-05
7.11794e-05
-3.03002e-05
7.40873e-05
-1.33244e-05
7.97847e-05
4.04577e-06
8.89367e-05
9.13694e-06
8.66062e-05
8.6217e-05
-3.99257e-06
5.48442e-05
-8.87973e-06
5.89039e-05
-5.25946e-06
5.75247e-05
5.98704e-06
6.50081e-05
1.68818e-05
7.88596e-05
1.29532e-05
0.000109619
3.66754e-06
0.00012817
4.34087e-06
0.000118606
2.41502e-05
9.24796e-05
4.17425e-05
7.46019e-05
4.34159e-05
6.99734e-05
4.5002e-05
6.91894e-05
4.40406e-05
6.88492e-05
3.02004e-05
8.20406e-05
1.54276e-05
9.6903e-05
6.05822e-06
0.000107265
-1.19871e-05
0.00012097
-2.70363e-05
0.00013995
-3.54957e-05
0.000133859
-4.67977e-05
0.000112819
-5.32591e-05
7.47021e-05
-5.46716e-05
6.39404e-05
-5.10618e-05
6.32513e-05
-4.59997e-05
6.45504e-05
-4.03696e-05
6.55165e-05
-3.252e-05
6.74691e-05
-2.18831e-05
7.18978e-05
-5.95709e-06
7.8557e-05
3.76965e-06
8.14167e-05
9.08872e-05
-1.52223e-06
5.72125e-05
-8.62025e-06
6.60392e-05
-8.07757e-06
5.78501e-05
-1.0008e-06
5.94156e-05
6.10523e-06
7.34187e-05
-3.05785e-06
0.000118384
-2.12867e-06
0.000129174
1.49823e-05
0.000107595
3.70126e-05
8.20799e-05
4.2467e-05
7.27963e-05
4.27996e-05
7.07924e-05
4.17357e-05
6.8349e-05
3.75649e-05
6.80846e-05
2.10175e-05
8.77474e-05
1.57653e-05
9.87494e-05
4.8184e-06
0.000116441
-1.40114e-05
0.000138628
-2.56073e-05
0.000151079
-3.63495e-05
0.000138933
-3.56312e-05
0.000109833
-3.68704e-05
7.3284e-05
-4.35837e-05
6.38884e-05
-4.41381e-05
6.02102e-05
-4.14442e-05
6.03464e-05
-3.69535e-05
6.06157e-05
-3.07704e-05
6.14259e-05
-2.20099e-05
6.40092e-05
-1.10457e-05
6.86541e-05
-2.25497e-06
7.42428e-05
8.86253e-05
3.39048e-06
5.60145e-05
-1.12543e-05
8.01131e-05
-8.72828e-06
5.7462e-05
-3.93395e-06
5.54705e-05
-1.29622e-06
7.133e-05
-1.01698e-05
0.000125134
3.21095e-06
0.000119129
2.75977e-05
9.09257e-05
3.95673e-05
7.57066e-05
4.05596e-05
7.24795e-05
3.89505e-05
7.23691e-05
3.23403e-05
7.26934e-05
2.02785e-05
7.75741e-05
1.13443e-05
9.59794e-05
9.20455e-06
0.000103648
-1.11103e-06
0.000126535
-1.38855e-05
0.000151484
-2.11034e-05
0.000158761
-2.73975e-05
0.000143487
-1.61502e-05
0.000107904
-2.04413e-05
8.23931e-05
-2.97969e-05
7.07317e-05
-3.51771e-05
6.31144e-05
-3.61e-05
5.97051e-05
-3.31844e-05
5.70698e-05
-2.81795e-05
5.61667e-05
-2.11146e-05
5.71324e-05
-1.23616e-05
6.04686e-05
-4.98424e-06
6.73857e-05
8.31117e-05
8.60345e-06
4.92947e-05
-1.17339e-05
9.46219e-05
-1.17106e-05
5.81489e-05
-4.8906e-06
5.06974e-05
-8.47394e-06
7.50425e-05
-7.84088e-06
0.000120977
1.34101e-05
9.948e-05
3.31549e-05
7.62091e-05
3.92211e-05
7.13339e-05
3.91748e-05
7.30233e-05
3.44547e-05
7.65806e-05
2.21332e-05
8.47136e-05
3.45597e-06
0.000100878
-2.17641e-06
0.000115434
-8.23227e-06
0.000121023
-1.17189e-05
0.000138167
-1.40094e-05
0.000159981
-1.44932e-05
0.000164955
-7.56041e-06
0.000149013
7.20866e-07
0.000115573
-1.06735e-05
9.57651e-05
-1.94365e-05
8.16851e-05
-2.83334e-05
7.14692e-05
-3.21244e-05
6.2372e-05
-3.0216e-05
5.46189e-05
-2.58017e-05
5.13731e-05
-1.97293e-05
5.09157e-05
-1.2378e-05
5.32676e-05
-5.30082e-06
6.05303e-05
7.6844e-05
6.87219e-06
4.27897e-05
1.68682e-06
9.3011e-05
-9.00966e-06
6.80234e-05
-4.59533e-06
4.70078e-05
-1.3722e-05
7.82957e-05
8.54021e-07
0.000103166
2.41372e-05
7.79286e-05
3.69512e-05
6.64932e-05
4.07305e-05
6.821e-05
4.09167e-05
7.38184e-05
3.55772e-05
8.3142e-05
2.02236e-05
0.000102942
-6.81388e-06
0.000134126
-1.59847e-05
0.00014198
-2.80128e-05
0.000147127
-2.83562e-05
0.000154893
-1.75693e-05
0.000165769
-2.70423e-06
0.000162703
1.3999e-05
0.00014861
8.30386e-06
0.000124917
-4.35514e-06
0.000108275
-1.64485e-05
0.000101682
-2.89647e-05
8.232e-05
-3.2411e-05
6.50748e-05
-2.94405e-05
5.13496e-05
-2.42255e-05
4.62113e-05
-1.84236e-05
4.48474e-05
-1.18632e-05
4.65431e-05
-5.14619e-06
5.35494e-05
7.04007e-05
3.40825e-06
3.92893e-05
1.79971e-05
7.61934e-05
8.97018e-06
7.42268e-05
-9.9871e-07
5.72917e-05
-7.64197e-06
7.7572e-05
1.52929e-05
8.01009e-05
3.46675e-05
6.31198e-05
4.2061e-05
6.12502e-05
4.5841e-05
6.56302e-05
4.88206e-05
7.25773e-05
4.77276e-05
8.46817e-05
2.65039e-05
0.000124276
-1.18206e-05
0.000168233
-3.211e-05
0.000159943
-4.73214e-05
0.000163473
-4.93589e-05
0.000165617
-3.23042e-05
0.000164203
-8.0361e-06
0.000156048
5.05321e-06
0.000144479
-2.81374e-06
0.000133955
-1.50474e-05
0.000130706
-3.61079e-05
0.000122213
-3.76897e-05
8.65963e-05
-3.64838e-05
6.28545e-05
-3.06473e-05
4.48977e-05
-2.34642e-05
3.97514e-05
-1.7584e-05
3.86962e-05
-1.16668e-05
4.03474e-05
-5.63809e-06
4.70088e-05
6.40795e-05
-9.38987e-07
4.19891e-05
1.98687e-05
5.89945e-05
2.46924e-05
6.89128e-05
9.09996e-06
6.93289e-05
9.20757e-06
7.53423e-05
3.08412e-05
6.32525e-05
4.2635e-05
5.66505e-05
4.71542e-05
5.79806e-05
5.26469e-05
6.17398e-05
5.90488e-05
6.61801e-05
6.39172e-05
7.44312e-05
2.40846e-05
0.000148556
-2.45816e-05
0.000186918
-5.88604e-05
0.000166706
-7.54291e-05
0.000157088
-7.92884e-05
0.00014924
-6.93421e-05
0.00014088
-5.82054e-05
0.000137732
-5.94752e-05
0.000136046
-6.84685e-05
0.000132705
-7.54044e-05
0.000126017
-7.14908e-05
0.00010509
-5.39968e-05
6.29902e-05
-4.22622e-05
4.44785e-05
-3.17911e-05
3.27276e-05
-2.30265e-05
3.15732e-05
-1.69341e-05
3.26771e-05
-1.16968e-05
3.4826e-05
-6.1897e-06
4.12171e-05
5.77768e-05
-7.19284e-06
5.05223e-05
8.65325e-06
4.89893e-05
2.19791e-05
5.86773e-05
1.75525e-05
7.29526e-05
2.60516e-05
6.97129e-05
4.09726e-05
5.57109e-05
4.65566e-05
5.33138e-05
5.09988e-05
5.4793e-05
5.67688e-05
5.60188e-05
6.27861e-05
5.60786e-05
6.28e-05
7.27197e-05
4.54234e-07
0.000178031
-5.51977e-05
0.000214329
-0.000104714
0.00019008
-0.00013332
0.000161337
-0.000147439
0.000137718
-0.000149734
0.00011961
-0.000144866
0.000113122
-0.000139602
0.000114133
-0.000126971
0.000108918
-0.00010462
9.50469e-05
-7.01138e-05
6.51869e-05
-5.10973e-05
3.58256e-05
-3.89653e-05
2.72e-05
-2.89541e-05
2.12566e-05
-2.14444e-05
2.40816e-05
-1.59995e-05
2.73479e-05
-1.1466e-05
3.00002e-05
-6.22699e-06
3.58561e-05
5.15084e-05
-7.77368e-06
5.64191e-05
-1.71639e-06
4.44672e-05
1.22197e-05
4.85973e-05
2.08314e-05
6.61816e-05
3.65211e-05
6.14975e-05
4.44987e-05
5.25075e-05
4.79513e-05
5.08553e-05
5.1849e-05
5.13454e-05
5.46355e-05
5.0578e-05
5.74545e-05
4.73045e-05
2.40354e-05
0.000103751
-4.25147e-05
0.000227117
-9.25216e-05
0.000256808
-0.000135611
0.00022465
-0.00016039
0.000178449
-0.000169892
0.000139345
-0.00017107
0.000112726
-0.000164873
0.000100399
-0.000148358
9.34128e-05
-0.000121076
7.94904e-05
-8.40501e-05
5.83388e-05
-4.86474e-05
3.0879e-05
-3.75201e-05
1.89566e-05
-2.93123e-05
1.62849e-05
-2.32599e-05
1.48702e-05
-1.86159e-05
1.93866e-05
-1.48059e-05
2.32021e-05
-1.10405e-05
2.58862e-05
-6.11443e-06
3.08964e-05
4.53908e-05
-5.61884e-06
5.82098e-05
-1.49266e-06
4.00227e-05
7.1634e-06
3.94997e-05
2.36802e-05
5.23496e-05
3.844e-05
5.31673e-05
4.40864e-05
4.9281e-05
4.74376e-05
4.829e-05
4.92706e-05
4.81061e-05
4.78838e-05
4.82199e-05
4.56228e-05
4.44062e-05
-2.42755e-05
0.000163164
-7.90011e-05
0.000281027
-0.000117708
0.000294688
-0.000144564
0.000250242
-0.000157157
0.000189755
-0.000159104
0.000140103
-0.000156369
0.000108832
-0.000143092
8.70939e-05
-0.000116861
6.79503e-05
-8.5529e-05
4.89009e-05
-5.41035e-05
2.80897e-05
-3.18847e-05
1.03898e-05
-2.70855e-05
1.00719e-05
-2.17252e-05
1.00337e-05
-1.85018e-05
1.19598e-05
-1.60297e-05
1.65452e-05
-1.36346e-05
2.0245e-05
-1.05496e-05
2.23682e-05
-5.95125e-06
2.63585e-05
3.94914e-05
-2.91774e-06
5.69353e-05
1.99892e-06
3.40052e-05
9.011e-06
3.09195e-05
2.44674e-05
3.91424e-05
3.65673e-05
4.52452e-05
4.26803e-05
4.54141e-05
4.50392e-05
4.56105e-05
4.45624e-05
4.64181e-05
3.72972e-05
5.05562e-05
7.67363e-06
7.99844e-05
-6.69299e-05
0.000228848
-0.000106806
0.000322689
-0.00013204
0.000319249
-0.000143089
0.000260624
-0.000143792
0.000189471
-0.000140286
0.00013594
-0.000128639
9.65834e-05
-0.000105929
6.43174e-05
-7.93767e-05
4.22065e-05
-5.39642e-05
2.45003e-05
-3.39806e-05
8.89968e-06
-2.33067e-05
-1.14035e-07
-2.12118e-05
5.96126e-06
-1.76804e-05
7.06687e-06
-1.567e-05
1.03632e-05
-1.42684e-05
1.49052e-05
-1.26637e-05
1.80301e-05
-1.00129e-05
1.92447e-05
-5.83841e-06
2.23165e-05
3.39028e-05
2.64578e-06
5.36834e-05
6.01966e-06
3.01217e-05
1.22834e-05
2.41349e-05
2.34282e-05
2.94357e-05
3.48435e-05
3.7703e-05
4.12343e-05
4.15869e-05
4.16397e-05
4.44005e-05
3.81873e-05
4.61574e-05
2.43532e-05
5.76955e-05
-4.64876e-05
0.000145761
-0.000101884
0.000285833
-0.000128049
0.00035098
-0.000138519
0.000329646
-0.000137529
0.000258719
-0.000130935
0.000180907
-0.000118869
0.000122381
-9.63812e-05
7.35032e-05
-7.22591e-05
4.04819e-05
-5.08848e-05
2.124e-05
-3.35917e-05
7.93682e-06
-2.29921e-05
-8.24874e-07
-1.98394e-05
-3.09567e-06
-1.866e-05
4.48373e-06
-1.58135e-05
4.68379e-06
-1.43577e-05
9.09712e-06
-1.35056e-05
1.35097e-05
-1.19522e-05
1.5837e-05
-9.253e-06
1.61532e-05
-5.57622e-06
1.87539e-05
2.87932e-05
5.8629e-06
4.8988e-05
8.51597e-06
2.78356e-05
1.4201e-05
1.9405e-05
2.25434e-05
2.24897e-05
3.38899e-05
3.07341e-05
3.89105e-05
3.89173e-05
3.56353e-05
4.53868e-05
2.56134e-05
4.97627e-05
-2.06741e-05
0.000101356
-9.71112e-05
0.000214039
-0.000133036
0.000322972
-0.000143345
0.000362402
-0.000139299
0.000325766
-0.000126834
0.000245342
-0.000111973
0.00016423
-8.85818e-05
9.8065e-05
-6.32435e-05
4.93308e-05
-4.38678e-05