/*--------------------------------*- C++ -*----------------------------------*\
| =========                 |                                                 |
| \\      /  F ield         | OpenFOAM: The Open Source CFD Toolbox           |
|  \\    /   O peration     | Version:  v1606+                                |
|   \\  /    A nd           | Web:      www.OpenFOAM.com                      |
|    \\/     M anipulation  |                                                 |
\*---------------------------------------------------------------------------*/
FoamFile
{
    version     2.0;
    format      ascii;
    class       volScalarField;
    location    "44";
    object      p;
}
// * * * * * * * * * * * * * * * * * * * * * * * * * * * * * * * * * * * * * //

dimensions      [1 -1 -2 0 0 0 0];

internalField   nonuniform List<scalar> 
5080
(
417110
417123
417156
417207
417277
417360
417458
417564
417681
417800
417925
418046
418167
418277
418383
418469
418544
418594
418613
418610
397003
397026
397063
397117
397185
397270
397366
397474
397587
397708
397826
397949
398058
398172
398258
398358
398406
398486
398498
398550
377550
377568
377604
377657
377725
377809
377905
378012
378126
378244
378365
378484
378600
378709
378811
378900
378985
379038
379108
379143
358702
358720
358755
358807
358875
358958
359053
359158
359271
359389
359508
359627
359742
359850
359950
360034
360107
360156
360196
360241
340452
340470
340504
340555
340622
340703
340797
340900
341011
341127
341244
341361
341473
341578
341673
341760
341829
341907
341929
341997
322786
322803
322836
322885
322950
323029
323120
323221
323329
323442
323557
323670
323781
323885
323982
324062
324137
324170
324230
324230
305689
305705
305737
305784
305846
305922
306009
306106
306210
306319
306428
306538
306643
306742
306828
306911
306966
307058
307057
307169
289148
289163
289192
289237
289296
289367
289450
289541
289639
289740
289844
289947
290047
290141
290230
290298
290377
290375
290473
290413
273149
273163
273191
273232
273285
273351
273426
273510
273599
273693
273787
273880
273969
274052
274119
274192
274218
274334
274282
274471
257682
257694
257718
257755
257802
257860
257927
258000
258079
258159
258241
258320
258397
258466
258536
258580
258662
258599
258761
258590
242733
242744
242764
242795
242835
242883
242938
242999
243062
243126
243190
243250
243304
243353
243382
243425
243394
243536
243386
243707
228292
228300
228316
228340
228371
228408
228449
228492
228537
228580
228619
228653
228681
228700
228720
228714
228780
228621
228871
228508
214348
214354
214364
214380
214400
214423
214447
214471
214491
214507
214515
214513
214501
214477
214433
214399
214259
214402
214069
214610
200891
200893
200898
200904
200912
200919
200923
200923
200915
200896
200865
200817
200752
200671
200579
200465
200449
200142
200480
199768
187909
187908
187906
187903
187897
187886
187868
187840
187799
187740
187659
187554
187420
187256
187061
186850
186508
186531
185836
186735
175392
175388
175379
175365
175344
175315
175273
175215
175136
175031
174893
174716
174494
174224
173907
173550
173262
172707
173017
171589
163329
163322
163306
163281
163246
163197
163130
163040
162920
162764
162561
162301
161974
161569
161074
160491
159739
159247
157771
159011
151710
151699
151676
151641
151591
151523
151431
151309
151147
150937
150664
150313
149864
149294
148579
147713
146697
145458
145297
141772
140522
140508
140479
140434
140370
140284
140168
140014
139813
139549
139206
138760
138177
137429
136447
135195
133551
131485
128382
127175
129754
129737
129701
129648
129572
129469
129331
129150
128911
128600
128190
127655
126944
126004
124749
123035
120842
117245
115384
100599
253104
255904
242644
212911
172783
131607
97242.8
72089.9
55489.7
45187.2
38828.7
34778.7
32082
30255.6
29053.2
28222.9
27783.7
27628.4
27600.9
27575.1
27501.7
27404.3
27336.5
27340.3
27386.9
27423.1
27423.8
27411.8
27433.9
27516.5
27635.8
27729.6
27756.5
27721.9
27670.4
27654.5
27684.9
27717.2
27733.3
27747.2
27742.6
27755.9
27747.8
27778.2
27797.3
27800.7
27791.4
27837.3
27877.8
27885.3
27912.2
27901.8
27905.7
27927.9
27919.5
27908.2
27873.9
27821.2
27781.7
27770.1
247139
246487
232319
204088
165551
125170
91227.4
66458.7
49979.7
39548.5
33060.9
29019.3
26431.5
24729.2
23587.9
22915.9
22526.2
22381.4
22375.7
22381
22327.2
22231.7
22152.7
22154.7
22215.4
22274.2
22287.6
22271.2
22277.8
22350.5
22476.7
22593.5
22643.2
22617.1
22569.4
22555
22585.2
22646.8
22678.9
22671.5
22656.2
22674.2
22716.5
22774.3
22797.6
22794.3
22764.1
22768.1
22812.7
22848
22878.1
22883.8
22880.9
22873.6
22851.8
22839
22805.8
22739.3
22695.8
22666.5
238693
236147
220297
192223
154691
115434
82901.8
59477.7
43815.4
33641.1
27217.2
23318.3
20961.9
19484.7
18589.7
17719.8
17280.2
17154.4
17194.2
17240.4
17195.6
17081.7
16965.3
16955
17027.1
17106.6
17127.1
17097.5
17077.8
17138.2
17277.7
17419.8
17485.3
17471.4
17421.7
17410.3
17444.8
17503.3
17530.3
17504.4
17473.5
17484.6
17571
17657.3
17688.2
17681.7
17639.5
17595.5
17604.4
17631.7
17663.2
17663
17654.5
17649.7
17634.9
17626.3
17595.3
17523.3
17466
17423.9
225808
222209
204572
175300
137598
99418.6
69242.3
48524
35114.2
26048
20076.3
16624.6
14702.1
13518.6
12694.4
12093.5
11725.2
11676.5
11799.5
11927.4
11908.2
11780.4
11616.4
11604.4
11697.4
11808.2
11833.2
11785.2
11735.5
11792.3
11954.8
12136.9
12215.5
12205.4
12134.6
12115.8
12160.1
12227.6
12250.3
12217.9
12167.3
12172.4
12253.3
12360.5
12400.5
12390.2
12333.6
12292.6
12299.5
12328.8
12354.1
12352.1
12343.9
12343.2
12340.4
12333
12299.5
12219
12154.6
12108.9
208598
204566
185103
153091
113312
75794.4
49032.3
32285.8
22792.9
16311.3
11518.5
8936.45
7819.09
7214.75
6584.97
6200.23
5878.94
5966.8
6285.32
6561.54
6550.54
6371.48
6081.16
6087.14
6259.66
6445.44
6455.59
6342.08
6213.47
6282.97
6526.38
6797.29
6878.86
6822.87
6669.44
6643.34
6727.23
6857.46
6881.15
6815.3
6705.74
6705.24
6813.22
6980
7028.04
6998.33
6904.88
6865.39
6884.45
6928.82
6945.46
6933.57
6921.01
6928.86
6949.51
6946.34
6901.78
6791.31
6718.65
6692.13
187644
183866
163177
127241
82065.7
43946.3
22592.8
10817.6
5388.74
2770.58
1897.97
1562.19
1573.67
1725.95
1724.02
1559.09
1374.94
1393.44
1598.64
1904.64
1959.48
1901.95
1630.37
1592.43
1696.5
1877.03
1922.55
1840.08
1697.87
1701.83
1848.16
2075.51
2159.23
2128.82
1984.64
1946.7
1998.12
2117.99
2151.88
2109.71
2007.34
1987.37
2044.04
2173.96
2212.4
2191.86
2111.85
2083.19
2099.07
2140.51
2156.01
2146.11
2133.58
2136.58
2155.37
2155.05
2127.43
2045.75
1997.53
1999.14
164364
161218
140704
100348
46031.6
8685.68
1565.08
623.386
239.66
16.0592
1.29564
-9.2464
-18.999
-27.8891
-32.218
-31.853
-29.9528
-29.2653
-32.9036
-36.4838
-32.0349
-26.0771
-21.4054
-20.8157
-20.9002
-16.2962
-10.15
-6.13782
-4.45691
-4.48202
-4.75423
0.305893
9.17647
14.3266
17.1267
17.7454
18.2118
21.7914
28.1877
30.7666
31.1608
27.6171
22.3709
18.9713
18.1809
18.1278
16.8256
16.1748
16.7308
20.5718
27.6627
30.2505
30.1669
27.567
22.4171
17.6187
14.7178
12.6937
10.4872
7.92569
140609
137879
118749
72722.9
13480.2
914.26
37.6776
17.0436
20.9351
5.26471
-9.94685
-16.7063
-20.8581
-25.7358
-30.185
-33.2377
-34.6944
-35.5127
-37.894
-42.618
-44.7316
-41.5739
-38.0882
-37.8443
-39.8649
-41.6197
-40.6464
-38.4897
-37.0577
-37.0254
-38.5059
-40.6222
-41.4791
-40.8185
-39.6146
-38.9204
-39.0592
-39.8171
-40.0506
-39.5404
-38.7236
-38.1527
-38.2877
-38.9265
-39.2993
-39.0617
-38.426
-38.2091
-38.5118
-39.1801
-39.4437
-39.1412
-38.7289
-38.2222
-37.793
-37.5691
-37.2266
-36.5058
-35.8825
-35.9696
118119
115601
97624.9
44191.7
1844.16
427.313
60.263
49.4717
22.1759
-2.91846
-16.8891
-24.2889
-29.4576
-34.4742
-38.51
-40.824
-41.7976
-42.2335
-43.776
-46.885
-48.4707
-47.0064
-44.7046
-43.8422
-44.8474
-46.117
-46.0002
-44.9801
-43.9774
-43.7042
-44.4882
-45.8404
-46.6114
-46.5705
-46.0282
-45.5675
-45.5292
-45.8719
-46.0457
-45.8191
-45.3059
-44.8462
-44.7442
-45.0282
-45.2649
-45.2388
-44.9971
-44.8588
-44.9579
-45.2009
-45.3282
-45.194
-44.9499
-44.6352
-44.3131
-43.9977
-43.5966
-43.0084
-42.4593
-42.1654
97621.9
95506.5
78621.2
23349.1
972.135
168.822
53.0572
23.7437
-4.49864
-21.3658
-29.3336
-34.1095
-38.1342
-41.9787
-45.0728
-46.9227
-47.7133
-48.3085
-49.6472
-51.8464
-53.2695
-52.6942
-51.1926
-50.453
-51.0416
-52.0325
-52.2172
-51.5776
-50.7865
-50.5116
-51.0458
-52.0604
-52.7614
-52.8267
-52.4391
-52.0529
-51.968
-52.1573
-52.2587
-52.0665
-51.6553
-51.2773
-51.1639
-51.3247
-51.4813
-51.433
-51.2237
-51.0873
-51.1308
-51.3452
-51.4546
-51.3599
-51.1366
-50.8315
-50.4981
-50.1524
-49.7267
-49.1587
-48.6255
-48.2068
79219.8
76834.3
62585.7
16519.9
513.044
123.271
20.4935
-0.427168
-24.5821
-37.3387
-41.9603
-44.5442
-47.126
-49.8072
-52.0731
-53.5502
-54.2856
-54.7967
-55.7902
-57.3718
-58.5406
-58.3985
-57.4905
-56.9756
-57.3631
-58.1145
-58.3863
-58.0351
-57.5019
-57.2989
-57.6727
-58.4147
-58.9909
-59.1127
-58.8752
-58.5892
-58.4888
-58.5687
-58.6013
-58.4326
-58.1057
-57.794
-57.6651
-57.7233
-57.7987
-57.7461
-57.5906
-57.4865
-57.516
-57.6539
-57.7227
-57.6364
-57.4292
-57.1384
-56.8063
-56.4452
-56.0101
-55.4622
-54.9424
-54.4216
63253.7
60036.4
46179.5
8968.67
192.829
27.2847
-19.6668
-27.1048
-41.3446
-50.4829
-53.6436
-54.9406
-56.3539
-58.0175
-59.5191
-60.5731
-61.1186
-61.5221
-62.2305
-63.3327
-64.2132
-64.2696
-63.7615
-63.4402
-63.7074
-64.2684
-64.5693
-64.4439
-64.1442
-64.0306
-64.3038
-64.8447
-65.3084
-65.4685
-65.3552
-65.1641
-65.0661
-65.0758
-65.0598
-64.9117
-64.6495
-64.3868
-64.2418
-64.2264
-64.2409
-64.1867
-64.0731
-63.992
-63.9999
-64.0746
-64.1042
-64.0208
-63.8329
-63.5644
-63.2444
-62.8803
-62.4463
-61.9123
-61.3865
-60.7546
50121.6
46013.5
33149.2
3068.19
26.6414
-95.6416
-57.45
-51.8734
-57.3337
-62.2349
-64.1704
-64.735
-65.3711
-66.2657
-67.138
-67.8207
-68.1593
-68.4394
-68.9121
-69.6427
-70.262
-70.3838
-70.1195
-69.9371
-70.132
-70.5564
-70.8568
-70.8806
-70.7589
-70.733
-70.9556
-71.3652
-71.7428
-71.9198
-71.8915
-71.7762
-71.6934
-71.6662
-71.6203
-71.4854
-71.2682
-71.0426
-70.8909
-70.8293
-70.7996
-70.7383
-70.6457
-70.5753
-70.5639
-70.5943
-70.5939
-70.5106
-70.3395
-70.0933
-69.7899
-69.4317
-69.0034
-68.4762
-67.933
-67.2044
39862.4
34497.8
21166
263.774
-92.2777
-114.424
-81.8082
-72.2383
-72.4283
-73.2988
-73.7211
-73.6819
-73.8464
-74.2602
-74.6954
-75.1307
-75.3052
-75.4798
-75.7661
-76.221
-76.6257
-76.7431
-76.6146
-76.5229
-76.6726
-76.9972
-77.2763
-77.3874
-77.3914
-77.441
-77.6442
-77.9715
-78.2855
-78.4656
-78.4928
-78.4357
-78.3743
-78.3322
-78.2701
-78.1451
-77.96
-77.7633
-77.612
-77.522
-77.4609
-77.3895
-77.305
-77.2382
-77.2115
-77.2109
-77.1879
-77.1031
-76.9461
-76.7211
-76.437
-76.0915
-75.6729
-75.1505
-74.5859
-73.776
32640.1
26474.1
7003.5
267.625
-144.289
-91.3312
-94.1103
-86.6715
-85.1805
-83.3837
-82.4621
-81.8538
-81.7299
-81.9019
-82.0632
-82.3852
-82.4535
-82.566
-82.7224
-82.9867
-83.2298
-83.3163
-83.257
-83.2184
-83.3362
-83.5855
-83.8333
-83.9895
-84.0757
-84.1825
-84.3807
-84.657
-84.9256
-85.1027
-85.1659
-85.1523
-85.1135
-85.0696
-85.0021
-84.8867
-84.7261
-84.5525
-84.4052
-84.2986
-84.2163
-84.1351
-84.0522
-83.9848
-83.9451
-83.9221
-83.8826
-83.7969
-83.6527
-83.4486
-83.186
-82.8583
-82.4534
-81.9374
-81.3528
-80.4782
28070
22870.6
4984.47
209.912
-76.7311
-68.04
-95.2315
-93.7563
-94.2378
-91.8789
-90.3954
-89.4402
-89.1591
-89.2599
-89.2208
-89.5483
-89.5455
-89.6418
-89.7231
-89.8709
-90.0052
-90.0606
-90.0349
-90.0255
-90.1192
-90.3121
-90.5267
-90.7003
-90.835
-90.9797
-91.1774
-91.4214
-91.6579
-91.8297
-91.9156
-91.9337
-91.9159
-91.8779
-91.8127
-91.7081
-91.5674
-91.4128
-91.2717
-91.1567
-91.061
-90.9717
-90.8872
-90.8166
-90.7661
-90.7269
-90.676
-90.5911
-90.4596
-90.2761
-90.0366
-89.7306
-89.3434
-88.8382
-88.2391
-87.3199
25267.6
19764.8
4978.96
315.172
-36.4949
-69.6176
-93.2517
-97.5322
-99.786
-98.6805
-97.5468
-96.6485
-96.3199
-96.4666
-96.2294
-96.6542
-96.5762
-96.6886
-96.736
-96.826
-96.8983
-96.9353
-96.9283
-96.9361
-97.0133
-97.1655
-97.3496
-97.5244
-97.6832
-97.8492
-98.0456
-98.2675
-98.4807
-98.6462
-98.7457
-98.7864
-98.787
-98.7589
-98.7009
-98.6082
-98.4849
-98.3469
-98.2135
-98.0958
-97.9924
-97.8974
-97.81
-97.7353
-97.6762
-97.6256
-97.5674
-97.4849
-97.3661
-97.2032
-96.9883
-96.7072
-96.3423
-95.8539
-95.2494
-94.3084
23611.6
17680.6
6130
647.637
-38.9121
-79.1711
-94.7356
-100.176
-103.943
-104.428
-104.172
-103.666
-103.397
-103.61
-103.274
-103.68
-103.588
-103.722
-103.756
-103.829
-103.875
-103.91
-103.918
-103.94
-104.008
-104.133
-104.292
-104.46
-104.627
-104.801
-104.994
-105.199
-105.394
-105.553
-105.66
-105.716
-105.732
-105.716
-105.668
-105.588
-105.481
-105.358
-105.233
-105.117
-105.01
-104.912
-104.822
-104.743
-104.677
-104.619
-104.557
-104.478
-104.372
-104.23
-104.041
-103.788
-103.45
-102.986
-102.387
-101.448
22631.2
16335.8
7446.88
843.738
-62.5298
-100.211
-102.313
-104.74
-108.622
-110.142
-110.714
-110.667
-110.578
-110.783
-110.435
-110.731
-110.64
-110.764
-110.802
-110.878
-110.922
-110.968
-110.992
-111.028
-111.095
-111.204
-111.344
-111.502
-111.668
-111.842
-112.027
-112.218
-112.399
-112.55
-112.661
-112.728
-112.757
-112.752
-112.716
-112.649
-112.557
-112.448
-112.334
-112.222
-112.116
-112.017
-111.925
-111.844
-111.773
-111.709
-111.646
-111.572
-111.479
-111.358
-111.196
-110.975
-110.669
-110.237
-109.655
-108.74
21991.9
15408.3
8144.76
995.169
-119.578
-123.721
-116.263
-112.934
-115.41
-116.76
-117.646
-117.841
-117.948
-118.034
-117.778
-117.913
-117.818
-117.89
-117.911
-117.988
-118.039
-118.1
-118.144
-118.197
-118.269
-118.37
-118.498
-118.646
-118.806
-118.975
-119.151
-119.329
-119.497
-119.641
-119.752
-119.827
-119.867
-119.873
-119.849
-119.796
-119.718
-119.624
-119.52
-119.415
-119.312
-119.214
-119.123
-119.04
-118.966
-118.9
-118.836
-118.769
-118.69
-118.59
-118.457
-118.268
-117.999
-117.606
-117.053
-116.18
21670.6
14817.8
8079.11
884.604
-150.714
-135.565
-131.977
-124.062
-124.588
-124.72
-125.265
-125.348
-125.461
-125.416
-125.239
-125.254
-125.163
-125.179
-125.164
-125.215
-125.254
-125.318
-125.377
-125.446
-125.526
-125.627
-125.75
-125.89
-126.043
-126.203
-126.369
-126.535
-126.692
-126.829
-126.939
-127.019
-127.067
-127.084
-127.072
-127.032
-126.969
-126.889
-126.797
-126.701
-126.604
-126.509
-126.42
-126.337
-126.262
-126.195
-126.133
-126.072
-126.007
-125.929
-125.824
-125.672
-125.443
-125.093
-124.578
-123.762
21662.4
14526.9
7496.72
733.28
-168.856
-136.091
-144.956
-135.901
-134.98
-133.665
-133.482
-133.227
-133.165
-132.986
-132.788
-132.733
-132.624
-132.617
-132.583
-132.607
-132.627
-132.671
-132.724
-132.792
-132.875
-132.977
-133.097
-133.232
-133.378
-133.531
-133.687
-133.842
-133.988
-134.119
-134.227
-134.31
-134.365
-134.392
-134.391
-134.365
-134.316
-134.249
-134.17
-134.084
-133.995
-133.906
-133.821
-133.74
-133.666
-133.6
-133.541
-133.488
-133.436
-133.379
-133.303
-133.186
-132.998
-132.695
-132.226
-131.478
21944.1
14591.5
7061.29
593.187
-173.588
-131.104
-151.64
-145.894
-144.772
-142.737
-141.953
-141.331
-140.993
-140.695
-140.466
-140.356
-140.215
-140.178
-140.127
-140.135
-140.151
-140.184
-140.226
-140.281
-140.352
-140.443
-140.552
-140.678
-140.816
-140.961
-141.108
-141.253
-141.391
-141.516
-141.623
-141.708
-141.768
-141.804
-141.814
-141.8
-141.765
-141.712
-141.646
-141.571
-141.492
-141.412
-141.332
-141.255
-141.184
-141.12
-141.066
-141.02
-140.981
-140.943
-140.893
-140.81
-140.663
-140.409
-139.99
-139.319
22408.7
14990.2
7272.23
688.329
-150.277
-129.027
-152.437
-152.574
-152.673
-151.123
-150.254
-149.422
-148.894
-148.521
-148.24
-148.096
-147.935
-147.88
-147.811
-147.798
-147.801
-147.826
-147.864
-147.916
-147.98
-148.058
-148.151
-148.259
-148.381
-148.51
-148.644
-148.778
-148.907
-149.027
-149.132
-149.219
-149.284
-149.328
-149.348
-149.346
-149.324
-149.285
-149.232
-149.17
-149.102
-149.031
-148.959
-148.888
-148.822
-148.763
-148.712
-148.674
-148.646
-148.624
-148.597
-148.544
-148.435
-148.228
-147.865
-147.276
22846.2
15502.6
7854.97
1036.18
-110.717
-134.408
-154.597
-157.492
-159.03
-158.642
-158.149
-157.344
-156.818
-156.426
-156.119
-155.955
-155.771
-155.7
-155.626
-155.603
-155.596
-155.609
-155.636
-155.68
-155.737
-155.809
-155.894
-155.991
-156.096
-156.208
-156.324
-156.442
-156.557
-156.667
-156.766
-156.852
-156.921
-156.971
-157
-157.01
-157
-156.974
-156.935
-156.887
-156.831
-156.77
-156.708
-156.645
-156.586
-156.531
-156.486
-156.453
-156.434
-156.424
-156.414
-156.386
-156.309
-156.147
-155.842
-155.343
23050.9
15892.1
8433.11
1312.54
-85.878
-148.917
-162.259
-163.566
-165.285
-165.774
-165.728
-165.122
-164.744
-164.392
-164.088
-163.926
-163.736
-163.653
-163.571
-163.535
-163.521
-163.529
-163.551
-163.587
-163.634
-163.695
-163.77
-163.856
-163.95
-164.052
-164.156
-164.261
-164.364
-164.461
-164.551
-164.631
-164.697
-164.748
-164.782
-164.799
-164.8
-164.786
-164.761
-164.725
-164.682
-164.634
-164.583
-164.53
-164.479
-164.431
-164.391
-164.362
-164.347
-164.345
-164.345
-164.333
-164.282
-164.159
-163.918
-163.52
22839.1
15963.4
8792.62
1634.17
-67.1184
-161.168
-171.374
-171.233
-172.317
-173.057
-173.27
-172.93
-172.702
-172.434
-172.151
-172.005
-171.82
-171.733
-171.652
-171.609
-171.585
-171.584
-171.599
-171.629
-171.671
-171.726
-171.791
-171.865
-171.947
-172.036
-172.129
-172.224
-172.318
-172.409
-172.494
-172.569
-172.631
-172.68
-172.714
-172.733
-172.738
-172.732
-172.715
-172.69
-172.659
-172.623
-172.585
-172.544
-172.502
-172.462
-172.428
-172.402
-172.389
-172.387
-172.391
-172.386
-172.35
-172.259
-172.086
-171.819
21987.5
15530.2
8758.13
1908
-41.468
-172.083
-181.197
-179.946
-180.22
-180.786
-181.008
-180.885
-180.734
-180.573
-180.323
-180.203
-180.032
-179.94
-179.862
-179.816
-179.789
-179.783
-179.792
-179.813
-179.847
-179.894
-179.951
-180.017
-180.091
-180.17
-180.254
-180.338
-180.423
-180.506
-180.585
-180.656
-180.717
-180.766
-180.802
-180.824
-180.833
-180.829
-180.817
-180.797
-180.772
-180.744
-180.714
-180.684
-180.653
-180.623
-180.595
-180.572
-180.557
-180.552
-180.551
-180.544
-180.512
-180.44
-180.328
-180.208
20226.3
14427.9
8321.78
2137.04
-8.73446
-185.15
-191.121
-189.292
-188.76
-189.01
-189.061
-189.047
-188.918
-188.834
-188.618
-188.52
-188.374
-188.284
-188.209
-188.161
-188.13
-188.12
-188.124
-188.141
-188.17
-188.209
-188.258
-188.315
-188.379
-188.45
-188.525
-188.603
-188.681
-188.759
-188.832
-188.899
-188.957
-189.005
-189.041
-189.065
-189.077
-189.079
-189.072
-189.057
-189.036
-189.012
-188.985
-188.959
-188.933
-188.909
-188.888
-188.868
-188.852
-188.841
-188.83
-188.813
-188.773
-188.698
-188.586
-188.406
17220.3
12416.1
7371.36
2219.21
30.0584
-198.383
-200.491
-198.812
-197.661
-197.663
-197.429
-197.441
-197.294
-197.238
-197.059
-196.969
-196.845
-196.76
-196.692
-196.647
-196.616
-196.602
-196.601
-196.612
-196.635
-196.669
-196.712
-196.763
-196.82
-196.883
-196.95
-197.02
-197.092
-197.163
-197.233
-197.297
-197.354
-197.401
-197.437
-197.462
-197.476
-197.48
-197.476
-197.465
-197.45
-197.43
-197.408
-197.384
-197.359
-197.335
-197.313
-197.293
-197.275
-197.256
-197.235
-197.204
-197.15
-197.058
-196.908
-196.598
12635.3
9227.48
5720.65
1996.54
72.7847
-210.265
-209.038
-208.193
-206.675
-206.595
-206.082
-206.065
-205.864
-205.796
-205.648
-205.559
-205.457
-205.378
-205.314
-205.271
-205.242
-205.228
-205.225
-205.233
-205.251
-205.278
-205.315
-205.359
-205.411
-205.468
-205.53
-205.595
-205.661
-205.728
-205.792
-205.852
-205.906
-205.951
-205.987
-206.014
-206.03
-206.038
-206.037
-206.029
-206.016
-205.999
-205.979
-205.958
-205.936
-205.912
-205.887
-205.862
-205.836
-205.809
-205.776
-205.732
-205.667
-205.566
-205.416
-205.124
6231.8
4565.16
3145.79
1312.84
125.611
-220.085
-216.703
-217.398
-215.653
-215.659
-214.931
-214.882
-214.614
-214.518
-214.382
-214.291
-214.204
-214.136
-214.08
-214.042
-214.014
-213.999
-213.994
-214
-214.015
-214.04
-214.072
-214.112
-214.158
-214.209
-214.265
-214.325
-214.387
-214.45
-214.511
-214.568
-214.619
-214.663
-214.698
-214.723
-214.741
-214.75
-214.752
-214.748
-214.739
-214.725
-214.707
-214.686
-214.664
-214.641
-214.617
-214.589
-214.556
-214.518
-214.474
-214.419
-214.347
-214.25
-214.129
-213.925
-2132.01
-1864.89
-598.518
150.125
188.088
-230.137
-223.982
-226.589
-224.544
-224.757
-223.896
-223.824
-223.508
-223.39
-223.26
-223.171
-223.094
-223.036
-222.989
-222.957
-222.934
-222.92
-222.915
-222.919
-222.932
-222.953
-222.983
-223.019
-223.062
-223.109
-223.162
-223.217
-223.275
-223.333
-223.39
-223.444
-223.493
-223.535
-223.57
-223.596
-223.614
-223.624
-223.627
-223.625
-223.618
-223.607
-223.592
-223.574
-223.552
-223.528
-223.501
-223.473
-223.44
-223.399
-223.348
-223.286
-223.214
-223.125
-223.038
-222.9
-12428.8
-10215.3
-5617.05
-1403.8
259.393
-242.602
-231.707
-236.086
-233.478
-233.833
-232.904
-232.833
-232.524
-232.391
-232.275
-232.193
-232.129
-232.084
-232.046
-232.02
-232.002
-231.991
-231.989
-231.994
-232.006
-232.026
-232.053
-232.086
-232.125
-232.17
-232.219
-232.271
-232.326
-232.382
-232.435
-232.486
-232.532
-232.571
-232.604
-232.63
-232.648
-232.66
-232.665
-232.665
-232.659
-232.649
-232.636
-232.619
-232.6
-232.577
-232.55
-232.519
-232.484
-232.444
-232.395
-232.337
-232.27
-232.189
-232.12
-232.014
-24432.5
-20181.3
-11850.3
-3271.56
337.336
-257.886
-240.568
-246.072
-242.701
-242.896
-241.95
-241.873
-241.638
-241.514
-241.423
-241.356
-241.309
-241.278
-241.253
-241.236
-241.224
-241.217
-241.217
-241.224
-241.238
-241.258
-241.284
-241.316
-241.353
-241.395
-241.441
-241.491
-241.542
-241.595
-241.646
-241.694
-241.737
-241.775
-241.806
-241.83
-241.849
-241.861
-241.867
-241.869
-241.865
-241.857
-241.845
-241.829
-241.81
-241.787
-241.762
-241.732
-241.697
-241.656
-241.608
-241.555
-241.495
-241.426
-241.368
-241.285
-37852.2
-29963.8
-18981.9
-5610.84
419.224
-273.62
-250.871
-256.316
-252.372
-252.059
-251.126
-250.965
-250.851
-250.755
-250.705
-250.662
-250.637
-250.621
-250.609
-250.603
-250.6
-250.601
-250.606
-250.616
-250.632
-250.652
-250.679
-250.71
-250.747
-250.788
-250.832
-250.88
-250.928
-250.977
-251.025
-251.07
-251.111
-251.146
-251.176
-251.2
-251.218
-251.231
-251.237
-251.24
-251.237
-251.231
-251.221
-251.206
-251.188
-251.166
-251.141
-251.112
-251.079
-251.04
-250.996
-250.946
-250.893
-250.834
-250.788
-250.72
-51752
-35744.9
-26307.9
-9094.96
487.53
-283.738
-262.442
-266.208
-262.408
-261.482
-260.483
-260.19
-260.168
-260.122
-260.121
-260.111
-260.112
-260.116
-260.121
-260.127
-260.135
-260.144
-260.156
-260.172
-260.191
-260.214
-260.242
-260.274
-260.309
-260.349
-260.393
-260.438
-260.485
-260.532
-260.577
-260.619
-260.657
-260.69
-260.718
-260.741
-260.758
-260.771
-260.779
-260.782
-260.781
-260.775
-260.766
-260.753
-260.736
-260.716
-260.692
-260.663
-260.631
-260.594
-260.554
-260.51
-260.464
-260.413
-260.373
-260.317
-64992.4
-36992.8
-32807
-14201
451.131
-279.296
-274.632
-275.587
-272.646
-271.345
-270.073
-269.622
-269.602
-269.632
-269.674
-269.705
-269.737
-269.766
-269.791
-269.813
-269.833
-269.853
-269.873
-269.894
-269.918
-269.945
-269.975
-270.009
-270.045
-270.085
-270.127
-270.171
-270.215
-270.259
-270.302
-270.341
-270.377
-270.408
-270.435
-270.456
-270.473
-270.486
-270.494
-270.498
-270.497
-270.493
-270.485
-270.473
-270.457
-270.438
-270.415
-270.389
-270.358
-270.324
-270.287
-270.247
-270.206
-270.163
-270.13
-270.083
-86824.2
-41909.7
-38211.7
-19715.2
242.101
-284.796
-288.306
-287.937
-283.579
-281.712
-280.018
-279.28
-279.184
-279.292
-279.375
-279.451
-279.517
-279.575
-279.623
-279.664
-279.699
-279.731
-279.761
-279.79
-279.82
-279.85
-279.883
-279.918
-279.956
-279.996
-280.038
-280.08
-280.123
-280.165
-280.204
-280.241
-280.274
-280.303
-280.328
-280.349
-280.365
-280.378
-280.386
-280.39
-280.39
-280.387
-280.38
-280.369
-280.355
-280.337
-280.315
-280.29
-280.262
-280.231
-280.198
-280.162
-280.126
-280.088
-280.06
-280.02
-178848
-63761.4
-39430.1
-20368.9
86.353
-368.122
-309.885
-309.205
-296.568
-292.393
-290.347
-289.198
-288.966
-289.096
-289.229
-289.357
-289.462
-289.551
-289.623
-289.685
-289.737
-289.783
-289.824
-289.862
-289.898
-289.934
-289.97
-290.007
-290.046
-290.086
-290.128
-290.169
-290.21
-290.25
-290.287
-290.321
-290.352
-290.379
-290.402
-290.422
-290.437
-290.449
-290.458
-290.462
-290.464
-290.461
-290.454
-290.444
-290.431
-290.414
-290.394
-290.371
-290.345
-290.316
-290.286
-290.254
-290.223
-290.191
-290.167
-290.133
119395
119374
119334
119272
119186
119070
118913
118708
118439
118087
117623
117010
116196
115069
113623
111281
108878
102144
97783.2
75936.5
109248
109225
109180
109114
109019
108891
108720
108496
108205
107817
107325
106635
105799
104445
103087
99918.8
97833.9
89454.4
82882
62454.4
99129.7
99097.9
99054.5
98981.3
98884.3
98741.8
98568
98319.5
98030.6
97596.9
97130.3
96335.1
95602.5
94008.8
92887.3
89465.3
87185.1
80312.2
72265.1
64262
89039.5
88993.4
88960.3
88875.3
88786.2
88621.7
88463.6
88178.3
87923.7
87426.8
87036
86141.7
85531.5
83893.5
82775.7
79957.3
77056.8
73103.8
66044.2
63047.2
78973
78917.5
78897.5
78796.7
78723.7
78532
78405.2
78076.4
77875.5
77322.4
76992.8
76086.7
75474.4
74075.2
72728.2
70737
67831.5
65867.7
60621.6
57353.7
68936.9
68870.1
68866.6
68746.7
68696
68476.2
68381
68021.9
67846.6
67300.1
66941.6
66161.4
65419.7
64372.7
62951.6
61721
59228.5
57718.3
53885.6
50369.8
58934.1
58854.5
58864.1
58731.7
58688.5
58467.7
58358.1
58029.5
57797.2
57356.1
56890.5
56312.8
55508.9
54795.7
53451.2
52541.9
50502.4
48852.1
46113.7
43115.8
48949
48884.6
48869
48762.3
48679
48512.9
48336.6
48100.4
47799.4
47478.1
46961.8
46573.7
45762.8
45223
44046.5
43134.4
41532.4
39881.1
37831.3
35432.3
38982.4
38959.3
38907.6
38838.2
38723.2
38608.6
38396.1
38243.4
37896.5
37687.1
37159.9
36840.9
36102.3
35555.7
34576
33619.6
32357.9
30894.8
29221.2
27258.8
29056.9
29071
28995.7
28961.5
28827.6
28756.5
28531.8
28413.1
28074.8
27876.7
27397.5
27053.7
26425.4
25834.6
25034.3
24135.5
23081.2
21862.8
20458.6
18846
19167.5
19204.7
19123.1
19108.6
18973.6
18913.7
18701.5
18576.5
18276.7
18046.6
17647.9
17260.7
16738.7
16147.2
15442.5
14631
13694
12628.2
11414.2
10068.4
9302.64
9348.67
9271.18
9271.24
9148.12
9079.87
8898.35
8745.81
8501
8239.77
7914.48
7537.78
7107.64
6618.8
6078.93
5486.25
4866.18
4231.46
3578.74
2995.29
1974.67
2005.33
1968.98
1971.26
1910.79
1875.41
1790.38
1710.7
1596.32
1463.4
1307.17
1127.01
927.878
706.047
475.417
229.187
-2.52167
-233.971
-389.242
-415.429
-427.734
-427.137
-426.894
-426.856
-426.822
-426.896
-426.92
-427.021
-427.095
-427.225
-427.318
-427.482
-427.515
-427.649
-427.755
-429.187
-430.316
-427.465
-423.303
-425.448
-436.123
-436.32
-436.303
-436.373
-436.322
-436.337
-436.285
-436.263
-436.215
-436.181
-436.151
-436.168
-436.242
-436.445
-436.858
-437.749
-438.449
-441.637
-439.185
-436.891
-446.769
-446.607
-446.532
-446.503
-446.496
-446.529
-446.559
-446.62
-446.683
-446.766
-446.861
-446.974
-447.104
-447.243
-447.436
-447.388
-447.211
-447.295
-446.663
-445.022
-456.08
-456.188
-456.026
-456.109
-456.041
-456.081
-456.046
-456.058
-456.045
-456.051
-456.06
-456.084
-456.119
-456.238
-456.304
-456.886
-456.788
-457.364
-457.913
-457.117
-466.143
-466.153
-466.139
-466.127
-466.133
-466.151
-466.178
-466.219
-466.268
-466.328
-466.4
-466.482
-466.578
-466.656
-466.723
-466.626
-466.409
-466.271
-466.365
-466.303
-475.813
-475.846
-475.768
-475.809
-475.764
-475.793
-475.776
-475.791
-475.794
-475.81
-475.83
-475.862
-475.9
-475.977
-476.016
-476.149
-476.207
-476.306
-476.439
-476.55
-485.72
-485.735
-485.747
-485.749
-485.762
-485.777
-485.799
-485.828
-485.863
-485.903
-485.948
-485.995
-486.038
-486.07
-486.08
-486.065
-486.031
-486.009
-485.997
-486.049
-495.453
-495.467
-495.435
-495.459
-495.44
-495.459
-495.454
-495.467
-495.475
-495.489
-495.508
-495.533
-495.564
-495.603
-495.645
-495.705
-495.778
-495.843
-495.873
-495.909
-505.344
-505.359
-505.372
-505.381
-505.395
-505.41
-505.431
-505.455
-505.484
-505.515
-505.548
-505.58
-505.606
-505.625
-505.632
-505.637
-505.64
-505.658
-505.672
-505.681
-515.058
-515.072
-515.055
-515.076
-515.068
-515.082
-515.079
-515.087
-515.09
-515.096
-515.105
-515.115
-515.132
-515.153
-515.187
-515.236
-515.307
-515.386
-515.471
-515.529
-524.965
-525.003
-525.02
-525.03
-525.047
-525.062
-525.086
-525.113
-525.145
-525.18
-525.218
-525.255
-525.287
-525.316
-525.329
-525.343
-525.33
-525.339
-525.275
-525.191
39644.6
34755.7
22242.2
25697.1
32357.7
42056.4
50064.2
59993.9
57341.7
62855.5
56404.2
50831.8
32421
10865.8
-44432.9
25876.6
13420.9
18168.5
16059.2
20774.2
28882.2
37495.6
46444.7
46873.3
45905.2
45753.8
35277.6
27417.7
8368.95
-5636.19
44059.4
33499.7
25275.1
19667.1
20061
25544.9
31537.6
36822.4
38370.8
37762
35406.1
29572.2
22271
11329.9
916.924
51574.2
40652.3
32543.9
27595.1
25909.7
26907.8
29164.4
31075.7
31693.1
30391.2
27664.1
23277.9
17561.2
10676.5
3885.24
50387
42309.8
35885.5
31277.4
28290.7
26892.7
26528.4
26408.6
25581
23819
21033.5
17394.2
13076.3
8393.63
3925.95
45754.1
40204.7
35062
30759.6
27409.2
24985.1
23191.9
21693.1
19911.6
17695.5
14834
11583
7880.16
4754.2
2468.29
39660.4
35579.1
31418
27546.2
24205
21368.5
18890.2
16575.6
14166.2
11538.2
8574.6
5498.5
2930.52
785.25
-349.549
32660.5
29390.5
25950.8
22555.3
19410.3
16468.9
13701.8
11020
8202.8
5389.08
3077.6
1182.08
-329.95
-387.379
-339.531
24945.9
22204.6
19334.8
16348.2
13510.7
10603.6
7765.71
5187.51
3171.45
1241.54
-319.746
-405.422
-372.382
-376.608
-379.639
16903.1
14567.2
11978.2
9255.68
6758.91
4447.21
2858.22
835.334
-360.991
-415.658
-380.015
-379.887
-386.587
-390.802
-385.847
8433.03
6499.27
4528.84
3166.66
1702
7.19645
-387.481
-418.925
-386.848
-396.557
-400.224
-403.598
-398.56
-400.359
-401.576
2124.97
952.482
-137.207
-395.635
-423.763
-418.553
-399.001
-408.252
-407.869
-410.071
-406.881
-408.664
-409.208
-407.92
-408.172
-429.469
-429.011
-420.939
-412.846
-413.461
-421.156
-420.572
-419.314
-417.481
-418.503
-419.131
-418.365
-419.05
-419.201
-420.507
-424.238
-424.881
-430.51
-428.684
-429.067
-427.939