/*--------------------------------*- C++ -*----------------------------------*\
| =========                 |                                                 |
| \\      /  F ield         | OpenFOAM: The Open Source CFD Toolbox           |
|  \\    /   O peration     | Version:  2.4.0                                 |
|   \\  /    A nd           | Web:      www.OpenFOAM.org                      |
|    \\/     M anipulation  |                                                 |
\*---------------------------------------------------------------------------*/
FoamFile
{
    version     2.0;
    format      ascii;
    class       volScalarField;
    location    "4.625";
    object      p_rgh;
}
// * * * * * * * * * * * * * * * * * * * * * * * * * * * * * * * * * * * * * //

dimensions      [1 -1 -2 0 0 0 0];

internalField   nonuniform List<scalar> 
4608
(
0
-0.0220961
-0.02912
-0.0251466
0.0250691
0.0483477
-0.00976363
0.197336
0.0573249
0.0921434
0.13062
0.164036
2.10516
2.08589
2.09444
2.11531
2.14702
2.19056
2.25135
2.27629
2.38502
2.45368
2.53205
2.66308
3.70613
3.72713
3.77588
3.85691
3.98047
4.0785
4.18949
4.32941
4.47137
4.60408
4.72191
4.89941
5.67876
5.72733
5.83042
5.97523
6.1942
6.35359
6.55943
6.77738
6.99309
7.19827
7.37831
7.52784
7.81937
7.91081
8.07517
8.30107
8.56753
8.85009
9.14578
9.44386
9.74056
10.0119
10.2521
10.4508
10.1571
10.3019
10.553
10.9012
11.1979
11.5609
11.9293
12.2949
12.6524
12.9787
13.2623
13.4958
12.6914
12.9124
13.2513
13.6705
14.0502
14.4657
14.8835
15.2913
15.6804
16.0403
16.3541
16.6122
15.3865
15.7468
16.1683
16.6769
17.1213
17.5575
17.9859
18.3999
18.7901
19.1523
19.469
19.724
18.2062
18.8161
19.3158
19.9023
20.3688
20.8021
21.1973
21.5821
21.936
22.273
22.5681
22.7847
21.14
22.094
22.6536
23.3255
23.7656
24.1296
24.4458
24.7784
25.0693
25.3626
25.633
25.7861
24.0535
25.5821
26.1121
26.8083
27.1609
27.4288
27.6624
27.8916
28.1264
28.3748
28.6502
28.7831
26.1306
28.8769
29.305
29.9658
30.1561
30.3057
30.4151
30.7275
30.9865
31.2112
31.6228
31.596
0.225079
0.285285
0.284689
0.417555
0.376789
0.437301
0.479141
0.513861
0.538986
0.550348
0.609642
1.2115
2.7247
2.77229
2.79393
2.79584
2.72836
2.68994
2.64559
2.60731
2.56134
2.49636
2.41759
2.33941
4.98408
4.9978
4.99001
4.92646
4.84624
4.6781
4.5642
4.51492
4.43947
4.31478
4.19397
4.07501
7.62782
7.69156
7.7052
7.63183
7.47883
7.32129
7.81948
7.45082
6.9047
6.57043
6.39103
6.23007
10.5957
10.6872
10.7029
10.7101
10.6054
10.3631
10.9689
10.9257
10.2382
9.26077
8.87381
8.71704
13.6647
13.7656
13.8249
13.8344
13.6592
13.5771
13.2238
12.738
12.338
11.8738
11.1697
11.3265
16.8102
16.9454
17.142
17.4041
17.3574
16.9126
16.5839
16.0255
15.2994
14.3638
14.2945
13.7873
19.9247
20.0828
20.1772
20.3264
20.5577
20.2811
19.8059
19.339
18.5316
17.4544
17.5529
18.7065
22.955
23.0776
23.2156
23.4411
23.3851
23.3157
23.1686
22.8764
22.273
21.1611
22.2678
22.9242
25.942
26.0681
26.1127
26.2052
26.2818
26.3992
26.4362
26.4961
26.4031
25.6568
25.6944
33.5885
28.8871
28.817
28.8187
28.9465
28.8969
29.1748
29.3516
29.6834
30.1554
30.1913
30.5951
36.5739
31.4395
31.2576
31.0769
31.2434
31.1729
31.5667
31.8056
32.1046
32.8557
33.4718
34.7873
40.6409
-4.33141
-4.36994
-4.38706
-4.39783
-4.40298
-4.36484
-4.34431
-4.28087
-4.29758
-4.23242
-4.28367
-4.25318
-2.20797
-2.23898
-2.2307
-2.19499
-2.141
-2.06694
-1.91814
-1.77686
-1.76269
-1.76002
-1.72892
-1.67368
-0.567887
-0.539422
-0.455549
-0.325333
-0.170421
-0.0175595
0.216082
0.386823
0.457543
0.583758
0.663699
0.697615
1.39933
1.48175
1.66424
1.9146
2.18082
2.46699
2.74526
3.00839
3.24429
3.43692
3.57112
3.63411
3.5499
3.71046
3.98714
4.35535
4.75922
5.17639
5.57654
5.94631
6.26599
6.52117
6.69428
6.77636
5.91177
6.15377
6.52538
7.0297
7.55502
8.09468
8.59728
9.05562
9.43967
9.73978
9.93615
10.0261
8.50022
8.81166
9.26422
9.91203
10.5463
11.1986
11.7717
12.2883
12.699
13.0104
13.2005
13.2775
11.336
11.7133
12.1718
12.9864
13.7175
14.4733
15.0735
15.611
16.0021
16.2824
16.4267
16.4547
14.458
14.875
15.3404
16.4807
17.0612
17.9024
18.4719
18.9917
19.321
19.5224
19.5728
19.4874
17.9666
18.4959
19.3525
20.8672
21.5828
21.4729
21.9289
22.3832
22.6207
22.6967
22.5939
22.2987
21.8012
22.6215
22.7799
24.1344
24.9121
25.0895
25.3212
25.6755
25.8129
25.7393
25.4106
24.7896
25.7464
26.9233
26.8338
27.7034
28.599
28.6411
28.4951
28.7114
28.7323
28.5167
27.8728
26.8524
-4.16358
-4.12669
-4.073
-4.06791
-4.0887
-4.07153
-4.05718
-4.06437
-4.09632
-4.10203
-4.09192
-4.06066
-1.67173
-1.70258
-1.75887
-1.75376
-1.58934
-1.80027
-2.05659
-2.0578
-2.09893
-2.1207
-2.13995
-2.15086
0.705925
0.637557
0.500033
0.298417
0.0465137
-0.0879256
-0.0409398
-0.301638
-0.467225
-0.521617
-0.54898
-0.581071
3.60881
3.48554
3.25799
2.93394
2.54614
2.16802
1.67065
2.04799
1.84795
1.56751
1.49111
1.40319
6.74609
6.59594
6.31063
5.89129
5.36632
4.81722
4.38525
4.05409
4.42414
3.93205
3.81668
3.69434
10.0006
9.84652
9.5302
9.02035
8.31958
7.52521
6.79403
6.64316
6.94918
6.56821
6.51483
6.41281
13.2626
13.1472
12.8655
12.3213
11.4598
10.2064
9.59853
9.53101
9.9621
9.55495
9.22476
9.23957
16.4525
16.4525
16.3403
15.944
15.1775
13.7256
12.3261
14.0935
13.9724
13.9957
13.8023
13.4655
19.4709
19.6811
19.9094
19.8934
19.6757
18.7263
17.4303
20.3267
22.3292
22.3538
21.6156
20.2662
22.1735
22.6785
23.3634
23.7952
24.402
24.46
23.6003
23.4239
26.6482
26.3189
25.5639
26.0873
24.3288
25.2768
26.4726
27.1344
28.3364
29.3013
29.337
30.4025
28.9569
30.0545
31.1938
31.9963
25.7647
27.5811
29.1974
29.8878
30.9784
32.093
32.6835
33.9172
33.7818
37.2712
37.0074
39.6117
-3.56084
-3.58322
-3.5711
-3.52807
-3.44305
-3.3595
-3.38821
-3.39208
-3.2423
-3.15114
-1.94664
-3.25715
-1.58344
-1.59494
-1.57284
-1.3742
-0.921263
-1.07267
-0.82626
-0.769194
-0.690041
-0.254193
-0.673802
-0.578491
-0.0124014
0.00916545
0.0601479
0.195504
0.490651
0.406905
1.63576
1.46035
1.43387
1.4951
1.72483
1.93531
1.97715
2.03427
2.181
2.40655
2.705
3.60047
5.78511
4.854
4.39401
4.58277
4.75576
4.96797
4.06541
4.20423
4.47858
4.84695
5.27461
6.29055
8.62731
7.5498
7.16703
7.49579
7.78933
8.07121
6.25962
6.50455
6.91041
7.41721
7.94496
8.56748
9.59408
9.7779
10.0557
10.4755
11.1167
11.4013
8.57274
8.95463
9.53514
10.2162
10.8972
11.5324
12.191
12.7456
13.2989
13.8237
14.474
14.8785
10.9849
11.5425
12.3533
13.259
14.1065
14.8492
15.5243
16.1193
16.662
17.1598
17.634
18.0402
13.467
14.3172
15.453
16.5589
17.582
18.3909
19.0534
19.6038
20.0838
20.525
20.9251
21.2586
16.0046
17.4865
19.2789
20.4369
21.3074
22.111
22.6834
23.1293
23.4851
23.8263
24.1451
24.3924
18.3853
20.8707
22.5233
24.2303
25.1184
25.8757
26.257
26.5538
26.7482
26.9699
27.2142
27.3546
19.3527
24.4409
25.9813
27.9976
28.7637
29.1971
29.4214
29.5572
29.5997
29.755
29.992
30.03
-3.18945
-3.0468
-2.90263
-2.75801
-2.54358
-2.39487
-2.27085
-2.09782
-1.98509
-1.74084
-1.73897
-1.8093
-0.390052
-0.19916
-0.000830724
0.19586
0.905296
1.39697
1.34633
1.00328
0.264683
-0.0607294
-0.249801
-0.374202
2.15023
2.33584
2.47138
2.57034
2.58081
2.38198
2.21763
2.19875
1.99297
1.93794
2.439
2.94196
5.20021
5.39206
5.52735
5.57754
5.53191
5.37736
5.1375
4.84091
4.43615
3.89265
3.37606
2.88623
8.38016
8.61726
8.77273
8.82589
8.76918
8.58635
8.27689
7.83467
7.24937
6.53756
5.83219
5.23098
11.6923
11.9585
12.1318
12.1972
12.1475
11.9635
11.6321
11.1355
10.4577
9.60522
8.70634
7.92381
15.0425
15.3112
15.4928
15.578
15.5443
15.3907
15.0923
14.6241
13.9558
13.0576
12.0267
11.0411
18.3442
18.5942
18.7714
18.8665
18.8622
18.7633
18.5448
18.1825
17.6348
16.8273
15.8035
14.6693
21.5359
21.7653
21.9192
22.0154
22.0373
22.0039
21.8942
21.6971
21.3719
20.8108
20.0034
18.8526
24.6035
24.7871
24.9003
24.9845
25.0239
25.051
25.0577
25.0583
25.0306
24.8701
24.5678
23.6162
27.4839
27.6245
27.6797
27.7325
27.7793
27.8452
27.9526
28.1439
28.4323
28.777
29.1814
29.101
30.0871
30.2198
30.2096
30.2921
30.4106
30.4667
30.5997
30.8306
31.3383
32.0977
33.3399
35.1179
3.79677
4.45776
1.75472
1.51542
1.01255
1.1678
1.08443
0.785225
0.830099
0.826018
0.879586
0.916329
3.40181
3.50855
3.40737
3.0277
3.06424
3.09282
3.15561
3.18917
3.23283
3.2868
3.34622
3.40573
4.73729
4.83413
4.82884
5.02025
5.01665
5.10313
5.21396
5.32638
5.44552
5.56097
5.66809
5.76302
6.67729
6.80828
6.94119
7.12652
7.28094
7.4776
7.68025
7.88319
8.08213
8.26928
8.43831
8.58238
8.70488
9.03029
9.29065
9.54254
9.80619
10.0808
10.3618
10.6422
10.9153
11.1692
11.3959
11.5869
12.4625
11.7284
11.9298
12.2217
12.5407
12.871
13.2126
13.5459
13.8807
14.188
14.4642
14.696
14.698
15.8858
14.7523
15.0611
15.432
15.8027
16.1761
16.5989
16.95
17.2478
17.5591
17.8121
17.5236
19.4168
18.9877
18.1608
18.5188
18.8862
19.2518
19.6435
20.0292
20.3877
20.6493
20.874
20.8007
21.8286
22.5434
21.3625
21.7011
22.0483
22.3754
22.708
23.0437
23.3607
23.6403
23.8609
23.6358
24.1908
24.4617
24.8408
25.0198
25.2353
25.4741
25.7251
26.0037
26.2694
26.4707
26.637
26.5787
27.7102
28.0919
28.2273
28.1898
28.2194
28.3688
28.5172
28.7568
28.9782
29.1269
29.2291
28.7732
30.673
30.8901
31.1856
30.7905
30.6259
30.753
30.8215
31.092
31.3082
31.4091
31.4527
0.941359
0.977756
1.04831
1.12773
1.22196
1.33534
1.44278
1.41705
1.64712
1.62073
1.6525
2.29756
3.47454
3.55031
3.60258
3.64151
3.69596
3.70465
3.79904
3.89062
3.85639
4.24227
5.62479
7.48653
5.84378
5.89631
5.94652
5.98816
6.38786
6.62706
6.4921
5.85435
5.74544
5.62339
5.25099
4.83496
8.69744
8.78046
8.81939
8.82443
9.11726
9.28407
8.97726
8.79633
8.20097
7.5943
7.43138
7.18504
11.7345
11.8379
11.8941
11.8724
11.7867
11.6227
11.3903
10.8803
10.4467
10.0574
9.53956
9.45809
14.8801
15.0267
15.0795
15.0612
14.9689
14.7785
14.4793
14.0242
13.4702
12.8101
12.9481
12.1464
18.0184
18.166
18.2562
18.2694
18.2034
18.0482
17.7661
17.3411
16.7611
16.0359
15.9853
15.3392
21.0793
21.2403
21.3436
21.3899
21.3772
21.2865
21.099
20.7793
20.2775
19.5651
18.9463
18.6004
24.0184
24.169
24.269
24.3423
24.3905
24.4027
24.358
24.2306
23.9142
23.3398
22.7119
21.6487
26.7835
26.923
26.9915
27.0765
27.1816
27.3106
27.4303
27.5401
27.4678
27.1622
26.3375
25.8913
29.3223
29.4659
29.4797
29.5564
29.7555
29.9298
30.2049
30.5638
30.7999
30.9059
30.4089
32.1785
31.5029
31.6991
31.6466
31.7307
31.8847
32.2134
32.6275
33.1262
33.5205
33.9671
35.9449
38.1752
29.1779
31.1278
31.235
31.868
32.0505
32.221
32.2955
32.5364
32.8123
33.1097
33.7672
33.5961
31.375
32.4254
31.8988
32.5323
33.0386
33.7643
34.3488
34.3494
34.0464
34.1715
35.1455
34.8904
33.8261
34.4469
33.9074
34.3933
34.8479
35.4792
35.9616
35.98
35.534
35.2173
36.3373
36.1062
35.8736
36.2073
35.6879
36.1304
36.4902
36.9764
37.3594
37.3503
37.0342
36.5881
37.1095
37.2457
37.6372
37.7663
37.288
37.6844
37.8984
38.2199
38.5458
38.5104
38.2067
37.631
36.6035
37.139
39.2159
39.1837
38.7414
39.115
39.2054
39.2871
39.5742
39.4946
39.2378
38.616
36.9113
37.1357
40.2299
40.1047
39.8115
40.2341
40.3592
40.1777
40.5258
40.3571
40.1739
39.7048
38.5869
38.8323
40.5234
40.5021
40.4216
40.8109
40.8502
40.7263
41.162
41.0896
40.9955
40.7811
40.1412
40.4692
41.08
41.0113
40.9992
41.3727
41.5446
43.2852
41.026
40.6514
41.5858
41.798
41.5745
42.0088
41.482
41.4347
41.3165
41.6839
40.6066
43.4148
42.4811
41.7715
42.0807
42.4173
42.7476
43.545
41.7868
41.8252
41.8604
41.4326
43.9916
43.8155
41.2366
41.6411
42.3642
43.0785
43.3952
44.0359
42.0599
42.1777
42.2701
42.0935
42.4271
45.0157
46.5908
43.2118
42.5408
43.5361
43.9874
44.1786
33.2626
32.9368
32.5356
32.7759
32.5555
33.0182
33.3051
33.4959
33.9455
35.0951
35.9524
42.3335
34.4027
33.9782
33.3992
33.6982
33.3437
33.8603
34.1839
34.1679
34.5546
35.395
36.5972
42.3107
35.4496
34.9216
34.1485
34.5055
33.9849
34.5584
34.9941
34.6559
35.0616
35.9455
36.5913
40.679
36.4074
35.78
34.8481
35.3212
34.5257
35.1163
35.7295
34.9623
35.4656
36.472
36.3383
39.3175
36.6389
36.5176
36.0471
37.1803
35.6715
35.8129
36.4078
35.0172
35.8017
36.969
36.6809
38.5583
37.1514
37.7053
37.2134
38.5562
36.5789
37.1795
37.5385
34.8243
36.0413
37.4249
37.1446
38.603
38.755
39.2149
38.4337
39.8788
37.0603
38.4939
41.9984
34.9846
36.2053
37.84
37.5233
38.7941
40.2985
40.6399
39.6964
41.0425
37.0167
39.2278
47.4546
39.8105
36.3082
38.2315
37.8284
39.0043
41.7614
41.9843
41.0826
42.0264
36.2674
38.6079
40.687
36.5068
36.7698
38.6465
38.0692
39.25
43.2303
43.2544
42.5829
42.7014
34.4125
37.4027
41.0905
41.771
37.462
38.9957
38.2283
39.5467
43.8527
43.7763
43.5132
44.2982
48.3436
49.0001
43.7206
39.1891
37.411
39.2584
38.2965
39.9776
43.8517
44.1977
46.6817
45.4599
42.5496
43.1033
36.8921
36.8794
37.2178
39.2763
38.0487
40.4053
29.918
30.086
28.9894
29.5646
31.077
30.893
30.3494
30.6391
30.6105
30.2603
29.6
28.2445
33.5857
31.9552
38.4705
37.1722
36.4246
34.3868
31.4463
31.7763
31.8106
33.6038
38.9219
33.5662
36.1753
33.4038
33.1202
35.9422
38.4095
39.3822
33.6376
32.7355
33.0237
32.8327
34.577
32.5465
36.5634
34.5717
34.6275
33.8183
32.7121
32.777
33.0927
33.5798
33.9941
33.8585
36.7531
34.7038
35.8718
36.1431
35.0943
34.5216
33.6688
33.6281
33.8731
34.2266
34.5728
34.4674
36.7519
36.3585
36.3163
34.9662
35.5702
34.9708
34.3819
34.227
34.4858
34.7081
35.1261
34.8004
34.1887
46.5789
36.9963
35.7554
35.9825
35.5241
35.1313
34.8742
35.0128
35.1028
35.6067
35.249
34.4429
37.7855
37.5641
36.4036
36.4195
36.0095
35.7222
35.3706
35.4882
35.4585
36.0739
35.7622
35.1421
37.2768
38.0538
36.9512
36.7668
36.5769
36.3873
35.8676
35.9108
35.8342
36.5333
36.2682
35.9074
37.8457
38.4761
37.4019
37.0228
37.1658
37.0515
36.3248
36.5544
36.4396
37.1018
36.8055
36.598
38.3595
38.8917
37.7776
37.1508
37.7889
37.7633
36.7893
36.8779
42.8681
43.5457
37.8199
37.1566
38.8449
39.4928
38.9684
39.8342
38.41
38.5136
37.3393
37.9123
44.2596
45.9003
46.1845
37.6827
39.2595
32.4225
29.6758
31.1463
32.5196
35.5862
32.7954
34.0523
36.903
40.4444
37.3578
40.191
39.1795
32.2037
31.3762
32.2835
33.4239
39.9244
42.4615
39.3935
34.9202
36.1901
38.3156
40.9945
38.6093
37.3679
32.6797
33.1903
34.3084
34.1661
34.9412
35.2942
42.7363
43.6547
41.2073
39.7865
40.6699
32.3233
33.8883
34.3932
34.1169
35.4929
35.7198
36.0839
39.249
43.2975
41.3406
40.4779
40.7625
34.1041
36.2621
36.5608
35.5519
35.3079
36.8966
36.9015
43.3786
43.6908
41.4928
41.1701
40.9949
38.7868
37.9496
38.0287
37.7333
35.606
37.4138
37.5426
41.2412
43.5641
42.1309
42.0422
41.3938
39.1453
39.149
39.1919
38.8602
36.9018
37.4455
37.8122
40.7274
42.9129
42.0713
42.5047
41.3764
38.8545
40.0049
40.3562
39.9994
38.8642
37.1806
38.4568
39.085
42.2181
42.0142
42.8507
42.8875
39.1586
40.4136
41.506
41.2548
40.3701
37.2391
38.8911
39.0049
41.2926
41.9622
43.2922
44.5772
39.5732
40.6128
42.1591
42.2334
42.1997
37.0986
39.3001
39.5982
40.862
41.6148
43.7624
45.9813
40.0258
40.9005
41.6576
41.6999
40.364
36.5903
39.5497
39.5853
41.8654
40.9616
42.9058
44.0295
40.5216
41.2945
41.6665
41.8584
38.5658
35.2006
39.1965
39.2349
40.7504
40.8212
42.6394
43.0821
39.6839
27.4615
27.6058
30.9271
30.9913
31.1754
31.229
31.287
31.2575
31.3977
31.7
31.6692
35.7032
46.6276
42.282
33.9344
32.1017
31.9107
31.8558
32.0545
32.1262
32.2004
32.6225
32.6046
37.4392
33.8729
39.3129
36.1344
34.1105
33.4981
33.407
33.4432
33.3284
32.9479
32.8194
33.1511
38.1791
35.516
36.0085
35.7341
35.2796
34.9479
34.8848
34.8576
34.7221
34.51
34.2901
34.4381
38.341
36.8836
37.0079
36.704
36.1867
36.1062
36.1279
35.9349
35.7514
35.6774
35.6598
35.7621
40.2968
38.1922
37.8427
37.6127
36.7007
37.0238
37.2106
37.0111
36.8726
36.9614
36.8669
36.9797
40.0785
38.814
38.4021
38.6842
36.9746
37.7388
38.1943
37.7049
37.7588
37.9124
37.9714
38.1021
39.9326
39.1743
38.8585
39.1542
37.9697
38.2475
39.1639
38.4707
38.6389
38.8533
39.0007
39.1514
40.1019
39.4289
39.2185
39.435
39.6724
38.8628
40.1641
39.0364
39.3142
39.6161
39.878
40.0615
41.8077
39.4897
39.4781
39.6345
40.2864
39.735
40.5018
39.1745
39.824
40.053
40.1167
40.191
47.4792
39.2283
39.647
39.7466
39.8233
40.5582
40.0453
40.0321
40.5302
40.4682
40.4096
40.4864
40.3457
43.3915
39.58
39.8027
45.659
41.1541
40.3693
40.0136
40.7115
40.7448
40.7244
40.8758
31.7079
31.9057
31.8582
31.8794
31.9545
32.0454
32.2125
32.4413
32.9904
33.6903
34.7306
35.2764
32.6394
32.9068
32.8371
32.8604
33.0181
33.1673
33.3158
33.4312
33.9171
34.5046
35.3021
35.7494
33.3506
33.6757
33.6864
33.6609
33.9111
34.068
34.042
34.2627
34.7009
35.1274
35.6541
35.9454
34.2128
33.718
33.9167
34.0046
34.2755
34.444
34.41
34.6462
35.2373
35.7559
36.2262
36.3391
35.5718
35.1911
35.2669
35.0479
34.6006
34.9201
35.1404
35.6018
36.3913
36.7349
37.0335
37.1917
36.8499
36.5726
36.608
36.3612
36.0225
36.2976
36.2694
36.8661
37.6613
37.6336
37.7233
37.9492
38.0332
37.8376
37.857
37.794
37.5732
37.6754
37.3699
37.8707
38.8264
38.3953
38.2583
38.5807
39.1418
39.0187
39.0454
38.995
38.8104
39.1419
38.4328
38.9961
39.9783
39.0582
38.6283
39.0971
40.0827
40.0005
40.0767
40.0497
39.874
40.1995
39.1457
39.8396
40.8993
39.5305
38.7942
39.5233
40.3068
40.3349
40.3669
40.2951
40.1865
40.4188
38.9211
40.018
41.5391
40.0849
38.8455
39.6498
40.6538
40.735
40.793
40.7893
40.7277
41.0229
42.5176
43.2647
43.1593
40.0422
38.7518
39.1021
41.0381
41.1521
41.2514
41.2156
41.1406
41.4263
41.9003
41.6412
40.0422
40.188
38.2464
39.0735
32.135
33.0314
32.9477
33.1255
32.6515
32.226
32.273
32.0265
32.2748
32.5833
32.7229
32.7751
33.4099
33.9223
33.6161
33.9728
33.9861
33.6894
33.624
32.8266
32.7032
32.823
33.0291
33.2721
33.8876
34.4339
34.3349
34.7039
35.2256
34.9457
34.9391
34.0505
34.7948
34.2003
34.2339
34.4579
34.6736
35.4031
35.6041
36.007
36.4558
36.0204
35.9276
35.1306
35.0696
35.3971
35.5625
35.7858
35.9435
36.5537
36.7852
37.0961
37.5109
36.9143
37.0052
35.6212
36.1994
36.3557
36.602
36.9479
37.0281
37.5268
37.7912
38.0267
38.4551
37.7129
38.0565
36.2051
36.3916
36.8948
38.2993
38.1991
37.9368
38.3662
38.6714
38.8446
39.2782
38.4192
39.0529
36.583
37.1046
37.5597
38.6714
38.9564
38.6944
39.0621
39.4306
39.5898
40.0404
39.104
39.9992
36.7163
37.59
38.2372
39.6055
39.8349
39.3305
39.6691
40.1055
40.2735
40.7281
39.796
40.911
36.5703
37.8201
38.8811
40.4798
40.6567
39.8141
40.155
40.68
40.9025
41.3265
40.5722
41.8356
36.0871
37.7424
39.5646
41.2859
41.4065
39.3107
40.0261
40.8399
41.2981
41.6302
41.3582
42.7036
35.1688
37.1876
40.2444
41.8088
41.8092
39.8573
40.0905
40.5626
40.9908
41.2804
41.7063
46.4602
52.5709
55.4866
47.004
41.9182
41.8034
32.8079
33.0561
33.036
33.026
33.2541
33.6022
33.9608
34.2933
34.7836
36.2594
38.4487
37.1042
33.3163
33.4356
33.6096
33.4815
33.6284
33.9595
34.3997
35.0511
36.274
37.6954
39.0237
37.3301
34.6079
34.8517
35.3463
34.8431
35.0087
35.4212
36.0575
36.8176
37.9131
38.8428
39.601
38.4268
36.013
36.1771
36.415
35.5694
36.3877
36.9356
37.658
38.3751
39.2788
39.7979
40.2238
39.4927
37.2689
37.4113
38.0623
36.5399
37.5303
38.3184
39.1138
39.7337
40.4503
40.5997
40.8374
40.4126
38.4313
38.5287
39.2501
37.3825
38.7496
39.5983
40.4801
40.9494
41.4643
41.2415
41.3825
41.2336
39.5642
39.603
40.6081
38.6424
39.9126
40.6278
41.6006
41.8643
42.1388
41.55
41.6373
41.7073
40.6425
40.6967
41.8945
41.4201
42.628
41.9298
41.9085
41.8287
41.912
41.5033
42.0292
41.9487
41.6429
41.825
43.4687
41.4708
42.7035
42.3439
42.3864
41.8755
41.6226
41.1643
42.3494
42.3854
42.5503
42.8728
43.9992
41.8817
42.4862
42.6613
42.8743
42.1416
41.6281
42.5967
43.0138
42.5273
43.0199
42.8377
42.0124
41.5657
42.3828
42.9552
43.3619
42.9109
43.1823
41.9639
41.7751
42.0219
43.2013
43.0533
42.0494
40.8274
41.2662
43.1977
43.8163
43.1017
42.6608
43.1098
43.4817
44.1147
42.8845
44.9015
45.0883
42.5832
41.8139
40.3037
40.8156
41.8859
42.9216
43.5959
44.0173
44.3208
42.5214
42.7932
42.4731
42.0837
41.9287
40.9499
41.334
41.9841
42.6975
43.4422
43.8441
44.1077
42.6906
42.8182
42.5558
42.278
42.0894
41.4526
41.7706
42.2228
42.7771
43.3403
43.6837
43.9418
42.7421
42.8625
42.6387
42.4331
42.2431
41.8193
42.0678
42.3979
42.8287
43.267
43.5801
43.8175
42.854
42.9079
42.714
42.5549
42.3761
42.0871
42.2723
42.5209
42.8579
43.2061
43.4859
43.7176
42.8324
42.9445
42.7749
42.6485
42.4863
42.2854
42.4199
42.6102
42.8746
43.1536
43.4053
43.6297
42.9156
42.9729
42.8606
42.7331
42.5752
42.4331
42.5289
42.6754
42.8824
43.1066
43.334
43.5506
42.9202
42.9854
42.8785
42.7885
42.6475
42.5435
42.6104
42.7245
42.8863
43.0653
43.2713
43.4787
42.9852
42.9966
42.9087
42.8161
42.7013
42.6273
42.6722
42.7599
42.8856
43.0295
43.2162
43.4126
42.9404
42.9933
42.9259
42.8499
42.7449
42.6888
42.7176
42.7854
42.8842
42.9988
43.1676
43.3516
42.9405
42.9878
42.9242
42.8699
42.7765
42.7365
42.753
42.8044
42.8824
42.9732
43.1233
43.2869
42.9348
42.9794
42.958
42.8907
42.799
42.7729
42.7794
42.8186
42.8811
42.9528
43.081
43.1842
44.2617
44.7332
45.7265
49.1148
47.7597
48.6756
41.1582
36.5631
37.3716
39.8633
45.4335
43.8281
44.1525
44.4366
43.962
40.5397
48.144
48.0103
42.2103
41.9076
42.4067
44.2418
39.3663
39.5211
44.0307
44.2315
43.7562
41.1364
42.682
42.9371
41.6136
41.8206
42.6301
40.8406
40.106
39.7622
43.9424
44.1062
43.6585
41.8648
42.7893
42.8393
41.919
41.6275
41.5713
40.1951
40.2518
39.8586
43.8782
44.0171
43.6263
42.3777
42.956
42.8289
42.0754
41.6985
41.3934
40.1728
40.2904
39.9534
43.8277
43.947
43.6212
42.7405
43.0759
42.8433
42.2044
41.8497
41.5061
40.4141
40.3514
40.0393
43.7877
43.8931
43.6274
42.993
43.1573
42.8637
42.3042
41.9525
41.576
40.5987
40.4101
40.1111
43.757
43.8516
43.6344
43.1641
43.2083
42.8821
42.3778
42.0217
41.6194
40.7412
40.4633
40.1678
43.7337
43.8191
43.6382
43.2758
43.2358
42.8951
42.4282
42.0651
41.6452
40.8507
40.511
40.2123
43.7164
43.7935
43.6376
43.3448
43.2459
42.9011
42.4604
42.0893
41.6586
40.9342
40.5537
40.2482
43.712
43.7743
43.6325
43.3835
43.2435
42.9002
42.4788
42.1003
41.6637
40.9975
40.5915
40.2781
43.7568
43.7622
43.6233
43.401
43.2322
42.8935
42.4868
42.1027
41.6637
41.0457
40.625
40.3037
42.117
41.1013
37.7108
38.8933
38.9373
38.2438
37.3323
39.4358
40.2911
38.0252
38.0632
39.5062
39.0355
37.8113
38.1115
38.7168
38.7866
38.1761
37.9291
39.4289
39.8856
38.5645
38.6059
39.651
39.1633
38.1624
38.3612
38.7701
38.8349
38.4545
38.4089
39.4687
39.68
38.8983
38.9719
39.7281
39.3611
38.5435
38.6356
38.8752
38.9103
38.6765
38.7301
39.4892
39.5872
39.1182
39.2186
39.8055
39.5204
38.8303
38.8431
38.9795
38.9894
38.8507
38.9488
39.4945
39.5492
39.2684
39.3884
39.8543
39.6459
39.0495
39.0061
39.0717
39.0632
38.9861
39.0934
39.4975
39.5359
39.3729
39.5062
39.8792
39.7435
39.2181
39.1355
39.1512
39.1296
39.0911
39.1999
39.497
39.5336
39.4452
39.5868
39.8838
39.8186
39.3486
39.2388
39.2195
39.1881
39.1725
39.2749
39.4966
39.5352
39.4939
39.6393
39.8698
39.8766
39.4509
39.3222
39.2778
39.2391
39.2359
39.3279
39.4962
39.5372
39.5247
39.6693
39.8381
39.9223
39.5322
39.3902
39.3277
39.2831
39.2855
39.3658
39.4955
39.5379
39.5413
39.68
39.7893
39.9595
39.5981
39.4463
39.3705
39.321
39.3246
39.3932
39.4943
39.5365
39.5467
39.6725
39.7193
39.9906
39.6524
39.4933
39.4073
39.3535
39.3555
39.413
39.4927
39.5332
39.5439
39.6471
39.617
40.7325
41.461
42.0136
41.9525
39.1808
41.7812
44.524
40.1942
40.7833
41.1613
42.419
42.9741
40.7093
41.3772
41.8513
41.673
40.4571
42.3082
45.3314
41.7599
41.0719
41.3753
42.3302
42.5654
40.6603
41.2948
41.7202
41.6387
40.8814
41.3731
40.6891
40.7832
43.594
43.9742
41.9769
42.3929
40.6584
41.2461
41.6424
41.6239
41.1743
41.5286
40.8497
40.8902
41.4463
41.3639
41.6021
42.2898
40.6684
41.2203
41.5947
41.6242
41.3706
41.651
41.0616
41.3959
41.6446
41.349
41.2345
42.2459
40.6838
41.2082
41.5634
41.6295
41.4809
41.714
41.1999
41.4282
41.6893
40.843
40.8649
42.2616
40.7041
41.2065
41.5432
41.6313
41.5486
41.7066
41.2672
41.3429
41.4198
40.2684
42.3596
42.996
40.7298
41.2144
41.5315
41.6301
41.5893
41.7102
41.3319
41.3894
41.0883
43.3997
42.8069
44.1974
40.7606
41.2314
41.5267
41.6271
41.6108
41.6975
41.3738
41.39
41.1379
41.5087
44.1246
44.3598
40.7957
41.258
41.5271
41.623
41.62
41.677
41.4002
41.386
41.1638
41.7061
44.457
44.3618
40.8499
41.2959
41.5317
41.6181
41.6215
41.6538
41.4155
41.3767
41.1508
41.3789
44.1902
44.2959
40.9905
41.3462
41.5384
41.6127
41.6182
41.6309
41.4242
41.3643
41.1357
41.2539
42.9305
44.2076
40.8716
40.3421
41.5933
41.2763
38.9189
38.8702
38.9003
39.5938
40.6987
40.8862
40.9832
41.1384
41.1865
40.6289
39.8494
39.8223
39.2714
39.2138
39.2566
39.8769
40.6683
40.9144
41.065
41.1836
41.4594
40.9922
40.369
40.1669
39.6777
39.5816
39.5573
40.0383
40.6439
40.9076
41.0776
41.1669
41.698
41.3154
40.7636
40.4706
40.0073
39.8646
39.7837
40.1184
40.5333
40.7078
40.8129
40.8516
41.8963
41.5664
41.0739
40.7154
40.275
40.0914
39.8885
40.2182
40.5901
40.6185
40.6234
40.5857
42.0673
41.7818
41.3267
40.9322
40.3606
39.9572
39.9963
40.3312
40.5819
40.5973
40.6153
40.5284
41.9981
41.5259
41.1089
40.4725
40.0375
40.0186
40.1788
40.3987
40.5764
40.5809
40.6073
40.4671
42.3988
41.3774
40.7712
40.3979
40.2271
40.242
40.321
40.452
40.5707
40.5633
40.5958
40.3971
42.6091
41.6261
41.0209
40.6354
40.4497
40.4196
40.439
40.4979
40.5665
40.5493
40.5795
40.3203
42.7446
41.8156
41.2248
40.8288
40.6311
40.5701
40.5401
40.5312
40.495
40.4505
40.4571
40.2007
42.8218
41.9568
41.3851
40.9902
40.7833
40.6965
40.5629
40.4355
40.4743
40.4548
40.4386
40.3361
42.8604
42.0623
41.516
41.1283
40.9056
40.7159
40.4792
40.4392
40.4786
40.4469
40.4263
40.2607
41.3288
41.3555
41.4269
41.4001
41.2708
41.44
50.9571
50.8513
45.0456
36.4893
38.1781
39.3202
41.3317
41.3284
41.3759
41.3617
41.1995
40.4172
40.9292
40.1518
38.1017
37.6226
38.6803
39.4893
41.2979
41.2956
41.317
41.3117
41.1614
40.6094
40.8503
40.1343
38.5826
38.1212
39.1071
39.6894
41.0098
41.0449
41.1246
41.2285
41.149
40.736
40.8244
40.1766
38.9751
38.6525
39.2868
39.8052
40.7517
40.8463
41.0275
41.0754
41.0383
40.814
40.8225
40.2317
39.2794
39.0372
39.5388
39.9626
40.6987
40.7641
40.9348
41.0225
40.8776
40.6251
40.7519
40.2839
39.508
39.3229
39.7336
40.0955
40.6468
40.688
40.8652
41.0037
40.9018
40.5292
40.4654
40.1867
39.6521
39.5334
39.887
40.2085
40.59
40.6131
40.8084
41.0057
40.9447
40.6146
40.3938
40.0155
39.6103
39.6316
39.9966
40.305
40.5287
40.5376
40.7567
41.0168
40.9914
40.688
40.4396
40.0309
39.4817
39.5001
39.9737
40.3534
40.6205
40.4528
40.7291
41.0383
41.0467
40.7522
40.4785
40.0979
39.6011
39.4061
39.622
40.0483
41.0317
40.4532
40.7318
41.0657
41.1017
40.8006
40.5138
40.1536
39.7245
39.5319
39.5773
39.6958
41.2177
40.7881
40.4899
41.1214
41.1625
40.8393
40.5383
40.1989
39.8234
39.6472
39.6685
39.7516
39.7514
40.7419
40.9675
41.1967
41.5249
43.2616
45.2566
43.3131
43.2906
41.6473
44.2244
42.1517
39.8834
40.3578
40.7994
41.3649
42.0163
42.265
44.3748
44.8329
44.4769
41.0339
43.7281
42.1247
40.0615
40.512
40.9264
41.4451
41.9889
42.1598
42.0025
45.0895
44.7843
41.6576
42.7648
41.971
40.2012
40.6267
41.0215
41.4966
41.9481
42.3522
41.6746
44.9978
45.0218
42.1626
41.8913
41.7864
40.3242
40.718
41.0942
41.53
41.9292
42.3702
42.1017
45.3353
45.3036
42.6827
41.1448
41.5874
40.4286
40.7951
41.1535
41.5546
41.9189
42.3197
42.1768
45.8943
45.5852
43.1036
44.7423
41.4002
40.5195
40.8674
41.2052
41.5744
41.9122
42.3107
42.1384
45.9349
45.7468
42.8523
40.4946
41.6527
40.5952
40.9227
41.2487
41.5888
41.9017
42.361
42.4437
45.4995
45.792
42.415
42.2741
41.6864
40.6551
40.9721
41.2878
41.6003
41.885
42.3497
44.1609
45.3212
45.2226
44.7591
41.9453
40.1349
40.4953
40.8977
41.229
41.5068
41.7988
42.1204
41.5113
47.9884
52.7508
49.1342
40.7017
40.6582
39.9689
40.3262
40.6832
41.2016
41.8126
42.0831
41.1277
38.8021
40.388
38.9853
40.337
40.7484
39.9555
40.2614
40.6306
41.1632
41.7024
41.8709
40.8251
38.7039
39.5207
39.3648
39.9291
40.423
43.123
43.1111
42.429
41.1866
43.1397
43.3203
44.09
43.1037
43.7116
42.7756
42.7732
43.1656
42.9946
42.9999
42.5631
42.0977
42.8953
44.9383
44.6625
43.1593
42.7989
42.5634
42.6648
42.6652
42.8179
42.9491
42.6685
42.4675
42.4471
45.7647
46.4221
43.9069
43.2976
42.8796
42.767
42.7603
42.5929
42.9538
42.7796
42.7117
42.8733
44.1567
46.7297
44.1868
43.4953
43.0001
42.8218
42.7367
42.3707
43.0006
42.8952
42.9354
43.1203
43.7591
46.7871
44.4675
43.6752
43.0371
42.8996
42.817
42.0995
43.314
43.0178
43.1268
43.2902
43.6176
46.9469
44.8315
43.8526
43.0489
42.8346
42.7623
41.9773
43.0244
43.104
43.2464
43.4491
43.7161
47.0975
45.2516
44.0617
43.0345
42.8638
42.8435
41.5592
43.1049
43.3914
43.5336
43.5851
43.8628
46.2542
45.6115
44.2485
42.989
42.8753
42.8479
41.6352
43.2484
43.344
43.5761
43.7314
44.0391
45.4205
47.4377
43.8129
42.9262
42.871
42.9237
42.1828
43.3336
43.5113
43.683
43.8047
44.1357
45.1008
47.7418
43.6585
42.8143
42.8691
42.8824
42.415
42.5996
43.5915
43.7596
43.8997
44.2026
44.5749
45.6875
48.2
42.6801
42.8668
42.8903
42.5333
42.4515
43.4874
43.8211
43.9677
44.273
44.417
44.8245
42.3818
42.6894
42.8481
42.8831
42.9237
42.9672
42.9286
42.9145
42.8526
42.8013
42.7994
42.8293
42.8812
42.9377
43.0452
43.0089
42.9096
42.9539
42.9252
42.8831
42.8607
42.8486
42.8662
42.873
42.8832
42.9284
43.0247
42.996
42.895
42.9401
42.9214
42.8891
42.8646
42.8208
42.8417
42.8555
42.8872
42.9239
43.0138
43.0218
42.8804
42.9269
42.917
42.8929
42.8717
42.8351
42.8505
42.8617
42.8911
42.9246
43.0076
43.0389
42.8663
42.9156
42.9127
42.8956
42.8779
42.8474
42.8597
42.8697
42.8962
42.9271
43.0035
43.0458
42.8515
42.9054
42.909
42.8977
42.8832
42.858
42.8681
42.8772
42.9017
42.9301
43.0002
43.0469
42.8414
42.8974
42.9063
42.8997
42.8881
42.8672
42.8757
42.8843
42.907
42.9329
42.9964
43.044
42.8315
42.8914
42.9046
42.9018
42.8926
42.8753
42.8825
42.8908
42.9117
42.9347
42.9917
43.0375
42.8213
42.8873
42.904
42.9042
42.897
42.8824
42.8887
42.8965
42.9155
42.9353
42.9856
43.0276
42.8097
42.8856
42.9045
42.9069
42.9013
42.8887
42.8942
42.9015
42.9184
42.9344
42.9782
43.015
42.8031
42.887
42.9063
42.91
42.9057
42.8943
42.8992
42.9059
42.9205
42.9323
42.9697
43.0005
42.7995
42.8904
42.9088
42.9132
42.9097
42.899
42.9035
42.9095
42.9219
42.9296
42.9617
42.9864
43.8949
43.7552
43.6103
43.4042
43.2156
42.8824
42.4876
42.0997
41.6609
41.0827
40.6548
40.3263
43.8895
43.7414
43.5942
43.398
43.1958
42.8688
42.4837
42.0939
41.6571
41.1116
40.6814
40.3468
43.8388
43.7204
43.576
43.3865
43.175
42.854
42.4772
42.0869
41.6534
41.1347
40.7052
40.3654
43.7959
43.6979
43.5573
43.3725
43.1548
42.8393
42.4695
42.0799
41.6503
41.1535
40.7264
40.3825
43.7642
43.6769
43.5395
43.358
43.1362
42.8256
42.4619
42.0737
41.6483
41.1692
40.7453
40.398
43.7394
43.6589
43.5237
43.3443
43.12