/*--------------------------------*- C++ -*----------------------------------*\
| =========                 |                                                 |
| \\      /  F ield         | OpenFOAM: The Open Source CFD Toolbox           |
|  \\    /   O peration     | Version:  v1606+                                |
|   \\  /    A nd           | Web:      www.OpenFOAM.com                      |
|    \\/     M anipulation  |                                                 |
\*---------------------------------------------------------------------------*/
FoamFile
{
    version     2.0;
    format      ascii;
    class       volVectorField;
    location    "0.35";
    object      U;
}
// * * * * * * * * * * * * * * * * * * * * * * * * * * * * * * * * * * * * * //

dimensions      [0 1 -1 0 0 0 0];

internalField   nonuniform List<vector> 
8000
(
(-4.90875e-11 -0.00122105 0)
(-3.52104e-10 -0.00231108 0)
(-6.47547e-10 -0.0025799 0)
(-1.019e-09 -0.00236195 0)
(-1.37581e-09 -0.00188245 0)
(-1.59685e-09 -0.00129824 0)
(-1.51354e-09 -0.000719581 0)
(-1.05466e-09 -0.000224071 0)
(-5.68058e-10 0.000134681 0)
(-2.28105e-10 0.000322455 0)
(9.83754e-11 0.000322455 0)
(4.29097e-10 0.000134681 0)
(8.71005e-10 -0.000224071 0)
(1.26791e-09 -0.000719581 0)
(1.30739e-09 -0.00129824 0)
(1.05928e-09 -0.00188245 0)
(7.17488e-10 -0.00236195 0)
(4.23648e-10 -0.0025799 0)
(2.68356e-10 -0.00231108 0)
(5.88285e-11 -0.00122105 0)
(-1.7235e-11 -0.00122105 0)
(-4.22845e-10 -0.00231108 0)
(-8.08442e-10 -0.0025799 0)
(-1.23724e-09 -0.00236195 0)
(-1.65293e-09 -0.00188245 0)
(-1.96645e-09 -0.00129824 0)
(-1.99431e-09 -0.000719581 0)
(-1.63511e-09 -0.000224071 0)
(-1.05783e-09 0.00013468 0)
(-4.56782e-10 0.000322454 0)
(1.10851e-10 0.000322454 0)
(6.98413e-10 0.00013468 0)
(1.25224e-09 -0.000224072 0)
(1.57918e-09 -0.000719581 0)
(1.51959e-09 -0.00129824 0)
(1.18168e-09 -0.00188245 0)
(7.70645e-10 -0.00236195 0)
(4.39804e-10 -0.0025799 0)
(3.05862e-10 -0.00231108 0)
(8.73061e-11 -0.00122105 0)
(-1.26974e-10 -0.00122105 0)
(-7.58985e-10 -0.00231108 0)
(-1.14781e-09 -0.0025799 0)
(-1.50028e-09 -0.00236195 0)
(-1.82176e-09 -0.00188245 0)
(-2.0341e-09 -0.00129824 0)
(-2.0047e-09 -0.000719581 0)
(-1.66226e-09 -0.000224072 0)
(-1.12315e-09 0.00013468 0)
(-5.54403e-10 0.000322454 0)
(1.10028e-13 0.000322454 0)
(5.59638e-10 0.000134679 0)
(1.07326e-09 -0.000224072 0)
(1.38882e-09 -0.000719582 0)
(1.38263e-09 -0.00129824 0)
(1.11934e-09 -0.00188245 0)
(7.53615e-10 -0.00236195 0)
(4.04472e-10 -0.0025799 0)
(1.78707e-10 -0.00231108 0)
(3.30077e-11 -0.00122105 0)
(-2.74713e-10 -0.00122105 0)
(-1.05757e-09 -0.00231108 0)
(-1.3351e-09 -0.0025799 0)
(-1.5892e-09 -0.00236195 0)
(-1.79901e-09 -0.00188245 0)
(-1.90217e-09 -0.00129824 0)
(-1.81538e-09 -0.000719581 0)
(-1.51917e-09 -0.000224072 0)
(-1.08954e-09 0.000134679 0)
(-6.14159e-10 0.000322453 0)
(-1.40136e-10 0.000322453 0)
(3.24217e-10 0.000134679 0)
(7.44724e-10 -0.000224073 0)
(1.02078e-09 -0.000719582 0)
(1.07316e-09 -0.00129824 0)
(9.23345e-10 -0.00188245 0)
(6.41099e-10 -0.00236195 0)
(2.86043e-10 -0.0025799 0)
(-5.00444e-11 -0.00231108 0)
(-9.42899e-11 -0.00122105 0)
(-6.123e-11 -0.00122105 0)
(-6.89531e-10 -0.00231108 0)
(-1.13663e-09 -0.0025799 0)
(-1.44217e-09 -0.00236195 0)
(-1.63984e-09 -0.00188245 0)
(-1.71316e-09 -0.00129824 0)
(-1.63278e-09 -0.000719581 0)
(-1.39929e-09 -0.000224073 0)
(-1.05902e-09 0.000134679 0)
(-6.71867e-10 0.000322453 0)
(-2.73602e-10 0.000322453 0)
(1.13682e-10 0.000134678 0)
(4.51884e-10 -0.000224073 0)
(6.87865e-10 -0.000719582 0)
(7.78488e-10 -0.00129824 0)
(7.17893e-10 -0.00188245 0)
(5.24511e-10 -0.00236195 0)
(2.10291e-10 -0.0025799 0)
(-1.59183e-10 -0.00231108 0)
(-1.62322e-10 -0.00122105 0)
(1.43465e-13 -0.00122105 0)
(-3.9051e-10 -0.00231108 0)
(-8.28471e-10 -0.0025799 0)
(-1.19328e-09 -0.00236195 0)
(-1.43114e-09 -0.00188245 0)
(-1.53052e-09 -0.00129824 0)
(-1.48405e-09 -0.000719582 0)
(-1.30859e-09 -0.000224073 0)
(-1.04372e-09 0.000134678 0)
(-7.30475e-10 0.000322452 0)
(-3.99182e-10 0.000322452 0)
(-7.96395e-11 0.000134678 0)
(1.98309e-10 -0.000224073 0)
(4.0744e-10 -0.000719582 0)
(5.27559e-10 -0.00129824 0)
(5.52499e-10 -0.00188245 0)
(4.73171e-10 -0.00236195 0)
(2.65487e-10 -0.0025799 0)
(-2.75131e-11 -0.00231108 0)
(-1.07723e-10 -0.00122105 0)
(1.35804e-10 -0.00122105 0)
(-3.05174e-11 -0.00231108 0)
(-5.4321e-10 -0.0025799 0)
(-9.83529e-10 -0.00236195 0)
(-1.26889e-09 -0.00188245 0)
(-1.3959e-09 -0.00129824 0)
(-1.38084e-09 -0.000719582 0)
(-1.25185e-09 -0.000224073 0)
(-1.04602e-09 0.000134678 0)
(-7.96816e-10 0.000322452 0)
(-5.28229e-10 0.000322452 0)
(-2.67024e-10 0.000134678 0)
(-3.53731e-11 -0.000224074 0)
(1.55802e-10 -0.000719582 0)
(3.06466e-10 -0.00129824 0)
(4.12871e-10 -0.00188245 0)
(4.44953e-10 -0.00236195 0)
(3.5604e-10 -0.0025799 0)
(1.37752e-10 -0.00231108 0)
(-5.86565e-11 -0.00122105 0)
(1.95364e-10 -0.00122105 0)
(1.09509e-10 -0.00231108 0)
(-4.52088e-10 -0.0025799 0)
(-9.23357e-10 -0.00236194 0)
(-1.21295e-09 -0.00188245 0)
(-1.33826e-09 -0.00129824 0)
(-1.33306e-09 -0.000719582 0)
(-1.23233e-09 -0.000224073 0)
(-1.07023e-09 0.000134678 0)
(-8.72183e-10 0.000322452 0)
(-6.59781e-10 0.000322452 0)
(-4.53706e-10 0.000134677 0)
(-2.63752e-10 -0.000224074 0)
(-8.63798e-11 -0.000719583 0)
(8.36932e-11 -0.00129824 0)
(2.41695e-10 -0.00188245 0)
(3.59215e-10 -0.00236195 0)
(4.01527e-10 -0.0025799 0)
(3.215e-10 -0.00231108 0)
(2.42452e-11 -0.00122105 0)
(1.50489e-10 -0.00122105 0)
(-6.10006e-11 -0.00231108 0)
(-6.24449e-10 -0.0025799 0)
(-1.04689e-09 -0.00236194 0)
(-1.27621e-09 -0.00188244 0)
(-1.35486e-09 -0.00129824 0)
(-1.3309e-09 -0.000719582 0)
(-1.23889e-09 -0.000224074 0)
(-1.10186e-09 0.000134677 0)
(-9.43912e-10 0.000322451 0)
(-7.84944e-10 0.000322451 0)
(-6.33005e-10 0.000134677 0)
(-4.85376e-10 -0.000224074 0)
(-3.39745e-10 -0.000719583 0)
(-1.90793e-10 -0.00129824 0)
(-3.48189e-11 -0.00188245 0)
(1.22866e-10 -0.00236195 0)
(2.81155e-10 -0.0025799 0)
(4.08774e-10 -0.00231108 0)
(1.21168e-10 -0.00122105 0)
(7.44051e-12 -0.00122105 0)
(-4.92965e-10 -0.00231108 0)
(-9.89043e-10 -0.0025799 0)
(-1.28207e-09 -0.00236194 0)
(-1.39393e-09 -0.00188244 0)
(-1.39318e-09 -0.00129824 0)
(-1.33282e-09 -0.000719582 0)
(-1.23376e-09 -0.000224074 0)
(-1.1126e-09 0.000134677 0)
(-9.92218e-10 0.000322451 0)
(-8.83597e-10 0.000322451 0)
(-7.85863e-10 0.000134677 0)
(-6.97575e-10 -0.000224074 0)
(-6.19391e-10 -0.000719583 0)
(-5.40359e-10 -0.00129824 0)
(-4.46695e-10 -0.00188245 0)
(-3.1526e-10 -0.00236195 0)
(-1.21127e-10 -0.0025799 0)
(1.44767e-10 -0.00231108 0)
(9.01534e-11 -0.00122105 0)
(-2.10938e-10 -0.00122105 0)
(-1.04401e-09 -0.00231108 0)
(-1.37753e-09 -0.0025799 0)
(-1.46488e-09 -0.00236194 0)
(-1.43896e-09 -0.00188244 0)
(-1.36415e-09 -0.00129824 0)
(-1.26869e-09 -0.000719582 0)
(-1.16746e-09 -0.000224074 0)
(-1.07101e-09 0.000134677 0)
(-9.91355e-10 0.000322451 0)
(-9.33665e-10 0.000322451 0)
(-8.97699e-10 0.000134677 0)
(-8.89937e-10 -0.000224074 0)
(-9.04885e-10 -0.000719583 0)
(-9.29727e-10 -0.00129824 0)
(-9.39346e-10 -0.00188245 0)
(-8.85931e-10 -0.00236195 0)
(-7.42429e-10 -0.0025799 0)
(-5.01071e-10 -0.00231108 0)
(-1.27573e-10 -0.00122105 0)
(-3.46343e-10 -0.00122105 0)
(-1.27567e-09 -0.00231108 0)
(-1.4325e-09 -0.0025799 0)
(-1.39609e-09 -0.00236194 0)
(-1.29064e-09 -0.00188245 0)
(-1.18131e-09 -0.00129824 0)
(-1.08237e-09 -0.000719582 0)
(-1.00284e-09 -0.000224074 0)
(-9.44843e-10 0.000134677 0)
(-9.14407e-10 0.000322451 0)
(-9.14916e-10 0.000322451 0)
(-9.53796e-10 0.000134677 0)
(-1.03292e-09 -0.000224074 0)
(-1.14362e-09 -0.000719583 0)
(-1.27613e-09 -0.00129824 0)
(-1.39035e-09 -0.00188245 0)
(-1.42603e-09 -0.00236195 0)
(-1.3619e-09 -0.0025799 0)
(-1.19143e-09 -0.00231108 0)
(-3.70896e-10 -0.00122105 0)
(-3.37621e-10 -0.00122104 0)
(-1.09672e-09 -0.00231108 0)
(-1.11792e-09 -0.0025799 0)
(-1.02017e-09 -0.00236194 0)
(-9.04695e-10 -0.00188245 0)
(-8.14058e-10 -0.00129824 0)
(-7.56063e-10 -0.000719582 0)
(-7.25167e-10 -0.000224074 0)
(-7.21037e-10 0.000134677 0)
(-7.5077e-10 0.000322451 0)
(-8.18966e-10 0.000322451 0)
(-9.32316e-10 0.000134677 0)
(-1.08605e-09 -0.000224074 0)
(-1.27959e-09 -0.000719583 0)
(-1.49391e-09 -0.00129824 0)
(-1.67931e-09 -0.00188245 0)
(-1.78185e-09 -0.00236195 0)
(-1.77077e-09 -0.0025799 0)
(-1.61829e-09 -0.00231108 0)
(-5.04293e-10 -0.00122105 0)
(-2.21185e-10 -0.00122104 0)
(-5.76372e-10 -0.00231108 0)
(-4.80092e-10 -0.0025799 0)
(-3.80147e-10 -0.00236194 0)
(-3.15114e-10 -0.00188245 0)
(-2.92386e-10 -0.00129824 0)
(-3.0579e-10 -0.000719582 0)
(-3.45847e-10 -0.000224074 0)
(-4.12382e-10 0.000134677 0)
(-5.08379e-10 0.000322451 0)
(-6.42066e-10 0.000322451 0)
(-8.14628e-10 0.000134677 0)
(-1.0265e-09 -0.000224074 0)
(-1.27456e-09 -0.000719583 0)
(-1.52947e-09 -0.00129824 0)
(-1.7494e-09 -0.00188245 0)
(-1.88391e-09 -0.00236195 0)
(-1.88076e-09 -0.0025799 0)
(-1.70362e-09 -0.00231108 0)
(-5.15649e-10 -0.00122105 0)
(-4.60431e-11 -0.00122104 0)
(1.19188e-10 -0.00231108 0)
(3.19731e-10 -0.0025799 0)
(3.94474e-10 -0.00236194 0)
(3.78279e-10 -0.00188245 0)
(3.09402e-10 -0.00129824 0)
(2.11495e-10 -0.000719582 0)
(9.25319e-11 -0.000224074 0)
(-4.47116e-11 0.000134677 0)
(-2.02694e-10 0.000322451 0)
(-3.89636e-10 0.000322451 0)
(-6.05099e-10 0.000134677 0)
(-8.50174e-10 -0.000224074 0)
(-1.11261e-09 -0.000719582 0)
(-1.37174e-09 -0.00129824 0)
(-1.59715e-09 -0.00188245 0)
(-1.72862e-09 -0.00236195 0)
(-1.705e-09 -0.0025799 0)
(-1.49194e-09 -0.00231108 0)
(-4.23549e-10 -0.00122105 0)
(1.22366e-10 -0.00122104 0)
(7.88801e-10 -0.00231108 0)
(1.07974e-09 -0.0025799 0)
(1.13228e-09 -0.00236194 0)
(1.04946e-09 -0.00188245 0)
(9.03405e-10 -0.00129824 0)
(7.30286e-10 -0.000719582 0)
(5.43131e-10 -0.000224074 0)
(3.475e-10 0.000134677 0)
(1.3882e-10 0.000322451 0)
(-8.40199e-11 0.000322451 0)
(-3.20522e-10 0.000134677 0)
(-5.67935e-10 -0.000224074 0)
(-8.15645e-10 -0.000719582 0)
(-1.05508e-09 -0.00129824 0)
(-1.25972e-09 -0.00188245 0)
(-1.37111e-09 -0.00236195 0)
(-1.3529e-09 -0.0025799 0)
(-1.15412e-09 -0.00231108 0)
(-2.98927e-10 -0.00122105 0)
(3.16489e-10 -0.00122104 0)
(1.39741e-09 -0.00231108 0)
(1.69969e-09 -0.0025799 0)
(1.7282e-09 -0.00236194 0)
(1.60888e-09 -0.00188245 0)
(1.41693e-09 -0.00129824 0)
(1.19366e-09 -0.000719582 0)
(9.61018e-10 -0.000224074 0)
(7.2603e-10 0.000134677 0)
(4.88032e-10 0.000322452 0)
(2.52424e-10 0.000322452 0)
(2.03297e-11 0.000134678 0)
(-2.05361e-10 -0.000224073 0)
(-4.21611e-10 -0.000719582 0)
(-6.2504e-10 -0.00129824 0)
(-7.94423e-10 -0.00188245 0)
(-8.85508e-10 -0.00236195 0)
(-9.02091e-10 -0.0025799 0)
(-8.21029e-10 -0.00231108 0)
(-2.131e-10 -0.00122105 0)
(4.56881e-10 -0.00122105 0)
(1.78485e-09 -0.00231108 0)
(2.08162e-09 -0.0025799 0)
(2.113e-09 -0.00236194 0)
(1.99273e-09 -0.00188245 0)
(1.79182e-09 -0.00129824 0)
(1.55411e-09 -0.000719582 0)
(1.30659e-09 -0.000224073 0)
(1.05774e-09 0.000134678 0)
(8.15941e-10 0.000322452 0)
(5.89706e-10 0.000322452 0)
(3.81951e-10 0.000134678 0)
(1.94703e-10 -0.000224073 0)
(2.41731e-11 -0.000719582 0)
(-1.31686e-10 -0.00129824 0)
(-2.60839e-10 -0.00188245 0)
(-3.40499e-10 -0.00236195 0)
(-4.16898e-10 -0.0025799 0)
(-5.12508e-10 -0.00231108 0)
(-1.55684e-10 -0.00122105 0)
(4.70642e-10 -0.00122105 0)
(1.82811e-09 -0.00231108 0)
(2.16194e-09 -0.0025799 0)
(2.24944e-09 -0.00236194 0)
(2.17466e-09 -0.00188244 0)
(2.00424e-09 -0.00129824 0)
(1.78761e-09 -0.000719582 0)
(1.55135e-09 -0.000224073 0)
(1.31281e-09 0.000134678 0)
(1.09143e-09 0.000322452 0)
(8.95197e-10 0.000322452 0)
(7.2767e-10 0.000134678 0)
(5.89477e-10 -0.000224073 0)
(4.74895e-10 -0.000719582 0)
(3.78919e-10 -0.00129824 0)
(3.04332e-10 -0.00188245 0)
(2.36888e-10 -0.00236195 0)
(8.61857e-11 -0.0025799 0)
(-1.85966e-10 -0.00231108 0)
(-9.1214e-11 -0.00122105 0)
(3.83312e-10 -0.00122105 0)
(1.58468e-09 -0.00231108 0)
(1.98549e-09 -0.0025799 0)
(2.16356e-09 -0.00236194 0)
(2.16274e-09 -0.00188244 0)
(2.05275e-09 -0.00129824 0)
(1.88251e-09 -0.000719581 0)
(1.68244e-09 -0.000224073 0)
(1.48197e-09 0.000134678 0)
(1.30139e-09 0.000322452 0)
(1.14907e-09 0.000322452 0)
(1.03188e-09 0.000134678 0)
(9.50655e-10 -0.000224073 0)
(9.02985e-10 -0.000719582 0)
(8.83196e-10 -0.00129824 0)
(8.78841e-10 -0.00188245 0)
(8.30474e-10 -0.00236195 0)
(6.21224e-10 -0.0025799 0)
(2.22242e-10 -0.00231108 0)
(9.73634e-12 -0.00122105 0)
(2.41741e-10 -0.00122105 0)
(1.15706e-09 -0.00231108 0)
(1.62016e-09 -0.0025799 0)
(1.89466e-09 -0.00236194 0)
(1.98024e-09 -0.00188244 0)
(1.94778e-09 -0.00129824 0)
(1.84316e-09 -0.000719581 0)
(1.70594e-09 -0.000224073 0)
(1.56623e-09 0.000134678 0)
(1.43924e-09 0.000322452 0)
(1.33998e-09 0.000322452 0)
(1.27974e-09 0.000134678 0)
(1.26347e-09 -0.000224073 0)
(1.29326e-09 -0.000719582 0)
(1.36074e-09 -0.00129824 0)
(1.43402e-09 -0.00188245 0)
(1.42574e-09 -0.00236195 0)
(1.22624e-09 -0.0025799 0)
(7.95732e-10 -0.00231108 0)
(1.78181e-10 -0.00122105 0)
(2.67137e-11 -0.00122105 0)
(5.54696e-10 -0.00231108 0)
(1.09986e-09 -0.0025799 0)
(1.47739e-09 -0.00236194 0)
(1.66191e-09 -0.00188244 0)
(1.71857e-09 -0.00129824 0)
(1.69673e-09 -0.000719581 0)
(1.63865e-09 -0.000224073 0)
(1.56728e-09 0.000134678 0)
(1.50145e-09 0.000322452 0)
(1.46219e-09 0.000322452 0)
(1.46267e-09 0.000134678 0)
(1.51373e-09 -0.000224073 0)
(1.62022e-09 -0.000719582 0)
(1.77018e-09 -0.00129824 0)
(1.92058e-09 -0.00188245 0)
(1.98468e-09 -0.00236195 0)
(1.88726e-09 -0.0025799 0)
(1.55779e-09 -0.00231108 0)
(4.33797e-10 -0.00122105 0)
(-1.77671e-10 -0.00122105 0)
(-5.81004e-11 -0.00231108 0)
(5.18646e-10 -0.0025799 0)
(9.69397e-10 -0.00236195 0)
(1.24952e-09 -0.00188245 0)
(1.40131e-09 -0.00129824 0)
(1.47172e-09 -0.000719581 0)
(1.49457e-09 -0.000224073 0)
(1.4929e-09 0.000134678 0)
(1.49229e-09 0.000322452 0)
(1.51235e-09 0.000322452 0)
(1.56914e-09 0.000134678 0)
(1.6784e-09 -0.000224073 0)
(1.84521e-09 -0.000719582 0)
(2.05606e-09 -0.00129824 0)
(2.27066e-09 -0.00188245 0)
(2.42329e-09 -0.00236195 0)
(2.48886e-09 -0.0025799 0)
(2.40356e-09 -0.00231108 0)
(7.66286e-10 -0.00122105 0)
(-3.04566e-10 -0.00122105 0)
(-5.27442e-10 -0.00231108 0)
(-8.05534e-12 -0.0025799 0)
(4.58568e-10 -0.00236195 0)
(8.0586e-10 -0.00188245 0)
(1.04168e-09 -0.00129824 0)
(1.19553e-09 -0.000719581 0)
(1.29241e-09 -0.000224073 0)
(1.35879e-09 0.000134678 0)
(1.41772e-09 0.000322452 0)
(1.48719e-09 0.000322452 0)
(1.58798e-09 0.000134678 0)
(1.73577e-09 -0.000224073 0)
(1.934e-09 -0.000719582 0)
(2.17219e-09 -0.00129824 0)
(2.42277e-09 -0.00188245 0)
(2.64787e-09 -0.00236195 0)
(2.86255e-09 -0.0025799 0)
(3.03159e-09 -0.00231108 0)
(1.04002e-09 -0.00122105 0)
(-3.3958e-10 -0.00122105 0)
(-7.72472e-10 -0.00231108 0)
(-3.81809e-10 -0.0025799 0)
(3.70087e-11 -0.00236195 0)
(4.04554e-10 -0.00188245 0)
(6.92636e-10 -0.00129824 0)
(9.05597e-10 -0.000719581 0)
(1.06243e-09 -0.000224073 0)
(1.18354e-09 0.000134678 0)
(1.28536e-09 0.000322452 0)
(1.38935e-09 0.000322452 0)
(1.51624e-09 0.000134678 0)
(1.67644e-09 -0.000224073 0)
(1.874e-09 -0.000719582 0)
(2.10631e-09 -0.00129824 0)
(2.36078e-09 -0.00188245 0)
(2.62312e-09 -0.00236195 0)
(2.90829e-09 -0.0025799 0)
(3.15187e-09 -0.00231108 0)
(1.08568e-09 -0.00122105 0)
(-2.42653e-10 -0.00122105 0)
(-7.04331e-10 -0.00231108 0)
(-5.22211e-10 -0.0025799 0)
(-2.16343e-10 -0.00236195 0)
(1.10806e-10 -0.00188245 0)
(4.01976e-10 -0.00129824 0)
(6.41194e-10 -0.000719582 0)
(8.32626e-10 -0.000224073 0)
(9.82577e-10 0.000134678 0)
(1.10706e-09 0.000322452 0)
(1.22857e-09 0.000322452 0)
(1.35988e-09 0.000134678 0)
(1.50768e-09 -0.000224074 0)
(1.67983e-09 -0.000719583 0)
(1.87892e-09 -0.00129824 0)
(2.10187e-09 -0.00188245 0)
(2.3582e-09 -0.00236195 0)
(2.64353e-09 -0.0025799 0)
(2.81615e-09 -0.00231108 0)
(9.45679e-10 -0.00122104 0)
(-9.55269e-11 -0.00122105 0)
(-4.27844e-10 -0.00231108 0)
(-4.31614e-10 -0.0025799 0)
(-2.68242e-10 -0.00236195 0)
(-3.78946e-11 -0.00188245 0)
(2.05448e-10 -0.00129824 0)
(4.31245e-10 -0.000719582 0)
(6.19177e-10 -0.000224073 0)
(7.6844e-10 0.000134678 0)
(8.9673e-10 0.000322452 0)
(1.01716e-09 0.000322452 0)
(1.13333e-09 0.000134678 0)
(1.25246e-09 -0.000224074 0)
(1.38238e-09 -0.000719583 0)
(1.5259e-09 -0.00129824 0)
(1.68634e-09 -0.00188245 0)
(1.87907e-09 -0.00236195 0)
(2.07281e-09 -0.0025799 0)
(2.06013e-09 -0.00231108 0)
(6.34849e-10 -0.00122104 0)
(7.37558e-11 -0.00122105 0)
(-8.65458e-12 -0.00231108 0)
(-1.51925e-10 -0.0025799 0)
(-1.45015e-10 -0.00236195 0)
(-4.54462e-11 -0.00188245 0)
(1.10666e-10 -0.00129824 0)
(2.77954e-10 -0.000719582 0)
(4.24583e-10 -0.000224073 0)
(5.52026e-10 0.000134678 0)
(6.67817e-10 0.000322452 0)
(7.70252e-10 0.000322452 0)
(8.59918e-10 0.000134677 0)
(9.41385e-10 -0.000224074 0)
(1.01529e-09 -0.000719583 0)
(1.08746e-09 -0.00129824 0)
(1.16985e-09 -0.00188245 0)
(1.25804e-09 -0.00236195 0)
(1.29128e-09 -0.0025799 0)
(1.09798e-09 -0.00231108 0)
(2.75788e-10 -0.00122104 0)
(2.35129e-10 -0.00122105 0)
(4.54733e-10 -0.00231108 0)
(2.18645e-10 -0.0025799 0)
(7.47112e-11 -0.00236195 0)
(3.87352e-11 -0.00188245 0)
(8.0026e-11 -0.00129824 0)
(1.54967e-10 -0.000719582 0)
(2.4328e-10 -0.000224073 0)
(3.38795e-10 0.000134678 0)
(4.28378e-10 0.000322452 0)
(5.03089e-10 0.000322452 0)
(5.61851e-10 0.000134677 0)
(5.99644e-10 -0.000224074 0)
(6.11061e-10 -0.000719583 0)
(6.03517e-10 -0.00129824 0)
(5.87599e-10 -0.00188245 0)
(5.47663e-10 -0.00236195 0)
(4.23227e-10 -0.0025799 0)
(1.39396e-10 -0.00231108 0)
(-4.18725e-11 -0.00122104 0)
(3.32919e-10 -0.00122105 0)
(8.0261e-10 -0.00231108 0)
(5.29873e-10 -0.0025799 0)
(2.73555e-10 -0.00236195 0)
(1.20292e-10 -0.00188245 0)
(4.63854e-11 -0.00129824 0)
(3.31967e-11 -0.000719582 0)
(6.80533e-11 -0.000224073 0)
(1.25356e-10 0.000134678 0)
(1.81442e-10 0.000322452 0)
(2.26454e-10 0.000322452 0)
(2.51182e-10 0.000134677 0)
(2.41294e-10 -0.000224074 0)
(1.88635e-10 -0.000719583 0)
(9.34059e-11 -0.00129824 0)
(-4.03739e-11 -0.00188245 0)
(-2.09821e-10 -0.00236195 0)
(-4.50203e-10 -0.0025799 0)
(-7.26569e-10 -0.00231108 0)
(-2.99952e-10 -0.00122104 0)
(3.86728e-10 -0.00122105 0)
(1.01105e-09 -0.00231108 0)
(7.03733e-10 -0.0025799 0)
(3.59026e-10 -0.00236195 0)
(1.23464e-10 -0.00188245 0)
(-2.68854e-11 -0.00129824 0)
(-9.85434e-11 -0.000719582 0)
(-1.10802e-10 -0.000224073 0)
(-9.39854e-11 0.000134678 0)
(-6.92051e-11 0.000322452 0)
(-5.29508e-11 0.000322452 0)
(-6.54708e-11 0.000134677 0)
(-1.26856e-10 -0.000224074 0)
(-2.51763e-10 -0.000719583 0)
(-4.47008e-10 -0.00129824 0)
(-6.93631e-10 -0.00188245 0)
(-9.626e-10 -0.00236195 0)
(-1.26152e-09 -0.0025799 0)
(-1.44751e-09 -0.00231108 0)
(-4.8993e-10 -0.00122104 0)
(4.20542e-10 -0.00122105 0)
(1.06486e-09 -0.00231108 0)
(6.78992e-10 -0.0025799 0)
(2.82006e-10 -0.00236195 0)
(2.41038e-11 -0.00188245 0)
(-1.49267e-10 -0.00129824 0)
(-2.53651e-10 -0.000719582 0)
(-3.04095e-10 -0.000224073 0)
(-3.17965e-10 0.000134678 0)
(-3.17378e-10 0.000322452 0)
(-3.29542e-10 0.000322452 0)
(-3.811e-10 0.000134678 0)
(-4.95786e-10 -0.000224074 0)
(-6.92616e-10 -0.000719582 0)
(-9.7085e-10 -0.00129824 0)
(-1.29327e-09 -0.00188245 0)
(-1.63282e-09 -0.00236195 0)
(-1.97179e-09 -0.0025799 0)
(-2.04652e-09 -0.00231108 0)
(-6.42076e-10 -0.00122104 0)
(3.8252e-10 -0.00122105 0)
(8.60796e-10 -0.00231108 0)
(4.06145e-10 -0.0025799 0)
(2.84398e-11 -0.00236195 0)
(-1.92509e-10 -0.00188245 0)
(-3.44687e-10 -0.00129824 0)
(-4.50563e-10 -0.000719582 0)
(-5.12283e-10 -0.000224073 0)
(-5.38492e-10 0.000134678 0)
(-5.55418e-10 0.000322452 0)
(-5.93665e-10 0.000322452 0)
(-6.80149e-10 0.000134678 0)
(-8.3844e-10 -0.000224073 0)
(-1.08016e-09 -0.000719582 0)
(-1.38734e-09 -0.00129824 0)
(-1.7275e-09 -0.00188245 0)
(-2.09209e-09 -0.00236195 0)
(-2.40623e-09 -0.0025799 0)
(-2.38746e-09 -0.00231108 0)
(-7.314e-10 -0.00122104 0)
(2.32248e-10 -0.00122105 0)
(3.58827e-10 -0.00231108 0)
(-9.36807e-11 -0.0025799 0)
(-3.82788e-10 -0.00236195 0)
(-5.25259e-10 -0.00188245 0)
(-6.14203e-10 -0.00129824 0)
(-6.80234e-10 -0.000719582 0)
(-7.23038e-10 -0.000224073 0)
(-7.468e-10 0.000134678 0)
(-7.72821e-10 0.000322452 0)
(-8.26397e-10 0.000322452 0)
(-9.30627e-10 0.000134678 0)
(-1.10226e-09 -0.000224073 0)
(-1.33755e-09 -0.000719582 0)
(-1.61215e-09 -0.00129824 0)
(-1.92335e-09 -0.00188245 0)
(-2.27546e-09 -0.00236195 0)
(-2.527e-09 -0.0025799 0)
(-2.43678e-09 -0.00231108 0)
(-7.42956e-10 -0.00122105 0)
(-8.83522e-12 -0.00122105 0)
(-3.59025e-10 -0.00231108 0)
(-7.31118e-10 -0.0025799 0)
(-8.83229e-10 -0.00236195 0)
(-9.16646e-10 -0.00188245 0)
(-9.16601e-10 -0.00129824 0)
(-9.19777e-10 -0.000719582 0)
(-9.25414e-10 -0.000224073 0)
(-9.32346e-10 0.000134678 0)
(-9.52175e-10 0.000322452 0)
(-1.00108e-09 0.000322452 0)
(-1.09381e-09 0.000134678 0)
(-1.23471e-09 -0.000224073 0)
(-1.40916e-09 -0.000719582 0)
(-1.60611e-09 -0.00129824 0)
(-1.85269e-09 -0.00188245 0)
(-2.13379e-09 -0.00236195 0)
(-2.26692e-09 -0.0025799 0)
(-2.11365e-09 -0.00231108 0)
(-6.38753e-10 -0.00122105 0)
(-2.9858e-10 -0.00122105 0)
(-1.16973e-09 -0.00231108 0)
(-1.38901e-09 -0.0025799 0)
(-1.3731e-09 -0.00236195 0)
(-1.29577e-09 -0.00188245 0)
(-1.21547e-09 -0.00129824 0)
(-1.15046e-09 -0.000719582 0)
(-1.10298e-09 -0.000224073 0)
(-1.07584e-09 0.000134678 0)
(-1.07156e-09 0.000322452 0)
(-1.09354e-09 0.000322452 0)
(-1.14453e-09 0.000134678 0)
(-1.21729e-09 -0.000224073 0)
(-1.29751e-09 -0.000719581 0)
(-1.39601e-09 -0.00129824 0)
(-1.54568e-09 -0.00188245 0)
(-1.68503e-09 -0.00236194 0)
(-1.6571e-09 -0.0025799 0)
(-1.43388e-09 -0.00231108 0)
(-4.07118e-10 -0.00122105 0)
(-6.42674e-10 -0.00122105 0)
(-1.99208e-09 -0.00231108 0)
(-1.9594e-09 -0.0025799 0)
(-1.7767e-09 -0.00236195 0)
(-1.61676e-09 -0.00188245 0)
(-1.46744e-09 -0.00129824 0)
(-1.32848e-09 -0.000719582 0)
(-1.22128e-09 -0.000224073 0)
(-1.153e-09 0.000134678 0)
(-1.11311e-09 0.000322452 0)
(-1.09198e-09 0.000322452 0)
(-1.08252e-09 0.000134678 0)
(-1.07261e-09 -0.000224073 0)
(-1.05704e-09 -0.000719581 0)
(-1.06135e-09 -0.00129824 0)
(-1.0949e-09 -0.00188244 0)
(-1.05619e-09 -0.00236194 0)
(-8.56406e-10 -0.0025799 0)
(-5.45973e-10 -0.00231108 0)
(-8.94134e-11 -0.00122105 0)
(-8.95085e-10 -0.00122105 0)
(-2.52764e-09 -0.00231108 0)
(-2.28229e-09 -0.0025799 0)
(-2.01457e-09 -0.00236195 0)
(-1.80437e-09 -0.00188245 0)
(-1.59271e-09 -0.00129824 0)
(-1.39566e-09 -0.000719582 0)
(-1.24717e-09 -0.000224073 0)
(-1.14443e-09 0.000134678 0)
(-1.06656e-09 0.000322452 0)
(-9.98651e-10 0.000322452 0)
(-9.29308e-10 0.000134678 0)
(-8.47915e-10 -0.000224073 0)
(-7.61762e-10 -0.000719581 0)
(-6.97958e-10 -0.00129824 0)
(-6.31764e-10 -0.00188245 0)
(-4.59757e-10 -0.00236195 0)
(-1.56902e-10 -0.0025799 0)
(2.07195e-10 -0.00231108 0)
(1.79066e-10 -0.00122105 0)
(-9.6413e-10 -0.00122105 0)
(-2.62547e-09 -0.00231108 0)
(-2.29318e-09 -0.0025799 0)
(-2.0055e-09 -0.00236195 0)
(-1.76958e-09 -0.00188245 0)
(-1.53121e-09 -0.00129824 0)
(-1.32231e-09 -0.000719582 0)
(-1.16132e-09 -0.000224074 0)
(-1.03566e-09 0.000134678 0)
(-9.28151e-10 0.000322452 0)
(-8.25982e-10 0.000322452 0)
(-7.16489e-10 0.000134678 0)
(-5.94002e-10 -0.000224073 0)
(-4.76877e-10 -0.000719581 0)
(-3.83579e-10 -0.00129824 0)
(-2.66374e-10 -0.00188245 0)
(-5.45966e-11 -0.00236195 0)
(2.33525e-10 -0.0025799 0)
(5.52587e-10 -0.00231108 0)
(2.87715e-10 -0.00122105 0)
(-8.35659e-10 -0.00122104 0)
(-2.24958e-09 -0.00231108 0)
(-1.94222e-09 -0.0025799 0)
(-1.68504e-09 -0.00236195 0)
(-1.47563e-09 -0.00188245 0)
(-1.27295e-09 -0.00129824 0)
(-1.0955e-09 -0.000719582 0)
(-9.44643e-10 -0.000224074 0)
(-8.15248e-10 0.000134678 0)
(-7.00975e-10 0.000322452 0)
(-5.9087e-10 0.000322452 0)
(-4.72461e-10 0.000134678 0)
(-3.47507e-10 -0.000224073 0)
(-2.40109e-10 -0.000719582 0)
(-1.56191e-10 -0.00129824 0)
(-4.75627e-11 -0.00188245 0)
(1.09014e-10 -0.00236195 0)
(2.64631e-10 -0.0025799 0)
(3.99794e-10 -0.00231108 0)
(1.86949e-10 -0.00122105 0)
(-5.33124e-10 -0.00122104 0)
(-1.43913e-09 -0.00231108 0)
(-1.2344e-09 -0.0025799 0)
(-1.06517e-09 -0.00236195 0)
(-9.42734e-10 -0.00188245 0)
(-8.21382e-10 -0.00129824 0)
(-7.02188e-10 -0.000719582 0)
(-5.88727e-10 -0.000224074 0)
(-4.88849e-10 0.000134677 0)
(-4.01044e-10 0.000322452 0)
(-3.13499e-10 0.000322452 0)
(-2.16849e-10 0.000134678 0)
(-1.21069e-10 -0.000224073 0)
(-4.90578e-11 -0.000719582 0)
(3.29075e-12 -0.00129824 0)
(6.60365e-11 -0.00188245 0)
(1.17628e-10 -0.00236195 0)
(8.51648e-11 -0.0025799 0)
(-1.95141e-11 -0.00231108 0)
(-1.69502e-11 -0.00122105 0)
(-1.73654e-10 -0.00122104 0)
(-3.99151e-10 -0.00231108 0)
(-2.82881e-10 -0.0025799 0)
(-2.29387e-10 -0.00236195 0)
(-2.18336e-10 -0.00188245 0)
(-1.98595e-10 -0.00129824 0)
(-1.64864e-10 -0.000719583 0)
(-1.25861e-10 -0.000224074 0)
(-9.19619e-11 0.000134677 0)
(-5.94742e-11 0.000322452 0)
(-1.65915e-11 0.000322452 0)
(3.95868e-11 0.000134678 0)
(9.37021e-11 -0.000224073 0)
(1.29057e-10 -0.000719582 0)
(1.52811e-10 -0.00129824 0)
(1.7073e-10 -0.00188245 0)
(1.31669e-10 -0.00236195 0)
(-4.74579e-11 -0.0025799 0)
(-3.31248e-10 -0.00231108 0)
(-1.67625e-10 -0.00122105 0)
(2.24766e-10 -0.00122104 0)
(7.58177e-10 -0.00231108 0)
(7.80643e-10 -0.0025799 0)
(7.10081e-10 -0.00236195 0)
(6.06558e-10 -0.00188245 0)
(5.10204e-10 -0.00129824 0)
(4.337e-10 -0.000719583 0)
(3.72352e-10 -0.000224074 0)
(3.21832e-10 0.000134677 0)
(2.88953e-10 0.000322452 0)
(2.81359e-10 0.000322452 0)
(2.94081e-10 0.000134678 0)
(3.10851e-10 -0.000224073 0)
(3.23397e-10 -0.000719582 0)
(3.38188e-10 -0.00129824 0)
(3.41548e-10 -0.00188245 0)
(2.70784e-10 -0.00236195 0)
(5.10161e-11 -0.0025799 0)
(-2.78594e-10 -0.00231108 0)
(-1.64858e-10 -0.00122105 0)
(6.27166e-10 -0.00122104 0)
(1.87556e-09 -0.00231108 0)
(1.78192e-09 -0.0025799 0)
(1.59176e-09 -0.00236195 0)
(1.38012e-09 -0.00188245 0)
(1.16902e-09 -0.00129824 0)
(9.8338e-10 -0.000719582 0)
(8.27765e-10 -0.000224074 0)
(7.03489e-10 0.000134677 0)
(6.15872e-10 0.000322452 0)
(5.6484e-10 0.000322452 0)
(5.39904e-10 0.000134678 0)
(5.29236e-10 -0.000224073 0)
(5.33936e-10 -0.000719582 0)
(5.59959e-10 -0.00129824 0)
(5.8315e-10 -0.00188245 0)
(5.44755e-10 -0.00236195 0)
(3.9692e-10 -0.0025799 0)
(1.62588e-10 -0.00231108 0)
(-9.15866e-13 -0.00122105 0)
(9.18536e-10 -0.00122104 0)
(2.69277e-09 -0.00231108 0)
(2.51098e-09 -0.0025799 0)
(2.22911e-09 -0.00236195 0)
(1.94217e-09 -0.00188245 0)
(1.65251e-09 -0.00129824 0)
(1.39408e-09 -0.000719582 0)
(1.18036e-09 -0.000224074 0)
(1.01309e-09 0.000134678 0)
(8.91622e-10 0.000322452 0)
(8.09265e-10 0.000322452 0)
(7.55085e-10 0.000134678 0)
(7.2552e-10 -0.000224073 0)
(7.30128e-10 -0.000719582 0)
(7.73261e-10 -0.00129824 0)
(8.26776e-10 -0.00188245 0)
(8.47636e-10 -0.00236195 0)
(8.34431e-10 -0.0025799 0)
(7.93366e-10 -0.00231108 0)
(2.52245e-10 -0.00122105 0)
(1.03836e-09 -0.00122105 0)
(3.04421e-09 -0.00231108 0)
(2.81869e-09 -0.0025799 0)
(2.49385e-09 -0.00236195 0)
(2.18647e-09 -0.00188245 0)
(1.88075e-09 -0.00129824 0)
(1.60806e-09 -0.000719582 0)
(1.38528e-09 -0.000224073 0)
(1.21175e-09 0.000134678 0)
(1.08065e-09 0.000322452 0)
(9.82221e-10 0.000322452 0)
(9.09679e-10 0.000134678 0)
(8.67418e-10 -0.000224073 0)
(8.68077e-10 -0.000719582 0)
(9.11696e-10 -0.00129824 0)
(9.69963e-10 -0.00188245 0)
(1.02115e-09 -0.00236195 0)
(1.11442e-09 -0.0025799 0)
(1.25829e-09 -0.00231108 0)
(4.53105e-10 -0.00122105 0)
(9.70994e-10 -0.00122105 0)
(2.8615e-09 -0.00231108 0)
(2.64803e-09 -0.0025799 0)
(2.34817e-09 -0.00236195 0)
(2.08176e-09 -0.00188245 0)
(1.82644e-09 -0.00129824 0)
(1.59943e-09 -0.000719582 0)
(1.41434e-09 -0.000224073 0)
(1.26957e-09 0.000134678 0)
(1.1546e-09 0.000322452 0)
(1.05921e-09 0.000322452 0)
(9.8161e-10 0.000134678 0)
(9.30385e-10 -0.000224073 0)
(9.15028e-10 -0.000719582 0)
(9.29841e-10 -0.00129824 0)
(9.49633e-10 -0.00188245 0)
(9.71798e-10 -0.00236195 0)
(1.0764e-09 -0.0025799 0)
(1.25967e-09 -0.00231108 0)
(4.55542e-10 -0.00122105 0)
(6.87454e-10 -0.00122105 0)
(2.10512e-09 -0.00231108 0)
(2.01486e-09 -0.0025799 0)
(1.83784e-09 -0.00236195 0)
(1.6762e-09 -0.00188245 0)
(1.52336e-09 -0.00129824 0)
(1.3856e-09 -0.000719582 0)
(1.27306e-09 -0.000224073 0)
(1.18427e-09 0.000134678 0)
(1.10704e-09 0.000322452 0)
(1.03333e-09 0.000322452 0)
(9.65292e-10 0.000134678 0)
(9.10051e-10 -0.000224073 0)
(8.7073e-10 -0.000719582 0)
(8.38465e-10 -0.00129824 0)
(7.92503e-10 -0.00188245 0)
(7.36786e-10 -0.00236195 0)
(7.52397e-10 -0.0025799 0)
(8.31903e-10 -0.00231108 0)
(2.84745e-10 -0.00122105 0)
(2.31056e-10 -0.00122105 0)
(9.04093e-10 -0.00231108 0)
(1.05165e-09 -0.0025799 0)
(1.09429e-09 -0.00236194 0)
(1.08408e-09 -0.00188245 0)
(1.05673e-09 -0.00129824 0)
(1.02678e-09 -0.000719582 0)
(1.00363e-09 -0.000224073 0)
(9.83623e-10 0.000134678 0)
(9.56999e-10 0.000322452 0)
(9.20644e-10 0.000322452 0)
(8.76751e-10 0.000134678 0)
(8.2721e-10 -0.000224073 0)
(7.72211e-10 -0.000719582 0)
(7.03692e-10 -0.00129824 0)
(5.97779e-10 -0.00188245 0)
(4.44631e-10 -0.00236195 0)
(2.98084e-10 -0.0025799 0)
(1.80395e-10 -0.00231108 0)
(2.69756e-11 -0.00122105 0)
(-2.57326e-10 -0.00122105 0)
(-3.93994e-10 -0.00231108 0)
(8.5109e-12 -0.0025799 0)
(2.90799e-10 -0.00236195 0)
(4.36082e-10 -0.00188245 0)
(5.28561e-10 -0.00129824 0)
(6.03014e-10 -0.000719582 0)
(6.67642e-10 -0.000224073 0)
(7.17119e-10 0.000134678 0)
(7.47356e-10 0.000322452 0)
(7.58113e-10 0.000322452 0)
(7.49027e-10 0.000134678 0)
(7.21179e-10 -0.000224073 0)
(6.77282e-10 -0.000719582 0)
(6.05913e-10 -0.00129824 0)
(4.697e-10 -0.00188245 0)
(2.37257e-10 -0.00236195 0)
(-7.28898e-11 -0.0025799 0)
(-3.93128e-10 -0.00231108 0)
(-2.01294e-10 -0.00122105 0)
(-6.05165e-10 -0.00122105 0)
(-1.37344e-09 -0.00231108 0)
(-8.44769e-10 -0.0025799 0)
(-4.23705e-10 -0.00236195 0)
(-1.64712e-10 -0.00188245 0)
(2.56237e-11 -0.00129824 0)
(1.89114e-10 -0.000719582 0)
(3.2989e-10 -0.000224073 0)
(4.43005e-10 0.000134678 0)
(5.27879e-10 0.000322452 0)
(5.85686e-10 0.000322452 0)
(6.18884e-10 0.000134678 0)
(6.33516e-10 -0.000224073 0)
(6.31724e-10 -0.000719582 0)
(5.9135e-10 -0.00129824 0)
(4.65005e-10 -0.00188245 0)
(2.12904e-10 -0.00236194 0)
(-1.72221e-10 -0.0025799 0)
(-6.02874e-10 -0.00231108 0)
(-2.88115e-10 -0.00122105 0)
(-7.13072e-10 -0.00122105 0)
(-1.80931e-09 -0.00231108 0)
(-1.36045e-09 -0.0025799 0)