/*--------------------------------*- C++ -*----------------------------------*\
| =========                 |                                                 |
| \\      /  F ield         | OpenFOAM: The Open Source CFD Toolbox           |
|  \\    /   O peration     | Version:  v1606+                                |
|   \\  /    A nd           | Web:      www.OpenFOAM.com                      |
|    \\/     M anipulation  |                                                 |
\*---------------------------------------------------------------------------*/
FoamFile
{
    version     2.0;
    format      ascii;
    class       volVectorField;
    location    "1.23";
    object      U.air;
}
// * * * * * * * * * * * * * * * * * * * * * * * * * * * * * * * * * * * * * //

dimensions      [0 1 -1 0 0 0 0];

internalField   nonuniform List<vector> 
6000
(
(-0.00583059 0.243379 0)
(0.0295037 0.188318 0)
(0.0388541 0.194728 0)
(-0.00449791 0.186999 0)
(-0.0548884 0.19417 0)
(-0.0575245 0.185733 0)
(-0.0218966 0.18962 0)
(0.00813124 0.202338 0)
(0.0187528 0.207054 0)
(0.0272638 0.215399 0)
(0.042387 0.233481 0)
(0.0601898 0.2453 0)
(0.0650708 0.254345 0)
(0.0528548 0.257574 0)
(0.0292258 0.262796 0)
(0.00443491 0.265759 0)
(-0.0146976 0.265063 0)
(-0.0275859 0.252604 0)
(-0.0323008 0.224825 0)
(-0.0217296 0.2057 0)
(0.000845395 0.198137 0)
(0.0178021 0.198929 0)
(0.0120007 0.201548 0)
(-0.0185273 0.198774 0)
(-0.0806022 0.201358 0)
(-0.151045 0.217022 0)
(-0.184486 0.217451 0)
(-0.166273 0.184659 0)
(-0.104445 0.150664 0)
(-0.0279662 0.169809 0)
(0.0887085 0.841331 0)
(0.19987 0.891836 0)
(0.270998 1.00194 0)
(0.256095 1.12073 0)
(0.161689 1.11029 0)
(0.0813483 1.06436 0)
(0.035475 1.05612 0)
(0.00659006 1.09591 0)
(-0.0180267 1.10131 0)
(-0.015347 1.07276 0)
(0.0131104 1.03782 0)
(0.0458047 1.03676 0)
(0.0530118 1.06499 0)
(0.0328437 1.08534 0)
(0.00225869 1.09166 0)
(-0.0209164 1.08198 0)
(-0.028465 1.07083 0)
(-0.0262275 1.07383 0)
(-0.0264481 1.08323 0)
(-0.0291911 1.07757 0)
(-0.0420756 1.07099 0)
(-0.0801164 1.08107 0)
(-0.157511 1.10231 0)
(-0.259355 1.11434 0)
(-0.371173 1.12755 0)
(-0.421058 1.04842 0)
(-0.408755 0.946661 0)
(-0.346933 0.869305 0)
(-0.220895 0.802427 0)
(-0.0882486 0.790959 0)
(0.0761569 0.542567 0)
(0.212209 0.553318 0)
(0.343689 0.69059 0)
(0.399186 0.857438 0)
(0.353715 0.944539 0)
(0.246837 0.888864 0)
(0.144221 0.852849 0)
(0.0487182 0.869575 0)
(-0.0192637 0.821499 0)
(-0.0327678 0.77483 0)
(-0.0113236 0.742846 0)
(0.0148103 0.754502 0)
(0.0248354 0.801103 0)
(0.011374 0.829071 0)
(-0.00927815 0.836733 0)
(-0.0249019 0.817524 0)
(-0.0353576 0.795871 0)
(-0.0414778 0.78595 0)
(-0.0510932 0.778651 0)
(-0.0708923 0.77635 0)
(-0.111221 0.805313 0)
(-0.18198 0.852957 0)
(-0.294968 0.918216 0)
(-0.424591 0.939786 0)
(-0.493665 0.887829 0)
(-0.477681 0.773047 0)
(-0.437689 0.662725 0)
(-0.346073 0.531866 0)
(-0.192904 0.424806 0)
(-0.0791614 0.450341 0)
(0.0681256 0.457558 0)
(0.159848 0.467866 0)
(0.315322 0.620592 0)
(0.470638 0.857355 0)
(0.542725 1.0239 0)
(0.441482 1.0136 0)
(0.269614 0.965002 0)
(0.121065 0.978336 0)
(0.0108096 0.901128 0)
(-0.0596042 0.813499 0)
(-0.0820005 0.751243 0)
(-0.0680111 0.757766 0)
(-0.0447968 0.817768 0)
(-0.0295965 0.864092 0)
(-0.0179025 0.869204 0)
(-0.012278 0.853255 0)
(-0.0168047 0.835242 0)
(-0.0277771 0.830306 0)
(-0.0515635 0.844721 0)
(-0.101346 0.865404 0)
(-0.174126 0.917499 0)
(-0.263205 0.986674 0)
(-0.371036 1.07158 0)
(-0.474293 1.052 0)
(-0.503398 0.923587 0)
(-0.440151 0.774567 0)
(-0.334478 0.62631 0)
(-0.20499 0.488784 0)
(-0.10548 0.394413 0)
(-0.0504133 0.430245 0)
(0.0241104 0.404077 0)
(0.0706651 0.383179 0)
(0.170749 0.448634 0)
(0.335422 0.647485 0)
(0.530252 0.942888 0)
(0.500106 1.11327 0)
(0.323547 1.11613 0)
(0.176369 1.07371 0)
(0.0585886 0.96127 0)
(-0.0508305 0.830462 0)
(-0.100834 0.712759 0)
(-0.0868201 0.683153 0)
(-0.0458531 0.726417 0)
(-0.00966627 0.755059 0)
(0.0154524 0.757839 0)
(0.0219111 0.758555 0)
(0.0163838 0.757008 0)
(-0.000503981 0.767533 0)
(-0.0246677 0.803241 0)
(-0.0629003 0.852727 0)
(-0.125071 0.918046 0)
(-0.198224 1.00494 0)
(-0.292519 1.08965 0)
(-0.390832 1.07044 0)
(-0.391214 0.821794 0)
(-0.267686 0.616939 0)
(-0.118586 0.478694 0)
(-0.0430582 0.405614 0)
(-0.0102231 0.383642 0)
(-0.0104142 0.419638 0)
(0.00829069 0.381935 0)
(0.00912041 0.367945 0)
(0.034528 0.385349 0)
(0.137738 0.459345 0)
(0.294777 0.779704 0)
(0.389635 1.1662 0)
(0.241391 1.17056 0)
(0.119 1.0952 0)
(0.0178134 1.00094 0)
(-0.0572315 0.859439 0)
(-0.0703893 0.677768 0)
(-0.0499175 0.615119 0)
(-0.00453603 0.657655 0)
(0.0384014 0.724231 0)
(0.0549341 0.7579 0)
(0.0551738 0.770872 0)
(0.0480639 0.775506 0)
(0.0384778 0.781419 0)
(0.0368674 0.804495 0)
(0.0294293 0.868191 0)
(-0.0106751 0.958028 0)
(-0.0814484 1.0629 0)
(-0.177891 1.16104 0)
(-0.257624 1.09829 0)
(-0.187288 0.714354 0)
(-0.0461123 0.48837 0)
(0.0354378 0.429493 0)
(0.0659424 0.414638 0)
(0.041284 0.423805 0)
(0.00770518 0.44051 0)
(-0.00670598 0.381079 0)
(-0.0330508 0.379437 0)
(-0.0564899 0.376648 0)
(-0.026756 0.387667 0)
(0.0619726 0.60648 0)
(0.225572 1.14347 0)
(0.1769 1.28369 0)
(0.03398 1.19357 0)
(-0.0631144 1.06802 0)
(-0.0610013 0.857068 0)
(-0.0153224 0.659867 0)
(0.00468008 0.602195 0)
(0.0197541 0.635105 0)
(0.0400635 0.704792 0)
(0.0537967 0.753398 0)
(0.0562943 0.77596 0)
(0.0531845 0.785008 0)
(0.0477978 0.796476 0)
(0.0527579 0.812938 0)
(0.0872193 0.871208 0)
(0.11093 0.994501 0)
(0.0625201 1.1271 0)
(-0.0296353 1.23389 0)
(-0.0599514 1.09154 0)
(0.0284487 0.611612 0)
(0.095082 0.436639 0)
(0.133508 0.428377 0)
(0.118099 0.449144 0)
(0.0751518 0.475279 0)
(0.0238652 0.486167 0)
(-0.022223 0.413421 0)
(-0.074235 0.417391 0)
(-0.124645 0.404961 0)
(-0.148842 0.38499 0)
(-0.0852112 0.503053 0)
(0.0256899 1.06268 0)
(0.0686884 1.37381 0)
(-0.0570588 1.29319 0)
(-0.0951883 1.09952 0)
(-0.00265142 0.797927 0)
(0.0515579 0.649447 0)
(0.0466241 0.614957 0)
(0.0316289 0.64563 0)
(0.0289277 0.712867 0)
(0.0334117 0.762717 0)
(0.0384477 0.793417 0)
(0.0432125 0.807453 0)
(0.0448131 0.818498 0)
(0.0576919 0.816049 0)
(0.102425 0.830662 0)
(0.161902 0.980591 0)
(0.189596 1.1905 0)
(0.158381 1.29444 0)
(0.190716 1.07369 0)
(0.192407 0.604881 0)
(0.189815 0.446373 0)
(0.181686 0.448447 0)
(0.158757 0.487226 0)
(0.116746 0.536101 0)
(0.0463195 0.558877 0)
(-0.0441269 0.484605 0)
(-0.126535 0.484656 0)
(-0.195881 0.453275 0)
(-0.235933 0.415401 0)
(-0.213289 0.485917 0)
(-0.189416 1.01232 0)
(-0.118825 1.42612 0)
(-0.0988393 1.37724 0)
(-0.0165319 1.03347 0)
(0.0586846 0.747335 0)
(0.076795 0.675689 0)
(0.0419864 0.655444 0)
(0.0140179 0.678031 0)
(0.00728664 0.738939 0)
(0.00936805 0.787786 0)
(0.0171029 0.81204 0)
(0.0318593 0.820561 0)
(0.0478283 0.832215 0)
(0.0652389 0.824825 0)
(0.103482 0.82678 0)
(0.141843 0.951581 0)
(0.193581 1.19786 0)
(0.298282 1.28551 0)
(0.387611 1.09347 0)
(0.338084 0.714935 0)
(0.254107 0.506989 0)
(0.216185 0.476582 0)
(0.207313 0.513385 0)
(0.168924 0.605493 0)
(0.0846596 0.722767 0)
(-0.0894157 0.651589 0)
(-0.205547 0.597355 0)
(-0.273047 0.504541 0)
(-0.305245 0.465522 0)
(-0.333093 0.563257 0)
(-0.386498 1.05467 0)
(-0.273035 1.36473 0)
(-0.0504809 1.30836 0)
(0.0914568 0.964745 0)
(0.135871 0.787921 0)
(0.0965811 0.734027 0)
(0.044588 0.705674 0)
(0.00833317 0.704435 0)
(-0.00224346 0.748375 0)
(-4.68023e-05 0.799526 0)
(0.00626353 0.817599 0)
(0.0286052 0.821486 0)
(0.0663161 0.834467 0)
(0.0970621 0.854085 0)
(0.0859298 0.907909 0)
(0.0772313 1.03352 0)
(0.108715 1.22036 0)
(0.232383 1.23931 0)
(0.366182 1.09693 0)
(0.363637 0.839726 0)
(0.275692 0.595132 0)
(0.222305 0.506532 0)
(0.227031 0.525115 0)
(0.189685 0.702646 0)
(0.0666012 0.797988 0)
(-0.084316 0.75286 0)
(-0.228749 0.694195 0)
(-0.315878 0.542581 0)
(-0.320318 0.515305 0)
(-0.387649 0.695458 0)
(-0.438082 1.09683 0)
(-0.246602 1.21303 0)
(0.0327598 1.16816 0)
(0.171846 0.969704 0)
(0.16482 0.853624 0)
(0.105019 0.797833 0)
(0.0502413 0.755563 0)
(0.0133259 0.728451 0)
(0.00171229 0.74975 0)
(-2.7036e-05 0.797307 0)
(0.016784 0.800214 0)
(0.0617716 0.783104 0)
(0.118367 0.811079 0)
(0.138611 0.888314 0)
(0.096879 1.01491 0)
(0.0208428 1.15928 0)
(0.0199082 1.28311 0)
(0.103549 1.24671 0)
(0.206503 1.08211 0)
(0.256191 0.881906 0)
(0.238022 0.657033 0)
(0.204293 0.542181 0)
(0.170688 0.604934 0)
(0.0464502 0.776869 0)
(0.00834222 0.895631 0)
(-0.0304228 0.870299 0)
(-0.0940324 0.804955 0)
(-0.25007 0.638331 0)
(-0.288998 0.57059 0)
(-0.357394 0.789965 0)
(-0.312228 1.03947 0)
(-0.105902 1.07664 0)
(0.0961065 1.09306 0)
(0.182253 1.00159 0)
(0.155715 0.922261 0)
(0.0983947 0.860168 0)
(0.0443479 0.808378 0)
(0.00289787 0.755137 0)
(-0.00994696 0.747584 0)
(0.00245681 0.779156 0)
(0.0517637 0.751822 0)
(0.119995 0.727554 0)
(0.174496 0.790496 0)
(0.191559 0.925683 0)
(0.133367 1.12634 0)
(0.00903172 1.2839 0)
(-0.0514808 1.33686 0)
(-0.00556508 1.25604 0)
(0.0628352 1.06888 0)
(0.126212 0.861912 0)
(0.175736 0.658222 0)
(0.197504 0.625065 0)
(-0.00827061 0.714124 0)
(-0.138219 0.867154 0)
(-0.0707405 0.799457 0)
(0.0533801 0.80763 0)
(0.110757 0.871158 0)
(-0.00676743 0.764649 0)
(-0.224419 0.665447 0)
(-0.253436 0.80456 0)
(-0.11872 0.9076 0)
(0.0237436 0.979204 0)
(0.13473 1.03755 0)
(0.175188 1.02971 0)
(0.149674 0.976292 0)
(0.106905 0.916223 0)
(0.0431651 0.87543 0)
(-0.0188365 0.795187 0)
(-0.0371409 0.746457 0)
(-0.00278805 0.736833 0)
(0.0806713 0.683035 0)
(0.158186 0.669618 0)
(0.227765 0.759065 0)
(0.253251 0.948384 0)
(0.145484 1.25071 0)
(-0.0373255 1.3798 0)
(-0.0735446 1.32373 0)
(-0.0528998 1.2194 0)
(-0.0220555 1.04812 0)
(0.0353704 0.808552 0)
(0.12 0.648501 0)
(0.0391243 0.727619 0)
(-0.129988 0.915834 0)
(-0.187865 0.833457 0)
(-0.0766993 0.648874 0)
(0.0680382 0.681814 0)
(0.171579 0.840256 0)
(0.11677 0.956309 0)
(-0.0641441 0.807085 0)
(-0.140642 0.700612 0)
(0.0284358 0.774825 0)
(0.127003 0.906291 0)
(0.178358 0.999391 0)
(0.189893 1.03778 0)
(0.182893 1.00105 0)
(0.163351 0.965525 0)
(0.0634662 0.981485 0)
(-0.0515904 0.857515 0)
(-0.0750602 0.74291 0)
(-0.0213181 0.671724 0)
(0.0785453 0.602635 0)
(0.177459 0.601012 0)
(0.285526 0.697558 0)
(0.334428 0.978 0)
(0.211336 1.40381 0)
(-0.0507935 1.41244 0)
(-0.0635979 1.28553 0)
(-0.0632638 1.2049 0)
(-0.101999 1.08373 0)
(-0.104384 0.847558 0)
(-0.172061 0.696611 0)
(-0.285536 0.867495 0)
(-0.24168 0.875937 0)
(-0.16577 0.771843 0)
(-0.0504249 0.50442 0)
(0.0441125 0.567498 0)
(0.128069 0.803702 0)
(0.146709 0.949295 0)
(0.120312 0.971203 0)
(0.058189 0.691699 0)
(0.154598 0.683021 0)
(0.239046 0.855083 0)
(0.239872 0.982422 0)
(0.239027 1.02486 0)
(0.265687 0.988002 0)
(0.275832 0.99927 0)
(0.109169 1.15633 0)
(-0.119631 0.93813 0)
(-0.146347 0.71639 0)
(-0.0603057 0.583604 0)
(0.0587703 0.506013 0)
(0.192577 0.497346 0)
(0.341667 0.554867 0)
(0.482896 0.851727 0)
(0.394001 1.48798 0)
(0.0967779 1.39748 0)
(-0.0502885 1.16295 0)
(-0.227233 1.14107 0)
(-0.496075 1.05889 0)
(-0.674454 0.860799 0)
(-0.756068 0.79596 0)
(-0.597526 0.774261 0)
(-0.34184 0.680885 0)
(-0.167702 0.646018 0)
(-0.0215667 0.374174 0)
(0.0140356 0.469695 0)
(0.0985607 0.749474 0)
(0.186062 0.843516 0)
(0.341896 0.946619 0)
(0.413869 0.720947 0)
(0.350232 0.714346 0)
(0.392177 0.891876 0)
(0.352826 1.03129 0)
(0.330809 1.01357 0)
(0.355375 0.957442 0)
(0.321554 1.02602 0)
(0.0517355 1.25098 0)
(-0.222283 0.980062 0)
(-0.236045 0.644124 0)
(-0.106753 0.46881 0)
(0.0359693 0.392426 0)
(0.171537 0.366755 0)
(0.296597 0.353802 0)
(0.436168 0.746354 0)
(0.41278 1.56344 0)
(0.190166 1.57287 0)
(-0.123827 1.40547 0)
(-0.524566 1.42952 0)
(-0.934307 1.34909 0)
(-1.05011 0.93709 0)
(-0.899181 0.620171 0)
(-0.613741 0.480822 0)
(-0.342596 0.44002 0)
(-0.140725 0.481168 0)
(0.00260292 0.288148 0)
(-0.01799 0.421767 0)
(0.0727318 0.656861 0)
(0.234703 0.666012 0)
(0.505357 0.746108 0)
(0.73964 0.777028 0)
(0.835089 0.718759 0)
(0.764293 0.882043 0)
(0.603877 0.990113 0)
(0.407585 0.936856 0)
(0.304079 0.882366 0)
(0.126051 1.11162 0)
(-0.12776 1.42425 0)
(-0.324306 1.04365 0)
(-0.358447 0.431701 0)
(-0.130036 0.300287 0)
(0.0200499 0.270429 0)
(0.125289 0.263881 0)
(0.164963 0.246159 0)
(0.217239 0.630354 0)
(0.135446 1.57044 0)
(0.0412871 1.70952 0)
(-0.187343 1.63695 0)
(-0.479073 1.65017 0)
(-0.756403 1.45999 0)
(-0.692939 0.725603 0)
(-0.538953 0.352676 0)
(-0.378083 0.26262 0)
(-0.235946 0.272956 0)
(-0.0864479 0.333771 0)
(0.0167636 0.260286 0)
(-0.0251179 0.426459 0)
(0.0632136 0.547593 0)
(0.205441 0.508568 0)
(0.384886 0.525639 0)
(0.616071 0.582244 0)
(0.792886 0.677955 0)
(0.822689 0.950471 0)
(0.674897 1.19434 0)
(0.358479 1.09615 0)
(0.101723 1.08922 0)
(-0.168107 1.30793 0)
(-0.303846 1.35624 0)
(-0.347708 1.05579 0)
(-0.278996 0.287367 0)
(-0.0609544 0.0876888 0)
(0.0373039 0.163063 0)
(0.0948588 0.217512 0)
(0.0593725 0.28716 0)
(-0.0656293 0.763123 0)
(-0.191993 1.66787 0)
(-0.139658 1.79112 0)
(-0.190838 1.77003 0)
(-0.273555 1.7911 0)
(-0.317627 1.4736 0)
(-0.240731 0.590115 0)
(-0.214698 0.270815 0)
(-0.21607 0.222636 0)
(-0.181382 0.207685 0)
(-0.0761478 0.227798 0)
(0.00665996 0.25623 0)
(-0.0101534 0.429246 0)
(0.103311 0.453103 0)
(0.206234 0.45535 0)
(0.271351 0.458397 0)
(0.330856 0.492709 0)
(0.319167 0.548659 0)
(0.323051 0.855387 0)
(0.274807 1.30659 0)
(0.0743557 1.23317 0)
(-0.112927 1.24592 0)
(-0.251139 1.37592 0)
(-0.286407 1.36849 0)
(-0.205443 0.949511 0)
(-0.0913598 0.106796 0)
(0.0289219 0.0104903 0)
(0.0664458 0.0927311 0)
(0.0779739 0.234866 0)
(-0.0688924 0.453216 0)
(-0.405511 0.906787 0)
(-0.444147 1.58455 0)
(-0.271935 1.767 0)
(-0.163624 1.77657 0)
(-0.0673772 1.79529 0)
(0.0875485 1.38302 0)
(0.096546 0.607241 0)
(-0.062996 0.349346 0)
(-0.184614 0.284438 0)
(-0.198701 0.186739 0)
(-0.118885 0.147644 0)
(-0.0277905 0.231222 0)
(0.0255313 0.372466 0)
(0.179924 0.356358 0)
(0.262499 0.458711 0)
(0.250813 0.484866 0)
(0.13614 0.434353 0)
(-0.0570302 0.520979 0)
(-0.216365 0.79871 0)
(-0.175913 1.28001 0)
(-0.135005 1.27259 0)
(-0.179025 1.32125 0)
(-0.180977 1.40402 0)
(-0.103116 1.32383 0)
(0.0521895 0.895382 0)
(0.106902 0.101016 0)
(0.0315473 0.0354289 0)
(0.0617951 0.0722744 0)
(0.0618617 0.322992 0)
(-0.188801 0.71046 0)
(-0.424797 1.08535 0)
(-0.420376 1.39966 0)
(-0.246271 1.55993 0)
(-0.0788557 1.56025 0)
(0.13171 1.59597 0)
(0.351599 1.22414 0)
(0.296862 0.686927 0)
(0.0561779 0.440554 0)
(-0.163653 0.298796 0)
(-0.237342 0.168304 0)
(-0.196638 0.0586491 0)
(-0.0547703 0.123129 0)
(0.108737 0.272117 0)
(0.249655 0.255977 0)
(0.250447 0.350563 0)
(0.180153 0.426112 0)
(0.0773883 0.615382 0)
(-0.148488 0.72804 0)
(-0.339824 0.803613 0)
(-0.308761 1.13562 0)
(-0.169706 1.26577 0)
(-0.127045 1.34926 0)
(-0.0572974 1.30285 0)
(0.0605456 1.22712 0)
(0.182132 0.766431 0)
(0.1208 0.253901 0)
(-0.0120406 0.112379 0)
(-0.00558187 0.0405145 0)
(-0.0661299 0.436172 0)
(-0.195747 0.832963 0)
(-0.286708 1.08481 0)
(-0.25726 1.27676 0)
(-0.13548 1.39329 0)
(0.010287 1.39699 0)
(0.191373 1.32791 0)
(0.33682 1.09673 0)
(0.290902 0.836452 0)
(0.0925022 0.656123 0)
(-0.127071 0.441554 0)
(-0.238091 0.146679 0)
(-0.234304 -0.0858406 0)
(-0.0569421 -0.0194008 0)
(0.17858 0.0292987 0)
(0.212956 0.125413 0)
(0.186231 0.444045 0)
(0.0585504 0.479978 0)
(0.0125014 0.569957 0)
(-0.00831206 0.744367 0)
(-0.100054 0.875718 0)
(-0.133443 0.941634 0)
(-0.0847534 1.095 0)
(-0.0466657 1.1937 0)
(-0.00456821 1.20945 0)
(0.0463726 1.09604 0)
(0.0365567 0.761719 0)
(-0.0678652 0.378185 0)
(-0.112112 0.126657 0)
(-0.114514 0.113362 0)
(-0.138591 0.443238 0)
(-0.157126 0.813074 0)
(-0.160554 1.01127 0)
(-0.12444 1.13987 0)
(-0.0436939 1.21275 0)
(0.0596536 1.21327 0)
(0.162825 1.15073 0)
(0.217741 0.998622 0)
(0.17866 0.824875 0)
(0.081218 0.684751 0)
(-0.0142192 0.484885 0)
(-0.128533 0.184656 0)
(-0.137046 -0.176929 0)
(-0.104318 -0.142776 0)
(0.0575377 -0.148207 0)
(0.0731864 0.187555 0)
(0.00370436 0.369875 0)
(0.00791563 0.414379 0)
(0.0401269 0.49526 0)
(0.117045 0.68324 0)
(0.162432 0.870269 0)
(0.113749 0.991583 0)
(0.0482987 1.11931 0)
(0.0116426 1.19211 0)
(-0.0088076 1.19563 0)
(-0.038832 1.09297 0)
(-0.123178 0.799773 0)
(-0.17632 0.362097 0)
(-0.148393 0.102282 0)
(-0.133617 0.0955128 0)
(-0.134198 0.434118 0)
(-0.121412 0.801931 0)
(-0.101126 0.978166 0)
(-0.0717732 1.05862 0)
(-0.0200011 1.09516 0)
(0.0417288 1.08546 0)
(0.0935894 1.03601 0)
(0.11374 0.943077 0)
(0.0859959 0.835303 0)
(0.0388679 0.712049 0)
(0.0235351 0.4744 0)
(-0.00908462 0.191081 0)
(-0.0373818 -0.179195 0)
(-0.0943551 -0.266175 0)
(-0.0354291 -0.173118 0)
(-0.0304399 0.189715 0)
(-0.0223788 0.31804 0)
(0.00881634 0.374191 0)
(0.0424828 0.425693 0)
(0.114709 0.589015 0)
(0.195526 0.815512 0)
(0.196649 0.991096 0)
(0.131709 1.11575 0)
(0.0657846 1.17138 0)
(0.00874999 1.1704 0)
(-0.0514726 1.07741 0)
(-0.122304 0.794939 0)
(-0.140033 0.325657 0)
(-0.117312 0.0576776 0)
(-0.121244 0.0991788 0)
(-0.131903 0.438365 0)
(-0.110349 0.77586 0)
(-0.0733876 0.954631 0)
(-0.0476925 1.02411 0)
(-0.0184768 1.04908 0)
(0.0125171 1.04188 0)
(0.0341001 1.00643 0)
(0.0364853 0.94598 0)
(0.014837 0.865812 0)
(0.00331442 0.732595 0)
(0.0276647 0.473317 0)
(0.0359516 0.213108 0)
(0.0291249 -0.132332 0)
(-0.00750482 -0.283049 0)
(-0.0381359 -0.114552 0)
(-0.0461502 0.134805 0)
(-0.0130162 0.30065 0)
(-0.00807706 0.361453 0)
(0.00235902 0.40287 0)
(0.0387473 0.525415 0)
(0.123063 0.756438 0)
(0.176074 0.98271 0)
(0.155036 1.13471 0)
(0.0974765 1.195 0)
(0.0325502 1.19269 0)
(-0.0258521 1.10149 0)
(-0.0685227 0.808388 0)
(-0.080717 0.325663 0)
(-0.0865025 0.0519916 0)
(-0.111138 0.128699 0)
(-0.130444 0.439083 0)
(-0.115034 0.738805 0)
(-0.0709213 0.919197 0)
(-0.0392498 0.996408 0)
(-0.020439 1.02185 0)
(-0.00768788 1.0206 0)
(-0.00396228 0.997531 0)
(-0.00961849 0.950974 0)
(-0.0153979 0.875057 0)
(0.00815038 0.707786 0)
(0.0448221 0.444139 0)
(0.0587164 0.196246 0)
(0.0616022 -0.13219 0)
(0.0179515 -0.234301 0)
(-0.0366922 -0.072974 0)
(-0.0597156 0.120415 0)
(-0.0338244 0.330378 0)
(-0.0331068 0.354331 0)
(-0.0469919 0.392769 0)
(-0.0381705 0.478568 0)
(0.0297146 0.677181 0)
(0.117035 0.951216 0)
(0.148057 1.17047 0)
(0.112392 1.25913 0)
(0.0488816 1.25772 0)
(0.00274525 1.14891 0)
(-0.00383558 0.829085 0)
(-0.0126609 0.348616 0)
(-0.0365847 0.0723204 0)
(-0.0831158 0.161403 0)
(-0.125697 0.456009 0)
(-0.130626 0.715878 0)
(-0.0951701 0.885027 0)
(-0.0583974 0.97307 0)
(-0.0371454 1.00818 0)
(-0.0288413 1.0144 0)
(-0.02943 0.995859 0)
(-0.0286283 0.949815 0)
(-0.00560874 0.853073 0)
(0.0506143 0.664781 0)
(0.0798478 0.425396 0)
(0.0856253 0.186871 0)
(0.0774394 -0.0954104 0)
(0.0200648 -0.193125 0)
(-0.042216 -0.000249976 0)
(-0.0884726 0.126038 0)
(-0.0723237 0.302419 0)
(-0.0529044 0.391804 0)
(-0.0634216 0.439143 0)
(-0.0760481 0.458083 0)
(-0.052108 0.620142 0)
(0.0284419 0.888539 0)
(0.106009 1.15782 0)
(0.107181 1.30193 0)
(0.0579301 1.31109 0)
(0.0308023 1.16792 0)
(0.0521551 0.824126 0)
(0.0448762 0.380584 0)
(-0.0091844 0.110181 0)
(-0.0725433 0.221337 0)
(-0.129072 0.491528 0)
(-0.1511 0.709506 0)
(-0.128916 0.856127 0)
(-0.0929874 0.946494 0)
(-0.0640594 0.993922 0)
(-0.0472885 1.01153 0)
(-0.0361484 0.996098 0)
(-0.0161933 0.935705 0)
(0.0310863 0.809531 0)
(0.0889123 0.625328 0)
(0.114187 0.457009 0)
(0.119094 0.17723 0)
(0.0981258 -0.0525443 0)
(0.0278 -0.126903 0)
(-0.0432614 0.0740126 0)
(-0.101993 0.151152 0)
(-0.109493 0.289424 0)
(-0.0939206 0.379225 0)
(-0.0805656 0.435563 0)
(-0.0823927 0.504736 0)
(-0.0859552 0.592662 0)
(-0.0432902 0.826195 0)
(0.0421249 1.11691 0)
(0.080315 1.32484 0)
(0.0606191 1.35141 0)
(0.0560935 1.17648 0)
(0.0831 0.825902 0)
(0.0785917 0.455094 0)
(0.013586 0.177958 0)
(-0.0579883 0.287938 0)
(-0.128012 0.534766 0)
(-0.16824 0.719457 0)
(-0.157485 0.840611 0)
(-0.126872 0.923498 0)
(-0.0930453 0.975448 0)
(-0.0629612 0.998107 0)
(-0.0292883 0.979624 0)
(0.0143144 0.905024 0)
(0.0719509 0.765955 0)
(0.113412 0.592178 0)
(0.145348 0.431282 0)
(0.156636 0.18517 0)
(0.117727 0.00845369 0)
(0.0355558 -0.0496449 0)
(-0.0401196 0.151624 0)
(-0.103927 0.192272 0)
(-0.126255 0.295573 0)
(-0.12134 0.374665 0)
(-0.106143 0.427498 0)
(-0.0882465 0.499099 0)
(-0.0801099 0.630784 0)
(-0.0676949 0.785417 0)
(-0.0164505 1.06625 0)
(0.0400417 1.32131 0)
(0.0519435 1.36983 0)
(0.0655935 1.18133 0)
(0.082607 0.836528 0)
(0.0796898 0.493954 0)
(0.0197607 0.249399 0)
(-0.0551849 0.356654 0)
(-0.117153 0.619344 0)
(-0.162613 0.734878 0)
(-0.166547 0.833194 0)
(-0.140819 0.906295 0)
(-0.106646 0.955735 0)
(-0.066951 0.97514 0)
(-0.0118117 0.941563 0)
(0.0441492 0.85923 0)
(0.0921489 0.718849 0)
(0.140826 0.607258 0)
(0.18157 0.409053 0)
(0.183781 0.211933 0)
(0.13226 0.0824065 0)
(0.0424118 0.0410917 0)
(-0.0347449 0.22147 0)
(-0.0998299 0.239668 0)
(-0.134283 0.315542 0)
(-0.141813 0.378676 0)
(-0.131433 0.421613 0)
(-0.110477 0.488052 0)
(-0.0855519 0.624443 0)
(-0.0771659 0.834902 0)
(-0.0614574 1.04595 0)
(-0.014777 1.31057 0)
(0.025495 1.37187 0)
(0.0603573 1.18271 0)
(0.06718 0.850119 0)
(0.0578159 0.525604 0)
(0.0048783 0.322062 0)
(-0.0717586 0.421288 0)
(-0.117113 0.649878 0)
(-0.137973 0.793892 0)
(-0.14332 0.822676 0)
(-0.130441 0.879135 0)
(-0.102468 0.919928 0)
(-0.0636066 0.931617 0)
(-0.0110203 0.889107 0)
(0.056614 0.865394 0)
(0.120397 0.719859 0)
(0.180302 0.562651 0)
(0.216587 0.401104 0)
(0.198714 0.259809 0)
(0.133757 0.166705 0)
(0.0435536 0.136429 0)
(-0.0306891 0.28161 0)
(-0.0944464 0.288514 0)
(-0.134449 0.341632 0)
(-0.14652 0.386294 0)
(-0.139866 0.416854 0)
(-0.122058 0.478084 0)
(-0.104473 0.621222 0)
(-0.089283 0.838446 0)
(-0.0977308 1.04398 0)
(-0.0808558 1.28997 0)
(-0.0196146 1.35032 0)
(0.0314693 1.17474 0)
(0.0524003 0.916188 0)
(0.0417361 0.555847 0)
(-0.0133385 0.395598 0)
(-0.0914185 0.486393 0)
(-0.134615 0.671655 0)
(-0.136238 0.795236 0)
(-0.127427 0.864942 0)
(-0.116475 0.913643 0)
(-0.0873592 0.947192 0)
(-0.0438684 0.949421 0)
(0.0100841 0.891078 0)
(0.087097 0.796273 0)
(0.16864 0.664773 0)
(0.220497 0.539038 0)
(0.233338 0.423513 0)
(0.198023 0.325814 0)
(0.124867 0.255161 0)
(0.0387631 0.224536 0)
(-0.0272534 0.332668 0)
(-0.0841019 0.329583 0)
(-0.117326 0.36146 0)
(-0.131184 0.393532 0)
(-0.131377 0.421243 0)
(-0.134022 0.484216 0)
(-0.135033 0.631958 0)
(-0.133755 0.857769 0)
(-0.14942 1.11887 0)
(-0.141196 1.26472 0)
(-0.0735434 1.3066 0)
(-0.0133713 1.14487 0)
(0.0288649 0.901667 0)
(0.0360699 0.585559 0)
(-0.0256726 0.472549 0)
(-0.103727 0.551835 0)
(-0.146416 0.696209 0)
(-0.148094 0.79694 0)
(-0.129104 0.852748 0)
(-0.101741 0.886689 0)
(-0.0608748 0.908666 0)
(-0.00362903 0.898469 0)
(0.0657796 0.835483 0)
(0.140232 0.742713 0)
(0.202384 0.638221 0)
(0.234307 0.546291 0)
(0.229477 0.465671 0)
(0.184536 0.397374 0)
(0.11319 0.340832 0)
(0.0332928 0.301584 0)
(-0.0205817 0.372092 0)
(-0.0613833 0.356779 0)
(-0.088442 0.377917 0)
(-0.108072 0.408826 0)
(-0.129998 0.44344 0)
(-0.158787 0.513672 0)
(-0.203002 0.670067 0)
(-0.251344 0.896402 0)
(-0.261881 1.13078 0)
(-0.213532 1.28864 0)
(-0.123504 1.24118 0)
(-0.0354833 1.16001 0)
(0.0298774 0.874313 0)
(0.0369207 0.623915 0)
(-0.0284857 0.552508 0)
(-0.102658 0.616132 0)
(-0.141717 0.722857 0)
(-0.141216 0.800004 0)
(-0.117283 0.845344 0)
(-0.0809018 0.871393 0)
(-0.0314368 0.88274 0)
(0.0331524 0.862293 0)
(0.104364 0.800792 0)
(0.166993 0.718856 0)
(0.209313 0.638577 0)
(0.22229 0.569665 0)
(0.204847 0.510743 0)
(0.160635 0.461103 0)
(0.0996171 0.415589 0)
(0.0305021 0.370676 0)
(-0.0102616 0.398859 0)
(-0.0365719 0.380124 0)
(-0.0683273 0.401919 0)
(-0.105468 0.439547 0)
(-0.15798 0.489144 0)
(-0.242962 0.584665 0)
(-0.365556 0.770691 0)
(-0.444188 0.964022 0)
(-0.432764 1.11505 0)
(-0.317548 1.20264 0)
(-0.162903 1.20159 0)
(-0.0290472 1.08118 0)
(0.0502432 0.848103 0)
(0.042352 0.673291 0)
(-0.0229873 0.631905 0)
(-0.0896446 0.677292 0)
(-0.12355 0.749888 0)
(-0.12108 0.805071 0)
(-0.096763 0.839178 0)
(-0.0582616 0.85799 0)
(-0.00658106 0.8607 0)
(0.0567145 0.83564 0)
(0.120294 0.781527 0)
(0.167838 0.71512 0)
(0.191115 0.65081 0)
(0.18917 0.595308 0)
(0.167388 0.548709 0)
(0.13101 0.510231 0)
(0.0844001 0.474345 0)
(0.0283227 0.431947 0)
(0.000644078 0.413834 0)
(-0.0208106 0.405671 0)
(-0.0623126 0.44363 0)
(-0.128045 0.500521 0)
(-0.234409 0.585643 0)
(-0.414612 0.738531 0)
(-0.562785 0.912458 0)
(-0.623174 1.02843 0)
(-0.567805 1.08244 0)
(-0.393768 1.07432 0)
(-0.173879 1.06215 0)
(-0.00964345 0.990085 0)
(0.0609398 0.843851 0)
(0.0439159 0.73178 0)
(-0.0147259 0.706488 0)
(-0.0703225 0.733937 0)
(-0.0976933 0.778138 0)
(-0.0952917 0.815052 0)
(-0.0730804 0.838341 0)
(-0.0369037 0.849521 0)
(0.0111017 0.844967 0)
(0.0663491 0.817705 0)
(0.115173 0.771109 0)
(0.145525 0.716513 0)
(0.154223 0.66286 0)
(0.146746 0.615782 0)
(0.128354 0.576125 0)
(0.102011 0.545282 0)
(0.0687663 0.517996 0)
(0.0251651 0.484488 0)
(0.0039866 0.416811 0)
(-0.0179187 0.43841 0)
(-0.0673332 0.502744 0)
(-0.167519 0.60947 0)
(-0.354467 0.766636 0)
(-0.54635 0.926897 0)
(-0.656986 1.03613 0)
(-0.65204 1.08436 0)
(-0.527576 1.02862 0)
(-0.345569 0.953543 0)
(-0.17397 0.965035 0)
(-0.0217527 0.945274 0)
(0.0459449 0.864145 0)
(0.0362026 0.79413 0)
(-0.00747419 0.773056 0)
(-0.0483395 0.783655 0)
(-0.0689689 0.805296 0)
(-0.0676468 0.825695 0)
(-0.0496939 0.83804 0)
(-0.0194176 0.840667 0)
(0.0201011 0.829435 0)
(0.0607227 0.801238 0)
(0.0920163 0.761233 0)
(0.109214 0.715219 0)
(0.113077 0.669486 0)
(0.107369 0.628429 0)
(0.094849 0.59472 0)
(0.0768052 0.56952 0)
(0.0537788 0.549353 0)
(0.0210051 0.527806 0)
(-0.000325302 0.42119 0)
(-0.0320266 0.478947 0)
(-0.0948425 0.575262 0)
(-0.237933 0.780886 0)
(-0.444042 0.951592 0)
(-0.554005 1.06047 0)
(-0.581939 1.07717 0)
(-0.446946 0.993844 0)
(-0.300502 0.938176 0)
(-0.19634 0.915821 0)
(-0.106606 0.929598 0)
(-0.0270753 0.937232 0)
(0.016711 0.899479 0)
(0.0173892 0.854584 0)
(-0.00679512 0.830418 0)
(-0.0310089 0.824719 0)
(-0.0443477 0.828059 0)
(-0.0440815 0.83314 0)
(-0.0316949 0.834493 0)
(-0.00986839 0.828368 0)
(0.0170154 0.811628 0)
(0.0429122 0.784268 0)
(0.0627238 0.748998 0)
(0.0745226 0.709869 0)
(0.0784683 0.670994 0)
(0.075791 0.635918 0)
(0.067935 0.607008 0)
(0.0559074 0.585908 0)
(0.04024 0.571356 0)
(0.0163755 0.561882 0)
(-0.00603755 0.432234 0)
(-0.0549793 0.553997 0)
(-0.200772 0.695307 0)
(-0.337719 0.961783 0)
(-0.447984 1.0603 0)
(-0.462111 1.10026 0)
(-0.316225 0.956373 0)
(-0.216521 0.930099 0)
(-0.157501 0.945887 0)
(-0.131716 0.966534 0)
(-0.108125 0.989783 0)
(-0.0689974 0.983284 0)
(-0.033174 0.944725 0)
(-0.0197445 0.904653 0)
(-0.0230857 0.876268 0)
(-0.0302975 0.857886 0)
(-0.0343873 0.846364 0)
(-0.0324869 0.838404 0)
(-0.0238746 0.82911 0)
(-0.00972353 0.815203 0)
(0.00743123 0.794977 0)
(0.0242255 0.768254 0)
(0.038064 0.737018 0)
(0.0473863 0.703608 0)
(0.0516174 0.670413 0)
(0.0510794 0.639973 0)
(0.0465918 0.614691 0)
(0.0389285 0.596599 0)
(0.0285916 0.586378 0)
(0.011915 0.587356 0)
(-0.0230379 0.459049 0)
(-0.07117 0.703001 0)
(-0.30276 0.854225 0)
(-0.358283 1.03826 0)
(-0.380612 1.06573 0)
(-0.193204 0.956974 0)
(-0.11644 0.892042 0)
(-0.0852284 0.918581 0)
(-0.086734 0.948925 0)
(-0.0974889 0.97406 0)
(-0.100085 0.992476 0)
(-0.0886166 0.990769 0)
(-0.07233 0.96987 0)
(-0.0597212 0.939805 0)
(-0.051195 0.909681 0)
(-0.0454359 0.882982 0)
(-0.0407722 0.860878 0)
(-0.0348709 0.842623 0)
(-0.0266873 0.824895 0)
(-0.0161808 0.80514 0)
(-0.00407923 0.782304 0)
(0.00798631 0.756148 0)
(0.018489 0.7276 0)
(0.026255 0.697915 0)
(0.03064 0.668582 0)
(0.0316155 0.641525 0)
(0.0296279 0.618959 0)
(0.0252159 0.603108 0)
(0.0188291 0.59616 0)
(0.00791533 0.605269 0)
(-0.0615066 0.535711 0)
(-0.164879 0.84126 0)
(-0.258348 0.988379 0)
(-0.280351 1.03628 0)
(-0.0899509 0.916431 0)
(-0.0173423 0.904524 0)
(0.00988516 0.911828 0)
(-0.0193407 0.943266 0)
(-0.0553508 0.972365 0)
(-0.0840883 0.992735 0)
(-0.098872 0.99942 0)
(-0.100673 0.991918 0)
(-0.0960944 0.974595 0)
(-0.0885127 0.950792 0)
(-0.0790506 0.924523 0)
(-0.0686068 0.897523 0)
(-0.0581116 0.8711 0)
(-0.0477951 0.846041 0)
(-0.0375234 0.822203 0)
(-0.0271068 0.798405 0)
(-0.0166423 0.773398 0)
(-0.00663299 0.747109 0)
(0.0022271 0.719897 0)
(0.009249 0.692472 0)
(0.0139311 0.665754 0)
(0.0161305 0.641166 0)
(0.0160819 0.620654 0)
(0.0141438 0.606518 0)
(0.0107388 0.601976 0)
(0.00442356 0.616622 0)
(-0.116111 0.742763 0)
(-0.151638 0.961274 0)
(-0.158172 1.00268 0)
(0.032248 0.908108 0)
(0.0783461 0.908689 0)
(0.0975127 0.943512 0)
(0.0608883 0.96535 0)
(0.00340683 0.992655 0)
(-0.0482295 1.01357 0)
(-0.0849042 1.02233 0)
(-0.105879 1.01647 0)
(-0.115279 1.00212 0)
(-0.117229 0.981808 0)
(-0.113337 0.95709 0)
(-0.104886 0.930381 0)
(-0.0931069 0.902732 0)
(-0.0795654 0.874788 0)
(-0.0658048 0.847024 0)
(-0.0528029 0.819879 0)
(-0.0408843 0.793055 0)
(-0.0300533 0.76622 0)
(-0.0203177 0.739449 0)
(-0.0118222 0.712872 0)
(-0.00481699 0.686872 0)
(0.000412125 0.661991 0)
(0.00372279 0.63926 0)
(0.00524717 0.620356 0)
(0.00523072 0.607599 0)
(0.00412479 0.604807 0)
(0.00151769 0.622327 0)
(-0.0283064 0.913765 0)
(0.00125056 0.954473 0)
(0.112838 0.944202 0)
(0.179257 0.944326 0)
(0.18306 0.971164 0)
(0.135822 1.00505 0)
(0.0694739 1.03487 0)
(-0.0010222 1.05522 0)
(-0.0591068 1.06276 0)
(-0.0989705 1.05644 0)
(-0.12354 1.0383 0)
(-0.136833 1.01582 0)
(-0.141079 0.989758 0)
(-0.138155 0.961381 0)
(-0.129781 0.932201 0)
(-0.117213 0.902806 0)
(-0.101904 0.873475 0)
(-0.0856152 0.844428 0)
(-0.069978 0.815714 0)
(-0.055952 0.787261 0)
(-0.0437352 0.759234 0)
(-0.0331755 0.732033 0)
(-0.0241486 0.705816 0)
(-0.016608 0.680787 0)
(-0.0106075 0.65728 0)
(-0.00622736 0.636027 0)
(-0.00337549 0.618463 0)
(-0.00186057 0.606892 0)
(-0.00115673 0.605326 0)
(-0.000765546 0.623947 0)
(0.0233858 0.91345 0)
(0.0828152 0.965334 0)
(0.180322 1.00053 0)
(0.225877 1.00962 0)
(0.201522 1.04219 0)
(0.137755 1.08189 0)
(0.0545381 1.11379 0)
(-0.0247067 1.12456 0)
(-0.0867958 1.11498 0)
(-0.128594 1.09102 0)
(-0.153797 1.06012 0)
(-0.16645 1.02783 0)
(-0.16912 0.994912 0)
(-0.164354 0.962177 0)
(-0.154319 0.930065 0)
(-0.140276 0.89867 0)
(-0.12341 0.868 0)
(-0.10515 0.838105 0)
(-0.0871913 0.808858 0)
(-0.0709253 0.779953 0)