/*--------------------------------*- C++ -*----------------------------------*\
| =========                 |                                                 |
| \\      /  F ield         | OpenFOAM: The Open Source CFD Toolbox           |
|  \\    /   O peration     | Version:  v1606+                                |
|   \\  /    A nd           | Web:      www.OpenFOAM.com                      |
|    \\/     M anipulation  |                                                 |
\*---------------------------------------------------------------------------*/
FoamFile
{
    version     2.0;
    format      ascii;
    class       surfaceScalarField;
    location    "0.23";
    object      phi.particles;
}
// * * * * * * * * * * * * * * * * * * * * * * * * * * * * * * * * * * * * * //

dimensions      [0 3 -1 0 0 0 0];

internalField   nonuniform List<scalar> 
11770
(
-1.7727e-06
-1.00517e-05
-2.36582e-06
-9.80441e-06
-2.95958e-06
-1.03738e-05
-3.32083e-06
-1.05103e-05
-3.36447e-06
-1.12387e-05
-3.28757e-06
-1.21883e-05
-3.14796e-06
-1.32548e-05
-3.01829e-06
-1.42702e-05
-2.88567e-06
-1.50658e-05
-2.66534e-06
-1.56837e-05
-2.22223e-06
-1.63847e-05
-1.65077e-06
-1.69177e-05
-1.06667e-06
-1.71469e-05
-5.01812e-07
-1.7359e-05
5.80118e-09
-1.72118e-05
5.35238e-07
-1.74441e-05
1.12912e-06
-1.73393e-05
1.76122e-06
-1.72558e-05
2.30446e-06
-1.68201e-05
2.64569e-06
-1.61422e-05
2.86248e-06
-1.5687e-05
3.04128e-06
-1.50874e-05
3.207e-06
-1.42401e-05
3.36504e-06
-1.31711e-05
3.42833e-06
-1.19737e-05
3.38859e-06
-1.09484e-05
3.07229e-06
-1.03522e-05
2.47477e-06
-1.02139e-05
1.80536e-06
-9.75289e-06
-9.89633e-06
-1.85937e-06
1.17188e-05
-3.0781e-06
1.18385e-05
-3.57893e-06
1.15874e-05
-4.14059e-06
1.13156e-05
-4.22422e-06
1.02556e-05
-4.23905e-06
9.41586e-06
-4.18954e-06
8.8058e-06
-4.0047e-06
8.13885e-06
-3.65101e-06
7.5248e-06
-3.18277e-06
7.00577e-06
-2.64666e-06
6.19533e-06
-2.05272e-06
5.65271e-06
-1.40754e-06
5.63619e-06
-7.14844e-07
5.48198e-06
3.26978e-08
5.53266e-06
7.74003e-07
5.35995e-06
1.46662e-06
5.47471e-06
2.11026e-06
5.3996e-06
2.72311e-06
5.77742e-06
3.29359e-06
6.50925e-06
3.75194e-06
6.97908e-06
4.05139e-06
7.49498e-06
4.2059e-06
8.14266e-06
4.26989e-06
8.78234e-06
4.27625e-06
9.64676e-06
4.23942e-06
1.03987e-05
3.76472e-06
1.12921e-05
3.29803e-06
1.16041e-05
2.01371e-06
1.1972e-05
1.19033e-05
-2.73356e-06
1.3404e-05
-3.31773e-06
8.01516e-06
-3.77511e-06
8.36469e-06
-4.21834e-06
7.55054e-06
-4.17632e-06
6.66423e-06
-4.18127e-06
6.74994e-06
-4.12214e-06
7.00988e-06
-3.96004e-06
6.98741e-06
-3.67352e-06
6.79293e-06
-3.26267e-06
6.47674e-06
-2.76348e-06
5.98423e-06
-2.19556e-06
5.64107e-06
-1.52847e-06
5.44305e-06
-7.7266e-07
5.2556e-06
3.43945e-08
5.19777e-06
8.32963e-07
5.14959e-06
1.58104e-06
5.24867e-06
2.23008e-06
5.38654e-06
2.8102e-06
5.65476e-06
3.35392e-06
6.06071e-06
3.76998e-06
6.48528e-06
4.02774e-06
6.81392e-06
4.1647e-06
6.99376e-06
4.23458e-06
6.91449e-06
4.26249e-06
6.70542e-06
4.34667e-06
6.49811e-06
3.96172e-06
7.29253e-06
3.51716e-06
8.22878e-06
2.85941e-06
8.28781e-06
1.3689e-05
-1.15547e-06
9.40265e-06
-2.21235e-06
9.92899e-07
-3.27861e-06
6.02335e-07
-3.64437e-06
-8.75451e-07
-3.71502e-06
-1.44217e-06
-3.80814e-06
-2.48384e-07
-3.77456e-06
1.25578e-06
-3.6711e-06
2.50294e-06
-3.50141e-06
3.37864e-06
-3.23991e-06
3.92991e-06
-2.83992e-06
4.06218e-06
-2.29978e-06
4.13212e-06
-1.62415e-06
4.14246e-06
-8.32295e-07
4.03084e-06
3.11163e-08
3.94965e-06
8.94227e-07
3.92387e-06
1.68329e-06
4.00894e-06
2.34578e-06
4.09807e-06
2.87703e-06
4.1179e-06
3.27769e-06
4.07267e-06
3.54615e-06
3.88716e-06
3.73279e-06
3.32749e-06
3.8367e-06
2.4201e-06
3.8763e-06
1.0473e-06
3.82207e-06
-4.85332e-07
3.77533e-06
-1.82467e-06
3.41403e-06
-1.33778e-06
2.32955e-06
2.8318e-07
1.23093e-06
1.17284e-06
9.75701e-06
-6.02068e-07
-7.84297e-06
-2.15212e-06
-1.61835e-05
-2.76201e-06
-1.82279e-05
-2.48051e-06
-2.02804e-05
-2.17076e-06
-2.04696e-05
-2.10434e-06
-1.8624e-05
-2.12906e-06
-1.61788e-05
-2.19213e-06
-1.37645e-05
-2.17293e-06
-1.16722e-05
-2.04575e-06
-9.92217e-06
-1.8473e-06
-8.7159e-06
-1.55674e-06
-7.81479e-06
-1.13186e-06
-7.15008e-06
-5.86401e-07
-6.86439e-06
3.01912e-08
-6.76731e-06
6.38136e-07
-6.79555e-06
1.16573e-06
-6.89963e-06
1.57104e-06
-7.21511e-06
1.85967e-06
-7.86436e-06
2.06272e-06
-8.74774e-06
2.1833e-06
-1.00207e-05
2.21795e-06
-1.18068e-05
2.16059e-06
-1.39265e-05
2.13235e-06
-1.6461e-05
2.23583e-06
-1.89732e-05
2.57915e-06
-2.09482e-05
2.85164e-06
-2.08155e-05
2.22478e-06
-1.86291e-05
6.56397e-07
-1.61212e-05
-7.53028e-06
-1.31871e-06
-2.64171e-05
-2.65379e-06
-3.18545e-05
-1.96604e-06
-3.51625e-05
-7.49495e-07
-3.71962e-05
5.15778e-07
-3.73231e-05
1.48422e-06
-3.60755e-05
1.94907e-06
-3.4181e-05
1.90921e-06
-3.2128e-05
1.64207e-06
-3.0137e-05
1.30734e-06
-2.83844e-05
9.1996e-07
-2.69425e-05
5.76398e-07
-2.57768e-05
3.30232e-07
-2.48829e-05
1.55229e-07
-2.4358e-05
1.70132e-08
-2.41095e-05
-1.39483e-07
-2.41241e-05
-3.41789e-07
-2.43892e-05
-6.09001e-07
-2.49355e-05
-9.51182e-07
-2.58333e-05
-1.32546e-06
-2.69925e-05
-1.66996e-06
-2.84753e-05
-1.93844e-06
-3.02601e-05
-1.96649e-06
-3.22635e-05
-1.48819e-06
-3.43859e-05
-4.91969e-07
-3.63372e-05
7.97545e-07
-3.7649e-05
2.01017e-06
-3.75294e-05
2.70031e-06
-3.5411e-05
1.36838e-06
-3.18306e-05
-2.61687e-05
-1.61869e-06
-3.14949e-05
-2.60014e-06
-3.54503e-05
-1.44685e-06
-3.96237e-05
-4.18929e-08
-4.18338e-05
1.54251e-06
-4.23421e-05
2.99232e-06
-4.19207e-05
4.05713e-06
-4.10331e-05
4.58011e-06
-4.00187e-05
4.59995e-06
-3.91045e-05
4.27726e-06
-3.84855e-05
3.69029e-06
-3.79711e-05
2.90893e-06
-3.75772e-05
2.0163e-06
-3.7258e-05
1.03604e-06
-3.70426e-05
-1.54229e-08
-3.69495e-05
-1.07074e-06
-3.69508e-05
-2.05653e-06
-3.70538e-05
-2.95387e-06
-3.72764e-05
-3.73632e-06
-3.75968e-05
-4.32109e-06
-3.7986e-05
-4.64137e-06
-3.85146e-05
-4.61575e-06
-3.91495e-05
-4.08012e-06
-4.00815e-05
-2.9949e-06
-4.1135e-05
-1.52777e-06
-4.20664e-05
6.21543e-08
-4.25207e-05
1.46264e-06
-4.19931e-05
2.60893e-06
-3.97098e-05
1.61613e-06
-3.53414e-05
-3.12529e-05
-1.06513e-06
-2.81727e-05
-1.41143e-06
-3.27254e-05
-2.87156e-07
-3.77498e-05
6.82238e-07
-4.0324e-05
1.80679e-06
-4.10374e-05
2.9574e-06
-4.08338e-05
4.04693e-06
-4.00593e-05
4.84405e-06
-3.92811e-05
5.14811e-06
-3.86975e-05
5.0349e-06
-3.85691e-05
4.54384e-06
-3.85691e-05
3.6831e-06
-3.86814e-05
2.58373e-06
-3.88556e-05
1.32283e-06
-3.89942e-05
-2.88202e-08
-3.90912e-05
-1.37771e-06
-3.90842e-05
-2.63529e-06
-3.89884e-05
-3.73347e-06
-3.8847e-05
-4.59454e-06
-3.86693e-05
-5.08482e-06
-3.85598e-05
-5.19301e-06
-3.85651e-05
-4.88066e-06
-3.87163e-05
-4.07704e-06
-3.93314e-05
-2.97988e-06
-4.01437e-05
-1.82813e-06
-4.09445e-05
-7.20076e-07
-4.11815e-05
2.19676e-07
-4.04563e-05
1.32884e-06
-3.78026e-05
1.00527e-06
-3.25825e-05
-2.7919e-05
-1.46901e-07
-2.3739e-05
-3.21387e-07
-2.92414e-05
5.35952e-07
-3.47706e-05
1.14277e-06
-3.76153e-05
1.85401e-06
-3.85135e-05
2.61693e-06
-3.84094e-05
3.43283e-06
-3.73574e-05
4.14182e-06
-3.64679e-05
4.52942e-06
-3.58539e-05
4.53574e-06
-3.56367e-05
4.18249e-06
-3.56581e-05
3.48429e-06
-3.58395e-05
2.49838e-06
-3.61386e-05
1.29202e-06
-3.63874e-05
-2.8212e-08
-3.65261e-05
-1.34715e-06
-3.65203e-05
-2.55005e-06
-3.63766e-05
-3.53155e-06
-3.61196e-05
-4.22967e-06
-3.58175e-05
-4.58546e-06
-3.5644e-05
-4.57834e-06
-3.56344e-05
-4.18943e-06
-3.58764e-05
-3.47902e-06
-3.65222e-05
-2.65716e-06
-3.74428e-05
-1.89793e-06
-3.85023e-05
-1.20867e-06
-3.86312e-05
-6.41569e-07
-3.77547e-05
1.91671e-07
-3.48179e-05
4.46934e-08
-2.91071e-05
-2.34759e-05
5.79991e-07
-1.95841e-05
7.02041e-07
-2.54519e-05
1.4973e-06
-3.13329e-05
1.81439e-06
-3.43733e-05
2.31078e-06
-3.52264e-05
2.83745e-06
-3.51134e-05
3.30424e-06
-3.44875e-05
3.75032e-06
-3.349e-05
4.09793e-06
-3.29192e-05
4.1697e-06
-3.26482e-05
3.88566e-06
-3.25882e-05
3.23426e-06
-3.2723e-05
2.29173e-06
-3.29829e-05
1.17663e-06
-3.32166e-05
-2.61772e-08
-3.33631e-05
-1.22874e-06
-3.3359e-05
-2.34373e-06
-3.3207e-05
-3.28813e-06
-3.2964e-05
-3.94253e-06
-3.2707e-05
-4.22772e-06
-3.25789e-05
-4.15637e-06
-3.26573e-05
-3.81344e-06
-3.29529e-05
-3.36952e-06
-3.35453e-05
-2.90407e-06
-3.45634e-05
-2.39753e-06
-3.5229e-05
-1.94634e-06
-3.53559e-05
-1.6747e-06
-3.45001e-05
-8.70275e-07
-3.13615e-05
-6.99188e-07
-2.53082e-05
-1.93441e-05
1.34887e-06
-1.56814e-05
1.82165e-06
-2.19039e-05
2.64613e-06
-2.78815e-05
2.69183e-06
-3.08845e-05
2.8152e-06
-3.15246e-05
3.08462e-06
-3.12635e-05
3.32517e-06
-3.08788e-05
3.44937e-06
-3.02938e-05
3.58838e-06
-2.96159e-05
3.64251e-06
-2.93786e-05
3.45173e-06
-2.92778e-05
2.94726e-06
-2.92836e-05
2.13448e-06
-2.94581e-05
1.10683e-06
-2.96797e-05
-2.76904e-08
-2.98358e-05
-1.16221e-06
-2.98328e-05
-2.1899e-06
-2.96732e-05
-3.00377e-06
-2.94474e-05
-3.51043e-06
-2.92805e-05
-3.70218e-06
-2.92831e-05
-3.64803e-06
-2.94049e-05
-3.51129e-06
-2.96698e-05
-3.39269e-06
-3.0389e-05
-3.16412e-06
-3.09778e-05
-2.93887e-06
-3.1411e-05
-2.87639e-06
-3.16902e-05
-2.86829e-06
-3.10144e-05
-2.01619e-06
-2.79138e-05
-1.48037e-06
-2.17906e-05
-1.5475e-05
2.06083e-06
-1.204e-05
3.03851e-06
-1.84263e-05
4.20256e-06
-2.42847e-05
4.15944e-06
-2.71969e-05
3.88889e-06
-2.78477e-05
3.63549e-06
-2.74988e-05
3.56937e-06
-2.67862e-05
3.53437e-06
-2.649e-05
3.44027e-06
-2.60153e-05
3.33925e-06
-2.5792e-05
3.13614e-06
-2.57262e-05
2.69661e-06
-2.56927e-05
1.97318e-06
-2.57584e-05
1.02556e-06
-2.5917e-05
-3.0212e-08
-2.60574e-05
-1.08492e-06
-2.60577e-05
-2.02955e-06
-2.59188e-05
-2.74834e-06
-2.5762e-05
-3.18219e-06
-2.57012e-05
-3.37929e-06
-2.57462e-05
-3.47546e-06
-2.58345e-05
-3.56777e-06
-2.60826e-05
-3.61208e-06
-2.65947e-05
-3.71708e-06
-2.69034e-05
-4.03976e-06
-2.7645e-05
-4.38278e-06
-2.80143e-05
-4.45784e-06
-2.73386e-05
-3.23804e-06
-2.43215e-05
-2.18466e-06
-1.8355e-05
-1.18886e-05
2.70033e-06
-8.65925e-06
4.3297e-06
-1.52124e-05
6.11629e-06
-2.07188e-05
6.14534e-06
-2.35843e-05
5.55067e-06
-2.4184e-05
4.73452e-06
-2.37003e-05
4.17407e-06
-2.27961e-05
3.93795e-06
-2.22139e-05
3.70026e-06
-2.2034e-05
3.40775e-06
-2.17809e-05
3.0805e-06
-2.1678e-05
2.6134e-06
-2.15991e-05
1.91605e-06
-2.15646e-05
1.00133e-06
-2.16155e-05
-2.57301e-08
-2.1708e-05
-1.04762e-06
-2.17113e-05
-1.94755e-06
-2.16254e-05
-2.62381e-06
-2.15772e-05
-3.06821e-06
-2.16166e-05
-3.37639e-06
-2.17021e-05
-3.65993e-06
-2.1823e-05
-3.90452e-06
-2.20946e-05
-4.16823e-06
-2.22886e-05
-4.80189e-06
-2.29064e-05
-5.71977e-06
-2.3855e-05
-6.39165e-06
-2.43534e-05
-6.37157e-06
-2.37256e-05
-4.5126e-06
-2.07656e-05
-2.81223e-06
-1.5185e-05
-8.57176e-06
3.33426e-06
-5.55024e-06
5.59566e-06
-1.2084e-05
8.13143e-06
-1.71925e-05
8.44697e-06
-1.99091e-05
7.59165e-06
-2.04266e-05
6.18277e-06
-1.98577e-05
5.01474e-06
-1.85755e-05
4.46592e-06
-1.76538e-05
4.12898e-06
-1.73083e-05
3.73307e-06
-1.71894e-05
3.25573e-06
-1.70809e-05
2.68588e-06
-1.70063e-05
1.95196e-06
-1.69424e-05
1.03185e-06
-1.69241e-05
1.36625e-10
-1.69657e-05
-1.02283e-06
-1.69685e-05
-1.91929e-06
-1.69315e-05
-2.62264e-06
-1.69481e-05
-3.16666e-06
-1.7017e-05
-3.63329e-06
-1.70999e-05
-4.03856e-06
-1.72176e-05
-4.40738e-06
-1.73451e-05
-5.01499e-06
-1.77129e-05
-6.28109e-06
-1.86764e-05
-7.78997e-06
-2.00134e-05
-8.69702e-06
-2.05866e-05
-8.36089e-06
-2.00413e-05
-5.74706e-06
-1.72567e-05
-3.43176e-06
-1.20866e-05
-5.53006e-06
4.02434e-06
-2.64538e-06
6.80797e-06
-8.72359e-06
9.98453e-06
-1.36927e-05
1.05937e-05
-1.59839e-05
9.55289e-06
-1.63594e-05
7.52039e-06
-1.55959e-05
5.52197e-06
-1.3668e-05
4.29266e-06
-1.23113e-05
3.5418e-06
-1.179e-05
2.96154e-06
-1.18941e-05
2.42813e-06
-1.20847e-05
1.92281e-06
-1.22269e-05
1.38561e-06
-1.22665e-05
7.50951e-07
-1.23064e-05
3.44246e-08
-1.2369e-05
-6.79427e-07
-1.23718e-05
-1.3071e-06
-1.23137e-05
-1.83539e-06
-1.22743e-05
-2.33283e-06
-1.22388e-05
-2.86216e-06
-1.21065e-05
-3.452e-06
-1.19177e-05
-4.23898e-06
-1.18138e-05
-5.53751e-06
-1.2346e-05
-7.64344e-06
-1.37428e-05
-9.76095e-06
-1.57304e-05
-1.08233e-05
-1.64944e-05
-1.01765e-05
-1.60972e-05
-6.92835e-06
-1.37621e-05
-4.10343e-06
-8.73067e-06
-2.67473e-06
4.78138e-06
4.23985e-07
7.90897e-06
-5.11033e-06
1.1519e-05
-9.90678e-06
1.23697e-05
-1.1529e-05
1.11564e-05
-1.16643e-05
8.23618e-06
-1.03362e-05
4.96661e-06
-7.75163e-06
2.79339e-06
-6.17134e-06
1.558e-06
-5.69442e-06
8.86398e-07
-5.92447e-06
4.94358e-07
-6.4333e-06
2.70808e-07
-6.88715e-06
1.50579e-07
-7.20447e-06
6.7207e-08
-7.44739e-06
1.12128e-09
-7.57393e-06
-6.09159e-08
-7.57865e-06
-1.32972e-07
-7.4605e-06
-2.36196e-07
-7.22446e-06
-4.36838e-07
-6.91079e-06
-8.05332e-07
-6.46051e-06
-1.46527e-06
-5.95327e-06
-2.71558e-06
-5.72246e-06
-4.94831e-06
-6.19172e-06
-8.32864e-06
-7.78576e-06
-1.13324e-05
-1.0416e-05
-1.25554e-05
-1.17577e-05
-1.1667e-05
-1.16159e-05
-8.00306e-06
-9.96586e-06
-4.85194e-06
-5.12683e-06
3.67534e-07
5.48839e-06
3.90242e-06
8.91408e-06
-1.33888e-06
1.27623e-05
-5.52873e-06
1.34873e-05
-6.37569e-06
1.17205e-05
-6.05233e-06
7.88515e-06
-3.75027e-06
3.93246e-06
-8.82284e-07
1.3584e-06
6.30985e-07
-7.72272e-08
9.56292e-07
-7.60063e-07
6.28701e-07
-9.90676e-07
4.68718e-08
-9.45668e-07
-5.60088e-07
-7.25875e-07
-1.10128e-06
-4.04875e-07
-1.51055e-06
-3.33186e-08
-1.71832e-06
3.42391e-07
-1.72334e-06
6.75724e-07
-1.52516e-06
9.14912e-07
-1.12298e-06
9.85473e-07
-5.87163e-07
7.81806e-07
1.13273e-08
1.29264e-07
5.82872e-07
-1.28214e-06
9.03454e-07
-3.87377e-06
5.94054e-07
-7.90672e-06
-8.88563e-07
-1.18252e-05
-3.74869e-06
-1.36111e-05
-6.08271e-06
-1.28664e-05
-6.42018e-06
-8.97538e-06
-5.57875e-06
-5.52699e-06
-1.38229e-06
3.83335e-06
6.1236e-06
7.76503e-06
9.72007e-06
2.66748e-06
1.34977e-05
-4.49356e-07
1.39403e-05
-4.15265e-07
1.15864e-05
9.55901e-07
7.2319e-06
4.24713e-06
3.09842e-06
6.73464e-06
3.22802e-07
7.79935e-06
-1.18662e-06
7.83749e-06
-1.85389e-06
7.45796e-06
-2.00521e-06
6.89344e-06
-1.79312e-06
6.29162e-06
-1.32979e-06
5.72315e-06
-7.20517e-07
5.27545e-06
-6.07926e-08
5.00992e-06
6.0053e-07
5.00346e-06
1.21605e-06
5.25599e-06
1.69176e-06
5.69272e-06
1.92427e-06
6.2514e-06
1.80241e-06
6.83902e-06
1.16965e-06
7.38142e-06
-3.05829e-07
7.73899e-06
-3.06977e-06
7.69901e-06
-7.22706e-06
6.68718e-06
-1.16312e-05
4.26593e-06
-1.40092e-05
9.96843e-07
-1.35437e-05
-4.12807e-07
-9.75312e-06
-4.78373e-07
-6.15376e-06
2.60769e-06
7.69413e-06
6.96655e-06
1.16205e-05
1.06362e-05
6.86353e-06
1.38903e-05
5.40664e-06
1.36814e-05
6.55185e-06
1.04848e-05
9.54581e-06
5.89794e-06
1.27321e-05
2.12417e-06
1.41805e-05
-3.84666e-07
1.44632e-05
-1.7268e-06
1.41938e-05
-2.30961e-06
1.38545e-05
-2.39285e-06
1.34318e-05
-2.08321e-06
1.29586e-05
-1.51236e-06
1.24824e-05
-8.13794e-07
1.20933e-05
-8.52606e-08
1.18642e-05
6.42247e-07
1.1857e-05
1.34026e-06
1.20703e-05
1.9164e-06
1.24429e-05
2.23947e-06
1.29019e-05
2.17648e-06
1.3354e-05
1.6156e-06
1.37445e-05
3.06406e-07
1.4044e-05
-2.13833e-06
1.42813e-05
-5.86196e-06
1.40219e-05
-1.04527e-05
1.26891e-05
-1.36836e-05
9.61768e-06
-1.39187e-05
6.60234e-06
-1.06732e-05
5.41334e-06
-7.00403e-06
6.80798e-06
1.15403e-05
8.2319e-06
1.43079e-05
1.16851e-05
1.08996e-05
1.38156e-05
1.15157e-05
1.21857e-05
1.44068e-05
8.26097e-06
1.79338e-05
4.22722e-06
1.96939e-05
1.36573e-06
1.9836e-05
-3.57377e-07
1.94085e-05
-1.35984e-06
1.89667e-05
-1.80549e-06
1.8786e-05
-1.8252e-06
1.86708e-05
-1.51572e-06
1.85306e-05
-1.04426e-06
1.83598e-05
-5.48328e-07
1.82076e-05
-8.37765e-08
1.8116e-05
3.75855e-07
1.81104e-05
8.59886e-07
1.81878e-05
1.32097e-06
1.8321e-05
1.63088e-06
1.8467e-05
1.6255e-06
1.85757e-05
1.20024e-06
1.86482e-05
2.12455e-07
1.87691e-05
-1.46343e-06
1.91368e-05
-4.24076e-06
1.95438e-05
-8.25606e-06
1.95287e-05
-1.22122e-05
1.79495e-05
-1.38573e-05
1.44938e-05
-1.17435e-05
1.15699e-05
-8.29315e-06
1.08798e-05
1.42154e-05
8.90993e-06
1.49206e-05
1.1972e-05
1.42574e-05
1.24e-05
1.72207e-05
9.61071e-06
2.11926e-05
5.78988e-06
2.35152e-05
2.90543e-06
2.37792e-05
1.41812e-06
2.28837e-05
6.77333e-07
2.19912e-05
2.35914e-07
2.15343e-05
8.28228e-08
2.16229e-05
1.12358e-07
2.19741e-05
2.02406e-07
2.23482e-05
2.23463e-07
2.26509e-05
1.24951e-07
2.28603e-05
-6.66331e-08
2.29662e-05
-2.66544e-07
2.29624e-05
-3.88066e-07
2.28464e-05
-3.9776e-07
2.26206e-05
-3.35276e-07
2.22934e-05
-3.2182e-07
2.18852e-05
-4.8562e-07
2.14798e-05
-9.25789e-07
2.1303e-05
-1.63452e-06
2.16343e-05
-2.93862e-06
2.24501e-05
-5.60702e-06
2.33872e-05
-9.44521e-06
2.33632e-05
-1.23651e-05
2.12321e-05
-1.20343e-05
1.73394e-05
-8.97799e-06
1.42957e-05
1.4808e-05
8.8118e-06
1.31147e-05
1.12147e-05
1.65666e-05
1.01549e-05
2.13179e-05
7.05598e-06
2.52197e-05
4.1797e-06
2.64875e-05
2.55523e-06
2.55299e-05
2.09934e-06
2.39558e-05
2.15795e-06
2.28142e-05
2.35002e-06
2.25319e-05
2.48098e-06
2.29623e-05
2.41847e-06
2.36914e-05
2.1058e-06
2.44015e-05
1.54857e-06
2.49863e-05
8.00996e-07
2.5399e-05
-5.17139e-08
2.56105e-05
-9.09844e-07
2.56059e-05
-1.67404e-06
2.5384e-05
-2.25946e-06
2.49577e-05
-2.61248e-06
2.4354e-05
-2.72566e-06
2.36178e-05
-2.64884e-06
2.28403e-05
-2.48627e-06
2.23125e-05
-2.39856e-06
2.24361e-05
-2.69873e-06
2.34074e-05
-3.95878e-06
2.49547e-05
-6.71074e-06
2.61523e-05
-1.00138e-05
2.52435e-05
-1.12105e-05
2.1492e-05
-8.85041e-06
1.66712e-05
1.30471e-05
7.74498e-06
1.00775e-05
9.28194e-06
1.73987e-05
8.44466e-06
2.30372e-05
5.30149e-06
2.78141e-05
2.9076e-06
2.79949e-05
2.47456e-06
2.57171e-05
2.83446e-06
2.36859e-05
3.37174e-06
2.27948e-05
3.66872e-06
2.29658e-05
3.57378e-06
2.37673e-05
3.16444e-06
2.47195e-05
2.54471e-06
2.55752e-05
1.77208e-06
2.62638e-05
8.92693e-07
2.67455e-05
-4.1917e-08
2.69915e-05
-9.78389e-07
2.69869e-05
-1.86407e-06
2.67311e-05
-2.64925e-06
2.62377e-05
-3.29062e-06
2.55338e-05
-3.7374e-06
2.46581e-05
-3.89184e-06
2.36728e-05
-3.65902e-06
2.27935e-05
-3.13428e-06
2.24726e-05
-2.67968e-06
2.31497e-05
-2.84176e-06
2.50557e-05
-5.09716e-06
2.74725e-05
-8.38231e-06
2.79582e-05
-9.27029e-06
2.31436e-05
-7.71351e-06
1.75457e-05
1.01277e-05
4.68059e-06
8.00711e-06
5.78782e-06
1.69296e-05
5.52593e-06
2.38685e-05
3.05585e-06
3.06173e-05
1.97257e-06
2.73597e-05
3.03998e-06
2.41219e-05
3.90519e-06
2.26493e-05
4.40498e-06
2.25569e-05
4.40583e-06
2.32935e-05
4.01224e-06
2.44145e-05
3.39682e-06
2.55509e-05
2.6521e-06
2.65409e-05
1.81327e-06
2.73293e-05
9.10556e-07
2.78769e-05
-2.48152e-08
2.81558e-05
-9.61776e-07
2.81522e-05
-1.86939e-06
2.78655e-05
-2.71678e-06
2.73086e-05
-3.47399e-06
2.65082e-05
-4.10848e-06
2.55024e-05
-4.53891e-06
2.43423e-05
-4.59622e-06
2.31679e-05
-4.16019e-06
2.23258e-05
-3.31698e-06
2.22584e-05
-2.249e-06
2.3526e-05
-3.13272e-06
2.66532e-05
-5.46405e-06
3.05683e-05
-5.74177e-06
2.4197e-05
-4.6218e-06
1.71347e-05
8.14046e-06
1.46185e-06
7.63233e-06
1.51791e-06
1.70135e-05
2.58669e-07
2.52609e-05
2.002e-07
2.93901e-05
2.75742e-06
2.38532e-05
4.35876e-06
2.17152e-05
4.97649e-06
2.16772e-05
5.12003e-06
2.24792e-05
4.86056e-06
2.36859e-05
4.31531e-06
2.50554e-05
3.61185e-06
2.63504e-05
2.8026e-06
2.74567e-05
1.91082e-06
2.83282e-05
9.65595e-07
2.89284e-05
-5.83713e-09
2.92328e-05
-9.78676e-07
2.92303e-05
-1.92814e-06
2.89204e-05
-2.82702e-06
2.83134e-05
-3.64593e-06
2.74325e-05
-4.36116e-06
2.63138e-05
-4.92784e-06
2.50012e-05
-5.22582e-06
2.35953e-05
-5.12942e-06
2.23236e-05
-4.57162e-06
2.14423e-05
-3.16428e-06
2.1319e-05
-5.73457e-07
2.31462e-05
-1.3943e-07
2.83183e-05
-1.22298e-06
2.52138e-05
-1.36639e-06
1.73389e-05
7.80919e-06
-8.63635e-07
8.90097e-06
-3.25817e-06
1.97325e-05
-2.17203e-06
2.28265e-05
2.50252e-06
2.24537e-05
4.86451e-06
2.00492e-05
5.41789e-06
2.01818e-05
5.59742e-06
2.12708e-05
5.51243e-06
2.26612e-05
5.12511e-06
2.41951e-05
4.50883e-06
2.57597e-05
3.75016e-06
2.71939e-05
2.89458e-06
2.8403e-05
1.96792e-06
2.93385e-05
9.99472e-07
2.99748e-05
1.21998e-08
3.02951e-05
-9.76256e-07
3.02935e-05
-1.94826e-06
2.99694e-05
-2.88084e-06
2.93281e-05
-3.74442e-06
2.83854e-05
-4.51255e-06
2.7167e-05
-5.1441e-06
2.57186e-05
-5.55793e-06
2.41274e-05
-5.67337e-06
2.25513e-05
-5.50417e-06
2.11233e-05
-5.04951e-06
1.99567e-05
-3.05389e-06
1.95846e-05
1.56324e-06
2.1276e-05
3.13998e-06
2.21667e-05
9.91709e-07
2.00568e-05
9.17565e-06
-2.48786e-06
1.19478e-05
-1.27675e-06
2.01704e-05
2.23048e-06
1.75694e-05
4.86758e-06
1.72502e-05
5.5842e-06
1.81961e-05
5.81327e-06
1.96266e-05
5.8664e-06
2.12822e-05
5.66744e-06
2.3012e-05
5.20888e-06
2.4796e-05
4.54344e-06
2.65248e-05
3.73492e-06
2.80774e-05
2.84041e-06
2.93733e-05
1.91101e-06
3.03614e-05
9.70123e-07
3.10169e-05
2.79985e-08
3.13411e-05
-9.1499e-07
3.13401e-05
-1.8585e-06
3.10135e-05
-2.79228e-06
3.03548e-05
-3.69253e-06
2.93617e-05
-4.51037e-06
2.80573e-05
-5.18839e-06
2.64924e-05
-5.66627e-06
2.47428e-05
-5.88832e-06
2.29261e-05
-5.83967e-06
2.11693e-05
-5.61688e-06
1.94745e-05
-4.98537e-06
1.79548e-05
-2.71662e-06
1.68779e-05
7.45114e-07
1.71158e-05
2.44482e-06
1.99358e-05
1.22634e-05
-1.00705e-06
1.44031e-05
2.4844e-06
1.58874e-05
4.50444e-06
1.47182e-05
5.38524e-06
1.57297e-05
5.70983e-06
1.75316e-05
5.89934e-06
1.94907e-05
5.88265e-06
2.14549e-05
5.61148e-06
2.34434e-05
5.07148e-06
2.54431e-05
4.34988e-06
2.73557e-05
3.50979e-06
2.90451e-05
2.61532e-06
3.0411e-05
1.72591e-06
3.14005e-05
8.70518e-07
3.20263e-05
4.22034e-08
3.23247e-05
-7.86589e-07
3.23237e-05
-1.64365e-06
3.20234e-05
-2.53652e-06
3.13955e-05
-3.43701e-06
3.04029e-05
-4.28533e-06
2.9031e-05
-5.01759e-06
2.73311e-05
-5.57391e-06
2.54009e-05
-5.8642e-06
2.33733e-05
-5.89315e-06
2.13558e-05
-5.70922e-06
1.93651e-05
-5.39878e-06
1.73756e-05
-4.6094e-06
1.55571e-05
-2.75103e-06
1.44606e-05
7.94967e-07
1.53554e-05
1.44979e-05
1.95279e-06
1.34991e-05
3.90667e-06
1.24507e-05
4.92908e-06
1.33161e-05
5.35109e-06
1.50663e-05
5.62397e-06
1.72564e-05
5.76435e-06
1.94846e-05
5.67348e-06
2.16891e-05
5.32003e-06
2.39442e-05
4.70929e-06
2.61921e-05
3.91357e-06
2.82964e-05
3.02326e-06
3.01118e-05
2.14005e-06
3.14872e-05
1.35077e-06
3.23828e-05
6.69603e-07
3.28962e-05
5.50235e-08
3.31236e-05
-5.59598e-07
3.31222e-05
-1.24119e-06
3.2892e-05
-2.03238e-06
3.23769e-05
-2.92049e-06
3.14803e-05
-3.81897e-06
3.01024e-05
-4.62624e-06
2.82787e-05
-5.25312e-06
2.61588e-05
-5.62604e-06
2.38865e-05
-5.73177e-06
2.16031e-05
-5.60182e-06
1.93708e-05
-5.33126e-06
1.71282e-05
-4.90955e-06
1.49421e-05
-3.95193e-06
1.31429e-05
-2.11189e-06
1.21633e-05
1.32674e-05
2.91562e-06
1.07422e-05
4.03366e-06
1.09174e-05
4.72439e-06
1.25052e-05
5.10059e-06
1.46885e-05
5.35316e-06
1.71021e-05
5.42669e-06
1.95199e-05
5.26473e-06
2.19914e-05
4.79847e-06
2.45422e-05
4.05255e-06
2.70793e-05
3.1003e-06
2.94184e-05
2.13488e-06
3.13074e-05
1.30965e-06
3.25476e-05
7.26075e-07
3.31772e-05
3.44099e-07
3.3467e-05
6.67473e-08
3.35721e-05
-2.10188e-07
3.35695e-05
-5.9084e-07
3.34593e-05
-1.17304e-06
3.31663e-05
-1.99926e-06
3.2537e-05
-2.97284e-06
3.13013e-05
-3.9399e-06
2.94104e-05
-4.70442e-06
2.70575e-05
-5.19178e-06
2.44972e-05
-5.37312e-06
2.19181e-05
-5.31221e-06
1.94179e-05
-5.06204e-06
1.69794e-05
-4.68186e-06
1.45761e-05
-4.0156e-06
1.23734e-05
-2.95306e-06
1.07097e-05
1.0368e-05
2.98474e-06
8.01661e-06
3.79857e-06
9.74112e-06
4.34925e-06
1.19483e-05
4.70554e-06
1.44008e-05
4.90894e-06
1.69389e-05
4.94544e-06
1.95951e-05
4.68435e-06
2.23618e-05
4.02401e-06
2.5295e-05
3.01449e-06
2.82547e-05
1.7022e-06
3.08804e-05
6.77314e-07
3.26271e-05
7.51713e-08
3.34201e-05
-1.28353e-07
3.35801e-05
-8.02034e-08
3.35764e-05
7.74264e-08
3.35537e-05
2.35573e-07
3.355e-05
2.86573e-07
3.35641e-05
8.94829e-08
3.35593e-05
-5.04963e-07
3.33966e-05
-1.53426e-06
3.26185e-05
-2.86491e-06
3.0884e-05
-3.90188e-06
2.82539e-05
-4.5882e-06
2.52673e-05
-4.87e-06
2.23031e-05
-4.85369e-06
1.95072e-05
-4.63943e-06
1.68437e-05
-4.28964e-06
1.42931e-05
-3.74913e-06
1.18365e-05
-2.95959e-06
9.57584e-06
7.67228e-06
2.66637e-06
5.5333e-06
3.36099e-06
8.70997e-06
3.84549e-06
1.1464e-05
4.14219e-06
1.40501e-05
4.3809e-06
1.67937e-05
4.38385e-06
1.9696e-05
3.98217e-06
2.2808e-05
2.92426e-06
2.64843e-05
1.36841e-06
3.01838e-05
-4.69919e-07
3.35291e-05
-1.37135e-06
3.40381e-05
-1.38519e-06
3.37916e-05
-1.0145e-06
3.34045e-05
-4.86218e-07
3.31861e-05
8.67932e-08
3.31106e-05
6.5986e-07
3.31065e-05
1.19056e-06
3.3171e-05
1.57106e-06
3.33728e-05
1.5745e-06
3.3743e-05
6.86675e-07
3.40166e-05
-1.16034e-06
3.36067e-05
-2.76357e-06
3.0248e-05
-3.86182e-06
2.65106e-05
-4.29084e-06
2.27661e-05
-4.30019e-06
1.96193e-05
-4.07198e-06
1.66944e-05
-3.76956e-06
1.39388e-05
-3.29443e-06
1.13429e-05
-2.5888e-06
8.5692e-06
5.28225e-06
1.96744e-06
3.74717e-06
2.79079e-06
7.76772e-06
3.17331e-06
1.07947e-05
3.52438e-06
1.36079e-05
3.80254e-06
1.66332e-05
3.73787e-06
1.97667e-05
2.96149e-06
2.38331e-05
1.27217e-06
2.92774e-05
-1.32921e-06
3.41462e-05
-3.31581e-06
3.72111e-05
-3.40263e-06
3.46834e-05
-2.53786e-06
3.3325e-05
-1.60195e-06
3.26649e-05
-7.24605e-07
3.24455e-05
9.61472e-08
3.2389e-05
9.15852e-07
3.23859e-05
1.79164e-06
3.24323e-05
2.73286e-06
3.26303e-05
3.61857e-06
3.32519e-05
3.59055e-06
3.46057e-05
1.59566e-06
3.72124e-05
-1.06789e-06
3.43258e-05
-2.79403e-06
2.94439e-05
-3.62897e-06
2.38997e-05
-3.71788e-06
1.96918e-05
-3.45589e-06
1.65325e-05
-3.09478e-06
1.35011e-05
-2.70902e-06
1.06806e-05
-1.88217e-06
7.64505e-06
3.60707e-06
1.27007e-06
2.7461e-06
2.08951e-06
6.94433e-06
2.42074e-06
1.00939e-05
2.93231e-06
1.32546e-05
3.14867e-06
1.63683e-05
2.79168e-06
2.01588e-05
1.67269e-06
2.68367e-05
-1.51457e-06
3.42613e-05
-5.43752e-06
3.84617e-05
-6.21536e-06
3.86362e-05
-4.46012e-06
3.39296e-05
-2.90895e-06
3.21255e-05
-1.7181e-06
3.16474e-05
-7.60361e-07
3.1583e-05
1.05869e-07
3.16074e-05
9.70024e-07
3.16067e-05
1.92216e-06
3.1577e-05
3.10364e-06
3.16227e-05
4.65356e-06
3.20539e-05
6.50086e-06
3.37692e-05
5.88214e-06
3.84438e-05
1.96081e-06
3.8581e-05
-1.40554e-06
3.45471e-05
-2.66494e-06
2.71454e-05
-3.06391e-06
2.02017e-05
-2.86743e-06
1.6263e-05
-2.34047e-06
1.31708e-05
-2.01131e-06
9.98864e-06
-1.20848e-06
6.84268e-06
2.66876e-06
7.88056e-07
2.20355e-06
1.38113e-06
6.20538e-06
1.77117e-06
9.40633e-06
2.33889e-06
1.27928e-05
2.32356e-06
1.56893e-05
9.07788e-07
2.29117e-05
-3.18796e-06
3.25752e-05
-7.44654e-06
3.86372e-05
-9.0895e-06
3.99058e-05
-7.052e-06
3.69431e-05
-4.15784e-06
3.19806e-05
-2.50818e-06
3.07395e-05
-1.45196e-06
3.06858e-05
-6.26558e-07
3.08382e-05
1.15713e-07
3.0956e-05
8.55301e-07
3.09583e-05
1.67221e-06
3.08423e-05
2.70835e-06
3.06814e-05
4.32885e-06
3.06992e-05
7.19897e-06
3.18094e-05
9.37734e-06
3.66156e-05
7.95877e-06
3.98315e-05
3.71953e-06
3.88015e-05
-6.29011e-07
3.29623e-05
-2.23501e-06
2.33423e-05
-2.25366e-06
1.56261e-05
-1.70714e-06
1.26822e-05
-1.30197e-06
9.33018e-06
-7.44435e-07
6.1182e-06
2.16284e-06
4.34398e-07
1.93479e-06
7.01743e-07
5.53736e-06
1.42574e-06
9.10437e-06
1.87617e-06
1.18688e-05
3.64466e-07
1.8233e-05
-5.08156e-06
2.95028e-05
-1.00875e-05
3.74396e-05
-1.14306e-05
3.98777e-05
-9.74806e-06
3.84131e-05
-5.79265e-06
3.27326e-05
-2.7874e-06
2.97896e-05
-1.64939e-06
2.96878e-05
-9.42641e-07
3.00391e-05
-3.79018e-07
3.03641e-05
1.24747e-07
3.05545e-05
6.25256e-07
3.056e-05
1.17896e-06
3.03785e-05
1.865e-06
3.00568e-05
2.93959e-06
2.96948e-05
5.78486e-06
2.97215e-05
9.75772e-06
3.24199e-05
1.17104e-05
3.81003e-05
1.06042e-05
3.98328e-05
5.75631e-06
3.7599e-05
2.33534e-08
3.00776e-05
-1.80468e-06
1.86155e-05
-1.35823e-06
1.1752e-05
-6.47173e-07
9.01606e-06
-3.82244e-07
5.48824e-06
1.9346e-06
-7.69888e-09
1.79414e-06
3.94153e-07
5.32948e-06
1.00955e-06
8.41034e-06
-9.80739e-07
1.40411e-05
-6.93811e-06
2.60689e-05
-1.22706e-05
3.52115e-05
-1.34603e-05
3.84828e-05
-1.15354e-05
3.84531e-05
-6.32743e-06
3.30411e-05
-1.96487e-06
2.88188e-05
-1.07949e-06
2.85742e-05
-6.57389e-07
2.92127e-05
-3.24149e-07
2.97837e-05
-7.31093e-08
3.02153e-05
1.31975e-07
3.0457e-05
3.33395e-07
3.04657e-05
5.73739e-07
3.02399e-05
8.88962e-07
2.98204e-05
1.28559e-06
2.92595e-05
2.03754e-06
2.86165e-05
6.22401e-06
2.87424e-05
1.15165e-05
3.26597e-05
1.37027e-05
3.81458e-05
1.27829e-05
3.84461e-05
7.6652e-06
3.5495e-05
1.38077e-06
2.66785e-05
-9.64087e-07
1.43947e-05
-3.58396e-07
8.30587e-06
4.7117e-08
5.27583e-06
1.76331e-06
-2.34878e-07
1.96696e-06
-9.56091e-08
5.06466e-06
-1.81873e-06
8.90646e-06
-8.4799e-06
2.22212e-05
-1.43945e-05
3.24287e-05
-1.4809e-05
3.63859e-05
-1.27141e-05
3.66777e-05
-6.46981e-06
3.23559e-05
-8.37426e-07
2.78236e-05
1.98022e-07
2.75651e-05
1.79916e-07
2.83181e-05
2.59977e-07
2.91955e-05
2.75651e-07
2.98739e-05
2.24805e-07
3.03784e-05
1.36956e-07
3.06546e-05
4.56496e-08
3.06664e-05
-1.53247e-08
3.04128e-05
-1.44219e-08
2.99274e-05
5.36849e-08
2.92667e-05
4.12907e-08
2.84136e-05
8.6205e-07
2.76488e-05
6.24905e-06
2.77312e-05
1.26354e-05
3.19516e-05
1.49685e-05
3.64056e-05
1.47098e-05
3.64276e-05
9.12593e-06
3.26911e-05
2.24698e-06
2.28411e-05
9.29165e-08
9.05422e-06
2.10644e-07
5.00656e-06
1.96861e-06
-5.11888e-07
2.34038e-06
-1.31112e-06
5.34482e-06
-8.29147e-06
1.61225e-05
-1.54788e-05
2.9295e-05
-1.57155e-05
3.34915e-05
-1.31043e-05
3.3507e-05
-5.71153e-06
2.98481e-05
6.268e-07
2.63394e-05
1.46258e-06
2.6409e-05
1.29803e-06
2.74384e-05
1.16842e-06
2.85307e-05
9.95353e-07
2.94767e-05
7.51997e-07
3.02378e-05
4.55754e-07
3.07891e-05
1.38754e-07
3.10827e-05
-1.80632e-07
3.10974e-05
-4.84477e-07
3.08323e-05
-7.39811e-07
3.03066e-05
-9.23637e-07
2.95677e-05
-1.05253e-06
2.86479e-05
-1.21583e-06
2.75767e-05
-6.14955e-07
2.65451e-05
5.36623e-06
2.62853e-05
1.28658e-05
2.95741e-05
1.57375e-05
3.32412e-05
1.56019e-05
3.34976e-05
8.46896e-06
2.95276e-05
1.36344e-06
1.64772e-05
4.98293e-07
5.41267e-06
2.3498e-06
-1.08247e-06
3.37138e-06
-7.13235e-06
1.01491e-05
-1.4363e-05
2.3426e-05
-1.53721e-05
3.0116e-05
-1.17643e-05
2.87424e-05
-3.03241e-06
2.611e-05
2.6523e-06
2.39626e-05
2.71274e-06
2.49118e-05
2.41232e-06
2.6358e-05
2.18427e-06
2.77321e-05
1.86463e-06
2.89271e-05
1.48325e-06
2.99596e-05
1.04496e-06
3.07769e-05
5.90564e-07
3.13429e-05
1.37861e-07
3.16348e-05
-3.16159e-07
3.16514e-05
-7.75161e-07
3.13923e-05
-1.22269e-06
3.08577e-05
-1.61438e-06
3.00677e-05
-1.9412e-06
2.90588e-05
-2.16262e-06
2.78953e-05
-2.44416e-06
2.65562e-05
-2.53789e-06
2.51276e-05
2.6626e-06
2.40675e-05
1.13445e-05
2.59707e-05
1.52713e-05
2.86591e-05
1.44711e-05
3.01974e-05
7.32585e-06
2.37568e-05
1.15693e-06
1.0376e-05
3.42541e-06
-3.6565e-06
6.16751e-06
-9.19485e-06
1.6976e-05
-1.28013e-05