/*--------------------------------*- C++ -*----------------------------------*\
| =========                 |                                                 |
| \\      /  F ield         | OpenFOAM: The Open Source CFD Toolbox           |
|  \\    /   O peration     | Version:  v1606+                                |
|   \\  /    A nd           | Web:      www.OpenFOAM.com                      |
|    \\/     M anipulation  |                                                 |
\*---------------------------------------------------------------------------*/
FoamFile
{
    version     2.0;
    format      ascii;
    class       volScalarField;
    location    "0.002";
    object      k;
}
// * * * * * * * * * * * * * * * * * * * * * * * * * * * * * * * * * * * * * //

dimensions      [0 2 -2 0 0 0 0];

internalField   nonuniform List<scalar> 
2450
(
1.043
1.06352
1.02533
1.01091
1.00808
1.00683
1.00433
1.00142
0.999528
0.998287
0.997572
0.997146
0.99688
0.996706
0.996589
0.996507
0.996448
0.996405
0.996373
0.996348
0.99633
0.996315
0.996303
0.996295
0.996289
0.996284
0.996281
0.996279
0.996279
0.996279
0.996281
0.996283
0.996287
0.996291
0.996295
0.996301
0.996307
0.996314
0.996322
0.996329
0.996338
0.996347
0.996356
0.996365
0.996375
0.996386
0.996396
0.996406
0.996417
0.996428
0.996439
0.99645
0.996461
0.996471
0.996482
0.996492
0.996502
0.996512
0.996521
0.99653
0.996538
0.996546
0.996553
0.996559
0.996564
0.996568
0.99657
0.99657
0.996568
0.996566
1.06297
0.945911
0.992991
1.00485
1.00714
1.0064
1.00385
1.00124
0.999308
0.998177
0.99752
0.99712
0.996866
0.996697
0.996583
0.996502
0.996443
0.9964
0.996368
0.996343
0.996324
0.99631
0.996299
0.996291
0.996285
0.996281
0.996278
0.996277
0.996278
0.996279
0.996281
0.996284
0.996288
0.996293
0.996298
0.996304
0.996311
0.996318
0.996325
0.996333
0.996342
0.996351
0.99636
0.996369
0.996379
0.99639
0.9964
0.996411
0.996421
0.996432
0.996443
0.996454
0.996464
0.996475
0.996486
0.996496
0.996506
0.996516
0.996525
0.996534
0.996542
0.99655
0.996557
0.996563
0.996568
0.996572
0.996574
0.996572
0.996569
0.996565
1.02558
0.993533
1.00862
1.00756
1.0077
1.00583
1.00275
1.0005
0.998925
0.997986
0.997422
0.997066
0.996835
0.996678
0.99657
0.996493
0.996437
0.996395
0.996363
0.996339
0.99632
0.996306
0.996296
0.996288
0.996283
0.99628
0.996278
0.996277
0.996278
0.99628
0.996283
0.996287
0.996291
0.996296
0.996302
0.996308
0.996314
0.996322
0.996329
0.996338
0.996346
0.996355
0.996364
0.996374
0.996384
0.996394
0.996404
0.996415
0.996426
0.996436
0.996447
0.996458
0.996469
0.996479
0.99649
0.9965
0.99651
0.99652
0.996529
0.996538
0.996546
0.996554
0.996561
0.996567
0.996572
0.996576
0.996577
0.996575
0.99657
0.996565
1.01193
1.00591
1.00791
1.00787
1.00693
1.0041
1.00161
0.9997
0.998495
0.997759
0.997297
0.996995
0.996792
0.996652
0.996553
0.996482
0.996429
0.996389
0.996359
0.996336
0.996319
0.996305
0.996295
0.996288
0.996283
0.99628
0.996278
0.996278
0.996279
0.996281
0.996284
0.996288
0.996292
0.996297
0.996303
0.996309
0.996316
0.996323
0.996331
0.996339
0.996348
0.996357
0.996366
0.996375
0.996385
0.996395
0.996406
0.996416
0.996427
0.996438
0.996449
0.996459
0.99647
0.996481
0.996491
0.996502
0.996512
0.996521
0.99653
0.996539
0.996547
0.996555
0.996562
0.996568
0.996573
0.996577
0.996578
0.996575
0.996569
0.996564
1.00896
1.00785
1.00809
1.00708
1.0047
1.00232
1.00031
0.998951
0.998087
0.997531
0.997163
0.996913
0.996741
0.996619
0.996531
0.996467
0.996418
0.996382
0.996353
0.996332
0.996315
0.996303
0.996294
0.996287
0.996282
0.996279
0.996278
0.996278
0.996279
0.996281
0.996284
0.996288
0.996292
0.996297
0.996303
0.996309
0.996316
0.996323
0.996331
0.996339
0.996347
0.996356
0.996365
0.996375
0.996385
0.996395
0.996405
0.996416
0.996427
0.996437
0.996448
0.996459
0.99647
0.99648
0.996491
0.996501
0.996511
0.99652
0.99653
0.996538
0.996546
0.996554
0.996561
0.996567
0.996572
0.996576
0.996576
0.996574
0.996567
0.996561
1.00757
1.00696
1.00619
1.0043
1.0024
1.00058
0.999242
0.998339
0.997732
0.997319
0.997032
0.99683
0.996687
0.996583
0.996506
0.996449
0.996405
0.996372
0.996346
0.996326
0.996311
0.996299
0.99629
0.996284
0.99628
0.996277
0.996276
0.996276
0.996278
0.99628
0.996283
0.996287
0.996291
0.996296
0.996302
0.996308
0.996315
0.996322
0.99633
0.996338
0.996346
0.996355
0.996364
0.996374
0.996384
0.996394
0.996404
0.996414
0.996425
0.996436
0.996447
0.996457
0.996468
0.996478
0.996489
0.996499
0.996509
0.996518
0.996528
0.996536
0.996544
0.996552
0.996559
0.996565
0.99657
0.996573
0.996574
0.996571
0.996564
0.996559
1.00484
1.00428
1.00307
1.00181
1.00042
0.999285
0.998454
0.997861
0.997437
0.997132
0.996912
0.996751
0.996634
0.996546
0.99648
0.996429
0.996391
0.996361
0.996337
0.996319
0.996305
0.996294
0.996286
0.996281
0.996277
0.996275
0.996274
0.996274
0.996276
0.996278
0.996281
0.996285
0.996289
0.996294
0.9963
0.996306
0.996313
0.99632
0.996328
0.996336
0.996344
0.996353
0.996362
0.996372
0.996382
0.996392
0.996402
0.996412
0.996423
0.996434
0.996444
0.996455
0.996466
0.996476
0.996486
0.996497
0.996506
0.996516
0.996525
0.996533
0.996541
0.996549
0.996556
0.996562
0.996567
0.99657
0.996571
0.996568
0.996561
0.996555
1.00181
1.00158
1.00077
0.999886
0.99907
0.998404
0.997888
0.997494
0.997196
0.996973
0.996805
0.996679
0.996583
0.99651
0.996454
0.99641
0.996375
0.996349
0.996328
0.996311
0.996299
0.996289
0.996282
0.996277
0.996274
0.996272
0.996271
0.996272
0.996273
0.996276
0.996279
0.996283
0.996287
0.996292
0.996298
0.996304
0.996311
0.996318
0.996326
0.996334
0.996342
0.996351
0.99636
0.99637
0.996379
0.996389
0.9964
0.99641
0.996421
0.996431
0.996442
0.996452
0.996463
0.996473
0.996484
0.996494
0.996503
0.996513
0.996522
0.99653
0.996538
0.996546
0.996552
0.996558
0.996563
0.996566
0.996567
0.996564
0.996557
0.996552
0.999821
0.999575
0.999144
0.99866
0.998203
0.997807
0.997479
0.997213
0.997004
0.996841
0.996712
0.996613
0.996536
0.996475
0.996428
0.99639
0.99636
0.996337
0.996318
0.996303
0.996292
0.996284
0.996277
0.996273
0.99627
0.996268
0.996268
0.996269
0.996271
0.996273
0.996276
0.99628
0.996285
0.99629
0.996296
0.996302
0.996309
0.996316
0.996324
0.996332
0.99634
0.996349
0.996358
0.996367
0.996377
0.996387
0.996397
0.996407
0.996418
0.996428
0.996439
0.996449
0.99646
0.99647
0.99648
0.99649
0.9965
0.996509
0.996518
0.996526
0.996534
0.996542
0.996548
0.996554
0.996559
0.996562
0.996562
0.996559
0.996553
0.996547
0.998514
0.998388
0.998166
0.997904
0.997639
0.997394
0.99718
0.997001
0.996852
0.99673
0.996633
0.996556
0.996493
0.996443
0.996403
0.996371
0.996345
0.996324
0.996308
0.996295
0.996285
0.996278
0.996272
0.996268
0.996266
0.996265
0.996265
0.996266
0.996268
0.99627
0.996274
0.996278
0.996283
0.996288
0.996294
0.9963
0.996306
0.996314
0.996321
0.996329
0.996337
0.996346
0.996355
0.996364
0.996374
0.996384
0.996394
0.996404
0.996415
0.996425
0.996436
0.996446
0.996456
0.996467
0.996477
0.996487
0.996496
0.996505
0.996514
0.996522
0.99653
0.996537
0.996544
0.99655
0.996554
0.996557
0.996558
0.996555
0.996548
0.996542
0.997751
0.997689
0.99757
0.99742
0.997259
0.997104
0.996963
0.996839
0.99673
0.99664
0.996567
0.996505
0.996454
0.996413
0.996379
0.996352
0.99633
0.996312
0.996298
0.996287
0.996278
0.996272
0.996267
0.996264
0.996262
0.996261
0.996262
0.996263
0.996265
0.996268
0.996271
0.996275
0.99628
0.996285
0.996291
0.996297
0.996304
0.996311
0.996318
0.996326
0.996334
0.996343
0.996352
0.996361
0.996371
0.996381
0.996391
0.996401
0.996411
0.996421
0.996432
0.996442
0.996453
0.996463
0.996473
0.996483
0.996492
0.996501
0.99651
0.996518
0.996526
0.996533
0.996539
0.996545
0.996549
0.996552
0.996553
0.99655
0.996543
0.996537
0.997294
0.997259
0.997192
0.997101
0.997
0.996898
0.9968
0.996712
0.996635
0.996567
0.996509
0.99646
0.99642
0.996386
0.996358
0.996335
0.996316
0.996301
0.996289
0.996279
0.996271
0.996266
0.996262
0.996259
0.996258
0.996257
0.996258
0.996259
0.996262
0.996265
0.996268
0.996272
0.996277
0.996282
0.996288
0.996294
0.996301
0.996308
0.996315
0.996323
0.996331
0.99634
0.996349
0.996358
0.996367
0.996377
0.996387
0.996397
0.996407
0.996418
0.996428
0.996438
0.996449
0.996459
0.996468
0.996478
0.996487
0.996496
0.996505
0.996513
0.996521
0.996528
0.996534
0.996539
0.996544
0.996547
0.996547
0.996544
0.996537
0.996532
0.997
0.99698
0.996939
0.996882
0.996816
0.996746
0.996678
0.996615
0.996557
0.996505
0.99646
0.996422
0.996389
0.996361
0.996338
0.996319
0.996303
0.99629
0.996279
0.996271
0.996265
0.99626
0.996256
0.996254
0.996253
0.996253
0.996254
0.996256
0.996259
0.996262
0.996265
0.996269
0.996274
0.996279
0.996285
0.996291
0.996298
0.996305
0.996312
0.99632
0.996328
0.996337
0.996345
0.996355
0.996364
0.996373
0.996383
0.996393
0.996403
0.996414
0.996424
0.996434
0.996444
0.996454
0.996464
0.996473
0.996483
0.996492
0.9965
0.996508
0.996515
0.996522
0.996529
0.996534
0.996538
0.996541
0.996541
0.996538
0.996532
0.996526
0.996802
0.996789
0.996762
0.996725
0.996682
0.996633
0.996585
0.996537
0.996494
0.996455
0.99642
0.996389
0.996362
0.99634
0.99632
0.996304
0.996291
0.996279
0.99627
0.996263
0.996258
0.996254
0.996251
0.99625
0.996249
0.99625
0.996251
0.996253
0.996255
0.996258
0.996262
0.996266
0.996271
0.996276
0.996282
0.996288
0.996295
0.996302
0.996309
0.996317
0.996325
0.996333
0.996342
0.996351
0.99636
0.99637
0.996379
0.996389
0.996399
0.996409
0.996419
0.99643
0.99644
0.996449
0.996459
0.996469
0.996478
0.996486
0.996495
0.996503
0.99651
0.996517
0.996523
0.996528
0.996533
0.996535
0.996536
0.996532
0.996526
0.99652
0.996664
0.996655
0.996637
0.996612
0.996581
0.996547
0.996511
0.996476
0.996443
0.996413
0.996385
0.99636
0.996339
0.99632
0.996304
0.99629
0.996279
0.996269
0.996262
0.996256
0.996252
0.996248
0.996246
0.996245
0.996245
0.996246
0.996247
0.996249
0.996252
0.996255
0.996259
0.996263
0.996268
0.996273
0.996279
0.996285
0.996291
0.996298
0.996306
0.996313
0.996321
0.996329
0.996338
0.996347
0.996356
0.996366
0.996375
0.996385
0.996395
0.996405
0.996415
0.996425
0.996435
0.996444
0.996454
0.996463
0.996472
0.996481
0.996489
0.996497
0.996504
0.996511
0.996517
0.996522
0.996527
0.996529
0.996529
0.996526
0.99652
0.996514
0.996565
0.996558
0.996544
0.996527
0.996504
0.99648
0.996453
0.996427
0.996401
0.996378
0.996355
0.996336
0.996318
0.996303
0.996289
0.996278
0.996268
0.99626
0.996254
0.996249
0.996245
0.996243
0.996241
0.996241
0.996241
0.996242
0.996244
0.996246
0.996249
0.996252
0.996256
0.99626
0.996265
0.99627
0.996276
0.996282
0.996288
0.996295
0.996302
0.99631
0.996317
0.996326
0.996334
0.996343
0.996352
0.996361
0.996371
0.996381
0.99639
0.9964
0.99641
0.99642
0.99643
0.996439
0.996449
0.996458
0.996467
0.996475
0.996484
0.996491
0.996498
0.996505
0.996511
0.996516
0.99652
0.996523
0.996523
0.99652
0.996513
0.996508
0.996491
0.996484
0.996474
0.996462
0.996446
0.996427
0.996407
0.996387
0.996367
0.996348
0.99633
0.996314
0.9963
0.996287
0.996276
0.996266
0.996258
0.996252
0.996247
0.996243
0.99624
0.996238
0.996237
0.996237
0.996237
0.996238
0.99624
0.996242
0.996245
0.996249
0.996252
0.996257
0.996262
0.996267
0.996272
0.996278
0.996285
0.996291
0.996298
0.996306
0.996314
0.996322
0.99633
0.996339
0.996348
0.996357
0.996366
0.996376
0.996386
0.996395
0.996405
0.996415
0.996425
0.996434
0.996443
0.996453
0.996461
0.99647
0.996478
0.996485
0.996492
0.996499
0.996505
0.99651
0.996514
0.996517
0.996517
0.996514
0.996507
0.996501
0.996434
0.996428
0.99642
0.996411
0.996399
0.996385
0.99637
0.996354
0.996338
0.996323
0.996309
0.996296
0.996284
0.996273
0.996264
0.996256
0.99625
0.996244
0.99624
0.996237
0.996234
0.996233
0.996232
0.996232
0.996233
0.996235
0.996236
0.996239
0.996242
0.996245
0.996249
0.996253
0.996258
0.996263
0.996269
0.996275
0.996281
0.996288
0.996295
0.996302
0.99631
0.996318
0.996326
0.996335
0.996343
0.996353
0.996362
0.996371
0.996381
0.99639
0.9964
0.99641
0.996419
0.996429
0.996438
0.996447
0.996456
0.996464
0.996472
0.996479
0.996486
0.996493
0.996499
0.996504
0.996508
0.99651
0.99651
0.996507
0.996501
0.996495
0.996389
0.996383
0.996377
0.99637
0.996362
0.996351
0.996339
0.996326
0.996314
0.996302
0.99629
0.996279
0.99627
0.996261
0.996253
0.996247
0.996241
0.996237
0.996234
0.996231
0.996229
0.996228
0.996228
0.996228
0.996229
0.996231
0.996233
0.996236
0.996239
0.996242
0.996246
0.99625
0.996255
0.99626
0.996265
0.996271
0.996277
0.996284
0.996291
0.996298
0.996306
0.996314
0.996322
0.99633
0.996339
0.996348
0.996357
0.996367
0.996376
0.996385
0.996395
0.996405
0.996414
0.996423
0.996432
0.996441
0.99645
0.996458
0.996466
0.996473
0.99648
0.996487
0.996492
0.996497
0.996501
0.996504
0.996504
0.996501
0.996494
0.996489
0.996354
0.996348
0.996343
0.996338
0.996331
0.996323
0.996314
0.996304
0.996293
0.996284
0.996274
0.996265
0.996257
0.99625
0.996244
0.996239
0.996234
0.996231
0.996228
0.996226
0.996225
0.996224
0.996224
0.996225
0.996226
0.996227
0.99623
0.996232
0.996235
0.996239
0.996243
0.996247
0.996252
0.996257
0.996262
0.996268
0.996274
0.99628
0.996287
0.996294
0.996302
0.99631
0.996318
0.996326
0.996335
0.996344
0.996353
0.996362
0.996371
0.99638
0.99639
0.996399
0.996409
0.996418
0.996427
0.996436
0.996444
0.996452
0.99646
0.996467
0.996474
0.996481
0.996486
0.996491
0.996495
0.996498
0.996498
0.996495
0.996488
0.996483
0.996325
0.996319
0.996315
0.996311
0.996307
0.9963
0.996292
0.996284
0.996276
0.996268
0.99626
0.996253
0.996247
0.996241
0.996236
0.996231
0.996228
0.996225
0.996222
0.996221
0.99622
0.99622
0.99622
0.996221
0.996222
0.996224
0.996226
0.996229
0.996232
0.996236
0.996239
0.996244
0.996248
0.996253
0.996258
0.996264
0.99627
0.996277
0.996283
0.99629
0.996298
0.996305
0.996313
0.996322
0.99633
0.996339
0.996348
0.996357
0.996366
0.996376
0.996385
0.996394
0.996403
0.996412
0.996421
0.99643
0.996438
0.996446
0.996454
0.996461
0.996468
0.996475
0.99648
0.996485
0.996489
0.996491
0.996492
0.996488
0.996482
0.996476
0.996301
0.996296
0.996292
0.99629
0.996286
0.996281
0.996275
0.996268
0.996262
0.996255
0.996249
0.996243
0.996237
0.996232
0.996228
0.996225
0.996222
0.996219
0.996218
0.996217
0.996216
0.996216
0.996217
0.996218
0.996219
0.996221
0.996223
0.996226
0.996229
0.996232
0.996236
0.99624
0.996245
0.99625
0.996255
0.996261
0.996267
0.996273
0.996279
0.996286
0.996294
0.996301
0.996309
0.996317
0.996326
0.996335
0.996343
0.996352
0.996361
0.996371
0.99638
0.996389
0.996398
0.996407
0.996416
0.996424
0.996433
0.996441
0.996448
0.996456
0.996462
0.996469
0.996474
0.996479
0.996483
0.996486
0.996486
0.996482
0.996476
0.996471
0.996281
0.996276
0.996273
0.996272
0.996269
0.996265
0.99626
0.996255
0.996249
0.996244
0.996239
0.996234
0.996229
0.996225
0.996222
0.996219
0.996216
0.996215
0.996213
0.996213
0.996212
0.996213
0.996213
0.996214
0.996216
0.996218
0.99622
0.996223
0.996226
0.996229
0.996233
0.996237
0.996242
0.996246
0.996252
0.996257
0.996263
0.996269
0.996276
0.996283
0.99629
0.996297
0.996305
0.996313
0.996322
0.99633
0.996339
0.996348
0.996357
0.996366
0.996375
0.996384
0.996393
0.996402
0.99641
0.996419
0.996427
0.996435
0.996443
0.99645
0.996457
0.996463
0.996468
0.996473
0.996477
0.99648
0.99648
0.996477
0.99647
0.996465
0.996265
0.996261
0.996258
0.996257
0.996255
0.996252
0.996248
0.996243
0.996239
0.996234
0.99623
0.996226
0.996222
0.996219
0.996216
0.996214
0.996212
0.99621
0.996209
0.996209
0.996209
0.996209
0.99621
0.996211
0.996213
0.996215
0.996217
0.99622
0.996223
0.996226
0.99623
0.996234
0.996238
0.996243
0.996248
0.996254
0.99626
0.996266
0.996272
0.996279
0.996286
0.996294
0.996301
0.996309
0.996317
0.996326
0.996335
0.996343
0.996352
0.996361
0.99637
0.996379
0.996388
0.996397
0.996405
0.996414
0.996422
0.99643
0.996437
0.996444
0.996451
0.996457
0.996463
0.996468
0.996472
0.996474
0.996474
0.996471
0.996465
0.996459
0.996251
0.996248
0.996246
0.996246
0.996244
0.996241
0.996238
0.996234
0.99623
0.996227
0.996223
0.99622
0.996217
0.996214
0.996211
0.996209
0.996208
0.996207
0.996206
0.996206
0.996206
0.996206
0.996207
0.996209
0.99621
0.996212
0.996214
0.996217
0.99622
0.996223
0.996227
0.996231
0.996235
0.99624
0.996245
0.996251
0.996256
0.996262
0.996269
0.996275
0.996282
0.99629
0.996297
0.996305
0.996314
0.996322
0.99633
0.996339
0.996348
0.996357
0.996366
0.996374
0.996383
0.996392
0.9964
0.996409
0.996417
0.996425
0.996432
0.996439
0.996446
0.996452
0.996458
0.996463
0.996467
0.996469
0.996469
0.996466
0.99646
0.996454
0.99624
0.996237
0.996236
0.996236
0.996235
0.996233
0.99623
0.996227
0.996224
0.996221
0.996217
0.996215
0.996212
0.996209
0.996207
0.996206
0.996204
0.996203
0.996203
0.996203
0.996203
0.996204
0.996205
0.996206
0.996208
0.996209
0.996212
0.996214
0.996217
0.996221
0.996224
0.996228
0.996232
0.996237
0.996242
0.996247
0.996253
0.996259
0.996265
0.996272
0.996279
0.996286
0.996294
0.996302
0.99631
0.996318
0.996326
0.996335
0.996344
0.996352
0.996361
0.99637
0.996379
0.996387
0.996396
0.996404
0.996412
0.99642
0.996427
0.996434
0.996441
0.996447
0.996453
0.996458
0.996462
0.996464
0.996464
0.996461
0.996455
0.99645
0.996232
0.996229
0.996229
0.996229
0.996229
0.996227
0.996224
0.996221
0.996219
0.996216
0.996213
0.99621
0.996208
0.996206
0.996204
0.996203
0.996202
0.996201
0.9962
0.9962
0.996201
0.996201
0.996202
0.996203
0.996205
0.996207
0.996209
0.996212
0.996215
0.996218
0.996222
0.996225
0.99623
0.996234
0.996239
0.996244
0.99625
0.996256
0.996262
0.996269
0.996276
0.996283
0.99629
0.996298
0.996306
0.996314
0.996323
0.996331
0.99634
0.996348
0.996357
0.996366
0.996374
0.996383
0.996391
0.9964
0.996408
0.996415
0.996423
0.99643
0.996436
0.996443
0.996448
0.996453
0.996457
0.99646
0.99646
0.996457
0.996451
0.996445
0.996225
0.996224
0.996224
0.996224
0.996224
0.996222
0.99622
0.996217
0.996215
0.996212
0.99621
0.996207
0.996205
0.996203
0.996202
0.9962
0.996199
0.996198
0.996198
0.996198
0.996198
0.996199
0.9962
0.996201
0.996203
0.996205
0.996207
0.996209
0.996212
0.996216
0.996219
0.996223
0.996227
0.996232
0.996236
0.996242
0.996247
0.996253
0.996259
0.996266
0.996273
0.99628
0.996287
0.996295
0.996303
0.996311
0.996319
0.996328
0.996336
0.996345
0.996353
0.996362
0.996371
0.996379
0.996387
0.996395
0.996403
0.996411
0.996419
0.996426
0.996432
0.996438
0.996444
0.996449
0.996453
0.996455
0.996456
0.996453
0.996446
0.996441
0.996221
0.99622
0.99622
0.996221
0.996221
0.996219
0.996217
0.996215
0.996212
0.99621
0.996207
0.996205
0.996203
0.996201
0.996199
0.996198
0.996197
0.996196
0.996196
0.996196
0.996196
0.996197
0.996198
0.996199
0.996201
0.996202
0.996205
0.996207
0.99621
0.996213
0.996217
0.99622
0.996225
0.996229
0.996234
0.996239
0.996244
0.99625
0.996256
0.996263
0.99627
0.996277
0.996284
0.996292
0.9963
0.996308
0.996316
0.996324
0.996333
0.996341
0.99635
0.996358
0.996367
0.996375
0.996384
0.996392
0.9964
0.996407
0.996415
0.996422
0.996428
0.996434
0.99644
0.996445
0.996449
0.996452
0.996452
0.996449
0.996443
0.996437
0.996218
0.996217
0.996218
0.996219
0.996218
0.996217
0.996215
0.996213
0.99621
0.996208
0.996205
0.996203
0.996201
0.996199
0.996197
0.996196
0.996195
0.996194
0.996194
0.996194
0.996194
0.996195
0.996196
0.996197
0.996198
0.9962
0.996202
0.996205
0.996208
0.996211
0.996214
0.996218
0.996222
0.996226
0.996231
0.996236
0.996242
0.996248
0.996254
0.99626
0.996267
0.996274
0.996281
0.996289
0.996297
0.996305
0.996313
0.996321
0.99633
0.996338
0.996347
0.996355
0.996363
0.996372
0.99638
0.996388
0.996396
0.996404
0.996411
0.996418
0.996425
0.996431
0.996436
0.996441
0.996445
0.996448
0.996448
0.996445
0.996439
0.996434
0.996216
0.996215
0.996216
0.996217
0.996217
0.996215
0.996213
0.996211
0.996208
0.996206
0.996203
0.996201
0.996199
0.996197
0.996195
0.996194
0.996193
0.996192
0.996192
0.996191
0.996192
0.996192
0.996193
0.996194
0.996196
0.996197
0.9962
0.996202
0.996205
0.996208
0.996211
0.996215
0.996219
0.996223
0.996228
0.996233
0.996239
0.996244
0.99625
0.996257
0.996264
0.996271
0.996278
0.996286
0.996293
0.996301
0.996309
0.996318
0.996326
0.996334
0.996343
0.996351
0.99636
0.996368
0.996376
0.996384
0.996392
0.9964
0.996407
0.996414
0.996421
0.996427
0.996432
0.996437
0.996441
0.996444
0.996444
0.996441
0.996435
0.99643
0.996214
0.996213
0.996214
0.996215
0.996214
0.996212
0.99621
0.996208
0.996205
0.996203
0.9962
0.996198
0.996196
0.996194
0.996192
0.996191
0.996189
0.996188
0.996188
0.996188
0.996188
0.996188
0.996189
0.99619
0.996192
0.996194
0.996196
0.996198
0.996201
0.996204
0.996207
0.996211
0.996215
0.996219
0.996224
0.996229
0.996234
0.99624
0.996246
0.996253
0.996259
0.996266
0.996274
0.996281
0.996289
0.996297
0.996305
0.996313
0.996321
0.99633
0.996338
0.996346
0.996355
0.996363
0.996371
0.996379
0.996387
0.996395
0.996402
0.996409
0.996415
0.996422
0.996427
0.996432
0.996436
0.996439
0.996439
0.996436
0.99643
0.996425
0.996212
0.996211
0.996211
0.996211
0.99621
0.996209
0.996206
0.996204
0.996201
0.996198
0.996196
0.996193
0.996191
0.996189
0.996187
0.996185
0.996184
0.996183
0.996182
0.996182
0.996182
0.996182
0.996183
0.996184
0.996186
0.996187
0.996189
0.996192
0.996194
0.996198
0.996201
0.996205
0.996209
0.996213
0.996218
0.996223
0.996228
0.996234
0.99624
0.996246
0.996253
0.99626
0.996267
0.996275
0.996282
0.99629
0.996298
0.996307
0.996315
0.996323
0.996332
0.99634
0.996348
0.996356
0.996364
0.996372
0.99638
0.996388
0.996395
0.996402
0.996409
0.996415
0.99642
0.996425
0.996429
0.996432
0.996432
0.996429
0.996423
0.996418
0.99621
0.996209
0.996209
0.996208
0.996207
0.996205
0.996202
0.996199
0.996197
0.996194
0.996191
0.996188
0.996185
0.996183
0.99618
0.996179
0.996177
0.996176
0.996175
0.996174
0.996174
0.996175
0.996175
0.996176
0.996177
0.996179
0.996181
0.996183
0.996186
0.996189
0.996192
0.996196
0.9962
0.996205
0.996209
0.996214
0.99622
0.996226
0.996232
0.996238
0.996245
0.996252
0.996259
0.996267
0.996274
0.996282
0.99629
0.996298
0.996307
0.996315
0.996323
0.996331
0.99634
0.996348
0.996356
0.996364
0.996372
0.996379
0.996386
0.996393
0.9964
0.996406
0.996412
0.996417
0.996421
0.996423
0.996424
0.996421
0.996415
0.99641
0.996209
0.996208
0.996208
0.996206
0.996205
0.996202
0.9962
0.996197
0.996194
0.99619
0.996187
0.996184
0.996181
0.996178
0.996176
0.996174
0.996172
0.99617
0.996169
0.996169
0.996168
0.996168
0.996169
0.996169
0.996171
0.996172
0.996174
0.996176
0.996179
0.996182
0.996185
0.996189
0.996193
0.996198
0.996202
0.996208
0.996213
0.996219
0.996225
0.996231
0.996238
0.996245
0.996252
0.99626
0.996268
0.996276
0.996284
0.996292
0.9963
0.996308
0.996317
0.996325
0.996333
0.996341
0.996349
0.996357
0.996365
0.996373
0.99638
0.996387
0.996393
0.9964
0.996405
0.99641
0.996414
0.996417
0.996417
0.996414
0.996408
0.996404
)
;

boundaryField
{
    left
    {
        type            symmetryPlane;
    }
    right
    {
        type            symmetryPlane;
    }
    top
    {
        type            symmetryPlane;
    }
    bottom
    {
        type            symmetryPlane;
    }
    frontAndBack
    {
        type            empty;
    }
}


// ************************************************************************* //
