/*--------------------------------*- C++ -*----------------------------------*\
| =========                 |                                                 |
| \\      /  F ield         | OpenFOAM: The Open Source CFD Toolbox           |
|  \\    /   O peration     | Version:  v1606+                                |
|   \\  /    A nd           | Web:      www.OpenFOAM.com                      |
|    \\/     M anipulation  |                                                 |
\*---------------------------------------------------------------------------*/
FoamFile
{
    version     2.0;
    format      ascii;
    class       volVectorField;
    location    "3.375";
    object      U;
}
// * * * * * * * * * * * * * * * * * * * * * * * * * * * * * * * * * * * * * //

dimensions      [0 1 -1 0 0 0 0];

internalField   nonuniform List<vector> 
3072
(
(0.00875492 0.134519 0)
(0.0188826 0.135448 0)
(0.0251991 0.134772 -6.67604e-26)
(0.0342386 0.132553 -2.53433e-26)
(0.0438515 0.130731 7.47062e-27)
(0.0533285 0.12901 -1.4561e-26)
(0.0627769 0.126932 -5.97485e-26)
(0.0720823 0.124308 -3.16799e-26)
(0.0811372 0.121014 1.623e-26)
(0.0898034 0.116942 -2.56721e-25)
(0.0979265 0.112038 -1.27573e-25)
(0.105355 0.106262 -1.92689e-25)
(0.00707852 0.148654 7.36995e-27)
(0.015871 0.1473 -2.00142e-26)
(0.0220267 0.147307 -8.88627e-26)
(0.0362806 0.147529 0)
(0.0494184 0.149284 4.93354e-27)
(0.0620677 0.150197 9.20076e-26)
(0.0741711 0.150205 0)
(0.0858313 0.149218 0)
(0.0969662 0.14712 0)
(0.107382 0.143859 -5.12969e-25)
(0.116819 0.139403 -1.98301e-25)
(0.125002 0.133715 9.61301e-26)
(0.00817362 0.165275 1.0168e-26)
(0.021019 0.166547 0)
(0.0331153 0.169283 0)
(0.0507131 0.169908 1.44962e-25)
(0.0653563 0.169562 4.74651e-26)
(0.0788855 0.169331 1.85168e-25)
(0.0917561 0.168611 1.01185e-25)
(0.10408 0.167088 0)
(0.115737 0.164584 0)
(0.126501 0.161022 -2.77876e-25)
(0.136126 0.156394 -2.203e-25)
(0.144423 0.150771 3.78989e-25)
(0.0104414 0.180649 -2.93152e-28)
(0.0265642 0.181601 5.65433e-26)
(0.0427033 0.184182 1.23956e-26)
(0.0601893 0.186483 1.66744e-25)
(0.0763874 0.186764 1.75034e-26)
(0.0913745 0.186198 2.15354e-25)
(0.105339 0.18485 2.90632e-25)
(0.118375 0.182667 3.89096e-25)
(0.130429 0.179604 2.08019e-25)
(0.141364 0.175654 1.19209e-25)
(0.151038 0.170854 -7.13049e-25)
(0.159372 0.165274 -1.00967e-25)
(0.0130157 0.196552 0)
(0.0332278 0.198937 6.47327e-26)
(0.0523533 0.201192 1.3161e-25)
(0.0700179 0.202281 -5.06904e-26)
(0.0867429 0.202177 -3.74779e-25)
(0.102338 0.200937 3.11626e-25)
(0.116803 0.198745 3.2188e-25)
(0.130141 0.195687 3.30097e-25)
(0.142309 0.191819 9.43234e-26)
(0.153215 0.187208 1.30477e-25)
(0.162802 0.181916 -2.70037e-25)
(0.171119 0.176027 -5.92262e-25)
(0.016169 0.212476 2.89133e-27)
(0.0399659 0.215033 1.49978e-26)
(0.0603114 0.216857 1.92016e-34)
(0.0785532 0.217353 0)
(0.0955628 0.216298 -2.61128e-25)
(0.111371 0.213981 -2.52589e-25)
(0.125954 0.21064 0)
(0.139261 0.20645 1.08699e-25)
(0.151252 0.20153 1.43356e-25)
(0.161859 0.195999 0)
(0.171047 0.189907 -6.36831e-25)
(0.179041 0.183298 -1.33218e-24)
(0.0196184 0.228237 0)
(0.0462515 0.231216 1.48031e-25)
(0.0673114 0.232588 -4.80217e-25)
(0.0855165 0.231989 0)
(0.102417 0.22938 7.59333e-26)
(0.118136 0.225508 -8.64522e-25)
(0.132555 0.220683 1.69915e-25)
(0.145557 0.215123 -1.0469e-25)
(0.157098 0.208971 -1.36778e-25)
(0.167108 0.20237 -7.2004e-25)
(0.175439 0.195281 -7.85239e-26)
(0.182599 0.18755 -7.69198e-25)
(0.0238786 0.24459 0)
(0.0523778 0.248902 1.60646e-25)
(0.0731349 0.249128 -3.47827e-25)
(0.0903549 0.246493 -3.75585e-25)
(0.106775 0.241367 0)
(0.122271 0.235327 -7.73022e-25)
(0.136368 0.228678 -1.11898e-25)
(0.148883 0.221576 -2.29766e-25)
(0.159763 0.214148 -4.8324e-26)
(0.168987 0.206559 1.08571e-25)
(0.176011 0.198648 7.65047e-25)
(0.181693 0.189605 4.606e-26)
(0.0298666 0.261222 0)
(0.0583483 0.26791 1.74036e-25)
(0.0770635 0.26626 3.75656e-25)
(0.0920921 0.260453 -4.08824e-25)
(0.107826 0.251508 -8.28584e-25)
(0.123294 0.242611 0)
(0.137056 0.233857 0)
(0.149039 0.225058 0)
(0.159291 0.216392 0)
(0.168203 0.20834 6.72779e-25)
(0.174199 0.200804 8.40377e-26)
(0.178259 0.191385 1.61939e-25)
(0.0388556 0.278568 0)
(0.0640997 0.288469 1.84156e-25)
(0.0781043 0.282983 7.85944e-25)
(0.0893586 0.272335 -7.51089e-25)
(0.104436 0.258024 -1.65086e-24)
(0.12056 0.245706 7.97734e-25)
(0.133995 0.234793 0)
(0.145298 0.224014 6.88022e-25)
(0.154821 0.213698 1.34024e-24)
(0.163815 0.205061 0)
(0.168419 0.198676 -1.0252e-24)
(0.169658 0.190532 1.1743e-25)
(0.0503182 0.296591 0)
(0.0666638 0.306881 -1.88903e-25)
(0.0732146 0.293871 -4.26459e-34)
(0.080029 0.277707 -8.60671e-25)
(0.0952681 0.257544 -8.36307e-25)
(0.113472 0.242189 2.9897e-26)
(0.126316 0.229977 6.68197e-25)
(0.13618 0.217033 1.95089e-24)
(0.14401 0.20403 1.26546e-24)
(0.152125 0.193391 1.1018e-24)
(0.154914 0.188376 -6.59297e-25)
(0.152592 0.184096 -9.57523e-25)
(0.0486179 0.301628 5.91039e-26)
(0.0518658 0.301223 4.0784e-25)
(0.0553503 0.282304 -7.02508e-25)
(0.0608457 0.266215 0)
(0.0793768 0.244598 0)
(0.102621 0.229387 -1.22181e-24)
(0.114309 0.219167 -5.74056e-25)
(0.121241 0.204972 1.19779e-24)
(0.126232 0.189039 0)
(0.131084 0.172904 1.09568e-24)
(0.133964 0.163763 0)
(0.133845 0.163346 -1.69346e-24)
(0.111917 0.0995435 1.44387e-25)
(0.117357 0.0918562 3.54272e-26)
(0.121489 0.0833107 5.92437e-26)
(0.124451 0.0740149 1.71076e-25)
(0.126969 0.0640349 5.17861e-26)
(0.129765 0.0538463 0)
(0.130036 0.0468508 0)
(0.12986 0.0370169 8.7614e-28)
(0.130502 0.0273048 1.47205e-27)
(0.131763 0.0179635 0)
(0.13381 0.00816584 0)
(0.134283 0.00396445 9.02983e-27)
(0.131743 0.126849 -1.19849e-35)
(0.137026 0.118916 0)
(0.14085 0.109911 4.98033e-25)
(0.143343 0.0996652 2.42703e-25)
(0.144887 0.0875996 1.10602e-25)
(0.144587 0.0738757 3.02689e-26)
(0.142351 0.0644497 1.67901e-26)
(0.143076 0.0508247 7.39949e-26)
(0.144468 0.0377552 0)
(0.145556 0.026174 0)
(0.145362 0.0132995 0)
(0.147252 0.00513638 -1.10559e-26)
(0.151203 0.144228 -3.336e-25)
(0.156378 0.13675 2.15855e-25)
(0.160013 0.128244 2.82818e-25)
(0.162194 0.118474 7.93945e-27)
(0.162818 0.106848 -1.96471e-27)
(0.161454 0.093418 0)
(0.159475 0.0792687 0)
(0.159415 0.0607113 1.99515e-25)
(0.15971 0.0436594 -9.36203e-26)
(0.161416 0.0289697 0)
(0.163852 0.0143291 0)
(0.164952 0.00178566 -6.81797e-27)
(0.166341 0.15897 -6.14293e-25)
(0.171922 0.15196 3.96e-25)
(0.176146 0.144158 1.18954e-27)
(0.179037 0.135306 -1.46049e-26)
(0.180545 0.124862 0)
(0.180744 0.112188 -3.13249e-25)
(0.1805 0.0963197 0)
(0.180551 0.0744333 -1.2847e-25)
(0.180249 0.0521654 -1.13075e-25)
(0.182251 0.0323575 0)
(0.182748 0.018915 6.30585e-26)
(0.180968 0.00452583 -3.49621e-26)
(0.178247 0.16966 -7.08671e-25)
(0.18423 0.162878 0)
(0.189132 0.155633 0)
(0.192927 0.14777 0)
(0.195401 0.1388 0)
(0.196312 0.127724 -2.6206e-36)
(0.195667 0.112745 4.10089e-25)
(0.192553 0.0908403 -5.74058e-25)
(0.188978 0.0634302 0)
(0.188865 0.0357642 9.59912e-26)
(0.192752 0.0205194 6.89105e-26)
(0.195919 0.00472699 -7.8121e-26)
(0.186067 0.176406 6.82003e-25)
(0.192275 0.16937 6.65021e-25)
(0.197813 0.162244 -2.96044e-27)
(0.202762 0.155091 1.25238e-26)
(0.206825 0.147773 -7.61961e-25)
(0.209512 0.139397 5.12752e-25)
(0.210398 0.12773 5.78533e-25)
(0.208651 0.108927 6.62159e-26)
(0.205146 0.0786276 3.38472e-25)
(0.203931 0.0406201 1.05566e-25)
(0.20804 0.0186126 1.26891e-25)
(0.212015 0.00395193 2.04678e-36)
(0.189074 0.17957 7.81724e-25)
(0.195149 0.17164 -9.34522e-26)
(0.20104 0.163896 0)
(0.207128 0.156493 0)
(0.21323 0.149935 -7.58404e-25)
(0.218874 0.144031 4.24188e-26)
(0.22374 0.136513 -7.93516e-25)
(0.226263 0.123388 5.08291e-25)
(0.224671 0.0958103 4.48289e-25)
(0.221813 0.049612 0)
(0.223582 0.0171625 2.43725e-25)
(0.227486 0.00222138 6.20305e-26)
(0.187258 0.179795 -1.10069e-25)
(0.192622 0.170303 -7.11166e-25)
(0.198401 0.161149 -7.40597e-25)
(0.205028 0.152497 1.66589e-26)
(0.212352 0.144937 4.24167e-26)
(0.2208 0.1395 -8.48078e-25)
(0.231432 0.134852 -8.84617e-25)
(0.241043 0.128687 -4.89397e-25)
(0.246221 0.108457 0)
(0.243689 0.061208 3.49665e-26)
(0.240842 0.0195593 1.51361e-25)
(0.243462 0.00268426 6.31173e-26)
(0.181957 0.179777 -1.1266e-25)
(0.185566 0.167853 -1.23722e-25)
(0.190327 0.156407 -6.7839e-25)
(0.195982 0.145699 7.4262e-25)
(0.20264 0.135068 4.57218e-26)
(0.212002 0.126508 -8.06995e-25)
(0.228196 0.120882 0)
(0.246192 0.121145 -4.5235e-25)
(0.261903 0.112151 0)
(0.269118 0.0767362 0)
(0.263875 0.0244333 0)
(0.260186 0.00456715 4.21591e-26)
(0.171545 0.178875 1.66748e-25)
(0.173378 0.165314 1.23951e-24)
(0.176875 0.151209 -1.22513e-24)
(0.181646 0.138925 -6.29852e-25)
(0.186706 0.125672 8.33601e-26)
(0.192253 0.110822 0)
(0.209031 0.0964543 0)
(0.231615 0.0987273 -6.47134e-25)
(0.2538 0.100012 0)
(0.270787 0.0796506 9.34184e-26)
(0.274164 0.0356009 2.76728e-25)
(0.272788 0.00761618 -5.87126e-27)
(0.154503 0.174257 1.12302e-24)
(0.157412 0.162406 1.22167e-24)
(0.163086 0.147513 -1.16155e-24)
(0.168488 0.134545 -3.55787e-26)
(0.171126 0.122581 9.59853e-25)
(0.167661 0.104012 -5.09722e-25)
(0.171532 0.0723201 3.71128e-25)
(0.191786 0.0609975 -4.96671e-26)
(0.2206 0.0705797 0)
(0.25005 0.0645011 -5.25555e-25)
(0.267237 0.0349244 2.99904e-25)
(0.280472 0.00150443 8.24053e-27)
(0.137946 0.158922 1.7139e-24)
(0.142059 0.151951 0)
(0.149466 0.141621 0)
(0.15862 0.130578 6.97658e-25)
(0.162005 0.123108 7.05626e-25)
(0.158375 0.11302 -4.79684e-25)
(0.149515 0.0726925 9.60744e-25)
(0.155886 0.0354638 -7.8012e-26)
(0.176614 0.0342987 8.25523e-26)
(0.20962 0.0350785 -2.71686e-25)
(0.25166 0.0108392 0)
(0.281006 -0.0207853 -2.20577e-26)
(0.133452 -0.00614455 2.70898e-27)
(0.132635 -0.0161642 0)
(0.131784 -0.0254418 5.16312e-26)
(0.130647 -0.0344821 0)
(0.129099 -0.0433815 1.28976e-27)
(0.127057 -0.0521893 -6.61694e-27)
(0.124457 -0.0609992 0)
(0.121311 -0.0698287 1.71058e-27)
(0.117717 -0.0784769 -4.38562e-26)
(0.113581 -0.086948 -9.15748e-26)
(0.108834 -0.0951853 1.89747e-25)
(0.10333 -0.103311 1.89123e-25)
(0.149563 -0.00458078 -1.23306e-26)
(0.149825 -0.015021 -2.55364e-27)
(0.150093 -0.025917 5.50213e-26)
(0.150153 -0.036928 0)
(0.149864 -0.0479502 4.34766e-27)
(0.149078 -0.0589485 2.19229e-26)
(0.147576 -0.0701086 0)
(0.145151 -0.0813229 -2.36762e-25)
(0.141899 -0.0925041 2.63538e-25)
(0.138034 -0.103668 6.03615e-26)
(0.133664 -0.114259 4.86976e-25)
(0.128041 -0.124709 2.26846e-25)
(0.165022 -0.00698244 -1.07508e-26)
(0.165621 -0.0204978 0)
(0.166277 -0.0337928 1.01697e-25)
(0.166773 -0.0468393 0)
(0.166735 -0.0595898 0)
(0.165952 -0.072166 -1.92859e-25)
(0.164337 -0.084753 3.1858e-26)
(0.161769 -0.0969702 -3.46107e-25)
(0.157857 -0.109547 2.67029e-25)
(0.153092 -0.121986 0)
(0.147998 -0.133624 -4.27439e-35)
(0.141838 -0.144883 2.8694e-25)
(0.180797 -0.00872384 -2.48727e-26)
(0.181522 -0.0249884 -5.65076e-26)
(0.182214 -0.0404812 1.16705e-25)
(0.182626 -0.0552757 -2.27622e-26)
(0.182405 -0.0692301 -4.42949e-26)
(0.181192 -0.0827863 -2.68067e-25)
(0.178827 -0.0959432 0)
(0.175386 -0.108771 0)
(0.170608 -0.122242 -3.03482e-25)
(0.164942 -0.135438 0)
(0.158874 -0.147769 -6.38417e-25)
(0.152142 -0.159207 3.23623e-25)
(0.19657 -0.0107384 -2.79263e-26)
(0.197619 -0.0297346 -1.34155e-25)
(0.198361 -0.0471215 1.30522e-25)
(0.19832 -0.0632099 0)
(0.197396 -0.0778307 0)
(0.195193 -0.0918026 -2.97127e-25)
(0.191835 -0.10524 0)
(0.18744 -0.118681 8.22718e-26)
(0.181637 -0.132464 -1.16072e-25)
(0.174543 -0.145755 1.21097e-25)
(0.166971 -0.158015 -2.754e-25)
(0.159171 -0.169333 9.97724e-26)
(0.212363 -0.0130974 3.04826e-26)
(0.213796 -0.0347263 -6.88805e-26)
(0.214453 -0.0534813 1.43336e-25)
(0.213879 -0.0702153 -2.43006e-25)
(0.211915 -0.0849614 7.51717e-26)
(0.208301 -0.0988889 -1.88198e-34)
(0.203431 -0.112349 -1.04e-25)
(0.197289 -0.125685 -8.28149e-25)
(0.189818 -0.138951 0)
(0.181288 -0.151845 0)
(0.172285 -0.163964 -7.70912e-25)
(0.163221 -0.175152 -1.54374e-25)
(0.228133 -0.0157048 2.54283e-27)
(0.229799 -0.0395851 1.63702e-25)
(0.229982 -0.0590336 0)
(0.228448 -0.0756818 -3.19506e-25)
(0.225178 -0.0899593 -3.32474e-25)
(0.219969 -0.103405 -3.40978e-25)
(0.213193 -0.116411 -6.95365e-25)
(0.205089 -0.129148 -1.41249e-24)
(0.195731 -0.141744 8.04157e-25)
(0.185507 -0.15411 1.20356e-25)
(0.174971 -0.165907 -1.46489e-24)
(0.164562 -0.176861 -7.89012e-25)
(0.243913 -0.0184939 -7.09831e-26)
(0.245743 -0.0439449 1.61434e-25)
(0.244914 -0.063391 0)
(0.24207 -0.0793891 3.38015e-25)
(0.237073 -0.0926659 -3.46132e-25)
(0.229791 -0.104996 -8.27039e-25)
(0.220752 -0.117096 -8.66576e-25)
(0.210519 -0.128904 -8.12039e-25)
(0.199109 -0.140643 5.78111e-25)
(0.187035 -0.152483 -6.95375e-25)
(0.174976 -0.163948 -1.30481e-24)
(0.163289 -0.174614 -5.75759e-25)
(0.25972 -0.0216636 -3.16138e-26)
(0.261743 -0.0476436 1.6534e-25)
(0.259078 -0.0661337 3.11283e-25)
(0.254046 -0.0806266 3.49475e-25)
(0.246578 -0.0923144 0)
(0.236796 -0.102929 0)
(0.225183 -0.113899 -6.86464e-25)
(0.212795 -0.124645 -7.76331e-25)
(0.199305 -0.135377 -1.15349e-25)
(0.18536 -0.14682 -6.56115e-25)
(0.171993 -0.158149 -6.1731e-25)
(0.159338 -0.168567 0)
(0.27535 -0.0254135 -6.65995e-26)
(0.27628 -0.0498331 2.07659e-25)
(0.269654 -0.0659314 2.6778e-34)
(0.261545 -0.0782886 0)
(0.251512 -0.0878862 -6.64036e-25)
(0.239165 -0.0961611 0)
(0.224987 -0.10611 -7.24101e-25)
(0.210803 -0.115977 -8.30988e-25)
(0.195426 -0.125635 -1.33608e-24)
(0.179703 -0.137043 0)
(0.165619 -0.14878 0)
(0.152862 -0.159182 9.84066e-25)
(0.289497 -0.0273508 5.72522e-34)
(0.285294 -0.0473761 -1.84958e-25)
(0.271501 -0.0602443 -6.87147e-25)
(0.259646 -0.0708349 6.24409e-25)
(0.24787 -0.0785571 -6.29942e-25)
(0.233707 -0.0843211 -6.23816e-26)
(0.217733 -0.0936027 5.42629e-25)
(0.203046 -0.102948 1.0992e-24)
(0.186452 -0.111336 -9.58893e-25)
(0.16887 -0.123296 1.02265e-24)
(0.154979 -0.136602 -8.23346e-25)
(0.144188 -0.147608 7.55027e-25)
(0.287698 -0.0117476 -9.64861e-26)
(0.275718 -0.0319406 -1.63203e-25)
(0.254887 -0.0457507 -5.69719e-25)
(0.240856 -0.0571031 4.91617e-25)
(0.230061 -0.0636358 0)
(0.216285 -0.0672624 4.35795e-25)
(0.200712 -0.0770311 4.02434e-25)
(0.188659 -0.0863032 1.48464e-24)
(0.172963 -0.0928543 7.2615e-25)
(0.152502 -0.105748 8.18029e-25)
(0.138001 -0.122947 -4.58583e-25)
(0.132064 -0.135773 0)
(0.0973283 -0.111017 -9.8075e-26)
(0.090825 -0.117997 -1.69646e-26)
(0.0835943 -0.124201 2.01876e-25)
(0.0757289 -0.129323 -8.67093e-28)
(0.0670475 -0.133224 -1.97064e-26)
(0.0578266 -0.135722 5.86917e-26)
(0.0483013 -0.136849 -2.08529e-26)
(0.038603 -0.136885 2.51942e-26)
(0.0289035 -0.136231 -6.97331e-27)
(0.0193983 -0.135304 0)
(0.0103563 -0.134425 0)
(0.00247266 -0.133601 4.76917e-27)
(0.121787 -0.134214 1.22935e-25)
(0.114941 -0.142402 8.30589e-26)
(0.107259 -0.149079 5.3006e-25)
(0.0989172 -0.154029 0)
(0.0898001 -0.157342 -1.27275e-25)
(0.0799819 -0.158851 0)
(0.0694396 -0.158675 8.42151e-36)
(0.0580577 -0.157202 1.23999e-25)
(0.045868 -0.155041 7.18338e-27)
(0.0332603 -0.15281 0)
(0.0205364 -0.151007 0)
(0.00750558 -0.149432 2.063e-26)
(0.135112 -0.154755 2.48957e-25)
(0.12788 -0.163143 -3.63461e-25)
(0.120286 -0.1699 2.91233e-25)
(0.11226 -0.174794 0)
(0.103685 -0.177606 -2.79677e-25)
(0.0943783 -0.178404 2.1057e-26)
(0.083927 -0.177393 1.63214e-25)
(0.0718166 -0.174953 1.07306e-25)
(0.057614 -0.171705 -1.44951e-25)
(0.0416851 -0.16894 0)
(0.0260051 -0.167469 -5.15844e-26)
(0.0105866 -0.165839 1.29861e-26)
(0.145106 -0.169262 3.28015e-25)
(0.137892 -0.177866 -1.26572e-34)
(0.130628 -0.184768 -1.48234e-26)
(0.12332 -0.189844 -3.88832e-26)
(0.115846 -0.192945 0)
(0.107816 -0.194011 -3.09979e-25)
(0.0985044 -0.193094 6.41924e-25)
(0.0868435 -0.190402 2.36761e-25)
(0.0715447 -0.18642 -2.22518e-25)
(0.0516822 -0.182132 0)
(0.0302855 -0.181179 -1.1428e-25)
(0.0141271 -0.181626 2.76094e-27)
(0.151404 -0.179429 -4.1573e-26)
(0.143893 -0.188183 2.75939e-25)
(0.136801 -0.195436 0)
(0.130203 -0.201093 0)
(0.12399 -0.205041 -3.39906e-25)
(0.117723 -0.207134 -3.356e-25)
(0.110495 -0.20727 6.64069e-25)
(0.100767 -0.205424 0)
(0.0862116 -0.201782 -1.6009e-25)
(0.0636997 -0.196709 -1.48892e-25)
(0.0329636 -0.194737 -2.45665e-35)
(0.0160051 -0.196572 4.00662e-26)
(0.154467 -0.185229 -4.61626e-26)
(0.146329 -0.194123 6.90598e-26)
(0.139041 -0.201758 -7.07804e-25)
(0.132755 -0.208143 -7.47783e-28)
(0.12746 -0.213241 3.50666e-25)
(0.122838 -0.21688 6.96945e-25)
(0.117983 -0.218905 7.05438e-25)
(0.11117 -0.219179 0)
(0.0994835 -0.217525 0)
(0.0779432 -0.213622 -1.87682e-25)
(0.0402195 -0.206847 1.65884e-25)
(0.0134068 -0.20796 3.21516e-26)
(0.154678 -0.186786 -3.67591e-26)
(0.145646 -0.195667 6.26843e-25)
(0.13777 -0.203507 -6.95781e-25)
(0.131288 -0.210428 7.23624e-25)
(0.12625 -0.216614 7.41951e-25)
(0.122639 -0.221867 7.61613e-25)
(0.11958 -0.22608 -3.35419e-25)
(0.115317 -0.229392 4.50571e-26)
(0.106928 -0.23189 3.71851e-26)
(0.088816 -0.233476 0)
(0.05082 -0.229632 1.69692e-25)
(0.011038 -0.226265 2.76488e-26)
(0.152297 -0.184212 0)
(0.142248 -0.192819 6.58249e-25)
(0.133513 -0.200552 0)
(0.126413 -0.207574 6.48862e-25)
(0.121013 -0.214523 -6.00118e-26)
(0.117795 -0.221101 -6.4744e-25)
(0.115818 -0.226896 -2.81645e-38)
(0.113131 -0.23243 0)
(0.10762 -0.238244 4.2534e-25)
(0.0946428 -0.242801 2.80426e-26)
(0.0620207 -0.24237 1.57271e-26)
(0.0132915 -0.240521 1.99925e-26)
(0.147462 -0.177607 -3.53343e-26)
(0.13638 -0.185501 -6.9115e-26)
(0.126529 -0.19264 6.1026e-25)
(0.118479 -0.199096 -6.37047e-25)
(0.112227 -0.206451 6.87085e-26)
(0.109058 -0.214405 1.58578e-27)
(0.108041 -0.221475 5.84969e-25)
(0.105749 -0.228725 0)
(0.100873 -0.238248 4.09321e-25)
(0.0905821 -0.249726 0)
(0.0614225 -0.263136 -2.82813e-25)
(0.0131623 -0.262112 6.74552e-26)
(0.140733 -0.167381 0)
(0.128722 -0.173757 1.04836e-24)
(0.117257 -0.179465 1.6041e-24)
(0.107599 -0.183999 -5.99323e-25)
(0.0992326 -0.190777 -7.38159e-26)
(0.0957857 -0.200244 4.25692e-25)
(0.0970208 -0.208644 0)
(0.0953143 -0.216901 0)
(0.0894189 -0.227833 0)
(0.0803148 -0.241024 0)
(0.0576664 -0.256531 -2.62674e-25)
(0.0168699 -0.271644 1.20658e-25)
(0.133609 -0.154979 -6.31839e-26)
(0.121661 -0.158795 7.93875e-25)
(0.108355 -0.161954 -7.6375e-34)
(0.0959258 -0.161975 -1.01276e-24)
(0.0819963 -0.165068 -9.83702e-25)
(0.0753103 -0.175019 1.0421e-25)
(0.0804425 -0.184506 2.7034e-25)
(0.0817858 -0.19533 0)
(0.0753471 -0.208102 5.45941e-25)
(0.0632525 -0.224127 3.79399e-25)
(0.0392479 -0.251669 2.35058e-25)
(0.00113343 -0.281672 5.02463e-34)
(0.126556 -0.143112 0)
(0.118006 -0.144296 0)
(0.105478 -0.145418 -4.92903e-34)
(0.093054 -0.138967 -8.70436e-25)
(0.0693303 -0.130407 -1.42847e-24)
(0.0470483 -0.135357 0)
(0.0523464 -0.143819 -4.37735e-26)
(0.0583454 -0.158086 0)
(0.0570365 -0.175271 6.61671e-25)
(0.0431322 -0.194885 2.15403e-25)
(0.0101132 -0.223875 1.28895e-25)
(-0.0288866 -0.270384 6.89747e-27)
(-0.00621616 -0.133481 -4.54796e-37)
(-0.0163304 -0.132798 -5.0014e-27)
(-0.0257 -0.13211 9.20715e-28)
(-0.0348403 -0.13113 5.28885e-26)
(-0.0438926 -0.129757 0)
(-0.0528786 -0.127939 -5.57045e-26)
(-0.0617081 -0.125601 0)
(-0.0703043 -0.122634 -6.21032e-26)
(-0.0791229 -0.11872 -1.54284e-25)
(-0.0873589 -0.114356 -1.64965e-26)
(-0.0952683 -0.109267 -1.56278e-25)
(-0.102611 -0.103536 -1.82283e-25)
(-0.0048308 -0.149594 -3.1322e-26)
(-0.0155424 -0.150042 -3.45886e-27)
(-0.0265883 -0.150534 5.97486e-27)
(-0.037731 -0.150787 1.03001e-25)
(-0.0489515 -0.150625 7.38863e-27)
(-0.0602574 -0.149988 2.60041e-26)
(-0.0714097 -0.148914 2.30202e-25)
(-0.0824176 -0.147305 -6.7689e-26)
(-0.0928019 -0.14431 -2.12848e-25)
(-0.102769 -0.139827 -3.2077e-25)
(-0.112253 -0.134701 -5.004e-25)
(-0.120799 -0.128708 -3.89648e-26)
(-0.00742975 -0.165046 -2.12714e-26)
(-0.0213172 -0.165859 0)
(-0.0346301 -0.16672 0)
(-0.0476078 -0.167264 1.0669e-25)
(-0.0604851 -0.167129 0)
(-0.0734935 -0.166191 3.45531e-25)
(-0.0864994 -0.164704 2.32635e-25)
(-0.0984937 -0.162922 -7.39391e-26)
(-0.108583 -0.160665 1.16619e-25)
(-0.119649 -0.155903 -6.34235e-25)
(-0.13006 -0.15041 -2.39446e-25)
(-0.13948 -0.144249 3.4626e-25)
(-0.00946195 -0.180846 4.87544e-26)
(-0.0262679 -0.1819 5.57236e-26)
(-0.0416572 -0.18298 -1.16657e-25)
(-0.0561491 -0.183593 1.22657e-25)
(-0.070194 -0.183291 0)
(-0.0841447 -0.181751 6.05156e-25)
(-0.0974787 -0.178747 1.02519e-25)
(-0.109685 -0.175067 0)
(-0.120796 -0.17239 5.81392e-25)
(-0.133034 -0.168365 -3.98436e-25)
(-0.144471 -0.163182 -4.03734e-26)
(-0.154788 -0.157336 -7.2136e-25)
(-0.0117603 -0.196601 5.42108e-26)
(-0.0314642 -0.197932 -1.69514e-35)
(-0.0486775 -0.199086 -2.59477e-25)
(-0.0642332 -0.19954 0)
(-0.0787924 -0.198808 4.59001e-26)
(-0.0926415 -0.196355 3.59824e-25)
(-0.106643 -0.192526 0)
(-0.119979 -0.188057 3.14627e-25)
(-0.132738 -0.183516 3.90156e-25)
(-0.145375 -0.178684 1.07178e-25)
(-0.157234 -0.17304 0)
(-0.168145 -0.166957 -7.02176e-25)
(-0.0143386 -0.21238 2.78548e-26)
(-0.0368044 -0.214082 -2.15725e-25)
(-0.0554842 -0.215203 -1.4254e-25)
(-0.0716697 -0.215316 3.55062e-25)
(-0.08641 -0.213912 1.31957e-25)
(-0.1004 -0.21105 -2.59933e-25)
(-0.115482 -0.206357 0)
(-0.129143 -0.200989 -3.4976e-25)
(-0.142671 -0.194383 9.36501e-26)
(-0.155305 -0.187648 1.26186e-25)
(-0.167346 -0.180687 -6.61485e-25)
(-0.178641 -0.173641 1.5051e-25)
(-0.0172889 -0.228227 3.56339e-26)
(-0.0422339 -0.230501 -1.314e-25)
(-0.0619051 -0.231442 0)
(-0.0782302 -0.230975 2.59568e-25)
(-0.0928263 -0.228525 3.18612e-25)
(-0.106806 -0.224523 3.14526e-25)
(-0.121412 -0.218378 5.45257e-25)
(-0.135152 -0.211243 -8.48955e-25)
(-0.148965 -0.20318 -1.47951e-25)
(-0.161837 -0.194762 7.46416e-25)
(-0.174103 -0.186207 -1.57092e-24)
(-0.185622 -0.177774 -1.06067e-25)
(-0.0208013 -0.24417 6.31145e-26)
(-0.0476606 -0.247267 -2.05465e-26)
(-0.06762 -0.247633 0)
(-0.0834186 -0.24617 -3.49291e-25)
(-0.0973029 -0.242132 6.47692e-25)
(-0.110785 -0.236113 6.52246e-25)
(-0.124783 -0.22817 8.82045e-25)
(-0.13858 -0.21923 2.60362e-25)
(-0.152332 -0.209715 9.95741e-25)
(-0.165277 -0.199877 1.7257e-24)
(-0.17762 -0.189786 -6.37953e-25)
(-0.1891 -0.179898 0)
(-0.0251918 -0.26021 7.17618e-26)
(-0.0528109 -0.264213 0)
(-0.07201 -0.26302 0)
(-0.0865326 -0.259892 -3.64787e-25)
(-0.0990088 -0.253675 3.73773e-25)
(-0.111527 -0.245224 7.70649e-25)
(-0.125014 -0.23517 0)
(-0.138965 -0.224446 -9.54519e-26)
(-0.152916 -0.213643 6.25863e-25)
(-0.165793 -0.202747 7.50265e-25)
(-0.17811 -0.191417 7.3694e-25)
(-0.189327 -0.180358 -1.45937e-24)
(-0.0308283 -0.276342 -8.34388e-26)
(-0.0568773 -0.280389 -3.14184e-26)
(-0.0738406 -0.275493 3.76935e-25)
(-0.0865507 -0.26984 7.30196e-25)
(-0.0970286 -0.261152 0)
(-0.108384 -0.250081 7.64341e-25)
(-0.121639 -0.237804 8.85408e-25)
(-0.136096 -0.225448 8.0085e-25)
(-0.150615 -0.213893 -1.5629e-24)
(-0.163345 -0.202633 0)
(-0.175648 -0.190614 2.09732e-24)
(-0.18647 -0.179044 -1.3752e-24)
(-0.0355123 -0.291569 -3.56162e-26)
(-0.0569492 -0.291944 4.08636e-26)
(-0.0706426 -0.279868 3.78099e-25)
(-0.0821449 -0.271269 7.43188e-25)
(-0.0903894 -0.261052 2.00161e-25)
(-0.100531 -0.248053 9.884e-25)
(-0.11404 -0.234056 8.81923e-25)
(-0.129715 -0.220509 -7.47215e-25)
(-0.145368 -0.209008 -1.39996e-24)
(-0.157767 -0.198373 1.32067e-24)
(-0.170144 -0.186403 1.27984e-24)
(-0.180479 -0.175409 0)
(-0.0242778 -0.290586 -2.51614e-25)
(-0.0447062 -0.284521 -3.55919e-25)
(-0.0587009 -0.265987 3.18307e-26)
(-0.0722868 -0.256593 -5.40283e-25)
(-0.0787325 -0.248053 0)
(-0.0877313 -0.235754 6.27353e-25)
(-0.102117 -0.222216 1.35029e-24)
(-0.119836 -0.208719 -1.25333e-24)
(-0.137286 -0.198052 -6.96068e-26)
(-0.148835 -0.188855 1.15629e-24)
(-0.161435 -0.177498 -1.10639e-24)
(-0.171167 -0.168491 -1.04425e-24)
(-0.109217 -0.0970881 -6.23177e-26)
(-0.115079 -0.08978 -1.82505e-25)
(-0.120013 -0.0817862 1.0546e-25)
(-0.123905 -0.073191 7.18346e-26)
(-0.126875 -0.0641575 -3.75861e-26)
(-0.129304 -0.0548422 0)
(-0.131529 -0.0456546 1.01305e-26)
(-0.133582 -0.0368788 -3.44668e-27)
(-0.135277 -0.0280458 0)
(-0.135994 -0.0193598 -5.12192e-26)
(-0.135393 -0.0108667 0)
(-0.13392 -0.00291716 0)
(-0.128233 -0.121886 -3.30313e-26)
(-0.134499 -0.114127 -4.44981e-25)
(-0.139487 -0.105506 -1.17787e-26)
(-0.143154 -0.0959421 -2.69213e-25)
(-0.145657 -0.0852956 0)
(-0.147322 -0.0733677 0)
(-0.148771 -0.0605465 8.62755e-27)
(-0.150542 -0.0486611 -1.9768e-26)
(-0.152303 -0.0388611 0)
(-0.153204 -0.0302026 -5.78591e-26)
(-0.152285 -0.0213826 -5.88069e-26)
(-0.149813 -0.00905494 -6.73506e-28)
(-0.147682 -0.13751 -2.79877e-25)
(-0.154376 -0.130091 -1.93571e-35)
(-0.15937 -0.121811 0)
(-0.162717 -0.112476 -5.14203e-36)
(-0.164495 -0.101649 -4.496e-26)
(-0.164907 -0.0887083 3.24453e-26)
(-0.164197 -0.0728188 2.68908e-25)
(-0.163169 -0.0551344 0)
(-0.165312 -0.0392759 0)
(-0.169268 -0.0319524 0)
(-0.169573 -0.027044 -7.04784e-26)
(-0.166429 -0.0136467 -1.65923e-26)
(-0.163757 -0.15101 -3.27302e-25)
(-0.171294 -0.144208 6.55768e-25)
(-0.177207 -0.136909 0)
(-0.181408 -0.128826 6.49899e-25)
(-0.18382 -0.119411 0)
(-0.184405 -0.107717 0)
(-0.183228 -0.0923229 2.99599e-25)
(-0.180356 -0.0713543 -8.31804e-26)
(-0.178701 -0.044269 -7.24209e-26)
(-0.180668 -0.0295904 0)
(-0.182014 -0.0309155 8.65955e-26)
(-0.181156 -0.0178805 6.59529e-26)
(-0.177942 -0.160655 -7.36613e-25)
(-0.186552 -0.154303 3.10091e-25)
(-0.193885 -0.147882 2.05033e-26)
(-0.199808 -0.141199 4.1783e-25)
(-0.204206 -0.133758 4.04011e-25)
(-0.206914 -0.124572 0)
(-0.207778 -0.112051 3.80188e-25)
(-0.206246 -0.0933408 0)
(-0.200571 -0.0633987 0)
(-0.19424 -0.0355251 -6.05322e-26)
(-0.191723 -0.0331451 6.29646e-26)
(-0.194378 -0.0150412 9.57814e-26)
(-0.189119 -0.166692 -6.32803e-25)
(-0.19874 -0.16005 8.23132e-25)
(-0.207508 -0.153796 0)
(-0.215395 -0.147816 0)
(-0.222311 -0.141697 1.15046e-24)
(-0.228209 -0.134543 -3.07917e-26)
(-0.232972 -0.12491 1.0965e-34)
(-0.236157 -0.110208 2.61555e-26)
(-0.234875 -0.0850799 3.75956e-25)
(-0.225328 -0.0514695 -1.14629e-25)
(-0.21432 -0.0390643 0)
(-0.211044 -0.0137433 -3.14662e-26)
(-0.196453 -0.169584 8.03131e-25)
(-0.206693 -0.16194 1.61207e-24)
(-0.216296 -0.15507 -5.16331e-27)
(-0.22534 -0.148844 -8.34761e-25)
(-0.233728 -0.143051 1.63527e-24)
(-0.241478 -0.136928 8.52338e-25)
(-0.248459 -0.129423 4.47803e-25)
(-0.253828 -0.118766 4.70092e-25)
(-0.256497 -0.102469 4.99022e-25)
(-0.250446 -0.0750077 0)
(-0.241076 -0.053676 -2.07049e-25)
(-0.232322 -0.0189629 -1.65237e-25)
(-0.199867 -0.170184 7.12973e-25)
(-0.210228 -0.16111 1.43193e-24)
(-0.21995 -0.153094 7.60129e-25)
(-0.229159 -0.145999 -7.6238e-25)
(-0.237735 -0.139778 8.40829e-25)
(-0.24581 -0.133717 8.19933e-25)
(-0.253597 -0.127148 5.05826e-26)
(-0.2605 -0.119028 4.53827e-25)
(-0.26509 -0.10774 -4.74652e-25)
(-0.262818 -0.0897866 0)
(-0.254653 -0.0699921 -2.4601e-25)
(-0.247176 -0.0331283 -1.20246e-25)
(-0.199641 -0.169147 0)
(-0.209797 -0.158495 7.20156e-25)
(-0.219171 -0.149262 7.19139e-25)
(-0.227835 -0.141167 1.48396e-26)
(-0.235579 -0.134233 8.00393e-25)
(-0.242587 -0.127653 7.59387e-25)
(-0.249728 -0.121023 -8.02756e-25)
(-0.256932 -0.114208 0)
(-0.263104 -0.106419 -4.56375e-25)
(-0.266068 -0.0947523 -2.9448e-27)
(-0.265188 -0.0777929 -2.63567e-25)
(-0.263076 -0.0401374 4.69089e-27)
(-0.195964 -0.166633 0)
(-0.20585 -0.154416 0)
(-0.214697 -0.144264 0)
(-0.222469 -0.135404 1.32312e-24)
(-0.228812 -0.128005 1.23885e-25)
(-0.233816 -0.120836 7.89596e-25)
(-0.239326 -0.113295 0)
(-0.246021 -0.106205 7.60299e-25)
(-0.252957 -0.0996453 0)
(-0.260148 -0.0908573 4.79263e-25)
(-0.26789 -0.077242 -2.8211e-25)
(-0.276837 -0.0429447 -8.69497e-28)
(-0.188665 -0.162363 0)
(-0.198426 -0.148575 0)
(-0.206709 -0.137939 -1.19607e-24)
(-0.213353 -0.128739 1.15902e-24)
(-0.218036 -0.1215 -1.75633e-24)
(-0.220409 -0.11424 -5.78424e-25)
(-0.223632 -0.105493 5.32079e-26)
(-0.229327 -0.0971504 7.30255e-25)
(-0.235626 -0.0900421 -7.14409e-25)
(-0.244441 -0.0795866 4.16991e-25)
(-0.259625 -0.0645297 2.6554e-25)
(-0.283801 -0.0341281 1.66278e-25)
(-0.177274 -0.155734 0)
(-0.187176 -0.140515 0)
(-0.194657 -0.129827 -1.05081e-24)
(-0.199494 -0.120447 -1.02139e-24)
(-0.202225 -0.113941 -8.43719e-25)
(-0.201712 -0.107534 -4.60091e-25)
(-0.202411 -0.0978894 -5.29746e-25)
(-0.207181 -0.0881379 0)
(-0.211535 -0.0812215 -5.30197e-25)
(-0.217828 -0.0667974 2.82626e-25)
(-0.234744 -0.0413803 8.66326e-26)
(-0.270434 -0.0020815 1.30457e-25)
(-0.133252 0.00581235 -1.01163e-26)
(-0.131325 0.0141613 0)
(-0.129307 0.0270515 0)
(-0.12934 0.0357674 -1.47509e-27)
(-0.128952 0.0449646 -4.45475e-26)
(-0.128076 0.0540293 0)
(-0.126449 0.0632433 0)
(-0.124108 0.0724295 -5.94739e-26)
(-0.120984 0.0814754 -1.83544e-25)
(-0.117046 0.0902069 -6.26025e-26)
(-0.112264 0.0984414 -9.47537e-27)
(-0.106617 0.105998 -1.68898e-25)
(-0.149223 0.00347269 1.07827e-26)
(-0.150196 0.0121947 0)
(-0.150346 0.0285473 0)
(-0.151067 0.0396526 1.08165e-25)
(-0.151725 0.0520794 -2.2265e-25)
(-0.151709 0.0634857 2.64059e-27)
(-0.151007 0.0748882 7.25421e-26)
(-0.149468 0.0861919 -3.61967e-25)
(-0.146998 0.0972307 -2.48425e-25)
(-0.143529 0.107688 -5.07233e-25)
(-0.139009 0.117211 0)
(-0.133369 0.12538 -1.72305e-35)
(-0.16526 0.00633219 2.42966e-26)
(-0.169212 0.0226179 0)
(-0.172756 0.036479 0)
(-0.171331 0.0509557 2.19161e-25)
(-0.170445 0.0645645 -2.27062e-25)
(-0.169584 0.0774884 2.39982e-25)
(-0.168227 0.0901863 0)
(-0.16606 0.102561 -1.87141e-25)
(-0.163025 0.114333 -1.58062e-25)
(-0.159095 0.125142 -2.70482e-25)
(-0.154282 0.134597 7.06359e-26)
(-0.148663 0.142323 3.71039e-25)
(-0.180259 0.00814126 2.76436e-26)
(-0.17868 0.0300262 -3.70959e-26)
(-0.180928 0.0431342 0)
(-0.183558 0.0587198 1.26397e-25)
(-0.184252 0.0739021 -1.31266e-25)
(-0.183749 0.0883082 2.73265e-25)
(-0.182143 0.102018 0)
(-0.179497 0.115051 2.91578e-25)
(-0.175959 0.127176 -2.15465e-25)
(-0.17171 0.138063 1.17319e-25)
(-0.166907 0.147386 -6.98671e-26)
(-0.161696 0.154879 5.16365e-25)
(-0.195897 0.00774992 3.60709e-26)
(-0.194264 0.0338725 -5.05387e-26)
(-0.195935 0.0520362 -1.21692e-25)
(-0.197342 0.0684122 0)
(-0.197506 0.0837649 3.35176e-25)
(-0.1964 0.0982494 -2.23142e-25)
(-0.193955 0.111994 -3.07777e-25)
(-0.190355 0.125051 3.14717e-25)
(-0.185964 0.137177 0)
(-0.181088 0.148005 0)
(-0.175988 0.157258 0)
(-0.170875 0.164759 1.30138e-24)
(-0.214875 0.0101518 -7.70735e-26)
(-0.215962 0.0383986 0)