/*--------------------------------*- C++ -*----------------------------------*\
| =========                 |                                                 |
| \\      /  F ield         | OpenFOAM: The Open Source CFD Toolbox           |
|  \\    /   O peration     | Version:  v1606+                                |
|   \\  /    A nd           | Web:      www.OpenFOAM.com                      |
|    \\/     M anipulation  |                                                 |
\*---------------------------------------------------------------------------*/
FoamFile
{
    version     2.0;
    format      ascii;
    class       surfaceScalarField;
    location    "0.2";
    object      alphaPhi;
}
// * * * * * * * * * * * * * * * * * * * * * * * * * * * * * * * * * * * * * //

dimensions      [0 3 -1 0 0 0 0];

internalField   nonuniform List<scalar> 
4432
(
2.11775e-06
-2.11775e-06
7.81186e-06
-5.69411e-06
1.41667e-05
-6.35481e-06
2.00683e-05
-5.90166e-06
2.54853e-05
-5.41694e-06
3.06728e-05
-5.18751e-06
3.58471e-05
-5.17434e-06
4.11157e-05
-5.26853e-06
4.64897e-05
-5.37406e-06
5.19147e-05
-5.42496e-06
5.72889e-05
-5.37421e-06
6.24646e-05
-5.17578e-06
6.72368e-05
-4.77211e-06
7.13224e-05
-4.08559e-06
7.42973e-05
-2.97499e-06
7.53415e-05
-1.04415e-06
7.29092e-05
2.4323e-06
6.47334e-05
8.17584e-06
4.88798e-05
1.58536e-05
2.49814e-05
2.38983e-05
-2.24283e-06
2.72427e-05
-1.38392e-05
1.48687e-05
-1.56308e-05
2.16629e-06
-4.28404e-06
7.8617e-06
-1.13895e-05
1.42162e-05
-1.27093e-05
2.01247e-05
-1.18101e-05
2.5548e-05
-1.08402e-05
3.07486e-05
-1.03882e-05
3.59462e-05
-1.03719e-05
4.12446e-05
-1.05669e-05
4.66527e-05
-1.07822e-05
5.21179e-05
-1.08901e-05
5.75425e-05
-1.07988e-05
6.27834e-05
-1.04166e-05
6.76401e-05
-9.62886e-06
7.18339e-05
-8.27939e-06
7.50076e-05
-6.14869e-06
7.69455e-05
-2.98199e-06
7.76844e-05
1.69335e-06
7.70422e-05
8.81806e-06
7.28048e-05
2.0091e-05
6.06917e-05
3.60114e-05
3.83688e-05
4.95656e-05
1.33428e-05
4.02827e-05
-3.40132e-06
2.22906e-06
-6.5131e-06
7.91433e-06
-1.70748e-05
1.42193e-05
-1.90143e-05
2.00763e-05
-1.76671e-05
2.54646e-05
-1.62286e-05
3.06538e-05
-1.55773e-05
3.58608e-05
-1.5579e-05
4.11824e-05
-1.58885e-05
4.66238e-05
-1.62237e-05
5.21348e-05
-1.64011e-05
5.7624e-05
-1.6288e-05
6.29565e-05
-1.57491e-05
6.79426e-05
-1.4615e-05
7.23229e-05
-1.26597e-05
7.57599e-05
-9.58574e-06
7.77961e-05
-5.01814e-06
7.79869e-05
1.50257e-06
7.62834e-05
1.05216e-05
7.33819e-05
2.29925e-05
6.90901e-05
4.03032e-05
5.79045e-05
6.07511e-05
3.27198e-05
6.54676e-05
2.78687e-05
2.32145e-06
-8.83454e-06
8.00491e-06
-2.27583e-05
1.42382e-05
-2.52476e-05
2.00153e-05
-2.34443e-05
2.53546e-05
-2.15679e-05
3.05335e-05
-2.07562e-05
3.57604e-05
-2.08059e-05
4.11209e-05
-2.1249e-05
4.66163e-05
-2.17191e-05
5.22002e-05
-2.19849e-05
5.77898e-05
-2.18777e-05
6.3263e-05
-2.12223e-05
6.84464e-05
-1.97984e-05
7.30969e-05
-1.73102e-05
7.68823e-05
-1.33711e-05
7.93806e-05
-7.51643e-06
8.00891e-05
7.94023e-07
7.85321e-05
1.20786e-05
7.46791e-05
2.68455e-05
6.98643e-05
4.5118e-05
6.22201e-05
6.83952e-05
4.10685e-05
8.66192e-05
6.88524e-05
2.44429e-06
-1.12788e-05
8.12726e-06
-2.84412e-05
1.42634e-05
-3.13838e-05
1.99339e-05
-2.91148e-05
2.5212e-05
-2.68459e-05
3.0382e-05
-2.59262e-05
3.56369e-05
-2.60608e-05
4.10477e-05
-2.66597e-05
4.66116e-05
-2.7283e-05
5.2288e-05
-2.76613e-05
5.80061e-05
-2.75958e-05
6.36612e-05
-2.68774e-05
6.91009e-05
-2.52382e-05
7.41002e-05
-2.23095e-05
7.8338e-05
-1.76089e-05
8.14004e-05
-1.05788e-05
8.28262e-05
-6.31734e-07
8.20985e-05
1.28062e-05
7.85965e-05
3.03476e-05
7.22073e-05
5.15072e-05
6.32583e-05
7.73442e-05
4.38208e-05
0.000106057
0.000113362
2.59809e-06
-1.38769e-05
8.27277e-06
-3.41159e-05
1.42828e-05
-3.73938e-05
1.98229e-05
-3.46548e-05
2.50305e-05
-3.20535e-05
3.01926e-05
-3.10883e-05
3.54798e-05
-3.1348e-05
4.09457e-05
-3.21256e-05
4.65851e-05
-3.29224e-05
5.23655e-05
-3.34417e-05
5.82322e-05
-3.34625e-05
6.41029e-05
-3.2748e-05
6.98491e-05
-3.09844e-05
7.52648e-05
-2.77251e-05
8.00436e-05
-2.23877e-05
8.37836e-05
-1.43188e-05
8.60311e-05
-2.87924e-06
8.62492e-05
1.25882e-05
8.37536e-05
3.28432e-05
7.72677e-05
5.79931e-05
6.63257e-05
8.82861e-05
4.64459e-05
0.000125936
0.0001601
2.77756e-06
-1.66545e-05
8.42751e-06
-3.97659e-05
1.42822e-05
-4.32485e-05
1.96738e-05
-4.00464e-05
2.48054e-05
-3.71852e-05
2.99595e-05
-3.62424e-05
3.5279e-05
-3.66675e-05
4.07995e-05
-3.76461e-05
4.65149e-05
-3.86378e-05
5.24043e-05
-3.93311e-05
5.84334e-05
-3.94916e-05
6.45459e-05
-3.88606e-05
7.06377e-05
-3.70761e-05
7.6523e-05
-3.36105e-05
8.19196e-05
-2.77843e-05
8.6456e-05
-1.88552e-05
8.96804e-05
-6.10369e-06
9.09952e-05
1.12734e-05
8.9711e-05
3.41273e-05
8.43416e-05
6.33625e-05
7.28307e-05
9.9797e-05
5.36871e-05
0.00014508
0.000209639
2.97051e-06
-1.9625e-05
8.57042e-06
-4.53658e-05
1.42501e-05
-4.89282e-05
1.94857e-05
-4.5282e-05
2.45392e-05
-4.22387e-05
2.96834e-05
-4.13866e-05
3.50309e-05
-4.2015e-05
4.06006e-05
-4.32158e-05
4.63884e-05
-4.44256e-05
5.2388e-05
-4.53307e-05
5.85898e-05
-4.56934e-05
6.49642e-05
-4.52349e-05
7.14313e-05
-4.35433e-05
7.78333e-05
-4.00125e-05
8.39188e-05
-3.38697e-05
8.93508e-05
-2.42872e-05
9.37076e-05
-1.04605e-05
9.63348e-05
8.64627e-06
9.65688e-05
3.38933e-05
9.30159e-05
6.69151e-05
8.23622e-05
0.000110451
6.15717e-05
0.00016587
0.000268832
5.02189e-22
-1.33234e-20
1.40458e-21
-1.2447e-20
7.2789e-22
-2.75874e-21
3.87712e-22
-4.28743e-21
1.5194e-22
-1.54024e-21
4.21461e-23
-3.43897e-22
6.89445e-24
-4.26233e-23
7.33921e-25
-3.20317e-24
5.66015e-26
-1.59992e-25
3.31572e-27
-3.4632e-27
1.55494e-28
3.17613e-30
6.15019e-30
3.73458e-31
2.03437e-31
2.07275e-32
5.61414e-33
8.14588e-34
1.22195e-34
2.57024e-35
1.98076e-36
5.96109e-37
2.11138e-38
1.0136e-38
1.11526e-40
1.1006e-40
5.85735e-43
-4.4399e-20
9.85518e-21
-1.08993e-20
-4.308e-19
6.72383e-21
-2.76857e-19
1.08845e-20
-1.56661e-19
4.73631e-21
-4.31604e-20
1.39345e-21
-9.4917e-21
2.49785e-22
-1.25909e-21
2.98208e-23
-1.0593e-22
2.58878e-24
-5.6187e-24
1.71322e-25
-1.37365e-25
9.07933e-27
3.17376e-28
4.01894e-28
4.46262e-29
1.47965e-29
2.77065e-30
4.47366e-31
1.22566e-31
1.07316e-32
4.19554e-33
1.91848e-34
1.08183e-34
2.26549e-36
2.02681e-36
1.31628e-38
2.43796e-38
1.4014e-40
-4.86007e-19
3.41417e-19
-1.02394e-19
-4.91527e-18
1.11374e-19
-3.77456e-18
1.30659e-19
-1.6182e-18
5.67324e-20
-4.51681e-19
1.72733e-20
-1.05151e-19
3.32035e-21
-1.52617e-20
4.32223e-22
-1.43091e-21
4.10169e-23
-8.50739e-23
2.95637e-24
-2.29234e-24
1.69105e-25
9.17102e-27
7.99971e-27
1.35944e-27
3.10307e-28
8.97933e-29
9.73023e-30
4.14663e-30
2.39713e-31
1.44337e-31
4.3492e-33
3.80532e-33
5.18337e-35
7.15058e-35
3.02554e-37
8.65464e-37
4.98189e-39
-3.74591e-18
3.92958e-18
-1.51846e-18
-2.52165e-17
3.50111e-19
-2.57005e-17
7.68158e-19
-8.23134e-18
3.7426e-19
-2.53523e-18
1.24113e-19
-6.57183e-19
2.64008e-20
-1.07499e-19
3.86594e-21
-1.14308e-20
4.09152e-22
-7.61078e-22
3.27937e-23
-2.2501e-23
2.06856e-24
1.57056e-25
1.06577e-25
2.43539e-26
4.44365e-27
1.73352e-27
1.48074e-28
8.48126e-29
3.82279e-30
3.09906e-30
7.20916e-32
8.45259e-32
8.84474e-34
1.63955e-33
5.27553e-36
2.02785e-35
1.18714e-37
-2.2605e-17
2.39515e-17
-1.45564e-17
-1.78932e-16
-4.96898e-19
-7.79297e-17
2.30112e-18
-2.4437e-17
1.49058e-18
-8.70557e-18
5.71312e-19
-2.63765e-18
1.39984e-19
-5.03369e-19
2.33451e-20
-6.09061e-20
2.7932e-21
-4.55544e-21
2.51744e-22
-1.45767e-22
1.77689e-23
1.74987e-24
1.00844e-24
2.91246e-25
4.57282e-26
2.2381e-26
1.6404e-27
1.17087e-27
4.49548e-29
4.56298e-29
8.92066e-31
1.3013e-30
1.14011e-32
2.63754e-32
7.02595e-35
3.37005e-34
2.02568e-36
-1.7123e-16
1.59677e-16
-4.73961e-17
-3.81831e-16
-4.16046e-18
-1.59022e-16
3.31303e-18
-1.08095e-16
3.73288e-18
-2.14317e-17
1.79752e-18
-7.60731e-18
5.27993e-19
-1.73858e-18
1.0139e-19
-2.3783e-19
1.38259e-20
-1.97216e-20
1.4103e-21
-6.70401e-22
1.1153e-22
1.40234e-23
7.00658e-24
2.45042e-24
3.48078e-25
2.04338e-25
1.34836e-26
1.1559e-26
3.9623e-28
4.78457e-28
8.32916e-30
1.4521e-29
1.11921e-31
3.08345e-31
7.20395e-34
4.11455e-33
2.56509e-35
-4.90074e-16
7.54101e-16
-1.43827e-16
2.38478e-16
-3.23169e-17
7.78557e-16
3.15874e-19
5.46487e-16
6.41416e-18
-8.35628e-17
4.18871e-18
-1.90768e-17
1.52086e-18
-4.95045e-18
3.38525e-19
-7.49426e-19
5.17721e-20
-6.58822e-20
5.8926e-21
-2.2603e-21
5.20507e-22
8.0493e-23
3.61646e-23
1.49839e-23
1.97448e-24
1.34784e-24
8.34356e-26
8.27864e-26
2.64e-27
3.69525e-27
5.92487e-29
1.19271e-28
8.4221e-31
2.6837e-30
5.68211e-33
3.7539e-32
2.43294e-34
-3.09993e-15
4.1025e-15
-8.96154e-15
2.40711e-14
-1.90356e-15
-9.86502e-15
-1.65369e-17
-1.90331e-15
1.75547e-17
-9.18597e-17
8.66704e-18
-9.63873e-17
3.74957e-18
-1.41246e-17
9.35505e-19
-2.08111e-18
1.56141e-19
-1.86158e-19
1.93689e-20
-6.0402e-21
1.87762e-21
3.50528e-22
1.43306e-22
6.86783e-23
8.5682e-24
6.68186e-24
3.93549e-25
4.44652e-25
1.34625e-26
2.13352e-26
3.2375e-28
7.39774e-28
4.89714e-30
1.76297e-29
3.48965e-32
2.60544e-31
1.77087e-33
6.83909e-06
-2.64641e-05
1.86867e-05
-5.72133e-05
3.01061e-05
-6.03477e-05
4.06637e-05
-5.58396e-05
5.11556e-05
-5.27306e-05
6.20548e-05
-5.22858e-05
7.34863e-05
-5.34465e-05
8.54565e-05
-5.5186e-05
9.79827e-05
-5.69518e-05
0.000111118
-5.84665e-05
0.000124939
-5.95143e-05
0.00013948
-5.97752e-05
0.000154694
-5.87578e-05
0.000170397
-5.5715e-05
0.00018613
-4.9603e-05
0.000201165
-3.9322e-05
0.00021465
-2.39455e-05
0.000225124
-1.82819e-06
0.000231509
2.75083e-05
0.000231016
6.74078e-05
0.00022185
0.000119617
0.000212879
0.000174841
0.000257818
0.000221454
7.61964e-06
-3.40837e-05
1.90658e-05
-6.86595e-05
2.96016e-05
-7.08834e-05
3.94769e-05
-6.5715e-05
4.96437e-05
-6.28973e-05
6.04504e-05
-6.30925e-05
7.18987e-05
-6.48948e-05
8.3968e-05
-6.72553e-05
9.67335e-05
-6.97173e-05
0.000110365
-7.20978e-05
0.000125077
-7.42267e-05
0.000141074
-7.57718e-05
0.000158606
-7.62904e-05
0.000177764
-7.4872e-05
0.000198123
-6.99627e-05
0.00021889
-6.00872e-05
0.000239145
-4.42002e-05
0.000257414
-2.0097e-05
0.000273255
1.16673e-05
0.00028399
5.6673e-05
0.000292717
0.000110889
0.000302626
0.000164932
0.000233499
0.00032719
8.34443e-06
-4.24281e-05
1.92085e-05
-7.95236e-05
2.87512e-05
-8.04261e-05
3.79569e-05
-7.49207e-05
4.7796e-05
-7.27364e-05
5.84194e-05
-7.3716e-05
6.97272e-05
-7.62025e-05
8.17079e-05
-7.9236e-05
9.45277e-05
-8.25371e-05
0.000108478
-8.60479e-05
0.000123895
-8.96439e-05
0.00014118
-9.3057e-05
0.000161009
-9.61191e-05
0.000183815
-9.76783e-05
0.000209172
-9.53195e-05
0.00023613
-8.70466e-05
0.000264302
-7.23738e-05
0.000291571
-4.73718e-05
0.000318584
-1.69356e-05
0.00033644
3.88162e-05
0.000342016
0.000105313
0.00034442
0.000162528
0.000215334
0.00036258
8.93209e-06
-5.13602e-05
1.90326e-05
-8.96241e-05
2.75641e-05
-8.89576e-05
3.61503e-05
-8.35068e-05
4.56308e-05
-8.22169e-05
5.59377e-05
-8.40229e-05
6.69151e-05
-8.71798e-05
7.85928e-05
-9.09137e-05
9.12263e-05
-9.51706e-05
0.000105131
-9.9953e-05
0.000120662
-0.000105175
0.000138322
-0.000110717
0.000159468
-0.000117264
0.000185011
-0.000123218
0.00021374
-0.000124045
0.000243268
-0.000116575
0.000272066
-0.000101533
0.000258578
-3.88092e-05
0.000217594
-8.28564e-06
0.000164848
3.73571e-06
0.000187541
8.56211e-06
0.000255651
2.4198e-05
9.44132e-05
0.000311026
9.34168e-06
-6.07019e-05
1.852e-05
-9.88024e-05
2.60786e-05
-9.65162e-05
3.40957e-05
-9.1524e-05
4.31518e-05
-9.12729e-05
5.29829e-05
-9.3854e-05
6.34137e-05
-9.76107e-05
7.45075e-05
-0.000102007
8.64827e-05
-0.000107146
9.94675e-05
-0.000112938
0.000113679
-0.000119385
0.000129744
-0.000126778
0.00015058
-0.000138083
0.00017668
-0.000149273
0.000197385
-0.000144666
0.000159658
-6.68148e-05
7.47931e-05
-1.73671e-05
1.05653e-05
-3.45653e-06
2.6249e-06
-3.06537e-07
3.71003e-06
-3.84995e-09
8.78121e-06
6.26101e-07
2.42349e-05
2.20492e-06
5.14052e-06
8.27298e-05
9.57288e-06
-7.02748e-05
1.77008e-05
-0.00010693
2.43582e-05
-0.000103174
3.18338e-05
-9.89995e-05
4.03482e-05
-9.97872e-05
4.94779e-05
-0.000102984
5.90194e-05
-0.000107152
6.89876e-05
-0.000111975
7.93588e-05
-0.000117515
9.00634e-05
-0.000123639
0.000101264
-0.000130571
0.000114534
-0.000140008
0.000134385
-0.000157697
0.000139635
-0.000145343
5.85559e-05
-3.35968e-05
2.02862e-05
-5.28109e-06
3.72171e-06
-7.99905e-07
3.82948e-07
-1.19899e-07
8.45186e-08
-1.11883e-08
8.17529e-08
-2.99218e-10
6.79759e-07
2.93303e-08
2.62733e-06
2.18229e-07
8.39753e-07
6.87428e-06
9.65544e-06
-7.99301e-05
1.65789e-05
-0.000113853
2.23679e-05
-0.000108962
2.92354e-05
-0.000105866
3.69461e-05
-0.000107496
4.4949e-05
-0.000110984
5.30031e-05
-0.000115203
6.10109e-05
-0.000119974
6.88567e-05
-0.000125336
7.68623e-05
-0.0001316
8.5979e-05
-0.000139501
9.67175e-05
-0.00014884
8.32432e-05
-9.65568e-05
3.69266e-05
-1.93441e-05
5.75594e-06
-2.07156e-06
8.81011e-07
-4.20685e-07
1.32477e-07
-6.93228e-08
1.44458e-08
-8.47454e-09
2.79517e-09
-5.45892e-10
2.16296e-09
-2.60342e-11
3.03896e-08
5.26628e-10
2.33871e-07
1.52229e-08
8.6684e-08
8.61674e-07
9.53403e-06
-8.94621e-05
1.50117e-05
-0.000119317
1.98294e-05
-0.000113767
2.58442e-05
-0.000111866
3.22981e-05
-0.000113931
3.862e-05
-0.000117279
4.46873e-05
-0.000121232
5.06054e-05
-0.000125778
5.72269e-05
-0.000131697
6.51184e-05
-0.000135022
6.30761e-05
-9.82063e-05
3.48435e-05
-2.48651e-05
2.08804e-05
-4.00456e-06
2.16645e-06
-5.28371e-07
2.9134e-07
-1.70123e-07
5.40146e-08
-2.04608e-07
7.58421e-09
-2.72275e-08
1.16868e-09
-3.01696e-09
3.78056e-10
-1.52091e-10
1.22779e-10
-2.26601e-11
6.01558e-10
-3.02192e-12
1.55604e-08
7.85121e-10
8.93521e-09
9.64787e-08
9.28815e-06
-9.87168e-05
1.2795e-05
-0.000122674
1.63542e-05
-0.000117185
2.12408e-05
-0.000116582
2.62841e-05
-0.000118743
3.13566e-05
-0.000122038
3.67412e-05
-0.000122581
4.07009e-05
-0.000103041
3.92433e-05
-6.94602e-05
2.59587e-05
-1.4219e-05
2.40142e-05
-2.02721e-06
4.53769e-06
-2.82651e-07
5.99084e-07
-4.23029e-08
7.94396e-08
-5.24906e-09
1.45832e-07
-1.74993e-07
1.9672e-07
-7.62821e-07
8.24223e-09
-9.40632e-08
3.68032e-10
-2.56571e-09
9.14323e-11
-1.24508e-10
5.01772e-11
-3.19094e-11
1.95302e-11
-4.16799e-12
7.63103e-10
2.0436e-11
6.28608e-10
9.28121e-09
9.52013e-06
-9.76654e-05
9.90883e-06
-8.7473e-05
1.22442e-05
-8.32903e-05
1.57656e-05
-7.49045e-05
1.85703e-05
-6.17693e-05
1.97569e-05
-4.57463e-05
1.77795e-05
-1.45336e-05
1.14715e-05
-1.13539e-06
1.47218e-05
-1.2015e-07
2.35726e-06
-1.43245e-08
3.23237e-07
-1.28046e-09
5.00289e-08
-9.08428e-09
1.01668e-08
-4.71688e-09
6.47994e-09
-2.2531e-09
2.44159e-07
-3.42091e-07
5.14467e-07
-7.63897e-07
2.13739e-08
-2.25351e-07
5.53455e-10
-1.24634e-09
6.48049e-11
7.70368e-11
1.85953e-11
-1.76781e-11
5.01561e-12
-1.36968e-12
2.46884e-11
-1.19096e-14
-2.30302e-11
7.02749e-10
5.01823e-06
1.73236e-17
3.06333e-06
1.56042e-16
4.24393e-06
9.02841e-16
4.34174e-06
4.71286e-15
3.57484e-06
9.90896e-15
4.30037e-06
1.55076e-14
1.27149e-06
2.97106e-14
1.36165e-07
2.5378e-15
1.58128e-08
-7.13765e-13
1.51356e-09
-2.65602e-11
1.21819e-09
-1.18296e-09
3.12504e-09
-9.63163e-09
4.49294e-09
-5.55059e-09
3.63004e-09
-2.37193e-09
3.18624e-07
-2.65968e-07
4.69099e-07
-6.45864e-07
7.01955e-08
-3.01304e-07
4.25637e-10
1.97727e-09
2.63705e-11
2.85346e-10
3.09498e-12
-4.79211e-12
1.85659e-12
-5.03699e-13
1.69314e-12
-6.13482e-14
-1.33184e-12
3.51616e-10
-2.02107e-18
3.14588e-16
-3.52394e-17
1.65346e-15
-3.03247e-16
9.59952e-15
-2.14958e-15
4.81358e-14
-5.85652e-15
9.56329e-14
-1.04346e-14
1.32058e-13
-2.16948e-14
1.02405e-13
-2.0471e-15
-6.76125e-15
8.68623e-14
-7.86743e-13
1.04744e-11
-3.6422e-11
2.06475e-09
-3.16439e-09
1.07129e-08
-1.71126e-08
1.31853e-08
-9.25796e-09
1.37012e-08
-3.57685e-09
2.54256e-07
-1.38702e-07
3.91366e-07
-5.13203e-07
6.77076e-08
-2.84431e-07
3.40496e-11
5.3435e-09
8.67791e-12
2.22559e-10
9.5461e-13
-2.01742e-13
3.29513e-13
-6.56019e-14
1.73407e-13
-9.67548e-14
-4.30965e-12
1.04066e-10
-1.74695e-17
4.89059e-16
-2.70552e-16
2.64815e-15
-2.7137e-15
1.55435e-14
-1.73179e-14
7.39237e-14
-4.10918e-14
1.39684e-13
-6.30263e-14
1.6065e-13
-5.21837e-14
8.32079e-14
2.4365e-14
-8.39444e-14
2.70922e-12
-3.47113e-12
1.66724e-10
-1.92812e-10
1.70139e-08
-2.00452e-08
6.01217e-08
-1.7684e-07
4.72992e-08
-1.22734e-07
4.63443e-08
-4.53344e-09
1.78742e-07
-7.95695e-08
3.20774e-07
-3.8205e-07
2.8479e-08
-1.35042e-07
-1.65219e-10
3.09828e-09
3.68573e-13
4.60503e-11
1.27538e-13
-5.53486e-15
2.37367e-14
-6.58006e-14
1.30043e-13
-3.6938e-13
-1.10771e-11
1.8902e-11
-2.55514e-17
4.77117e-16
-3.10609e-16
2.79479e-15
-2.88148e-15
1.65187e-14
-1.73868e-14
7.51955e-14
-3.78984e-14
1.29366e-13
-4.73282e-14
1.20346e-13
-2.5905e-14
1.69978e-14
2.7875e-13
-3.90114e-13
1.52032e-11
-1.82372e-11
8.99432e-10
-1.07615e-09
3.60253e-08
-1.13118e-07
8.70799e-08
-2.18302e-07
7.16687e-08
-1.4977e-07
5.71993e-08
-2.58891e-09
1.13924e-07
-5.08535e-08
1.89417e-07
-1.919e-07
-8.36957e-10
7.82408e-09
-4.39888e-11
4.79862e-10
-5.3682e-14
2.15743e-12
-4.22606e-14
-5.08782e-15
-5.07558e-14
-1.0773e-13
5.23659e-13
-9.085e-13
-2.10625e-11
1.14796e-11
-2.23818e-17
3.32236e-16
-2.00327e-16
2.1742e-15
-1.74486e-15
1.30755e-14
-9.85718e-15
5.58174e-14
-1.87218e-14
8.54287e-14
-1.772e-14
5.18124e-14
-2.4204e-15
-2.8951e-14
1.52529e-12
-1.82586e-12
7.36608e-11
-9.07811e-11
4.06569e-09
-5.06357e-09
9.97169e-09
-1.55648e-07
5.36411e-09
-2.02737e-07
3.61791e-09
-1.37316e-07
9.90453e-09
-1.93783e-08
5.76836e-08
-6.56765e-08
-3.36787e-08
-4.49627e-08
-4.52441e-10
3.03477e-09
-2.40802e-12
2.99253e-11
-2.07676e-13
3.69417e-14
-5.23034e-14
-4.63464e-15
9.17594e-14
-1.89329e-13
5.12797e-12
-4.12043e-12
-7.44965e-11
5.57537e-11
-9.59531e-18
1.67024e-16
-6.97151e-17
1.27115e-15
-5.68628e-16
7.84418e-15
-2.66415e-15
2.96443e-14
-3.52267e-15
3.72243e-14
-1.20165e-15
-5.31733e-15
1.49962e-15
-3.38311e-14
1.54396e-12
-1.33598e-12
-3.0396e-11
-6.63355e-11
-3.13627e-09
-1.91066e-09
-4.30914e-08
-4.97881e-08
-6.63857e-08
-1.69795e-07
-3.46262e-08
-1.58369e-07
-3.49957e-08
-3.89377e-08
-1.02292e-07
-3.92009e-09
-2.95288e-09
6.06154e-09
-2.90921e-11
8.33759e-11
-1.09873e-13
9.6541e-13
-7.30265e-14
3.91493e-15
-3.66576e-14
-1.00262e-14
4.36169e-13
-3.4275e-13
5.82579e-12
-5.92287e-12
-7.87371e-11
5.93041e-11
-1.29965e-18
6.08486e-17
-1.20537e-18
5.74723e-16
1.66451e-16
3.36416e-15
6.82465e-16
9.89287e-15
-2.14289e-16
7.28558e-15
-1.22189e-16
-2.46262e-14
5.01315e-14
-1.35758e-13
-1.13526e-12
-1.38971e-13
-5.51133e-11
4.24007e-15
-2.08037e-09
-1.55934e-14
-2.90629e-08
-4.66313e-14
-7.85067e-08
-2.48442e-12
-8.17708e-08
-1.41851e-11
-2.42237e-09
-8.07826e-11
-6.14525e-09
-6.33655e-11
-8.29823e-11
8.18134e-11
-8.65111e-13
1.44352e-12
-5.23087e-14
7.06524e-15
-6.94652e-14
4.91703e-16
-6.24134e-14
-1.04208e-14
-6.7599e-14
-2.19199e-13
-1.74955e-12
-3.17191e-12
-3.83417e-11
-3.25556e-11
5.15434e-18
1.26253e-17
8.81276e-17
1.28679e-16
4.43262e-16
6.73691e-16
5.09482e-16
1.46068e-15
-3.25526e-15
-1.11675e-15
-2.08245e-14
-3.90534e-14
-2.80636e-14
-1.36394e-13
1.20908e-15
-1.06069e-13
-1.34882e-15
1.19581e-14
-2.97412e-14
7.55677e-15
-1.76526e-13
-3.59881e-14
-2.485e-12
-1.56632e-13
-1.61194e-11
-3.34816e-13
-9.39346e-11
-1.73984e-12
-8.85324e-11
-5.40026e-12
-1.47639e-12
3.184e-14
-1.78826e-14
1.39404e-15
-1.24034e-14
-3.91394e-17
-1.5318e-14
-3.9321e-16
-4.09927e-14
-4.85148e-15
-2.94354e-13
-6.3259e-14
-3.48636e-12
-7.64902e-13
-7.74345e-12
-4.06053e-11
2.76341e-18
-2.1468e-20
3.18951e-17
-4.99276e-19
1.11575e-16
-6.18681e-18
-1.22104e-16
-5.59572e-17
-1.8152e-15
-3.73297e-16
-2.81446e-14
-1.5198e-14
-2.62966e-14
-4.35659e-14
4.28371e-15
-5.26187e-14
3.66362e-15
-1.09943e-14
-1.97894e-14
-2.61481e-14
-2.42852e-14
-1.17672e-13
-5.92253e-14
-1.67966e-13
-2.50188e-13
-1.3297e-13
-1.65926e-12
-1.13158e-13
-3.50458e-14
-1.72355e-16
-2.63488e-15
-1.81682e-16
-1.15657e-15
-7.31638e-17
-2.18145e-15
-8.83634e-17
-6.73828e-15
-2.11753e-16
-8.20636e-15
-9.12707e-16
-1.48396e-13
-8.39783e-15
-1.37412e-12
-9.04771e-14
-7.48799e-13
-1.32421e-11
-1.53696e-20
-1.10851e-20
-3.98949e-19
-2.19739e-19
-5.62386e-18
-1.96014e-18
-5.35908e-17
-9.9642e-18
-4.30452e-16
-2.92607e-17
-1.09879e-14
-5.41164e-17
-1.29157e-14
-1.42333e-16
-4.32785e-15
-3.86176e-16
-6.46168e-15
-1.71151e-15
-5.39697e-14
-1.99499e-14
-1.72084e-13
-8.99596e-14
-1.83027e-13
-8.86657e-14
-1.48621e-13
-8.77727e-14
-4.56587e-16
-1.2099e-14
-4.24279e-16
-1.51296e-16
-5.35141e-16
-9.634e-17
-7.31136e-16
-7.40694e-17
-1.4424e-15
-5.76883e-17
-1.70697e-15
-7.18166e-17
-6.01479e-15
-2.09733e-16
-1.65157e-14
-6.63955e-16
-1.71798e-13
-5.22996e-15
-2.34891e-14
-1.55764e-12
-8.30186e-21
-3.36676e-21
-1.52658e-19
-6.26876e-20
-1.20564e-18
-5.38974e-19
-4.94015e-18
-2.94072e-18
-1.07644e-17
-1.17801e-17
-2.27299e-17
-3.72308e-17
-1.01383e-16
-9.40521e-17
-5.18423e-16
-1.8744e-16
-2.6809e-15
-3.00409e-16
-3.40966e-14
-3.88088e-16
-8.63164e-14
-4.35609e-16
-9.47169e-14
-3.92171e-16
-2.27771e-14
-3.84131e-16
-4.22547e-16
-3.28316e-16
-3.39978e-16
-2.72972e-16
-3.33149e-16
-8.69748e-17
-3.4698e-16
-5.14761e-17
-5.47959e-16
-2.95741e-17
-1.0987e-15
-2.92195e-17
-1.20634e-15
-4.13557e-17
-4.79247e-15
-1.08488e-16
-2.26796e-14
-1.75785e-16
2.40775e-16
-2.02635e-13
-2.69695e-21
-9.39378e-22
-4.74953e-20
-1.99884e-20
-3.99849e-19
-2.03037e-19
-2.21657e-18
-1.333e-18
-9.18115e-18
-6.34963e-18
-2.94997e-17
-2.30467e-17
-7.34025e-17
-6.47794e-17
-1.40995e-16
-1.41686e-16
-2.12873e-16
-2.42692e-16
-2.61882e-16
-3.30072e-16
-3.0719e-16
-3.65533e-16
-3.56368e-16
-3.43814e-16
-4.67165e-16
-2.85468e-16
-5.82408e-16
-2.11159e-16
-2.70571e-16
-1.5965e-16
-1.85907e-16
-6.16715e-17
-1.42905e-16
-2.88313e-17
-1.85144e-16
-1.29659e-17
-3.45229e-16
-9.76606e-18
-8.23862e-16
-1.09353e-17
-9.04124e-16
-1.31866e-17
-8.59448e-15
1.41384e-18
3.3585e-16
-4.737e-14
-9.3701e-22
-1.99517e-22
-1.94295e-20
-5.08168e-21
-1.95997e-19
-6.1816e-20
-1.28535e-18
-4.79391e-19
-6.07478e-18
-2.63164e-18
-2.15507e-17
-1.07448e-17
-5.84225e-17
-3.34777e-17
-1.22751e-16
-8.07807e-17
-2.03954e-16
-1.52352e-16
-2.76833e-16
-2.25826e-16
-3.22579e-16
-2.63656e-16
-3.39017e-16
-2.49502e-16
-3.16892e-16
-1.79023e-16
-2.35735e-16
-1.13205e-16
-1.50523e-16
-6.59609e-17
-9.09926e-17
-3.22208e-17
-5.40294e-17
-1.24794e-17
-5.50792e-17
-5.21785e-18
-9.07164e-17
-2.90142e-18
-2.10409e-16
-2.44926e-18
-5.70384e-16
-2.32551e-18
-7.57922e-16
1.29343e-17
6.20123e-17
-5.96278e-15
-2.51846e-22
-3.28868e-23
-6.24271e-21
-9.69406e-22
-7.41863e-20
-1.34272e-20
-5.58741e-19
-1.16747e-19
-2.95766e-18
-7.10029e-19
-1.15676e-17
-3.1932e-18
-3.43754e-17
-1.09713e-17
-7.90075e-17
-2.94023e-17
-1.42109e-16
-6.22639e-17
-2.01432e-16
-1.04814e-16
-2.25701e-16
-1.40084e-16
-2.05288e-16
-1.47281e-16
-1.61158e-16
-1.19883e-16
-1.1731e-16
-7.56446e-17
-7.20271e-17
-4.18387e-17
-3.5652e-17
-1.87374e-17
-1.95772e-17
-6.8169e-18
-1.51744e-17
-2.18966e-18
-2.00677e-17
-8.16895e-19
-4.5545e-17
-4.66529e-19
-1.34416e-16
-3.3511e-19
-4.17658e-16
4.91353e-18
5.09892e-17
-9.31054e-16
-4.9702e-23
-2.51077e-24
-1.40128e-21
-7.90134e-23
-1.86374e-20
-1.16255e-21
-1.55132e-19
-1.07133e-20
-9.01653e-19
-6.91126e-20
-3.87328e-18
-3.30994e-19
-1.27199e-17
-1.21975e-18
-3.26232e-17
-3.54301e-18
-6.61615e-17
-8.25665e-18
-1.06481e-16
-1.5666e-17
-1.35176e-16
-2.45843e-17
-1.33527e-16
-3.25343e-17
-1.02942e-16
-3.67819e-17
-7.01043e-17
-3.43988e-17
-3.9046e-17
-2.38347e-17
-1.80389e-17
-1.20525e-17
-7.62472e-18
-4.16922e-18
-4.02005e-18
-9.51964e-19
-3.76987e-18
-2.16626e-19
-7.58969e-18
-8.06522e-20
-2.39971e-17
-4.00268e-20
-8.05452e-17
1.08242e-18
1.08195e-17
-2.62241e-16
-4.12297e-24
-4.26344e-26
-1.23368e-22
-1.5176e-24
-1.73701e-21
-2.54414e-23
-1.53085e-20
-2.69686e-22
-9.45235e-20
-2.02394e-21
-4.3419e-19
-1.14207e-20
-1.53996e-18
-5.02813e-20
-4.32777e-18
-1.77042e-19
-9.83831e-18
-5.07174e-19
-1.84613e-17
-1.19583e-18
-2.92485e-17
-2.33651e-18
-3.97288e-17
-3.79054e-18
-4.49083e-17
-5.08503e-18
-3.79447e-17
-5.57038e-18
-2.37046e-17
-4.85465e-18
-1.03688e-17
-3.1931e-18
-3.12408e-18
-1.41114e-18
-1.01129e-18
-3.19012e-19
-6.33422e-19
-4.98921e-20
-9.79352e-19
-1.28657e-20
-3.19872e-18
-4.19334e-21
-1.16367e-17
1.58827e-19
1.64995e-18
-3.9673e-17
-7.95424e-26
-1.11135e-28
-2.70943e-24
-4.64223e-27
-4.38434e-23
-9.21336e-26
-4.48889e-22
-1.16862e-24
-3.25964e-21
-1.06165e-23
-1.78458e-20
-7.34048e-23
-7.65002e-20
-4.00914e-22
-2.63351e-19
-1.77267e-21
-7.4074e-19
-6.45229e-21
-1.72126e-18
-1.9547e-20
-3.32133e-18
-4.95996e-20
-5.31502e-18
-1.05634e-19
-6.98657e-18
-1.88244e-19
-7.3763e-18
-2.77708e-19
-5.96661e-18
-3.31182e-19
-3.32502e-18
-3.03641e-19
-9.90857e-19
-1.91633e-19
-2.20944e-19
-6.42915e-20
-9.68743e-20
-8.97367e-21
-1.02907e-19
-1.80747e-21
-3.2408e-19
-4.0554e-22
-1.27083e-18
1.65948e-20
1.85366e-19
-4.53383e-18
-2.41621e-28
-3.02639e-31
-9.7365e-27
-1.41204e-29
-1.88389e-25
-3.12649e-28
-2.33231e-24
-4.42452e-27
-2.07213e-23
-4.48798e-26
-1.40462e-22
-3.47013e-25
-7.54289e-22
-2.12454e-24
-3.28954e-21
-1.05676e-23
-1.18464e-20
-4.3501e-23
-3.56027e-20
-1.50271e-22
-8.97677e-20
-4.40466e-22
-1.89848e-19
-1.10577e-21
-3.34276e-19
-2.39652e-21
-4.80571e-19
-4.50705e-21
-5.39886e-19
-7.32919e-21
-4.28509e-19
-1.00276e-20
-1.89157e-19
-1.06223e-20
-3.76581e-20
-6.93901e-21
-1.28575e-20
-1.15692e-21
-9.33322e-21
-2.08567e-22
-2.5675e-20
-3.68381e-23
-1.08211e-19
1.29224e-21
1.59695e-20
-4.03471e-19
-7.22005e-31
-1.61489e-34
-3.24457e-29
-8.76225e-33
-7.00025e-28
-2.28694e-31
-9.66854e-27
-3.87865e-30
-9.59444e-26
-4.80205e-29
-7.27909e-25
-4.62296e-28
-4.38895e-24
-3.59898e-27
-2.15974e-23
-2.32646e-26
-8.84418e-23
-1.27228e-25
-3.06017e-22
-5.96616e-25
-9.06131e-22
-2.42216e-24
-2.32167e-21
-8.56631e-24
-5.19141e-21
-2.64451e-23
-1.01401e-20
-7.09263e-23
-1.69454e-20
-1.62457e-22
-2.25086e-20
-3.05008e-22
-1.92971e-20
-4.29039e-22
-4.57374e-21
-3.67325e-22
-1.39142e-21
-1.00234e-22
-7.57271e-22
-1.87937e-23
-1.62792e-21
-3.02707e-24
-7.37244e-21
7.74057e-23
1.08953e-21
-2.88122e-20
-4.35472e-34
-1.45689e-37
-2.30689e-32
-9.38612e-36
-5.96246e-31
-2.88754e-34
-1.00454e-29
-5.73692e-33
-1.23997e-28
-8.27004e-32
-1.19472e-27
-9.21822e-31
-9.34699e-27
-8.27059e-30
-6.09891e-26
-6.14335e-29
-3.38276e-25
-3.85992e-28
-1.61703e-24
-2.08805e-27
-6.72624e-24
-9.87613e-27
-2.44746e-23
-4.13804e-26
-7.78134e-23
-1.54897e-25
-2.13465e-22
-5.17358e-25
-4.88086e-22
-1.51378e-24
-8.58788e-22
-3.71211e-24
-9.61308e-22
-7.02407e-24
-3.70926e-22
-8.84333e-24
-1.15679e-22
-5.56029e-24
-5.47891e-23
-1.27301e-24
-8.42156e-23
-2.18604e-25
-4.09514e-22
3.6585e-24
6.02979e-23
-1.68792e-21
-4.48519e-37
-2.98624e-41
-2.80169e-35
-2.08855e-39
-8.48118e-34
-7.03376e-38
-1.66298e-32
-1.55025e-36
-2.37498e-31
-2.52437e-35
-2.63453e-30
-3.25307e-34
-2.36544e-29
-3.47069e-33
-1.77058e-28
-3.16581e-32
-1.13084e-27
-2.52774e-31
-6.28471e-27
-1.79694e-30
-3.09005e-26
-1.15027e-29
-1.36009e-25
-6.66985e-29
-5.37199e-25
-3.50423e-28
-1.87784e-24
-1.65686e-27
-5.5934e-24
-6.93452e-27
-1.32023e-23
-2.4894e-26
-2.16464e-23
-7.24053e-26
-1.91067e-23
-1.53463e-25
-7.20256e-24
-1.87859e-25
-3.38158e-24
-6.32478e-26
-3.61966e-24
-1.30628e-26
-1.88107e-23
1.39153e-25
2.7571e-24
-8.24451e-23
-9.48933e-41
-6.95157e-45
-6.49248e-39
-6.57587e-43
-2.18013e-37
-2.99083e-41
-4.82716e-36
-8.8848e-40
-7.96549e-35
-1.94189e-38
-1.04985e-33
-3.33607e-37
-1.15633e-32
-4.70128e-36
-1.09853e-31
-5.60198e-35
-9.20653e-31
-5.775e-34
-6.91303e-30
-5.24196e-33
-4.69521e-29
-4.24389e-32
-2.89488e-28
-3.08814e-31
-1.61529e-27
-2.02216e-30
-8.05915e-27
-1.18322e-29
-3.50574e-26
-6.07783e-29
-1.2682e-25
-2.65354e-28
-3.48523e-25
-9.31987e-28
-5.95564e-25
-2.3913e-27
-3.25072e-25
-3.71368e-27
-1.70249e-25
-2.26887e-27
-1.318e-25
-6.19042e-28
-7.22791e-25
4.25027e-27
1.05661e-25
-3.39924e-24
-2.80751e-44
-1.51323e-48
-2.59513e-42
-1.58768e-46
-1.17449e-40
-8.03479e-45
-3.48944e-39
-2.67492e-43
-7.67233e-38
-6.63232e-42
-1.33473e-36
-1.31649e-40
-1.91875e-35
-2.19766e-39
-2.35096e-34
-3.19737e-38
-2.51265e-33
-4.15571e-37
-2.38288e-32
-4.89359e-36
-2.02784e-31
-5.2423e-35
-1.55572e-30
-5.08843e-34
-1.07232e-29
-4.43084e-33
-6.55348e-29
-3.41057e-32
-3.45927e-28
-2.27443e-31
-1.50661e-27
-1.27755e-30
-4.99331e-27
-5.79638e-30
-1.0746e-26
-1.98787e-29
-1.04675e-26
-4.60234e-29
-6.84997e-27
-5.78722e-29
-4.13064e-27
-2.29429e-29
-2.34478e-26
1.05637e-28
3.44158e-27
-1.19453e-25
-6.28629e-48
-6.60243e-53
-6.46576e-46
-9.30455e-51
-3.2789e-44
-6.40774e-49
-1.10477e-42
-2.9342e-47
-2.80526e-41
-1.007e-45
-5.7773e-40
-2.76736e-44
-1.01324e-38
-6.35136e-43
-1.56378e-37
-1.25283e-41
-2.16588e-36
-2.16693e-40
-2.71461e-35
-3.3314e-39
-3.07748e-34
-4.59045e-38
-3.13508e-33
-5.69008e-37
-2.83826e-32
-6.33977e-36
-2.24798e-31
-6.31429e-35
-1.52338e-30
-5.5588e-34
-8.54681e-30
-4.24271e-33
-3.77121e-29
-2.71811e-32
-1.20192e-28
-1.38226e-31
-2.37277e-28
-5.03203e-31
-2.13275e-28
-1.05126e-30
-1.1349e-28
-6.59978e-31
-6.48291e-28
2.05144e-30
9.65317e-29
-3.60689e-27
-3.36265e-52
-1.69143e-56
-4.70532e-50
-2.9205e-54
-3.28136e-48
-2.45481e-52
-1.52979e-46
-1.36949e-50
-5.37549e-45
-5.72401e-49
-1.52113e-43
-1.91715e-47
-3.61436e-42
-5.37044e-46
-7.41698e-41
-1.29526e-44
-1.3399e-39
-2.74403e-43
-2.15785e-38
-5.17472e-42
-3.12038e-37
-8.75594e-41
-4.06221e-36
-1.33365e-39
-4.75191e-35
-1.82629e-38
-4.96052e-34
-2.23506e-37
-4.55891e-33
-2.41612e-36
-3.60221e-32
-2.26241e-35
-2.34774e-31
-1.77793e-34
-1.16886e-30
-1.11282e-33
-3.78348e-30
-5.05896e-33
-5.15308e-30
-1.3933e-32
-2.7549e-30
-1.46348e-32
-1.54121e-29
2.80034e-32
2.36682e-30
-9.42107e-29
-9.43329e-56
-1.62644e-60
-1.61145e-53
-3.50569e-58
-1.36908e-51
-3.7019e-56
-7.77142e-50
-2.61709e-54
-3.32681e-48
-1.39818e-52
-1.14838e-46
-6.0288e-51
-3.33408e-45
-2.18444e-49
-8.37351e-44
-6.82627e-48
-1.85392e-42
-1.87113e-46
-3.66277e-41
-4.54705e-45
-6.5016e-40
-9.85554e-44
-1.0391e-38
-1.90957e-42
-1.49174e-37
-3.30321e-41
-1.90945e-36
-5.0752e-40
-2.14923e-35
-6.85795e-39
-2.0783e-34
-8.01751e-38
-1.66125e-33
-7.89972e-37
-1.02714e-32
-6.28697e-36
-4.33591e-32
-3.7562e-35
-9.49218e-32
-1.4615e-34
-5.92758e-32
-2.54764e-34
-3.18272e-31
1.07378e-34
5.16143e-32
-2.14093e-30
-9.81268e-60
-4.17711e-65
-2.11291e-57
-1.27971e-62
-2.27712e-55
-1.91039e-60
-1.65248e-53
-1.90471e-58
-9.10523e-52
-1.42777e-56
-4.06367e-50
-8.5652e-55
-1.52771e-48
-4.2715e-53
-4.9607e-47
-1.81566e-51