/*--------------------------------*- C++ -*----------------------------------*\
| =========                 |                                                 |
| \\      /  F ield         | OpenFOAM: The Open Source CFD Toolbox           |
|  \\    /   O peration     | Version:  v1606+                                |
|   \\  /    A nd           | Web:      www.OpenFOAM.com                      |
|    \\/     M anipulation  |                                                 |
\*---------------------------------------------------------------------------*/
FoamFile
{
    version     2.0;
    format      ascii;
    class       surfaceScalarField;
    location    "0.2";
    object      phi;
}
// * * * * * * * * * * * * * * * * * * * * * * * * * * * * * * * * * * * * * //

dimensions      [0 3 -1 0 0 0 0];

internalField   nonuniform List<scalar> 
4432
(
2.03311e-06
-2.03311e-06
7.67324e-06
-5.64013e-06
1.40099e-05
-6.33662e-06
1.9898e-05
-5.88815e-06
2.52865e-05
-5.38851e-06
3.04276e-05
-5.14108e-06
3.55416e-05
-5.11397e-06
4.07405e-05
-5.19897e-06
4.60389e-05
-5.29836e-06
5.13833e-05
-5.34439e-06
5.66726e-05
-5.28934e-06
6.17601e-05
-5.08742e-06
6.64419e-05
-4.68186e-06
7.04376e-05
-3.99566e-06
7.33276e-05
-2.88999e-06
7.42834e-05
-9.55794e-07
7.17543e-05
2.52906e-06
6.35002e-05
8.25414e-06
4.76148e-05
1.58854e-05
2.38383e-05
2.37764e-05
-3.04329e-06
2.68816e-05
-1.85549e-05
1.55116e-05
-1.85549e-05
2.08215e-06
-4.11526e-06
7.72485e-06
-1.12828e-05
1.40612e-05
-1.2673e-05
1.99556e-05
-1.17826e-05
2.53501e-05
-1.0783e-05
3.05042e-05
-1.02952e-05
3.56415e-05
-1.02514e-05
4.08708e-05
-1.04282e-05
4.62037e-05
-1.06313e-05
5.15886e-05
-1.07293e-05
5.69284e-05
-1.06291e-05
6.20807e-05
-1.02397e-05
6.68468e-05
-9.44795e-06
7.0951e-05
-8.09991e-06
7.40396e-05
-5.97854e-06
7.59224e-05
-2.83864e-06
7.66491e-05
1.80232e-06
7.59994e-05
8.90384e-06
7.17114e-05
2.01734e-05
5.94952e-05
3.59926e-05
3.72282e-05
4.91486e-05
1.32205e-05
3.95194e-05
-5.33443e-06
2.14648e-06
-6.26174e-06
7.78096e-06
-1.69173e-05
1.4068e-05
-1.896e-05
1.99098e-05
-1.76243e-05
2.52681e-05
-1.61413e-05
3.04101e-05
-1.54372e-05
3.55572e-05
-1.53984e-05
4.08102e-05
-1.56813e-05
4.61771e-05
-1.59981e-05
5.16081e-05
-1.61603e-05
5.70123e-05
-1.60333e-05
6.22554e-05
-1.54828e-05
6.71495e-05
-1.4342e-05
7.14381e-05
-1.23886e-05
7.47898e-05
-9.33025e-06
7.67517e-05
-4.80055e-06
7.68977e-05
1.65631e-06
7.52143e-05
1.05873e-05
7.24213e-05
2.29665e-05
6.82202e-05
4.01937e-05
5.70412e-05
6.03276e-05
3.2252e-05
6.43086e-05
2.69176e-05
2.24144e-06
-8.50318e-06
7.87668e-06
-2.25525e-05
1.40923e-05
-2.51756e-05
1.98526e-05
-2.33846e-05
2.51601e-05
-2.14489e-05
3.02912e-05
-2.05682e-05
3.54584e-05
-2.05657e-05
4.07514e-05
-2.09742e-05
4.61731e-05
-2.14199e-05
5.16774e-05
-2.16646e-05
5.71816e-05
-2.15375e-05
6.2564e-05
-2.08652e-05
6.76528e-05
-1.94308e-05
7.2208e-05
-1.69437e-05
7.59028e-05
-1.30251e-05
7.83216e-05
-7.21938e-06
7.89741e-05
1.00384e-06
7.74056e-05
1.21557e-05
7.36391e-05
2.67329e-05
6.90337e-05
4.47991e-05
6.15628e-05
6.77984e-05
4.05758e-05
8.52957e-05
6.74934e-05
2.36777e-06
-1.08709e-05
8.00559e-06
-2.81904e-05
1.41242e-05
-3.12942e-05
1.97757e-05
-2.90361e-05
2.50199e-05
-2.66931e-05
3.01413e-05
-2.56896e-05
3.53371e-05
-2.57615e-05
4.06815e-05
-2.63186e-05
4.61727e-05
-2.69111e-05
5.17698e-05
-2.72617e-05
5.74018e-05
-2.71695e-05
6.2964e-05
-2.64275e-05
6.83054e-05
-2.47722e-05
7.32043e-05
-2.18426e-05
7.73451e-05
-1.71659e-05
8.03207e-05
-1.01949e-05
8.16782e-05
-3.53677e-07
8.09218e-05
1.29122e-05
7.74583e-05
3.01964e-05
7.12544e-05
5.1003e-05
6.25875e-05
7.64652e-05
4.33664e-05
0.000104517
0.00011086
2.52577e-06
-1.33967e-05
8.1587e-06
-3.38233e-05
1.41511e-05
-3.72866e-05
1.96696e-05
-3.45546e-05
2.4841e-05
-3.18645e-05
2.99539e-05
-3.08025e-05
3.51829e-05
-3.09905e-05
4.05839e-05
-3.17196e-05
4.61517e-05
-3.24789e-05
5.1853e-05
-3.2963e-05
5.76326e-05
-3.29491e-05
6.34078e-05
-3.22027e-05
6.90513e-05
-3.04157e-05
7.43603e-05
-2.71516e-05
7.90338e-05
-2.18394e-05
8.26751e-05
-1.38362e-05
8.48385e-05
-2.51712e-06
8.50062e-05
1.27444e-05
8.25217e-05
3.2681e-05
7.61687e-05
5.73559e-05
6.55259e-05
8.7108e-05
4.59511e-05
0.000124092
0.000156811
2.70993e-06
-1.61066e-05
8.32193e-06
-3.94353e-05
1.41587e-05
-4.31234e-05
1.95259e-05
-3.99219e-05
2.46192e-05
-3.69577e-05
2.97237e-05
-3.5907e-05
3.49863e-05
-3.62531e-05
4.04437e-05
-3.7177e-05
4.60889e-05
-3.8124e-05
5.18994e-05
-3.87736e-05
5.784e-05
-3.88897e-05
6.3854e-05
-3.82166e-05
6.98381e-05
-3.63998e-05
7.56098e-05
-3.29233e-05
8.08901e-05
-2.71197e-05
8.53109e-05
-1.8257e-05
8.84292e-05
-5.63545e-06
8.96654e-05
1.15083e-05
8.83683e-05
3.39781e-05
8.30949e-05
6.26293e-05
7.18542e-05
9.83488e-05
5.30768e-05
0.000142869
0.000209888
2.90796e-06
-1.90146e-05
8.47413e-06
-4.50015e-05
1.41352e-05
-4.87845e-05
1.93438e-05
-4.51305e-05
2.43572e-05
-4.19711e-05
2.94523e-05
-4.10021e-05
3.47448e-05
-4.15456e-05
4.02535e-05
-4.26857e-05
4.59725e-05
-4.3843e-05
5.18935e-05
-4.46946e-05
5.80054e-05
-4.50017e-05
6.42781e-05
-4.44892e-05
7.06326e-05
-4.27544e-05
7.69137e-05
-3.92044e-05
8.28707e-05
-3.30767e-05
8.81673e-05
-2.35536e-05
9.23894e-05
-9.85758e-06
9.48966e-05
9.00112e-06
9.50737e-05
3.38009e-05
9.15901e-05
6.61129e-05
8.12175e-05
0.000108721
6.09093e-05
0.000163177
0.000270797
8.53181e-07
-8.53182e-07
1.18163e-06
-3.28419e-07
1.317e-06
-1.35424e-07
1.93207e-06
-6.14918e-07
2.82379e-06
-8.9166e-07
3.80915e-06
-9.8523e-07
4.68487e-06
-8.75848e-07
5.3357e-06
-6.50756e-07
5.74652e-06
-4.10744e-07
5.89126e-06
-1.44774e-07
5.78256e-06
1.088e-07
5.45891e-06
3.23549e-07
4.95975e-06
4.99166e-07
4.33355e-06
6.26254e-07
3.58278e-06
7.50775e-07
2.75472e-06
8.27792e-07
1.86228e-06
8.92399e-07
9.37554e-07
9.24962e-07
9.37253e-07
-9.00361e-07
4.71199e-08
-2.58082e-07
-9.70494e-07
5.59364e-07
-9.5283e-07
1.76736e-06
-1.82273e-06
2.93423e-06
-2.05859e-06
4.13223e-06
-2.18306e-06
5.19258e-06
-1.93625e-06
6.00717e-06
-1.46531e-06
6.49748e-06
-9.00851e-07
6.67932e-06
-3.26789e-07
6.57539e-06
2.12898e-07
6.22078e-06
6.78164e-07
5.66531e-06
1.05459e-06
4.93906e-06
1.35241e-06
4.08861e-06
1.60142e-06
3.13988e-06
1.77657e-06
2.12453e-06
1.90753e-06
1.0666e-06
1.98314e-06
2.00365e-06
-7.92766e-07
8.3983e-07
-9.38877e-08
-1.66925e-06
6.20101e-07
-1.66671e-06
1.74583e-06
-2.94842e-06
2.90709e-06
-3.21994e-06
4.13007e-06
-3.40591e-06
5.19934e-06
-3.00543e-06
5.99412e-06
-2.26005e-06
6.4854e-06
-1.39185e-06
6.65796e-06
-4.99508e-07
6.54303e-06
3.27996e-07
6.19017e-06
1.0311e-06
5.62925e-06
1.61573e-06
4.90069e-06
2.08162e-06
4.05908e-06
2.44272e-06
3.11223e-06
2.72266e-06
2.10811e-06
2.91126e-06
1.05888e-06
3.03302e-06
3.06215e-06
-9.0688e-07
1.7467e-06
-3.99367e-07
-2.17682e-06
4.01082e-07
-2.46702e-06
1.62217e-06
-4.16952e-06
2.86387e-06
-4.46169e-06
4.17263e-06
-4.71455e-06
5.2901e-06
-4.1227e-06
6.11905e-06
-3.089e-06
6.60774e-06
-1.88037e-06
6.76597e-06
-6.57918e-07
6.62861e-06
4.65821e-07
6.25805e-06
1.40214e-06
5.67847e-06
2.19491e-06
4.94174e-06
2.81788e-06
4.08145e-06
3.30235e-06
3.13316e-06
3.67158e-06
2.11781e-06
3.9266e-06
1.06319e-06
4.08802e-06
4.12499e-06
-1.48196e-06
3.22872e-06
-1.12155e-06
-2.5374e-06
1.6043e-08
-3.60448e-06
1.38658e-06
-5.54005e-06
2.80911e-06
-5.88419e-06
4.24037e-06
-6.14562e-06
5.44712e-06
-5.32939e-06
6.31101e-06
-3.95298e-06
6.79997e-06
-2.36903e-06
6.93686e-06
-7.94855e-07
6.78352e-06
6.18995e-07
6.38026e-06
1.80489e-06
5.77568e-06
2.79897e-06
5.02371e-06
3.57035e-06
4.13724e-06
4.18907e-06
3.17711e-06
4.63216e-06
2.14426e-06
4.95905e-06
1.07546e-06
5.15705e-06
5.20023e-06
-1.8942e-06
5.12305e-06
-1.9324e-06
-2.49929e-06
-7.03503e-07
-4.83328e-06
9.58503e-07
-7.20203e-06
2.69355e-06
-7.61929e-06
4.31396e-06
-7.76575e-06
5.65119e-06
-6.66646e-06
6.56376e-06
-4.8658e-06
7.06263e-06
-2.86804e-06
7.18442e-06
-9.16991e-07
6.98809e-06
8.15251e-07
6.54969e-06
2.24328e-06
5.91227e-06
3.43636e-06
5.1172e-06
4.36575e-06
4.22081e-06
5.08558e-06
3.22907e-06
5.62378e-06
2.18121e-06
6.00617e-06
1.09388e-06
6.24462e-06
6.29398e-06
-2.79383e-06
7.91701e-06
-3.52391e-06
-1.7691e-06
-1.94958e-06
-6.40752e-06
1.48429e-07
-9.29995e-06
2.42861e-06
-9.89941e-06
4.38011e-06
-9.71721e-06
5.87415e-06
-8.16062e-06
6.88243e-06
-5.8742e-06
7.36942e-06
-3.35483e-06
7.45252e-06
-1.00003e-06
7.22781e-06
1.04004e-06
6.73825e-06
2.73307e-06
6.07071e-06
4.10418e-06
5.25062e-06
5.18566e-06
4.3133e-06
6.02257e-06
3.30015e-06
6.63663e-06
2.22413e-06
7.08192e-06
1.11413e-06
7.35479e-06
7.40776e-06
-3.31866e-06
1.12358e-05
-6.36055e-06
1.27303e-06
-3.29704e-06
-9.47083e-06
-6.36306e-07
-1.19605e-05
2.1943e-06
-1.273e-05
4.49449e-06
-1.20173e-05
6.19707e-06
-9.86316e-06
7.26435e-06
-6.94136e-06
7.74519e-06
-3.83531e-06
7.7965e-06
-1.05118e-06
7.52439e-06
1.31218e-06
6.98161e-06
3.27601e-06
6.25514e-06
4.83069e-06
5.38572e-06
6.05444e-06
4.42012e-06
6.98809e-06
3.36921e-06
7.68774e-06
2.27333e-06
8.1778e-06
1.13815e-06
8.49014e-06
8.54606e-06
6.72711e-06
-2.57417e-05
1.85144e-05
-5.67887e-05
2.98937e-05
-6.01638e-05
4.03865e-05
-5.56233e-05
5.07903e-05
-5.23749e-05
6.15895e-05
-5.18013e-05
7.29124e-05
-5.28685e-05
8.47612e-05
-5.45346e-05
9.71468e-05
-5.62285e-05
0.000110117
-5.76649e-05
0.000123744
-5.86286e-05
0.00013806
-5.88052e-05
0.000153021
-5.77156e-05
0.000168442
-5.46251e-05
0.000183858
-4.84925e-05
0.00019853
-3.82263e-05
0.00021165
-2.2977e-05
0.000221699
-1.0484e-06
0.000227834
2.76668e-05
0.000227438
6.65082e-05
0.000218767
0.000117393
0.000210641
0.000171303
0.000254468
0.00022697
7.53594e-06
-3.32776e-05
1.89399e-05
-6.81927e-05
2.94333e-05
-7.06571e-05
3.92377e-05
-6.54277e-05
4.93183e-05
-6.24554e-05
6.00354e-05
-6.25185e-05
7.13889e-05
-6.4222e-05
8.33496e-05
-6.64953e-05
9.59837e-05
-6.88626e-05
0.000109454
-7.11355e-05
0.000123973
-7.3147e-05
0.000139737
-7.45693e-05
0.000156993
-7.4972e-05
0.00017583
-7.34615e-05
0.000195807
-6.84695e-05
0.000216064
-5.8484e-05
0.000235739
-4.2652e-05
0.000253537
-1.88456e-05
0.00026863
1.25733e-05
0.000278855
5.62829e-05
0.000287605
0.000108643
0.000298273
0.000160635
0.00022743
0.000325311
8.291e-06
-4.15686e-05
1.91299e-05
-7.90316e-05
2.86284e-05
-8.01556e-05
3.77619e-05
-7.45612e-05
4.7524e-05
-7.22175e-05
5.80745e-05
-7.30689e-05
6.9306e-05
-7.54535e-05
8.11959e-05
-7.83851e-05
9.39004e-05
-8.15671e-05
0.000107703
-8.49378e-05
0.000122931
-8.83756e-05
0.000139964
-9.16021e-05
0.000159473
-9.44805e-05
0.000181944
-9.59327e-05
0.000206981
-9.35069e-05
0.000233523
-8.50254e-05
0.000261188
-7.03168e-05
0.000287282
-4.49398e-05
0.000314183
-1.43275e-05
0.000331678
3.87874e-05
0.000338315
0.000102005
0.000341717
0.000157233
0.000208677
0.00036047
8.90885e-06
-5.04775e-05
1.90001e-05
-8.91228e-05
2.74882e-05
-8.86437e-05
3.60084e-05
-8.30815e-05
4.54293e-05
-8.16384e-05
5.56862e-05
-8.33258e-05
6.66115e-05
-8.63788e-05
7.82222e-05
-8.99958e-05
9.07605e-05
-9.41054e-05
0.000104524
-9.87012e-05
0.00011984
-0.000103692
0.000137164
-0.000108927
0.000157939
-0.000115255
0.000183346
-0.000121339
0.000212599
-0.00012276
0.000243582
-0.000116008
0.000278903
-0.000105637
0.00030642
-7.24567e-05
0.000320772
-2.86798e-05
0.000335452
2.41072e-05
0.000346088
9.137e-05
0.000348286
0.000155035
0.000199656
0.000357307
9.34842e-06
-5.98259e-05
1.8533e-05
-9.83074e-05
2.60532e-05
-9.61639e-05
3.40186e-05
-9.10469e-05
4.30386e-05
-9.06585e-05
5.28456e-05
-9.31328e-05
6.32471e-05
-9.67803e-05
7.42898e-05
-0.000101038
8.61674e-05
-0.000105983
9.89768e-05
-0.000111511
0.000112903
-0.000117618
0.000128598
-0.000124622
0.000149398
-0.000136055
0.000177039
-0.00014898
0.00020807
-0.000153791
0.000236776
-0.000144714
0.000261672
-0.000130533
0.000286564
-9.73485e-05
0.000295209
-3.73249e-05
0.000310101
9.21488e-06
0.000325368
7.61028e-05
0.000336776
0.000143627
0.00019013
0.000346302
9.61229e-06
-6.94382e-05
1.77569e-05
-0.000106452
2.43814e-05
-0.000102788
3.18221e-05
-9.84877e-05
4.032e-05
-9.91563e-05
4.94371e-05
-0.00010225
5.89464e-05
-0.00010629
6.88426e-05
-0.000110935
7.9089e-05
-0.000116229
8.96166e-05
-0.000122038
0.000100713
-0.000128714
0.000114464
-0.000138373
0.000137071
-0.000158662
0.000167738
-0.000179648
0.000196058
-0.000182111
0.000220885
-0.000169541
0.000237476
-0.000147125
0.000257463
-0.000117335
0.000285054
-6.49163e-05
0.000299849
-5.57953e-06
0.0003191
5.6851e-05
0.000330007
0.00013272
0.000181729
0.000338409
9.728e-06
-7.91662e-05
1.666e-05
-0.000113384
2.24103e-05
-0.000108539
2.92479e-05
-0.000105325
3.69379e-05
-0.000106846
4.49099e-05
-0.000110222
5.29026e-05
-0.000114282
6.08388e-05
-0.000118871
6.87196e-05
-0.00012411
7.71097e-05
-0.000130428
8.74701e-05
-0.000139075
0.000105369
-0.000156272
0.000135761
-0.000189054
0.000171523
-0.000215411
0.000197909
-0.000208496
0.000235137
-0.00020677
0.000261651
-0.000173639
0.000258122
-0.000113806
0.000247513
-5.43064e-05
0.000264976
-2.30427e-05
0.00030385
1.79762e-05
0.000332589
0.000103981
0.000173101
0.000341217
9.63189e-06
-8.87981e-05
1.50854e-05
-0.000118837
1.98368e-05
-0.00011329
2.58147e-05
-0.000111303
3.22465e-05
-0.000113278
3.858e-05
-0.000116555
4.47609e-05
-0.000120463
5.1101e-05
-0.000125211
5.87392e-05
-0.000131748
7.08372e-05
-0.000142526
9.19423e-05
-0.00016018
0.000126796
-0.000191126
0.000171638
-0.000233895
0.000196282
-0.000240055
0.000226261
-0.000238474
0.00024566
-0.000226169
0.000241033
-0.000169011
0.00020437
-7.71438e-05
0.000177835
-2.77709e-05
0.000185373
-3.05804e-05
0.000225097
-2.17482e-05
0.000272164
5.69151e-05
0.000144266
0.000300998
9.48266e-06
-9.82807e-05
1.29661e-05
-0.000122321
1.64524e-05
-0.000116776
2.14641e-05
-0.000116315
2.67591e-05
-0.000118573
3.22718e-05
-0.000122068
3.90859e-05
-0.000127277
4.90429e-05
-0.000135168
6.70277e-05
-0.000149733
9.73058e-05
-0.000172804
0.000151611
-0.000214485
0.000204185
-0.000243699
0.000232919
-0.00026263
0.000222918
-0.000230054
0.000206014
-0.00022157
0.000196575
-0.00021673
0.000180433
-0.000152869
0.000143192
-3.99026e-05
0.000123409
-7.98766e-06
0.000125038
-3.22099e-05
0.000145446
-4.21554e-05
0.000184163
1.81982e-05
9.98496e-05
0.00022858
1.02441e-05
-0.000108525
1.12433e-05
-0.00012332
1.39044e-05
-0.000119437
1.95258e-05
-0.000121936
2.67385e-05
-0.000125786
3.72229e-05
-0.000132552
5.38993e-05
-0.000143954
8.05528e-05
-0.000161822
0.000131827
-0.000201008
0.000188415
-0.000229392
0.000234651
-0.000260721
0.0002619
-0.000270948
0.000252435
-0.000253165
0.00020675
-0.000184368
0.000169292
-0.000184113
0.000145454
-0.000192892
0.00012988
-0.000137294
0.000109211
-1.92344e-05
9.52077e-05
6.0161e-06
8.73475e-05
-2.43498e-05
8.96415e-05
-4.44495e-05
0.000120675
-1.28353e-05
4.33837e-05
0.000177141
1.29258e-05
-0.000121451
1.41376e-05
-0.000124532
1.9964e-05
-0.000125264
3.16254e-05
-0.000133598
4.98189e-05
-0.000143979
8.2827e-05
-0.000165561
0.000120714
-0.000181841
0.000162554
-0.000203661
0.000199943
-0.000238396
0.000241019
-0.000270468
0.000269596
-0.000289298
0.000278698
-0.000280051
0.000258135
-0.000232602
0.000203621
-0.000129855
0.000154128
-0.000134619
0.000125161
-0.000163924
0.000103423
-0.000115556
8.45375e-05
-3.48973e-07
7.26812e-05
1.78726e-05
6.39759e-05
-1.56443e-05
6.09847e-05
-4.14582e-05
8.74134e-05
-3.92641e-05
-1.54275e-05
0.000146225
1.35569e-05
-0.000135008
2.8924e-05
-0.000139899
4.40693e-05
-0.000140409
6.2756e-05
-0.000152284
8.52026e-05
-0.000166426
0.000105502
-0.00018586
0.0001314
-0.000207738
0.000162604
-0.000234866
0.000193808
-0.0002696
0.000227169
-0.000303829
0.000253526
-0.000315656
0.000259549
-0.000286073
0.000240696
-0.000213748
0.000197593
-8.67524e-05
0.000147445
-8.44722e-05
0.000112766
-0.000129245
8.19495e-05
-8.47396e-05
5.72127e-05
2.43879e-05
4.88434e-05
2.62419e-05
4.39299e-05
-1.07305e-05
4.42718e-05
-4.17999e-05
6.5587e-05
-6.05794e-05
-6.30635e-05
0.000113223
7.6088e-06
-0.000142616
2.29137e-05
-0.000155204
3.93657e-05
-0.000156861
5.40768e-05
-0.000166995
6.95348e-05
-0.000181884
8.48783e-05
-0.000201204
0.000102258
-0.000225118
0.000124422
-0.00025703
0.000153022
-0.0002982
0.000183271
-0.000334077
0.000200157
-0.000332542
0.000197474
-0.00028339
0.000180502
-0.000196777
0.000156894
-6.3144e-05
0.000124754
-5.23324e-05
8.99992e-05
-9.44902e-05
5.00789e-05
-4.48193e-05
2.21119e-05
5.2355e-05
1.74582e-05
3.08957e-05
1.77744e-05
-1.10469e-05
2.25039e-05
-4.65291e-05
4.11375e-05
-7.9213e-05
-0.000100682
7.87564e-05
7.71293e-06
-0.000150329
1.80751e-05
-0.000165566
2.85168e-05
-0.000167303
3.82915e-05
-0.00017677
4.76976e-05
-0.00019129
5.68574e-05
-0.000210363
6.72545e-05
-0.000235515
8.1873e-05
-0.000271649
0.000100909
-0.000317236
0.000115115
-0.000348284
0.000115643
-0.00033307
0.000103329
-0.000271075
8.78367e-05
-0.000181285
8.95139e-05
-6.48212e-05
8.40434e-05
-4.68619e-05
5.01576e-05
-6.06043e-05
1.07929e-06
4.25911e-06
-2.14712e-05
7.49054e-05
-1.73533e-05
2.67779e-05
-1.4912e-05
-1.34882e-05
-9.95685e-06
-5.14842e-05
2.67225e-06
-9.18421e-05
-0.000125051
2.70407e-05
7.18322e-06
-0.000157512
1.16594e-05
-0.000170042
1.7213e-05
-0.000172856
2.24168e-05
-0.000181974
2.65102e-05
-0.000195383
2.92572e-05
-0.00021311
3.11636e-05
-0.000237421
3.35738e-05
-0.000274059
3.40684e-05
-0.00031773
2.66989e-05
-0.000340914
1.24128e-05
-0.000318784
-1.37712e-06
-0.000257286
-1.59046e-06
-0.000181072
1.60985e-05
-8.25102e-05
1.60066e-05
-4.677e-05
-3.11638e-05
-1.34339e-05
-7.99944e-05
5.30897e-05
-6.88043e-05
6.37153e-05
-5.68408e-05
1.48142e-05
-5.21433e-05
-1.81855e-05
-5.05297e-05
-5.3098e-05
-5.05636e-05
-9.1808e-05
-0.000127813
-4.78014e-05
4.56305e-06
-0.000162075
5.33129e-06
-0.00017081
7.25207e-06
-0.000174777
8.22575e-06
-0.000182947
7.3211e-06
-0.000194478
3.81461e-06
-0.000209604
-2.87918e-06
-0.000230727
-1.53408e-05
-0.000261597
-3.50959e-05
-0.000297975
-5.93412e-05
-0.000316669
-7.92477e-05
-0.000298878
-8.72444e-05
-0.000249289
-9.08236e-05
-0.000177493
-7.39208e-05
-9.94129e-05
-8.3876e-05
-3.68147e-05
-0.000124856
2.75461e-05
-0.000133327
6.15609e-05
-0.000105976
3.6364e-05
-9.24595e-05
1.29741e-06
-8.76757e-05
-2.29692e-05
-9.01233e-05
-5.06505e-05
-0.000100484
-8.14476e-05
-0.000114058
-0.000114239
1.26576e-06
-0.000163341
1.34013e-07
-0.000169679
-1.10836e-06
-0.000173535
-3.73078e-06
-0.000180325
-8.7302e-06
-0.000189479
-1.7311e-05
-0.000201023
-3.17238e-05
-0.000216314
-5.47105e-05
-0.000238611
-8.72507e-05
-0.000265434
-0.000122767
-0.000281153
-0.000151447
-0.000270198
-0.000171195
-0.000229541
-0.000185966
-0.000162722
-0.000194742
-9.06373e-05
-0.000203787
-2.77697e-05
-0.000195762
1.95215e-05
-0.000163288
2.90872e-05
-0.000131851
4.9273e-06
-0.000119768
-1.07862e-05
-0.00011594
-2.67968e-05
-0.000120869
-4.57211e-05
-0.00013613
-6.6187e-05
-8.83413e-05
-0.000161847
-1.47639e-06
-0.000161865
-4.4714e-06
-0.000166684
-7.9788e-06
-0.000170027
-1.31272e-05
-0.000175177
-2.06924e-05
-0.000181914
-3.18616e-05
-0.000189854
-4.89843e-05
-0.000199192
-7.54235e-05
-0.000212171
-0.000112228
-0.00022863
-0.000154435
-0.000238946
-0.000194447
-0.000230185
-0.000227573
-0.000196415
-0.000246552
-0.000143742
-0.000249629
-8.75609e-05
-0.000238214
-3.91844e-05
-0.000207698
-1.09944e-05
-0.000169306
-9.30532e-06
-0.000146995
-1.73839e-05
-0.000137374
-2.04068e-05
-0.00013492
-2.92513e-05
-0.000140636
-4.00053e-05
-0.000156242
-5.05811e-05
-6.06376e-05
-0.000183946
-3.49159e-06
-0.000158374
-7.87773e-06
-0.000162298
-1.31164e-05
-0.000164789
-1.98372e-05
-0.000168456
-2.87044e-05
-0.000173047
-4.05199e-05
-0.000178039
-5.68117e-05
-0.0001829
-8.05142e-05
-0.000188469
-0.00011379
-0.000195354
-0.000153775
-0.000198961
-0.000193083
-0.000190877
-0.000223315
-0.000166183
-0.000237864
-0.000129193
-0.000235105
-9.03196e-05
-0.000216156
-5.81336e-05
-0.000187622
-3.9529e-05
-0.000163868
-3.30588e-05
-0.000152015
-2.92374e-05
-0.000145617
-2.68043e-05
-0.000144869
-2.99992e-05
-0.000151046
-3.38286e-05
-0.000164662
-3.69657e-05
-3.74797e-05
-0.00018782
-4.87005e-06
-0.000153504
-1.03692e-05
-0.000156799
-1.66884e-05
-0.000158469
-2.42745e-05
-0.00016087
-3.36099e-05
-0.000163711
-4.51091e-05
-0.000166539
-5.93654e-05
-0.000168644
-7.80287e-05
-0.000169805
-0.000103072
-0.00017031
-0.000133376
-0.000168657
-0.000163517
-0.000160736
-0.000186149
-0.000143551
-0.000196331
-0.000119011
-0.000194063
-9.2588e-05
-0.000182091
-7.01055e-05
-0.000167197
-5.44229e-05
-0.000156442
-4.38141e-05
-0.000150512
-3.51671e-05
-0.000146865
-3.04514e-05
-0.000147708
-2.91558e-05
-0.000153632
-2.79042e-05
-0.000164924
-2.56742e-05
-2.01709e-05
-0.000182233
-5.76701e-06
-0.000147737
-1.20206e-05
-0.000150545
-1.89639e-05
-0.000151526
-2.69306e-05
-0.000152903
-3.62592e-05
-0.000154383
-4.7175e-05
-0.000155624
-5.97472e-05
-0.000156071
-7.4359e-05
-0.000155193
-9.19326e-05
-0.000152736
-0.000112373
-0.000148216
-0.00013291
-0.000140199
-0.000149238
-0.000127223
-0.000158429
-0.000109819
-0.000160245
-9.07719e-05
-0.000156902
-7.34482e-05
-0.000152024
-5.93015e-05
-0.000148196
-4.76418e-05
-0.000145116
-3.82474e-05
-0.000143644
-3.19238e-05
-0.000145467
-2.7333e-05
-0.000150691
-2.26802e-05
-0.000159465
-1.69e-05
-7.98349e-06
-0.000171652
-6.29787e-06
-0.000141439
-1.29868e-05
-0.000143856
-2.02202e-05
-0.000144293
-2.82464e-05
-0.000144877
-3.72973e-05
-0.000145332
-4.7529e-05
-0.000145392
-5.8913e-05
-0.000144687
-7.13181e-05
-0.000142788
-8.47952e-05
-0.000139258
-9.93194e-05
-0.000133692
-0.000113853
-0.000125666
-0.000126261
-0.000114816
-0.00013474
-0.000101339
-0.000138991
-8.65211e-05
-0.000140152
-7.22864e-05
-0.000139758
-5.9696e-05
-0.000138721
-4.86784e-05
-0.000137584
-3.93849e-05
-0.000137667
-3.18407e-05
-0.000139859
-2.51412e-05
-0.000144233
-1.83063e-05
-0.000150599
-1.05342e-05
1.47882e-07
-0.000158731
-6.55062e-06
-0.000134888
-1.34139e-05
-0.000136993
-2.069e-05
-0.000137016
-2.85623e-05
-0.000137005
-3.71805e-05
-0.000136714
-4.66458e-05
-0.000135927
-5.69563e-05
-0.000134376
-6.79647e-05
-0.000131779
-7.94152e-05
-0.000127808
-9.0987e-05
-0.00012212
-0.000102143
-0.00011451
-0.00011198
-0.000104978
-0.000119531
-9.37887e-05
-0.000124399
-8.16528e-05
-0.000127067
-6.96183e-05
-0.000128313
-5.84499e-05
-0.000128747
-4.82441e-05
-0.000129006
-3.91267e-05
-0.000130075
-3.07716e-05
-0.000132207
-2.30089e-05
-0.0001356
-1.4914e-05
-0.00014018
-5.95391e-06
5.15384e-06
-0.000145186
-6.58956e-06
-0.000128299
-1.34298e-05
-0.000130153
-2.05713e-05
-0.000129875
-2.81483e-05
-0.000129427
-3.62529e-05
-0.000128609
-4.49311e-05
-0.000127248
-5.4164e-05
-0.000125143
-6.38475e-05
-0.000122096
-7.37505e-05
-0.000117905
-8.35171e-05
-0.000112353
-9.27224e-05
-0.000105305
-0.000100875
-9.68256e-05
-0.000107473
-8.71905e-05
-0.000112265
-7.68606e-05
-0.00011545
-6.6433e-05
-0.000117493
-5.64072e-05
-0.00011886
-4.68778e-05
-0.000120077
-3.79096e-05
-0.000121524
-2.9325e-05
-0.000123561
-2.09714e-05
-0.000126104
-1.23716e-05
-0.000129094
-2.96404e-06
8.01662e-06
-0.000131957
-6.47289e-06
-0.000121826
-1.3146e-05
-0.000123479
-2.00325e-05
-0.000122988
-2.72264e-05
-0.000122233
-3.47821e-05
-0.000121054
-4.27106e-05
-0.00011932
-5.09672e-05
-0.000116887
-5.94547e-05
-0.000113608
-6.80128e-05
-0.000109347
-7.63864e-05
-0.00010398
-8.42398e-05
-9.74515e-05
-9.12269e-05
-8.98386e-05
-9.70617e-05
-8.13556e-05
-0.000101613
-7.23096e-05
-0.000104992
-6.30538e-05
-0.000107492
-5.39073e-05
-0.000109387
-4.49825e-05
-0.000111052
-3.6245e-05
-0.000112657
-2.77192e-05
-0.000114403
-1.92259e-05
-0.000116272
-1.05029e-05
-0.000118127
-1.10889e-06
9.4197e-06
-0.000119531
-6.24746e-06
-0.000115578
-1.26524e-05
-0.000117075
-1.92044e-05
-0.000116436
-2.59652e-05
-0.000115472
-3.2965e-05
-0.000114054
-4.01984e-05
-0.000112087
-4.7619e-05
-0.000109466
-5.51346e-05
-0.000106093
-6.2606e-05
-0.000101875
-6.98448e-05
-9.67412e-05
-7.66214e-05
-9.06751e-05
-8.27046e-05
-8.37556e-05
-8.7919e-05
-7.6141e-05
-9.21919e-05
-6.80367e-05
-9.5578e-05
-5.9668e-05
-9.82544e-05
-5.12309e-05
-0.000100403
-4.28335e-05
-0.000102187
-3.44612e-05
-0.000103758
-2.6149e-05
-0.000105222
-1.77616e-05
-0.000106554
-9.17152e-06
-0.000107617
-4.53811e-08
9.87519e-06
-0.000108072
-5.94807e-06
-0.00010963
-1.20172e-05
-0.000111006
-1.81843e-05
-0.000110269
-2.44863e-05
-0.00010917
-3.09374e-05
-0.000107603
-3.7522e-05
-0.000105502
-4.41953e-05
-0.000102793
-5.08782e-05
-9.94098e-05
-5.7457e-05
-9.52962e-05
-6.37861e-05
-9.0412e-05
-6.97048e-05
-8.47565e-05
-7.50663e-05
-7.83941e-05
-7.97587e-05
-7.14484e-05
-8.37248e-05
-6.40704e-05
-8.69877e-05
-5.64052e-05
-8.96458e-05
-4.8573e-05
-9.18097e-05
-4.06696e-05
-9.35827e-05
-3.26882e-05
-9.50752e-05
-2.46566e-05
-9.6272e-05
-1.65651e-05
-9.71905e-05
-8.25334e-06
-9.77197e-05
4.83793e-07
9.74233e-06
-9.75865e-05
-5.59929e-06
-0.000104031
-1.12905e-05
-0.000105315
-1.70432e-05
-0.000104517
-2.2877e-05
-0.000103337
-2.87947e-05
-0.000101686
-3.47758e-05
-9.95209e-05
-4.07778e-05
-9.67915e-05
-4.67344e-05
-9.34533e-05
-5.25585e-05
-8.94719e-05
-5.81424e-05
-8.48282e-05
-6.33656e-05
-7.95334e-05
-6.81197e-05
-7.36397e-05
-7.2332e-05
-6.72361e-05
-7.59698e-05
-6.04326e-05
-7.904e-05
-5.33351e-05
-8.15865e-05
-4.60266e-05
-8.3669e-05
-3.85871e-05
-8.53499e-05
-3.10073e-05
-8.66777e-05
-2.33288e-05
-8.76982e-05
-1.55447e-05
-8.83161e-05
-7.63542e-06
-8.84831e-05
6.50796e-07
9.26159e-06
-8.80024e-05
-5.21786e-06
-9.88134e-05
-1.05072e-05
-0.000100025
-1.58307e-05
-9.91933e-05
-2.11975e-05
-9.79702e-05
-2.66019e-05
-9.62812e-05
-3.20226e-05
-9.41001e-05
-3.74215e-05
-9.13928e-05
-4.27428e-05
-8.81318e-05
-4.79166e-05
-8.4298e-05
-5.28603e-05
-7.98848e-05
-5.74872e-05
-7.49067e-05
-6.17203e-05
-6.94064e-05
-6.55043e-05
-6.3452e-05
-6.88126e-05
-5.71245e-05
-7.16449e-05
-5.0503e-05
-7.40171e-05
-4.36543e-05
-7.59765e-05
-3.66276e-05
-7.75325e-05
-2.94513e-05
-7.87129e-05
-2.21485e-05
-7.94976e-05
-1.47601e-05
-7.99525e-05
-7.18049e-06
-7.98877e-05
5.86086e-07
8.59505e-06
-7.92212e-05
-4.81625e-06
-9.39971e-05
-9.69179e-06
-9.51498e-05
-1.45814e-05
-9.43035e-05
-1.94885e-05
-9.30632e-05
-2.44013e-05
-9.13681e-05
-2.92992e-05
-8.92024e-05
-3.41475e-05
-8.65446e-05
-3.89004e-05
-8.33786e-05
-4.35029e-05
-7.96953e-05
-4.78919e-05
-7.5496e-05
-5.20013e-05
-7.07973e-05
-5.57729e-05
-6.56347e-05
-5.91646e-05
-6.00602e-05
-6.21533e-05
-5.41358e-05
-6.47311e-05
-4.79251e-05
-6.69038e-05
-4.14815e-05
-6.86903e-05
-3.48411e-05
-7.00984e-05
-2.80434e-05
-7.11231e-05
-2.1124e-05
-7.18164e-05
-1.40669e-05
-7.20786e-05
-6.91835e-06
-7.18841e-05
3.91673e-07
7.85268e-06
-7.11415e-05
-4.40473e-06
-8.95922e-05
-8.86224e-06
-9.06921e-05
-1.33201e-05
-8.98457e-05
-1.77779e-05
-8.86054e-05
-2.22208e-05
-8.69252e-05
-2.66287e-05
-8.47947e-05
-3.09712e-05
-8.22022e-05
-3.52103e-05
-7.91393e-05
-3.93018e-05
-7.56039e-05
-4.3196e-05
-7.16017e-05
-4.68432e-05
-6.71501e-05
-5.01985e-05
-6.22793e-05
-5.32277e-05
-5.70311e-05
-5.59091e-05
-5.14544e-05
-5.82334e-05
-4.56007e-05
-6.01993e-05
-3.95155e-05
-6.181e-05
-3.32304e-05
-6.30638e-05
-2.67898e-05
-6.39832e-05
-2.02048e-05
-6.45374e-05
-1.35127e-05
-6.46763e-05
-6.77943e-06
-6.44222e-05
1.37595e-07
7.10354e-06
-6.3673e-05
-3.99184e-06
-8.56003e-05
-8.03232e-06
-8.66514e-05
-1.20644e-05
-8.58138e-05
-1.6085e-05
-8.45847e-05
-2.0078e-05
-8.29321e-05
-2.40241e-05
-8.08487e-05
-2.78968e-05
-7.83295e-05
-3.16648e-05
-7.53714e-05
-3.52919e-05
-7.19768e-05
-3.87392e-05
-6.81544e-05
-4.19676e-05
-6.39215e-05
-4.49424e-05
-5.93045e-05
-4.76352e-05
-5.43383e-05
-5.00261e-05
-4.90636e-05
-5.21036e-05
-4.35232e-05
-5.38625e-05
-3.77565e-05
-5.5297e-05
-3.1796e-05
-5.64157e-05
-2.56712e-05
-5.72026e-05
-1.9418e-05
-5.76398e-05
-1.30755e-05
-5.77564e-05
-6.66263e-06
-5.74564e-05
-1.62443e-07
6.38314e-06
-5.6736e-05
-3.58418e-06
-8.20161e-05
-7.21212e-06
-8.30234e-05
-1.08266e-05
-8.21995e-05
-1.44223e-05
-8.09886e-05
-1.79836e-05
-7.93706e-05
-2.14919e-05
-7.73403e-05
-2.49245e-05
-7.48967e-05
-2.82552e-05
-7.20407e-05
-3.14546e-05
-6.87775e-05
-3.44914e-05
-6.51176e-05
-3.7335e-05
-6.10778e-05
-3.99575e-05
-5.6682e-05
-4.23356e-05
-5.19603e-05
-4.44515e-05
-4.69476e-05
-4.62934e-05
-4.16813e-05
-4.78525e-05
-3.61974e-05
-4.91221e-05
-3.05265e-05
-5.01004e-05
-2.46931e-05
-5.07848e-05
-1.87335e-05
-5.11563e-05
-1.27039e-05
-5.12039e-05
-6.61481e-06
-5.0916e-05
-4.50357e-07
5.7226e-06
-5.02555e-05
-3.18503e-06
-7.8831e-05
-6.4074e-06
-7.98011e-05
-9.61333e-06
-7.89935e-05
-1.27968e-05
-7.7805e-05
-1.59427e-05
-7.62247e-05
-1.90337e-05
-7.42491e-05
-2.20507e-05
-7.18798e-05
-2.49716e-05
-6.912e-05
-2.77722e-05
-6.59771e-05
-3.04275e-05
-6.24623e-05
-3.29131e-05
-5.85922e-05
-3.52064e-05
-5.43888e-05
-3.72881e-05
-4.98787e-05
-3.91429e-05
-4.50928e-05
-4.07598e-05
-4.00644e-05
-4.21298e-05
-3.48274e-05
-4.32442e-05
-2.94122e-05
-4.40952e-05
-2.38421e-05
-4.46786e-05
-1.81501e-05
-4.49931e-05
-1.23892e-05
-4.50367e-05
-6.57108e-06
-4.47595e-05
-7.27498e-07
5.1324e-06
-4.41695e-05
-2.79437e-06
-7.60366e-05
-5.61918e-06
-7.69765e-05
-8.42632e-06
-7.61863e-05
-1.12097e-05
-7.50217e-05
-1.3955e-05
-7.34796e-05
-1.66467e-05
-7.15574e-05
-1.92684e-05
-6.92582e-05
-2.18019e-05
-6.6587e-05
-2.42271e-05
-6.3552e-05
-2.65242e-05
-6.01652e-05
-2.86736e-05
-5.64429e-05
-3.06571e-05
-5.24055e-05
-3.24585e-05
-4.80773e-05
-3.40651e-05
-4.34861e-05
-3.5467e-05
-3.86624e-05
-3.66562e-05
-3.36382e-05
-3.7624e-05
-2.84445e-05
-3.83601e-05
-2.31059e-05
-3.88648e-05
-1.76453e-05
-3.91422e-05
-1.21117e-05
-3.9165e-05
-6.54814e-06
-3.89258e-05
-9.66893e-07
4.62467e-06
-3.84182e-05
-2.40881e-06
-7.36276e-05
-4.84485e-06
-7.45405e-05
-7.26363e-06
-7.37676e-05
-9.65876e-06
-7.26267e-05
-1.20171e-05
-7.11214e-05
-1.4325e-05
-6.92495e-05
-1.65687e-05
-6.70148e-05
-1.87328e-05
-6.44231e-05
-2.08016e-05
-6.14832e-05
-2.27592e-05
-5.82075e-05
-2.45902e-05
-5.4612e-05
-2.62798e-05
-5.07159e-05
-2.78149e-05
-4.65421e-05
-2.91848e-05
-4.21161e-05
-3.03813e-05
-3.74659e-05
-3.13977e-05
-3.26218e-05
-3.22274e-05
-2.76149e-05
-3.28614e-05
-2.24718e-05
-3.32934e-05
-1.72132e-05
-3.35302e-05
-1.18748e-05
-3.35659e-05
-6.51249e-06
-3.33679e-05
-1.16499e-06
4.20596e-06
-3.29492e-05
-2.02042e-06
-7.16073e-05
-4.07815e-06
-7.24828e-05
-6.12007e-06
-7.17257e-05
-8.13881e-06
-7.0608e-05
-1.01233e-05
-6.9137e-05
-1.20618e-05
-6.7311e-05
-1.39426e-05
-6.51341e-05