/*--------------------------------*- C++ -*----------------------------------*\
| =========                 |                                                 |
| \\      /  F ield         | OpenFOAM: The Open Source CFD Toolbox           |
|  \\    /   O peration     | Version:  v1606+                                |
|   \\  /    A nd           | Web:      www.OpenFOAM.com                      |
|    \\/     M anipulation  |                                                 |
\*---------------------------------------------------------------------------*/
FoamFile
{
    version     2.0;
    format      ascii;
    class       surfaceScalarField;
    location    "0.6";
    object      phi;
}
// * * * * * * * * * * * * * * * * * * * * * * * * * * * * * * * * * * * * * //

dimensions      [0 3 -1 0 0 0 0];

internalField   nonuniform List<scalar> 
1460
(
-9.44991e-10
9.45026e-10
1.68561e-07
-1.69506e-07
3.86577e-07
-2.18016e-07
5.3418e-07
-1.47604e-07
5.42688e-07
-8.50809e-09
4.30593e-07
1.12096e-07
2.13939e-07
2.16654e-07
-4.97112e-08
2.6365e-07
-2.91675e-07
2.41964e-07
-4.51989e-07
1.60314e-07
-5.21198e-07
6.92091e-08
2.01144e-08
-5.41312e-07
1.66971e-07
-1.66026e-07
4.28594e-07
-4.31128e-07
6.26181e-07
-4.15603e-07
7.08677e-07
-2.301e-07
6.77418e-07
2.27507e-08
4.67913e-07
3.216e-07
1.43199e-07
5.41368e-07
-2.35033e-07
6.41882e-07
-5.74375e-07
5.81306e-07
-8.22563e-07
4.08502e-07
-1.00973e-06
2.56377e-07
1.99537e-07
-1.18915e-06
2.34938e-07
-4.00964e-07
4.40999e-07
-6.37189e-07
5.06794e-07
-4.81398e-07
4.33132e-07
-1.56437e-07
2.09458e-07
2.46425e-07
-8.7909e-08
6.18967e-07
-4.24422e-07
8.7788e-07
-7.55817e-07
9.73277e-07
-1.0667e-06
8.92187e-07
-1.39314e-06
7.34947e-07
-1.77091e-06
6.34144e-07
6.32597e-07
-2.20397e-06
1.11513e-07
-5.12477e-07
8.85586e-08
-6.14235e-07
-5.27944e-08
-3.40045e-07
-2.78538e-07
6.93063e-08
-5.52363e-07
5.2025e-07
-8.65624e-07
9.32229e-07
-1.19369e-06
1.20595e-06
-1.52379e-06
1.30337e-06
-1.8862e-06
1.2546e-06
-2.31636e-06
1.1651e-06
-2.81328e-06
1.13106e-06
1.17749e-06
-3.35818e-06
-1.22928e-07
-3.89549e-07
-4.14703e-07
-3.2246e-07
-7.45457e-07
-9.29048e-09
-1.07491e-06
3.98755e-07
-1.39683e-06
8.42178e-07
-1.69474e-06
1.23014e-06
-1.97359e-06
1.48479e-06
-2.25062e-06
1.58041e-06
-2.55444e-06
1.55842e-06
-2.89201e-06
1.50266e-06
-3.24438e-06
1.48344e-06
1.51612e-06
-3.58301e-06
-3.89862e-07
3.13577e-10
-8.86783e-07
1.74461e-07
-1.35524e-06
4.59164e-07
-1.77218e-06
8.15699e-07
-2.11184e-06
1.18183e-06
-2.36287e-06
1.48118e-06
-2.5355e-06
1.65742e-06
-2.65332e-06
1.69822e-06
-2.7363e-06
1.6414e-06
-2.78652e-06
1.55288e-06
-2.79297e-06
1.4899e-06
1.46379e-06
-2.74064e-06
-5.51195e-07
5.51508e-07
-1.17004e-06
7.93305e-07
-1.73158e-06
1.02071e-06
-2.19164e-06
1.27576e-06
-2.51975e-06
1.50994e-06
-2.69892e-06
1.66034e-06
-2.73293e-06
1.69143e-06
-2.6431e-06
1.60839e-06
-2.45528e-06
1.45358e-06
-2.18787e-06
1.28548e-06
-1.84855e-06
1.15058e-06
1.05666e-06
-1.44142e-06
-5.28448e-07
1.07996e-06
-1.14036e-06
1.40521e-06
-1.70626e-06
1.58662e-06
-2.16756e-06
1.73705e-06
-2.47705e-06
1.81944e-06
-2.60115e-06
1.78444e-06
-2.5312e-06
1.62149e-06
-2.28742e-06
1.36461e-06
-1.91014e-06
1.07631e-06
-1.44233e-06
8.17663e-07
-9.14132e-07
6.22382e-07
4.85399e-07
-3.42873e-07
-3.3842e-07
1.41838e-06
-8.18493e-07
1.88529e-06
-1.29427e-06
2.06239e-06
-1.70452e-06
2.1473e-06
-1.9891e-06
2.10401e-06
-2.0912e-06
1.88654e-06
-1.98034e-06
1.51063e-06
-1.66634e-06
1.05061e-06
-1.19755e-06
6.07515e-07
-6.41944e-07
2.62057e-07
-5.50412e-08
3.54786e-08
-9.91438e-08
5.29502e-07
-6.43337e-08
1.48271e-06
-3.28988e-07
2.14994e-06
-6.31359e-07
2.36476e-06
-9.58066e-07
2.47401e-06
-1.22448e-06
2.37043e-06
-1.33578e-06
1.99784e-06
-1.2238e-06
1.39865e-06
-8.76945e-07
7.03754e-07
-3.47839e-07
7.84091e-08
2.57981e-07
-3.43763e-07
8.63125e-07
-5.69665e-07
-6.53371e-07
1.41735e-06
3.49272e-07
1.13344e-06
3.79445e-07
2.11977e-06
2.964e-07
2.44781e-06
1.10788e-07
2.65962e-06
-8.57947e-08
2.56701e-06
-1.56084e-07
2.06813e-06
2.42239e-09
1.24014e-06
4.09062e-07
2.97114e-07
9.58614e-07
-4.71143e-07
1.55455e-06
-9.39697e-07
2.1014e-06
-1.11652e-06
-1.11802e-06
2.56605e-06
2.78069e-07
8.55369e-07
8.93752e-07
1.50409e-06
1.33793e-06
2.00363e-06
1.52271e-06
2.47485e-06
1.586e-06
2.50372e-06
1.70441e-06
1.94972e-06
1.97421e-06
9.70343e-07
2.38194e-06
-1.10618e-07
2.85958e-06
-9.48786e-07
3.31143e-06
-1.39155e-06
3.68933e-06
-1.49442e-06
3.9862e-06
-1.41489e-06
-5.48657e-07
7.34449e-09
-5.67075e-07
1.84189e-08
-6.07669e-07
4.0594e-08
-6.56829e-07
4.91595e-08
-6.8628e-07
2.94508e-08
-6.70329e-07
-1.5951e-08
-5.94706e-07
-7.56227e-08
-4.40927e-07
-1.53779e-07
-2.51806e-07
-1.89122e-07
-1.01777e-07
-1.50028e-07
-3.93963e-08
-6.23807e-08
-3.93963e-08
-1.39323e-06
2.11421e-07
-1.63217e-06
2.57358e-07
-1.88965e-06
2.98074e-07
-2.12159e-06
2.81102e-07
-2.26424e-06
1.72099e-07
-2.24993e-06
-3.02573e-08
-2.02806e-06
-2.97495e-07
-1.61558e-06
-5.66256e-07
-1.06976e-06
-7.34944e-07
-5.17594e-07
-7.02195e-07
-1.2921e-07
-4.50764e-07
-1.68607e-07
-2.69657e-06
7.04021e-07
-3.22177e-06
7.82558e-07
-3.70736e-06
7.83662e-07
-4.06865e-06
6.42397e-07
-4.23067e-06
3.34117e-07
-4.14925e-06
-1.11683e-07
-3.7881e-06
-6.58643e-07
-3.1531e-06
-1.20125e-06
-2.25202e-06
-1.63603e-06
-1.17528e-06
-1.77893e-06
-2.505e-07
-1.37555e-06
-4.19107e-07
-3.91658e-06
1.26242e-06
-4.42794e-06
1.29392e-06
-4.82234e-06
1.17806e-06
-5.04303e-06
8.63085e-07
-5.06421e-06
3.55294e-07
-4.86908e-06
-3.06805e-07
-4.52511e-06
-1.00261e-06
-4.01103e-06
-1.71533e-06
-3.26364e-06
-2.38342e-06
-2.17006e-06
-2.87251e-06
-7.96929e-07
-2.74867e-06
-1.21604e-06
-3.86803e-06
1.54744e-06
-4.05401e-06
1.4799e-06
-4.10449e-06
1.22854e-06
-4.00644e-06
7.65037e-07
-3.78528e-06
1.34136e-07
-3.50736e-06
-5.84731e-07
-3.22717e-06
-1.2828e-06
-2.98661e-06
-1.95589e-06
-2.74805e-06
-2.62198e-06
-2.31953e-06
-3.30103e-06
-1.31963e-06
-3.74857e-06
-2.53566e-06
-2.61449e-06
1.42129e-06
-2.40427e-06
1.26968e-06
-2.1112e-06
9.35478e-07
-1.75653e-06
4.1037e-07
-1.42592e-06
-1.9648e-07
-1.15129e-06
-8.59361e-07
-9.7494e-07
-1.45915e-06
-9.25929e-07
-2.00491e-06
-1.02094e-06
-2.52697e-06
-1.22104e-06
-3.10093e-06
-1.09407e-06
-3.87555e-06
-3.62973e-06
-9.78252e-07
9.58121e-07
-4.80684e-07
7.72109e-07
8.06491e-09
4.46729e-07
4.1082e-07
7.61454e-09
6.86635e-07
-4.72295e-07
8.08519e-07
-9.81245e-07
8.03094e-07
-1.45372e-06
6.85215e-07
-1.88703e-06
4.64384e-07
-2.30614e-06
1.22586e-07
-2.75913e-06
-3.00207e-07
-3.45276e-06
-3.92994e-06
2.51034e-07
3.64214e-07
8.23019e-07
2.00124e-07
1.31008e-06
-4.03344e-08
1.6668e-06
-3.49107e-07
1.88621e-06
-6.91704e-07
1.95177e-06
-1.0468e-06
1.87751e-06
-1.37946e-06
1.67414e-06
-1.68366e-06
1.353e-06
-1.985e-06
9.33645e-07
-2.33978e-06
3.621e-07
-2.88121e-06
-3.56784e-06
1.0822e-06
-1.88489e-07
1.57789e-06
-2.95562e-07
1.98673e-06
-4.49168e-07
2.28764e-06
-6.50019e-07
2.47405e-06
-8.78117e-07
2.53732e-06
-1.11007e-06
2.48057e-06
-1.32271e-06
2.30131e-06
-1.5044e-06
1.98269e-06
-1.66638e-06
1.4879e-06
-1.84499e-06
8.04533e-07
-2.19784e-06
-2.7633e-06
1.90803e-06
-6.79162e-07
2.32505e-06
-7.12585e-07
2.65965e-06
-7.83775e-07
2.90374e-06
-8.94104e-07
3.05177e-06
-1.02615e-06
3.09819e-06
-1.15648e-06
3.03883e-06
-1.26335e-06
2.86439e-06
-1.32996e-06
2.5537e-06
-1.35569e-06
2.04677e-06
-1.33806e-06
1.23782e-06
-1.38889e-06
-1.52548e-06
2.94928e-06
-1.06239e-06
3.26089e-06
-1.0242e-06
3.50748e-06
-1.03037e-06
3.68808e-06
-1.0747e-06
3.79601e-06
-1.13409e-06
3.82076e-06
-1.18124e-06
3.75e-06
-1.19259e-06
3.56718e-06
-1.14713e-06
3.24385e-06
-1.03237e-06
2.71444e-06
-8.0864e-07
1.80309e-06
-4.7755e-07
2.7761e-07
4.21636e-06
-1.29254e-06
4.39715e-06
-1.20499e-06
4.53919e-06
-1.1724e-06
4.6433e-06
-1.17881e-06
4.70148e-06
-1.19226e-06
4.6993e-06
-1.17905e-06
4.61921e-06
-1.1125e-06
4.4423e-06
-9.70224e-07
4.13248e-06
-7.22549e-07
3.59905e-06
-2.75216e-07
2.57198e-06
5.49521e-07
2.84959e-06
-6.77056e-10
6.77087e-10
1.67158e-07
-1.67835e-07
3.90515e-07
-2.23357e-07
5.38729e-07
-1.48214e-07
5.45331e-07
-6.60252e-09
4.29845e-07
1.15486e-07
2.11258e-07
2.18587e-07
-5.20755e-08
2.63334e-07
-2.91898e-07
2.39823e-07
-4.49731e-07
1.57832e-07
-5.18223e-07
6.84926e-08
2.08238e-08
-5.39047e-07
1.69253e-07
-1.68576e-07
4.32202e-07
-4.30784e-07
6.25135e-07
-4.16289e-07
7.03738e-07
-2.26816e-07
6.66131e-07
3.1004e-08
4.54103e-07
3.27514e-07
1.2821e-07
5.44481e-07
-2.48798e-07
6.40342e-07
-5.85002e-07
5.76026e-07
-8.31363e-07
4.04194e-07
-1.01926e-06
2.56389e-07
2.0201e-07
-1.20045e-06
2.31854e-07
-4.0043e-07
4.34376e-07
-6.33306e-07
4.94222e-07
-4.76136e-07
4.15785e-07
-1.4838e-07
1.90893e-07
2.55896e-07
-1.07122e-07
6.25529e-07
-4.42893e-07
8.80252e-07
-7.73521e-07
9.70969e-07
-1.08547e-06
8.87973e-07
-1.4148e-06
7.33526e-07
-1.79448e-06
6.36066e-07
6.35776e-07
-2.22824e-06
1.07142e-07
-5.07572e-07
7.95188e-08
-6.05683e-07
-6.65659e-08
-3.30051e-07
-2.94748e-07
7.98026e-08
-5.69757e-07
5.30905e-07
-8.83579e-07
9.39351e-07
-1.2121e-06
1.20877e-06
-1.54415e-06
1.30302e-06
-1.91004e-06
1.25387e-06
-2.34255e-06
1.16603e-06
-2.83927e-06
1.13279e-06
1.17833e-06
-3.38183e-06
-1.2712e-07
-3.80451e-07
-4.22526e-07
-3.10277e-07
-7.54963e-07
2.38578e-09
-1.08604e-06
4.1088e-07
-1.40829e-06
8.53159e-07
-1.70717e-06
1.23822e-06
-1.98772e-06
1.48932e-06
-2.26697e-06
1.58227e-06
-2.572e-06
1.5589e-06
-2.90816e-06
1.50219e-06
-3.25676e-06
1.48139e-06
1.51132e-06
-3.58975e-06
-3.91392e-07
1.09407e-08
-8.88698e-07
1.87028e-07
-1.35828e-06
4.71971e-07
-1.7754e-06
8.27996e-07
-2.11501e-06
1.19277e-06
-2.3664e-06
1.48961e-06
-2.53965e-06
1.66257e-06
-2.65739e-06
1.70001e-06
-2.73855e-06
1.64006e-06
-2.785e-06
1.54864e-06
-2.78633e-06
1.48271e-06
1.45319e-06
-2.72819e-06
-5.48835e-07
5.59776e-07
-1.16591e-06
8.041e-07
-1.72624e-06
1.0323e-06
-2.18537e-06
1.28713e-06
-2.51275e-06
1.52015e-06
-2.69137e-06
1.66824e-06
-2.72476e-06
1.69595e-06
-2.63373e-06
1.60898e-06
-2.44394e-06
1.45027e-06
-2.17394e-06
1.27864e-06
-1.83179e-06
1.14057e-06
1.04353e-06
-1.42214e-06
-5.23243e-07
1.08302e-06
-1.13122e-06
1.41208e-06
-1.69404e-06
1.59513e-06
-2.15304e-06
1.74612e-06
-2.46098e-06
1.82809e-06
-2.58417e-06
1.79143e-06
-2.51377e-06
1.62554e-06
-2.26977e-06
1.36499e-06
-1.89257e-06
1.07307e-06
-1.4251e-06
8.11166e-07
-8.97578e-07
6.13049e-07
4.73588e-07
-3.27634e-07
-3.32412e-07
1.41543e-06
-8.07753e-07
1.88742e-06
-1.27988e-06
2.06726e-06
-1.68752e-06
2.15375e-06
-1.97059e-06
2.11117e-06
-2.07225e-06
1.89309e-06
-1.96171e-06
1.515e-06
-1.64845e-06
1.05173e-06
-1.18097e-06
6.05589e-07
-6.26874e-07
2.57072e-07
-4.15428e-08
2.77182e-08
-1.08807e-07
5.40852e-07
-5.97485e-08
1.47518e-06
-3.20412e-07
2.14808e-06
-6.19512e-07
2.36636e-06
-9.43919e-07
2.47816e-06
-1.20929e-06
2.37654e-06
-1.32067e-06
2.00447e-06
-1.20939e-06
1.40372e-06
-8.63694e-07
7.06031e-07
-3.35378e-07
7.72735e-08
2.69423e-07
-3.47729e-07
8.72919e-07
-5.75778e-07
-6.60782e-07
1.42489e-06
3.50612e-07
1.12457e-06
3.83173e-07
2.11552e-06
3.03208e-07
2.44632e-06
1.20155e-07
2.66121e-06
-7.47039e-08
2.57139e-06
-1.4393e-07
2.0737e-06
1.51746e-08
1.24462e-06
4.21765e-07
2.99441e-07
9.70894e-07
-4.71856e-07
1.56579e-06
-9.42623e-07
2.11096e-06
-1.12095e-06
-1.12331e-06
2.57349e-06
2.74249e-07
8.50317e-07
8.90863e-07
1.49891e-06
1.33863e-06
1.99856e-06
1.52679e-06
2.47305e-06
1.59285e-06
2.50533e-06
1.71347e-06
1.95308e-06
1.98459e-06
9.73493e-07
2.39299e-06
-1.08958e-07
2.87008e-06
-9.48947e-07
3.32058e-06
-1.39312e-06
3.69664e-06
-1.49702e-06
3.99153e-06
-1.4182e-06
-5.47543e-07
8.49569e-09
-5.67657e-07
2.0115e-08
-6.10117e-07
4.24599e-08
-6.60697e-07
5.05793e-08
-6.90932e-07
3.02356e-08
-6.7516e-07
-1.57717e-08
-5.99124e-07
-7.60369e-08
-4.44304e-07
-1.54819e-07
-2.53886e-07
-1.90418e-07
-1.0247e-07
-1.51416e-07
-3.94503e-08
-6.30197e-08
-3.94503e-08
-1.40609e-06
2.14143e-07
-1.64595e-06
2.59974e-07
-1.90353e-06
3.00042e-07
-2.13491e-06
2.81957e-07
-2.27639e-06
1.71715e-07
-2.26047e-06
-3.16932e-08
-2.03658e-06
-2.99924e-07
-1.62196e-06
-5.69439e-07
-1.07367e-06
-7.3871e-07
-5.19124e-07
-7.05963e-07
-1.29065e-07
-4.53079e-07
-1.68515e-07
-2.72091e-06
7.06807e-07
-3.24457e-06
7.83633e-07
-3.72706e-06
7.82533e-07
-4.08455e-06
6.39446e-07
-4.24294e-06
3.30114e-07
-4.15876e-06
-1.15878e-07
-3.79585e-06
-6.62831e-07
-3.16002e-06
-1.20528e-06
-2.25828e-06
-1.64045e-06
-1.17997e-06
-1.78427e-06
-2.5217e-07
-1.38088e-06
-4.20685e-07
-3.93577e-06
1.26075e-06
-4.44105e-06
1.28891e-06
-4.82885e-06
1.17033e-06
-5.04362e-06
8.54209e-07
-5.06045e-06
3.46951e-07
-4.86362e-06
-3.12706e-07
-4.5197e-06
-1.00676e-06
-4.00744e-06
-1.71753e-06
-3.2632e-06
-2.38469e-06
-2.1728e-06
-2.87467e-06
-8.00143e-07
-2.75354e-06
-1.22083e-06
-3.86782e-06
1.53883e-06
-4.04655e-06
1.46764e-06
-4.09059e-06
1.21437e-06
-3.9879e-06
7.51526e-07
-3.76467e-06
1.23715e-07
-3.48662e-06
-5.90752e-07
-3.20833e-06
-1.28505e-06
-2.9708e-06
-1.95506e-06
-2.73656e-06
-2.61893e-06
-2.31397e-06
-3.29726e-06
-1.31974e-06
-3.74776e-06
-2.54057e-06
-2.59634e-06
1.40697e-06
-2.38133e-06
1.25264e-06
-2.08511e-06
9.1815e-07
-1.72964e-06
3.96051e-07
-1.40119e-06
-2.04738e-07
-1.1294e-06
-8.62537e-07
-9.56241e-07
-1.45821e-06
-9.10068e-07
-2.00123e-06
-1.00756e-06
-2.52144e-06
-1.2107e-06
-3.09411e-06
-1.08942e-06
-3.86905e-06
-3.62999e-06
-9.57216e-07
9.42055e-07
-4.59098e-07
7.5452e-07
2.85656e-08
4.30486e-07
4.28578e-07
-3.96214e-09
7.02422e-07
-4.78582e-07
8.22017e-07
-9.82132e-07
8.14348e-07
-1.45054e-06
6.94429e-07
-1.88132e-06
4.72016e-07
-2.29903e-06
1.29386e-07
-2.75148e-06
-2.95142e-07
-3.44453e-06
-3.92513e-06
2.63648e-07
3.50774e-07
8.3204e-07
1.86128e-07
1.31551e-06
-5.29886e-08
1.67008e-06
-3.5853e-07
1.88803e-06
-6.96532e-07
1.95344e-06
-1.04754e-06
1.8797e-06
-1.3768e-06
1.67684e-06
-1.67845e-06
1.35584e-06
-1.97804e-06
9.36126e-07
-2.33176e-06
3.645e-07
-2.8729e-06
-3.56063e-06
1.08987e-06
-1.98245e-07
1.58191e-06
-3.05913e-07
1.98757e-06
-4.58649e-07
2.28613e-06
-6.57086e-07
2.47166e-06
-8.82065e-07
2.53503e-06
-1.1109e-06
2.47899e-06
-1.32077e-06
2.30069e-06
-1.50014e-06
1.98299e-06
-1.66034e-06
1.48882e-06
-1.83759e-06
8.05413e-07
-2.18949e-06
-2.75521e-06
1.91362e-06
-6.86975e-07
2.32823e-06
-7.20516e-07
2.66049e-06
-7.90914e-07
2.90293e-06
-8.99527e-07
3.0502e-06
-1.02933e-06
3.09648e-06
-1.15719e-06
3.03743e-06
-1.26171e-06
2.86353e-06
-1.32625e-06
2.55343e-06
-1.35024e-06
2.04689e-06
-1.33106e-06
1.23796e-06
-1.38056e-06
-1.51726e-06
2.9545e-06
-1.06798e-06
3.26374e-06
-1.02976e-06
3.50821e-06
-1.03538e-06
3.68727e-06
-1.07859e-06
3.79434e-06
-1.13639e-06
3.81882e-06
-1.18168e-06
3.74824e-06
-1.19113e-06
3.56591e-06
-1.14391e-06
3.24319e-06
-1.02752e-06
2.71438e-06
-8.02246e-07
1.80292e-06
-4.69101e-07
2.85663e-07
4.21979e-06
-1.29624e-06
4.39883e-06
-1.2088e-06
4.53936e-06
-1.17591e-06
4.64232e-06
-1.18155e-06
4.6997e-06
-1.19377e-06
4.69708e-06
-1.17906e-06
4.61687e-06
-1.11092e-06
4.44014e-06
-9.6718e-07
4.13078e-06
-7.18159e-07
3.59817e-06
-2.6963e-07
2.57276e-06
5.56307e-07
2.85842e-06
3.84563e-06
2.19321e-06
3.29224e-06
2.05748e-06
3.12968e-06
2.16618e-06
3.30673e-06
2.29781e-06
3.62422e-06
2.18622e-06
3.99022e-06
1.58372e-06
4.38577e-06
5.74796e-07
4.76404e-06
-4.88888e-07
5.06434e-06
-1.24909e-06
5.26464e-06
-1.59185e-06
5.38521e-06
-1.61499e-06
-1.48717e-06
5.45749e-06
6.71143e-06
2.22792e-06
6.4311e-06
2.33781e-06
6.16148e-06
2.43579e-06
6.11119e-06
2.3481e-06
6.3166e-06
1.98082e-06
6.65216e-06
1.24815e-06
6.94944e-06
2.77518e-07
7.11714e-06
-6.56589e-07
7.13005e-06
-1.262e-06
7.0376e-06
-1.4994e-06
6.90575e-06
-1.48314e-06
-1.36166e-06
6.78024e-06
7.97081e-06
1.85456e-06
8.22235e-06
2.08627e-06
8.41334e-06
2.2448e-06
8.57738e-06
2.18406e-06
8.77451e-06
1.78368e-06
8.94532e-06
1.07735e-06
8.99032e-06
2.32519e-07
8.86336e-06
-5.29629e-07
8.60654e-06
-1.00517e-06
8.31086e-06
-1.20372e-06
8.03935e-06
-1.21163e-06
-1.14395e-06
7.82164e-06
8.62424e-06
8.95532e-06
9.31948e-06
9.65824e-06
9.90216e-06
9.99978e-06
9.92426e-06
9.69304e-06
9.38738e-06
9.07934e-06
8.81944e-06
8.62001e-06
5.5076e-06
-1.34265e-06
5.55112e-06
-1.2485e-06
5.59313e-06
-1.21442e-06
5.62981e-06
-1.2155e-06
5.64941e-06
-1.21186e-06
5.63358e-06
-1.16322e-06
5.5613e-06
-1.04022e-06
5.41783e-06
-8.26757e-07
5.19792e-06
-5.0264e-07
4.90332e-06
1.93933e-08
4.69207e-06
7.60767e-07
2.3583e-06
5.18337e-06
6.68156e-06
-1.24398e-06
6.61279e-06
-1.17973e-06
6.56866e-06
-1.17029e-06
6.54088e-06
-1.18772e-06
6.51879e-06
-1.18976e-06
6.48746e-06
-1.1319e-06
6.42988e-06
-9.82642e-07
6.33813e-06
-7.35001e-07
6.22365e-06
-3.88166e-07
6.13544e-06
1.07606e-07
6.18415e-06
7.1206e-07
1.79604e-06
6.7464e-06
7.65931e-06
-1.08165e-06
7.54006e-06
-1.06049e-06
7.4487e-06
-1.07892e-06
7.37246e-06
-1.11148e-06
7.30229e-06
-1.1196e-06
7.23268e-06
-1.06229e-06
7.16303e-06
-9.12986e-07
7.10334e-06
-6.75314e-07
7.07484e-06
-3.59671e-07
7.10404e-06
7.84086e-08
7.18105e-06
6.35054e-07
1.37857e-06
7.59852e-06
8.47192e-06
8.3578e-06
8.25889e-06
8.15737e-06
8.03666e-06
7.88986e-06
7.74305e-06
7.66168e-06
7.69742e-06
7.83714e-06
8.00208e-06
8.29402e-06
3.84713e-06
2.18655e-06
3.29323e-06
2.05281e-06
3.12951e-06
2.16227e-06
3.30729e-06
2.29528e-06
3.627e-06
2.18562e-06
3.99533e-06
1.58475e-06
4.39259e-06
5.76229e-07
4.77148e-06
-4.87839e-07
5.07111e-06
-1.24858e-06
5.26998e-06
-1.59199e-06
5.38885e-06
-1.61589e-06
-1.48884e-06
5.4595e-06
6.7119e-06
2.22106e-06
6.43279e-06
2.33191e-06
6.16348e-06
2.43158e-06
6.11313e-06
2.34563e-06
6.31893e-06
1.97983e-06
6.65527e-06
1.24841e-06
6.95305e-06
2.7845e-07
7.12039e-06
-6.55181e-07
7.13214e-06
-1.26033e-06
7.03846e-06
-1.4983e-06
6.90551e-06
-1.48295e-06
-1.36246e-06
6.77913e-06
7.97011e-06
1.84947e-06
8.22079e-06
2.08123e-06
8.41192e-06
2.24046e-06
8.57638e-06
2.18117e-06
8.77377e-06
1.78243e-06
8.94457e-06
1.07761e-06
8.98935e-06
2.33677e-07
8.8615e-06
-5.27339e-07
8.60436e-06
-1.00319e-06
8.30836e-06
-1.2023e-06
8.03672e-06
-1.21131e-06
-1.14471e-06
7.81897e-06
8.62525e-06
8.9544e-06
9.31695e-06
9.65482e-06
9.89837e-06
9.99589e-06
9.92025e-06
9.6893e-06
9.38397e-06
9.07649e-06
8.81707e-06
8.61793e-06
5.50818e-06
-1.34493e-06
5.55048e-06
-1.2511e-06
5.59152e-06
-1.21695e-06
5.62748e-06
-1.21751e-06
5.64664e-06
-1.21293e-06
5.6306e-06
-1.16302e-06
5.55827e-06
-1.03859e-06
5.41487e-06
-8.23779e-07
5.1952e-06
-4.98485e-07
4.90098e-06
2.45821e-08
4.6911e-06
7.66194e-07
2.36608e-06
6.67977e-06
-1.24557e-06
6.61043e-06
-1.18176e-06
6.5658e-06
-1.17232e-06
6.5376e-06
-1.18931e-06
6.5152e-06
-1.19054e-06
6.4837e-06
-1.13152e-06
6.42608e-06
-9.80971e-07
6.33442e-06
-7.32115e-07
6.2201e-06
-3.84172e-07
6.13243e-06
1.12259e-07
6.182e-06
7.1662e-07
1.80212e-06
7.65663e-06
-1.08323e-06
7.53729e-06
-1.06243e-06
7.44573e-06
-1.08076e-06
7.3692e-06
-1.11278e-06
7.29867e-06
-1.12001e-06
7.22871e-06
-1.06156e-06
7.15881e-06
-9.11076e-07
7.0991e-06
-6.72405e-07
7.0708e-06
-3.5587e-07
7.1005e-06
8.25601e-08
7.17805e-06
6.39071e-07
1.38283e-06
8.46999e-06
8.35586e-06
8.25676e-06
8.15482e-06
8.03347e-06
7.88594e-06
7.73867e-06
7.65732e-06
7.69349e-06
7.83349e-06
7.99864e-06
)
;

boundaryField
{
    rotor
    {
        type            calculated;
        value           nonuniform List<scalar> 
96
(
4.75949e-23
9.26838e-23
6.05751e-23
-1.19583e-22
1.07557e-22
3.84166e-24
-6.06708e-23
-1.06895e-23
-1.29803e-23
-8.90798e-25
2.08377e-24
3.40496e-23
-2.58256e-23
4.26954e-23
-1.04559e-22
-3.2777e-23
-7.88288e-23
1.94467e-23
-7.34121e-24
4.60516e-23
-1.37597e-23
-1.85042e-22
-5.99706e-23
-1.65603e-22
-4.14784e-23
-5.1802e-23
-6.34625e-23
5.79106e-23
-2.12122e-23
3.18304e-23
-2.20793e-23
-4.21549e-24
-1.88342e-23
2.09165e-24
-1.16895e-24
-5.16213e-24
-1.92874e-23
8.41097e-23
-3.09077e-23
-1.31689e-22
1.36723e-22
1.27426e-22
-6.92766e-23
4.9647e-23
5.96124e-23
-1.40294e-22
7.46832e-24
-6.74788e-23
4.23516e-22
4.23516e-22
0
0
0
8.47033e-22
-8.47033e-22
0
1.69407e-21
8.47033e-22
1.69407e-21
0
-4.23516e-22
0
0
0
8.47033e-22
-8.47033e-22
0
0
0
-8.47033e-22
0
1.69407e-21
0
4.23516e-22
0
0
0
8.47033e-22
0
0
8.47033e-22
-8.47033e-22
1.69407e-21
0
0
-4.23516e-22
0
0
0
-8.47033e-22
0
-8.47033e-22
-8.47033e-22
-8.47033e-22
-8.47033e-22
0
)
;
    }
    stator
    {
        type            calculated;
        value           nonuniform 0();
    }
    AMI1
    {
        type            cyclicAMI;
        value           nonuniform List<scalar> 
48
(
1.52179e-06
1.7552e-06
1.88064e-06
1.8453e-06
1.53976e-06
9.79728e-07
3.08036e-07
-2.98407e-07
-6.99515e-07
-8.95679e-07
-9.51741e-07
-9.44509e-07
-9.33561e-07
-9.46364e-07
-9.8002e-07
-1.00995e-06
-9.98897e-07
-9.15486e-07
-7.66169e-07
-5.93944e-07
-3.95415e-07
-6.13105e-08
4.70108e-07
1.08663e-06
1.51824e-06
1.75209e-06
1.8779e-06
1.8433e-06
1.53888e-06
9.80091e-07
3.09319e-07
-2.96397e-07
-6.97848e-07
-8.94825e-07
-9.51887e-07
-9.45569e-07
-9.35294e-07
-9.48293e-07
-9.81657e-07
-1.01084e-06
-9.9866e-07
-9.1403e-07
-7.63804e-07
-5.9105e-07
-3.92048e-07
-5.74341e-08
4.73924e-07
1.09018e-06
)
;
    }
    AMI2
    {
        type            cyclicAMI;
        value           nonuniform 0();
    }
    front
    {
        type            empty;
        value           nonuniform 0();
    }
    back
    {
        type            empty;
        value           nonuniform 0();
    }
    procBoundary3to2
    {
        type            processor;
        value           nonuniform List<scalar> 8(-5.18347e-06 -6.74614e-06 -7.59745e-06 -8.29147e-06 5.18344e-06 6.74597e-06 7.59733e-06 8.29129e-06);
    }
}


// ************************************************************************* //
