/*--------------------------------*- C++ -*----------------------------------*\
| =========                 |                                                 |
| \\      /  F ield         | OpenFOAM: The Open Source CFD Toolbox           |
|  \\    /   O peration     | Version:  v1606+                                |
|   \\  /    A nd           | Web:      www.OpenFOAM.com                      |
|    \\/     M anipulation  |                                                 |
\*---------------------------------------------------------------------------*/
FoamFile
{
    version     2.0;
    format      ascii;
    class       surfaceScalarField;
    location    "1.7";
    object      phi;
}
// * * * * * * * * * * * * * * * * * * * * * * * * * * * * * * * * * * * * * //

dimensions      [0 3 -1 0 0 0 0];

internalField   nonuniform List<scalar> 
1460
(
-1.86399e-07
3.77491e-08
2.68472e-07
-1.96673e-07
-5.26246e-07
-2.98848e-07
-9.77934e-07
-4.80935e-07
-1.22775e-06
-6.97838e-07
-1.28027e-06
-9.11005e-07
-1.18577e-06
-1.11506e-06
-1.02649e-06
-1.31541e-06
-8.84192e-07
-1.49116e-06
-8.32754e-07
-1.60395e-06
-8.66802e-07
-1.64419e-06
-8.80003e-07
-8.97002e-07
3.4717e-07
3.1166e-08
-3.40587e-07
2.56627e-07
-4.35703e-07
8.07802e-08
-8.02087e-07
-1.43392e-07
-1.00358e-06
-3.80455e-07
-1.0432e-06
-5.92537e-07
-9.73692e-07
-7.75875e-07
-8.43153e-07
-9.46199e-07
-7.13868e-07
-1.1268e-06
-6.52159e-07
-1.32623e-06
-6.67372e-07
-1.51062e-06
-6.95604e-07
-9.08713e-07
5.30344e-07
6.72705e-08
-5.66449e-07
4.17545e-07
-3.22903e-07
2.42355e-07
-6.26896e-07
3.97838e-08
-8.01012e-07
-1.55641e-07
-8.47777e-07
-3.3646e-07
-7.92872e-07
-4.92852e-07
-6.8676e-07
-6.30975e-07
-5.75746e-07
-7.67767e-07
-5.15367e-07
-9.48834e-07
-4.86304e-07
-1.20482e-06
-4.3962e-07
-7.08847e-07
5.65817e-07
-5.94083e-07
9.55367e-08
4.75596e-07
-2.32683e-07
3.38701e-07
-4.90001e-07
1.81009e-07
-6.4332e-07
2.51861e-08
-6.91954e-07
-1.15472e-07
-6.52215e-07
-2.44058e-07
-5.58174e-07
-3.50445e-07
-4.69359e-07
-4.30383e-07
-4.35428e-07
-4.96063e-07
-4.20624e-07
-6.35523e-07
-3.00159e-07
-3.08236e-07
-1.38924e-06
-8.4643e-07
-1.39487e-06
-2.73709e-07
-1.30793e-06
6.35837e-08
-1.16405e-06
5.38837e-07
-1.0181e-06
1.03224e-06
-9.01518e-07
1.44432e-06
-8.20178e-07
1.71064e-06
-7.51827e-07
1.80833e-06
-6.66563e-07
1.74256e-06
-5.48869e-07
1.5198e-06
-4.09218e-07
1.14598e-06
6.36589e-07
-2.75027e-07
-1.11254e-06
-1.22976e-06
-1.0385e-06
-3.47747e-07
-1.01285e-06
3.79383e-08
-9.01862e-07
4.27846e-07
-7.39331e-07
8.69714e-07
-5.47461e-07
1.25245e-06
-3.54715e-07
1.51789e-06
-1.77384e-07
1.631e-06
-1.89506e-08
1.58413e-06
1.27973e-07
1.37288e-06
2.57472e-07
1.01648e-06
5.53864e-07
3.40197e-07
-9.85589e-07
-1.64965e-06
-8.17838e-07
-5.15498e-07
-7.87963e-07
8.06309e-09
-7.12939e-07
3.52823e-07
-5.80672e-07
7.37446e-07
-4.00807e-07
1.07258e-06
-1.90401e-07
1.30748e-06
2.58758e-08
1.41472e-06
2.285e-07
1.3815e-06
3.99253e-07
1.20212e-06
5.18775e-07
8.96959e-07
5.04734e-07
5.67905e-07
-7.70422e-07
-1.91762e-06
-6.8359e-07
-6.0233e-07
-6.40682e-07
-3.48447e-08
-5.76318e-07
2.88459e-07
-4.62386e-07
6.23514e-07
-3.05748e-07
9.15943e-07
-1.19723e-07
1.12146e-06
7.80293e-08
1.21697e-06
2.72119e-07
1.18741e-06
4.35238e-07
1.03901e-06
5.47621e-07
7.84575e-07
5.92889e-07
4.59467e-07
-1.92781e-07
5.73907e-08
-2.01724e-07
-5.09124e-07
-3.03372e-07
-9.64192e-07
-4.84199e-07
-1.22049e-06
-6.99256e-07
-1.2791e-06
-9.10326e-07
-1.1892e-06
-1.1124e-06
-1.03377e-06
-1.31089e-06
-8.94467e-07
-1.48488e-06
-8.4316e-07
-1.59701e-06
-8.73831e-07
-1.64319e-06
-8.79484e-07
-8.96745e-07
-1.57583e-06
3.47383e-07
5.02044e-08
2.59195e-07
-4.20936e-07
8.2264e-08
-7.87261e-07
-1.42402e-07
-9.95825e-07
-3.79062e-07
-1.04244e-06
-5.90196e-07
-9.78071e-07
-7.72813e-07
-8.51149e-07
-9.43059e-07
-7.24221e-07
-1.124e-06
-6.62223e-07
-1.32369e-06
-6.74131e-07
-1.50731e-06
-6.9587e-07
-9.0715e-07
-1.4969e-06
5.3465e-07
8.34599e-08
4.21845e-07
-3.08131e-07
2.45674e-07
-6.1109e-07
4.2653e-08
-7.92804e-07
-1.52467e-07
-8.47322e-07
-3.33173e-07
-7.97365e-07
-4.89399e-07
-6.94923e-07
-6.28162e-07
-5.85457e-07
-7.66281e-07
-5.24105e-07
-9.49005e-07
-4.91407e-07
-1.20559e-06
-4.39282e-07
-7.05921e-07
-1.40682e-06
5.6726e-07
1.09089e-07
4.76866e-07
-2.17738e-07
3.41153e-07
-4.75376e-07
1.84309e-07
-6.3596e-07
2.88986e-08
-6.91911e-07
-1.11545e-07
-6.56921e-07
-2.40816e-07
-5.65652e-07
-3.48238e-07
-4.78036e-07
-4.29405e-07
-4.42937e-07
-4.96852e-07
-4.2396e-07
-6.37115e-07
-2.99019e-07
-1.03945e-06
-3.03584e-07
-1.38934e-06
-8.42908e-07
-1.39427e-06
-2.65185e-07
-1.30653e-06
7.59412e-08
-1.16242e-06
5.52455e-07
-1.017e-06
1.045e-06
-9.00563e-07
1.45369e-06
-8.18753e-07
1.71597e-06
-7.49141e-07
1.8093e-06
-6.62607e-07
1.73962e-06
-5.4435e-07
1.51325e-06
-4.04326e-07
1.13499e-06
6.18799e-07
-1.11345e-06
-1.22637e-06
-1.0386e-06
-3.40033e-07
-1.01139e-06
4.87382e-08
-8.99488e-07
4.4055e-07
-7.36009e-07
8.81517e-07
-5.44243e-07
1.26192e-06
-3.52141e-07
1.52387e-06
-1.7543e-07
1.63258e-06
-1.77846e-08
1.58197e-06
1.28279e-07
1.36718e-06
2.57296e-07
1.00597e-06
5.35508e-07
-9.86685e-07
-1.6465e-06
-8.17523e-07
-5.09195e-07
-7.86762e-07
1.79776e-08
-7.10117e-07
3.63904e-07
-5.76512e-07
7.47913e-07
-3.96112e-07
1.08152e-06
-1.86073e-07
1.31383e-06
2.85203e-08
1.41799e-06
2.30686e-07
1.37981e-06
4.00235e-07
1.19763e-06
5.19242e-07
8.86967e-07
4.88301e-07
-7.71243e-07
-1.91471e-06
-6.83374e-07
-5.97064e-07
-6.39293e-07
-2.61033e-08
-5.73382e-07
2.97993e-07
-4.58048e-07
6.32579e-07
-3.00331e-07
9.23805e-07
-1.13924e-07
1.12743e-06
8.41244e-08
1.21994e-06
2.76542e-07
1.18739e-06
4.40209e-07
1.03397e-06
5.51696e-07
7.75481e-07
4.45914e-07
5.8026e-07
1.04377e-07
-5.89101e-07
5.18743e-07
-1.71165e-07
4.17408e-07
-3.88666e-07
2.95709e-07
-5.21621e-07
1.71653e-07
-5.67899e-07
5.88839e-08
-5.39445e-07
-3.38443e-08
-4.65446e-07
-1.07736e-07
-3.95467e-07
-1.52329e-07
-3.90835e-07
-1.30705e-07
-4.42247e-07
-1.64946e-08
-4.1437e-07
-3.2473e-07
5.83232e-07
1.02496e-07
-5.81351e-07
5.3971e-07
-1.27643e-07
4.61177e-07
-3.10134e-07
3.64924e-07
-4.25368e-07
2.66632e-07
-4.69608e-07
1.79444e-07
-4.52257e-07
1.11387e-07
-3.97389e-07
6.47798e-08
-3.48859e-07
3.20221e-08
-3.58078e-07
1.24114e-08
-4.22637e-07
1.20021e-08
-4.1396e-07
-3.12728e-07
5.59333e-07
9.60453e-08
-5.52882e-07
5.26706e-07
-9.50154e-08
4.64501e-07
-2.47929e-07
3.86811e-07
-3.47677e-07
3.07891e-07
-3.90688e-07
2.39539e-07
-3.83906e-07
1.88925e-07
-3.46775e-07
1.5412e-07
-3.14055e-07
1.19999e-07
-3.23957e-07
7.29266e-08
-3.75564e-07
3.71219e-08
-3.78155e-07
-2.75606e-07
5.15653e-07
8.66739e-08
-5.06281e-07
4.91692e-07
-7.10553e-08
4.42313e-07
-1.98549e-07
3.79078e-07
-2.84442e-07
3.13811e-07
-3.2542e-07
2.56715e-07
-3.2681e-07
2.13714e-07
-3.03773e-07
1.81299e-07
-2.8164e-07
1.44565e-07
-2.87223e-07
9.12948e-08
-3.22294e-07
4.0234e-08
-3.27095e-07
-2.35372e-07
4.68486e-07
7.52573e-08
-4.57069e-07
4.51515e-07
-5.40846e-08
4.12553e-07
-1.59587e-07
3.60421e-07
-2.3231e-07
3.04983e-07
-2.69983e-07
2.54584e-07
-2.76411e-07
2.1388e-07
-2.63069e-07
1.80325e-07
-2.48085e-07
1.42636e-07
-2.49535e-07
9.18169e-08
-2.71474e-07
3.89279e-08
-2.74206e-07
-1.96444e-07
4.27677e-07
6.2398e-08
-4.14817e-07
4.15806e-07
-4.22143e-08
3.84682e-07
-1.28463e-07
3.41224e-07
-1.88852e-07
2.93312e-07
-2.22071e-07
2.4763e-07
-2.30729e-07
2.08002e-07
-2.2344e-07
1.73034e-07
-2.13117e-07
1.35346e-07
-2.11847e-07
8.81878e-08
-2.24316e-07
3.73538e-08
-2.23372e-07
-1.59091e-07
3.9524e-07
4.87219e-08
-3.81564e-07
3.87147e-07
-3.41215e-08
3.61814e-07
-1.03129e-07
3.24947e-07
-1.51985e-07
2.82915e-07
-1.80039e-07
2.40967e-07
-1.88781e-07
2.02466e-07
-1.8494e-07
1.66789e-07
-1.7744e-07
1.29299e-07
-1.74356e-07
8.47958e-08
-1.79814e-07
3.62806e-08
-1.74856e-07
-1.2281e-07
3.70434e-07
3.46547e-08
-3.56367e-07
3.65057e-07
-2.87448e-08
3.43907e-07
-8.19785e-08
3.11923e-07
-1.20002e-07
2.74236e-07
-1.42352e-07
2.35317e-07
-1.49861e-07
1.97992e-07
-1.47615e-07
1.6218e-07
-1.41628e-07
1.24864e-07
-1.37041e-07
8.19993e-08
-1.36949e-07
3.54474e-08
-1.28305e-07
-8.73627e-08
3.52098e-07
2.05769e-08
-3.3802e-07
3.48483e-07
-2.51297e-08
3.30254e-07
-6.37491e-08
3.01545e-07
-9.12932e-08
2.66813e-07
-1.0762e-07
2.3003e-07
-1.13078e-07
1.93643e-07
-1.11228e-07
1.5778e-07
-1.05765e-07
1.205e-07
-9.976e-08
7.87373e-08
-9.51863e-08
3.41531e-08
-8.37203e-08
-5.32096e-08
3.39031e-07
7.01441e-09
-3.25469e-07
3.36344e-07
-2.24425e-08
3.19686e-07
-4.70908e-08
2.92747e-07
-6.43546e-08
2.59471e-07
-7.43438e-08
2.23438e-07
-7.70457e-08
1.87045e-07
-7.48354e-08
1.50683e-07
-6.94027e-08
1.13169e-07
-6.22457e-08
7.25851e-08
-5.46026e-08
3.10772e-08
-4.22124e-08
-2.21325e-08
3.31767e-07
-4.15732e-09
-3.20595e-07
3.27145e-07
-1.78205e-08
3.08746e-07
-2.86916e-08
2.80104e-07
-3.57125e-08
2.44809e-07
-3.90485e-08
2.06676e-07
-3.89132e-08
1.67907e-07
-3.60666e-08
1.29848e-07
-3.13429e-08
9.2625e-08
-2.5023e-08
5.58403e-08
-1.78179e-08
2.23549e-08
-8.72701e-09
2.22424e-10
2.78941e-07
-2.83099e-07
2.61121e-07
2.32429e-07
1.96717e-07
1.57668e-07
1.18755e-07
8.26884e-08
5.13455e-08
2.63225e-08
8.50459e-09
-2.22424e-10
-5.06467e-07
-1.41116e-06
-5.70184e-07
-5.38613e-07
-5.37158e-07
-6.78709e-08
-4.75994e-07
2.27295e-07
-3.72527e-07
5.20048e-07
-2.29959e-07
7.73375e-07
-6.23789e-08
9.5388e-07
1.15157e-07
1.03943e-06
2.85663e-07
1.01691e-06
4.3156e-07
8.93109e-07
5.36258e-07
6.79877e-07
4.09438e-07
5.86286e-07
-3.8634e-07
-1.02482e-06
-4.6268e-07
-4.62273e-07
-4.42272e-07
-8.82783e-08
-3.90785e-07
1.75808e-07
-3.00501e-07
4.29763e-07
-1.73319e-07
6.46193e-07
-2.10063e-08
8.01567e-07
1.40303e-07
8.78124e-07
2.95412e-07
8.61797e-07
4.29116e-07
7.59404e-07
5.26422e-07
5.82571e-07
3.57442e-07
5.78419e-07
-2.78342e-07
-7.46474e-07
-3.6144e-07
-3.79175e-07
-3.5533e-07
-9.43884e-08
-3.15747e-07
1.36225e-07
-2.39777e-07
3.53793e-07
-1.30355e-07
5.36771e-07
3.57966e-09
6.67632e-07
1.48521e-07
7.33182e-07
2.88698e-07
7.2162e-07
4.09951e-07
6.38151e-07
4.99602e-07
4.92921e-07
3.06846e-07
5.50198e-07
-1.99073e-07
-5.474e-07
-2.75826e-07
-3.02422e-07
-2.81542e-07
-8.86732e-08
-2.52507e-07
1.07191e-07
-1.89443e-07
2.90729e-07
-9.65485e-08
4.43876e-07
1.76738e-08
5.5341e-07
1.43968e-07
6.06888e-07
2.67241e-07
5.98346e-07
3.75527e-07
5.29864e-07
4.56671e-07
4.11777e-07
2.59555e-07
5.03962e-07
-1.44198e-07
-4.03202e-07
-2.10785e-07
-2.35836e-07
-2.232e-07
-7.62586e-08
-2.01921e-07
8.5912e-08
-1.49161e-07
2.37969e-07
-6.98476e-08
3.64563e-07
2.91703e-08
4.54392e-07
1.37732e-07
4.98327e-07
2.44685e-07
4.91393e-07
3.39063e-07
4.35486e-07
4.11211e-07
3.3963e-07
2.15844e-07
4.54922e-07
-1.07386e-07
-2.95816e-07
-1.63729e-07
-1.79493e-07
-1.78858e-07
-6.11287e-08
-1.62742e-07
6.97952e-08
-1.17863e-07
1.9309e-07
-4.9151e-08
2.95851e-07
3.63754e-08
3.68866e-07
1.31334e-07
4.03369e-07
2.25258e-07
3.97469e-07
3.08208e-07
3.52536e-07
3.72442e-07
2.75396e-07
1.75525e-07
4.12761e-07
-8.26794e-08
-2.13137e-07
-1.30182e-07
-1.3199e-07
-1.45725e-07
-4.55865e-08
-1.32914e-07
5.6985e-08
-9.39027e-08
1.54079e-07
-3.32773e-08
2.35226e-07
4.31193e-08
2.92469e-07
1.269e-07
3.19588e-07
2.10111e-07
3.14258e-07
2.84e-07
2.78646e-07
3.42162e-07
2.17234e-07
1.38112e-07
3.79575e-07
-6.57773e-08
-1.47359e-07
-1.06105e-07
-9.16622e-08
-1.20907e-07
-3.07846e-08
-1.10111e-07
4.61894e-08
-7.54368e-08
1.19404e-07
-2.09932e-08
1.80782e-07
4.76223e-08
2.23854e-07
1.23551e-07
2.43659e-07
1.9871e-07
2.39099e-07
2.65925e-07
2.11432e-07
3.19447e-07
1.63712e-07
1.031e-07
3.54459e-07
-5.38403e-08
-9.35191e-08
-8.82093e-08
-5.72932e-08
-1.01753e-07
-1.72408e-08
-9.20843e-08
3.65206e-08
-6.05525e-08
8.78723e-08
-1.07343e-08
1.30964e-07
5.22793e-08
1.6084e-07
1.21773e-07
1.74165e-07
1.90972e-07
1.699e-07
2.53446e-07
1.48958e-07
3.03116e-07
1.14043e-07
7.00105e-08
3.36205e-07
-4.50295e-08
-4.84896e-08
-7.43789e-08
-2.79438e-08
-8.6345e-08
-5.2747e-09
-7.72114e-08
2.7387e-08
-4.78555e-08
5.85164e-08
-1.41676e-09
8.4525e-08
5.73544e-08
1.02069e-07
1.22382e-07
1.09138e-07
1.87219e-07
1.05063e-07
2.45644e-07
9.05319e-08
2.92388e-07
6.72988e-08
3.86035e-08
3.23795e-07
-3.60636e-08
-1.24259e-08
-5.94448e-08
-4.5627e-09
-6.84915e-08
3.77204e-09
-5.84176e-08
1.73131e-08
-2.96466e-08
2.97453e-08
1.50246e-08
3.98538e-08
7.09882e-08
4.61053e-08
1.32497e-07
4.76292e-08
1.93392e-07
4.41682e-08
2.47809e-07
3.61153e-08
2.90729e-07
2.43789e-08
1.03536e-08
3.18979e-07
-1.24259e-08
-1.69886e-08
-1.32166e-08
4.09649e-09
3.38418e-08
7.36956e-08
1.19801e-07
1.6743e-07
2.11598e-07
2.47714e-07
2.72092e-07
2.82446e-07
5.78846e-07
1.1653e-07
5.18616e-07
-1.57508e-07
4.19567e-07
-3.76327e-07
2.99332e-07
-5.15726e-07
1.75671e-07
-5.6825e-07
6.26462e-08
-5.43897e-07
-3.04245e-08
-4.72581e-07
-1.05792e-07
-4.02668e-07
-1.52112e-07
-3.96617e-07
-1.3176e-07
-4.44312e-07
-1.71089e-08
-4.1367e-07
-3.20692e-07
5.81607e-07
1.13341e-07
5.39998e-07
-1.15899e-07
4.63953e-07
-3.00283e-07
3.68835e-07
-4.20607e-07
2.7055e-07
-4.69965e-07
1.82697e-07
-4.56043e-07
1.1344e-07
-4.03325e-07
6.56632e-08
-3.54892e-07
3.16472e-08
-3.62601e-07
1.14714e-08
-4.24137e-07
1.08715e-08
-4.1307e-07
-3.09821e-07
5.5826e-07
1.05279e-07
5.27829e-07
-8.54677e-08
4.67591e-07
-2.40045e-07
3.90683e-07
-3.43699e-07
3.11474e-07
-3.90756e-07
2.42248e-07
-3.86817e-07
1.90382e-07
-3.51458e-07
1.54367e-07
-3.18877e-07
1.19276e-07
-3.27509e-07
7.19165e-08
-3.76777e-07
3.63114e-08
-3.77465e-07
-2.7351e-07
5.14865e-07
9.43758e-08
4.92938e-07
-6.35401e-08
4.4513e-07
-1.92237e-07
3.82453e-07
-2.81022e-07
3.16899e-07
-3.25203e-07
2.58983e-07
-3.28901e-07
2.14876e-07
-3.07351e-07
1.81365e-07
-2.85366e-07
1.43879e-07
-2.90023e-07
9.04505e-08
-3.23348e-07
3.96194e-08
-3.26634e-07
-2.3389e-07
4.67772e-07
8.15259e-08
4.52612e-07
-4.83805e-08
4.14591e-07
-1.54217e-07
3.63126e-07
-2.29557e-07
3.07522e-07
-2.69599e-07
2.56504e-07
-2.77883e-07
2.14888e-07
-2.65735e-07
1.80457e-07
-2.50935e-07
1.42169e-07
-2.51735e-07
9.12021e-08
-2.72382e-07
3.84962e-08
-2.73928e-07
-1.95394e-07
4.26931e-07
6.73559e-08
4.16339e-07
-3.77883e-08
3.86248e-07
-1.24127e-07
3.43326e-07
-1.86634e-07
2.95356e-07
-2.21629e-07
2.49235e-07
-2.31761e-07
2.08926e-07
-2.25427e-07
1.73275e-07
-2.15284e-07
1.35084e-07
-2.13544e-07
8.77676e-08
-2.25066e-07
3.70513e-08
-2.23212e-07
-1.58343e-07
3.94382e-07
5.25484e-08
3.87293e-07
-3.06993e-08
3.62987e-07
-9.98206e-08
3.26577e-07
-1.50224e-07
2.84572e-07
-1.79625e-07
2.4233e-07
-1.89519e-07
2.03294e-07
-1.86391e-07
1.67087e-07
-1.79076e-07
1.2918e-07
-1.75637e-07
8.45194e-08
-1.80405e-07
3.60686e-08
-1.74761e-07
-1.22274e-07
3.69518e-07
3.7489e-08
3.64958e-07
-2.6139e-08
3.4477e-07
-7.96325e-08
3.13223e-07
-1.18677e-07
2.75607e-07
-1.42008e-07
2.36481e-07
-1.50393e-07
1.98748e-07
-1.48659e-07
1.62496e-07
-1.42824e-07
1.24834e-07
-1.37975e-07
8.18165e-08
-1.37388e-07
3.5294e-08
-1.28239e-07
-8.69801e-08
3.51135e-07
2.25593e-08
3.483e-07
-2.33044e-08
3.3085e-07
-6.21821e-08
3.02588e-07
-9.04152e-08
2.67979e-07
-1.07399e-07
2.3103e-07
-1.13444e-07
1.94329e-07
-1.11958e-07
1.58093e-07
-1.06588e-07
1.20513e-07
-1.00395e-07
7.86055e-08
-9.54799e-08
3.40321e-08
-8.36654e-08
-5.2948e-08
3.38168e-07
8.18636e-09
3.36125e-07
-2.12615e-08
3.20146e-07
-4.62028e-08
2.93618e-07
-6.38875e-08
2.6046e-07
-7.42415e-08
2.24313e-07
-7.72964e-08
1.87644e-07
-7.52888e-08
1.50959e-07
-6.99026e-08
1.1318e-07
-6.26167e-08
7.24648e-08
-5.47646e-08
3.09664e-08
-4.21669e-08
-2.19816e-08
3.30885e-07
-3.71963e-09
3.27005e-07
-1.73816e-08
3.09199e-07
-2.83974e-08
2.80869e-07
-3.55567e-08
2.45679e-07
-3.90517e-08
2.07426e-07
-3.90439e-08
1.68409e-07
-3.62719e-08
1.30063e-07
-3.15559e-08
9.26133e-08
-2.51673e-08
5.57223e-08
-1.78736e-08
2.22525e-08
-8.6971e-09
2.70891e-10
2.78726e-07
2.61345e-07
2.32947e-07
1.97391e-07
1.58339e-07
1.19295e-07
8.30231e-08
5.14672e-08
2.62998e-08
8.42621e-09
-2.70891e-10
-5.06831e-07
-1.40788e-06
-5.69961e-07
-5.33933e-07
-5.35681e-07
-6.03829e-08
-4.73033e-07
2.35345e-07
-3.68153e-07
5.27698e-07
-2.2453e-07
7.80183e-07
-5.61793e-08
9.59077e-07
1.21726e-07
1.04204e-06
2.92239e-07
1.01687e-06
4.38188e-07
8.88017e-07
5.41453e-07
6.72216e-07
3.98266e-07
-3.8635e-07
-1.02153e-06
-4.62335e-07
-4.57949e-07
-4.40822e-07
-8.18959e-08
-3.88086e-07
1.82609e-07
-2.96556e-07
4.36168e-07
-1.68231e-07
6.51858e-07
-1.50348e-08
8.05881e-07
1.46597e-07
8.80405e-07
3.02195e-07
8.61277e-07
4.34859e-07
7.55353e-07
5.31284e-07
5.75792e-07
3.48198e-07
-2.78245e-07
-7.43288e-07
-3.60952e-07
-3.75242e-07
-3.53875e-07
-8.89723e-08
-3.13172e-07
1.41907e-07
-2.36186e-07
3.59182e-07
-1.25798e-07
5.41469e-07
9.01167e-09
6.71072e-07
1.54073e-07
7.35344e-07
2.942e-07
7.21149e-07
4.1536e-07
6.34193e-07
5.0389e-07
4.87262e-07
2.99206e-07
-1.98874e-07
-5.44414e-07
-2.7521e-07
-2.98906e-07
-2.80043e-07
-8.41391e-08
-2.50082e-07
1.11946e-07
-1.86079e-07
2.95178e-07
-9.24309e-08
4.47822e-07
2.20624e-08
5.56578e-07
1.4965e-07
6.07756e-07
2.73026e-07
5.97774e-07
3.80046e-07
5.27173e-07
4.60318e-07
4.0699e-07
2.53242e-07
-1.43909e-07
-4.00505e-07
-2.10031e-07
-2.32784e-07
-2.21679e-07
-7.24908e-08
-1.99591e-07
8.98574e-08
-1.46022e-07
2.41609e-07
-6.59935e-08
3.67793e-07
3.3576e-08
4.57009e-07
1.42424e-07
4.98908e-07
2.49459e-07
4.90739e-07
3.43128e-07
4.33504e-07
4.14522e-07
3.35596e-07
2.10695e-07
-1.07031e-07
-2.93474e-07
-1.62916e-07
-1.769e-07
-1.77341e-07
-5.80654e-08
-1.60501e-07
7.30168e-08
-1.14911e-07
1.96019e-07
-4.5493e-08
2.98376e-07
4.10711e-08
3.70445e-07
1.35565e-07
4.04414e-07
2.29544e-07
3.9676e-07
3.11893e-07
3.51155e-07
3.75569e-07
2.71921e-07
1.71446e-07
-8.22859e-08
-2.11188e-07
-1.2932e-07
-1.29865e-07
-1.44239e-07
-4.31463e-08
-1.30742e-07
5.95197e-08
-9.11086e-08
1.56385e-07
-2.99089e-08
2.37176e-07
4.673e-08
2.93806e-07
1.31012e-07
3.20132e-07
2.1399e-07
3.13782e-07
2.87585e-07
2.7756e-07
3.45116e-07
2.1439e-07
1.34998e-07
-6.53655e-08
-1.45822e-07
-1.05207e-07
-9.00237e-08
-1.1945e-07
-2.89037e-08
-1.08017e-07
4.8087e-08
-7.27788e-08
1.21147e-07
-1.78244e-08
1.82222e-07
5.12474e-08
2.24734e-07
1.27277e-07
2.44102e-07
2.0208e-07
2.38979e-07
2.69477e-07
2.10163e-07
3.22156e-07
1.61711e-07
1.00787e-07
-5.34232e-08
-9.23991e-08
-8.73321e-08
-5.61148e-08
-1.00329e-07
-1.59064e-08
-9.00781e-08
3.78358e-08
-5.80261e-08
8.9095e-08
-7.75233e-09
1.31948e-07
5.55414e-08
1.6144e-07
1.25179e-07
1.74465e-07
1.94559e-07
1.69599e-07
2.56584e-07
1.48138e-07
3.05626e-07
1.12669e-07
6.83936e-08
-4.46144e-08
-4.77846e-08
-7.35115e-08
-2.72178e-08
-8.49629e-08
-4.45501e-09
-7.53187e-08
2.81916e-08
-4.54378e-08
5.92141e-08
1.3866e-09
8.51235e-08
6.04715e-08
1.02355e-07
1.25675e-07
1.09261e-07
1.90407e-07
1.04867e-07
2.48524e-07
9.0021e-08
2.94698e-07
6.64948e-08
3.76235e-08
-3.56614e-08
-1.21232e-08
-5.86134e-08
-4.26578e-09
-6.71847e-08
4.11625e-09
-5.6646e-08
1.76529e-08
-2.74228e-08
2.99909e-08
1.75582e-08
4.01425e-08
7.3795e-08
4.61185e-08
1.35427e-07
4.76288e-08
1.96252e-07
4.40419e-08
2.50415e-07
3.58581e-08
2.92925e-07
2.39845e-08
9.95349e-09
-1.21232e-08
-1.6389e-08
-1.22727e-08
5.38017e-09
3.5371e-08
7.55136e-08
1.21632e-07
1.69261e-07
2.13303e-07
2.49161e-07
2.73145e-07
)
;

boundaryField
{
    rotor
    {
        type            calculated;
        value           nonuniform 0();
    }
    stator
    {
        type            calculated;
        value           nonuniform List<scalar> 
96
(
-4.70198e-38
0
-5.19098e-35
3.00927e-36
0
-9.0278e-36
-4.17619e-53
-6.01853e-36
4.81482e-35
0
-5.43211e-35
1.20371e-35
3.62655e-35
3.61112e-35
0
3.02469e-35
0
1.20371e-35
-1.18828e-35
-1.50463e-36
2.01245e-35
-1.72647e-35
0
9.51487e-35
1.2762e-58
-1.80942e-35
0
0
-1.50463e-36
0
5.41668e-35
4.81482e-35
0
3.00927e-35
1.20371e-35
-4.72416e-35
1.20371e-35
9.04322e-35
0
1.02315e-34
-6.01853e-36
-5.2286e-35
-2.93212e-36
1.54225e-35
3.00927e-36
-6.24423e-35
0
-4.70198e-38
0
6.01853e-36
0
0
-6.01853e-36
0
0
-1.20371e-35
-1.50463e-35
0
0
0
0
-7.52316e-36
3.00927e-36
-7.52316e-36
0
-7.52316e-36
6.01853e-36
0
0
0
0
0
0
6.01853e-36
0
0
-6.01853e-36
7.52316e-36
0
-1.20371e-35
0
0
0
0
0
-6.01853e-36
0
0
6.01853e-36
0
0
1.20371e-35
1.50463e-35
0
0
0
)
;
    }
    AMI1
    {
        type            cyclicAMI;
        value           nonuniform 0();
    }
    AMI2
    {
        type            cyclicAMI;
        value           nonuniform List<scalar> 
48
(
-1.19822e-07
5.36519e-07
1.08011e-06
1.40984e-06
1.49717e-06
1.39894e-06
1.23055e-06
1.08453e-06
1.00851e-06
9.79599e-07
9.20237e-07
8.21592e-07
6.60326e-07
2.79339e-07
-1.50523e-07
-6.8271e-07
-1.17819e-06
-1.5609e-06
-1.79198e-06
-1.87668e-06
-1.82782e-06
-1.6375e-06
-1.28563e-06
-7.7078e-07
-1.39636e-07
5.18067e-07
1.06584e-06
1.40132e-06
1.49416e-06
1.40027e-06
1.23584e-06
1.09295e-06
1.01715e-06
9.85961e-07
9.25671e-07
8.29376e-07
6.56424e-07
2.70111e-07
-1.63675e-07
-6.96571e-07
-1.19041e-06
-1.57013e-06
-1.79779e-06
-1.87891e-06
-1.82615e-06
-1.6315e-06
-1.27502e-06
-7.54653e-07
)
;
    }
    front
    {
        type            empty;
        value           nonuniform 0();
    }
    back
    {
        type            empty;
        value           nonuniform 0();
    }
    procBoundary1to0
    {
        type            processor;
        value           nonuniform List<scalar> 8(-1.56878e-06 -1.49891e-06 -1.40468e-06 -1.03613e-06 1.57534e-06 1.49587e-06 1.40548e-06 1.03839e-06);
    }
}


// ************************************************************************* //
