/*--------------------------------*- C++ -*----------------------------------*\
| =========                 |                                                 |
| \\      /  F ield         | OpenFOAM: The Open Source CFD Toolbox           |
|  \\    /   O peration     | Version:  v1606+                                |
|   \\  /    A nd           | Web:      www.OpenFOAM.com                      |
|    \\/     M anipulation  |                                                 |
\*---------------------------------------------------------------------------*/
FoamFile
{
    version     2.0;
    format      ascii;
    class       volScalarField;
    location    "0.79";
    object      alphat.air;
}
// * * * * * * * * * * * * * * * * * * * * * * * * * * * * * * * * * * * * * //

dimensions      [1 -1 -1 0 0 0 0];

internalField   nonuniform List<scalar> 
6000
(
0.000361776
0.0033246
0.00531059
0.00578467
0.00595316
0.00605177
0.00612356
0.00619361
0.00626462
0.00632668
0.00636799
0.00639018
0.00640304
0.00641749
0.00642464
0.00643183
0.00642466
0.00641288
0.0063954
0.00637124
0.00633839
0.00627925
0.00620756
0.0061353
0.00606019
0.00595955
0.00578933
0.00531344
0.00332456
0.000362047
0.00027801
0.0020159
0.00392153
0.00504289
0.0056248
0.00598241
0.00625766
0.00646432
0.0065945
0.0066882
0.0067596
0.00680879
0.00683627
0.00685003
0.00685518
0.00686398
0.00687131
0.00686388
0.00684757
0.00680452
0.00673477
0.00664527
0.00651176
0.00629931
0.00601732
0.00564899
0.0050601
0.00393466
0.002019
0.000277835
0.000235389
0.00178594
0.00364273
0.00492047
0.00572284
0.00625145
0.00663469
0.0069366
0.00718009
0.0073864
0.00753882
0.00763875
0.00770102
0.00773999
0.00776272
0.0077728
0.0077686
0.00774496
0.0076996
0.00761283
0.00747412
0.0072758
0.0070258
0.00671852
0.00632508
0.00578271
0.00496783
0.00368006
0.00180498
0.000235481
0.000227507
0.00182198
0.00375751
0.00524508
0.00624981
0.00691127
0.00740499
0.00778527
0.00807941
0.00831884
0.00850263
0.00863669
0.00872963
0.00879035
0.00882754
0.00883791
0.00882576
0.00878767
0.00871369
0.00859366
0.0084207
0.00819538
0.00791284
0.00753654
0.00703687
0.00636197
0.00534051
0.00382826
0.00186179
0.000229144
0.000228787
0.00191
0.00404529
0.00576847
0.00702009
0.00788345
0.00841067
0.008808
0.00911746
0.00936095
0.00957105
0.00973306
0.00986248
0.00996932
0.0100348
0.0100431
0.0100004
0.00992611
0.00982635
0.00968793
0.0095023
0.00928238
0.00898414
0.00858949
0.00805467
0.0071777
0.00590464
0.00415429
0.00197678
0.000232247
0.00022666
0.00195437
0.00424058
0.0061986
0.0077073
0.00887345
0.00968317
0.0101734
0.0104474
0.0106401
0.0108444
0.0110272
0.011192
0.0113398
0.0114318
0.0114348
0.0113619
0.0112557
0.0111305
0.0109883
0.0108225
0.0106614
0.0104028
0.00991303
0.00909274
0.00790672
0.00637074
0.00437466
0.00202753
0.000232163
0.00022875
0.00207406
0.00452069
0.00660965
0.00825557
0.00961395
0.0107313
0.0115102
0.0119266
0.0120913
0.0122484
0.0124513
0.0126636
0.0128557
0.0129762
0.0129677
0.0128655
0.0127219
0.0125609
0.0124117
0.0123087
0.012186
0.0117934
0.0110155
0.00988553
0.00850458
0.00682443
0.00468296
0.00216289
0.000236014
0.000242395
0.00232464
0.00491664
0.00712196
0.0088515
0.0102681
0.0114285
0.0123733
0.0130672
0.013458
0.0136274
0.0138952
0.0142417
0.0145756
0.0147419
0.0147248
0.0145448
0.0142714
0.0140015
0.0137947
0.0137009
0.0133869
0.0127264
0.0117803
0.0106024
0.00915891
0.00738646
0.00511474
0.00243163
0.000252461
0.000267664
0.0026098
0.00536535
0.00768691
0.00950286
0.0109575
0.0120941
0.0129914
0.0137931
0.0144688
0.0148673
0.015274
0.0158097
0.0160983
0.0161969
0.0161766
0.0160435
0.0157745
0.0153593
0.0150302
0.0147538
0.014193
0.0134351
0.012518
0.0113601
0.00987533
0.00800658
0.00561215
0.00274506
0.000280584
0.000288988
0.00289735
0.00583459
0.00825069
0.0101517
0.0116773
0.0128586
0.0137434
0.0144641
0.0152294
0.0159098
0.0165139
0.0170399
0.0171648
0.0171813
0.0171455
0.0170636
0.0169145
0.0165617
0.0161023
0.0155997
0.0149524
0.0142407
0.0133482
0.0121563
0.0105983
0.00863468
0.00613356
0.0030681
0.000305262
0.000303027
0.00316305
0.00628501
0.00879279
0.0107757
0.0123838
0.0136356
0.0145172
0.015219
0.0159751
0.0167567
0.0174959
0.0179196
0.0180234
0.0180169
0.0179735
0.0178915
0.0177894
0.0175746
0.0170785
0.0164688
0.0157661
0.0150826
0.0142034
0.0129562
0.0113122
0.00924922
0.00663433
0.00336423
0.000323002
0.000313267
0.0033294
0.00664275
0.00928492
0.0113558
0.0130325
0.0143488
0.0152552
0.0159287
0.0166557
0.0174539
0.0182129
0.0186434
0.0188288
0.0188451
0.0188016
0.0187172
0.0186291
0.0184645
0.0179866
0.0173275
0.016606
0.0159361
0.0150242
0.0137267
0.0120081
0.00982949
0.00705363
0.00356926
0.000337809
0.000322645
0.0034284
0.00689007
0.00968153
0.0118612
0.0135954
0.0149604
0.0159268
0.0166182
0.0173138
0.0180863
0.0188005
0.0192873
0.0196188
0.0197067
0.0196731
0.0195888
0.0194848
0.0193242
0.0188725
0.0181863
0.0174656
0.0167727
0.015789
0.0144461
0.0126677
0.0103543
0.00739661
0.00371851
0.000352734
0.000330589
0.00350913
0.00706024
0.00996625
0.0122584
0.0140556
0.0154708
0.0165328
0.0172989
0.0179804
0.01872
0.0193722
0.0198974
0.0203779
0.0206092
0.0206057
0.0205229
0.0203958
0.0201899
0.0197582
0.0190726
0.0183677
0.0176051
0.0165193
0.0151119
0.0132727
0.0108245
0.0077008
0.00385895
0.000367062
0.000336785
0.00356972
0.00717597
0.0101522
0.0125337
0.014398
0.0158915
0.0170817
0.0179516
0.0186458
0.0193583
0.0200054
0.0205265
0.0210574
0.0214867
0.0216058
0.0215049
0.0213332
0.0210476
0.0206084
0.0199667
0.0193146
0.018466
0.0172488
0.0157447
0.0138222
0.0112493
0.00798975
0.00400689
0.000379498
0.000333975
0.00362688
0.00723954
0.0102596
0.0127005
0.0146346
0.016226
0.0175405
0.0185181
0.0192371
0.0199189
0.0205508
0.0211088
0.0216523
0.0222093
0.0225671
0.0225332
0.022239
0.0218733
0.0213951
0.0208182
0.0202213
0.0193307
0.0179913
0.0163674
0.0143285
0.0116336
0.0082554
0.00418447
0.000379665
0.000328723
0.00354651
0.00718518
0.0103043
0.0128274
0.0148203
0.0164553
0.0178349
0.0189038
0.0196712
0.0203621
0.02099
0.0215647
0.0221236
0.022728
0.0232739
0.0234095
0.0230266
0.0226155
0.0221202
0.0215727
0.0210189
0.0201479
0.0187332
0.0169789
0.0147971
0.0119573
0.00838484
0.00415069
0.000383685
0.000330504
0.00339139
0.00701788
0.0103156
0.0129979
0.0150122
0.016601
0.0179668
0.0190869
0.019953
0.020698
0.021354
0.0219495
0.0225308
0.0231336
0.023651
0.0238628
0.0235776
0.0231917
0.0227521
0.0222223
0.0216751
0.0208747
0.0194671
0.0175844
0.0152395
0.0122338
0.00843963
0.00408061
0.000387886
0.000331139
0.00326616
0.0069994
0.0103948
0.013161
0.0152129
0.0167753
0.0181043
0.0192156
0.0201972
0.0210379
0.0217753
0.0224165
0.0229936
0.0234747
0.0238342
0.0240528
0.0239624
0.0236429
0.0232806
0.0227922
0.0222384
0.0214932
0.0201864
0.0182227
0.0157218
0.0125218
0.00854938
0.00405436
0.000395548
0.000339042
0.00335862
0.00715739
0.0105346
0.0132707
0.0153487
0.0169809
0.018369
0.0195458
0.0206365
0.0215959
0.0223927
0.02304
0.0235463
0.0238895
0.0241067
0.0243024
0.0243632
0.0241034
0.0237895
0.023349
0.0228036
0.0220666
0.0209193
0.0189943
0.0163312
0.0129036
0.00880027
0.004202
0.000413967
0.000357708
0.00360506
0.00744171
0.010737
0.0134034
0.0155167
0.017231
0.0186972
0.0200315
0.0212176
0.0222326
0.0230143
0.0236215
0.0240514
0.0243199
0.0245024
0.0246814
0.0248398
0.0246855
0.0244118
0.0240058
0.0234693
0.0227207
0.0216434
0.0197947
0.017036
0.0134347
0.00921544
0.00443956
0.000435395
0.000358716
0.00376227
0.00766857
0.0109323
0.0135763
0.0157273
0.0175218
0.0190657
0.0204189
0.0215875
0.0225698
0.0233797
0.0240137
0.0244661
0.0247654
0.0250027
0.0252061
0.0254274
0.0254898
0.0252694
0.0248451
0.0242891
0.0234926
0.0222754
0.020439
0.0176657
0.0139864
0.00964984
0.00468446
0.000454573
0.000355824
0.00378261
0.00768577
0.0109712
0.013658
0.0158746
0.0177354
0.0193209
0.0206866
0.0218525
0.0228371
0.0236693
0.0243475
0.0248616
0.0252379
0.0255293
0.0257929
0.0260821
0.0263155
0.0261569
0.0257258
0.0250913
0.0241693
0.0228439
0.0209642
0.0181777
0.0144521
0.0100214
0.00490946
0.000471425
0.000355114
0.00376072
0.00764083
0.0109372
0.0136536
0.0159064
0.0178095
0.0194495
0.0208654
0.0220739
0.0231137
0.0239996
0.0247362
0.0253117
0.0257506
0.0261124
0.0264334
0.0267283
0.026933
0.0268281
0.0264061
0.0256989
0.0246833
0.0233304
0.0214083
0.0186013
0.0148487
0.0103376
0.00510245
0.000486292
0.000355246
0.00372881
0.00758834
0.010879
0.0136049
0.0158746
0.0177984
0.0194668
0.0209324
0.0222139
0.0233289
0.0242975
0.0251119
0.0257675
0.0262794
0.0266938
0.0270307
0.0272638
0.0273716
0.027272
0.0268735
0.0261582
0.0251492
0.0237687
0.0217878
0.0189563
0.0152127
0.0106132
0.00525568
0.000499259
0.000346678
0.00370096
0.00753735
0.0108193
0.0135464
0.0158133
0.0177364
0.0194129
0.0209002
0.0222368
0.0234361
0.0244939
0.0253922
0.0261168
0.0266839
0.0271411
0.0274899
0.0276984
0.0277534
0.0276409
0.0272662
0.0265863
0.0256191
0.0242179
0.0221664
0.0193033
0.0155616
0.0108941
0.00540459
0.000512977
0.000347008
0.00363097
0.007464
0.0107574
0.0135003
0.0157486
0.0176503
0.0193142
0.0207977
0.0221491
0.0233991
0.0245334
0.0255097
0.0263089
0.0269335
0.0274251
0.0278018
0.0280417
0.0281316
0.0280228
0.02767
0.0270245
0.0260921
0.0247083
0.0226186
0.0197404
0.0159732
0.0112556
0.00560901
0.000529906
0.000347311
0.00368178
0.00752251
0.0107958
0.013477
0.0156805
0.0175506
0.0191927
0.0206508
0.021977
0.023222
0.0243936
0.02544
0.0263056
0.0269932
0.0275392
0.0279729
0.0282817
0.0284391
0.0283934
0.0280806
0.0274679
0.0265783
0.0252504
0.0231915
0.0203132
0.0165108
0.0117084
0.00585636
0.00055098
0.000346958
0.00368839
0.00753605
0.0108111
0.0134811
0.0156652
0.0174672
0.0190536
0.020471
0.0217492
0.0229474
0.024099
0.0251723
0.0261052
0.0268678
0.0274854
0.0279917
0.0283965
0.0286564
0.0287011
0.0284571
0.0279066
0.0271038
0.0258381
0.0238564
0.0209907
0.0171422
0.0122121
0.0061336
0.000576386
0.000345983
0.00368268
0.00752049
0.0107812
0.0134441
0.0156086
0.0173847
0.0188973
0.0202628
0.0214807
0.0226141
0.0237058
0.0247562
0.025728
0.0265701
0.0272709
0.0278542
0.0283662
0.0287476
0.0289005
0.0287466
0.0283007
0.0276224
0.0264659
0.0245903
0.0217484
0.0178491
0.0127533
0.00642258
0.000604328
0.000346275
0.00367834
0.0075128
0.0107655
0.0134071
0.0155394
0.0172827
0.0187641
0.0200272
0.0211806
0.0222489
0.0232716
0.0242716
0.0252356
0.0261285
0.026899
0.0275707
0.0281922
0.028713
0.0289884
0.0289319
0.0285968
0.0280539
0.027051
0.0253216
0.0225307
0.0185912
0.0133187
0.00671392
0.000633358
0.000347809
0.00367796
0.00752874
0.0107833
0.013403
0.0154892
0.0172013
0.0186125
0.0197991
0.0208587
0.0218631
0.0228234
0.0237683
0.0246993
0.0255971
0.0264213
0.0271696
0.0278892
0.0285607
0.028983
0.0290414
0.0287696
0.0283288
0.0274796
0.0259121
0.023275
0.0193278
0.0138985
0.0070076
0.000661183
0.000350273
0.00368973
0.00758371
0.0108659
0.0134553
0.0154671
0.0170731
0.018395
0.0195352
0.0205345
0.0214653
0.0223696
0.0232633
0.0241634
0.0250549
0.025913
0.0267064
0.0274967
0.0282849
0.0288714
0.0290502
0.028842
0.028437
0.0276718
0.0262673
0.023874
0.0200083
0.0144825
0.00730005
0.000687392
0.000352924
0.00371333
0.00768025
0.0109429
0.0134147
0.0153268
0.016854
0.0181367
0.0192406
0.0201983
0.0210647
0.0219135
0.0227606
0.0236338
0.0245207
0.0254015
0.0262135
0.0270568
0.0279019
0.0286185
0.0289392
0.028801
0.0283797
0.0276098
0.0263139
0.0241687
0.0205441
0.015049
0.00758809
0.000709786
0.000352207
0.00372764
0.00771475
0.0108795
0.0132574
0.015101
0.0165903
0.0178569
0.0189302
0.0198494
0.0206597
0.0214489
0.0222549
0.0231027
0.0239958
0.0249047
0.0257306
0.0265687
0.0274342
0.0282387
0.0286657
0.0285792
0.0281292
0.0273527
0.0260879
0.0240783
0.0207965
0.0154637
0.00774154
0.000730388
0.000350321
0.00370227
0.00761274
0.0107025
0.0130257
0.0148421
0.0163381
0.0175831
0.0186105
0.0194753
0.0202317
0.0209642
0.0217314
0.022556
0.0234522
0.0243771
0.0252419
0.0260705
0.0269297
0.0277598
0.0282589
0.0282071
0.0277278
0.0268486
0.0255573
0.0236721
0.0206697
0.0156313
0.00786217
0.000730772
0.00034646
0.0036687
0.00745361
0.0104887
0.0127845
0.0146028
0.0161186
0.0173523
0.0183157
0.0190776
0.0197573
0.0204343
0.0211655
0.0219697
0.0228649
0.023801
0.0247086
0.0255409
0.0263824
0.0272022
0.0276885
0.0275889
0.0270711
0.0261616
0.0248259
0.0229693
0.0202481
0.0155206
0.00785843
0.000725056
0.000345559
0.0036343
0.00733356
0.0103563
0.0127021
0.0145547
0.0160568
0.0172519
0.0181136
0.0187218
0.0192289
0.019835
0.0205312
0.0213225
0.0222148
0.0231624
0.0240962
0.0249478
0.0257838
0.0265738
0.0270188
0.0268943
0.0263622
0.0254259
0.0240501
0.0221998
0.019613
0.0151694
0.00771237
0.000721005
0.000355066
0.00357653
0.00723876
0.0102526
0.0125991
0.0144178
0.0158231
0.0168986
0.0177208
0.0183531
0.0188095
0.0191882
0.0198312
0.0206093
0.0215037
0.0224723
0.023431
0.0243204
0.0251754
0.0259391
0.0262806
0.0261292
0.0255911
0.024648
0.0232623
0.0214122
0.0188809
0.0146439
0.00758202
0.000711599
0.000354951
0.00352527
0.00711007
0.0100328
0.0122985
0.0140284
0.0153632
0.0164023
0.0172119
0.0178358
0.0183117
0.0186512
0.0190962
0.0198408
0.0207476
0.0217665
0.0227925
0.0237513
0.024666
0.025324
0.0255282
0.0253344
0.0247774
0.0238272
0.0224462
0.0205955
0.0180583
0.0140299
0.00747246
0.000702456
0.000352733
0.00350843
0.00695615
0.00973495
0.0119058
0.0135789
0.0148733
0.0158837
0.0166743
0.0172837
0.0177424
0.0180838
0.0183805
0.019043
0.0199644
0.0210632
0.0222314
0.0232974
0.0242468
0.024764
0.0248198
0.0245708
0.0239688
0.0229945
0.0216192
0.0197792
0.0172626
0.013383
0.00722529
0.000690971
0.000348389
0.00343668
0.00675752
0.00942037
0.011501
0.0131201
0.0143758
0.0153566
0.0161233
0.0167137
0.0171543
0.0174758
0.0177185
0.0182547
0.019166
0.0203239
0.0216149
0.022766
0.0236696
0.0242019
0.0242245
0.0239173
0.0232636
0.0222521
0.0208641
0.0190224
0.0165143
0.0127056
0.00687802
0.000675138
0.000342228
0.0033108
0.00650073
0.00906515
0.0110712
0.0126442
0.0138661
0.01482
0.0155643
0.0161365
0.0165613
0.016865
0.0170814
0.0174836
0.0183514
0.0195191
0.0208429
0.0220427
0.0229235
0.0235024
0.0236885
0.0233957
0.0227326
0.0216931
0.0202683
0.0183842
0.0158258
0.0120361
0.006494
0.000668717
0.000333293
0.00315604
0.00620574
0.00867799
0.0106203
0.0121523
0.013345
0.0142751
0.0149991
0.0155547
0.0159667
0.0162564
0.0164424
0.0167193
0.0175158
0.0186642
0.0199204
0.0211161
0.0220126
0.0226301
0.0229256
0.0228168
0.0222652
0.0212657
0.0198208
0.0178717
0.015223
0.0114014
0.00608806
0.00065235
0.000323331
0.00299579
0.00589854
0.00827789
0.0101598
0.0116519
0.0128163
0.0137236
0.0144278
0.0149669
0.0153668
0.0156457
0.0158048
0.015957
0.0166566
0.0177454
0.0189007
0.0200422
0.0209371
0.0215964
0.0219418
0.0219411
0.0215522
0.020694
0.0193352
0.017393
0.014689
0.0108918
0.00576821
0.000624742
0.000312916
0.00283943
0.00559621
0.00788085
0.00970131
0.0111502
0.0122838
0.0131665
0.0138496
0.0143708
0.0147576
0.0150282
0.0151781
0.0152513
0.0157883
0.016767
0.0178589
0.0188947
0.0197594
0.0204409
0.0208337
0.0208801
0.0205802
0.0198627
0.0186527
0.0168256
0.014204
0.0105134
0.00554067
0.000591988
0.000302542
0.00269204
0.00530949
0.00749815
0.00925428
0.0106535
0.0117509
0.0126047
0.0132641
0.0137666
0.0141399
0.0144044
0.0145606
0.0146234
0.0149674
0.0158289
0.016831
0.0177439
0.0185515
0.0192235
0.0196543
0.01976
0.0195202
0.0189055
0.0178181
0.0161345
0.0136827
0.0101716
0.00539103
0.000574211
0.000292327
0.00255613
0.00504487
0.00713801
0.00882475
0.0101673
0.011221
0.0120398
0.0126718
0.0131542
0.0135149
0.0137743
0.0139376
0.0140222
0.0142552
0.0149656
0.0158288
0.016622
0.0173558
0.0179949
0.0184437
0.018609
0.0184351
0.0179163
0.0169291
0.0153849
0.0130912
0.00977199
0.00520778
0.000563661
0.000282493
0.00243551
0.0048075
0.00680596
0.00841754
0.00969598
0.0106972
0.0114733
0.0120722
0.0125317
0.0128794
0.0131339
0.0132987
0.0133816
0.0135709
0.0141268
0.0148427
0.0155352
0.0161907
0.016785
0.0172347
0.0174458
0.0173444
0.0168964
0.0160111
0.0145758
0.0124119
0.00926973
0.00494497
0.000549505
0.000273391
0.00233371
0.00460078
0.00650505
0.00803558
0.00924223
0.0101818
0.0109065
0.0114653
0.0118968
0.0122282
0.0124756
0.0126377
0.0127052
0.012834
0.0132736
0.0138735
0.014477
0.0150621
0.01561
0.0160509
0.0162947
0.0162574
0.0158689
0.0150776
0.0137239
0.0116722
0.00869915
0.00463406
0.000531262
0.000265364
0.00225229
0.0044251
0.00623527
0.0076789
0.00880734
0.00967622
0.010341
0.0108527
0.0112493
0.0115596
0.0117953
0.0119496
0.0119998
0.0120754
0.0124101
0.0129133
0.0134419
0.0139667
0.0144724
0.0149016
0.0151695
0.0151856
0.0148639
0.0141363
0.0128691
0.010919
0.00810919
0.00430984
0.000510254
0.000258604
0.00218885
0.00427724
0.00599374
0.00734642
0.00838942
0.00918094
0.00977826
0.0102364
0.0105952
0.0108771
0.0110963
0.0112393
0.0112725
0.0112989
0.011544
0.0119603
0.012424
0.0128975
0.0133678
0.0137864
0.0140747
0.0141398
0.0138844
0.0132195
0.0120393
0.0101916
0.00754138
0.00399961
0.000488139
0.000253056
0.00213933
0.0041515
0.00577496
0.0070339
0.00798698
0.00869546
0.00922132
0.00962336
0.00993874
0.0101905
0.010387
0.0105129
0.0105254
0.01051
0.0106822
0.0110202
0.0114239
0.0118523
0.0122934
0.0127038
0.0130121
0.0131248
0.0129371
0.0123451
0.0112547
0.00951606
0.00702341
0.00372078
0.000466331
0.000248585
0.00210006
0.00404126
0.00557267
0.00673559
0.00759646
0.00821894
0.00867646
0.00902024
0.00928988
0.00950915
0.00968015
0.00978441
0.00977191
0.00971636
0.00982665
0.0101007
0.0104492
0.0108376
0.0112542
0.0116589
0.0119866
0.0121467
0.0120278
0.0115211
0.0105244
0.00890557
0.00656867
0.00348159
0.000445865
0.000245227
0.00206925
0.00394065
0.00538048
0.00644729
0.00721358
0.00775537
0.00814616
0.00843357
0.00865877
0.00884346
0.00898898
0.0090695
0.0090331
0.00894248
0.00899484
0.00920909
0.00951187
0.00986781
0.0102636
0.0106627
0.0110076
0.0112128
0.0111619
0.0107462
0.00985197
0.00836068
0.00617748
0.00328196
0.000427337
0.000243074
0.00204309
0.0038435
0.00519219
0.00616374
0.00683773
0.00730645
0.00763355
0.00786889
0.00805271
0.00820522
0.00832563
0.00838313
0.00832341
0.0081998
0.00820228
0.00836714
0.0086322
0.00896034
0.00933682
0.0097282
0.0100847
0.0103288
0.0103448
0.0100185
0.00923309
0.00787348
0.00584124
0.00311632
0.000410955
0.000241728
0.00201397
0.00374244
0.00500263
0.00588057
0.00646968
0.00687189
0.0071413
0.00733028
0.0074777
0.00760195
0.00769968
0.00773715
0.00765609
0.0075066
0.00747069
0.00759211
0.00782524
0.00812972
0.00848609
0.00886518
0.00922556
0.00949878
0.00957683
0.00933429
0.00866002
0.00743212
0.00554675
0.00297488
0.000396664
0.000240755
0.00197651
0.00363232
0.00480701
0.00559463
0.00611169
0.00645171
0.00667062
0.00681999
0.00693719
0.00703865
0.00711768
0.00713855
0.00703787
0.00687023
0.00680798
0.00689839
0.00710196
0.00738177
0.00771582
0.00807771
0.00843341
0.00872446
0.00885544
0.00868772
0.00812333
0.00702433
0.00528149
0.00284996
0.000384022
0.000239786
0.00192844
0.00351107
0.00460249
0.00530767
0.00576137
0.00604604
0.00622144
0.00633827
0.00643247
0.00651772
0.00658337
0.00659204
0.00647812
0.00630196
0.00622057
0.00628253
0.00646054
0.00671499
0.00702352
0.00736415
0.00770777
0.00800579
0.00817562
0.00807153
0.00761306
0.00663871
0.00503518
0.00273734
0.000372882
0.000238554
0.00187174
0.00338001
0.00438932
0.00502098
0.00541781
0.00565386
0.00579238
0.0058837
0.00596235
0.00603857
0.00609729
0.00609711
0.00597615
0.00579948
0.00570606
0.00574436
0.0058944
0.00612206
0.00640227
0.00671882
0.00704472
0.00733877
0.00753197
0.00748293
0.00711948
0.00626537
0.00479921
0.00263355
0.000362998
0.000237108
0.00181186
0.00324192
0.00416867
0.00473667
0.0050801
0.0052736
0.00538129
0.00545386
0.00552428
0.00559816
0.00565483
0.00564967
0.00553074
0.0053617
0.00526053
0.00527688
0.00539624
0.00559218
0.00584288
0.00613428
0.00643907
0.00672081
0.0069228
0.00691951
0.00663495
0.00589445
0.00456419
0.00253274
0.000354298
0.000235644
0.00175018
0.00309645
0.00394346
0.00445356
0.00474772
0.00490357
0.00498587
0.00504634
0.00511589
0.00519435
0.00525456
0.0052505
0.0051394
0.00498639
0.00488461
0.00487274
0.00495447
0.00511604
0.00533704
0.00560293
0.00588525
0.0061501
0.0063496
0.00638146
0.00615363
0.00551736
0.00431981
0.00242814
0.000346205
0.000234327
0.00169398
0.00294812
0.00371642
0.00417101
0.00441971
0.00454184
0.00460378
0.00465868
0.0047347
0.00482464
0.00489472
0.00489875
0.00480715
0.00467058
0.00456351
0.00452275
0.00456275
0.00468587
0.00487636
0.00511661
0.00537714
0.00562448
0.00581525
0.00587129
0.0056744
0.00512827
0.00405574
0.00231454
0.000338775
0.000233275
0.00163846
0.00279634
0.00348878
0.00388842
0.00409495
0.00418652
0.00423293
0.00428889
0.00437863
0.00448665
0.00457317
0.00459138
0.00452277
0.0044082
0.00429819
0.00422136
0.0042139
0.00429563
0.0044537
0.00466773
0.0049081
0.0051402
0.00532169
0.00539001
0.00520322
0.0047256
0.00376154
0.00217554
0.000330814
0.000232292
0.0015784
0.00263624
0.00325918
0.0036053
0.00377191
0.0038359
0.00387182
0.00393544
0.00404542
0.00417714
0.00428468
0.0043237
0.00428482
0.00419251
0.00407568
0.00396334
0.00390542
0.00394101
0.00406418
0.00425038
0.00447168
0.00469139
0.00486586
0.00493588
0.00475281
0.00431715
0.00342647
0.00196063
0.000322088
0.000231488
0.00151433
0.00247119
0.00302625
0.00332231
0.00344904
0.00348889
0.0035197
0.00359712
0.00373215
0.00389128
0.00402341
0.00409164
0.00408439
0.00401249
0.00389022
0.00374484
0.00363481
0.00361877
0.00370218
0.00385884
0.0040621
0.00427158
0.00444194
0.00451325
0.00433359
0.00391821
0.00305801
0.00167139
0.000311342
0.000230324
0.00144415
0.00230209
0.00278978
0.00303841
0.00312637
0.00314592
0.00317737
0.0032742
0.00343791
0.00362659
0.003788
0.00388978
0.00391376
0.00385972
0.0037335
0.00356003
0.0033994
0.00332601
0.00336428
0.00349035
0.00367468
0.00387488
0.00404457
0.00412205
0.00395234
0.00355604
0.00270815
0.00138846
0.00029756
0.000228933
0.001367
0.00213019
0.00255172
0.00275235
0.00280476
0.00280868
0.00284656
0.00296736
0.00316199
0.00338139
0.00357516
0.0037126
0.00376463
0.0037255
0.00359839
0.00340352
0.00319773
0.00306483
0.00305207
0.00314419
0.00330663
0.00349728
0.00366914
0.0037581
0.00360669
0.0032542
0.0024291
0.0011828
0.000281729
0.000226405
0.00128848
0.00195587
0.00231369
0.00246457
0.00248592
0.00248011
0.00253059
0.00267913
0.00290534
0.00315568
0.00338475
0.00355456
0.00362994
0.00360339
0.0034788
0.00327117
0.0030297
0.00283922
0.00276968
0.00282168
0.00295747
0.00313723
0.00331323
0.00341999
0.00330449
0.00301107
0.00223763
0.0010662
0.00026519
0.000223072
0.00119204
0.00177524
0.0020757
0.00217789
0.0021736
0.00216464
0.00223389
0.0024112
0.00266978
0.00295041
0.00321532
0.00341039
0.00350405
0.00348965
0.00336911
0.00315832
0.0028935
0.00265257
0.0025209
0.00252535
0.00263088
0.00279475
0.00297401
0.00310333
0.00303792
0.00280675
0.00211901
0.00102582
0.00024966
0.000219209
0.00108665
0.00159277
0.00184057
0.00189643
0.00187258
0.00186763
0.00196043
0.00216837
0.00245692
0.00277212
0.00306461
0.0032763
0.00338315
0.00337991
0.00326835
0.0030595
0.00278566
0.00250635
0.00231239
0.00225872
0.00232792
0.00247201
0.00265086
0.00280138
0.00279506
0.00262714
0.0020375
0.00102843
0.000236342
0.000214506
0.000975088
0.00141055
0.00161043
0.00162679
0.00159062
0.0015972
0.00171523
0.00195757
0.00227197
0.00262198
0.00293053
0.0031509
0.00326637
0.00327319
0.0031737
0.00297376
0.00270014
0.00239802
0.00214814
0.00202862
0.00205131
0.00217165
0.00234311
0.00251228
0.0025683
0.00246457
0.00197646
0.00106328
0.000225456
0.000209006
0.00087313
0.00123556
0.00139048
0.00137514
0.00133288
0.00135689
0.00150555
0.00177909
0.00212643
0.00249669
0.00281157
0.00303479
0.0031559
0.003172
0.00308509
0.00289892
0.00262918
0.00232056
0.00202747
0.0018407
0.00180558
0.00189654
0.00205694
0.00223433
0.00234937
0.0023087
0.00191835
0.0010961
0.000218143
0.000202869
0.000781011
0.00106763
0.00118209
0.00114198
0.00110276
0.00114858
0.00133575
0.00163446
0.00201939
0.00239541
0.00270738
0.00292889
0.00305297
0.0030769
0.00300185
0.00283028
0.00257323
0.00225889
0.0019438
0.00169599
0.00159533
0.00164573
0.00179302
0.0019763
0.00213264
0.00215328
0.00185484
0.00111615
0.000213242
0.000196106
0.000690118
0.000911117
0.000979923
0.0009298
0.000899748
0.000975047
0.00119893
0.00153331
0.00193774
0.00231133
0.0026147
0.0028315
0.0029561
0.0029859
0.00292146
0.00276413
0.0025214
0.00221066
0.00188174
0.00158868
0.00142125
0.0014222
0.00155067
0.0017373
0.00191911
0.00198878
0.00177997
0.00112259
0.00020967
0.000188741
0.000598126
0.000767345
0.000793134
0.00073768
0.00072256
0.000836033
0.00108599
0.00146464
0.00187305
0.0022383
0.00253144
0.00274252
0.00286621
0.00290006
0.00284429
0.00269945
0.00247048
0.00216975
0.00182634
0.00150812
0.00127914
0.00122443
0.00132636
0.00151177
0.00171314
0.00180879
0.00168997
0.00111678
0.000206962
0.000180648
0.000503415
0.000636045
0.000625266
0.000569501
0.000573674
0.000721672
0.000997028
0.0014067
0.00181721
0.00217415
0.00246041
0.00266708
0.00278964
0.00282581
0.0027759
0.00264001
0.00242065
0.00212692
0.00177776
0.00143694
0.00116298
0.00105086
0.00111924
0.00129354
0.00150265
0.00162925
0.00158956
0.00109936
0.000205105
0.000171697
0.000409512
0.000515399
0.000481975
0.000431041
0.000454361
0.000615321
0.000918728
0.00135265
0.00176453
0.00211945
0.00240209
0.00260612
0.00272791
0.00276527
0.00271879
0.00258794
0.00237462
0.00208263
0.00172979
0.00136002
0.0010646
0.00090097
0.000935018
0.0010909
0.00129304
0.00145851
0.00147267
0.00106482
0.000203538
0.000162134
0.000317187
0.000405002
0.000363054
0.000319111
0.000358047
0.000511649
0.00083837
0.00129714
0.00171678
0.00207503
0.00235924
0.00256373
0.00268541
0.00272256
0.00267607
0.00254531
0.00233181
0.00203963
0.00167492
0.00127848
0.00096896
0.00077112
0.000777111
0.000916069
0.00110454
0.00128363
0.00134241
0.00101054
0.000201823
0.000151009
0.000239408
0.000307498
0.000263581
0.000229091
0.000276795
0.000409058
0.000754721
0.00123803
0.00167303
0.00204003
0.00233021
0.00253827
0.00266169
0.00269885
0.002651
0.00251727
0.00229852
0.00199767
0.00161754
0.00118948
0.000862472
0.000654749
0.000639987
0.000767452
0.000942469
0.00111927
0.00117828
0.000933879
0.000198614
0.000139658
0.000188105
0.000218318
0.000185705
0.000164156
0.00021092
0.000318219
0.000664245
0.00117362
0.00162534
0.00200405
0.00230325
0.00251771
0.0026452
0.00268388
0.00263512
0.0024977
0.00227167
0.00195808
0.00156211
0.0010922
0.000743217
0.000544628
0.000515683
0.00062918
0.000790037
0.000967987
0.000955988
0.000784269
0.000194154
0.000128371
0.000153142
0.000156168
0.000139959
0.000126521
0.000165436
0.000248584
0.000560627
0.00109734
0.00156209
0.00194942
0.00225816
0.00248084
0.00261314
0.00265463
0.00260604
0.00246578
0.00223391
0.00191035
0.00149708
0.000981436
0.000619705
0.000439952
0.000404203
0.000501244
0.000632769
0.000775201
0.000731483
0.000584612
0.000186975
0.000116849
0.000128743
0.000126827
0.000118668
0.000106689
0.000136921
0.000204365
0.000489373
0.00104322
0.00151224
0.00189917
0.00220956
0.00243352
0.00256724
0.00261056
0.00256331
0.00242368
0.00219018
0.00186006
0.00142992
0.000878694
0.000502042
0.000346536
0.000311723
0.000392823
0.000490394
0.000589442
0.00053395
0.000415948
0.000176074
0.000106665
0.000115291
0.000112753
0.000105692
9.55193e-05
0.00012266
0.000178713
0.000457102
0.00102206
0.00148852
0.00186954
0.00217335
0.00239178
0.00252269
0.00256547
0.00252031
0.00238476
0.00215615
0.0018297
0.00139764
0.000835491
0.000417757
0.000277391
0.000237694
0.000300413
0.000368505
0.000430778
0.000382959
0.000300892
0.000162525
9.80658e-05
0.000105009
0.000101199
9.52871e-05
8.897e-05
0.000114539
0.000175526
0.000509454
0.00103983
0.00149287
0.00186274
0.00215076
0.00235717
0.00248047
0.00252071
0.00247845
0.0023505
0.00213366
0.00182261
0.001408
0.000877326
0.000379778
0.000235005
0.000184962
0.000227752
0.000270364
0.000306092
0.00027604
0.000221159
0.000148126
8.90972e-05
9.29482e-05
8.94995e-05
8.24502e-05
7.92913e-05
0.000104487
0.000212248
0.000596163
0.0010973
0.00152278
0.00187327
0.00214082
0.00232961
0.00244189
0.00247833
0.00243955
0.00232165
0.00212175
0.0018351
0.00145272
0.000953863
0.000403167
0.000207043
0.000146638
0.000174961
0.000206437
0.000219486
0.00020463
0.000169842
0.000133945
7.94049e-05
7.96623e-05
7.2631e-05
6.4084e-05
7.25158e-05
0.00011861
0.000286183
0.000726566
0.00117646
0.00156263
0.00188793
0.00213543
0.0023063
0.00240775
0.00244045
0.00240714
0.00230227
0.00212297
0.00186451
0.00151322
0.00105952
0.000501514
0.000212507
0.000129122
0.000124774
0.000161793
0.000173975
0.00016729
0.000141033
0.000122685
6.92151e-05
6.34449e-05
5.43325e-05
5.75503e-05
8.57827e-05
0.000163299
0.000439349
0.000857833
0.00125626
0.00160461
0.00189775
0.00212607
0.00228411
0.00237804
0.00240878
0.00238212
0.00229221
0.00213645
0.00190968
0.0015997
0.00120019
0.00070901
0.000270787
0.000143665
9.91726e-05
0.000112983
0.000137723
0.000146813
0.000130052
0.000113971
5.96815e-05
5.01549e-05
5.40377e-05
7.61683e-05
0.000116683
0.00027318
0.00060568
0.000973109
0.0013285
0.00164288
0.00190831
0.00211828
0.0022653
0.00235263
0.00238418
0.0023639
0.00228976
0.00215708
0.00195973
0.00168392
0.00132587
0.000902472
0.000434742
0.000183982
0.00011622
8.82096e-05
9.71019e-05
0.000117464
0.000121976
0.000106047
5.28795e-05
5.46132e-05
7.79344e-05
0.000106465
0.000194305
0.000465217
0.000768711
0.00108844
0.00140064
0.00168058
0.00192281
0.00211484
0.00225161
0.00233357
0.00236701
0.00235358
0.00229275
0.00218034
0.00200627
0.00175888
0.0014466
0.00108947
0.000682103
0.000285271
0.000155933
0.000110659
8.40876e-05
8.56531e-05
0.000101718
9.73146e-05
5.02093e-05
7.61744e-05
0.000122451
0.000210606
0.000426554
0.000682417
0.000949891
0.00122761
0.00148159
0.00172608
0.00194231
0.00211566
0.00224219
0.00232149
0.00235736
0.0023516
0.00230189
0.00220455
0.002054
0.00184758
0.00159772
0.0012948
0.000951725
0.000562272
0.000250019
0.000156619
0.000115302
8.25256e-05
7.78616e-05
8.62924e-05
5.04002e-05
0.000133064
0.000306663
0.000517108
0.000714584
0.000918203
0.00113927
0.00136784
0.00158114
0.00178294
0.00196919