/*--------------------------------*- C++ -*----------------------------------*\
| =========                 |                                                 |
| \\      /  F ield         | OpenFOAM: The Open Source CFD Toolbox           |
|  \\    /   O peration     | Version:  v1606+                                |
|   \\  /    A nd           | Web:      www.OpenFOAM.com                      |
|    \\/     M anipulation  |                                                 |
\*---------------------------------------------------------------------------*/
FoamFile
{
    version     2.0;
    format      ascii;
    class       volScalarField;
    location    "0.79";
    object      epsilon.air;
}
// * * * * * * * * * * * * * * * * * * * * * * * * * * * * * * * * * * * * * //

dimensions      [0 2 -3 0 0 0 0];

internalField   nonuniform List<scalar> 
6000
(
134.751
16.6403
10.7885
10.1473
10.0664
10.1162
10.2346
10.3698
10.4315
10.4324
10.3782
10.2828
10.1872
10.1058
10.0494
10.0474
10.0836
10.1449
10.2225
10.3142
10.3905
10.4135
10.3693
10.2401
10.1234
10.0706
10.1497
10.7901
16.641
134.698
83.2921
23.4411
14.6924
12.862
12.6547
12.98
13.5508
14.0296
14.062
13.7856
13.417
13.088
12.7979
12.5637
12.4293
12.4414
12.5888
12.7936
13.0932
13.4106
13.7536
14.0311
14.0086
13.5501
13.0093
12.7013
12.9206
14.7417
23.4626
83.0462
51.5497
21.4106
15.4797
14.3224
14.5415
15.0413
15.4392
15.6515
15.6588
15.5232
15.3319
15.1766
15.0984
15.1436
15.2136
15.1902
15.1401
15.206
15.3913
15.6174
15.8327
15.988
15.9929
15.7933
15.3973
14.8708
14.6009
15.6921
21.5414
51.5934
46.7526
22.4267
18.4428
18.5024
19.4759
20.2022
20.4419
20.1175
19.6316
19.3331
19.1021
18.9078
18.8432
18.9127
19.0044
18.9943
18.9661
19.0742
19.3433
19.7205
20.0954
20.4686
20.9743
21.3038
21.0374
20.276
19.2122
19.0242
22.8247
47.7226
47.2833
25.4542
23.5168
25.5122
28.5831
30.7089
30.4986
29.0589
27.4136
26.1383
25.4362
24.9736
24.8172
24.9542
25.097
25.0626
24.9674
25.1238
25.653
26.4764
27.4426
28.8425
30.4745
31.857
32.0413
29.8646
26.7287
24.6555
26.4989
49.4375
45.6765
28.1427
28.2045
31.9995
37.7669
43.4491
46.474
44.7875
40.5038
37.1289
35.3295
34.2724
33.8352
33.933
34.1075
33.992
33.8347
34.1597
35.1364
36.7676
38.9912
42.4961
46.6626
48.1877
45.1425
39.4931
33.7834
29.9909
29.9968
49.1736
47.0829
30.3769
31.6133
36.6892
43.5552
51.123
59.5316
62.8053
58.5773
52.1536
48.3578
46.6997
45.9691
45.8626
45.8981
45.6452
45.5627
46.1657
47.6158
50.1006
54.4706
61.0664
65.1268
61.6457
53.3233
45.9591
39.2242
34.1983
33.1222
51.796
56.4356
34.0593
34.8581
40.2355
48.0904
55.7858
63.0394
70.3856
73.0478
68.6615
63.0063
61.5083
61.1917
61.5071
61.3967
60.9056
60.4596
60.6784
62.0764
64.7991
71.3128
76.62
73.8513
66.1683
58.9818
51.5815
43.9036
38.6123
38.1246
63.8019
76.136
40.0115
38.677
43.4026
51.5722
60.5136
66.4739
71.0251
75.9648
79.6387
77.5219
77.3345
78.6873
77.9032
76.7105
75.9853
75.7913
76.0898
76.8015
79.118
83.4232
81.4815
76.1901
71.1047
65.2835
56.7454
48.7468
44.0755
45.9463
87.7533
95.6648
46.5706
43.1183
46.9412
54.6289
64.5688
72.3561
74.2864
77.5431
84.289
91.0828
95.1896
96.7664
92.6209
90.2688
89.4782
89.5721
90.6634
92.6154
93.6018
91.6616
85.6142
81.8522
79.4412
71.8924
62.2015
54.5084
50.6596
54.9129
112.881
110.276
52.7242
47.7982
50.995
58.2507
68.6402
79.0718
81.447
82.393
89.0362
101.068
111.943
111.337
105.768
102.91
102.41
103.473
105.725
109.989
109.029
102.04
94.1495
92.8152
90.0396
79.5154
68.9658
61.3679
58.031
64.1397
133.818
122.012
58.5834
52.2884
55.1625
62.2501
72.8761
85.1755
90.0167
89.5138
94.0934
105.917
120.101
120.898
118.275
115.815
115.724
118.276
122.424
126.87
124.3
113.992
106.198
107.134
101.11
88.1932
76.8707
69.0317
65.9683
73.9682
153.387
133.613
63.8835
56.3354
58.924
66.005
76.6949
89.9459
97.8049
97.0342
99.1405
108.213
121.302
126.197
130.199
130.265
130.991
134.842
140.918
143.604
139.151
126.506
120.336
122.054
111.538
97.1483
85.3026
77.0986
74.263
84.1044
175.037
144.064
68.2772
59.6619
61.9123
68.945
79.4971
93.0093
103.546
103.903
104.529
110.773
121.271
129.227
140.704
147.19
149.483
153.601
160.191
159.95
152.615
139.277
135.135
135.239
120.959
105.789
93.7562
85.2211
82.5326
94.1317
197.754
152.755
71.4537
62.0836
64.0153
70.8013
80.9325
94.1902
106.727
109.744
110.436
115.029
123.6
133.112
148.049
165.55
172.956
175.298
178.706
175.219
163.915
151.625
149.287
146.459
129.87
114.313
102.129
93.2299
90.4811
103.376
218.957
147.926
72.4051
63.5476
65.3505
71.7427
81.2566
93.8057
107.628
114.347
116.688
121.162
128.673
138.61
154.073
179.631
200.177
202.181
196.84
190.254
174.646
163.259
161.982
156.919
139.166
123.288
110.638
101.181
97.8852
110.162
217.781
142.022
72.0142
64.5178
66.3146
72.4154
81.2765
92.6637
106.296
116.886
122.218
127.637
134.117
143.311
158.952
186.801
219.769
227.462
211.961
204.009
186.993
174.196
172.821
167.39
149.264
132.922
119.543
109.352
105.23
115.524
225.275
144.521
73.7433
65.3884
67.274
73.4067
81.6248
91.6182
103.791
116.301
124.864
131.905
138.037
146.509
161.878
188.506
220.53
232.483
217.96
211.003
196.611
183.248
180.906
177.168
160.478
143.593
129.272
118.189
112.985
122.526
233.311
145.464
77.1185
67.3566
68.4944
74.234
82.2934
91.4161
102.305
114.404
124.422
132.802
140.219
149.031
163.273
185.612
210.249
223.127
216.228
210.208
201.389
189.8
186.858
185.337
173.865
156.654
140.84
128.568
122.867
134.163
247.898
156.455
80.5491
69.3395
69.5705
74.4651
82.0243
90.9288
101.526
112.7
123.572
132.719
141.299
150.61
163.049
179.275
196.127
209.001
211.666
206.981
203.11
194.9
193.356
194.194
190.932
173.681
154.824
140.704
135.257
149.728
284.547
183.71
83.6373
70.5037
70.0248
74.3324
81.7352
90.6827
100.47
111.535
122.857
133.18
142.358
151.967
162.936
174.742
186.494
197.282
205.781
205.493
204.834
200.676
202.237
206.376
207.575
190.869
169.308
153.844
149.126
167.86
331.158
185.516
83.5408
70.1977
69.6121
73.8126
81.0265
90.3302
100.44
110.568
120.929
131.377
141.993
152.612
163.23
173.325
182.424
191.015
202.205
209.737
210.254
209.268
213.829
220.065
217.934
202.589
181.466
166.428
162.934
186.237
376.866
181.219
83.2283
69.5707
68.5954
72.4949
79.3962
88.4984
98.9578
109.762
120.533
130.972
141.818
152.935
163.342
172.615
181.015
189.203
201.851
216.799
220.091
221.225
226.561
230.661
226.45
211.473
191.821
178.051
176.05
203.581
420.326
180.321
82.4578
68.5463
67.2926
70.8123
77.2229
85.8234
96.1178
107.473
119.492
131.925
143.922
155.148
164.953
173.378
181.427
189.919
202.667
219.79
229.685
234.287
237.995
238.842
235.319
220.256
202.3
189.8
188.997
220.05
461.278
180.701
81.4981
67.3951
65.8939
69.0947
75.1048
83.2725
93.331
105.057
118.164
132.485
147.049
159.688
169.625
177.193
184.625
193.224
205.269
221.722
236.217
245.17
248.908
250.047
246.632
231.175
214.896
203.436
203.404
236.957
499.006
168.25
79.7416
66.3263
64.6821
67.6402
73.3239
81.1538
91.0038
102.833
116.673
132.346
149.124
164.446
176.119
184.31
191.774
200.534
211.696
226.547
242.434
254.868
261.731
266.333
262.994
247.984
232.46
221.388
221.672
257.527
540.82
168.795
79.4484
65.5506
63.8207
66.6681
72.0125
79.5289
89.1645
100.94
115.04
131.567
149.872
168.156
183.117
193.864
203.05
213.262
224.869
238.456
253.779
267.601
278.306
289.067
288.251
274.29
258.219
246.184
246.129
284.792
595.44
169.301
78.2622
64.9825
63.3779
65.9704
71.0916
78.3273
87.7634
99.3782
113.391
130.176
149.609
170.266
189.451
204.607
217.666
231.52
246.127
260.332
274.099
286.934
300.708
320.242
326.323
312.618
294.305
279.436
278.276
320.744
668.552
168.972
77.4517
64.2537
62.7468
65.3973
70.54
77.5091
86.6955
98.0254
111.756
128.367
148.23
170.543
193.801
215.065
233.686
253.16
273.819
291.486
304.319
314.73
330.909
362.242
378.627
364.805
341.8
321.988
318.811
366.305
764.701
167.814
77.2604
64.0426
62.3929
64.9466
69.9858
77.0573
85.942
96.7921
110.016
126.219
145.895
169.091
194.964
222.269
247.994
274.76
304.363
329.062
342.713
349.752
366.995
411.28
443.606
431.7
401.483
374.311
367.612
420.97
881.034
168.497
77.6856
64.28
62.5039
64.9485
69.8241
76.6702
85.3475
95.3552
107.979
123.77
143.126
166.458
193.767
224.659
257.162
292.061
332.291
368.477
387.057
389.962
404.083
456.641
511.116
509.444
472.508
435.609
423.667
483.311
1014.52
171.124
78.783
64.9076
62.9895
65.3675
70.0279
76.4536
84.1968
93.6405
105.463
120.9
140.025
163.287
191.115
223.558
260.088
301.338
350.689
401.167
431.801
434.654
440.023
488.773
564.409
586.831
550.698
503.479
484.754
550.403
1154.71
175.172
80
65.632
63.6796
65.9506
69.8563
75.3444
82.4656
91.3334
102.69
117.603
136.459
159.505
187.42
220.428
258.143
301.71
355.613
417.52
466.956
478.54
475.584
509.783
589.903
644.003
626.327
573.414
547.232
618.972
1299.03
179.56
80.8074
65.922
63.9942
65.4659
68.4815
73.3984
80.1502
88.7189
99.7466
114.033
132.393
155.032
182.683
215.558
253.167
296.61
350.302
415.271
480.493
509.183
506.675
527.539
596.583
668.305
681.616
637.148
605.285
684.185
1432.01
178.65
80.7131
65.7264
63.3435
64.1259
66.7103
71.3017
77.8638
86.221
96.7956
110.299
127.843
149.879
176.964
209.523
246.789
288.727
339.925
403.932
474.941
518.231
523.404
539.285
595.362
669.05
707.435
680.927
648.427
733.837
1564.62
175.864
79.7303
64.8958
61.9314
62.444
65.0368
69.6848
76.1465
84.0905
93.8349
106.324
122.837
144.094
170.45
202.42
239.11
280.157
329.222
390.475
461.196
511.419
522.992
538.922
586.107
651.989
702.351
698.417
670.364
752.031
1566.89
169.954
78.1347
63.6685
60.5365
61.0558
63.7169
68.5204
75.2202
82.6488
90.8183
101.843
117.198
137.655
163.342
194.716
231.117
272.006
319.403
377.71
446.066
497.186
512.312
528.741
565.132
616.146
668.715
686.542
667.959
745.749
1532.66
169.314
77.6019
62.7367
59.6796
60.5457
63.6754
68.6621
75.1715
81.6538
87.6262
96.4049
110.581
130.415
155.83
186.992
223.53
264.731
311.771
367.892
431.761
478.313
493.442
510.181
537.323
572.88
616.146
648.224
643.439
723.014
1505.03
184.242
78.6225
62.3173
58.9952
59.9823
63.355
67.8239
72.6787
77.799
83.7116
91.3173
103.03
122.288
147.951
179.697
217.406
260.36
308.927
364.604
420.691
456.141
470.754
487.682
507.141
530.003
561.444
595.36
603.186
686.582
1447.22
183.833
79.2994
61.9862
57.9023
58.1309
60.3349
63.5563
67.6803
72.6613
78.385
85.6431
96.0912
113.235
139.493
172.731
213.164
260.08
313.433
369.327
412.608
434.924
448.66
463.1
475.269
488.372
508.825
538.632
560.979
647.554
1393.16
180.167
76.6275
59.4372
54.7635
54.1945
55.7131
58.5121
62.3585
67.1757
72.8087
79.5841
89.0286
104.447
130.149
165.156
209.226
262.315
319.801
374.033
403.811
417.898
428.113
435.689
440.735
447.353
460.134
483.079
512.662
606.128
1323.82
173.66
73.1777
56.2954
51.3738
50.3784
51.4014
53.7873
57.2634
61.7041
67.001
73.3486
81.8631
95.6382
119.782
155.659
201.842
259
316.617
365.553
394.181
405.109
409.559
408.497
407.427
409.975
417.9
434.191
462.63
563.91
1237.42
164.444
69.2516
52.9313
47.945
46.7133
47.3783
49.3747
52.4346
56.4207
61.2495
67.0425
74.5867
86.4789
108.448
143.468
188.928
245.415
301.257
347.046
376.639
390.775
391.463
385.922
379.863
378.395
382.497
393.134
418.395
522.766
1206.42
151.848
64.702
49.4131
44.5768
43.2408
43.6389
45.2756
47.9054
51.3961
55.687
60.88
67.4915
77.4033
96.455
128.806
171.343
221.529
273.811
318.562
349.066
366.042
370.991
365.304
355.984
349.746
349.934
357.226
380.852
480.474
1121.54
138.585
59.9149
45.896
41.3586
40.004
40.2011
41.5043
43.6821
46.6093
50.2574
54.7578
60.4751
68.5354
84.0832
112.267
149.869
191.678
237.166
279.361
312.059
330.203
338.078
336.95
328.425
319.175
315.156
319.767
342.691
430.759
977.866
125.613
55.1751
42.5155
38.3533
37.0321
37.0745
38.0626
39.7672
42.0641
44.9535
48.6252
53.4228
60.0323
72.2106
95.1323
126.469
160.557
198.141
235.742
268.861
289.483
297.676
297.624
292.729
285.968
282.33
286.459
307.496
381.552
835.211
113.549
50.6985
39.3628
35.5965
34.336
34.2613
34.9561
36.1889
37.8358
39.9235
42.6794
46.4808
51.8474
61.3607
79.2309
104.273
131.89
162.048
193.989
224.691
247.114
257.675
258.752
255.463
251.66
251.265
257.433
278.377
346.124
767.103
102.463
46.5648
36.4743
33.0999
31.9228
31.7628
32.1994
32.9979
34.0431
35.3881
37.2755
40.0752
44.245
51.7156
65.2575
84.9778
107.216
130.984
157.153
183.908
206.144
219.381
223.347
222.183
220.847
222.948
231.404
253.359
319.302
724.924
92.4876
42.7929
33.8553
30.863
29.7906
29.577
29.7983
30.2183
30.74
31.4529
32.6069
34.5348
37.5778
43.173
53.5441
68.82
86.3336
105.056
125.938
148.496
169.201
183.989
191.072
192.632
193.31
196.961
206.641
228.794
292.035
669.486
83.8374
39.3886
31.4987
28.8783
27.9293
27.6896
27.7345
27.8268
27.9017
28.0891
28.6418
29.8516
31.9259
35.8789
43.5942
55.3656
69.0246
83.8113
100.495
119.305
137.975
153.193
162.61
166.764
169.144
173.714
183.686
205.142
264.023
603.517
76.6605
36.3651
29.4004
27.135
26.3219
26.0717
25.9646
25.7667
25.4546
25.2074
25.2748
25.9066
27.1966
29.8595
35.4766
44.3966
55.0661
66.8785
80.4545
96.2738
112.94
127.917
138.805
145.022
148.781
153.692
163.259
183.198
236.393
533.878
70.9436
33.749
27.5612
25.6196
24.9409
24.6874
24.4343
23.9684
23.3244
22.7137
22.397
22.5831
23.2831
24.9929
29.0117
35.7528
44.1492
53.7603
65.0976
78.6533
93.58
108.016
119.741
127.46
132.241
137.119
145.721
163.521
210.417
467.142
66.4761
31.5518
25.9768
24.3171
23.7595
23.4904
23.0819
22.367
21.4374
20.5372
19.9232
19.7777
20.0462
21.0851
23.9579
29.1166
35.8255
43.8216
53.5227
65.3798
78.8747
92.6853
104.846
113.638
119.169
123.789
131.078
146.343
186.909
407.351
63.015
29.7561
24.6359
23.2097
22.7486
22.432
21.852
20.9059
19.7404
18.6159
17.7801
17.3979
17.3646
17.9261
19.9896
24.0343
29.5505
36.3428
44.826
55.3781
67.6988
80.8874
93.2528
102.836
108.959
113.237
119.07
131.634
166.238
356.282
60.4944
28.3023
23.5133
22.2738
21.8709
21.4668
20.6992
19.5457
18.1891
16.8994
15.9123
15.3663
15.1305
15.3784
16.8755
20.1016
24.7433
30.6672
38.2195
47.725
59.0495
71.6315
84.0636
94.2669
100.916
104.887
109.296
119.215
148.456
314.038
58.9098
27.1431
22.5874
21.4791
21.0833
20.5528
19.5927
18.2573
16.7557
15.3531
14.2712
13.6261
13.2643
13.3082
14.4074
17.0366
21.0332
26.2884
33.0881
41.7085
52.1452
64.1138
76.501
87.2148
94.3875
98.1731
101.325
108.832
133.411
279.709
57.9497
26.2396
21.8371
20.799
20.3519
19.6583
18.5127
17.0265
15.421
13.952
12.8254
12.131
11.7008
11.6253
12.4451
14.6266
18.109
22.8251
28.9844
36.8178
46.4224
57.7398
69.9614
81.0935
88.8261
92.6072
94.7611
100.209
120.865
251.958
57.2756
25.5602
21.2422
20.2058
19.6512
18.7731
17.4549
15.8475
14.1751
12.6803
11.5501
10.8453
10.3898
10.2466
10.8757
12.7161
15.779
20.014
25.5932
32.6985
41.5084
52.1174
64.0195
75.4535
83.8014
87.7946
89.2775
93.0567
110.446
229.02
56.617
25.0778
20.7928
19.6896
18.9696
17.8971
16.4229
14.7206
13.0119
11.5262
10.4295
9.74655
9.29979
9.11411
9.60371
11.1671
13.8612
17.667
22.7015
29.123
37.1698
47.0158
58.4191
69.9792
78.986
83.4268
84.6069
87.1245
101.804
210.015
55.7732
24.7657
20.4809
19.2464
18.3164
17.042
15.4255
13.648
11.9261
10.4766
9.43929
8.80559
8.37306
8.17795
8.57625
9.90598
12.2624
15.6476
20.1776
25.9588
33.2803
42.3332
53.0672
64.5111
74.1339
79.2434
80.489
82.1253
94.5913
194.063
54.7837
24.5912
20.3011
18.8735
17.6968
16.2201
14.474
12.637
10.9215
9.5302
8.56959
7.99457
7.59688
7.42665
7.76053
8.8791
10.91
13.8932
17.9287
23.1238
29.7781
38.0477
47.9991
59.0538
69.1061
75.0335
76.6938
77.863
88.5554
180.706
53.7858
24.5842
20.2464
18.5611
17.1154
15.4424
13.5782
11.6953
10.0048
8.69179
7.82254
7.31595
6.97601
6.83221
7.11216
8.03908
9.76163
12.3612
15.9331
20.6087
26.6423
34.1736
43.3145
53.7528
63.9115
70.6525
72.9939
74.1046
83.4199
168.811
52.9005
24.6637
20.271
18.2872
16.57
14.7122
12.7404
10.8241
9.17567
7.95622
7.18631
6.75466
6.47545
6.35882
6.58344
7.34073
8.78673
11.0337
14.1924
18.3951
23.8559
30.7191
39.1002
48.812
58.7203
66.0658
69.1838
70.6083
78.9776
158.348
52.1937
24.882
20.3506
18.0362
16.0578
14.0271
11.955
10.0171
8.42802
7.31356
6.64664
6.29227
6.06142
5.98138
6.16119
6.76149
7.95444
9.88567
12.6779
16.452
21.3865
27.6573
35.3692
44.3734
53.7877
61.3661
65.1086
67.0379
74.9342
147.573
51.5436
25.276
20.488
17.8002
15.5708
13.3734
11.2059
9.26054
7.74704
6.7426
6.17403
5.86911
5.68848
5.66064
5.80925
6.27882
7.25424
8.89353
11.3458
14.739
19.1904
24.9378
32.0791
40.4824
49.3835
56.8496
60.8775
63.2585
71.7194
136.282
51.0077
25.8085
20.6299
17.5668
15.1004
12.7349
10.4767
8.5436
7.1214
6.22597
5.74088
5.46903
5.36203
5.38287
5.50992
5.87559
6.65691
8.02439
10.1571
13.1683
17.1862
22.4923
29.1579
37.1081
45.6569
52.97
56.9774
59.4582
68.8906
123.122
50.2372
26.4306
20.7378
17.3272
14.6267
12.085
9.74884
7.85314
6.53599
5.741
5.30997
5.09952
5.06808
5.12315
5.22745
5.50747
6.12213
7.23997
9.05225
11.6989
15.3468
20.2431
26.5096
34.1489
42.5607
49.9643
53.8882
55.7528
64.6061
107.485
49.3266
27.0775
20.8031
17.0708
14.1247
11.4021
9.01187
7.18281
5.98129
5.27631
4.88355
4.75141
4.78307
4.85256
4.93375
5.14558
5.61772
6.51126
8.01926
10.3241
13.6234
18.1252
24.029
31.442
39.8572
47.5981
51.3864
52.0401
58.2712
91.2068
47.642
27.614
20.8071
16.7854
13.5684
10.6698
8.25944
6.52836
5.44512
4.80412
4.48111
4.41785
4.48354
4.55136
4.6137
4.76832
5.12221
5.81692
7.03799
9.00853
11.9217
16.0083
21.5788
28.7704
37.2116
45.2399
48.9839
48.1768
50.6756
76.0314
45.5542
27.9398
20.758
16.4423
12.9253
9.87116
7.48405
5.87588
4.8874
4.32705
4.09721
4.08758
4.16078
4.21843
4.26584
4.37203
4.63036
5.15237
6.10443
7.72097
10.2375
13.8636
18.9573
25.843
34.2086
42.509
46.4722
44.2752
43.389
63.4044
43.1895
27.865
20.5863
15.968
12.1387
8.97348
6.65788
5.19456
4.32176
3.88206
3.73612
3.75358
3.81653
3.85743
3.88896
3.96203
4.14909
4.52899
5.2379
6.49849
8.56757
11.692
16.2171
22.6312
30.747
39.2667
43.7038
40.7247
37.3577
53.7525
40.4114
27.4341
20.1844
15.2399
11.1355
7.95466
5.79717
4.49512
3.78699
3.46963
3.38735
3.41283
3.45686
3.48043
3.50088
3.5559
3.69057
3.95722
4.45982
5.38744
7.00415
9.60085
13.503
19.2374
27.0691
35.7408
40.8564
37.8126
32.5876
46.6482
37.329
26.3995
19.3752
14.1281
9.90176
6.82503
4.90698
3.82841
3.29589
3.08783
3.04825
3.0707
3.09816
3.11286
3.12836
3.16876
3.26101
3.44068
3.78188
4.42912
5.62563
7.68769
10.99
15.9835
23.1656
31.9464
37.9482
35.5261
29.1497
42.2474
34.0868
24.8308
18.1053
12.6565
8.42475
5.64331
4.04151
3.21841
2.85538
2.73364
2.71952
2.73838
2.75857
2.77163
2.7846
2.81117
2.86847
2.98189
3.20249
3.63399
4.47526
6.03685
8.70862
12.9692
19.3824
28.0609
34.9061
33.5877
26.6532
39.4681
30.7441
22.9428
16.3646
10.7806
6.87991
4.51187
3.26017
2.68236
2.45462
2.39424
2.40009
2.42462
2.44741
2.46267
2.47337
2.48736
2.51622
2.57839
2.70956
2.9836
3.55161
4.6864
6.77572
10.3199
15.9298
24.0301
31.6891
31.9566
24.8248
37.5058
27.3673
20.6174
14.2542
8.81067
5.3723
3.49349
2.58853
2.2022
2.08197
2.07561
2.10704
2.14534
2.17564
2.19411
2.20236
2.20558
2.21182
2.23441
2.29843
2.45664
2.82257
3.62111
5.21234
8.06625
12.8381
20.1477
28.5504
30.745
23.5301
36.0812
23.9454
18.1084
11.8722
6.94262
4.081
2.65857
2.01664
1.7903
1.76484
1.80631
1.8657
1.91837
1.95606
1.97688
1.9825
1.97679
1.96545
1.9585
1.97313
2.04694
2.26376
2.80377
3.99502
6.2692
10.2512
16.6975
25.2637
29.5364
22.6737
35.1219
20.5241
15.3178
9.59475
5.31743
3.06048
1.99759
1.56536
1.47513
1.51647
1.59973
1.67957
1.74266
1.7854
1.80751
1.811
1.79895
1.77538
1.74654
1.72673
1.74114
1.8522
2.20111
3.07256
4.88207
8.14765
13.7831
22.0192
27.7964
22.1373
34.3104
17.2342
12.3294
7.43866
3.98577
2.27472
1.50667
1.23866
1.23826
1.33118
1.44625
1.54184
1.61323
1.65952
1.68188
1.68339
1.66635
1.63349
1.58907
1.54239
1.5175
1.55505
1.76976
2.39697
3.826
6.49677
11.226
18.7517
25.0394
21.836
33.4246
13.8741
9.47829
5.58971
2.96211
1.70867
1.16478
1.00127
1.05138
1.19818
1.33898
1.44745
1.52619
1.5753
1.59756
1.5976
1.57704
1.53716
1.47991
1.41075
1.35066
1.33943
1.46185
1.91779
3.02963
5.18944
9.06111
15.5892
21.4084
21.309
31.8208
10.996
7.35844
4.1799
2.25738
1.34408
0.931273
0.825288
0.900761
1.08565
1.25567
1.38203
1.47138
1.5264
1.55167
1.55261
1.53099
1.48606
1.41705
1.32676
1.23013
1.18222
1.23761
1.58176
2.46217
4.17935
7.22695
12.322
18.0456
20.553
29.6459
8.51922
5.72904
3.22288
1.82293
1.11825
0.77287
0.683701
0.7606
0.967825
1.16577
1.3068
1.40644
1.4749
1.51191
1.52052
1.50321
1.45682
1.37885
1.26982
1.14004
1.05655
1.06645
1.3465
2.08151
3.49506
5.94628
9.97364
15.012
19.2232
26.3546
6.42943
4.42401
2.56186
1.50312
0.928558
0.633009
0.558801
0.640408
0.870468
1.08446
1.22587
1.3283
1.40658
1.45502
1.47262
1.46108
1.41695
1.33664
1.21694
1.0628
0.939029
0.921965
1.15575
1.80511
3.02166
5.03924
8.25962
12.3524
16.4358
21.8913
4.91565
3.41129
1.99115
1.1725
0.731056
0.501181
0.453614
0.546669
0.795038
1.01146
1.15216
1.25393
1.33373
1.38692
1.40957
1.40262
1.3632
1.28684
1.16766
1.00405
0.841848
0.794029
0.963089
1.51227
2.53294
4.15781
6.64366
9.90445
13.0899
17.2008
3.82789
2.53308
1.43438
0.845105
0.542893
0.382203
0.369855
0.471449
0.717743
0.943923
1.09503
1.18746
1.25571
1.30253
1.32394
1.32055
1.28848
1.22211
1.11429
0.95946
0.774722
0.690632
0.779367
1.20926
2.00285
3.23332
5.05629
7.41184
9.87917
12.9905
2.86442
1.75895
0.960034
0.56755
0.374356
0.28226
0.304285
0.435383
0.656752
0.874448
1.04193
1.12699
1.17353
1.20622
1.22335
1.22266
1.19954
1.14815
1.06152
0.930895
0.75066
0.603565
0.600877
0.892837
1.49286
2.39154
3.67914
5.36153
7.13069
9.63475
2.02071
1.14618
0.59568
0.35408
0.243366
0.215758
0.275121
0.428516
0.616301
0.804519
0.969287
1.05448
1.08664
1.10766
1.1218
1.1245
1.11174
1.0781
1.01694
0.912621
0.750531
0.559367
0.488075
0.604404
1.00276
1.6595
2.59794
3.85829
5.22508
7.4585
1.33474
0.691888
0.345204
0.213982
0.167505
0.187029
0.275188
0.419119
0.581519
0.742892
0.885704
0.969215
0.9992
1.01556
1.02912
1.03605
1.03385
1.01744
0.976397
0.889399
0.748323
0.562147
0.440685
0.437398
0.628761
1.04145
1.71138
2.71293
3.95718
6.00524
0.859196
0.398536
0.200921
0.139906
0.139442
0.187648
0.280691
0.408604
0.548687
0.689473
0.809651
0.887209
0.918495
0.933376
0.947674
0.960024
0.967354
0.965091
0.939119
0.868575
0.744935
0.573889
0.42701
0.364354
0.406941
0.614081
1.02468
1.76546
2.95676
4.83899
0.607597
0.243547
0.135681
0.117997
0.139671
0.19841
0.292114
0.407534
0.523839
0.642383
0.745223
0.81385
0.845741
0.861502
0.877481
0.894896
0.911391
0.921184
0.910287
0.857387
0.750446
0.599866
0.444033
0.345025
0.317744
0.385566
0.597205
1.06515
2.04821
3.71173
0.530869
0.183219
0.124917
0.121942
0.153655
0.222592
0.31211
0.413365
0.512165
0.608131
0.693775
0.751074
0.780764
0.79875
0.817002
0.838962
0.863576
0.885326
0.890281
0.859518
0.780868
0.659746
0.505567
0.368577
0.312305
0.312442
0.394148
0.646799
1.31101
2.56211
0.543858
0.183391
0.137756
0.146233
0.190014
0.258414
0.340614
0.42835
0.509368
0.585807
0.656169
0.699637
0.723806
0.742646
0.76314
0.788873
0.820741
0.854264
0.873075
0.869048
0.833901
0.754071
0.617175
0.451958
0.349134
0.322079
0.350263
0.461768
0.842486
1.64808
0.685448
0.225288
0.184615
0.203446
0.248126
0.30996
0.379817
0.446271
0.507435
0.565271
0.622537
0.654107
0.67326
0.691532
0.713194
0.741042
0.777213
0.820027
0.855265
0.871526
0.871844
0.839072
0.744067
0.589099
0.458442
0.385871
0.375717
0.436476
0.643514
1.19249
1.0622
0.320381
0.262799
0.278614
0.324076
0.380583
0.432468
0.472997
0.508634
0.543627
0.585916
0.611054
0.627781
0.645341
0.667289
0.695515
0.732225
0.778249
0.825644
0.862814
0.880147
0.87172
0.817917
0.696506
0.588559
0.517997
0.473163
0.479344
0.626283
1.12863
1.35683
0.458028
0.35456
0.356304
0.401134
0.453043
0.490976
0.508209
0.515335
0.531678
0.552751
0.573335
0.588659
0.605712
0.627525
0.655682
0.691798
0.736786
0.787569
0.836153
0.872044
0.874243
0.84058
0.771519
0.701171
0.66166
0.635262
0.618796
0.696098
1.27213
1.48343
0.638727
0.446452
0.419204
0.453095
0.505023
0.538581
0.542504
0.530778
0.530314
0.536458
0.546579
0.559663
0.575326
0.596252
0.624493
0.661688
0.708475
0.762376
0.816698
0.861549
0.882192
0.888652
0.884176
0.827602
0.798613
0.80088
0.832323
0.927716
1.73718
1.52515
0.65331
0.483598
0.454218
0.478886
0.522969
0.554862
0.554973
0.539932
0.528739
0.533208
0.538675
0.545971
0.557695
0.575989
0.603826
0.643613
0.696601
0.761412
0.825598
0.876128
0.911218
1.00125
1.04269
0.971245
0.928931
0.936777
1.03722
1.33677
2.63365
1.50322
0.631763
0.483562
0.458706
0.48007
0.513631
0.541433
0.546581
0.536744
0.525979
0.524738
0.535535
0.546676
0.55535
0.568759
0.594857
0.636784
0.696539
0.773645
0.861535
0.927912
0.973978
1.12516
1.17294
1.08998
1.03727
1.04574
1.15803
1.62413
4.02231
1.36557
0.600362
0.472182
0.452074
0.469294
0.486857
0.505703
0.521264
0.523165
0.5179
0.514158
0.521982
0.540031
0.554905
0.57045
0.596903
0.639653
0.70335
0.793422
0.900967
0.977564
1.02605
1.1588
1.20067
1.14089
1.09965
1.11315
1.2261
1.69834
4.96218
1.11162
0.567705
0.455031
0.44151
0.452088
0.461414
0.474608
0.490911
0.499657
0.500848
0.49998
0.503727
0.517912
0.539432
0.564412
0.597701
0.646867
0.717973
0.816685
0.927475
0.998543
1.04681
1.13027
1.16328
1.14065
1.13149
1.17062
1.33411
1.83206
5.22503
1.06277
0.53298
0.447191
0.437088
0.441592
0.447221
0.454904
0.464626
0.471717
0.475503
0.478858
0.485624
0.498733
0.518529
0.546092
0.585921
0.641378
0.717978
0.816738
0.923436
1.01
1.05352
1.09251
1.11707
1.13852
1.16968
1.26078
1.46927
1.99801
5.01409
1.12589
0.528895
0.450575
0.439821
0.442392
0.443224
0.44352
0.445818
0.447784
0.44996
0.454698
0.464363
0.480322
0.502623
0.531516
0.569714
0.623232
0.697152
0.788227
0.892079
0.993123
1.05424
1.08523
1.11375
1.16604
1.22768
1.30433
1.48686
1.99761
4.39392
1.34877
0.560251
0.470763
0.453736
0.449874
0.443754
0.438249
0.434819
0.432476
0.432341
0.435957
0.444949
0.460902
0.48423
0.514443
0.552129
0.600789
0.665244
0.747163
0.844699
0.949171
1.03848
1.08236
1.10593
1.16872
1.2248
1.2803
1.43271
1.8576
3.76244
1.5362
0.644594
0.510695
0.477667
0.461048
0.446885
0.437268
0.429997
0.425043
0.42321
0.425358
0.432451
0.445796
0.466401
0.494562
0.530496
0.576542
0.637025
0.714485
0.807337
0.909412
1.00329
1.05713
1.07566
1.11713
1.16309
1.21567
1.3311
1.65301
3.43651
1.60898
0.679787
0.533063
0.489936
0.466367
0.450299
0.438081
0.428769
0.422253
0.419119
0.419882
0.425239
0.43607
0.453281
0.47763
0.509876
0.552031
0.607548
0.678825
0.764664
0.858879
0.944353
0.993595
1.0088
1.03604
1.08413
1.14694
1.24191
1.50371
3.28126
1.59695
0.67674
0.53465
0.490101
0.468315
0.452569
0.439018
0.428395
0.420965
0.416926
0.416601
0.420527
0.429381
0.443936
0.464979
0.493407
0.530719
0.579193
0.64041
0.713389
0.79254
0.863525
0.906484
0.925436
0.952146
1.00225
1.06851
1.14968
1.34481
2.98012
1.46241
0.659537
0.526639
0.488653
0.46863
0.45265
0.438443
0.42742
0.419577
0.415142
0.414218
0.417097
0.424367
0.436739
0.454956
0.4798
0.512225
0.553468
0.604133
0.66296
0.725225
0.780882
0.818542
0.840803
0.865757
0.906341
0.959966
1.02449
1.1789
2.38275
1.15968
0.616323
0.508002
0.484456
0.466514
0.45019
0.435995
0.425255
0.417875
0.413658
0.412514
0.41462
0.420556
0.43098
0.446562
0.467872
0.495453
0.529815
0.570914
0.617318
0.665144
0.707757
0.739327
0.761253
0.781012
0.804626
0.831352
0.86608
0.97423
1.77204
1.05295
0.561
0.484486
0.470742
0.458236
0.443531
0.431704
0.423246
0.417123
0.413174
0.411655
0.41291
0.417548
0.4262
0.43933
0.457235
0.480182
0.508215
0.540958
0.577004
0.613147
0.644759
0.668881
0.686458
0.699389
0.70723
0.708195
0.710708
0.769806
1.316
1.09176
0.531312
0.463825
0.451685
0.445775
0.43723
0.430092
0.423866
0.418063
0.413688
0.411385
0.411588
0.41492
0.421866
0.43269
0.447499
0.466271
0.488785
0.514523
0.54219
0.569036
0.591406
0.607626
0.618563
0.6241
0.621583
0.607
0.58791
0.617113
1.10015
1.29534
0.538034
0.460203
0.447089
0.442183
0.437365
0.432475
0.427134
0.420719
0.415009
0.411133
0.410018
0.411998
0.417381
0.426191
0.438316
0.453536
0.471506
0.49167
0.512868
0.532765
0.548193
0.557634
0.561943
0.561218
0.552781
0.533158
0.507377
0.52388
1.07933
1.5088
0.555476
0.465753
0.45376
0.446833
0.440957
0.437788
0.431137
0.422857
0.415357
0.410121
0.407683
0.408499
0.412569
0.419675
0.429567
0.441928
0.456379
0.472374
0.488887
0.504106
0.51544
0.520599
0.520469
0.515502
0.504702
0.48714
0.469511
0.50693
1.1444
1.53416
0.596355
0.481393
0.467751
0.45221
0.445867
0.440635
0.43175
0.422449
0.414148
0.407836
0.404568
0.404545
0.407559
0.413275
0.42139
0.431571
0.443477
0.456644
0.470265
0.48316
0.493554
0.497761
0.496195
0.48999
0.479708
0.46711
0.464775
0.528891
1.40274
1.56813
0.641237
0.490681
0.467496
0.454327
0.448389
0.440514
0.430388
0.420142
0.411033
0.404367
0.400854
0.400359
0.402596
0.407236
0.414005
0.42262
0.432837
0.444369
0.456747
0.4695
0.48234
0.490104
0.489654
0.484652
0.476527
0.4666
0.469752
0.562206
1.65746
1.56875
0.632796
0.487481
0.46241
0.454159
0.448144
0.438465
0.42673
0.415486
0.406434
0.400198
0.396874
0.396207
0.397937
0.401809
0.40761
0.415145
0.424326
0.435075
0.447235
0.461128
0.478422
0.49184
0.492884
0.49017
0.485532
0.47698
0.482747
0.618627
1.70741
1.50226
0.610169
0.4784
0.457454
0.453203
0.446
0.433888
0.420831
0.409588
0.401296
0.395861
0.392983
0.39235
0.393779
0.397131
0.402257
0.409087
0.417668
0.428079
0.440484
0.456416
0.475922
0.492407
0.495103
0.496588
0.50033
0.496507
0.517404
0.753807
1.69954
1.27439
0.61286
0.476911
0.455777
0.452042
0.441981
0.427364
0.413652
0.403389
0.396321
0.391795
0.389412
0.388914
0.390202
0.393204
0.397846
0.404191
0.412388
0.422648
0.436151
0.452219
0.470455
0.486534
0.490553
0.493978
0.500702
0.502408
0.538367
0.764562
1.67338
1.14409
0.604447
0.475597
0.456812
0.451429
0.436289
0.41957
0.406952
0.398283
0.392379
0.38854
0.386475
0.386046
0.387214
0.389918
0.394129
0.400088
0.407931
0.418299
0.431899
0.445844
0.460875
0.471401
0.477007
0.485084
0.496411
0.500689
0.531215
0.73228
1.57691
1.15471
0.581117
0.478169
0.461045
0.450059
0.429891
0.414292
0.403501
0.395883
0.390447
0.386692
0.38453
0.383943
0.384864
0.387183
0.390918
0.396431
0.403947
0.414065
0.425778
0.437715
0.448072
0.453721
0.459144
0.469849
0.486072
0.493474
0.507308
0.653816
1.30712
1.2388
0.589631
0.494636
0.472062
0.449168
0.429557
0.415125
0.404505
0.396703
0.390946
0.386793
0.384121
0.382998