/*--------------------------------*- C++ -*----------------------------------*\
| =========                 |                                                 |
| \\      /  F ield         | OpenFOAM: The Open Source CFD Toolbox           |
|  \\    /   O peration     | Version:  v1606+                                |
|   \\  /    A nd           | Web:      www.OpenFOAM.com                      |
|    \\/     M anipulation  |                                                 |
\*---------------------------------------------------------------------------*/
FoamFile
{
    version     2.0;
    format      ascii;
    class       volScalarField;
    location    "0.79";
    object      p;
}
// * * * * * * * * * * * * * * * * * * * * * * * * * * * * * * * * * * * * * //

dimensions      [1 -1 -2 0 0 0 0];

internalField   nonuniform List<scalar> 
6000
(
105791
105796
105799
105801
105802
105800
105794
105787
105782
105780
105781
105784
105787
105791
105793
105794
105795
105795
105794
105795
105796
105800
105806
105815
105823
105827
105828
105826
105824
105820
105698
105702
105707
105713
105718
105720
105720
105719
105718
105719
105722
105727
105732
105737
105740
105742
105741
105740
105738
105736
105736
105737
105739
105742
105744
105744
105740
105735
105731
105727
105610
105614
105626
105644
105661
105674
105682
105685
105684
105684
105688
105694
105701
105707
105712
105713
105712
105709
105705
105703
105701
105703
105706
105705
105699
105688
105672
105655
105644
105639
105483
105484
105491
105506
105536
105574
105601
105620
105630
105635
105642
105650
105658
105666
105672
105673
105671
105667
105662
105657
105653
105650
105642
105626
105601
105563
105534
105519
105513
105512
105417
105415
105413
105412
105416
105437
105481
105518
105547
105568
105582
105594
105604
105611
105616
105619
105618
105615
105608
105600
105589
105570
105543
105508
105465
105445
105442
105443
105444
105446
105384
105381
105375
105367
105357
105349
105351
105375
105418
105465
105493
105511
105522
105528
105531
105535
105539
105537
105530
105515
105489
105446
105404
105381
105379
105388
105398
105406
105411
105415
105361
105356
105349
105338
105322
105305
105287
105278
105288
105334
105383
105408
105418
105420
105420
105427
105435
105438
105432
105411
105366
105322
105312
105320
105337
105354
105369
105381
105388
105393
105337
105331
105323
105310
105293
105272
105252
105236
105228
105235
105277
105303
105296
105273
105264
105272
105295
105322
105332
105313
105273
105264
105272
105286
105306
105325
105342
105355
105363
105370
105308
105301
105292
105278
105261
105242
105223
105206
105195
105187
105195
105207
105178
105174
105177
105183
105193
105209
105240
105238
105228
105233
105243
105258
105276
105295
105311
105325
105334
105340
105269
105264
105253
105240
105225
105209
105190
105175
105165
105155
105145
105136
105122
105131
105141
105149
105154
105157
105171
105190
105198
105205
105214
105227
105244
105259
105274
105287
105297
105302
105225
105222
105211
105198
105185
105170
105155
105143
105133
105124
105111
105096
105093
105102
105115
105125
105131
105131
105134
105154
105166
105174
105182
105193
105206
105219
105232
105244
105254
105255
105178
105176
105168
105156
105143
105131
105119
105111
105103
105094
105081
105068
105065
105071
105084
105097
105106
105107
105107
105121
105134
105142
105151
105158
105164
105175
105187
105197
105203
105204
105133
105131
105126
105117
105105
105094
105087
105081
105073
105064
105052
105040
105035
105034
105045
105061
105074
105080
105077
105086
105098
105108
105117
105121
105122
105130
105140
105147
105151
105151
105089
105088
105086
105080
105071
105062
105057
105052
105043
105033
105022
105011
105004
104995
104997
105014
105032
105044
105042
105045
105056
105067
105078
105081
105080
105086
105093
105098
105100
105098
105045
105048
105048
105045
105040
105034
105030
105023
105012
105003
104994
104983
104974
104963
104953
104958
104981
104997
105001
105002
105010
105019
105031
105036
105038
105042
105047
105051
105050
105045
105003
105007
105013
105013
105010
105007
105003
104995
104984
104978
104970
104960
104949
104936
104923
104915
104923
104948
104960
104963
104966
104970
104979
104989
104994
104999
105004
105005
104998
104995
104970
104974
104980
104982
104980
104977
104974
104972
104965
104961
104954
104943
104930
104917
104903
104890
104889
104909
104924
104928
104929
104928
104931
104943
104952
104958
104964
104966
104961
104957
104952
104952
104957
104956
104951
104949
104947
104951
104953
104949
104941
104929
104915
104900
104885
104875
104872
104884
104898
104899
104899
104896
104893
104901
104912
104921
104929
104933
104932
104931
104942
104939
104938
104935
104929
104924
104922
104925
104940
104936
104926
104910
104893
104876
104863
104859
104857
104863
104875
104875
104874
104871
104865
104864
104874
104884
104894
104902
104904
104907
104933
104930
104924
104919
104914
104910
104906
104901
104905
104900
104884
104869
104856
104846
104841
104841
104840
104841
104853
104853
104850
104847
104837
104823
104833
104847
104861
104867
104872
104876
104925
104919
104912
104905
104901
104897
104891
104881
104868
104854
104841
104833
104827
104823
104823
104823
104821
104819
104826
104826
104821
104815
104801
104788
104793
104811
104825
104833
104839
104843
104901
104903
104897
104890
104884
104880
104873
104862
104848
104836
104826
104819
104813
104810
104808
104805
104800
104794
104787
104784
104781
104774
104764
104764
104769
104782
104795
104804
104810
104812
104862
104864
104864
104863
104861
104858
104852
104845
104835
104826
104817
104809
104802
104797
104792
104786
104778
104766
104753
104748
104746
104743
104743
104749
104753
104762
104773
104780
104784
104786
104812
104816
104819
104821
104823
104824
104824
104823
104818
104812
104804
104796
104789
104782
104775
104767
104757
104746
104736
104732
104730
104731
104734
104739
104742
104748
104756
104760
104762
104763
104754
104762
104770
104775
104780
104783
104787
104791
104793
104792
104788
104781
104773
104765
104758
104750
104741
104733
104728
104726
104725
104726
104729
104733
104734
104736
104740
104742
104742
104742
104704
104707
104714
104724
104732
104740
104747
104752
104760
104767
104768
104764
104757
104750
104743
104736
104730
104726
104723
104722
104721
104721
104723
104727
104724
104722
104723
104723
104723
104723
104660
104659
104664
104669
104674
104688
104700
104710
104720
104732
104744
104747
104744
104737
104732
104727
104723
104720
104718
104716
104715
104715
104717
104717
104709
104705
104702
104702
104701
104701
104620
104618
104616
104617
104624
104634
104645
104658
104673
104691
104711
104728
104732
104729
104725
104721
104718
104715
104713
104710
104707
104706
104706
104701
104691
104685
104680
104678
104677
104676
104575
104575
104575
104575
104579
104584
104590
104598
104617
104642
104670
104700
104719
104723
104720
104717
104714
104711
104708
104703
104699
104696
104692
104683
104672
104663
104657
104652
104650
104650
104526
104526
104526
104529
104533
104539
104541
104541
104554
104585
104620
104657
104694
104713
104716
104713
104710
104707
104702
104696
104689
104682
104675
104663
104650
104639
104632
104626
104623
104622
104475
104474
104475
104477
104481
104488
104493
104485
104492
104520
104563
104606
104648
104686
104704
104707
104705
104702
104696
104686
104675
104664
104653
104639
104624
104613
104605
104599
104596
104595
104426
104425
104425
104426
104427
104434
104435
104432
104436
104459
104502
104550
104596
104640
104673
104690
104694
104693
104685
104671
104656
104641
104625
104609
104594
104583
104575
104571
104569
104568
104382
104382
104381
104380
104380
104380
104381
104386
104391
104407
104444
104493
104542
104589
104628
104650
104666
104670
104663
104647
104628
104610
104592
104575
104561
104550
104545
104544
104542
104541
104343
104343
104344
104341
104336
104336
104341
104346
104351
104362
104391
104436
104488
104536
104577
104596
104614
104620
104620
104608
104588
104571
104555
104541
104529
104519
104517
104518
104514
104515
104307
104307
104307
104304
104300
104300
104303
104305
104310
104318
104341
104382
104432
104482
104523
104539
104552
104559
104560
104553
104538
104527
104517
104510
104501
104495
104497
104502
104493
104488
104272
104272
104271
104272
104267
104265
104262
104259
104262
104272
104292
104329
104377
104427
104468
104488
104493
104500
104502
104496
104487
104484
104483
104481
104478
104475
104479
104484
104474
104470
104238
104237
104236
104238
104235
104229
104221
104209
104206
104216
104241
104277
104323
104372
104413
104439
104444
104451
104454
104449
104444
104449
104453
104455
104455
104455
104457
104460
104456
104455
104205
104200
104198
104198
104196
104189
104185
104182
104181
104185
104199
104229
104273
104322
104364
104393
104404
104411
104416
104413
104413
104421
104428
104431
104433
104434
104434
104437
104436
104435
104180
104178
104178
104177
104176
104174
104174
104176
104177
104177
104180
104197
104230
104278
104321
104352
104368
104378
104381
104382
104391
104400
104408
104411
104413
104413
104414
104417
104413
104410
104172
104171
104171
104171
104172
104173
104174
104175
104176
104176
104176
104181
104200
104241
104286
104317
104335
104344
104345
104355
104372
104384
104392
104395
104397
104396
104396
104393
104388
104382
104170
104170
104170
104171
104171
104172
104173
104174
104174
104175
104175
104176
104190
104216
104259
104291
104311
104316
104316
104327
104352
104366
104375
104379
104380
104379
104377
104371
104361
104353
104170
104170
104170
104170
104171
104171
104172
104172
104173
104173
104174
104174
104183
104200
104240
104273
104296
104297
104298
104300
104318
104337
104348
104354
104356
104355
104351
104342
104321
104317
104169
104169
104169
104169
104170
104170
104171
104171
104171
104172
104172
104173
104177
104191
104227
104260
104283
104284
104283
104280
104280
104292
104303
104312
104316
104316
104309
104294
104270
104270
104168
104168
104168
104169
104169
104169
104169
104170
104170
104171
104171
104172
104175
104188
104221
104253
104271
104271
104269
104265
104259
104256
104257
104261
104265
104265
104259
104246
104235
104233
104168
104168
104168
104168
104168
104168
104168
104169
104169
104170
104170
104171
104173
104191
104219
104250
104262
104259
104257
104254
104248
104242
104237
104234
104233
104231
104227
104223
104221
104221
104167
104167
104167
104167
104167
104167
104167
104168
104168
104169
104169
104170
104172
104190
104220
104250
104252
104249
104247
104244
104240
104235
104231
104226
104223
104220
104218
104218
104218
104219
104166
104166
104166
104166
104166
104166
104166
104167
104167
104167
104168
104169
104171
104184
104221
104242
104242
104240
104238
104236
104233
104229
104226
104223
104221
104219
104218
104217
104218
104218
104165
104165
104165
104165
104165
104165
104165
104166
104166
104166
104167
104168
104169
104179
104211
104230
104232
104232
104231
104229
104227
104224
104222
104220
104219
104217
104217
104216
104216
104217
104164
104164
104164
104164
104164
104164
104164
104164
104165
104165
104166
104166
104167
104175
104200
104220
104225
104226
104225
104224
104222
104220
104219
104218
104216
104216
104215
104215
104215
104215
104162
104162
104162
104162
104163
104163
104163
104163
104164
104164
104165
104165
104166
104173
104195
104215
104220
104221
104220
104219
104218
104217
104216
104215
104214
104214
104213
104213
104213
104214
104161
104161
104161
104161
104161
104162
104162
104162
104162
104163
104163
104164
104165
104172
104192
104211
104216
104217
104216
104216
104215
104214
104213
104213
104212
104212
104211
104211
104212
104212
104160
104160
104160
104160
104160
104160
104161
104161
104161
104162
104162
104163
104164
104170
104190
104207
104213
104214
104213
104213
104212
104211
104211
104210
104210
104210
104210
104210
104210
104210
104159
104159
104159
104159
104159
104159
104159
104160
104160
104161
104161
104162
104163
104169
104188
104205
104210
104211
104210
104210
104209
104209
104209
104208
104208
104208
104208
104208
104208
104208
104157
104157
104157
104157
104158
104158
104158
104158
104159
104159
104160
104161
104162
104168
104187
104203
104207
104208
104208
104208
104207
104207
104207
104207
104206
104206
104206
104206
104206
104206
104156
104156
104156
104156
104156
104157
104157
104157
104158
104158
104159
104159
104160
104167
104186
104201
104205
104206
104206
104205
104205
104205
104205
104205
104205
104205
104204
104204
104204
104204
104154
104154
104154
104155
104155
104155
104155
104156
104156
104157
104157
104158
104159
104166
104185
104199
104203
104204
104204
104203
104203
104203
104203
104203
104203
104203
104203
104203
104203
104203
104153
104153
104153
104153
104153
104154
104154
104154
104155
104156
104156
104157
104158
104165
104184
104198
104202
104202
104201
104201
104202
104202
104202
104202
104202
104201
104201
104201
104201
104201
104151
104152
104152
104152
104152
104152
104153
104153
104154
104154
104155
104156
104157
104165
104184
104196
104199
104200
104199
104199
104200
104200
104200
104200
104200
104200
104200
104199
104199
104199
104150
104150
104150
104150
104151
104151
104151
104152
104152
104153
104154
104155
104156
104164
104183
104195
104197
104197
104197
104197
104198
104198
104198
104198
104198
104198
104198
104198
104198
104198
104149
104149
104149
104149
104149
104149
104150
104150
104151
104151
104152
104153
104155
104163
104182
104192
104195
104195
104195
104195
104196
104196
104196
104197
104197
104196
104196
104196
104196
104196
104147
104147
104147
104147
104148
104148
104148
104149
104149
104150
104151
104152
104154
104162
104180
104190
104192
104193
104193
104193
104193
104194
104194
104195
104195
104195
104195
104195
104194
104194
104145
104146
104146
104146
104146
104146
104147
104147
104148
104148
104149
104151
104153
104162
104178
104186
104189
104190
104190
104190
104191
104191
104192
104193
104193
104193
104193
104193
104193
104193
104144
104144
104144
104144
104144
104145
104145
104145
104146
104147
104148
104149
104152
104160
104174
104183
104186
104187
104187
104188
104188
104189
104190
104190
104191
104191
104191
104191
104191
104191
104142
104142
104142
104142
104143
104143
104143
104144
104144
104145
104146
104147
104151
104159
104170
104177
104181
104184
104184
104185
104186
104186
104187
104188
104188
104189
104189
104189
104189
104189
104140
104140
104141
104141
104141
104141
104141
104142
104142
104143
104144
104145
104149
104156
104165
104172
104176
104179
104181
104182
104182
104183
104184
104185
104186
104186
104187
104187
104187
104187
104139
104139
104139
104139
104139
104139
104139
104140
104140
104141
104142
104143
104146
104153
104159
104166
104171
104175
104177
104178
104179
104180
104181
104182
104183
104183
104184
104184
104185
104185
104137
104137
104137
104137
104137
104137
104137
104138
104138
104138
104139
104141
104144
104148
104154
104159
104164
104169
104173
104174
104176
104177
104178
104179
104179
104180
104181
104181
104181
104182
104135
104135
104135
104135
104135
104135
104135
104135
104135
104136
104136
104138
104140
104144
104148
104153
104158
104163
104168
104170
104172
104173
104174
104175
104176
104176
104177
104177
104177
104178
104133
104133
104133
104133
104133
104133
104133
104133
104132
104133
104133
104134
104136
104138
104142
104146
104151
104156
104162
104165
104167
104169
104170
104171
104172
104172
104173
104173
104173
104173
104130
104130
104130
104130
104130
104130
104130
104130
104129
104129
104129
104129
104130
104132
104135
104139
104143
104149
104155
104160
104163
104164
104166
104167
104168
104168
104168
104168
104168
104168
104128
104128
104128
104128
104128
104128
104127
104126
104126
104125
104124
104124
104124
104126
104128
104131
104136
104141
104148
104153
104157
104159
104161
104162
104163
104163
104163
104163
104162
104162
104125
104125
104125
104125
104125
104125
104124
104123
104122
104120
104118
104117
104117
104118
104120
104123
104127
104133
104139
104146
104151
104154
104155
104156
104157
104157
104157
104157
104157
104157
104122
104122
104122
104122
104122
104121
104120
104119
104116
104113
104110
104108
104107
104108
104110
104113
104117
104122
104129
104136
104143
104147
104150
104151
104152
104152
104152
104151
104151
104151
104119
104119
104119
104119
104118
104117
104116
104113
104109
104104
104099
104096
104094
104095
104096
104099
104104
104110
104117
104125
104133
104139
104143
104145
104146
104146
104146
104145
104145
104145
104115
104115
104115
104115
104114
104113
104110
104105
104098
104090
104084
104079
104077
104077
104079
104082
104087
104094
104102
104111
104121
104130
104135
104138
104139
104140
104139
104139
104139
104139
104111
104111
104111
104110
104109
104106
104101
104093
104082
104071
104063
104058
104055
104054
104056
104060
104065
104073
104082
104093
104105
104117
104126
104131
104133
104133
104133
104133
104132
104132
104106
104106
104105
104104
104102
104097
104087
104073
104058
104045
104036
104030
104027
104026
104028
104032
104039
104048
104059
104071
104085
104100
104113
104121
104125
104126
104126
104126
104126
104125
104100
104100
104098
104097
104093
104083
104065
104044
104027
104013
104004
103998
103995
103994
103997
104002
104009
104019
104031
104045
104062
104079
104097
104110
104116
104119
104119
104119
104119
104119
104092
104091
104090
104087
104077
104058
104032
104009
103990
103976
103967
103961
103959
103959
103962
103968
103976
103987
104000
104016
104034
104055
104076
104095
104106
104110
104111
104112
104112
104112
104081
104080
104078
104070
104052
104022
103992
103967
103948
103935
103927
103922
103920
103921
103924
103931
103939
103951
103966
103983
104003
104026
104051
104076
104093
104101
104103
104104
104105
104104
104066
104064
104059
104044
104013
103976
103945
103922
103906
103895
103889
103884
103883
103884
103888
103895
103904
103916
103930
103948
103968
103993
104020
104051
104076
104089
104093
104095
104097
104097
104044
104041
104028
104002
103962
103925
103897
103878
103866
103859
103854
103850
103850
103851
103856
103863
103872
103884
103898
103914
103934
103957
103985
104019
104053
104072
104081
104085
104088
104089
104010
104002
103980
103945
103906
103874
103851
103835
103825
103820
103816
103814
103814
103817
103822
103829
103839
103851
103865
103882
103901
103923
103949
103982
104020
104049
104065
104072
104076
104078
103953
103942
103916
103881
103848
103821
103801
103785
103776
103773
103771
103770
103771
103775
103781
103790
103800
103813
103828
103845
103864
103886
103910
103941
103979
104016
104041
104055
104061
104064
103877
103867
103844
103815
103787
103765
103745
103731
103723
103720
103719
103720
103723
103728
103735
103744
103755
103768
103783
103801
103820
103842
103865
103893
103929
103970
104005
104027
104039
104042
103798
103790
103771
103747
103726
103707
103691
103679
103672
103666
103664
103666
103670
103676
103684
103694
103705
103719
103734
103751
103770
103791
103814
103841
103873
103912
103951
103980
103999
104005
103723
103715
103698
103680
103664
103650
103638
103629
103621
103616
103611
103611
103615
103622
103630
103640
103652
103666
103680
103697
103716
103736
103759
103785
103813
103846
103881
103910
103931
103939
103648
103640
103626
103612
103601
103592
103586
103580
103572
103565
103560
103559
103561
103568
103576
103586
103598
103611
103626
103643
103663
103684
103705
103725
103750
103777
103806
103831
103847
103853
103570
103563
103552
103544
103537
103534
103532
103529
103523
103515
103509
103507
103508
103513
103521
103531
103542
103556
103571
103591
103612
103633
103652
103669
103688
103709
103732
103753
103766
103770
103489
103484
103478
103474
103472
103472
103472
103471
103468
103462
103456
103453
103454
103458
103465
103474
103485
103499
103515
103534
103554
103572
103590
103610
103627
103643
103661
103679
103691
103694
103407
103404
103403
103403
103403
103403
103403
103403
103404
103404
103400
103399
103399
103402
103408
103415
103426
103439
103453
103468
103480
103493
103510
103532
103553
103571
103587
103604
103617
103622
103323
103324
103326
103328
103330
103329
103329
103330
103335
103340
103342
103342
103342
103344
103348
103355
103363
103374
103386
103393
103397
103404
103418
103440
103463
103484
103503
103521
103538
103545
103237
103243
103249
103253
103255
103255
103254
103256
103262
103272
103278
103281
103283
103285
103288
103293
103299
103306
103314
103317
103315
103316
103327
103346
103367
103387
103406
103425
103444
103455
103154
103163
103172
103179
103182
103181
103181
103183
103189
103201
103210
103216
103220
103223
103225
103229
103233
103238
103242
103243
103240
103241
103249
103264
103277
103290
103304
103321
103337
103349
103091
103096
103103
103110
103114
103116
103117
103120
103123
103130
103140
103147
103153
103156
103160
103163
103167
103170
103173
103175
103174
103174
103179
103188
103193
103198
103203
103214
103226
103234
103044
103042
103045
103051
103058
103062
103063
103065
103065
103065
103071
103078
103083
103088
103091
103095
103098
103101
103104
103107
103109
103108
103109
103112
103112
103109
103107
103108
103114
103119
103002
103002
103003
103006
103010
103014
103015
103013
103010
103007
103005
103009
103014
103018
103021
103024
103027
103029
103031
103033
103035
103036
103034
103032
103029
103022
103015
103006
103000
103004
102966
102968
102968
102968
102967
102967
102967
102963
102958
102953
102947
102943
102944
102946
102949
102952
102953
102953
102952
102951
102948
102951
102951
102947
102943
102935
102924
102910
102894
102889
102930
102931
102929
102925
102920
102916
102914
102911
102906
102901
102894
102886
102880
102877
102876
102877
102876
102874
102869
102861
102855
102859
102863
102862
102856
102846
102834
102819
102802
102787
102885
102882
102876
102869
102863
102859
102858
102857
102854
102850
102844
102836
102828
102820
102813
102807
102802
102796
102789
102783
102780
102779
102780
102778
102770
102759
102745
102732
102719
102707
102819
102814
102809
102804
102800
102799
102799
102801
102801
102799
102795
102789
102782
102773
102765
102756
102747
102739
102733
102730
102728
102722
102714
102705
102694
102681
102669
102662
102658
102657
102740
102740
102737
102736
102737
102739
102742
102745
102747
102747
102746
102743
102738
102732
102724
102716
102708
102701
102695
102691
102685
102677
102666
102652
102639
102629
102625
102623
102622
102623
102667
102668
102669
102673
102678
102682
102685
102688
102691
102692
102693
102693
102692
102689
102684
102678
102672
102667
102661
102655
102648
102640
102628
102616
102605
102599
102596
102595
102594
102594
102607
102607
102612
102618
102623
102626
102628
102630
102632
102634
102636
102638
102639
102640
102639
102637
102634
102631
102626
102621
102614
102605
102596
102586
102578
102574
102571
102569
102568
102567
102556
102557
102562
102566
102568
102568
102569
102571
102573
102575
102577
102579
102581
102583
102585
102586
102587
102587
102585
102582
102577
102570
102563
102556
102552
102548
102546
102544
102543
102540
102507
102511
102513
102512
102510
102508
102509
102510
102512
102514
102516
102518
102521
102523
102525
102528
102530
102532
102534
102533
102531
102528
102525
102522
102521
102520
102519
102518
102517
102514
102459
102460
102457
102451
102448
102447
102448
102450
102453
102455
102457
102458
102460
102462
102464
102466
102469
102471
102474
102476
102477
102477
102478
102480
102482
102485
102486
102487
102487
102486
102403
102399
102393
102387
102385
102386
102388
102391
102393
102396
102397
102398
102400
102401
102402
102404
102406
102409
102412
102415
102418
102420
102424
102428
102433
102438
102442
102445
102448
102450
102334
102329
102325
102323
102323
102325
102328
102332
102335
102337
102338
102338
102339
102339
102340
102342
102344
102346
102349
102352
102356
102360
102365
102370
102375
102381
102385
102389
102393
102398
102259
102259
102259
102260
102261
102265
102269
102273
102275
102277
102277
102277
102277
102277
102277
102278
102280
102282
102285
102288
102292
102297
102302
102307
102311
102315
102318
102320
102323
102327
102185
102190
102193
102196
102200
102206
102210
102213
102215
102215
102215
102215
102214
102214
102214
102214
102215
102217
102219
102222
102225
102230
102235
102239
102243
102246
102246
102246
102246
102247
102118
102125
102129
102133
102140
102146
102149
102150
102151
102151
102150
102150
102149
102149
102149
102149
102150
102151
102152
102154
102157
102160
102164
102168
102171
102173
102172
102170
102166
102164
102058
102060
102067
102074
102081
102083
102083
102083
102083
102083
102083
102083
102083
102083
102083
102083
102083
102084
102085
102086
102087
102089
102092
102095
102098
102099
102097
102093
102087
102079
102001
102001
102009
102015
102016
102014
102013
102012
102012
102013
102014
102015
102015
102016
102016
102016
102016
102016
102017
102016
102016
102017
102019
102022
102024
102025
102023
102018
102009
101998
101946
101950
101952
101951
101946
101942
101940
101940
101941
101942
101944
101946
101947
101948
101949
101949
101949
101949
101948
101947
101946
101945
101945
101948
101950
101952
101951
101945
101935
101931
101892
101895
101889
101879
101872
101868
101866
101867
101869
101872
101874
101876
101878
101880
101881
101881
101881
101881
101880
101879
101877
101876
101876
101878
101880
101881
101881
101877
101871
101873
101831
101826
101813
101802
101795
101792
101792
101795
101798
101801
101804
101807
101809
101811
101812
101813
101813
101813
101813
101811
101811
101812
101814
101816
101818
101819
101820
101819
101819
101819
101750
101740
101730
101721
101716
101716
101719
101723
101727
101731
101734
101738
101740
101742
101744
101745
101746
101746
101746
101746
101749
101752
101755
101757
101759
101762
101766
101770
101773
101771
101654
101649
101642
101637
101637
101641
101645
101651
101656
101660
101664
101668
101671
101673
101675
101677
101679
101680
101682
101685
101689
101693
101696
101698
101701
101704
101709
101717
101723
101723
101557
101555
101552
101553
101559
101566
101573
101579
101585
101590
101594
101598
101601
101604
101607
101609
101612
101615
101618
101623
101628
101631
101633
101635
101637
101640
101645
101650
101659
101664
101461
101460
101464
101473
101482
101492
101501
101508
101514
101519
101523
101527
101531
101535
101538
101542
101545
101550
101555
101560
101563
101565
101566
101567
101568
101570
101572
101576
101581
101587
101360
101366
101380
101395
101407
101419
101429
101437
101443
101448
101452
101457
101461
101465
101469
101474
101479
101483
101488
101492
101494
101495
101495
101496
101496
101496
101496
101497
101499
101502
101250
101274
101298
101318
101335
101349
101359
101366
101372
101377
101382
101386
101391
101395
101401
101406
101410
101415
101419
101421
101422
101423
101423
101423
101422
101420
101418
101416
101415
101416
101164
101189
101222
101246
101266
101280
101290
101297
101302
101307
101311
101316
101320
101326
101331
101336
101341
101345
101347
101349
101350
101350
101350
101349
101347
101344
101339
101335
101329
101328
101123
101129
101155
101183
101202
101215
101224
101229
101233
101237
101241
101245
101250
101255
101261
101266
101270
101272
101274
101276
101277
101277
101277
101275
101273
101268
101261
101252
101241
101234
101098
101097
101106
101126
101144
101154
101160
101163
101164
101167
101171
101175
101179
101184
101189
101193
101197
101199
101201
101202
101203
101204
101203
101202
101199
101194
101184
101170
101153
101134
101075
101075
101077
101085
101094
101098
101098
101096
101096
101097
101100
101104
101108
101112
101116
101120
101122
101125
101126
101128
101129
101130
101131
101130
101128
101123
101113
101097
101074
101054
101055
101056
101055
101053
101053
101048
101040
101034
101030
101029
101030
101032
101034
101038
101041
101044
101047
101049
101051
101053
101055
101057
101059
101060
101060
101057
101048
101032
101012
101007
101035
101036
101033
101025
101014
101004
100993
100982
100973
100966
100961
100960
100960
100962
100965
100968
100971
100973
100976
100978
100980
100982
100986
100991
100996
100997
100991
100979
100972
100973
101011
101009
101003
100991
100977
100963
100950
100938
100926
100914
100903
100894
100889
100887
100888
100891
100894
100898
100900
100902
100905
100909
100916
100925
100934
100942
100944
100943
100944
100943
100973
100968
100956
100943
100930
100918
100906
100895
100883
100869
100855
100841
100830
100823
100819
100818
100821
100825
100828
100831
100835
100843
100853
100867
100881
100894
100905
100914
100919
100918
100913
100905
100891
100878
100868
100859
100852
100845
100837
100825
100812
100798
100785
100775
100769
100765
100764
100765
100770
100776
100784
100794
100806
100821
100836
100852
100867
100881
100889
100890
100833
100824
100812
100802
100795
100790
100786
100784
100781
100776
100768
100757
100745
100735
100728
100724
100722
100724
100728
100736
100745
100756
100768
100781
100794
100806
100819
100832
100845
100850
100742
100735
100728
100722
100718
100716
100715
100715
100717
100718
100717
100712
100705
100696
100689
100686
100685
100688
100693
100701
100710
100720
100730
100738
100743
100748
100755
100765
100778
100787
100648
100645
100641
100639
100639
100640
100642
100645
100649
100654
100658
100660
100659
100655
100650
100648
100648
100652
100657
100664
100672
100678
100682
100681
100679
100678
100681
100687
100695
100703
100554
100554
100553
100555
100559
100563
100568
100574
100579
100586
100592
100599
100605
100607
100607
100607
100609
100612
100616
100621
100624
100624
100620
100613
100607
100604
100603
100605
100610
100614
100455
100458
100464
100472
100480
100488
100495
100502
100509
100516
100524
100532
100540
100549
100555
100558
100560
100562
100563
100563
100561
100556
100548
100540
100533
100528
100524
100521
100522
100524
100336
100358
100377
100392
100404
100414
100423
100431
100438
100445
100453
100461
100470
100479
100488
100493
100496
100496
100495
100492
100488
100482
100474
100466
100459
100451
100444
100436
100429
100430
100252
100271
100297
100317
100331
100343
100352
100361
100368
100374
100381
100388
100396
100404
100412
100417
100420
100420
100418
100416
100412
100407
100400