/*--------------------------------*- C++ -*----------------------------------*\
| =========                 |                                                 |
| \\      /  F ield         | OpenFOAM: The Open Source CFD Toolbox           |
|  \\    /   O peration     | Version:  v1606+                                |
|   \\  /    A nd           | Web:      www.OpenFOAM.com                      |
|    \\/     M anipulation  |                                                 |
\*---------------------------------------------------------------------------*/
FoamFile
{
    version     2.0;
    format      ascii;
    class       volVectorField;
    location    "0.79";
    object      U.airMean;
}
// * * * * * * * * * * * * * * * * * * * * * * * * * * * * * * * * * * * * * //

dimensions      [0 1 -1 0 0 0 0];

internalField   nonuniform List<vector> 
6000
(
(-0.019189 0.269921 0)
(-0.00453607 0.234475 0)
(0.00818119 0.24582 0)
(0.0187875 0.249189 0)
(0.0243503 0.248804 0)
(0.0245642 0.246409 0)
(0.0221029 0.244761 0)
(0.0180395 0.24176 0)
(0.0133093 0.239833 0)
(0.00904262 0.236108 0)
(0.00547584 0.230762 0)
(0.00331645 0.227356 0)
(0.00130326 0.227366 0)
(0.000338692 0.225102 0)
(0.000294966 0.225952 0)
(0.000305588 0.225527 0)
(-0.000156547 0.22595 0)
(-0.00204092 0.226875 0)
(-0.00363178 0.226478 0)
(-0.00652253 0.231489 0)
(-0.0101385 0.236269 0)
(-0.0143521 0.240278 0)
(-0.0190886 0.2429 0)
(-0.0229219 0.245546 0)
(-0.0253602 0.247129 0)
(-0.0247807 0.250114 0)
(-0.0186207 0.249934 0)
(-0.00763273 0.245781 0)
(0.00505344 0.234785 0)
(0.0196657 0.270587 0)
(0.00949943 0.99692 0)
(0.00210149 0.982082 0)
(0.018108 0.983172 0)
(0.0288705 0.983469 0)
(0.0404716 0.994377 0)
(0.0443247 1.00285 0)
(0.0400176 1.00777 0)
(0.029851 1.01103 0)
(0.0198874 1.01006 0)
(0.0134093 1.0087 0)
(0.00770895 1.01022 0)
(0.00255822 1.01063 0)
(-0.000558929 1.01026 0)
(-0.00141342 1.00931 0)
(0.000431478 1.00786 0)
(0.00250934 1.00814 0)
(0.0022151 1.01084 0)
(-0.000231132 1.01083 0)
(-0.00433128 1.01162 0)
(-0.00967386 1.01027 0)
(-0.0150288 1.00882 0)
(-0.0222054 1.00993 0)
(-0.0324841 1.01009 0)
(-0.0419142 1.00683 0)
(-0.0453603 1.00207 0)
(-0.0404654 0.992382 0)
(-0.0280497 0.982167 0)
(-0.0168959 0.982997 0)
(-0.00163452 0.982447 0)
(-0.00936517 0.997369 0)
(-0.0106255 0.821229 0)
(-0.00137424 0.760603 0)
(0.0225053 0.769687 0)
(0.034128 0.770459 0)
(0.0479661 0.783427 0)
(0.0552905 0.799581 0)
(0.0533801 0.816207 0)
(0.0418528 0.82239 0)
(0.0287817 0.819839 0)
(0.0179725 0.812967 0)
(0.0107554 0.808049 0)
(0.00702286 0.804783 0)
(0.00364617 0.802003 0)
(0.00158556 0.796676 0)
(0.00272073 0.794604 0)
(0.00321065 0.796911 0)
(0.000680099 0.801146 0)
(-0.00398293 0.804427 0)
(-0.00823793 0.805625 0)
(-0.011892 0.808685 0)
(-0.0193575 0.813515 0)
(-0.0301795 0.820429 0)
(-0.0433089 0.822022 0)
(-0.0540019 0.814344 0)
(-0.0545432 0.797904 0)
(-0.0466398 0.781625 0)
(-0.0326599 0.769127 0)
(-0.0208722 0.768812 0)
(0.00277651 0.761572 0)
(0.0112851 0.822682 0)
(0.00976147 0.855233 0)
(0.0184819 0.788367 0)
(0.0299753 0.799754 0)
(0.0410714 0.799751 0)
(0.0543484 0.814507 0)
(0.0632799 0.833641 0)
(0.0674384 0.857492 0)
(0.0609059 0.872418 0)
(0.0458184 0.875378 0)
(0.0307128 0.868239 0)
(0.0204129 0.863031 0)
(0.0121245 0.859787 0)
(0.0034472 0.856508 0)
(0.000479554 0.848345 0)
(0.0031467 0.84346 0)
(0.00592994 0.847977 0)
(0.004095 0.856025 0)
(-0.0031105 0.860522 0)
(-0.0132903 0.860934 0)
(-0.0214856 0.86266 0)
(-0.031173 0.868347 0)
(-0.0461397 0.875014 0)
(-0.0604618 0.870992 0)
(-0.066321 0.854673 0)
(-0.0616213 0.831515 0)
(-0.0523273 0.812413 0)
(-0.0389391 0.798713 0)
(-0.0280715 0.799716 0)
(-0.0169381 0.790084 0)
(-0.0089115 0.857516 0)
(0.0138451 0.818045 0)
(0.0144067 0.763563 0)
(0.0232244 0.769549 0)
(0.0396971 0.764205 0)
(0.0592814 0.779661 0)
(0.0733143 0.801984 0)
(0.0825838 0.832901 0)
(0.0825914 0.86029 0)
(0.0685887 0.873522 0)
(0.0485425 0.865906 0)
(0.0345111 0.857918 0)
(0.0202959 0.858945 0)
(0.00379026 0.85067 0)
(-0.0024174 0.832635 0)
(0.00321978 0.823079 0)
(0.0101424 0.830482 0)
(0.00960649 0.846325 0)
(-0.00287935 0.858633 0)
(-0.0217022 0.861068 0)
(-0.0354563 0.856634 0)
(-0.0483148 0.865545 0)
(-0.0678722 0.872425 0)
(-0.0810493 0.858042 0)
(-0.0807789 0.829754 0)
(-0.0716712 0.799505 0)
(-0.0574413 0.777339 0)
(-0.0379618 0.763151 0)
(-0.0218558 0.76976 0)
(-0.0132136 0.76549 0)
(-0.0129712 0.821729 0)
(0.00271155 0.80457 0)
(-0.00803448 0.759674 0)
(-0.00145491 0.746236 0)
(0.0172045 0.733844 0)
(0.0446634 0.748119 0)
(0.0738488 0.774651 0)
(0.0952394 0.809637 0)
(0.10535 0.847372 0)
(0.0977921 0.876518 0)
(0.0772561 0.876346 0)
(0.0579879 0.867256 0)
(0.0363092 0.876207 0)
(0.00966973 0.865613 0)
(-0.00390473 0.832251 0)
(0.00237028 0.813504 0)
(0.0134992 0.824915 0)
(0.0121511 0.853631 0)
(-0.0098549 0.878342 0)
(-0.0385829 0.879141 0)
(-0.0584214 0.864613 0)
(-0.0757038 0.874878 0)
(-0.0952543 0.874749 0)
(-0.102892 0.8449 0)
(-0.0929862 0.807121 0)
(-0.0717233 0.772454 0)
(-0.0428866 0.746189 0)
(-0.0163297 0.733286 0)
(0.0016837 0.746821 0)
(0.0087991 0.761053 0)
(-0.00291571 0.809013 0)
(-0.00778338 0.81978 0)
(-0.0272578 0.762045 0)
(-0.0344418 0.733894 0)
(-0.027699 0.704924 0)
(0.00353748 0.702324 0)
(0.0535462 0.727165 0)
(0.0945691 0.772229 0)
(0.119046 0.823773 0)
(0.12087 0.8699 0)
(0.107021 0.881596 0)
(0.0842894 0.874697 0)
(0.0543737 0.891465 0)
(0.017051 0.880988 0)
(-0.0043042 0.826412 0)
(-0.000285548 0.793485 0)
(0.0144777 0.809206 0)
(0.0106407 0.856432 0)
(-0.019559 0.899299 0)
(-0.0580021 0.893318 0)
(-0.0839599 0.87019 0)
(-0.103149 0.878373 0)
(-0.116061 0.868553 0)
(-0.115407 0.822063 0)
(-0.0912434 0.769997 0)
(-0.0501916 0.725418 0)
(-0.00164679 0.701872 0)
(0.0279612 0.705604 0)
(0.0338149 0.735108 0)
(0.0268861 0.763838 0)
(0.00728591 0.824333 0)
(-0.00580604 0.841394 0)
(-0.0354518 0.786097 0)
(-0.0608665 0.742035 0)
(-0.0662365 0.68905 0)
(-0.0380465 0.655882 0)
(0.0186488 0.670171 0)
(0.0756317 0.729459 0)
(0.113703 0.798064 0)
(0.129463 0.861196 0)
(0.126358 0.886401 0)
(0.104658 0.890569 0)
(0.0678445 0.913911 0)
(0.0239203 0.901049 0)
(-0.00352501 0.826159 0)
(-0.00312996 0.773483 0)
(0.00892676 0.79308 0)
(0.00448737 0.862433 0)
(-0.0290332 0.92166 0)
(-0.0728109 0.914169 0)
(-0.103625 0.882407 0)
(-0.120109 0.881269 0)
(-0.123113 0.861288 0)
(-0.109275 0.797777 0)
(-0.0715511 0.727151 0)
(-0.0150606 0.669879 0)
(0.0395242 0.657182 0)
(0.0656616 0.690946 0)
(0.0586809 0.743737 0)
(0.0332207 0.787488 0)
(0.00399259 0.845751 0)
(-0.00878197 0.865355 0)
(-0.0422362 0.818769 0)
(-0.0776714 0.755385 0)
(-0.0896318 0.673624 0)
(-0.0684404 0.613147 0)
(-0.0200731 0.608408 0)
(0.0386106 0.674977 0)
(0.0894798 0.762043 0)
(0.121975 0.841721 0)
(0.129302 0.886833 0)
(0.109168 0.910938 0)
(0.071612 0.943892 0)
(0.0268656 0.920311 0)
(-0.0011072 0.832331 0)
(-0.00432356 0.760228 0)
(-0.00378541 0.782207 0)
(-0.00771987 0.867617 0)
(-0.0349503 0.941937 0)
(-0.0756495 0.941179 0)
(-0.10661 0.896858 0)
(-0.121856 0.880398 0)
(-0.115835 0.84396 0)
(-0.0854903 0.762998 0)
(-0.0353886 0.672711 0)
(0.0220341 0.609679 0)
(0.0683969 0.616315 0)
(0.088025 0.676952 0)
(0.0740482 0.758275 0)
(0.0377714 0.820544 0)
(0.00651785 0.866373 0)
(-0.0125778 0.893579 0)
(-0.0500737 0.848801 0)
(-0.0853291 0.771333 0)
(-0.100619 0.661352 0)
(-0.0886003 0.580997 0)
(-0.0540616 0.561211 0)
(-0.0028285 0.620871 0)
(0.0535527 0.713636 0)
(0.0960815 0.81264 0)
(0.112203 0.885631 0)
(0.0936763 0.924829 0)
(0.0639276 0.973105 0)
(0.0253697 0.936139 0)
(0.000791053 0.836214 0)
(-0.0046717 0.756046 0)
(-0.0148526 0.779958 0)
(-0.0191843 0.864708 0)
(-0.0362495 0.951093 0)
(-0.0622822 0.965279 0)
(-0.0870893 0.905301 0)
(-0.103726 0.879784 0)
(-0.0913906 0.817919 0)
(-0.0522867 0.715775 0)
(0.00347209 0.619338 0)
(0.0552879 0.564834 0)
(0.0886346 0.58503 0)
(0.0991156 0.665861 0)
(0.0815698 0.775318 0)
(0.045513 0.850127 0)
(0.0106872 0.892407 0)
(-0.0146369 0.917253 0)
(-0.0515222 0.872985 0)
(-0.0865793 0.786336 0)
(-0.105753 0.651641 0)
(-0.104284 0.556522 0)
(-0.0817289 0.520009 0)
(-0.0403991 0.571766 0)
(0.0169253 0.663014 0)
(0.0597779 0.775773 0)
(0.0791528 0.883957 0)
(0.0646751 0.936009 0)
(0.0415629 0.994227 0)
(0.0190476 0.950366 0)
(-0.00137184 0.839526 0)
(-0.00548417 0.76007 0)
(-0.0190165 0.784221 0)
(-0.0203483 0.860521 0)
(-0.0286675 0.949424 0)
(-0.0313317 0.980309 0)
(-0.0508142 0.914263 0)
(-0.0681825 0.881523 0)
(-0.058046 0.787011 0)
(-0.0181878 0.666872 0)
(0.0395334 0.568305 0)
(0.0817225 0.522304 0)
(0.103592 0.560932 0)
(0.103537 0.657715 0)
(0.0826542 0.792255 0)
(0.0470384 0.873376 0)
(0.0130498 0.913042 0)
(-0.0140155 0.941408 0)
(-0.0483849 0.895404 0)
(-0.0816168 0.803523 0)
(-0.103357 0.648363 0)
(-0.110156 0.539544 0)
(-0.0958394 0.489874 0)
(-0.0644857 0.523441 0)
(-0.0165174 0.617703 0)
(0.0226334 0.742753 0)
(0.0373079 0.879486 0)
(0.0286324 0.946353 0)
(0.0132991 1.00325 0)
(0.00704882 0.960661 0)
(-0.00554499 0.840739 0)
(-0.00565151 0.766452 0)
(-0.0155299 0.78697 0)
(-0.0114453 0.855916 0)
(-0.00971069 0.939607 0)
(0.00741961 0.979757 0)
(-0.00613471 0.9266 0)
(-0.0245358 0.884942 0)
(-0.0221143 0.762361 0)
(0.0145073 0.620486 0)
(0.0640223 0.519312 0)
(0.0957011 0.493282 0)
(0.108573 0.544684 0)
(0.100182 0.656234 0)
(0.0768287 0.809241 0)
(0.0445314 0.894771 0)
(0.0124058 0.934439 0)
(-0.01259 0.962478 0)
(-0.0419112 0.913255 0)
(-0.0700029 0.817527 0)
(-0.0938448 0.648117 0)
(-0.106051 0.527514 0)
(-0.0997536 0.467076 0)
(-0.0770914 0.488398 0)
(-0.0425604 0.580842 0)
(-0.0139497 0.718019 0)
(-0.00369119 0.875994 0)
(-0.00727843 0.954919 0)
(-0.0133699 0.999262 0)
(-0.0051513 0.964385 0)
(-0.00596493 0.841353 0)
(-0.00599148 0.771389 0)
(-0.00864141 0.785753 0)
(-0.0010236 0.84897 0)
(0.0168908 0.919454 0)
(0.0433873 0.970672 0)
(0.034764 0.943239 0)
(0.0172644 0.892498 0)
(0.0163918 0.745436 0)
(0.0434808 0.580762 0)
(0.0786032 0.483629 0)
(0.0995465 0.472396 0)
(0.102964 0.534024 0)
(0.0890384 0.658368 0)
(0.0642832 0.823747 0)
(0.0380671 0.911247 0)
(0.0111918 0.953252 0)
(-0.00898215 0.980253 0)
(-0.0321756 0.924881 0)
(-0.0528235 0.83015 0)
(-0.078343 0.652891 0)
(-0.0970411 0.520071 0)
(-0.0995829 0.451489 0)
(-0.0851013 0.462102 0)
(-0.0616367 0.553865 0)
(-0.0455298 0.702844 0)
(-0.0391097 0.869282 0)
(-0.037653 0.957904 0)
(-0.0305476 0.985613 0)
(-0.00997241 0.952276 0)
(0.00169902 0.841321 0)
(-0.004392 0.775109 0)
(-0.0030564 0.782026 0)
(0.00901181 0.838488 0)
(0.0445567 0.88955 0)
(0.0712953 0.959077 0)
(0.0674863 0.957802 0)
(0.0551833 0.896292 0)
(0.0539007 0.736253 0)
(0.0704471 0.552676 0)
(0.0890589 0.460369 0)
(0.0982161 0.460767 0)
(0.0912141 0.529659 0)
(0.0710631 0.665587 0)
(0.0461688 0.834871 0)
(0.028217 0.920849 0)
(0.00784179 0.968925 0)
(-0.00410294 0.987549 0)
(-0.0206339 0.930302 0)
(-0.0300549 0.83785 0)
(-0.0569651 0.665674 0)
(-0.086691 0.522043 0)
(-0.101861 0.443038 0)
(-0.096981 0.442554 0)
(-0.0830899 0.535674 0)
(-0.0741917 0.696442 0)
(-0.0667477 0.86025 0)
(-0.0573617 0.954361 0)
(-0.0362213 0.963023 0)
(-0.00126843 0.925785 0)
(0.0228205 0.846542 0)
(0.00427434 0.782884 0)
(0.00320766 0.780732 0)
(0.0192979 0.823249 0)
(0.0649007 0.856417 0)
(0.0854544 0.951629 0)
(0.0886002 0.969268 0)
(0.0833747 0.897173 0)
(0.0869403 0.734078 0)
(0.0945374 0.537443 0)
(0.0970505 0.450155 0)
(0.0958637 0.457665 0)
(0.0778837 0.532138 0)
(0.0506552 0.676694 0)
(0.0258775 0.839615 0)
(0.0185618 0.92445 0)
(0.00391289 0.974779 0)
(-0.000146149 0.991079 0)
(-0.0102387 0.928656 0)
(-0.00646555 0.837602 0)
(-0.0309911 0.68411 0)
(-0.0654575 0.534155 0)
(-0.0975061 0.448087 0)
(-0.11294 0.433866 0)
(-0.11203 0.523829 0)
(-0.101224 0.690189 0)
(-0.0828167 0.843895 0)
(-0.0605847 0.939428 0)
(-0.0353303 0.935815 0)
(0.00769539 0.890428 0)
(0.0417299 0.850064 0)
(0.0312129 0.804404 0)
(0.0176333 0.779335 0)
(0.0370306 0.80177 0)
(0.0737687 0.83264 0)
(0.0870952 0.946689 0)
(0.0909026 0.97297 0)
(0.0968283 0.890931 0)
(0.113136 0.731761 0)
(0.115462 0.535302 0)
(0.104053 0.448233 0)
(0.0913956 0.459853 0)
(0.0643712 0.540575 0)
(0.0339472 0.692767 0)
(0.0113034 0.839254 0)
(0.014501 0.924807 0)
(0.0031068 0.980669 0)
(0.00140487 0.990744 0)
(-0.00307584 0.92322 0)
(0.00842073 0.832407 0)
(-0.0075051 0.705564 0)
(-0.0436619 0.555584 0)
(-0.0842018 0.466998 0)
(-0.11831 0.443726 0)
(-0.139022 0.518457 0)
(-0.1242 0.675563 0)
(-0.088856 0.81762 0)
(-0.051172 0.917258 0)
(-0.0275745 0.917627 0)
(0.0107298 0.849356 0)
(0.0425777 0.848874 0)
(0.054622 0.823535 0)
(0.0417782 0.798583 0)
(0.0537558 0.796499 0)
(0.0692472 0.82388 0)
(0.0755133 0.952886 0)
(0.0785208 0.971325 0)
(0.100569 0.875406 0)
(0.132154 0.723511 0)
(0.134349 0.543257 0)
(0.112717 0.458477 0)
(0.0859002 0.468517 0)
(0.0508697 0.555787 0)
(0.0151834 0.710464 0)
(-6.54732e-05 0.836443 0)
(0.00944048 0.922422 0)
(0.00222096 0.989599 0)
(0.000429793 0.991907 0)
(0.00150414 0.914466 0)
(0.0185823 0.827551 0)
(0.0165356 0.719004 0)
(-0.015769 0.57995 0)
(-0.0643244 0.492359 0)
(-0.12119 0.473641 0)
(-0.152146 0.523849 0)
(-0.141285 0.65323 0)
(-0.0919069 0.779989 0)
(-0.037617 0.886768 0)
(-0.00671872 0.903992 0)
(0.01362 0.82985 0)
(0.0370665 0.83365 0)
(0.0655512 0.827911 0)
(0.0645645 0.808307 0)
(0.0753524 0.80006 0)
(0.0698397 0.833665 0)
(0.0556309 0.962764 0)
(0.0677629 0.960975 0)
(0.106203 0.848177 0)
(0.149429 0.707483 0)
(0.157929 0.55598 0)
(0.126443 0.482068 0)
(0.0767468 0.48945 0)
(0.0247948 0.585463 0)
(-0.0107517 0.727317 0)
(-0.0115732 0.835091 0)
(0.00516642 0.917237 0)
(0.00179418 0.995656 0)
(0.00182379 0.993666 0)
(0.00881811 0.902048 0)
(0.0277091 0.820564 0)
(0.0360263 0.727802 0)
(0.00509663 0.614523 0)
(-0.0461039 0.537834 0)
(-0.113924 0.50856 0)
(-0.154652 0.53676 0)
(-0.145527 0.630742 0)
(-0.0942547 0.737374 0)
(-0.0266602 0.845802 0)
(0.0209732 0.886514 0)
(0.0315343 0.825473 0)
(0.0449932 0.809798 0)
(0.0718868 0.826194 0)
(0.0824857 0.811915 0)
(0.0891503 0.799086 0)
(0.063387 0.865022 0)
(0.0353915 0.968562 0)
(0.065779 0.937341 0)
(0.118995 0.814359 0)
(0.169075 0.68341 0)
(0.181631 0.566758 0)
(0.130536 0.522272 0)
(0.0534595 0.538487 0)
(-0.00355517 0.627144 0)
(-0.0325266 0.737287 0)
(-0.0229889 0.82557 0)
(-0.00322954 0.906059 0)
(-0.00161005 1.00275 0)
(0.0100335 0.985794 0)
(0.0247553 0.888255 0)
(0.0352421 0.806506 0)
(0.0279534 0.734209 0)
(-0.00707205 0.650734 0)
(-0.0654009 0.578238 0)
(-0.129677 0.547818 0)
(-0.16887 0.545813 0)
(-0.150177 0.597494 0)
(-0.0947032 0.690152 0)
(-0.0233808 0.793056 0)
(0.0372505 0.857473 0)
(0.0601949 0.820719 0)
(0.0636888 0.794514 0)
(0.0830804 0.817347 0)
(0.0991729 0.808982 0)
(0.0959819 0.813288 0)
(0.0550037 0.902772 0)
(0.0374669 0.965981 0)
(0.0792582 0.901815 0)
(0.138725 0.774027 0)
(0.195153 0.648883 0)
(0.200423 0.580804 0)
(0.139815 0.582321 0)
(0.057111 0.592226 0)
(-0.00349213 0.657099 0)
(-0.0289398 0.737724 0)
(-0.0348833 0.808382 0)
(-0.0239443 0.892473 0)
(-0.012536 0.99526 0)
(0.0166277 0.962869 0)
(0.035166 0.870512 0)
(0.0298207 0.803552 0)
(-0.00549398 0.747896 0)
(-0.0565507 0.682308 0)
(-0.120479 0.628321 0)
(-0.180543 0.579055 0)
(-0.204459 0.543279 0)
(-0.177042 0.557539 0)
(-0.116978 0.635313 0)
(-0.0414378 0.740424 0)
(0.031552 0.81407 0)
(0.0770964 0.807469 0)
(0.0888629 0.782495 0)
(0.100748 0.799558 0)
(0.108115 0.801092 0)
(0.0938935 0.831155 0)
(0.0608839 0.929597 0)
(0.0658114 0.948363 0)
(0.117022 0.862334 0)
(0.183473 0.724871 0)
(0.220877 0.618709 0)
(0.214405 0.604828 0)
(0.161582 0.632064 0)
(0.0934144 0.650496 0)
(0.0318492 0.686871 0)
(-0.00856882 0.749441 0)
(-0.038853 0.807586 0)
(-0.042177 0.869044 0)
(-0.020759 0.96204 0)
(0.0135604 0.920228 0)
(0.0143696 0.849676 0)
(-0.0146588 0.822411 0)
(-0.0603584 0.790702 0)
(-0.114709 0.736077 0)
(-0.16982 0.680623 0)
(-0.209988 0.60152 0)
(-0.230483 0.5247 0)
(-0.209104 0.507574 0)
(-0.14747 0.573718 0)
(-0.0670017 0.677576 0)
(0.0145814 0.763646 0)
(0.0796197 0.775114 0)
(0.106451 0.768828 0)
(0.115537 0.784618 0)
(0.109054 0.798445 0)
(0.087624 0.8493 0)
(0.0706617 0.933255 0)
(0.0966129 0.923565 0)
(0.155936 0.814402 0)
(0.211392 0.68603 0)
(0.227308 0.607839 0)
(0.212253 0.615802 0)
(0.176763 0.657749 0)
(0.139979 0.690507 0)
(0.0925507 0.730648 0)
(0.0432209 0.783164 0)
(0.00402883 0.824257 0)
(-0.0190956 0.8466 0)
(-0.0173366 0.912609 0)
(0.00287398 0.912242 0)
(-0.0282022 0.876111 0)
(-0.069909 0.8521 0)
(-0.107702 0.813787 0)
(-0.146812 0.764762 0)
(-0.177394 0.706838 0)
(-0.20498 0.626481 0)
(-0.228898 0.529862 0)
(-0.229213 0.47122 0)
(-0.180305 0.512435 0)
(-0.0950305 0.612047 0)
(-0.00662606 0.705148 0)
(0.0673643 0.73775 0)
(0.105216 0.752884 0)
(0.115334 0.781252 0)
(0.101395 0.810043 0)
(0.0761681 0.862809 0)
(0.0753707 0.92561 0)
(0.119613 0.888306 0)
(0.179 0.769925 0)
(0.216863 0.661229 0)
(0.221401 0.606393 0)
(0.199352 0.625564 0)
(0.175392 0.66861 0)
(0.158736 0.706112 0)
(0.131839 0.753485 0)
(0.094587 0.800085 0)
(0.0629461 0.841277 0)
(0.0268378 0.868783 0)
(-0.00331953 0.902701 0)
(-0.0131488 0.919936 0)
(-0.0578376 0.899481 0)
(-0.0942476 0.869486 0)
(-0.123385 0.835284 0)
(-0.146786 0.787102 0)
(-0.161146 0.722987 0)
(-0.180091 0.647634 0)
(-0.207162 0.550408 0)
(-0.224629 0.466768 0)
(-0.202821 0.462407 0)
(-0.132096 0.54794 0)
(-0.0344474 0.648973 0)
(0.0402973 0.701193 0)
(0.0840998 0.733785 0)
(0.0993705 0.78016 0)
(0.0850018 0.826079 0)
(0.0639641 0.874239 0)
(0.0804854 0.905337 0)
(0.137736 0.845747 0)
(0.191771 0.740741 0)
(0.216757 0.649135 0)
(0.209725 0.61217 0)
(0.181425 0.635959 0)
(0.162558 0.671943 0)
(0.152064 0.712647 0)
(0.137232 0.769304 0)
(0.113915 0.816202 0)
(0.0879604 0.853253 0)
(0.0534398 0.889296 0)
(0.0145268 0.907151 0)
(-0.0203332 0.949101 0)
(-0.0580281 0.938448 0)
(-0.0958405 0.896538 0)
(-0.114632 0.854671 0)
(-0.123236 0.798555 0)
(-0.131781 0.734045 0)
(-0.148678 0.66571 0)
(-0.177946 0.573096 0)
(-0.208256 0.48239 0)
(-0.206737 0.446785 0)
(-0.163725 0.49029 0)
(-0.0833178 0.580305 0)
(-0.00362518 0.659916 0)
(0.0479908 0.707845 0)
(0.0707546 0.778079 0)
(0.0612554 0.84102 0)
(0.0538974 0.87494 0)
(0.0895789 0.872875 0)
(0.150169 0.805889 0)
(0.197039 0.718614 0)
(0.212747 0.643278 0)
(0.196014 0.623874 0)
(0.162558 0.646927 0)
(0.143939 0.673535 0)
(0.133234 0.714369 0)
(0.12167 0.774165 0)
(0.11048 0.828346 0)
(0.0922055 0.872451 0)
(0.0559107 0.922844 0)
(0.0217142 0.934889 0)
(-0.0228661 0.985695 0)
(-0.0550123 0.974718 0)
(-0.080502 0.915157 0)
(-0.0819559 0.860733 0)
(-0.0831546 0.800503 0)
(-0.096381 0.745114 0)
(-0.118091 0.6823 0)
(-0.149401 0.594441 0)
(-0.1853 0.497124 0)
(-0.2002 0.442351 0)
(-0.177143 0.465125 0)
(-0.12482 0.528893 0)
(-0.0537894 0.607768 0)
(0.00786052 0.672004 0)
(0.0351703 0.769701 0)
(0.0381064 0.846107 0)
(0.0516128 0.859292 0)
(0.0987415 0.830329 0)
(0.15956 0.768885 0)
(0.199836 0.698281 0)
(0.209614 0.641631 0)
(0.182624 0.639968 0)
(0.142215 0.659567 0)
(0.121396 0.674591 0)
(0.108385 0.719249 0)
(0.0965121 0.775368 0)
(0.0915292 0.832087 0)
(0.0864172 0.887527 0)
(0.0566107 0.954497 0)
(0.0245684 0.967265 0)
(-0.0269459 1.01965 0)
(-0.0429331 0.994532 0)
(-0.0469179 0.915042 0)
(-0.0370713 0.852692 0)
(-0.0415662 0.802862 0)
(-0.0603605 0.75482 0)
(-0.0892736 0.696861 0)
(-0.124667 0.612501 0)
(-0.164016 0.512844 0)
(-0.190445 0.440516 0)
(-0.183029 0.440735 0)
(-0.146021 0.488708 0)
(-0.0906209 0.557822 0)
(-0.0313147 0.632172 0)
(0.00373936 0.750381 0)
(0.0203579 0.832558 0)
(0.0531167 0.829907 0)
(0.109607 0.785899 0)
(0.167432 0.732211 0)
(0.203157 0.67657 0)
(0.20554 0.646278 0)
(0.167911 0.662337 0)
(0.121182 0.677127 0)
(0.093287 0.676631 0)
(0.0779334 0.726988 0)
(0.069208 0.780123 0)
(0.0624461 0.830544 0)
(0.0652811 0.891354 0)
(0.0533339 0.975067 0)
(0.0321282 1.00169 0)
(-0.0265545 1.05214 0)
(-0.0249374 0.991821 0)
(-0.0114027 0.906776 0)
(-0.00655552 0.85185 0)
(-0.0101781 0.808379 0)
(-0.0288539 0.767658 0)
(-0.0582194 0.71257 0)
(-0.097517 0.629879 0)
(-0.140529 0.528652 0)
(-0.176276 0.444461 0)
(-0.180813 0.422191 0)
(-0.15778 0.457573 0)
(-0.114824 0.515868 0)
(-0.0648072 0.591509 0)
(-0.0210365 0.724882 0)
(0.00419225 0.808412 0)
(0.0568193 0.785968 0)
(0.121363 0.739783 0)
(0.176162 0.696625 0)
(0.204999 0.658189 0)
(0.197801 0.657118 0)
(0.151047 0.691646 0)
(0.101286 0.702984 0)
(0.0631617 0.691407 0)
(0.0492318 0.736083 0)
(0.039124 0.78462 0)
(0.0354236 0.836954 0)
(0.034145 0.893014 0)
(0.0397117 0.978779 0)
(0.0341889 1.04235 0)
(-0.0141573 1.07494 0)
(-0.00296688 0.974767 0)
(0.0152469 0.900475 0)
(0.0171313 0.848918 0)
(0.0119696 0.811225 0)
(-0.00356376 0.778713 0)
(-0.0290811 0.728451 0)
(-0.0651661 0.647596 0)
(-0.110394 0.545736 0)
(-0.157437 0.454446 0)
(-0.175819 0.412298 0)
(-0.164985 0.435082 0)
(-0.133386 0.484553 0)
(-0.092209 0.557003 0)
(-0.0429956 0.6941 0)
(0.00279191 0.774763 0)
(0.0646234 0.733421 0)
(0.131911 0.693741 0)
(0.184518 0.663737 0)
(0.207295 0.646176 0)
(0.190263 0.676326 0)
(0.137773 0.730337 0)
(0.0876458 0.739619 0)
(0.0405344 0.716702 0)
(0.0212266 0.747289 0)
(0.00858271 0.789753 0)
(0.00403333 0.839832 0)
(0.00607281 0.897341 0)
(0.0181721 0.972047 0)
(0.0193499 1.07918 0)
(-0.000479673 1.07937 0)
(0.0148123 0.960955 0)
(0.0335592 0.896108 0)
(0.0357538 0.853626 0)
(0.0300887 0.819627 0)
(0.0169588 0.790811 0)
(-0.00483982 0.743393 0)
(-0.0354333 0.666355 0)
(-0.0771111 0.568784 0)
(-0.133272 0.473373 0)
(-0.169276 0.410872 0)
(-0.168069 0.420778 0)
(-0.14479 0.462986 0)
(-0.109382 0.530095 0)
(-0.060311 0.652163 0)
(0.00540123 0.727864 0)
(0.0687426 0.683732 0)
(0.135434 0.647202 0)
(0.188721 0.63216 0)
(0.208331 0.640771 0)
(0.185561 0.706555 0)
(0.133913 0.77234 0)
(0.0826581 0.78453 0)
(0.02495 0.755288 0)
(-0.00398042 0.764894 0)
(-0.0192912 0.79791 0)
(-0.0253248 0.841882 0)
(-0.0198787 0.895196 0)
(-0.00291266 0.967376 0)
(0.00266168 1.09399 0)
(0.010724 1.07582 0)
(0.0290754 0.945261 0)
(0.046653 0.889085 0)
(0.0513902 0.854798 0)
(0.0456575 0.828505 0)
(0.0312245 0.804465 0)
(0.0124512 0.759991 0)
(-0.0155434 0.685107 0)
(-0.0548696 0.594245 0)
(-0.111134 0.50088 0)
(-0.162088 0.417464 0)
(-0.165803 0.40601 0)
(-0.147393 0.446063 0)
(-0.116398 0.510372 0)
(-0.0715692 0.60931 0)
(-0.00521153 0.681806 0)
(0.0607905 0.639312 0)
(0.12593 0.598363 0)
(0.181532 0.596704 0)
(0.208028 0.638766 0)
(0.184047 0.732124 0)
(0.134715 0.812392 0)
(0.0853485 0.835341 0)
(0.0224107 0.804962 0)
(-0.0226048 0.789185 0)
(-0.0418533 0.807917 0)
(-0.0494312 0.842658 0)
(-0.0438035 0.8872 0)
(-0.0233926 0.955711 0)
(-0.00984318 1.09683 0)
(0.0196552 1.05647 0)
(0.0412518 0.930008 0)
(0.0576349 0.881479 0)
(0.0635597 0.856135 0)
(0.0542276 0.839774 0)
(0.0383481 0.817709 0)
(0.0183429 0.773353 0)
(-0.0112531 0.704172 0)
(-0.0525709 0.620609 0)
(-0.101205 0.5269 0)
(-0.150104 0.431131 0)
(-0.167893 0.391796 0)
(-0.150216 0.427186 0)
(-0.119471 0.491887 0)
(-0.0774469 0.575955 0)
(-0.0196941 0.633001 0)
(0.048556 0.591963 0)
(0.109937 0.548305 0)
(0.168476 0.553894 0)
(0.19706 0.629525 0)
(0.172395 0.755316 0)
(0.137742 0.846345 0)
(0.0970995 0.88204 0)
(0.0383532 0.860746 0)
(-0.0242229 0.82515 0)
(-0.0546301 0.822257 0)
(-0.0658006 0.844045 0)
(-0.062009 0.87725 0)
(-0.0424274 0.93935 0)
(-0.0202221 1.07825 0)
(0.0253829 1.02657 0)
(0.0521924 0.913575 0)
(0.0683054 0.873092 0)
(0.0707362 0.860134 0)
(0.0558654 0.852487 0)
(0.0370165 0.830688 0)
(0.0101171 0.788586 0)
(-0.0229242 0.727027 0)
(-0.0637384 0.645348 0)
(-0.0995775 0.546725 0)
(-0.133774 0.441258 0)
(-0.155634 0.386788 0)
(-0.148177 0.400007 0)
(-0.117493 0.464674 0)
(-0.0735751 0.543078 0)
(-0.0190165 0.590185 0)
(0.0386562 0.546622 0)
(0.0946691 0.503175 0)
(0.145079 0.515623 0)
(0.157299 0.62253 0)
(0.148604 0.763258 0)
(0.13658 0.865138 0)
(0.111317 0.916015 0)
(0.063758 0.912341 0)
(0.000848448 0.874983 0)
(-0.0517303 0.846622 0)
(-0.0730529 0.847882 0)
(-0.0748273 0.868411 0)
(-0.057045 0.9196 0)
(-0.0267393 1.04692 0)
(0.0315566 0.988856 0)
(0.0624587 0.895474 0)
(0.0757821 0.86719 0)
(0.0706824 0.867284 0)
(0.0510427 0.866441 0)
(0.0241898 0.846219 0)
(-0.0100578 0.807719 0)
(-0.045112 0.748741 0)
(-0.0743573 0.662085 0)
(-0.0938227 0.556118 0)
(-0.1125 0.447321 0)
(-0.128652 0.381508 0)
(-0.126975 0.38467 0)
(-0.10182 0.430334 0)
(-0.0613447 0.504526 0)
(-0.0109684 0.549522 0)
(0.0397291 0.508821 0)
(0.0754481 0.457488 0)
(0.0924011 0.487146 0)
(0.101397 0.604942 0)
(0.113362 0.753769 0)
(0.121969 0.865965 0)
(0.116399 0.934284 0)
(0.0877071 0.951324 0)
(0.0350723 0.926272 0)
(-0.0228321 0.887139 0)
(-0.0643166 0.860917 0)
(-0.0786567 0.86202 0)
(-0.0663832 0.896468 0)
(-0.0331583 1.00524 0)
(0.0385385 0.942 0)
(0.0706684 0.87834 0)
(0.0766737 0.865958 0)
(0.0634629 0.877501 0)
(0.0361702 0.88451 0)
(0.00102969 0.866923 0)
(-0.0341473 0.83006 0)
(-0.0619347 0.764629 0)
(-0.075492 0.666791 0)
(-0.0788099 0.556274 0)
(-0.0869217 0.451372 0)
(-0.0998183 0.380354 0)
(-0.101907 0.371434 0)
(-0.0824048 0.405243 0)
(-0.0502617 0.466413 0)
(-0.00553983 0.50496 0)
(0.0322382 0.46409 0)
(0.0536164 0.445622 0)
(0.0477562 0.473656 0)
(0.0521981 0.584508 0)
(0.0744465 0.736317 0)
(0.0939855 0.852577 0)
(0.105315 0.935629 0)
(0.0975214 0.973613 0)
(0.0629306 0.966976 0)
(0.00956714 0.93099 0)
(-0.0379678 0.891085 0)
(-0.0675667 0.866112 0)
(-0.0684272 0.877265 0)
(-0.0370735 0.953861 0)
(0.0416054 0.888139 0)
(0.0706786 0.863835 0)
(0.0670489 0.870761 0)
(0.044294 0.893258 0)
(0.0103591 0.908243 0)
(-0.0241431 0.890897 0)
(-0.0502313 0.845932 0)
(-0.0642294 0.770099 0)
(-0.0640427 0.661815 0)
(-0.0597121 0.551128 0)
(-0.0633088 0.45446 0)
(-0.075464 0.384087 0)
(-0.0820744 0.365925 0)
(-0.0686128 0.387947 0)
(-0.0439128 0.434095 0)
(-0.0039808 0.467639 0)
(0.0272323 0.437901 0)
(0.0403652 0.429868 0)
(0.0303368 0.470115 0)
(0.0259228 0.565779 0)
(0.0407868 0.714112 0)
(0.0629443 0.83368 0)
(0.0832557 0.924356 0)
(0.0926309 0.979221 0)
(0.0778842 0.994726 0)
(0.0351865 0.970302 0)
(-0.0145256 0.923691 0)
(-0.0487203 0.882796 0)
(-0.0603194 0.868354 0)
(-0.0369771 0.902154 0)
(0.0372918 0.835525 0)
(0.0588581 0.855558 0)
(0.0461655 0.88356 0)
(0.0135435 0.91496 0)
(-0.021714 0.930137 0)
(-0.046894 0.906221 0)
(-0.0570664 0.851562 0)
(-0.0536197 0.764551 0)
(-0.0449335 0.653318 0)
(-0.0416048 0.548088 0)
(-0.0449938 0.458051 0)
(-0.0562016 0.391662 0)
(-0.0665374 0.365922 0)
(-0.0590701 0.378315 0)
(-0.0424379 0.409101 0)
(-0.00988306 0.431831 0)
(0.0208748 0.413052 0)
(0.0367776 0.418896 0)
(0.031246 0.472604 0)
(0.0201348 0.563734 0)
(0.0188483 0.69827 0)
(0.03596 0.814498 0)
(0.0599737 0.905752 0)
(0.0813708 0.972317 0)
(0.0833794 1.0096 0)
(0.0571934 1.00457 0)
(0.0114913 0.959953 0)
(-0.028431 0.901641 0)
(-0.0442 0.867742 0)
(-0.0313104 0.857145 0)
(0.0256399 0.793707 0)
(0.0387552 0.855478 0)
(0.0163726 0.903804 0)
(-0.0192902 0.941296 0)
(-0.0499372 0.944852 0)
(-0.0625398 0.909047 0)
(-0.0574849 0.839338 0)
(-0.0398662 0.747827 0)
(-0.0299128 0.643561 0)
(-0.0318865 0.544634 0)
(-0.033217 0.46466 0)
(-0.0408365 0.401355 0)
(-0.0533698 0.369582 0)
(-0.0504912 0.374467 0)
(-0.0394597 0.394937 0)
(-0.0182947 0.404043 0)
(0.010517 0.38801 0)
(0.030839 0.406678 0)
(0.0312498 0.47478 0)
(0.016989 0.571823 0)
(0.00435199 0.691016 0)
(0.0151339 0.797481 0)
(0.0409912 0.88298 0)
(0.0692334 0.956548 0)
(0.0843076 1.01166 0)
(0.0759493 1.02754 0)
(0.042265 0.997805 0)
(0.000765253 0.92822 0)
(-0.0235934 0.874326 0)
(-0.0203197 0.825421 0)
(0.0109753 0.769636 0)
(0.0139746 0.864685 0)
(-0.0166656 0.928651 0)
(-0.0502041 0.967634 0)
(-0.0719857 0.956195 0)
(-0.0717847 0.905606 0)
(-0.0553844 0.820192 0)
(-0.0306185 0.724414 0)
(-0.0142822 0.630914 0)
(-0.0175962 0.545914 0)
(-0.0322023 0.464721 0)
(-0.0363576 0.412954 0)
(-0.0410985 0.375597 0)
(-0.0413139 0.372432 0)
(-0.0337822 0.388366 0)
(-0.0207302 0.387832 0)
(0.000468187 0.366403 0)
(0.0194584 0.393087 0)
(0.0205864 0.475821 0)
(0.00503111 0.584162 0)
(-0.0109039 0.690424 0)
(-0.000350329 0.780792 0)
(0.0258408 0.858488 0)
(0.0572444 0.934936 0)
(0.0814985 1.00446 0)
(0.0885979 1.04013 0)
(0.0701327 1.029 0)
(0.0324914 0.959914 0)
(-0.000923815 0.890746 0)
(-0.00728768 0.811325 0)
(-0.00092028 0.76407 0)
(-0.0124618 0.885892 0)
(-0.048696 0.957819 0)
(-0.0692908 0.988678 0)
(-0.0743708 0.957306 0)
(-0.0611726 0.89101 0)
(-0.0386067 0.797325 0)
(-0.0147037 0.70417 0)
(-5.96006e-05 0.618843 0)
(0.000675324 0.541973 0)
(-0.0189709 0.472274 0)
(-0.0402016 0.410594 0)
(-0.0379496 0.382549 0)
(-0.0332822 0.371856 0)
(-0.0280762 0.386104 0)
(-0.0180589 0.37932 0)
(-0.00359847 0.351818 0)
(0.00884663 0.382924 0)
(0.00325068 0.480507 0)
(-0.014983 0.593945 0)
(-0.0253806 0.683603 0)
(-0.0116333 0.761784 0)
(0.0127028 0.834422 0)
(0.0423209 0.910605 0)
(0.0696745 0.988219 0)
(0.0880686 1.04112 0)
(0.0873379 1.05246 0)
(0.0611463 0.994921 0)
(0.0208143 0.917565 0)
(0.00256961 0.811708 0)
(-0.0129896 0.774902 0)
(-0.0336796 0.913212 0)
(-0.0628163 0.979933 0)
(-0.0655804 0.997771 0)
(-0.0582768 0.954026 0)
(-0.0385929 0.879525 0)
(-0.0158198 0.782224 0)
(0.00366949 0.693184 0)
(0.0131955 0.616516 0)
(0.0122105 0.548584 0)
(-0.0023069 0.483361 0)
(-0.0304551 0.421204 0)
(-0.039607 0.374636 0)
(-0.0290162 0.369883 0)
(-0.0230125 0.383611 0)
(-0.014301 0.373694 0)
(-0.00480295 0.342829 0)
(0.00196304 0.380942 0)
(-0.0120151 0.489855 0)
(-0.0260053 0.598872 0)
(-0.0282187 0.67319 0)
(-0.0167382 0.742295 0)
(0.00250455 0.812043 0)
(0.0267653 0.887791 0)
(0.0527477 0.97042 0)
(0.075963 1.03294 0)
(0.0860113 1.06162 0)
(0.0784205 1.02512 0)
(0.038274 0.951169 0)
(0.0122949 0.825297 0)
(-0.0215241 0.80437 0)
(-0.0439217 0.940231 0)
(-0.0565482 0.992252 0)
(-0.0515589 0.998832 0)
(-0.0390024 0.946601 0)
(-0.0165337 0.865882 0)
(0.00550005 0.769178 0)
(0.0203757 0.685568 0)
(0.0246049 0.617046 0)
(0.0196942 0.556947 0)
(0.0072935 0.497331 0)
(-0.014926 0.43367 0)
(-0.0328946 0.375281 0)
(-0.0270962 0.365372 0)
(-0.0177666 0.381143 0)
(-0.0108245 0.370658 0)
(-0.00476301 0.3394 0)
(-0.00342782 0.386743 0)
(-0.0190738 0.495654 0)
(-0.0235929 0.593487 0)
(-0.0218994 0.662181 0)
(-0.0163935 0.72618 0)
(-0.00470264 0.793428 0)
(0.0129735 0.867577 0)
(0.0362456 0.950685 0)
(0.0607266 1.01994 0)