/*--------------------------------*- C++ -*----------------------------------*\
| =========                 |                                                 |
| \\      /  F ield         | OpenFOAM: The Open Source CFD Toolbox           |
|  \\    /   O peration     | Version:  v1606+                                |
|   \\  /    A nd           | Web:      www.OpenFOAM.com                      |
|    \\/     M anipulation  |                                                 |
\*---------------------------------------------------------------------------*/
FoamFile
{
    version     2.0;
    format      ascii;
    class       volVectorField;
    location    "1";
    object      ddt0(rho,U);
}
// * * * * * * * * * * * * * * * * * * * * * * * * * * * * * * * * * * * * * //

dimensions      [1 -2 -2 0 0 0 0];

internalField   nonuniform List<vector> 
11640
(
(1.16029850669 2.38621814637 -3.5549506957)
(4.72394844298 0.956440547709 -3.06709877789)
(9.18630159236 -0.465055508407 -2.30969869949)
(14.2501500576 -1.76970612779 -1.5477955438)
(20.0657475486 -3.08684193482 -0.817838194711)
(26.687384485 -4.4863424146 -0.0768537770585)
(33.810598223 -6.04824253524 0.85477991682)
(41.016072625 -7.65361603316 2.02754816598)
(47.7933821773 -9.1914205443 3.34502362928)
(53.753250379 -10.4765362985 4.80723939615)
(57.9145665446 -11.5141282233 6.36101573822)
(59.7707506974 -12.3831220253 7.92726459545)
(58.906219314 -13.1100176972 9.46819028765)
(55.3207518788 -13.8037821335 10.9000361394)
(49.3754049965 -14.4514032298 12.1946679465)
(41.5904244566 -15.0953464853 13.2565027247)
(32.5259564041 -15.5858912421 13.9981655846)
(22.7855155875 -15.8088781787 14.329144726)
(12.844282698 -15.753699336 14.1548580862)
(4.42807340038 -15.5819978077 13.4088751519)
(-0.320948352978 8.40780240658 -3.09198817328)
(1.93853844618 5.71871642867 -5.44500053363)
(6.79710203452 2.53897109063 -5.5836564974)
(12.6772335128 -0.493926177513 -5.32018991152)
(19.6931360254 -3.55869493685 -5.0637512092)
(27.2084743117 -7.24624226534 -4.60278416674)
(34.5663857545 -11.8487592933 -3.7631798447)
(41.4806450418 -16.8191589375 -2.42605508392)
(47.9024385303 -21.8046538797 -0.921647559017)
(53.4670788645 -26.1149875063 0.782970575729)
(57.2269204728 -29.730321525 2.61111136638)
(58.6444673383 -32.7872809755 4.51205170498)
(57.3025910814 -35.430901368 6.43725957177)
(53.4142335654 -37.8855146153 8.11861303789)
(47.5572563518 -39.9295212822 9.55235132642)
(40.2217934027 -41.7286860167 10.623655136)
(31.7925740735 -43.2985608521 11.4299288507)
(22.6740037497 -44.5746774957 11.9627678349)
(13.4278768302 -45.4076813866 12.133834875)
(4.87122339677 -46.0331870168 12.6689756766)
(-1.73627465218 15.2994005132 -2.32992039753)
(-1.27391537174 13.1459862628 -5.56999542289)
(3.55848950083 10.2672064373 -6.62032077434)
(10.5506577107 7.50874836561 -7.19281156904)
(18.7068306108 3.99451141427 -7.53656218714)
(26.4909482055 -1.38391076411 -7.28535874969)
(33.532777814 -8.86900057387 -6.34422027694)
(39.6395622722 -17.5125020406 -4.86716057231)
(45.2587721633 -26.5206018099 -3.13216832173)
(50.2511194135 -34.6472813807 -1.12746740087)
(53.4695467304 -41.8189002931 1.04625743878)
(54.2762949591 -48.2674581331 3.45471673896)
(52.1651394661 -54.1675327921 5.87673710616)
(47.62988666 -59.5920334854 7.87481745821)
(41.6762803862 -63.7744075396 9.45620963435)
(35.1451347167 -66.5097295964 10.2927609575)
(28.2433964653 -68.0486745478 10.718632801)
(20.5774317293 -69.5388099557 11.085048265)
(12.4026014204 -71.5066367668 11.4017048468)
(4.56835583239 -73.5813229442 12.0513044604)
(-2.93780088508 22.6113755532 -1.51308960134)
(-4.16933531488 21.6727396118 -5.25929115531)
(0.656527252569 20.7382794325 -7.20547698688)
(8.46024167636 19.4001391676 -8.45128540146)
(16.9571626973 15.7841940902 -9.10466994363)
(24.2814198431 8.73899791289 -8.78416580614)
(30.4388741655 -1.98782058272 -7.83002478583)
(35.3104961779 -14.580118331 -5.91840553291)
(40.009463173 -28.4848296163 -4.00255955444)
(44.5019016616 -41.3830044731 -1.64610983185)
(47.1704495299 -53.1997492868 1.03411502263)
(47.2963173171 -64.6332452694 4.03043289086)
(44.3190151181 -75.5214445682 7.0540784613)
(38.7599569349 -85.3572767635 9.18177110473)
(32.1603035132 -93.0856957204 11.0151325722)
(26.3300316172 -97.1671907401 11.543283615)
(21.3290861668 -97.5437551985 11.39500249)
(16.0410527874 -96.6825452164 11.2878519555)
(9.8022196574 -97.250298277 11.1867474856)
(3.6102677988 -99.9848784795 11.2242903617)
(-4.02595652328 30.3017071439 -0.723918081838)
(-6.76188699621 31.3391285927 -4.90801410916)
(-2.10532152582 32.9706592391 -7.60710876537)
(5.7504704381 32.9869906156 -9.27106087862)
(13.7582039863 29.0898121144 -9.90590770257)
(19.6294717531 20.282563875 -9.63304691811)
(24.6795163721 6.10136416401 -8.97605313387)
(27.8589695852 -10.3596805262 -6.90353789396)
(31.458999258 -29.6392127062 -5.27124303596)
(36.0750358315 -47.8617467112 -2.76213578223)
(38.4778438133 -65.111901244 0.250424649242)
(38.166178022 -81.5781451331 4.10346662189)
(34.7867666813 -97.7468193601 7.99994708559)
(27.8628410901 -112.260152065 9.43809283078)
(19.4809844726 -125.395108974 11.4888220746)
(13.8325334979 -133.052543305 12.557079126)
(11.1771553926 -132.124843878 11.7383722365)
(9.04726818087 -127.527193722 11.2110632251)
(5.72466299702 -123.806751735 10.7862301396)
(2.12215136356 -124.991580571 10.0708734002)
(-5.01898755767 37.990818562 0.139974635252)
(-9.27119529263 41.215650882 -4.39585500544)
(-5.28637238568 45.0017420097 -7.44693319272)
(1.88595647252 46.0601674545 -9.20028216695)
(8.55456716594 42.177154635 -9.63396377885)
(12.0294031053 32.6805469471 -9.51909321443)
(15.565243852 17.4160646939 -10.3811402803)
(16.393028837 0.42387352256 -8.05218972804)
(18.8218380928 -21.2598649567 -8.22633360757)
(24.0259825182 -41.7096088208 -6.4454070956)
(27.620930629 -61.7986939888 -3.66182684838)
(28.364804795 -82.2660119389 -0.93686753642)
(25.7625480643 -106.004643111 2.55974551242)
(15.9403365389 -131.043035008 6.79948770005)
(2.52041065739 -154.432269041 9.43415039241)
(-2.98368599088 -166.441257194 12.7059073712)
(-2.07724755633 -166.28002055 11.3387202776)
(0.154558373343 -157.7884387 10.8216303274)
(0.751279009547 -150.203400641 10.1726380016)
(0.340358571487 -148.998431924 7.84665733114)
(-5.95688017895 44.7838962228 1.2230985416)
(-11.8560243421 49.4444937996 -3.33950659518)
(-9.05387793353 54.5144333991 -6.38032036579)
(-3.00501641452 56.1284480977 -7.94062653318)
(2.32207879571 52.2391377923 -8.09376763681)
(3.59768726001 42.2257374358 -7.9795280201)
(7.23280192716 25.9476845018 -8.88520717193)
(6.24376199061 11.7050539053 -5.11952443376)
(8.63985439911 -10.6384564291 -8.06349330622)
(15.8118448636 -31.5266961472 -8.31366539789)
(19.6627699598 -52.8279020679 -7.71989266077)
(17.0205593191 -74.5906870053 -6.77493820661)
(9.07743835769 -106.481790877 -5.21943519983)
(-6.36105371715 -143.074845271 2.74035724139)
(-19.8135392978 -176.875789702 5.13312327165)
(-23.0577544236 -194.232232704 7.19441079053)
(-18.4139606894 -194.705047515 7.28438384964)
(-10.7514240595 -184.579941205 6.00114390006)
(-6.39086709821 -174.229533775 6.20983904619)
(-2.24160932182 -170.879347169 5.15434092394)
(-6.83408871354 49.9827529561 2.486961062)
(-14.567729639 55.281881611 -1.86109076168)
(-13.4333874912 61.0472063804 -4.72381355136)
(-9.09535182736 63.2613327372 -6.0847095848)
(-5.86184416003 59.8792913901 -6.31762749403)
(-8.17845663277 50.3677735449 -7.48828651412)
(-4.63937890415 35.1519174921 -9.96526416433)
(-7.6343717127 21.6207109949 -1.24087047873)
(-8.30822820214 -1.09904705798 -5.79723690848)
(-0.905596419363 -21.9986296895 -5.26325430348)
(1.76604143858 -45.7891643841 -1.85395787845)
(-7.24304944759 -71.7337345519 3.96535892662)
(-18.4236289896 -110.263256816 9.09913734253)
(-34.2502289238 -149.910128427 5.75892688852)
(-45.3004061139 -193.375418676 4.27438736544)
(-43.6594984072 -214.772934557 4.39877633232)
(-34.3429993257 -215.59982893 4.31056406388)
(-22.1043107205 -204.923788084 2.97115779817)
(-12.9872571248 -192.945480301 3.52527909782)
(-4.63987936324 -188.532260401 2.47685742483)
(-7.59549128107 53.2304719418 3.92131625456)
(-17.0162353292 58.7933832456 -0.09748414416)
(-17.3528738561 64.970571326 -2.57391134891)
(-14.3361284352 67.7825058531 -3.51990655371)
(-12.4339452558 65.2939544577 -3.24842271498)
(-15.829762193 57.0395461841 -4.56514234649)
(-12.9589856457 43.9478546033 -6.97422299384)
(-19.5178456868 29.0708317787 0.927726486613)
(-21.7816241326 7.72309304017 -3.83783130032)
(-13.9150474066 -15.1549436203 -1.95456605751)
(-13.6059717803 -42.3170933826 1.34240438817)
(-30.0310648729 -74.9729961675 7.21539400491)
(-48.6818040835 -117.448193207 11.036975935)
(-69.0400942689 -160.953128698 4.44162614185)
(-76.2976050481 -206.053147155 2.47717164459)
(-66.3281980303 -228.391437046 1.75398817732)
(-50.5566498797 -229.053166504 1.35732523127)
(-32.9174778554 -217.564354983 0.156337029968)
(-19.6746932611 -205.617708047 0.675021348619)
(-7.20286289024 -201.202978194 -0.77389012989)
(-8.30935965512 54.0794287 5.36184024486)
(-19.3119694931 59.6904295368 1.7045561241)
(-21.1213887035 65.8421819754 -0.407793495818)
(-19.4566428745 68.5903451025 -0.880826010485)
(-18.9071924581 66.1710524914 -0.166837280384)
(-23.5723484792 58.6072416209 -1.33990860408)
(-23.7899641363 48.4037806153 -3.80360243343)
(-33.808598579 34.380924515 4.15040485183)
(-38.7845542731 14.6863578537 -0.656350144083)
(-34.7181040314 -12.8546054862 0.334148652032)
(-37.8402419698 -48.6212238292 2.85330533257)
(-58.1757398552 -92.1752713279 8.21009670969)
(-77.3461594472 -137.527821909 9.35943061472)
(-95.3674607212 -180.025019242 1.54827621421)
(-100.861995956 -218.068637976 -0.488519353499)
(-86.5634713768 -237.820132822 -1.36872679974)
(-65.779515343 -236.680308846 -2.06887740997)
(-43.4395179681 -224.529365784 -2.88945859736)
(-26.1669999802 -212.723625589 -2.48984911207)
(-9.63035740247 -208.459578076 -4.07638333393)
(-9.02875357002 52.5431680519 6.83669107237)
(-21.696307884 57.865023095 3.52811419985)
(-25.0720637487 63.4596684225 1.79245067157)
(-24.7418842721 65.4638876647 1.71406747539)
(-25.0709516592 61.9717297134 2.81606743084)
(-28.9472124311 53.0639840677 1.94357532106)
(-30.0995774813 42.35209724 1.5789789191)
(-44.3332193098 30.6188548825 6.59723505485)
(-56.8360118146 12.3284393891 2.22245143888)
(-62.2261386888 -19.1637197309 2.41688530216)
(-71.811024277 -59.5093729579 4.21712282874)
(-91.5317773155 -107.170096562 6.94383540138)
(-105.33078067 -150.531779694 6.23466903166)
(-118.302732903 -194.36956122 -0.295153584962)
(-122.387186593 -224.722747267 -3.32087426536)
(-104.520571267 -241.241151223 -4.79089765652)
(-79.4885027514 -238.094575323 -5.74169318768)
(-53.1829704222 -225.457959896 -6.00026895517)
(-32.2759127448 -214.0535253 -5.72669866791)
(-11.9422632569 -209.949070778 -7.41989691707)
(-9.92599173926 48.576977447 8.28581293691)
(-24.6677046571 53.0512578883 5.32818952889)
(-30.3352495284 57.6877995326 3.83331870001)
(-32.4090595088 58.7336964341 3.92227985548)
(-35.4694122433 54.1078370525 4.88211930823)
(-40.7079519316 43.7606731842 4.98946971827)
(-49.3769299226 29.9967623452 7.19295802882)
(-63.0888422438 7.70406083132 7.26246058574)
(-78.3454217519 -11.774676734 8.57201464768)
(-91.0376880594 -42.7912963921 8.74909641991)
(-103.080463768 -79.1563726465 7.90879986285)
(-118.175458055 -121.578063794 5.75158145661)
(-127.584898028 -159.055977011 0.266199817099)
(-135.92900629 -199.400334529 -2.53859749176)
(-136.964853849 -224.41051014 -6.5828547069)
(-117.741603869 -235.869039809 -8.95331569713)
(-90.5159875978 -230.853631149 -10.0670160249)
(-61.2393957091 -218.735967465 -9.09559526752)
(-37.4988729215 -208.640786443 -8.97596558921)
(-13.9849215517 -205.341332032 -10.6718143114)
(-10.9560042206 42.6263250676 9.63957501847)
(-28.3237143994 45.3727886629 7.07056025522)
(-36.8931819166 48.3481560144 5.85243777279)
(-41.5638708482 48.2282455111 6.09489407336)
(-45.7494649878 42.865840183 7.27609366328)
(-51.5868197257 32.8425119289 7.46492554158)
(-62.6394328859 16.6991917846 9.84380986248)
(-77.8832715226 -5.77595683203 7.77518449302)
(-94.7724947425 -29.6719363836 7.31608490272)
(-111.502010763 -57.6378399948 8.13240196662)
(-127.137469792 -90.3527955639 5.5766805162)
(-140.835425645 -125.55934645 1.36571397983)
(-148.059716359 -157.676046424 -4.11854866299)
(-150.035523159 -191.31977606 -6.82870154117)
(-145.394178307 -210.987015909 -10.6839802882)
(-125.348865519 -217.798666011 -12.2401783566)
(-97.1508331339 -212.458369294 -12.4475584799)
(-66.960824884 -203.022795585 -11.8295225907)
(-42.0286442548 -196.129109143 -11.9315242844)
(-15.9386520878 -194.504852269 -13.6981454876)
(-12.085577013 35.5385614549 10.7739337464)
(-32.5219887241 36.133975929 8.50649747071)
(-45.0254360655 36.7499861435 7.40670194878)
(-53.6216734462 34.9781039271 7.5758227526)
(-60.9266456305 28.3298297559 8.60939461778)
(-70.1926637354 16.8005083228 8.05669770448)
(-84.2365483018 -1.04614397865 8.72516198398)
(-100.52670995 -23.4585636701 7.99985653305)
(-116.717433681 -47.4119391471 6.86742900284)
(-131.907251472 -73.4175773321 4.35849962278)
(-144.833945065 -99.4053451242 1.2841944879)
(-154.398675757 -125.207284836 -2.65934808537)
(-158.49732981 -149.373250799 -7.08362615346)
(-156.489279145 -172.922054985 -9.87842438263)
(-147.527206794 -185.810419148 -13.3433426444)
(-126.756361749 -189.396469586 -14.5272528944)
(-99.2166947081 -186.017702992 -14.2246779453)
(-70.338637344 -180.974097751 -13.9890332279)
(-45.3104673005 -177.971042985 -14.4721048581)
(-17.4059799104 -178.282129299 -16.3775417272)
(-13.2136508919 28.3220362156 11.6608456254)
(-36.5144196122 27.3434834574 9.5653671782)
(-53.4168906388 25.4110732517 8.53708451604)
(-66.727706397 22.0745601761 8.62950282494)
(-77.4294933383 15.1952120833 9.78611672081)
(-89.2410727939 4.28852470345 8.06808601209)
(-104.664141556 -11.1060086717 7.67825084333)
(-121.053529897 -29.4372294951 6.2420168298)
(-136.668196935 -49.4906472027 4.50233022387)
(-150.145069559 -70.406052154 1.90541643307)
(-160.394665304 -91.0115029549 -1.50469652419)
(-166.118661478 -110.731308748 -5.17429588441)
(-166.092436477 -128.592647215 -9.14000135422)
(-160.288948639 -144.727792962 -12.2213783141)
(-147.073254535 -154.082590945 -14.3366647097)
(-125.904242855 -157.422083967 -15.2173948465)
(-99.9017524225 -157.093703806 -15.3974148019)
(-72.6067982177 -156.198953285 -15.6165927814)
(-47.9799998786 -156.467754317 -16.7179761915)
(-18.626369146 -158.199178379 -18.702172806)
(-14.2440522076 21.3833884924 12.3710066423)
(-39.8798242021 20.0063270888 10.3448473918)
(-60.6162931259 16.4781695755 9.26112347687)
(-78.8308474463 11.5840921018 9.1605521576)
(-93.6607455869 4.62261582437 9.84874094512)
(-108.260088574 -5.535657076 7.65002252847)
(-124.585713415 -18.6250476026 6.6001501632)
(-140.301991233 -33.6032764774 5.00472788011)
(-154.161363959 -49.4313812629 2.90680385281)
(-165.068656892 -65.049509489 0.231117965904)
(-171.883964242 -79.9666953748 -2.89768664297)
(-173.764244967 -93.6702407953 -6.19090196779)
(-170.344233487 -106.015351765 -9.49385013832)
(-161.343145929 -116.676972486 -12.1372589636)
(-146.157720779 -123.618647768 -14.1895998467)
(-125.297212817 -127.32982087 -15.4563088141)
(-100.839790542 -129.270106617 -16.3613505589)
(-74.9506295317 -131.092442778 -17.2310934465)
(-50.3721011833 -132.949182071 -18.8392037574)
(-19.5958968025 -134.503631808 -20.646871291)
(-15.077556521 14.8959567908 12.8281634394)
(-42.6793031709 13.8393011422 10.8497311348)
(-65.9634172334 10.3636420943 9.71717785824)
(-87.932937276 5.1073093389 9.39794484396)
(-106.858662589 -1.66533245897 9.73525208457)
(-124.225442551 -10.6478237483 7.19305819986)
(-141.213426465 -21.0887845976 5.77473089959)
(-155.996082243 -32.3999101469 3.97750264773)
(-168.018600929 -44.0548598545 1.74558142833)
(-176.311687461 -55.2750277505 -0.864960964363)
(-180.30202089 -65.6916393657 -3.71105149518)
(-179.404891235 -75.1216008084 -6.63345404808)
(-173.4898558 -83.5225250215 -9.48065012917)
(-162.622526844 -90.7567213774 -12.0626006364)
(-146.67587616 -96.1437234611 -14.1506416952)
(-126.340102795 -99.9737264166 -15.8998230396)
(-102.927940065 -102.960793753 -17.4023731624)
(-77.4014016054 -105.398241801 -18.7471536394)
(-51.8422061547 -106.960975126 -20.5310510057)
(-19.9901016094 -107.60576034 -22.0762491658)
(-15.624453134 9.12670886869 12.9835507243)
(-44.8312658465 8.53018747798 11.1594466467)
(-70.0641155085 5.86457539656 10.0899484273)
(-93.8767944011 1.58239325068 9.59217858794)
(-115.340660627 -3.71615629136 9.53224956166)
(-134.83089607 -11.1405001223 6.82733100976)
(-152.360704126 -18.9579002409 5.16276779641)
(-166.608293268 -27.0273621339 3.28079676278)
(-177.342412086 -35.1903134281 0.929807892404)
(-184.026753912 -42.9362057373 -1.60217058462)
(-186.288540593 -50.037696293 -4.28172694362)
(-183.811035878 -56.3418981031 -7.00241424859)
(-176.656689154 -62.0393425657 -9.70155058988)
(-164.868264797 -66.9117565936 -12.2696427116)
(-148.62843486 -70.8942634621 -14.6406932436)
(-128.52067177 -74.0223867138 -16.7831282268)
(-105.164754024 -76.5212860044 -18.581908478)
(-78.9570750048 -78.0518736275 -20.0950739178)
(-52.4601596427 -78.8167811138 -21.6517202583)
(-20.0439810869 -78.7431382445 -22.9161192478)
(-15.9340514248 4.09755709673 12.7375173583)
(-46.4022981056 4.14182414391 11.0654107099)
(-73.2147753995 2.49924114151 10.0340386269)
(-98.1145040889 -0.446977722235 9.22912428296)
(-121.065112788 -4.16508188417 7.81770944834)
(-141.770014298 -9.24006574186 6.01682813459)
(-159.352910622 -14.4412393235 4.17473895)
(-173.461155641 -19.7679086714 2.09221485665)
(-183.735844991 -25.1181671961 -0.484155519014)
(-189.705931944 -30.1384931977 -3.01304517591)
(-191.117333576 -34.6880702463 -5.67490503996)
(-187.955529907 -38.7649924327 -8.43949571297)
(-180.054750345 -42.2752698857 -11.0906297547)
(-167.665811581 -45.2325689637 -13.665418927)
(-151.077218758 -47.8311192881 -16.1191257836)
(-130.623779153 -49.7322917855 -18.3499019924)
(-106.597130128 -50.9909428043 -20.1495916977)
(-79.6684179139 -51.5291750422 -21.4106058904)
(-52.3081331322 -51.4558082996 -22.4536703369)
(-19.5811162052 -49.3447022617 -23.1745897275)
(-16.0576500375 1.32099589019 11.9235936634)
(-47.4944592467 1.4948044615 10.8291594965)
(-75.6300597055 0.897669395076 9.72081244271)
(-101.681331679 -0.248225664155 8.35046139509)
(-125.510877196 -1.83146309439 6.37385999434)
(-146.746009622 -3.71369909182 4.24472209854)
(-164.630613972 -5.74581887004 1.91888243733)
(-178.828929824 -7.844654649 -0.521282562411)
(-188.877769236 -9.97891076951 -3.34390707986)
(-194.480695065 -11.9124085818 -6.00732594438)
(-195.48416087 -13.7027715664 -8.65418912013)
(-191.725413295 -15.2970744352 -11.2561638998)
(-183.185009768 -16.6273959448 -13.6675688478)
(-170.360335279 -17.7408666785 -15.9905574418)
(-153.18851741 -18.7281072544 -18.0807529076)
(-131.919261698 -19.3996649937 -19.9271495796)
(-107.183431832 -19.7202812622 -21.466276656)
(-79.6275436316 -19.7437412148 -22.494451804)
(-50.1946581832 -19.3414791862 -22.9472235872)
(-17.4811317276 -17.2768488053 -22.982907831)
(2.14046267934 3.37589948862 -8.15707838742)
(5.86067178404 3.39431290652 -7.42203659655)
(10.605491454 2.47375614633 -5.73973237927)
(15.8901736184 1.39504162438 -3.78768207781)
(21.9420897904 0.18381759432 -1.83092360653)
(28.8085844471 -1.12380193512 0.236395348435)
(36.3326880917 -2.62436377278 2.8040320312)
(43.881195909 -4.15492094822 5.9999182138)
(50.8918758496 -5.67170405687 9.65356723467)
(57.0055400105 -6.98180053637 13.6968392816)
(61.2204563443 -8.03589033982 18.0475849094)
(63.0440567717 -8.91976081177 22.4870343377)
(62.0310851596 -9.66290355649 26.8571793249)
(58.1758465527 -10.4328088434 30.8753897201)
(51.7362072321 -11.1770325255 34.5672618773)
(43.2348842214 -11.945129804 37.6321096883)
(33.4778470704 -12.5637596324 39.8625978114)
(23.1140956141 -13.0143639402 41.0719731098)
(12.4060738472 -13.7132416401 41.2620541253)
(4.01949794472 -15.3219420838 40.3894159866)
(2.06970734951 9.5667164467 -7.40133852269)
(5.10938438798 8.89260644446 -10.6746861679)
(9.45261157412 6.58770297054 -10.6581630258)
(15.0820738271 3.91674018533 -9.84192585904)
(21.901735243 0.843559856323 -8.81270358889)
(29.3682377979 -2.8755410485 -7.21028755888)
(37.2785094396 -7.31289071925 -4.75568610475)
(45.0949083726 -12.0334955673 -1.47673175572)
(52.3417007449 -16.6118777465 2.37070124373)
(58.6083745615 -20.551925292 6.72963037797)
(62.8695128491 -23.8058248235 11.4677735538)
(64.6072283596 -26.5608972199 16.3302843218)
(63.3396625044 -28.8555366433 21.0726266369)
(59.2044147576 -31.1464285255 25.3514101296)
(52.5018483257 -33.5295441669 29.1926660823)
(43.6719236655 -36.2985354234 32.4547441794)
(33.6760387213 -39.050628962 35.061038698)
(23.4341318268 -41.3646383448 36.8965003729)
(13.7114373701 -43.4869879392 37.7868640671)
(5.07348684644 -46.457004757 38.3610216682)
(1.13046075247 16.7367875831 -5.62933091249)
(2.73573094216 15.6963940427 -10.5785914044)
(6.47531456725 13.0561406079 -12.3279108421)
(11.8957815559 9.69197776038 -12.9774422007)
(18.4084382544 5.23735746244 -12.7737788329)
(25.543655072 -0.55631827296 -11.4774446121)
(33.3260339611 -7.72997101161 -9.07611175111)
(41.2967411897 -15.4279843404 -5.95785191088)
(49.0546437406 -22.8901742764 -1.98924174244)
(55.9234302262 -29.2827139708 2.66534749826)
(60.6926068796 -34.6324877104 7.79028355585)
(62.7868832554 -39.2380506662 12.8705864166)
(61.5650806963 -43.1486208597 17.9398185674)
(57.2914447928 -47.1311749198 22.2550207603)
(50.4991766097 -51.3327028952 26.0255727728)
(41.7324275379 -56.2781008112 29.1709344233)
(32.0322668819 -61.3605828986 31.8605666079)
(22.1094180326 -66.2745668656 34.0247264323)
(12.9800362623 -70.4875559437 35.3122151059)
(4.95503570281 -74.2153065979 36.1350308828)
(0.101474058284 24.2754242902 -3.56154267856)
(-0.0903657127977 23.6113415761 -9.51773294722)
(2.36760438443 21.14229814 -12.77231329)
(6.60121012415 17.194063675 -14.3909654782)
(11.9732330454 11.3680411968 -14.6222241591)
(17.9529909892 3.32605612584 -13.4902549999)
(25.0453714598 -6.99772586838 -11.4611476884)
(32.9964118181 -17.8728723406 -8.80395223553)
(41.5743372012 -28.2898785694 -4.97193524418)
(49.5740928632 -37.0482113267 -0.0597183961467)
(55.3140436845 -44.3736341364 5.42150805899)
(58.1257765548 -50.6235553573 10.8244226463)
(57.1081150976 -56.1288264787 16.3893292165)
(52.6888749254 -62.0182647572 20.6967463714)
(45.8253497053 -68.051079821 24.349057831)
(37.2245542511 -75.2211647317 27.2285693672)
(28.1385252025 -82.56306915 29.6747630473)
(19.0571366953 -89.5367855766 31.7079595223)
(10.8329942361 -95.7829265331 32.8578300617)
(4.06753438171 -100.888926268 33.147327539)
(-0.953826562396 32.0693581273 -1.36801180667)
(-3.3151377514 31.8157606176 -8.04610137818)
(-2.7925394981 29.4055685997 -12.2584514295)
(-0.463372794902 24.8315673344 -14.4329266601)
(2.95271596602 17.4463662474 -14.8909455226)
(6.68657861361 6.88357494259 -14.169764874)
(12.4104498537 -6.95853766296 -13.0430279568)
(19.9187434444 -21.0584356472 -12.1290726004)
(29.5781883002 -34.4990142053 -9.08467681828)
(39.3532639888 -45.7721888463 -4.44847798336)
(46.8159200608 -55.3753919101 1.23715806084)
(50.778736085 -64.1120871688 7.42774240059)
(49.9244720156 -71.9567953432 14.0340529308)
(45.0698551237 -77.1419264863 18.5931027215)
(38.0907084116 -84.9732540864 22.7170162145)
(29.9210559698 -94.1177749609 24.9692331084)
(21.8043090894 -103.520798431 27.0685575403)
(14.1903858193 -112.061966726 28.8433498112)
(7.52151857735 -119.363998044 29.5359752776)
(2.71556445275 -126.264793674 28.9639590168)
(-2.0748480478 39.4577103646 1.21089670223)
(-6.82144854583 39.512936725 -5.85080308176)
(-8.66300822705 37.0458083702 -10.4787979097)
(-8.98487045993 31.9798667186 -12.9791636513)
(-8.64392078379 23.3577412505 -13.8175018655)
(-9.11935389726 10.6709567148 -14.1965378805)
(-6.34624501989 -5.90381497476 -14.5878617375)
(0.575051776121 -24.6563541826 -17.7903123294)
(12.356981964 -39.5472327699 -17.4494852043)
(25.0035321759 -51.5220050459 -14.0223002688)
(34.1186086358 -62.1209357384 -8.64314631938)
(39.4425780578 -71.9247194174 -2.2613339851)
(42.9096451699 -82.3511570557 4.65038535921)
(37.7061188906 -88.966195316 9.66979965889)
(28.1217449113 -101.452788055 16.1170446431)
(19.8190996626 -113.754497559 21.703972889)
(12.8844127994 -124.974531631 23.5596860081)
(7.62893139902 -135.187040535 25.0107851983)
(2.68724587956 -143.395886702 24.6571545331)
(0.468059877777 -150.127982809 22.9237874433)
(-3.14985299656 45.8232320782 4.38872836233)
(-10.316080302 45.9224002369 -2.59611286109)
(-14.6994873667 43.3595814533 -7.23049300128)
(-18.0454627011 38.2439326861 -9.95872039544)
(-21.6128398217 29.8051867699 -11.8244847735)
(-27.9642851951 18.1661944515 -14.8103742416)
(-34.794010363 3.75631678943 -20.0106402692)
(-24.3144480435 -13.2774120407 -35.4301301633)
(-2.82471592872 -23.125991453 -41.0989745333)
(12.5315016038 -30.2526621617 -42.0161563371)
(23.1174819675 -38.4781985212 -39.7228138121)
(27.7194310872 -48.8233345358 -32.0571301081)
(32.0623687586 -69.8492919435 -23.0613026471)
(24.4779860534 -96.2494759793 4.6627112901)
(11.0312802348 -115.820125378 11.0772940488)
(5.30324735749 -132.549888276 14.8538054962)
(1.16051325785 -146.263366784 17.3195874696)
(-1.49864697159 -157.129300358 17.4270390746)
(-2.32277553645 -165.63442073 17.7151004382)
(-0.85997317425 -171.557999908 15.6240759815)
(-4.14949296076 50.8942645126 7.94538611661)
(-13.5154221138 51.0790826179 1.39330212237)
(-20.1071666988 48.7299593265 -2.9044144314)
(-25.7978971979 44.2829432816 -5.2563350199)
(-31.8430095339 37.5565906162 -6.41505629705)
(-41.714108276 28.7473478572 -8.44280666269)
(-57.0013215448 18.8477165177 -13.4697273129)
(-38.7081798974 4.65215785795 -38.2600814252)
(-10.3289855812 -3.02170634906 -31.0290685939)
(7.48031942719 -8.63490676135 -12.4802886454)
(13.4244942919 -18.5573993191 1.50231474909)
(5.56502030687 -32.367145051 23.6117489573)
(-3.34652347592 -61.2069770089 29.5849954474)
(-5.94137468971 -99.6630440532 9.4282921989)
(-9.93137077912 -126.108377851 9.93245390479)
(-11.1410423255 -146.286600906 9.68556391435)
(-11.7704430111 -162.712952536 9.26852240155)
(-10.8338765494 -174.461171364 10.2708985546)
(-8.26588599139 -182.927519312 10.20458443)
(-2.91179632797 -189.247884133 7.39528693733)
(-4.98865467568 54.2146661885 11.842973599)
(-16.1142750534 54.6401477233 5.7824832409)
(-24.3089218724 52.7086902157 1.91784181693)
(-31.4749853357 48.9938303229 -0.0256133161001)
(-39.0208507733 43.4833879707 -0.720909519678)
(-50.4804744444 36.1903563434 -2.04894351765)
(-69.4317843128 28.6807859566 -4.70548292915)
(-49.0095105288 15.8876416874 -33.9358455606)
(-20.5153719159 3.86105933572 -25.9099331197)
(-3.85738191292 -10.8311264677 -6.00413427714)
(-1.97394867948 -28.3928556725 8.0030358686)
(-16.7987932456 -48.6631083915 30.6406759196)
(-34.2295196179 -76.3374127338 35.65021406)
(-37.8645187678 -107.7067996 7.51327629994)
(-34.2731338898 -135.583450992 4.8595596476)
(-30.6775905274 -157.569658771 3.44068903919)
(-26.2870676965 -174.980037795 2.07021053626)
(-20.9746668859 -187.456799706 2.29384237126)
(-14.6248653012 -196.047056475 1.68779802568)
(-5.18104800057 -202.236060126 -1.95970754051)
(-5.78222871858 55.130448823 15.9035140545)
(-18.521216775 55.64701362 10.3999782446)
(-28.1198161982 53.86270503 7.07010210997)
(-36.4941332728 50.4890617136 5.7186040027)
(-45.266278217 45.7219952647 5.82015495139)
(-57.582330798 39.9481770563 6.36436555198)
(-78.4992563673 35.1474268033 7.08191060789)
(-64.2053824887 22.9934202892 -26.0746194978)
(-37.9601928708 9.71356573844 -18.1960747628)
(-24.9372186681 -10.6127016135 0.529266922722)
(-25.8982635051 -35.9038077723 12.2806349566)
(-44.2427718634 -64.2712449191 33.8316580792)
(-63.2844877465 -93.5734111125 34.1974869696)
(-64.6590042068 -120.862934098 1.08503886625)
(-56.5787020022 -146.02279498 -2.25966110796)
(-48.9727117916 -167.099112713 -4.12849244654)
(-40.440828473 -183.909942361 -5.82446124594)
(-31.0705613958 -196.032153437 -6.56353248555)
(-20.947757523 -204.139872594 -7.71372406903)
(-7.44509530965 -209.8067067 -11.9392671252)
(-6.60814737377 53.546541724 19.9717243056)
(-20.9372373906 53.9214333642 15.0395171357)
(-31.824136784 51.8800575421 12.2542908907)
(-41.1009224096 48.2435648024 11.4384332466)
(-50.5452008825 43.5576232138 12.0544205824)
(-62.20411317 39.7312345033 13.3276631828)
(-85.3943441119 41.5340407618 13.212207707)
(-74.2217751802 52.394603975 -29.8829850232)
(-54.0213069459 36.8432945807 -19.7578668779)
(-48.6538195596 3.42906809879 2.81889375645)
(-56.3061742584 -34.7071591759 18.7638287958)
(-74.760877411 -73.5529043062 33.60346638)
(-91.1480616147 -103.389253957 30.3134954676)
(-89.0921084188 -127.326157139 -2.11771104201)
(-78.3239511478 -151.554972579 -9.32545739768)
(-66.3572434838 -172.085933885 -11.662189091)
(-54.0689762865 -187.946664551 -14.1622028356)
(-40.7209194061 -199.224016768 -15.7114396134)
(-26.9713427544 -206.513751114 -17.3858596906)
(-9.64266675614 -211.359817269 -21.9264997958)
(-7.60330323389 49.6026372974 23.9119998051)
(-23.8736712813 49.3539556181 19.5554160176)
(-36.5135337424 46.3699042173 17.2887882407)
(-46.8746953819 41.5068829193 16.9526600857)
(-55.1416524483 35.0027401728 18.4443604591)
(-61.4925686959 28.5323125489 22.4715432441)
(-61.2841640251 25.8677409364 29.2992689608)
(-67.9462049724 36.3627890436 61.5037126855)
(-82.1721403665 16.267970422 62.2351443481)
(-93.0563862706 -18.3617429083 53.6258020474)
(-101.621618282 -56.4296336888 42.1220947494)
(-111.284912614 -92.3691008944 29.0555475615)
(-114.247694091 -115.201098701 14.0916828951)
(-108.181540951 -135.191096147 -5.49639287802)
(-97.8356226253 -155.554186719 -13.7138613204)
(-82.9539367693 -173.951929549 -18.8514386949)
(-66.973393755 -187.639849099 -22.4008285703)
(-49.8140826009 -197.284165421 -24.7860681817)
(-32.4559205663 -203.214257902 -26.9795792416)