/*--------------------------------*- C++ -*----------------------------------*\
| =========                 |                                                 |
| \\      /  F ield         | OpenFOAM: The Open Source CFD Toolbox           |
|  \\    /   O peration     | Version:  v1606+                                |
|   \\  /    A nd           | Web:      www.OpenFOAM.com                      |
|    \\/     M anipulation  |                                                 |
\*---------------------------------------------------------------------------*/
FoamFile
{
    version     2.0;
    format      ascii;
    class       volVectorField;
    location    "1";
    object      ddt0(U);
}
// * * * * * * * * * * * * * * * * * * * * * * * * * * * * * * * * * * * * * //

dimensions      [0 1 -2 0 0 0 0];

internalField   nonuniform List<vector> 
11640
(
(0.00116239475607 0.00239052192465 -0.00356136862086)
(0.00473233176318 0.000958127785787 -0.00307256697879)
(0.00920310836977 -0.000465855311317 -0.00231392764318)
(0.0142595769697 -0.00177657137525 -0.00154677256976)
(0.0198930996366 -0.0031341410057 -0.000779215100505)
(0.0260819716914 -0.00461523028159 2.97134898197e-05)
(0.0329086832821 -0.00623273527517 0.000994569031345)
(0.0401410775505 -0.00784267011436 0.00215844318267)
(0.0471057394206 -0.00935519323042 0.00344985735279)
(0.0532664658128 -0.0106113463998 0.00488923848645)
(0.0576280467036 -0.011616953721 0.00642207268038)
(0.0596668764964 -0.012452856481 0.0079692433174)
(0.0589611679829 -0.0131457998688 0.00949222566984)
(0.0554768817707 -0.0138132876492 0.0109108839604)
(0.0495395085395 -0.0144551315376 0.0122039045845)
(0.0416925530719 -0.015113458086 0.0132752258557)
(0.0325875856596 -0.0156127839929 0.0140227309545)
(0.0228265974496 -0.0158373904839 0.0143549867769)
(0.012867452452 -0.0157821011276 0.014180380255)
(0.0044360458672 -0.0156101246972 0.01343306881)
(-0.000321531784633 0.00842293154104 -0.00309754761442)
(0.00194211949055 0.00572911373679 -0.00545487822533)
(0.00669929076012 0.00245943668503 -0.00556152969929)
(0.0118890741772 -0.000985124589182 -0.00514964783598)
(0.0174257659292 -0.00478183935142 -0.00464846781804)
(0.0234702774508 -0.00913718959257 -0.00400727363307)
(0.0302370046798 -0.014024710742 -0.00315223284026)
(0.0376113651572 -0.0188445654117 -0.00191274076047)
(0.0449639229572 -0.02344456405 -0.000547417874298)
(0.0515143670511 -0.027304245982 0.00103407194719)
(0.0562365738984 -0.0304315884814 0.00275108093875)
(0.0585394783196 -0.0329774019383 0.00454717851398)
(0.057961225319 -0.0351030331767 0.00637021672354)
(0.054548960257 -0.0371581339172 0.0079722258355)
(0.0486564171684 -0.039138343701 0.00939460485732)
(0.040884326366 -0.0412297489919 0.0105250478159)
(0.0320392292666 -0.043157225881 0.0114056031892)
(0.0227423853637 -0.0446135274906 0.0119761057822)
(0.0134520697528 -0.0454896155926 0.0121557269575)
(0.00488001274236 -0.0461162053248 0.012691825572)
(-0.00173939899188 0.0153270466345 -0.00233413736865)
(-0.00135984726371 0.0130285381228 -0.00554437722437)
(0.002636527864 0.00921854937001 -0.00637855770609)
(0.00719180390298 0.00445351833874 -0.00648842766638)
(0.0121066956431 -0.00130105195696 -0.0063571135063)
(0.0174703818158 -0.00826093202614 -0.00586882368124)
(0.024044755236 -0.0161221438338 -0.00500167194349)
(0.031613234326 -0.0239650337736 -0.00385120408642)
(0.0395571985331 -0.0314237886944 -0.00244445868368)
(0.0469626170885 -0.0377253697718 -0.000740327847016)
(0.0525140022075 -0.0428955792897 0.00116756645266)
(0.0554431599102 -0.0472350799683 0.00333627632954)
(0.0551758697594 -0.0509508649988 0.0055216041468)
(0.0518699825044 -0.0545636964023 0.00730137517156)
(0.0459658224087 -0.0581158131216 0.00881604364686)
(0.0382292027389 -0.0619082044988 0.00978069480547)
(0.0296816974714 -0.0655846765689 0.0104517434435)
(0.0209362814258 -0.0688854760205 0.0110207122179)
(0.0124501475601 -0.0715448149424 0.0114133247039)
(0.00457657542903 -0.0737141768647 0.0120730492405)
(-0.00294768106295 0.022626750411 -0.00151054378333)
(-0.00464880561301 0.0206966541163 -0.00507856230125)
(-0.00216000532991 0.0166621111067 -0.00647700606568)
(0.00110669439952 0.0109174460234 -0.00692795639692)
(0.00479512421507 0.00333442730794 -0.00697713011764)
(0.0091221038283 -0.00609904055662 -0.00643146494418)
(0.0152128875312 -0.0170359645535 -0.00575110101334)
(0.0229008222881 -0.0277567723965 -0.00447117733806)
(0.0317038269577 -0.0380424506066 -0.00309938127039)
(0.0403350667772 -0.0466149024539 -0.00122021370619)
(0.0469482609628 -0.0536842478639 0.00106585171147)
(0.0506766587583 -0.060074307616 0.00372716924778)
(0.0508699737464 -0.0656094587866 0.00640481640373)
(0.0476841069047 -0.0706372210953 0.00810146960597)
(0.041609323087 -0.0759499006147 0.00979033143856)
(0.0338332546914 -0.0818002035141 0.0104934996991)
(0.0255870891698 -0.0873233521464 0.0107534821056)
(0.0174860042334 -0.0923566768206 0.011035986874)
(0.0100154288081 -0.096507829817 0.0111563858227)
(0.00361834494156 -0.100146120767 0.0112439422321)
(-0.00408918702271 0.0299979142544 -0.000666352927433)
(-0.00799304742662 0.0283559972451 -0.00444909926403)
(-0.00739993786493 0.0241474679662 -0.006289075764)
(-0.00590927452904 0.0175814628342 -0.00697831213828)
(-0.00379559965045 0.00831332472326 -0.00702451628489)
(-0.00121345088179 -0.00329957854787 -0.00674716800596)
(0.00413235823224 -0.0171376718641 -0.0064925390155)
(0.0117016722812 -0.0307287460601 -0.00545231432775)
(0.0213919285285 -0.0437897133688 -0.00443049187834)
(0.0317406419249 -0.0545877227691 -0.00244088304729)
(0.0394450328815 -0.0637601420049 0.000195575363614)
(0.0440310169225 -0.0717058196011 0.00377988928756)
(0.0451864750268 -0.0785266786117 0.00738356491935)
(0.0422196040209 -0.083977223231 0.00811020598305)
(0.0354462709026 -0.0912688674008 0.00992274825495)
(0.0272733610625 -0.100695734916 0.0111296180036)
(0.0196090512146 -0.108511991203 0.0108849214279)
(0.012491995979 -0.115318177148 0.0108530436242)
(0.00641157691795 -0.120401322012 0.0107164802287)
(0.00214735569907 -0.124917402094 0.0100868895776)
(-0.00516736850369 0.0370710849196 0.000274251685392)
(-0.01134161578 0.0357112812206 -0.00367550896961)
(-0.0128252199645 0.0314525262716 -0.00570310182901)
(-0.013382030928 0.0244600647738 -0.00652669393638)
(-0.0134138566185 0.014490573002 -0.0065940652821)
(-0.0132444606378 0.0022662627229 -0.0067311403855)
(-0.00947358951919 -0.0120708139435 -0.0080340306788)
(-0.00238259211423 -0.0263560491955 -0.00710114948225)
(0.00825214840335 -0.0391388854926 -0.00766244446233)
(0.0202090401855 -0.0489859340699 -0.00629380366148)
(0.0297504685552 -0.0577160245813 -0.0037201408372)
(0.0361593459358 -0.0662724092441 -0.000968037032272)
(0.0393771952395 -0.0771351089142 0.00268339333642)
(0.0355399921225 -0.0893216146772 0.00596079941274)
(0.0254707910975 -0.102781682604 0.00844551977219)
(0.0171446100092 -0.115482089757 0.0114985223079)
(0.0112575055006 -0.127193028291 0.0105964248578)
(0.00607274494228 -0.135766794078 0.0106216130092)
(0.00215912347082 -0.142573619258 0.0101815741816)
(0.000421945740287 -0.148073336436 0.00787506649413)
(-0.00616320648563 0.0433932983382 0.00139802958503)
(-0.0144537359918 0.042215169991 -0.00251126256411)
(-0.0179392061248 0.0380576875118 -0.00456043848364)
(-0.0204693034142 0.0309939376102 -0.00539664319581)
(-0.0224839994741 0.0211842094582 -0.00563917366846)
(-0.0250077430339 0.00952803781392 -0.00626563068581)
(-0.0225482731914 -0.00462837942794 -0.00805444374026)
(-0.0148807895879 -0.0157567982375 -0.00768530351027)
(-0.00173410237625 -0.027275306277 -0.00984641202211)
(0.012697768034 -0.0368883666753 -0.00906932672138)
(0.0224185060355 -0.0484900653319 -0.00689728997439)
(0.0253221168229 -0.0621475766423 -0.00387658642009)
(0.0235829939155 -0.0850468980963 -0.000463679356145)
(0.0157549602066 -0.100067821235 0.00437256158309)
(0.00857807952267 -0.116842111122 0.00573801172763)
(0.00290310373155 -0.131146209045 0.00709727908802)
(-0.000542630900648 -0.144256171963 0.00725253743161)
(-0.00252008993656 -0.155010462821 0.00620906319956)
(-0.00429331217708 -0.163010895205 0.00641996262824)
(-0.00210114297785 -0.16908694043 0.00522266857188)
(-0.00705861047603 0.0484361414232 0.00266116393101)
(-0.0173423378441 0.0474500129551 -0.00105517620443)
(-0.0228372665733 0.0435663745222 -0.00301659714926)
(-0.0274217322772 0.0370234863449 -0.00375781726342)
(-0.0315676558533 0.0281323701804 -0.00407728642012)
(-0.0376089585683 0.017797824437 -0.00546779464479)
(-0.036868029991 0.0059363910999 -0.00798634494865)
(-0.0288582727072 -0.00259983545102 -0.00526129386828)
(-0.0162669332144 -0.0154953618554 -0.00699275487551)
(-0.0028051641615 -0.0264993617377 -0.00531780460968)
(0.00357975902744 -0.0414915540199 -0.00219343035351)
(-0.000566540371908 -0.0594855689901 0.00214788281836)
(0.00245347904911 -0.0882320124653 0.00370479750161)
(0.00402775402561 -0.104998046359 0.00515444706865)
(-0.0065471401229 -0.12962221865 0.00424765874297)
(-0.0106193635169 -0.146596393837 0.00445823570687)
(-0.0124107710438 -0.160615671966 0.00489166826354)
(-0.0122419886206 -0.172494898137 0.00354025661555)
(-0.010495051697 -0.180410223827 0.00392991354678)
(-0.00447022395017 -0.186419710784 0.0025846695644)
(-0.00782338637091 0.0516553143696 0.00408557548958)
(-0.0198375513193 0.0508252777478 0.000654699772595)
(-0.0269082139667 0.0472828121141 -0.00101627708043)
(-0.0328871086952 0.0414315399229 -0.00152070021982)
(-0.0383627556035 0.0337688023098 -0.00152034665739)
(-0.0453732610983 0.0249459748233 -0.00308054158392)
(-0.0454030156745 0.0159297346064 -0.00506280573563)
(-0.0403323969152 0.00780072169141 -0.0034164269042)
(-0.0290117509499 -0.00556736045425 -0.00520088105096)
(-0.0156425604523 -0.0198189164472 -0.00211985551934)
(-0.0118864273325 -0.0370531662412 0.00123132592257)
(-0.0231801623124 -0.0578570699403 0.00634988049522)
(-0.0258201970094 -0.0849668819487 0.00700847490203)
(-0.0267680039316 -0.108361024232 0.00546924224367)
(-0.0327186297857 -0.137741008241 0.00320895839633)
(-0.0295273389245 -0.15774161911 0.00274853414421)
(-0.0263389255516 -0.173276149001 0.00270518124798)
(-0.0221958099096 -0.185164452155 0.00110851952374)
(-0.0170116434084 -0.193213479622 0.00126895386254)
(-0.00702594323264 -0.19913990063 -0.000635244343363)
(-0.00853809172177 0.0525068173988 0.005517626512)
(-0.0221334054715 0.0517594039956 0.00240934333)
(-0.0306745738847 0.0483197753625 0.00100942627143)
(-0.0379341416759 0.0426575445093 0.000874040466724)
(-0.0446304515231 0.0354568663028 0.00124148941385)
(-0.052751284022 0.0277932314152 -0.0001290658515)
(-0.0554375600746 0.0217856766003 -0.00211757766284)
(-0.054117339429 0.0150897694212 -4.81421318922e-05)
(-0.0461025601877 0.0020161006815 -0.00199674726004)
(-0.0365304250607 -0.0175631259864 0.000181811039179)
(-0.0360804333707 -0.0430676435829 0.00275314053424)
(-0.0507389377769 -0.0732081659904 0.00724388187008)
(-0.0525305799438 -0.100504702538 0.00506623238282)
(-0.0498150340886 -0.124370944381 0.00318796826725)
(-0.0542289317723 -0.147922587637 0.00136688862169)
(-0.0474971281671 -0.166752934984 0.000574046999892)
(-0.0402480058492 -0.181776988418 0.000124294290051)
(-0.0321889436448 -0.193156309454 -0.00152603709796)
(-0.0234026809348 -0.200838373929 -0.00171110570643)
(-0.0094497879312 -0.206507626063 -0.00391042010188)
(-0.00925508543797 0.0509989515803 0.00698455018084)
(-0.0244807759454 0.0500939233314 0.00418914841722)
(-0.0344478667892 0.0463616874613 0.00310165619889)
(-0.0427348357467 0.0403113197871 0.00327629665613)
(-0.0499205449229 0.0325875303875 0.00398145759671)
(-0.0573075848437 0.0246247304937 0.00285264746847)
(-0.0604607415376 0.0200215328348 0.00228744200483)
(-0.0641762484668 0.0202922128318 0.00210759124042)
(-0.0643332605973 0.00515905169633 0.000456297303108)
(-0.0641796444664 -0.0226972085346 0.00217597002091)
(-0.0697873401793 -0.0542692510105 0.00412511685103)
(-0.0826309843316 -0.0864539567225 0.00570132538738)
(-0.079112581745 -0.107984506674 0.00194611412728)
(-0.0724854019198 -0.136107799442 0.00124765226904)
(-0.0746517468314 -0.154085375558 -0.000746111387978)
(-0.0647412092356 -0.171628645175 -0.00186494888935)
(-0.0536328281133 -0.185642119366 -0.00273468805192)
(-0.0417669081831 -0.195998661068 -0.00426092140775)
(-0.0294674508806 -0.203035413026 -0.00480106867393)
(-0.0117584678822 -0.208171278048 -0.00723111853743)
(-0.010124778525 0.0472701102435 0.00841194047192)
(-0.0271871263995 0.0461090379016 0.00590730585718)
(-0.0389726863471 0.0419477474067 0.00500028876029)
(-0.0489235150979 0.035148857521 0.00536798376999)
(-0.0575503617634 0.0258840046358 0.0062512703674)
(-0.0642782858254 0.0153054536869 0.0067324116822)
(-0.0685107684858 0.00606327928103 0.0090057379196)
(-0.0771495678342 -0.00713201323878 0.0120612897231)
(-0.0876579356099 -0.0223922362842 0.0116251496168)
(-0.0942479243571 -0.0472613216004 0.00961160684455)
(-0.0992265570402 -0.0722339085519 0.00712834362757)
(-0.105163585994 -0.097273884383 0.00425983573235)
(-0.100850558296 -0.113181606072 -0.000813910708701)
(-0.094877936329 -0.139466644067 -0.00103587189023)
(-0.092458168001 -0.155782355943 -0.00336655157276)
(-0.0800634027145 -0.171142662604 -0.00501757037352)
(-0.0661503684789 -0.18366279151 -0.00689185018196)
(-0.0504010474009 -0.192932305046 -0.0071144253178)
(-0.0348669369925 -0.199211191777 -0.0079749560931)
(-0.0138168563098 -0.203879436475 -0.0104786719405)
(-0.0110846512288 0.0418986327971 0.00971867815946)
(-0.0302112995027 0.0404469555055 0.00747150222641)
(-0.0440245535233 0.0358917991222 0.00670445986653)
(-0.0559448414996 0.0285010867013 0.00704802513748)
(-0.0658676672544 0.0181632855072 0.00784085378614)
(-0.0739996372137 0.00624177614763 0.00751346600582)
(-0.0829232239658 -0.00810362384176 0.0092504637966)
(-0.092949290997 -0.0268866945181 0.00723419731859)
(-0.103655151201 -0.0434647804978 0.00675590905987)
(-0.113883169602 -0.0615416111451 0.0079608345996)
(-0.122476986323 -0.0815927337746 0.00609110615694)
(-0.127727935232 -0.101618032431 0.00283172405192)
(-0.124844333589 -0.117288354115 -0.00167772033025)
(-0.116751018463 -0.138800685106 -0.00322089248764)
(-0.10874004579 -0.153330102438 -0.00598785721347)
(-0.0944502067584 -0.165856842206 -0.00784241926416)
(-0.0772097908888 -0.176187954603 -0.00933630034132)
(-0.0582086503685 -0.184043305977 -0.00985538056969)
(-0.0399766893396 -0.189633515177 -0.0110388876833)
(-0.0158196753173 -0.193698101504 -0.0135569252875)
(-0.0121382857168 0.0353918098911 0.0108092881986)
(-0.0335642266278 0.0337211583473 0.00870897949766)
(-0.0498824772714 0.0289934187663 0.00791619049759)
(-0.0645253843412 0.0212905861725 0.00817677714892)
(-0.0771282936915 0.0102890562349 0.00889047495028)
(-0.0887085106657 -0.00296078704395 0.00789145159447)
(-0.101114879603 -0.0192731640961 0.00826380327655)
(-0.113090320318 -0.0376299136501 0.0076828164756)
(-0.12383932672 -0.055796636443 0.00655752433824)
(-0.132885616567 -0.0745135754637 0.00431511473843)
(-0.139222007757 -0.0914148535781 0.00183287362909)
(-0.14166071666 -0.106680418665 -0.0011574953275)
(-0.13847661824 -0.119979892508 -0.00451689619672)
(-0.130486155621 -0.135290588146 -0.0061446141905)
(-0.120608066056 -0.146099571658 -0.00917697449806)
(-0.104950128434 -0.155651676811 -0.0109738013212)
(-0.0857073459974 -0.163794923579 -0.0116669192723)
(-0.0647983579911 -0.170243948442 -0.0124756232833)
(-0.0442029050642 -0.174902793557 -0.0139276263276)
(-0.0173799088252 -0.178208893919 -0.0163369275771)
(-0.013239798768 0.0283589093235 0.0116829409088)
(-0.0368922620898 0.026696319133 0.00963463176056)
(-0.0558009058235 0.0221466982526 0.00875580001432)
(-0.0733523047333 0.0148592577173 0.00893020599769)
(-0.0883630704369 0.00468767890226 0.00988227232376)
(-0.102368472667 -0.00769398616101 0.00779847196988)
(-0.116825509501 -0.0222275336155 0.00716925950525)
(-0.129816726044 -0.0377582640731 0.00574860472364)
(-0.140940666995 -0.0536648357993 0.00419316149384)
(-0.149574688659 -0.0696310278169 0.00199370524105)
(-0.154911145564 -0.0845855663136 -0.000809697559207)
(-0.155884488716 -0.0982639814779 -0.00376758697655)
(-0.151594998991 -0.110349060377 -0.00694741486601)
(-0.143063103262 -0.122430293876 -0.00943960695962)
(-0.130418290525 -0.131940208074 -0.0114820852426)
(-0.113226244817 -0.139936577017 -0.0128367354955)
(-0.0927402062764 -0.146622241433 -0.0138038364203)
(-0.070127094664 -0.151929061322 -0.0148437026441)
(-0.0476447277515 -0.15569881072 -0.0165317625918)
(-0.0186550621425 -0.158456971932 -0.0187300026643)
(-0.014269826828 0.0214217024544 0.0123933659934)
(-0.0399934657873 0.0199629142798 0.0103697847491)
(-0.0612984835416 0.0158085883051 0.0093226105745)
(-0.0814305490502 0.00931007441491 0.00926830956266)
(-0.0989486435003 0.000491306360851 0.00989261553624)
(-0.115206960654 -0.0106615076916 0.0075143000387)
(-0.131120523693 -0.0233923762293 0.0063327306601)
(-0.144658463325 -0.0368381241953 0.00475378964029)
(-0.155626157507 -0.0504810446107 0.00281211788131)
(-0.16357239223 -0.0636384864159 0.000421267863428)
(-0.16760315311 -0.0759312596949 -0.00232815968953)
(-0.167065453872 -0.0870286436595 -0.00519983351357)
(-0.161740302007 -0.097035146752 -0.00807719052857)
(-0.151974706758 -0.106361157491 -0.0104751877839)
(-0.137908317569 -0.114071132341 -0.0126051091742)
(-0.119736131361 -0.120549671626 -0.0142799845601)
(-0.0982474694547 -0.125892036121 -0.0157169241667)
(-0.0743526400328 -0.130195100616 -0.0170249201245)
(-0.0503925384343 -0.133040022109 -0.0188379626379)
(-0.0196317208956 -0.134748854428 -0.020684310428)
(-0.0151046591692 0.0149230158432 0.0128512498181)
(-0.0427565872707 0.0138639788476 0.0108693619592)
(-0.0661314483656 0.0103340542687 0.00973798892992)
(-0.0884463532502 0.00485339693832 0.009425666085)
(-0.10813855407 -0.00236074804041 0.00975526033434)
(-0.126220670167 -0.0117157589938 0.00716744462616)
(-0.143132566029 -0.0220936690032 0.00571463240841)
(-0.157012139891 -0.0328948881762 0.00393892958671)
(-0.167809528628 -0.0438201251953 0.00179119269236)
(-0.174936681543 -0.0542699444426 -0.000690903239954)
(-0.177909716595 -0.063908335175 -0.00337849369193)
(-0.176227226068 -0.072613485386 -0.00613549979587)
(-0.169809327212 -0.0804077110129 -0.00883236890361)
(-0.158987510164 -0.0874348110351 -0.0113518850996)
(-0.143905969632 -0.0933997838329 -0.0135596287678)
(-0.124887500485 -0.0984037772521 -0.0155562865581)
(-0.102555998573 -0.102511327688 -0.0172950119943)
(-0.0774645780373 -0.105484825686 -0.0187575361479)
(-0.0519366705348 -0.107155869135 -0.0205681220449)
(-0.0200259373495 -0.107798895342 -0.022115940756)
(-0.0156526764497 0.00914306810676 0.0130069860972)
(-0.0449118061592 0.00854577749464 0.011179511755)
(-0.0701910303026 0.00587493336425 0.0101082075137)
(-0.0940508884807 0.00158249859811 0.00960956673303)
(-0.115596102423 -0.00374468697361 0.0095493812658)
(-0.135195426186 -0.0112123935912 0.00683685263544)
(-0.152703612625 -0.0190203111095 0.00516918464813)
(-0.166777443466 -0.0270217737508 0.00329478435927)
(-0.177296299314 -0.0350957906699 0.000961233273233)
(-0.183778404961 -0.042748454424 -0.00154568828199)
(-0.18587863287 -0.0497611790212 -0.00419687310504)
(-0.183289676188 -0.0559875275302 -0.00688912911794)
(-0.17607305903 -0.0616192094599 -0.00956572644946)
(-0.164373719018 -0.066515345217 -0.0121388191257)
(-0.148423934484 -0.0706771338592 -0.0145660938134)
(-0.128618032308 -0.0740457902782 -0.0167813399899)
(-0.105342683519 -0.076648130636 -0.018612872617)
(-0.0791006182061 -0.0781941095124 -0.0201313939612)
(-0.05255405004 -0.0789577182187 -0.021690737141)
(-0.02008034724 -0.0788859564565 -0.0229576112461)
(-0.0159627280649 0.00410501433168 0.012760460358)
(-0.0464860971016 0.00414923719119 0.0110853867899)
(-0.0733467709481 0.00250376278236 0.0100521307263)
(-0.0982919746295 -0.000447880083645 0.00924580206197)
(-0.12128321557 -0.00417254745153 0.00783180439752)
(-0.142026551701 -0.00925688368691 0.00602767790613)
(-0.159638733775 -0.0144670292454 0.00418227916082)
(-0.173774856498 -0.0198037195498 0.00209593375217)
(-0.184065419764 -0.0251631682739 -0.000484939712155)
(-0.190049771422 -0.0301931179851 -0.00301861062106)
(-0.191462700984 -0.0347508719289 -0.00568505303716)
(-0.188294092401 -0.0388346571852 -0.00845476979259)
(-0.18038004436 -0.0423518997795 -0.011110535961)
(-0.167967138882 -0.0453134488019 -0.0136901631224)
(-0.151350304783 -0.0479178203545 -0.0161481763027)
(-0.130858411227 -0.0498212672909 -0.0183829795047)
(-0.106790481962 -0.0510837553587 -0.0201860501204)
(-0.0798113268275 -0.0516212375855 -0.0214491544031)
(-0.0524028963178 -0.0515491729692 -0.0224942591253)
(-0.0196162375421 -0.0494331685021 -0.023216196428)
(-0.0160866193304 0.00132337493948 0.0119451022895)
(-0.0475800681239 0.00149750943315 0.0108486837209)
(-0.0757667674624 0.000899263835631 0.00973837086442)
(-0.101864786072 -0.00024867385339 0.00836552857205)
(-0.125737695808 -0.00183479577102 0.00638536485994)
(-0.147010195049 -0.00372036525391 0.00425238036073)
(-0.1649279967 -0.00575621160142 0.00192232523122)
(-0.179149701932 -0.00785870469774 -0.000522194194883)
(-0.189218871611 -0.00999693150992 -0.00334996019491)
(-0.19483138983 -0.0119339052605 -0.00601816135549)
(-0.195837655705 -0.0137275052762 -0.00866983952958)
(-0.192071307633 -0.0153247443182 -0.0112764614074)
(-0.183514621303 -0.0166572473716 -0.0136921534001)
(-0.170667661493 -0.0177729410092 -0.0160194012009)
(-0.153464526026 -0.0187617560238 -0.0181133244218)
(-0.13215823562 -0.019434909387 -0.0199632646216)
(-0.107376374835 -0.0197557024353 -0.0215049066148)
(-0.0797718320238 -0.0197796071905 -0.0225352515429)
(-0.0502849318513 -0.0193761975115 -0.0229884789203)
(-0.0175127958779 -0.0173081863776 -0.0230245448772)
(0.00214432816124 0.00338199723814 -0.00817184175772)
(0.00587149473084 0.00340051933141 -0.00743572897718)
(0.0106242478703 0.00247813869233 -0.00574981396084)
(0.0158845571795 0.00139029952665 -0.00377230081861)
(0.0217292112919 0.00013725692105 -0.00170336995558)
(0.0281218881552 -0.00125517746529 0.00056043063883)
(0.035229963503 -0.00283184033743 0.00326294237352)
(0.0426607497949 -0.00439679038952 0.00647632373204)
(0.0497275747037 -0.0059184954101 0.0100979179292)
(0.0559307017361 -0.00722942858345 0.014111742562)
(0.0602511767121 -0.00828097550181 0.0184383241584)
(0.0621912550109 -0.00915881479071 0.022856892741)
(0.0612924382463 -0.00989366886352 0.0272101587499)
(0.0575881102085 -0.0106414247767 0.0311965145026)
(0.0514053320927 -0.0113267900333 0.0348064044784)
(0.0431744903919 -0.0120152422662 0.0377640744598)
(0.0335322780634 -0.0125889616592 0.0399377007258)
(0.02315580634 -0.0130377938674 0.0411459791805)
(0.0124284324836 -0.0137379937722 0.0413364919697)
(0.00402675690807 -0.0153495394437 0.0404622128689)
(0.00207348534385 0.00958408027096 -0.00741482705505)
(0.00511847003666 0.00890852501083 -0.0106937713377)
(0.00936341174966 0.00651959377749 -0.0105868001462)
(0.014418115432 0.00351915319012 -0.0094290363585)
(0.0201199683738 -8.50587453579e-05 -0.00791026597012)
(0.0264144483216 -0.00432094144761 -0.00592727089001)
(0.0335276912205 -0.00913668058354 -0.00330453363425)
(0.0411473565733 -0.0140469876904 -6.16567633734e-05)
(0.048581345196 -0.0186493972809 0.00366579438487)
(0.0551231324599 -0.0225780263378 0.00791646785898)
(0.059721111826 -0.0257887709633 0.0125614360053)
(0.0618154991661 -0.0284783279325 0.017347113878)
(0.0609101122415 -0.0306900683056 0.0220237529948)
(0.0571174803628 -0.0328788910274 0.02624890434)
(0.050878514593 -0.0350556130542 0.0299731668743)
(0.0426841124777 -0.0374142320432 0.0330223140406)
(0.0333297318945 -0.0396092119168 0.0353514794756)
(0.0234212248797 -0.041528297348 0.0370022239049)
(0.0137362223788 -0.0435652962371 0.0378549700894)
(0.00508261271199 -0.0465410048881 0.038430297671)
(0.00113244348796 0.0167667332963 -0.00563930563446)
(0.00266800255054 0.0155930572444 -0.0105018893007)
(0.00590366419286 0.0123967747058 -0.0118771400994)
(0.0101067647152 0.00807271193989 -0.011920100324)
(0.0150749957532 0.00260363155251 -0.0111614713579)
(0.0207740571887 -0.00409825735464 -0.0095020502618)
(0.027593849856 -0.0119570448985 -0.0069872034316)
(0.0354072653834 -0.0200366644207 -0.00402262848667)
(0.0435452704066 -0.0275223675814 -0.000264119902921)
(0.0509093749031 -0.0338308529482 0.00418985879848)
(0.056228871519 -0.0390302251941 0.00914490869651)
(0.0588910521343 -0.0434264114459 0.0140817400673)
(0.0582167310007 -0.0471121852605 0.0190450166602)
(0.0543969084831 -0.0508703669649 0.0233135398403)
(0.0480982639574 -0.054796270052 0.0269851054905)
(0.0400146670708 -0.0591732414849 0.0299633563731)
(0.0310566847341 -0.0634282188487 0.0324176525833)
(0.0218004915155 -0.0672802806391 0.0342992983263)
(0.0129701007959 -0.0707472946634 0.0354046215873)
(0.00496399087231 -0.0743490684316 0.0362002093179)
(9.37961043183e-05 0.0242673622925 -0.00353910963028)
(-0.000331377221732 0.0230933597565 -0.00924075136461)
(0.00127304022379 0.0195257763528 -0.0119587625227)
(0.00404057658107 0.0142482337236 -0.0129724175918)
(0.00772935229452 0.00712285925762 -0.0127214103505)
(0.0122643677536 -0.00200220350118 -0.0113490491644)
(0.0184352506602 -0.0131153212247 -0.00934820545222)
(0.026384641069 -0.0245295410005 -0.0070077579476)
(0.0356043507631 -0.0348797749695 -0.00347005119695)
(0.0442969066571 -0.04339388626 0.00117578108808)
(0.050750448329 -0.0503677774745 0.0064415962955)
(0.0542299738232 -0.0562225587317 0.0116794220109)
(0.0538475911375 -0.0613284560321 0.0171424531568)
(0.049864495223 -0.0668940332947 0.0214688352274)
(0.0433889202554 -0.0726931493853 0.0250631720992)
(0.0353412850651 -0.0793632388762 0.0278616438698)
(0.0268994861682 -0.0859117628727 0.0301748324133)
(0.0184655901608 -0.0917697199243 0.0320316969675)
(0.0107153266152 -0.0966647683355 0.0329961404482)
(0.00407507108279 -0.101068038275 0.0332068945329)
(-0.000993716263281 0.0318412856647 -0.00124611553451)
(-0.00369097470051 0.0308839015392 -0.00764856125067)
(-0.00411440732422 0.0271919081893 -0.0113599475118)
(-0.00325275512281 0.0212168014838 -0.013037492305)
(-0.00138056549868 0.0126002783053 -0.0131899549437)
(0.00123215369834 0.00122319574433 -0.0124480883786)
(0.00630797439471 -0.0130922052879 -0.0115013114298)
(0.0141062702419 -0.0277191937738 -0.0110785816496)
(0.0246502176862 -0.0409326076038 -0.00831979927101)
(0.0352171844399 -0.0517550433155 -0.00393235576424)
(0.0433903151605 -0.0608173488285 0.00159405275339)
(0.0479581582167 -0.0689964169342 0.00769329522866)
(0.0476430068203 -0.0763616293139 0.0142582510586)
(0.0430844205093 -0.0812205568607 0.0189270055882)
(0.0362809846156 -0.0890100377016 0.0230336003736)
(0.0284304364392 -0.0979403548924 0.0252747310449)
(0.0207109504932 -0.106916790613 0.0273307682468)
(0.0135705917727 -0.114694843569 0.0290317098304)
(0.00731651951947 -0.12086153418 0.0296417041701)
(0.00270901967195 -0.126670813417 0.0290183632261)
(-0.00212257399577 0.0391757310238 0.00133944794916)
(-0.00719261777381 0.0385533324304 -0.00550203718846)
(-0.00985286920742 0.034965690321 -0.00976481657625)
(-0.0114230016445 0.0287097945702 -0.0119345100991)
(-0.0122496740347 0.0192356930223 -0.0126732484816)
(-0.0132148130614 0.0063637812966 -0.0132253861626)
(-0.0104532424873 -0.0100019721318 -0.0138941967059)
(-0.00287381187615 -0.0290822416855 -0.0176155546718)
(0.00976840663894 -0.0436172847617 -0.0173851179463)
(0.0230165711634 -0.0550819421774 -0.0140557311707)
(0.0326084975087 -0.0651459268525 -0.00870062564206)
(0.0382710730331 -0.0744494145017 -0.00232012988129)
(0.0420321224918 -0.084410687599 0.00459546996978)
(0.0369458163462 -0.090788168351 0.00972354373814)
(0.0273609246646 -0.103367753053 0.0161720071649)
(0.0191261403589 -0.115754415738 0.0217768438193)
(0.0122973890073 -0.126993269177 0.0236246329758)
(0.00722602071463 -0.137057737895 0.0250577412415)
(0.00251170681908 -0.144752068117 0.0246862217976)
(0.000454816364186 -0.150625316681 0.0229568797103)
(-0.00317901725157 0.045713143221 0.00445547948057)
(-0.0105269343791 0.0454378769522 -0.00243045027251)
(-0.0154277801793 0.0421408163966 -0.00686339874018)
(-0.0196128914455 0.0362277352297 -0.00941418234819)
(-0.0239076011851 0.0273573391114 -0.011285292103)
(-0.0302345133517 0.0160696915363 -0.0144801424772)
(-0.0365346898555 0.00245076529373 -0.0199768246611)
(-0.0252982453452 -0.0142812482898 -0.0358172052843)
(-0.00338027777496 -0.0238800153142 -0.0414335936519)
(0.0122286835692 -0.0307509206178 -0.0422741918675)
(0.0229770028705 -0.0387829209173 -0.0399019159824)
(0.0277003156831 -0.0489950507494 -0.0321531392874)
(0.03214194215 -0.0699493061267 -0.0230910820823)
(0.0246600102635 -0.0961710125871 0.00469330274112)
(0.0113350242577 -0.115467670716 0.0111242622029)
(0.00563184002697 -0.132041663945 0.0149001455241)
(0.00134337933021 -0.146016651101 0.0173661551704)
(-0.00148650706804 -0.157357547575 0.0174613902273)
(-0.00236443317025 -0.166156065757 0.0177333370341)
(-0.000864222341681 -0.171909485128 0.0156489882616)
(-0.00416516509851 0.0509175392192 0.00797780949756)
(-0.0136131649075 0.0509507789627 0.00145405482514)
(-0.0205255671523 0.0481100287813 -0.00272637552088)
(-0.0268045881322 0.043064950961 -0.00495626824554)
(-0.0333318443514 0.0360499250015 -0.00609992353555)
(-0.0430712092509 0.0275947447289 -0.00820874683729)
(-0.0578669533812 0.0183535788834 -0.0134324408943)
(-0.0390010503512 0.00446069003814 -0.0384617405752)
(-0.0104215742581 -0.0031334112468 -0.0311358399907)
(0.00747250295399 -0.00868549571023 -0.0125106316683)
(0.0134601936488 -0.0185728416444 0.00149924126636)
(0.00561898053916 -0.0323724678312 0.0236095111472)
(-0.00319713621999 -0.0612199403054 0.0295071236052)
(-0.00537728160347 -0.0993199972175 0.00938442322366)
(-0.00897113948963 -0.124904904958 0.00997352322936)
(-0.0100992533327 -0.144506916316 0.00977873983511)
(-0.0110515761241 -0.161199319186 0.0093902483839)
(-0.0105440843945 -0.173723948641 0.0103766035667)