/*--------------------------------*- C++ -*----------------------------------*\
| =========                 |                                                 |
| \\      /  F ield         | OpenFOAM: The Open Source CFD Toolbox           |
|  \\    /   O peration     | Version:  v1606+                                |
|   \\  /    A nd           | Web:      www.OpenFOAM.com                      |
|    \\/     M anipulation  |                                                 |
\*---------------------------------------------------------------------------*/
FoamFile
{
    version     2.0;
    format      ascii;
    class       volScalarField;
    location    "1.55";
    object      alpha.particles;
}
// * * * * * * * * * * * * * * * * * * * * * * * * * * * * * * * * * * * * * //

dimensions      [0 0 0 0 0 0 0];

internalField   nonuniform List<scalar> 
6000
(
0.434429
0.434429
0.434429
0.432672
0.418835
0.390477
0.371394
0.385708
0.416223
0.416225
0.416225
0.416226
0.416226
0.416226
0.416226
0.416226
0.416227
0.416226
0.416226
0.413766
0.377162
0.389335
0.412432
0.433251
0.440441
0.44321
0.44321
0.443209
0.426071
0.443167
0.405566
0.397517
0.386163
0.366157
0.348144
0.348108
0.3481
0.348062
0.353949
0.371259
0.381204
0.384162
0.397386
0.403334
0.398952
0.399548
0.402869
0.384813
0.373663
0.357082
0.356954
0.357062
0.357048
0.372084
0.389287
0.408571
0.419942
0.420448
0.420523
0.422337
0.452201
0.453264
0.455761
0.433478
0.401595
0.373703
0.351152
0.348113
0.348097
0.352276
0.373227
0.383978
0.383958
0.364453
0.348154
0.352588
0.381654
0.38474
0.382848
0.358133
0.357067
0.374566
0.417882
0.448483
0.468593
0.477701
0.477671
0.464184
0.438872
0.438568
0.442123
0.442091
0.479316
0.484788
0.472935
0.428893
0.368348
0.348108
0.34815
0.348148
0.352292
0.365609
0.352608
0.321411
0.314136
0.314451
0.340522
0.383536
0.369398
0.35713
0.357239
0.390212
0.47671
0.499111
0.499109
0.482347
0.449629
0.413199
0.386612
0.409073
0.376494
0.365341
0.417986
0.485963
0.513511
0.513306
0.446429
0.36799
0.349659
0.348195
0.348219
0.348356
0.328036
0.314269
0.314392
0.314294
0.314637
0.35698
0.357332
0.35725
0.357131
0.412796
0.499111
0.49911
0.462607
0.41322
0.369102
0.33952
0.328641
0.340086
0.321089
0.321082
0.323472
0.383298
0.496722
0.516793
0.516675
0.419212
0.372306
0.356201
0.356318
0.354116
0.324312
0.314456
0.314325
0.314427
0.314353
0.333808
0.355564
0.368984
0.385658
0.445183
0.495505
0.471101
0.375833
0.342559
0.328896
0.32845
0.328529
0.328447
0.321094
0.321089
0.321094
0.3211
0.366356
0.497091
0.51862
0.465162
0.41683
0.391244
0.384902
0.373482
0.333811
0.314447
0.314497
0.314357
0.314464
0.33094
0.367107
0.408313
0.44726
0.485936
0.499392
0.451402
0.377548
0.342461
0.335249
0.328661
0.328458
0.32855
0.321099
0.321094
0.321099
0.321105
0.321112
0.406472
0.518579
0.496218
0.470355
0.449118
0.434988
0.41219
0.363167
0.329121
0.32146
0.319775
0.322031
0.343016
0.396989
0.460481
0.503122
0.518145
0.524819
0.487643
0.418351
0.379339
0.375884
0.351562
0.328668
0.328577
0.330498
0.330784
0.336267
0.333852
0.340919
0.405713
0.522568
0.523155
0.517096
0.508482
0.492679
0.466184
0.418262
0.37426
0.358092
0.355702
0.360586
0.385504
0.443246
0.502097
0.527697
0.529821
0.530131
0.52848
0.460237
0.437221
0.439251
0.416126
0.367312
0.348895
0.387958
0.394149
0.407042
0.398735
0.418562
0.463222
0.536333
0.537897
0.539638
0.537982
0.531137
0.515297
0.48324
0.445062
0.426838
0.425348
0.430642
0.451535
0.49071
0.521875
0.529809
0.529814
0.530096
0.493547
0.442013
0.459155
0.474315
0.474312
0.439126
0.406449
0.465669
0.472103
0.482616
0.470491
0.481901
0.513902
0.541727
0.541745
0.542062
0.542108
0.542045
0.537972
0.524776
0.505085
0.492516
0.494924
0.498713
0.507945
0.520655
0.529117
0.529892
0.529832
0.494225
0.355758
0.355408
0.408694
0.445036
0.474315
0.474313
0.473517
0.493469
0.479491
0.482739
0.477877
0.449401
0.481989
0.541597
0.540913
0.542137
0.542068
0.542126
0.541811
0.536908
0.529873
0.524927
0.532458
0.534853
0.534854
0.534853
0.534841
0.520602
0.43841
0.293816
0.210583
0.268654
0.356044
0.392563
0.415981
0.47255
0.517177
0.488295
0.433996
0.453024
0.433781
0.376609
0.385566
0.470103
0.520071
0.542027
0.542134
0.542068
0.542126
0.542046
0.541987
0.538048
0.513499
0.494311
0.48406
0.471646
0.433412
0.331863
0.207957
0.144533
0.150675
0.243283
0.358166
0.385857
0.380552
0.394712
0.503619
0.435473
0.383386
0.392322
0.392483
0.316897
0.25709
0.282405
0.355926
0.47176
0.53651
0.542059
0.541998
0.533743
0.479308
0.404849
0.33463
0.290889
0.268147
0.243185
0.197822
0.146096
0.118522
0.114646
0.139042
0.242251
0.37846
0.397987
0.380551
0.380553
0.430529
0.412587
0.382342
0.382177
0.420382
0.293586
0.163479
0.132944
0.149051
0.256145
0.359028
0.412895
0.421794
0.376228
0.307776
0.241833
0.201473
0.177718
0.157549
0.138233
0.122198
0.114673
0.114659
0.114663
0.150922
0.256212
0.384963
0.410475
0.380552
0.380552
0.396085
0.419559
0.38219
0.382346
0.443529
0.303195
0.133682
0.0876939
0.0838809
0.138458
0.212971
0.271534
0.291229
0.281789
0.263895
0.243785
0.224089
0.203417
0.177784
0.151071
0.128467
0.117272
0.114672
0.124021
0.191811
0.303907
0.391567
0.420213
0.396442
0.38175
0.40972
0.434407
0.382338
0.382222
0.443334
0.33754
0.131509
0.0835344
0.0836872
0.112223
0.185847
0.258119
0.297755
0.309181
0.307473
0.302681
0.29211
0.266137
0.229271
0.188599
0.149288
0.128036
0.125625
0.157508
0.253078
0.358921
0.428683
0.45106
0.441287
0.425085
0.448533
0.452373
0.382359
0.382375
0.413399
0.390391
0.132304
0.0836957
0.0835992
0.101339
0.180566
0.265702
0.32271
0.355731
0.368284
0.369738
0.363436
0.336078
0.291695
0.236109
0.179975
0.147837
0.15797
0.225452
0.333075
0.429593
0.484612
0.498102
0.498355
0.492119
0.499695
0.476979
0.410414
0.404313
0.404552
0.41113
0.16626
0.0838091
0.0837074
0.0955903
0.18426
0.288034
0.347431
0.390682
0.415394
0.425253
0.426874
0.406422
0.360258
0.293439
0.224355
0.183741
0.218848
0.32019
0.42835
0.500156
0.525706
0.532804
0.536097
0.536448
0.537055
0.508981
0.463406
0.451385
0.430434
0.422952
0.252576
0.10087
0.0878786
0.0963723
0.194702
0.328142
0.381703
0.427498
0.45862
0.472814
0.476273
0.467429
0.432536
0.366507
0.289901
0.249837
0.313462
0.423551
0.504795
0.534799
0.541698
0.544964
0.546614
0.547672
0.547851
0.533251
0.516014
0.510782
0.496518
0.480536
0.378539
0.175089
0.128729
0.128617
0.231558
0.387324
0.438373
0.481816
0.504789
0.512809
0.513677
0.509145
0.492466
0.443643
0.375102
0.355651
0.423358
0.505528
0.540112
0.545448
0.547615
0.547855
0.547863
0.547863
0.547866
0.541009
0.541002
0.540994
0.540979
0.536477
0.500809
0.323919
0.244773
0.230585
0.336889
0.468941
0.506325
0.530204
0.53754
0.53891
0.537137
0.532807
0.525257
0.499753
0.45997
0.465936
0.509941
0.540652
0.546497
0.547848
0.547859
0.547865
0.547865
0.547873
0.547867
0.541014
0.541007
0.540953
0.540917
0.53745
0.50681
0.442045
0.366756
0.365092
0.471147
0.533131
0.54643
0.547689
0.547699
0.547698
0.546868
0.544449
0.5396
0.526549
0.513904
0.525736
0.541881
0.541952
0.544285
0.546826
0.547787
0.547777
0.547784
0.547771
0.547776
0.540949
0.527001
0.40447
0.369712
0.36951
0.373722
0.391988
0.366069
0.405705
0.486283
0.547345
0.547487
0.547517
0.547708
0.547709
0.547708
0.547705
0.547652
0.54136
0.534065
0.539874
0.54187
0.521958
0.502774
0.492624
0.467318
0.438591
0.413714
0.401331
0.387472
0.413739
0.302176
0.207421
0.190908
0.194165
0.208427
0.252719
0.284003
0.325061
0.366631
0.425514
0.478006
0.526548
0.547607
0.547692
0.547709
0.547709
0.547709
0.547696
0.542802
0.520187
0.425315
0.351475
0.323128
0.311227
0.300277
0.289387
0.285015
0.284579
0.284346
0.289056
0.204373
0.170712
0.170711
0.170711
0.171102
0.184705
0.201825
0.215432
0.216964
0.231874
0.269659
0.337876
0.446571
0.529595
0.547592
0.547674
0.547706
0.547698
0.538325
0.381435
0.255642
0.227593
0.226188
0.231566
0.255806
0.286535
0.304562
0.306535
0.301415
0.284783
0.217532
0.182811
0.172506
0.174016
0.17694
0.182683
0.186306
0.185341
0.182354
0.182352
0.190098
0.213647
0.265531
0.351573
0.444674
0.503137
0.54557
0.547017
0.445297
0.268758
0.223399
0.223398
0.224431
0.237218
0.265964
0.309628
0.357828
0.375832
0.373573
0.304765
0.238927
0.204885
0.190328
0.190484
0.193047
0.195102
0.196675
0.195222
0.191401
0.192695
0.203359
0.219689
0.227957
0.23095
0.262267
0.32251
0.373756
0.434233
0.343368
0.260686
0.234139
0.230265
0.233475
0.246039
0.270561
0.312298
0.376423
0.415175
0.426205
0.326201
0.259711
0.230904
0.215973
0.214134
0.21569
0.217331
0.217647
0.216398
0.213679
0.220001
0.240718
0.257641
0.24769
0.207084
0.169625
0.167783
0.184209
0.297973
0.314537
0.290557
0.260412
0.245721
0.245185
0.251344
0.267185
0.2956
0.361618
0.421618
0.453822
0.34485
0.282147
0.259871
0.242859
0.240239
0.24189
0.244841
0.245206
0.243275
0.242268
0.257049
0.289455
0.305388
0.276264
0.201956
0.135513
0.111805
0.111552
0.200764
0.311893
0.325562
0.293832
0.265157
0.256545
0.255986
0.264081
0.278404
0.321446
0.369809
0.458511
0.362894
0.304751
0.28633
0.272581
0.271945
0.274496
0.279338
0.280426
0.278052
0.278999
0.302929
0.342649
0.343713
0.286385
0.185859
0.121641
0.102095
0.100172
0.138719
0.295034
0.339924
0.325204
0.29221
0.272699
0.265561
0.264795
0.27362
0.292717
0.296531
0.446018
0.383905
0.326407
0.31316
0.304065
0.30824
0.317852
0.326641
0.327252
0.324751
0.328218
0.355351
0.391446
0.367235
0.265712
0.153859
0.111595
0.102579
0.100199
0.113942
0.222449
0.339925
0.346645
0.324752
0.300177
0.284994
0.27439
0.275174
0.282228
0.267371
0.41429
0.404649
0.349321
0.342809
0.342704
0.355173
0.371732
0.385222
0.389667
0.386178
0.391664
0.413282
0.427172
0.367401
0.223446
0.122266
0.100966
0.102492
0.101059
0.103858
0.147676
0.295689
0.348634
0.348789
0.333773
0.314584
0.294323
0.279563
0.278937
0.266545
0.387745
0.430929
0.376752
0.377013
0.389243
0.41248
0.434475
0.447912
0.452946
0.450291
0.453613
0.460582
0.447783
0.345939
0.186251
0.106788
0.0922725
0.0984769
0.099321
0.0969591
0.110922
0.201092
0.337912
0.357776
0.358152
0.346286
0.316669
0.283916
0.274533
0.267113
0.37135
0.456843
0.410639
0.419428
0.44282
0.467376
0.485941
0.495163
0.496577
0.495092
0.494025
0.485949
0.446338
0.316658
0.170149
0.103603
0.0874557
0.0885013
0.0887441
0.086195
0.0886058
0.124985
0.261472
0.35368
0.36653
0.369522
0.336074
0.28849
0.271181
0.266849
0.35936
0.476511
0.447621
0.464394
0.489725
0.506907
0.514584
0.517482
0.517044
0.514508
0.511297
0.500987
0.45258
0.30661
0.171338
0.108202
0.0849192
0.0750445
0.0703491
0.0699226
0.070663
0.0848322
0.160977
0.278615
0.351225
0.386386
0.354715
0.299298
0.273067
0.267318
0.352673
0.489902
0.481937
0.501562
0.517826
0.525748
0.527773
0.527326
0.525776
0.523001
0.518601
0.508624
0.473946
0.324914
0.18861
0.119096
0.0825069
0.0618211
0.0549439
0.055501
0.0570798
0.0643359
0.097903
0.164487
0.28572
0.411398
0.377369
0.321588
0.289688
0.267195
0.365949
0.498607
0.506764
0.522926
0.53256
0.536366
0.536212
0.533845
0.530646
0.528699
0.523597
0.514814
0.487397
0.342851
0.210531
0.128243
0.0784801
0.0528392
0.0506057
0.0505695
0.0506502
0.054249
0.0681838
0.0987422
0.230652
0.464166
0.403202
0.351649
0.31444
0.285718
0.402332
0.503857
0.518906
0.534602
0.542222
0.54414
0.543366
0.539031
0.5332
0.531815
0.527007
0.518785
0.483452
0.356274
0.225997
0.13018
0.0728265
0.0506227
0.0505968
0.0506157
0.0505914
0.0507207
0.0550245
0.0802933
0.274209
0.509336
0.423206
0.381431
0.34953
0.351933
0.440436
0.50428
0.522044
0.542859
0.547073
0.547069
0.547064
0.542783
0.535274
0.532361
0.528747
0.520597
0.480713
0.370055
0.232996
0.124362
0.0676074
0.0506283
0.0506226
0.0505981
0.0506246
0.0506311
0.0510455
0.0823351
0.39866
0.509282
0.441294
0.406689
0.394172
0.421852
0.478394
0.497186
0.522776
0.547052
0.547055
0.538958
0.536699
0.542774
0.537094
0.532135
0.528978
0.525348
0.494634
0.388438
0.239026
0.119344
0.064275
0.0508969
0.0518113
0.0523353
0.0518576
0.0519699
0.0532964
0.0971127
0.471751
0.512264
0.482066
0.44754
0.442107
0.475662
0.505499
0.496406
0.525913
0.547003
0.524418
0.386995
0.37633
0.511491
0.533751
0.533724
0.533719
0.53371
0.525001
0.441723
0.272723
0.13059
0.0783671
0.0698028
0.0759996
0.0788312
0.0748961
0.0780133
0.0889308
0.175993
0.529454
0.529484
0.528513
0.499105
0.482364
0.503272
0.519397
0.509186
0.526801
0.512937
0.294992
0.139024
0.136794
0.215062
0.312869
0.369727
0.428885
0.504233
0.525262
0.490282
0.316088
0.184409
0.135147
0.132019
0.151745
0.159776
0.151943
0.170797
0.215865
0.351415
0.520763
0.541311
0.545097
0.537728
0.522881
0.521944
0.519878
0.527064
0.526767
0.328821
0.114266
0.0777634
0.0843469
0.108238
0.13396
0.139109
0.140253
0.18521
0.296125
0.350062
0.321723
0.255465
0.212069
0.207252
0.226138
0.238801
0.245432
0.278807
0.366111
0.521815
0.530383
0.537002
0.54691
0.546975
0.545025
0.537505
0.498184
0.532841
0.459433
0.178721
0.0809684
0.0764694
0.0796061
0.102413
0.117133
0.119466
0.100742
0.081285
0.0911542
0.146382
0.228185
0.247103
0.235037
0.22668
0.225934
0.237935
0.266503
0.285887
0.342399
0.438138
0.514994
0.539403
0.543834
0.546958
0.546984
0.546922
0.492526
0.521575
0.397708
0.157425
0.0803625
0.0762985
0.0785554
0.104414
0.13235
0.14425
0.127855
0.0787463
0.0651383
0.0694023
0.105721
0.156463
0.174162
0.173429
0.169244
0.175145
0.197062
0.198881
0.192641
0.185221
0.24631
0.256522
0.339758
0.539547
0.546955
0.546947
0.491693
0.465631
0.39796
0.209785
0.0853828
0.0764188
0.077903
0.104367
0.139755
0.16083
0.153809
0.0906009
0.0647821
0.0593994
0.0625023
0.0776499
0.092088
0.0960039
0.0933071
0.0938653
0.100075
0.0935905
0.0810038
0.0734856
0.0840401
0.0913629
0.123598
0.281031
0.540081
0.54689
0.467897
0.455109
0.456513
0.250729
0.0909295
0.0763894
0.0771661
0.103469
0.145678
0.176485
0.175011
0.105363
0.0678727
0.058946
0.0581719
0.0584784
0.0611223
0.0625504
0.0620552
0.0619337
0.0625029
0.0612447
0.0612398
0.063647
0.0709793
0.0802801
0.0913181
0.135803
0.366126
0.541235
0.467866
0.470598
0.476184
0.258639
0.0930696
0.0765338
0.0769073
0.103123
0.150894
0.191759
0.191735
0.117733
0.0731971
0.0594919
0.0581747
0.0581441
0.0581492
0.0581764
0.0581991
0.0582217
0.0582428
0.0587351
0.0619714
0.0671289
0.0756745
0.0869087
0.0996059
0.114221
0.238351
0.484516
0.467835
0.482783
0.477012
0.231725
0.0907778
0.0765082
0.0787734
0.105676
0.154409
0.203198
0.203341
0.126892
0.0783382
0.0611589
0.0581665
0.0581735
0.0581674
0.0581871
0.0582039
0.0582145
0.0585515
0.0605636
0.0654091
0.0724322
0.081701
0.0941183
0.108663
0.125945
0.20501
0.444244
0.474588
0.484552
0.436216
0.189408
0.0858387
0.076551
0.0845918
0.11166
0.157476
0.209564
0.210223
0.132381
0.0825349
0.0636694
0.0581821
0.0581681
0.058188
0.0582057
0.0582157
0.0587223
0.0604665
0.064179
0.0699266
0.0773943
0.087051
0.10026
0.116317
0.138527
0.22521
0.422147
0.483821
0.486349
0.41195
0.172962
0.0840181
0.0780713
0.0945042
0.119787
0.163362
0.21375
0.214859
0.134587
0.0856293
0.0665495
0.0589499
0.0581905
0.0582052
0.0588312
0.0596167
0.0608924
0.0637784
0.0683153
0.0743809
0.0821984
0.0927199
0.107117
0.125049
0.151459
0.242588
0.431005
0.494627
0.487048
0.420954
0.175321
0.0911676
0.0867571
0.107805
0.131652
0.176473
0.220916
0.217241
0.134616
0.08735
0.0689542
0.0607964
0.0590227
0.0589882
0.0605757
0.0625311
0.0645376
0.0677865
0.0727535
0.0793699
0.0881614
0.100374
0.116503
0.136699
0.166843
0.259462
0.437317
0.503905
0.496135
0.428076
0.192923
0.111276
0.1064
0.124171
0.148086
0.19305
0.229739
0.215948
0.133249
0.0885395
0.0708744
0.0629125
0.0608746
0.0612107
0.063297
0.0660109
0.0689054
0.0724951
0.0781597
0.0859787
0.0966074
0.111126
0.129276
0.152271
0.186898
0.281962
0.448349
0.512238
0.496248
0.417023
0.222841
0.142652
0.134214
0.144312
0.167933
0.209542
0.240551
0.210293
0.129537
0.0893557
0.0727146
0.0651317
0.0631171
0.0639184
0.0664711
0.0698583
0.0736399
0.0782628
0.085184
0.0948058
0.107883
0.124863
0.145237
0.172217
0.214419
0.316021
0.472153
0.521225
0.499147
0.412909
0.250752
0.177821
0.165514
0.169714
0.190305
0.226406
0.251146
0.201957
0.124627
0.0899051
0.0746236
0.0677373
0.0659991
0.0668188
0.0697258
0.0741229
0.078991
0.0852323
0.093979
0.105685
0.121171
0.140414
0.163994
0.196997
0.251638
0.360055
0.495566
0.528916
0.52214
0.417285
0.279241
0.217923
0.199598
0.198552
0.215837
0.247746
0.260048
0.190314
0.119669
0.0902671
0.0766007
0.0708179
0.0695285
0.0703277
0.0736276
0.0790666
0.0854488
0.0936071
0.104433
0.118043
0.135431
0.157054
0.185372
0.22796
0.297713
0.40962
0.511363
0.531805
0.470606
0.391968
0.30803
0.266207
0.242461
0.234177
0.24714
0.271764
0.262734
0.177584
0.115834
0.0908393
0.0789709
0.0745265
0.0737961
0.0746363
0.0786468
0.085183
0.0932097
0.103329
0.115868
0.13105
0.150322
0.175219
0.210572
0.265801
0.349674
0.455492
0.518733
0.531816
0.390841
0.367818
0.35109
0.323502
0.297693
0.282007
0.284947
0.297651
0.256597
0.16496
0.113365
0.0919652
0.0821945
0.0792296
0.0790397
0.0800126
0.084854
0.0923038
0.101958
0.113777
0.12777
0.144808
0.166783
0.196799
0.241721
0.308775
0.401938
0.487687
0.519776
0.531818
0.384268
0.384045
0.389581
0.378891
0.360432
0.336905
0.325139
0.318024
0.244377
0.154455
0.112003
0.0938285
0.0865977
0.0851553
0.0851664
0.086535
0.0921318
0.100259
0.111389
0.124883
0.140749
0.160502
0.1863
0.223322
0.277944
0.354684
0.447774
0.505786
0.514705
0.531818
0.394492
0.414213
0.429081
0.428952
0.426142
0.397317
0.361637
0.323766
0.227614
0.14687
0.111463
0.0968139
0.0926019
0.0922468
0.092134
0.0943077
0.100397
0.109143
0.121651
0.137115
0.155548
0.178765
0.209841
0.255387
0.318162
0.400429
0.482352
0.515174
0.514695
0.525594
0.452591
0.474503
0.49052
0.494117
0.494026
0.492405
0.424609
0.310875
0.204921
0.141363
0.112492
0.101854
0.10033
0.100308
0.10032
0.103422
0.109832
0.119348
0.133205
0.150941
0.172646
0.200505
0.238923
0.292883
0.361477
0.442092
0.504664
0.521137
0.51839
0.521334
0.530836
0.537783
0.542075
0.543512
0.542461
0.541469
0.519652
0.336366
0.195521
0.137902
0.115382
0.109927
0.109634
0.10943
0.110161
0.114077
0.120884
0.131375
0.146685
0.166991
0.192941
0.227431
0.27455
0.335345
0.405881
0.475623
0.515614
0.523771
0.525165
0.528402
0.55425
0.554255
0.554254
0.55424
0.552674
0.548845
0.53857
0.402572
0.239079
0.155629
0.123743
0.119354
0.120745
0.120618
0.12186
0.126805
0.134271
0.145966
0.162987
0.186447
0.218323
0.261354
0.317026
0.381626
0.447709
0.498311
0.519125
0.524766
0.527927
0.531286
0.55428
0.554278
0.554265
0.55424
0.548618
0.545528
0.537995
0.450926
0.332692
0.231225
0.153751
0.133934
0.135142
0.136096
0.136686
0.142917
0.15127
0.16434
0.18354
0.21146
0.251089
0.303218
0.365312
0.428616
0.481325
0.510306
0.520212
0.524947
0.528337
0.531665
0.554278
0.553168
0.546075
0.539726
0.531505
0.526432
0.518135
0.493205
0.454596
0.35641
0.227044
0.169783
0.160749
0.160801
0.159574
0.165939
0.174904
0.189043
0.2111
0.244891
0.29275
0.352615
0.416077
0.469753
0.502361
0.515675
0.521227
0.525111
0.528235
0.531684
0.553326
0.52734
0.527253
0.527293
0.533329
0.534351
0.534098
0.531896
0.518977
0.452698
0.337705
0.249904
0.217418
0.207142
0.201517
0.204971
0.213316
0.227543
0.251899
0.290505
0.344028
0.40638
0.462442
0.497873
0.512832
0.518866
0.522541
0.525594
0.528239
0.531703
0.527966
0.527276
0.540443
0.546413
0.548296
0.547643
0.545608
0.537817
0.524581
0.502984
0.456885
0.381741
0.326477
0.298268
0.28358
0.279362
0.28423
0.296892
0.320324
0.357188
0.406402
0.458117
0.495801
0.512562
0.518514
0.521677
0.524155
0.526418
0.528493
0.531714
0.529513
0.548408
0.554654
0.552023
0.549313
0.547648
0.544466
0.537026
0.531063
0.534102
0.527954
0.496528
0.457275
0.427144
0.406162
0.393792
0.393236
0.402476
0.422046
0.448166
0.476002
0.500298
0.514858
0.520496
0.522933
0.524569
0.526033
0.527472
0.528951
0.531706
0.547892
0.555021
0.554623
0.538335
0.545055
0.546418
0.546
0.543568
0.546453
0.551734
0.550072
0.542676
0.532371
0.519901
0.508145
0.498978
0.496186
0.500722
0.511017
0.521516
0.526733
0.527095
0.526746
0.527305
0.527869
0.528151
0.528482
0.528881
0.529498
0.531691
0.556615
0.554883
0.533601
0.533498
0.542409
0.551249
0.554094
0.55593
0.559391
0.560359
0.558019
0.555475
0.553659
0.551074
0.547722
0.544371
0.542211
0.541961
0.543545
0.545867
0.546538
0.543655
0.538727
0.535684
0.534353
0.533291
0.532289
0.531249
0.530396
0.531142
0.555753
0.52249
0.522498
0.535759
0.553654
0.561594
0.56354
0.564639
0.56511
0.563847
0.561832
0.56032
0.559267
0.557991
0.556431
0.554745
0.553165
0.552067
0.551984
0.552903
0.553582
0.552261
0.54875
0.545066
0.542344
0.540113
0.537909
0.535362
0.532363
0.531142
0.542465
0.521304
0.534979
0.553476
0.566054
0.568564
0.568229
0.567453
0.566106
0.564594
0.563457
0.56261
0.561794
0.560886
0.559884
0.558807
0.557741
0.556894
0.556624
0.557054
0.557544
0.557017
0.555038
0.55229
0.549633
0.547158
0.544512
0.541137
0.536209
0.531144
0.527962
0.521393
0.555268
0.568046
0.57179
0.570857
0.56865
0.566723
0.56509
0.563982
0.563458
0.563416
0.563142
0.562665
0.562083
0.561431
0.560769
0.560221
0.55998
0.560136
0.56038
0.560114
0.558963
0.557104
0.554996
0.552842
0.550451
0.547217
0.541687
0.532242
0.524934
0.548479
0.569445
0.573812
0.5731
0.570056
0.566412
0.563217
0.561813
0.561902
0.56264
0.563248
0.563644
0.563717
0.563558
0.563267
0.562927
0.562624
0.562467
0.562506
0.562598
0.562418
0.561696
0.560427
0.55882
0.557047
0.555041
0.552326
0.547302
0.535487
0.544134
0.568597
0.57401
0.574061
0.5712
0.563883
0.556331
0.552268
0.553599
0.557178
0.56051
0.562574
0.563709
0.564301
0.564523
0.564545
0.564465
0.564366
0.564317
0.564349
0.564391
0.564267
0.563793
0.562907
0.56168
0.560217
0.55851
0.556226
0.55192
0.539948
0.56531
0.574067
0.574192
0.57248
0.56026
0.536735
0.525678
0.524151
0.535552
0.548702
0.557286
0.561669
0.563774
0.56477
0.565265
0.565508
0.565619
0.565677
0.565732
0.565806
0.565862
0.565798
0.565495
0.564876
0.563939
0.562729
0.56124
0.55923
0.555439
0.544439
0.572872
0.574253
0.574002
0.556432
0.518559
0.481648
0.481278
0.486922
0.508865
0.537334
0.55454
0.561405
0.56417
0.565392
0.566003
0.566353
0.566573
0.566729
0.566861
0.566983
0.567076
0.56708
0.566913
0.5665
0.565803
0.564815
0.563512
0.561689
0.55822
0.548511
0.574301
0.574113
0.556615
0.487382
0.456174
0.449522
0.45896
0.467515
0.484325
0.527744
0.554464
0.562354
0.565179
0.566286
0.566834
0.567183
0.567433
0.567629
0.5678
0.567955
0.568083
0.568151
0.5681
0.567863
0.567383
0.566614
0.565503
0.56385
0.560629
0.552174
0.572888
0.558492
0.491728
0.381495
0.409856
0.449583
0.463384
0.464397
0.484128
0.530215
0.557248
0.564575
0.566678
0.567363
0.567735
0.568019
0.568245
0.568436
0.568609
0.56877
0.568917
0.569031
0.569075
0.568995
0.568726
0.568199
0.567323
0.565875
0.562894
0.555548
0.560795
0.514469
0.396667
0.369595
0.387582
0.455004
0.480271
0.467945
0.494395
0.541043
0.562504
0.567194
0.568159
0.568404
0.568621
0.568833
0.569016
0.569177
0.569325
0.569465
0.569602
0.569732
0.569837
0.569881
0.569814
0.569559
0.568998
0.56786
0.565187
0.558793
0.53687
0.428459
0.369595
0.369594
0.388616
0.47175
0.508968
0.488576
0.520194
0.555992
0.567048
0.569119
0.569243
0.569279
0.569431
0.569596
0.569736
0.569857
0.569969
0.57008
0.570197
0.570323
0.570449
0.570558
0.570616
0.570574
0.570361
0.569726
0.567602
0.562144
0.509995
0.39076
0.379027
0.369595
0.394949
0.495856
0.527359
0.52545
0.547819
0.565151
0.569689
0.570136
0.569974
0.570012
0.570156
0.570293
0.570402
0.570493
0.570575
0.570662
0.570761
0.570873
0.570995
0.571116
0.571218
0.571281
0.571306
0.571147
0.569836
0.565683
0.497092
0.429121
0.44104
0.418664
0.43248
0.518716
0.54434
0.54936
0.562156
0.569159
0.570796
0.570683
0.570588
0.57069
0.570837
0.570956
0.571045
0.571113
0.571173
0.571237
0.571313
0.571404
0.571511
0.571628
0.571745
0.571852
0.571967
0.572052
0.571493
0.568819
0.497345
0.501555
0.531291
0.506609
0.510635
0.542209
0.556616
0.561808
0.567777
0.57068
0.571193
0.571142
0.571204
0.571361
0.57151
0.571617
0.571688
0.571735
0.57177
0.571805
0.571853
0.571921
0.572011
0.572121
0.572244
0.572371
0.572512
0.572671
0.572513
0.571058
0.509223
0.546788
0.55601
0.550947
0.552443
0.555256
0.562258
0.566928
0.569901
0.571174
0.57147
0.571625
0.571825
0.572025
0.572179
0.572279
0.572334
0.572355
0.572358
0.572359
0.572376
0.572417
0.57249
0.572594
0.572723
0.572867
0.573027
0.573204
0.573217
0.572562
0.532789
0.558216
0.55944
0.559891
0.561155
0.561854
0.565731
0.569022
0.570697
0.571432
0.57182
0.572151
0.572447
0.572683
0.572846
0.572941
0.572975
0.572963
0.572925
0.572885
0.572864
0.572878
0.572935
0.573036
0.573177
0.573346
0.573537
0.573746
0.573875
0.57365
0.547047
0.559246
0.559323
0.559859
0.562445
0.564859
0.567808
0.569966
0.571084
0.571738
0.572259
0.572708
0.573068
0.573334
0.573509
0.573597
0.573606
0.57355
0.573458
0.573366
0.573301
0.573284
0.573324
0.573426
0.573587
0.573791
0.574029
0.574292
0.57452
0.574528
0.55082
0.559227
0.558452
0.559425
0.563115
0.566407
0.568932
0.570494
0.57141
0.572126
0.572754
0.573278
0.573685
0.573981
0.574168
0.574246
0.574221
0.574107
0.573946
0.573787
0.573672
0.573619
0.573641
0.57375
0.573936
0.574186
0.574484
0.574819
0.575147
0.575307
0.55335
0.559197
0.556569
0.558553
0.563656
0.567364
0.569607
0.570887
0.57177
0.572567
0.573271
0.573849
0.574297
0.574622
0.574822
0.574889
0.574826
0.57464
0.574389
0.574128
0.573937
0.573852
0.573875
0.574005
0.574232
0.574533
0.574892
0.575316
0.575754
0.576043
0.55582
0.55922
0.552168
0.557155
0.564016
0.568005
0.570084
0.571244
0.572167
0.573033
0.573792
0.574414
0.574901
0.575258
0.575479
0.575549
0.575457
0.575164
0.574728
0.574294
0.57397
0.573881
0.573966
0.574162
0.57449
0.574886
0.575283
0.57579
0.576347
0.576763
0.557184
0.557399
0.541872
0.555428
0.564184
0.568464
0.570472
0.571605
0.572589
0.573509
0.574309
0.574968
0.575495
0.575896
0.57617
0.576287
0.576159
0.575558
0.574534
0.573477
0.572812
0.572837
0.573277
0.573901
0.574601
0.575235
0.575721
0.576288
0.576946
0.577486
0.557043
0.550437
0.530884
0.553766
0.564278
0.568866
0.570848
0.571996
0.573037
0.573996
0.574822
0.575511
0.576084
0.576569
0.576968
0.577146
0.576702
0.574767
0.57151
0.567915
0.566256
0.566832
0.568602
0.571189
0.573433
0.575094
0.576092
0.576839
0.577609
0.578228
0.555282
0.529198
0.530385
0.552553
0.564552
0.569337
0.571284
0.572447
0.573526
0.574501
0.575333
0.576046
0.576695
0.577289
0.577676
0.577648
0.575225
0.567785
0.556898
0.546026
0.54151
0.544239
0.550499
0.559817
0.566008
0.571498
0.575047
0.577085
0.578251
0.578928
0.544541
0.502181
0.531042
0.551202
0.564994
0.569977
0.571858
0.572997
0.574075
0.57503
0.575845
0.57659
0.5773
0.577741
0.577718
0.576243
0.565818
0.535884
0.512112
0.500829
0.49603
0.500317
0.508083
0.527181
0.538959
0.554605
0.567096
0.574543
0.577885
0.579202
0.536426
0.502146
0.531701
0.547498
0.565236
0.570851
0.572653
0.573687
0.5747
0.575595
0.576374
0.577124
0.577702
0.577758
0.577602
0.568151
0.529285
0.467582
0.458983
0.464867
0.466134
0.467159
0.466183
0.48158
0.485975
0.506568
0.53608
0.561966
0.571509
0.579072
0.534177
0.50379
0.531206
0.533191
0.564451
0.571828
0.57367
0.574533
0.575418
0.576208
0.576909
0.577539
0.577797
0.57778
0.573041
0.544879
0.460628
0.453898
0.45379
0.457407
0.458137
0.457455
0.457528
0.45753
0.457625
0.458237
0.474222
0.523651
0.541051
0.571194
0.480534
0.440854
0.519914
0.518119
0.562583
0.572565
0.57477
0.57552
0.576248
0.576872
0.577378
0.577773
0.577841
0.577111
0.56108
0.48987
0.453992
0.45389
0.45396
0.455399
0.455529
0.455761
0.463588
0.463111
0.457722
0.459785
0.475027
0.481946
0.480472
0.539579
0.382206
0.357088
0.443243
0.518017
0.562441
0.573098
0.575849
0.57665
0.577209
0.577557
0.577734
0.577951
0.577872
0.57148
0.540678
0.454566
0.453927
0.454001
0.454023
0.454969
0.468491
0.503054
0.524481
0.505777
0.485765
0.486104
0.487117
0.480448
0.48038
0.480444
0.36548
0.356783
0.388323
0.5107
0.561408
0.573576
0.577051
0.577994
0.578312
0.578265
0.578071
0.578008
0.576412
0.561843
0.500533
0.458319
0.463361
0.462106
0.461189
0.477686
0.514666
0.549357
0.558222
0.554539
0.542966
0.537246
0.52978
0.507974
0.485254
0.480435
0.418489
0.384622
0.423925
0.519814
0.562033
0.574266
0.578594
0.579652
0.57955
0.579004
0.578175
0.577143
0.572244
0.549692
0.48171
0.478123
0.496221
0.502315
0.511058
0.528263
0.550987
0.563757
0.567218
0.568739
0.56849
0.566156
0.562265
0.551752
0.52689
0.480486
0.495639
0.457126
0.492743
0.53834
0.561586
0.574592
0.580704
0.581742
0.581059
0.579691
0.577851
0.574834
0.566927
0.540793
0.487281
0.484122
0.501605
0.539037
0.557556
0.563272
0.567116
0.56718
0.567215
0.568785
0.569919
0.570544
0.570577
0.569
0.562324
0.521455
0.538973
0.522292
0.533134
0.537014
0.552655
0.573388
0.5837
0.584447
0.582841
0.580312
0.577043
0.571473
0.560043
0.531931
0.505594
0.477654
0.450672
0.500452
0.553901
0.562511
0.565063
0.564291
0.563874
0.565046
0.56724
0.569396
0.57082
0.572782
0.572828
0.564439
0.551574
0.547229
0.545075
0.520657
0.52638
0.568818
0.586954
0.587197
0.584845
0.580993
0.575682
0.566949
0.549953
0.521205
0.522808
0.489963
0.372893
0.397731
0.49984
0.554066
0.555676
0.555315
0.555824
0.557098
0.560112
0.564216
0.568702
0.572835
0.573769
0.573756
0.551728
0.554565
0.54593
0.499242
0.500563
0.56403
0.587205
0.587272
0.586704
0.581848
0.573226
0.559726
0.535282
0.518617
0.52281
0.469972
0.327345
0.319219
0.394386
0.514607
0.546282
0.545986
0.546082
0.545678
0.548368
0.554585
0.562477
0.568409
0.571656
0.573731
0.545562
0.554626
0.548212
0.499056
0.508226
0.565131
0.587184
0.587427
0.587321
0.582575
0.568332
0.543991
0.491534
0.400312
0.382129
0.230396
0.263085
0.299047
0.337808
0.435537
0.532643
0.545807
0.539832
0.535708
0.537792
0.541888
0.544785
0.541839
0.518155
0.561162
0.537932
0.554602
0.554387
0.515705
0.533784
0.56833
0.58432
0.587347
0.587249
0.580605
0.55049
0.481869
0.223315
0.107541
0.0801506
0.0458486
0.111756
0.194257
0.263668
0.338582
0.459834
0.534231
0.532703
0.52748
0.526792
0.520872
0.49072
0.427589
0.34188
0.379908
0.537922
0.55427
0.55437
0.549386
0.557788
0.56975
0.579328
0.587135
0.587146
0.572006
0.510809
0.236739
0.0397668
0.0186767
0.0158617
0.0147536
0.0257872
0.0531453
0.0976427
0.143012
0.218806
0.326678
0.385772
0.397201
0.387923
0.351776
0.278637
0.188184
0.120811
0.120384
0.537887