/*--------------------------------*- C++ -*----------------------------------*\
| =========                 |                                                 |
| \\      /  F ield         | OpenFOAM: The Open Source CFD Toolbox           |
|  \\    /   O peration     | Version:  v1606+                                |
|   \\  /    A nd           | Web:      www.OpenFOAM.com                      |
|    \\/     M anipulation  |                                                 |
\*---------------------------------------------------------------------------*/
FoamFile
{
    version     2.0;
    format      ascii;
    class       volVectorField;
    location    "1.55";
    object      U;
}
// * * * * * * * * * * * * * * * * * * * * * * * * * * * * * * * * * * * * * //

dimensions      [0 1 -1 0 0 0 0];

internalField   nonuniform List<vector> 
6000
(
(0.000430086 -0.0190634 0)
(0.0112862 -0.0555825 0)
(0.0234081 -0.0590587 0)
(0.0505762 -0.0488311 0)
(0.0688566 -0.0494839 0)
(0.0786766 -0.0478205 0)
(0.0632666 -0.0522312 0)
(0.0267053 -0.0975495 0)
(0.00864551 -0.133449 0)
(0.00573387 -0.132336 0)
(0.0118213 -0.120278 0)
(0.0140388 -0.106865 0)
(0.0168764 -0.103474 0)
(0.0144167 -0.0957306 0)
(-0.00110042 -0.0902437 0)
(-0.0288062 -0.0924737 0)
(-0.0378523 -0.107168 0)
(-0.037823 -0.116209 0)
(-0.0426962 -0.115049 0)
(-0.0552345 -0.0881711 0)
(-0.100864 -0.0220085 0)
(-0.14771 -0.0250176 0)
(-0.154945 -0.032243 0)
(-0.125926 -0.0272495 0)
(-0.0839911 -0.01842 0)
(-0.0331465 -0.00434777 0)
(0.0149825 0.00654055 0)
(0.048349 0.0125468 0)
(0.0358495 0.0288116 0)
(0.0142414 0.0262217 0)
(0.0242835 0.640693 0)
(-0.014252 0.669891 0)
(-0.027243 0.637338 0)
(0.012453 0.624085 0)
(0.0633612 0.636677 0)
(0.113629 0.637901 0)
(0.152173 0.676909 0)
(0.15413 0.704436 0)
(0.121645 0.697682 0)
(0.0687824 0.66349 0)
(0.04767 0.634605 0)
(0.058736 0.642079 0)
(0.0670731 0.633381 0)
(0.0474343 0.63876 0)
(0.00298324 0.659334 0)
(-0.0514905 0.657628 0)
(-0.0890657 0.641603 0)
(-0.116623 0.674181 0)
(-0.157109 0.683106 0)
(-0.202761 0.717167 0)
(-0.244026 0.703667 0)
(-0.261493 0.684544 0)
(-0.230349 0.633004 0)
(-0.149862 0.580577 0)
(-0.0760379 0.571226 0)
(-0.0033872 0.562564 0)
(0.0475946 0.581049 0)
(0.0771875 0.635602 0)
(0.0556324 0.696294 0)
(0.000102232 0.663695 0)
(-0.0108312 0.4607 0)
(-0.0589179 0.518348 0)
(-0.100612 0.411184 0)
(-0.07712 0.357977 0)
(-0.0135102 0.34662 0)
(0.0751987 0.368664 0)
(0.14363 0.457922 0)
(0.171111 0.513063 0)
(0.162758 0.525402 0)
(0.142909 0.516849 0)
(0.112427 0.458712 0)
(0.109465 0.436748 0)
(0.106384 0.46319 0)
(0.0646943 0.532139 0)
(0.00260989 0.585914 0)
(-0.0684064 0.581004 0)
(-0.139033 0.50416 0)
(-0.168581 0.498762 0)
(-0.184181 0.516489 0)
(-0.217682 0.584356 0)
(-0.260382 0.582656 0)
(-0.275374 0.488637 0)
(-0.195201 0.322627 0)
(-0.0920108 0.287177 0)
(-0.01925 0.299393 0)
(0.0331582 0.314549 0)
(0.0641529 0.355171 0)
(0.0740808 0.42655 0)
(0.0438879 0.562097 0)
(-0.00283367 0.520847 0)
(-0.0336875 0.534034 0)
(-0.0640276 0.597395 0)
(-0.123975 0.468387 0)
(-0.140462 0.39205 0)
(-0.104557 0.334769 0)
(-0.0223182 0.335353 0)
(0.0830053 0.449026 0)
(0.168371 0.548354 0)
(0.168545 0.568244 0)
(0.167423 0.557639 0)
(0.153575 0.522216 0)
(0.135817 0.482315 0)
(0.101967 0.538627 0)
(0.0505459 0.640616 0)
(0.00809964 0.678617 0)
(-0.0292093 0.693761 0)
(-0.102487 0.629476 0)
(-0.160486 0.523489 0)
(-0.19859 0.577258 0)
(-0.21755 0.625206 0)
(-0.229172 0.632664 0)
(-0.209572 0.501463 0)
(-0.11952 0.271259 0)
(-0.0485808 0.258584 0)
(0.0114261 0.294713 0)
(0.0225363 0.319368 0)
(0.0212183 0.378164 0)
(-0.00108611 0.478734 0)
(-0.00738921 0.61591 0)
(0.00309711 0.524902 0)
(-0.0460884 0.566133 0)
(-0.0277803 0.634146 0)
(-0.06727 0.483972 0)
(-0.120422 0.350702 0)
(-0.137029 0.267864 0)
(-0.0826421 0.219468 0)
(0.00144016 0.296377 0)
(0.116301 0.494086 0)
(0.164056 0.570729 0)
(0.15735 0.573342 0)
(0.151041 0.532376 0)
(0.132385 0.504132 0)
(0.0891867 0.591324 0)
(0.0402099 0.666604 0)
(0.0143953 0.684233 0)
(-0.00189424 0.702338 0)
(-0.0414901 0.716225 0)
(-0.112807 0.59441 0)
(-0.176439 0.620311 0)
(-0.182115 0.633347 0)
(-0.158166 0.627767 0)
(-0.100111 0.421858 0)
(-0.0582717 0.175439 0)
(-0.0443449 0.172582 0)
(-0.00483404 0.23754 0)
(-0.0322442 0.319635 0)
(-0.0465904 0.415768 0)
(-0.0531003 0.528072 0)
(-0.0214961 0.624348 0)
(0.0216648 0.574242 0)
(-0.0147635 0.633027 0)
(0.0248261 0.631713 0)
(0.0379259 0.610408 0)
(-0.0033806 0.433722 0)
(-0.0662991 0.241033 0)
(-0.0927013 0.191343 0)
(-0.0396268 0.188278 0)
(0.038288 0.398418 0)
(0.109931 0.53 0)
(0.15213 0.571614 0)
(0.166878 0.549415 0)
(0.141625 0.53785 0)
(0.10153 0.649516 0)
(0.0654394 0.696935 0)
(0.0355337 0.705445 0)
(0.0132571 0.726582 0)
(-0.00873766 0.751304 0)
(-0.0574192 0.678787 0)
(-0.0974304 0.640086 0)
(-0.0899634 0.610409 0)
(-0.0293711 0.57294 0)
(0.0193696 0.405687 0)
(-0.0129719 0.211952 0)
(-0.0676541 0.145027 0)
(-0.0600884 0.308065 0)
(-0.0909152 0.393164 0)
(-0.104519 0.436752 0)
(-0.0755009 0.481881 0)
(-0.0300424 0.545935 0)
(0.0141573 0.561738 0)
(0.0166665 0.581295 0)
(0.0454656 0.564796 0)
(0.0925827 0.549616 0)
(0.108655 0.52021 0)
(0.0233586 0.371833 0)
(-0.0189803 0.149732 0)
(-0.0560715 0.15573 0)
(-0.0268893 0.334565 0)
(0.0255702 0.462794 0)
(0.084244 0.526384 0)
(0.124433 0.534178 0)
(0.135599 0.549364 0)
(0.133074 0.672397 0)
(0.121645 0.747596 0)
(0.082709 0.742054 0)
(0.0531276 0.751187 0)
(0.0327577 0.770639 0)
(0.0145629 0.719292 0)
(-0.0175001 0.646617 0)
(0.00373069 0.566183 0)
(0.0414428 0.50431 0)
(0.052161 0.409417 0)
(0.0104139 0.299646 0)
(-0.0747154 0.20839 0)
(-0.157505 0.335449 0)
(-0.148973 0.401241 0)
(-0.129754 0.397797 0)
(-0.066927 0.435487 0)
(-0.0239831 0.507161 0)
(0.00804484 0.543653 0)
(0.0164777 0.556328 0)
(0.0494321 0.533343 0)
(0.0875165 0.505821 0)
(0.128897 0.500047 0)
(0.116922 0.469434 0)
(0.06157 0.240099 0)
(-0.0287936 0.165162 0)
(-0.0306891 0.327205 0)
(-0.0232132 0.422411 0)
(0.0131611 0.478901 0)
(0.049635 0.50336 0)
(0.0702586 0.537615 0)
(0.0937095 0.658415 0)
(0.114855 0.762103 0)
(0.109052 0.778123 0)
(0.0983471 0.78446 0)
(0.0968243 0.796406 0)
(0.0950602 0.755059 0)
(0.0899558 0.646306 0)
(0.0959094 0.547278 0)
(0.0880971 0.495721 0)
(0.0537754 0.439505 0)
(0.00239214 0.361903 0)
(-0.0896188 0.315632 0)
(-0.222608 0.3673 0)
(-0.213131 0.392018 0)
(-0.184774 0.327222 0)
(-0.106206 0.367465 0)
(-0.0412366 0.494978 0)
(0.0114334 0.544337 0)
(0.0214532 0.538144 0)
(0.0583706 0.524874 0)
(0.0994755 0.476384 0)
(0.143096 0.492868 0)
(0.199354 0.482716 0)
(0.151317 0.330951 0)
(0.0267569 0.250316 0)
(-0.00972267 0.348279 0)
(-0.0307895 0.414452 0)
(-0.0342529 0.454641 0)
(-0.0247316 0.482769 0)
(-0.0139892 0.520664 0)
(0.0137167 0.622485 0)
(0.0549215 0.736463 0)
(0.0888346 0.774011 0)
(0.113572 0.776749 0)
(0.143618 0.781909 0)
(0.173736 0.746664 0)
(0.185797 0.644514 0)
(0.172492 0.56148 0)
(0.146147 0.524192 0)
(0.103267 0.495447 0)
(0.0380739 0.447921 0)
(-0.0738288 0.414793 0)
(-0.221459 0.448594 0)
(-0.243845 0.378406 0)
(-0.228713 0.273483 0)
(-0.180893 0.266931 0)
(-0.110332 0.416775 0)
(-6.48162e-05 0.519436 0)
(0.0262356 0.47845 0)
(0.0791696 0.46743 0)
(0.121257 0.398467 0)
(0.185163 0.438257 0)
(0.250948 0.461379 0)
(0.102655 0.420861 0)
(0.0273113 0.327729 0)
(-0.0280057 0.387568 0)
(-0.0655232 0.427918 0)
(-0.0788434 0.455475 0)
(-0.0818668 0.475436 0)
(-0.0783146 0.503057 0)
(-0.0542199 0.575081 0)
(-0.00507257 0.674174 0)
(0.0506638 0.721636 0)
(0.0995428 0.727658 0)
(0.147703 0.729454 0)
(0.194513 0.704912 0)
(0.217487 0.63507 0)
(0.214894 0.574758 0)
(0.199617 0.55365 0)
(0.175517 0.540718 0)
(0.143301 0.525721 0)
(-0.0140331 0.557055 0)
(-0.179469 0.515521 0)
(-0.217935 0.349896 0)
(-0.200955 0.258355 0)
(-0.196872 0.216273 0)
(-0.179964 0.306818 0)
(-0.0325781 0.427462 0)
(0.0313231 0.405515 0)
(0.110387 0.416221 0)
(0.153966 0.317805 0)
(0.239133 0.372115 0)
(0.271716 0.494896 0)
(0.0823396 0.50132 0)
(-0.0210792 0.414184 0)
(-0.0796531 0.439891 0)
(-0.121287 0.452962 0)
(-0.13301 0.46478 0)
(-0.13014 0.473465 0)
(-0.117715 0.490218 0)
(-0.0918819 0.535528 0)
(-0.0364524 0.605694 0)
(0.0293692 0.65634 0)
(0.0786122 0.662977 0)
(0.124605 0.671193 0)
(0.168067 0.657282 0)
(0.197328 0.615875 0)
(0.208852 0.575382 0)
(0.220321 0.563478 0)
(0.221385 0.570098 0)
(0.159107 0.596595 0)
(-0.0983032 0.753586 0)
(-0.27911 0.606512 0)
(-0.268293 0.320129 0)
(-0.204014 0.232534 0)
(-0.178161 0.210686 0)
(-0.196699 0.239201 0)
(-0.0685379 0.285936 0)
(0.0344386 0.313122 0)
(0.128323 0.332028 0)
(0.186962 0.237693 0)
(0.242396 0.286925 0)
(0.254436 0.555224 0)
(0.0115844 0.648001 0)
(-0.123975 0.489101 0)
(-0.174748 0.488033 0)
(-0.203252 0.467845 0)
(-0.197386 0.460317 0)
(-0.175797 0.459216 0)
(-0.144733 0.467361 0)
(-0.105071 0.494603 0)
(-0.0520858 0.539305 0)
(0.0174217 0.601277 0)
(0.0666262 0.631686 0)
(0.0946088 0.643367 0)
(0.121573 0.635029 0)
(0.146053 0.606129 0)
(0.166186 0.571913 0)
(0.190177 0.554637 0)
(0.15211 0.551173 0)
(-0.0735556 0.814236 0)
(-0.379723 1.16607 0)
(-0.417531 0.708074 0)
(-0.312699 0.256576 0)
(-0.212398 0.189566 0)
(-0.148717 0.217158 0)
(-0.138342 0.190756 0)
(-0.0810329 0.169175 0)
(0.0229034 0.204568 0)
(0.125127 0.293929 0)
(0.153664 0.173552 0)
(0.226084 0.25264 0)
(0.212606 0.760649 0)
(0.0574451 0.876636 0)
(-0.177993 0.610659 0)
(-0.267438 0.530877 0)
(-0.291219 0.467626 0)
(-0.271349 0.440145 0)
(-0.226215 0.422614 0)
(-0.176196 0.422146 0)
(-0.114132 0.448069 0)
(-0.0596349 0.501156 0)
(-0.0149323 0.572823 0)
(0.0491503 0.626551 0)
(0.0736852 0.61595 0)
(0.0879157 0.602227 0)
(0.103217 0.564989 0)
(0.116918 0.502107 0)
(0.0638654 0.522712 0)
(-0.148244 0.884218 0)
(-0.443354 1.19815 0)
(-0.493996 1.18168 0)
(-0.349771 0.599041 0)
(-0.203604 0.120221 0)
(-0.139656 0.102356 0)
(-0.083973 0.190188 0)
(-0.0613281 0.205647 0)
(-0.0405114 0.0462179 0)
(0.00947806 0.154649 0)
(0.117136 0.261639 0)
(0.139661 0.170276 0)
(0.244538 0.19782 0)
(0.323368 0.770427 0)
(0.323507 1.13336 0)
(-0.0267479 0.856954 0)
(-0.319646 0.557956 0)
(-0.37852 0.446793 0)
(-0.33433 0.399347 0)
(-0.280451 0.386896 0)
(-0.240069 0.38591 0)
(-0.174898 0.413054 0)
(-0.0967141 0.457592 0)
(-0.0703497 0.429688 0)
(-0.0464687 0.49562 0)
(-0.00842059 0.565846 0)
(0.0307611 0.584436 0)
(0.0315959 0.605004 0)
(-0.0557207 0.644176 0)
(-0.252279 0.869489 0)
(-0.450308 1.11426 0)
(-0.512578 1.21522 0)
(-0.377837 1.00841 0)
(-0.170491 0.445171 0)
(-0.0665829 0.0204335 0)
(-0.0517662 0.0388314 0)
(-0.0158199 0.136327 0)
(0.0127934 0.171225 0)
(0.0290259 0.0503831 0)
(0.00938194 0.106289 0)
(0.075005 0.186534 0)
(0.0959782 0.125287 0)
(0.188671 0.0397612 0)
(0.292832 0.624351 0)
(0.50878 1.29639 0)
(0.262993 1.32187 0)
(-0.163877 0.994006 0)
(-0.469338 0.514921 0)
(-0.535022 0.261652 0)
(-0.493865 0.277424 0)
(-0.439821 0.279171 0)
(-0.419028 0.250572 0)
(-0.39263 0.382649 0)
(-0.368856 0.551108 0)
(-0.310814 0.633819 0)
(-0.220669 0.603602 0)
(-0.145552 0.635073 0)
(-0.120423 0.711375 0)
(-0.198827 0.825222 0)
(-0.333158 0.97778 0)
(-0.415328 1.09992 0)
(-0.382886 1.11636 0)
(-0.187263 0.785041 0)
(0.0132682 0.317256 0)
(0.063618 0.00867419 0)
(0.0338596 0.0268913 0)
(0.0345622 0.132216 0)
(0.0397637 0.159128 0)
(0.026133 0.099774 0)
(0.00406754 0.0671768 0)
(0.0529035 0.148173 0)
(0.050054 0.0891369 0)
(0.0971937 -0.0422189 0)
(0.151501 0.425842 0)
(0.412589 1.2714 0)
(0.268804 1.57159 0)
(-0.0556067 1.38101 0)
(-0.448298 0.874081 0)
(-0.713233 0.498561 0)
(-0.769712 0.327026 0)
(-0.76195 0.305605 0)
(-0.738266 0.347997 0)
(-0.692046 0.399975 0)
(-0.600129 0.421167 0)
(-0.465921 0.420223 0)
(-0.334577 0.440692 0)
(-0.2285 0.479808 0)
(-0.170541 0.63878 0)
(-0.172593 0.846304 0)
(-0.239358 1.0386 0)
(-0.297696 1.11384 0)
(-0.213396 0.997809 0)
(-0.0121724 0.555688 0)
(0.115141 0.19075 0)
(0.122794 0.037563 0)
(0.0716743 0.0498764 0)
(0.049277 0.129485 0)
(0.0355649 0.178906 0)
(0.0217982 0.126924 0)
(-0.00547247 0.0411359 0)
(0.0314487 0.133768 0)
(0.0393771 0.082077 0)
(0.0191714 -0.0625689 0)
(0.0421315 0.22749 0)
(0.206605 1.20436 0)
(0.153339 1.70675 0)
(-0.0474435 1.60393 0)
(-0.362723 1.17276 0)
(-0.594773 0.595771 0)
(-0.668782 0.34176 0)
(-0.667563 0.255962 0)
(-0.64493 0.254019 0)
(-0.594846 0.279354 0)
(-0.518681 0.281386 0)
(-0.428037 0.270277 0)
(-0.335948 0.299281 0)
(-0.244758 0.408383 0)
(-0.171732 0.571748 0)
(-0.142475 0.858443 0)
(-0.169434 1.08947 0)
(-0.188915 1.09728 0)
(-0.0475911 0.828301 0)
(0.128478 0.41902 0)
(0.196618 0.153144 0)
(0.164904 0.0837191 0)
(0.100716 0.102896 0)
(0.0558193 0.151491 0)
(0.0358384 0.191636 0)
(0.0189113 0.157745 0)
(-0.0227331 0.0344206 0)
(-0.00437142 0.12886 0)
(-0.00865031 0.0862074 0)
(-0.0558417 0.0198225 0)
(-0.071154 0.154913 0)
(0.0308378 1.15776 0)
(0.0938194 1.78792 0)
(-0.0214866 1.7963 0)
(-0.249981 1.44284 0)
(-0.423352 0.739775 0)
(-0.470575 0.371592 0)
(-0.463282 0.236427 0)
(-0.456063 0.211242 0)
(-0.436458 0.225496 0)
(-0.401818 0.226045 0)
(-0.363068 0.212558 0)
(-0.315147 0.230591 0)
(-0.253641 0.32136 0)
(-0.186411 0.53975 0)
(-0.147575 0.834587 0)
(-0.150787 1.10139 0)
(-0.0990405 1.01135 0)
(0.0657519 0.66765 0)
(0.200825 0.298783 0)
(0.208696 0.163037 0)
(0.15096 0.149896 0)
(0.0912851 0.165696 0)
(0.0480999 0.185013 0)
(0.0272268 0.201136 0)
(0.0115362 0.184589 0)
(-0.0398837 0.0646935 0)
(-0.0384641 0.131209 0)
(-0.0518128 0.103572 0)
(-0.118086 0.0764588 0)
(-0.0946099 0.12065 0)
(-0.112156 1.00731 0)
(0.0951921 1.80257 0)
(0.0358021 1.90779 0)
(-0.126448 1.62847 0)
(-0.243271 0.834448 0)
(-0.26151 0.380433 0)
(-0.26823 0.251107 0)
(-0.303998 0.217267 0)
(-0.318194 0.213962 0)
(-0.312589 0.20859 0)
(-0.307838 0.187318 0)
(-0.295844 0.193717 0)
(-0.268242 0.26431 0)
(-0.21455 0.473185 0)
(-0.158367 0.847027 0)
(-0.132627 1.06531 0)
(0.000236388 0.916262 0)
(0.169888 0.475421 0)
(0.221659 0.259203 0)
(0.175829 0.211326 0)
(0.125161 0.203169 0)
(0.0805269 0.206282 0)
(0.0469217 0.208593 0)
(0.0254581 0.209532 0)
(0.00770789 0.201239 0)
(-0.0366621 0.110348 0)
(-0.0472698 0.140497 0)
(-0.0715298 0.135594 0)
(-0.1422 0.147045 0)
(-0.179425 0.186024 0)
(-0.204147 0.816977 0)
(0.0722962 1.76456 0)
(0.11621 2.01226 0)
(0.0242699 1.77161 0)
(-0.0644049 0.878861 0)
(-0.0839474 0.365369 0)
(-0.112283 0.296636 0)
(-0.165202 0.259932 0)
(-0.2024 0.238917 0)
(-0.223673 0.219267 0)
(-0.24332 0.198909 0)
(-0.259581 0.192758 0)
(-0.262509 0.236935 0)
(-0.235877 0.405652 0)
(-0.176668 0.764723 0)
(-0.0731303 1.00671 0)
(0.132932 0.698879 0)
(0.223205 0.392307 0)
(0.203249 0.289018 0)
(0.16204 0.260385 0)
(0.119034 0.250067 0)
(0.0809357 0.242678 0)
(0.0511506 0.23624 0)
(0.0281304 0.229158 0)
(0.00823218 0.219215 0)
(-0.0197626 0.145803 0)
(-0.0358224 0.15523 0)
(-0.0606782 0.17626 0)
(-0.118747 0.223685 0)
(-0.190741 0.27693 0)
(-0.216389 0.601726 0)
(-0.0425878 1.58923 0)
(0.124846 2.0448 0)
(0.141753 1.89717 0)
(0.114668 0.99294 0)
(0.0272343 0.406556 0)
(-0.0117803 0.354639 0)
(-0.072375 0.309121 0)
(-0.110676 0.273933 0)
(-0.141041 0.247584 0)
(-0.168758 0.226666 0)
(-0.196949 0.215873 0)
(-0.216545 0.239565 0)
(-0.214128 0.367734 0)
(-0.166496 0.655736 0)
(0.0215916 0.784424 0)
(0.201769 0.546359 0)
(0.219602 0.38062 0)
(0.188836 0.325648 0)
(0.148345 0.306166 0)
(0.10844 0.288877 0)
(0.0764685 0.274632 0)
(0.0514382 0.26241 0)
(0.0302457 0.251849 0)
(0.0100572 0.240104 0)
(-0.00975203 0.167505 0)
(-0.0196879 0.168657 0)
(-0.0527813 0.2147 0)
(-0.115979 0.274561 0)
(-0.195727 0.35409 0)
(-0.240906 0.559519 0)
(-0.188553 1.36621 0)
(-0.0101532 1.90451 0)
(0.156319 1.85061 0)
(0.185911 0.995024 0)
(0.08094 0.490563 0)
(0.0362109 0.413523 0)
(-0.0158594 0.348606 0)
(-0.0535017 0.303366 0)
(-0.084064 0.272085 0)
(-0.110297 0.251004 0)
(-0.134743 0.241267 0)
(-0.153564 0.253154 0)
(-0.157324 0.338132 0)
(-0.103077 0.537733 0)
(0.0863906 0.567633 0)
(0.190796 0.454232 0)
(0.196441 0.399897 0)
(0.160808 0.372177 0)
(0.120226 0.345961 0)
(0.0868549 0.321726 0)
(0.060877 0.298222 0)
(0.0424351 0.279284 0)
(0.0268911 0.267992 0)
(0.0101032 0.257942 0)
(0.00566082 0.168044 0)
(0.0329812 0.182124 0)
(-0.00125388 0.289088 0)
(-0.104184 0.368631 0)
(-0.219961 0.463186 0)
(-0.31439 0.582764 0)
(-0.292936 1.13584 0)
(-0.139148 1.59663 0)
(0.104965 1.63038 0)
(0.14077 0.936191 0)
(0.133361 0.559178 0)
(0.077452 0.457925 0)
(0.028611 0.391419 0)
(-0.0121918 0.337273 0)
(-0.0437992 0.299327 0)
(-0.0688193 0.2738 0)
(-0.0878438 0.260012 0)
(-0.0973164 0.264358 0)
(-0.0875585 0.315736 0)
(-0.019389 0.417832 0)
(0.105479 0.44181 0)
(0.161462 0.423784 0)
(0.158633 0.435177 0)
(0.119036 0.413157 0)
(0.0837853 0.375029 0)
(0.0585428 0.345789 0)
(0.0387104 0.320446 0)
(0.0254399 0.300181 0)
(0.0177784 0.285577 0)
(0.00826029 0.277218 0)
(0.030843 0.159315 0)
(0.0748024 0.159503 0)
(0.0538573 0.332833 0)
(-0.0606587 0.409944 0)
(-0.131898 0.448011 0)
(-0.255342 0.603647 0)
(-0.307758 0.944785 0)
(-0.173306 1.35073 0)
(0.11246 1.32645 0)
(0.240218 0.914495 0)
(0.175549 0.622817 0)
(0.102471 0.512836 0)
(0.0473774 0.426836 0)
(0.0136236 0.36738 0)
(-0.0130772 0.327065 0)
(-0.0357579 0.296376 0)
(-0.0527418 0.272568 0)
(-0.0545605 0.261148 0)
(-0.0323929 0.280703 0)
(0.0317633 0.33555 0)
(0.121189 0.380611 0)
(0.120025 0.439977 0)
(0.0794988 0.51119 0)
(0.0399901 0.485935 0)
(0.00241317 0.438709 0)
(-0.0291667 0.400245 0)
(-0.0541517 0.346104 0)
(-0.0577481 0.301137 0)
(-0.0329475 0.306731 0)
(-0.00522666 0.310222 0)
(0.109324 0.0325498 0)
(0.122778 0.0910695 0)
(0.0600268 0.55143 0)
(-0.00369703 0.628114 0)
(-0.0674572 0.744426 0)
(-0.144798 0.999172 0)
(-0.10953 1.09724 0)
(0.074516 1.24053 0)
(0.320777 1.11383 0)
(0.429456 0.814342 0)
(0.322436 0.672259 0)
(0.19805 0.610504 0)
(0.094796 0.530302 0)
(0.0591635 0.398541 0)
(0.0192502 0.338783 0)
(-0.00305359 0.31654 0)
(-0.0250033 0.284871 0)
(-0.0273716 0.253598 0)
(-0.00197281 0.239224 0)
(0.0591883 0.254423 0)
(0.134563 0.336835 0)
(0.0604181 0.425617 0)
(-0.0522822 0.453802 0)
(-0.15378 0.450911 0)
(-0.258986 0.4107 0)
(-0.339595 0.379136 0)
(-0.357375 0.334403 0)
(-0.299464 0.256126 0)
(-0.189725 0.193986 0)
(-0.056568 0.194657 0)
(0.0386281 -0.113065 0)
(0.0544825 0.303424 0)
(0.0327132 0.496989 0)
(0.0729442 0.565573 0)
(0.0913441 0.664647 0)
(0.161135 0.827845 0)
(0.296644 0.944032 0)
(0.502926 1.13037 0)
(0.718963 1.12711 0)
(0.846417 1.07838 0)
(0.82208 0.939516 0)
(0.70768 0.760769 0)
(0.537869 0.550482 0)
(0.290001 0.492373 0)
(0.122476 0.437192 0)
(0.0655614 0.350171 0)
(-0.00134074 0.296456 0)
(-0.0234867 0.245427 0)
(-0.00129595 0.19532 0)
(0.0592995 0.176285 0)
(0.0488867 0.348272 0)
(-0.0591265 0.705616 0)
(-0.187589 0.780989 0)
(-0.290564 0.727288 0)
(-0.384599 0.654115 0)
(-0.435501 0.500878 0)
(-0.415986 0.310977 0)
(-0.33218 0.150271 0)
(-0.210761 0.0797977 0)
(-0.0637494 0.0938943 0)
(-0.00353796 -0.125356 0)
(0.0418803 0.221787 0)
(0.0876263 0.405243 0)
(0.14712 0.520819 0)
(0.218109 0.586869 0)
(0.330765 0.6658 0)
(0.481623 0.722208 0)
(0.673451 0.792532 0)
(0.875824 0.83277 0)
(1.04155 0.862868 0)
(1.16772 0.874007 0)
(1.24031 0.876125 0)
(1.24875 0.905081 0)
(1.07845 0.775449 0)
(0.77209 0.564024 0)
(0.386616 0.500363 0)
(0.0754414 0.378778 0)
(-0.0479227 0.249112 0)
(-0.0663431 0.165438 0)
(-0.0685876 0.21234 0)
(-0.228446 0.529648 0)
(-0.272797 0.759964 0)
(-0.280592 0.732817 0)
(-0.2871 0.695588 0)
(-0.294932 0.610511 0)
(-0.297087 0.454049 0)
(-0.290023 0.244058 0)
(-0.241202 0.0232638 0)
(-0.167792 -0.0747003 0)
(-0.05492 -0.071219 0)
(-0.00421429 -0.156577 0)
(0.0504141 0.155429 0)
(0.121637 0.375053 0)
(0.197269 0.421953 0)
(0.28582 0.470621 0)
(0.403016 0.512023 0)
(0.545324 0.545717 0)
(0.708321 0.587209 0)
(0.87026 0.6282 0)
(1.02753 0.67505 0)
(1.1889 0.677824 0)
(1.38888 0.716336 0)
(1.54153 0.775217 0)
(1.61904 0.932051 0)
(1.47263 1.07599 0)
(1.05192 1.02679 0)
(0.441685 0.748435 0)
(-0.105164 0.398231 0)
(-0.248279 0.243381 0)
(-0.483725 0.251608 0)
(-0.48836 0.551938 0)
(-0.382082 0.682683 0)
(-0.286882 0.693789 0)
(-0.227661 0.662687 0)
(-0.177393 0.586224 0)
(-0.14947 0.448327 0)
(-0.152839 0.245939 0)
(-0.144233 -0.00987556 0)
(-0.123865 -0.135358 0)
(-0.0478759 -0.164997 0)
(-0.00387764 -0.17099 0)
(0.0250124 0.0961137 0)
(0.111593 0.270191 0)
(0.216785 0.358442 0)
(0.313563 0.39101 0)
(0.438978 0.40916 0)
(0.575326 0.428842 0)
(0.725787 0.462474 0)
(0.867733 0.507126 0)
(1.00303 0.555785 0)
(1.14565 0.539609 0)
(1.2994 0.506418 0)
(1.4547 0.578083 0)
(1.5918 0.825322 0)
(1.62721 1.24233 0)
(1.39315 1.52902 0)
(0.837103 1.46428 0)
(0.11529 1.08334 0)
(-0.440624 0.473739 0)
(-0.625087 0.361044 0)
(-0.578039 0.422807 0)
(-0.418988 0.533186 0)
(-0.276511 0.595217 0)
(-0.176687 0.585819 0)
(-0.0951301 0.534522 0)
(-0.0403778 0.428337 0)
(-0.0286296 0.264347 0)
(-0.042665 -0.00760035 0)
(-0.0794828 -0.165196 0)
(-0.0452452 -0.242413 0)
(-0.0138465 -0.174016 0)
(0.0110495 0.0472819 0)
(0.0729428 0.16217 0)
(0.170332 0.24823 0)
(0.275712 0.261449 0)
(0.391676 0.262295 0)
(0.516493 0.273334 0)
(0.645738 0.307106 0)
(0.768546 0.362577 0)
(0.887918 0.421261 0)
(1.017 0.400073 0)
(1.12965 0.347998 0)
(1.23894 0.420675 0)
(1.33213 0.717692 0)
(1.41272 1.31394 0)
(1.29299 1.85719 0)
(0.924247 2.01303 0)
(0.39684 1.78214 0)
(-0.276069 1.01914 0)
(-0.534774 0.398666 0)
(-0.527154 0.301446 0)
(-0.422451 0.378314 0)
(-0.283342 0.472129 0)
(-0.162152 0.485269 0)
(-0.0589606 0.454805 0)
(0.0190231 0.380396 0)
(0.0615715 0.267817 0)
(0.0612993 0.0424527 0)
(-0.0303547 -0.120378 0)
(-0.0387744 -0.315643 0)
(-0.0117864 -0.165275 0)
(0.00723919 0.00973991 0)
(0.0471841 0.0913765 0)
(0.126263 0.151761 0)
(0.219319 0.156514 0)
(0.32429 0.151817 0)
(0.437903 0.153892 0)
(0.546921 0.188601 0)
(0.65107 0.252925 0)
(0.76112 0.317536 0)
(0.872998 0.288888 0)
(0.950954 0.22775 0)
(1.02152 0.321045 0)
(1.05781 0.680801 0)
(1.06284 1.33891 0)
(0.97236 2.02576 0)
(0.798526 2.28978 0)
(0.559967 2.1848 0)
(0.106074 1.56964 0)
(-0.325056 0.552238 0)
(-0.452157 0.273646 0)
(-0.414418 0.270129 0)
(-0.308282 0.343992 0)
(-0.181531 0.372171 0)
(-0.061932 0.355248 0)
(0.034364 0.313356 0)
(0.0960579 0.227411 0)
(0.115989 0.0797416 0)
(0.0276521 0.00712192 0)
(-0.00980949 -0.356794 0)
(-0.0118951 -0.164319 0)
(-0.000387211 -0.0103057 0)
(0.0291426 0.0418043 0)
(0.0932123 0.0747654 0)
(0.175043 0.0614491 0)
(0.263644 0.045476 0)
(0.348735 0.0505133 0)
(0.437041 0.0906863 0)
(0.526804 0.152475 0)
(0.63173 0.216409 0)
(0.736344 0.195595 0)
(0.79948 0.146511 0)
(0.836541 0.253978 0)
(0.891174 0.718662 0)
(0.827939 1.46947 0)
(0.704221 2.09307 0)
(0.670778 2.37396 0)
(0.638062 2.36974 0)
(0.439529 1.98016 0)
(-0.0478951 0.984308 0)
(-0.337354 0.328638 0)
(-0.384437 0.217509 0)
(-0.321894 0.230137 0)
(-0.213932 0.245167 0)
(-0.0905061 0.2361 0)
(0.0184013 0.227061 0)
(0.0871766 0.181404 0)
(0.105923 0.0932775 0)
(0.0631623 0.0921079 0)
(0.0327229 -0.340588 0)
(-0.0123758 -0.153497 0)
(0.000371374 -0.0296633 0)
(0.0246531 -0.00492661 0)
(0.0795892 0.00640397 0)
(0.147693 -0.0132156 0)
(0.213849 -0.0273702 0)
(0.273919 -0.0226952 0)
(0.333154 0.0114371 0)
(0.400016 0.065194 0)
(0.490746 0.116145 0)
(0.589027 0.102111 0)
(0.658067 0.0762654 0)
(0.679402 0.196902 0)
(0.767419 0.804541 0)
(0.683505 1.61487 0)
(0.592003 2.12436 0)
(0.606227 2.3331 0)
(0.673007 2.40013 0)
(0.633522 2.19044 0)
(0.308077 1.50171 0)
(-0.140095 0.563089 0)
(-0.321571 0.226737 0)
(-0.303221 0.158934 0)
(-0.23135 0.133418 0)
(-0.123666 0.113457 0)
(-0.015125 0.126263 0)
(0.0577893 0.137799 0)
(0.0756726 0.0939519 0)
(0.0603698 0.103739 0)
(0.0571971 -0.290701 0)
(-0.0103948 -0.148359 0)
(0.00286233 -0.046408 0)
(0.0296757 -0.0404297 0)
(0.081387 -0.0537944 0)
(0.137285 -0.0777927 0)
(0.182883 -0.0826173 0)
(0.217878 -0.069101 0)
(0.252004 -0.0400981 0)
(0.296785 0.000756186 0)
(0.365621 0.026166 0)
(0.444939 0.0145864 0)
(0.505516 0.00930842 0)
(0.525516 0.172901 0)
(0.594306 0.815327 0)
(0.584316 1.64943 0)
(0.592387 2.13501 0)
(0.619531 2.26779 0)
(0.67131 2.34348 0)
(0.694211 2.27469 0)
(0.535313 1.83638 0)
(0.126164 1.0305 0)
(-0.172046 0.313551 0)
(-0.246873 0.140107 0)
(-0.220377 0.0619123 0)
(-0.144268 0.00690136 0)
(-0.0523593 0.0287249 0)
(0.0199281 0.0923649 0)
(0.051306 0.0936132 0)
(0.0472224 0.10407 0)
(0.0604618 -0.233542 0)
(-0.00866958 -0.143241 0)
(0.00762605 -0.0714951 0)
(0.0446544 -0.0837637 0)
(0.092135 -0.107205 0)
(0.131773 -0.119237 0)
(0.157835 -0.111417 0)
(0.175199 -0.0912643 0)
(0.19302 -0.0669866 0)
(0.22082 -0.0443195 0)
(0.264725 -0.0351694 0)
(0.314714 -0.049156 0)
(0.359041 -0.0494446 0)
(0.384824 0.158466 0)
(0.450685 0.793565 0)
(0.51762 1.58054 0)
(0.616801 2.07829 0)
(0.655005 2.25228 0)
(0.655153 2.30965 0)
(0.671118 2.29653 0)
(0.611905 2.01822 0)
(0.36504 1.39205 0)
(0.0333962 0.580075 0)
(-0.148799 0.17682 0)
(-0.188328 0.0358548 0)
(-0.149221 -0.0687413 0)
(-0.0815338 -0.052426 0)
(-0.0183939 0.0402616 0)
(0.0330703 0.077824 0)
(0.0341018 0.0925717 0)
(0.062147 -0.185205 0)
(-0.00566274 -0.14186 0)
(0.0151494 -0.106041 0)
(0.0552879 -0.127987 0)
(0.0930302 -0.146486 0)
(0.11491 -0.142965 0)
(0.12861 -0.125997 0)
(0.137978 -0.104395 0)
(0.147638 -0.0835133 0)
(0.161154 -0.0686425 0)
(0.181965 -0.0669918 0)
(0.203442 -0.0832659 0)
(0.216965 -0.0796406 0)
(0.247335 0.132565 0)
(0.321183 0.716922 0)
(0.442068 1.44287 0)
(0.58344 1.97645 0)
(0.625343 2.2591 0)
(0.597151 2.34536 0)
(0.593208 2.31107 0)
(0.584114 2.10785 0)
(0.473794 1.6239 0)
(0.220271 0.892804 0)
(-0.0465905 0.336379 0)
(-0.138303 0.0498153 0)
(-0.130999 -0.119162 0)
(-0.0873682 -0.111069 0)
(-0.0451461 -0.0170239 0)
(0.0215415 0.0501673 0)
(0.0194337 0.0875187 0)
(0.0567967 -0.144638 0)
(-0.000666402 -0.143306 0)
(0.02249 -0.141729 0)
(0.0550272 -0.164165 0)
(0.0788891 -0.169751 0)
(0.0918456 -0.155603 0)
(0.0987327 -0.133138 0)
(0.102215 -0.109212 0)
(0.10419 -0.0894022 0)
(0.107 -0.078567 0)
(0.112548 -0.0790018 0)
(0.114493 -0.0942953 0)
(0.113424 -0.10399 0)
(0.130381 0.0894029 0)
(0.192122 0.605118 0)
(0.312547 1.27826 0)
(0.440482 1.88172 0)
(0.470615 2.2672 0)
(0.449622 2.37449 0)
(0.456055 2.31901 0)
(0.47628 2.13554 0)
(0.440844 1.7384 0)
(0.280707 1.1449 0)
(0.0199178 0.588107 0)
(-0.074058 0.126176 0)
(-0.0706791 -0.149521 0)
(-0.0587564 -0.139734 0)
(-0.0517835 -0.0654154 0)
(0.00403782 0.00843043 0)
(0.000804318 0.0935916 0)
(0.0494505 -0.118692 0)
(0.00341697 -0.156054 0)
(0.021109 -0.171741 0)
(0.0427776 -0.188274 0)
(0.0577739 -0.181829 0)
(0.0636954 -0.16085 0)
(0.0645767 -0.13487 0)
(0.0628286 -0.108804 0)
(0.0580125 -0.0878231 0)
(0.0514535 -0.0786055 0)
(0.0466091 -0.0776331 0)
(0.0375977 -0.0886313 0)
(0.0225755 -0.10187 0)
(0.0114942 0.052137 0)
(0.0648374 0.545282 0)
(0.146059 1.15854 0)
(0.211375 1.82693 0)
(0.21064 2.27285 0)
(0.213432 2.35202 0)
(0.24797 2.28466 0)
(0.290375 2.12128 0)
(0.293656 1.7932 0)
(0.195537 1.30662 0)
(-0.0135188 0.779974 0)
(-0.0251523 0.161004 0)
(0.00388258 -0.162808 0)
(-0.0101044 -0.124735 0)
(-0.0476296 -0.0816949 0)
(-0.0233417 -0.0128854 0)
(-0.0164894 0.078247 0)
(0.0417221 -0.103061 0)
(0.00150712 -0.165338 0)
(0.0144007 -0.187608 0)
(0.0294446 -0.201383 0)
(0.0383712 -0.187943 0)
(0.0359712 -0.158609 0)
(0.0268026 -0.129504 0)
(0.0182804 -0.102593 0)
(0.00784308 -0.0785596 0)
(-0.00673702 -0.0699996 0)
(-0.0194093 -0.0673595 0)
(-0.0340909 -0.0730799 0)
(-0.059319 -0.0769045 0)
(-0.0903211 0.0471769 0)
(-0.0710194 0.483826 0)
(-0.0392137 1.11172 0)
(-0.0571354 1.8376 0)
(-0.0771319 2.26689 0)
(-0.0533687 2.31392 0)
(-0.0022777 2.23032 0)
(0.0587533 2.07801 0)
(0.0908825 1.81222 0)
(0.0469673 1.40966 0)
(-0.073513 0.853794 0)
(0.0398378 0.0816935 0)
(0.0027499 -0.143376 0)
(0.012356 -0.0830226 0)
(-0.0441269 -0.0641918 0)
(-0.0362091 -0.015601 0)
(-0.0130786 0.0101859 0)
(0.04094 -0.0895555 0)
(-0.00620758 -0.176307 0)
(0.012326 -0.19815 0)
(0.0256139 -0.212891 0)
(0.0311843 -0.188406 0)
(0.0133719 -0.142717 0)
(-0.0188782 -0.11261 0)
(-0.0395043 -0.0914549 0)
(-0.0515256 -0.0631397 0)
(-0.0707148 -0.053592 0)
(-0.0906892 -0.0501797 0)
(-0.112432 -0.0493767 0)
(-0.144077 -0.0406967 0)
(-0.179274 0.0601887 0)
(-0.199015 0.474901 0)
(-0.231824 1.14101 0)
(-0.319486 1.88227 0)
(-0.353786 2.25369 0)
(-0.316197 2.2628 0)
(-0.244391 2.16238 0)
(-0.165918 2.01779 0)
(-0.10542 1.78393 0)
(-0.0837466 1.42697 0)
(-0.091201 0.832391 0)
(0.0135894 -0.0320406 0)
(-0.0205586 -0.0990255 0)
(-0.0249277 -0.0704056 0)
(-0.0449495 -0.0508809 0)
(-0.0311292 -0.0325489 0)
(0.00289062 -0.0393811 0)
(0.0374218 -0.0604298 0)
(-0.02246 -0.181207 0)
(0.0206541 -0.212752 0)
(0.0393329 -0.224219 0)
(0.0471924 -0.185084 0)
(0.00539306 -0.104216 0)
(-0.08621 -0.0691235 0)
(-0.121464 -0.0790685 0)
(-0.125777 -0.0486924 0)
(-0.144901 -0.0326261 0)
(-0.17177 -0.0251592 0)
(-0.202646 -0.0166138 0)
(-0.241841 0.00394745 0)
(-0.282604 0.0940245 0)
(-0.341477 0.524183 0)
(-0.438785 1.26156 0)
(-0.582127 1.96438 0)
(-0.613002 2.26135 0)
(-0.551493 2.21134 0)
(-0.438542 2.08527 0)
(-0.329518 1.94736 0)
(-0.242436 1.72343 0)
(-0.160665 1.36809 0)
(-0.0324463 0.754138 0)
(-0.0171832 -0.00200597 0)
(-0.0225953 -0.0509569 0)
(-0.0487376 -0.0563357 0)
(-0.0463901 -0.0582423 0)
(-0.0253039 -0.0588208 0)
(0.00436604 -0.0734564 0)
(0.0211672 -0.0380745 0)
(-0.0434019 -0.184509 0)
(0.0489415 -0.251186 0)
(0.074129 -0.243968 0)
(0.0769114 -0.176284 0)
(-0.0104436 0.0136041 0)
(-0.1692 0.0162348 0)
(-0.193982 -0.0663525 0)
(-0.198636 -0.0299633 0)
(-0.212424 -8.84338e-05 0)
(-0.234479 0.0156961 0)
(-0.271237 0.0238177 0)
(-0.315156 0.0540556 0)
(-0.363769 0.163599 0)
(-0.484981 0.645726 0)
(-0.655898 1.45152 0)
(-0.778898 2.11104 0)
(-0.772639 2.2918 0)
(-0.655396 2.1513 0)
(-0.498924 1.99672 0)
(-0.372621 1.89649 0)
(-0.266941 1.66697 0)
(-0.142432 1.28276 0)
(0.044115 0.620179 0)
(-0.0114952 0.0512677 0)
(-0.0219231 -0.0105683 0)
(-0.0571543 -0.0468712 0)
(-0.0593699 -0.068518 0)
(-0.0404006 -0.0900669 0)
(-0.00479059 -0.0973004 0)
(0.00448496 -0.027941 0)
(-0.0303747 -0.190359 0)
(0.0850213 -0.336509 0)
(0.127522 -0.266551 0)
(0.15378 -0.103476 0)
(-0.0260888 0.215101 0)
(-0.176423 0.192328 0)
(-0.291552 -0.0111085 0)
(-0.311547 -0.022355 0)
(-0.276746 -0.0163102 0)