# vtk DataFile Version 2.0
rotor
ASCII
DATASET POLYDATA
POINTS 384 float
0.1 0 0 0.0997859 -0.00654031 0 0.0997859 -0.00654031 0.05 0.1 0
0.05 0.0991445 -0.0130526 0 0.0991445 -0.0130526 0.05 0.0980785 -0.019509 0
0.0980785 -0.019509 0.05 0.0965926 -0.0258819 0 0.0965926 -0.0258819 0.05 0.094693
-0.0321439 0 0.094693 -0.0321439 0.05 0.092388 -0.0382683 0 0.092388 -0.0382683
0.05 0.0896873 -0.0442289 0 0.0896873 -0.0442289 0.05 0.0866025 -0.05 0
0.0866025 -0.05 0.05 0.083147 -0.055557 0 0.083147 -0.055557 0.05 0.0793353
-0.0608761 0 0.0793353 -0.0608761 0.05 0.075184 -0.0659346 0 0.075184 -0.0659346
0.05 0.0707107 -0.0707107 0 0.0707107 -0.0707107 0.05 0.0659346 -0.075184 0
0.0659346 -0.075184 0.05 0.0608761 -0.0793353 0 0.0608761 -0.0793353 0.05 0.055557
-0.083147 0 0.055557 -0.083147 0.05 0.05 -0.0866025 0 0.05 -0.0866025
0.05 0.0442289 -0.0896873 0 0.0442289 -0.0896873 0.05 0.0382683 -0.092388 0
0.0382683 -0.092388 0.05 0.0321439 -0.094693 0 0.0321439 -0.094693 0.05 0.0258819
-0.0965926 0 0.0258819 -0.0965926 0.05 0.019509 -0.0980785 0 0.019509 -0.0980785
0.05 0.0130526 -0.0991445 0 0.0130526 -0.0991445 0.05 0.00654031 -0.0997859 0
0.00654031 -0.0997859 0.05 1.7949e-10 -0.1 0 1.7949e-10 -0.1 0.05 1.7949e-10
-0.1 0 -0.00654031 -0.0997859 0 -0.00654031 -0.0997859 0.05 1.7949e-10 -0.1
0.05 -0.0130526 -0.0991445 0 -0.0130526 -0.0991445 0.05 -0.019509 -0.0980785 0
-0.019509 -0.0980785 0.05 -0.0258819 -0.0965926 0 -0.0258819 -0.0965926 0.05 -0.0321439
-0.094693 0 -0.0321439 -0.094693 0.05 -0.0382683 -0.092388 0 -0.0382683 -0.092388
0.05 -0.0442289 -0.0896873 0 -0.0442289 -0.0896873 0.05 -0.05 -0.0866025 0
-0.05 -0.0866025 0.05 -0.055557 -0.083147 0 -0.055557 -0.083147 0.05 -0.0608761
-0.0793353 0 -0.0608761 -0.0793353 0.05 -0.0659346 -0.075184 0 -0.0659346 -0.075184
0.05 -0.0707107 -0.0707107 0 -0.0707107 -0.0707107 0.05 -0.075184 -0.0659346 0
-0.075184 -0.0659346 0.05 -0.0793353 -0.0608761 0 -0.0793353 -0.0608761 0.05 -0.083147
-0.055557 0 -0.083147 -0.055557 0.05 -0.0866025 -0.05 0 -0.0866025 -0.05
0.05 -0.0896873 -0.0442289 0 -0.0896873 -0.0442289 0.05 -0.092388 -0.0382683 0
-0.092388 -0.0382683 0.05 -0.094693 -0.0321439 0 -0.094693 -0.0321439 0.05 -0.0965926
-0.0258819 0 -0.0965926 -0.0258819 0.05 -0.0980785 -0.019509 0 -0.0980785 -0.019509
0.05 -0.0991445 -0.0130526 0 -0.0991445 -0.0130526 0.05 -0.0997859 -0.00654031 0
-0.0997859 -0.00654031 0.05 -0.1 3.58979e-10 0 -0.1 3.58979e-10 0.05 -0.1
3.58979e-10 0 -0.0997859 0.00654031 0 -0.0997859 0.00654031 0.05 -0.1 3.58979e-10
0.05 -0.0991445 0.0130526 0 -0.0991445 0.0130526 0.05 -0.0980785 0.019509 0
-0.0980785 0.019509 0.05 -0.0965926 0.0258819 0 -0.0965926 0.0258819 0.05 -0.094693
0.0321439 0 -0.094693 0.0321439 0.05 -0.092388 0.0382683 0 -0.092388 0.0382683
0.05 -0.0896873 0.0442289 0 -0.0896873 0.0442289 0.05 -0.0866025 0.05 0
-0.0866025 0.05 0.05 -0.083147 0.055557 0 -0.083147 0.055557 0.05 -0.0793353
0.0608761 0 -0.0793353 0.0608761 0.05 -0.075184 0.0659346 0 -0.075184 0.0659346
0.05 -0.0707107 0.0707107 0 -0.0707107 0.0707107 0.05 -0.0659346 0.075184 0
-0.0659346 0.075184 0.05 -0.0608761 0.0793353 0 -0.0608761 0.0793353 0.05 -0.055557
0.083147 0 -0.055557 0.083147 0.05 -0.05 0.0866025 0 -0.05 0.0866025
0.05 -0.0442289 0.0896873 0 -0.0442289 0.0896873 0.05 -0.0382683 0.092388 0
-0.0382683 0.092388 0.05 -0.0321439 0.094693 0 -0.0321439 0.094693 0.05 -0.0258819
0.0965926 0 -0.0258819 0.0965926 0.05 -0.019509 0.0980785 0 -0.019509 0.0980785
0.05 -0.0130526 0.0991445 0 -0.0130526 0.0991445 0.05 -0.00654031 0.0997859 0
-0.00654031 0.0997859 0.05 1.7949e-10 0.1 0 1.7949e-10 0.1 0.05 1.7949e-10
0.1 0 0.00654031 0.0997859 0 0.00654031 0.0997859 0.05 1.7949e-10 0.1
0.05 0.0130526 0.0991445 0 0.0130526 0.0991445 0.05 0.019509 0.0980785 0
0.019509 0.0980785 0.05 0.0258819 0.0965926 0 0.0258819 0.0965926 0.05 0.0321439
0.094693 0 0.0321439 0.094693 0.05 0.0382683 0.092388 0 0.0382683 0.092388
0.05 0.0442289 0.0896873 0 0.0442289 0.0896873 0.05 0.05 0.0866025 0
0.05 0.0866025 0.05 0.055557 0.083147 0 0.055557 0.083147 0.05 0.0608761
0.0793353 0 0.0608761 0.0793353 0.05 0.0659346 0.075184 0 0.0659346 0.075184
0.05 0.0707107 0.0707107 0 0.0707107 0.0707107 0.05 0.075184 0.0659346 0
0.075184 0.0659346 0.05 0.0793353 0.0608761 0 0.0793353 0.0608761 0.05 0.083147
0.055557 0 0.083147 0.055557 0.05 0.0866025 0.05 0 0.0866025 0.05
0.05 0.0896873 0.0442289 0 0.0896873 0.0442289 0.05 0.092388 0.0382683 0
0.092388 0.0382683 0.05 0.094693 0.0321439 0 0.094693 0.0321439 0.05 0.0965926
0.0258819 0 0.0965926 0.0258819 0.05 0.0980785 0.019509 0 0.0980785 0.019509
0.05 0.0991445 0.0130526 0 0.0991445 0.0130526 0.05 0.0997859 0.00654031 0
0.0997859 0.00654031 0.05 0.1 0 0 0.1 0 0.05 0.1125
0 0.05 0.1125 0 0 0.125 0 0.05 0.125 0
0 0.1375 0 0.05 0.1375 0 0 0.15 0 0.05
0.15 0 0 0.1625 0 0.05 0.1625 0 0 0.175
0 0.05 0.175 0 0 0.1875 0 0.05 0.1875 0
0 0.2 0 0.05 0.2 0 0 0.2125 0 0.05
0.2125 0 0 0.225 0 0.05 0.225 0 0 0.2375
0 0.05 0.2375 0 0 0.25 0 0.05 0.25 0
0 0.1125 0 0 0.1125 0 0.05 0.125 0 0
0.125 0 0.05 0.1375 0 0 0.1375 0 0.05 0.15
0 0 0.15 0 0.05 0.1625 0 0 0.1625 0
0.05 0.175 0 0 0.175 0 0.05 0.1875 0 0
0.1875 0 0.05 0.2 0 0 0.2 0 0.05 0.2125
0 0 0.2125 0 0.05 0.225 0 0 0.225 0
0.05 0.2375 0 0 0.2375 0 0.05 2.01926e-10 -0.1125 0.05
2.01926e-10 -0.1125 0 2.24362e-10 -0.125 0.05 2.24362e-10 -0.125 0 2.46798e-10
-0.1375 0.05 2.46798e-10 -0.1375 0 2.69235e-10 -0.15 0.05 2.69235e-10 -0.15
0 2.91671e-10 -0.1625 0.05 2.91671e-10 -0.1625 0 3.14107e-10 -0.175 0.05
3.14107e-10 -0.175 0 3.36543e-10 -0.1875 0.05 3.36543e-10 -0.1875 0 3.58979e-10
-0.2 0.05 3.58979e-10 -0.2 0 3.81416e-10 -0.2125 0.05 3.81416e-10 -0.2125
0 4.03852e-10 -0.225 0.05 4.03852e-10 -0.225 0 4.26288e-10 -0.2375 0.05
4.26288e-10 -0.2375 0 4.48724e-10 -0.25 0.05 4.48724e-10 -0.25 0 2.01926e-10
-0.1125 0 2.01926e-10 -0.1125 0.05 2.24362e-10 -0.125 0 2.24362e-10 -0.125
0.05 2.46798e-10 -0.1375 0 2.46798e-10 -0.1375 0.05 2.69234e-10 -0.15 0
2.69234e-10 -0.15 0.05 2.91671e-10 -0.1625 0 2.91671e-10 -0.1625 0.05 3.14107e-10
-0.175 0 3.14107e-10 -0.175 0.05 3.36543e-10 -0.1875 0 3.36543e-10 -0.1875
0.05 3.58979e-10 -0.2 0 3.58979e-10 -0.2 0.05 3.81416e-10 -0.2125 0
3.81416e-10 -0.2125 0.05 4.03852e-10 -0.225 0 4.03852e-10 -0.225 0.05 4.26288e-10
-0.2375 0 4.26288e-10 -0.2375 0.05 -0.1125 4.03852e-10 0.05 -0.1125 4.03852e-10
0 -0.125 4.48724e-10 0.05 -0.125 4.48724e-10 0 -0.1375 4.93597e-10 0.05
-0.1375 4.93597e-10 0 -0.15 5.38469e-10 0.05 -0.15 5.38469e-10 0 -0.1625
5.83341e-10 0.05 -0.1625 5.83341e-10 0 -0.175 6.28214e-10 0.05 -0.175 6.28214e-10
0 -0.1875 6.73086e-10 0.05 -0.1875 6.73086e-10 0 -0.2 7.17959e-10 0.05
-0.2 7.17959e-10 0 -0.2125 7.62831e-10 0.05 -0.2125 7.62831e-10 0 -0.225
8.07704e-10 0.05 -0.225 8.07704e-10 0 -0.2375 8.52576e-10 0.05 -0.2375 8.52576e-10
0 -0.25 8.97448e-10 0.05 -0.25 8.97448e-10 0 -0.1125 4.03852e-10 0
-0.1125 4.03852e-10 0.05 -0.125 4.48724e-10 0 -0.125 4.48724e-10 0.05 -0.1375
4.93597e-10 0 -0.1375 4.93597e-10 0.05 -0.15 5.38469e-10 0 -0.15 5.38469e-10
0.05 -0.1625 5.83341e-10 0 -0.1625 5.83341e-10 0.05 -0.175 6.28214e-10 0
-0.175 6.28214e-10 0.05 -0.1875 6.73086e-10 0 -0.1875 6.73086e-10 0.05 -0.2
7.17959e-10 0 -0.2 7.17959e-10 0.05 -0.2125 7.62831e-10 0 -0.2125 7.62831e-10
0.05 -0.225 8.07704e-10 0 -0.225 8.07704e-10 0.05 -0.2375 8.52576e-10 0
-0.2375 8.52576e-10 0.05 2.01926e-10 0.1125 0.05 2.01926e-10 0.1125 0 2.24362e-10
0.125 0.05 2.24362e-10 0.125 0 2.46798e-10 0.1375 0.05 2.46798e-10 0.1375
0 2.69235e-10 0.15 0.05 2.69235e-10 0.15 0 2.91671e-10 0.1625 0.05
2.91671e-10 0.1625 0 3.14107e-10 0.175 0.05 3.14107e-10 0.175 0 3.36543e-10
0.1875 0.05 3.36543e-10 0.1875 0 3.58979e-10 0.2 0.05 3.58979e-10 0.2
0 3.81416e-10 0.2125 0.05 3.81416e-10 0.2125 0 4.03852e-10 0.225 0.05
4.03852e-10 0.225 0 4.26288e-10 0.2375 0.05 4.26288e-10 0.2375 0 4.48724e-10
0.25 0.05 4.48724e-10 0.25 0 2.01926e-10 0.1125 0 2.01926e-10 0.1125
0.05 2.24362e-10 0.125 0 2.24362e-10 0.125 0.05 2.46798e-10 0.1375 0
2.46798e-10 0.1375 0.05 2.69234e-10 0.15 0 2.69234e-10 0.15 0.05 2.91671e-10
0.1625 0 2.91671e-10 0.1625 0.05 3.14107e-10 0.175 0 3.14107e-10 0.175
0.05 3.36543e-10 0.1875 0 3.36543e-10 0.1875 0.05 3.58979e-10 0.2 0
3.58979e-10 0.2 0.05 3.81416e-10 0.2125 0 3.81416e-10 0.2125 0.05 4.03852e-10
0.225 0 4.03852e-10 0.225 0.05 4.26288e-10 0.2375 0 4.26288e-10 0.2375
0.05 
POLYGONS 192 960
4 0 1 2 3 4 1 4 5 2 4
4 6 7 5 4 6 8 9 7 4
8 10 11 9 4 10 12 13 11 4
12 14 15 13 4 14 16 17 15 4
16 18 19 17 4 18 20 21 19 4
20 22 23 21 4 22 24 25 23 4
24 26 27 25 4 26 28 29 27 4
28 30 31 29 4 30 32 33 31 4
32 34 35 33 4 34 36 37 35 4
36 38 39 37 4 38 40 41 39 4
40 42 43 41 4 42 44 45 43 4
44 46 47 45 4 46 48 49 47 4
50 51 52 53 4 51 54 55 52 4
54 56 57 55 4 56 58 59 57 4
58 60 61 59 4 60 62 63 61 4
62 64 65 63 4 64 66 67 65 4
66 68 69 67 4 68 70 71 69 4
70 72 73 71 4 72 74 75 73 4
74 76 77 75 4 76 78 79 77 4
78 80 81 79 4 80 82 83 81 4
82 84 85 83 4 84 86 87 85 4
86 88 89 87 4 88 90 91 89 4
90 92 93 91 4 92 94 95 93 4
94 96 97 95 4 96 98 99 97 4
100 101 102 103 4 101 104 105 102 4
104 106 107 105 4 106 108 109 107 4
108 110 111 109 4 110 112 113 111 4
112 114 115 113 4 114 116 117 115 4
116 118 119 117 4 118 120 121 119 4
120 122 123 121 4 122 124 125 123 4
124 126 127 125 4 126 128 129 127 4
128 130 131 129 4 130 132 133 131 4
132 134 135 133 4 134 136 137 135 4
136 138 139 137 4 138 140 141 139 4
140 142 143 141 4 142 144 145 143 4
144 146 147 145 4 146 148 149 147 4
150 151 152 153 4 151 154 155 152 4
154 156 157 155 4 156 158 159 157 4
158 160 161 159 4 160 162 163 161 4
162 164 165 163 4 164 166 167 165 4
166 168 169 167 4 168 170 171 169 4
170 172 173 171 4 172 174 175 173 4
174 176 177 175 4 176 178 179 177 4
178 180 181 179 4 180 182 183 181 4
182 184 185 183 4 184 186 187 185 4
186 188 189 187 4 188 190 191 189 4
190 192 193 191 4 192 194 195 193 4
194 196 197 195 4 196 198 199 197 4
0 3 200 201 4 201 200 202 203 4
203 202 204 205 4 205 204 206 207 4
207 206 208 209 4 209 208 210 211 4
211 210 212 213 4 213 212 214 215 4
215 214 216 217 4 217 216 218 219 4
219 218 220 221 4 221 220 222 223 4
198 224 225 199 4 224 226 227 225 4
226 228 229 227 4 228 230 231 229 4
230 232 233 231 4 232 234 235 233 4
234 236 237 235 4 236 238 239 237 4
238 240 241 239 4 240 242 243 241 4
242 244 245 243 4 244 223 222 245 4
50 53 246 247 4 247 246 248 249 4
249 248 250 251 4 251 250 252 253 4
253 252 254 255 4 255 254 256 257 4
257 256 258 259 4 259 258 260 261 4
261 260 262 263 4 263 262 264 265 4
265 264 266 267 4 267 266 268 269 4
48 270 271 49 4 270 272 273 271 4
272 274 275 273 4 274 276 277 275 4
276 278 279 277 4 278 280 281 279 4
280 282 283 281 4 282 284 285 283 4
284 286 287 285 4 286 288 289 287 4
288 290 291 289 4 290 269 268 291 4
100 103 292 293 4 293 292 294 295 4
295 294 296 297 4 297 296 298 299 4
299 298 300 301 4 301 300 302 303 4
303 302 304 305 4 305 304 306 307 4
307 306 308 309 4 309 308 310 311 4
311 310 312 313 4 313 312 314 315 4
98 316 317 99 4 316 318 319 317 4
318 320 321 319 4 320 322 323 321 4
322 324 325 323 4 324 326 327 325 4
326 328 329 327 4 328 330 331 329 4
330 332 333 331 4 332 334 335 333 4
334 336 337 335 4 336 315 314 337 4
150 153 338 339 4 339 338 340 341 4
341 340 342 343 4 343 342 344 345 4
345 344 346 347 4 347 346 348 349 4
349 348 350 351 4 351 350 352 353 4
353 352 354 355 4 355 354 356 357 4
357 356 358 359 4 359 358 360 361 4
148 362 363 149 4 362 364 365 363 4
364 366 367 365 4 366 368 369 367 4
368 370 371 369 4 370 372 373 371 4
372 374 375 373 4 374 376 377 375 4
376 378 379 377 4 378 380 381 379 4
380 382 383 381 4 382 361 360 383 
CELL_DATA 192
FIELD attributes 5
patchID 1 192 float
0 0 0 0 0 0 0 0 0 0 0
0 0 0 0 0 0 0 0 0 0
0 0 0 0 0 0 0 0 0 0
0 0 0 0 0 0 0 0 0 0
0 0 0 0 0 0 0 0 0 0
0 0 0 0 0 0 0 0 0 0
0 0 0 0 0 0 0 0 0 0
0 0 0 0 0 0 0 0 0 0
0 0 0 0 0 0 0 0 0 0
0 0 0 0 0 0 0 0 0 0
0 0 0 0 0 0 0 0 0 0
0 0 0 0 0 0 0 0 0 0
0 0 0 0 0 0 0 0 0 0
0 0 0 0 0 0 0 0 0 0
0 0 0 0 0 0 0 0 0 0
0 0 0 0 0 0 0 0 0 0
0 0 0 0 0 0 0 0 0 0
0 0 0 0 0 0 0 0 0 0
0 0 0 0 0 0 0 0 0 0
0 
p 1 192 float
0 -142.688 -250.889 -251.764 -31.6747 2.9406 284.982 602.73 668.623 370.548 442.947
286.414 445.802 384.157 538.914 577.206 760.57 954.812 1253.12 1405.93 1380.73
1363.15 1326.88 1308.75 297.656 111.032 127.01 159.935 285.728 646.884 709
137.679 -99.8757 -449.249 -489.105 -627.18 -197.921 -91.6181 733.532 967.556 1572.57
1695.43 2086.46 2182.67 2292.3 2262.72 2285.23 2275.17 -614.707 -1023.86 -805.995
-967.086 -629.29 -380.568 -64.1783 113.24 -122.961 -448.149 -430.054 -605.68 -507.301
-629.727 -469.903 -364.558 144.482 611.598 1076.28 995.059 1026.99 966.629 1000.61
967.194 -155.411 -483.703 -445.493 -598.815 -428.434 -210.476 -111.378 80.4976 121.436
226.157 214.342 260.06 254.73 332.935 483.833 727.287 988.793 1218.03 1136.53
1091.37 1023.48 963.139 977.605 979.995 0 -138.676 193.019 22.4902 338.698
568.374 440.474 457.141 498.832 584.054 707.107 866.165 979.995 1050.5 1135.75
1206.72 1269.26 1336.68 1427.23 1516.1 1593.06 1638.86 1639.2 1495.16 297.656
316.752 693.64 656.589 749.287 777.383 620.891 560.382 581.436 648.797 788.627
1026.07 1308.75 1299.37 1318.01 1338.7 1377.08 1444.41 1545.21 1688.74 1852.35
1942.67 2037.14 1845.48 -614.707 -931.809 -853.729 -658.755 -51.032 33.7411 104.425
64.7027 49.5481 99.2575 217.412 409.581 2275.17 2290.93 2340.16 2366.02 2396.16
2397.5 2377.49 2245.81 2147.51 2029.8 1862.82 1510.09 -155.411 -395.874 -245.097
-162.979 182.01 214.489 183.629 176.067 227.47 340.939 469.964 604.789 967.194
963.448 964.072 996.454 1060.23 1153.8 1252.15 1341.91 1447.95 1516.24 1599.64
1443.06 
alpha.water 1 192 float
0.00154061 0.00142446 0.000387916 0.00037728 0.00037728 0.00187208 0.00167524 0.000180255 7.18636e-08 8.43712e-07 9.38899e-07
2.04953e-06 1.13232e-06 3.02356e-12 3.14773e-12 0.00126718 0.00277291 0.00277291 0.00277291 0.00239044 0.000718118
0.000699039 0.000463505 0.00020478 0.000526126 0.000526126 0.0077431 0.00429392 4.43888e-05 4.43888e-05 0.0595692
0.0717236 0.0717204 0.0713862 0.0717423 0.228295 0.864658 0.864194 0.81076 0.175836 0.0454603
0.026583 0.0112838 0.0137683 0.0389944 0.0200271 0.0651395 7.8611e-12 0.271003 0.177954 0.00542259
0.00347636 0.0034763 0.00347636 0.0580902 0.878917 0.999673 0.995599 0.614604 0.392144 0.392354
0.395749 0.818218 0.999961 0.999961 0.999961 0.820402 0.451377 0.363146 0.306853 0.275649
0.163582 0.468598 0.468598 0.468598 0.467988 0.468066 0.247742 0.00600631 0.34051 0.0512337
6.69134e-13 6.69134e-13 6.69134e-13 7.84726e-13 9.01003e-13 1.0144e-12 1.11187e-12 0.00280308 0.26686 0.518905
0.587816 0.588913 0.59001 0.79243 0.962751 0.00154061 0.000232517 0.000176967 0.000337677 0.00138897
0.00193287 0.000961522 0.000928312 0.000565533 1.31187e-05 8.44142e-13 7.69303e-13 0.962751 0.962751 0.911165
0.154862 8.44789e-05 0.108364 0.178043 0.213434 0.183238 0.131135 0.152676 0.300244 0.000526126
0.000873871 0.00275905 0.00154253 0.000861318 0.000125579 4.43881e-05 4.43881e-05 4.43881e-05 0.176604 0.443235
0.116801 0.00020478 0.000280346 0.000902319 4.27692e-07 0.000164416 0.000213699 0.000213477 4.80235e-05 8.65061e-06
2.58048e-05 6.12578e-05 7.94418e-05 0.271003 0.271003 0.0655073 0.00666074 0.00863014 0.0375881 0.039287
0.04123 0.463951 0.993226 0.998596 0.648954 7.8611e-12 7.93394e-12 0.112919 0.24198 0.180743
0.0969015 0.110256 0.104503 0.10527 0.104776 0.23345 0.234364 0.468598 0.468598 0.400188
0.0284998 0.00226249 0.00229169 0.00226626 0.33991 0.459681 0.459681 0.206503 2.44719e-05 0.163582
0.796072 0.999948 0.994662 0.788213 0.466337 0.304736 0.303779 0.448046 0.36264 0.245947
0.119628 
p_rgh 1 192 float
0 -142.688 -250.889 -251.764 -31.6747 2.9406 284.982 602.73 668.623 370.548 442.947
286.414 445.802 384.157 538.914 577.206 760.57 954.812 1253.12 1405.93 1380.73
1363.15 1326.88 1308.75 297.656 111.032 127.01 159.935 285.728 646.884 709
137.679 -99.8757 -449.249 -489.105 -627.18 -197.921 -91.6181 733.532 967.556 1572.57
1695.43 2086.46 2182.67 2292.3 2262.72 2285.23 2275.17 -614.707 -1023.86 -805.995
-967.086 -629.29 -380.568 -64.1783 113.24 -122.961 -448.149 -430.054 -605.68 -507.301
-629.727 -469.903 -364.558 144.482 611.598 1076.28 995.059 1026.99 966.629 1000.61
967.194 -155.411 -483.703 -445.493 -598.815 -428.434 -210.476 -111.378 80.4976 121.436
226.157 214.342 260.06 254.73 332.935 483.833 727.287 988.793 1218.03 1136.53
1091.37 1023.48 963.139 977.605 979.995 0 -138.676 193.019 22.4902 338.698
568.374 440.474 457.141 498.832 584.054 707.107 866.165 979.995 1050.5 1135.75
1206.72 1269.26 1336.68 1427.23 1516.1 1593.06 1638.86 1639.2 1495.16 297.656
316.752 693.64 656.589 749.287 777.383 620.891 560.382 581.436 648.797 788.627
1026.07 1308.75 1299.37 1318.01 1338.7 1377.08 1444.41 1545.21 1688.74 1852.35
1942.67 2037.14 1845.48 -614.707 -931.809 -853.729 -658.755 -51.032 33.7411 104.425
64.7027 49.5481 99.2575 217.412 409.581 2275.17 2290.93 2340.16 2366.02 2396.16
2397.5 2377.49 2245.81 2147.51 2029.8 1862.82 1510.09 -155.411 -395.874 -245.097
-162.979 182.01 214.489 183.629 176.067 227.47 340.939 469.964 604.789 967.194
963.448 964.072 996.454 1060.23 1153.8 1252.15 1341.91 1447.95 1516.24 1599.64
1443.06 
U 3 192 float
0.020547 0.627646 0 0.061553 0.624958 0 0.102295 0.619594 0 0.1426 0.611577
0 0.182294 0.600941 0 0.221207 0.587732 0 0.259173 0.572006 0
0.296029 0.553831 0 0.331617 0.533284 0 0.365786 0.510453 0 0.398388
0.485437 0 0.429284 0.458342 0 0.458342 0.429284 0 0.485437 0.398388
0 0.510453 0.365786 0 0.533284 0.331617 0 0.553831 0.296029 0
0.572006 0.259173 0 0.587732 0.221207 0 0.600941 0.182294 0 0.611577
0.1426 0 0.619594 0.102295 0 0.624958 0.061553 0 0.627646 0.020547
0 0.627646 -0.020547 0 0.624958 -0.061553 0 0.619594 -0.102295 0
0.611577 -0.1426 0 0.600941 -0.182294 0 0.587732 -0.221207 0 0.572006
-0.259173 0 0.553831 -0.296029 0 0.533284 -0.331617 0 0.510453 -0.365786
0 0.485437 -0.398388 0 0.458342 -0.429284 0 0.429284 -0.458342 0
0.398388 -0.485437 0 0.365786 -0.510453 0 0.331617 -0.533284 0 0.296029
-0.553831 0 0.259173 -0.572006 0 0.221207 -0.587732 0 0.182294 -0.600941
0 0.1426 -0.611577 0 0.102295 -0.619594 0 0.061553 -0.624958 0
0.020547 -0.627646 0 -0.020547 -0.627646 0 -0.061553 -0.624958 0 -0.102295
-0.619594 0 -0.1426 -0.611577 0 -0.182294 -0.600941 0 -0.221207 -0.587732
0 -0.259173 -0.572006 0 -0.296029 -0.553831 0 -0.331617 -0.533284 0
-0.365786 -0.510453 0 -0.398388 -0.485437 0 -0.429284 -0.458342 0 -0.458342
-0.429284 0 -0.485437 -0.398388 0 -0.510453 -0.365786 0 -0.533284 -0.331617
0 -0.553831 -0.296029 0 -0.572006 -0.259173 0 -0.587732 -0.221207 0
-0.600941 -0.182294 0 -0.611577 -0.1426 0 -0.619594 -0.102295 0 -0.624958
-0.061553 0 -0.627646 -0.020547 0 -0.627646 0.020547 0 -0.624958 0.061553
0 -0.619594 0.102295 0 -0.611577 0.1426 0 -0.600941 0.182294 0
-0.587732 0.221207 0 -0.572006 0.259173 0 -0.553831 0.296029 0 -0.533284
0.331617 0 -0.510453 0.365786 0 -0.485437 0.398388 0 -0.458342 0.429284
0 -0.429284 0.458342 0 -0.398388 0.485437 0 -0.365786 0.510453 0
-0.331617 0.533284 0 -0.296029 0.553831 0 -0.259173 0.572006 0 -0.221207
0.587732 0 -0.182294 0.600941 0 -0.1426 0.611577 0 -0.102295 0.619594
0 -0.061553 0.624958 0 -0.020547 0.627646 0 0 0.667588 0
0 0.746128 0 0 0.824668 0 0 0.903208 0 0
0.981748 0 0 1.06029 0 0 1.13883 0 0 1.21737
0 0 1.29591 0 0 1.37445 0 0 1.45299 0
0 1.53153 0 0 0.667588 0 0 0.746128 0 0
0.824668 0 0 0.903208 0 0 0.981748 0 0 1.06029
0 0 1.13883 0 0 1.21737 0 0 1.29591 0
0 1.37445 0 0 1.45299 0 0 1.53153 0 0.667588
1.19825e-09 0 0.746128 1.33922e-09 0 0.824668 1.48019e-09 0 0.903208 1.62116e-09
0 0.981748 1.76214e-09 0 1.06029 1.90311e-09 0 1.13883 2.04408e-09 0
1.21737 2.18505e-09 0 1.29591 2.32602e-09 0 1.37445 2.46699e-09 0 1.45299
2.60796e-09 0 1.53153 2.74893e-09 0 0.667588 1.19825e-09 0 0.746128 1.33922e-09
0 0.824668 1.48019e-09 0 0.903208 1.62116e-09 0 0.981748 1.76214e-09 0
1.06029 1.90311e-09 0 1.13883 2.04408e-09 0 1.21737 2.18505e-09 0 1.29591
2.32602e-09 0 1.37445 2.46699e-09 0 1.45299 2.60796e-09 0 1.53153 2.74893e-09
0 -2.3965e-09 -0.667588 0 -2.67845e-09 -0.746128 0 -2.96039e-09 -0.824668 0
-3.24233e-09 -0.903208 0 -3.52427e-09 -0.981748 0 -3.80621e-09 -1.06029 0 -4.08815e-09
-1.13883 0 -4.3701e-09 -1.21737 0 -4.65204e-09 -1.29591 0 -4.93398e-09 -1.37445
0 -5.21592e-09 -1.45299 0 -5.49786e-09 -1.53153 0 -2.3965e-09 -0.667588 0
-2.67845e-09 -0.746128 0 -2.96039e-09 -0.824668 0 -3.24233e-09 -0.903208 0 -3.52427e-09
-0.981748 0 -3.80621e-09 -1.06029 0 -4.08815e-09 -1.13883 0 -4.3701e-09 -1.21737
0 -4.65204e-09 -1.29591 0 -4.93398e-09 -1.37445 0 -5.21592e-09 -1.45299 0
-5.49786e-09 -1.53153 0 -0.667588 1.19825e-09 0 -0.746128 1.33922e-09 0 -0.824668
1.48019e-09 0 -0.903208 1.62116e-09 0 -0.981748 1.76214e-09 0 -1.06029 1.90311e-09
0 -1.13883 2.04408e-09 0 -1.21737 2.18505e-09 0 -1.29591 2.32602e-09 0
-1.37445 2.46699e-09 0 -1.45299 2.60796e-09 0 -1.53153 2.74893e-09 0 -0.667588
1.19825e-09 0 -0.746128 1.33922e-09 0 -0.824668 1.48019e-09 0 -0.903208 1.62116e-09
0 -0.981748 1.76214e-09 0 -1.06029 1.90311e-09 0 -1.13883 2.04408e-09 0
-1.21737 2.18505e-09 0 -1.29591 2.32602e-09 0 -1.37445 2.46699e-09 0 -1.45299
2.60796e-09 0 -1.53153 2.74893e-09 0 
POINT_DATA  384
FIELD attributes 4
p 1 384 float
0 -71.344 -71.344 0 -196.788 -196.788 -251.327 -251.327 -141.719 -141.719 -14.3671
-14.3671 143.961 143.961 443.856 443.856 635.677 635.677 519.586 519.586 406.747
406.747 364.681 364.681 366.108 366.108 414.979 414.979 461.535 461.535 558.06
558.06 668.888 668.888 857.691 857.691 1103.97 1103.97 1329.53 1329.53 1393.33
1393.33 1371.94 1371.94 1345.02 1345.02 1317.81 1317.81 1308.75 1308.75 297.656
204.344 204.344 297.656 119.021 119.021 143.473 143.473 222.831 222.831 466.306
466.306 677.942 677.942 423.34 423.34 18.9016 18.9016 -274.562 -274.562 -469.177
-469.177 -558.143 -558.143 -412.551 -412.551 -144.77 -144.77 320.957 320.957 850.544
850.544 1270.06 1270.06 1634 1634 1890.94 1890.94 2134.56 2134.56 2237.49
2237.49 2277.51 2277.51 2273.98 2273.98 2280.2 2280.2 2275.17 2275.17 -614.707
-819.284 -819.284 -614.707 -914.927 -914.927 -886.541 -886.541 -798.188 -798.188 -504.929
-504.929 -222.373 -222.373 24.5308 24.5308 -4.8605 -4.8605 -285.555 -285.555 -439.102
-439.102 -517.867 -517.867 -556.49 -556.49 -568.514 -568.514 -549.815 -549.815 -417.23
-417.23 -110.038 -110.038 378.04 378.04 843.939 843.939 1035.67 1035.67 1011.02
1011.02 996.81 996.81 983.62 983.62 983.902 983.902 967.194 967.194 -155.411
-319.557 -319.557 -155.411 -464.598 -464.598 -522.154 -522.154 -513.625 -513.625 -319.455
-319.455 -160.927 -160.927 -15.4402 -15.4402 100.967 100.967 173.796 173.796 220.249
220.249 237.201 237.201 257.395 257.395 293.832 293.832 408.384 408.384 605.56
605.56 858.04 858.04 1103.41 1103.41 1177.28 1177.28 1113.95 1113.95 1057.43
1057.43 993.31 993.31 970.372 970.372 978.8 978.8 979.995 979.995 -69.338
-69.338 27.1715 27.1715 107.755 107.755 180.594 180.594 453.536 453.536 504.424
504.424 448.807 448.807 477.987 477.987 541.443 541.443 645.581 645.581 786.636
786.636 1180.66 1180.66 1015.25 1015.25 1093.12 1093.12 1171.23 1171.23 1237.99
1237.99 1302.97 1302.97 1381.95 1381.95 1471.67 1471.67 1554.58 1554.58 1615.96
1615.96 1639.03 1639.03 1567.18 1567.18 307.204 307.204 505.196 505.196 675.115
675.115 702.938 702.938 763.335 763.335 699.137 699.137 590.636 590.636 570.909
570.909 615.117 615.117 718.712 718.712 907.349 907.349 1435.78 1435.78 1304.06
1304.06 1308.69 1308.69 1328.35 1328.35 1357.89 1357.89 1410.74 1410.74 1494.81
1494.81 1616.97 1616.97 1770.55 1770.55 1897.51 1897.51 1989.91 1989.91 1941.31
1941.31 -773.258 -773.258 -892.769 -892.769 -756.242 -756.242 -354.893 -354.893 -8.64545
-8.64545 69.0831 69.0831 84.5639 84.5639 57.1254 57.1254 74.4028 74.4028 158.335
158.335 313.496 313.496 959.836 959.836 2283.05 2283.05 2315.54 2315.54 2353.09
2353.09 2381.09 2381.09 2396.83 2396.83 2387.5 2387.5 2311.65 2311.65 2196.66
2196.66 2088.66 2088.66 1946.31 1946.31 1686.45 1686.45 -275.642 -275.642 -320.486
-320.486 -204.038 -204.038 9.5155 9.5155 198.249 198.249 199.059 199.059 179.848
179.848 201.768 201.768 284.204 284.204 405.452 405.452 537.377 537.377 1023.92
1023.92 965.321 965.321 963.76 963.76 980.263 980.263 1028.34 1028.34 1107.02
1107.02 1202.97 1202.97 1297.03 1297.03 1394.93 1394.93 1482.09 1482.09 1557.94
1557.94 1521.35 1521.35 
alpha.water 1 384 float
0.00154061 0.00148254 0.00148254 0.00154061 0.000906188 0.000906188 0.000382598 0.000382598 0.00037728 0.00037728 0.00112468
0.00112468 0.00177366 0.00177366 0.000927748 0.000927748 9.01634e-05 9.01634e-05 4.57788e-07 4.57788e-07 8.91305e-07
8.91305e-07 1.49421e-06 1.49421e-06 1.59092e-06 1.59092e-06 5.66162e-07 5.66162e-07 3.08565e-12 3.08565e-12 0.00063359
0.00063359 0.00202004 0.00202004 0.00277291 0.00277291 0.00277291 0.00277291 0.00258168 0.00258168 0.00155428
0.00155428 0.000708579 0.000708579 0.000581272 0.000581272 0.000334143 0.000334143 0.00020478 0.00020478 0.000526126
0.000526126 0.000526126 0.000526126 0.00413461 0.00413461 0.00601851 0.00601851 0.00216915 0.00216915 4.43888e-05
4.43888e-05 0.0298068 0.0298068 0.0656464 0.0656464 0.071722 0.071722 0.0715533 0.0715533 0.0715642
0.0715642 0.150019 0.150019 0.546476 0.546476 0.864426 0.864426 0.837477 0.837477 0.493298
0.493298 0.110648 0.110648 0.0360216 0.0360216 0.0189334 0.0189334 0.0125261 0.0125261 0.0263813
0.0263813 0.0295107 0.0295107 0.0425833 0.0425833 0.0325698 0.0325698 7.8611e-12 7.8611e-12 0.271003
0.224478 0.224478 0.271003 0.0916883 0.0916883 0.00444948 0.00444948 0.00347633 0.00347633 0.00347633
0.00347633 0.0307833 0.0307833 0.468504 0.468504 0.939295 0.939295 0.997636 0.997636 0.805102
0.805102 0.503374 0.503374 0.392249 0.392249 0.394051 0.394051 0.606983 0.606983 0.90909
0.90909 0.999961 0.999961 0.999961 0.999961 0.910182 0.910182 0.635889 0.635889 0.407261
0.407261 0.335 0.335 0.291251 0.291251 0.219616 0.219616 0.163582 0.163582 0.468598
0.468598 0.468598 0.468598 0.468598 0.468598 0.468293 0.468293 0.468027 0.468027 0.357904
0.357904 0.126874 0.126874 0.173258 0.173258 0.195872 0.195872 0.0256169 0.0256169 6.69134e-13
6.69134e-13 6.69134e-13 6.69134e-13 7.2693e-13 7.2693e-13 8.42865e-13 8.42865e-13 9.57701e-13 9.57701e-13 1.06314e-12
1.06314e-12 0.00140154 0.00140154 0.134832 0.134832 0.392882 0.392882 0.553361 0.553361 0.588364
0.588364 0.589462 0.589462 0.69122 0.69122 0.87759 0.87759 0.962751 0.962751 0.000886564
0.000886564 0.000204742 0.000204742 0.000257322 0.000257322 0.000863324 0.000863324 0.00166092 0.00166092 0.0014472
0.0014472 0.000944917 0.000944917 0.000746923 0.000746923 0.000289326 0.000289326 6.55935e-06 6.55935e-06 8.06722e-13
8.06722e-13 0.150122 0.150122 0.962751 0.962751 0.936958 0.936958 0.533014 0.533014 0.0774732
0.0774732 0.0542242 0.0542242 0.143203 0.143203 0.195738 0.195738 0.198336 0.198336 0.157186
0.157186 0.141906 0.141906 0.22646 0.22646 0.000699999 0.000699999 0.00181646 0.00181646 0.00215079
0.00215079 0.00120192 0.00120192 0.000493449 0.000493449 8.49835e-05 8.49835e-05 4.43881e-05 4.43881e-05 4.43881e-05
4.43881e-05 0.0883242 0.0883242 0.30992 0.30992 0.280018 0.280018 0.0584402 0.0584402 0.000242563
0.000242563 0.000591333 0.000591333 0.000451373 0.000451373 8.24218e-05 8.24218e-05 0.000189057 0.000189057 0.000213588
0.000213588 0.00013075 0.00013075 2.83371e-05 2.83371e-05 1.72277e-05 1.72277e-05 4.35313e-05 4.35313e-05 7.03498e-05
7.03498e-05 0.271003 0.271003 0.168255 0.168255 0.036084 0.036084 0.00764544 0.00764544 0.0231091
0.0231091 0.0384375 0.0384375 0.0402585 0.0402585 0.252591 0.252591 0.728589 0.728589 0.995911
0.995911 0.823775 0.823775 0.441659 0.441659 7.89752e-12 7.89752e-12 0.0564595 0.0564595 0.177449
0.177449 0.211361 0.211361 0.138822 0.138822 0.103579 0.103579 0.10738 0.10738 0.104887
0.104887 0.105023 0.105023 0.169113 0.169113 0.233907 0.233907 0.468598 0.468598 0.434393
0.434393 0.214344 0.214344 0.0153811 0.0153811 0.00227709 0.00227709 0.00227897 0.00227897 0.171088
0.171088 0.399796 0.399796 0.459681 0.459681 0.333092 0.333092 0.103264 0.103264 0.0598262
0.0598262 0.479827 0.479827 0.89801 0.89801 0.997305 0.997305 0.891437 0.891437 0.627275
0.627275 0.385536 0.385536 0.304258 0.304258 0.375912 0.375912 0.405343 0.405343 0.304294
0.304294 0.182787 0.182787 
p_rgh 1 384 float
0 -71.344 -71.344 0 -196.788 -196.788 -251.327 -251.327 -141.719 -141.719 -14.3671
-14.3671 143.961 143.961 443.856 443.856 635.677 635.677 519.586 519.586 406.747
406.747 364.681 364.681 366.108 366.108 414.979 414.979 461.535 461.535 558.06
558.06 668.888 668.888 857.691 857.691 1103.97 1103.97 1329.53 1329.53 1393.33
1393.33 1371.94 1371.94 1345.02 1345.02 1317.81 1317.81 1308.75 1308.75 297.656
204.344 204.344 297.656 119.021 119.021 143.473 143.473 222.831 222.831 466.306
466.306 677.942 677.942 423.34 423.34 18.9016 18.9016 -274.562 -274.562 -469.177
-469.177 -558.143 -558.143 -412.551 -412.551 -144.77 -144.77 320.957 320.957 850.544
850.544 1270.06 1270.06 1634 1634 1890.94 1890.94 2134.56 2134.56 2237.49
2237.49 2277.51 2277.51 2273.98 2273.98 2280.2 2280.2 2275.17 2275.17 -614.707
-819.284 -819.284 -614.707 -914.927 -914.927 -886.541 -886.541 -798.188 -798.188 -504.929
-504.929 -222.373 -222.373 24.5308 24.5308 -4.8605 -4.8605 -285.555 -285.555 -439.102
-439.102 -517.867 -517.867 -556.49 -556.49 -568.514 -568.514 -549.815 -549.815 -417.23
-417.23 -110.038 -110.038 378.04 378.04 843.939 843.939 1035.67 1035.67 1011.02
1011.02 996.81 996.81 983.62 983.62 983.902 983.902 967.194 967.194 -155.411
-319.557 -319.557 -155.411 -464.598 -464.598 -522.154 -522.154 -513.625 -513.625 -319.455
-319.455 -160.927 -160.927 -15.4402 -15.4402 100.967 100.967 173.796 173.796 220.249
220.249 237.201 237.201 257.395 257.395 293.832 293.832 408.384 408.384 605.56
605.56 858.04 858.04 1103.41 1103.41 1177.28 1177.28 1113.95 1113.95 1057.43
1057.43 993.31 993.31 970.372 970.372 978.8 978.8 979.995 979.995 -69.338
-69.338 27.1715 27.1715 107.755 107.755 180.594 180.594 453.536 453.536 504.424
504.424 448.807 448.807 477.987 477.987 541.443 541.443 645.581 645.581 786.636