# vtk DataFile Version 2.0
rotor
ASCII
DATASET POLYDATA
POINTS 384 float
0.1 0 0 0.0997859 -0.00654031 0 0.0997859 -0.00654031 0.05 0.1 0
0.05 0.0991445 -0.0130526 0 0.0991445 -0.0130526 0.05 0.0980785 -0.019509 0
0.0980785 -0.019509 0.05 0.0965926 -0.0258819 0 0.0965926 -0.0258819 0.05 0.094693
-0.0321439 0 0.094693 -0.0321439 0.05 0.092388 -0.0382683 0 0.092388 -0.0382683
0.05 0.0896873 -0.0442289 0 0.0896873 -0.0442289 0.05 0.0866025 -0.05 0
0.0866025 -0.05 0.05 0.083147 -0.055557 0 0.083147 -0.055557 0.05 0.0793353
-0.0608761 0 0.0793353 -0.0608761 0.05 0.075184 -0.0659346 0 0.075184 -0.0659346
0.05 0.0707107 -0.0707107 0 0.0707107 -0.0707107 0.05 0.0659346 -0.075184 0
0.0659346 -0.075184 0.05 0.0608761 -0.0793353 0 0.0608761 -0.0793353 0.05 0.055557
-0.083147 0 0.055557 -0.083147 0.05 0.05 -0.0866025 0 0.05 -0.0866025
0.05 0.0442289 -0.0896873 0 0.0442289 -0.0896873 0.05 0.0382683 -0.092388 0
0.0382683 -0.092388 0.05 0.0321439 -0.094693 0 0.0321439 -0.094693 0.05 0.0258819
-0.0965926 0 0.0258819 -0.0965926 0.05 0.019509 -0.0980785 0 0.019509 -0.0980785
0.05 0.0130526 -0.0991445 0 0.0130526 -0.0991445 0.05 0.00654031 -0.0997859 0
0.00654031 -0.0997859 0.05 1.7949e-10 -0.1 0 1.7949e-10 -0.1 0.05 1.7949e-10
-0.1 0 -0.00654031 -0.0997859 0 -0.00654031 -0.0997859 0.05 1.7949e-10 -0.1
0.05 -0.0130526 -0.0991445 0 -0.0130526 -0.0991445 0.05 -0.019509 -0.0980785 0
-0.019509 -0.0980785 0.05 -0.0258819 -0.0965926 0 -0.0258819 -0.0965926 0.05 -0.0321439
-0.094693 0 -0.0321439 -0.094693 0.05 -0.0382683 -0.092388 0 -0.0382683 -0.092388
0.05 -0.0442289 -0.0896873 0 -0.0442289 -0.0896873 0.05 -0.05 -0.0866025 0
-0.05 -0.0866025 0.05 -0.055557 -0.083147 0 -0.055557 -0.083147 0.05 -0.0608761
-0.0793353 0 -0.0608761 -0.0793353 0.05 -0.0659346 -0.075184 0 -0.0659346 -0.075184
0.05 -0.0707107 -0.0707107 0 -0.0707107 -0.0707107 0.05 -0.075184 -0.0659346 0
-0.075184 -0.0659346 0.05 -0.0793353 -0.0608761 0 -0.0793353 -0.0608761 0.05 -0.083147
-0.055557 0 -0.083147 -0.055557 0.05 -0.0866025 -0.05 0 -0.0866025 -0.05
0.05 -0.0896873 -0.0442289 0 -0.0896873 -0.0442289 0.05 -0.092388 -0.0382683 0
-0.092388 -0.0382683 0.05 -0.094693 -0.0321439 0 -0.094693 -0.0321439 0.05 -0.0965926
-0.0258819 0 -0.0965926 -0.0258819 0.05 -0.0980785 -0.019509 0 -0.0980785 -0.019509
0.05 -0.0991445 -0.0130526 0 -0.0991445 -0.0130526 0.05 -0.0997859 -0.00654031 0
-0.0997859 -0.00654031 0.05 -0.1 3.58979e-10 0 -0.1 3.58979e-10 0.05 -0.1
3.58979e-10 0 -0.0997859 0.00654031 0 -0.0997859 0.00654031 0.05 -0.1 3.58979e-10
0.05 -0.0991445 0.0130526 0 -0.0991445 0.0130526 0.05 -0.0980785 0.019509 0
-0.0980785 0.019509 0.05 -0.0965926 0.0258819 0 -0.0965926 0.0258819 0.05 -0.094693
0.0321439 0 -0.094693 0.0321439 0.05 -0.092388 0.0382683 0 -0.092388 0.0382683
0.05 -0.0896873 0.0442289 0 -0.0896873 0.0442289 0.05 -0.0866025 0.05 0
-0.0866025 0.05 0.05 -0.083147 0.055557 0 -0.083147 0.055557 0.05 -0.0793353
0.0608761 0 -0.0793353 0.0608761 0.05 -0.075184 0.0659346 0 -0.075184 0.0659346
0.05 -0.0707107 0.0707107 0 -0.0707107 0.0707107 0.05 -0.0659346 0.075184 0
-0.0659346 0.075184 0.05 -0.0608761 0.0793353 0 -0.0608761 0.0793353 0.05 -0.055557
0.083147 0 -0.055557 0.083147 0.05 -0.05 0.0866025 0 -0.05 0.0866025
0.05 -0.0442289 0.0896873 0 -0.0442289 0.0896873 0.05 -0.0382683 0.092388 0
-0.0382683 0.092388 0.05 -0.0321439 0.094693 0 -0.0321439 0.094693 0.05 -0.0258819
0.0965926 0 -0.0258819 0.0965926 0.05 -0.019509 0.0980785 0 -0.019509 0.0980785
0.05 -0.0130526 0.0991445 0 -0.0130526 0.0991445 0.05 -0.00654031 0.0997859 0
-0.00654031 0.0997859 0.05 1.7949e-10 0.1 0 1.7949e-10 0.1 0.05 1.7949e-10
0.1 0 0.00654031 0.0997859 0 0.00654031 0.0997859 0.05 1.7949e-10 0.1
0.05 0.0130526 0.0991445 0 0.0130526 0.0991445 0.05 0.019509 0.0980785 0
0.019509 0.0980785 0.05 0.0258819 0.0965926 0 0.0258819 0.0965926 0.05 0.0321439
0.094693 0 0.0321439 0.094693 0.05 0.0382683 0.092388 0 0.0382683 0.092388
0.05 0.0442289 0.0896873 0 0.0442289 0.0896873 0.05 0.05 0.0866025 0
0.05 0.0866025 0.05 0.055557 0.083147 0 0.055557 0.083147 0.05 0.0608761
0.0793353 0 0.0608761 0.0793353 0.05 0.0659346 0.075184 0 0.0659346 0.075184
0.05 0.0707107 0.0707107 0 0.0707107 0.0707107 0.05 0.075184 0.0659346 0
0.075184 0.0659346 0.05 0.0793353 0.0608761 0 0.0793353 0.0608761 0.05 0.083147
0.055557 0 0.083147 0.055557 0.05 0.0866025 0.05 0 0.0866025 0.05
0.05 0.0896873 0.0442289 0 0.0896873 0.0442289 0.05 0.092388 0.0382683 0
0.092388 0.0382683 0.05 0.094693 0.0321439 0 0.094693 0.0321439 0.05 0.0965926
0.0258819 0 0.0965926 0.0258819 0.05 0.0980785 0.019509 0 0.0980785 0.019509
0.05 0.0991445 0.0130526 0 0.0991445 0.0130526 0.05 0.0997859 0.00654031 0
0.0997859 0.00654031 0.05 0.1 0 0 0.1 0 0.05 0.1125
0 0.05 0.1125 0 0 0.125 0 0.05 0.125 0
0 0.1375 0 0.05 0.1375 0 0 0.15 0 0.05
0.15 0 0 0.1625 0 0.05 0.1625 0 0 0.175
0 0.05 0.175 0 0 0.1875 0 0.05 0.1875 0
0 0.2 0 0.05 0.2 0 0 0.2125 0 0.05
0.2125 0 0 0.225 0 0.05 0.225 0 0 0.2375
0 0.05 0.2375 0 0 0.25 0 0.05 0.25 0
0 0.1125 0 0 0.1125 0 0.05 0.125 0 0
0.125 0 0.05 0.1375 0 0 0.1375 0 0.05 0.15
0 0 0.15 0 0.05 0.1625 0 0 0.1625 0
0.05 0.175 0 0 0.175 0 0.05 0.1875 0 0
0.1875 0 0.05 0.2 0 0 0.2 0 0.05 0.2125
0 0 0.2125 0 0.05 0.225 0 0 0.225 0
0.05 0.2375 0 0 0.2375 0 0.05 2.01926e-10 -0.1125 0.05
2.01926e-10 -0.1125 0 2.24362e-10 -0.125 0.05 2.24362e-10 -0.125 0 2.46798e-10
-0.1375 0.05 2.46798e-10 -0.1375 0 2.69235e-10 -0.15 0.05 2.69235e-10 -0.15
0 2.91671e-10 -0.1625 0.05 2.91671e-10 -0.1625 0 3.14107e-10 -0.175 0.05
3.14107e-10 -0.175 0 3.36543e-10 -0.1875 0.05 3.36543e-10 -0.1875 0 3.58979e-10
-0.2 0.05 3.58979e-10 -0.2 0 3.81416e-10 -0.2125 0.05 3.81416e-10 -0.2125
0 4.03852e-10 -0.225 0.05 4.03852e-10 -0.225 0 4.26288e-10 -0.2375 0.05
4.26288e-10 -0.2375 0 4.48724e-10 -0.25 0.05 4.48724e-10 -0.25 0 2.01926e-10
-0.1125 0 2.01926e-10 -0.1125 0.05 2.24362e-10 -0.125 0 2.24362e-10 -0.125
0.05 2.46798e-10 -0.1375 0 2.46798e-10 -0.1375 0.05 2.69234e-10 -0.15 0
2.69234e-10 -0.15 0.05 2.91671e-10 -0.1625 0 2.91671e-10 -0.1625 0.05 3.14107e-10
-0.175 0 3.14107e-10 -0.175 0.05 3.36543e-10 -0.1875 0 3.36543e-10 -0.1875
0.05 3.58979e-10 -0.2 0 3.58979e-10 -0.2 0.05 3.81416e-10 -0.2125 0
3.81416e-10 -0.2125 0.05 4.03852e-10 -0.225 0 4.03852e-10 -0.225 0.05 4.26288e-10
-0.2375 0 4.26288e-10 -0.2375 0.05 -0.1125 4.03852e-10 0.05 -0.1125 4.03852e-10
0 -0.125 4.48724e-10 0.05 -0.125 4.48724e-10 0 -0.1375 4.93597e-10 0.05
-0.1375 4.93597e-10 0 -0.15 5.38469e-10 0.05 -0.15 5.38469e-10 0 -0.1625
5.83341e-10 0.05 -0.1625 5.83341e-10 0 -0.175 6.28214e-10 0.05 -0.175 6.28214e-10
0 -0.1875 6.73086e-10 0.05 -0.1875 6.73086e-10 0 -0.2 7.17959e-10 0.05
-0.2 7.17959e-10 0 -0.2125 7.62831e-10 0.05 -0.2125 7.62831e-10 0 -0.225
8.07704e-10 0.05 -0.225 8.07704e-10 0 -0.2375 8.52576e-10 0.05 -0.2375 8.52576e-10
0 -0.25 8.97448e-10 0.05 -0.25 8.97448e-10 0 -0.1125 4.03852e-10 0
-0.1125 4.03852e-10 0.05 -0.125 4.48724e-10 0 -0.125 4.48724e-10 0.05 -0.1375
4.93597e-10 0 -0.1375 4.93597e-10 0.05 -0.15 5.38469e-10 0 -0.15 5.38469e-10
0.05 -0.1625 5.83341e-10 0 -0.1625 5.83341e-10 0.05 -0.175 6.28214e-10 0
-0.175 6.28214e-10 0.05 -0.1875 6.73086e-10 0 -0.1875 6.73086e-10 0.05 -0.2
7.17959e-10 0 -0.2 7.17959e-10 0.05 -0.2125 7.62831e-10 0 -0.2125 7.62831e-10
0.05 -0.225 8.07704e-10 0 -0.225 8.07704e-10 0.05 -0.2375 8.52576e-10 0
-0.2375 8.52576e-10 0.05 2.01926e-10 0.1125 0.05 2.01926e-10 0.1125 0 2.24362e-10
0.125 0.05 2.24362e-10 0.125 0 2.46798e-10 0.1375 0.05 2.46798e-10 0.1375
0 2.69235e-10 0.15 0.05 2.69235e-10 0.15 0 2.91671e-10 0.1625 0.05
2.91671e-10 0.1625 0 3.14107e-10 0.175 0.05 3.14107e-10 0.175 0 3.36543e-10
0.1875 0.05 3.36543e-10 0.1875 0 3.58979e-10 0.2 0.05 3.58979e-10 0.2
0 3.81416e-10 0.2125 0.05 3.81416e-10 0.2125 0 4.03852e-10 0.225 0.05
4.03852e-10 0.225 0 4.26288e-10 0.2375 0.05 4.26288e-10 0.2375 0 4.48724e-10
0.25 0.05 4.48724e-10 0.25 0 2.01926e-10 0.1125 0 2.01926e-10 0.1125
0.05 2.24362e-10 0.125 0 2.24362e-10 0.125 0.05 2.46798e-10 0.1375 0
2.46798e-10 0.1375 0.05 2.69234e-10 0.15 0 2.69234e-10 0.15 0.05 2.91671e-10
0.1625 0 2.91671e-10 0.1625 0.05 3.14107e-10 0.175 0 3.14107e-10 0.175
0.05 3.36543e-10 0.1875 0 3.36543e-10 0.1875 0.05 3.58979e-10 0.2 0
3.58979e-10 0.2 0.05 3.81416e-10 0.2125 0 3.81416e-10 0.2125 0.05 4.03852e-10
0.225 0 4.03852e-10 0.225 0.05 4.26288e-10 0.2375 0 4.26288e-10 0.2375
0.05 
POLYGONS 192 960
4 0 1 2 3 4 1 4 5 2 4
4 6 7 5 4 6 8 9 7 4
8 10 11 9 4 10 12 13 11 4
12 14 15 13 4 14 16 17 15 4
16 18 19 17 4 18 20 21 19 4
20 22 23 21 4 22 24 25 23 4
24 26 27 25 4 26 28 29 27 4
28 30 31 29 4 30 32 33 31 4
32 34 35 33 4 34 36 37 35 4
36 38 39 37 4 38 40 41 39 4
40 42 43 41 4 42 44 45 43 4
44 46 47 45 4 46 48 49 47 4
50 51 52 53 4 51 54 55 52 4
54 56 57 55 4 56 58 59 57 4
58 60 61 59 4 60 62 63 61 4
62 64 65 63 4 64 66 67 65 4
66 68 69 67 4 68 70 71 69 4
70 72 73 71 4 72 74 75 73 4
74 76 77 75 4 76 78 79 77 4
78 80 81 79 4 80 82 83 81 4
82 84 85 83 4 84 86 87 85 4
86 88 89 87 4 88 90 91 89 4
90 92 93 91 4 92 94 95 93 4
94 96 97 95 4 96 98 99 97 4
100 101 102 103 4 101 104 105 102 4
104 106 107 105 4 106 108 109 107 4
108 110 111 109 4 110 112 113 111 4
112 114 115 113 4 114 116 117 115 4
116 118 119 117 4 118 120 121 119 4
120 122 123 121 4 122 124 125 123 4
124 126 127 125 4 126 128 129 127 4
128 130 131 129 4 130 132 133 131 4
132 134 135 133 4 134 136 137 135 4
136 138 139 137 4 138 140 141 139 4
140 142 143 141 4 142 144 145 143 4
144 146 147 145 4 146 148 149 147 4
150 151 152 153 4 151 154 155 152 4
154 156 157 155 4 156 158 159 157 4
158 160 161 159 4 160 162 163 161 4
162 164 165 163 4 164 166 167 165 4
166 168 169 167 4 168 170 171 169 4
170 172 173 171 4 172 174 175 173 4
174 176 177 175 4 176 178 179 177 4
178 180 181 179 4 180 182 183 181 4
182 184 185 183 4 184 186 187 185 4
186 188 189 187 4 188 190 191 189 4
190 192 193 191 4 192 194 195 193 4
194 196 197 195 4 196 198 199 197 4
0 3 200 201 4 201 200 202 203 4
203 202 204 205 4 205 204 206 207 4
207 206 208 209 4 209 208 210 211 4
211 210 212 213 4 213 212 214 215 4
215 214 216 217 4 217 216 218 219 4
219 218 220 221 4 221 220 222 223 4
198 224 225 199 4 224 226 227 225 4
226 228 229 227 4 228 230 231 229 4
230 232 233 231 4 232 234 235 233 4
234 236 237 235 4 236 238 239 237 4
238 240 241 239 4 240 242 243 241 4
242 244 245 243 4 244 223 222 245 4
50 53 246 247 4 247 246 248 249 4
249 248 250 251 4 251 250 252 253 4
253 252 254 255 4 255 254 256 257 4
257 256 258 259 4 259 258 260 261 4
261 260 262 263 4 263 262 264 265 4
265 264 266 267 4 267 266 268 269 4
48 270 271 49 4 270 272 273 271 4
272 274 275 273 4 274 276 277 275 4
276 278 279 277 4 278 280 281 279 4
280 282 283 281 4 282 284 285 283 4
284 286 287 285 4 286 288 289 287 4
288 290 291 289 4 290 269 268 291 4
100 103 292 293 4 293 292 294 295 4
295 294 296 297 4 297 296 298 299 4
299 298 300 301 4 301 300 302 303 4
303 302 304 305 4 305 304 306 307 4
307 306 308 309 4 309 308 310 311 4
311 310 312 313 4 313 312 314 315 4
98 316 317 99 4 316 318 319 317 4
318 320 321 319 4 320 322 323 321 4
322 324 325 323 4 324 326 327 325 4
326 328 329 327 4 328 330 331 329 4
330 332 333 331 4 332 334 335 333 4
334 336 337 335 4 336 315 314 337 4
150 153 338 339 4 339 338 340 341 4
341 340 342 343 4 343 342 344 345 4
345 344 346 347 4 347 346 348 349 4
349 348 350 351 4 351 350 352 353 4
353 352 354 355 4 355 354 356 357 4
357 356 358 359 4 359 358 360 361 4
148 362 363 149 4 362 364 365 363 4
364 366 367 365 4 366 368 369 367 4
368 370 371 369 4 370 372 373 371 4
372 374 375 373 4 374 376 377 375 4
376 378 379 377 4 378 380 381 379 4
380 382 383 381 4 382 361 360 383 
CELL_DATA 192
FIELD attributes 5
patchID 1 192 float
0 0 0 0 0 0 0 0 0 0 0
0 0 0 0 0 0 0 0 0 0
0 0 0 0 0 0 0 0 0 0
0 0 0 0 0 0 0 0 0 0
0 0 0 0 0 0 0 0 0 0
0 0 0 0 0 0 0 0 0 0
0 0 0 0 0 0 0 0 0 0
0 0 0 0 0 0 0 0 0 0
0 0 0 0 0 0 0 0 0 0
0 0 0 0 0 0 0 0 0 0
0 0 0 0 0 0 0 0 0 0
0 0 0 0 0 0 0 0 0 0
0 0 0 0 0 0 0 0 0 0
0 0 0 0 0 0 0 0 0 0
0 0 0 0 0 0 0 0 0 0
0 0 0 0 0 0 0 0 0 0
0 0 0 0 0 0 0 0 0 0
0 0 0 0 0 0 0 0 0 0
0 0 0 0 0 0 0 0 0 0
0 
p 1 192 float
0 -438.034 -462.215 -397.332 -418.781 -183.53 452.163 619.86 104.439 110.819 -203.339
-15.7712 -163.02 334.946 261.23 887.37 840.609 1361.68 1456.88 1846.58 1875.05
1924.91 2049.23 2095.68 -341.168 -629.906 -756.699 -719.173 -311.416 -219.592 219.509
510.98 349.459 72.9193 27.3582 -74.4126 31.7885 183.389 421.96 728.42 967.799
1373.5 1406.29 1651.42 1532.08 1641.48 1592.84 1630.03 457.923 216.15 125.762
127.454 275.674 514.996 539.364 95.3709 -23.1668 -366.485 -323.291 -439.773 -99.1101
-0.7933 412.838 650.96 1000.42 1193.37 1404.39 1548.84 1700.16 1713.68 1770.65
1758.71 107.95 -180.678 -162.063 -45.995 151.093 603.602 708.664 216.225 2.37296
-273.949 -224.304 -212.886 195.548 363.815 818.575 1319.95 1553.54 1942.91 1849.53
1924.48 1995.06 2094.51 2114.34 2116.05 0 141.186 1040.94 1126.62 1668.4
1322.33 1072.46 631.185 248.279 26.6376 -39.6759 16.527 2116.05 2154.21 2191.83
2231.23 2284.44 2296.1 2348.59 2364.76 2388.39 2247.24 1963.5 1414.61 -341.168
-656.585 17.164 769.284 1754.99 1430.3 1143.04 845.369 572.421 381.651 307.469
338.042 2095.68 2226.62 2127.55 2082.32 2123.64 2249.22 2447.72 2518 2724.66
2598.56 2260.5 1707.49 457.923 550.981 1192.54 1294.55 1815.84 1641.33 1257.1
886.155 661.269 570.25 609.693 787.494 1630.03 1694.27 1716.87 1736.01 1773.05
1842.54 1935.94 1975.54 2085.99 2082.83 2034.15 1792.26 107.95 92.5584 770.255
1026.08 1705.57 1169.07 808.689 486.622 220.996 48.5049 29.1951 299.045 1758.71
1809.08 1848.8 1902.36 1997.08 2090.36 2214.93 2161.74 2127.71 2013.6 1703.95
1299.09 
alpha.water 1 192 float
0.000274091 0.000278261 0.000350415 0.000284902 0.000284902 0.000284902 0.0881061 0.106455 0.000615721 0.00057601 0.000534686
0.000502775 0.000472996 0.000437894 0.000407826 0.000387938 0.000382539 0.000377433 0.000377404 0.0276154 0.116402
0.132247 0.12768 0.131915 0.000720186 0.000393786 0.000438185 0.000398007 0.000398007 0.000398007 0.00793067
0.0198626 1.87945e-12 1.87945e-12 1.87945e-12 1.87945e-12 1.99506e-12 2.10756e-12 2.21613e-12 2.31842e-12 2.41066e-12
2.4979e-12 0.000186947 0.00791856 0.0113622 0.0100313 0.0121868 0.0197045 4.70737e-13 3.76846e-13 2.89741e-13
0.00589154 0.00249278 0.00454485 0.0693677 0.0746164 0.0746164 0.0458599 1.27002e-16 -1.20757e-09 4.64139e-13
5.40841e-13 0.000334079 0.00245579 0.00269687 0.000593309 0.000512654 0.0007341 0.00627086 0.0117444 0.0117444
0.0117444 0.00558626 0.00444663 0.00390805 0.00390805 0.00390805 0.00390805 0.00390805 0.00390838 0.0130864
0.0617172 0.0792162 0.0491965 0.0157646 0.135035 0.344521 0.344521 0.196372 0.0225305 0.0225305
0.0225305 0.0225305 0.0225305 0.0246371 0.0308331 0.000274091 0.000506949 0.00046653 0.000284367 0.00901345
0.0149301 0.0401367 0.0905792 0.130541 0.10989 0.0342746 0.000271164 0.0308331 0.023798 0.0688057
0.0747433 0.0469186 0.0117503 0.0285951 0.0322615 0.0267465 0.0291237 0.020344 0.00122565 0.000720186
8.45003e-05 7.64376e-05 5.36602e-05 1.69116e-12 5.46141e-05 1.88808e-12 1.89654e-12 0.00023844 0.00357084 0.000604485
1.06607e-12 0.131915 0.000376673 0.000376673 0.000377294 0.000378335 0.00274551 0.00811274 0.00805289 0.00530178
0.0024628 8.05153e-06 0.00105185 4.70737e-13 4.52398e-05 0.000257625 6.49079e-13 0.000151788 0.0260678 0.123553
0.255813 0.289686 0.238285 0.338156 0.713714 0.0197045 8.93685e-13 3.30824e-06 0.00186385 0.00351971
0.00120207 0.00150774 0.00433811 0.00209314 0.000804289 0.000773406 0.00040955 0.00558626 0.00466073 0.00393921
0.00380451 0.00374889 0.00390777 0.00390997 0.00379423 0.0036896 0.0036896 0.431728 0.990284 0.0117444
0.00865117 0.00235042 9.24265e-05 8.67729e-05 3.40943e-05 0.000285752 0.000469198 0.000445122 0.000108408 9.77093e-13
9.87928e-05 
p_rgh 1 192 float
0 -438.034 -462.215 -397.332 -418.781 -183.53 452.163 619.86 104.439 110.819 -203.339
-15.7712 -163.02 334.946 261.23 887.37 840.609 1361.68 1456.88 1846.58 1875.05
1924.91 2049.23 2095.68 -341.168 -629.906 -756.699 -719.173 -311.416 -219.592 219.509
510.98 349.459 72.9193 27.3582 -74.4126 31.7885 183.389 421.96 728.42 967.799
1373.5 1406.29 1651.42 1532.08 1641.48 1592.84 1630.03 457.923 216.15 125.762
127.454 275.674 514.996 539.364 95.3709 -23.1668 -366.485 -323.291 -439.773 -99.1101
-0.7933 412.838 650.96 1000.42 1193.37 1404.39 1548.84 1700.16 1713.68 1770.65
1758.71 107.95 -180.678 -162.063 -45.995 151.093 603.602 708.664 216.225 2.37296
-273.949 -224.304 -212.886 195.548 363.815 818.575 1319.95 1553.54 1942.91 1849.53
1924.48 1995.06 2094.51 2114.34 2116.05 0 141.186 1040.94 1126.62 1668.4
1322.33 1072.46 631.185 248.279 26.6376 -39.6759 16.527 2116.05 2154.21 2191.83
2231.23 2284.44 2296.1 2348.59 2364.76 2388.39 2247.24 1963.5 1414.61 -341.168
-656.585 17.164 769.284 1754.99 1430.3 1143.04 845.369 572.421 381.651 307.469
338.042 2095.68 2226.62 2127.55 2082.32 2123.64 2249.22 2447.72 2518 2724.66
2598.56 2260.5 1707.49 457.923 550.981 1192.54 1294.55 1815.84 1641.33 1257.1
886.155 661.269 570.25 609.693 787.494 1630.03 1694.27 1716.87 1736.01 1773.05
1842.54 1935.94 1975.54 2085.99 2082.83 2034.15 1792.26 107.95 92.5584 770.255
1026.08 1705.57 1169.07 808.689 486.622 220.996 48.5049 29.1951 299.045 1758.71
1809.08 1848.8 1902.36 1997.08 2090.36 2214.93 2161.74 2127.71 2013.6 1703.95
1299.09 
U 3 192 float
0.020547 0.627646 0 0.061553 0.624958 0 0.102295 0.619594 0 0.1426 0.611577
0 0.182294 0.600941 0 0.221207 0.587732 0 0.259173 0.572006 0
0.296029 0.553831 0 0.331617 0.533284 0 0.365786 0.510453 0 0.398388
0.485437 0 0.429284 0.458342 0 0.458342 0.429284 0 0.485437 0.398388
0 0.510453 0.365786 0 0.533284 0.331617 0 0.553831 0.296029 0
0.572006 0.259173 0 0.587732 0.221207 0 0.600941 0.182294 0 0.611577
0.1426 0 0.619594 0.102295 0 0.624958 0.061553 0 0.627646 0.020547
0 0.627646 -0.020547 0 0.624958 -0.061553 0 0.619594 -0.102295 0
0.611577 -0.1426 0 0.600941 -0.182294 0 0.587732 -0.221207 0 0.572006
-0.259173 0 0.553831 -0.296029 0 0.533284 -0.331617 0 0.510453 -0.365786
0 0.485437 -0.398388 0 0.458342 -0.429284 0 0.429284 -0.458342 0
0.398388 -0.485437 0 0.365786 -0.510453 0 0.331617 -0.533284 0 0.296029
-0.553831 0 0.259173 -0.572006 0 0.221207 -0.587732 0 0.182294 -0.600941
0 0.1426 -0.611577 0 0.102295 -0.619594 0 0.061553 -0.624958 0
0.020547 -0.627646 0 -0.020547 -0.627646 0 -0.061553 -0.624958 0 -0.102295
-0.619594 0 -0.1426 -0.611577 0 -0.182294 -0.600941 0 -0.221207 -0.587732
0 -0.259173 -0.572006 0 -0.296029 -0.553831 0 -0.331617 -0.533284 0
-0.365786 -0.510453 0 -0.398388 -0.485437 0 -0.429284 -0.458342 0 -0.458342
-0.429284 0 -0.485437 -0.398388 0 -0.510453 -0.365786 0 -0.533284 -0.331617
0 -0.553831 -0.296029 0 -0.572006 -0.259173 0 -0.587732 -0.221207 0
-0.600941 -0.182294 0 -0.611577 -0.1426 0 -0.619594 -0.102295 0 -0.624958
-0.061553 0 -0.627646 -0.020547 0 -0.627646 0.020547 0 -0.624958 0.061553
0 -0.619594 0.102295 0 -0.611577 0.1426 0 -0.600941 0.182294 0
-0.587732 0.221207 0 -0.572006 0.259173 0 -0.553831 0.296029 0 -0.533284
0.331617 0 -0.510453 0.365786 0 -0.485437 0.398388 0 -0.458342 0.429284
0 -0.429284 0.458342 0 -0.398388 0.485437 0 -0.365786 0.510453 0
-0.331617 0.533284 0 -0.296029 0.553831 0 -0.259173 0.572006 0 -0.221207
0.587732 0 -0.182294 0.600941 0 -0.1426 0.611577 0 -0.102295 0.619594
0 -0.061553 0.624958 0 -0.020547 0.627646 0 0 0.667588 0
0 0.746128 0 0 0.824668 0 0 0.903208 0 0
0.981748 0 0 1.06029 0 0 1.13883 0 0 1.21737
0 0 1.29591 0 0 1.37445 0 0 1.45299 0
0 1.53153 0 0 0.667588 0 0 0.746128 0 0
0.824668 0 0 0.903208 0 0 0.981748 0 0 1.06029
0 0 1.13883 0 0 1.21737 0 0 1.29591 0
0 1.37445 0 0 1.45299 0 0 1.53153 0 0.667588
1.19825e-09 0 0.746128 1.33922e-09 0 0.824668 1.48019e-09 0 0.903208 1.62116e-09
0 0.981748 1.76214e-09 0 1.06029 1.90311e-09 0 1.13883 2.04408e-09 0
1.21737 2.18505e-09 0 1.29591 2.32602e-09 0 1.37445 2.46699e-09 0 1.45299
2.60796e-09 0 1.53153 2.74893e-09 0 0.667588 1.19825e-09 0 0.746128 1.33922e-09
0 0.824668 1.48019e-09 0 0.903208 1.62116e-09 0 0.981748 1.76214e-09 0
1.06029 1.90311e-09 0 1.13883 2.04408e-09 0 1.21737 2.18505e-09 0 1.29591
2.32602e-09 0 1.37445 2.46699e-09 0 1.45299 2.60796e-09 0 1.53153 2.74893e-09
0 -2.3965e-09 -0.667588 0 -2.67845e-09 -0.746128 0 -2.96039e-09 -0.824668 0
-3.24233e-09 -0.903208 0 -3.52427e-09 -0.981748 0 -3.80621e-09 -1.06029 0 -4.08815e-09
-1.13883 0 -4.3701e-09 -1.21737 0 -4.65204e-09 -1.29591 0 -4.93398e-09 -1.37445
0 -5.21592e-09 -1.45299 0 -5.49786e-09 -1.53153 0 -2.3965e-09 -0.667588 0
-2.67845e-09 -0.746128 0 -2.96039e-09 -0.824668 0 -3.24233e-09 -0.903208 0 -3.52427e-09
-0.981748 0 -3.80621e-09 -1.06029 0 -4.08815e-09 -1.13883 0 -4.3701e-09 -1.21737
0 -4.65204e-09 -1.29591 0 -4.93398e-09 -1.37445 0 -5.21592e-09 -1.45299 0
-5.49786e-09 -1.53153 0 -0.667588 1.19825e-09 0 -0.746128 1.33922e-09 0 -0.824668
1.48019e-09 0 -0.903208 1.62116e-09 0 -0.981748 1.76214e-09 0 -1.06029 1.90311e-09
0 -1.13883 2.04408e-09 0 -1.21737 2.18505e-09 0 -1.29591 2.32602e-09 0
-1.37445 2.46699e-09 0 -1.45299 2.60796e-09 0 -1.53153 2.74893e-09 0 -0.667588
1.19825e-09 0 -0.746128 1.33922e-09 0 -0.824668 1.48019e-09 0 -0.903208 1.62116e-09
0 -0.981748 1.76214e-09 0 -1.06029 1.90311e-09 0 -1.13883 2.04408e-09 0
-1.21737 2.18505e-09 0 -1.29591 2.32602e-09 0 -1.37445 2.46699e-09 0 -1.45299
2.60796e-09 0 -1.53153 2.74893e-09 0 
POINT_DATA  384
FIELD attributes 4
p 1 384 float
0 -219.017 -219.017 0 -450.125 -450.125 -429.773 -429.773 -408.056 -408.056 -301.155
-301.155 134.316 134.316 536.011 536.011 362.15 362.15 107.629 107.629 -46.26
-46.26 -109.555 -109.555 -89.3956 -89.3956 85.963 85.963 298.088 298.088 574.3
574.3 863.99 863.99 1101.14 1101.14 1409.28 1409.28 1651.73 1651.73 1860.81
1860.81 1899.98 1899.98 1987.07 1987.07 2072.46 2072.46 2095.68 2095.68 -341.168
-485.537 -485.537 -341.168 -693.302 -693.302 -737.936 -737.936 -515.294 -515.294 -265.504
-265.504 -0.0415 -0.0415 365.245 365.245 430.22 430.22 211.189 211.189 50.1387
50.1387 -23.5272 -23.5272 -21.312 -21.312 107.589 107.589 302.674 302.674 575.19
575.19 848.109 848.109 1170.65 1170.65 1389.9 1389.9 1528.85 1528.85 1591.75
1591.75 1586.78 1586.78 1617.16 1617.16 1611.44 1611.44 1630.03 1630.03 457.923
337.036 337.036 457.923 170.956 170.956 126.608 126.608 201.564 201.564 395.335
395.335 527.18 527.18 317.367 317.367 36.1021 36.1021 -194.826 -194.826 -344.888
-344.888 -381.532 -381.532 -269.442 -269.442 -49.9517 -49.9517 206.022 206.022 531.899
531.899 825.69 825.69 1096.9 1096.9 1298.88 1298.88 1476.61 1476.61 1624.5
1624.5 1706.92 1706.92 1742.17 1742.17 1764.68 1764.68 1758.71 1758.71 107.95
-36.364 -36.364 107.95 -171.37 -171.37 -104.029 -104.029 52.549 52.549 377.348
377.348 656.133 656.133 462.444 462.444 109.299 109.299 -135.788 -135.788 -249.126
-249.126 -218.595 -218.595 -8.669 -8.669 279.681 279.681 591.195 591.195 1069.26
1069.26 1436.74 1436.74 1748.22 1748.22 1896.22 1896.22 1887.01 1887.01 1959.77
1959.77 2044.79 2044.79 2104.43 2104.43 2115.2 2115.2 2116.05 2116.05 70.593
70.593 591.063 591.063 1083.78 1083.78 1397.51 1397.51 1495.36 1495.36 1197.4
1197.4 851.823 851.823 439.732 439.732 137.458 137.458 -6.51915 -6.51915 -11.5744
-11.5744 715.568 715.568 2135.13 2135.13 2173.02 2173.02 2211.53 2211.53 2257.83
2257.83 2290.27 2290.27 2322.34 2322.34 2356.68 2356.68 2376.57 2376.57 2317.81
2317.81 2105.37 2105.37 1689.06 1689.06 -498.876 -498.876 -319.711 -319.711 393.224
393.224 1262.14 1262.14 1592.65 1592.65 1286.67 1286.67 994.205 994.205 708.895
708.895 477.036 477.036 344.56 344.56 322.755 322.755 1022.77 1022.77 2161.15
2161.15 2177.08 2177.08 2104.94 2104.94 2102.98 2102.98 2186.43 2186.43 2348.47
2348.47 2482.86 2482.86 2621.33 2621.33 2661.61 2661.61 2429.53 2429.53 1983.99
1983.99 504.452 504.452 871.76 871.76 1243.55 1243.55 1555.19 1555.19 1728.58
1728.58 1449.21 1449.21 1071.63 1071.63 773.712 773.712 615.76 615.76 589.971
589.971 698.594 698.594 1289.88 1289.88 1662.15 1662.15 1705.57 1705.57 1726.44
1726.44 1754.53 1754.53 1807.8 1807.8 1889.24 1889.24 1955.74 1955.74 2030.77
2030.77 2084.41 2084.41 2058.49 2058.49 1913.2 1913.2 100.254 100.254 431.407
431.407 898.167 898.167 1365.82 1365.82 1437.32 1437.32 988.88 988.88 647.656
647.656 353.809 353.809 134.75 134.75 38.85 38.85 164.12 164.12 799.068
799.068 1783.9 1783.9 1828.94 1828.94 1875.58 1875.58 1949.72 1949.72 2043.72
2043.72 2152.65 2152.65 2188.33 2188.33 2144.73 2144.73 2070.66 2070.66 1858.78
1858.78 1501.52 1501.52 
alpha.water 1 384 float
0.000274091 0.000276176 0.000276176 0.000274091 0.000314338 0.000314338 0.000317659 0.000317659 0.000284902 0.000284902 0.000284902
0.000284902 0.0441955 0.0441955 0.0972805 0.0972805 0.0535354 0.0535354 0.000595865 0.000595865 0.000555348
0.000555348 0.00051873 0.00051873 0.000487885 0.000487885 0.000455445 0.000455445 0.00042286 0.00042286 0.000397882
0.000397882 0.000385238 0.000385238 0.000379986 0.000379986 0.000377419 0.000377419 0.0139964 0.0139964 0.0720087
0.0720087 0.124325 0.124325 0.129964 0.129964 0.129798 0.129798 0.131915 0.131915 0.000720186
0.000556986 0.000556986 0.000720186 0.000415986 0.000415986 0.000418096 0.000418096 0.000398007 0.000398007 0.000398007
0.000398007 0.00416434 0.00416434 0.0138966 0.0138966 0.0099313 0.0099313 1.87945e-12 1.87945e-12 1.87945e-12
1.87945e-12 1.87945e-12 1.87945e-12 1.93726e-12 1.93726e-12 2.05131e-12 2.05131e-12 2.16184e-12 2.16184e-12 2.26727e-12
2.26727e-12 2.36454e-12 2.36454e-12 2.45428e-12 2.45428e-12 9.34735e-05 9.34735e-05 0.00405275 0.00405275 0.00964038
0.00964038 0.0106968 0.0106968 0.0111091 0.0111091 0.0159457 0.0159457 0.0197045 0.0197045 4.70737e-13
4.23792e-13 4.23792e-13 4.70737e-13 3.33294e-13 3.33294e-13 0.00294577 0.00294577 0.00419216 0.00419216 0.00351881
0.00351881 0.0369563 0.0369563 0.071992 0.071992 0.0746164 0.0746164 0.0602381 0.0602381 0.0229299
0.0229299 -6.03785e-10 -6.03785e-10 -6.03553e-10 -6.03553e-10 5.0249e-13 5.0249e-13 0.000167039 0.000167039 0.00139493
0.00139493 0.00257633 0.00257633 0.00164509 0.00164509 0.000552982 0.000552982 0.000623377 0.000623377 0.00350248
0.00350248 0.00900763 0.00900763 0.0117444 0.0117444 0.0117444 0.0117444 0.0117444 0.0117444 0.00558626
0.00501645 0.00501645 0.00558626 0.00417734 0.00417734 0.00390805 0.00390805 0.00390805 0.00390805 0.00390805
0.00390805 0.00390805 0.00390805 0.00390822 0.00390822 0.00849739 0.00849739 0.0374018 0.0374018 0.0704667
0.0704667 0.0642063 0.0642063 0.0324805 0.0324805 0.0753998 0.0753998 0.239778 0.239778 0.344521
0.344521 0.270447 0.270447 0.109451 0.109451 0.0225305 0.0225305 0.0225305 0.0225305 0.0225305
0.0225305 0.0225305 0.0225305 0.0235838 0.0235838 0.0277351 0.0277351 0.0308331 0.0308331 0.00039052
0.00039052 0.00048674 0.00048674 0.000375448 0.000375448 0.00464891 0.00464891 0.0119718 0.0119718 0.0275334
0.0275334 0.065358 0.065358 0.11056 0.11056 0.120215 0.120215 0.0720823 0.0720823 0.0172729
0.0172729 0.000748407 0.000748407 0.0273155 0.0273155 0.0463018 0.0463018 0.0717745 0.0717745 0.060831
0.060831 0.0293345 0.0293345 0.0201727 0.0201727 0.0304283 0.0304283 0.029504 0.029504 0.0279351
0.0279351 0.0247339 0.0247339 0.0107848 0.0107848 0.000402343 0.000402343 8.04689e-05 8.04689e-05 6.50489e-05
6.50489e-05 2.68301e-05 2.68301e-05 2.73071e-05 2.73071e-05 2.73071e-05 2.73071e-05 1.89231e-12 1.89231e-12 0.00011922
0.00011922 0.00190464 0.00190464 0.00208766 0.00208766 0.000302242 0.000302242 0.000525925 0.000525925 0.0661458
0.0661458 0.000376673 0.000376673 0.000376983 0.000376983 0.000377814 0.000377814 0.00156192 0.00156192 0.00542912
0.00542912 0.00808282 0.00808282 0.00667734 0.00667734 0.00388229 0.00388229 0.00123543 0.00123543 0.000529951
0.000529951 2.26199e-05 2.26199e-05 0.000151432 0.000151432 0.000128813 0.000128813 7.5894e-05 7.5894e-05 0.0131098
0.0131098 0.0748104 0.0748104 0.189683 0.189683 0.27275 0.27275 0.263986 0.263986 0.28822
0.28822 0.525935 0.525935 0.357062 0.357062 0.00985225 0.00985225 1.65412e-06 1.65412e-06 0.000933579
0.000933579 0.00269178 0.00269178 0.00236089 0.00236089 0.0013549 0.0013549 0.00292292 0.00292292 0.00321562
0.00321562 0.00144871 0.00144871 0.000788848 0.000788848 0.000591478 0.000591478 0.0051235 0.0051235 0.00429997
0.00429997 0.00387186 0.00387186 0.0037767 0.0037767 0.00382833 0.00382833 0.00390887 0.00390887 0.0038521
0.0038521 0.00374192 0.00374192 0.0036896 0.0036896 0.217709 0.217709 0.711006 0.711006 0.495191
0.495191 0.0101978 0.0101978 0.00550079 0.00550079 0.00122142 0.00122142 8.95997e-05 8.95997e-05 6.04336e-05
6.04336e-05 0.000159923 0.000159923 0.000377475 0.000377475 0.00045716 0.00045716 0.000276765 0.000276765 5.4204e-05
5.4204e-05 4.93964e-05 4.93964e-05 
p_rgh 1 384 float
0 -219.017 -219.017 0 -450.125 -450.125 -429.773 -429.773 -408.056 -408.056 -301.155
-301.155 134.316 134.316 536.011 536.011 362.15 362.15 107.629 107.629 -46.26
-46.26 -109.555 -109.555 -89.3956 -89.3956 85.963 85.963 298.088 298.088 574.3
574.3 863.99 863.99 1101.14 1101.14 1409.28 1409.28 1651.73 1651.73 1860.81
1860.81 1899.98 1899.98 1987.07 1987.07 2072.46 2072.46 2095.68 2095.68 -341.168
-485.537 -485.537 -341.168 -693.302 -693.302 -737.936 -737.936 -515.294 -515.294 -265.504
-265.504 -0.0415 -0.0415 365.245 365.245 430.22 430.22 211.189 211.189 50.1387
50.1387 -23.5272 -23.5272 -21.312 -21.312 107.589 107.589 302.674 302.674 575.19
575.19 848.109 848.109 1170.65 1170.65 1389.9 1389.9 1528.85 1528.85 1591.75
1591.75 1586.78 1586.78 1617.16 1617.16 1611.44 1611.44 1630.03 1630.03 457.923
337.036 337.036 457.923 170.956 170.956 126.608 126.608 201.564 201.564 395.335
395.335 527.18 527.18 317.367 317.367 36.1021 36.1021 -194.826 -194.826 -344.888
-344.888 -381.532 -381.532 -269.442 -269.442 -49.9517 -49.9517 206.022 206.022 531.899
531.899 825.69 825.69 1096.9 1096.9 1298.88 1298.88 1476.61 1476.61 1624.5
1624.5 1706.92 1706.92 1742.17 1742.17 1764.68 1764.68 1758.71 1758.71 107.95
-36.364 -36.364 107.95 -171.37 -171.37 -104.029 -104.029 52.549 52.549 377.348
377.348 656.133 656.133 462.444 462.444 109.299 109.299 -135.788 -135.788 -249.126
-249.126 -218.595 -218.595 -8.669 -8.669 279.681 279.681 591.195 591.195 1069.26