# vtk DataFile Version 2.0
rotor
ASCII
DATASET POLYDATA
POINTS 384 float
0.1 0 0 0.0997859 -0.00654031 0 0.0997859 -0.00654031 0.05 0.1 0
0.05 0.0991445 -0.0130526 0 0.0991445 -0.0130526 0.05 0.0980785 -0.019509 0
0.0980785 -0.019509 0.05 0.0965926 -0.0258819 0 0.0965926 -0.0258819 0.05 0.094693
-0.0321439 0 0.094693 -0.0321439 0.05 0.092388 -0.0382683 0 0.092388 -0.0382683
0.05 0.0896873 -0.0442289 0 0.0896873 -0.0442289 0.05 0.0866025 -0.05 0
0.0866025 -0.05 0.05 0.083147 -0.055557 0 0.083147 -0.055557 0.05 0.0793353
-0.0608761 0 0.0793353 -0.0608761 0.05 0.075184 -0.0659346 0 0.075184 -0.0659346
0.05 0.0707107 -0.0707107 0 0.0707107 -0.0707107 0.05 0.0659346 -0.075184 0
0.0659346 -0.075184 0.05 0.0608761 -0.0793353 0 0.0608761 -0.0793353 0.05 0.055557
-0.083147 0 0.055557 -0.083147 0.05 0.05 -0.0866025 0 0.05 -0.0866025
0.05 0.0442289 -0.0896873 0 0.0442289 -0.0896873 0.05 0.0382683 -0.092388 0
0.0382683 -0.092388 0.05 0.0321439 -0.094693 0 0.0321439 -0.094693 0.05 0.0258819
-0.0965926 0 0.0258819 -0.0965926 0.05 0.019509 -0.0980785 0 0.019509 -0.0980785
0.05 0.0130526 -0.0991445 0 0.0130526 -0.0991445 0.05 0.00654031 -0.0997859 0
0.00654031 -0.0997859 0.05 1.7949e-10 -0.1 0 1.7949e-10 -0.1 0.05 1.7949e-10
-0.1 0 -0.00654031 -0.0997859 0 -0.00654031 -0.0997859 0.05 1.7949e-10 -0.1
0.05 -0.0130526 -0.0991445 0 -0.0130526 -0.0991445 0.05 -0.019509 -0.0980785 0
-0.019509 -0.0980785 0.05 -0.0258819 -0.0965926 0 -0.0258819 -0.0965926 0.05 -0.0321439
-0.094693 0 -0.0321439 -0.094693 0.05 -0.0382683 -0.092388 0 -0.0382683 -0.092388
0.05 -0.0442289 -0.0896873 0 -0.0442289 -0.0896873 0.05 -0.05 -0.0866025 0
-0.05 -0.0866025 0.05 -0.055557 -0.083147 0 -0.055557 -0.083147 0.05 -0.0608761
-0.0793353 0 -0.0608761 -0.0793353 0.05 -0.0659346 -0.075184 0 -0.0659346 -0.075184
0.05 -0.0707107 -0.0707107 0 -0.0707107 -0.0707107 0.05 -0.075184 -0.0659346 0
-0.075184 -0.0659346 0.05 -0.0793353 -0.0608761 0 -0.0793353 -0.0608761 0.05 -0.083147
-0.055557 0 -0.083147 -0.055557 0.05 -0.0866025 -0.05 0 -0.0866025 -0.05
0.05 -0.0896873 -0.0442289 0 -0.0896873 -0.0442289 0.05 -0.092388 -0.0382683 0
-0.092388 -0.0382683 0.05 -0.094693 -0.0321439 0 -0.094693 -0.0321439 0.05 -0.0965926
-0.0258819 0 -0.0965926 -0.0258819 0.05 -0.0980785 -0.019509 0 -0.0980785 -0.019509
0.05 -0.0991445 -0.0130526 0 -0.0991445 -0.0130526 0.05 -0.0997859 -0.00654031 0
-0.0997859 -0.00654031 0.05 -0.1 3.58979e-10 0 -0.1 3.58979e-10 0.05 -0.1
3.58979e-10 0 -0.0997859 0.00654031 0 -0.0997859 0.00654031 0.05 -0.1 3.58979e-10
0.05 -0.0991445 0.0130526 0 -0.0991445 0.0130526 0.05 -0.0980785 0.019509 0
-0.0980785 0.019509 0.05 -0.0965926 0.0258819 0 -0.0965926 0.0258819 0.05 -0.094693
0.0321439 0 -0.094693 0.0321439 0.05 -0.092388 0.0382683 0 -0.092388 0.0382683
0.05 -0.0896873 0.0442289 0 -0.0896873 0.0442289 0.05 -0.0866025 0.05 0
-0.0866025 0.05 0.05 -0.083147 0.055557 0 -0.083147 0.055557 0.05 -0.0793353
0.0608761 0 -0.0793353 0.0608761 0.05 -0.075184 0.0659346 0 -0.075184 0.0659346
0.05 -0.0707107 0.0707107 0 -0.0707107 0.0707107 0.05 -0.0659346 0.075184 0
-0.0659346 0.075184 0.05 -0.0608761 0.0793353 0 -0.0608761 0.0793353 0.05 -0.055557
0.083147 0 -0.055557 0.083147 0.05 -0.05 0.0866025 0 -0.05 0.0866025
0.05 -0.0442289 0.0896873 0 -0.0442289 0.0896873 0.05 -0.0382683 0.092388 0
-0.0382683 0.092388 0.05 -0.0321439 0.094693 0 -0.0321439 0.094693 0.05 -0.0258819
0.0965926 0 -0.0258819 0.0965926 0.05 -0.019509 0.0980785 0 -0.019509 0.0980785
0.05 -0.0130526 0.0991445 0 -0.0130526 0.0991445 0.05 -0.00654031 0.0997859 0
-0.00654031 0.0997859 0.05 1.7949e-10 0.1 0 1.7949e-10 0.1 0.05 1.7949e-10
0.1 0 0.00654031 0.0997859 0 0.00654031 0.0997859 0.05 1.7949e-10 0.1
0.05 0.0130526 0.0991445 0 0.0130526 0.0991445 0.05 0.019509 0.0980785 0
0.019509 0.0980785 0.05 0.0258819 0.0965926 0 0.0258819 0.0965926 0.05 0.0321439
0.094693 0 0.0321439 0.094693 0.05 0.0382683 0.092388 0 0.0382683 0.092388
0.05 0.0442289 0.0896873 0 0.0442289 0.0896873 0.05 0.05 0.0866025 0
0.05 0.0866025 0.05 0.055557 0.083147 0 0.055557 0.083147 0.05 0.0608761
0.0793353 0 0.0608761 0.0793353 0.05 0.0659346 0.075184 0 0.0659346 0.075184
0.05 0.0707107 0.0707107 0 0.0707107 0.0707107 0.05 0.075184 0.0659346 0
0.075184 0.0659346 0.05 0.0793353 0.0608761 0 0.0793353 0.0608761 0.05 0.083147
0.055557 0 0.083147 0.055557 0.05 0.0866025 0.05 0 0.0866025 0.05
0.05 0.0896873 0.0442289 0 0.0896873 0.0442289 0.05 0.092388 0.0382683 0
0.092388 0.0382683 0.05 0.094693 0.0321439 0 0.094693 0.0321439 0.05 0.0965926
0.0258819 0 0.0965926 0.0258819 0.05 0.0980785 0.019509 0 0.0980785 0.019509
0.05 0.0991445 0.0130526 0 0.0991445 0.0130526 0.05 0.0997859 0.00654031 0
0.0997859 0.00654031 0.05 0.1 0 0 0.1 0 0.05 0.1125
0 0.05 0.1125 0 0 0.125 0 0.05 0.125 0
0 0.1375 0 0.05 0.1375 0 0 0.15 0 0.05
0.15 0 0 0.1625 0 0.05 0.1625 0 0 0.175
0 0.05 0.175 0 0 0.1875 0 0.05 0.1875 0
0 0.2 0 0.05 0.2 0 0 0.2125 0 0.05
0.2125 0 0 0.225 0 0.05 0.225 0 0 0.2375
0 0.05 0.2375 0 0 0.25 0 0.05 0.25 0
0 0.1125 0 0 0.1125 0 0.05 0.125 0 0
0.125 0 0.05 0.1375 0 0 0.1375 0 0.05 0.15
0 0 0.15 0 0.05 0.1625 0 0 0.1625 0
0.05 0.175 0 0 0.175 0 0.05 0.1875 0 0
0.1875 0 0.05 0.2 0 0 0.2 0 0.05 0.2125
0 0 0.2125 0 0.05 0.225 0 0 0.225 0
0.05 0.2375 0 0 0.2375 0 0.05 2.01926e-10 -0.1125 0.05
2.01926e-10 -0.1125 0 2.24362e-10 -0.125 0.05 2.24362e-10 -0.125 0 2.46798e-10
-0.1375 0.05 2.46798e-10 -0.1375 0 2.69235e-10 -0.15 0.05 2.69235e-10 -0.15
0 2.91671e-10 -0.1625 0.05 2.91671e-10 -0.1625 0 3.14107e-10 -0.175 0.05
3.14107e-10 -0.175 0 3.36543e-10 -0.1875 0.05 3.36543e-10 -0.1875 0 3.58979e-10
-0.2 0.05 3.58979e-10 -0.2 0 3.81416e-10 -0.2125 0.05 3.81416e-10 -0.2125
0 4.03852e-10 -0.225 0.05 4.03852e-10 -0.225 0 4.26288e-10 -0.2375 0.05
4.26288e-10 -0.2375 0 4.48724e-10 -0.25 0.05 4.48724e-10 -0.25 0 2.01926e-10
-0.1125 0 2.01926e-10 -0.1125 0.05 2.24362e-10 -0.125 0 2.24362e-10 -0.125
0.05 2.46798e-10 -0.1375 0 2.46798e-10 -0.1375 0.05 2.69234e-10 -0.15 0
2.69234e-10 -0.15 0.05 2.91671e-10 -0.1625 0 2.91671e-10 -0.1625 0.05 3.14107e-10
-0.175 0 3.14107e-10 -0.175 0.05 3.36543e-10 -0.1875 0 3.36543e-10 -0.1875
0.05 3.58979e-10 -0.2 0 3.58979e-10 -0.2 0.05 3.81416e-10 -0.2125 0
3.81416e-10 -0.2125 0.05 4.03852e-10 -0.225 0 4.03852e-10 -0.225 0.05 4.26288e-10
-0.2375 0 4.26288e-10 -0.2375 0.05 -0.1125 4.03852e-10 0.05 -0.1125 4.03852e-10
0 -0.125 4.48724e-10 0.05 -0.125 4.48724e-10 0 -0.1375 4.93597e-10 0.05
-0.1375 4.93597e-10 0 -0.15 5.38469e-10 0.05 -0.15 5.38469e-10 0 -0.1625
5.83341e-10 0.05 -0.1625 5.83341e-10 0 -0.175 6.28214e-10 0.05 -0.175 6.28214e-10
0 -0.1875 6.73086e-10 0.05 -0.1875 6.73086e-10 0 -0.2 7.17959e-10 0.05
-0.2 7.17959e-10 0 -0.2125 7.62831e-10 0.05 -0.2125 7.62831e-10 0 -0.225
8.07704e-10 0.05 -0.225 8.07704e-10 0 -0.2375 8.52576e-10 0.05 -0.2375 8.52576e-10
0 -0.25 8.97448e-10 0.05 -0.25 8.97448e-10 0 -0.1125 4.03852e-10 0
-0.1125 4.03852e-10 0.05 -0.125 4.48724e-10 0 -0.125 4.48724e-10 0.05 -0.1375
4.93597e-10 0 -0.1375 4.93597e-10 0.05 -0.15 5.38469e-10 0 -0.15 5.38469e-10
0.05 -0.1625 5.83341e-10 0 -0.1625 5.83341e-10 0.05 -0.175 6.28214e-10 0
-0.175 6.28214e-10 0.05 -0.1875 6.73086e-10 0 -0.1875 6.73086e-10 0.05 -0.2
7.17959e-10 0 -0.2 7.17959e-10 0.05 -0.2125 7.62831e-10 0 -0.2125 7.62831e-10
0.05 -0.225 8.07704e-10 0 -0.225 8.07704e-10 0.05 -0.2375 8.52576e-10 0
-0.2375 8.52576e-10 0.05 2.01926e-10 0.1125 0.05 2.01926e-10 0.1125 0 2.24362e-10
0.125 0.05 2.24362e-10 0.125 0 2.46798e-10 0.1375 0.05 2.46798e-10 0.1375
0 2.69235e-10 0.15 0.05 2.69235e-10 0.15 0 2.91671e-10 0.1625 0.05
2.91671e-10 0.1625 0 3.14107e-10 0.175 0.05 3.14107e-10 0.175 0 3.36543e-10
0.1875 0.05 3.36543e-10 0.1875 0 3.58979e-10 0.2 0.05 3.58979e-10 0.2
0 3.81416e-10 0.2125 0.05 3.81416e-10 0.2125 0 4.03852e-10 0.225 0.05
4.03852e-10 0.225 0 4.26288e-10 0.2375 0.05 4.26288e-10 0.2375 0 4.48724e-10
0.25 0.05 4.48724e-10 0.25 0 2.01926e-10 0.1125 0 2.01926e-10 0.1125
0.05 2.24362e-10 0.125 0 2.24362e-10 0.125 0.05 2.46798e-10 0.1375 0
2.46798e-10 0.1375 0.05 2.69234e-10 0.15 0 2.69234e-10 0.15 0.05 2.91671e-10
0.1625 0 2.91671e-10 0.1625 0.05 3.14107e-10 0.175 0 3.14107e-10 0.175
0.05 3.36543e-10 0.1875 0 3.36543e-10 0.1875 0.05 3.58979e-10 0.2 0
3.58979e-10 0.2 0.05 3.81416e-10 0.2125 0 3.81416e-10 0.2125 0.05 4.03852e-10
0.225 0 4.03852e-10 0.225 0.05 4.26288e-10 0.2375 0 4.26288e-10 0.2375
0.05 
POLYGONS 192 960
4 0 1 2 3 4 1 4 5 2 4
4 6 7 5 4 6 8 9 7 4
8 10 11 9 4 10 12 13 11 4
12 14 15 13 4 14 16 17 15 4
16 18 19 17 4 18 20 21 19 4
20 22 23 21 4 22 24 25 23 4
24 26 27 25 4 26 28 29 27 4
28 30 31 29 4 30 32 33 31 4
32 34 35 33 4 34 36 37 35 4
36 38 39 37 4 38 40 41 39 4
40 42 43 41 4 42 44 45 43 4
44 46 47 45 4 46 48 49 47 4
50 51 52 53 4 51 54 55 52 4
54 56 57 55 4 56 58 59 57 4
58 60 61 59 4 60 62 63 61 4
62 64 65 63 4 64 66 67 65 4
66 68 69 67 4 68 70 71 69 4
70 72 73 71 4 72 74 75 73 4
74 76 77 75 4 76 78 79 77 4
78 80 81 79 4 80 82 83 81 4
82 84 85 83 4 84 86 87 85 4
86 88 89 87 4 88 90 91 89 4
90 92 93 91 4 92 94 95 93 4
94 96 97 95 4 96 98 99 97 4
100 101 102 103 4 101 104 105 102 4
104 106 107 105 4 106 108 109 107 4
108 110 111 109 4 110 112 113 111 4
112 114 115 113 4 114 116 117 115 4
116 118 119 117 4 118 120 121 119 4
120 122 123 121 4 122 124 125 123 4
124 126 127 125 4 126 128 129 127 4
128 130 131 129 4 130 132 133 131 4
132 134 135 133 4 134 136 137 135 4
136 138 139 137 4 138 140 141 139 4
140 142 143 141 4 142 144 145 143 4
144 146 147 145 4 146 148 149 147 4
150 151 152 153 4 151 154 155 152 4
154 156 157 155 4 156 158 159 157 4
158 160 161 159 4 160 162 163 161 4
162 164 165 163 4 164 166 167 165 4
166 168 169 167 4 168 170 171 169 4
170 172 173 171 4 172 174 175 173 4
174 176 177 175 4 176 178 179 177 4
178 180 181 179 4 180 182 183 181 4
182 184 185 183 4 184 186 187 185 4
186 188 189 187 4 188 190 191 189 4
190 192 193 191 4 192 194 195 193 4
194 196 197 195 4 196 198 199 197 4
0 3 200 201 4 201 200 202 203 4
203 202 204 205 4 205 204 206 207 4
207 206 208 209 4 209 208 210 211 4
211 210 212 213 4 213 212 214 215 4
215 214 216 217 4 217 216 218 219 4
219 218 220 221 4 221 220 222 223 4
198 224 225 199 4 224 226 227 225 4
226 228 229 227 4 228 230 231 229 4
230 232 233 231 4 232 234 235 233 4
234 236 237 235 4 236 238 239 237 4
238 240 241 239 4 240 242 243 241 4
242 244 245 243 4 244 223 222 245 4
50 53 246 247 4 247 246 248 249 4
249 248 250 251 4 251 250 252 253 4
253 252 254 255 4 255 254 256 257 4
257 256 258 259 4 259 258 260 261 4
261 260 262 263 4 263 262 264 265 4
265 264 266 267 4 267 266 268 269 4
48 270 271 49 4 270 272 273 271 4
272 274 275 273 4 274 276 277 275 4
276 278 279 277 4 278 280 281 279 4
280 282 283 281 4 282 284 285 283 4
284 286 287 285 4 286 288 289 287 4
288 290 291 289 4 290 269 268 291 4
100 103 292 293 4 293 292 294 295 4
295 294 296 297 4 297 296 298 299 4
299 298 300 301 4 301 300 302 303 4
303 302 304 305 4 305 304 306 307 4
307 306 308 309 4 309 308 310 311 4
311 310 312 313 4 313 312 314 315 4
98 316 317 99 4 316 318 319 317 4
318 320 321 319 4 320 322 323 321 4
322 324 325 323 4 324 326 327 325 4
326 328 329 327 4 328 330 331 329 4
330 332 333 331 4 332 334 335 333 4
334 336 337 335 4 336 315 314 337 4
150 153 338 339 4 339 338 340 341 4
341 340 342 343 4 343 342 344 345 4
345 344 346 347 4 347 346 348 349 4
349 348 350 351 4 351 350 352 353 4
353 352 354 355 4 355 354 356 357 4
357 356 358 359 4 359 358 360 361 4
148 362 363 149 4 362 364 365 363 4
364 366 367 365 4 366 368 369 367 4
368 370 371 369 4 370 372 373 371 4
372 374 375 373 4 374 376 377 375 4
376 378 379 377 4 378 380 381 379 4
380 382 383 381 4 382 361 360 383 
CELL_DATA 192
FIELD attributes 5
patchID 1 192 float
0 0 0 0 0 0 0 0 0 0 0
0 0 0 0 0 0 0 0 0 0
0 0 0 0 0 0 0 0 0 0
0 0 0 0 0 0 0 0 0 0
0 0 0 0 0 0 0 0 0 0
0 0 0 0 0 0 0 0 0 0
0 0 0 0 0 0 0 0 0 0
0 0 0 0 0 0 0 0 0 0
0 0 0 0 0 0 0 0 0 0
0 0 0 0 0 0 0 0 0 0
0 0 0 0 0 0 0 0 0 0
0 0 0 0 0 0 0 0 0 0
0 0 0 0 0 0 0 0 0 0
0 0 0 0 0 0 0 0 0 0
0 0 0 0 0 0 0 0 0 0
0 0 0 0 0 0 0 0 0 0
0 0 0 0 0 0 0 0 0 0
0 0 0 0 0 0 0 0 0 0
0 0 0 0 0 0 0 0 0 0
0 
p 1 192 float
0 -298.838 -371.924 -137.56 -138.704 393.965 573.245 450.519 -109.383 -125.274 -457.773
-93.8658 -214.571 487.101 478.061 1383.31 1376.64 1956.38 1977.8 2133.98 2088.98
2226.33 2276.62 2288.51 78.7029 -91.0704 -131.995 -77.9159 -18.0549 412.451 502.06
252.829 136.331 62.3982 69.1701 205.623 360.945 710.478 904.894 1271.18 1130.81
1122.2 1146.65 1256.52 1231.6 1357.74 1400.78 1442.79 206.485 -12.365 -193.62
-139.66 162.202 263.128 596.473 894.803 708.943 456.385 464.189 434.23 602.215
726.204 674.517 778.26 670.272 731.481 769.582 880.641 885.861 923.791 935.188
945.384 460.015 325.345 160.128 349.394 377.505 605.431 754.468 551.283 264.72
252.935 139.347 333.387 366.664 712.69 841.808 1215.85 1228.09 1389.78 1293.77
1325.04 1338.71 1422.49 1423.39 1435.7 0 -169.087 781.501 826.777 1830.34
1629.21 1201.78 814.971 526.044 391.179 420.282 547.386 1435.7 1503.31 1563.5
1622.98 1695.18 1745.11 1822.01 1795.91 1791.77 1734.04 1676.75 1455.26 78.7029
-2.1068 521.928 465.105 879.196 635.127 428.428 198.017 87.4522 66.8216 104.506
228.061 2288.51 2339.61 2384.18 2433.07 2507.73 2578.01 2740.59 2784.18 2700.06
2447.08 2020.54 1493.33 206.485 52.2859 614.325 532.862 617.27 503.214 452.865
345.751 260.933 236.405 282.96 401.161 1442.79 1513.69 1587.16 1667.32 1752.47
1829.67 1922.35 1989.76 2035.25 1944.75 1727.85 1367.11 460.015 261.69 984.09
826.497 1197.77 909.154 594.875 534.411 554.968 629.536 758.459 944.565 945.384
1000.02 1050.28 1098.89 1198.36 1252.51 1349.57 1412.63 1561.26 1636.49 1681.07
1592.23 
alpha.water 1 192 float
0.000907359 0.00142953 0.00092061 0.000969291 0.00157735 0.000949889 0.00113449 0.0193028 0.0238062 0.0339737 0.0288391
0.0525003 0.0635461 0.110578 0.0974643 0.103641 0.0353764 0.0336967 0.0233647 0.0233647 0.0262074
0.0443365 0.0590739 0.0836035 0.0516147 0.0520131 0.0354126 0.0295054 0.0295054 0.131387 0.27653
0.0658196 0.0657441 0.0704526 0.0746794 0.0686812 0.0676146 0.0676146 0.154485 0.478996 0.478996
0.478996 0.446086 0.0552865 0.0273997 0.0273997 0.0303657 0.0467011 0.0319399 0.0319399 0.0108114
2.7777e-06 2.7777e-06 0.000519626 0.000151228 1.69902e-06 0.116045 0.487293 0.487293 0.475638 0.0679088
1.74418e-13 0.000104452 0.00607312 0.0106368 0.0117889 0.0047832 0.00535644 0.00836891 0.0851765 0.0852443
0.329229 0.00365882 0.00183547 0.000128205 2.07595e-06 0.00491423 0.00525265 0.139189 0.331239 0.331239
0.331239 0.331239 0.17229 0.0152786 0.0152786 0.0152786 0.0228233 0.13034 0.145457 0.0619054
0.0568465 0.0192775 0.106235 0.374331 0.489336 0.000907359 0.000907359 0.000907359 0.00110874 0.00111505
0.00112254 0.0151634 0.138165 0.157343 0.0912148 0.00878653 0.000393388 0.489336 0.223331 1.3472e-05
0.212648 0.306184 0.194008 0.0631839 0.070282 0.0583342 0.0169789 0.00737802 0.0142759 0.0516147
0.0293134 0.0293128 0.0293258 0.0290239 0.0758279 0.325002 0.341498 0.308745 0.162098 0.024569
3.26199e-13 0.0836035 0.209712 0.199817 0.184723 0.266814 0.250606 0.13144 0.0847834 0.173152
0.109826 0.0777324 0.129699 0.0319399 0.0310394 0.00623827 0.00240645 0.00054731 0.00054731 0.0194232
0.0231952 0.0267786 0.00530128 0.0281858 0.130381 0.0467011 0.0273997 0.0274086 0.0274086 0.0585405
0.0796677 0.0325077 0.0218015 0.0374717 0.0374575 0.0151493 0.00154869 0.00365882 0.0245596 0.0249743
0.0189264 0.0126386 0.00908952 0.00174964 3.71609e-13 3.20361e-13 2.59094e-13 0.0449734 0.139735 0.329229
0.208238 0.136012 0.351657 0.610273 0.517105 0.452081 0.61939 0.634176 0.533299 0.343009
0.0399946 
p_rgh 1 192 float
0 -298.838 -371.924 -137.56 -138.704 393.965 573.245 450.519 -109.383 -125.274 -457.773
-93.8658 -214.571 487.101 478.061 1383.31 1376.64 1956.38 1977.8 2133.98 2088.98
2226.33 2276.62 2288.51 78.7029 -91.0704 -131.995 -77.9159 -18.0549 412.451 502.06
252.829 136.331 62.3982 69.1701 205.623 360.945 710.478 904.894 1271.18 1130.81
1122.2 1146.65 1256.52 1231.6 1357.74 1400.78 1442.79 206.485 -12.365 -193.62
-139.66 162.202 263.128 596.473 894.803 708.943 456.385 464.189 434.23 602.215
726.204 674.517 778.26 670.272 731.481 769.582 880.641 885.861 923.791 935.188
945.384 460.015 325.345 160.128 349.394 377.505 605.431 754.468 551.283 264.72
252.935 139.347 333.387 366.664 712.69 841.808 1215.85 1228.09 1389.78 1293.77
1325.04 1338.71 1422.49 1423.39 1435.7 0 -169.087 781.501 826.777 1830.34
1629.21 1201.78 814.971 526.044 391.179 420.282 547.386 1435.7 1503.31 1563.5
1622.98 1695.18 1745.11 1822.01 1795.91 1791.77 1734.04 1676.75 1455.26 78.7029
-2.1068 521.928 465.105 879.196 635.127 428.428 198.017 87.4522 66.8216 104.506
228.061 2288.51 2339.61 2384.18 2433.07 2507.73 2578.01 2740.59 2784.18 2700.06
2447.08 2020.54 1493.33 206.485 52.2859 614.325 532.862 617.27 503.214 452.865
345.751 260.933 236.405 282.96 401.161 1442.79 1513.69 1587.16 1667.32 1752.47
1829.67 1922.35 1989.76 2035.25 1944.75 1727.85 1367.11 460.015 261.69 984.09
826.497 1197.77 909.154 594.875 534.411 554.968 629.536 758.459 944.565 945.384
1000.02 1050.28 1098.89 1198.36 1252.51 1349.57 1412.63 1561.26 1636.49 1681.07
1592.23 
U 3 192 float
0.020547 0.627646 0 0.061553 0.624958 0 0.102295 0.619594 0 0.1426 0.611577
0 0.182294 0.600941 0 0.221207 0.587732 0 0.259173 0.572006 0
0.296029 0.553831 0 0.331617 0.533284 0 0.365786 0.510453 0 0.398388
0.485437 0 0.429284 0.458342 0 0.458342 0.429284 0 0.485437 0.398388
0 0.510453 0.365786 0 0.533284 0.331617 0 0.553831 0.296029 0
0.572006 0.259173 0 0.587732 0.221207 0 0.600941 0.182294 0 0.611577
0.1426 0 0.619594 0.102295 0 0.624958 0.061553 0 0.627646 0.020547
0 0.627646 -0.020547 0 0.624958 -0.061553 0 0.619594 -0.102295 0
0.611577 -0.1426 0 0.600941 -0.182294 0 0.587732 -0.221207 0 0.572006
-0.259173 0 0.553831 -0.296029 0 0.533284 -0.331617 0 0.510453 -0.365786
0 0.485437 -0.398388 0 0.458342 -0.429284 0 0.429284 -0.458342 0
0.398388 -0.485437 0 0.365786 -0.510453 0 0.331617 -0.533284 0 0.296029
-0.553831 0 0.259173 -0.572006 0 0.221207 -0.587732 0 0.182294 -0.600941
0 0.1426 -0.611577 0 0.102295 -0.619594 0 0.061553 -0.624958 0
0.020547 -0.627646 0 -0.020547 -0.627646 0 -0.061553 -0.624958 0 -0.102295
-0.619594 0 -0.1426 -0.611577 0 -0.182294 -0.600941 0 -0.221207 -0.587732
0 -0.259173 -0.572006 0 -0.296029 -0.553831 0 -0.331617 -0.533284 0
-0.365786 -0.510453 0 -0.398388 -0.485437 0 -0.429284 -0.458342 0 -0.458342
-0.429284 0 -0.485437 -0.398388 0 -0.510453 -0.365786 0 -0.533284 -0.331617
0 -0.553831 -0.296029 0 -0.572006 -0.259173 0 -0.587732 -0.221207 0
-0.600941 -0.182294 0 -0.611577 -0.1426 0 -0.619594 -0.102295 0 -0.624958
-0.061553 0 -0.627646 -0.020547 0 -0.627646 0.020547 0 -0.624958 0.061553
0 -0.619594 0.102295 0 -0.611577 0.1426 0 -0.600941 0.182294 0
-0.587732 0.221207 0 -0.572006 0.259173 0 -0.553831 0.296029 0 -0.533284
0.331617 0 -0.510453 0.365786 0 -0.485437 0.398388 0 -0.458342 0.429284
0 -0.429284 0.458342 0 -0.398388 0.485437 0 -0.365786 0.510453 0
-0.331617 0.533284 0 -0.296029 0.553831 0 -0.259173 0.572006 0 -0.221207
0.587732 0 -0.182294 0.600941 0 -0.1426 0.611577 0 -0.102295 0.619594
0 -0.061553 0.624958 0 -0.020547 0.627646 0 0 0.667588 0
0 0.746128 0 0 0.824668 0 0 0.903208 0 0
0.981748 0 0 1.06029 0 0 1.13883 0 0 1.21737
0 0 1.29591 0 0 1.37445 0 0 1.45299 0
0 1.53153 0 0 0.667588 0 0 0.746128 0 0
0.824668 0 0 0.903208 0 0 0.981748 0 0 1.06029
0 0 1.13883 0 0 1.21737 0 0 1.29591 0
0 1.37445 0 0 1.45299 0 0 1.53153 0 0.667588
1.19825e-09 0 0.746128 1.33922e-09 0 0.824668 1.48019e-09 0 0.903208 1.62116e-09
0 0.981748 1.76214e-09 0 1.06029 1.90311e-09 0 1.13883 2.04408e-09 0
1.21737 2.18505e-09 0 1.29591 2.32602e-09 0 1.37445 2.46699e-09 0 1.45299
2.60796e-09 0 1.53153 2.74893e-09 0 0.667588 1.19825e-09 0 0.746128 1.33922e-09
0 0.824668 1.48019e-09 0 0.903208 1.62116e-09 0 0.981748 1.76214e-09 0
1.06029 1.90311e-09 0 1.13883 2.04408e-09 0 1.21737 2.18505e-09 0 1.29591
2.32602e-09 0 1.37445 2.46699e-09 0 1.45299 2.60796e-09 0 1.53153 2.74893e-09
0 -2.3965e-09 -0.667588 0 -2.67845e-09 -0.746128 0 -2.96039e-09 -0.824668 0
-3.24233e-09 -0.903208 0 -3.52427e-09 -0.981748 0 -3.80621e-09 -1.06029 0 -4.08815e-09
-1.13883 0 -4.3701e-09 -1.21737 0 -4.65204e-09 -1.29591 0 -4.93398e-09 -1.37445
0 -5.21592e-09 -1.45299 0 -5.49786e-09 -1.53153 0 -2.3965e-09 -0.667588 0
-2.67845e-09 -0.746128 0 -2.96039e-09 -0.824668 0 -3.24233e-09 -0.903208 0 -3.52427e-09
-0.981748 0 -3.80621e-09 -1.06029 0 -4.08815e-09 -1.13883 0 -4.3701e-09 -1.21737
0 -4.65204e-09 -1.29591 0 -4.93398e-09 -1.37445 0 -5.21592e-09 -1.45299 0
-5.49786e-09 -1.53153 0 -0.667588 1.19825e-09 0 -0.746128 1.33922e-09 0 -0.824668
1.48019e-09 0 -0.903208 1.62116e-09 0 -0.981748 1.76214e-09 0 -1.06029 1.90311e-09
0 -1.13883 2.04408e-09 0 -1.21737 2.18505e-09 0 -1.29591 2.32602e-09 0
-1.37445 2.46699e-09 0 -1.45299 2.60796e-09 0 -1.53153 2.74893e-09 0 -0.667588
1.19825e-09 0 -0.746128 1.33922e-09 0 -0.824668 1.48019e-09 0 -0.903208 1.62116e-09
0 -0.981748 1.76214e-09 0 -1.06029 1.90311e-09 0 -1.13883 2.04408e-09 0
-1.21737 2.18505e-09 0 -1.29591 2.32602e-09 0 -1.37445 2.46699e-09 0 -1.45299
2.60796e-09 0 -1.53153 2.74893e-09 0 
POINT_DATA  384
FIELD attributes 4
p 1 384 float
0 -149.419 -149.419 0 -335.381 -335.381 -254.742 -254.742 -138.132 -138.132 127.631
127.631 483.605 483.605 511.882 511.882 170.568 170.568 -117.328 -117.328 -291.523
-291.523 -275.819 -275.819 -154.218 -154.218 136.265 136.265 482.581 482.581 930.685
930.685 1379.97 1379.97 1666.51 1666.51 1967.09 1967.09 2055.89 2055.89 2111.48
2111.48 2157.66 2157.66 2251.48 2251.48 2282.56 2282.56 2288.51 2288.51 78.7029
-6.18375 -6.18375 78.7029 -111.533 -111.533 -104.955 -104.955 -47.9854 -47.9854 197.198
197.198 457.255 457.255 377.444 377.444 194.58 194.58 99.3646 99.3646 65.7841
65.7841 137.397 137.397 283.284 283.284 535.711 535.711 807.686 807.686 1088.04
1088.04 1200.99 1200.99 1126.51 1126.51 1134.43 1134.43 1201.58 1201.58 1244.06
1244.06 1294.67 1294.67 1379.26 1379.26 1421.79 1421.79 1442.79 1442.79 206.485
97.06 97.06 206.485 -102.993 -102.993 -166.64 -166.64 11.271 11.271 212.665
212.665 429.801 429.801 745.638 745.638 801.873 801.873 582.664 582.664 460.287
460.287 449.21 449.21 518.222 518.222 664.209 664.209 700.36 700.36 726.388
726.388 724.266 724.266 700.877 700.877 750.531 750.531 825.112 825.112 883.251
883.251 904.826 904.826 929.49 929.49 940.286 940.286 945.384 945.384 460.015
392.68 392.68 460.015 242.736 242.736 254.761 254.761 363.449 363.449 491.468
491.468 679.95 679.95 652.875 652.875 408.001 408.001 258.828 258.828 196.141
196.141 236.367 236.367 350.026 350.026 539.677 539.677 777.249 777.249 1028.83
1028.83 1221.97 1221.97 1308.94 1308.94 1341.78 1341.78 1309.41 1309.41 1331.87
1331.87 1380.6 1380.6 1422.94 1422.94 1429.55 1429.55 1435.7 1435.7 -84.5435
-84.5435 306.207 306.207 804.139 804.139 1328.56 1328.56 1729.78 1729.78 1415.49
1415.49 1008.38 1008.38 670.508 670.508 458.612 458.612 405.73 405.73 483.834
483.834 1001.32 1001.32 1469.51 1469.51 1533.41 1533.41 1593.24 1593.24 1659.08
1659.08 1720.15 1720.15 1783.56 1783.56 1808.96 1808.96 1793.84 1793.84 1762.91
1762.91 1705.4 1705.4 1566.01 1566.01 38.298 38.298 259.911 259.911 493.517
493.517 672.151 672.151 757.161 757.161 531.778 531.778 313.223 313.223 142.735
142.735 77.1369 77.1369 85.6638 85.6638 166.283 166.283 860.695 860.695 2314.06
2314.06 2361.9 2361.9 2408.62 2408.62 2470.4 2470.4 2542.87 2542.87 2659.3
2659.3 2762.39 2762.39 2742.12 2742.12 2573.57 2573.57 2233.81 2233.81 1756.94
1756.94 129.385 129.385 333.305 333.305 573.594 573.594 575.066 575.066 560.242
560.242 478.039 478.039 399.308 399.308 303.342 303.342 248.669 248.669 259.682
259.682 342.06 342.06 884.135 884.135 1478.24 1478.24 1550.43 1550.43 1627.24
1627.24 1709.9 1709.9 1791.07 1791.07 1876.01 1876.01 1956.06 1956.06 2012.51
2012.51 1990 1990 1836.3 1836.3 1547.48 1547.48 360.853 360.853 622.89
622.89 905.294 905.294 1012.13 1012.13 1053.46 1053.46 752.015 752.015 564.643
564.643 544.69 544.69 592.252 592.252 693.997 693.997 851.512 851.512 1268.4
1268.4 972.702 972.702 1025.15 1025.15 1074.58 1074.58 1148.63 1148.63 1225.44
1225.44 1301.04 1301.04 1381.1 1381.1 1486.94 1486.94 1598.88 1598.88 1658.78
1658.78 1636.65 1636.65 
alpha.water 1 384 float
0.000907359 0.00116844 0.00116844 0.000907359 0.00117507 0.00117507 0.000944951 0.000944951 0.00127332 0.00127332 0.00126362
0.00126362 0.00104219 0.00104219 0.0102186 0.0102186 0.0215545 0.0215545 0.02889 0.02889 0.0314064
0.0314064 0.0406697 0.0406697 0.0580232 0.0580232 0.0870621 0.0870621 0.104021 0.104021 0.100553
0.100553 0.0695087 0.0695087 0.0345366 0.0345366 0.0285307 0.0285307 0.0233647 0.0233647 0.024786
0.024786 0.035272 0.035272 0.0517052 0.0517052 0.0713387 0.0713387 0.0836035 0.0836035 0.0516147
0.0518139 0.0518139 0.0516147 0.0437129 0.0437129 0.032459 0.032459 0.0295054 0.0295054 0.0804462
0.0804462 0.203958 0.203958 0.171175 0.171175 0.0657818 0.0657818 0.0680984 0.0680984 0.072566
0.072566 0.0716803 0.0716803 0.0681479 0.0681479 0.0676146 0.0676146 0.11105 0.11105 0.316741
0.316741 0.478996 0.478996 0.478996 0.478996 0.462541 0.462541 0.250686 0.250686 0.0413431
0.0413431 0.0273997 0.0273997 0.0288827 0.0288827 0.0385334 0.0385334 0.0467011 0.0467011 0.0319399
0.0319399 0.0319399 0.0319399 0.0213757 0.0213757 0.00540709 0.00540709 2.7777e-06 2.7777e-06 0.000261202
0.000261202 0.000335427 0.000335427 7.64635e-05 7.64635e-05 0.0580233 0.0580233 0.301669 0.301669 0.487293
0.487293 0.481465 0.481465 0.271773 0.271773 0.0339544 0.0339544 5.2226e-05 5.2226e-05 0.00308879
0.00308879 0.00835496 0.00835496 0.0112128 0.0112128 0.00828605 0.00828605 0.00506982 0.00506982 0.00686267
0.00686267 0.0467727 0.0467727 0.0852104 0.0852104 0.207237 0.207237 0.329229 0.329229 0.00365882
0.00274715 0.00274715 0.00365882 0.000981838 0.000981838 6.51405e-05 6.51405e-05 0.00245815 0.00245815 0.00508344
0.00508344 0.0722208 0.0722208 0.235214 0.235214 0.331239 0.331239 0.331239 0.331239 0.331239
0.331239 0.251765 0.251765 0.0937843 0.0937843 0.0152786 0.0152786 0.0152786 0.0152786 0.019051
0.019051 0.0765816 0.0765816 0.137899 0.137899 0.103681 0.103681 0.0593759 0.0593759 0.038062
0.038062 0.0627562 0.0627562 0.240283 0.240283 0.431834 0.431834 0.489336 0.489336 0.000907359
0.000907359 0.000907359 0.000907359 0.00100805 0.00100805 0.00111189 0.00111189 0.0011188 0.0011188 0.00814297
0.00814297 0.0766642 0.0766642 0.147754 0.147754 0.124279 0.124279 0.0500007 0.0500007 0.00458996
0.00458996 0.00733464 0.00733464 0.356333 0.356333 0.111672 0.111672 0.106331 0.106331 0.259416
0.259416 0.250096 0.250096 0.128596 0.128596 0.066733 0.066733 0.0643081 0.0643081 0.0376565
0.0376565 0.0121785 0.0121785 0.010827 0.010827 0.0404641 0.0404641 0.0293131 0.0293131 0.0293193
0.0293193 0.0291748 0.0291748 0.0524259 0.0524259 0.200415 0.200415 0.33325 0.33325 0.325121
0.325121 0.235421 0.235421 0.0933335 0.0933335 0.0122845 0.0122845 0.0648495 0.0648495 0.146658
0.146658 0.204765 0.204765 0.19227 0.19227 0.225769 0.225769 0.25871 0.25871 0.191023
0.191023 0.108112 0.108112 0.128968 0.128968 0.141489 0.141489 0.0937792 0.0937792 0.103716
0.103716 0.0314897 0.0314897 0.0186388 0.0186388 0.00432236 0.00432236 0.00147688 0.00147688 0.00054731
0.00054731 0.00998526 0.00998526 0.0213092 0.0213092 0.0249869 0.0249869 0.0160399 0.0160399 0.0167435
0.0167435 0.0792834 0.0792834 0.0659648 0.0659648 0.0370504 0.0370504 0.0274041 0.0274041 0.0274086
0.0274086 0.0429746 0.0429746 0.0691041 0.0691041 0.0560877 0.0560877 0.0271546 0.0271546 0.0296366
0.0296366 0.0374646 0.0374646 0.0263034 0.0263034 0.00834899 0.00834899 0.0141092 0.0141092 0.0247669
0.0247669 0.0219503 0.0219503 0.0157825 0.0157825 0.0108641 0.0108641 0.00541958 0.00541958 0.00087482
0.00087482 3.45985e-13 3.45985e-13 2.89727e-13 2.89727e-13 0.0224867 0.0224867 0.0923542 0.0923542 0.0898648
0.0898648 0.268734 0.268734 0.172125 0.172125 0.243834 0.243834 0.480965 0.480965 0.563689
0.563689 0.484593 0.484593 0.535735 0.535735 0.626783 0.626783 0.583737 0.583737 0.438154
0.438154 0.191502 0.191502 
p_rgh 1 384 float
0 -149.419 -149.419 0 -335.381 -335.381 -254.742 -254.742 -138.132 -138.132 127.631
127.631 483.605 483.605 511.882 511.882 170.568 170.568 -117.328 -117.328 -291.523
-291.523 -275.819 -275.819 -154.218 -154.218 136.265 136.265 482.581 482.581 930.685
930.685 1379.97 1379.97 1666.51 1666.51 1967.09 1967.09 2055.89 2055.89 2111.48
2111.48 2157.66 2157.66 2251.48 2251.48 2282.56 2282.56 2288.51 2288.51 78.7029
-6.18375 -6.18375 78.7029 -111.533 -111.533 -104.955 -104.955 -47.9854 -47.9854 197.198
197.198 457.255 457.255 377.444 377.444 194.58 194.58 99.3646 99.3646 65.7841
65.7841 137.397 137.397 283.284 283.284 535.711 535.711 807.686 807.686 1088.04
1088.04 1200.99 1200.99 1126.51 1126.51 1134.43 1134.43 1201.58 1201.58 1244.06
1244.06 1294.67 1294.67 1379.26 1379.26 1421.79 1421.79 1442.79 1442.79 206.485
97.06 97.06 206.485 -102.993 -102.993 -166.64 -166.64 11.271 11.271 212.665
212.665 429.801 429.801 745.638 745.638 801.873 801.873 582.664 582.664 460.287
460.287 449.21 449.21 518.222 518.222 664.209 664.209 700.36 700.36 726.388
726.388 724.266 724.266 700.877 700.877 750.531 750.531 825.112 825.112 883.251
883.251 904.826 904.826 929.49 929.49 940.286 940.286 945.384 945.384 460.015
392.68 392.68 460.015 242.736 242.736 254.761 254.761 363.449 363.449 491.468
491.468 679.95 679.95 652.875 652.875 408.001 408.001 258.828 258.828 196.141
196.141 236.367 236.367 350.026 350.026 539.677 539.677 777.249 777.249 1028.83
1028.83 1221.97 1221.97 1308.94 1308.94 1341.78 1341.78 1309.41 1309.41 1331.87
1331.87 1380.6 1380.6 1422.94 1422.94 1429.55 1429.55 1435.7 1435.7 -84.5435
-84.5435 306.207 306.207 804.139 804.139 1328.56 1328.56 1729.78 1729.78 1415.49
1415.49 1008.38 1008.38 670.508 670.508 458.612 458.612 405.73 405.73 483.834
483.834 1001.32 1001.32 1469.51 1469.51 1533.41 1533.41 1593.24 1593.24 1659.08
1659.08 1720.15 1720.15 1783.56 1783.56 1808.96 1808.96 1793.84 1793.84 1762.91
1762.91 1705.4 1705.4 1566.01 1566.01 38.298 38.298 259.911 259.911 493.517