# vtk DataFile Version 2.0
rotor
ASCII
DATASET POLYDATA
POINTS 384 float
0.02 0 0 0.0199572 -0.00130806 0 0.0199572 -0.00130806 0.01 0.02 0
0.01 0.0198289 -0.00261052 0 0.0198289 -0.00261052 0.01 0.0196157 -0.00390181 0
0.0196157 -0.00390181 0.01 0.0193185 -0.00517638 0 0.0193185 -0.00517638 0.01 0.0189386
-0.00642879 0 0.0189386 -0.00642879 0.01 0.0184776 -0.00765367 0 0.0184776 -0.00765367
0.01 0.0179375 -0.00884577 0 0.0179375 -0.00884577 0.01 0.0173205 -0.01 0
0.0173205 -0.01 0.01 0.0166294 -0.0111114 0 0.0166294 -0.0111114 0.01 0.0158671
-0.0121752 0 0.0158671 -0.0121752 0.01 0.0150368 -0.0131869 0 0.0150368 -0.0131869
0.01 0.0141421 -0.0141421 0 0.0141421 -0.0141421 0.01 0.0131869 -0.0150368 0
0.0131869 -0.0150368 0.01 0.0121752 -0.0158671 0 0.0121752 -0.0158671 0.01 0.0111114
-0.0166294 0 0.0111114 -0.0166294 0.01 0.01 -0.0173205 0 0.01 -0.0173205
0.01 0.00884577 -0.0179375 0 0.00884577 -0.0179375 0.01 0.00765367 -0.0184776 0
0.00765367 -0.0184776 0.01 0.00642879 -0.0189386 0 0.00642879 -0.0189386 0.01 0.00517638
-0.0193185 0 0.00517638 -0.0193185 0.01 0.00390181 -0.0196157 0 0.00390181 -0.0196157
0.01 0.00261052 -0.0198289 0 0.00261052 -0.0198289 0.01 0.00130806 -0.0199572 0
0.00130806 -0.0199572 0.01 3.58979e-11 -0.02 0 3.58979e-11 -0.02 0.01 3.58979e-11
-0.02 0 -0.00130806 -0.0199572 0 -0.00130806 -0.0199572 0.01 3.58979e-11 -0.02
0.01 -0.00261052 -0.0198289 0 -0.00261052 -0.0198289 0.01 -0.00390181 -0.0196157 0
-0.00390181 -0.0196157 0.01 -0.00517638 -0.0193185 0 -0.00517638 -0.0193185 0.01 -0.00642879
-0.0189386 0 -0.00642879 -0.0189386 0.01 -0.00765367 -0.0184776 0 -0.00765367 -0.0184776
0.01 -0.00884577 -0.0179375 0 -0.00884577 -0.0179375 0.01 -0.01 -0.0173205 0
-0.01 -0.0173205 0.01 -0.0111114 -0.0166294 0 -0.0111114 -0.0166294 0.01 -0.0121752
-0.0158671 0 -0.0121752 -0.0158671 0.01 -0.0131869 -0.0150368 0 -0.0131869 -0.0150368
0.01 -0.0141421 -0.0141421 0 -0.0141421 -0.0141421 0.01 -0.0150368 -0.0131869 0
-0.0150368 -0.0131869 0.01 -0.0158671 -0.0121752 0 -0.0158671 -0.0121752 0.01 -0.0166294
-0.0111114 0 -0.0166294 -0.0111114 0.01 -0.0173205 -0.01 0 -0.0173205 -0.01
0.01 -0.0179375 -0.00884577 0 -0.0179375 -0.00884577 0.01 -0.0184776 -0.00765367 0
-0.0184776 -0.00765367 0.01 -0.0189386 -0.00642879 0 -0.0189386 -0.00642879 0.01 -0.0193185
-0.00517638 0 -0.0193185 -0.00517638 0.01 -0.0196157 -0.00390181 0 -0.0196157 -0.00390181
0.01 -0.0198289 -0.00261052 0 -0.0198289 -0.00261052 0.01 -0.0199572 -0.00130806 0
-0.0199572 -0.00130806 0.01 -0.02 7.17959e-11 0 -0.02 7.17959e-11 0.01 -0.02
7.17959e-11 0 -0.0199572 0.00130806 0 -0.0199572 0.00130806 0.01 -0.02 7.17959e-11
0.01 -0.0198289 0.00261052 0 -0.0198289 0.00261052 0.01 -0.0196157 0.00390181 0
-0.0196157 0.00390181 0.01 -0.0193185 0.00517638 0 -0.0193185 0.00517638 0.01 -0.0189386
0.00642879 0 -0.0189386 0.00642879 0.01 -0.0184776 0.00765367 0 -0.0184776 0.00765367
0.01 -0.0179375 0.00884577 0 -0.0179375 0.00884577 0.01 -0.0173205 0.01 0
-0.0173205 0.01 0.01 -0.0166294 0.0111114 0 -0.0166294 0.0111114 0.01 -0.0158671
0.0121752 0 -0.0158671 0.0121752 0.01 -0.0150368 0.0131869 0 -0.0150368 0.0131869
0.01 -0.0141421 0.0141421 0 -0.0141421 0.0141421 0.01 -0.0131869 0.0150368 0
-0.0131869 0.0150368 0.01 -0.0121752 0.0158671 0 -0.0121752 0.0158671 0.01 -0.0111114
0.0166294 0 -0.0111114 0.0166294 0.01 -0.01 0.0173205 0 -0.01 0.0173205
0.01 -0.00884577 0.0179375 0 -0.00884577 0.0179375 0.01 -0.00765367 0.0184776 0
-0.00765367 0.0184776 0.01 -0.00642879 0.0189386 0 -0.00642879 0.0189386 0.01 -0.00517638
0.0193185 0 -0.00517638 0.0193185 0.01 -0.00390181 0.0196157 0 -0.00390181 0.0196157
0.01 -0.00261052 0.0198289 0 -0.00261052 0.0198289 0.01 -0.00130806 0.0199572 0
-0.00130806 0.0199572 0.01 3.58979e-11 0.02 0 3.58979e-11 0.02 0.01 3.58979e-11
0.02 0 0.00130806 0.0199572 0 0.00130806 0.0199572 0.01 3.58979e-11 0.02
0.01 0.00261052 0.0198289 0 0.00261052 0.0198289 0.01 0.00390181 0.0196157 0
0.00390181 0.0196157 0.01 0.00517638 0.0193185 0 0.00517638 0.0193185 0.01 0.00642879
0.0189386 0 0.00642879 0.0189386 0.01 0.00765367 0.0184776 0 0.00765367 0.0184776
0.01 0.00884577 0.0179375 0 0.00884577 0.0179375 0.01 0.01 0.0173205 0
0.01 0.0173205 0.01 0.0111114 0.0166294 0 0.0111114 0.0166294 0.01 0.0121752
0.0158671 0 0.0121752 0.0158671 0.01 0.0131869 0.0150368 0 0.0131869 0.0150368
0.01 0.0141421 0.0141421 0 0.0141421 0.0141421 0.01 0.0150368 0.0131869 0
0.0150368 0.0131869 0.01 0.0158671 0.0121752 0 0.0158671 0.0121752 0.01 0.0166294
0.0111114 0 0.0166294 0.0111114 0.01 0.0173205 0.01 0 0.0173205 0.01
0.01 0.0179375 0.00884577 0 0.0179375 0.00884577 0.01 0.0184776 0.00765367 0
0.0184776 0.00765367 0.01 0.0189386 0.00642879 0 0.0189386 0.00642879 0.01 0.0193185
0.00517638 0 0.0193185 0.00517638 0.01 0.0196157 0.00390181 0 0.0196157 0.00390181
0.01 0.0198289 0.00261052 0 0.0198289 0.00261052 0.01 0.0199572 0.00130806 0
0.0199572 0.00130806 0.01 0.02 0 0 0.02 0 0.01 0.0225
0 0.01 0.0225 0 0 0.025 0 0.01 0.025 0
0 0.0275 0 0.01 0.0275 0 0 0.03 0 0.01
0.03 0 0 0.0325 0 0.01 0.0325 0 0 0.035
0 0.01 0.035 0 0 0.0375 0 0.01 0.0375 0
0 0.04 0 0.01 0.04 0 0 0.0425 0 0.01
0.0425 0 0 0.045 0 0.01 0.045 0 0 0.0475
0 0.01 0.0475 0 0 0.05 0 0.01 0.05 0
0 0.0225 0 0 0.0225 0 0.01 0.025 0 0
0.025 0 0.01 0.0275 0 0 0.0275 0 0.01 0.03
0 0 0.03 0 0.01 0.0325 0 0 0.0325 0
0.01 0.035 0 0 0.035 0 0.01 0.0375 0 0
0.0375 0 0.01 0.04 0 0 0.04 0 0.01 0.0425
0 0 0.0425 0 0.01 0.045 0 0 0.045 0
0.01 0.0475 0 0 0.0475 0 0.01 4.03852e-11 -0.0225 0.01
4.03852e-11 -0.0225 0 4.48724e-11 -0.025 0.01 4.48724e-11 -0.025 0 4.93597e-11
-0.0275 0.01 4.93597e-11 -0.0275 0 5.38469e-11 -0.03 0.01 5.38469e-11 -0.03
0 5.83341e-11 -0.0325 0.01 5.83341e-11 -0.0325 0 6.28214e-11 -0.035 0.01
6.28214e-11 -0.035 0 6.73086e-11 -0.0375 0.01 6.73086e-11 -0.0375 0 7.17959e-11
-0.04 0.01 7.17959e-11 -0.04 0 7.62831e-11 -0.0425 0.01 7.62831e-11 -0.0425
0 8.07704e-11 -0.045 0.01 8.07704e-11 -0.045 0 8.52576e-11 -0.0475 0.01
8.52576e-11 -0.0475 0 8.97448e-11 -0.05 0.01 8.97448e-11 -0.05 0 4.03852e-11
-0.0225 0 4.03852e-11 -0.0225 0.01 4.48724e-11 -0.025 0 4.48724e-11 -0.025
0.01 4.93597e-11 -0.0275 0 4.93597e-11 -0.0275 0.01 5.38469e-11 -0.03 0
5.38469e-11 -0.03 0.01 5.83341e-11 -0.0325 0 5.83341e-11 -0.0325 0.01 6.28214e-11
-0.035 0 6.28214e-11 -0.035 0.01 6.73086e-11 -0.0375 0 6.73086e-11 -0.0375
0.01 7.17959e-11 -0.04 0 7.17959e-11 -0.04 0.01 7.62831e-11 -0.0425 0
7.62831e-11 -0.0425 0.01 8.07703e-11 -0.045 0 8.07703e-11 -0.045 0.01 8.52576e-11
-0.0475 0 8.52576e-11 -0.0475 0.01 -0.0225 8.07704e-11 0.01 -0.0225 8.07704e-11
0 -0.025 8.97448e-11 0.01 -0.025 8.97448e-11 0 -0.0275 9.87193e-11 0.01
-0.0275 9.87193e-11 0 -0.03 1.07694e-10 0.01 -0.03 1.07694e-10 0 -0.0325
1.16668e-10 0.01 -0.0325 1.16668e-10 0 -0.035 1.25643e-10 0.01 -0.035 1.25643e-10
0 -0.0375 1.34617e-10 0.01 -0.0375 1.34617e-10 0 -0.04 1.43592e-10 0.01
-0.04 1.43592e-10 0 -0.0425 1.52566e-10 0.01 -0.0425 1.52566e-10 0 -0.045
1.61541e-10 0.01 -0.045 1.61541e-10 0 -0.0475 1.70515e-10 0.01 -0.0475 1.70515e-10
0 -0.05 1.7949e-10 0.01 -0.05 1.7949e-10 0 -0.0225 8.07704e-11 0
-0.0225 8.07704e-11 0.01 -0.025 8.97448e-11 0 -0.025 8.97448e-11 0.01 -0.0275
9.87193e-11 0 -0.0275 9.87193e-11 0.01 -0.03 1.07694e-10 0 -0.03 1.07694e-10
0.01 -0.0325 1.16668e-10 0 -0.0325 1.16668e-10 0.01 -0.035 1.25643e-10 0
-0.035 1.25643e-10 0.01 -0.0375 1.34617e-10 0 -0.0375 1.34617e-10 0.01 -0.04
1.43592e-10 0 -0.04 1.43592e-10 0.01 -0.0425 1.52566e-10 0 -0.0425 1.52566e-10
0.01 -0.045 1.61541e-10 0 -0.045 1.61541e-10 0.01 -0.0475 1.70515e-10 0
-0.0475 1.70515e-10 0.01 4.03852e-11 0.0225 0.01 4.03852e-11 0.0225 0 4.48724e-11
0.025 0.01 4.48724e-11 0.025 0 4.93597e-11 0.0275 0.01 4.93597e-11 0.0275
0 5.38469e-11 0.03 0.01 5.38469e-11 0.03 0 5.83341e-11 0.0325 0.01
5.83341e-11 0.0325 0 6.28214e-11 0.035 0.01 6.28214e-11 0.035 0 6.73086e-11
0.0375 0.01 6.73086e-11 0.0375 0 7.17959e-11 0.04 0.01 7.17959e-11 0.04
0 7.62831e-11 0.0425 0.01 7.62831e-11 0.0425 0 8.07704e-11 0.045 0.01
8.07704e-11 0.045 0 8.52576e-11 0.0475 0.01 8.52576e-11 0.0475 0 8.97448e-11
0.05 0.01 8.97448e-11 0.05 0 4.03852e-11 0.0225 0 4.03852e-11 0.0225
0.01 4.48724e-11 0.025 0 4.48724e-11 0.025 0.01 4.93597e-11 0.0275 0
4.93597e-11 0.0275 0.01 5.38469e-11 0.03 0 5.38469e-11 0.03 0.01 5.83341e-11
0.0325 0 5.83341e-11 0.0325 0.01 6.28214e-11 0.035 0 6.28214e-11 0.035
0.01 6.73086e-11 0.0375 0 6.73086e-11 0.0375 0.01 7.17959e-11 0.04 0
7.17959e-11 0.04 0.01 7.62831e-11 0.0425 0 7.62831e-11 0.0425 0.01 8.07703e-11
0.045 0 8.07703e-11 0.045 0.01 8.52576e-11 0.0475 0 8.52576e-11 0.0475
0.01 
POLYGONS 192 960
4 0 1 2 3 4 1 4 5 2 4
4 6 7 5 4 6 8 9 7 4
8 10 11 9 4 10 12 13 11 4
12 14 15 13 4 14 16 17 15 4
16 18 19 17 4 18 20 21 19 4
20 22 23 21 4 22 24 25 23 4
24 26 27 25 4 26 28 29 27 4
28 30 31 29 4 30 32 33 31 4
32 34 35 33 4 34 36 37 35 4
36 38 39 37 4 38 40 41 39 4
40 42 43 41 4 42 44 45 43 4
44 46 47 45 4 46 48 49 47 4
50 51 52 53 4 51 54 55 52 4
54 56 57 55 4 56 58 59 57 4
58 60 61 59 4 60 62 63 61 4
62 64 65 63 4 64 66 67 65 4
66 68 69 67 4 68 70 71 69 4
70 72 73 71 4 72 74 75 73 4
74 76 77 75 4 76 78 79 77 4
78 80 81 79 4 80 82 83 81 4
82 84 85 83 4 84 86 87 85 4
86 88 89 87 4 88 90 91 89 4
90 92 93 91 4 92 94 95 93 4
94 96 97 95 4 96 98 99 97 4
100 101 102 103 4 101 104 105 102 4
104 106 107 105 4 106 108 109 107 4
108 110 111 109 4 110 112 113 111 4
112 114 115 113 4 114 116 117 115 4
116 118 119 117 4 118 120 121 119 4
120 122 123 121 4 122 124 125 123 4
124 126 127 125 4 126 128 129 127 4
128 130 131 129 4 130 132 133 131 4
132 134 135 133 4 134 136 137 135 4
136 138 139 137 4 138 140 141 139 4
140 142 143 141 4 142 144 145 143 4
144 146 147 145 4 146 148 149 147 4
150 151 152 153 4 151 154 155 152 4
154 156 157 155 4 156 158 159 157 4
158 160 161 159 4 160 162 163 161 4
162 164 165 163 4 164 166 167 165 4
166 168 169 167 4 168 170 171 169 4
170 172 173 171 4 172 174 175 173 4
174 176 177 175 4 176 178 179 177 4
178 180 181 179 4 180 182 183 181 4
182 184 185 183 4 184 186 187 185 4
186 188 189 187 4 188 190 191 189 4
190 192 193 191 4 192 194 195 193 4
194 196 197 195 4 196 198 199 197 4
0 3 200 201 4 201 200 202 203 4
203 202 204 205 4 205 204 206 207 4
207 206 208 209 4 209 208 210 211 4
211 210 212 213 4 213 212 214 215 4
215 214 216 217 4 217 216 218 219 4
219 218 220 221 4 221 220 222 223 4
198 224 225 199 4 224 226 227 225 4
226 228 229 227 4 228 230 231 229 4
230 232 233 231 4 232 234 235 233 4
234 236 237 235 4 236 238 239 237 4
238 240 241 239 4 240 242 243 241 4
242 244 245 243 4 244 223 222 245 4
50 53 246 247 4 247 246 248 249 4
249 248 250 251 4 251 250 252 253 4
253 252 254 255 4 255 254 256 257 4
257 256 258 259 4 259 258 260 261 4
261 260 262 263 4 263 262 264 265 4
265 264 266 267 4 267 266 268 269 4
48 270 271 49 4 270 272 273 271 4
272 274 275 273 4 274 276 277 275 4
276 278 279 277 4 278 280 281 279 4
280 282 283 281 4 282 284 285 283 4
284 286 287 285 4 286 288 289 287 4
288 290 291 289 4 290 269 268 291 4
100 103 292 293 4 293 292 294 295 4
295 294 296 297 4 297 296 298 299 4
299 298 300 301 4 301 300 302 303 4
303 302 304 305 4 305 304 306 307 4
307 306 308 309 4 309 308 310 311 4
311 310 312 313 4 313 312 314 315 4
98 316 317 99 4 316 318 319 317 4
318 320 321 319 4 320 322 323 321 4
322 324 325 323 4 324 326 327 325 4
326 328 329 327 4 328 330 331 329 4
330 332 333 331 4 332 334 335 333 4
334 336 337 335 4 336 315 314 337 4
150 153 338 339 4 339 338 340 341 4
341 340 342 343 4 343 342 344 345 4
345 344 346 347 4 347 346 348 349 4
349 348 350 351 4 351 350 352 353 4
353 352 354 355 4 355 354 356 357 4
357 356 358 359 4 359 358 360 361 4
148 362 363 149 4 362 364 365 363 4
364 366 367 365 4 366 368 369 367 4
368 370 371 369 4 370 372 373 371 4
372 374 375 373 4 374 376 377 375 4
376 378 379 377 4 378 380 381 379 4
380 382 383 381 4 382 361 360 383 
CELL_DATA 192
FIELD attributes 5
patchID 1 192 float
0 0 0 0 0 0 0 0 0 0 0
0 0 0 0 0 0 0 0 0 0
0 0 0 0 0 0 0 0 0 0
0 0 0 0 0 0 0 0 0 0
0 0 0 0 0 0 0 0 0 0
0 0 0 0 0 0 0 0 0 0
0 0 0 0 0 0 0 0 0 0
0 0 0 0 0 0 0 0 0 0
0 0 0 0 0 0 0 0 0 0
0 0 0 0 0 0 0 0 0 0
0 0 0 0 0 0 0 0 0 0
0 0 0 0 0 0 0 0 0 0
0 0 0 0 0 0 0 0 0 0
0 0 0 0 0 0 0 0 0 0
0 0 0 0 0 0 0 0 0 0
0 0 0 0 0 0 0 0 0 0
0 0 0 0 0 0 0 0 0 0
0 0 0 0 0 0 0 0 0 0
0 0 0 0 0 0 0 0 0 0
0 
p 1 192 float
0 -0.0363303 -0.0372161 -0.00576725 0.0658422 0.234217 0.695335 0.907794 0.807204 2.05947 2.9055
2.40034 1.96296 2.28863 2.65346 3.05879 4.3657 5.39527 3.52579 3.88253 4.17148
4.73383 4.9896 5.16085 -1.42102 -1.44938 -1.44836 -1.42877 -1.39687 -1.3543 -1.30208
-1.24125 -1.17227 -1.09431 -1.00487 -0.89991 -0.77451 -0.624703 -0.450538 -0.255275 -0.0277671
0.212453 0.410502 0.546138 0.603923 0.585333 0.515202 0.43897 0.480743 0.460401 0.452252
0.447844 0.443448 0.438406 0.436314 0.434964 0.433745 0.434841 0.441951 0.46028 0.496155
0.555632 0.641574 0.751316 0.888757 1.05545 1.19562 1.28369 1.30532 1.26272 1.1817
1.10663 -12.075 -12.2181 -12.2551 -12.1807 -12.0121 -11.7736 -11.5025 -11.1885 -10.9088
-10.7838 -10.8111 -10.8295 -10.7333 -10.7695 -10.8948 -10.8933 -10.8632 -10.8469 -10.8569
-10.8426 -10.7911 -10.7156 -10.5888 -10.5676 0 1.38685 2.65385 4.01882 5.48344
7.03775 8.69496 10.476 12.4115 14.5007 16.6197 18.3823 -10.5676 -7.9006 -4.88288
-1.77481 3.00896 5.88377 5.74644 10.0152 13.6047 17.955 23.0514 29.7819 -1.42102
-0.0139885 1.13619 2.40424 3.73941 5.12496 6.53771 7.94465 9.2975 10.5004 11.3693
11.6051 5.16085 5.92255 7.193 7.64366 10.0958 16.1394 18.43 20.5766 22.8425
25.1638 27.413 28.081 0.480743 1.90631 3.07647 4.43302 5.87544 7.39525 8.97302
10.5872 12.2171 13.8079 15.1568 15.9141 0.43897 1.62134 2.77873 4.14538 5.73531
7.5971 9.77049 12.2792 15.1079 18.2257 21.5078 24.5303 -12.075 -9.16169 -6.94212
-4.82763 -2.75464 -0.565512 2.00451 5.07886 8.61955 12.4391 16.3402 18.0644 1.10663
2.2744 3.37914 4.67946 6.19559 7.98599 10.1124 12.6173 15.5202 18.8438 22.5468
26.0679 
alpha.water 1 192 float
4.47628e-15 8.94349e-14 7.18659e-13 7.11222e-12 3.49795e-11 3.41862e-11 6.96842e-11 0.00794208 0.0204345 0.0735822 0.0780081
0.0618076 2.30615e-11 2.90629e-11 8.58185e-11 0.032397 0.11631 0.131129 0.0206239 0.0240638 0.00912994
0.00223271 0.000568662 0.000375378 1.91251e-21 4.62004e-19 5.34565e-18 1.36165e-17 1.50543e-17 2.92306e-16 7.37309e-15
1.02685e-13 8.16453e-13 4.00316e-12 1.31533e-11 3.557e-11 6.81268e-11 6.81391e-11 8.07317e-11 2.99434e-07 1.67062e-06
1.17479e-06 1.31395e-08 1.31812e-08 1.3227e-08 1.48021e-08 6.31289e-11 3.53532e-13 5.22941e-23 2.07932e-20 3.07572e-19
8.96187e-19 5.68643e-19 1.57214e-19 7.67115e-18 4.71507e-16 7.60942e-15 3.16517e-14 6.98965e-14 1.16864e-13 1.68397e-13
2.22726e-13 2.79926e-13 3.41597e-13 4.10859e-13 4.88427e-13 5.35617e-13 5.49449e-13 5.18577e-13 4.19962e-13 2.22977e-13
4.96092e-15 1 1 1 1 1 1 1 1 0.999991
0.99999 0.999998 0.999998 0.999998 0.999998 0.999998 0.999788 0.999681 0.999527 0.99952
0.999879 0.999999 1 1 0.999999 4.47628e-15 6.19707e-14 5.48259e-13 3.98807e-12 2.37909e-11
1.4478e-11 2.01364e-10 1.8405e-11 2.35069e-06 1.45179e-06 2.52624e-11 0.0093998 0.999999 0.999992 0.999999
0.917282 0.757232 0.759544 0.962621 0.999355 0.986944 0.966988 0.97506 0.891413 1.91251e-21
1.53128e-19 3.1798e-18 1.20683e-16 1.29387e-15 5.24449e-15 1.06678e-14 1.88217e-14 1.26033e-12 3.53991e-12 1.50016e-12
9.02171e-14 0.000375378 0.105155 0.195082 0.0961436 0.3874 0.964548 1 1 1
0.999285 0.999242 0.999201 5.22941e-23 3.01793e-21 3.19635e-20 1.0334e-18 1.96704e-17 1.19751e-16 3.16414e-16
4.49923e-16 2.17523e-14 1.17786e-13 4.74069e-17 5.4801e-05 3.53532e-13 6.10718e-12 2.99286e-11 2.69652e-07 7.55357e-05
0.000122079 5.74125e-06 6.12708e-06 0.000123093 0.000167443 0.000100357 9.22546e-06 1 1 1
1 1 1 1 1 1 1 1 0.183238 4.96092e-15
1.18056e-13 5.06128e-13 1.08288e-12 1.62208e-12 2.01174e-12 2.2727e-12 2.47189e-12 2.69789e-12 3.13172e-12 4.26057e-12
7.45614e-12 
p_rgh 1 192 float
0 -0.0363303 -0.0372161 -0.00576725 0.0658422 0.234217 0.695335 0.907794 0.807204 2.05947 2.9055
2.40034 1.96296 2.28863 2.65346 3.05879 4.3657 5.39527 3.52579 3.88253 4.17148
4.73383 4.9896 5.16085 -1.42102 -1.44938 -1.44836 -1.42877 -1.39687 -1.3543 -1.30208
-1.24125 -1.17227 -1.09431 -1.00487 -0.89991 -0.77451 -0.624703 -0.450538 -0.255275 -0.0277671
0.212453 0.410502 0.546138 0.603923 0.585333 0.515202 0.43897 0.480743 0.460401 0.452252
0.447844 0.443448 0.438406 0.436314 0.434964 0.433745 0.434841 0.441951 0.46028 0.496155
0.555632 0.641574 0.751316 0.888757 1.05545 1.19562 1.28369 1.30532 1.26272 1.1817
1.10663 -12.075 -12.2181 -12.2551 -12.1807 -12.0121 -11.7736 -11.5025 -11.1885 -10.9088
-10.7838 -10.8111 -10.8295 -10.7333 -10.7695 -10.8948 -10.8933 -10.8632 -10.8469 -10.8569
-10.8426 -10.7911 -10.7156 -10.5888 -10.5676 0 1.38685 2.65385 4.01882 5.48344
7.03775 8.69496 10.476 12.4115 14.5007 16.6197 18.3823 -10.5676 -7.9006 -4.88288
-1.77481 3.00896 5.88377 5.74644 10.0152 13.6047 17.955 23.0514 29.7819 -1.42102
-0.0139885 1.13619 2.40424 3.73941 5.12496 6.53771 7.94465 9.2975 10.5004 11.3693
11.6051 5.16085 5.92255 7.193 7.64366 10.0958 16.1394 18.43 20.5766 22.8425
25.1638 27.413 28.081 0.480743 1.90631 3.07647 4.43302 5.87544 7.39525 8.97302
10.5872 12.2171 13.8079 15.1568 15.9141 0.43897 1.62134 2.77873 4.14538 5.73531
7.5971 9.77049 12.2792 15.1079 18.2257 21.5078 24.5303 -12.075 -9.16169 -6.94212
-4.82763 -2.75464 -0.565512 2.00451 5.07886 8.61955 12.4391 16.3402 18.0644 1.10663
2.2744 3.37914 4.67946 6.19559 7.98599 10.1124 12.6173 15.5202 18.8438 22.5468
26.0679 
U 3 192 float
0.0041094 0.125529 0 0.0123106 0.124992 0 0.0204591 0.123919 0 0.02852 0.122315
0 0.0364587 0.120188 0 0.0442413 0.117546 0 0.0518345 0.114401 0
0.0592057 0.110766 0 0.0663234 0.106657 0 0.0731571 0.102091 0 0.0796775
0.0970873 0 0.0858567 0.0916683 0 0.0916683 0.0858567 0 0.0970873 0.0796775
0 0.102091 0.0731571 0 0.106657 0.0663234 0 0.110766 0.0592057 0
0.114401 0.0518345 0 0.117546 0.0442413 0 0.120188 0.0364587 0 0.122315
0.02852 0 0.123919 0.0204591 0 0.124992 0.0123106 0 0.125529 0.0041094
0 0.125529 -0.0041094 0 0.124992 -0.0123106 0 0.123919 -0.0204591 0
0.122315 -0.02852 0 0.120188 -0.0364587 0 0.117546 -0.0442413 0 0.114401
-0.0518345 0 0.110766 -0.0592057 0 0.106657 -0.0663234 0 0.102091 -0.0731571
0 0.0970873 -0.0796775 0 0.0916683 -0.0858567 0 0.0858567 -0.0916683 0
0.0796775 -0.0970873 0 0.0731571 -0.102091 0 0.0663234 -0.106657 0 0.0592057
-0.110766 0 0.0518345 -0.114401 0 0.0442413 -0.117546 0 0.0364587 -0.120188
0 0.02852 -0.122315 0 0.0204591 -0.123919 0 0.0123106 -0.124992 0
0.0041094 -0.125529 0 -0.0041094 -0.125529 0 -0.0123106 -0.124992 0 -0.0204591
-0.123919 0 -0.02852 -0.122315 0 -0.0364587 -0.120188 0 -0.0442413 -0.117546
0 -0.0518345 -0.114401 0 -0.0592057 -0.110766 0 -0.0663234 -0.106657 0
-0.0731571 -0.102091 0 -0.0796775 -0.0970873 0 -0.0858567 -0.0916683 0 -0.0916683
-0.0858567 0 -0.0970873 -0.0796775 0 -0.102091 -0.0731571 0 -0.106657 -0.0663234
0 -0.110766 -0.0592057 0 -0.114401 -0.0518345 0 -0.117546 -0.0442413 0
-0.120188 -0.0364587 0 -0.122315 -0.02852 0 -0.123919 -0.0204591 0 -0.124992
-0.0123106 0 -0.125529 -0.0041094 0 -0.125529 0.0041094 0 -0.124992 0.0123106
0 -0.123919 0.0204591 0 -0.122315 0.02852 0 -0.120188 0.0364587 0
-0.117546 0.0442413 0 -0.114401 0.0518345 0 -0.110766 0.0592057 0 -0.106657
0.0663234 0 -0.102091 0.0731571 0 -0.0970873 0.0796775 0 -0.0916683 0.0858567
0 -0.0858567 0.0916683 0 -0.0796775 0.0970873 0 -0.0731571 0.102091 0
-0.0663234 0.106657 0 -0.0592057 0.110766 0 -0.0518345 0.114401 0 -0.0442413
0.117546 0 -0.0364587 0.120188 0 -0.02852 0.122315 0 -0.0204591 0.123919
0 -0.0123106 0.124992 0 -0.0041094 0.125529 0 0 0.133518 0
0 0.149226 0 0 0.164934 0 0 0.180642 0 0
0.19635 0 0 0.212058 0 0 0.227765 0 0 0.243473
0 0 0.259181 0 0 0.274889 0 0 0.290597 0
0 0.306305 0 0 0.133518 0 0 0.149226 0 0
0.164934 0 0 0.180642 0 0 0.19635 0 0 0.212058
0 0 0.227765 0 0 0.243473 0 0 0.259181 0
0 0.274889 0 0 0.290597 0 0 0.306305 0 0.133518
2.3965e-10 0 0.149226 2.67845e-10 0 0.164934 2.96039e-10 0 0.180642 3.24233e-10
0 0.19635 3.52427e-10 0 0.212058 3.80621e-10 0 0.227765 4.08815e-10 0
0.243473 4.3701e-10 0 0.259181 4.65204e-10 0 0.274889 4.93398e-10 0 0.290597
5.21592e-10 0 0.306305 5.49786e-10 0 0.133518 2.3965e-10 0 0.149226 2.67845e-10
0 0.164934 2.96039e-10 0 0.180642 3.24233e-10 0 0.19635 3.52427e-10 0
0.212058 3.80621e-10 0 0.227765 4.08815e-10 0 0.243473 4.3701e-10 0 0.259181
4.65204e-10 0 0.274889 4.93398e-10 0 0.290597 5.21592e-10 0 0.306305 5.49786e-10
0 -4.79301e-10 -0.133518 0 -5.35689e-10 -0.149226 0 -5.92078e-10 -0.164934 0
-6.48466e-10 -0.180642 0 -7.04854e-10 -0.19635 0 -7.61243e-10 -0.212058 0 -8.17631e-10
-0.227765 0 -8.74019e-10 -0.243473 0 -9.30408e-10 -0.259181 0 -9.86796e-10 -0.274889
0 -1.04318e-09 -0.290597 0 -1.09957e-09 -0.306305 0 -4.79301e-10 -0.133518 0
-5.35689e-10 -0.149226 0 -5.92078e-10 -0.164934 0 -6.48466e-10 -0.180642 0 -7.04854e-10
-0.19635 0 -7.61243e-10 -0.212058 0 -8.17631e-10 -0.227765 0 -8.74019e-10 -0.243473
0 -9.30408e-10 -0.259181 0 -9.86796e-10 -0.274889 0 -1.04318e-09 -0.290597 0
-1.09957e-09 -0.306305 0 -0.133518 2.3965e-10 0 -0.149226 2.67845e-10 0 -0.164934
2.96039e-10 0 -0.180642 3.24233e-10 0 -0.19635 3.52427e-10 0 -0.212058 3.80621e-10
0 -0.227765 4.08815e-10 0 -0.243473 4.3701e-10 0 -0.259181 4.65204e-10 0
-0.274889 4.93398e-10 0 -0.290597 5.21592e-10 0 -0.306305 5.49786e-10 0 -0.133518
2.3965e-10 0 -0.149226 2.67845e-10 0 -0.164934 2.96039e-10 0 -0.180642 3.24233e-10
0 -0.19635 3.52427e-10 0 -0.212058 3.80621e-10 0 -0.227765 4.08815e-10 0
-0.243473 4.3701e-10 0 -0.259181 4.65204e-10 0 -0.274889 4.93398e-10 0 -0.290597
5.21592e-10 0 -0.306305 5.49786e-10 0 
POINT_DATA  384
FIELD attributes 4
p 1 384 float
0 -0.0181652 -0.0181652 0 -0.0367732 -0.0367732 -0.0214917 -0.0214917 0.0300375 0.0300375 0.15003
0.15003 0.464776 0.464776 0.801565 0.801565 0.857499 0.857499 1.43334 1.43334 2.48249
2.48249 2.65292 2.65292 2.18165 2.18165 2.12579 2.12579 2.47105 2.47105 2.85613
2.85613 3.71224 3.71224 4.88049 4.88049 4.46053 4.46053 3.70416 3.70416 4.02701
4.02701 4.45265 4.45265 4.86171 4.86171 5.07522 5.07522 5.16085 5.16085 -1.42102
-1.4352 -1.4352 -1.42102 -1.44887 -1.44887 -1.43857 -1.43857 -1.41282 -1.41282 -1.37558
-1.37558 -1.32819 -1.32819 -1.27166 -1.27166 -1.20676 -1.20676 -1.13329 -1.13329 -1.04959
-1.04959 -0.95239 -0.95239 -0.83721 -0.83721 -0.699606 -0.699606 -0.53762 -0.53762 -0.352906
-0.352906 -0.141521 -0.141521 0.092343 0.092343 0.311478 0.311478 0.47832 0.47832 0.575031
0.575031 0.594628 0.594628 0.550268 0.550268 0.477086 0.477086 0.43897 0.43897 0.480743
0.470572 0.470572 0.480743 0.456327 0.456327 0.450048 0.450048 0.445646 0.445646 0.440927
0.440927 0.43736 0.43736 0.435639 0.435639 0.434355 0.434355 0.434293 0.434293 0.438396
0.438396 0.451115 0.451115 0.478218 0.478218 0.525894 0.525894 0.598603 0.598603 0.696445
0.696445 0.820036 0.820036 0.972103 0.972103 1.12554 1.12554 1.23966 1.23966 1.29451
1.29451 1.28402 1.28402 1.22221 1.22221 1.14417 1.14417 1.10663 1.10663 -12.075
-12.1466 -12.1466 -12.075 -12.2366 -12.2366 -12.2179 -12.2179 -12.0964 -12.0964 -11.8928
-11.8928 -11.6381 -11.6381 -11.3455 -11.3455 -11.0486 -11.0486 -10.8463 -10.8463 -10.7975
-10.7975 -10.8203 -10.8203 -10.7814 -10.7814 -10.7514 -10.7514 -10.8322 -10.8322 -10.894
-10.894 -10.8783 -10.8783 -10.8551 -10.8551 -10.8519 -10.8519 -10.8497 -10.8497 -10.8168
-10.8168 -10.7534 -10.7534 -10.6522 -10.6522 -10.5782 -10.5782 -10.5676 -10.5676 0.693425
0.693425 2.02035 2.02035 3.33633 3.33633 4.75113 4.75113 6.26059 6.26059 7.86635
7.86635 9.58548 9.58548 11.4438 11.4438 13.4561 13.4561 15.5602 15.5602 17.501
17.501 24.0821 24.0821 -9.2341 -9.2341 -6.39174 -6.39174 -3.32885 -3.32885 0.617075
0.617075 4.44636 4.44636 5.8151 5.8151 7.88082 7.88082 11.8099 11.8099 15.7799
15.7799 20.5032 20.5032 26.4167 26.4167 -0.717504 -0.717504 0.561101 0.561101 1.77022
1.77022 3.07183 3.07183 4.43219 4.43219 5.83134 5.83134 7.24118 7.24118 8.62107
8.62107 9.89895 9.89895 10.9348 10.9348 11.4872 11.4872 19.8431 19.8431 5.5417
5.5417 6.55778 6.55778 7.41833 7.41833 8.86973 8.86973 13.1176 13.1176 17.2847
17.2847 19.5033 19.5033 21.7096 21.7096 24.0032 24.0032 26.2884 26.2884 27.747
27.747 1.19353 1.19353 2.49139 2.49139 3.75475 3.75475 5.15423 5.15423 6.63534
6.63534 8.18414 8.18414 9.78011 9.78011 11.4022 11.4022 13.0125 13.0125 14.4824
14.4824 15.5354 15.5354 20.2222 20.2222 1.03015 1.03015 2.20004 2.20004 3.46205
3.46205 4.94034 4.94034 6.6662 6.6662 8.68379 8.68379 11.0248 11.0248 13.6936
13.6936 16.6668 16.6668 19.8668 19.8668 23.0191 23.0191 -10.6183 -10.6183 -8.0519
-8.0519 -5.88487 -5.88487 -3.79114 -3.79114 -1.66008 -1.66008 0.719499 0.719499 3.54169
3.54169 6.84921 6.84921 10.5293 10.5293 14.3897 14.3897 17.2023 17.2023 22.0662
22.0662 1.69052 1.69052 2.82677 2.82677 4.0293 4.0293 5.43752 5.43752 7.09079
7.09079 9.0492 9.0492 11.3649 11.3649 14.0688 14.0688 17.182 17.182 20.6953
20.6953 24.3074 24.3074 
alpha.water 1 384 float
4.47628e-15 4.69556e-14 4.69556e-14 4.47628e-15 4.04047e-13 4.04047e-13 3.91544e-12 3.91544e-12 2.10459e-11 2.10459e-11 3.45829e-11
3.45829e-11 5.19352e-11 5.19352e-11 0.00397104 0.00397104 0.0141883 0.0141883 0.0470084 0.0470084 0.0757952
0.0757952 0.0699079 0.0699079 0.0309038 0.0309038 2.60622e-11 2.60622e-11 5.74407e-11 5.74407e-11 0.0161985
0.0161985 0.0743535 0.0743535 0.123719 0.123719 0.0758765 0.0758765 0.0223438 0.0223438 0.0165969
0.0165969 0.00568133 0.00568133 0.00140069 0.00140069 0.00047202 0.00047202 0.000375378 0.000375378 1.91251e-21
2.31958e-19 2.31958e-19 1.91251e-21 2.90383e-18 2.90383e-18 9.48107e-18 9.48107e-18 1.43354e-17 1.43354e-17 1.5368e-16
1.5368e-16 3.8327e-15 3.8327e-15 5.5029e-14 5.5029e-14 4.59569e-13 4.59569e-13 2.40981e-12 2.40981e-12 8.57823e-12
8.57823e-12 2.43616e-11 2.43616e-11 5.18484e-11 5.18484e-11 6.8133e-11 6.8133e-11 7.44354e-11 7.44354e-11 1.49757e-07
1.49757e-07 9.85027e-07 9.85027e-07 1.42271e-06 1.42271e-06 5.93965e-07 5.93965e-07 1.31604e-08 1.31604e-08 1.32041e-08
1.32041e-08 1.40146e-08 1.40146e-08 7.43261e-09 7.43261e-09 3.17412e-11 3.17412e-11 3.53532e-13 3.53532e-13 5.22941e-23
1.04227e-20 1.04227e-20 5.22941e-23 1.64183e-19 1.64183e-19 6.0188e-19 6.0188e-19 7.32415e-19 7.32415e-19 3.62928e-19
3.62928e-19 3.91418e-18 3.91418e-18 2.39589e-16 2.39589e-16 4.04046e-15 4.04046e-15 1.96306e-14 1.96306e-14 5.07741e-14
5.07741e-14 9.33803e-14 9.33803e-14 1.4263e-13 1.4263e-13 1.95562e-13 1.95562e-13 2.51326e-13 2.51326e-13 3.10762e-13
3.10762e-13 3.76228e-13 3.76228e-13 4.49643e-13 4.49643e-13 5.12022e-13 5.12022e-13 5.42533e-13 5.42533e-13 5.34013e-13
5.34013e-13 4.69269e-13 4.69269e-13 3.21469e-13 3.21469e-13 1.13969e-13 1.13969e-13 4.96092e-15 4.96092e-15 1
1 1 1 1 1 1 1 1 1 1
1 1 1 1 1 0.999996 0.999996 0.999991 0.999991 0.999994
0.999994 0.999998 0.999998 0.999998 0.999998 0.999998 0.999998 0.999998 0.999998 0.999893
0.999893 0.999735 0.999735 0.999604 0.999604 0.999524 0.999524 0.999699 0.999699 0.999939
0.999939 1 1 1 1 1 1 0.999999 0.999999 3.32235e-14
3.32235e-14 3.05115e-13 3.05115e-13 2.26816e-12 2.26816e-12 1.38895e-11 1.38895e-11 1.91344e-11 1.91344e-11 1.07921e-10
1.07921e-10 1.09884e-10 1.09884e-10 1.17535e-06 1.17535e-06 1.90124e-06 1.90124e-06 7.25908e-07 7.25908e-07 0.0046999
0.0046999 0.450406 0.450406 0.999996 0.999996 0.999996 0.999996 0.958641 0.958641 0.837257
0.837257 0.758388 0.758388 0.861082 0.861082 0.980988 0.980988 0.99315 0.99315 0.976966
0.976966 0.971024 0.971024 0.933236 0.933236 7.75203e-20 7.75203e-20 1.66646e-18 1.66646e-18 6.19314e-17
6.19314e-17 7.07276e-16 7.07276e-16 3.26918e-15 3.26918e-15 7.95614e-15 7.95614e-15 1.47447e-14 1.47447e-14 6.39576e-13
6.39576e-13 2.40012e-12 2.40012e-12 2.52003e-12 2.52003e-12 7.95189e-13 7.95189e-13 0.4996 0.4996 0.0527652
0.0527652 0.150118 0.150118 0.145613 0.145613 0.241772 0.241772 0.675974 0.675974 0.982274
0.982274 1 1 1 1 0.999642 0.999642 0.999264 0.999264 0.999222
0.999222 1.53511e-21 1.53511e-21 1.74907e-20 1.74907e-20 5.32682e-19 5.32682e-19 1.03519e-17 1.03519e-17 6.97107e-17
6.97107e-17 2.18083e-16 2.18083e-16 3.83169e-16 3.83169e-16 1.11011e-14 1.11011e-14 6.97691e-14 6.97691e-14 5.89167e-14
5.89167e-14 2.74005e-05 2.74005e-05 3.20132e-05 3.20132e-05 3.23036e-12 3.23036e-12 1.80179e-11 1.80179e-11 1.34841e-07
1.34841e-07 3.79027e-05 3.79027e-05 9.88074e-05 9.88074e-05 6.39101e-05 6.39101e-05 5.93417e-06 5.93417e-06 6.461e-05
6.461e-05 0.000145268 0.000145268 0.0001339 0.0001339 5.47912e-05 5.47912e-05 1 1 1
1 1 1 1 1 1 1 1 1 1
1 1 1 1 1 1 1 0.591619 0.591619 0.091619
0.091619 6.15085e-14 6.15085e-14 3.12092e-13 3.12092e-13 7.94504e-13 7.94504e-13 1.35248e-12 1.35248e-12 1.81691e-12
1.81691e-12 2.14222e-12 2.14222e-12 2.3723e-12 2.3723e-12 2.58489e-12 2.58489e-12 2.9148e-12 2.9148e-12 3.69614e-12
3.69614e-12 5.85836e-12 5.85836e-12 
p_rgh 1 384 float
0 -0.0181652 -0.0181652 0 -0.0367732 -0.0367732 -0.0214917 -0.0214917 0.0300375 0.0300375 0.15003
0.15003 0.464776 0.464776 0.801565 0.801565 0.857499 0.857499 1.43334 1.43334 2.48249
2.48249 2.65292 2.65292 2.18165 2.18165 2.12579 2.12579 2.47105 2.47105 2.85613
2.85613 3.71224 3.71224 4.88049 4.88049 4.46053 4.46053 3.70416 3.70416 4.02701
4.02701 4.45265 4.45265 4.86171 4.86171 5.07522 5.07522 5.16085 5.16085 -1.42102
-1.4352 -1.4352 -1.42102 -1.44887 -1.44887 -1.43857 -1.43857 -1.41282 -1.41282 -1.37558
-1.37558 -1.32819 -1.32819 -1.27166 -1.27166 -1.20676 -1.20676 -1.13329 -1.13329 -1.04959
-1.04959 -0.95239 -0.95239 -0.83721 -0.83721 -0.699606 -0.699606 -0.53762 -0.53762 -0.352906
-0.352906 -0.141521 -0.141521 0.092343 0.092343 0.311478 0.311478 0.47832 0.47832 0.575031
0.575031 0.594628 0.594628 0.550268 0.550268 0.477086 0.477086 0.43897 0.43897 0.480743
0.470572 0.470572 0.480743 0.456327 0.456327 0.450048 0.450048 0.445646 0.445646 0.440927
0.440927 0.43736 0.43736 0.435639 0.435639 0.434355 0.434355 0.434293 0.434293 0.438396
0.438396 0.451115 0.451115 0.478218 0.478218 0.525894 0.525894 0.598603 0.598603 0.696445
0.696445 0.820036 0.820036 0.972103 0.972103 1.12554 1.12554 1.23966 1.23966 1.29451