# vtk DataFile Version 2.0
rotor
ASCII
DATASET POLYDATA
POINTS 384 float
0.1 0 0 0.0997859 -0.00654031 0 0.0997859 -0.00654031 0.05 0.1 0
0.05 0.0991445 -0.0130526 0 0.0991445 -0.0130526 0.05 0.0980785 -0.019509 0
0.0980785 -0.019509 0.05 0.0965926 -0.0258819 0 0.0965926 -0.0258819 0.05 0.094693
-0.0321439 0 0.094693 -0.0321439 0.05 0.092388 -0.0382683 0 0.092388 -0.0382683
0.05 0.0896873 -0.0442289 0 0.0896873 -0.0442289 0.05 0.0866025 -0.05 0
0.0866025 -0.05 0.05 0.083147 -0.055557 0 0.083147 -0.055557 0.05 0.0793353
-0.0608761 0 0.0793353 -0.0608761 0.05 0.075184 -0.0659346 0 0.075184 -0.0659346
0.05 0.0707107 -0.0707107 0 0.0707107 -0.0707107 0.05 0.0659346 -0.075184 0
0.0659346 -0.075184 0.05 0.0608761 -0.0793353 0 0.0608761 -0.0793353 0.05 0.055557
-0.083147 0 0.055557 -0.083147 0.05 0.05 -0.0866025 0 0.05 -0.0866025
0.05 0.0442289 -0.0896873 0 0.0442289 -0.0896873 0.05 0.0382683 -0.092388 0
0.0382683 -0.092388 0.05 0.0321439 -0.094693 0 0.0321439 -0.094693 0.05 0.0258819
-0.0965926 0 0.0258819 -0.0965926 0.05 0.019509 -0.0980785 0 0.019509 -0.0980785
0.05 0.0130526 -0.0991445 0 0.0130526 -0.0991445 0.05 0.00654031 -0.0997859 0
0.00654031 -0.0997859 0.05 1.7949e-10 -0.1 0 1.7949e-10 -0.1 0.05 1.7949e-10
-0.1 0 -0.00654031 -0.0997859 0 -0.00654031 -0.0997859 0.05 1.7949e-10 -0.1
0.05 -0.0130526 -0.0991445 0 -0.0130526 -0.0991445 0.05 -0.019509 -0.0980785 0
-0.019509 -0.0980785 0.05 -0.0258819 -0.0965926 0 -0.0258819 -0.0965926 0.05 -0.0321439
-0.094693 0 -0.0321439 -0.094693 0.05 -0.0382683 -0.092388 0 -0.0382683 -0.092388
0.05 -0.0442289 -0.0896873 0 -0.0442289 -0.0896873 0.05 -0.05 -0.0866025 0
-0.05 -0.0866025 0.05 -0.055557 -0.083147 0 -0.055557 -0.083147 0.05 -0.0608761
-0.0793353 0 -0.0608761 -0.0793353 0.05 -0.0659346 -0.075184 0 -0.0659346 -0.075184
0.05 -0.0707107 -0.0707107 0 -0.0707107 -0.0707107 0.05 -0.075184 -0.0659346 0
-0.075184 -0.0659346 0.05 -0.0793353 -0.0608761 0 -0.0793353 -0.0608761 0.05 -0.083147
-0.055557 0 -0.083147 -0.055557 0.05 -0.0866025 -0.05 0 -0.0866025 -0.05
0.05 -0.0896873 -0.0442289 0 -0.0896873 -0.0442289 0.05 -0.092388 -0.0382683 0
-0.092388 -0.0382683 0.05 -0.094693 -0.0321439 0 -0.094693 -0.0321439 0.05 -0.0965926
-0.0258819 0 -0.0965926 -0.0258819 0.05 -0.0980785 -0.019509 0 -0.0980785 -0.019509
0.05 -0.0991445 -0.0130526 0 -0.0991445 -0.0130526 0.05 -0.0997859 -0.00654031 0
-0.0997859 -0.00654031 0.05 -0.1 3.58979e-10 0 -0.1 3.58979e-10 0.05 -0.1
3.58979e-10 0 -0.0997859 0.00654031 0 -0.0997859 0.00654031 0.05 -0.1 3.58979e-10
0.05 -0.0991445 0.0130526 0 -0.0991445 0.0130526 0.05 -0.0980785 0.019509 0
-0.0980785 0.019509 0.05 -0.0965926 0.0258819 0 -0.0965926 0.0258819 0.05 -0.094693
0.0321439 0 -0.094693 0.0321439 0.05 -0.092388 0.0382683 0 -0.092388 0.0382683
0.05 -0.0896873 0.0442289 0 -0.0896873 0.0442289 0.05 -0.0866025 0.05 0
-0.0866025 0.05 0.05 -0.083147 0.055557 0 -0.083147 0.055557 0.05 -0.0793353
0.0608761 0 -0.0793353 0.0608761 0.05 -0.075184 0.0659346 0 -0.075184 0.0659346
0.05 -0.0707107 0.0707107 0 -0.0707107 0.0707107 0.05 -0.0659346 0.075184 0
-0.0659346 0.075184 0.05 -0.0608761 0.0793353 0 -0.0608761 0.0793353 0.05 -0.055557
0.083147 0 -0.055557 0.083147 0.05 -0.05 0.0866025 0 -0.05 0.0866025
0.05 -0.0442289 0.0896873 0 -0.0442289 0.0896873 0.05 -0.0382683 0.092388 0
-0.0382683 0.092388 0.05 -0.0321439 0.094693 0 -0.0321439 0.094693 0.05 -0.0258819
0.0965926 0 -0.0258819 0.0965926 0.05 -0.019509 0.0980785 0 -0.019509 0.0980785
0.05 -0.0130526 0.0991445 0 -0.0130526 0.0991445 0.05 -0.00654031 0.0997859 0
-0.00654031 0.0997859 0.05 1.7949e-10 0.1 0 1.7949e-10 0.1 0.05 1.7949e-10
0.1 0 0.00654031 0.0997859 0 0.00654031 0.0997859 0.05 1.7949e-10 0.1
0.05 0.0130526 0.0991445 0 0.0130526 0.0991445 0.05 0.019509 0.0980785 0
0.019509 0.0980785 0.05 0.0258819 0.0965926 0 0.0258819 0.0965926 0.05 0.0321439
0.094693 0 0.0321439 0.094693 0.05 0.0382683 0.092388 0 0.0382683 0.092388
0.05 0.0442289 0.0896873 0 0.0442289 0.0896873 0.05 0.05 0.0866025 0
0.05 0.0866025 0.05 0.055557 0.083147 0 0.055557 0.083147 0.05 0.0608761
0.0793353 0 0.0608761 0.0793353 0.05 0.0659346 0.075184 0 0.0659346 0.075184
0.05 0.0707107 0.0707107 0 0.0707107 0.0707107 0.05 0.075184 0.0659346 0
0.075184 0.0659346 0.05 0.0793353 0.0608761 0 0.0793353 0.0608761 0.05 0.083147
0.055557 0 0.083147 0.055557 0.05 0.0866025 0.05 0 0.0866025 0.05
0.05 0.0896873 0.0442289 0 0.0896873 0.0442289 0.05 0.092388 0.0382683 0
0.092388 0.0382683 0.05 0.094693 0.0321439 0 0.094693 0.0321439 0.05 0.0965926
0.0258819 0 0.0965926 0.0258819 0.05 0.0980785 0.019509 0 0.0980785 0.019509
0.05 0.0991445 0.0130526 0 0.0991445 0.0130526 0.05 0.0997859 0.00654031 0
0.0997859 0.00654031 0.05 0.1 0 0 0.1 0 0.05 0.1125
0 0.05 0.1125 0 0 0.125 0 0.05 0.125 0
0 0.1375 0 0.05 0.1375 0 0 0.15 0 0.05
0.15 0 0 0.1625 0 0.05 0.1625 0 0 0.175
0 0.05 0.175 0 0 0.1875 0 0.05 0.1875 0
0 0.2 0 0.05 0.2 0 0 0.2125 0 0.05
0.2125 0 0 0.225 0 0.05 0.225 0 0 0.2375
0 0.05 0.2375 0 0 0.25 0 0.05 0.25 0
0 0.1125 0 0 0.1125 0 0.05 0.125 0 0
0.125 0 0.05 0.1375 0 0 0.1375 0 0.05 0.15
0 0 0.15 0 0.05 0.1625 0 0 0.1625 0
0.05 0.175 0 0 0.175 0 0.05 0.1875 0 0
0.1875 0 0.05 0.2 0 0 0.2 0 0.05 0.2125
0 0 0.2125 0 0.05 0.225 0 0 0.225 0
0.05 0.2375 0 0 0.2375 0 0.05 2.01926e-10 -0.1125 0.05
2.01926e-10 -0.1125 0 2.24362e-10 -0.125 0.05 2.24362e-10 -0.125 0 2.46798e-10
-0.1375 0.05 2.46798e-10 -0.1375 0 2.69235e-10 -0.15 0.05 2.69235e-10 -0.15
0 2.91671e-10 -0.1625 0.05 2.91671e-10 -0.1625 0 3.14107e-10 -0.175 0.05
3.14107e-10 -0.175 0 3.36543e-10 -0.1875 0.05 3.36543e-10 -0.1875 0 3.58979e-10
-0.2 0.05 3.58979e-10 -0.2 0 3.81416e-10 -0.2125 0.05 3.81416e-10 -0.2125
0 4.03852e-10 -0.225 0.05 4.03852e-10 -0.225 0 4.26288e-10 -0.2375 0.05
4.26288e-10 -0.2375 0 4.48724e-10 -0.25 0.05 4.48724e-10 -0.25 0 2.01926e-10
-0.1125 0 2.01926e-10 -0.1125 0.05 2.24362e-10 -0.125 0 2.24362e-10 -0.125
0.05 2.46798e-10 -0.1375 0 2.46798e-10 -0.1375 0.05 2.69234e-10 -0.15 0
2.69234e-10 -0.15 0.05 2.91671e-10 -0.1625 0 2.91671e-10 -0.1625 0.05 3.14107e-10
-0.175 0 3.14107e-10 -0.175 0.05 3.36543e-10 -0.1875 0 3.36543e-10 -0.1875
0.05 3.58979e-10 -0.2 0 3.58979e-10 -0.2 0.05 3.81416e-10 -0.2125 0
3.81416e-10 -0.2125 0.05 4.03852e-10 -0.225 0 4.03852e-10 -0.225 0.05 4.26288e-10
-0.2375 0 4.26288e-10 -0.2375 0.05 -0.1125 4.03852e-10 0.05 -0.1125 4.03852e-10
0 -0.125 4.48724e-10 0.05 -0.125 4.48724e-10 0 -0.1375 4.93597e-10 0.05
-0.1375 4.93597e-10 0 -0.15 5.38469e-10 0.05 -0.15 5.38469e-10 0 -0.1625
5.83341e-10 0.05 -0.1625 5.83341e-10 0 -0.175 6.28214e-10 0.05 -0.175 6.28214e-10
0 -0.1875 6.73086e-10 0.05 -0.1875 6.73086e-10 0 -0.2 7.17959e-10 0.05
-0.2 7.17959e-10 0 -0.2125 7.62831e-10 0.05 -0.2125 7.62831e-10 0 -0.225
8.07704e-10 0.05 -0.225 8.07704e-10 0 -0.2375 8.52576e-10 0.05 -0.2375 8.52576e-10
0 -0.25 8.97448e-10 0.05 -0.25 8.97448e-10 0 -0.1125 4.03852e-10 0
-0.1125 4.03852e-10 0.05 -0.125 4.48724e-10 0 -0.125 4.48724e-10 0.05 -0.1375
4.93597e-10 0 -0.1375 4.93597e-10 0.05 -0.15 5.38469e-10 0 -0.15 5.38469e-10
0.05 -0.1625 5.83341e-10 0 -0.1625 5.83341e-10 0.05 -0.175 6.28214e-10 0
-0.175 6.28214e-10 0.05 -0.1875 6.73086e-10 0 -0.1875 6.73086e-10 0.05 -0.2
7.17959e-10 0 -0.2 7.17959e-10 0.05 -0.2125 7.62831e-10 0 -0.2125 7.62831e-10
0.05 -0.225 8.07704e-10 0 -0.225 8.07704e-10 0.05 -0.2375 8.52576e-10 0
-0.2375 8.52576e-10 0.05 2.01926e-10 0.1125 0.05 2.01926e-10 0.1125 0 2.24362e-10
0.125 0.05 2.24362e-10 0.125 0 2.46798e-10 0.1375 0.05 2.46798e-10 0.1375
0 2.69235e-10 0.15 0.05 2.69235e-10 0.15 0 2.91671e-10 0.1625 0.05
2.91671e-10 0.1625 0 3.14107e-10 0.175 0.05 3.14107e-10 0.175 0 3.36543e-10
0.1875 0.05 3.36543e-10 0.1875 0 3.58979e-10 0.2 0.05 3.58979e-10 0.2
0 3.81416e-10 0.2125 0.05 3.81416e-10 0.2125 0 4.03852e-10 0.225 0.05
4.03852e-10 0.225 0 4.26288e-10 0.2375 0.05 4.26288e-10 0.2375 0 4.48724e-10
0.25 0.05 4.48724e-10 0.25 0 2.01926e-10 0.1125 0 2.01926e-10 0.1125
0.05 2.24362e-10 0.125 0 2.24362e-10 0.125 0.05 2.46798e-10 0.1375 0
2.46798e-10 0.1375 0.05 2.69234e-10 0.15 0 2.69234e-10 0.15 0.05 2.91671e-10
0.1625 0 2.91671e-10 0.1625 0.05 3.14107e-10 0.175 0 3.14107e-10 0.175
0.05 3.36543e-10 0.1875 0 3.36543e-10 0.1875 0.05 3.58979e-10 0.2 0
3.58979e-10 0.2 0.05 3.81416e-10 0.2125 0 3.81416e-10 0.2125 0.05 4.03852e-10
0.225 0 4.03852e-10 0.225 0.05 4.26288e-10 0.2375 0 4.26288e-10 0.2375
0.05 
POLYGONS 192 960
4 0 1 2 3 4 1 4 5 2 4
4 6 7 5 4 6 8 9 7 4
8 10 11 9 4 10 12 13 11 4
12 14 15 13 4 14 16 17 15 4
16 18 19 17 4 18 20 21 19 4
20 22 23 21 4 22 24 25 23 4
24 26 27 25 4 26 28 29 27 4
28 30 31 29 4 30 32 33 31 4
32 34 35 33 4 34 36 37 35 4
36 38 39 37 4 38 40 41 39 4
40 42 43 41 4 42 44 45 43 4
44 46 47 45 4 46 48 49 47 4
50 51 52 53 4 51 54 55 52 4
54 56 57 55 4 56 58 59 57 4
58 60 61 59 4 60 62 63 61 4
62 64 65 63 4 64 66 67 65 4
66 68 69 67 4 68 70 71 69 4
70 72 73 71 4 72 74 75 73 4
74 76 77 75 4 76 78 79 77 4
78 80 81 79 4 80 82 83 81 4
82 84 85 83 4 84 86 87 85 4
86 88 89 87 4 88 90 91 89 4
90 92 93 91 4 92 94 95 93 4
94 96 97 95 4 96 98 99 97 4
100 101 102 103 4 101 104 105 102 4
104 106 107 105 4 106 108 109 107 4
108 110 111 109 4 110 112 113 111 4
112 114 115 113 4 114 116 117 115 4
116 118 119 117 4 118 120 121 119 4
120 122 123 121 4 122 124 125 123 4
124 126 127 125 4 126 128 129 127 4
128 130 131 129 4 130 132 133 131 4
132 134 135 133 4 134 136 137 135 4
136 138 139 137 4 138 140 141 139 4
140 142 143 141 4 142 144 145 143 4
144 146 147 145 4 146 148 149 147 4
150 151 152 153 4 151 154 155 152 4
154 156 157 155 4 156 158 159 157 4
158 160 161 159 4 160 162 163 161 4
162 164 165 163 4 164 166 167 165 4
166 168 169 167 4 168 170 171 169 4
170 172 173 171 4 172 174 175 173 4
174 176 177 175 4 176 178 179 177 4
178 180 181 179 4 180 182 183 181 4
182 184 185 183 4 184 186 187 185 4
186 188 189 187 4 188 190 191 189 4
190 192 193 191 4 192 194 195 193 4
194 196 197 195 4 196 198 199 197 4
0 3 200 201 4 201 200 202 203 4
203 202 204 205 4 205 204 206 207 4
207 206 208 209 4 209 208 210 211 4
211 210 212 213 4 213 212 214 215 4
215 214 216 217 4 217 216 218 219 4
219 218 220 221 4 221 220 222 223 4
198 224 225 199 4 224 226 227 225 4
226 228 229 227 4 228 230 231 229 4
230 232 233 231 4 232 234 235 233 4
234 236 237 235 4 236 238 239 237 4
238 240 241 239 4 240 242 243 241 4
242 244 245 243 4 244 223 222 245 4
50 53 246 247 4 247 246 248 249 4
249 248 250 251 4 251 250 252 253 4
253 252 254 255 4 255 254 256 257 4
257 256 258 259 4 259 258 260 261 4
261 260 262 263 4 263 262 264 265 4
265 264 266 267 4 267 266 268 269 4
48 270 271 49 4 270 272 273 271 4
272 274 275 273 4 274 276 277 275 4
276 278 279 277 4 278 280 281 279 4
280 282 283 281 4 282 284 285 283 4
284 286 287 285 4 286 288 289 287 4
288 290 291 289 4 290 269 268 291 4
100 103 292 293 4 293 292 294 295 4
295 294 296 297 4 297 296 298 299 4
299 298 300 301 4 301 300 302 303 4
303 302 304 305 4 305 304 306 307 4
307 306 308 309 4 309 308 310 311 4
311 310 312 313 4 313 312 314 315 4
98 316 317 99 4 316 318 319 317 4
318 320 321 319 4 320 322 323 321 4
322 324 325 323 4 324 326 327 325 4
326 328 329 327 4 328 330 331 329 4
330 332 333 331 4 332 334 335 333 4
334 336 337 335 4 336 315 314 337 4
150 153 338 339 4 339 338 340 341 4
341 340 342 343 4 343 342 344 345 4
345 344 346 347 4 347 346 348 349 4
349 348 350 351 4 351 350 352 353 4
353 352 354 355 4 355 354 356 357 4
357 356 358 359 4 359 358 360 361 4
148 362 363 149 4 362 364 365 363 4
364 366 367 365 4 366 368 369 367 4
368 370 371 369 4 370 372 373 371 4
372 374 375 373 4 374 376 377 375 4
376 378 379 377 4 378 380 381 379 4
380 382 383 381 4 382 361 360 383 
CELL_DATA 192
FIELD attributes 5
patchID 1 192 float
0 0 0 0 0 0 0 0 0 0 0
0 0 0 0 0 0 0 0 0 0
0 0 0 0 0 0 0 0 0 0
0 0 0 0 0 0 0 0 0 0
0 0 0 0 0 0 0 0 0 0
0 0 0 0 0 0 0 0 0 0
0 0 0 0 0 0 0 0 0 0
0 0 0 0 0 0 0 0 0 0
0 0 0 0 0 0 0 0 0 0
0 0 0 0 0 0 0 0 0 0
0 0 0 0 0 0 0 0 0 0
0 0 0 0 0 0 0 0 0 0
0 0 0 0 0 0 0 0 0 0
0 0 0 0 0 0 0 0 0 0
0 0 0 0 0 0 0 0 0 0
0 0 0 0 0 0 0 0 0 0
0 0 0 0 0 0 0 0 0 0
0 0 0 0 0 0 0 0 0 0
0 0 0 0 0 0 0 0 0 0
0 
p 1 192 float
0 -50.5011 -89.8337 -97.6021 -151.231 -51.9403 -12.8777 209.933 182.84 -85.9507 -120.595
-274.99 -142.905 -172.003 100.141 141.801 428.154 558.252 829.328 856.38 853.011
854.908 831.057 828.22 -117.564 -185.081 -151.287 -230.519 -231.25 -100.886 53.5378
67.9419 -45.9255 -185.132 -190.64 -249.045 -97.2385 -45.0534 97.5874 97.2335 166.127
224.076 269.886 251.972 298.501 302.293 308.086 289.98 -243.048 -307.563 -261.496
-303.168 -315.56 -171.619 18.6282 72.6879 -16.2417 -204.976 -195.932 -294.768 -96.6727
-43.2739 197.877 274.889 357.967 394.413 462.187 491.488 557.481 567.716 580.819
565.637 -1177.02 -1250.85 -1274.09 -1269.41 -1268.19 -1270.92 -1054.37 -662.117 -325.668
-286.481 -823.318 -775.116 -1048.04 -867.097 -956.681 -711.138 -497.009 -56.6832 373.97
597.176 588.792 622.092 554.888 483.859 0 -53.4181 -16.358 67.3098 57.2949
385.664 619.409 650.213 754.11 793.86 915.251 985.042 483.859 289.266 467.66
561.486 531.36 604.292 662.287 785.858 916.394 1073.77 1207.92 1372.67 -117.564
-137.945 -71.0188 81.2819 103.219 221.654 260.018 299.095 372.544 398.67 377.303
447.36 828.22 858.523 884.595 898.831 929.445 968.834 1019.3 1070.6 1126.74
1174.62 1157.42 1120.28 -243.048 -293.277 -295.587 -221.669 -234.511 -146.461 -80.0279
-7.42049 84.3015 126.322 152.884 299.31 289.98 318.151 359.386 407 455.796
513.944 576.184 647.43 748.105 887.942 973.155 966.77 -1177.02 -1200.92 -1182.82
-1102.22 -828.063 -688.451 -554.81 -390.727 -241.544 -169.044 -52.7752 53.2038 565.637
599.758 654.113 718.467 781.481 849.909 918.126 973.592 1013.49 1033.18 993.77
847.134 
alpha.water 1 192 float
0.00483151 0.00438951 0.000431955 6.24097e-05 6.24097e-05 0.00463612 0.00263941 2.18256e-12 4.59135e-05 3.58036e-05 9.62812e-13
1.07991e-12 2.22119e-06 1.2758e-06 3.26577e-07 1.0913e-07 6.16163e-08 3.21603e-08 3.21602e-08 7.03325e-05 0.000258496
0.000318872 0.00031913 0.000319255 2.51474e-10 1.69108e-11 1.67938e-11 1.66461e-11 8.54138e-14 8.53429e-14 6.18312e-07
1.03684e-12 9.57191e-10 1.08782e-09 1.79827e-08 5.03472e-08 1.59958e-08 1.4196e-11 1.41734e-11 1.43134e-11 1.4814e-06
4.50179e-06 4.64416e-06 4.66364e-06 4.66428e-06 4.66428e-06 3.47611e-06 7.393e-07 9.42301e-13 7.99315e-13 4.07592e-13
4.29962e-12 9.72854e-13 1.81867e-13 5.75364e-10 5.09246e-10 9.83479e-11 8.72061e-11 8.7206e-11 8.72061e-11 1.28603e-10
3.49474e-09 8.47428e-09 8.80459e-09 5.62255e-09 5.27273e-10 5.27262e-10 5.81059e-10 9.62558e-10 1.15133e-09 1.05567e-09
1.03031e-10 0.999992 0.999993 0.999999 1 0.996928 0.995703 0.995697 0.995703 0.997493
1 1 1 1 0.999999 1 1 1 1 0.999999
0.999999 1 0.999984 0.999879 0.999859 0.00483151 0.00483151 0.00423257 0.00097253 0.00104454
0.00196236 0.00108519 0.000154418 1.22261e-12 1.26355e-06 1.34037e-06 0.139802 0.999859 0.999798 0.999885
0.999948 0.999953 1 1 0.945689 0.751572 0.377436 0.23611 0.0996291 2.51474e-10
4.32928e-09 1.16939e-08 8.57913e-09 1.28314e-07 6.98436e-07 7.74457e-07 6.05393e-07 1.83604e-07 1.55432e-06 7.5824e-07
2.64157e-13 0.000319255 0.00101553 3.216e-08 4.13319e-07 1.09296e-06 1.0818e-06 4.97046e-05 0.000473438 0.000659633
0.000638791 0.000534912 0.000430428 9.42301e-13 2.92511e-12 1.07626e-11 2.94811e-11 4.30567e-11 1.53812e-10 1.62279e-10
1.35402e-10 1.59552e-11 1.4723e-12 3.70582e-13 3.09851e-13 7.393e-07 2.08171e-06 3.35258e-06 7.38572e-11 2.03818e-07
2.99932e-12 6.99909e-11 3.1319e-10 5.8784e-10 1.00466e-09 1.02998e-09 5.98355e-10 0.999992 0.998865 0.99806
0.99806 0.998307 0.999823 1 0.999183 0.997731 0.997653 0.999176 1 1.03031e-10
6.31614e-11 3.65393e-09 9.61064e-09 8.66919e-09 9.73235e-10 6.1746e-10 4.6185e-07 1.43962e-06 8.39036e-07 2.78935e-12
0.0167003 
p_rgh 1 192 float
0 -50.5011 -89.8337 -97.6021 -151.231 -51.9403 -12.8777 209.933 182.84 -85.9507 -120.595
-274.99 -142.905 -172.003 100.141 141.801 428.154 558.252 829.328 856.38 853.011
854.908 831.057 828.22 -117.564 -185.081 -151.287 -230.519 -231.25 -100.886 53.5378
67.9419 -45.9255 -185.132 -190.64 -249.045 -97.2385 -45.0534 97.5874 97.2335 166.127
224.076 269.886 251.972 298.501 302.293 308.086 289.98 -243.048 -307.563 -261.496
-303.168 -315.56 -171.619 18.6282 72.6879 -16.2417 -204.976 -195.932 -294.768 -96.6727
-43.2739 197.877 274.889 357.967 394.413 462.187 491.488 557.481 567.716 580.819
565.637 -1177.02 -1250.85 -1274.09 -1269.41 -1268.19 -1270.92 -1054.37 -662.117 -325.668
-286.481 -823.318 -775.116 -1048.04 -867.097 -956.681 -711.138 -497.009 -56.6832 373.97
597.176 588.792 622.092 554.888 483.859 0 -53.4181 -16.358 67.3098 57.2949
385.664 619.409 650.213 754.11 793.86 915.251 985.042 483.859 289.266 467.66
561.486 531.36 604.292 662.287 785.858 916.394 1073.77 1207.92 1372.67 -117.564
-137.945 -71.0188 81.2819 103.219 221.654 260.018 299.095 372.544 398.67 377.303
447.36 828.22 858.523 884.595 898.831 929.445 968.834 1019.3 1070.6 1126.74
1174.62 1157.42 1120.28 -243.048 -293.277 -295.587 -221.669 -234.511 -146.461 -80.0279
-7.42049 84.3015 126.322 152.884 299.31 289.98 318.151 359.386 407 455.796
513.944 576.184 647.43 748.105 887.942 973.155 966.77 -1177.02 -1200.92 -1182.82
-1102.22 -828.063 -688.451 -554.81 -390.727 -241.544 -169.044 -52.7752 53.2038 565.637
599.758 654.113 718.467 781.481 849.909 918.126 973.592 1013.49 1033.18 993.77
847.134 
U 3 192 float
0.020547 0.627646 0 0.061553 0.624958 0 0.102295 0.619594 0 0.1426 0.611577
0 0.182294 0.600941 0 0.221207 0.587732 0 0.259173 0.572006 0
0.296029 0.553831 0 0.331617 0.533284 0 0.365786 0.510453 0 0.398388
0.485437 0 0.429284 0.458342 0 0.458342 0.429284 0 0.485437 0.398388
0 0.510453 0.365786 0 0.533284 0.331617 0 0.553831 0.296029 0
0.572006 0.259173 0 0.587732 0.221207 0 0.600941 0.182294 0 0.611577
0.1426 0 0.619594 0.102295 0 0.624958 0.061553 0 0.627646 0.020547
0 0.627646 -0.020547 0 0.624958 -0.061553 0 0.619594 -0.102295 0
0.611577 -0.1426 0 0.600941 -0.182294 0 0.587732 -0.221207 0 0.572006
-0.259173 0 0.553831 -0.296029 0 0.533284 -0.331617 0 0.510453 -0.365786
0 0.485437 -0.398388 0 0.458342 -0.429284 0 0.429284 -0.458342 0
0.398388 -0.485437 0 0.365786 -0.510453 0 0.331617 -0.533284 0 0.296029
-0.553831 0 0.259173 -0.572006 0 0.221207 -0.587732 0 0.182294 -0.600941
0 0.1426 -0.611577 0 0.102295 -0.619594 0 0.061553 -0.624958 0
0.020547 -0.627646 0 -0.020547 -0.627646 0 -0.061553 -0.624958 0 -0.102295
-0.619594 0 -0.1426 -0.611577 0 -0.182294 -0.600941 0 -0.221207 -0.587732
0 -0.259173 -0.572006 0 -0.296029 -0.553831 0 -0.331617 -0.533284 0
-0.365786 -0.510453 0 -0.398388 -0.485437 0 -0.429284 -0.458342 0 -0.458342
-0.429284 0 -0.485437 -0.398388 0 -0.510453 -0.365786 0 -0.533284 -0.331617
0 -0.553831 -0.296029 0 -0.572006 -0.259173 0 -0.587732 -0.221207 0
-0.600941 -0.182294 0 -0.611577 -0.1426 0 -0.619594 -0.102295 0 -0.624958
-0.061553 0 -0.627646 -0.020547 0 -0.627646 0.020547 0 -0.624958 0.061553
0 -0.619594 0.102295 0 -0.611577 0.1426 0 -0.600941 0.182294 0
-0.587732 0.221207 0 -0.572006 0.259173 0 -0.553831 0.296029 0 -0.533284
0.331617 0 -0.510453 0.365786 0 -0.485437 0.398388 0 -0.458342 0.429284
0 -0.429284 0.458342 0 -0.398388 0.485437 0 -0.365786 0.510453 0
-0.331617 0.533284 0 -0.296029 0.553831 0 -0.259173 0.572006 0 -0.221207
0.587732 0 -0.182294 0.600941 0 -0.1426 0.611577 0 -0.102295 0.619594
0 -0.061553 0.624958 0 -0.020547 0.627646 0 0 0.667588 0
0 0.746128 0 0 0.824668 0 0 0.903208 0 0
0.981748 0 0 1.06029 0 0 1.13883 0 0 1.21737
0 0 1.29591 0 0 1.37445 0 0 1.45299 0
0 1.53153 0 0 0.667588 0 0 0.746128 0 0
0.824668 0 0 0.903208 0 0 0.981748 0 0 1.06029
0 0 1.13883 0 0 1.21737 0 0 1.29591 0
0 1.37445 0 0 1.45299 0 0 1.53153 0 0.667588
1.19825e-09 0 0.746128 1.33922e-09 0 0.824668 1.48019e-09 0 0.903208 1.62116e-09
0 0.981748 1.76214e-09 0 1.06029 1.90311e-09 0 1.13883 2.04408e-09 0
1.21737 2.18505e-09 0 1.29591 2.32602e-09 0 1.37445 2.46699e-09 0 1.45299
2.60796e-09 0 1.53153 2.74893e-09 0 0.667588 1.19825e-09 0 0.746128 1.33922e-09
0 0.824668 1.48019e-09 0 0.903208 1.62116e-09 0 0.981748 1.76214e-09 0
1.06029 1.90311e-09 0 1.13883 2.04408e-09 0 1.21737 2.18505e-09 0 1.29591
2.32602e-09 0 1.37445 2.46699e-09 0 1.45299 2.60796e-09 0 1.53153 2.74893e-09
0 -2.3965e-09 -0.667588 0 -2.67845e-09 -0.746128 0 -2.96039e-09 -0.824668 0
-3.24233e-09 -0.903208 0 -3.52427e-09 -0.981748 0 -3.80621e-09 -1.06029 0 -4.08815e-09
-1.13883 0 -4.3701e-09 -1.21737 0 -4.65204e-09 -1.29591 0 -4.93398e-09 -1.37445
0 -5.21592e-09 -1.45299 0 -5.49786e-09 -1.53153 0 -2.3965e-09 -0.667588 0
-2.67845e-09 -0.746128 0 -2.96039e-09 -0.824668 0 -3.24233e-09 -0.903208 0 -3.52427e-09
-0.981748 0 -3.80621e-09 -1.06029 0 -4.08815e-09 -1.13883 0 -4.3701e-09 -1.21737
0 -4.65204e-09 -1.29591 0 -4.93398e-09 -1.37445 0 -5.21592e-09 -1.45299 0
-5.49786e-09 -1.53153 0 -0.667588 1.19825e-09 0 -0.746128 1.33922e-09 0 -0.824668
1.48019e-09 0 -0.903208 1.62116e-09 0 -0.981748 1.76214e-09 0 -1.06029 1.90311e-09
0 -1.13883 2.04408e-09 0 -1.21737 2.18505e-09 0 -1.29591 2.32602e-09 0
-1.37445 2.46699e-09 0 -1.45299 2.60796e-09 0 -1.53153 2.74893e-09 0 -0.667588
1.19825e-09 0 -0.746128 1.33922e-09 0 -0.824668 1.48019e-09 0 -0.903208 1.62116e-09
0 -0.981748 1.76214e-09 0 -1.06029 1.90311e-09 0 -1.13883 2.04408e-09 0
-1.21737 2.18505e-09 0 -1.29591 2.32602e-09 0 -1.37445 2.46699e-09 0 -1.45299
2.60796e-09 0 -1.53153 2.74893e-09 0 
POINT_DATA  384
FIELD attributes 4
p 1 384 float
0 -25.2505 -25.2505 0 -70.1674 -70.1674 -93.7179 -93.7179 -124.417 -124.417 -101.586
-101.586 -32.409 -32.409 98.5276 98.5276 196.387 196.387 48.4446 48.4446 -103.273
-103.273 -197.792 -197.792 -208.947 -208.947 -157.454 -157.454 -35.931 -35.931 120.971
120.971 284.978 284.978 493.203 493.203 693.79 693.79 842.854 842.854 854.695
854.695 853.959 853.959 842.982 842.982 829.638 829.638 828.22 828.22 -117.564
-151.322 -151.322 -117.564 -168.184 -168.184 -190.903 -190.903 -230.885 -230.885 -166.068
-166.068 -23.6741 -23.6741 60.7398 60.7398 11.0082 11.0082 -115.529 -115.529 -187.886
-187.886 -219.842 -219.842 -173.142 -173.142 -71.146 -71.146 26.267 26.267 97.4105
97.4105 131.68 131.68 195.102 195.102 246.981 246.981 260.929 260.929 275.237
275.237 300.397 300.397 305.19 305.19 299.033 299.033 289.98 289.98 -243.048
-275.306 -275.306 -243.048 -284.53 -284.53 -282.332 -282.332 -309.364 -309.364 -243.589
-243.589 -76.4954 -76.4954 45.6581 45.6581 28.2231 28.2231 -110.609 -110.609 -200.454
-200.454 -245.35 -245.35 -195.72 -195.72 -69.9733 -69.9733 77.3016 77.3016 236.383
236.383 316.428 316.428 376.19 376.19 428.3 428.3 476.837 476.837 524.484
524.484 562.599 562.599 574.268 574.268 573.228 573.228 565.637 565.637 -1177.02
-1213.94 -1213.94 -1177.02 -1262.47 -1262.47 -1271.75 -1271.75 -1268.8 -1268.8 -1269.56
-1269.56 -1162.65 -1162.65 -858.244 -858.244 -493.892 -493.892 -306.074 -306.074 -554.899
-554.899 -799.217 -799.217 -911.578 -911.578 -957.568 -957.568 -911.889 -911.889 -833.909
-833.909 -604.073 -604.073 -276.846 -276.846 158.643 158.643 485.573 485.573 592.984
592.984 605.442 605.442 588.49 588.49 519.373 519.373 483.859 483.859 -26.709
-26.709 -34.8881 -34.8881 25.4759 25.4759 62.3023 62.3023 221.479 221.479 502.536
502.536 634.811 634.811 702.161 702.161 773.985 773.985 854.555 854.555 950.146
950.146 1178.86 1178.86 386.563 386.563 378.463 378.463 514.573 514.573 546.423
546.423 567.826 567.826 633.289 633.289 724.073 724.073 851.126 851.126 995.082
995.082 1140.84 1140.84 1290.3 1290.3 -127.755 -127.755 -104.482 -104.482 5.13155
5.13155 92.2505 92.2505 162.436 162.436 240.836 240.836 279.556 279.556 335.819
335.819 385.607 385.607 387.987 387.987 412.332 412.332 783.82 783.82 843.372
843.372 871.559 871.559 891.713 891.713 914.138 914.138 949.14 949.14 994.067
994.067 1044.95 1044.95 1098.67 1098.67 1150.68 1150.68 1166.02 1166.02 1138.85
1138.85 -268.163 -268.163 -294.432 -294.432 -258.628 -258.628 -228.09 -228.09 -190.486
-190.486 -113.244 -113.244 -43.7242 -43.7242 38.4405 38.4405 105.312 105.312 139.603
139.603 226.097 226.097 633.04 633.04 304.065 304.065 338.768 338.768 383.193
383.193 431.398 431.398 484.87 484.87 545.064 545.064 611.807 611.807 697.768
697.768 818.023 818.023 930.549 930.549 969.963 969.963 -1188.97 -1188.97 -1191.87
-1191.87 -1142.52 -1142.52 -965.141 -965.141 -758.257 -758.257 -621.63 -621.63 -472.768
-472.768 -316.135 -316.135 -205.294 -205.294 -110.91 -110.91 0.2143 0.2143 450.169
450.169 582.698 582.698 626.935 626.935 686.29 686.29 749.974 749.974 815.695
815.695 884.018 884.018 945.859 945.859 993.541 993.541 1023.34 1023.34 1013.47
1013.47 920.452 920.452 
alpha.water 1 384 float
0.00483151 0.00461051 0.00461051 0.00483151 0.00241073 0.00241073 0.000247182 0.000247182 6.24097e-05 6.24097e-05 0.00234926
0.00234926 0.00363777 0.00363777 0.00131971 0.00131971 2.29568e-05 2.29568e-05 4.08586e-05 4.08586e-05 1.79018e-05
1.79018e-05 1.02136e-12 1.02136e-12 1.1106e-06 1.1106e-06 1.7485e-06 1.7485e-06 8.01188e-07 8.01188e-07 2.17853e-07
2.17853e-07 8.53732e-08 8.53732e-08 4.68883e-08 4.68883e-08 3.21603e-08 3.21603e-08 3.51823e-05 3.51823e-05 0.000164414
0.000164414 0.000288684 0.000288684 0.000319001 0.000319001 0.000319193 0.000319193 0.000319255 0.000319255 2.51474e-10
1.34192e-10 1.34192e-10 2.51474e-10 1.68523e-11 1.68523e-11 1.672e-11 1.672e-11 8.36576e-12 8.36576e-12 8.53784e-14
8.53784e-14 3.09156e-07 3.09156e-07 3.09157e-07 3.09157e-07 4.79114e-10 4.79114e-10 1.02251e-09 1.02251e-09 9.53526e-09
9.53526e-09 3.4165e-08 3.4165e-08 3.31715e-08 3.31715e-08 8.005e-09 8.005e-09 1.41847e-11 1.41847e-11 1.42434e-11
1.42434e-11 7.40707e-07 7.40707e-07 2.9916e-06 2.9916e-06 4.57297e-06 4.57297e-06 4.6539e-06 4.6539e-06 4.66396e-06
4.66396e-06 4.66428e-06 4.66428e-06 4.07019e-06 4.07019e-06 2.10771e-06 2.10771e-06 7.393e-07 7.393e-07 9.42301e-13
8.70808e-13 8.70808e-13 9.42301e-13 6.03453e-13 6.03453e-13 2.35361e-12 2.35361e-12 2.63624e-12 2.63624e-12 5.7736e-13
5.7736e-13 2.87773e-10 2.87773e-10 5.42305e-10 5.42305e-10 3.03797e-10 3.03797e-10 9.2777e-11 9.2777e-11 8.7206e-11
8.7206e-11 8.7206e-11 8.7206e-11 1.07905e-10 1.07905e-10 1.81167e-09 1.81167e-09 5.98451e-09 5.98451e-09 8.63943e-09
8.63943e-09 7.21357e-09 7.21357e-09 3.07491e-09 3.07491e-09 5.27268e-10 5.27268e-10 5.5416e-10 5.5416e-10 7.71809e-10
7.71809e-10 1.05694e-09 1.05694e-09 1.1035e-09 1.1035e-09 5.79351e-10 5.79351e-10 1.03031e-10 1.03031e-10 0.999992
0.999992 0.999992 0.999992 0.999996 0.999996 1 1 0.998464 0.998464 0.996315
0.996315 0.9957 0.9957 0.9957 0.9957 0.996598 0.996598 0.998747 0.998747 1
1 1 1 1 1 1 1 1 1 1
1 1 1 1 1 1 1 0.999999 0.999999 1
1 0.999992 0.999992 0.999932 0.999932 0.999869 0.999869 0.999859 0.999859 0.00483151
0.00483151 0.00453204 0.00453204 0.00260255 0.00260255 0.00100854 0.00100854 0.00150345 0.00150345 0.00152378
0.00152378 0.000619804 0.000619804 7.7209e-05 7.7209e-05 6.31776e-07 6.31776e-07 1.30196e-06 1.30196e-06 0.0699017
0.0699017 0.119716 0.119716 0.999829 0.999829 0.999842 0.999842 0.999916 0.999916 0.999951
0.999951 0.999977 0.999977 1 1 0.972844 0.972844 0.84863 0.84863 0.564504
0.564504 0.306773 0.306773 0.16787 0.16787 2.29038e-09 2.29038e-09 8.01159e-09 8.01159e-09 1.01365e-08
1.01365e-08 6.84466e-08 6.84466e-08 4.13375e-07 4.13375e-07 7.36447e-07 7.36447e-07 6.89925e-07 6.89925e-07 3.94498e-07
3.94498e-07 8.68962e-07 8.68962e-07 1.15628e-06 1.15628e-06 3.7912e-07 3.7912e-07 0.000215214 0.000215214 0.000667393
0.000667393 0.000507781 0.000507781 2.2274e-07 2.2274e-07 7.53139e-07 7.53139e-07 1.08738e-06 1.08738e-06 2.53932e-05
2.53932e-05 0.000261571 0.000261571 0.000566536 0.000566536 0.000649212 0.000649212 0.000586851 0.000586851 0.00048267
0.00048267 1.93371e-12 1.93371e-12 6.84385e-12 6.84385e-12 2.01219e-11 2.01219e-11 3.62689e-11 3.62689e-11 9.84344e-11
9.84344e-11 1.58045e-10 1.58045e-10 1.4884e-10 1.4884e-10 7.56786e-11 7.56786e-11 8.71375e-12 8.71375e-12 9.21441e-13
9.21441e-13 3.40216e-13 3.40216e-13 2.99332e-10 2.99332e-10 1.4105e-06 1.4105e-06 2.71714e-06 2.71714e-06 1.67633e-06
1.67633e-06 1.01946e-07 1.01946e-07 1.01911e-07 1.01911e-07 3.64951e-11 3.64951e-11 1.9159e-10 1.9159e-10 4.50515e-10
4.50515e-10 7.9625e-10 7.9625e-10 1.01732e-09 1.01732e-09 8.14168e-10 8.14168e-10 0.999429 0.999429 0.998462
0.998462 0.99806 0.99806 0.998183 0.998183 0.999065 0.999065 0.999911 0.999911 0.999592
0.999592 0.998457 0.998457 0.997692 0.997692 0.998415 0.998415 0.999588 0.999588 0.50835
0.50835 8.30962e-11 8.30962e-11 1.85855e-09 1.85855e-09 6.63228e-09 6.63228e-09 9.13991e-09 9.13991e-09 4.82121e-09
4.82121e-09 7.95348e-10 7.95348e-10 2.31234e-07 2.31234e-07 9.50735e-07 9.50735e-07 1.13933e-06 1.13933e-06 4.19519e-07
4.19519e-07 0.00835015 0.00835015 
p_rgh 1 384 float
0 -25.2505 -25.2505 0 -70.1674 -70.1674 -93.7179 -93.7179 -124.417 -124.417 -101.586
-101.586 -32.409 -32.409 98.5276 98.5276 196.387 196.387 48.4446 48.4446 -103.273
-103.273 -197.792 -197.792 -208.947 -208.947 -157.454 -157.454 -35.931 -35.931 120.971
120.971 284.978 284.978 493.203 493.203 693.79 693.79 842.854 842.854 854.695
854.695 853.959 853.959 842.982 842.982 829.638 829.638 828.22 828.22 -117.564
-151.322 -151.322 -117.564 -168.184 -168.184 -190.903 -190.903 -230.885 -230.885 -166.068
-166.068 -23.6741 -23.6741 60.7398 60.7398 11.0082 11.0082 -115.529 -115.529 -187.886
-187.886 -219.842 -219.842 -173.142 -173.142 -71.146 -71.146 26.267 26.267 97.4105
97.4105 131.68 131.68 195.102 195.102 246.981 246.981 260.929 260.929 275.237
275.237 300.397 300.397 305.19 305.19 299.033 299.033 289.98 289.98 -243.048
-275.306 -275.306 -243.048 -284.53 -284.53 -282.332 -282.332 -309.364 -309.364 -243.589
-243.589 -76.4954 -76.4954 45.6581 45.6581 28.2231 28.2231 -110.609 -110.609 -200.454
-200.454 -245.35 -245.35 -195.72 -195.72 -69.9733 -69.9733 77.3016 77.3016 236.383
236.383 316.428 316.428 376.19 376.19 428.3 428.3 476.837 476.837 524.484
524.484 562.599 562.599 574.268 574.268 573.228 573.228 565.637 565.637 -1177.02
-1213.94 -1213.94 -1177.02 -1262.47 -1262.47 -1271.75 -1271.75 -1268.8 -1268.8 -1269.56
-1269.56 -1162.65 -1162.65 -858.244 -858.244 -493.892 -493.892 -306.074 -306.074 -554.899