# vtk DataFile Version 2.0
rotor
ASCII
DATASET POLYDATA
POINTS 384 float
0.02 0 0 0.0199572 -0.00130806 0 0.0199572 -0.00130806 0.01 0.02 0
0.01 0.0198289 -0.00261052 0 0.0198289 -0.00261052 0.01 0.0196157 -0.00390181 0
0.0196157 -0.00390181 0.01 0.0193185 -0.00517638 0 0.0193185 -0.00517638 0.01 0.0189386
-0.00642879 0 0.0189386 -0.00642879 0.01 0.0184776 -0.00765367 0 0.0184776 -0.00765367
0.01 0.0179375 -0.00884577 0 0.0179375 -0.00884577 0.01 0.0173205 -0.01 0
0.0173205 -0.01 0.01 0.0166294 -0.0111114 0 0.0166294 -0.0111114 0.01 0.0158671
-0.0121752 0 0.0158671 -0.0121752 0.01 0.0150368 -0.0131869 0 0.0150368 -0.0131869
0.01 0.0141421 -0.0141421 0 0.0141421 -0.0141421 0.01 0.0131869 -0.0150368 0
0.0131869 -0.0150368 0.01 0.0121752 -0.0158671 0 0.0121752 -0.0158671 0.01 0.0111114
-0.0166294 0 0.0111114 -0.0166294 0.01 0.01 -0.0173205 0 0.01 -0.0173205
0.01 0.00884577 -0.0179375 0 0.00884577 -0.0179375 0.01 0.00765367 -0.0184776 0
0.00765367 -0.0184776 0.01 0.00642879 -0.0189386 0 0.00642879 -0.0189386 0.01 0.00517638
-0.0193185 0 0.00517638 -0.0193185 0.01 0.00390181 -0.0196157 0 0.00390181 -0.0196157
0.01 0.00261052 -0.0198289 0 0.00261052 -0.0198289 0.01 0.00130806 -0.0199572 0
0.00130806 -0.0199572 0.01 3.58979e-11 -0.02 0 3.58979e-11 -0.02 0.01 3.58979e-11
-0.02 0 -0.00130806 -0.0199572 0 -0.00130806 -0.0199572 0.01 3.58979e-11 -0.02
0.01 -0.00261052 -0.0198289 0 -0.00261052 -0.0198289 0.01 -0.00390181 -0.0196157 0
-0.00390181 -0.0196157 0.01 -0.00517638 -0.0193185 0 -0.00517638 -0.0193185 0.01 -0.00642879
-0.0189386 0 -0.00642879 -0.0189386 0.01 -0.00765367 -0.0184776 0 -0.00765367 -0.0184776
0.01 -0.00884577 -0.0179375 0 -0.00884577 -0.0179375 0.01 -0.01 -0.0173205 0
-0.01 -0.0173205 0.01 -0.0111114 -0.0166294 0 -0.0111114 -0.0166294 0.01 -0.0121752
-0.0158671 0 -0.0121752 -0.0158671 0.01 -0.0131869 -0.0150368 0 -0.0131869 -0.0150368
0.01 -0.0141421 -0.0141421 0 -0.0141421 -0.0141421 0.01 -0.0150368 -0.0131869 0
-0.0150368 -0.0131869 0.01 -0.0158671 -0.0121752 0 -0.0158671 -0.0121752 0.01 -0.0166294
-0.0111114 0 -0.0166294 -0.0111114 0.01 -0.0173205 -0.01 0 -0.0173205 -0.01
0.01 -0.0179375 -0.00884577 0 -0.0179375 -0.00884577 0.01 -0.0184776 -0.00765367 0
-0.0184776 -0.00765367 0.01 -0.0189386 -0.00642879 0 -0.0189386 -0.00642879 0.01 -0.0193185
-0.00517638 0 -0.0193185 -0.00517638 0.01 -0.0196157 -0.00390181 0 -0.0196157 -0.00390181
0.01 -0.0198289 -0.00261052 0 -0.0198289 -0.00261052 0.01 -0.0199572 -0.00130806 0
-0.0199572 -0.00130806 0.01 -0.02 7.17959e-11 0 -0.02 7.17959e-11 0.01 -0.02
7.17959e-11 0 -0.0199572 0.00130806 0 -0.0199572 0.00130806 0.01 -0.02 7.17959e-11
0.01 -0.0198289 0.00261052 0 -0.0198289 0.00261052 0.01 -0.0196157 0.00390181 0
-0.0196157 0.00390181 0.01 -0.0193185 0.00517638 0 -0.0193185 0.00517638 0.01 -0.0189386
0.00642879 0 -0.0189386 0.00642879 0.01 -0.0184776 0.00765367 0 -0.0184776 0.00765367
0.01 -0.0179375 0.00884577 0 -0.0179375 0.00884577 0.01 -0.0173205 0.01 0
-0.0173205 0.01 0.01 -0.0166294 0.0111114 0 -0.0166294 0.0111114 0.01 -0.0158671
0.0121752 0 -0.0158671 0.0121752 0.01 -0.0150368 0.0131869 0 -0.0150368 0.0131869
0.01 -0.0141421 0.0141421 0 -0.0141421 0.0141421 0.01 -0.0131869 0.0150368 0
-0.0131869 0.0150368 0.01 -0.0121752 0.0158671 0 -0.0121752 0.0158671 0.01 -0.0111114
0.0166294 0 -0.0111114 0.0166294 0.01 -0.01 0.0173205 0 -0.01 0.0173205
0.01 -0.00884577 0.0179375 0 -0.00884577 0.0179375 0.01 -0.00765367 0.0184776 0
-0.00765367 0.0184776 0.01 -0.00642879 0.0189386 0 -0.00642879 0.0189386 0.01 -0.00517638
0.0193185 0 -0.00517638 0.0193185 0.01 -0.00390181 0.0196157 0 -0.00390181 0.0196157
0.01 -0.00261052 0.0198289 0 -0.00261052 0.0198289 0.01 -0.00130806 0.0199572 0
-0.00130806 0.0199572 0.01 3.58979e-11 0.02 0 3.58979e-11 0.02 0.01 3.58979e-11
0.02 0 0.00130806 0.0199572 0 0.00130806 0.0199572 0.01 3.58979e-11 0.02
0.01 0.00261052 0.0198289 0 0.00261052 0.0198289 0.01 0.00390181 0.0196157 0
0.00390181 0.0196157 0.01 0.00517638 0.0193185 0 0.00517638 0.0193185 0.01 0.00642879
0.0189386 0 0.00642879 0.0189386 0.01 0.00765367 0.0184776 0 0.00765367 0.0184776
0.01 0.00884577 0.0179375 0 0.00884577 0.0179375 0.01 0.01 0.0173205 0
0.01 0.0173205 0.01 0.0111114 0.0166294 0 0.0111114 0.0166294 0.01 0.0121752
0.0158671 0 0.0121752 0.0158671 0.01 0.0131869 0.0150368 0 0.0131869 0.0150368
0.01 0.0141421 0.0141421 0 0.0141421 0.0141421 0.01 0.0150368 0.0131869 0
0.0150368 0.0131869 0.01 0.0158671 0.0121752 0 0.0158671 0.0121752 0.01 0.0166294
0.0111114 0 0.0166294 0.0111114 0.01 0.0173205 0.01 0 0.0173205 0.01
0.01 0.0179375 0.00884577 0 0.0179375 0.00884577 0.01 0.0184776 0.00765367 0
0.0184776 0.00765367 0.01 0.0189386 0.00642879 0 0.0189386 0.00642879 0.01 0.0193185
0.00517638 0 0.0193185 0.00517638 0.01 0.0196157 0.00390181 0 0.0196157 0.00390181
0.01 0.0198289 0.00261052 0 0.0198289 0.00261052 0.01 0.0199572 0.00130806 0
0.0199572 0.00130806 0.01 0.02 0 0 0.02 0 0.01 0.0225
0 0.01 0.0225 0 0 0.025 0 0.01 0.025 0
0 0.0275 0 0.01 0.0275 0 0 0.03 0 0.01
0.03 0 0 0.0325 0 0.01 0.0325 0 0 0.035
0 0.01 0.035 0 0 0.0375 0 0.01 0.0375 0
0 0.04 0 0.01 0.04 0 0 0.0425 0 0.01
0.0425 0 0 0.045 0 0.01 0.045 0 0 0.0475
0 0.01 0.0475 0 0 0.05 0 0.01 0.05 0
0 0.0225 0 0 0.0225 0 0.01 0.025 0 0
0.025 0 0.01 0.0275 0 0 0.0275 0 0.01 0.03
0 0 0.03 0 0.01 0.0325 0 0 0.0325 0
0.01 0.035 0 0 0.035 0 0.01 0.0375 0 0
0.0375 0 0.01 0.04 0 0 0.04 0 0.01 0.0425
0 0 0.0425 0 0.01 0.045 0 0 0.045 0
0.01 0.0475 0 0 0.0475 0 0.01 4.03852e-11 -0.0225 0.01
4.03852e-11 -0.0225 0 4.48724e-11 -0.025 0.01 4.48724e-11 -0.025 0 4.93597e-11
-0.0275 0.01 4.93597e-11 -0.0275 0 5.38469e-11 -0.03 0.01 5.38469e-11 -0.03
0 5.83341e-11 -0.0325 0.01 5.83341e-11 -0.0325 0 6.28214e-11 -0.035 0.01
6.28214e-11 -0.035 0 6.73086e-11 -0.0375 0.01 6.73086e-11 -0.0375 0 7.17959e-11
-0.04 0.01 7.17959e-11 -0.04 0 7.62831e-11 -0.0425 0.01 7.62831e-11 -0.0425
0 8.07704e-11 -0.045 0.01 8.07704e-11 -0.045 0 8.52576e-11 -0.0475 0.01
8.52576e-11 -0.0475 0 8.97448e-11 -0.05 0.01 8.97448e-11 -0.05 0 4.03852e-11
-0.0225 0 4.03852e-11 -0.0225 0.01 4.48724e-11 -0.025 0 4.48724e-11 -0.025
0.01 4.93597e-11 -0.0275 0 4.93597e-11 -0.0275 0.01 5.38469e-11 -0.03 0
5.38469e-11 -0.03 0.01 5.83341e-11 -0.0325 0 5.83341e-11 -0.0325 0.01 6.28214e-11
-0.035 0 6.28214e-11 -0.035 0.01 6.73086e-11 -0.0375 0 6.73086e-11 -0.0375
0.01 7.17959e-11 -0.04 0 7.17959e-11 -0.04 0.01 7.62831e-11 -0.0425 0
7.62831e-11 -0.0425 0.01 8.07703e-11 -0.045 0 8.07703e-11 -0.045 0.01 8.52576e-11
-0.0475 0 8.52576e-11 -0.0475 0.01 -0.0225 8.07704e-11 0.01 -0.0225 8.07704e-11
0 -0.025 8.97448e-11 0.01 -0.025 8.97448e-11 0 -0.0275 9.87193e-11 0.01
-0.0275 9.87193e-11 0 -0.03 1.07694e-10 0.01 -0.03 1.07694e-10 0 -0.0325
1.16668e-10 0.01 -0.0325 1.16668e-10 0 -0.035 1.25643e-10 0.01 -0.035 1.25643e-10
0 -0.0375 1.34617e-10 0.01 -0.0375 1.34617e-10 0 -0.04 1.43592e-10 0.01
-0.04 1.43592e-10 0 -0.0425 1.52566e-10 0.01 -0.0425 1.52566e-10 0 -0.045
1.61541e-10 0.01 -0.045 1.61541e-10 0 -0.0475 1.70515e-10 0.01 -0.0475 1.70515e-10
0 -0.05 1.7949e-10 0.01 -0.05 1.7949e-10 0 -0.0225 8.07704e-11 0
-0.0225 8.07704e-11 0.01 -0.025 8.97448e-11 0 -0.025 8.97448e-11 0.01 -0.0275
9.87193e-11 0 -0.0275 9.87193e-11 0.01 -0.03 1.07694e-10 0 -0.03 1.07694e-10
0.01 -0.0325 1.16668e-10 0 -0.0325 1.16668e-10 0.01 -0.035 1.25643e-10 0
-0.035 1.25643e-10 0.01 -0.0375 1.34617e-10 0 -0.0375 1.34617e-10 0.01 -0.04
1.43592e-10 0 -0.04 1.43592e-10 0.01 -0.0425 1.52566e-10 0 -0.0425 1.52566e-10
0.01 -0.045 1.61541e-10 0 -0.045 1.61541e-10 0.01 -0.0475 1.70515e-10 0
-0.0475 1.70515e-10 0.01 4.03852e-11 0.0225 0.01 4.03852e-11 0.0225 0 4.48724e-11
0.025 0.01 4.48724e-11 0.025 0 4.93597e-11 0.0275 0.01 4.93597e-11 0.0275
0 5.38469e-11 0.03 0.01 5.38469e-11 0.03 0 5.83341e-11 0.0325 0.01
5.83341e-11 0.0325 0 6.28214e-11 0.035 0.01 6.28214e-11 0.035 0 6.73086e-11
0.0375 0.01 6.73086e-11 0.0375 0 7.17959e-11 0.04 0.01 7.17959e-11 0.04
0 7.62831e-11 0.0425 0.01 7.62831e-11 0.0425 0 8.07704e-11 0.045 0.01
8.07704e-11 0.045 0 8.52576e-11 0.0475 0.01 8.52576e-11 0.0475 0 8.97448e-11
0.05 0.01 8.97448e-11 0.05 0 4.03852e-11 0.0225 0 4.03852e-11 0.0225
0.01 4.48724e-11 0.025 0 4.48724e-11 0.025 0.01 4.93597e-11 0.0275 0
4.93597e-11 0.0275 0.01 5.38469e-11 0.03 0 5.38469e-11 0.03 0.01 5.83341e-11
0.0325 0 5.83341e-11 0.0325 0.01 6.28214e-11 0.035 0 6.28214e-11 0.035
0.01 6.73086e-11 0.0375 0 6.73086e-11 0.0375 0.01 7.17959e-11 0.04 0
7.17959e-11 0.04 0.01 7.62831e-11 0.0425 0 7.62831e-11 0.0425 0.01 8.07703e-11
0.045 0 8.07703e-11 0.045 0.01 8.52576e-11 0.0475 0 8.52576e-11 0.0475
0.01 
POLYGONS 192 960
4 0 1 2 3 4 1 4 5 2 4
4 6 7 5 4 6 8 9 7 4
8 10 11 9 4 10 12 13 11 4
12 14 15 13 4 14 16 17 15 4
16 18 19 17 4 18 20 21 19 4
20 22 23 21 4 22 24 25 23 4
24 26 27 25 4 26 28 29 27 4
28 30 31 29 4 30 32 33 31 4
32 34 35 33 4 34 36 37 35 4
36 38 39 37 4 38 40 41 39 4
40 42 43 41 4 42 44 45 43 4
44 46 47 45 4 46 48 49 47 4
50 51 52 53 4 51 54 55 52 4
54 56 57 55 4 56 58 59 57 4
58 60 61 59 4 60 62 63 61 4
62 64 65 63 4 64 66 67 65 4
66 68 69 67 4 68 70 71 69 4
70 72 73 71 4 72 74 75 73 4
74 76 77 75 4 76 78 79 77 4
78 80 81 79 4 80 82 83 81 4
82 84 85 83 4 84 86 87 85 4
86 88 89 87 4 88 90 91 89 4
90 92 93 91 4 92 94 95 93 4
94 96 97 95 4 96 98 99 97 4
100 101 102 103 4 101 104 105 102 4
104 106 107 105 4 106 108 109 107 4
108 110 111 109 4 110 112 113 111 4
112 114 115 113 4 114 116 117 115 4
116 118 119 117 4 118 120 121 119 4
120 122 123 121 4 122 124 125 123 4
124 126 127 125 4 126 128 129 127 4
128 130 131 129 4 130 132 133 131 4
132 134 135 133 4 134 136 137 135 4
136 138 139 137 4 138 140 141 139 4
140 142 143 141 4 142 144 145 143 4
144 146 147 145 4 146 148 149 147 4
150 151 152 153 4 151 154 155 152 4
154 156 157 155 4 156 158 159 157 4
158 160 161 159 4 160 162 163 161 4
162 164 165 163 4 164 166 167 165 4
166 168 169 167 4 168 170 171 169 4
170 172 173 171 4 172 174 175 173 4
174 176 177 175 4 176 178 179 177 4
178 180 181 179 4 180 182 183 181 4
182 184 185 183 4 184 186 187 185 4
186 188 189 187 4 188 190 191 189 4
190 192 193 191 4 192 194 195 193 4
194 196 197 195 4 196 198 199 197 4
0 3 200 201 4 201 200 202 203 4
203 202 204 205 4 205 204 206 207 4
207 206 208 209 4 209 208 210 211 4
211 210 212 213 4 213 212 214 215 4
215 214 216 217 4 217 216 218 219 4
219 218 220 221 4 221 220 222 223 4
198 224 225 199 4 224 226 227 225 4
226 228 229 227 4 228 230 231 229 4
230 232 233 231 4 232 234 235 233 4
234 236 237 235 4 236 238 239 237 4
238 240 241 239 4 240 242 243 241 4
242 244 245 243 4 244 223 222 245 4
50 53 246 247 4 247 246 248 249 4
249 248 250 251 4 251 250 252 253 4
253 252 254 255 4 255 254 256 257 4
257 256 258 259 4 259 258 260 261 4
261 260 262 263 4 263 262 264 265 4
265 264 266 267 4 267 266 268 269 4
48 270 271 49 4 270 272 273 271 4
272 274 275 273 4 274 276 277 275 4
276 278 279 277 4 278 280 281 279 4
280 282 283 281 4 282 284 285 283 4
284 286 287 285 4 286 288 289 287 4
288 290 291 289 4 290 269 268 291 4
100 103 292 293 4 293 292 294 295 4
295 294 296 297 4 297 296 298 299 4
299 298 300 301 4 301 300 302 303 4
303 302 304 305 4 305 304 306 307 4
307 306 308 309 4 309 308 310 311 4
311 310 312 313 4 313 312 314 315 4
98 316 317 99 4 316 318 319 317 4
318 320 321 319 4 320 322 323 321 4
322 324 325 323 4 324 326 327 325 4
326 328 329 327 4 328 330 331 329 4
330 332 333 331 4 332 334 335 333 4
334 336 337 335 4 336 315 314 337 4
150 153 338 339 4 339 338 340 341 4
341 340 342 343 4 343 342 344 345 4
345 344 346 347 4 347 346 348 349 4
349 348 350 351 4 351 350 352 353 4
353 352 354 355 4 355 354 356 357 4
357 356 358 359 4 359 358 360 361 4
148 362 363 149 4 362 364 365 363 4
364 366 367 365 4 366 368 369 367 4
368 370 371 369 4 370 372 373 371 4
372 374 375 373 4 374 376 377 375 4
376 378 379 377 4 378 380 381 379 4
380 382 383 381 4 382 361 360 383 
CELL_DATA 192
FIELD attributes 5
patchID 1 192 float
0 0 0 0 0 0 0 0 0 0 0
0 0 0 0 0 0 0 0 0 0
0 0 0 0 0 0 0 0 0 0
0 0 0 0 0 0 0 0 0 0
0 0 0 0 0 0 0 0 0 0
0 0 0 0 0 0 0 0 0 0
0 0 0 0 0 0 0 0 0 0
0 0 0 0 0 0 0 0 0 0
0 0 0 0 0 0 0 0 0 0
0 0 0 0 0 0 0 0 0 0
0 0 0 0 0 0 0 0 0 0
0 0 0 0 0 0 0 0 0 0
0 0 0 0 0 0 0 0 0 0
0 0 0 0 0 0 0 0 0 0
0 0 0 0 0 0 0 0 0 0
0 0 0 0 0 0 0 0 0 0
0 0 0 0 0 0 0 0 0 0
0 0 0 0 0 0 0 0 0 0
0 0 0 0 0 0 0 0 0 0
0 
p 1 192 float
0 -0.0455309 -0.0682779 -0.0786713 -0.0962693 0.178052 0.151199 1.67915 2.134 0.954066 -0.0870961
0.0843134 0.333526 0.691388 1.46403 3.18483 3.44667 3.19581 1.24525 1.89376 1.33395
1.50781 1.97712 2.11484 0.898003 0.870045 0.844938 0.815992 0.782642 0.749077 0.712077
0.672866 0.633819 0.597751 0.567381 0.544457 0.529011 0.515932 0.512034 0.503964 0.47503
0.415579 0.337808 0.266792 0.235645 0.224632 0.216442 0.213483 2.85599 2.81139 2.76914
2.72931 2.68687 2.64477 2.60697 2.57743 2.56033 2.55994 2.58039 2.62528 2.69709
2.79589 2.9193 3.07262 3.2538 3.43772 3.59211 3.69838 3.74189 3.72053 3.65164
3.57548 2.34372 2.22889 2.4869 0.853832 2.53287 2.54451 5.56882 4.0391 2.91105
1.76075 1.30059 1.72131 3.8059 2.55639 1.67941 1.00433 0.401021 -0.103241 -0.474198
-0.748443 -0.906401 -0.952919 -0.880329 -0.700405 0 1.43603 2.67533 4.0812 5.61344
7.25326 8.99113 10.8174 12.7125 14.624 16.4368 18.0346 -0.700405 1.85978 4.04877
6.48126 11.1746 13.136 15.5149 17.0674 21.0839 25.1922 29.6962 33.7159 0.898003
2.3518 3.56885 4.97119 6.46656 8.04798 9.70276 11.4154 13.1692 14.9184 16.5848
18.2087 2.11484 5.93762 3.8307 5.36076 6.91116 8.95242 13.0908 18.3876 23.8957
25.7207 31.5405 33.6714 2.85599 4.34279 5.60699 7.04129 8.58997 10.2594 12.058
13.9914 16.0587 18.2211 20.2734 21.4829 0.213483 1.46945 2.86229 4.95167 8.51967
11.2345 13.0124 15.2084 18.3686 23.1921 24.7934 30.2754 2.34372 3.4467 4.11804
4.83548 4.80847 4.81054 5.773 8.15733 11.2854 14.6621 17.8788 19.901 3.57548
4.75697 5.91743 7.28852 8.8907 10.7866 13.0638 15.8335 19.2504 23.5206 28.6914
33.0741 
alpha.water 1 192 float
1.05501e-13 4.02452e-12 3.18404e-11 1.02405e-10 0.0325597 0.0648818 0.0374934 0.123991 0.126661 0.10377 1.07094e-10
4.4205e-10 1.9161e-09 2.0061e-10 0.0854587 0.176936 0.176936 0.176006 0.07476 0.0502708 0.0916625
0.094066 0.0639715 0.0478142 2.93695e-14 2.4476e-13 1.43328e-14 1.38068e-13 1.3816e-13 1.38217e-13 1.38635e-13
1.38636e-13 1.38636e-13 1.40629e-13 6.83892e-11 1.79693e-05 4.02061e-05 2.25567e-05 6.28531e-10 6.77442e-10 7.47125e-10
1.68449e-05 2.64338e-05 2.57431e-06 2.56033e-06 2.90365e-07 2.89964e-07 2.99139e-08 5.57538e-18 6.66834e-18 2.9547e-16
3.4586e-15 1.93127e-14 6.48813e-14 1.5172e-13 2.7671e-13 4.34802e-13 6.45177e-13 9.7947e-13 1.59362e-12 2.76467e-12
4.93525e-12 8.78178e-12 1.53426e-11 2.63451e-11 3.81681e-11 4.80553e-11 5.31905e-11 5.02246e-11 3.64751e-11 1.37816e-11
1.8259e-13 1 1 0.709415 0.0991583 0.0371729 0.117008 0.193114 0.161829 0.155495
0.131408 0.148758 0.408767 0.94922 1 1 1 1 0.999846 0.999471
0.999524 0.999949 1 1 0.999999 1.05501e-13 1.02196e-12 1.37863e-07 4.22644e-09 4.22423e-09
2.21048e-05 1.26498e-05 4.08389e-06 7.35896e-06 3.94195e-07 1.0989e-06 8.51868e-11 0.999999 1 1
0.94331 0.758528 0.757229 0.757229 0.944313 1 0.999387 0.999375 0.948006 2.93695e-14
6.60857e-13 3.62849e-12 9.23587e-11 3.12482e-10 6.35867e-10 9.20352e-11 4.19447e-11 3.62824e-11 4.09305e-11 3.5012e-11
2.39843e-11 0.0478142 0.242847 0.135967 1.64692e-10 2.11414e-10 0.299213 0.77393 0.938047 0.999747
0.925868 0.751971 0.95177 5.57538e-18 7.08891e-16 3.88772e-15 9.81368e-15 1.65586e-14 2.36036e-14 3.08418e-14
3.78344e-14 5.50898e-14 9.00724e-14 9.03595e-14 0.089889 2.99139e-08 5.22604e-07 3.1026e-07 0.204277 0.80326
0.846579 0.846567 0.84585 0.846552 0.846536 0.598649 0.547151 1 1 1
1 1 1 0.999998 0.999999 1 1 1 0.646876 1.8259e-13
2.82264e-12 1.98455e-11 8.35676e-11 2.15886e-10 3.4046e-10 3.41791e-10 1.66536e-06 4.05036e-05 0.000557159 0.000545205
0.0146081 
p_rgh 1 192 float
0 -0.0455309 -0.0682779 -0.0786713 -0.0962693 0.178052 0.151199 1.67915 2.134 0.954066 -0.0870961
0.0843134 0.333526 0.691388 1.46403 3.18483 3.44667 3.19581 1.24525 1.89376 1.33395
1.50781 1.97712 2.11484 0.898003 0.870045 0.844938 0.815992 0.782642 0.749077 0.712077
0.672866 0.633819 0.597751 0.567381 0.544457 0.529011 0.515932 0.512034 0.503964 0.47503
0.415579 0.337808 0.266792 0.235645 0.224632 0.216442 0.213483 2.85599 2.81139 2.76914
2.72931 2.68687 2.64477 2.60697 2.57743 2.56033 2.55994 2.58039 2.62528 2.69709
2.79589 2.9193 3.07262 3.2538 3.43772 3.59211 3.69838 3.74189 3.72053 3.65164
3.57548 2.34372 2.22889 2.4869 0.853832 2.53287 2.54451 5.56882 4.0391 2.91105
1.76075 1.30059 1.72131 3.8059 2.55639 1.67941 1.00433 0.401021 -0.103241 -0.474198
-0.748443 -0.906401 -0.952919 -0.880329 -0.700405 0 1.43603 2.67533 4.0812 5.61344
7.25326 8.99113 10.8174 12.7125 14.624 16.4368 18.0346 -0.700405 1.85978 4.04877
6.48126 11.1746 13.136 15.5149 17.0674 21.0839 25.1922 29.6962 33.7159 0.898003
2.3518 3.56885 4.97119 6.46656 8.04798 9.70276 11.4154 13.1692 14.9184 16.5848
18.2087 2.11484 5.93762 3.8307 5.36076 6.91116 8.95242 13.0908 18.3876 23.8957
25.7207 31.5405 33.6714 2.85599 4.34279 5.60699 7.04129 8.58997 10.2594 12.058
13.9914 16.0587 18.2211 20.2734 21.4829 0.213483 1.46945 2.86229 4.95167 8.51967
11.2345 13.0124 15.2084 18.3686 23.1921 24.7934 30.2754 2.34372 3.4467 4.11804
4.83548 4.80847 4.81054 5.773 8.15733 11.2854 14.6621 17.8788 19.901 3.57548
4.75697 5.91743 7.28852 8.8907 10.7866 13.0638 15.8335 19.2504 23.5206 28.6914
33.0741 
U 3 192 float
0.0041094 0.125529 0 0.0123106 0.124992 0 0.0204591 0.123919 0 0.02852 0.122315
0 0.0364587 0.120188 0 0.0442413 0.117546 0 0.0518345 0.114401 0
0.0592057 0.110766 0 0.0663234 0.106657 0 0.0731571 0.102091 0 0.0796775
0.0970873 0 0.0858567 0.0916683 0 0.0916683 0.0858567 0 0.0970873 0.0796775
0 0.102091 0.0731571 0 0.106657 0.0663234 0 0.110766 0.0592057 0
0.114401 0.0518345 0 0.117546 0.0442413 0 0.120188 0.0364587 0 0.122315
0.02852 0 0.123919 0.0204591 0 0.124992 0.0123106 0 0.125529 0.0041094
0 0.125529 -0.0041094 0 0.124992 -0.0123106 0 0.123919 -0.0204591 0
0.122315 -0.02852 0 0.120188 -0.0364587 0 0.117546 -0.0442413 0 0.114401
-0.0518345 0 0.110766 -0.0592057 0 0.106657 -0.0663234 0 0.102091 -0.0731571
0 0.0970873 -0.0796775 0 0.0916683 -0.0858567 0 0.0858567 -0.0916683 0
0.0796775 -0.0970873 0 0.0731571 -0.102091 0 0.0663234 -0.106657 0 0.0592057
-0.110766 0 0.0518345 -0.114401 0 0.0442413 -0.117546 0 0.0364587 -0.120188
0 0.02852 -0.122315 0 0.0204591 -0.123919 0 0.0123106 -0.124992 0
0.0041094 -0.125529 0 -0.0041094 -0.125529 0 -0.0123106 -0.124992 0 -0.0204591
-0.123919 0 -0.02852 -0.122315 0 -0.0364587 -0.120188 0 -0.0442413 -0.117546
0 -0.0518345 -0.114401 0 -0.0592057 -0.110766 0 -0.0663234 -0.106657 0
-0.0731571 -0.102091 0 -0.0796775 -0.0970873 0 -0.0858567 -0.0916683 0 -0.0916683
-0.0858567 0 -0.0970873 -0.0796775 0 -0.102091 -0.0731571 0 -0.106657 -0.0663234
0 -0.110766 -0.0592057 0 -0.114401 -0.0518345 0 -0.117546 -0.0442413 0
-0.120188 -0.0364587 0 -0.122315 -0.02852 0 -0.123919 -0.0204591 0 -0.124992
-0.0123106 0 -0.125529 -0.0041094 0 -0.125529 0.0041094 0 -0.124992 0.0123106
0 -0.123919 0.0204591 0 -0.122315 0.02852 0 -0.120188 0.0364587 0
-0.117546 0.0442413 0 -0.114401 0.0518345 0 -0.110766 0.0592057 0 -0.106657
0.0663234 0 -0.102091 0.0731571 0 -0.0970873 0.0796775 0 -0.0916683 0.0858567
0 -0.0858567 0.0916683 0 -0.0796775 0.0970873 0 -0.0731571 0.102091 0
-0.0663234 0.106657 0 -0.0592057 0.110766 0 -0.0518345 0.114401 0 -0.0442413
0.117546 0 -0.0364587 0.120188 0 -0.02852 0.122315 0 -0.0204591 0.123919
0 -0.0123106 0.124992 0 -0.0041094 0.125529 0 0 0.133518 0
0 0.149226 0 0 0.164934 0 0 0.180642 0 0
0.19635 0 0 0.212058 0 0 0.227765 0 0 0.243473
0 0 0.259181 0 0 0.274889 0 0 0.290597 0
0 0.306305 0 0 0.133518 0 0 0.149226 0 0
0.164934 0 0 0.180642 0 0 0.19635 0 0 0.212058
0 0 0.227765 0 0 0.243473 0 0 0.259181 0
0 0.274889 0 0 0.290597 0 0 0.306305 0 0.133518
2.3965e-10 0 0.149226 2.67845e-10 0 0.164934 2.96039e-10 0 0.180642 3.24233e-10
0 0.19635 3.52427e-10 0 0.212058 3.80621e-10 0 0.227765 4.08815e-10 0
0.243473 4.3701e-10 0 0.259181 4.65204e-10 0 0.274889 4.93398e-10 0 0.290597
5.21592e-10 0 0.306305 5.49786e-10 0 0.133518 2.3965e-10 0 0.149226 2.67845e-10
0 0.164934 2.96039e-10 0 0.180642 3.24233e-10 0 0.19635 3.52427e-10 0
0.212058 3.80621e-10 0 0.227765 4.08815e-10 0 0.243473 4.3701e-10 0 0.259181
4.65204e-10 0 0.274889 4.93398e-10 0 0.290597 5.21592e-10 0 0.306305 5.49786e-10
0 -4.79301e-10 -0.133518 0 -5.35689e-10 -0.149226 0 -5.92078e-10 -0.164934 0
-6.48466e-10 -0.180642 0 -7.04854e-10 -0.19635 0 -7.61243e-10 -0.212058 0 -8.17631e-10
-0.227765 0 -8.74019e-10 -0.243473 0 -9.30408e-10 -0.259181 0 -9.86796e-10 -0.274889
0 -1.04318e-09 -0.290597 0 -1.09957e-09 -0.306305 0 -4.79301e-10 -0.133518 0
-5.35689e-10 -0.149226 0 -5.92078e-10 -0.164934 0 -6.48466e-10 -0.180642 0 -7.04854e-10
-0.19635 0 -7.61243e-10 -0.212058 0 -8.17631e-10 -0.227765 0 -8.74019e-10 -0.243473
0 -9.30408e-10 -0.259181 0 -9.86796e-10 -0.274889 0 -1.04318e-09 -0.290597 0
-1.09957e-09 -0.306305 0 -0.133518 2.3965e-10 0 -0.149226 2.67845e-10 0 -0.164934
2.96039e-10 0 -0.180642 3.24233e-10 0 -0.19635 3.52427e-10 0 -0.212058 3.80621e-10
0 -0.227765 4.08815e-10 0 -0.243473 4.3701e-10 0 -0.259181 4.65204e-10 0
-0.274889 4.93398e-10 0 -0.290597 5.21592e-10 0 -0.306305 5.49786e-10 0 -0.133518
2.3965e-10 0 -0.149226 2.67845e-10 0 -0.164934 2.96039e-10 0 -0.180642 3.24233e-10
0 -0.19635 3.52427e-10 0 -0.212058 3.80621e-10 0 -0.227765 4.08815e-10 0
-0.243473 4.3701e-10 0 -0.259181 4.65204e-10 0 -0.274889 4.93398e-10 0 -0.290597
5.21592e-10 0 -0.306305 5.49786e-10 0 
POINT_DATA  384
FIELD attributes 4
p 1 384 float
0 -0.0227655 -0.0227655 0 -0.0569044 -0.0569044 -0.0734746 -0.0734746 -0.0874703 -0.0874703 0.0408913
0.0408913 0.164625 0.164625 0.915174 0.915174 1.90657 1.90657 1.54403 1.54403 0.433485
0.433485 -0.00139135 -0.00139135 0.20892 0.20892 0.512457 0.512457 1.07771 1.07771 2.32443
2.32443 3.31575 3.31575 3.32124 3.32124 2.22053 2.22053 1.5695 1.5695 1.61386
1.61386 1.42088 1.42088 1.74247 1.74247 2.04598 2.04598 2.11484 2.11484 0.898003
0.884024 0.884024 0.898003 0.857491 0.857491 0.830465 0.830465 0.799317 0.799317 0.765859
0.765859 0.730577 0.730577 0.692472 0.692472 0.653342 0.653342 0.615785 0.615785 0.582566
0.582566 0.555919 0.555919 0.536734 0.536734 0.522471 0.522471 0.513983 0.513983 0.507999
0.507999 0.489497 0.489497 0.445305 0.445305 0.376693 0.376693 0.3023 0.3023 0.251218
0.251218 0.230138 0.230138 0.220537 0.220537 0.214962 0.214962 0.213483 0.213483 2.85599
2.83369 2.83369 2.85599 2.79027 2.79027 2.74922 2.74922 2.70809 2.70809 2.66582
2.66582 2.62587 2.62587 2.5922 2.5922 2.56888 2.56888 2.56013 2.56013 2.57016
2.57016 2.60283 2.60283 2.66119 2.66119 2.74649 2.74649 2.85759 2.85759 2.99596
2.99596 3.16321 3.16321 3.34576 3.34576 3.51491 3.51491 3.64525 3.64525 3.72013
3.72013 3.73121 3.73121 3.68608 3.68608 3.61356 3.61356 3.57548 3.57548 2.34372
2.2863 2.2863 2.34372 2.35789 2.35789 1.67037 1.67037 1.69335 1.69335 2.53869
2.53869 4.05666 4.05666 4.80396 4.80396 3.47508 3.47508 2.3359 2.3359 1.53067
1.53067 1.51095 1.51095 2.76361 2.76361 3.18114 3.18114 2.1179 2.1179 1.34187
1.34187 0.702676 0.702676 0.14889 0.14889 -0.28872 -0.28872 -0.61132 -0.61132 -0.827422
-0.827422 -0.92966 -0.92966 -0.916624 -0.916624 -0.790367 -0.790367 -0.700405 -0.700405 0.718015
0.718015 2.05568 2.05568 3.37826 3.37826 4.84732 4.84732 6.43335 6.43335 8.1222
8.1222 9.90427 9.90427 11.7649 11.7649 13.6683 13.6683 15.5304 15.5304 17.2357
17.2357 25.8752 25.8752 0.579687 0.579687 2.95427 2.95427 5.26502 5.26502 8.82793
8.82793 12.1553 12.1553 14.3254 14.3254 16.2911 16.2911 19.0756 19.0756 23.1381
23.1381 27.4442 27.4442 31.7061 31.7061 1.6249 1.6249 2.96033 2.96033 4.27002
4.27002 5.71887 5.71887 7.25727 7.25727 8.87537 8.87537 10.5591 10.5591 12.2923
12.2923 14.0438 14.0438 15.7516 15.7516 17.3967 17.3967 25.9401 25.9401 4.02623
4.02623 4.88416 4.88416 4.59573 4.59573 6.13596 6.13596 7.93179 7.93179 11.0216
11.0216 15.7392 15.7392 21.1416 21.1416 24.8082 24.8082 28.6306 28.6306 32.6059
32.6059 3.59939 3.59939 4.97489 4.97489 6.32414 6.32414 7.81563 7.81563 9.42468
9.42468 11.1587 11.1587 13.0247 13.0247 15.0251 15.0251 17.1399 17.1399 19.2472
19.2472 20.8782 20.8782 25.8792 25.8792 0.841466 0.841466 2.16587 2.16587 3.90698
3.90698 6.73567 6.73567 9.87708 9.87708 12.1235 12.1235 14.1104 14.1104 16.7885
16.7885 20.7803 20.7803 23.9928 23.9928 27.5344 27.5344 2.89521 2.89521 3.78237
3.78237 4.47676 4.47676 4.82198 4.82198 4.8095 4.8095 5.29177 5.29177 6.96517
6.96517 9.72136 9.72136 12.9738 12.9738 16.2705 16.2705 18.8899 18.8899 26.4876
26.4876 4.16622 4.16622 5.3372 5.3372 6.60297 6.60297 8.08961 8.08961 9.83865
9.83865 11.9252 11.9252 14.4487 14.4487 17.542 17.542 21.3855 21.3855 26.106
26.106 30.8827 30.8827 
alpha.water 1 384 float
1.05501e-13 2.06501e-12 2.06501e-12 1.05501e-13 1.79325e-11 1.79325e-11 6.71227e-11 6.71227e-11 0.0162799 0.0162799 0.0487208
0.0487208 0.0511876 0.0511876 0.0807422 0.0807422 0.125326 0.125326 0.115216 0.115216 0.051885
0.051885 2.74572e-10 2.74572e-10 1.17907e-09 1.17907e-09 1.05835e-09 1.05835e-09 0.0427294 0.0427294 0.131197
0.131197 0.176936 0.176936 0.176471 0.176471 0.125383 0.125383 0.0625154 0.0625154 0.0709667
0.0709667 0.0928643 0.0928643 0.0790187 0.0790187 0.0558929 0.0558929 0.0478142 0.0478142 2.93695e-14
1.37065e-13 1.37065e-13 2.93695e-14 1.29546e-13 1.29546e-13 7.62004e-14 7.62004e-14 1.38114e-13 1.38114e-13 1.38189e-13
1.38189e-13 1.38426e-13 1.38426e-13 1.38635e-13 1.38635e-13 1.38636e-13 1.38636e-13 1.39633e-13 1.39633e-13 3.42649e-11
3.42649e-11 8.98468e-06 8.98468e-06 2.90877e-05 2.90877e-05 3.13814e-05 3.13814e-05 1.12787e-05 1.12787e-05 6.52986e-10
6.52986e-10 7.12284e-10 7.12284e-10 8.42282e-06 8.42282e-06 2.16393e-05 2.16393e-05 1.45041e-05 1.45041e-05 2.56732e-06
2.56732e-06 1.42535e-06 1.42535e-06 2.90165e-07 2.90165e-07 1.59939e-07 1.59939e-07 2.99139e-08 2.99139e-08 5.57538e-18
6.12186e-18 6.12186e-18 5.57538e-18 1.51069e-16 1.51069e-16 1.87703e-15 1.87703e-15 1.13857e-14 1.13857e-14 4.2097e-14
4.2097e-14 1.08301e-13 1.08301e-13 2.14215e-13 2.14215e-13 3.55756e-13 3.55756e-13 5.39989e-13 5.39989e-13 8.12324e-13
8.12324e-13 1.28654e-12 1.28654e-12 2.17915e-12 2.17915e-12 3.84996e-12 3.84996e-12 6.85852e-12 6.85852e-12 1.20622e-11
1.20622e-11 2.08438e-11 2.08438e-11 3.22566e-11 3.22566e-11 4.31117e-11 4.31117e-11 5.06229e-11 5.06229e-11 5.17076e-11
5.17076e-11 4.33499e-11 4.33499e-11 2.51284e-11 2.51284e-11 6.9821e-12 6.9821e-12 1.8259e-13 1.8259e-13 1
1 1 1 0.854707 0.854707 0.404287 0.404287 0.0681656 0.0681656 0.0770904
0.0770904 0.155061 0.155061 0.177472 0.177472 0.158662 0.158662 0.143451 0.143451 0.140083
0.140083 0.278762 0.278762 0.678994 0.678994 0.97461 0.97461 1 1 1
1 1 1 0.999923 0.999923 0.999659 0.999659 0.999497 0.999497 0.999736
0.999736 0.999974 0.999974 1 1 1 1 0.999999 0.999999 5.6373e-13
5.6373e-13 6.8932e-08 6.8932e-08 7.10447e-08 7.10447e-08 4.22534e-09 4.22534e-09 1.10545e-05 1.10545e-05 1.73773e-05
1.73773e-05 8.36684e-06 8.36684e-06 5.72143e-06 5.72143e-06 3.87658e-06 3.87658e-06 7.46548e-07 7.46548e-07 5.49493e-07
5.49493e-07 0.474003 0.474003 1 1 1 1 0.971655 0.971655 0.850919
0.850919 0.757878 0.757878 0.757229 0.757229 0.850771 0.850771 0.972157 0.972157 0.999694
0.999694 0.999381 0.999381 0.973691 0.973691 3.45113e-13 3.45113e-13 2.14467e-12 2.14467e-12 4.79936e-11
4.79936e-11 2.0242e-10 2.0242e-10 4.74174e-10 4.74174e-10 3.63951e-10 3.63951e-10 6.69899e-11 6.69899e-11 3.91135e-11
3.91135e-11 3.86065e-11 3.86065e-11 3.79713e-11 3.79713e-11 2.94982e-11 2.94982e-11 0.475885 0.475885 0.145331
0.145331 0.189407 0.189407 0.0679835 0.0679835 1.88053e-10 1.88053e-10 0.149606 0.149606 0.536572
0.536572 0.855989 0.855989 0.968897 0.968897 0.962807 0.962807 0.83892 0.83892 0.85187
0.85187 3.57233e-16 3.57233e-16 2.29831e-15 2.29831e-15 6.8507e-15 6.8507e-15 1.31861e-14 1.31861e-14 2.00811e-14
2.00811e-14 2.72227e-14 2.72227e-14 3.43381e-14 3.43381e-14 4.64621e-14 4.64621e-14 7.25811e-14 7.25811e-14 9.02159e-14
9.02159e-14 0.0449445 0.0449445 0.31852 0.31852 2.76259e-07 2.76259e-07 4.16432e-07 4.16432e-07 0.102139
0.102139 0.503769 0.503769 0.82492 0.82492 0.846573 0.846573 0.846209 0.846209 0.846201
0.846201 0.846544 0.846544 0.722592 0.722592 0.5729 0.5729 1 1 1
1 1 1 1 1 1 1 0.999999 0.999999 0.999999
0.999999 1 1 1 1 1 1 0.823438 0.823438 0.330742
0.330742 1.50261e-12 1.50261e-12 1.13341e-11 1.13341e-11 5.17065e-11 5.17065e-11 1.49727e-10 1.49727e-10 2.78173e-10
2.78173e-10 3.41125e-10 3.41125e-10 8.32851e-07 8.32851e-07 2.10845e-05 2.10845e-05 0.000298831 0.000298831 0.000551182
0.000551182 0.00757665 0.00757665 
p_rgh 1 384 float
0 -0.0227655 -0.0227655 0 -0.0569044 -0.0569044 -0.0734746 -0.0734746 -0.0874703 -0.0874703 0.0408913
0.0408913 0.164625 0.164625 0.915174 0.915174 1.90657 1.90657 1.54403 1.54403 0.433485
0.433485 -0.00139135 -0.00139135 0.20892 0.20892 0.512457 0.512457 1.07771 1.07771 2.32443
2.32443 3.31575 3.31575 3.32124 3.32124 2.22053 2.22053 1.5695 1.5695 1.61386
1.61386 1.42088 1.42088 1.74247 1.74247 2.04598 2.04598 2.11484 2.11484 0.898003
0.884024 0.884024 0.898003 0.857491 0.857491 0.830465 0.830465 0.799317 0.799317 0.765859
0.765859 0.730577 0.730577 0.692472 0.692472 0.653342 0.653342 0.615785 0.615785 0.582566
0.582566 0.555919 0.555919 0.536734 0.536734 0.522471 0.522471 0.513983 0.513983 0.507999
0.507999 0.489497 0.489497 0.445305 0.445305 0.376693 0.376693 0.3023 0.3023 0.251218
0.251218 0.230138 0.230138 0.220537 0.220537 0.214962 0.214962 0.213483 0.213483 2.85599
2.83369 2.83369 2.85599 2.79027 2.79027 2.74922 2.74922 2.70809 2.70809 2.66582
2.66582 2.62587 2.62587 2.5922 2.5922 2.56888 2.56888 2.56013 2.56013 2.57016
2.57016 2.60283 2.60283 2.66119 2.66119 2.74649 2.74649 2.85759 2.85759 2.99596
2.99596 3.16321 3.16321 3.34576 3.34576 3.51491 3.51491 3.64525 3.64525 3.72013
3.72013 3.73121 3.73121 3.68608 3.68608 3.61356 3.61356 3.57548 3.57548 2.34372
2.2863 2.2863 2.34372 2.35789 2.35789 1.67037 1.67037 1.69335 1.69335 2.53869