# vtk DataFile Version 2.0
rotor
ASCII
DATASET POLYDATA
POINTS 384 float
0.02 0 0 0.0199572 -0.00130806 0 0.0199572 -0.00130806 0.01 0.02 0
0.01 0.0198289 -0.00261052 0 0.0198289 -0.00261052 0.01 0.0196157 -0.00390181 0
0.0196157 -0.00390181 0.01 0.0193185 -0.00517638 0 0.0193185 -0.00517638 0.01 0.0189386
-0.00642879 0 0.0189386 -0.00642879 0.01 0.0184776 -0.00765367 0 0.0184776 -0.00765367
0.01 0.0179375 -0.00884577 0 0.0179375 -0.00884577 0.01 0.0173205 -0.01 0
0.0173205 -0.01 0.01 0.0166294 -0.0111114 0 0.0166294 -0.0111114 0.01 0.0158671
-0.0121752 0 0.0158671 -0.0121752 0.01 0.0150368 -0.0131869 0 0.0150368 -0.0131869
0.01 0.0141421 -0.0141421 0 0.0141421 -0.0141421 0.01 0.0131869 -0.0150368 0
0.0131869 -0.0150368 0.01 0.0121752 -0.0158671 0 0.0121752 -0.0158671 0.01 0.0111114
-0.0166294 0 0.0111114 -0.0166294 0.01 0.01 -0.0173205 0 0.01 -0.0173205
0.01 0.00884577 -0.0179375 0 0.00884577 -0.0179375 0.01 0.00765367 -0.0184776 0
0.00765367 -0.0184776 0.01 0.00642879 -0.0189386 0 0.00642879 -0.0189386 0.01 0.00517638
-0.0193185 0 0.00517638 -0.0193185 0.01 0.00390181 -0.0196157 0 0.00390181 -0.0196157
0.01 0.00261052 -0.0198289 0 0.00261052 -0.0198289 0.01 0.00130806 -0.0199572 0
0.00130806 -0.0199572 0.01 3.58979e-11 -0.02 0 3.58979e-11 -0.02 0.01 3.58979e-11
-0.02 0 -0.00130806 -0.0199572 0 -0.00130806 -0.0199572 0.01 3.58979e-11 -0.02
0.01 -0.00261052 -0.0198289 0 -0.00261052 -0.0198289 0.01 -0.00390181 -0.0196157 0
-0.00390181 -0.0196157 0.01 -0.00517638 -0.0193185 0 -0.00517638 -0.0193185 0.01 -0.00642879
-0.0189386 0 -0.00642879 -0.0189386 0.01 -0.00765367 -0.0184776 0 -0.00765367 -0.0184776
0.01 -0.00884577 -0.0179375 0 -0.00884577 -0.0179375 0.01 -0.01 -0.0173205 0
-0.01 -0.0173205 0.01 -0.0111114 -0.0166294 0 -0.0111114 -0.0166294 0.01 -0.0121752
-0.0158671 0 -0.0121752 -0.0158671 0.01 -0.0131869 -0.0150368 0 -0.0131869 -0.0150368
0.01 -0.0141421 -0.0141421 0 -0.0141421 -0.0141421 0.01 -0.0150368 -0.0131869 0
-0.0150368 -0.0131869 0.01 -0.0158671 -0.0121752 0 -0.0158671 -0.0121752 0.01 -0.0166294
-0.0111114 0 -0.0166294 -0.0111114 0.01 -0.0173205 -0.01 0 -0.0173205 -0.01
0.01 -0.0179375 -0.00884577 0 -0.0179375 -0.00884577 0.01 -0.0184776 -0.00765367 0
-0.0184776 -0.00765367 0.01 -0.0189386 -0.00642879 0 -0.0189386 -0.00642879 0.01 -0.0193185
-0.00517638 0 -0.0193185 -0.00517638 0.01 -0.0196157 -0.00390181 0 -0.0196157 -0.00390181
0.01 -0.0198289 -0.00261052 0 -0.0198289 -0.00261052 0.01 -0.0199572 -0.00130806 0
-0.0199572 -0.00130806 0.01 -0.02 7.17959e-11 0 -0.02 7.17959e-11 0.01 -0.02
7.17959e-11 0 -0.0199572 0.00130806 0 -0.0199572 0.00130806 0.01 -0.02 7.17959e-11
0.01 -0.0198289 0.00261052 0 -0.0198289 0.00261052 0.01 -0.0196157 0.00390181 0
-0.0196157 0.00390181 0.01 -0.0193185 0.00517638 0 -0.0193185 0.00517638 0.01 -0.0189386
0.00642879 0 -0.0189386 0.00642879 0.01 -0.0184776 0.00765367 0 -0.0184776 0.00765367
0.01 -0.0179375 0.00884577 0 -0.0179375 0.00884577 0.01 -0.0173205 0.01 0
-0.0173205 0.01 0.01 -0.0166294 0.0111114 0 -0.0166294 0.0111114 0.01 -0.0158671
0.0121752 0 -0.0158671 0.0121752 0.01 -0.0150368 0.0131869 0 -0.0150368 0.0131869
0.01 -0.0141421 0.0141421 0 -0.0141421 0.0141421 0.01 -0.0131869 0.0150368 0
-0.0131869 0.0150368 0.01 -0.0121752 0.0158671 0 -0.0121752 0.0158671 0.01 -0.0111114
0.0166294 0 -0.0111114 0.0166294 0.01 -0.01 0.0173205 0 -0.01 0.0173205
0.01 -0.00884577 0.0179375 0 -0.00884577 0.0179375 0.01 -0.00765367 0.0184776 0
-0.00765367 0.0184776 0.01 -0.00642879 0.0189386 0 -0.00642879 0.0189386 0.01 -0.00517638
0.0193185 0 -0.00517638 0.0193185 0.01 -0.00390181 0.0196157 0 -0.00390181 0.0196157
0.01 -0.00261052 0.0198289 0 -0.00261052 0.0198289 0.01 -0.00130806 0.0199572 0
-0.00130806 0.0199572 0.01 3.58979e-11 0.02 0 3.58979e-11 0.02 0.01 3.58979e-11
0.02 0 0.00130806 0.0199572 0 0.00130806 0.0199572 0.01 3.58979e-11 0.02
0.01 0.00261052 0.0198289 0 0.00261052 0.0198289 0.01 0.00390181 0.0196157 0
0.00390181 0.0196157 0.01 0.00517638 0.0193185 0 0.00517638 0.0193185 0.01 0.00642879
0.0189386 0 0.00642879 0.0189386 0.01 0.00765367 0.0184776 0 0.00765367 0.0184776
0.01 0.00884577 0.0179375 0 0.00884577 0.0179375 0.01 0.01 0.0173205 0
0.01 0.0173205 0.01 0.0111114 0.0166294 0 0.0111114 0.0166294 0.01 0.0121752
0.0158671 0 0.0121752 0.0158671 0.01 0.0131869 0.0150368 0 0.0131869 0.0150368
0.01 0.0141421 0.0141421 0 0.0141421 0.0141421 0.01 0.0150368 0.0131869 0
0.0150368 0.0131869 0.01 0.0158671 0.0121752 0 0.0158671 0.0121752 0.01 0.0166294
0.0111114 0 0.0166294 0.0111114 0.01 0.0173205 0.01 0 0.0173205 0.01
0.01 0.0179375 0.00884577 0 0.0179375 0.00884577 0.01 0.0184776 0.00765367 0
0.0184776 0.00765367 0.01 0.0189386 0.00642879 0 0.0189386 0.00642879 0.01 0.0193185
0.00517638 0 0.0193185 0.00517638 0.01 0.0196157 0.00390181 0 0.0196157 0.00390181
0.01 0.0198289 0.00261052 0 0.0198289 0.00261052 0.01 0.0199572 0.00130806 0
0.0199572 0.00130806 0.01 0.02 0 0 0.02 0 0.01 0.0225
0 0.01 0.0225 0 0 0.025 0 0.01 0.025 0
0 0.0275 0 0.01 0.0275 0 0 0.03 0 0.01
0.03 0 0 0.0325 0 0.01 0.0325 0 0 0.035
0 0.01 0.035 0 0 0.0375 0 0.01 0.0375 0
0 0.04 0 0.01 0.04 0 0 0.0425 0 0.01
0.0425 0 0 0.045 0 0.01 0.045 0 0 0.0475
0 0.01 0.0475 0 0 0.05 0 0.01 0.05 0
0 0.0225 0 0 0.0225 0 0.01 0.025 0 0
0.025 0 0.01 0.0275 0 0 0.0275 0 0.01 0.03
0 0 0.03 0 0.01 0.0325 0 0 0.0325 0
0.01 0.035 0 0 0.035 0 0.01 0.0375 0 0
0.0375 0 0.01 0.04 0 0 0.04 0 0.01 0.0425
0 0 0.0425 0 0.01 0.045 0 0 0.045 0
0.01 0.0475 0 0 0.0475 0 0.01 4.03852e-11 -0.0225 0.01
4.03852e-11 -0.0225 0 4.48724e-11 -0.025 0.01 4.48724e-11 -0.025 0 4.93597e-11
-0.0275 0.01 4.93597e-11 -0.0275 0 5.38469e-11 -0.03 0.01 5.38469e-11 -0.03
0 5.83341e-11 -0.0325 0.01 5.83341e-11 -0.0325 0 6.28214e-11 -0.035 0.01
6.28214e-11 -0.035 0 6.73086e-11 -0.0375 0.01 6.73086e-11 -0.0375 0 7.17959e-11
-0.04 0.01 7.17959e-11 -0.04 0 7.62831e-11 -0.0425 0.01 7.62831e-11 -0.0425
0 8.07704e-11 -0.045 0.01 8.07704e-11 -0.045 0 8.52576e-11 -0.0475 0.01
8.52576e-11 -0.0475 0 8.97448e-11 -0.05 0.01 8.97448e-11 -0.05 0 4.03852e-11
-0.0225 0 4.03852e-11 -0.0225 0.01 4.48724e-11 -0.025 0 4.48724e-11 -0.025
0.01 4.93597e-11 -0.0275 0 4.93597e-11 -0.0275 0.01 5.38469e-11 -0.03 0
5.38469e-11 -0.03 0.01 5.83341e-11 -0.0325 0 5.83341e-11 -0.0325 0.01 6.28214e-11
-0.035 0 6.28214e-11 -0.035 0.01 6.73086e-11 -0.0375 0 6.73086e-11 -0.0375
0.01 7.17959e-11 -0.04 0 7.17959e-11 -0.04 0.01 7.62831e-11 -0.0425 0
7.62831e-11 -0.0425 0.01 8.07703e-11 -0.045 0 8.07703e-11 -0.045 0.01 8.52576e-11
-0.0475 0 8.52576e-11 -0.0475 0.01 -0.0225 8.07704e-11 0.01 -0.0225 8.07704e-11
0 -0.025 8.97448e-11 0.01 -0.025 8.97448e-11 0 -0.0275 9.87193e-11 0.01
-0.0275 9.87193e-11 0 -0.03 1.07694e-10 0.01 -0.03 1.07694e-10 0 -0.0325
1.16668e-10 0.01 -0.0325 1.16668e-10 0 -0.035 1.25643e-10 0.01 -0.035 1.25643e-10
0 -0.0375 1.34617e-10 0.01 -0.0375 1.34617e-10 0 -0.04 1.43592e-10 0.01
-0.04 1.43592e-10 0 -0.0425 1.52566e-10 0.01 -0.0425 1.52566e-10 0 -0.045
1.61541e-10 0.01 -0.045 1.61541e-10 0 -0.0475 1.70515e-10 0.01 -0.0475 1.70515e-10
0 -0.05 1.7949e-10 0.01 -0.05 1.7949e-10 0 -0.0225 8.07704e-11 0
-0.0225 8.07704e-11 0.01 -0.025 8.97448e-11 0 -0.025 8.97448e-11 0.01 -0.0275
9.87193e-11 0 -0.0275 9.87193e-11 0.01 -0.03 1.07694e-10 0 -0.03 1.07694e-10
0.01 -0.0325 1.16668e-10 0 -0.0325 1.16668e-10 0.01 -0.035 1.25643e-10 0
-0.035 1.25643e-10 0.01 -0.0375 1.34617e-10 0 -0.0375 1.34617e-10 0.01 -0.04
1.43592e-10 0 -0.04 1.43592e-10 0.01 -0.0425 1.52566e-10 0 -0.0425 1.52566e-10
0.01 -0.045 1.61541e-10 0 -0.045 1.61541e-10 0.01 -0.0475 1.70515e-10 0
-0.0475 1.70515e-10 0.01 4.03852e-11 0.0225 0.01 4.03852e-11 0.0225 0 4.48724e-11
0.025 0.01 4.48724e-11 0.025 0 4.93597e-11 0.0275 0.01 4.93597e-11 0.0275
0 5.38469e-11 0.03 0.01 5.38469e-11 0.03 0 5.83341e-11 0.0325 0.01
5.83341e-11 0.0325 0 6.28214e-11 0.035 0.01 6.28214e-11 0.035 0 6.73086e-11
0.0375 0.01 6.73086e-11 0.0375 0 7.17959e-11 0.04 0.01 7.17959e-11 0.04
0 7.62831e-11 0.0425 0.01 7.62831e-11 0.0425 0 8.07704e-11 0.045 0.01
8.07704e-11 0.045 0 8.52576e-11 0.0475 0.01 8.52576e-11 0.0475 0 8.97448e-11
0.05 0.01 8.97448e-11 0.05 0 4.03852e-11 0.0225 0 4.03852e-11 0.0225
0.01 4.48724e-11 0.025 0 4.48724e-11 0.025 0.01 4.93597e-11 0.0275 0
4.93597e-11 0.0275 0.01 5.38469e-11 0.03 0 5.38469e-11 0.03 0.01 5.83341e-11
0.0325 0 5.83341e-11 0.0325 0.01 6.28214e-11 0.035 0 6.28214e-11 0.035
0.01 6.73086e-11 0.0375 0 6.73086e-11 0.0375 0.01 7.17959e-11 0.04 0
7.17959e-11 0.04 0.01 7.62831e-11 0.0425 0 7.62831e-11 0.0425 0.01 8.07703e-11
0.045 0 8.07703e-11 0.045 0.01 8.52576e-11 0.0475 0 8.52576e-11 0.0475
0.01 
POLYGONS 192 960
4 0 1 2 3 4 1 4 5 2 4
4 6 7 5 4 6 8 9 7 4
8 10 11 9 4 10 12 13 11 4
12 14 15 13 4 14 16 17 15 4
16 18 19 17 4 18 20 21 19 4
20 22 23 21 4 22 24 25 23 4
24 26 27 25 4 26 28 29 27 4
28 30 31 29 4 30 32 33 31 4
32 34 35 33 4 34 36 37 35 4
36 38 39 37 4 38 40 41 39 4
40 42 43 41 4 42 44 45 43 4
44 46 47 45 4 46 48 49 47 4
50 51 52 53 4 51 54 55 52 4
54 56 57 55 4 56 58 59 57 4
58 60 61 59 4 60 62 63 61 4
62 64 65 63 4 64 66 67 65 4
66 68 69 67 4 68 70 71 69 4
70 72 73 71 4 72 74 75 73 4
74 76 77 75 4 76 78 79 77 4
78 80 81 79 4 80 82 83 81 4
82 84 85 83 4 84 86 87 85 4
86 88 89 87 4 88 90 91 89 4
90 92 93 91 4 92 94 95 93 4
94 96 97 95 4 96 98 99 97 4
100 101 102 103 4 101 104 105 102 4
104 106 107 105 4 106 108 109 107 4
108 110 111 109 4 110 112 113 111 4
112 114 115 113 4 114 116 117 115 4
116 118 119 117 4 118 120 121 119 4
120 122 123 121 4 122 124 125 123 4
124 126 127 125 4 126 128 129 127 4
128 130 131 129 4 130 132 133 131 4
132 134 135 133 4 134 136 137 135 4
136 138 139 137 4 138 140 141 139 4
140 142 143 141 4 142 144 145 143 4
144 146 147 145 4 146 148 149 147 4
150 151 152 153 4 151 154 155 152 4
154 156 157 155 4 156 158 159 157 4
158 160 161 159 4 160 162 163 161 4
162 164 165 163 4 164 166 167 165 4
166 168 169 167 4 168 170 171 169 4
170 172 173 171 4 172 174 175 173 4
174 176 177 175 4 176 178 179 177 4
178 180 181 179 4 180 182 183 181 4
182 184 185 183 4 184 186 187 185 4
186 188 189 187 4 188 190 191 189 4
190 192 193 191 4 192 194 195 193 4
194 196 197 195 4 196 198 199 197 4
0 3 200 201 4 201 200 202 203 4
203 202 204 205 4 205 204 206 207 4
207 206 208 209 4 209 208 210 211 4
211 210 212 213 4 213 212 214 215 4
215 214 216 217 4 217 216 218 219 4
219 218 220 221 4 221 220 222 223 4
198 224 225 199 4 224 226 227 225 4
226 228 229 227 4 228 230 231 229 4
230 232 233 231 4 232 234 235 233 4
234 236 237 235 4 236 238 239 237 4
238 240 241 239 4 240 242 243 241 4
242 244 245 243 4 244 223 222 245 4
50 53 246 247 4 247 246 248 249 4
249 248 250 251 4 251 250 252 253 4
253 252 254 255 4 255 254 256 257 4
257 256 258 259 4 259 258 260 261 4
261 260 262 263 4 263 262 264 265 4
265 264 266 267 4 267 266 268 269 4
48 270 271 49 4 270 272 273 271 4
272 274 275 273 4 274 276 277 275 4
276 278 279 277 4 278 280 281 279 4
280 282 283 281 4 282 284 285 283 4
284 286 287 285 4 286 288 289 287 4
288 290 291 289 4 290 269 268 291 4
100 103 292 293 4 293 292 294 295 4
295 294 296 297 4 297 296 298 299 4
299 298 300 301 4 301 300 302 303 4
303 302 304 305 4 305 304 306 307 4
307 306 308 309 4 309 308 310 311 4
311 310 312 313 4 313 312 314 315 4
98 316 317 99 4 316 318 319 317 4
318 320 321 319 4 320 322 323 321 4
322 324 325 323 4 324 326 327 325 4
326 328 329 327 4 328 330 331 329 4
330 332 333 331 4 332 334 335 333 4
334 336 337 335 4 336 315 314 337 4
150 153 338 339 4 339 338 340 341 4
341 340 342 343 4 343 342 344 345 4
345 344 346 347 4 347 346 348 349 4
349 348 350 351 4 351 350 352 353 4
353 352 354 355 4 355 354 356 357 4
357 356 358 359 4 359 358 360 361 4
148 362 363 149 4 362 364 365 363 4
364 366 367 365 4 366 368 369 367 4
368 370 371 369 4 370 372 373 371 4
372 374 375 373 4 374 376 377 375 4
376 378 379 377 4 378 380 381 379 4
380 382 383 381 4 382 361 360 383 
CELL_DATA 192
FIELD attributes 5
patchID 1 192 float
0 0 0 0 0 0 0 0 0 0 0
0 0 0 0 0 0 0 0 0 0
0 0 0 0 0 0 0 0 0 0
0 0 0 0 0 0 0 0 0 0
0 0 0 0 0 0 0 0 0 0
0 0 0 0 0 0 0 0 0 0
0 0 0 0 0 0 0 0 0 0
0 0 0 0 0 0 0 0 0 0
0 0 0 0 0 0 0 0 0 0
0 0 0 0 0 0 0 0 0 0
0 0 0 0 0 0 0 0 0 0
0 0 0 0 0 0 0 0 0 0
0 0 0 0 0 0 0 0 0 0
0 0 0 0 0 0 0 0 0 0
0 0 0 0 0 0 0 0 0 0
0 0 0 0 0 0 0 0 0 0
0 0 0 0 0 0 0 0 0 0
0 0 0 0 0 0 0 0 0 0
0 0 0 0 0 0 0 0 0 0
0 
p 1 192 float
0 -0.0411846 -0.0867531 -0.13367 -0.21524 1.71727 0.307261 1.64177 0.222328 1.86103 2.15107
2.23564 1.0772 0.645191 0.911262 1.23471 1.5957 1.98808 4.29511 4.0956 4.88841
4.36893 5.02104 5.77938 -1.70288 -1.73329 -1.76546 -1.80263 -1.84051 -1.88416 -1.9314
-1.97814 -2.01865 -2.04523 -2.04844 -2.01823 -1.94431 -1.82099 -1.64719 -1.4338 -1.16134
-0.870447 -0.620614 -0.439348 -0.34826 -0.353474 -0.441752 -0.559064 -2.50926 -2.5503 -2.56285
-2.55761 -2.537 -2.50084 -2.44785 -2.37583 -2.28176 -2.1624 -2.01511 -1.8388 -1.63496
-1.40703 -1.15213 -0.880663 -0.594961 -0.334849 -0.116403 0.0446002 0.137066 0.160456 0.12889
0.0766891 -7.52053 -7.76401 -7.32016 -6.01618 -3.64981 -3.03089 -2.38542 -1.46667 -0.427063
0.219968 0.197873 -1.28275 -2.75981 -3.79911 -4.55607 -5.12913 -5.54892 -5.84553 -6.06105
-6.20183 -6.26805 -6.25774 -6.19544 -6.08656 0 1.51462 2.80006 4.2673 5.81586
7.44846 9.17907 11.0207 12.9783 15.0222 17.0374 18.8771 -6.08656 -3.40785 -0.940344
2.85458 6.57145 9.54952 11.7121 13.8321 17.6885 21.4743 25.7261 30.5383 -1.70288
-0.23682 0.993297 2.39183 3.87083 5.42278 7.03265 8.67343 10.2954 11.7684 12.7728
12.8645 5.77938 6.35781 9.4196 6.55068 8.7759 9.93549 14.0054 20.4316 25.2637
28.4847 31.1897 30.8235 -2.50926 -1.07235 0.108324 1.38134 2.71732 4.11074 5.5512
7.0159 8.45692 9.7491 10.6412 10.8245 -0.559064 0.569473 1.78549 3.40213 5.67047
9.35957 14.0915 16.4717 22.5185 27.708 32.2398 33.1874 -7.52053 -6.11326 -5.25213
-4.56211 -3.4995 -1.7395 0.706784 3.84757 7.47365 11.3767 15.3381 18.2903 0.0766891
1.32264 2.58242 4.06582 5.76307 7.68999 9.86511 12.3004 14.993 17.9219 21.0084
23.9724 
alpha.water 1 192 float
9.94141e-14 3.54941e-12 2.75914e-11 2.76122e-11 0.023567 0.0766901 0.055261 2.24436e-06 0.0454633 0.126661 0.126661
0.126661 0.0746895 1.06911e-10 2.57711e-07 1.62563e-06 1.5367e-08 0.0469186 0.12015 0.0595784 0.0385368
0.0532517 0.0356138 0.0227312 7.21486e-15 3.70489e-14 5.54064e-15 1.28394e-13 8.05115e-13 8.05117e-13 8.08147e-13
3.79433e-11 3.2136e-08 1.99193e-07 2.09367e-07 2.16515e-07 2.21369e-07 1.78671e-05 4.89371e-05 3.21252e-05 2.11271e-10
5.65347e-07 5.83572e-06 8.14558e-06 3.50337e-06 1.21446e-10 5.79786e-11 6.70803e-12 5.7026e-21 8.12512e-19 3.2472e-17
4.86723e-16 3.70604e-15 1.68789e-14 5.1388e-14 1.14356e-13 2.01716e-13 3.03262e-13 4.11545e-13 5.25219e-13 6.50856e-13
8.09323e-13 1.0514e-12 1.49538e-12 2.20133e-12 3.09973e-12 4.07106e-12 4.79466e-12 4.71303e-12 3.3245e-12 1.20377e-12
5.6628e-14 1 1 1 1 0.991144 0.888409 0.822853 0.805108 0.863841
0.928675 0.991191 1 1 1 0.999961 0.999884 0.999654 0.999471 0.999471
0.999862 1 1 1 0.999999 9.94141e-14 1.18583e-13 1.6562e-07 3.07128e-08 1.27441e-09
1.28523e-09 1.83781e-06 6.45171e-07 5.18999e-10 3.73658e-07 2.9768e-07 8.51845e-11 0.999999 1 0.999426
0.832759 0.757229 0.757229 0.793525 0.981047 1 0.997226 0.997812 0.998312 7.21486e-15
3.12948e-13 1.76989e-12 2.82689e-11 6.23567e-12 6.47425e-12 8.58404e-12 1.14812e-11 1.49262e-11 1.69327e-11 1.38419e-11
3.32641e-15 0.0227312 0.20096 0.25169 0.013377 0.00979586 0.0575515 0.504082 0.888076 0.999747
0.999747 0.989999 0.848346 5.7026e-21 7.28343e-17 5.74379e-16 1.89322e-15 3.94756e-15 6.55915e-15 9.33337e-15
1.16732e-14 5.81001e-14 1.49211e-13 1.5853e-13 1.56945e-13 6.70803e-12 5.21325e-11 7.67553e-06 0.000112231 8.14557e-05
5.71341e-10 0.220603 0.817466 0.839394 0.839373 0.839373 0.839346 1 0.999998 1
1 0.999991 0.999989 0.999999 1 1 1 1 0.486058 5.6628e-14
6.22103e-13 2.3697e-12 8.24858e-12 2.9762e-11 9.38762e-11 2.3474e-10 4.51399e-10 6.72685e-10 6.99249e-10 1.4111e-06
0.000333517 
p_rgh 1 192 float
0 -0.0411846 -0.0867531 -0.13367 -0.21524 1.71727 0.307261 1.64177 0.222328 1.86103 2.15107
2.23564 1.0772 0.645191 0.911262 1.23471 1.5957 1.98808 4.29511 4.0956 4.88841
4.36893 5.02104 5.77938 -1.70288 -1.73329 -1.76546 -1.80263 -1.84051 -1.88416 -1.9314
-1.97814 -2.01865 -2.04523 -2.04844 -2.01823 -1.94431 -1.82099 -1.64719 -1.4338 -1.16134
-0.870447 -0.620614 -0.439348 -0.34826 -0.353474 -0.441752 -0.559064 -2.50926 -2.5503 -2.56285
-2.55761 -2.537 -2.50084 -2.44785 -2.37583 -2.28176 -2.1624 -2.01511 -1.8388 -1.63496
-1.40703 -1.15213 -0.880663 -0.594961 -0.334849 -0.116403 0.0446002 0.137066 0.160456 0.12889
0.0766891 -7.52053 -7.76401 -7.32016 -6.01618 -3.64981 -3.03089 -2.38542 -1.46667 -0.427063
0.219968 0.197873 -1.28275 -2.75981 -3.79911 -4.55607 -5.12913 -5.54892 -5.84553 -6.06105
-6.20183 -6.26805 -6.25774 -6.19544 -6.08656 0 1.51462 2.80006 4.2673 5.81586
7.44846 9.17907 11.0207 12.9783 15.0222 17.0374 18.8771 -6.08656 -3.40785 -0.940344
2.85458 6.57145 9.54952 11.7121 13.8321 17.6885 21.4743 25.7261 30.5383 -1.70288
-0.23682 0.993297 2.39183 3.87083 5.42278 7.03265 8.67343 10.2954 11.7684 12.7728
12.8645 5.77938 6.35781 9.4196 6.55068 8.7759 9.93549 14.0054 20.4316 25.2637
28.4847 31.1897 30.8235 -2.50926 -1.07235 0.108324 1.38134 2.71732 4.11074 5.5512
7.0159 8.45692 9.7491 10.6412 10.8245 -0.559064 0.569473 1.78549 3.40213 5.67047
9.35957 14.0915 16.4717 22.5185 27.708 32.2398 33.1874 -7.52053 -6.11326 -5.25213
-4.56211 -3.4995 -1.7395 0.706784 3.84757 7.47365 11.3767 15.3381 18.2903 0.0766891
1.32264 2.58242 4.06582 5.76307 7.68999 9.86511 12.3004 14.993 17.9219 21.0084
23.9724 
U 3 192 float
0.0041094 0.125529 0 0.0123106 0.124992 0 0.0204591 0.123919 0 0.02852 0.122315
0 0.0364587 0.120188 0 0.0442413 0.117546 0 0.0518345 0.114401 0
0.0592057 0.110766 0 0.0663234 0.106657 0 0.0731571 0.102091 0 0.0796775
0.0970873 0 0.0858567 0.0916683 0 0.0916683 0.0858567 0 0.0970873 0.0796775
0 0.102091 0.0731571 0 0.106657 0.0663234 0 0.110766 0.0592057 0
0.114401 0.0518345 0 0.117546 0.0442413 0 0.120188 0.0364587 0 0.122315
0.02852 0 0.123919 0.0204591 0 0.124992 0.0123106 0 0.125529 0.0041094
0 0.125529 -0.0041094 0 0.124992 -0.0123106 0 0.123919 -0.0204591 0
0.122315 -0.02852 0 0.120188 -0.0364587 0 0.117546 -0.0442413 0 0.114401
-0.0518345 0 0.110766 -0.0592057 0 0.106657 -0.0663234 0 0.102091 -0.0731571
0 0.0970873 -0.0796775 0 0.0916683 -0.0858567 0 0.0858567 -0.0916683 0
0.0796775 -0.0970873 0 0.0731571 -0.102091 0 0.0663234 -0.106657 0 0.0592057
-0.110766 0 0.0518345 -0.114401 0 0.0442413 -0.117546 0 0.0364587 -0.120188
0 0.02852 -0.122315 0 0.0204591 -0.123919 0 0.0123106 -0.124992 0
0.0041094 -0.125529 0 -0.0041094 -0.125529 0 -0.0123106 -0.124992 0 -0.0204591
-0.123919 0 -0.02852 -0.122315 0 -0.0364587 -0.120188 0 -0.0442413 -0.117546
0 -0.0518345 -0.114401 0 -0.0592057 -0.110766 0 -0.0663234 -0.106657 0
-0.0731571 -0.102091 0 -0.0796775 -0.0970873 0 -0.0858567 -0.0916683 0 -0.0916683
-0.0858567 0 -0.0970873 -0.0796775 0 -0.102091 -0.0731571 0 -0.106657 -0.0663234
0 -0.110766 -0.0592057 0 -0.114401 -0.0518345 0 -0.117546 -0.0442413 0
-0.120188 -0.0364587 0 -0.122315 -0.02852 0 -0.123919 -0.0204591 0 -0.124992
-0.0123106 0 -0.125529 -0.0041094 0 -0.125529 0.0041094 0 -0.124992 0.0123106
0 -0.123919 0.0204591 0 -0.122315 0.02852 0 -0.120188 0.0364587 0
-0.117546 0.0442413 0 -0.114401 0.0518345 0 -0.110766 0.0592057 0 -0.106657
0.0663234 0 -0.102091 0.0731571 0 -0.0970873 0.0796775 0 -0.0916683 0.0858567
0 -0.0858567 0.0916683 0 -0.0796775 0.0970873 0 -0.0731571 0.102091 0
-0.0663234 0.106657 0 -0.0592057 0.110766 0 -0.0518345 0.114401 0 -0.0442413
0.117546 0 -0.0364587 0.120188 0 -0.02852 0.122315 0 -0.0204591 0.123919
0 -0.0123106 0.124992 0 -0.0041094 0.125529 0 0 0.133518 0
0 0.149226 0 0 0.164934 0 0 0.180642 0 0
0.19635 0 0 0.212058 0 0 0.227765 0 0 0.243473
0 0 0.259181 0 0 0.274889 0 0 0.290597 0
0 0.306305 0 0 0.133518 0 0 0.149226 0 0
0.164934 0 0 0.180642 0 0 0.19635 0 0 0.212058
0 0 0.227765 0 0 0.243473 0 0 0.259181 0
0 0.274889 0 0 0.290597 0 0 0.306305 0 0.133518
2.3965e-10 0 0.149226 2.67845e-10 0 0.164934 2.96039e-10 0 0.180642 3.24233e-10
0 0.19635 3.52427e-10 0 0.212058 3.80621e-10 0 0.227765 4.08815e-10 0
0.243473 4.3701e-10 0 0.259181 4.65204e-10 0 0.274889 4.93398e-10 0 0.290597
5.21592e-10 0 0.306305 5.49786e-10 0 0.133518 2.3965e-10 0 0.149226 2.67845e-10
0 0.164934 2.96039e-10 0 0.180642 3.24233e-10 0 0.19635 3.52427e-10 0
0.212058 3.80621e-10 0 0.227765 4.08815e-10 0 0.243473 4.3701e-10 0 0.259181
4.65204e-10 0 0.274889 4.93398e-10 0 0.290597 5.21592e-10 0 0.306305 5.49786e-10
0 -4.79301e-10 -0.133518 0 -5.35689e-10 -0.149226 0 -5.92078e-10 -0.164934 0
-6.48466e-10 -0.180642 0 -7.04854e-10 -0.19635 0 -7.61243e-10 -0.212058 0 -8.17631e-10
-0.227765 0 -8.74019e-10 -0.243473 0 -9.30408e-10 -0.259181 0 -9.86796e-10 -0.274889
0 -1.04318e-09 -0.290597 0 -1.09957e-09 -0.306305 0 -4.79301e-10 -0.133518 0
-5.35689e-10 -0.149226 0 -5.92078e-10 -0.164934 0 -6.48466e-10 -0.180642 0 -7.04854e-10
-0.19635 0 -7.61243e-10 -0.212058 0 -8.17631e-10 -0.227765 0 -8.74019e-10 -0.243473
0 -9.30408e-10 -0.259181 0 -9.86796e-10 -0.274889 0 -1.04318e-09 -0.290597 0
-1.09957e-09 -0.306305 0 -0.133518 2.3965e-10 0 -0.149226 2.67845e-10 0 -0.164934
2.96039e-10 0 -0.180642 3.24233e-10 0 -0.19635 3.52427e-10 0 -0.212058 3.80621e-10
0 -0.227765 4.08815e-10 0 -0.243473 4.3701e-10 0 -0.259181 4.65204e-10 0
-0.274889 4.93398e-10 0 -0.290597 5.21592e-10 0 -0.306305 5.49786e-10 0 -0.133518
2.3965e-10 0 -0.149226 2.67845e-10 0 -0.164934 2.96039e-10 0 -0.180642 3.24233e-10
0 -0.19635 3.52427e-10 0 -0.212058 3.80621e-10 0 -0.227765 4.08815e-10 0
-0.243473 4.3701e-10 0 -0.259181 4.65204e-10 0 -0.274889 4.93398e-10 0 -0.290597
5.21592e-10 0 -0.306305 5.49786e-10 0 
POINT_DATA  384
FIELD attributes 4
p 1 384 float
0 -0.0205923 -0.0205923 0 -0.0639689 -0.0639689 -0.110212 -0.110212 -0.174455 -0.174455 0.751015
0.751015 1.01227 1.01227 0.974515 0.974515 0.932049 0.932049 1.04168 1.04168 2.00605
2.00605 2.19336 2.19336 1.65642 1.65642 0.861196 0.861196 0.778226 0.778226 1.07299
1.07299 1.41521 1.41521 1.79189 1.79189 3.14159 3.14159 4.19535 4.19535 4.492
4.492 4.62867 4.62867 4.69498 4.69498 5.40021 5.40021 5.77938 5.77938 -1.70288
-1.71809 -1.71809 -1.70288 -1.74937 -1.74937 -1.78404 -1.78404 -1.82157 -1.82157 -1.86233
-1.86233 -1.90778 -1.90778 -1.95477 -1.95477 -1.99839 -1.99839 -2.03194 -2.03194 -2.04683
-2.04683 -2.03333 -2.03333 -1.98127 -1.98127 -1.88265 -1.88265 -1.73409 -1.73409 -1.5405
-1.5405 -1.29757 -1.29757 -1.01589 -1.01589 -0.74553 -0.74553 -0.529981 -0.529981 -0.393804
-0.393804 -0.350867 -0.350867 -0.397613 -0.397613 -0.500408 -0.500408 -0.559064 -0.559064 -2.50926
-2.52978 -2.52978 -2.50926 -2.55658 -2.55658 -2.56023 -2.56023 -2.54731 -2.54731 -2.51892
-2.51892 -2.47434 -2.47434 -2.41184 -2.41184 -2.32879 -2.32879 -2.22208 -2.22208 -2.08875
-2.08875 -1.92695 -1.92695 -1.73688 -1.73688 -1.521 -1.521 -1.27958 -1.27958 -1.0164
-1.0164 -0.737812 -0.737812 -0.464905 -0.464905 -0.225626 -0.225626 -0.0359014 -0.0359014 0.0908331
0.0908331 0.148761 0.148761 0.144673 0.144673 0.10279 0.10279 0.0766891 0.0766891 -7.52053
-7.64227 -7.64227 -7.52053 -7.54209 -7.54209 -6.66817 -6.66817 -4.83299 -4.83299 -3.34035
-3.34035 -2.70815 -2.70815 -1.92604 -1.92604 -0.946867 -0.946867 -0.103547 -0.103547 0.20892
0.20892 -0.542439 -0.542439 -2.02128 -2.02128 -3.27946 -3.27946 -4.17759 -4.17759 -4.8426
-4.8426 -5.33903 -5.33903 -5.69723 -5.69723 -5.95329 -5.95329 -6.13144 -6.13144 -6.23494
-6.23494 -6.2629 -6.2629 -6.22659 -6.22659 -6.141 -6.141 -6.08656 -6.08656 0.75731
0.75731 2.15734 2.15734 3.53368 3.53368 5.04158 5.04158 6.63216 6.63216 8.31376
8.31376 10.0999 10.0999 11.9995 11.9995 14.0002 14.0002 16.0298 16.0298 17.9573
17.9573 24.7077 24.7077 -4.7472 -4.7472 -2.1741 -2.1741 0.957118 0.957118 4.71302
4.71302 8.06048 8.06048 10.6308 10.6308 12.7721 12.7721 15.7603 15.7603 19.5814
19.5814 23.6002 23.6002 28.1322 28.1322 -0.96985 -0.96985 0.378238 0.378238 1.69256
1.69256 3.13133 3.13133 4.6468 4.6468 6.22772 6.22772 7.85304 7.85304 9.48442
9.48442 11.0319 11.0319 12.2706 12.2706 12.8187 12.8187 21.844 21.844 6.06859
6.06859 7.8887 7.8887 7.98514 7.98514 7.66329 7.66329 9.35569 9.35569 11.9704
11.9704 17.2185 17.2185 22.8477 22.8477 26.8742 26.8742 29.8372 29.8372 31.0066
31.0066 -1.7908 -1.7908 -0.482013 -0.482013 0.744832 0.744832 2.04933 2.04933 3.41403
3.41403 4.83097 4.83097 6.28355 6.28355 7.73641 7.73641 9.10301 9.10301 10.1952
10.1952 10.7329 10.7329 22.006 22.006 0.0052045 0.0052045 1.17748 1.17748 2.59381
2.59381 4.5363 4.5363 7.51502 7.51502 11.7255 11.7255 15.2816 15.2816 19.4951
19.4951 25.1133 25.1133 29.9739 29.9739 32.7136 32.7136 -6.8169 -6.8169 -5.68269
-5.68269 -4.90712 -4.90712 -4.03081 -4.03081 -2.6195 -2.6195 -0.516358 -0.516358 2.27718
2.27718 5.66061 5.66061 9.42517 9.42517 13.3574 13.3574 16.8142 16.8142 21.1313
21.1313 0.699665 0.699665 1.95253 1.95253 3.32412 3.32412 4.91444 4.91444 6.72653
6.72653 8.77755 8.77755 11.0828 11.0828 13.6467 13.6467 16.4575 16.4575 19.4652
19.4652 22.4904 22.4904 
alpha.water 1 384 float
9.94141e-14 1.82441e-12 1.82441e-12 9.94141e-14 1.55704e-11 1.55704e-11 2.76018e-11 2.76018e-11 0.0117835 0.0117835 0.0501285
0.0501285 0.0659755 0.0659755 0.0276316 0.0276316 0.0227328 0.0227328 0.0860621 0.0860621 0.126661
0.126661 0.126661 0.126661 0.100675 0.100675 0.0373448 0.0373448 1.28909e-07 1.28909e-07 9.41671e-07
9.41671e-07 8.20498e-07 8.20498e-07 0.0234593 0.0234593 0.0835343 0.0835343 0.0898642 0.0898642 0.0490576
0.0490576 0.0458943 0.0458943 0.0444328 0.0444328 0.0291725 0.0291725 0.0227312 0.0227312 7.21486e-15
2.21319e-14 2.21319e-14 7.21486e-15 2.12948e-14 2.12948e-14 6.69673e-14 6.69673e-14 4.66755e-13 4.66755e-13 8.05116e-13
8.05116e-13 8.06632e-13 8.06632e-13 1.93757e-11 1.93757e-11 1.6087e-08 1.6087e-08 1.15664e-07 1.15664e-07 2.0428e-07
2.0428e-07 2.12941e-07 2.12941e-07 2.18942e-07 2.18942e-07 9.04423e-06 9.04423e-06 3.34021e-05 3.34021e-05 4.05312e-05
4.05312e-05 1.60627e-05 1.60627e-05 2.82779e-07 2.82779e-07 3.20053e-06 3.20053e-06 6.99065e-06 6.99065e-06 5.82448e-06
5.82448e-06 1.75175e-06 1.75175e-06 8.97123e-11 8.97123e-11 3.23433e-11 3.23433e-11 6.70803e-12 6.70803e-12 5.7026e-21
4.09107e-19 4.09107e-19 5.7026e-21 1.66423e-17 1.66423e-17 2.59597e-16 2.59597e-16 2.09638e-15 2.09638e-15 1.02925e-14
1.02925e-14 3.41334e-14 3.41334e-14 8.2872e-14 8.2872e-14 1.58036e-13 1.58036e-13 2.52489e-13 2.52489e-13 3.57404e-13
3.57404e-13 4.68382e-13 4.68382e-13 5.88037e-13 5.88037e-13 7.30089e-13 7.30089e-13 9.30361e-13 9.30361e-13 1.27339e-12
1.27339e-12 1.84836e-12 1.84836e-12 2.65053e-12 2.65053e-12 3.5854e-12 3.5854e-12 4.43286e-12 4.43286e-12 4.75384e-12
4.75384e-12 4.01876e-12 4.01876e-12 2.26414e-12 2.26414e-12 6.30199e-13 6.30199e-13 5.6628e-14 5.6628e-14 1
1 1 1 1 1 1 1 0.995572 0.995572 0.939776
0.939776 0.855631 0.855631 0.813981 0.813981 0.834475 0.834475 0.896258 0.896258 0.959933
0.959933 0.995596 0.995596 1 1 1 1 0.999981 0.999981 0.999923
0.999923 0.999769 0.999769 0.999563 0.999563 0.999471 0.999471 0.999667 0.999667 0.999931
0.999931 1 1 1 1 1 1 0.999999 0.999999 1.08999e-13
1.08999e-13 8.28101e-08 8.28101e-08 9.81664e-08 9.81664e-08 1.59936e-08 1.59936e-08 1.27982e-09 1.27982e-09 9.19548e-07
9.19548e-07 1.24149e-06 1.24149e-06 3.22845e-07 3.22845e-07 1.87089e-07 1.87089e-07 3.35669e-07 3.35669e-07 1.48883e-07
1.48883e-07 0.499156 0.499156 1 1 0.999713 0.999713 0.916093 0.916093 0.794994
0.794994 0.757229 0.757229 0.775377 0.775377 0.887286 0.887286 0.990524 0.990524 0.998613
0.998613 0.997519 0.997519 0.998062 0.998062 1.60081e-13 1.60081e-13 1.04142e-12 1.04142e-12 1.50194e-11
1.50194e-11 1.72523e-11 1.72523e-11 6.35496e-12 6.35496e-12 7.52914e-12 7.52914e-12 1.00326e-11 1.00326e-11 1.32037e-11
1.32037e-11 1.59295e-11 1.59295e-11 1.53873e-11 1.53873e-11 6.92261e-12 6.92261e-12 0.424173 0.424173 0.111846
0.111846 0.226325 0.226325 0.132534 0.132534 0.0115864 0.0115864 0.0336737 0.0336737 0.280817
0.280817 0.696079 0.696079 0.943911 0.943911 0.999747 0.999747 0.994873 0.994873 0.919173
0.919173 3.642e-17 3.642e-17 3.23607e-16 3.23607e-16 1.2338e-15 1.2338e-15 2.92039e-15 2.92039e-15 5.25336e-15
5.25336e-15 7.94626e-15 7.94626e-15 1.05033e-14 1.05033e-14 3.48867e-14 3.48867e-14 1.03656e-13 1.03656e-13 1.53871e-13
1.53871e-13 1.57737e-13 1.57737e-13 0.419673 0.419673 2.94203e-11 2.94203e-11 3.83779e-06 3.83779e-06 5.99533e-05
5.99533e-05 9.68434e-05 9.68434e-05 4.07281e-05 4.07281e-05 0.110302 0.110302 0.519035 0.519035 0.82843
0.82843 0.839383 0.839383 0.839373 0.839373 0.83936 0.83936 0.999999 0.999999 0.999999
0.999999 1 1 0.999996 0.999996 0.99999 0.99999 0.999994 0.999994 1
1 1 1 1 1 1 1 0.743029 0.743029 0.243196
0.243196 3.39365e-13 3.39365e-13 1.4959e-12 1.4959e-12 5.30914e-12 5.30914e-12 1.90053e-11 1.90053e-11 6.18191e-11
6.18191e-11 1.64308e-10 1.64308e-10 3.43069e-10 3.43069e-10 5.62042e-10 5.62042e-10 6.85967e-10 6.85967e-10 7.059e-07
7.059e-07 0.000167464 0.000167464 
p_rgh 1 384 float
0 -0.0205923 -0.0205923 0 -0.0639689 -0.0639689 -0.110212 -0.110212 -0.174455 -0.174455 0.751015
0.751015 1.01227 1.01227 0.974515 0.974515 0.932049 0.932049 1.04168 1.04168 2.00605
2.00605 2.19336 2.19336 1.65642 1.65642 0.861196 0.861196 0.778226 0.778226 1.07299
1.07299 1.41521 1.41521 1.79189 1.79189 3.14159 3.14159 4.19535 4.19535 4.492
4.492 4.62867 4.62867 4.69498 4.69498 5.40021 5.40021 5.77938 5.77938 -1.70288
-1.71809 -1.71809 -1.70288 -1.74937 -1.74937 -1.78404 -1.78404 -1.82157 -1.82157 -1.86233
-1.86233 -1.90778 -1.90778 -1.95477 -1.95477 -1.99839 -1.99839 -2.03194 -2.03194 -2.04683
-2.04683 -2.03333 -2.03333 -1.98127 -1.98127 -1.88265 -1.88265 -1.73409 -1.73409 -1.5405
-1.5405 -1.29757 -1.29757 -1.01589 -1.01589 -0.74553 -0.74553 -0.529981 -0.529981 -0.393804
-0.393804 -0.350867 -0.350867 -0.397613 -0.397613 -0.500408 -0.500408 -0.559064 -0.559064 -2.50926
-2.52978 -2.52978 -2.50926 -2.55658 -2.55658 -2.56023 -2.56023 -2.54731 -2.54731 -2.51892
-2.51892 -2.47434 -2.47434 -2.41184 -2.41184 -2.32879 -2.32879 -2.22208 -2.22208 -2.08875