# vtk DataFile Version 2.0
rotor
ASCII
DATASET POLYDATA
POINTS 384 float
0.1 0 0 0.0997859 -0.00654031 0 0.0997859 -0.00654031 0.05 0.1 0
0.05 0.0991445 -0.0130526 0 0.0991445 -0.0130526 0.05 0.0980785 -0.019509 0
0.0980785 -0.019509 0.05 0.0965926 -0.0258819 0 0.0965926 -0.0258819 0.05 0.094693
-0.0321439 0 0.094693 -0.0321439 0.05 0.092388 -0.0382683 0 0.092388 -0.0382683
0.05 0.0896873 -0.0442289 0 0.0896873 -0.0442289 0.05 0.0866025 -0.05 0
0.0866025 -0.05 0.05 0.083147 -0.055557 0 0.083147 -0.055557 0.05 0.0793353
-0.0608761 0 0.0793353 -0.0608761 0.05 0.075184 -0.0659346 0 0.075184 -0.0659346
0.05 0.0707107 -0.0707107 0 0.0707107 -0.0707107 0.05 0.0659346 -0.075184 0
0.0659346 -0.075184 0.05 0.0608761 -0.0793353 0 0.0608761 -0.0793353 0.05 0.055557
-0.083147 0 0.055557 -0.083147 0.05 0.05 -0.0866025 0 0.05 -0.0866025
0.05 0.0442289 -0.0896873 0 0.0442289 -0.0896873 0.05 0.0382683 -0.092388 0
0.0382683 -0.092388 0.05 0.0321439 -0.094693 0 0.0321439 -0.094693 0.05 0.0258819
-0.0965926 0 0.0258819 -0.0965926 0.05 0.019509 -0.0980785 0 0.019509 -0.0980785
0.05 0.0130526 -0.0991445 0 0.0130526 -0.0991445 0.05 0.00654031 -0.0997859 0
0.00654031 -0.0997859 0.05 1.7949e-10 -0.1 0 1.7949e-10 -0.1 0.05 1.7949e-10
-0.1 0 -0.00654031 -0.0997859 0 -0.00654031 -0.0997859 0.05 1.7949e-10 -0.1
0.05 -0.0130526 -0.0991445 0 -0.0130526 -0.0991445 0.05 -0.019509 -0.0980785 0
-0.019509 -0.0980785 0.05 -0.0258819 -0.0965926 0 -0.0258819 -0.0965926 0.05 -0.0321439
-0.094693 0 -0.0321439 -0.094693 0.05 -0.0382683 -0.092388 0 -0.0382683 -0.092388
0.05 -0.0442289 -0.0896873 0 -0.0442289 -0.0896873 0.05 -0.05 -0.0866025 0
-0.05 -0.0866025 0.05 -0.055557 -0.083147 0 -0.055557 -0.083147 0.05 -0.0608761
-0.0793353 0 -0.0608761 -0.0793353 0.05 -0.0659346 -0.075184 0 -0.0659346 -0.075184
0.05 -0.0707107 -0.0707107 0 -0.0707107 -0.0707107 0.05 -0.075184 -0.0659346 0
-0.075184 -0.0659346 0.05 -0.0793353 -0.0608761 0 -0.0793353 -0.0608761 0.05 -0.083147
-0.055557 0 -0.083147 -0.055557 0.05 -0.0866025 -0.05 0 -0.0866025 -0.05
0.05 -0.0896873 -0.0442289 0 -0.0896873 -0.0442289 0.05 -0.092388 -0.0382683 0
-0.092388 -0.0382683 0.05 -0.094693 -0.0321439 0 -0.094693 -0.0321439 0.05 -0.0965926
-0.0258819 0 -0.0965926 -0.0258819 0.05 -0.0980785 -0.019509 0 -0.0980785 -0.019509
0.05 -0.0991445 -0.0130526 0 -0.0991445 -0.0130526 0.05 -0.0997859 -0.00654031 0
-0.0997859 -0.00654031 0.05 -0.1 3.58979e-10 0 -0.1 3.58979e-10 0.05 -0.1
3.58979e-10 0 -0.0997859 0.00654031 0 -0.0997859 0.00654031 0.05 -0.1 3.58979e-10
0.05 -0.0991445 0.0130526 0 -0.0991445 0.0130526 0.05 -0.0980785 0.019509 0
-0.0980785 0.019509 0.05 -0.0965926 0.0258819 0 -0.0965926 0.0258819 0.05 -0.094693
0.0321439 0 -0.094693 0.0321439 0.05 -0.092388 0.0382683 0 -0.092388 0.0382683
0.05 -0.0896873 0.0442289 0 -0.0896873 0.0442289 0.05 -0.0866025 0.05 0
-0.0866025 0.05 0.05 -0.083147 0.055557 0 -0.083147 0.055557 0.05 -0.0793353
0.0608761 0 -0.0793353 0.0608761 0.05 -0.075184 0.0659346 0 -0.075184 0.0659346
0.05 -0.0707107 0.0707107 0 -0.0707107 0.0707107 0.05 -0.0659346 0.075184 0
-0.0659346 0.075184 0.05 -0.0608761 0.0793353 0 -0.0608761 0.0793353 0.05 -0.055557
0.083147 0 -0.055557 0.083147 0.05 -0.05 0.0866025 0 -0.05 0.0866025
0.05 -0.0442289 0.0896873 0 -0.0442289 0.0896873 0.05 -0.0382683 0.092388 0
-0.0382683 0.092388 0.05 -0.0321439 0.094693 0 -0.0321439 0.094693 0.05 -0.0258819
0.0965926 0 -0.0258819 0.0965926 0.05 -0.019509 0.0980785 0 -0.019509 0.0980785
0.05 -0.0130526 0.0991445 0 -0.0130526 0.0991445 0.05 -0.00654031 0.0997859 0
-0.00654031 0.0997859 0.05 1.7949e-10 0.1 0 1.7949e-10 0.1 0.05 1.7949e-10
0.1 0 0.00654031 0.0997859 0 0.00654031 0.0997859 0.05 1.7949e-10 0.1
0.05 0.0130526 0.0991445 0 0.0130526 0.0991445 0.05 0.019509 0.0980785 0
0.019509 0.0980785 0.05 0.0258819 0.0965926 0 0.0258819 0.0965926 0.05 0.0321439
0.094693 0 0.0321439 0.094693 0.05 0.0382683 0.092388 0 0.0382683 0.092388
0.05 0.0442289 0.0896873 0 0.0442289 0.0896873 0.05 0.05 0.0866025 0
0.05 0.0866025 0.05 0.055557 0.083147 0 0.055557 0.083147 0.05 0.0608761
0.0793353 0 0.0608761 0.0793353 0.05 0.0659346 0.075184 0 0.0659346 0.075184
0.05 0.0707107 0.0707107 0 0.0707107 0.0707107 0.05 0.075184 0.0659346 0
0.075184 0.0659346 0.05 0.0793353 0.0608761 0 0.0793353 0.0608761 0.05 0.083147
0.055557 0 0.083147 0.055557 0.05 0.0866025 0.05 0 0.0866025 0.05
0.05 0.0896873 0.0442289 0 0.0896873 0.0442289 0.05 0.092388 0.0382683 0
0.092388 0.0382683 0.05 0.094693 0.0321439 0 0.094693 0.0321439 0.05 0.0965926
0.0258819 0 0.0965926 0.0258819 0.05 0.0980785 0.019509 0 0.0980785 0.019509
0.05 0.0991445 0.0130526 0 0.0991445 0.0130526 0.05 0.0997859 0.00654031 0
0.0997859 0.00654031 0.05 0.1 0 0 0.1 0 0.05 0.1125
0 0.05 0.1125 0 0 0.125 0 0.05 0.125 0
0 0.1375 0 0.05 0.1375 0 0 0.15 0 0.05
0.15 0 0 0.1625 0 0.05 0.1625 0 0 0.175
0 0.05 0.175 0 0 0.1875 0 0.05 0.1875 0
0 0.2 0 0.05 0.2 0 0 0.2125 0 0.05
0.2125 0 0 0.225 0 0.05 0.225 0 0 0.2375
0 0.05 0.2375 0 0 0.25 0 0.05 0.25 0
0 0.1125 0 0 0.1125 0 0.05 0.125 0 0
0.125 0 0.05 0.1375 0 0 0.1375 0 0.05 0.15
0 0 0.15 0 0.05 0.1625 0 0 0.1625 0
0.05 0.175 0 0 0.175 0 0.05 0.1875 0 0
0.1875 0 0.05 0.2 0 0 0.2 0 0.05 0.2125
0 0 0.2125 0 0.05 0.225 0 0 0.225 0
0.05 0.2375 0 0 0.2375 0 0.05 2.01926e-10 -0.1125 0.05
2.01926e-10 -0.1125 0 2.24362e-10 -0.125 0.05 2.24362e-10 -0.125 0 2.46798e-10
-0.1375 0.05 2.46798e-10 -0.1375 0 2.69235e-10 -0.15 0.05 2.69235e-10 -0.15
0 2.91671e-10 -0.1625 0.05 2.91671e-10 -0.1625 0 3.14107e-10 -0.175 0.05
3.14107e-10 -0.175 0 3.36543e-10 -0.1875 0.05 3.36543e-10 -0.1875 0 3.58979e-10
-0.2 0.05 3.58979e-10 -0.2 0 3.81416e-10 -0.2125 0.05 3.81416e-10 -0.2125
0 4.03852e-10 -0.225 0.05 4.03852e-10 -0.225 0 4.26288e-10 -0.2375 0.05
4.26288e-10 -0.2375 0 4.48724e-10 -0.25 0.05 4.48724e-10 -0.25 0 2.01926e-10
-0.1125 0 2.01926e-10 -0.1125 0.05 2.24362e-10 -0.125 0 2.24362e-10 -0.125
0.05 2.46798e-10 -0.1375 0 2.46798e-10 -0.1375 0.05 2.69234e-10 -0.15 0
2.69234e-10 -0.15 0.05 2.91671e-10 -0.1625 0 2.91671e-10 -0.1625 0.05 3.14107e-10
-0.175 0 3.14107e-10 -0.175 0.05 3.36543e-10 -0.1875 0 3.36543e-10 -0.1875
0.05 3.58979e-10 -0.2 0 3.58979e-10 -0.2 0.05 3.81416e-10 -0.2125 0
3.81416e-10 -0.2125 0.05 4.03852e-10 -0.225 0 4.03852e-10 -0.225 0.05 4.26288e-10
-0.2375 0 4.26288e-10 -0.2375 0.05 -0.1125 4.03852e-10 0.05 -0.1125 4.03852e-10
0 -0.125 4.48724e-10 0.05 -0.125 4.48724e-10 0 -0.1375 4.93597e-10 0.05
-0.1375 4.93597e-10 0 -0.15 5.38469e-10 0.05 -0.15 5.38469e-10 0 -0.1625
5.83341e-10 0.05 -0.1625 5.83341e-10 0 -0.175 6.28214e-10 0.05 -0.175 6.28214e-10
0 -0.1875 6.73086e-10 0.05 -0.1875 6.73086e-10 0 -0.2 7.17959e-10 0.05
-0.2 7.17959e-10 0 -0.2125 7.62831e-10 0.05 -0.2125 7.62831e-10 0 -0.225
8.07704e-10 0.05 -0.225 8.07704e-10 0 -0.2375 8.52576e-10 0.05 -0.2375 8.52576e-10
0 -0.25 8.97448e-10 0.05 -0.25 8.97448e-10 0 -0.1125 4.03852e-10 0
-0.1125 4.03852e-10 0.05 -0.125 4.48724e-10 0 -0.125 4.48724e-10 0.05 -0.1375
4.93597e-10 0 -0.1375 4.93597e-10 0.05 -0.15 5.38469e-10 0 -0.15 5.38469e-10
0.05 -0.1625 5.83341e-10 0 -0.1625 5.83341e-10 0.05 -0.175 6.28214e-10 0
-0.175 6.28214e-10 0.05 -0.1875 6.73086e-10 0 -0.1875 6.73086e-10 0.05 -0.2
7.17959e-10 0 -0.2 7.17959e-10 0.05 -0.2125 7.62831e-10 0 -0.2125 7.62831e-10
0.05 -0.225 8.07704e-10 0 -0.225 8.07704e-10 0.05 -0.2375 8.52576e-10 0
-0.2375 8.52576e-10 0.05 2.01926e-10 0.1125 0.05 2.01926e-10 0.1125 0 2.24362e-10
0.125 0.05 2.24362e-10 0.125 0 2.46798e-10 0.1375 0.05 2.46798e-10 0.1375
0 2.69235e-10 0.15 0.05 2.69235e-10 0.15 0 2.91671e-10 0.1625 0.05
2.91671e-10 0.1625 0 3.14107e-10 0.175 0.05 3.14107e-10 0.175 0 3.36543e-10
0.1875 0.05 3.36543e-10 0.1875 0 3.58979e-10 0.2 0.05 3.58979e-10 0.2
0 3.81416e-10 0.2125 0.05 3.81416e-10 0.2125 0 4.03852e-10 0.225 0.05
4.03852e-10 0.225 0 4.26288e-10 0.2375 0.05 4.26288e-10 0.2375 0 4.48724e-10
0.25 0.05 4.48724e-10 0.25 0 2.01926e-10 0.1125 0 2.01926e-10 0.1125
0.05 2.24362e-10 0.125 0 2.24362e-10 0.125 0.05 2.46798e-10 0.1375 0
2.46798e-10 0.1375 0.05 2.69234e-10 0.15 0 2.69234e-10 0.15 0.05 2.91671e-10
0.1625 0 2.91671e-10 0.1625 0.05 3.14107e-10 0.175 0 3.14107e-10 0.175
0.05 3.36543e-10 0.1875 0 3.36543e-10 0.1875 0.05 3.58979e-10 0.2 0
3.58979e-10 0.2 0.05 3.81416e-10 0.2125 0 3.81416e-10 0.2125 0.05 4.03852e-10
0.225 0 4.03852e-10 0.225 0.05 4.26288e-10 0.2375 0 4.26288e-10 0.2375
0.05 
POLYGONS 192 960
4 0 1 2 3 4 1 4 5 2 4
4 6 7 5 4 6 8 9 7 4
8 10 11 9 4 10 12 13 11 4
12 14 15 13 4 14 16 17 15 4
16 18 19 17 4 18 20 21 19 4
20 22 23 21 4 22 24 25 23 4
24 26 27 25 4 26 28 29 27 4
28 30 31 29 4 30 32 33 31 4
32 34 35 33 4 34 36 37 35 4
36 38 39 37 4 38 40 41 39 4
40 42 43 41 4 42 44 45 43 4
44 46 47 45 4 46 48 49 47 4
50 51 52 53 4 51 54 55 52 4
54 56 57 55 4 56 58 59 57 4
58 60 61 59 4 60 62 63 61 4
62 64 65 63 4 64 66 67 65 4
66 68 69 67 4 68 70 71 69 4
70 72 73 71 4 72 74 75 73 4
74 76 77 75 4 76 78 79 77 4
78 80 81 79 4 80 82 83 81 4
82 84 85 83 4 84 86 87 85 4
86 88 89 87 4 88 90 91 89 4
90 92 93 91 4 92 94 95 93 4
94 96 97 95 4 96 98 99 97 4
100 101 102 103 4 101 104 105 102 4
104 106 107 105 4 106 108 109 107 4
108 110 111 109 4 110 112 113 111 4
112 114 115 113 4 114 116 117 115 4
116 118 119 117 4 118 120 121 119 4
120 122 123 121 4 122 124 125 123 4
124 126 127 125 4 126 128 129 127 4
128 130 131 129 4 130 132 133 131 4
132 134 135 133 4 134 136 137 135 4
136 138 139 137 4 138 140 141 139 4
140 142 143 141 4 142 144 145 143 4
144 146 147 145 4 146 148 149 147 4
150 151 152 153 4 151 154 155 152 4
154 156 157 155 4 156 158 159 157 4
158 160 161 159 4 160 162 163 161 4
162 164 165 163 4 164 166 167 165 4
166 168 169 167 4 168 170 171 169 4
170 172 173 171 4 172 174 175 173 4
174 176 177 175 4 176 178 179 177 4
178 180 181 179 4 180 182 183 181 4
182 184 185 183 4 184 186 187 185 4
186 188 189 187 4 188 190 191 189 4
190 192 193 191 4 192 194 195 193 4
194 196 197 195 4 196 198 199 197 4
0 3 200 201 4 201 200 202 203 4
203 202 204 205 4 205 204 206 207 4
207 206 208 209 4 209 208 210 211 4
211 210 212 213 4 213 212 214 215 4
215 214 216 217 4 217 216 218 219 4
219 218 220 221 4 221 220 222 223 4
198 224 225 199 4 224 226 227 225 4
226 228 229 227 4 228 230 231 229 4
230 232 233 231 4 232 234 235 233 4
234 236 237 235 4 236 238 239 237 4
238 240 241 239 4 240 242 243 241 4
242 244 245 243 4 244 223 222 245 4
50 53 246 247 4 247 246 248 249 4
249 248 250 251 4 251 250 252 253 4
253 252 254 255 4 255 254 256 257 4
257 256 258 259 4 259 258 260 261 4
261 260 262 263 4 263 262 264 265 4
265 264 266 267 4 267 266 268 269 4
48 270 271 49 4 270 272 273 271 4
272 274 275 273 4 274 276 277 275 4
276 278 279 277 4 278 280 281 279 4
280 282 283 281 4 282 284 285 283 4
284 286 287 285 4 286 288 289 287 4
288 290 291 289 4 290 269 268 291 4
100 103 292 293 4 293 292 294 295 4
295 294 296 297 4 297 296 298 299 4
299 298 300 301 4 301 300 302 303 4
303 302 304 305 4 305 304 306 307 4
307 306 308 309 4 309 308 310 311 4
311 310 312 313 4 313 312 314 315 4
98 316 317 99 4 316 318 319 317 4
318 320 321 319 4 320 322 323 321 4
322 324 325 323 4 324 326 327 325 4
326 328 329 327 4 328 330 331 329 4
330 332 333 331 4 332 334 335 333 4
334 336 337 335 4 336 315 314 337 4
150 153 338 339 4 339 338 340 341 4
341 340 342 343 4 343 342 344 345 4
345 344 346 347 4 347 346 348 349 4
349 348 350 351 4 351 350 352 353 4
353 352 354 355 4 355 354 356 357 4
357 356 358 359 4 359 358 360 361 4
148 362 363 149 4 362 364 365 363 4
364 366 367 365 4 366 368 369 367 4
368 370 371 369 4 370 372 373 371 4
372 374 375 373 4 374 376 377 375 4
376 378 379 377 4 378 380 381 379 4
380 382 383 381 4 382 361 360 383 
CELL_DATA 192
FIELD attributes 5
patchID 1 192 float
0 0 0 0 0 0 0 0 0 0 0
0 0 0 0 0 0 0 0 0 0
0 0 0 0 0 0 0 0 0 0
0 0 0 0 0 0 0 0 0 0
0 0 0 0 0 0 0 0 0 0
0 0 0 0 0 0 0 0 0 0
0 0 0 0 0 0 0 0 0 0
0 0 0 0 0 0 0 0 0 0
0 0 0 0 0 0 0 0 0 0
0 0 0 0 0 0 0 0 0 0
0 0 0 0 0 0 0 0 0 0
0 0 0 0 0 0 0 0 0 0
0 0 0 0 0 0 0 0 0 0
0 0 0 0 0 0 0 0 0 0
0 0 0 0 0 0 0 0 0 0
0 0 0 0 0 0 0 0 0 0
0 0 0 0 0 0 0 0 0 0
0 0 0 0 0 0 0 0 0 0
0 0 0 0 0 0 0 0 0 0
0 
p 1 192 float
0 -167.135 -256.413 -310.407 -348.464 -330.831 -316.718 -16.0023 98.4058 443.249 570.855
309.431 197.085 26.2161 139.135 108.97 396.447 514.171 761.875 819.1 889.819
1008.81 1062.31 1066.24 20.6266 -96.6649 -196.438 -262.413 -281.156 -205.557 17.9959
216.577 371.88 807.62 921.285 594.709 597.2 444.847 588.149 593.043 782.144
917.768 1114.44 1338.17 1443.03 1501.23 1480.21 1466.95 213.682 90.442 -25.7344
-112.299 -147.867 -86.0226 125.646 301.425 445.572 861.035 951.533 618.556 614.628
447.102 573.43 558.32 733.966 855.927 1064.12 1285.61 1375.9 1412.56 1390.57
1370.98 -241.27 -494.967 -615.539 -829.21 -801.496 -908.957 -799.23 -732.754 -568.548
50.342 366.436 -45.3307 -150.207 -424.708 -406.277 -397.399 -118.563 186.884 474.315
603.816 632.782 849.413 903.433 882.983 0 -281.599 -272.236 67.0364 417.977
669.577 764.65 899.086 956.604 1033.91 1107.31 1184.42 882.983 979.035 958.916
927.368 971.397 1119.76 1312.4 1548.19 1743.39 1917.61 2082.32 1916.94 20.6266
-65.0012 83.4203 292.013 529.403 754.26 847.847 932.693 1008.43 1099.99 1178.66
1268.83 1066.24 1131.3 1142.07 1142.82 1162.27 1221.32 1336.14 1500.19 1674.96
1839.03 1918.79 1847.63 213.682 140.614 319.351 574.279 850.018 1095.67 1197.78
1275.19 1335.15 1402.61 1469.36 1539.13 1466.95 1481.65 1519.48 1541.15 1568.27
1621.77 1701.23 1810.51 1914.8 2019.07 2093.83 2005 -241.27 -211.832 54.1453
230.993 408.911 531.207 616.384 727.095 834.264 991.215 1138.03 1287.94 1370.98
1370.22 1391.66 1398.2 1414.46 1459.12 1533.96 1642.37 1751.83 1861.58 1951.61
1859.02 
alpha.water 1 192 float
1.42659e-12 1.39816e-12 1.28824e-12 4.90439e-07 1.32259e-06 6.86451e-07 2.26053e-13 9.72345e-14 7.01753e-14 2.03199e-13 0.0461568
0.0645473 0.0206666 0.0184851 0.0161399 4.04365e-13 0.00757313 0.0348512 0.0376938 0.0139075 0.00275858
0.010732 0.00703764 3.72731e-14 8.18804e-18 2.79451e-17 3.3151e-17 2.36456e-17 1.54794e-17 9.60843e-18 5.44378e-18
2.62869e-18 2.9323e-18 1.01552e-15 1.97091e-15 2.6302e-15 3.29678e-15 4.06384e-15 4.92061e-15 5.32504e-15 5.90101e-15
5.61506e-15 4.63294e-15 3.92184e-15 2.08831e-15 1.04573e-15 7.34586e-16 1.31587e-17 3.72509e-22 1.85467e-21 2.79364e-21
1.81493e-21 1.03719e-21 5.47139e-22 2.67097e-22 1.11827e-22 3.64512e-22 3.16287e-18 9.45741e-18 1.84012e-17 3.15715e-17
5.23002e-17 8.3599e-17 1.18308e-16 1.73351e-16 2.08389e-16 2.05402e-16 1.94817e-16 7.97228e-17 1.81612e-17 8.51722e-18
5.22975e-20 1 1 1 1 1 1 1 1 1
1 1 1 1 1 1 0.994778 0.97609 0.97356 0.992505
1 1 1 1 1 1.42659e-12 8.37125e-06 0.00115717 0.0019391 0.0019391
0.00143108 0.000923335 6.79229e-05 2.53708e-09 2.53711e-09 2.512e-09 3.49749e-14 1 1 0.999879
0.92789 0.88209 0.884217 0.974432 1 0.992598 0.963134 0.936582 0.970987 8.18804e-18
2.08181e-17 3.95967e-17 5.60357e-17 1.32394e-16 1.17503e-16 4.17339e-17 3.12298e-17 1.01375e-17 4.13723e-18 1.30048e-18
4.0837e-24 3.72731e-14 1.2421e-13 0.034572 0.0669854 2.19847e-13 0.00291749 0.0162159 0.0262145 0.0411455
0.0448257 0.0269845 0.0115761 3.72509e-22 1.15779e-21 2.66881e-21 3.77857e-21 9.56557e-21 6.84274e-21 1.99009e-21
1.14242e-21 2.83554e-22 8.92747e-23 2.14573e-23 4.11919e-24 1.31587e-17 3.78721e-16 1.2821e-15 2.67815e-15 5.08546e-15
9.04459e-15 1.6122e-14 2.81956e-14 4.24367e-14 5.31739e-14 9.65547e-14 1.42442e-13 1 1 1
1 1 1 1 1 1 1 1 1 5.22975e-20
2.84851e-18 1.92277e-17 7.44141e-17 2.54359e-16 8.01141e-16 2.56186e-15 8.19332e-15 2.13885e-14 4.67016e-14 1.44864e-13
4.02477e-13 
p_rgh 1 192 float
0 -167.135 -256.413 -310.407 -348.464 -330.831 -316.718 -16.0023 98.4058 443.249 570.855
309.431 197.085 26.2161 139.135 108.97 396.447 514.171 761.875 819.1 889.819
1008.81 1062.31 1066.24 20.6266 -96.6649 -196.438 -262.413 -281.156 -205.557 17.9959
216.577 371.88 807.62 921.285 594.709 597.2 444.847 588.149 593.043 782.144
917.768 1114.44 1338.17 1443.03 1501.23 1480.21 1466.95 213.682 90.442 -25.7344
-112.299 -147.867 -86.0226 125.646 301.425 445.572 861.035 951.533 618.556 614.628
447.102 573.43 558.32 733.966 855.927 1064.12 1285.61 1375.9 1412.56 1390.57
1370.98 -241.27 -494.967 -615.539 -829.21 -801.496 -908.957 -799.23 -732.754 -568.548
50.342 366.436 -45.3307 -150.207 -424.708 -406.277 -397.399 -118.563 186.884 474.315
603.816 632.782 849.413 903.433 882.983 0 -281.599 -272.236 67.0364 417.977
669.577 764.65 899.086 956.604 1033.91 1107.31 1184.42 882.983 979.035 958.916
927.368 971.397 1119.76 1312.4 1548.19 1743.39 1917.61 2082.32 1916.94 20.6266
-65.0012 83.4203 292.013 529.403 754.26 847.847 932.693 1008.43 1099.99 1178.66
1268.83 1066.24 1131.3 1142.07 1142.82 1162.27 1221.32 1336.14 1500.19 1674.96
1839.03 1918.79 1847.63 213.682 140.614 319.351 574.279 850.018 1095.67 1197.78
1275.19 1335.15 1402.61 1469.36 1539.13 1466.95 1481.65 1519.48 1541.15 1568.27
1621.77 1701.23 1810.51 1914.8 2019.07 2093.83 2005 -241.27 -211.832 54.1453
230.993 408.911 531.207 616.384 727.095 834.264 991.215 1138.03 1287.94 1370.98
1370.22 1391.66 1398.2 1414.46 1459.12 1533.96 1642.37 1751.83 1861.58 1951.61
1859.02 
U 3 192 float
0.020547 0.627646 0 0.061553 0.624958 0 0.102295 0.619594 0 0.1426 0.611577
0 0.182294 0.600941 0 0.221207 0.587732 0 0.259173 0.572006 0
0.296029 0.553831 0 0.331617 0.533284 0 0.365786 0.510453 0 0.398388
0.485437 0 0.429284 0.458342 0 0.458342 0.429284 0 0.485437 0.398388
0 0.510453 0.365786 0 0.533284 0.331617 0 0.553831 0.296029 0
0.572006 0.259173 0 0.587732 0.221207 0 0.600941 0.182294 0 0.611577
0.1426 0 0.619594 0.102295 0 0.624958 0.061553 0 0.627646 0.020547
0 0.627646 -0.020547 0 0.624958 -0.061553 0 0.619594 -0.102295 0
0.611577 -0.1426 0 0.600941 -0.182294 0 0.587732 -0.221207 0 0.572006
-0.259173 0 0.553831 -0.296029 0 0.533284 -0.331617 0 0.510453 -0.365786
0 0.485437 -0.398388 0 0.458342 -0.429284 0 0.429284 -0.458342 0
0.398388 -0.485437 0 0.365786 -0.510453 0 0.331617 -0.533284 0 0.296029
-0.553831 0 0.259173 -0.572006 0 0.221207 -0.587732 0 0.182294 -0.600941
0 0.1426 -0.611577 0 0.102295 -0.619594 0 0.061553 -0.624958 0
0.020547 -0.627646 0 -0.020547 -0.627646 0 -0.061553 -0.624958 0 -0.102295
-0.619594 0 -0.1426 -0.611577 0 -0.182294 -0.600941 0 -0.221207 -0.587732
0 -0.259173 -0.572006 0 -0.296029 -0.553831 0 -0.331617 -0.533284 0
-0.365786 -0.510453 0 -0.398388 -0.485437 0 -0.429284 -0.458342 0 -0.458342
-0.429284 0 -0.485437 -0.398388 0 -0.510453 -0.365786 0 -0.533284 -0.331617
0 -0.553831 -0.296029 0 -0.572006 -0.259173 0 -0.587732 -0.221207 0
-0.600941 -0.182294 0 -0.611577 -0.1426 0 -0.619594 -0.102295 0 -0.624958
-0.061553 0 -0.627646 -0.020547 0 -0.627646 0.020547 0 -0.624958 0.061553
0 -0.619594 0.102295 0 -0.611577 0.1426 0 -0.600941 0.182294 0
-0.587732 0.221207 0 -0.572006 0.259173 0 -0.553831 0.296029 0 -0.533284
0.331617 0 -0.510453 0.365786 0 -0.485437 0.398388 0 -0.458342 0.429284
0 -0.429284 0.458342 0 -0.398388 0.485437 0 -0.365786 0.510453 0
-0.331617 0.533284 0 -0.296029 0.553831 0 -0.259173 0.572006 0 -0.221207
0.587732 0 -0.182294 0.600941 0 -0.1426 0.611577 0 -0.102295 0.619594
0 -0.061553 0.624958 0 -0.020547 0.627646 0 0 0.667588 0
0 0.746128 0 0 0.824668 0 0 0.903208 0 0
0.981748 0 0 1.06029 0 0 1.13883 0 0 1.21737
0 0 1.29591 0 0 1.37445 0 0 1.45299 0
0 1.53153 0 0 0.667588 0 0 0.746128 0 0
0.824668 0 0 0.903208 0 0 0.981748 0 0 1.06029
0 0 1.13883 0 0 1.21737 0 0 1.29591 0
0 1.37445 0 0 1.45299 0 0 1.53153 0 0.667588
1.19825e-09 0 0.746128 1.33922e-09 0 0.824668 1.48019e-09 0 0.903208 1.62116e-09
0 0.981748 1.76214e-09 0 1.06029 1.90311e-09 0 1.13883 2.04408e-09 0
1.21737 2.18505e-09 0 1.29591 2.32602e-09 0 1.37445 2.46699e-09 0 1.45299
2.60796e-09 0 1.53153 2.74893e-09 0 0.667588 1.19825e-09 0 0.746128 1.33922e-09
0 0.824668 1.48019e-09 0 0.903208 1.62116e-09 0 0.981748 1.76214e-09 0
1.06029 1.90311e-09 0 1.13883 2.04408e-09 0 1.21737 2.18505e-09 0 1.29591
2.32602e-09 0 1.37445 2.46699e-09 0 1.45299 2.60796e-09 0 1.53153 2.74893e-09
0 -2.3965e-09 -0.667588 0 -2.67845e-09 -0.746128 0 -2.96039e-09 -0.824668 0
-3.24233e-09 -0.903208 0 -3.52427e-09 -0.981748 0 -3.80621e-09 -1.06029 0 -4.08815e-09
-1.13883 0 -4.3701e-09 -1.21737 0 -4.65204e-09 -1.29591 0 -4.93398e-09 -1.37445
0 -5.21592e-09 -1.45299 0 -5.49786e-09 -1.53153 0 -2.3965e-09 -0.667588 0
-2.67845e-09 -0.746128 0 -2.96039e-09 -0.824668 0 -3.24233e-09 -0.903208 0 -3.52427e-09
-0.981748 0 -3.80621e-09 -1.06029 0 -4.08815e-09 -1.13883 0 -4.3701e-09 -1.21737
0 -4.65204e-09 -1.29591 0 -4.93398e-09 -1.37445 0 -5.21592e-09 -1.45299 0
-5.49786e-09 -1.53153 0 -0.667588 1.19825e-09 0 -0.746128 1.33922e-09 0 -0.824668
1.48019e-09 0 -0.903208 1.62116e-09 0 -0.981748 1.76214e-09 0 -1.06029 1.90311e-09
0 -1.13883 2.04408e-09 0 -1.21737 2.18505e-09 0 -1.29591 2.32602e-09 0
-1.37445 2.46699e-09 0 -1.45299 2.60796e-09 0 -1.53153 2.74893e-09 0 -0.667588
1.19825e-09 0 -0.746128 1.33922e-09 0 -0.824668 1.48019e-09 0 -0.903208 1.62116e-09
0 -0.981748 1.76214e-09 0 -1.06029 1.90311e-09 0 -1.13883 2.04408e-09 0
-1.21737 2.18505e-09 0 -1.29591 2.32602e-09 0 -1.37445 2.46699e-09 0 -1.45299
2.60796e-09 0 -1.53153 2.74893e-09 0 
POINT_DATA  384
FIELD attributes 4
p 1 384 float
0 -83.5675 -83.5675 0 -211.774 -211.774 -283.41 -283.41 -329.435 -329.435 -339.647
-339.647 -323.775 -323.775 -166.36 -166.36 41.2018 41.2018 270.827 270.827 507.052
507.052 440.143 440.143 253.258 253.258 111.651 111.651 82.6756 82.6756 124.052
124.052 252.708 252.708 455.309 455.309 638.023 638.023 790.487 790.487 854.459
854.459 949.315 949.315 1035.56 1035.56 1064.28 1064.28 1066.24 1066.24 20.6266
-38.0191 -38.0191 20.6266 -146.551 -146.551 -229.426 -229.426 -271.784 -271.784 -243.357
-243.357 -93.7805 -93.7805 117.286 117.286 294.228 294.228 589.75 589.75 864.453
864.453 757.997 757.997 595.955 595.955 521.023 521.023 516.498 516.498 590.596
590.596 687.594 687.594 849.956 849.956 1016.1 1016.1 1226.31 1226.31 1390.6
1390.6 1472.13 1472.13 1490.72 1490.72 1473.58 1473.58 1466.95 1466.95 213.682
152.062 152.062 213.682 32.3538 32.3538 -69.0167 -69.0167 -130.083 -130.083 -116.945
-116.945 19.8117 19.8117 213.536 213.536 373.499 373.499 653.304 653.304 906.284
906.284 785.044 785.044 616.592 616.592 530.865 530.865 510.266 510.266 565.875
565.875 646.143 646.143 794.946 794.946 960.023 960.023 1174.86 1174.86 1330.76
1330.76 1394.23 1394.23 1401.56 1401.56 1380.78 1380.78 1370.98 1370.98 -241.27
-368.118 -368.118 -241.27 -555.253 -555.253 -722.375 -722.375 -815.353 -815.353 -855.227
-855.227 -854.094 -854.094 -765.992 -765.992 -650.651 -650.651 -259.103 -259.103 208.389
208.389 160.553 160.553 -97.7689 -97.7689 -287.457 -287.457 -415.492 -415.492 -401.838
-401.838 -257.981 -257.981 34.1605 34.1605 330.599 330.599 539.065 539.065 618.299
618.299 741.097 741.097 876.423 876.423 893.208 893.208 882.983 882.983 -140.799
-140.799 -276.918 -276.918 -102.6 -102.6 242.507 242.507 543.777 543.777 717.114
717.114 831.868 831.868 927.845 927.845 995.257 995.257 1070.61 1070.61 1145.86
1145.86 1550.68 1550.68 931.009 931.009 968.976 968.976 943.142 943.142 949.383
949.383 1045.58 1045.58 1216.08 1216.08 1430.3 1430.3 1645.79 1645.79 1830.5
1830.5 1999.96 1999.96 1999.63 1999.63 -22.1873 -22.1873 9.20955 9.20955 187.717
187.717 410.708 410.708 641.831 641.831 801.054 801.054 890.27 890.27 970.562
970.562 1054.21 1054.21 1139.32 1139.32 1223.74 1223.74 1558.23 1558.23 1098.77
1098.77 1136.69 1136.69 1142.44 1142.44 1152.55 1152.55 1191.8 1191.8 1278.73
1278.73 1418.17 1418.17 1587.57 1587.57 1756.99 1756.99 1878.91 1878.91 1883.21
1883.21 177.148 177.148 229.982 229.982 446.815 446.815 712.148 712.148 972.844
972.844 1146.72 1146.72 1236.48 1236.48 1305.17 1305.17 1368.88 1368.88 1435.98
1435.98 1504.24 1504.24 1772.06 1772.06 1474.3 1474.3 1500.56 1500.56 1530.31
1530.31 1554.71 1554.71 1595.02 1595.02 1661.5 1661.5 1755.87 1755.87 1862.66
1862.66 1966.94 1966.94 2056.45 2056.45 2049.42 2049.42 -226.551 -226.551 -78.8434
-78.8434 142.569 142.569 319.952 319.952 470.059 470.059 573.795 573.795 671.74
671.74 780.68 780.68 912.74 912.74 1064.62 1064.62 1212.98 1212.98 1573.48
1573.48 1370.6 1370.6 1380.94 1380.94 1394.93 1394.93 1406.33 1406.33 1436.79
1436.79 1496.54 1496.54 1588.17 1588.17 1697.1 1697.1 1806.7 1806.7 1906.59
1906.59 1905.31 1905.31 
alpha.water 1 384 float
1.42659e-12 1.41237e-12 1.41237e-12 1.42659e-12 1.3432e-12 1.3432e-12 2.4522e-07 2.4522e-07 9.06515e-07 9.06515e-07 1.00452e-06
1.00452e-06 3.43226e-07 3.43226e-07 1.61644e-13 1.61644e-13 8.37049e-14 8.37049e-14 1.36687e-13 1.36687e-13 0.0230784
0.0230784 0.0553521 0.0553521 0.0426069 0.0426069 0.0195758 0.0195758 0.0173125 0.0173125 0.00806995
0.00806995 0.00378657 0.00378657 0.0212122 0.0212122 0.0362725 0.0362725 0.0258006 0.0258006 0.00833304
0.00833304 0.00674529 0.00674529 0.00888482 0.00888482 0.00351882 0.00351882 3.72731e-14 3.72731e-14 8.18804e-18
1.80666e-17 1.80666e-17 8.18804e-18 3.05481e-17 3.05481e-17 2.83983e-17 2.83983e-17 1.95625e-17 1.95625e-17 1.25439e-17
1.25439e-17 7.52611e-18 7.52611e-18 4.03623e-18 4.03623e-18 2.7805e-18 2.7805e-18 5.09226e-16 5.09226e-16 1.49322e-15
1.49322e-15 2.30056e-15 2.30056e-15 2.96349e-15 2.96349e-15 3.68031e-15 3.68031e-15 4.49222e-15 4.49222e-15 5.12283e-15
5.12283e-15 5.61303e-15 5.61303e-15 5.75804e-15 5.75804e-15 5.124e-15 5.124e-15 4.27739e-15 4.27739e-15 3.00507e-15
3.00507e-15 1.56702e-15 1.56702e-15 8.90158e-16 8.90158e-16 3.73872e-16 3.73872e-16 1.31587e-17 1.31587e-17 3.72509e-22
1.11359e-21 1.11359e-21 3.72509e-22 2.32415e-21 2.32415e-21 2.30429e-21 2.30429e-21 1.42606e-21 1.42606e-21 7.92164e-22
7.92164e-22 4.07118e-22 4.07118e-22 1.89462e-22 1.89462e-22 2.3817e-22 2.3817e-22 1.58162e-18 1.58162e-18 6.31014e-18
6.31014e-18 1.39293e-17 1.39293e-17 2.49864e-17 2.49864e-17 4.19359e-17 4.19359e-17 6.79496e-17 6.79496e-17 1.00954e-16
1.00954e-16 1.45829e-16 1.45829e-16 1.9087e-16 1.9087e-16 2.06896e-16 2.06896e-16 2.00109e-16 2.00109e-16 1.3727e-16
1.3727e-16 4.8942e-17 4.8942e-17 1.33392e-17 1.33392e-17 4.28476e-18 4.28476e-18 5.22975e-20 5.22975e-20 1
1 1 1 1 1 1 1 1 1 1
1 1 1 1 1 1 1 1 1 1
1 1 1 1 1 1 1 1 1 0.997389
0.997389 0.985434 0.985434 0.974825 0.974825 0.983033 0.983033 0.996252 0.996252 1
1 1 1 1 1 1 1 1 1 4.18563e-06
4.18563e-06 0.000582771 0.000582771 0.00154813 0.00154813 0.0019391 0.0019391 0.00168509 0.00168509 0.00117721
0.00117721 0.000495629 0.000495629 3.39627e-05 3.39627e-05 2.53709e-09 2.53709e-09 2.52456e-09 2.52456e-09 1.25602e-09
1.25602e-09 0.485494 0.485494 1 1 0.99994 0.99994 0.963884 0.963884 0.90499
0.90499 0.883153 0.883153 0.929325 0.929325 0.987216 0.987216 0.996299 0.996299 0.977866
0.977866 0.949858 0.949858 0.953785 0.953785 1.45031e-17 1.45031e-17 3.02074e-17 3.02074e-17 4.78162e-17
4.78162e-17 9.42149e-17 9.42149e-17 1.24949e-16 1.24949e-16 7.96185e-17 7.96185e-17 3.64819e-17 3.64819e-17 2.06836e-17
2.06836e-17 7.13737e-18 7.13737e-18 2.71885e-18 2.71885e-18 6.50242e-19 6.50242e-19 0.00578805 0.00578805 8.07416e-14
8.07416e-14 0.017286 0.017286 0.0507787 0.0507787 0.0334927 0.0334927 0.00145874 0.00145874 0.0095667
0.0095667 0.0212152 0.0212152 0.03368 0.03368 0.0429856 0.0429856 0.0359051 0.0359051 0.0192803
0.0192803 7.65149e-22 7.65149e-22 1.9133e-21 1.9133e-21 3.22369e-21 3.22369e-21 6.67207e-21 6.67207e-21 8.20416e-21
8.20416e-21 4.41642e-21 4.41642e-21 1.56625e-21 1.56625e-21 7.12987e-22 7.12987e-22 1.86414e-22 1.86414e-22 5.5366e-23
5.5366e-23 1.27882e-23 1.27882e-23 7.1221e-14 7.1221e-14 1.9594e-16 1.9594e-16 8.30411e-16 8.30411e-16 1.98013e-15
1.98013e-15 3.88181e-15 3.88181e-15 7.06503e-15 7.06503e-15 1.25833e-14 1.25833e-14 2.21588e-14 2.21588e-14 3.53162e-14
3.53162e-14 4.78053e-14 4.78053e-14 7.48643e-14 7.48643e-14 1.19498e-13 1.19498e-13 1 1 1
1 1 1 1 1 1 1 1 1 1
1 1 1 1 1 1 1 1 1 0.5
0.5 1.4504e-18 1.4504e-18 1.10381e-17 1.10381e-17 4.68209e-17 4.68209e-17 1.64387e-16 1.64387e-16 5.2775e-16
5.2775e-16 1.6815e-15 1.6815e-15 5.37759e-15 5.37759e-15 1.47909e-14 1.47909e-14 3.4045e-14 3.4045e-14 9.57828e-14
9.57828e-14 2.7367e-13 2.7367e-13 
p_rgh 1 384 float
0 -83.5675 -83.5675 0 -211.774 -211.774 -283.41 -283.41 -329.435 -329.435 -339.647
-339.647 -323.775 -323.775 -166.36 -166.36 41.2018 41.2018 270.827 270.827 507.052
507.052 440.143 440.143 253.258 253.258 111.651 111.651 82.6756 82.6756 124.052
124.052 252.708 252.708 455.309 455.309 638.023 638.023 790.487 790.487 854.459
854.459 949.315 949.315 1035.56 1035.56 1064.28 1064.28 1066.24 1066.24 20.6266
-38.0191 -38.0191 20.6266 -146.551 -146.551 -229.426 -229.426 -271.784 -271.784 -243.357
-243.357 -93.7805 -93.7805 117.286 117.286 294.228 294.228 589.75 589.75 864.453
864.453 757.997 757.997 595.955 595.955 521.023 521.023 516.498 516.498 590.596
590.596 687.594 687.594 849.956 849.956 1016.1 1016.1 1226.31 1226.31 1390.6
1390.6 1472.13 1472.13 1490.72 1490.72 1473.58 1473.58 1466.95 1466.95 213.682
152.062 152.062 213.682 32.3538 32.3538 -69.0167 -69.0167 -130.083 -130.083 -116.945
-116.945 19.8117 19.8117 213.536 213.536 373.499 373.499 653.304 653.304 906.284
906.284 785.044 785.044 616.592 616.592 530.865 530.865 510.266 510.266 565.875
565.875 646.143 646.143 794.946 794.946 960.023 960.023 1174.86 1174.86 1330.76
1330.76 1394.23 1394.23 1401.56 1401.56 1380.78 1380.78 1370.98 1370.98 -241.27
-368.118 -368.118 -241.27 -555.253 -555.253 -722.375 -722.375 -815.353 -815.353 -855.227
-855.227 -854.094 -854.094 -765.992 -765.992 -650.651 -650.651 -259.103 -259.103 208.389
208.389 160.553 160.553 -97.7689 -97.7689 -287.457 -287.457 -415.492 -415.492 -401.838
-401.838 -257.981 -257.981 34.1605 34.1605 330.599 330.599 539.065 539.065 618.299
618.299 741.097 741.097 876.423 876.423 893.208 893.208 882.983 882.983 -140.799
-140.799 -276.918 -276.918 -102.6 -102.6 242.507 242.507 543.777 543.777 717.114
717.114 831.868 831.868 927.845 927.845 995.257 995.257 1070.61 1070.61 1145.86
1145.86 1550.68 1550.68 931.009 931.009 968.976 968.976 943.142 943.142 949.383
949.383 1045.58 1045.58 1216.08 1216.08 1430.3 1430.3 1645.79 1645.79 1830.5
1830.5 1999.96 1999.96 1999.63 1999.63 -22.1873 -22.1873 9.20955 9.20955 187.717