/*--------------------------------*- C++ -*----------------------------------*\
| =========                 |                                                 |
| \\      /  F ield         | OpenFOAM: The Open Source CFD Toolbox           |
|  \\    /   O peration     | Version:  2.4.0                                 |
|   \\  /    A nd           | Web:      www.OpenFOAM.org                      |
|    \\/     M anipulation  |                                                 |
\*---------------------------------------------------------------------------*/
FoamFile
{
    version     2.0;
    format      ascii;
    class       volVectorField;
    location    "4.125";
    object      U;
}
// * * * * * * * * * * * * * * * * * * * * * * * * * * * * * * * * * * * * * //

dimensions      [0 1 -1 0 0 0 0];

internalField   nonuniform List<vector> 
4608
(
(0.00621194 0.13608 0)
(0.0168086 0.135172 0)
(0.0267447 0.134295 -2.35652e-26)
(0.0363719 0.133086 -2.42202e-26)
(0.0459044 0.131605 0)
(0.0553658 0.129792 0)
(0.064744 0.12755 -1.03485e-25)
(0.0739807 0.124753 -5.30427e-26)
(0.0830333 0.121288 1.20026e-26)
(0.0919118 0.117027 -8.11127e-26)
(0.100604 0.111943 -9.9642e-26)
(0.10854 0.106366 2.06627e-28)
(0.00458389 0.157484 0)
(0.0157817 0.158017 -1.12017e-26)
(0.027848 0.158709 4.3535e-27)
(0.0401602 0.159168 0)
(0.0526904 0.159175 9.18847e-26)
(0.0653785 0.158719 -1.24083e-26)
(0.0776967 0.157801 -1.71601e-25)
(0.0898359 0.156073 0)
(0.101557 0.15351 2.10443e-25)
(0.112827 0.14985 3.37851e-26)
(0.123422 0.144926 -1.2112e-25)
(0.132681 0.139127 0)
(0.00838247 0.178023 0)
(0.024401 0.178432 4.21972e-26)
(0.0397627 0.179082 0)
(0.0545019 0.179535 -2.56666e-26)
(0.0691616 0.179342 7.21097e-26)
(0.0838971 0.178339 2.62916e-25)
(0.097932 0.176843 2.1203e-25)
(0.111517 0.174624 3.03987e-25)
(0.124208 0.171657 3.68864e-25)
(0.135957 0.16768 0)
(0.146746 0.162557 -2.41615e-25)
(0.156199 0.156548 0)
(0.0100285 0.19905 2.3173e-26)
(0.0295362 0.199269 5.06093e-26)
(0.047825 0.199556 0)
(0.0649889 0.199628 1.73913e-25)
(0.0816514 0.199244 -8.62554e-26)
(0.0979698 0.197818 4.71135e-25)
(0.11342 0.195549 2.44561e-25)
(0.127849 0.192463 2.53875e-25)
(0.14115 0.188636 0)
(0.153314 0.184263 5.4297e-25)
(0.164328 0.178962 -3.53911e-25)
(0.173916 0.172996 -1.69322e-25)
(0.0120977 0.219999 2.67986e-26)
(0.0351408 0.220239 1.30723e-25)
(0.0560736 0.220294 -1.18414e-25)
(0.0752173 0.219652 2.45067e-25)
(0.0931366 0.218078 0)
(0.110264 0.215415 4.19093e-25)
(0.126502 0.211863 2.26601e-25)
(0.141642 0.207735 -1.55068e-25)
(0.15551 0.202945 -2.2003e-25)
(0.167886 0.197579 1.2953e-24)
(0.17898 0.191597 6.76472e-25)
(0.188716 0.185142 -7.46757e-25)
(0.0140056 0.240888 0)
(0.0401107 0.240784 1.28902e-25)
(0.0631986 0.240379 -1.32527e-25)
(0.083692 0.239069 -2.73695e-25)
(0.102702 0.236576 -8.71597e-26)
(0.120608 0.232931 5.18523e-26)
(0.137625 0.227899 2.49368e-25)
(0.153317 0.222338 -1.7722e-25)
(0.167214 0.216224 -2.4983e-25)
(0.179396 0.209437 1.23573e-24)
(0.190121 0.202081 6.29824e-25)
(0.199691 0.194373 -6.38123e-25)
(0.0160131 0.261937 2.93127e-27)
(0.0450686 0.262144 2.41869e-26)
(0.0700859 0.261541 0)
(0.0912858 0.259616 -3.0504e-25)
(0.111034 0.25574 5.25221e-25)
(0.129162 0.250822 -7.67506e-25)
(0.146681 0.244241 -6.30365e-25)
(0.162698 0.236893 -6.2077e-25)
(0.176191 0.229186 -6.30298e-25)
(0.187567 0.220782 6.427e-25)
(0.197383 0.211467 -1.17856e-24)
(0.206438 0.201639 1.47474e-24)
(0.0183565 0.282921 0)
(0.0501487 0.283618 0)
(0.0765187 0.282951 3.25875e-25)
(0.0978369 0.28024 0)
(0.118148 0.274874 5.81676e-25)
(0.136771 0.268916 -1.32039e-25)
(0.154991 0.261323 -6.77073e-25)
(0.171237 0.253104 -6.4729e-25)
(0.183682 0.243669 -6.43105e-25)
(0.192858 0.232764 -1.3062e-24)
(0.200791 0.220501 -1.32286e-24)
(0.20894 0.208056 1.31078e-24)
(0.0213319 0.304135 8.66971e-26)
(0.0553629 0.30561 3.82598e-25)
(0.0822481 0.304467 1.43454e-34)
(0.102461 0.300235 -1.09063e-25)
(0.123001 0.291953 -2.48967e-25)
(0.141939 0.284304 -1.21991e-25)
(0.160877 0.275175 -1.43237e-24)
(0.177147 0.267225 9.80366e-26)
(0.187399 0.258169 2.60505e-25)
(0.193599 0.245957 -1.31752e-24)
(0.199929 0.230943 9.47296e-26)
(0.207181 0.214744 -1.23074e-24)
(0.0253665 0.325497 6.50665e-36)
(0.060701 0.327994 3.81258e-25)
(0.0867005 0.325092 -3.82115e-25)
(0.104529 0.317883 0)
(0.124227 0.304653 -1.0625e-25)
(0.1432 0.293322 6.79201e-25)
(0.163246 0.28134 -1.46971e-24)
(0.180376 0.273501 0)
(0.187583 0.266619 1.15072e-24)
(0.189715 0.254461 0)
(0.196095 0.238616 1.07552e-25)
(0.205777 0.223192 -2.44933e-24)
(0.0311909 0.346691 -8.21141e-26)
(0.0654572 0.348022 4.02857e-25)
(0.0868667 0.340154 7.80566e-25)
(0.0995278 0.327403 6.09388e-25)
(0.118432 0.308003 -1.64729e-25)
(0.137754 0.292182 3.13897e-24)
(0.159413 0.276929 0)
(0.178798 0.269709 2.44742e-25)
(0.181443 0.267031 6.48678e-25)
(0.176718 0.253434 0)
(0.18293 0.233071 -1.45576e-24)
(0.196663 0.21864 -1.185e-24)
(0.0233859 0.359701 2.12268e-25)
(0.0602817 0.355772 -1.08581e-34)
(0.0735591 0.339234 9.89031e-35)
(0.0811791 0.322152 5.75598e-25)
(0.0976721 0.29981 1.43101e-24)
(0.116428 0.277619 3.35075e-24)
(0.140665 0.255028 1.50603e-24)
(0.168451 0.244851 0)
(0.160105 0.249187 0)
(0.145592 0.23482 0)
(0.154309 0.210179 -1.17179e-24)
(0.176964 0.197942 -1.69997e-24)
(0.115686 0.100066 -5.69881e-26)
(0.121972 0.0929816 -1.07725e-25)
(0.127286 0.0850177 -1.99373e-25)
(0.131476 0.0762361 2.43397e-25)
(0.134437 0.0669689 0)
(0.136321 0.0573901 2.33787e-26)
(0.137379 0.0476045 8.00155e-26)
(0.137823 0.0378206 0)
(0.137741 0.0281648 0)
(0.13735 0.0186405 0)
(0.13689 0.00974436 1.00123e-26)
(0.136301 0.00241914 4.75121e-27)
(0.140536 0.132383 -3.06723e-26)
(0.146876 0.124683 -6.67685e-26)
(0.151881 0.116047 -2.05116e-25)
(0.155645 0.10645 7.94342e-27)
(0.158067 0.0960306 -2.41479e-27)
(0.159358 0.0847536 -7.13996e-26)
(0.159853 0.0726315 5.57793e-26)
(0.159786 0.0601679 -4.19098e-26)
(0.159112 0.0479649 -1.04837e-25)
(0.158197 0.0350511 0)
(0.157343 0.0217501 1.97211e-26)
(0.156938 0.00801711 9.25539e-27)
(0.164217 0.149757 -4.91831e-25)
(0.170706 0.14222 0)
(0.175553 0.133793 0)
(0.178849 0.124339 -2.37316e-25)
(0.18077 0.11371 0)
(0.181501 0.101645 -9.95953e-26)
(0.181318 0.0879469 1.47592e-25)
(0.180215 0.0732124 -1.39014e-25)
(0.179006 0.0581102 -9.31603e-26)
(0.178486 0.0421549 0)
(0.17823 0.0257384 4.32829e-26)
(0.178165 0.00873488 -1.97995e-26)
(0.18201 0.166458 -6.67274e-25)
(0.188636 0.159318 -4.44479e-26)
(0.193799 0.151484 -6.37995e-25)
(0.197446 0.142761 6.25376e-25)
(0.199539 0.132737 9.35126e-26)
(0.200188 0.12084 -2.58631e-25)
(0.199725 0.106449 -1.28683e-25)
(0.198624 0.0896887 -1.42047e-25)
(0.197814 0.0708182 2.16855e-25)
(0.197863 0.0507953 0)
(0.198514 0.0308939 3.5767e-26)
(0.199034 0.0106505 -7.1837e-26)
(0.197141 0.178409 6.13872e-25)
(0.204313 0.171507 -5.79907e-25)
(0.210259 0.164382 -6.02145e-25)
(0.214849 0.156864 6.07753e-25)
(0.217809 0.148436 -2.0863e-25)
(0.218998 0.137958 -1.84527e-25)
(0.218559 0.124052 -1.25154e-25)
(0.217085 0.105699 -3.39737e-26)
(0.216398 0.0827755 2.73135e-25)
(0.217156 0.0580891 1.33094e-25)
(0.218677 0.0344864 -1.43036e-25)
(0.219963 0.0118728 -2.71648e-26)
(0.208272 0.186678 6.44767e-25)
(0.215982 0.179249 -6.84572e-25)
(0.223024 0.172145 -7.66609e-25)
(0.229204 0.165681 -8.25828e-26)
(0.233745 0.159462 0)
(0.236107 0.151777 -3.24614e-25)
(0.236384 0.140232 1.02134e-25)
(0.235264 0.121803 -4.45937e-25)
(0.235277 0.0950029 0)
(0.236298 0.0655067 1.25873e-25)
(0.238252 0.0372222 -1.26153e-25)
(0.240816 0.0125518 3.13756e-26)
(0.214828 0.192048 0)
(0.222585 0.182884 0)
(0.230588 0.174276 -1.33368e-24)
(0.238785 0.167804 0)
(0.245449 0.163809 -2.37978e-25)
(0.249519 0.159863 -5.79259e-25)
(0.250961 0.152572 9.91563e-25)
(0.2505 0.136141 3.10319e-25)
(0.252499 0.106297 2.0268e-25)
(0.255316 0.0738503 -2.58041e-25)
(0.257251 0.0394793 -1.20003e-26)
(0.260734 0.012114 5.8814e-27)
(0.216738 0.196269 4.49484e-26)
(0.223874 0.184492 1.39142e-24)
(0.2324 0.172321 6.47926e-25)
(0.242853 0.163755 -1.30687e-24)
(0.251905 0.161234 -1.33542e-24)
(0.25787 0.161245 -6.94627e-25)
(0.260614 0.15985 9.50275e-25)
(0.260669 0.147887 1.76089e-24)
(0.264079 0.113987 0)
(0.270555 0.0782055 -2.36458e-25)
(0.275802 0.0446215 1.66247e-25)
(0.280243 0.0112249 7.75533e-26)
(0.214895 0.199486 1.26998e-24)
(0.220828 0.186209 1.29117e-24)
(0.229384 0.169534 1.17305e-24)
(0.242447 0.155548 -1.40375e-24)
(0.253832 0.152662 -1.43767e-24)
(0.262368 0.155666 -7.64145e-25)
(0.268491 0.159106 6.48596e-25)
(0.277623 0.154752 1.26924e-24)
(0.282876 0.124368 -3.31085e-25)
(0.278637 0.078834 0)
(0.288975 0.0338443 7.62695e-26)
(0.301726 0.00234516 8.36004e-26)
(0.213833 0.20678 1.18458e-24)
(0.219833 0.191013 -9.34283e-26)
(0.230201 0.17001 0)
(0.239651 0.149656 -1.1413e-24)
(0.25034 0.139382 0)
(0.260573 0.142651 0)
(0.271446 0.145526 8.44058e-25)
(0.295903 0.14551 2.40512e-26)
(0.319766 0.134692 1.22305e-26)
(0.313648 0.0943618 5.72697e-25)
(0.308561 0.0312483 -2.70575e-26)
(0.319954 -0.00183471 1.15531e-26)
(0.205897 0.207029 -1.12732e-26)
(0.213572 0.194357 -1.28291e-24)
(0.222297 0.173533 0)
(0.233943 0.148734 -1.16698e-24)
(0.248386 0.132144 1.49631e-25)
(0.252846 0.130111 0)
(0.262211 0.123207 -1.25803e-24)
(0.292302 0.118964 -6.53545e-25)
(0.322693 0.126761 -6.3897e-26)
(0.336712 0.112922 2.03128e-24)
(0.330424 0.0346172 0)
(0.336589 -0.0100378 6.99346e-26)
(0.188276 0.19558 -2.22556e-24)
(0.199783 0.188596 -1.19399e-24)
(0.213596 0.176292 0)
(0.233705 0.147944 0)
(0.243941 0.127091 7.42937e-25)
(0.238778 0.122162 -1.09721e-24)
(0.241476 0.106048 -1.69094e-24)
(0.262877 0.0850307 -7.23318e-26)
(0.292943 0.0870853 -5.69012e-25)
(0.337315 0.0990677 4.73414e-25)
(0.340663 0.0431898 1.5213e-25)
(0.337757 -0.0296821 1.05449e-25)
(0.135947 -0.00591484 5.153e-27)
(0.134741 -0.0161557 -1.07508e-26)
(0.133384 -0.0257177 4.68319e-26)
(0.131735 -0.0350413 0)
(0.129721 -0.0442786 1.54898e-26)
(0.127336 -0.0536504 -2.82975e-26)
(0.124733 -0.0632496 2.16103e-27)
(0.122071 -0.0731028 0)
(0.119293 -0.0832123 -5.1362e-26)
(0.116203 -0.0924686 -5.42032e-26)
(0.111947 -0.10066 -1.14937e-25)
(0.106568 -0.107713 -3.23422e-26)
(0.157408 -0.00373001 9.47058e-27)
(0.157816 -0.0140749 -5.11669e-26)
(0.158413 -0.0255596 -6.19639e-26)
(0.158716 -0.0374084 9.93199e-26)
(0.158505 -0.0496647 1.12555e-26)
(0.157551 -0.0626633 -1.59765e-26)
(0.155829 -0.0769788 0)
(0.153996 -0.0923346 0)
(0.152384 -0.10678 9.06617e-26)
(0.150755 -0.117034 5.47353e-26)
(0.147227 -0.124732 -2.86086e-25)
(0.141916 -0.130917 1.33447e-25)
(0.178143 -0.00775149 -7.59262e-27)
(0.179218 -0.023495 -9.32106e-26)
(0.180901 -0.0390005 -9.13665e-26)
(0.182584 -0.0539066 9.87075e-26)
(0.183602 -0.0690174 0)
(0.183492 -0.0848614 0)
(0.181185 -0.103203 0)
(0.177957 -0.122804 0)
(0.176074 -0.135216 3.49478e-35)
(0.173743 -0.14123 2.51045e-25)
(0.169749 -0.147127 -2.51233e-25)
(0.164454 -0.153287 2.43562e-25)
(0.199253 -0.0104894 2.25884e-26)
(0.200529 -0.0310527 -3.73831e-26)
(0.202436 -0.0503866 5.26806e-26)
(0.204483 -0.0681864 -7.32616e-26)
(0.205899 -0.0855312 1.00629e-25)
(0.205843 -0.102816 0)
(0.202351 -0.121017 0)
(0.195683 -0.139403 0)
(0.193415 -0.148421 -8.26918e-25)
(0.191914 -0.155636 0)
(0.189122 -0.163994 3.23492e-25)
(0.184938 -0.171592 5.68273e-26)
(0.220104 -0.0135929 7.46817e-26)
(0.220843 -0.0386824 -1.10194e-25)
(0.221985 -0.0615429 0)
(0.22335 -0.0819095 -3.77613e-25)
(0.225113 -0.100601 3.3993e-26)
(0.224852 -0.11601 -2.07848e-25)
(0.221086 -0.132118 0)
(0.213634 -0.151396 0)
(0.209619 -0.16349 -6.00232e-25)
(0.207215 -0.173827 0)
(0.204464 -0.183413 6.30832e-25)
(0.201077 -0.191669 0)
(0.240844 -0.0157432 2.22066e-36)
(0.240253 -0.0441832 -1.19712e-25)
(0.239256 -0.0696395 0)
(0.238277 -0.0915478 2.18952e-34)
(0.236525 -0.110087 -1.00143e-25)
(0.235137 -0.12578 -9.16763e-26)
(0.234601 -0.144739 0)
(0.230386 -0.165039 -2.23066e-25)
(0.225075 -0.179239 -8.55122e-26)
(0.221239 -0.190475 -5.77285e-25)
(0.217362 -0.200152 -8.33694e-25)
(0.213506 -0.208561 0)
(0.261818 -0.0170886 2.98851e-26)
(0.260351 -0.047813 5.00171e-26)
(0.257427 -0.0755203 -1.86964e-25)
(0.254629 -0.0993918 4.39304e-25)
(0.252383 -0.12028 3.10612e-25)
(0.251455 -0.139486 -8.36169e-25)
(0.24947 -0.159684 -4.34989e-25)
(0.244542 -0.177827 8.94205e-26)
(0.238687 -0.191394 -9.66698e-25)
(0.232801 -0.202313 -6.97349e-25)
(0.226863 -0.211664 -7.82667e-25)
(0.221259 -0.220033 -1.11473e-25)
(0.283147 -0.0182772 6.32986e-26)
(0.281268 -0.0498108 -1.42186e-25)
(0.275728 -0.0793219 -3.00614e-25)
(0.270409 -0.105846 1.14904e-24)
(0.266786 -0.129945 1.06361e-24)
(0.264307 -0.150976 -8.9948e-25)
(0.260959 -0.171034 -3.69788e-25)
(0.256539 -0.187241 -2.17448e-25)
(0.249942 -0.199189 -1.16314e-24)
(0.241998 -0.208891 -2.19299e-25)
(0.233526 -0.217366 -7.56067e-26)
(0.225314 -0.22532 -1.13444e-25)
(0.305008 -0.0202736 -1.26512e-25)
(0.304097 -0.0499597 -1.529e-25)
(0.294424 -0.0798376 -1.26373e-25)
(0.283711 -0.109017 9.41599e-25)
(0.276764 -0.13705 0)
(0.272879 -0.158984 3.23554e-25)
(0.268779 -0.179374 3.27529e-25)
(0.265525 -0.193947 1.24824e-24)
(0.25866 -0.202741 1.20527e-24)
(0.248736 -0.210263 0)
(0.237745 -0.217345 5.75586e-26)
(0.226736 -0.22461 9.05259e-26)
(0.327886 -0.0249752 -8.56893e-26)
(0.331208 -0.0486537 -6.87284e-26)
(0.316627 -0.0741579 1.39833e-25)
(0.295188 -0.104966 -4.31384e-25)
(0.280723 -0.138274 -4.32019e-25)
(0.275927 -0.161749 5.34074e-25)
(0.271389 -0.183757 1.85799e-25)
(0.269689 -0.196855 1.67229e-24)
(0.26305 -0.200266 2.85158e-24)
(0.251051 -0.204938 1.36289e-24)
(0.237995 -0.210576 -2.70941e-26)
(0.224646 -0.217159 -1.37423e-24)
(0.351802 -0.0371798 1.12401e-25)
(0.361131 -0.0494559 -5.04957e-26)
(0.345302 -0.0643325 1.00592e-24)
(0.314933 -0.091564 0)
(0.274105 -0.132703 1.25058e-24)
(0.260489 -0.163916 8.91295e-26)
(0.261615 -0.185926 2.07788e-25)
(0.26269 -0.193061 1.24418e-24)
(0.257378 -0.187962 1.17899e-24)
(0.244062 -0.190265 1.24772e-24)
(0.229999 -0.195698 -1.16212e-24)
(0.21546 -0.201648 -1.07382e-24)
(0.360893 -0.0399393 -1.09643e-25)
(0.368989 -0.0406677 -1.01958e-24)
(0.355829 -0.0484296 0)
(0.346292 -0.0687988 0)
(0.297221 -0.116974 1.37673e-24)
(0.259846 -0.163369 -1.12854e-24)
(0.250226 -0.18651 -1.40297e-24)
(0.241959 -0.177589 2.45961e-24)
(0.235328 -0.161966 -1.1838e-24)
(0.224143 -0.164399 0)
(0.213119 -0.169587 -9.01645e-25)
(0.200761 -0.175466 1.01125e-26)
(0.0998464 -0.113929 -6.63063e-27)
(0.0920023 -0.118866 -1.84639e-25)
(0.0830812 -0.122657 1.02128e-26)
(0.0735125 -0.125756 1.59013e-25)
(0.0642872 -0.127818 1.10228e-25)
(0.0547558 -0.129392 -2.21971e-35)
(0.0451465 -0.130896 -8.97251e-26)
(0.0357375 -0.132424 -2.06207e-26)
(0.0265812 -0.13392 4.08134e-26)
(0.0177475 -0.135191 -2.38229e-26)
(0.00934174 -0.135968 5.95078e-27)
(0.0021268 -0.136117 -2.43327e-27)
(0.134839 -0.136035 2.31115e-25)
(0.126538 -0.140294 -2.08024e-25)
(0.116641 -0.143659 -1.9071e-25)
(0.104988 -0.145666 4.25917e-25)
(0.0922045 -0.147228 1.80808e-25)
(0.0792475 -0.1488 -1.99884e-25)
(0.0653947 -0.150698 -1.19824e-25)
(0.0529044 -0.15247 -2.66611e-26)
(0.0406273 -0.154335 1.76393e-25)
(0.0293098 -0.155849 3.50503e-26)
(0.0179759 -0.156667 -4.2906e-26)
(0.00623778 -0.156973 1.06303e-26)
(0.157738 -0.158464 -3.50235e-26)
(0.149551 -0.162263 2.41999e-25)
(0.139797 -0.16486 -2.37416e-25)
(0.128122 -0.166797 2.33506e-25)
(0.113131 -0.168272 0)
(0.0967482 -0.168957 -1.94593e-25)
(0.0787594 -0.169041 1.82391e-25)
(0.0600504 -0.170419 -9.13448e-26)
(0.043578 -0.174143 -1.45192e-26)
(0.0311 -0.176809 8.35716e-26)
(0.0188693 -0.177902 -8.45083e-26)
(0.00629095 -0.178186 9.85141e-27)
(0.17953 -0.177897 5.84234e-25)
(0.172755 -0.182595 4.15953e-25)
(0.164098 -0.18572 -7.39325e-26)
(0.152908 -0.187481 -1.56824e-25)
(0.13811 -0.188226 5.1677e-25)
(0.119429 -0.188149 -4.79074e-25)
(0.0975069 -0.189132 3.36668e-25)
(0.0719 -0.191849 8.33096e-26)
(0.0500882 -0.194706 -4.49409e-26)
(0.0356204 -0.197421 -5.27626e-27)
(0.022613 -0.198568 6.03529e-27)
(0.00783844 -0.198847 -7.19743e-28)
(0.197016 -0.198419 1.2147e-24)
(0.191986 -0.203527 -7.05075e-25)
(0.185406 -0.20693 0)
(0.176288 -0.208589 0)
(0.163107 -0.208586 1.19536e-24)
(0.144044 -0.207284 1.15821e-25)
(0.117704 -0.205802 1.25312e-25)
(0.0846691 -0.206318 9.24209e-26)
(0.0545466 -0.211726 1.82781e-25)
(0.0384545 -0.217736 7.70005e-27)
(0.0262767 -0.219072 6.51698e-26)
(0.00904983 -0.219623 1.31128e-27)
(0.209711 -0.215768 6.89188e-25)
(0.205915 -0.221633 -6.95533e-25)
(0.201647 -0.22602 -2.27616e-25)
(0.195954 -0.228702 9.1309e-26)
(0.186992 -0.22937 1.02561e-24)
(0.171719 -0.227884 -1.32576e-25)
(0.145692 -0.224723 7.96939e-25)
(0.104022 -0.221435 1.42255e-26)
(0.0566802 -0.22468 2.73438e-25)
(0.0400646 -0.231585 0)
(0.0292136 -0.235038 0)
(0.00897838 -0.23917 0)
(0.216386 -0.22769 0)
(0.21249 -0.234605 1.44475e-24)
(0.209444 -0.240729 0)
(0.206748 -0.245929 0)
(0.202892 -0.249753 -4.32113e-25)
(0.194644 -0.251578 -4.7623e-25)
(0.176007 -0.250736 4.24475e-25)
(0.135493 -0.246529 -3.01322e-25)
(0.0694413 -0.241332 1.55029e-25)
(0.0352569 -0.244325 -1.78802e-25)
(0.0223364 -0.25571 1.41794e-25)
(0.00254623 -0.261178 -5.67316e-26)
(0.21816 -0.233056 -1.45465e-24)
(0.212427 -0.240756 1.4653e-24)
(0.208462 -0.248464 1.48502e-24)
(0.206341 -0.25648 1.54883e-24)
(0.205428 -0.264703 1.63937e-24)
(0.203461 -0.272833 1.74544e-24)
(0.195019 -0.279436 -3.31281e-25)
(0.168268 -0.284055 -5.08141e-25)
(0.102732 -0.274799 -2.17499e-25)
(0.0406202 -0.260773 -3.66935e-25)
(0.0142057 -0.269887 1.28374e-25)
(-0.000446604 -0.281244 -7.83499e-26)
(0.216722 -0.232013 -1.47085e-24)
(0.208146 -0.239777 4.64371e-26)
(0.201587 -0.248057 2.77533e-24)
(0.197292 -0.257471 1.4817e-24)
(0.195502 -0.268506 1.61473e-24)
(0.195518 -0.2818 8.8798e-25)
(0.194386 -0.296449 -2.31826e-25)
(0.183333 -0.311214 7.21861e-26)
(0.140733 -0.315358 1.44767e-24)
(0.0623532 -0.301794 -9.34278e-26)
(0.0119336 -0.297261 -8.4655e-27)
(-0.00444592 -0.304095 2.10515e-26)
(0.211979 -0.224502 0)
(0.200942 -0.232055 -1.25067e-24)
(0.191657 -0.240078 3.09255e-35)
(0.184109 -0.249421 0)
(0.178755 -0.26091 2.49593e-26)
(0.175701 -0.276248 -3.58216e-26)
(0.174851 -0.295883 0)
(0.172331 -0.32009 0)
(0.154493 -0.341451 2.31043e-24)
(0.0914853 -0.344755 -1.01478e-24)
(0.0169298 -0.329672 0)
(-0.0030484 -0.324986 -7.1661e-26)
(0.201661 -0.208817 4.81347e-26)
(0.189962 -0.216197 -5.66019e-26)
(0.179449 -0.223522 -2.18008e-24)
(0.169598 -0.232063 0)
(0.160885 -0.242467 0)
(0.153124 -0.256942 0)
(0.147459 -0.276241 1.51173e-24)
(0.143559 -0.303307 0)
(0.138195 -0.336672 2.11081e-24)
(0.109079 -0.36319 -2.2654e-34)
(0.046724 -0.345433 -4.13008e-25)
(-0.000724034 -0.336208 -1.19957e-25)
(0.187028 -0.183393 0)
(0.175416 -0.191029 1.77264e-24)
(0.16506 -0.197378 -9.18704e-25)
(0.154299 -0.204496 9.69118e-25)
(0.143762 -0.21299 0)
(0.132626 -0.225593 1.1454e-24)
(0.121828 -0.241677 1.32657e-24)
(0.11065 -0.26424 1.7667e-25)
(0.102284 -0.292747 7.26225e-25)
(0.0948295 -0.327438 1.78905e-24)
(0.0601662 -0.336434 2.38053e-26)
(-0.0158374 -0.339999 5.29694e-27)
(-0.00642132 -0.136088 8.21304e-27)
(-0.0173051 -0.135466 9.42294e-27)
(-0.0273286 -0.134926 -1.16291e-27)
(-0.0369071 -0.134184 -6.37354e-27)
(-0.0461355 -0.133053 6.06438e-26)
(-0.0549391 -0.131294 -4.945e-26)
(-0.0629761 -0.128665 -6.24607e-26)
(-0.0721631 -0.124438 0)
(-0.0819102 -0.119263 -9.56177e-26)
(-0.0903698 -0.114513 -6.25123e-26)
(-0.0976451 -0.109752 -3.55207e-26)
(-0.104104 -0.104215 -8.99515e-27)
(-0.00527392 -0.157515 9.23945e-27)
(-0.0173874 -0.158383 4.16309e-26)
(-0.0299619 -0.159683 -8.57927e-26)
(-0.0423281 -0.161029 0)
(-0.0540941 -0.162055 7.87761e-26)
(-0.0650058 -0.162459 -1.0429e-25)
(-0.0743771 -0.162065 -3.7015e-26)
(-0.0849054 -0.159341 -2.17918e-26)
(-0.0955409 -0.153883 2.04303e-25)
(-0.106729 -0.147277 0)
(-0.11645 -0.142843 2.11264e-25)
(-0.125201 -0.137745 0)
(-0.00927071 -0.177981 4.65423e-26)
(-0.0264741 -0.178328 9.28354e-26)
(-0.042924 -0.179172 -1.74388e-25)
(-0.0580389 -0.180561 4.0585e-26)
(-0.0714065 -0.181864 2.61203e-26)
(-0.0832646 -0.182083 1.48732e-25)
(-0.0940872 -0.182029 -4.49231e-26)
(-0.105636 -0.181119 -6.10621e-26)
(-0.119148 -0.179047 5.08352e-25)
(-0.135749 -0.172746 8.64967e-26)
(-0.149675 -0.166325 3.932e-25)
(-0.162597 -0.160176 -4.12873e-25)
(-0.0107147 -0.198977 2.30056e-26)
(-0.0315388 -0.198975 1.14091e-25)
(-0.0520087 -0.199076 -4.04661e-26)
(-0.071159 -0.200198 -3.1003e-25)
(-0.086417 -0.202703 0)
(-0.0987411 -0.203633 3.92005e-25)
(-0.111596 -0.202457 4.22861e-25)
(-0.125546 -0.20048 7.3209e-26)
(-0.140608 -0.197208 -1.36119e-25)
(-0.156434 -0.191431 5.74984e-25)
(-0.170526 -0.184517 4.98553e-25)
(-0.182674 -0.17717 -1.31637e-24)
(-0.0127661 -0.220023 2.96188e-36)
(-0.0374993 -0.220488 1.94465e-25)
(-0.0618713 -0.220808 5.13269e-26)
(-0.0848172 -0.220404 -2.27558e-25)
(-0.100115 -0.22092 -1.12887e-25)
(-0.112046 -0.221146 -1.19339e-25)
(-0.126244 -0.219375 2.92618e-25)
(-0.141669 -0.216412 0)
(-0.157532 -0.211958 -1.23452e-24)
(-0.173198 -0.205737 6.2979e-25)
(-0.187467 -0.198332 6.39174e-25)
(-0.200013 -0.190321 -1.29218e-24)
(-0.0153118 -0.240986 9.42226e-26)
(-0.0437124 -0.241752 1.5466e-25)
(-0.0700596 -0.241513 -1.34954e-25)
(-0.0939229 -0.239034 -3.51276e-25)
(-0.110226 -0.23693 8.20852e-26)
(-0.123592 -0.236266 3.52909e-26)
(-0.138989 -0.234145 2.31808e-25)
(-0.155 -0.230109 -1.40984e-25)
(-0.170937 -0.224408 -2.17998e-25)
(-0.186222 -0.217138 6.6396e-25)
(-0.200197 -0.20882 1.04279e-25)
(-0.212671 -0.199913 -5.03678e-25)
(-0.0181397 -0.262021 1.37649e-25)
(-0.0497908 -0.263185 -3.38007e-26)
(-0.0771244 -0.263348 -7.35637e-26)
(-0.101017 -0.260247 -1.85257e-25)
(-0.118934 -0.256134 3.46213e-25)
(-0.134165 -0.253178 3.10068e-25)
(-0.149812 -0.248951 -4.41034e-25)
(-0.165528 -0.243074 -4.14019e-25)
(-0.180812 -0.235594 4.42123e-25)
(-0.195315 -0.226693 9.30042e-35)
(-0.208586 -0.216898 -1.26743e-24)
(-0.220406 -0.206604 1.74239e-25)
(-0.0211556 -0.282986 7.60519e-26)
(-0.0556143 -0.284326 3.95913e-26)
(-0.083588 -0.283956 5.14571e-25)
(-0.107138 -0.281823 9.69242e-25)
(-0.126071 -0.277524 4.43948e-26)
(-0.14232 -0.271559 5.21074e-25)
(-0.157694 -0.264154 0)
(-0.172822 -0.255754 0)
(-0.187133 -0.24605 0)
(-0.200598 -0.23516 -2.09837e-24)
(-0.213115 -0.223647 -2.74586e-24)
(-0.224076 -0.211959 1.343e-24)
(-0.0247686 -0.304232 -1.6752e-25)
(-0.0616728 -0.306495 -3.64293e-25)
(-0.0908878 -0.305835 3.62269e-25)
(-0.113259 -0.303226 1.36495e-25)
(-0.130857 -0.296346 1.66965e-25)
(-0.146611 -0.287719 -2.0871e-25)
(-0.161712 -0.277689 9.99905e-25)
(-0.17626 -0.266701 -2.39436e-25)
(-0.189634 -0.254781 -1.32899e-25)
(-0.202042 -0.241876 -1.58149e-24)
(-0.21416 -0.228697 -2.68908e-24)
(-0.224464 -0.216111 1.42008e-25)
(-0.0293638 -0.3257 -9.15863e-26)
(-0.0673461 -0.328936 -7.60316e-25)
(-0.0970399 -0.325941 7.38072e-26)
(-0.117181 -0.322218 -1.3829e-24)
(-0.132043 -0.312341 4.92453e-26)
(-0.146288 -0.299807 -1.36539e-25)
(-0.160579 -0.286204 1.43546e-24)
(-0.174383 -0.272414 0)
(-0.186776 -0.258303 1.33483e-24)
(-0.197897 -0.243385 1.36501e-24)
(-0.210282 -0.228835 -1.37746e-24)
(-0.220808 -0.216703 -1.11315e-24)
(-0.0353185 -0.347437 9.90588e-26)
(-0.0717621 -0.349923 -4.79297e-25)
(-0.100222 -0.340372 -4.87471e-26)
(-0.116635 -0.334198 -8.32208e-25)
(-0.126572 -0.320829 -1.42336e-25)
(-0.138408 -0.303324 0)
(-0.151512 -0.285115 -6.72114e-26)
(-0.164384 -0.268103 -1.56254e-25)
(-0.175299 -0.251337 9.80579e-25)
(-0.184119 -0.232664 1.18385e-24)
(-0.196752 -0.215868 1.21782e-24)
(-0.209133 -0.206333 0)
(-0.036032 -0.365063 4.75286e-25)
(-0.0668238 -0.360207 4.55828e-25)
(-0.0941379 -0.341815 -6.8536e-25)
(-0.106979 -0.332872 -1.89953e-25)
(-0.110275 -0.316743 -1.94106e-25)
(-0.119914 -0.29578 -1.46256e-25)
(-0.132555 -0.275137 -5.37349e-26)
(-0.144768 -0.25756 5.03105e-26)
(-0.152548 -0.241292 -1.16372e-25)
(-0.156088 -0.215596 0)
(-0.16608 -0.183255 7.71194e-25)
(-0.182518 -0.169004 2.62947e-25)
(-0.109793 -0.0977181 -1.02439e-25)
(-0.115179 -0.090101 1.32149e-26)
(-0.120661 -0.0821491 5.82704e-26)
(-0.126829 -0.0731054 5.00908e-26)
(-0.132043 -0.0648608 0)
(-0.135502 -0.0569312 -1.20473e-26)
(-0.138643 -0.0467877 -3.21853e-26)
(-0.140137 -0.0378773 8.40886e-27)
(-0.139745 -0.0286356 0)
(-0.13884 -0.0190325 -4.28746e-26)
(-0.137994 -0.0100309 8.54473e-27)
(-0.1366 -0.00269002 -2.69842e-27)
(-0.133943 -0.131592 -2.81712e-25)
(-0.143436 -0.122998 2.33968e-25)
(-0.154502 -0.110882 -2.91888e-27)
(-0.161765 -0.100465 -2.51801e-26)
(-0.165414 -0.090275 0)
(-0.167776 -0.08133 0)
(-0.169588 -0.0703509 4.30774e-26)
(-0.167747 -0.0624284 2.09998e-26)
(-0.164946 -0.0513495 -3.64288e-26)
(-0.162867 -0.0372265 4.19964e-26)
(-0.161402 -0.024111 -6.66274e-27)
(-0.158544 -0.012362 -1.30124e-26)
(-0.174982 -0.153256 -6.04884e-26)
(-0.185661 -0.144835 2.52356e-25)
(-0.190024 -0.134667 0)
(-0.19018 -0.12275 -7.7349e-36)
(-0.190213 -0.109234 0)
(-0.190991 -0.095619 0)
(-0.189367 -0.0848444 0)
(-0.188278 -0.0741502 0)
(-0.187448 -0.0651724 -1.14467e-25)
(-0.183118 -0.0488949 9.21529e-26)
(-0.178486 -0.0316492 -3.64671e-26)
(-0.177493 -0.0160749 1.58273e-26)
(-0.192091 -0.169913 -2.64656e-26)
(-0.198529 -0.162985 -3.02641e-25)
(-0.20358 -0.157905 0)
(-0.211132 -0.148545 1.0359e-24)
(-0.217999 -0.136871 0)
(-0.222037 -0.121771 2.93924e-25)
(-0.222095 -0.109423 -2.93612e-25)
(-0.219053 -0.0940061 7.88753e-26)
(-0.212751 -0.0830916 5.31193e-25)
(-0.209063 -0.064869 7.21034e-26)
(-0.204554 -0.0419727 1.14164e-25)
(-0.200777 -0.0191604 3.15306e-26)
(-0.210714 -0.1823 0)
(-0.219868 -0.174611 -6.59296e-25)
(-0.22811 -0.167502 0)
(-0.236104 -0.159078 6.84933e-25)
(-0.242553 -0.148743 0)
(-0.245618 -0.13765 3.22177e-25)
(-0.245136 -0.127558 -4.0248e-25)
(-0.242109 -0.116278 3.91986e-26)
(-0.236644 -0.103763 7.18052e-25)
(-0.230073 -0.0852066 0)
(-0.221579 -0.0587653 1.90896e-25)
(-0.219084 -0.0254132 -6.8924e-26)
(-0.223595 -0.19092 0)
(-0.233183 -0.182166 7.20288e-25)
(-0.241812 -0.173795 7.92741e-25)
(-0.249515 -0.165296 -9.20424e-26)
(-0.255542 -0.156608 8.46074e-27)
(-0.259386 -0.147949 0)
(-0.26083 -0.139699 -8.01921e-25)
(-0.260589 -0.130864 -1.15354e-25)
(-0.258111 -0.12026 -2.7083e-34)
(-0.25337 -0.103013 0)
(-0.24665 -0.0730703 1.49861e-25)
(-0.241952 -0.0291411 -6.91697e-26)
(-0.230762 -0.196169 6.61488e-26)
(-0.239895 -0.185936 8.21414e-25)
(-0.248005 -0.176134 6.95831e-25)
(-0.255403 -0.166826 -2.85548e-26)
(-0.261991 -0.158304 9.23701e-26)
(-0.26762 -0.150744 7.54678e-25)
(-0.272228 -0.144154 -1.03642e-25)
(-0.275577 -0.137733 -9.55052e-25)
(-0.276663 -0.130526 -8.86325e-25)
(-0.275854 -0.116756 4.87276e-25)
(-0.271043 -0.0881863 1.02998e-25)
(-0.264259 -0.0369834 9.82504e-34)
(-0.233429 -0.200029 6.04247e-26)
(-0.241569 -0.18813 1.35865e-25)
(-0.248832 -0.17661 2.50701e-26)
(-0.255677 -0.165717 6.42334e-26)
(-0.262322 -0.155966 3.10639e-26)
(-0.268941 -0.147764 8.06665e-25)
(-0.275559 -0.141515 1.57971e-24)
(-0.281841 -0.136643 -5.36808e-25)
(-0.287534 -0.132259 -1.03495e-24)
(-0.291787 -0.123723 4.01878e-25)
(-0.291884 -0.100696 2.03926e-25)
(-0.287136 -0.047021 0)
(-0.232701 -0.203245 8.24373e-26)
(-0.239708 -0.190012 -1.35708e-25)
(-0.245792 -0.176799 0)
(-0.251741 -0.163845 -1.29095e-24)
(-0.257952 -0.15207 4.75796e-26)
(-0.264793 -0.141931 7.50235e-26)
(-0.272349 -0.134324 1.48799e-26)
(-0.280531 -0.129096 0)
(-0.289366 -0.125729 -6.55843e-25)
(-0.298642 -0.120981 5.34472e-25)
(-0.306578 -0.104964 2.2334e-25)
(-0.309434 -0.0561236 1.10133e-25)
(-0.228086 -0.204525 1.17123e-24)
(-0.234149 -0.190833 1.39142e-25)
(-0.239081 -0.176569 0)
(-0.244125 -0.161755 -2.41276e-24)
(-0.249679 -0.147825 2.62072e-26)
(-0.25641 -0.135217 -3.07897e-26)
(-0.264172 -0.125563 -6.39269e-25)
(-0.272878 -0.118428 2.21725e-27)
(-0.283482 -0.113419 -2.39487e-26)
(-0.29668 -0.10872 -4.34422e-25)
(-0.313558 -0.0974347 -3.98792e-26)
(-0.329445 -0.0602109 1.13433e-25)
(-0.216156 -0.198861 9.16842e-25)
(-0.222458 -0.187292 8.44041e-25)
(-0.227037 -0.174075 0)
(-0.231751 -0.158342 -1.06628e-24)
(-0.23694 -0.142787 -1.05908e-24)
(-0.243898 -0.127811 4.23376e-26)
(-0.251862 -0.116674 -8.63243e-26)
(-0.260052 -0.107792 -1.15227e-24)
(-0.270367 -0.100143 0)
(-0.284857 -0.0910959 -7.2561e-25)
(-0.310123 -0.0769608 3.95466e-25)
(-0.342282 -0.0527074 -3.00747e-25)
(-0.189659 -0.174256 1.30252e-25)
(-0.199529 -0.172115 1.08925e-24)
(-0.206792 -0.165309 0)
(-0.213043 -0.151766 1.0416e-24)
(-0.21882 -0.135882 -1.89435e-24)
(-0.226852 -0.118798 8.46902e-25)
(-0.235776 -0.107399 8.26563e-25)
(-0.243233 -0.0983665 -9.52693e-25)
(-0.252224 -0.0897859 0)
(-0.265113 -0.0746028 0)
(-0.293058 -0.0430606 5.48835e-25)
(-0.331496 -0.00935411 4.92299e-26)
(-0.135753 0.00626346 -4.55959e-27)
(-0.133847 0.0160557 -1.53777e-26)
(-0.132649 0.0300404 0)
(-0.133663 0.0381902 0)
(-0.132836 0.0467165 0)
(-0.13091 0.0562102 -7.7909e-26)
(-0.128586 0.0649107 -7.6912e-26)
(-0.125402 0.0732107 0)
(-0.121105 0.0818484 -1.97306e-25)
(-0.116329 0.089854 1.34252e-25)
(-0.110678 0.097586 1.31826e-25)
(-0.104513 0.104443 5.31045e-26)
(-0.157129 0.00185301 -1.09428e-26)
(-0.15852 0.0128186 2.71164e-26)
(-0.158804 0.031523 0)
(-0.159455 0.0431171 2.537e-27)
(-0.160919 0.0535978 -5.7349e-26)
(-0.159855 0.0643 -1.35783e-25)
(-0.157769 0.074803 -6.55002e-26)
(-0.155515 0.0851813 3.01878e-26)
(-0.151926 0.0959323 1.3095e-25)
(-0.147599 0.10566 9.6675e-26)
(-0.141968 0.114661 3.91608e-26)
(-0.135568 0.122027 6.70613e-26)
(-0.178349 0.00685328 1.18967e-26)
(-0.17999 0.0279571 -5.14744e-36)
(-0.182849 0.0462637 0)
(-0.184594 0.0599441 0)
(-0.184051 0.0691711 5.55581e-26)
(-0.182139 0.0799109 1.44623e-25)
(-0.179153 0.0925044 1.35624e-25)
(-0.175512 0.104794 2.1544e-25)
(-0.171328 0.116533 2.19124e-25)
(-0.166594 0.127227 -2.22553e-25)
(-0.161255 0.136714 0)
(-0.155446 0.144731 4.51672e-25)
(-0.200143 0.011612 -2.89789e-26)
(-0.201252 0.0362318 -7.28854e-26)
(-0.199451 0.0546146 0)
(-0.198459 0.0664583 -1.98126e-25)
(-0.198849 0.0756688 6.54003e-26)
(-0.19788 0.0890227 3.21371e-25)
(-0.195819 0.103899 0)
(-0.192774 0.118332 3.35831e-25)
(-0.188928 0.131718 -4.47462e-25)
(-0.184479 0.14374 3.99939e-25)
(-0.179554 0.154289 5.64498e-25)
(-0.174154 0.163255 6.01621e-25)