/*--------------------------------*- C++ -*----------------------------------*\
| =========                 |                                                 |
| \\      /  F ield         | OpenFOAM: The Open Source CFD Toolbox           |
|  \\    /   O peration     | Version:  2.4.0                                 |
|   \\  /    A nd           | Web:      www.OpenFOAM.org                      |
|    \\/     M anipulation  |                                                 |
\*---------------------------------------------------------------------------*/
FoamFile
{
    version     2.0;
    format      ascii;
    class       surfaceScalarField;
    location    "0.625";
    object      phi;
}
// * * * * * * * * * * * * * * * * * * * * * * * * * * * * * * * * * * * * * //

dimensions      [0 3 -1 0 0 0 0];

internalField   nonuniform List<scalar> 
9024
(
3.94189e-08
-3.94188e-08
1.22991e-07
-8.35726e-08
2.22271e-07
-9.92792e-08
3.11422e-07
-8.9151e-08
3.69656e-07
-5.82346e-08
3.78746e-07
-9.08971e-09
3.49407e-07
2.93385e-08
2.87065e-07
6.23429e-08
1.61536e-07
1.25528e-07
-1.59666e-08
1.77503e-07
-1.70891e-07
1.54925e-07
3.92257e-07
-5.63148e-07
3.88824e-08
-7.83012e-08
1.41161e-07
-1.85851e-07
2.538e-07
-2.11918e-07
3.24819e-07
-1.6017e-07
3.13296e-07
-4.67115e-08
1.82393e-07
1.21813e-07
-1.06133e-07
3.17865e-07
-5.17098e-07
4.73308e-07
-1.01494e-06
6.23371e-07
-1.60203e-06
7.64594e-07
-1.79058e-06
3.43469e-07
-5.87903e-07
-8.10416e-07
6.6498e-08
-1.44799e-07
1.90834e-07
-3.10187e-07
3.12987e-07
-3.34072e-07
3.78043e-07
-2.25226e-07
3.38845e-07
-7.51389e-09
1.5169e-07
3.08968e-07
-2.11559e-07
6.81114e-07
-7.03053e-07
9.64802e-07
-1.10521e-06
1.02553e-06
-1.35179e-06
1.01117e-06
-1.47342e-06
4.65099e-07
2.2705e-07
-2.28837e-06
5.56189e-08
-2.00418e-07
1.60279e-07
-4.14848e-07
2.60081e-07
-4.33873e-07
3.16723e-07
-2.81868e-07
2.80437e-07
2.87724e-08
1.5201e-07
4.37396e-07
-1.05106e-07
9.3823e-07
-2.47297e-07
1.10699e-06
-6.8288e-07
1.46111e-06
-1.25939e-06
1.58769e-06
-1.96983e-06
1.17553e-06
9.88819e-07
-2.73159e-06
2.01797e-08
-2.20598e-07
6.09415e-08
-4.55609e-07
8.31861e-08
-4.56118e-07
6.53455e-08
-2.64027e-07
-2.08898e-08
1.15008e-07
-2.48489e-07
6.64995e-07
-5.85102e-07
1.27484e-06
-1.09619e-06
1.61808e-06
-1.47963e-06
1.84455e-06
-1.73707e-06
1.84513e-06
-2.07637e-06
1.51483e-06
1.19551e-06
-2.28306e-06
-2.93974e-08
-1.912e-07
-5.62097e-08
-4.28797e-07
-8.24121e-08
-4.29916e-07
-7.53688e-08
-2.71071e-07
-3.23238e-08
7.19627e-08
2.6775e-08
6.05896e-07
-2.91082e-08
1.33073e-06
-5.40728e-07
2.1297e-06
-8.47109e-07
2.15093e-06
-1.33708e-06
2.3351e-06
-1.77535e-06
1.9531e-06
1.36048e-06
-1.94033e-06
-1.21527e-07
-6.96737e-08
-2.55205e-07
-2.95118e-07
-3.73798e-07
-3.11323e-07
-3.92488e-07
-2.52381e-07
-2.75815e-07
-4.47105e-08
-4.748e-08
3.77561e-07
8.99924e-08
1.19325e-06
-1.91041e-07
2.41074e-06
-9.05739e-07
2.86563e-06
-1.18362e-06
2.61297e-06
-1.4816e-06
2.25109e-06
1.54528e-06
-1.6664e-06
-2.55142e-07
1.85468e-07
-5.03141e-07
-4.71196e-08
-7.23793e-07
-9.06702e-08
-7.99462e-07
-1.76712e-07
-6.29081e-07
-2.15091e-07
-1.58899e-07
-9.26212e-08
5.6732e-07
4.67035e-07
1.21866e-06
1.7594e-06
9.01771e-07
3.18251e-06
1.23528e-07
3.39122e-06
-6.73794e-07
3.04841e-06
2.02981e-06
-1.15832e-06
-3.99453e-07
5.84922e-07
-6.81512e-07
2.34939e-07
-9.48304e-07
1.76122e-07
-1.12001e-06
-5.00156e-09
-1.01645e-06
-3.18656e-07
-4.63031e-07
-6.4604e-07
4.76329e-07
-4.72325e-07
1.72709e-06
5.0864e-07
2.32037e-06
2.58923e-06
1.94185e-06
3.76974e-06
1.00275e-06
3.98751e-06
2.65367e-06
3.78886e-07
-4.31906e-07
1.01683e-06
-4.79802e-07
2.82835e-07
-6.31545e-07
3.27865e-07
-8.82528e-07
2.45981e-07
-1.01152e-06
-1.89661e-07
-5.68711e-07
-1.08885e-06
1.63962e-07
-1.205e-06
1.25954e-06
-5.86942e-07
2.73502e-06
1.11375e-06
3.64562e-06
2.85914e-06
3.74171e-06
3.89143e-06
2.83603e-06
3.55935e-06
1.70659e-07
8.46169e-07
8.88729e-07
-4.35235e-07
1.03023e-06
1.86363e-07
7.07833e-07
5.68379e-07
1.37648e-07
3.80524e-07
3.60627e-07
-1.31183e-06
7.55999e-07
-1.60037e-06
1.23365e-06
-1.06459e-06
2.26393e-06
8.34744e-08
3.54194e-06
1.58113e-06
4.49781e-06
2.93555e-06
2.50286e-06
4.83098e-06
2.50369e-06
-1.65752e-06
3.68523e-06
-1.61678e-06
4.08198e-06
-2.10384e-07
4.17394e-06
4.76418e-07
3.32094e-06
1.23352e-06
3.3013e-06
-1.29219e-06
3.03477e-06
-1.33384e-06
2.58588e-06
-6.15703e-07
2.58614e-06
8.32152e-08
3.30242e-06
8.64845e-07
4.34314e-06
1.89484e-06
4.98781e-06
1.85819e-06
-4.8761e-07
-7.55384e-08
-3.42591e-07
-1.45019e-07
-6.93677e-07
3.51087e-07
-1.00367e-06
3.09997e-07
-1.18884e-06
1.85161e-07
-1.20788e-06
1.90423e-08
-1.12581e-06
-8.20702e-08
-9.02614e-07
-2.23193e-07
-8.13227e-07
-8.93876e-08
-5.50179e-07
-2.63047e-07
-2.79321e-07
-2.70858e-07
-2.79321e-07
-1.27781e-06
3.91852e-07
-2.23252e-06
8.09693e-07
-2.29217e-06
4.10741e-07
-2.03557e-06
5.33935e-08
-1.66851e-06
-1.81896e-07
-1.50294e-06
-1.46529e-07
-1.43135e-06
-1.53667e-07
-1.14021e-06
-5.14324e-07
-5.45103e-07
-6.845e-07
-1.70828e-07
-6.37322e-07
-5.56371e-08
-3.8605e-07
-3.34958e-07
-2.67566e-06
7.79138e-07
-2.75144e-06
8.85474e-07
-2.92472e-06
5.8402e-07
-3.12097e-06
2.49649e-07
-3.10397e-06
-1.98902e-07
-2.95818e-06
-2.92319e-07
-2.69849e-06
-4.13357e-07
-2.11964e-06
-1.09317e-06
-1.33318e-06
-1.47096e-06
-6.58318e-07
-1.31218e-06
-1.1561e-07
-9.28757e-07
-4.50568e-07
-3.03314e-06
1.08068e-06
-3.28556e-06
1.13789e-06
-3.84065e-06
1.13911e-06
-4.31111e-06
7.20108e-07
-4.44926e-06
-6.0755e-08
-3.91178e-06
-8.29797e-07
-3.18211e-06
-1.14302e-06
-2.65913e-06
-1.61615e-06
-2.12791e-06
-2.00218e-06
-1.34052e-06
-2.09957e-06
-6.00698e-07
-1.66858e-06
-1.05127e-06
-2.19663e-06
9.94256e-07
-2.09911e-06
1.04037e-06
-2.37371e-06
1.41371e-06
-3.17271e-06
1.51911e-06
-3.81912e-06
5.85658e-07
-4.05198e-06
-5.96934e-07
-3.91395e-06
-1.28106e-06
-3.36537e-06
-2.16473e-06
-2.64705e-06
-2.72051e-06
-1.51856e-06
-3.22806e-06
-3.62705e-07
-2.82443e-06
-1.41397e-06
-1.81557e-06
8.69495e-07
-1.67923e-06
9.04031e-07
-1.84118e-06
1.57566e-06
-2.06518e-06
1.74312e-06
-2.47251e-06
9.92988e-07
-3.01959e-06
-4.98583e-08
-3.31794e-06
-9.82702e-07
-3.41188e-06
-2.0708e-06
-3.0412e-06
-3.09119e-06
-2.041e-06
-4.22826e-06
-7.06567e-07
-4.15886e-06
-2.12054e-06
-1.53654e-06
7.39632e-07
-1.24796e-06
6.15454e-07
-1.24389e-06
1.57158e-06
-1.24171e-06
1.74094e-06
-1.31934e-06
1.07062e-06
-1.53765e-06
1.68451e-07
-1.78041e-06
-7.39938e-07
-2.1348e-06
-1.71641e-06
-2.291e-06
-2.93499e-06
-1.86545e-06
-4.65381e-06
-8.79673e-07
-5.14464e-06
-3.00021e-06
-1.32776e-06
9.09067e-07
-1.11797e-06
4.05667e-07
-8.23477e-07
1.27709e-06
-4.8679e-07
1.40425e-06
-2.37445e-07
8.21277e-07
-1.96248e-07
1.27253e-07
-3.12981e-07
-6.23204e-07
-5.93831e-07
-1.43556e-06
-8.4119e-07
-2.68763e-06
-9.40188e-07
-4.55481e-06
-6.32489e-07
-5.45234e-06
-3.6327e-06
-1.08454e-07
1.39641e-06
-3.15788e-07
6.13001e-07
1.51683e-07
8.0962e-07
7.52045e-07
8.03888e-07
1.16585e-06
4.07477e-07
1.31559e-06
-2.24957e-08
1.28958e-06
-5.9719e-07
1.06819e-06
-1.21417e-06
7.33078e-07
-2.35252e-06
2.87672e-07
-4.10941e-06
-1.04608e-07
-5.06006e-06
-3.73731e-06
3.05854e-06
1.89722e-06
2.73651e-06
9.35029e-07
2.86017e-06
6.85961e-07
3.06454e-06
5.99519e-07
3.09729e-06
3.7472e-07
2.97812e-06
9.66787e-08
2.87048e-06
-4.89551e-07
2.74128e-06
-1.08497e-06
2.44096e-06
-2.05221e-06
1.60696e-06
-3.27541e-06
5.60984e-07
-4.01408e-06
-3.17632e-06
5.12302e-06
1.60518e-06
5.24396e-06
8.14092e-07
5.31853e-06
6.11388e-07
5.1001e-06
8.17956e-07
4.79414e-06
6.80675e-07
4.45291e-06
4.37906e-07
4.29542e-06
-3.32052e-07
4.20684e-06
-9.96395e-07
3.82263e-06
-1.66799e-06
2.78355e-06
-2.23633e-06
1.31864e-06
-2.54917e-06
-1.85768e-06
5.34458e-06
1.24841e-06
5.55273e-06
6.05936e-07
5.70482e-06
4.59306e-07
5.86218e-06
6.60596e-07
6.01432e-06
5.28534e-07
5.75246e-06
6.99765e-07
5.87138e-06
-4.50977e-07
5.90605e-06
-1.03106e-06
5.43941e-06
-1.20135e-06
4.29836e-06
-1.09528e-06
2.5665e-06
-8.17309e-07
7.0882e-07
3.34617e-08
-3.34617e-08
9.27956e-08
-5.93338e-08
1.54792e-07
-6.19965e-08
2.00887e-07
-4.60945e-08
2.13485e-07
-1.25988e-08
1.92209e-07
2.12765e-08
1.34228e-07
5.79811e-08
3.35796e-08
1.00648e-07
-1.12392e-07
1.45972e-07
-3.0274e-07
1.90348e-07
-5.30526e-07
2.27786e-07
2.49628e-07
-7.80154e-07
2.23342e-08
-5.5796e-08
7.62727e-08
-1.13272e-07
1.24845e-07
-1.10568e-07
1.3899e-07
-6.02403e-08
1.0334e-07
2.30514e-08
-1.33828e-08
1.37999e-07
-2.1773e-07
2.62328e-07
-5.10197e-07
3.93115e-07
-8.86419e-07
5.22194e-07
-1.33232e-06
6.36252e-07
-1.82027e-06
7.15732e-07
7.37738e-07
-2.30838e-06
2.96734e-08
-8.54694e-08
6.3936e-08
-1.47535e-07
6.76975e-08
-1.1433e-07
1.05942e-08
-3.137e-09
-1.23625e-07
1.5727e-07
-3.44355e-07
3.5873e-07
-6.63579e-07
5.81552e-07
-1.08269e-06
8.12224e-07
-1.59303e-06
1.03254e-06
-2.17278e-06
1.216e-06
-2.78562e-06
1.32858e-06
1.33559e-06
-3.38347e-06
4.49104e-09
-8.99604e-08
-9.76756e-09
-1.33276e-07
-6.75822e-08
-5.65152e-08
-1.82257e-07
1.11538e-07
-3.70382e-07
3.45395e-07
-6.38492e-07
6.2684e-07
-9.94242e-07
9.37301e-07
-1.43963e-06
1.25761e-06
-1.96792e-06
1.56083e-06
-2.56027e-06
1.80835e-06
-3.18471e-06
1.95301e-06
1.94958e-06
-3.7987e-06
-2.57125e-08
-6.42479e-08
-9.68708e-08
-6.2118e-08
-2.12799e-07
5.94134e-08
-3.67576e-07
2.66315e-07
-5.6401e-07
5.41829e-07
-8.054e-07
8.68231e-07
-1.09868e-06
1.23058e-06
-1.44973e-06
1.60866e-06
-1.86003e-06
1.97113e-06
-2.32176e-06
2.27008e-06
-2.81534e-06
2.44659e-06
2.44528e-06
-3.31103e-06
-6.9815e-08
5.56705e-09
-2.0278e-07
7.0847e-08
-3.65253e-07
2.21886e-07
-5.27145e-07
4.28207e-07
-6.81238e-07
6.95922e-07
-8.27419e-07
1.01441e-06
-9.73691e-07
1.37686e-06
-1.13122e-06
1.76619e-06
-1.31392e-06
2.15383e-06
-1.53071e-06
2.48686e-06
-1.77965e-06
2.69553e-06
2.71492e-06
-2.04929e-06
-1.29025e-07
1.34592e-07
-3.29881e-07
2.71703e-07
-5.27094e-07
4.19099e-07
-6.65622e-07
5.66735e-07
-7.38096e-07
7.68395e-07
-7.45897e-07
1.02221e-06
-6.99514e-07
1.33047e-06
-6.13574e-07
1.68025e-06
-5.16831e-07
2.05709e-06
-4.38787e-07
2.40882e-06
-3.96639e-07
2.65338e-06
2.71848e-06
-4.00203e-07
-2.10707e-07
3.45299e-07
-4.74402e-07
5.35399e-07
-6.83474e-07
6.28171e-07
-7.66777e-07
6.50038e-07
-7.3305e-07
7.34668e-07
-5.93134e-07
8.82297e-07
-3.57403e-07
1.09474e-06
-3.40198e-08
1.35687e-06
3.33936e-07
1.68913e-06
6.92801e-07
2.04996e-06
1.01234e-06
2.33385e-06
2.46262e-06
1.2682e-06
-2.96025e-07
6.41324e-07
-5.7129e-07
8.10663e-07
-7.24016e-07
7.80898e-07
-6.97142e-07
6.23164e-07
-5.37279e-07
5.74804e-07
-2.74212e-07
6.19231e-07
9.15082e-08
7.29022e-07
5.82164e-07
8.6621e-07
1.14925e-06
1.12204e-06
1.70932e-06
1.48989e-06
2.23234e-06
1.81082e-06
1.99511e-06
2.69985e-06
-3.14546e-07
9.5587e-07
-4.23407e-07
9.19525e-07
-3.43263e-07
7.00753e-07
-9.69678e-08
3.76869e-07
2.35886e-07
2.41951e-07
6.02435e-07
2.52681e-07
1.0083e-06
3.23152e-07
1.53497e-06
3.39549e-07
2.15593e-06
5.01075e-07
2.74884e-06
8.96981e-07
3.30308e-06
1.25658e-06
1.43855e-06
3.85964e-06
-4.69095e-08
1.00278e-06
3.70683e-07
5.01933e-07
9.07153e-07
1.64282e-07
1.4679e-06
-1.83879e-07
2.02974e-06
-3.19883e-07
2.51718e-06
-2.3476e-07
3.01107e-06
-1.70739e-07
3.45377e-06
-1.03156e-07
3.97719e-06
-2.23425e-08
4.44658e-06
4.27586e-07
4.78588e-06
9.17288e-07
1.04667e-06
5.17776e-06
1.32512e-06
-3.22342e-07
2.40032e-06
-5.73265e-07
3.37517e-06
-8.10573e-07
4.1649e-06
-9.7361e-07
4.84147e-06
-9.96444e-07
5.46325e-06
-8.56545e-07
5.89242e-06
-5.9991e-07
6.14322e-06
-3.53957e-07
6.39125e-06
-2.70369e-07
6.82766e-06
-8.8285e-09
7.26586e-06
4.7909e-07
7.40201e-06
9.10521e-07
-1.02651e-06
2.46359e-07
-1.23757e-06
2.11055e-07
-1.3807e-06
1.43128e-07
-1.4333e-06
5.26055e-08
-1.36932e-06
-6.39833e-08
-1.1854e-06
-1.8392e-07
-9.14317e-07
-2.71082e-07
-6.04225e-07
-3.10092e-07
-3.15085e-07
-2.8914e-07
-1.04661e-07
-2.10424e-07
-4.21464e-09
-1.00446e-07
-4.21464e-09
-2.74485e-06
6.82827e-07
-3.07614e-06
5.42349e-07
-3.25576e-06
3.22751e-07
-3.24935e-06
4.61908e-08
-3.05252e-06
-2.60808e-07
-2.67881e-06
-5.57632e-07
-2.15412e-06
-7.95772e-07
-1.536e-06
-9.28218e-07
-9.1196e-07
-9.13176e-07
-3.9304e-07
-7.29344e-07
-7.92303e-08
-4.14256e-07
-8.34449e-08
-3.9126e-06
1.21196e-06
-4.32088e-06
9.50628e-07
-4.56326e-06
5.6513e-07
-4.60555e-06
8.84848e-08
-4.42486e-06
-4.41504e-07
-4.01795e-06
-9.64543e-07
-3.39372e-06
-1.42e-06
-2.58778e-06
-1.73416e-06
-1.67854e-06
-1.82242e-06
-8.12848e-07
-1.59503e-06
-1.95646e-07
-1.03146e-06
-2.79091e-07
-4.35443e-06
1.76769e-06
-4.80476e-06
1.40096e-06
-5.108e-06
8.68371e-07
-5.22835e-06
2.08829e-07
-5.14609e-06
-5.23761e-07
-4.84049e-06
-1.27014e-06
-4.29364e-06
-1.96685e-06
-3.49966e-06
-2.52814e-06
-2.48093e-06
-2.84114e-06
-1.35184e-06
-2.72413e-06
-3.83538e-07
-1.99976e-06
-6.6263e-07
-3.77297e-06
2.22962e-06
-4.1651e-06
1.79309e-06
-4.45639e-06
1.15967e-06
-4.62419e-06
3.76622e-07
-4.65274e-06
-4.95207e-07
-4.52689e-06
-1.396e-06
-4.21777e-06
-2.27597e-06
-3.68509e-06
-3.06082e-06
-2.87257e-06
-3.65366e-06
-1.78623e-06
-3.81046e-06
-6.13614e-07
-3.17238e-06
-1.27624e-06
-2.32059e-06
2.50092e-06
-2.57218e-06
2.04467e-06
-2.78405e-06
1.37154e-06
-2.94507e-06
5.37644e-07
-3.0473e-06
-3.92976e-07
-3.08524e-06
-1.35806e-06
-3.04198e-06
-2.31923e-06
-2.88146e-06
-3.22134e-06
-2.5042e-06
-4.03092e-06
-1.80757e-06
-4.50709e-06
-7.63616e-07
-4.21634e-06
-2.03986e-06
-4.52171e-07
2.55289e-06
-5.48617e-07
2.14112e-06
-6.77056e-07
1.49998e-06
-8.28514e-07
6.89101e-07
-9.93385e-07
-2.28105e-07
-1.15939e-06
-1.19206e-06
-1.31754e-06
-2.16107e-06
-1.46037e-06
-3.07851e-06
-1.50666e-06
-3.98463e-06
-1.33072e-06
-4.68304e-06
-7.17652e-07
-4.8294e-06
-2.75751e-06
1.43386e-06
2.38723e-06
1.49182e-06
2.08316e-06
1.44566e-06
1.54613e-06
1.30194e-06
8.32829e-07
1.07412e-06
-2.85301e-10
7.90709e-07
-9.08656e-07
4.6673e-07
-1.83709e-06
9.86456e-08
-2.71042e-06
-2.61625e-07
-3.62436e-06
-5.38867e-07
-4.40579e-06
-4.5929e-07
-4.90898e-06
-3.2168e-06
3.05896e-06
2.02812e-06
3.26806e-06
1.87406e-06
3.3155e-06
1.49869e-06
3.20538e-06
9.42951e-07
2.97091e-06
2.34184e-07
2.61325e-06
-5.5099e-07
2.16872e-06
-1.39257e-06
1.63586e-06
-2.17756e-06
1.04711e-06
-3.03561e-06
4.13329e-07
-3.77201e-06
-1.95959e-08
-4.47605e-06
-3.2364e-06
4.33507e-06
1.55269e-06
4.65968e-06
1.54945e-06
4.80214e-06
1.35623e-06
4.75712e-06
9.87976e-07
4.54182e-06
4.49481e-07
4.17291e-06
-1.82079e-07
3.67862e-06
-8.98278e-07
3.06685e-06
-1.5658e-06
2.34886e-06
-2.31762e-06
1.47718e-06
-2.90033e-06
6.01039e-07
-3.59991e-06
-2.63536e-06
5.54934e-06
1.18112e-06
5.83761e-06
1.26118e-06
5.98936e-06
1.20447e-06
5.97954e-06
9.97797e-07
5.79472e-06
6.34305e-07
5.46117e-06
1.51472e-07
4.98429e-06
-4.21405e-07
4.39228e-06
-9.73787e-07
3.65603e-06
-1.58137e-06
2.68951e-06
-1.93382e-06
1.45993e-06
-2.37032e-06
-1.17543e-06
7.38855e-06
1.19458e-06
7.33358e-06
1.31616e-06
7.26393e-06
1.27412e-06
7.14669e-06
1.11504e-06
6.92146e-06
8.59533e-07
6.60579e-06
4.67135e-07
6.17808e-06
6.30887e-09
5.68559e-06
-4.81301e-07
5.06484e-06
-9.60613e-07
4.18376e-06
-1.05273e-06
2.75713e-06
-9.43699e-07
1.5817e-06
4.07733e-08
-4.07733e-08
1.11732e-07
-7.09582e-08
1.84372e-07
-7.26402e-08
2.36905e-07
-5.25336e-08
2.48431e-07
-1.15252e-08
2.20346e-07
2.80846e-08
1.46244e-07
7.41022e-08
1.90235e-08
1.2722e-07
-1.64621e-07
1.83644e-07
-4.02901e-07
2.3828e-07
-6.85324e-07
2.82423e-07
3.04308e-07
-9.89632e-07
3.0646e-08
-7.14193e-08
9.66651e-08
-1.36977e-07
1.53067e-07
-1.29042e-07
1.65378e-07
-6.48449e-08
1.13019e-07
4.08344e-08
-3.78754e-08
1.78979e-07
-2.95435e-07
3.31662e-07
-6.60927e-07
4.92712e-07
-1.1272e-06
6.49913e-07
-1.67223e-06
7.83318e-07
-2.25537e-06
8.65564e-07
8.68595e-07
-2.81966e-06
4.02728e-08
-1.11692e-07
8.75747e-08
-1.84279e-07
9.71703e-08
-1.38638e-07
3.12617e-08
1.06362e-09
-1.29296e-07
2.01392e-07
-4.021e-07
4.51783e-07
-7.99788e-07
7.29349e-07
-1.32136e-06
1.01429e-06
-1.94995e-06
1.2785e-06
-2.64947e-06
1.48284e-06
-3.36634e-06
1.58243e-06
1.53966e-06
-4.0374e-06
1.955e-08
-1.31242e-07
2.38047e-08
-1.88534e-07
-2.40058e-08
-9.08269e-08
-1.44353e-07
1.21411e-07
-3.61291e-07
4.1833e-07
-6.86539e-07
7.77032e-07
-1.12978e-06
1.17259e-06
-1.6891e-06
1.57361e-06
-2.3465e-06
1.93591e-06
-3.06575e-06
2.20209e-06
-3.79575e-06
2.31243e-06
2.22268e-06
-4.47878e-06
-4.51111e-09
-1.26731e-07
-4.88333e-08
-1.44212e-07
-1.45911e-07
6.25102e-09
-2.97458e-07
2.72957e-07
-5.1366e-07
6.34532e-07
-8.03775e-07
1.06715e-06
-1.17791e-06
1.54673e-06
-1.63836e-06
2.03405e-06
-2.1747e-06
2.47225e-06
-2.76083e-06
2.78821e-06
-3.35742e-06
2.90903e-06
2.78384e-06
-3.91858e-06
-4.1615e-08
-8.5116e-08
-1.38613e-07
-4.72137e-08
-2.70877e-07
1.38515e-07
-4.16628e-07
4.18708e-07
-5.7509e-07
7.92995e-07
-7.51862e-07
1.24392e-06
-9.60712e-07
1.75558e-06
-1.21253e-06
2.28587e-06
-1.51131e-06
2.77103e-06
-1.84912e-06
3.12602e-06
-2.20599e-06
3.2659e-06
3.13147e-06
-2.55362e-06
-9.8613e-08
1.3497e-08
-2.54914e-07
1.09087e-07
-4.11643e-07
2.95245e-07
-5.20235e-07
5.273e-07
-5.77959e-07
8.50719e-07
-5.90852e-07
1.25681e-06
-5.79488e-07
1.74421e-06
-5.65204e-07
2.27158e-06
-5.68917e-07
2.77475e-06
-6.05073e-07
3.16217e-06
-6.78762e-07
3.33959e-06
3.23745e-06
-7.84739e-07
-1.84649e-07
1.98146e-07
-4.07661e-07
3.32099e-07
-5.74548e-07
4.62131e-07
-6.19144e-07
5.71896e-07
-5.50241e-07
7.81816e-07
-3.8148e-07
1.08805e-06
-1.41175e-07
1.50391e-06
1.40363e-07
1.99005e-06
4.2915e-07
2.48596e-06
6.92041e-07
2.89928e-06
9.00628e-07
3.131e-06
3.10163e-06
1.03645e-06
-2.9991e-07
4.98056e-07
-5.63834e-07
5.96023e-07
-6.96664e-07
5.94961e-07
-6.45587e-07
5.2082e-07
-4.4473e-07
5.80959e-07
-1.17915e-07
7.61234e-07
3.08969e-07
1.07702e-06
8.04138e-07
1.49488e-06
1.32812e-06
1.96198e-06
1.8364e-06
2.391e-06
2.28431e-06
2.68309e-06
2.75078e-06
2.63516e-06
-3.89287e-07
8.87343e-07
-5.52127e-07
7.58863e-07
-5.07322e-07
5.50156e-07
-2.99033e-07
3.12531e-07
1.6803e-08
2.65123e-07
4.18485e-07
3.59552e-07
9.13113e-07
5.82396e-07
1.49034e-06
9.17655e-07
2.12255e-06
1.32976e-06
2.76497e-06
1.74858e-06
3.36266e-06
2.0854e-06
2.24774e-06
3.8657e-06
-1.73336e-07
1.06068e-06
1.72275e-07
4.13252e-07
6.45563e-07
7.68682e-08
1.09066e-06
-1.32569e-07
1.48103e-06
-1.25249e-07
1.8221e-06
1.84857e-08
2.18856e-06
2.15935e-07
2.61819e-06
4.88024e-07
3.12416e-06
8.23796e-07
3.6891e-06
1.18365e-06
4.26399e-06
1.51051e-06
1.71909e-06
4.79263e-06
1.40268e-06
-3.41998e-07
2.51083e-06
-6.94898e-07
3.45544e-06
-8.67746e-07
4.11435e-06
-7.91475e-07
4.52613e-06
-5.37028e-07
4.72048e-06
-1.75862e-07
4.80891e-06
1.27498e-07
4.88458e-06
4.12355e-07
5.00316e-06
7.05214e-07
5.20291e-06
9.83898e-07
5.47995e-06
1.23348e-06
5.80379e-06
1.39525e-06
-1.28214e-06
2.92504e-07
-1.52282e-06
2.40687e-07
-1.67436e-06
1.51534e-07
-1.71597e-06
4.1614e-08
-1.61361e-06
-1.02365e-07
-1.37894e-06
-2.34669e-07
-1.05149e-06
-3.27442e-07
-6.87545e-07
-3.63949e-07
-3.54674e-07
-3.32871e-07
-1.16076e-07
-2.38599e-07
-4.00908e-09
-1.12067e-07
-4.00908e-09
-3.30117e-06
7.74017e-07
-3.64106e-06
5.80577e-07
-3.79446e-06
3.04932e-07
-3.73168e-06
-2.11639e-08
-3.46519e-06
-3.68861e-07
-3.00906e-06
-6.90794e-07
-2.39761e-06
-9.38899e-07
-1.69564e-06
-1.06592e-06
-9.98505e-07
-1.03e-06
-4.25773e-07
-8.11331e-07
-8.4064e-08
-4.53775e-07
-8.80731e-08
-4.60067e-06
1.33729e-06
-5.00377e-06
9.83669e-07
-5.2071e-06
5.08266e-07
-5.18253e-06
-4.57389e-08
-4.92168e-06
-6.29706e-07
-4.42715e-06
-1.18533e-06
-3.71179e-06
-1.65425e-06
-2.81453e-06
-1.96318e-06
-1.81805e-06
-2.02648e-06
-8.76987e-07
-1.75239e-06
-2.10016e-07
-1.12075e-06
-2.98089e-07
-5.0599e-06
1.91841e-06
-5.49354e-06
1.41731e-06
-5.74672e-06
7.61438e-07
-5.78676e-06
-5.69133e-09
-5.62606e-06
-7.90404e-07
-5.23933e-06
-1.57206e-06
-4.6123e-06
-2.28129e-06
-3.74014e-06
-2.83534e-06
-2.64393e-06
-3.12269e-06
-1.43869e-06
-2.95763e-06
-4.08287e-07
-2.15115e-06
-7.06376e-07
-4.40032e-06
2.40015e-06
-4.76878e-06
1.78578e-06
-5.00334e-06
9.95994e-07
-5.10067e-06
9.16356e-08
-5.04697e-06
-8.44105e-07
-4.84396e-06
-1.77506e-06
-4.46822e-06
-2.65703e-06
-3.87762e-06
-3.42593e-06
-3.01253e-06
-3.98778e-06
-1.87136e-06
-4.09881e-06
-6.44078e-07
-3.37843e-06
-1.35045e-06
-2.86201e-06
2.70853e-06
-3.10767e-06
2.03144e-06
-3.27784e-06
1.16616e-06
-3.37815e-06
1.91948e-07
-3.4035e-06
-8.18755e-07
-3.36576e-06
-1.81281e-06
-3.25532e-06
-2.76747e-06
-3.03778e-06
-3.64348e-06
-2.61588e-06
-4.40968e-06
-1.87885e-06
-4.83583e-06
-7.94764e-07
-4.46252e-06
-2.14522e-06
-9.09701e-07
2.83349e-06
-1.03939e-06
2.16113e-06
-1.16192e-06
1.2887e-06
-1.27741e-06
3.07435e-07
-1.3784e-06
-7.17759e-07
-1.47332e-06
-1.7179e-06
-1.56007e-06
-2.68072e-06
-1.63462e-06
-3.56892e-06
-1.62536e-06
-4.41895e-06
-1.40224e-06
-5.05895e-06
-7.51745e-07
-5.11302e-06
-2.89696e-06
1.09421e-06
2.77573e-06
1.0778e-06
2.17754e-06
9.98754e-07
1.36775e-06
8.64437e-07
4.41752e-07
6.87563e-07
-5.40884e-07
4.68776e-07
-1.49911e-06
2.14961e-07
-2.42691e-06
-8.35446e-08
-3.27042e-06
-3.87962e-07
-4.11453e-06
-6.15844e-07
-4.83106e-06
-4.98932e-07
-5.22993e-06
-3.3959e-06
2.86636e-06
2.54453e-06
2.97046e-06
2.07344e-06
2.95551e-06
1.38269e-06
2.83327e-06
5.63999e-07
2.61927e-06
-3.26885e-07
2.32018e-06
-1.20002e-06
1.94554e-06
-2.05227e-06
1.47975e-06
-2.80463e-06
9.38761e-07
-3.57354e-06
3.43794e-07
-4.2361e-06
-6.32341e-08
-4.8229e-06
-3.45913e-06
4.2358e-06
2.17443e-06
4.45402e-06
1.85522e-06
4.51951e-06
1.3172e-06
4.44422e-06
6.39285e-07
4.24361e-06
-1.26276e-07
3.92641e-06
-8.8282e-07
3.50172e-06
-1.62757e-06
2.95267e-06
-2.25558e-06
2.27302e-06
-2.89388e-06
1.42162e-06
-3.3847e-06
5.49277e-07
-3.95056e-06
-2.90985e-06
5.21958e-06
1.74749e-06
5.51109e-06
1.5637e-06
5.64972e-06
1.17858e-06
5.64171e-06
6.47287e-07
5.49849e-06
1.69481e-08
5.22893e-06
-6.13256e-07
4.83847e-06
-1.23712e-06
4.31266e-06
-1.72977e-06
3.6149e-06
-2.19613e-06
2.64687e-06
-2.41667e-06
1.3962e-06
-2.69989e-06
-1.51365e-06
6.11548e-06
1.4358e-06
6.36605e-06
1.31313e-06
6.51572e-06
1.02891e-06
6.55307e-06
6.09937e-07
6.473e-06
9.70166e-08
6.28548e-06
-4.25736e-07
5.99238e-06
-9.44021e-07
5.58719e-06
-1.32457e-06
5.02468e-06
-1.63362e-06
4.14421e-06
-1.5362e-06
2.71683e-06
-1.27251e-06
1.20318e-06
-6.23501e-09
6.23501e-09
-4.38407e-08
3.76057e-08
-1.14486e-07
7.06458e-08
-2.18837e-07
1.04351e-07
-3.55092e-07
1.36255e-07
-5.16913e-07
1.61821e-07
-6.92213e-07
1.75299e-07
-8.6818e-07
1.75968e-07
-1.03961e-06
1.71427e-07
-1.19501e-06
1.55408e-07
-1.32e-06
1.24982e-07
9.71127e-08
-1.41711e-06
-7.39031e-08
8.01381e-08
-2.39596e-07
2.03299e-07
-4.87966e-07
3.19016e-07
-8.17562e-07
4.33947e-07
-1.21893e-06
5.37624e-07
-1.65994e-06
6.02829e-07
-2.07829e-06
5.93655e-07
-2.40387e-06
5.01542e-07
-2.64889e-06
4.16446e-07
-2.81995e-06
3.26467e-07
-2.92244e-06
2.2748e-07
1.86219e-07
-3.01155e-06
-1.14837e-07
1.94975e-07
-3.81532e-07
4.69994e-07
-7.78069e-07
7.15552e-07
-1.30169e-06
9.57564e-07
-1.93323e-06
1.16916e-06
-2.60402e-06
1.27362e-06
-3.16217e-06
1.1518e-06
-3.42225e-06
7.61618e-07
-3.52639e-06
5.20588e-07
-3.71385e-06
5.13926e-07
-3.86919e-06
3.82821e-07
2.232e-07
-3.90617e-06
-1.08447e-07
3.03422e-07
-3.58286e-07
7.19834e-07
-7.32577e-07
1.08984e-06
-1.22592e-06
1.45091e-06
-1.81373e-06
1.75697e-06
-2.41654e-06
1.87643e-06
-2.93448e-06
1.66974e-06
-3.31509e-06
1.14223e-06
-3.677e-06
8.82501e-07
-3.98403e-06
8.20953e-07
-4.25156e-06
6.50352e-07
3.51259e-07
-4.37962e-06
-7.0619e-08
3.74041e-07
-2.45556e-07
8.94771e-07
-5.23154e-07
1.36744e-06
-9.12213e-07
1.83997e-06
-1.41628e-06
2.26104e-06
-2.0042e-06
2.46435e-06
-2.53734e-06
2.20289e-06
-2.91531e-06
1.52019e-06
-3.26925e-06
1.23645e-06
-3.58982e-06
1.14152e-06
-3.87836e-06
9.38896e-07
5.66095e-07
-4.0932e-06
-2.30109e-08
3.97051e-07
-9.03187e-08
9.62079e-07
-2.09723e-07
1.48684e-06
-3.92173e-07
2.02242e-06
-6.64236e-07
2.5331e-06
-1.0389e-06
2.83901e-06
-1.46928e-06
2.63328e-06
-1.92354e-06
1.97445e-06
-2.2992e-06
1.61211e-06
-2.59298e-06
1.4353e-06
-2.86699e-06
1.21291e-06
8.30263e-07
-3.13116e-06
5.75029e-09
3.91301e-07
3.35186e-08
9.34311e-07
7.64118e-08
1.44395e-06
1.29867e-07
1.96896e-06
1.47762e-07
2.51521e-06
5.40652e-08
2.9327e-06
-2.64014e-07
2.95136e-06
-6.96459e-07
2.40689e-06
-1.05681e-06
1.97246e-06
-1.29474e-06
1.67323e-06
-1.52246e-06
1.44063e-06
1.09455e-06
-1.78674e-06
-5.88861e-09
3.9719e-07
7.35356e-08
8.54887e-07
2.42719e-07
1.27477e-06
5.0584e-07
1.70584e-06
8.15363e-07
2.20569e-06
1.08902e-06
2.65904e-06
1.15049e-06
2.88989e-06
8.35819e-07
2.72156e-06
4.33738e-07
2.37454e-06
1.96203e-07
1.91076e-06
-1.68114e-09
1.63851e-06
1.30048e-06
-2.07611e-07
-6.29705e-08
4.6016e-07
2.83609e-08
7.63555e-07
2.81252e-07
1.02188e-06
6.92737e-07
1.29436e-06
1.20375e-06
1.69468e-06
1.75666e-06
2.10613e-06
2.21367e-06
2.43288e-06
2.40095e-06
2.53428e-06
2.36273e-06
2.41276e-06
2.13966e-06
2.13383e-06
1.8347e-06
1.94346e-06
1.57158e-06
1.5636e-06
-1.18088e-07
5.78249e-07
1.48017e-08
6.30665e-07
3.55332e-07
6.81347e-07
8.59064e-07
7.90626e-07
1.4575e-06
1.09623e-06
2.1278e-06
1.43583e-06
2.81635e-06
1.74433e-06
3.37465e-06
1.97598e-06
3.71983e-06
2.06758e-06
3.80761e-06
2.04606e-06
3.71769e-06
2.03338e-06
1.67013e-06
3.61915e-06
3.07066e-08
5.47542e-07
4.17529e-07
2.43843e-07
9.26702e-07
1.72174e-07
1.48304e-06
2.34293e-07
2.05404e-06
5.25231e-07
2.66143e-06
8.28443e-07
3.33951e-06
1.06625e-06
3.98604e-06
1.32946e-06
4.52699e-06
1.52663e-06
4.91482e-06
1.65823e-06
5.17527e-06
1.77293e-06
1.58193e-06
5.26347e-06
1.13321e-06
-5.85665e-07
1.95025e-06
-5.73197e-07
2.66464e-06
-5.42221e-07
3.21383e-06
-3.14894e-07
3.67829e-06
6.07649e-08
4.11923e-06
3.87512e-07
4.54863e-06
6.36841e-07
4.94112e-06
9.36964e-07
5.36966e-06
1.09809e-06
5.75251e-06
1.27538e-06
6.06599e-06
1.45944e-06
6.2635e-06
1.38442e-06
-1.47395e-06
5.68396e-08
-1.45466e-06
-1.92943e-08
-1.3384e-06
-1.16254e-07
-1.15437e-06
-1.84032e-07
-9.19532e-07
-2.34836e-07
-6.66176e-07
-2.53356e-07
-4.4175e-07
-2.24426e-07
-2.77982e-07
-1.63768e-07
-1.55112e-07
-1.2287e-07
-5.92324e-08
-9.588e-08
-7.67084e-09
-5.15616e-08
-7.67084e-09
-3.03667e-06
8.19623e-08
-2.89755e-06
-1.58422e-07
-2.64551e-06
-3.68292e-07
-2.30882e-06
-5.20722e-07
-1.89357e-06
-6.50082e-07
-1.44449e-06
-7.02436e-07
-1.0491e-06
-6.19817e-07
-7.76493e-07
-4.36376e-07
-5.30611e-07
-3.68752e-07
-2.76365e-07
-3.50126e-07
-8.44684e-08
-2.43458e-07
-9.21393e-08
-3.74738e-06
-7.68281e-08
-3.49257e-06
-4.13233e-07
-3.20914e-06
-6.51717e-07
-2.89014e-06
-8.39723e-07
-2.46517e-06
-1.07506e-06
-1.96206e-06
-1.20554e-06
-1.46197e-06
-1.11991e-06
-1.18386e-06
-7.14485e-07
-9.60164e-07
-5.92451e-07
-5.38753e-07
-7.71537e-07
-2.06831e-07
-5.7538e-07
-2.98971e-07
-4.37853e-06
-7.79184e-08
-4.22749e-06
-5.64272e-07
-3.87469e-06
-1.00452e-06
-3.3432e-06
-1.37121e-06
-2.86504e-06
-1.55322e-06
-2.48606e-06
-1.58452e-06
-2.18873e-06
-1.41724e-06
-1.69681e-06
-1.2064e-06
-1.08008e-06
-1.20918e-06
-6.31838e-07
-1.21978e-06
-3.48879e-07
-8.58339e-07
-6.47849e-07
-4.21618e-06
4.5061e-08
-4.23163e-06
-5.48822e-07
-4.11476e-06
-1.12138e-06
-3.88638e-06
-1.5996e-06
-3.51572e-06
-1.92388e-06
-3.02945e-06
-2.07079e-06
-2.41494e-06
-2.03175e-06
-2.02056e-06
-1.60078e-06
-1.65456e-06
-1.57518e-06
-9.54346e-07
-1.91999e-06
-2.55103e-07
-1.55758e-06
-9.02952e-07
-3.37782e-06
2.91719e-07
-3.60404e-06
-3.22604e-07
-3.77387e-06
-9.51544e-07
-3.82568e-06
-1.54779e-06
-3.6566e-06
-2.09296e-06
-3.22407e-06
-2.50332e-06
-2.66373e-06
-2.59209e-06
-2.1264e-06
-2.13811e-06
-1.90047e-06
-1.80111e-06
-1.65861e-06
-2.16185e-06
-7.8611e-07
-2.43009e-06
-1.68906e-06
-2.09915e-06
6.04126e-07
-2.46953e-06
4.77817e-08
-2.85185e-06
-5.69228e-07
-3.17279e-06
-1.22685e-06
-3.34944e-06
-1.91631e-06
-3.26863e-06
-2.58413e-06
-2.78958e-06
-3.07114e-06
-2.02102e-06
-2.90668e-06
-1.39812e-06
-2.424e-06
-9.51631e-07
-2.60834e-06
-2.64178e-07
-3.11754e-06
-1.95324e-06
-4.56064e-07
8.52579e-07
-8.0762e-07
3.99338e-07
-1.22299e-06
-1.53858e-07
-1.63992e-06
-8.09916e-07
-2.05485e-06
-1.50138e-06
-2.43724e-06
-2.20174e-06
-2.5121e-06
-2.99627e-06
-1.98313e-06
-3.43565e-06
-1.33595e-06
-3.07118e-06
-9.61329e-07
-2.98296e-06
-4.11933e-07
-3.66694e-06
-2.36517e-06
1.37608e-06
1.04009e-06
1.08808e-06
6.87347e-07
7.22615e-07
2.11603e-07
3.6814e-07
-4.55441e-07
-7.0151e-08
-1.06309e-06
-7.0916e-07
-1.56274e-06
-1.44013e-06
-2.2653e-06
-1.86154e-06
-3.01424e-06
-1.45993e-06
-3.47279e-06
-1.04034e-06
-3.40256e-06
-5.38638e-07
-4.16863e-06
-2.90381e-06
3.47706e-06
1.18218e-06
3.15683e-06
1.00758e-06
2.784e-06
5.84425e-07
2.55355e-06
-2.24989e-07
2.28933e-06
-7.98869e-07
1.82408e-06
-1.09749e-06
1.16574e-06
-1.60696e-06
4.345e-07
-2.283e-06
2.13976e-07
-3.25227e-06
1.52177e-07
-3.34076e-06
7.22609e-08
-4.08872e-06
-2.83155e-06
5.16411e-06
1.28153e-06
5.01083e-06
1.16086e-06
4.8838e-06
7.11458e-07
4.75778e-06
-9.89665e-08
4.60446e-06
-6.45547e-07
4.41878e-06
-9.11811e-07
4.17948e-06
-1.36766e-06
3.67683e-06
-1.78035e-06
2.95631e-06
-2.53174e-06
2.22638e-06
-2.61083e-06
1.34912e-06
-3.21146e-06
-1.48243e-06
6.35308e-06
1.19195e-06
6.45958e-06
1.05435e-06
6.51327e-06
6.57775e-07
6.4094e-06
4.90468e-09
6.28232e-06
-5.1847e-07
6.2226e-06
-8.52089e-07
6.12825e-06
-1.27331e-06
5.93969e-06
-1.5918e-06
5.47815e-06
-2.0702e-06
4.66584e-06
-1.79853e-06
3.25336e-06
-1.79897e-06
1.77093e-06
3.27846e-06
-1.32662e-06
-3.60935e-06
3.18821e-06
-1.52653e-06
3.35078e-06
-3.72948e-07
3.43518e-06
3.92011e-07
3.59058e-06
1.07813e-06
3.25717e-06
-9.58783e-07
2.81862e-06
-8.9529e-07
2.33168e-06
-1.28759e-07
1.97596e-06
4.38931e-07
1.96847e-06
8.72333e-07
2.25936e-06
1.60395e-06
1.58216e-06
2.53539e-06
4.25039e-06
-1.21467e-06
-4.36234e-06
4.1099e-06
-1.38604e-06
4.08314e-06
-3.46188e-07
4.30117e-06
1.73984e-07
4.23973e-06
1.13957e-06
3.80232e-06
-5.21368e-07
3.2084e-06
-3.01374e-07
2.81225e-06
2.67395e-07
2.50374e-06
7.47437e-07
2.40037e-06
9.757e-07
2.55197e-06
1.45235e-06
1.36164e-06
2.7725e-06
4.92832e-06
-1.20442e-06
-4.93857e-06
4.85405e-06
-1.31177e-06
4.92024e-06
-4.12382e-07
4.97114e-06
1.23084e-07
5.06686e-06
1.04384e-06
4.34065e-06
2.04852e-07
3.59411e-06
4.45159e-07
2.98967e-06
8.71842e-07
3.00519e-06
7.3191e-07
3.00191e-06
9.78979e-07
3.0989e-06
1.35536e-06
1.2247e-06
3.23584e-06
5.55298e-06
-1.26443e-06
-5.49298e-06
5.58078e-06
-1.33956e-06
5.68414e-06
-5.15749e-07
5.76431e-06
4.29118e-08
5.87692e-06
9.31239e-07
5.29931e-06
7.82458e-07
4.57035e-06
1.17411e-06
3.83451e-06
1.60769e-06