/*--------------------------------*- C++ -*----------------------------------*\
| =========                 |                                                 |
| \\      /  F ield         | OpenFOAM: The Open Source CFD Toolbox           |
|  \\    /   O peration     | Version:  2.4.0                                 |
|   \\  /    A nd           | Web:      www.OpenFOAM.org                      |
|    \\/     M anipulation  |                                                 |
\*---------------------------------------------------------------------------*/
FoamFile
{
    version     2.0;
    format      ascii;
    class       volVectorField;
    location    "0.625";
    object      U;
}
// * * * * * * * * * * * * * * * * * * * * * * * * * * * * * * * * * * * * * //

dimensions      [0 1 -1 0 0 0 0];

internalField   nonuniform List<vector> 
4608
(
(0.00573207 0.135817 0)
(0.0147177 0.133181 0)
(0.0227217 0.129073 -1.76699e-26)
(0.0303045 0.124412 -1.7283e-26)
(0.0376836 0.119923 0)
(0.0450528 0.116215 0)
(0.0525969 0.11339 -8.05274e-26)
(0.0602021 0.111101 -4.65612e-26)
(0.0686652 0.109072 1.04894e-25)
(0.0794703 0.107432 6.03049e-26)
(0.0948892 0.102794 -5.04028e-25)
(0.119464 0.0897413 3.15935e-25)
(0.000755324 0.157187 0)
(0.00544551 0.154903 -1.54245e-26)
(0.0132762 0.150996 -1.15842e-26)
(0.0238752 0.146479 0)
(0.0368435 0.142353 5.94987e-26)
(0.0517782 0.139473 3.75908e-27)
(0.0688163 0.138985 -1.70893e-25)
(0.0876504 0.140961 0)
(0.111299 0.141845 2.24538e-25)
(0.139328 0.143561 -1.47656e-26)
(0.150358 0.154382 7.02859e-25)
(0.131287 0.144042 0)
(-0.000128487 0.177662 0)
(0.00377477 0.174917 3.8399e-26)
(0.0131547 0.170551 0)
(0.0278923 0.165271 6.87324e-26)
(0.0477128 0.159667 4.29177e-26)
(0.0718685 0.15434 1.31594e-25)
(0.10011 0.149809 1.03604e-25)
(0.128247 0.149135 3.38792e-25)
(0.151704 0.148885 5.00518e-25)
(0.16469 0.147023 0)
(0.149827 0.158954 -2.2623e-25)
(0.138956 0.190653 0)
(-0.00212141 0.198836 2.36951e-26)
(0.00114899 0.196778 4.83427e-26)
(0.012318 0.193263 0)
(0.0304006 0.188111 2.93252e-25)
(0.0543643 0.181772 5.78274e-26)
(0.0827653 0.173835 3.35669e-25)
(0.115235 0.166144 1.3972e-25)
(0.137211 0.15752 2.48142e-25)
(0.160828 0.149555 0)
(0.183074 0.147169 4.41376e-25)
(0.187253 0.164422 -2.581e-25)
(0.214298 0.17279 2.04705e-25)
(-0.00236719 0.220114 1.49489e-26)
(0.00196878 0.219655 9.50774e-26)
(0.0159612 0.218088 -1.13224e-25)
(0.038165 0.214628 2.28524e-25)
(0.067644 0.20837 0)
(0.103617 0.199057 1.46697e-25)
(0.143498 0.189429 -3.03298e-25)
(0.173088 0.18607 3.39319e-25)
(0.203214 0.180473 2.50949e-26)
(0.21897 0.171927 1.10573e-24)
(0.222839 0.175232 7.23579e-25)
(0.233314 0.175732 -5.28055e-25)
(-0.000857824 0.241472 0)
(0.00537673 0.242937 1.29928e-25)
(0.0215904 0.243018 -1.31567e-25)
(0.0450349 0.240039 -2.72963e-25)
(0.0751662 0.231291 1.98956e-26)
(0.110513 0.216422 5.85817e-27)
(0.1471 0.1947 -5.93967e-26)
(0.183578 0.183915 8.38039e-26)
(0.204837 0.182913 5.04817e-26)
(0.224641 0.1734 1.02456e-24)
(0.236866 0.17939 5.81017e-25)
(0.241726 0.183215 -6.45067e-25)
(0.0031062 0.263222 -9.63546e-27)
(0.0120731 0.26788 -1.05449e-26)
(0.0301984 0.270437 0)
(0.0529182 0.269835 -3.08204e-25)
(0.0806134 0.261163 5.95693e-25)
(0.113418 0.243447 -8.94651e-25)
(0.154052 0.215921 -7.47727e-25)
(0.199529 0.186724 -5.1138e-25)
(0.225852 0.186021 -6.32025e-25)
(0.246354 0.189099 5.56898e-25)
(0.250021 0.183432 -1.0757e-24)
(0.250916 0.19141 1.41239e-24)
(0.0104547 0.285413 0)
(0.0224288 0.294193 0)
(0.042028 0.298568 3.2283e-25)
(0.0626833 0.301436 0)
(0.0850407 0.294563 6.01016e-25)
(0.109768 0.276103 -2.13925e-25)
(0.142031 0.24212 -6.7888e-25)
(0.184777 0.187647 -5.3137e-25)
(0.217558 0.150089 -5.05555e-25)
(0.237453 0.159029 -1.15076e-24)
(0.252219 0.170812 -1.14482e-24)
(0.255969 0.188906 1.21231e-24)
(0.0221235 0.307973 7.09897e-26)
(0.0351672 0.320002 3.41438e-25)
(0.0552701 0.322515 9.42722e-36)
(0.0734502 0.329087 1.60248e-26)
(0.0901999 0.326294 -1.75588e-25)
(0.104852 0.312501 -1.97859e-25)
(0.125242 0.279727 -1.42503e-24)
(0.160541 0.223671 1.61617e-25)
(0.206912 0.147405 1.72296e-25)
(0.230737 0.12139 -9.68062e-25)
(0.250665 0.130208 5.11657e-26)
(0.247125 0.160442 -6.8928e-25)
(0.0344284 0.329901 1.25734e-35)
(0.0450424 0.339319 3.16115e-25)
(0.0646015 0.331213 -3.5036e-25)
(0.0824415 0.339196 0)
(0.0958489 0.3427 -3.79639e-26)
(0.0997399 0.338724 4.2172e-25)
(0.112569 0.312662 -1.53024e-24)
(0.142439 0.275299 0)
(0.18772 0.195486 1.22692e-24)
(0.217209 0.117305 0)
(0.231989 0.0820612 -2.18349e-25)
(0.210333 0.0947747 -2.07093e-24)
(0.0587454 0.343766 3.55961e-27)
(0.0394132 0.329102 2.50614e-25)
(0.0635035 0.301996 5.20689e-25)
(0.0839163 0.307769 1.04731e-24)
(0.0979701 0.321646 4.93527e-27)
(0.0854853 0.332872 2.4685e-24)
(0.0984467 0.31502 0)
(0.127093 0.294355 -1.1533e-25)
(0.167621 0.248548 1.3492e-24)
(0.201896 0.172868 0)
(0.21756 0.105926 -6.6344e-25)
(0.199737 0.0912967 -4.67398e-25)
(-0.016709 0.299151 1.87551e-25)
(-0.00745528 0.278462 -2.16264e-34)
(0.0388865 0.239078 3.28994e-34)
(0.0708009 0.229116 1.31474e-24)
(0.0986231 0.238413 -1.03814e-24)
(0.0553938 0.264055 3.01687e-24)
(0.0701845 0.263539 1.40529e-24)
(0.11179 0.261414 0)
(0.153558 0.25278 0)
(0.18757 0.216026 0)
(0.206705 0.153803 -1.20487e-24)
(0.195026 0.123419 -1.67497e-24)
(0.106383 0.110096 -1.87049e-25)
(0.102314 0.108946 4.15205e-25)
(0.128547 0.0788173 5.06173e-26)
(0.1477 0.0696833 1.43361e-25)
(0.157843 0.0651626 0)
(0.1607 0.0647257 3.86151e-25)
(0.161599 0.0586325 4.32497e-25)
(0.159495 0.0500798 0)
(0.158691 0.0323627 0)
(0.154087 0.030118 0)
(0.147386 0.0225872 1.86269e-26)
(0.139788 0.0142109 1.39422e-26)
(0.137486 0.117431 1.34485e-24)
(0.175846 0.119927 -5.3437e-25)
(0.203081 0.10978 -9.93024e-25)
(0.198022 0.105575 -1.42373e-25)
(0.188207 0.098488 3.61644e-25)
(0.183875 0.0869454 -5.351e-25)
(0.186048 0.0774048 -1.72049e-25)
(0.183352 0.077407 -1.91815e-26)
(0.172889 0.0628149 -1.93432e-25)
(0.159837 0.0527906 0)
(0.156678 0.0351642 1.58791e-26)
(0.157058 0.0236771 1.58196e-26)
(0.207568 0.152838 -3.1794e-25)
(0.231652 0.126871 0)
(0.227131 0.133951 0)
(0.228007 0.142751 -3.86417e-25)
(0.234834 0.141226 0)
(0.242581 0.118493 -1.54101e-25)
(0.243103 0.102467 -3.47269e-25)
(0.230054 0.111664 -2.95924e-25)
(0.211713 0.104408 -1.02811e-25)
(0.197315 0.0818451 0)
(0.183302 0.0502089 3.633e-26)
(0.177399 0.0248618 -2.21018e-26)
(0.244429 0.160779 -5.91066e-25)
(0.258918 0.14536 1.01898e-25)
(0.270398 0.144466 -4.43367e-25)
(0.28322 0.154523 7.25457e-25)
(0.289562 0.169715 -1.76863e-25)
(0.285417 0.164239 -3.05655e-25)
(0.270414 0.144826 6.26336e-26)
(0.252637 0.150686 1.14706e-25)
(0.245857 0.146034 2.78551e-25)
(0.236971 0.117313 0)
(0.220492 0.0767431 2.57884e-26)
(0.206399 0.039096 -9.8873e-26)
(0.242895 0.163287 6.15271e-25)
(0.249257 0.14174 -1.31081e-25)
(0.263975 0.117767 3.11692e-25)
(0.283522 0.115368 3.23383e-25)
(0.292687 0.145433 -2.29621e-25)
(0.294473 0.175753 -1.03093e-25)
(0.299189 0.175932 -1.45627e-25)
(0.290896 0.180201 -3.40706e-26)
(0.279457 0.17546 2.28384e-25)
(0.263028 0.164672 2.49452e-25)
(0.233057 0.12162 -5.06679e-25)
(0.222168 0.0587411 -1.01899e-25)
(0.243849 0.177058 6.75269e-25)
(0.251123 0.1538 -1.02596e-24)
(0.274897 0.118786 -7.14342e-25)
(0.290279 0.0991335 -2.14836e-25)
(0.287374 0.113152 0)
(0.290755 0.141119 -2.09172e-25)
(0.300373 0.160478 2.06259e-26)
(0.302822 0.183397 -3.45348e-25)
(0.304627 0.19833 0)
(0.291817 0.207352 1.30598e-25)
(0.266146 0.17384 -1.419e-25)
(0.246929 0.0814333 4.18199e-26)
(0.247467 0.192587 0)
(0.25156 0.170732 0)
(0.277039 0.125965 -7.90527e-25)
(0.289402 0.101453 0)
(0.282721 0.104304 -2.07556e-25)
(0.278508 0.12125 -3.53238e-25)
(0.280188 0.137343 5.79713e-25)
(0.286753 0.156697 2.38851e-25)
(0.296757 0.183083 5.40387e-26)
(0.295918 0.220898 -3.64503e-25)
(0.288031 0.205534 -2.45219e-25)
(0.273291 0.103947 -5.47791e-26)
(0.252928 0.201038 3.12163e-25)
(0.259843 0.191105 2.35612e-24)
(0.283088 0.141026 6.07234e-25)
(0.286534 0.112382 -6.50446e-25)
(0.273877 0.106811 -7.41754e-25)
(0.265077 0.112066 -3.87755e-25)
(0.262454 0.121668 4.76544e-25)
(0.267616 0.136345 9.90383e-25)
(0.274641 0.160951 0)
(0.280284 0.2063 -4.36756e-25)
(0.289908 0.214376 3.41196e-25)
(0.296573 0.125178 1.79476e-25)
(0.239411 0.181093 5.39126e-25)
(0.250493 0.191772 3.28886e-25)
(0.269259 0.155119 1.7873e-24)
(0.263808 0.124567 -3.10156e-25)
(0.24925 0.112349 -8.21232e-25)
(0.241994 0.108174 -3.64097e-25)
(0.239219 0.109879 4.15413e-25)
(0.244385 0.116052 1.09675e-24)
(0.249946 0.136393 1.35411e-25)
(0.261101 0.179199 0)
(0.283441 0.196608 2.5111e-25)
(0.313871 0.129545 1.19321e-25)
(0.199926 0.113632 4.45138e-25)
(0.202058 0.132418 -8.76722e-25)
(0.209777 0.124569 0)
(0.20899 0.109157 -8.23095e-25)
(0.20726 0.101965 0)
(0.211841 0.0978599 0)
(0.215629 0.0984008 2.78542e-25)
(0.221093 0.0998866 -1.50639e-25)
(0.222289 0.115408 1.32581e-25)
(0.238409 0.14879 1.1474e-24)
(0.27628 0.162191 -1.85908e-26)
(0.325652 0.115902 -1.99655e-26)
(0.18238 0.0922719 4.17527e-25)
(0.165356 0.0963312 -4.27219e-25)
(0.162696 0.0916175 0)
(0.169961 0.0819637 -8.94649e-25)
(0.180986 0.078795 -2.1865e-25)
(0.193247 0.0780211 0)
(0.198025 0.0836173 -3.82611e-25)
(0.201014 0.0882488 -3.53953e-25)
(0.202337 0.100786 -3.78092e-26)
(0.226485 0.113848 1.88101e-24)
(0.269872 0.115759 0)
(0.332263 0.0832608 1.55364e-25)
(0.178807 0.116067 -1.23682e-24)
(0.167925 0.113976 -5.74292e-25)
(0.170242 0.102329 0)
(0.175552 0.0827341 0)
(0.17423 0.0700214 7.65798e-25)
(0.180777 0.0636474 2.6516e-25)
(0.176072 0.0791594 -6.47593e-25)
(0.171158 0.0832922 1.80174e-25)
(0.177428 0.0816326 -6.39409e-25)
(0.206019 0.0766955 2.51622e-25)
(0.253513 0.0625896 3.06538e-25)
(0.320534 0.0148028 1.80676e-25)
(0.135816 -0.00578393 2.67086e-27)
(0.133555 -0.0152402 -1.08661e-26)
(0.130301 -0.0238554 3.80254e-26)
(0.126699 -0.0321793 0)
(0.123291 -0.0405317 3.88162e-26)
(0.120231 -0.0492301 -4.77657e-26)
(0.117442 -0.0582897 -5.67186e-26)
(0.114978 -0.0678373 0)
(0.112847 -0.0781064 -4.68542e-26)
(0.110899 -0.0892889 -5.08498e-26)
(0.108881 -0.10143 -3.54229e-27)
(0.106457 -0.114291 5.04938e-26)
(0.157221 -0.00143554 8.64113e-27)
(0.155697 -0.00802902 -4.06195e-26)
(0.153233 -0.0173232 -6.16095e-26)
(0.150357 -0.0286205 5.88106e-26)
(0.147439 -0.0413742 2.81493e-26)
(0.144984 -0.055525 3.3519e-27)
(0.143424 -0.0712646 0)
(0.142568 -0.0886391 0)
(0.142185 -0.107692 1.5501e-25)
(0.142004 -0.128186 1.00687e-25)
(0.141764 -0.149375 -2.9337e-25)
(0.141286 -0.169984 1.04357e-25)
(0.177826 -0.00200695 -4.0761e-27)
(0.176478 -0.0101417 -7.57339e-26)
(0.174555 -0.0223745 -7.96915e-26)
(0.17238 -0.0381013 8.02378e-26)
(0.170207 -0.0567145 0)
(0.16808 -0.077451 0)
(0.166103 -0.10018 0)
(0.16433 -0.124765 0)
(0.16267 -0.150812 2.76931e-35)
(0.16111 -0.177456 2.49755e-25)
(0.159789 -0.203296 -2.66072e-25)
(0.159014 -0.226623 1.24442e-25)
(0.199068 -0.00198612 1.58687e-26)
(0.198688 -0.0121522 -5.31779e-26)
(0.198088 -0.0278502 -3.5688e-26)
(0.196748 -0.0479486 -2.00152e-25)
(0.194591 -0.0715793 4.83575e-26)
(0.19159 -0.0979023 0)
(0.187738 -0.126257 0)
(0.183181 -0.156085 0)
(0.178153 -0.186546 -8.43266e-25)
(0.173146 -0.216335 0)
(0.168932 -0.243754 5.26651e-25)
(0.166444 -0.267091 2.26052e-25)
(0.220204 -0.00353599 7.6353e-26)
(0.220967 -0.0170301 -1.08302e-25)
(0.221566 -0.0363461 0)
(0.220774 -0.0600518 -4.51689e-25)
(0.21803 -0.0870593 3.23275e-26)
(0.213104 -0.116436 -1.37827e-25)
(0.20596 -0.147362 0)
(0.196904 -0.178993 0)
(0.186559 -0.210207 -6.28971e-25)
(0.176016 -0.239467 0)
(0.166744 -0.264993 6.47229e-25)
(0.160331 -0.285245 0)
(0.241474 -0.00633947 -4.44042e-37)
(0.243672 -0.0237617 -1.19481e-25)
(0.245355 -0.046062 0)
(0.244754 -0.0716806 9.65229e-35)
(0.240773 -0.0998615 -9.28207e-26)
(0.233185 -0.12961 -1.7677e-25)
(0.221904 -0.160091 0)
(0.207402 -0.190318 -3.84162e-25)
(0.190638 -0.219116 -8.68192e-26)
(0.173288 -0.244916 -5.78054e-25)
(0.157501 -0.265981 -8.64255e-25)
(0.145503 -0.281024 0)
(0.262844 -0.0107369 2.92109e-26)
(0.266913 -0.0322218 4.46566e-27)
(0.269582 -0.0564645 -2.34287e-25)
(0.268941 -0.0820442 5.05379e-25)
(0.263297 -0.10913 3.35226e-25)
(0.252865 -0.136845 -8.46194e-25)
(0.237474 -0.164459 -2.87964e-25)
(0.217707 -0.190933 8.74756e-26)
(0.19465 -0.21532 -1.0887e-24)
(0.170475 -0.236249 -6.52317e-25)
(0.147908 -0.252034 -6.81196e-25)
(0.129697 -0.261648 4.15633e-26)
(0.284437 -0.0170984 5.96355e-26)
(0.290878 -0.0422445 -1.37679e-25)
(0.293974 -0.0670188 -2.94927e-25)
(0.292926 -0.0905235 1.07416e-24)
(0.285244 -0.114619 9.90046e-25)
(0.272293 -0.138709 -8.32063e-25)
(0.253717 -0.162127 -2.35826e-25)
(0.229999 -0.18366 -3.47432e-25)
(0.201902 -0.202929 -1.27436e-24)
(0.172038 -0.219047 -2.19856e-25)
(0.143587 -0.230187 1.62304e-26)
(0.11946 -0.23542 1.01553e-25)
(0.306126 -0.0257612 -1.17512e-25)
(0.314553 -0.0531498 -1.44008e-25)
(0.315904 -0.0764726 -1.79936e-25)
(0.313092 -0.0957816 8.55055e-25)
(0.302511 -0.115552 0)
(0.287575 -0.135478 2.90606e-25)
(0.267634 -0.154612 3.70229e-25)
(0.242641 -0.171139 9.6294e-25)
(0.212064 -0.185665 9.27813e-25)
(0.178912 -0.198286 0)
(0.146856 -0.206518 -8.7352e-26)
(0.118373 -0.209058 6.2321e-26)
(0.327293 -0.0355421 -7.90874e-26)
(0.334498 -0.061555 -5.20883e-26)
(0.328054 -0.0800625 1.41295e-25)
(0.320001 -0.092911 -3.77014e-25)
(0.30468 -0.10749 -3.22499e-25)
(0.287312 -0.123755 4.70889e-25)
(0.267524 -0.139638 1.92778e-25)
(0.244932 -0.152129 1.30766e-24)
(0.215697 -0.163565 1.99418e-24)
(0.183109 -0.175437 9.01599e-25)
(0.152274 -0.183546 1.55585e-25)
(0.124011 -0.18532 -6.05331e-25)
(0.345213 -0.0461841 1.16126e-25)
(0.340656 -0.0608899 -7.58859e-26)
(0.318087 -0.0704958 6.18194e-25)
(0.301121 -0.0767248 0)
(0.279569 -0.086564 1.026e-24)
(0.258721 -0.0998343 1.97552e-25)
(0.237924 -0.110682 1.30752e-25)
(0.218729 -0.119454 6.75468e-25)
(0.196872 -0.127526 7.00759e-25)
(0.167954 -0.140723 6.6186e-25)
(0.141549 -0.1541 -6.31056e-25)
(0.120525 -0.158909 -6.84634e-25)
(0.333608 -0.0183665 -1.27506e-25)
(0.313424 -0.0303553 -5.09412e-25)
(0.274347 -0.0369043 0)
(0.249824 -0.0424447 0)
(0.226123 -0.0501232 6.15339e-25)
(0.202932 -0.0607834 -4.57245e-25)
(0.181658 -0.070962 -4.25858e-25)
(0.166399 -0.0815164 4.18425e-25)
(0.155391 -0.0910268 -4.95596e-25)
(0.134406 -0.102674 0)
(0.108373 -0.11066 1.38206e-27)
(0.0902828 -0.11604 3.53995e-25)
(0.103277 -0.127258 4.50052e-26)
(0.0990538 -0.139371 -2.22515e-25)
(0.0936256 -0.149537 1.02208e-25)
(0.0869599 -0.156922 5.14976e-25)
(0.0788773 -0.160915 3.2891e-25)
(0.0692772 -0.161028 1.63497e-34)
(0.0584212 -0.157686 -1.0549e-25)
(0.0465934 -0.1521 -7.70187e-27)
(0.0341259 -0.145733 2.40079e-27)
(0.0216321 -0.140186 -5.21947e-26)
(0.0102037 -0.136689 -1.2024e-26)
(0.00149474 -0.135782 4.96074e-27)
(0.140467 -0.188429 1.72127e-25)
(0.139194 -0.203222 -5.00357e-25)
(0.137236 -0.213297 -5.1352e-25)
(0.134104 -0.218053 3.63477e-25)
(0.129225 -0.217692 2.4539e-25)
(0.121991 -0.21288 -1.62036e-25)
(0.111563 -0.204335 -1.85267e-25)
(0.0970327 -0.193124 -1.13136e-25)
(0.077919 -0.180739 1.88634e-25)
(0.0547221 -0.169142 1.65416e-25)
(0.0299526 -0.160477 -5.94076e-26)
(0.00766392 -0.156848 -3.55767e-27)
(0.159112 -0.245855 -1.88922e-25)
(0.160213 -0.259913 2.76871e-25)
(0.162083 -0.268349 -2.68478e-25)
(0.164047 -0.27122 2.57202e-25)
(0.165028 -0.268898 0)
(0.163606 -0.261978 -2.35013e-25)
(0.157894 -0.251108 2.24527e-25)
(0.145663 -0.236885 -1.85998e-25)
(0.124666 -0.220113 -2.09443e-25)
(0.0933574 -0.202475 8.30302e-26)
(0.0538578 -0.18657 -6.71934e-26)
(0.0139428 -0.178143 5.84179e-27)
(0.166484 -0.285075 5.93322e-25)
(0.169417 -0.297175 2.87903e-25)
(0.174992 -0.303581 -6.85798e-26)
(0.182274 -0.304871 -2.62185e-26)
(0.189921 -0.301945 4.64746e-25)
(0.196145 -0.295554 -4.52258e-25)
(0.198504 -0.285943 3.66506e-25)
(0.193752 -0.273134 3.80944e-25)
(0.17774 -0.256659 4.15223e-25)
(0.14502 -0.236912 2.96615e-25)
(0.0927918 -0.215174 7.87656e-26)
(0.0275882 -0.19989 3.17069e-26)
(0.158071 -0.299363 1.12453e-24)
(0.160578 -0.307412 -6.11864e-25)
(0.167627 -0.310264 0)
(0.178213 -0.309274 0)
(0.190948 -0.305803 8.81913e-25)
(0.203951 -0.301048 -4.92708e-26)
(0.215015 -0.29529 5.30684e-26)
(0.220829 -0.28837 1.05726e-25)
(0.216549 -0.278498 2.59565e-25)
(0.192915 -0.26439 -1.75811e-25)
(0.139112 -0.243927 -2.15468e-25)
(0.0483578 -0.22314 -4.15345e-26)
(0.139102 -0.289623 5.80042e-25)
(0.139192 -0.292439 -5.34928e-25)
(0.145585 -0.290948 -2.7489e-25)
(0.157094 -0.287189 6.18071e-26)
(0.172098 -0.283006 5.69357e-25)
(0.188735 -0.279946 -3.69315e-25)
(0.205294 -0.278371 5.1732e-25)
(0.219396 -0.278808 2.08066e-25)
(0.227716 -0.278752 6.17494e-25)
(0.219806 -0.276626 0)
(0.178858 -0.266412 0)
(0.0741054 -0.247891 0)
(0.118187 -0.265073 0)
(0.114693 -0.263487 1.06821e-24)
(0.119193 -0.258743 0)
(0.130282 -0.253302 0)
(0.145967 -0.249203 -1.27119e-25)
(0.163867 -0.248205 3.52487e-26)
(0.182336 -0.250134 5.77964e-25)
(0.199526 -0.256608 2.96579e-27)
(0.214849 -0.264674 3.56923e-25)
(0.220029 -0.274907 -3.8752e-25)
(0.198774 -0.278535 2.09399e-25)
(0.0983223 -0.272585 -9.69368e-26)
(0.102329 -0.23507 -1.35211e-24)
(0.094069 -0.230713 7.47519e-25)
(0.0951336 -0.224282 1.02298e-24)
(0.104139 -0.218515 1.03594e-24)
(0.119306 -0.215274 1.08193e-24)
(0.13692 -0.216973 1.13057e-24)
(0.155764 -0.222184 4.86007e-26)
(0.17335 -0.233746 1.21404e-25)
(0.190626 -0.247429 1.53023e-26)
(0.201907 -0.267245 -8.5222e-25)
(0.197063 -0.282577 3.26746e-25)
(0.113365 -0.294475 -7.65943e-26)
(0.0959241 -0.206663 -9.84422e-25)
(0.0821448 -0.201218 -2.62044e-25)
(0.0781646 -0.194363 1.615e-24)
(0.0830855 -0.189362 8.92947e-25)
(0.0951171 -0.186852 1.03106e-24)
(0.110622 -0.190356 5.39531e-25)
(0.128154 -0.198017 1.02498e-25)
(0.144512 -0.213605 4.18761e-26)
(0.161062 -0.230989 5.46918e-25)
(0.173238 -0.258096 -4.56764e-25)
(0.178392 -0.281999 1.79059e-26)
(0.11445 -0.31171 -3.12875e-26)
(0.098682 -0.182867 0)
(0.0801233 -0.178228 -7.6503e-25)
(0.0704908 -0.172288 -1.90638e-34)
(0.0699152 -0.168421 0)
(0.0767504 -0.166913 -3.94213e-26)
(0.0886961 -0.171761 -2.4459e-25)
(0.103048 -0.180205 0)
(0.116695 -0.198068 0)
(0.130366 -0.216658 1.45179e-24)
(0.139233 -0.248576 -5.62001e-25)
(0.147119 -0.277476 0)
(0.0994868 -0.323313 -1.4414e-25)
(0.0991738 -0.15984 2.65534e-25)
(0.0812737 -0.15864 2.03654e-25)
(0.0689507 -0.155875 -1.26857e-24)
(0.0638433 -0.154541 0)
(0.0653696 -0.154599 0)
(0.0725841 -0.160453 0)
(0.0824023 -0.168541 8.07784e-25)
(0.0924004 -0.18655 0)
(0.101719 -0.203508 9.57922e-25)
(0.104491 -0.237341 -2.89558e-34)
(0.106677 -0.267041 -4.5654e-25)
(0.0674035 -0.327716 -2.89152e-25)
(0.0778942 -0.124169 0)
(0.0682672 -0.132825 7.19782e-25)
(0.0609364 -0.137507 -4.48201e-25)
(0.0569092 -0.141195 5.54061e-25)
(0.0562708 -0.1448 0)
(0.060298 -0.152035 6.2537e-25)
(0.0658836 -0.160038 7.77047e-25)
(0.0726375 -0.175888 2.56694e-25)
(0.0771759 -0.189268 3.01388e-25)
(0.0738386 -0.219407 6.17246e-25)
(0.0592141 -0.247213 -1.16208e-25)
(-0.00287311 -0.31689 -6.95543e-26)
(-0.00558217 -0.135739 5.13583e-27)
(-0.0148391 -0.133206 4.7681e-27)
(-0.0233434 -0.129629 1.00458e-26)
(-0.0316113 -0.125778 -4.87991e-26)
(-0.0399834 -0.122296 -7.12728e-27)
(-0.0487959 -0.119329 7.44232e-26)
(-0.05808 -0.116799 5.82827e-26)
(-0.0680606 -0.114816 0)
(-0.079053 -0.11335 -1.72161e-25)
(-0.0913082 -0.112194 -1.35312e-25)
(-0.104852 -0.110997 -8.3665e-26)
(-0.119297 -0.109312 -1.06054e-26)
(-0.000758042 -0.157168 9.01108e-27)
(-0.00691114 -0.155365 3.80662e-26)
(-0.0162676 -0.152623 -7.3772e-26)
(-0.0279765 -0.149586 0)
(-0.0414417 -0.146738 1.1653e-25)
(-0.0567017 -0.144651 -1.3393e-25)
(-0.0739561 -0.143746 -7.92967e-26)
(-0.0933322 -0.143804 -8.57749e-27)
(-0.114862 -0.144542 2.72467e-25)
(-0.138095 -0.14561 0)
(-0.161856 -0.146687 2.41391e-25)
(-0.184345 -0.147554 0)
(-0.000874482 -0.177764 4.43593e-26)
(-0.00846967 -0.176104 7.80944e-26)
(-0.0210962 -0.173893 -1.6787e-25)
(-0.0378819 -0.171565 -4.46685e-26)
(-0.0580991 -0.169409 2.25667e-26)
(-0.0810331 -0.167571 1.22435e-25)
(-0.106574 -0.166222 -2.22594e-25)
(-0.134485 -0.165365 -1.93711e-25)
(-0.164079 -0.164884 4.83216e-25)
(-0.193949 -0.164754 1.73279e-25)
(-0.222057 -0.165142 5.02334e-25)
(-0.246253 -0.166348 -4.39608e-25)
(-0.000383578 -0.198984 1.59357e-26)
(-0.00993012 -0.198153 9.40726e-26)
(-0.0263379 -0.197099 5.151e-26)
(-0.0480861 -0.195354 -2.09941e-25)
(-0.0741758 -0.192913 0)
(-0.10369 -0.189844 3.43617e-25)
(-0.135897 -0.186198 5.09098e-25)
(-0.169929 -0.182181 2.50142e-25)
(-0.204381 -0.178116 5.34719e-26)
(-0.237196 -0.174625 6.01169e-25)
(-0.266026 -0.172591 4.40035e-25)
(-0.288927 -0.172904 -1.34258e-24)
(-0.00129234 -0.220093 -4.09366e-36)
(-0.0140057 -0.220205 1.45385e-25)
(-0.0342495 -0.220113 -3.89513e-27)
(-0.0600383 -0.218571 -2.4424e-25)
(-0.0901167 -0.215073 -4.52227e-26)
(-0.123422 -0.209454 -1.32673e-25)
(-0.158926 -0.201795 2.88118e-25)
(-0.195258 -0.192604 0)
(-0.230503 -0.182775 -1.2648e-24)
(-0.262259 -0.173696 6.39434e-25)
(-0.28818 -0.16702 6.24509e-25)
(-0.306717 -0.164228 -1.17656e-24)
(-0.00334082 -0.241334 8.24748e-26)
(-0.0196968 -0.242673 1.26305e-25)
(-0.0430445 -0.243413 -1.33045e-25)
(-0.0710187 -0.241677 -3.02346e-25)
(-0.10267 -0.23642 1.00979e-25)
(-0.136796 -0.227406 8.76835e-26)
(-0.172298 -0.214704 4.13941e-25)
(-0.207517 -0.199183 -3.53471e-25)
(-0.240293 -0.182291 -3.86254e-25)
(-0.268128 -0.166202 6.50192e-25)
(-0.288853 -0.15336 -2.41957e-30)
(-0.30137 -0.145877 -6.71671e-25)
(-0.00683216 -0.262757 1.29868e-25)
(-0.0269179 -0.265864 1.09232e-26)
(-0.0522455 -0.267375 -2.44988e-26)
(-0.080316 -0.265286 -2.58114e-25)
(-0.111061 -0.257882 3.63413e-25)
(-0.143315 -0.245266 1.92419e-25)
(-0.176148 -0.227423 -7.64308e-25)
(-0.207842 -0.205585 -7.60404e-25)
(-0.236242 -0.181556 3.15325e-25)
(-0.258952 -0.158155 7.96661e-35)
(-0.27406 -0.138541 -1.30272e-24)
(-0.280885 -0.125522 -1.83678e-25)
(-0.0123466 -0.284438 6.76488e-26)
(-0.0357258 -0.29018 6.34128e-27)
(-0.0615448 -0.292235 4.06845e-25)
(-0.0875741 -0.289687 8.80789e-25)
(-0.115306 -0.279941 4.55957e-26)
(-0.143768 -0.264062 5.17993e-25)
(-0.172319 -0.241788 0)
(-0.199334 -0.214694 0)
(-0.222796 -0.184636 0)
(-0.240518 -0.15476 -1.7935e-24)
(-0.250827 -0.128635 -2.273e-24)
(-0.253328 -0.109664 1.08978e-24)
(-0.0209059 -0.306485 -1.34985e-25)
(-0.0461295 -0.315343 -3.24477e-25)
(-0.0704015 -0.316412 3.41591e-25)
(-0.0922448 -0.312816 9.85325e-26)
(-0.115421 -0.3006 1.48654e-25)
(-0.139223 -0.282444 -2.18144e-25)
(-0.163068 -0.257388 8.43806e-25)
(-0.185473 -0.227114 -2.57404e-25)
(-0.20456 -0.193182 -8.84779e-26)
(-0.21838 -0.158739 -1.0984e-24)
(-0.225425 -0.127407 -2.19639e-24)
(-0.225417 -0.102925 -5.51241e-25)
(-0.0314091 -0.328399 -6.4096e-26)
(-0.0555377 -0.338614 -6.06454e-25)
(-0.0751434 -0.333223 7.93534e-26)
(-0.0911566 -0.326151 -1.36116e-24)
(-0.109356 -0.311102 4.73887e-26)
(-0.129116 -0.292451 -1.09178e-25)
(-0.149248 -0.267843 1.25061e-24)
(-0.168395 -0.238228 0)
(-0.184695 -0.20429 1.00502e-24)
(-0.196409 -0.168685 9.03771e-25)
(-0.202163 -0.134766 -1.05457e-24)
(-0.201659 -0.106428 -1.05499e-24)
(-0.048251 -0.346984 4.09596e-26)
(-0.059135 -0.346427 -4.16328e-25)
(-0.0692044 -0.324803 -8.60651e-26)
(-0.0786122 -0.310143 -7.52129e-25)
(-0.0923819 -0.29213 -8.01393e-26)
(-0.109579 -0.275418 0)
(-0.127907 -0.255995 2.18768e-26)
(-0.145988 -0.233064 7.34965e-26)
(-0.162055 -0.205742 8.38137e-25)
(-0.174321 -0.175263 6.92778e-25)
(-0.181382 -0.144024 6.48444e-25)
(-0.182738 -0.115748 0)
(-0.0156621 -0.330267 2.94707e-25)
(-0.0255814 -0.311571 2.709e-25)
(-0.0340598 -0.271076 -5.6691e-25)
(-0.045224 -0.248064 -2.29655e-25)
(-0.0592476 -0.227618 -3.10689e-26)
(-0.0766891 -0.213711 1.00364e-25)
(-0.0947385 -0.202299 7.13759e-26)
(-0.113093 -0.190698 1.16536e-25)
(-0.130782 -0.176521 1.29061e-25)
(-0.14601 -0.159107 0)
(-0.157228 -0.138782 1.90449e-25)
(-0.163246 -0.117928 7.19457e-25)
(-0.13375 -0.106703 -5.64149e-26)
(-0.146933 -0.102857 1.70831e-25)
(-0.157547 -0.0976264 6.83926e-26)
(-0.164778 -0.0909996 6.82666e-26)
(-0.16801 -0.0826645 0)
(-0.166787 -0.0725985 -1.71328e-25)
(-0.161959 -0.0611683 -7.11691e-26)
(-0.154884 -0.0486634 -2.19214e-26)
(-0.147223 -0.0354813 0)
(-0.140737 -0.0223202 -3.38874e-26)
(-0.136732 -0.0103815 -1.11184e-26)
(-0.135735 -0.0014254 -8.78602e-27)
(-0.203611 -0.148048 -1.94097e-25)
(-0.218114 -0.147955 4.25097e-25)
(-0.227004 -0.146897 1.04144e-25)
(-0.229928 -0.144213 -1.03679e-25)
(-0.227618 -0.139311 0)
(-0.2208 -0.131627 0)
(-0.210273 -0.120233 -7.45512e-26)
(-0.197214 -0.10428 -1.02071e-25)
(-0.18319 -0.0833379 8.16121e-26)
(-0.170269 -0.0580587 9.91183e-26)
(-0.160729 -0.0313126 -7.2843e-26)
(-0.156803 -0.00771789 -5.15762e-27)
(-0.264925 -0.168585 -1.21707e-25)
(-0.277345 -0.171752 2.72563e-25)
(-0.283558 -0.175343 0)
(-0.283945 -0.178438 4.14494e-36)
(-0.279303 -0.179803 0)
(-0.270332 -0.178159 0)
(-0.257635 -0.171551 0)
(-0.241765 -0.157762 0)
(-0.223457 -0.134487 -9.39721e-26)
(-0.204377 -0.100191 8.02214e-26)
(-0.187221 -0.0572702 -5.77833e-26)
(-0.17813 -0.0144984 -1.09285e-26)
(-0.304929 -0.176087 -1.7715e-27)
(-0.314149 -0.182056 -2.75013e-25)
(-0.317461 -0.190123 0)
(-0.315686 -0.198905 6.71018e-25)
(-0.310247 -0.207346 0)
(-0.302111 -0.213598 2.12452e-25)
(-0.291103 -0.215267 -2.15664e-25)
(-0.277225 -0.20918 2.11355e-25)
(-0.259801 -0.191089 7.74116e-25)
(-0.239051 -0.155331 3.15959e-25)
(-0.216168 -0.0988608 1.70322e-25)
(-0.199949 -0.0290745 4.93885e-26)
(-0.31758 -0.16612 0)
(-0.3217 -0.172602 -4.85886e-25)
(-0.32073 -0.182792 0)
(-0.316697 -0.195385 4.11304e-25)
(-0.310851 -0.209175 0)
(-0.30446 -0.222009 2.10701e-25)
(-0.297786 -0.232362 -3.26671e-25)
(-0.290353 -0.237005 3.16695e-26)
(-0.280253 -0.231082 7.5118e-25)
(-0.265895 -0.205071 0)
(-0.244944 -0.147305 1.82714e-25)
(-0.223321 -0.0509257 -4.85718e-26)
(-0.306025 -0.144885 0)
(-0.304481 -0.150294 1.84835e-25)
(-0.299023 -0.160965 5.15924e-25)
(-0.292313 -0.175279 -5.7983e-26)
(-0.286121 -0.191417 -3.45504e-26)
(-0.281732 -0.207746 0)
(-0.27949 -0.223215 -5.64046e-25)
(-0.279534 -0.235821 -6.53762e-26)
(-0.279435 -0.242331 -2.77438e-34)
(-0.277361 -0.232391 0)
(-0.267178 -0.188069 1.67231e-25)
(-0.24824 -0.0776553 -7.26811e-26)
(-0.280258 -0.120693 -3.59029e-25)
(-0.274415 -0.124088 2.16267e-25)
(-0.266025 -0.134352 4.95736e-25)
(-0.258064 -0.149407 -1.60052e-25)
(-0.252319 -0.166846 6.71889e-26)
(-0.250265 -0.184691 4.38332e-25)
(-0.251699 -0.201963 1.59847e-26)
(-0.257669 -0.217357 -6.65848e-25)
(-0.265541 -0.230337 -8.10813e-25)
(-0.275588 -0.233208 5.33792e-25)
(-0.279211 -0.208569 1.82855e-25)
(-0.273123 -0.102736 1.87003e-33)
(-0.249092 -0.0999869 -3.85315e-25)
(-0.240682 -0.099989 -3.00438e-25)
(-0.230892 -0.108344 -2.70973e-25)
(-0.222889 -0.122693 -1.80783e-25)
(-0.218239 -0.140279 8.89307e-26)
(-0.218837 -0.158613 4.58156e-25)
(-0.22366 -0.17649 9.54743e-25)
(-0.234693 -0.192329 -8.47585e-25)
(-0.248362 -0.207049 -1.19984e-24)
(-0.267955 -0.215946 4.39837e-25)
(-0.283336 -0.207571 2.50023e-25)
(-0.295193 -0.118749 0)
(-0.219394 -0.0878821 6.38256e-26)
(-0.209991 -0.0831901 2.69953e-25)
(-0.199858 -0.08783 0)
(-0.192326 -0.0994793 -1.13987e-24)
(-0.18859 -0.115327 1.35946e-25)
(-0.191239 -0.132429 -1.95388e-25)
(-0.198443 -0.149348 -3.39314e-25)
(-0.213422 -0.164004 0)
(-0.231231 -0.177776 -8.45045e-25)
(-0.258251 -0.187576 4.12898e-25)
(-0.282755 -0.189274 2.67382e-25)
(-0.31264 -0.121031 1.40705e-25)
(-0.195712 -0.086582 5.17401e-25)
(-0.18681 -0.0767683 -2.18762e-25)
(-0.177261 -0.0764562 0)
(-0.170547 -0.0837555 -1.93006e-24)
(-0.167373 -0.096009 -9.90612e-26)
(-0.171076 -0.110152 -3.06381e-25)
(-0.179197 -0.124464 -3.75341e-25)
(-0.196245 -0.136372 4.42435e-25)
(-0.21592 -0.146978 4.14432e-25)
(-0.247782 -0.153229 -2.0439e-25)
(-0.2784 -0.15762 -1.16171e-26)
(-0.32458 -0.107281 1.35487e-25)
(-0.178901 -0.0935292 9.35406e-25)
(-0.17205 -0.079737 8.89058e-25)
(-0.164082 -0.0744805 0)
(-0.158508 -0.0767752 -8.3024e-25)
(-0.155718 -0.084129 -6.79764e-25)
(-0.159324 -0.0940498 -2.54567e-25)
(-0.166753 -0.104378 -4.21451e-25)
(-0.183319 -0.112277 -9.26092e-25)
(-0.202009 -0.118157 0)
(-0.235412 -0.117603 -7.58164e-25)
(-0.268595 -0.115932 2.45285e-25)
(-0.329051 -0.0753418 -3.03928e-25)
(-0.16408 -0.0990846 -2.02187e-25)
(-0.161267 -0.0853028 4.7909e-25)
(-0.156412 -0.0774853 0)
(-0.152596 -0.0758779 7.31291e-25)
(-0.150585 -0.0786765 -1.25045e-24)
(-0.153504 -0.0841009 7.25143e-25)
(-0.159478 -0.0899735 7.02059e-25)
(-0.172998 -0.0934333 -6.80715e-25)
(-0.188173 -0.0940589 0)
(-0.217185 -0.0860679 0)
(-0.24917 -0.0678551 4.19803e-25)
(-0.316099 -0.00478392 5.24746e-26)
(-0.1361 0.00627863 -4.88819e-27)
(-0.135691 0.0172246 -1.08469e-26)
(-0.135668 0.0276016 0)
(-0.135905 0.0379629 0)
(-0.136376 0.0486048 0)
(-0.136916 0.0596548 -3.56784e-26)
(-0.137222 0.0710604 -1.92497e-26)
(-0.136874 0.0826441 0)
(-0.135523 0.0943736 -2.19562e-25)
(-0.133162 0.105895 1.79643e-25)
(-0.12951 0.116787 1.87211e-25)
(-0.124302 0.12694 7.57602e-26)
(-0.157702 0.00585499 -8.53231e-27)
(-0.160125 0.0195671 1.93614e-26)
(-0.164068 0.0346715 0)
(-0.169025 0.0511076 -2.94705e-26)
(-0.174856 0.0688521 -6.92359e-26)
(-0.181078 0.0875181 -2.20731e-25)
(-0.186586 0.10609 -1.94604e-25)
(-0.189519 0.123243 1.22002e-25)
(-0.18798 0.139959 3.19203e-25)
(-0.184184 0.154393 2.00607e-25)
(-0.179288 0.165674 8.04767e-26)
(-0.172261 0.176479 1.53874e-25)
(-0.178512 0.0133975 7.69671e-27)
(-0.182026 0.0366197 -1.2663e-35)
(-0.187441 0.0599646 0)
(-0.194302 0.0849936 0)
(-0.202488 0.111383 1.36488e-25)
(-0.211851 0.136709 4.87158e-25)
(-0.221395 0.156672 4.6164e-25)
(-0.226151 0.167855 3.06164e-25)
(-0.224106 0.17458 3.44485e-25)
(-0.220186 0.183997 -3.63341e-25)
(-0.217631 0.19604 0)
(-0.209578 0.209213 6.64473e-25)
(-0.199293 0.0188502 -2.27632e-26)
(-0.201494 0.0494722 -6.54099e-26)
(-0.204592 0.079045 0)
(-0.208361 0.109506 -1.84363e-25)
(-0.21297 0.139409 1.78644e-25)
(-0.21908 0.164027 4.06906e-25)
(-0.227133 0.176757 0)
(-0.239375 0.174557 5.24825e-25)
(-0.243673 0.184231 -7.51038e-25)
(-0.238172 0.207206 6.81978e-25)
(-0.234888 0.223008 6.95319e-25)
(-0.232424 0.234073 5.42204e-25)