/*--------------------------------*- C++ -*----------------------------------*\
| =========                 |                                                 |
| \\      /  F ield         | OpenFOAM: The Open Source CFD Toolbox           |
|  \\    /   O peration     | Version:  v1606+                                |
|   \\  /    A nd           | Web:      www.OpenFOAM.com                      |
|    \\/     M anipulation  |                                                 |
\*---------------------------------------------------------------------------*/
FoamFile
{
    version     2.0;
    format      ascii;
    class       volScalarField;
    location    "0.0034";
    object      epsilon;
}
// * * * * * * * * * * * * * * * * * * * * * * * * * * * * * * * * * * * * * //

dimensions      [0 2 -3 0 0 0 0];

internalField   nonuniform List<scalar> 
2450
(
129.423
111.895
89.6679
79.6
79.3489
106.583
125.175
126.555
123.576
120.6
118.372
116.732
115.626
114.881
114.392
114.064
113.837
113.675
113.558
113.472
113.407
113.357
113.319
113.289
113.265
113.246
113.23
113.217
113.207
113.198
113.19
113.184
113.178
113.173
113.169
113.166
113.163
113.16
113.158
113.156
113.154
113.153
113.152
113.151
113.15
113.149
113.149
113.148
113.148
113.147
113.147
113.147
113.146
113.146
113.146
113.146
113.145
113.145
113.145
113.145
113.145
113.145
113.145
113.145
113.145
113.145
113.144
113.143
113.142
113.142
111.135
98.5772
83.4083
75.3847
81.3635
110.79
125.537
126.129
123.055
120.265
118.135
116.57
115.518
114.812
114.347
114.034
113.816
113.661
113.548
113.464
113.401
113.353
113.315
113.286
113.263
113.244
113.229
113.217
113.206
113.197
113.19
113.183
113.178
113.173
113.169
113.166
113.163
113.16
113.158
113.156
113.155
113.153
113.152
113.151
113.15
113.15
113.149
113.149
113.148
113.148
113.147
113.147
113.147
113.146
113.146
113.146
113.146
113.146
113.146
113.146
113.146
113.146
113.146
113.146
113.145
113.145
113.144
113.142
113.141
113.141
88.8484
82.7359
76.8013
76.4254
92.9306
119.742
126.827
125.887
122.409
119.78
117.778
116.331
115.37
114.722
114.292
113.998
113.793
113.645
113.537
113.456
113.396
113.349
113.313
113.284
113.262
113.244
113.229
113.217
113.206
113.198
113.19
113.184
113.179
113.174
113.17
113.167
113.164
113.161
113.159
113.157
113.156
113.154
113.153
113.152
113.152
113.151
113.15
113.15
113.149
113.149
113.148
113.148
113.148
113.147
113.147
113.147
113.147
113.147
113.147
113.147
113.147
113.147
113.147
113.147
113.147
113.146
113.145
113.143
113.141
113.141
78.7908
75.0824
76.6013
87.6637
113.559
126.839
127.77
125.06
121.59
119.144
117.31
116.045
115.179
114.606
114.22
113.952
113.762
113.624
113.523
113.446
113.389
113.344
113.309
113.282
113.26
113.242
113.228
113.216
113.206
113.198
113.19
113.184
113.179
113.175
113.171
113.167
113.164
113.162
113.16
113.158
113.157
113.155
113.154
113.153
113.153
113.152
113.151
113.151
113.15
113.15
113.149
113.149
113.149
113.149
113.148
113.148
113.148
113.148
113.148
113.148
113.148
113.148
113.148
113.148
113.147
113.147
113.145
113.143
113.141
113.141
79.3308
80.9024
94.7253
111.286
124.841
129.464
127.474
123.57
120.507
118.325
116.756
115.692
114.964
114.473
114.136
113.897
113.725
113.599
113.505
113.434
113.379
113.337
113.304
113.278
113.257
113.24
113.226
113.215
113.205
113.197
113.19
113.184
113.179
113.174
113.171
113.167
113.165
113.162
113.16
113.159
113.157
113.156
113.155
113.154
113.153
113.152
113.152
113.151
113.151
113.15
113.15
113.15
113.149
113.149
113.149
113.148
113.148
113.148
113.148
113.148
113.148
113.148
113.148
113.148
113.148
113.147
113.146
113.143
113.141
113.141
107.749
113.898
119.975
126.897
130.055
128.841
125.043
121.68
119.202
117.438
116.205
115.336
114.744
114.334
114.045
113.836
113.684
113.57
113.484
113.419
113.368
113.329
113.298
113.273
113.253
113.237
113.224
113.213
113.203
113.196
113.189
113.183
113.178
113.174
113.17
113.167
113.164
113.162
113.16
113.158
113.157
113.156
113.155
113.154
113.153
113.152
113.152
113.151
113.151
113.15
113.15
113.15
113.149
113.149
113.149
113.148
113.148
113.148
113.148
113.148
113.148
113.148
113.148
113.148
113.148
113.147
113.145
113.143
113.141
113.141
126.924
126.499
127.536
128.632
127.977
125.204
122.193
119.796
117.955
116.637
115.676
115.004
114.533
114.197
113.953
113.774
113.64
113.539
113.462
113.402
113.356
113.319
113.291
113.268
113.249
113.234
113.221
113.21
113.201
113.194
113.187
113.182
113.177
113.173
113.169
113.166
113.164
113.161
113.16
113.158
113.157
113.155
113.154
113.154
113.153
113.152
113.152
113.151
113.15
113.15
113.15
113.149
113.149
113.149
113.148
113.148
113.148
113.148
113.148
113.148
113.148
113.148
113.148
113.147
113.147
113.146
113.145
113.143
113.14
113.14
127.546
126.864
126.483
125.645
123.914
121.875
119.882
118.197
116.908
115.93
115.221
114.71
114.34
114.067
113.864
113.712
113.596
113.507
113.438
113.385
113.343
113.309
113.283
113.261
113.244
113.229
113.217
113.207
113.199
113.192
113.186
113.18
113.176
113.172
113.168
113.165
113.163
113.161
113.159
113.157
113.156
113.155
113.154
113.153
113.152
113.152
113.151
113.151
113.15
113.15
113.149
113.149
113.149
113.148
113.148
113.148
113.148
113.147
113.147
113.147
113.147
113.147
113.147
113.147
113.147
113.146
113.144
113.142
113.14
113.139
124.589
123.981
123.191
122.191
120.892
119.455
118.096
116.966
116.053
115.361
114.845
114.459
114.168
113.948
113.781
113.652
113.553
113.475
113.415
113.367
113.329
113.299
113.275
113.255
113.239
113.225
113.214
113.204
113.196
113.189
113.184
113.179
113.174
113.17
113.167
113.164
113.162
113.16
113.158
113.157
113.155
113.154
113.153
113.153
113.152
113.151
113.151
113.15
113.15
113.149
113.149
113.148
113.148
113.148
113.147
113.147
113.147
113.147
113.147
113.147
113.147
113.146
113.146
113.146
113.146
113.145
113.144
113.141
113.139
113.139
121.222
120.87
120.313
119.572
118.655
117.686
116.801
116.026
115.403
114.916
114.539
114.246
114.019
113.842
113.705
113.597
113.512
113.445
113.392
113.35
113.316
113.289
113.266
113.248
113.233
113.221
113.21
113.201
113.194
113.187
113.182
113.177
113.173
113.169
113.166
113.163
113.161
113.159
113.157
113.156
113.155
113.154
113.153
113.152
113.151
113.151
113.15
113.15
113.149
113.149
113.148
113.148
113.148
113.147
113.147
113.147
113.146
113.146
113.146
113.146
113.146
113.146
113.146
113.146
113.145
113.144
113.143
113.141
113.138
113.138
118.922
118.653
118.244
117.708
117.082
116.455
115.858
115.343
114.917
114.571
114.292
114.069
113.891
113.749
113.636
113.546
113.474
113.417
113.37
113.333
113.303
113.278
113.258
113.241
113.228
113.216
113.206
113.198
113.191
113.185
113.179
113.175
113.171
113.168
113.165
113.162
113.16
113.158
113.157
113.155
113.154
113.153
113.152
113.152
113.151
113.15
113.15
113.149
113.149
113.148
113.148
113.147
113.147
113.147
113.146
113.146
113.146
113.146
113.145
113.145
113.145
113.145
113.145
113.145
113.144
113.144
113.142
113.14
113.138
113.137
117.221
117.03
116.774
116.408
115.999
115.582
115.193
114.848
114.551
114.301
114.093
113.922
113.782
113.668
113.576
113.5
113.44
113.39
113.35
113.317
113.29
113.268
113.25
113.235
113.222
113.211
113.202
113.195
113.188
113.182
113.177
113.173
113.169
113.166
113.163
113.161
113.159
113.157
113.156
113.155
113.153
113.153
113.152
113.151
113.15
113.15
113.149
113.149
113.148
113.148
113.147
113.147
113.146
113.146
113.146
113.145
113.145
113.145
113.145
113.145
113.144
113.144
113.144
113.144
113.144
113.143
113.141
113.139
113.137
113.136
116.052
115.922
115.741
115.51
115.249
114.98
114.722
114.484
114.273
114.09
113.933
113.801
113.69
113.598
113.522
113.46
113.408
113.366
113.331
113.302
113.278
113.259
113.242
113.228
113.217
113.207
113.198
113.191
113.185
113.18
113.175
113.171
113.168
113.165
113.162
113.16
113.158
113.156
113.155
113.154
113.153
113.152
113.151
113.15
113.15
113.149
113.149
113.148
113.148
113.147
113.147
113.146
113.146
113.145
113.145
113.145
113.145
113.144
113.144
113.144
113.144
113.144
113.143
113.143
113.143
113.142
113.14
113.138
113.136
113.135
115.256
115.17
115.054
114.907
114.737
114.559
114.381
114.214
114.061
113.924
113.805
113.701
113.613
113.539
113.476
113.424
113.38
113.344
113.313
113.288
113.267
113.249
113.235
113.222
113.211
113.202
113.195
113.188
113.182
113.177
113.173
113.169
113.166
113.163
113.161
113.159
113.157
113.155
113.154
113.153
113.152
113.151
113.15
113.15
113.149
113.148
113.148
113.147
113.147
113.146
113.146
113.146
113.145
113.145
113.144
113.144
113.144
113.144
113.143
113.143
113.143
113.143
113.143
113.142
113.142
113.141
113.139
113.137
113.135
113.134
114.725
114.666
114.591
114.493
114.379
114.256
114.131
114.01
113.897
113.793
113.701
113.62
113.549
113.488
113.437
113.393
113.355
113.324
113.298
113.275
113.257
113.241
113.228
113.216
113.206
113.198
113.191
113.185
113.179
113.175
113.171
113.167
113.164
113.162
113.159
113.157
113.156
113.154
113.153
113.152
113.151
113.15
113.15
113.149
113.148
113.148
113.147
113.147
113.146
113.146
113.145
113.145
113.144
113.144
113.144
113.143
113.143
113.143
113.142
113.142
113.142
113.142
113.142
113.141
113.141
113.14
113.139
113.136
113.134
113.134
114.362
114.32
114.269
114.202
114.122
114.035
113.944
113.854
113.769
113.69
113.617
113.553
113.495
113.446
113.402
113.365
113.334
113.306
113.283
113.264
113.247
113.233
113.221
113.211
113.202
113.194
113.187
113.182
113.177
113.172
113.168
113.165
113.162
113.16
113.158
113.156
113.155
113.153
113.152
113.151
113.15
113.15
113.149
113.148
113.148
113.147
113.147
113.146
113.146
113.145
113.145
113.144
113.144
113.143
113.143
113.143
113.142
113.142
113.142
113.141
113.141
113.141
113.141
113.141
113.14
113.139
113.138
113.135
113.133
113.133
114.105
114.074
114.038
113.991
113.934
113.87
113.802
113.735
113.669
113.607
113.55
113.497
113.451
113.409
113.373
113.342
113.314
113.291
113.271
113.253
113.238
113.226
113.215
113.205
113.197
113.19
113.184
113.179
113.174
113.17
113.166
113.163
113.161
113.159
113.157
113.155
113.154
113.152
113.151
113.15
113.15
113.149
113.148
113.148
113.147
113.146
113.146
113.145
113.145
113.144
113.144
113.143
113.143
113.143
113.142
113.142
113.141
113.141
113.141
113.141
113.14
113.14
113.14
113.14
113.139
113.138
113.137
113.134
113.132
113.132
113.919
113.896
113.87
113.835
113.793
113.745
113.694
113.641
113.59
113.541
113.495
113.452
113.414
113.379
113.348
113.321
113.298
113.277
113.259
113.244
113.231
113.219
113.209
113.2
113.193
113.186
113.181
113.176
113.171
113.168
113.164
113.162
113.159
113.157
113.155
113.154
113.152
113.151
113.15
113.149
113.149
113.148
113.147
113.147
113.146
113.146
113.145
113.145
113.144
113.144
113.143
113.143
113.142
113.142
113.141
113.141
113.141
113.14
113.14
113.14
113.139
113.139
113.139
113.139
113.138
113.137
113.136
113.133
113.131
113.131
113.781
113.763
113.744
113.718
113.686
113.649
113.609
113.568
113.527
113.488
113.45
113.415
113.382
113.353
113.327
113.304
113.283
113.265
113.249
113.235
113.223
113.213
113.204
113.196
113.189
113.183
113.177
113.173
113.169
113.165
113.162
113.16
113.158
113.156
113.154
113.153
113.151
113.15
113.149
113.149
113.148
113.147
113.147
113.146
113.146
113.145
113.144
113.144
113.143
113.143
113.142
113.142
113.141
113.141
113.141
113.14
113.14
113.139
113.139
113.139
113.139
113.138
113.138
113.138
113.137
113.136
113.135
113.132
113.13
113.13
113.677
113.663
113.649
113.629
113.604
113.575
113.543
113.51
113.477
113.445
113.413
113.384
113.357
113.332
113.309
113.289
113.27
113.254
113.24
113.228
113.217
113.207
113.199
113.191
113.185
113.179
113.175
113.17
113.167
113.163
113.161
113.158
113.156
113.154
113.153
113.152
113.15
113.149
113.149
113.148
113.147
113.146
113.146
113.145
113.145
113.144
113.144
113.143
113.143
113.142
113.142
113.141
113.141
113.14
113.14
113.139
113.139
113.139
113.138
113.138
113.138
113.137
113.137
113.137
113.136
113.135
113.134
113.131
113.129
113.129
113.598
113.587
113.575
113.559
113.54
113.517
113.491
113.464
113.437
113.41
113.383
113.358
113.335
113.313
113.293
113.275
113.259
113.245
113.232
113.221
113.211
113.202
113.194
113.188
113.182
113.176
113.172
113.168
113.165
113.162
113.159
113.157
113.155
113.153
113.152
113.151
113.149
113.149
113.148
113.147
113.146
113.146
113.145
113.145
113.144
113.144
113.143
113.142
113.142
113.141
113.141
113.14
113.14
113.139
113.139
113.139
113.138
113.138
113.137
113.137
113.137
113.137
113.136
113.136
113.135
113.135
113.133
113.131
113.128
113.128
113.536
113.527
113.518
113.505
113.489
113.47
113.449
113.427
113.404
113.381
113.358
113.337
113.317
113.298
113.28
113.264
113.25
113.237
113.225
113.215
113.206
113.198
113.19
113.184
113.179
113.174
113.169
113.166
113.163
113.16
113.157
113.155
113.154
113.152
113.151
113.15
113.149
113.148
113.147
113.146
113.146
113.145
113.144
113.144
113.143
113.143
113.142
113.142
113.141
113.141
113.14
113.14
113.139
113.139
113.138
113.138
113.137
113.137
113.137
113.136
113.136
113.136
113.135
113.135
113.135
113.134
113.132
113.13
113.128
113.127
113.488
113.48
113.473
113.463
113.449
113.434
113.416
113.397
113.377
113.357
113.338
113.319
113.301
113.284
113.269
113.254
113.241
113.23
113.219
113.209
113.201
113.193
113.187
113.181
113.176
113.171
113.167
113.164
113.161
113.158
113.156
113.154
113.152
113.151
113.15
113.149
113.148
113.147
113.146
113.146
113.145
113.144
113.144
113.143
113.143
113.142
113.142
113.141
113.141
113.14
113.139
113.139
113.138
113.138
113.137
113.137
113.137
113.136
113.136
113.135
113.135
113.135
113.135
113.134
113.134
113.133
113.131
113.129
113.127
113.126
113.45
113.443
113.437
113.429
113.418
113.404
113.389
113.372
113.355
113.338
113.321
113.304
113.288
113.273
113.259
113.246
113.234
113.223
113.213
113.205
113.197
113.19
113.183
113.178
113.173
113.169
113.165
113.162
113.159
113.157
113.155
113.153
113.151
113.15
113.149
113.148
113.147
113.146
113.145
113.145
113.144
113.144
113.143
113.143
113.142
113.141
113.141
113.14
113.14
113.139
113.139
113.138
113.138
113.137
113.137
113.136
113.136
113.135
113.135
113.135
113.134
113.134
113.134
113.134
113.133
113.132
113.13
113.128
113.126
113.126
113.42
113.414
113.409
113.401
113.392
113.38
113.367
113.352
113.337
113.322
113.307
113.292
113.277
113.264
113.251
113.239
113.228
113.218
113.209
113.2
113.193
113.186
113.18
113.175
113.171
113.167
113.163
113.16
113.158
113.155
113.153
113.152
113.15
113.149
113.148
113.147
113.146
113.145
113.145
113.144
113.144
113.143
113.142
113.142
113.141
113.141
113.14
113.14
113.139
113.139
113.138
113.138
113.137
113.136
113.136
113.136
113.135
113.135
113.134
113.134
113.134
113.133
113.133
113.133
113.132
113.131
113.13
113.127
113.125
113.125
113.395
113.39
113.386
113.379
113.371
113.361
113.349
113.336
113.323
113.309
113.295
113.281
113.268
113.255
113.244
113.233
113.222
113.213
113.204
113.196
113.19
113.183
113.178
113.173
113.169
113.165
113.162
113.159
113.156
113.154
113.152
113.151
113.149
113.148
113.147
113.146
113.145
113.145
113.144
113.144
113.143
113.142
113.142
113.141
113.141
113.14
113.14
113.139
113.139
113.138
113.137
113.137
113.136
113.136
113.135
113.135
113.134
113.134
113.134
113.133
113.133
113.133
113.132
113.132
113.132
113.131
113.129
113.127
113.125
113.124
113.375
113.371
113.367
113.362
113.354
113.345
113.334
113.323
113.31
113.298
113.285
113.273
113.26
113.249
113.238
113.227
113.217
113.209
113.201
113.193
113.187
113.181
113.175
113.171
113.167
113.163
113.16
113.157
113.155
113.153
113.151
113.15
113.149
113.147
113.146
113.146
113.145
113.144
113.144
113.143
113.142
113.142
113.141
113.141
113.14
113.14
113.139
113.138
113.138
113.137
113.137
113.136
113.136
113.135
113.135
113.134
113.134
113.133
113.133
113.133
113.132
113.132
113.132
113.132
113.131
113.13
113.128
113.126
113.124
113.124
113.359
113.355
113.352
113.347
113.341
113.332
113.322
113.312
113.3
113.289
113.277
113.265
113.254
113.243
113.232
113.222
113.213
113.205
113.197
113.19
113.184
113.178
113.173
113.169
113.165
113.162
113.159
113.156
113.154
113.152
113.15
113.149
113.148
113.147
113.146
113.145
113.144
113.144
113.143
113.142
113.142
113.141
113.141
113.14
113.14
113.139
113.138
113.138
113.137
113.137
113.136
113.136
113.135
113.135
113.134
113.134
113.133
113.133
113.132
113.132
113.132
113.131
113.131
113.131
113.13
113.129
113.128
113.126
113.123
113.123
113.347
113.343
113.34
113.336
113.329
113.322
113.313
113.303
113.292
113.281
113.27
113.259
113.248
113.238
113.228
113.218
113.21
113.202
113.194
113.188
113.182
113.176
113.171
113.167
113.164
113.16
113.157
113.155
113.153
113.151
113.149
113.148
113.147
113.146
113.145
113.144
113.144
113.143
113.142
113.142
113.141
113.141
113.14
113.14
113.139
113.138
113.138
113.137
113.137
113.136
113.136
113.135
113.134
113.134
113.133
113.133
113.133
113.132
113.132
113.131
113.131
113.131
113.131
113.13
113.13
113.129
113.127
113.125
113.123
113.122
113.336
113.333
113.33
113.326
113.32
113.313
113.304
113.295
113.285
113.275
113.264
113.254
113.243
113.233
113.224
113.215
113.206
113.199
113.192
113.185
113.179
113.174
113.17
113.166
113.162
113.159
113.156
113.154
113.152
113.15
113.148
113.147
113.146
113.145
113.144
113.143
113.143
113.142
113.142
113.141
113.14
113.14
113.139
113.139
113.138
113.138
113.137
113.136
113.136
113.135
113.135
113.134
113.134
113.133
113.133
113.132
113.132
113.131
113.131
113.131
113.13
113.13
113.13
113.129
113.129
113.128
113.126
113.124
113.122
113.122
113.328
113.325
113.322
113.318
113.313
113.306
113.298
113.289
113.279
113.269
113.259
113.249
113.239
113.229
113.22
113.211
113.203
113.196
113.189
113.183
113.177
113.172
113.168
113.164
113.16
113.157
113.154
113.152
113.15
113.149
113.147
113.146
113.145
113.144
113.143
113.142
113.142
113.141
113.14
113.14
113.139
113.139
113.138
113.138
113.137
113.136
113.136
113.135
113.135
113.134
113.134
113.133
113.132
113.132
113.131
113.131
113.131
113.13
113.13
113.129
113.129
113.129
113.129
113.128
113.128
113.127
113.125
113.123
113.121
113.12
113.321
113.318
113.315
113.311
113.306
113.299
113.291
113.283
113.273
113.264
113.254
113.244
113.234
113.225
113.216
113.208
113.2
113.192
113.186
113.18
113.174
113.169
113.165
113.161
113.158
113.155
113.152
113.15
113.148
113.147
113.145
113.144
113.143
113.142
113.141
113.14
113.14
113.139
113.139
113.138
113.137
113.137
113.136
113.136
113.135
113.135
113.134
113.133
113.133
113.132
113.132
113.131
113.131
113.13
113.13
113.129
113.129
113.128
113.128
113.128
113.127
113.127
113.127
113.126
113.126
113.125
113.123
113.121
113.119
113.119
113.315
113.312
113.309
113.305
113.3
113.293
113.286
113.277
113.268
113.259
113.249
113.239
113.23
113.221
113.212
113.204
113.196
113.189
113.182
113.176
113.171
113.166
113.162
113.158
113.155
113.152
113.149
113.147
113.145
113.144
113.142
113.141
113.14
113.139
113.139
113.138
113.137
113.137
113.136
113.135
113.135
113.134
113.134
113.133
113.133
113.132
113.132
113.131
113.13
113.13
113.129
113.129
113.128
113.128
113.127
113.127
113.126
113.126
113.126
113.125
113.125
113.125
113.124
113.124
113.124
113.123
113.121
113.119
113.117
113.116
113.312
113.309
113.305
113.301
113.296
113.289
113.282
113.273
113.264
113.255
113.245
113.236
113.227
113.217
113.209
113.201
113.193
113.186
113.179
113.173
113.168
113.163
113.159
113.155
113.152
113.149
113.147
113.145
113.143
113.141
113.14
113.139
113.138
113.137
113.136
113.135
113.135
113.134
113.134
113.133
113.133
113.132
113.131
113.131
113.13
113.13
113.129
113.129
113.128
113.128
113.127
113.126
113.126
113.125
113.125
113.124
113.124
113.124
113.123
113.123
113.123
113.122
113.122
113.122
113.121
113.12
113.119
113.117
113.115
113.114
113.315
113.311
113.307
113.303
113.297
113.291
113.283
113.274
113.265
113.256
113.246
113.237
113.227
113.218
113.209
113.201
113.193
113.186
113.179
113.173
113.168
113.163
113.158
113.155
113.151
113.149
113.146
113.144
113.142
113.14
113.139
113.138
113.137
113.136
113.135
113.135
113.134
113.133
113.133
113.132
113.132
113.131
113.131
113.13
113.129
113.129
113.128
113.128
113.127
113.127
113.126
113.126
113.125
113.124
113.124
113.123
113.123
113.123
113.122
113.122
113.122
113.121
113.121
113.121
113.12
113.12
113.118
113.116
113.114
113.114
)
;

boundaryField
{
    left
    {
        type            symmetryPlane;
    }
    right
    {
        type            symmetryPlane;
    }
    top
    {
        type            symmetryPlane;
    }
    bottom
    {
        type            symmetryPlane;
    }
    frontAndBack
    {
        type            empty;
    }
}


// ************************************************************************* //
