/*--------------------------------*- C++ -*----------------------------------*\
| =========                 |                                                 |
| \\      /  F ield         | OpenFOAM: The Open Source CFD Toolbox           |
|  \\    /   O peration     | Version:  v1606+                                |
|   \\  /    A nd           | Web:      www.OpenFOAM.com                      |
|    \\/     M anipulation  |                                                 |
\*---------------------------------------------------------------------------*/
FoamFile
{
    version     2.0;
    format      ascii;
    class       surfaceScalarField;
    location    "1.6";
    object      phi;
}
// * * * * * * * * * * * * * * * * * * * * * * * * * * * * * * * * * * * * * //

dimensions      [0 3 -1 0 0 0 0];

internalField   nonuniform List<scalar> 
33146
(
-6.67025659623e-06
-8.17157620894e-06
1.48417699755e-05
-1.35373648847e-05
-7.72559147202e-06
1.45926176538e-05
-2.01011339422e-05
-7.35261109673e-06
1.39162867105e-05
-2.60979194732e-05
-7.0274393219e-06
1.31055182501e-05
-3.10465615947e-05
-6.48113520964e-06
1.2310561779e-05
-3.49370783809e-05
-5.48462642052e-06
1.16884414987e-05
-3.77726685417e-05
-4.5245815785e-06
1.04347500283e-05
-3.96066478679e-05
-3.77805883932e-06
8.47295184239e-06
-4.0308225062e-05
-3.2042702055e-06
6.18761719195e-06
-4.00030801622e-05
-2.44579981549e-06
3.84327951455e-06
-3.88401806278e-05
-1.56045893082e-06
1.52103328321e-06
-3.69104648858e-05
-6.47819733105e-07
-7.37580809084e-07
-3.43222346632e-05
2.57069507685e-07
-2.88015015699e-06
-3.10788137688e-05
1.00297954182e-06
-4.74691972916e-06
-2.69714462243e-05
1.19734487405e-06
-5.89392990392e-06
-2.20306262014e-05
9.53857940941e-07
-6.16138564365e-06
-1.65950391225e-05
7.36031648615e-07
-6.20223097465e-06
-1.08844129297e-05
7.83129900156e-07
-6.49383047108e-06
-5.26328295889e-06
8.82615091823e-07
-6.50381157286e-06
1.09088211552e-06
-6.35421592214e-06
-6.44571915606e-06
-1.59592884915e-05
1.42333566548e-05
-1.34457185255e-05
-1.56537687587e-05
1.49280857457e-05
-2.00039144156e-05
-1.49708140988e-05
1.49244357062e-05
-2.5533489476e-05
-1.33702270898e-05
1.5945457181e-05
-3.00778718632e-05
-1.05783511879e-05
1.8130378357e-05
-3.38212069281e-05
-7.59727801665e-06
1.95483577311e-05
-3.672703814e-05
-5.52945176018e-06
1.84176932782e-05
-3.85891601123e-05
-4.38441407347e-06
1.4873934511e-05
-3.94446566263e-05
-3.60958991927e-06
1.05935625505e-05
-3.93478110864e-05
-2.47318682365e-06
6.19057199275e-06
-3.84333044575e-05
-1.06456852738e-06
1.77690810714e-06
-3.67805692491e-05
4.98090508056e-07
-2.68407731279e-06
-3.44467064658e-05
2.06517985003e-06
-7.10015168308e-06
-3.1362590483e-05
3.30121967929e-06
-1.07864205417e-05
-2.72124517332e-05
3.63222229667e-06
-1.24945819121e-05
-2.22085284989e-05
2.79509020062e-06
-1.0990691019e-05
-1.68229115933e-05
1.48974249136e-06
-7.85943292028e-06
-1.12698124023e-05
7.13195296223e-07
-5.81713659564e-06
-5.69736259102e-06
8.44152004496e-07
-5.53405809428e-06
1.32223826728e-06
-5.92877571913e-06
-6.07527369155e-06
-2.32771726099e-05
1.33930899272e-05
-1.30489068907e-05
-2.26579629045e-05
1.48107691295e-05
-1.93221276762e-05
-2.0443167568e-05
1.78729233703e-05
-2.4546355094e-05
-1.58940997068e-05
2.46429211443e-05
-2.89539428161e-05
-1.01950408762e-05
3.17658132283e-05
-3.26837089094e-05
-5.17132697849e-06
3.47411002464e-05
-3.58873363363e-05
-2.10292546465e-06
3.20678085537e-05
-3.7864304082e-05
-1.31789309821e-06
2.50688023069e-05
-3.8902367593e-05
-9.33206894322e-07
1.67982100474e-05
-3.90520288979e-05
-3.43087721413e-09
8.39459934022e-06
-3.85032656492e-05
1.46732580126e-06
-8.7813159563e-08
-3.7273519324e-05
3.20096410175e-06
-8.66164026695e-06
-3.53820750171e-05
5.00823394183e-06
-1.72853963411e-05
-3.26912625642e-05
6.45824332426e-06
-2.47641727266e-05
-2.83815408375e-05
6.5550011748e-06
-2.85740540425e-05
-2.29903962669e-05
5.50659233164e-06
-2.61567207977e-05
-1.70453187254e-05
3.40840614266e-06
-1.83720136362e-05
-1.12793796558e-05
1.37880640637e-06
-9.86601104937e-06
-5.72840285781e-06
5.71518678288e-07
-5.69726293842e-06
1.10391786103e-06
-5.51014321588e-06
-5.84701517383e-06
-2.96667390763e-05
1.23491614594e-05
-1.25597928626e-05
-2.78511152212e-05
1.64643235466e-05
-1.86459662546e-05
-2.26902490416e-05
2.64925679585e-05
-2.38224328791e-05
-1.47019066771e-05
4.05815461175e-05
-2.83059006551e-05
-6.10523046662e-06
5.13919893194e-05
-3.24717407305e-05
8.41284871446e-07
5.43572623514e-05
-3.58767616674e-05
4.14408335124e-06
4.8739020454e-05
-3.7836846198e-05
3.94507161287e-06
3.705142672e-05
-3.89651797506e-05
3.49810008464e-06
2.37686139296e-05
-3.92789988117e-05
3.76085944579e-06
1.03383828634e-05
-3.896320733e-05
4.87012341199e-06
-3.21248451455e-06
-3.8076836341e-05
6.46786682171e-06
-1.69299348717e-05
-3.65433941961e-05
8.09912879991e-06
-3.06837774276e-05
-3.43578737871e-05
9.38929092404e-06
-4.26439827012e-05
-2.99520829734e-05
9.06281726207e-06
-5.00128292603e-05
-2.41148937779e-05
7.96288299871e-06
-4.80752894173e-05
-1.75376157892e-05
5.63272423586e-06
-3.69785634689e-05
-1.11443323851e-05
2.81502943661e-06
-2.09922537793e-05
-5.47700095659e-06
7.75212994064e-07
-8.78797250036e-06
6.40616916109e-07
-5.07552785775e-06
-5.59996467985e-06
-3.45989421213e-05
1.18436333606e-05
-1.21819440746e-05
-3.09750859734e-05
2.11459476424e-05
-1.82397673291e-05
-2.27456068387e-05
3.94656625324e-05
-2.35704850982e-05
-1.16235670465e-05
5.94124322375e-05
-2.84393039877e-05
-6.34021261065e-07
7.24264628628e-05
-3.29350291004e-05
7.41558224009e-06
7.41815173308e-05
-3.66937287923e-05
1.06077385028e-05
6.48397018728e-05
-3.8260340136e-05
9.07916144531e-06
4.78599339403e-05
-3.91218048053e-05
8.03417807816e-06
2.94352249379e-05
-3.91968172389e-05
7.73758276512e-06
1.08905384964e-05
-3.87455760187e-05
8.55938663965e-06
-7.66585799146e-06
-3.80167764582e-05
1.01085432904e-05
-2.6212444829e-05
-3.67884139236e-05
1.15211581147e-05
-4.48109859194e-05
-3.55091560589e-05
1.24079348997e-05
-6.06410194418e-05
-3.10831172489e-05
1.08298237908e-05
-7.16199113393e-05
-2.50023986889e-05
9.52404815497e-06
-7.0854630367e-05
-1.78806887547e-05
7.11230812681e-06
-5.78181160688e-05
-1.09880223784e-05
4.08245067146e-06
-3.61227613731e-05
-5.07627290138e-06
1.20313418361e-06
-1.52665444384e-05
2.46250792005e-07
-5.47850052447e-06
-5.39447623354e-06
-3.82555269753e-05
1.23207953467e-05
-1.18329715963e-05
-3.29941120681e-05
2.71956180448e-05
-1.79505746004e-05
-2.24336286724e-05
5.21141921241e-05
-2.3474270355e-05
-9.20387246961e-06
7.6220810389e-05
-2.8580287314e-05
3.1575164903e-06
9.02676777005e-05
-3.33572717747e-05
1.13114777456e-05
9.04841637509e-05
-3.74133929787e-05
1.34452405322e-05
7.83246261011e-05
-3.76532119008e-05
8.99435392269e-06
5.76408787398e-05
-3.77274873147e-05
7.97072756682e-06
3.57636208256e-05
-3.71796459979e-05
8.03569007794e-06
1.30895782703e-05
-3.69274283817e-05
1.01181058287e-05
-9.56578453315e-06
-3.74119182697e-05
1.33003375563e-05
-3.21525306662e-05
-3.8181612667e-05
1.61532658638e-05
-5.4998021445e-05
-3.629768592e-05
1.32760573052e-05
-7.35229845189e-05
-3.10878824664e-05
1.11715242677e-05
-8.85695491903e-05
-2.50072736226e-05
1.01406034584e-05
-8.92438234275e-05
-1.77691758851e-05
7.74292741847e-06
-7.54982893592e-05
-1.06157501513e-05
4.56317953428e-06
-4.99309192904e-05
-4.6024737699e-06
1.29585217661e-06
-2.26305505076e-05
-2.14132333495e-07
-6.78842135405e-06
-5.08385337848e-06
-4.09844354309e-05
1.23769083588e-05
-1.13619982172e-05
-3.4921255755e-05
3.11534825838e-05
-1.75342559529e-05
-2.32546301945e-05
6.0021011147e-05
-2.34229404195e-05
-8.86589741773e-06
8.64617465379e-05
-2.89949078846e-05
4.34807125339e-06
0.000100630803895
-3.40969086912e-05
1.28629309129e-05
9.86758734295e-05
-3.9431118107e-05
1.59250021075e-05
8.3240563264e-05
-3.75738331637e-05
1.07894053531e-05
5.50929047016e-05
-3.70976441462e-05
1.37105744526e-05
2.94093351233e-05
-3.55607045584e-05
1.73225203261e-05
1.68172755056e-06
-3.37505737689e-05
2.26063338828e-05
-2.49127318837e-05
-3.16248886821e-05
2.79117458146e-05
-5.04713311905e-05
-3.02719298934e-05
3.2488538258e-05
-7.45423314374e-05
-3.15772058564e-05
2.00807476746e-05
-8.38363843563e-05
-2.89162269471e-05
1.55701666107e-05
-9.98823797925e-05
-2.40624072387e-05
1.20122938776e-05
-0.00010066848137
-1.70161240641e-05
8.05625348804e-06
-8.62801493048e-05
-9.92165551806e-06
4.24085222477e-06
-5.82747447022e-05
-4.04303797067e-06
6.36055823213e-07
-2.72259019175e-05
-1.04460379865e-06
-7.47377452321e-06
-4.50280553419e-06
-4.28281028043e-05
1.12207674913e-05
-1.0316274883e-05
-3.66435003931e-05
3.14382591641e-05
-1.62897743071e-05
-2.47334349888e-05
6.19031208553e-05
-2.20646200172e-05
-1.00748649531e-05
8.94450294354e-05
-2.7229962606e-05
3.2637872578e-06
0.00010383593442
-3.16198255803e-05
1.17763976939e-05
0.00010149513226
-3.62130152229e-05
1.50593547221e-05
8.62559630241e-05
-2.83351041676e-05
1.21803313759e-05
4.95129618375e-05
-2.42184847465e-05
1.37698057698e-05
3.12206795682e-05
-2.15630069634e-05
1.58651855117e-05
1.08131223006e-05
-2.44041083545e-05
1.89903162849e-05
-4.91686885954e-06
-3.26929324444e-05
2.35272046092e-05
-2.20858634014e-05
-4.81666115479e-05
2.70035126515e-05
-3.71857566599e-05
-4.26851696848e-05
1.45082889873e-05
-8.00991274905e-05
-3.27868987614e-05
1.13560017996e-05
-0.000101242123033
-2.46761314712e-05
9.36440873447e-06
-0.000102799585816
-1.65134382644e-05
6.26000947767e-06
-8.87227925327e-05
-9.12311062567e-06
2.61717499289e-06
-6.01135523938e-05
-3.45075971052e-06
-8.21720593674e-07
-2.7983501867e-05
-2.33283209334e-06
-6.97412577699e-06
-3.84947620154e-06
-4.3579497137e-05
9.47518271593e-06
-9.1618621283e-06
-3.73271384184e-05
2.98985862153e-05
-1.48023809513e-05
-2.53063763661e-05
6.06642882653e-05
-2.042522203e-05
-1.04299381525e-05
8.84391312605e-05
-2.54993094902e-05
3.10269611955e-06
0.000102821472091
-2.98598364328e-05
1.19156396797e-05
0.000100239989071
-3.41595427568e-05
1.5961333403e-05
8.41948085037e-05
-2.58505910382e-05
1.50738176482e-05
4.75793030727e-05
-2.22855685283e-05
1.49601329276e-05
3.06411184989e-05
-1.95047763476e-05
1.54902673364e-05
9.60532993977e-06
-2.22501731381e-05
1.64118155427e-05
-6.05014732835e-06
-2.84151486774e-05
1.78334189462e-05
-2.29005170777e-05
-4.18971331015e-05
1.91260505235e-05
-3.67850594689e-05
-3.87651608585e-05
1.24226286915e-05
-8.12364918075e-05
-3.10032375381e-05
9.1600646851e-06
-0.000101124029394
-2.33060228553e-05
6.81374767729e-06
-0.000102483271979
-1.51282839668e-05
4.00155878614e-06
-8.82756343268e-05
-8.00455101228e-06
6.70792530604e-07
-5.95242447414e-05
-2.76888243935e-06
-2.56609330062e-06
-2.7260207388e-05
-3.90874974177e-06
-6.00454361529e-06
-3.17056456602e-06
-4.32112007062e-05
7.67659328249e-06
-7.94251837718e-06
-3.69831828477e-05
2.83305709869e-05
-1.32504443211e-05
-2.49526840597e-05
5.94050643887e-05
-1.86400625653e-05
-1.00011622848e-05
8.74220502721e-05
-2.34505718154e-05
3.56137887019e-06
0.000101938096919
-2.70088152792e-05
1.20677949052e-05
9.94247578203e-05
-2.98700737048e-05
1.62060233962e-05
8.34136069199e-05
-2.19014286762e-05
1.69252495591e-05
4.89616182321e-05
-1.88968850385e-05
1.55265341189e-05
3.18254798034e-05
-1.67409926443e-05
1.48426962282e-05
1.05028441027e-05
-2.04635463173e-05
1.43231416236e-05
-5.5628497552e-06
-2.78223214975e-05
1.37211147869e-05
-2.32882276259e-05
-4.30528696485e-05
1.34212080552e-05
-3.72091390694e-05
-3.75467668553e-05
9.56650381338e-06
-8.28401765469e-05
-2.93637891518e-05
6.76748299027e-06
-0.000101348450448
-2.17274263521e-05
4.19467524448e-06
-0.000102354010997
-1.3764095717e-05
1.5908881324e-06
-8.79089997538e-05
-6.91753509901e-06
-1.46714671502e-06
-5.9055501847e-05
-2.07314294099e-06
-4.49458372178e-06
-2.66847936919e-05
-5.60757824593e-06
-5.18587586179e-06
-2.48482828573e-06
-4.17351594874e-05
5.88312125286e-06
-6.73157229829e-06
-3.56426098799e-05
2.68087492127e-05
-1.16364117995e-05
-2.37333470434e-05
5.81363300556e-05
-1.67117888926e-05
-8.70068638725e-06
8.6236094223e-05
-2.14312208891e-05
5.20879380318e-06
0.000100658260543
-2.54203219343e-05
1.44103614551e-05
9.76651673635e-05
-2.7847914495e-05
1.95373243292e-05
7.98932900974e-05
-2.02957337985e-05
2.37097307474e-05
4.44449921788e-05
-1.63445604328e-05
2.06278637204e-05
2.63438843272e-05
-1.42248785224e-05
1.83136525506e-05
6.4204965398e-06
-1.81660451247e-05
1.54401137359e-05
-8.54990639465e-06
-2.61823204899e-05
1.15542234041e-05
-2.4576156904e-05
-4.01392087198e-05
7.66681099084e-06
-3.84332563869e-05
-3.53233502555e-05
7.38326894964e-06
-8.28228270619e-05
-2.7592393227e-05
4.41448486715e-06
-0.000100936010204
-2.0232352906e-05
1.69944343214e-06
-0.000102201518911
-1.24278389748e-05
-9.43167633307e-07
-8.76267827329e-05
-5.75769093416e-06
-3.74535246297e-06
-5.87388041315e-05
-1.30121166171e-06
-6.45133893096e-06
-2.62685947775e-05
-7.2302981516e-06
-4.49003586978e-06
-1.84091397439e-06
-3.95180354695e-05
3.94361107681e-06
-5.50327032995e-06
-3.42357742335e-05
2.43962277084e-05
-9.90659394849e-06
-2.34323168147e-05
5.5719861891e-05
-1.41678468566e-05
-9.57889535697e-06
8.41801582272e-05
-1.76102025646e-05
3.34640360852e-06
9.95066328853e-05
-1.95672067783e-05
1.18918819002e-05
9.77550932613e-05
-1.89563297641e-05
1.60251902437e-05
8.18480193842e-05
-1.88313847174e-05
1.80630587318e-05
6.3037365099e-05
-1.93889236307e-05
1.49125492114e-05
4.066861156e-05
-2.09555815368e-05
1.12325018009e-05
1.99237056886e-05
-2.42937635079e-05
7.1405285058e-06
-2.06178508076e-07
-2.96172485794e-05
2.55034933127e-06
-2.06364172647e-05
-3.7567798679e-05
-1.2366830628e-07
-4.2342572251e-05
-3.34311439504e-05
1.38561008777e-06
-7.78843498059e-05
-2.63478477051e-05
-5.81724369284e-08
-9.72375935321e-05
-1.8737656285e-05
-1.85863073765e-06
-0.000100014988704
-1.10393613239e-05
-3.80073366972e-06
-8.56143844855e-05
-4.58618488612e-06
-6.25816001907e-06
-5.6843902007e-05
-5.68941930681e-07
-8.46696491263e-06
-2.48131622212e-05
-8.68655938219e-06
-3.61823745144e-06
-1.15377362804e-06
-3.65860799479e-05
9.10272433061e-07
-4.32459789642e-06
-3.29550589289e-05
1.85434659208e-05
-8.34993165989e-06
-2.44395289901e-05
4.74820473828e-05
-1.2408152604e-05
-1.282215066e-05
7.51157788417e-05
-1.60809157231e-05
-1.10326588708e-06
9.09937930304e-05
-1.904217972e-05
7.58729984535e-06
9.08037460263e-05
-1.96681338412e-05
1.22214322658e-05
7.58988334481e-05
-1.84637235299e-05
1.29975345356e-05
5.5767688863e-05
-1.78294305364e-05
1.10019738933e-05
3.34924740585e-05
-1.90727222537e-05
8.05547132469e-06
1.29461532592e-05
-2.16483976106e-05
4.72476103172e-06
-8.17306653445e-06
-2.5573226944e-05
1.47318753024e-06
-2.98528456151e-05
-2.98118536666e-05
-6.86319288066e-07
-5.17438807904e-05
-2.78721111437e-05
-7.26476919943e-07
-7.61941965184e-05
-2.28034528406e-05
-2.39013661982e-06
-9.17469732133e-05
-1.61483816593e-05
-4.31602707035e-06
-9.27650729226e-05
-9.08114217864e-06
-6.34378618309e-06
-7.7414289481e-05
-3.24208084374e-06
-8.61906173355e-06
-4.96114423678e-05
1.75382237086e-07
-1.0401264827e-05
-2.00860767492e-05
-9.93305844754e-06
-1.80576273564e-06
-4.29344958629e-07
-3.27624898975e-05
-2.58128756414e-06
-2.91561764094e-06
-3.09349019093e-05
9.49632340789e-06
-6.29254962157e-06
-2.54616743094e-05
3.25485885866e-05
-9.81392082419e-06
-1.69611029997e-05
5.71518533128e-05
-1.27902691816e-05
-7.89180021469e-06
7.34154490211e-05
-1.49699623954e-05
-4.00720477884e-07
7.62471777398e-05
-1.52854920544e-05
3.53809890341e-06
6.61985631202e-05
-1.55765644858e-05
4.11818268398e-06
5.02683816721e-05
-1.62789278397e-05
2.97714257485e-06
3.15075381795e-05
-1.78033929351e-05
1.17255947728e-06
1.28701302686e-05
-1.99934543937e-05
-7.376979606e-07
-6.20229574893e-06
-2.27872183333e-05
-2.18092831674e-06
-2.57244927865e-05
-2.47687675545e-05
-3.14371009917e-06
-4.60509841448e-05
-2.29989441798e-05
-3.42845677529e-06
-6.57281710007e-05
-1.87269965867e-05
-4.5131145754e-06
-7.76946237766e-05
-1.30238233935e-05
-6.26726349721e-06
-7.62790271573e-05
-6.95842175007e-06
-8.38591091389e-06
-6.08612047412e-05
-1.88318182952e-06
-1.0532037184e-05
-3.63040502975e-05
8.70017742572e-07
-1.16265079113e-05
-1.28607010734e-05
-1.0452358585e-05
9.41900864951e-08
1.77194708973e-07
-2.79326279896e-05
-4.94372886323e-06
-1.4765267546e-06
-2.7358248181e-05
1.0469631383e-06
-4.11031017471e-06
-2.47974457226e-05
1.52889048158e-05
-6.71089462005e-06
-1.98953739904e-05
3.40039931981e-05
-9.10737316618e-06
-1.37851232416e-05
4.85497896758e-05
-1.07759023744e-05
-8.36387526954e-06
5.34329646498e-05
-1.13603601354e-05
-5.13907823475e-06
4.76937900611e-05
-1.20254667513e-05
-4.32425963872e-06
3.61485086751e-05
-1.30273147926e-05
-4.52360049957e-06
2.22607883669e-05
-1.45430251138e-05
-4.99156905778e-06
8.15529509475e-06
-1.64380326554e-05
-5.46710184836e-06
-6.18285479837e-06
-1.83076666519e-05
-5.73845581153e-06
-2.06628156343e-05
-1.94164613262e-05
-5.70558614668e-06
-3.57020145543e-05
-1.82283644082e-05
-5.6292085485e-06
-4.96448967997e-05
-1.48976921034e-05
-6.30229692081e-06
-5.6997999171e-05
-1.02179880764e-05
-7.85654905842e-06
-5.35603961242e-05
-5.19650958289e-06
-9.77957645934e-06
-3.98971817182e-05
-9.43617699687e-07
-1.12914218703e-05
-2.14826781173e-05
1.34047530945e-06
-1.15524569618e-05
-6.86361300861e-06
-9.8394359954e-06
6.16417706631e-07
5.68415778539e-07
-2.25077606241e-05
-5.99319013851e-06
-4.03573082032e-07
-2.24195430469e-05
-3.53647654813e-06
-2.07909682261e-06
-2.17253574605e-05
2.11043159845e-06
-3.90191856501e-06
-1.97411487357e-05
1.23666653727e-05
-5.55338210714e-06
-1.64976351298e-05
2.27750271784e-05
-6.84466669839e-06
-1.3129330391e-05
2.79447910121e-05
-7.54038766519e-06
-1.08126053305e-05
2.59899705694e-05
-8.33919523926e-06
-9.78489229078e-06
1.9471362609e-05
-9.44460711168e-06
-9.28706959683e-06
1.13589427566e-05
-1.09211478145e-05
-8.89194543546e-06
3.14513502432e-06
-1.25821818855e-05
-8.53303509604e-06
-5.22664443335e-06
-1.40715720566e-05
-8.09939197267e-06
-1.38251071804e-05
-1.48280152964e-05
-7.56943700005e-06
-2.27769614768e-05
-1.40728928208e-05
-7.17056415572e-06
-3.07888000719e-05
-1.16510579099e-05
-7.419657059e-06
-3.4168270296e-05
-8.15671077869e-06
-8.37988954507e-06
-3.03281231907e-05
-4.19064505738e-06
-9.64641326403e-06
-2.07895830624e-05
-5.17231635805e-07
-1.02699203702e-05
-1.07489444626e-05
1.58937185413e-06
-9.88341825812e-06
-4.59734291407e-06
-8.39531047228e-06
1.45258771544e-07
7.70548164367e-07
-1.67981126443e-05
-6.48011007096e-06
2.42608421603e-07
-1.68971887718e-05
-4.99432667916e-06
-7.26752107782e-07
-1.67537477051e-05
-3.65691103785e-06
-1.83054799877e-06
-1.61770857381e-05
-6.82776191249e-07
-2.88236423568e-06
-1.50553067439e-05
3.89911281948e-06
-3.77419578379e-06
-1.34811656208e-05
7.40506818636e-06
-4.48201486214e-06
-1.20758904741e-05
7.71295582533e-06
-5.35183241442e-06
-1.11267853136e-05
5.53675135931e-06
-6.48580553573e-06
-1.0370908573e-05
2.47012366775e-06
-7.87082531041e-06
-9.63419739816e-06
-6.93135311713e-07
-9.3483826643e-06
-8.94412010743e-06
-4.00447543202e-06
-1.06541069445e-05
-8.16935191084e-06
-7.59014176374e-06
-1.13729886303e-05
-7.4826563168e-06
-1.14064372495e-05
-1.10239366713e-05
-6.91708677051e-06
-1.4767638531e-05
-9.41023538801e-06
-6.70951346173e-06
-1.57559068996e-05
-6.80804356137e-06
-6.899674012e-06
-1.34218884321e-05
-3.73552163267e-06
-7.09399438314e-06
-9.64050590892e-06
-5.9056979681e-07
-7.18180493761e-06
-6.96982780911e-06
1.53748999988e-06
-6.99474911871e-06
-5.01673249532e-06
-6.12406817636e-06
-7.33761370576e-07
9.05985467566e-07
-1.09722351131e-05
-6.73178716456e-06
6.89746949084e-07
-1.13669460539e-05
-5.31392788595e-06
3.17625660127e-08
-1.13870939141e-05
-4.70860259902e-06
-5.62143227267e-07
-1.10374638536e-05
-4.51366469802e-06
-1.19860247654e-06
-1.04469028053e-05
-3.68844213052e-06
-1.82953778117e-06
-9.73294406239e-06
-2.48134259685e-06
-2.4915682659e-06
-8.98847633229e-06
-1.85400319751e-06
-3.3614723964e-06
-8.26188109362e-06
-1.88169462777e-06
-4.45905407677e-06
-7.54952394211e-06
-2.18964195061e-06
-5.75333476964e-06
-6.80930324734e-06
-2.57559266741e-06
-7.11199631886e-06
-6.08658452221e-06
-3.12299250307e-06
-8.25628785505e-06
-5.30171163962e-06
-3.92660985402e-06
-8.9691783875e-06
-4.5511331729e-06
-5.001044298e-06
-8.90608576125e-06
-3.87680871972e-06
-6.10700640629e-06
-7.91900801312e-06
-3.29883100158e-06
-6.66426870311e-06
-6.09445782949e-06
-3.01205349871e-06
-6.57616128274e-06
-3.66373416244e-06
-2.99260135407e-06
-6.61202022609e-06
-8.89606268419e-07
-3.21398855164e-06
-6.74195355095e-06
1.192924124e-06
-3.50825298032e-06
-5.56905676003e-06
-3.43235060832e-06
-1.498822383e-06
1.01399322558e-06
-5.33825595382e-06
-6.6479057941e-06
1.04953562453e-06
-5.84686917253e-06
-5.55555464408e-06
6.74946110694e-07
-5.94415860391e-06
-5.06829086841e-06
2.37439395359e-07
-5.75535225888e-06
-4.84455989766e-06
-2.11165521452e-07
-5.39049529427e-06
-4.60776219752e-06
-7.04728512596e-07
-4.95606943947e-06
-4.2832677533e-06
-1.30883395704e-06
-4.48550904537e-06
-3.89880639202e-06
-2.10283508346e-06
-3.9978530548e-06
-3.46995380936e-06
-3.11315003377e-06
-3.4937079303e-06
-3.04540743838e-06
-4.25309257693e-06
-2.97392883161e-06
-2.69531864981e-06
-5.48360542948e-06
-2.36990700072e-06
-2.48603665029e-06
-6.57897860195e-06
-1.73230777288e-06
-2.47389620017e-06
-7.27850956648e-06
-1.1128064683e-06
-2.73866575784e-06
-7.38213727249e-06
-5.4142926724e-07
-3.23163860334e-06
-6.7951709377e-06
1.134723276e-08
-3.89706007857e-06
-5.47693944247e-06
2.88811231649e-07
-4.61904906689e-06
-3.55627610586e-06
3.634271345e-07
-5.27668434578e-06
-1.23956602171e-06
9.93476004622e-08
-5.63007265379e-06
5.66952969056e-07
-4.60456822566e-07
-4.85436335168e-06
-1.06016496641e-06
-1.80527175775e-06
1.16781723295e-06
-6.50602717857e-06
1.46900107905e-06
-6.14801069247e-06
1.37190958148e-06
-5.84703205654e-06
1.1104734167e-06
-5.49388660096e-06
7.86864973157e-07
-5.06685708465e-06
3.94024645714e-07
-4.5631916446e-06
-8.5569009491e-08
-4.00586367675e-06
-7.21883943592e-07
-3.36146826824e-06
-1.55578078613e-06
-2.65972267333e-06
-2.55234050804e-06
-1.97726521089e-06
-3.53677558814e-06
-1.38535861545e-06
-4.45031047128e-06
-8.18658444409e-07
-5.03136965068e-06
-5.31641164047e-07
-5.30492296385e-06
-2.67787644494e-07
-4.97165421443e-06
-3.21859230994e-07
-4.10304294603e-06
-5.79768870807e-07
-2.72862346272e-06
-1.01099220209e-06
-1.14604325496e-06
-1.48325788014e-06
9.46605604573e-08
-1.70119883859e-06
-9.65529773574e-07
-6.97262167182e-06
-8.45538404637e-06
3.02697019407e-05
-1.39643252249e-05
-8.24425174634e-06
2.98284808624e-05
-2.07356885157e-05
-7.91865409525e-06
2.86062001809e-05
-2.67445614261e-05
-7.58023315126e-06
2.687262724e-05
-3.17317741299e-05
-6.75049538228e-06
2.5055243289e-05
-3.5631694512e-05
-5.16032646497e-06
2.31300813107e-05
-3.84529800584e-05
-3.69036636941e-06
2.02742996099e-05
-4.02768886879e-05
-2.88134768639e-06
1.66897764803e-05
-4.09304086213e-05
-2.39102912462e-06
1.25890838983e-05
-4.0592088476e-05
-1.71356265857e-06
8.42078644564e-06
-3.93919833381e-05
-9.05606344416e-07
4.27413875225e-06
-3.74357112242e-05
-2.84181833162e-08
2.27500510504e-07
-3.47531714807e-05
8.28962728531e-07
-3.65339345602e-06
-3.14403960342e-05
1.41698920248e-06
-7.08043151219e-06
-2.73795686117e-05
1.16232671146e-06
-9.56649199279e-06
-2.25358704025e-05
2.88095794568e-07
-1.07875147855e-05
-1.696478309e-05
-2.34659207912e-07
-1.1536990206e-05
-1.1077510175e-05
-6.56084674601e-08
-1.23155732763e-05
-5.25076804347e-06
3.06404875071e-07
-1.2637028095e-05
9.61219523041e-07
-1.25662550934e-05
-7.16588232102e-06
-1.6446223944e-05
2.93899961164e-05
-1.41218743468e-05
-1.61736833754e-05
2.98134120732e-05
-2.05715632402e-05
-1.52385882344e-05
2.94152040529e-05
-2.60715631819e-05
-1.27879217963e-05
2.98842951583e-05
-3.07677901684e-05
-8.52683284892e-06
3.12866383731e-05
-3.4573715572e-05
-4.00110158723e-06
3.1557911058e-05
-3.73455504973e-05
-6.55165588164e-07
2.88587179062e-05
-3.89736134339e-05
8.73711831763e-07
2.35186528755e-05
-3.95784880057e-05
1.81625299356e-06
1.72716065578e-05
-3.92544355501e-05
3.07882210622e-06
1.08633166023e-05
-3.81264122164e-05
4.59836553321e-06
4.44281424063e-06
-3.62923905367e-05
6.23790655913e-06
-1.97781494317e-06
-3.37905211482e-05
7.82254492801e-06
-8.28029654224e-06
-3.06718455959e-05
8.97067010509e-06
-1.37222351007e-05
-2.67575612669e-05
8.1453977543e-06
-1.68292939082e-05
-2.21839785891e-05
5.45346752362e-06
-1.62298434087e-05
-1.70452734703e-05
2.21399596212e-06
-1.35136402189e-05
-1.14071383809e-05
2.85896149844e-07
-1.15183014019e-05
-5.67303421914e-06
3.04971132663e-07
-1.12668017061e-05
1.20703703034e-06
-1.18476843886e-05
-6.94948514089e-06
-2.38146082246e-05
2.77108844692e-05
-1.37192339262e-05
-2.29971838983e-05
2.91670533887e-05
-1.99431369528e-05
-1.97492375343e-05
3.23830976363e-05
-2.56973006632e-05
-1.33427030649e-05
3.9130206335e-05
-3.07704733224e-05
-5.48848703654e-06
4.5649978572e-05
-3.48870776864e-05
1.79455886905e-06
4.74154311974e-05
-3.77174284068e-05
6.75806856679e-06
4.30729521637e-05
-3.91003369584e-05
8.70616606054e-06
3.40857574898e-05
-3.95755498196e-05
1.00627163507e-05
2.36607035822e-05
-3.91848570569e-05
1.18523252848e-05
1.30313798176e-05
-3.80767037104e-05
1.40367005861e-05
2.33389305596e-06
-3.63591224022e-05
1.63762995372e-05
-8.38221616743e-06
-3.4047256304e-05
1.86009149098e-05
-1.90730418799e-05
-3.11270884389e-05
2.03157960929e-05
-2.84189374902e-05
-2.70316720277e-05
1.89743427985e-05
-3.39344343666e-05
-2.21665568863e-05
1.45892368238e-05
-3.25778315136e-05
-1.68045826401e-05
8.53888930543e-06
-2.51495469629e-05
-1.13180559418e-05
3.10177785478e-06
-1.61739836688e-05
-5.71039590847e-06
6.1688096384e-07
-1.13703050174e-05
9.91394490893e-07
-1.10049573084e-05
-6.68016569628e-06
-3.01938424398e-05
2.56364132592e-05
-1.32804654967e-05
-2.77650659547e-05
3.03823061462e-05
-1.99419200256e-05
-2.10114000882e-05
4.12928081634e-05
-2.63866156972e-05
-1.10372342796e-05
5.56091870683e-05
-3.22376101733e-05
-2.01288907133e-07
6.58105760588e-05
-3.69435900695e-05
9.10571851645e-06
6.74792824087e-05
-3.99294473169e-05
1.50546196194e-05
6.00742261059e-05
-4.09554419256e-05
1.69640384193e-05
4.61683078469e-05
-4.11718050992e-05
1.88098708725e-05
3.05022651905e-05
-4.06168451387e-05
2.12297921189e-05
1.45860686138e-05
-3.94229196065e-05
2.41075049998e-05
-1.38144693848e-06
-3.77614026404e-05
2.71429351059e-05
-1.73466787871e-05
-3.55532389705e-05
2.99476388646e-05
-3.33116265736e-05
-3.2782148023e-05
3.22655126542e-05
-4.70744239094e-05
-2.83423599906e-05
3.04320276064e-05
-5.62017347031e-05
-2.29052410094e-05
2.48625770977e-05
-5.55350823038e-05
-1.69743150662e-05
1.65100860378e-05
-4.4906102248e-05
-1.1032051587e-05
7.9718724044e-06
-2.84561788888e-05
-5.47550319734e-06
2.11482220466e-06
-1.48819179481e-05
6.63695590926e-07
-1.02714422987e-05
-6.36775166296e-06
-3.50259029717e-05
2.40943617037e-05
-1.32018175423e-05
-3.05747248821e-05
3.47823024818e-05
-2.05352936473e-05
-2.08506885831e-05
5.44799585185e-05
-2.796951172e-05
-8.1576599604e-06
7.4732273197e-05
-3.48544553041e-05
4.62043552838e-06
8.70836691479e-05
-4.03527212501e-05
1.4853181783e-05
8.73869203401e-05
-4.36385964753e-05
2.0791867857e-05
7.61361940122e-05
-4.38890968152e-05
2.16265937885e-05
5.669621877e-05
-4.36185513274e-05
2.43768972476e-05
3.5700813441e-05
-4.26549482845e-05
2.77325221971e-05
1.43821727926e-05
-4.11631344127e-05
3.16360780358e-05
-6.87348209159e-06
-3.9283942037e-05
3.56691044365e-05
-2.79502577681e-05
-3.7028185653e-05
3.91014760924e-05
-4.86982523939e-05
-3.47203908643e-05
4.20446457764e-05
-6.56400170327e-05
-3.00498658709e-05
3.98289806022e-05
-7.85159864769e-05
-2.4047172837e-05
3.37396103071e-05
-7.91788768095e-05
-1.74151335021e-05
2.38357169569e-05
-6.67557878925e-05
-1.09349759995e-05
1.29198217053e-05
-4.45470832524e-05
-5.13057764498e-06
4.26395225035e-06
-2.20224582804e-05
6.8369794621e-07
-1.0522712987e-05
-6.10655608337e-06
-3.86498386612e-05
2.34425949571e-05
-1.3182303119e-05
-3.2589250426e-05
4.04095728041e-05
-2.12020572826e-05
-2.09545632447e-05
6.70024939474e-05
-2.95831469405e-05
-6.64852434127e-06
9.14936657178e-05
-3.72525166337e-05
6.81847800469e-06
0.00010479076543
-4.32172927823e-05
1.6823274541e-05
0.000103238406366
-4.66865405959e-05
2.15040510129e-05
8.90785161511e-05
-4.51837131632e-05
1.95226219804e-05
6.53748131505e-05
-4.40904811933e-05
2.43851650884e-05
4.09152404344e-05
-4.27600804653e-05
2.99676059328e-05
1.489753307e-05
-4.13934598527e-05
3.61140467219e-05
-1.09166193606e-05
-4.03045132393e-05
4.20625502224e-05
-3.6020855186e-05
-3.93388926423e-05
4.6903807324e-05
-6.10315943666e-05
-3.68388613411e-05
4.70894638525e-05
-7.85352856813e-05
-3.16877516964e-05
4.50913002356e-05
-9.58782626447e-05
-2.5118315707e-05
3.92391436246e-05
-9.80928883042e-05
-1.78478343791e-05
2.85862606157e-05
-8.50573036527e-05
-1.08654334324e-05
1.62340361872e-05
-5.89781577118e-05
-4.87625359692e-06
5.777141163e-06
-2.98239509619e-05
5.92015361191e-07
-1.16863142933e-05
-5.79752818121e-06
-4.14220006754e-05
2.20747959086e-05
-1.29892813399e-05
-3.46909812564e-05
4.34700158074e-05
-2.16331399023e-05
-2.2209560234e-05
7.42799692489e-05
-3.10517602594e-05
-7.06819839567e-06
0.000101154751162
-4.00578441718e-05
7.17047263408e-06
0.000114050106978
-4.73721108283e-05
1.77262185982e-05
0.00010908691407
-5.24101071704e-05
2.32186100762e-05
8.92878187054e-05
-4.77163617938e-05
2.00624477783e-05
5.15739235454e-05
-4.47450370526e-05
2.83901011903e-05
2.37354261916e-05
-4.17791483785e-05
3.59681773855e-05
-6.39462211084e-06
-3.90286079494e-05
4.42725725986e-05
-3.53439248282e-05
-3.62532699562e-05
5.11721910361e-05
-6.22906673247e-05
-3.32404660619e-05
5.77418906725e-05
-8.87398026063e-05
-3.35076512765e-05
5.19121523601e-05
-8.91185473999e-05
-3.04812376364e-05
4.92337733091e-05
-0.000107760743866
-2.48118001913e-05
4.19220104581e-05
-0.000109743993501
-1.76457705302e-05
3.01889452076e-05
-9.60788663864e-05
-1.05470687089e-05
1.69472833287e-05
-6.74879554207e-05
-4.57250095165e-06
5.72027660606e-06