/*--------------------------------*- C++ -*----------------------------------*\
| =========                 |                                                 |
| \\      /  F ield         | OpenFOAM: The Open Source CFD Toolbox           |
|  \\    /   O peration     | Version:  v1606+                                |
|   \\  /    A nd           | Web:      www.OpenFOAM.com                      |
|    \\/     M anipulation  |                                                 |
\*---------------------------------------------------------------------------*/
FoamFile
{
    version     2.0;
    format      ascii;
    class       volVectorField;
    location    "0.85";
    object      U.airMean;
}
// * * * * * * * * * * * * * * * * * * * * * * * * * * * * * * * * * * * * * //

dimensions      [0 1 -1 0 0 0 0];

internalField   nonuniform List<vector> 
6000
(
(-0.0175761 0.265706 0)
(-0.00124223 0.232166 0)
(0.01316 0.24341 0)
(0.0247583 0.245392 0)
(0.030969 0.244017 0)
(0.030903 0.241461 0)
(0.0278979 0.238714 0)
(0.0238033 0.23573 0)
(0.0195299 0.23506 0)
(0.0146996 0.232195 0)
(0.00873555 0.225951 0)
(0.00428523 0.222037 0)
(0.00144821 0.222111 0)
(0.000208193 0.219938 0)
(-3.15758e-05 0.220778 0)
(-0.000180183 0.220599 0)
(-0.000664949 0.220432 0)
(-0.00254528 0.22135 0)
(-0.00497091 0.220855 0)
(-0.00973714 0.22643 0)
(-0.0154011 0.231961 0)
(-0.0199995 0.235286 0)
(-0.0243716 0.236943 0)
(-0.0285232 0.239679 0)
(-0.0316669 0.242249 0)
(-0.0312992 0.245205 0)
(-0.0243655 0.245897 0)
(-0.0123107 0.243273 0)
(0.00204068 0.232467 0)
(0.0181895 0.266476 0)
(0.0104016 0.992408 0)
(0.00555154 0.976895 0)
(0.0248045 0.977852 0)
(0.0391652 0.979399 0)
(0.0534481 0.991897 0)
(0.0589727 1.0015 0)
(0.0552832 1.00777 0)
(0.0432837 1.01192 0)
(0.0292047 1.0115 0)
(0.018615 1.01284 0)
(0.00879373 1.01564 0)
(0.00100653 1.01418 0)
(-0.00313063 1.01093 0)
(-0.00345679 1.00908 0)
(4.26891e-05 1.00695 0)
(0.00401746 1.00743 0)
(0.00497825 1.01038 0)
(0.00280561 1.01205 0)
(-0.00235869 1.01503 0)
(-0.0106992 1.01545 0)
(-0.0202139 1.01273 0)
(-0.0312697 1.01115 0)
(-0.0454109 1.011 0)
(-0.056543 1.00682 0)
(-0.0594666 1.00053 0)
(-0.0527962 0.98969 0)
(-0.0376559 0.978024 0)
(-0.0230445 0.977775 0)
(-0.00467039 0.977441 0)
(-0.0101164 0.993147 0)
(-0.00844892 0.81639 0)
(0.000174148 0.756596 0)
(0.0241821 0.762942 0)
(0.0379493 0.76274 0)
(0.0546096 0.776521 0)
(0.0650664 0.794624 0)
(0.0662591 0.812542 0)
(0.0561494 0.822509 0)
(0.0398033 0.823603 0)
(0.0231622 0.818252 0)
(0.0110323 0.81125 0)
(0.00449346 0.803661 0)
(-0.000366349 0.797393 0)
(-0.00167047 0.789368 0)
(0.00253204 0.786434 0)
(0.00637087 0.789169 0)
(0.0059831 0.79458 0)
(0.00152314 0.799937 0)
(-0.00439675 0.80485 0)
(-0.0112276 0.811942 0)
(-0.0238258 0.818293 0)
(-0.0403466 0.8235 0)
(-0.0565088 0.821982 0)
(-0.065855 0.810916 0)
(-0.063479 0.792775 0)
(-0.0525126 0.774397 0)
(-0.0357825 0.761355 0)
(-0.0221329 0.76241 0)
(0.00149137 0.757863 0)
(0.00932209 0.818587 0)
(0.0103483 0.853664 0)
(0.0160919 0.791639 0)
(0.0240566 0.798592 0)
(0.0345087 0.796051 0)
(0.0490269 0.809375 0)
(0.0615478 0.828461 0)
(0.0708954 0.85228 0)
(0.0689406 0.87189 0)
(0.0538222 0.882859 0)
(0.0339131 0.877903 0)
(0.018785 0.870156 0)
(0.00701597 0.86212 0)
(-0.00258526 0.853327 0)
(-0.00345372 0.839741 0)
(0.00301254 0.832616 0)
(0.00990793 0.837695 0)
(0.0116367 0.848738 0)
(0.00550294 0.858021 0)
(-0.00643033 0.863911 0)
(-0.0182035 0.870019 0)
(-0.0326899 0.878032 0)
(-0.0524631 0.881859 0)
(-0.0669307 0.87046 0)
(-0.0684852 0.849902 0)
(-0.0589194 0.826392 0)
(-0.0463781 0.807361 0)
(-0.0320872 0.795346 0)
(-0.0221831 0.799218 0)
(-0.0145116 0.793694 0)
(-0.0094373 0.856891 0)
(0.0126704 0.819468 0)
(0.0102319 0.772768 0)
(0.0138089 0.77219 0)
(0.0275628 0.76345 0)
(0.0458913 0.776589 0)
(0.0609395 0.798335 0)
(0.0737104 0.827916 0)
(0.0783681 0.859691 0)
(0.0677537 0.884677 0)
(0.0465854 0.880176 0)
(0.0285211 0.869036 0)
(0.0119549 0.862292 0)
(-0.00234785 0.845256 0)
(-0.00481155 0.82067 0)
(0.00330661 0.809281 0)
(0.012489 0.817003 0)
(0.0155523 0.836205 0)
(0.00698658 0.855105 0)
(-0.0107657 0.865691 0)
(-0.0273077 0.867726 0)
(-0.0439025 0.87972 0)
(-0.0647248 0.88317 0)
(-0.0753497 0.857796 0)
(-0.0708197 0.825513 0)
(-0.0585081 0.796207 0)
(-0.0435577 0.774737 0)
(-0.0256229 0.763214 0)
(-0.0123851 0.773385 0)
(-0.00886063 0.774958 0)
(-0.0117721 0.82433 0)
(0.00180879 0.805544 0)
(-0.00913102 0.771871 0)
(-0.00704281 0.751801 0)
(0.00864192 0.736416 0)
(0.0326854 0.748221 0)
(0.0591443 0.773131 0)
(0.0788442 0.807074 0)
(0.0901687 0.847299 0)
(0.0868726 0.888181 0)
(0.0698347 0.894115 0)
(0.0494128 0.882685 0)
(0.0282068 0.880109 0)
(0.00583089 0.85782 0)
(-0.00452209 0.820891 0)
(0.00176235 0.801861 0)
(0.0126624 0.812554 0)
(0.0136219 0.841692 0)
(-0.00275597 0.872167 0)
(-0.0268062 0.885036 0)
(-0.046637 0.879916 0)
(-0.0652771 0.892667 0)
(-0.0824688 0.886841 0)
(-0.0867061 0.845949 0)
(-0.0760297 0.805441 0)
(-0.0564578 0.77163 0)
(-0.0305082 0.747271 0)
(-0.00754811 0.737108 0)
(0.00748702 0.753581 0)
(0.0100616 0.7739 0)
(-0.00202466 0.811463 0)
(-0.00705869 0.815793 0)
(-0.0225216 0.772892 0)
(-0.0319762 0.738678 0)
(-0.0257361 0.708585 0)
(0.00287519 0.706096 0)
(0.0482404 0.731 0)
(0.0829909 0.775651 0)
(0.102047 0.828313 0)
(0.1034 0.881493 0)
(0.0935366 0.901406 0)
(0.0751063 0.892697 0)
(0.0487703 0.894874 0)
(0.0156086 0.873273 0)
(-0.00431169 0.818382 0)
(-0.00165183 0.786447 0)
(0.0113637 0.800601 0)
(0.00823053 0.845461 0)
(-0.017188 0.890414 0)
(-0.0487938 0.897963 0)
(-0.070492 0.887942 0)
(-0.0868324 0.899113 0)
(-0.0971374 0.881619 0)
(-0.0975809 0.827962 0)
(-0.079047 0.774684 0)
(-0.0445273 0.730399 0)
(-0.000796704 0.706982 0)
(0.0260806 0.710857 0)
(0.0313398 0.741088 0)
(0.02211 0.775457 0)
(0.0064792 0.821649 0)
(-0.00434069 0.829013 0)
(-0.0246036 0.792762 0)
(-0.0501346 0.744596 0)
(-0.0543158 0.691703 0)
(-0.0264565 0.660827 0)
(0.0282145 0.678326 0)
(0.0800924 0.740299 0)
(0.108386 0.812024 0)
(0.115407 0.877304 0)
(0.109571 0.905936 0)
(0.0945003 0.907795 0)
(0.0648568 0.916479 0)
(0.0248307 0.894832 0)
(-0.00255362 0.822239 0)
(-0.00506377 0.771914 0)
(0.00363513 0.788923 0)
(-0.00135311 0.852921 0)
(-0.0310576 0.910977 0)
(-0.0673785 0.91528 0)
(-0.0894606 0.899139 0)
(-0.100377 0.902624 0)
(-0.106741 0.879036 0)
(-0.10217 0.813379 0)
(-0.074922 0.740202 0)
(-0.0244233 0.679789 0)
(0.0277645 0.663904 0)
(0.0534831 0.695268 0)
(0.0476643 0.747299 0)
(0.0222108 0.794904 0)
(0.00231127 0.834308 0)
(-0.00670249 0.842848 0)
(-0.0261588 0.818156 0)
(-0.0581527 0.754867 0)
(-0.0691791 0.674976 0)
(-0.0484207 0.617161 0)
(0.00190368 0.6167 0)
(0.0604335 0.690442 0)
(0.1037 0.786822 0)
(0.122496 0.869621 0)
(0.118653 0.910043 0)
(0.0995888 0.925217 0)
(0.0703278 0.943918 0)
(0.0299234 0.915874 0)
(-0.000589499 0.832159 0)
(-0.00819333 0.763327 0)
(-0.0109291 0.781204 0)
(-0.0157593 0.858507 0)
(-0.0408036 0.929284 0)
(-0.0738904 0.936444 0)
(-0.0936348 0.908617 0)
(-0.105432 0.90548 0)
(-0.111611 0.873737 0)
(-0.0959658 0.790554 0)
(-0.0555115 0.691984 0)
(0.000519358 0.620611 0)
(0.048113 0.622092 0)
(0.0673723 0.679895 0)
(0.0543179 0.758404 0)
(0.021454 0.820588 0)
(0.00435552 0.844422 0)
(-0.0105613 0.860779 0)
(-0.0322037 0.838006 0)
(-0.0593882 0.768032 0)
(-0.072241 0.664144 0)
(-0.0617043 0.584407 0)
(-0.0244198 0.566018 0)
(0.0306464 0.636205 0)
(0.0849839 0.746623 0)
(0.116045 0.852985 0)
(0.117414 0.91952 0)
(0.0915175 0.939755 0)
(0.0646374 0.97008 0)
(0.0279475 0.93552 0)
(-0.00335429 0.841928 0)
(-0.0140628 0.763032 0)
(-0.0256916 0.780604 0)
(-0.0288162 0.855871 0)
(-0.043778 0.937107 0)
(-0.0629132 0.953644 0)
(-0.0804716 0.913456 0)
(-0.100082 0.914172 0)
(-0.103799 0.861735 0)
(-0.0785587 0.753527 0)
(-0.0273523 0.640373 0)
(0.0269533 0.572874 0)
(0.0622546 0.59037 0)
(0.0709931 0.670023 0)
(0.0557276 0.772691 0)
(0.027329 0.840066 0)
(0.00924261 0.860071 0)
(-0.0139685 0.877477 0)
(-0.0377485 0.850019 0)
(-0.0606167 0.775944 0)
(-0.0727126 0.654496 0)
(-0.0702583 0.560759 0)
(-0.0462689 0.521847 0)
(-0.000705064 0.583133 0)
(0.0589988 0.699005 0)
(0.0960078 0.825275 0)
(0.104128 0.928409 0)
(0.0777533 0.958549 0)
(0.0477076 0.991643 0)
(0.0196056 0.955945 0)
(-0.011103 0.851808 0)
(-0.0220867 0.76895 0)
(-0.0356448 0.782825 0)
(-0.0326901 0.848414 0)
(-0.0360705 0.933167 0)
(-0.0344156 0.96521 0)
(-0.0546099 0.924468 0)
(-0.0805185 0.927111 0)
(-0.0852194 0.842616 0)
(-0.0539916 0.709827 0)
(0.00439067 0.586802 0)
(0.0497203 0.527976 0)
(0.0714644 0.567366 0)
(0.0714944 0.662588 0)
(0.0567979 0.782904 0)
(0.0328984 0.851305 0)
(0.0124767 0.874049 0)
(-0.0138724 0.899326 0)
(-0.041063 0.862192 0)
(-0.0621711 0.782931 0)
(-0.0720586 0.646234 0)
(-0.0722179 0.543765 0)
(-0.0555127 0.489971 0)
(-0.0212026 0.530812 0)
(0.0316233 0.651248 0)
(0.0706356 0.795406 0)
(0.0798205 0.930617 0)
(0.0605117 0.978304 0)
(0.0312751 1.00941 0)
(0.012247 0.974269 0)
(-0.0139275 0.860648 0)
(-0.0250387 0.777319 0)
(-0.0374324 0.782476 0)
(-0.0283711 0.837636 0)
(-0.019022 0.919086 0)
(0.00160906 0.966147 0)
(-0.019086 0.943004 0)
(-0.0498945 0.941019 0)
(-0.0591362 0.825327 0)
(-0.0250611 0.663162 0)
(0.0284591 0.534369 0)
(0.0612982 0.498837 0)
(0.0732146 0.552391 0)
(0.0693076 0.657476 0)
(0.0563484 0.790834 0)
(0.0361529 0.862189 0)
(0.0121188 0.89273 0)
(-0.012602 0.920329 0)
(-0.0387276 0.874449 0)
(-0.0586768 0.787198 0)
(-0.0701674 0.635832 0)
(-0.0701614 0.52669 0)
(-0.0577503 0.464842 0)
(-0.0317609 0.491109 0)
(0.00988246 0.607276 0)
(0.04334 0.767993 0)
(0.0531805 0.928749 0)
(0.0428286 0.994299 0)
(0.0228394 1.01823 0)
(0.015455 0.987392 0)
(-0.00113523 0.870749 0)
(-0.0177908 0.786985 0)
(-0.0309423 0.779617 0)
(-0.0231724 0.824694 0)
(0.00199695 0.893307 0)
(0.0345711 0.960492 0)
(0.0166871 0.968674 0)
(-0.0153019 0.958643 0)
(-0.0256055 0.81214 0)
(0.00390358 0.618659 0)
(0.0440926 0.495786 0)
(0.0644701 0.479512 0)
(0.0685491 0.539869 0)
(0.0633039 0.651677 0)
(0.0504263 0.795424 0)
(0.0334129 0.871913 0)
(0.010736 0.910635 0)
(-0.00904089 0.938391 0)
(-0.0307452 0.883503 0)
(-0.0468065 0.793713 0)
(-0.0635504 0.630065 0)
(-0.0695524 0.509246 0)
(-0.0618681 0.443407 0)
(-0.0411923 0.457694 0)
(-0.00682084 0.569145 0)
(0.0188126 0.745141 0)
(0.028542 0.918359 0)
(0.0289218 0.999952 0)
(0.0265384 1.01562 0)
(0.0336845 0.984909 0)
(0.0310753 0.880673 0)
(0.00483253 0.800989 0)
(-0.0157296 0.780761 0)
(-0.014077 0.811255 0)
(0.0233108 0.856137 0)
(0.0590449 0.951063 0)
(0.048446 0.993209 0)
(0.0221714 0.972211 0)
(0.0125836 0.80419 0)
(0.0325494 0.583599 0)
(0.0555066 0.47087 0)
(0.0645317 0.46838 0)
(0.0609004 0.529982 0)
(0.0516338 0.648659 0)
(0.0368054 0.798667 0)
(0.024769 0.877585 0)
(0.0071847 0.925429 0)
(-0.00418698 0.946092 0)
(-0.0200371 0.887665 0)
(-0.0271196 0.797865 0)
(-0.0482765 0.635521 0)
(-0.0691522 0.500951 0)
(-0.0743289 0.426624 0)
(-0.0613229 0.427127 0)
(-0.033712 0.534431 0)
(-0.0100997 0.726385 0)
(0.00467056 0.901302 0)
(0.0181576 0.992685 0)
(0.0389127 0.999213 0)
(0.0659999 0.96521 0)
(0.0812437 0.894868 0)
(0.0461468 0.824601 0)
(0.0160881 0.795314 0)
(0.00458264 0.803282 0)
(0.0408549 0.818098 0)
(0.0689116 0.942245 0)
(0.0713393 1.01257 0)
(0.0573439 0.98169 0)
(0.0514834 0.804479 0)
(0.0581392 0.56223 0)
(0.0635953 0.458582 0)
(0.0648289 0.4631 0)
(0.0530214 0.524174 0)
(0.0360771 0.650055 0)
(0.0187354 0.798137 0)
(0.0153882 0.878445 0)
(0.00315238 0.930464 0)
(-0.000200049 0.94984 0)
(-0.0104299 0.885655 0)
(-0.00595705 0.795445 0)
(-0.0260298 0.649068 0)
(-0.0546906 0.506574 0)
(-0.079827 0.424205 0)
(-0.0884888 0.40805 0)
(-0.0766248 0.503129 0)
(-0.0486322 0.703504 0)
(-0.0180477 0.872308 0)
(0.0135638 0.967071 0)
(0.0457779 0.965771 0)
(0.0900736 0.930439 0)
(0.120704 0.900293 0)
(0.101936 0.857878 0)
(0.064679 0.817323 0)
(0.0453007 0.804525 0)
(0.0553781 0.798801 0)
(0.0679003 0.934815 0)
(0.0797448 1.01872 0)
(0.083498 0.980136 0)
(0.0882876 0.809374 0)
(0.0812085 0.558006 0)
(0.0703788 0.45333 0)
(0.0632673 0.45961 0)
(0.0445205 0.523655 0)
(0.0221966 0.65846 0)
(0.00531628 0.794082 0)
(0.0114857 0.87642 0)
(0.00225711 0.935786 0)
(0.0020343 0.951142 0)
(-0.00386035 0.882009 0)
(0.00688264 0.787889 0)
(-0.00491824 0.66633 0)
(-0.036078 0.523657 0)
(-0.0718785 0.438722 0)
(-0.102448 0.413294 0)
(-0.117742 0.483282 0)
(-0.0903995 0.670399 0)
(-0.0379056 0.829673 0)
(0.0156896 0.930988 0)
(0.0527829 0.937697 0)
(0.0987121 0.885977 0)
(0.131787 0.898618 0)
(0.13918 0.884599 0)
(0.110292 0.858177 0)
(0.0862139 0.833699 0)
(0.0641432 0.811603 0)
(0.0591841 0.935391 0)
(0.0749932 1.01285 0)
(0.0996289 0.966223 0)
(0.120802 0.812346 0)
(0.1049 0.569864 0)
(0.078946 0.458342 0)
(0.06051 0.459594 0)
(0.0349154 0.530572 0)
(0.00579457 0.670259 0)
(-0.00488461 0.788242 0)
(0.00708152 0.872161 0)
(0.00152783 0.943459 0)
(-0.000314222 0.946713 0)
(0.000336784 0.874154 0)
(0.0169048 0.781554 0)
(0.0176048 0.676303 0)
(-0.00990542 0.544781 0)
(-0.0550984 0.464318 0)
(-0.112117 0.443738 0)
(-0.144778 0.486552 0)
(-0.127918 0.634783 0)
(-0.0618388 0.776254 0)
(0.0118127 0.884293 0)
(0.062521 0.913854 0)
(0.0960883 0.862543 0)
(0.125623 0.886181 0)
(0.151214 0.897446 0)
(0.138618 0.888023 0)
(0.120721 0.868854 0)
(0.0809417 0.851915 0)
(0.0505796 0.946039 0)
(0.0716309 0.996535 0)
(0.112009 0.938445 0)
(0.15055 0.803995 0)
(0.136652 0.595625 0)
(0.0953529 0.475476 0)
(0.0549306 0.470029 0)
(0.0127566 0.552451 0)
(-0.0173086 0.682382 0)
(-0.0150677 0.78389 0)
(0.00324837 0.865605 0)
(0.000881149 0.949273 0)
(0.00243603 0.946855 0)
(0.0141219 0.860747 0)
(0.027941 0.771759 0)
(0.0381486 0.683426 0)
(0.0118914 0.577668 0)
(-0.0374488 0.511042 0)
(-0.107033 0.483351 0)
(-0.156072 0.503502 0)
(-0.148595 0.605333 0)
(-0.0835071 0.721866 0)
(-0.00168309 0.829397 0)
(0.0624416 0.884024 0)
(0.0899909 0.850646 0)
(0.115514 0.863682 0)
(0.145044 0.904265 0)
(0.147994 0.909999 0)
(0.133688 0.896139 0)
(0.0839141 0.907441 0)
(0.0400796 0.955555 0)
(0.0747913 0.971193 0)
(0.126391 0.902613 0)
(0.176248 0.782281 0)
(0.170883 0.62535 0)
(0.107574 0.511103 0)
(0.0368345 0.508837 0)
(-0.0122845 0.587149 0)
(-0.036874 0.688711 0)
(-0.0252083 0.772777 0)
(-0.0055261 0.855176 0)
(-0.00310329 0.955566 0)
(0.0112351 0.930211 0)
(0.0364259 0.846374 0)
(0.0462842 0.760696 0)
(0.0366355 0.685229 0)
(0.00191959 0.609049 0)
(-0.0525185 0.550615 0)
(-0.113633 0.526857 0)
(-0.158335 0.524452 0)
(-0.146464 0.569387 0)
(-0.0846654 0.668169 0)
(-0.00408277 0.772079 0)
(0.0643395 0.847365 0)
(0.0969993 0.835324 0)
(0.108857 0.840745 0)
(0.130776 0.894159 0)
(0.143344 0.916333 0)
(0.129293 0.928453 0)
(0.0744701 0.962728 0)
(0.0414397 0.961157 0)
(0.0861699 0.936762 0)
(0.145309 0.860102 0)
(0.202461 0.748484 0)
(0.201489 0.651427 0)
(0.125935 0.573334 0)
(0.0431802 0.55591 0)
(-0.0113415 0.612314 0)
(-0.0329251 0.686887 0)
(-0.036022 0.755855 0)
(-0.025282 0.843763 0)
(-0.0132548 0.947135 0)
(0.0130824 0.906118 0)
(0.0374859 0.823252 0)
(0.0368195 0.7573 0)
(0.00431209 0.704146 0)
(-0.0440264 0.642012 0)
(-0.101148 0.594751 0)
(-0.151596 0.554393 0)
(-0.169453 0.52616 0)
(-0.146036 0.536707 0)
(-0.0888882 0.610855 0)
(-0.012489 0.717494 0)
(0.0605904 0.800437 0)
(0.105383 0.818124 0)
(0.115361 0.826074 0)
(0.124777 0.87635 0)
(0.130619 0.910649 0)
(0.115387 0.952889 0)
(0.0748914 1.00232 0)
(0.0630898 0.952631 0)
(0.115183 0.895908 0)
(0.185698 0.808648 0)
(0.226734 0.71744 0)
(0.223118 0.67961 0)
(0.15813 0.637113 0)
(0.0802369 0.612768 0)
(0.0220625 0.638863 0)
(-0.0134417 0.696784 0)
(-0.0396206 0.755048 0)
(-0.0419187 0.822552 0)
(-0.0201743 0.914334 0)
(0.0102183 0.870888 0)
(0.0103876 0.803251 0)
(-0.0164117 0.773734 0)
(-0.0578404 0.741037 0)
(-0.107006 0.687678 0)
(-0.154385 0.635498 0)
(-0.184486 0.565061 0)
(-0.192001 0.500332 0)
(-0.161555 0.487571 0)
(-0.0977768 0.551987 0)
(-0.0186842 0.655656 0)
(0.0600349 0.75115 0)
(0.119937 0.787671 0)
(0.140018 0.813174 0)
(0.14233 0.860567 0)
(0.13293 0.904638 0)
(0.113864 0.968197 0)
(0.0918793 1.01537 0)
(0.0966019 0.939669 0)
(0.14656 0.845422 0)
(0.208188 0.765174 0)
(0.231303 0.703513 0)
(0.222099 0.691377 0)
(0.179787 0.679187 0)
(0.128049 0.66095 0)
(0.0782667 0.680156 0)
(0.0346083 0.726845 0)
(0.00056729 0.770556 0)
(-0.020005 0.801499 0)
(-0.0167367 0.866794 0)
(0.00115065 0.86874 0)
(-0.0300384 0.831155 0)
(-0.0695507 0.804059 0)
(-0.104683 0.764474 0)
(-0.140491 0.715172 0)
(-0.167544 0.658211 0)
(-0.19002 0.582243 0)
(-0.204905 0.492663 0)
(-0.194926 0.439955 0)
(-0.139217 0.481411 0)
(-0.050072 0.581969 0)
(0.0400516 0.683776 0)
(0.115148 0.741851 0)
(0.153084 0.791416 0)
(0.161484 0.853564 0)
(0.146881 0.910783 0)
(0.125105 0.976966 0)
(0.120161 1.01615 0)
(0.136652 0.926995 0)
(0.172665 0.804908 0)
(0.210911 0.734664 0)
(0.222394 0.697613 0)
(0.205356 0.701704 0)
(0.178096 0.699554 0)
(0.14964 0.690457 0)
(0.116906 0.703919 0)
(0.082832 0.74162 0)
(0.055603 0.786182 0)
(0.0226044 0.821539 0)
(-0.00378786 0.855693 0)
(-0.0135288 0.879042 0)
(-0.0574342 0.854252 0)
(-0.0918216 0.821333 0)
(-0.119064 0.785403 0)
(-0.140759 0.73664 0)
(-0.153842 0.673205 0)
(-0.17054 0.600201 0)
(-0.193538 0.507314 0)
(-0.205942 0.427769 0)
(-0.179721 0.42382 0)
(-0.10576 0.508172 0)
(-0.00287715 0.617507 0)
(0.0804415 0.694063 0)
(0.135077 0.763 0)
(0.159858 0.844535 0)
(0.153594 0.918703 0)
(0.140216 0.983127 0)
(0.155102 1.00513 0)
(0.185559 0.910695 0)
(0.204573 0.788921 0)
(0.216137 0.7202 0)
(0.20929 0.700608 0)
(0.182107 0.712159 0)
(0.160675 0.708051 0)
(0.143674 0.706454 0)
(0.123615 0.722025 0)
(0.101192 0.756594 0)
(0.0779776 0.796901 0)
(0.047027 0.840026 0)
(0.012602 0.85742 0)
(-0.0191411 0.906769 0)
(-0.0567536 0.891057 0)
(-0.0924845 0.847025 0)
(-0.110245 0.803847 0)
(-0.118485 0.747568 0)
(-0.12661 0.683653 0)
(-0.142287 0.616661 0)
(-0.169144 0.527338 0)
(-0.19645 0.440274 0)
(-0.193201 0.405356 0)
(-0.14948 0.446657 0)
(-0.0660734 0.539877 0)
(0.02279 0.638078 0)
(0.0913044 0.720767 0)
(0.134069 0.826991 0)
(0.142591 0.920424 0)
(0.148483 0.975701 0)
(0.187693 0.978745 0)
(0.231824 0.897238 0)
(0.244361 0.793284 0)
(0.232834 0.72256 0)
(0.204503 0.713791 0)
(0.165223 0.723586 0)
(0.142372 0.71258 0)
(0.126731 0.712189 0)
(0.109861 0.728991 0)
(0.0972464 0.768733 0)
(0.0802603 0.81432 0)
(0.0484996 0.869552 0)
(0.0195751 0.880935 0)
(-0.0192554 0.939182 0)
(-0.0506112 0.925376 0)
(-0.0758571 0.864585 0)
(-0.0784751 0.810119 0)
(-0.0806031 0.750214 0)
(-0.0936487 0.694652 0)
(-0.114358 0.632443 0)
(-0.143836 0.547258 0)
(-0.177463 0.453748 0)
(-0.191202 0.400348 0)
(-0.16845 0.420103 0)
(-0.11585 0.483 0)
(-0.0387019 0.573441 0)
(0.0383193 0.663745 0)
(0.0909767 0.795318 0)
(0.119176 0.905402 0)
(0.152229 0.94728 0)
(0.21012 0.934826 0)
(0.2678 0.87552 0)
(0.286856 0.798319 0)
(0.267467 0.74066 0)
(0.218032 0.739409 0)
(0.162593 0.741364 0)
(0.130886 0.71729 0)
(0.109012 0.721376 0)
(0.088318 0.734363 0)
(0.0793085 0.773766 0)
(0.0742763 0.827485 0)
(0.0488545 0.89601 0)
(0.0221813 0.909028 0)
(-0.0253749 0.965787 0)
(-0.0355656 0.942869 0)
(-0.041211 0.865676 0)
(-0.033794 0.804121 0)
(-0.0403271 0.753742 0)
(-0.0597521 0.705098 0)
(-0.0881371 0.64728 0)
(-0.122077 0.565057 0)
(-0.159421 0.469015 0)
(-0.18464 0.398917 0)
(-0.178011 0.396976 0)
(-0.141993 0.441483 0)
(-0.0842259 0.514224 0)
(-0.013615 0.604719 0)
(0.0447304 0.749328 0)
(0.0895299 0.866225 0)
(0.147334 0.897914 0)
(0.222756 0.879364 0)
(0.290883 0.841774 0)
(0.321648 0.794707 0)
(0.304795 0.768613 0)
(0.242614 0.781157 0)
(0.173707 0.773266 0)
(0.123591 0.730137 0)
(0.0913143 0.737967 0)
(0.0674366 0.74646 0)
(0.054061 0.774186 0)
(0.0557791 0.830177 0)
(0.0462094 0.912609 0)
(0.0291282 0.939281 0)
(-0.02478 0.9947 0)
(-0.0218028 0.937551 0)
(-0.00772858 0.85628 0)
(-0.0035688 0.804126 0)
(-0.00904751 0.760765 0)
(-0.0290967 0.719499 0)
(-0.0593738 0.664105 0)
(-0.0981204 0.583068 0)
(-0.13957 0.485082 0)
(-0.173754 0.403596 0)
(-0.178793 0.380374 0)
(-0.157399 0.411823 0)
(-0.114549 0.468399 0)
(-0.0579829 0.550943 0)
(0.00290568 0.699955 0)
(0.05451 0.815066 0)
(0.134278 0.829561 0)
(0.22447 0.813582 0)
(0.301096 0.797182 0)
(0.339849 0.781824 0)
(0.326816 0.796955 0)
(0.26218 0.833878 0)
(0.187611 0.823392 0)
(0.119045 0.76905 0)
(0.0789314 0.765103 0)
(0.0473149 0.764092 0)
(0.0328105 0.784124 0)
(0.0290028 0.831921 0)
(0.0345291 0.914553 0)
(0.031102 0.975463 0)
(-0.0134829 1.01626 0)
(-0.0029968 0.921042 0)
(0.0137948 0.84958 0)
(0.0150676 0.800852 0)
(0.0105561 0.763478 0)
(-0.00587265 0.731206 0)
(-0.0324919 0.68117 0)
(-0.0689149 0.601965 0)
(-0.113556 0.502975 0)
(-0.158704 0.414276 0)
(-0.176651 0.372296 0)
(-0.167236 0.39163 0)
(-0.136991 0.437262 0)
(-0.0940501 0.508713 0)
(-0.0349243 0.651781 0)
(0.0306265 0.757492 0)
(0.118017 0.751615 0)
(0.214288 0.742113 0)
(0.296954 0.745213 0)
(0.342498 0.764244 0)
(0.333187 0.825063 0)
(0.272302 0.893993 0)
(0.199181 0.889987 0)
(0.118374 0.826537 0)
(0.0665944 0.802074 0)
(0.0276666 0.787024 0)
(0.00778851 0.794426 0)
(0.00492205 0.836855 0)
(0.0155463 0.907693 0)
(0.0174803 1.00835 0)
(-0.000771734 1.02154 0)
(0.0128152 0.908923 0)
(0.0298399 0.846196 0)
(0.0315273 0.804885 0)
(0.0256824 0.771311 0)
(0.0120813 0.743682 0)
(-0.0102468 0.695683 0)
(-0.0422092 0.621554 0)
(-0.0841693 0.526712 0)
(-0.138637 0.433354 0)
(-0.173127 0.372042 0)
(-0.172414 0.37923 0)
(-0.150821 0.417542 0)
(-0.115913 0.48052 0)
(-0.0640667 0.600826 0)
(0.0125092 0.694154 0)
(0.0958069 0.679434 0)
(0.189463 0.668435 0)
(0.275649 0.687377 0)
(0.326921 0.741712 0)
(0.324766 0.853531 0)
(0.275562 0.951742 0)
(0.207265 0.964841 0)
(0.117683 0.900511 0)
(0.0544359 0.851448 0)
(0.00956565 0.817696 0)
(-0.0155093 0.808062 0)
(-0.0174868 0.837417 0)
(-0.00337968 0.903691 0)
(0.00205628 1.02113 0)
(0.00986204 1.01914 0)
(0.0264824 0.895071 0)
(0.042386 0.840724 0)
(0.04594 0.807084 0)
(0.0393785 0.780895 0)
(0.0247574 0.756804 0)
(0.0059791 0.713556 0)
(-0.0239948 0.640708 0)
(-0.0645643 0.552203 0)
(-0.119986 0.460444 0)
(-0.168909 0.378826 0)
(-0.17249 0.36603 0)
(-0.155231 0.402177 0)
(-0.125587 0.462045 0)
(-0.0807677 0.557213 0)
(-0.0115418 0.639524 0)
(0.0668433 0.619843 0)
(0.152796 0.596042 0)
(0.237881 0.62374 0)
(0.297935 0.714633 0)
(0.302825 0.86698 0)
(0.266413 0.998038 0)
(0.209073 1.03955 0)
(0.120735 0.983082 0)
(0.0440261 0.908347 0)
(-0.00557523 0.852698 0)
(-0.0350097 0.822909 0)
(-0.0390539 0.833742 0)
(-0.0225057 0.893642 0)
(-0.00988498 1.02282 0)
(0.0185784 1.00093 0)
(0.0387726 0.880872 0)
(0.054032 0.834356 0)
(0.0588311 0.809597 0)
(0.0480823 0.794016 0)
(0.0294224 0.772855 0)
(0.00782142 0.728476 0)
(-0.0215655 0.662929 0)
(-0.0633963 0.579789 0)
(-0.111919 0.485972 0)
(-0.159638 0.39175 0)
(-0.176546 0.352862 0)
(-0.159538 0.384509 0)
(-0.130065 0.444575 0)
(-0.0887104 0.525585 0)
(-0.0309338 0.589169 0)
(0.0426108 0.5642 0)
(0.118286 0.52857 0)
(0.19868 0.556474 0)
(0.255891 0.678124 0)
(0.261603 0.870932 0)
(0.245366 1.02781 0)
(0.206173 1.1 0)
(0.132607 1.06449 0)
(0.0451594 0.974083 0)
(-0.0140153 0.892207 0)
(-0.0484964 0.840097 0)
(-0.0556768 0.829299 0)
(-0.04054 0.879235 0)
(-0.0200583 1.00402 0)
(0.0244133 0.971844 0)
(0.0503505 0.864797 0)
(0.0658905 0.826278 0)
(0.0685393 0.813891 0)
(0.0521224 0.810064 0)
(0.0262715 0.792353 0)
(-0.00644611 0.747946 0)
(-0.0390601 0.684845 0)
(-0.0767172 0.60483 0)
(-0.111616 0.505911 0)
(-0.145797 0.401242 0)
(-0.167002 0.347736 0)
(-0.159322 0.358619 0)
(-0.129336 0.418385 0)
(-0.0858191 0.493862 0)
(-0.0311841 0.547376 0)
(0.0294421 0.514961 0)
(0.0952853 0.47239 0)
(0.159308 0.500091 0)
(0.19052 0.646787 0)
(0.205126 0.858548 0)
(0.210353 1.03503 0)
(0.193562 1.13687 0)
(0.141742 1.13058 0)
(0.0636882 1.04628 0)
(-0.0132747 0.940279 0)
(-0.0565308 0.859039 0)
(-0.0670938 0.825387 0)
(-0.053322 0.861652 0)
(-0.0260973 0.973072 0)
(0.0302405 0.934828 0)
(0.0603275 0.846895 0)
(0.0734421 0.820146 0)
(0.0696863 0.821669 0)
(0.0455431 0.830111 0)
(0.0109172 0.816288 0)
(-0.028465 0.771502 0)
(-0.0640887 0.706076 0)
(-0.0902643 0.619875 0)
(-0.108413 0.515665 0)
(-0.126913 0.407219 0)
(-0.143411 0.342129 0)
(-0.141201 0.343196 0)
(-0.115805 0.384912 0)
(-0.0746884 0.45563 0)
(-0.0229336 0.505957 0)
(0.0322382 0.472669 0)
(0.0762209 0.418964 0)
(0.101825 0.461073 0)
(0.116821 0.612995 0)
(0.13893 0.833031 0)
(0.158474 1.02147 0)
(0.164243 1.14863 0)
(0.1387 1.17315 0)
(0.0781662 1.11075 0)
(0.00227935 0.999584 0)
(-0.0537738 0.882344 0)
(-0.0688861 0.820403 0)
(-0.0584119 0.841108 0)
(-0.0307462 0.933745 0)
(0.0368641 0.889517 0)
(0.0680014 0.829959 0)
(0.0749215 0.81841 0)
(0.0623052 0.83426 0)
(0.0282281 0.853422 0)
(-0.00860313 0.838669 0)
(-0.0466753 0.794862 0)
(-0.0750267 0.72044 0)
(-0.0920792 0.625878 0)
(-0.0985699 0.516333 0)
(-0.105457 0.411019 0)
(-0.118022 0.340065 0)
(-0.119338 0.329097 0)
(-0.0987236 0.3594 0)
(-0.0647307 0.416797 0)
(-0.0172874 0.458519 0)
(0.0268337 0.422308 0)
(0.0561098 0.398476 0)
(0.0561788 0.4426 0)
(0.0564089 0.587406 0)
(0.0744871 0.806643 0)
(0.0964782 0.996373 0)
(0.117596 1.13954 0)
(0.116397 1.1934 0)
(0.0768564 1.15887 0)
(0.00974724 1.05438 0)
(-0.0344126 0.91481 0)
(-0.0562165 0.823873 0)
(-0.0553398 0.828131 0)
(-0.0320822 0.8891 0)
(0.0398828 0.837455 0)
(0.068673 0.81504 0)
(0.0666649 0.822629 0)
(0.0436469 0.853594 0)
(0.00615003 0.878451 0)
(-0.0228649 0.858556 0)
(-0.0484472 0.809191 0)
(-0.0670717 0.728197 0)
(-0.0817747 0.627357 0)
(-0.0853988 0.511361 0)
(-0.0872056 0.411329 0)
(-0.0968712 0.341599 0)
(-0.102132 0.321488 0)
(-0.0866912 0.340461 0)
(-0.0593654 0.38287 0)
(-0.0163184 0.417182 0)
(0.0213694 0.389179 0)
(0.0422871 0.375084 0)
(0.036446 0.435704 0)
(0.0232995 0.570958 0)
(0.0242795 0.783138 0)
(0.0405854 0.968837 0)
(0.0666516 1.11676 0)
(0.0836406 1.1942 0)
(0.0663083 1.19005 0)
(0.015338 1.0953 0)
(-0.0206405 0.930047 0)
(-0.0437688 0.837275 0)
(-0.0491459 0.823005 0)
(-0.0314792 0.847698 0)
(0.035882 0.786391 0)
(0.0571839 0.805929 0)
(0.0448553 0.835222 0)
(0.012709 0.875552 0)
(-0.019432 0.896693 0)
(-0.0372476 0.869242 0)
(-0.0457879 0.815988 0)
(-0.0489042 0.733958 0)
(-0.0605798 0.630338 0)
(-0.0709101 0.510179 0)
(-0.0735832 0.409576 0)
(-0.0800927 0.345132 0)
(-0.0885932 0.31828 0)
(-0.0784831 0.328087 0)
(-0.0586503 0.355619 0)
(-0.0229848 0.377958 0)
(0.0135121 0.358027 0)
(0.0358647 0.358077 0)
(0.0320041 0.436533 0)
(0.0117328 0.575784 0)
(-0.00609559 0.773034 0)
(0.00141443 0.946863 0)
(0.0276916 1.0886 0)
(0.0580065 1.17979 0)
(0.0634641 1.20335 0)
(0.0384349 1.12568 0)
(0.000632407 0.952746 0)
(-0.0293166 0.855833 0)
(-0.0412657 0.820936 0)
(-0.0294093 0.807951 0)
(0.0247974 0.745853 0)
(0.0365892 0.805511 0)
(0.013844 0.854866 0)
(-0.0179234 0.89673 0)
(-0.0397174 0.902893 0)
(-0.0470642 0.862685 0)
(-0.046551 0.801927 0)
(-0.0421946 0.728374 0)
(-0.0471429 0.628899 0)
(-0.0615442 0.510436 0)
(-0.0642734 0.409541 0)
(-0.0663478 0.348992 0)
(-0.0764408 0.318155 0)
(-0.0709232 0.32095 0)
(-0.0565466 0.338604 0)
(-0.0318374 0.347341 0)
(0.000951042 0.328543 0)
(0.0248698 0.343669 0)
(0.0248385 0.439134 0)
(0.00359586 0.591748 0)
(-0.0230881 0.772154 0)
(-0.0202723 0.929372 0)
(0.00752777 1.05685 0)
(0.0465304 1.15234 0)
(0.0716378 1.1968 0)
(0.0716866 1.14349 0)
(0.0346142 0.990891 0)
(-0.00449138 0.880509 0)
(-0.0246242 0.825533 0)
(-0.0201592 0.776851 0)
(0.00840043 0.723832 0)
(0.00993511 0.817785 0)
(-0.0180957 0.878451 0)
(-0.0436486 0.917035 0)
(-0.059121 0.908148 0)
(-0.0682018 0.869164 0)
(-0.0676663 0.797165 0)
(-0.0528472 0.711217 0)
(-0.0381845 0.614729 0)
(-0.0453675 0.510288 0)
(-0.0645549 0.40563 0)
(-0.0640218 0.354513 0)
(-0.0643913 0.320261 0)
(-0.062645 0.315722 0)
(-0.0519456 0.329069 0)
(-0.0350193 0.328605 0)
(-0.0107731 0.305609 0)
(0.00833493 0.332369 0)
(0.00630687 0.442887 0)
(-0.0132842 0.611403 0)
(-0.0356569 0.775692 0)
(-0.0286226 0.910923 0)
(0.00228104 1.02208 0)
(0.0459204 1.11594 0)
(0.0838378 1.17609 0)
(0.101526 1.15039 0)
(0.0713352 1.03055 0)
(0.0267061 0.911173 0)
(-0.00319704 0.837952 0)
(-0.00758869 0.761704 0)
(-0.00446524 0.720174 0)
(-0.0133436 0.834546 0)
(-0.0494657 0.902912 0)
(-0.0748273 0.937647 0)
(-0.0889414 0.916832 0)
(-0.0851275 0.860242 0)
(-0.0691206 0.775726 0)
(-0.046913 0.688866 0)
(-0.0286994 0.598701 0)
(-0.0266054 0.503064 0)
(-0.0508565 0.410792 0)
(-0.0689271 0.343704 0)
(-0.0616742 0.322304 0)
(-0.0555927 0.311928 0)
(-0.0473914 0.323967 0)
(-0.0334655 0.317752 0)
(-0.0158689 0.291291 0)
(-0.00724298 0.329308 0)
(-0.0214472 0.45382 0)
(-0.0398324 0.623823 0)
(-0.0461913 0.770157 0)
(-0.0293162 0.887435 0)
(0.00314337 0.986747 0)
(0.0460482 1.07652 0)
(0.0887726 1.14607 0)
(0.117854 1.14827 0)
(0.102823 1.06883 0)
(0.0583873 0.950916 0)
(0.0170267 0.860823 0)
(0.00177245 0.76001 0)
(-0.0145949 0.734382 0)
(-0.0420405 0.865005 0)
(-0.07826 0.928937 0)
(-0.0892407 0.948496 0)
(-0.0890006 0.913226 0)
(-0.0740375 0.849282 0)
(-0.0531387 0.760771 0)
(-0.0321173 0.674983 0)
(-0.017603 0.591882 0)
(-0.0148877 0.5069 0)
(-0.0318605 0.419464 0)
(-0.0589267 0.348831 0)
(-0.0628033 0.310458 0)
(-0.0514501 0.306901 0)
(-0.0429809 0.318954 0)
(-0.0305771 0.310243 0)
(-0.0175112 0.28454 0)
(-0.0188335 0.340804 0)
(-0.0456296 0.472363 0)
(-0.0582509 0.62477 0)
(-0.0477952 0.755347 0)
(-0.0253289 0.860735 0)
(0.00524048 0.95272 0)
(0.0436754 1.03905 0)
(0.0852784 1.11483 0)
(0.118482 1.13861 0)
(0.117216 1.09651 0)
(0.083971 0.996179 0)
(0.0363267 0.892206 0)
(0.0108129 0.770815 0)
(-0.0283051 0.767133 0)
(-0.0587347 0.893964 0)
(-0.0787209 0.944362 0)
(-0.080981 0.95396 0)
(-0.0740383 0.909662 0)
(-0.054908 0.837475 0)
(-0.0334854 0.746828 0)
(-0.0161337 0.663357 0)
(-0.00678529 0.587118 0)
(-0.00706298 0.511413 0)
(-0.0209299 0.431625 0)
(-0.0434081 0.357069 0)
(-0.0560422 0.306957 0)
(-0.0488652 0.299627 0)
(-0.0377204 0.314123 0)
(-0.0271556 0.305606 0)
(-0.0167643 0.283728 0)
(-0.0230498 0.357644 0)
(-0.0529307 0.486266 0)
(-0.0612112 0.613141 0)
(-0.0462039 0.734572 0)
(-0.0221621 0.834647 0)
(0.00471172 0.922259 0)
(0.0372054 1.00561 0)
(0.0747706 1.0834 0)
(0.107885 1.1248 0)
(0.113103 1.11131 0)
(0.0913329 1.03536 0)
(0.0519641 0.931348 0)
(0.0175115 0.796456 0)
(-0.0312185 0.81608 0)