/*--------------------------------*- C++ -*----------------------------------*\
| =========                 |                                                 |
| \\      /  F ield         | OpenFOAM: The Open Source CFD Toolbox           |
|  \\    /   O peration     | Version:  v1606+                                |
|   \\  /    A nd           | Web:      www.OpenFOAM.com                      |
|    \\/     M anipulation  |                                                 |
\*---------------------------------------------------------------------------*/
FoamFile
{
    version     2.0;
    format      ascii;
    class       volScalarField;
    location    "1.8";
    object      p;
}
// * * * * * * * * * * * * * * * * * * * * * * * * * * * * * * * * * * * * * //

dimensions      [0 2 -2 0 0 0 0];

internalField   nonuniform List<scalar> 
3072
(
-0.0470987
-0.0470256
-0.0468703
-0.0466534
-0.0463864
-0.046072
-0.0457028
-0.045258
-0.0447769
-0.0442719
-0.0437488
-0.0432108
-0.0440194
-0.0439933
-0.0440434
-0.0440816
-0.0440156
-0.0438148
-0.0434935
-0.0431095
-0.0426783
-0.0422266
-0.0417362
-0.0411388
-0.0425293
-0.0425755
-0.042776
-0.0429711
-0.0430184
-0.0428746
-0.0425558
-0.0421046
-0.0415605
-0.0409624
-0.0402923
-0.0394411
-0.0403638
-0.0405177
-0.0408916
-0.0411691
-0.0412083
-0.0409803
-0.0405237
-0.0399216
-0.0392658
-0.0385689
-0.0377224
-0.0365863
-0.0381085
-0.0383064
-0.038689
-0.0389265
-0.0388868
-0.0385478
-0.0379607
-0.0372272
-0.0364297
-0.0355268
-0.0343744
-0.0328442
-0.0356628
-0.0357586
-0.0359938
-0.0361008
-0.0359142
-0.0354262
-0.0346897
-0.0337949
-0.0328006
-0.0316474
-0.0301649
-0.0283275
-0.0330961
-0.03291
-0.0328193
-0.0326313
-0.0323609
-0.0316626
-0.0307548
-0.0296827
-0.0284675
-0.0270193
-0.0252931
-0.0233185
-0.0305171
-0.0299431
-0.0295353
-0.0290723
-0.0283511
-0.0274973
-0.0263321
-0.0250007
-0.0235629
-0.0219563
-0.020151
-0.0182147
-0.0279703
-0.0269953
-0.0264083
-0.0258159
-0.0249059
-0.0235916
-0.021933
-0.0201419
-0.018385
-0.0166914
-0.0149947
-0.0133901
-0.0253052
-0.0240657
-0.0235597
-0.0230429
-0.0220103
-0.0203256
-0.0181753
-0.0158758
-0.0136929
-0.0118021
-0.010266
-0.00907646
-0.022109
-0.0208984
-0.020874
-0.0206906
-0.0196616
-0.0177282
-0.0152541
-0.012629
-0.010139
-0.00800826
-0.00640731
-0.00542123
-0.0183934
-0.0176821
-0.0183954
-0.0187551
-0.0177972
-0.0157107
-0.0130927
-0.0103494
-0.00776331
-0.00555895
-0.0038938
-0.00286962
-0.0426722
-0.0421661
-0.0417355
-0.0414086
-0.0412122
-0.041176
-0.0413204
-0.0416569
-0.0419731
-0.0420195
-0.0417542
-0.0413079
-0.0403804
-0.039499
-0.0386762
-0.0380952
-0.0378426
-0.0379892
-0.0386084
-0.0395136
-0.0402872
-0.0404777
-0.0399375
-0.0390443
-0.0383146
-0.0369971
-0.0357854
-0.0349672
-0.0346478
-0.0348482
-0.0355869
-0.0367414
-0.0378607
-0.0382902
-0.0378165
-0.0368823
-0.0351166
-0.033544
-0.0322168
-0.0313208
-0.0309034
-0.0309742
-0.0315537
-0.0326074
-0.0338758
-0.0347669
-0.0347815
-0.0341585
-0.031071
-0.0294919
-0.0283454
-0.0275871
-0.0271481
-0.0270466
-0.0273367
-0.0280587
-0.0291463
-0.0303242
-0.0310477
-0.0310197
-0.0264686
-0.0250851
-0.0242196
-0.0236478
-0.023253
-0.0230529
-0.0231337
-0.0235592
-0.0243061
-0.0252935
-0.0265045
-0.0274464
-0.0215474
-0.0204644
-0.0199429
-0.0196077
-0.0193246
-0.0191397
-0.0191183
-0.0193144
-0.0197669
-0.0203988
-0.0214712
-0.0233799
-0.0166379
-0.015877
-0.0157334
-0.0156921
-0.0155558
-0.0153919
-0.0152996
-0.0153481
-0.015574
-0.0159616
-0.0167284
-0.0187679
-0.0121187
-0.0116258
-0.0117816
-0.0120323
-0.0120792
-0.0119599
-0.0118
-0.0116841
-0.0116619
-0.0117727
-0.0120559
-0.0134984
-0.00825682
-0.00799332
-0.00829103
-0.00873862
-0.00897382
-0.00893556
-0.00872968
-0.0084595
-0.00816727
-0.0078369
-0.00748326
-0.0078968
-0.0050139
-0.00507906
-0.00547215
-0.0059724
-0.00631647
-0.00637602
-0.00617938
-0.00581117
-0.00531208
-0.00459224
-0.0035644
-0.00299518
-0.00251493
-0.00273102
-0.00326835
-0.0038237
-0.00419527
-0.00431305
-0.00418086
-0.00383565
-0.00330987
-0.00246923
-0.000970587
0.00095542
-0.0470956
-0.0469427
-0.0467325
-0.0465061
-0.0462607
-0.045966
-0.0455994
-0.045149
-0.0446652
-0.04416
-0.0436358
-0.0430951
-0.0439931
-0.0439482
-0.0439963
-0.0440244
-0.0439418
-0.0437261
-0.0433961
-0.04301
-0.0425789
-0.0421295
-0.0416381
-0.0410315
-0.042507
-0.0425412
-0.042731
-0.0429124
-0.0429434
-0.0427842
-0.0424543
-0.041998
-0.041457
-0.0408626
-0.0401898
-0.0393216
-0.0403096
-0.0404644
-0.0408347
-0.0410999
-0.0411213
-0.0408746
-0.0404043
-0.0397988
-0.0391503
-0.0384583
-0.0376034
-0.036444
-0.0380544
-0.0382524
-0.0386288
-0.0388519
-0.0387932
-0.0384347
-0.0378337
-0.0370961
-0.0362987
-0.0353944
-0.0342247
-0.0326649
-0.0356033
-0.0357006
-0.0359337
-0.0360246
-0.0358208
-0.0353141
-0.034563
-0.0336607
-0.03266
-0.031491
-0.0299868
-0.0281251
-0.0330318
-0.0328459
-0.0327481
-0.0325551
-0.0322692
-0.0315558
-0.0306345
-0.0295519
-0.0283248
-0.0268617
-0.0251169
-0.0231201
-0.0304452
-0.0298726
-0.0294592
-0.0289878
-0.0282558
-0.0273894
-0.026214
-0.0248732
-0.023423
-0.0218047
-0.0200245
-0.0180414
-0.0278882
-0.0269151
-0.0263207
-0.0257172
-0.0247955
-0.0234709
-0.0218056
-0.0200095
-0.0182442
-0.0165307
-0.0147798
-0.0132288
-0.0252138
-0.0239754
-0.0234606
-0.0229303
-0.0218844
-0.02019
-0.0180351
-0.0157349
-0.013553
-0.0116616
-0.0101218
-0.00896491
-0.0220113
-0.0208023
-0.0207684
-0.0205702
-0.0195266
-0.0175839
-0.0151077
-0.0124861
-0.0100044
-0.00788668
-0.00630449
-0.00535003
-0.0182883
-0.0175812
-0.0182871
-0.0186319
-0.0176588
-0.0155653
-0.0129484
-0.0102126
-0.00764041
-0.00545606
-0.00381704
-0.00282462
-0.0425532
-0.0420445
-0.0416115
-0.0412816
-0.0410807
-0.0410387
-0.041185
-0.0415274
-0.0418498
-0.0418987
-0.0416338
-0.0411872
-0.040257
-0.0393613
-0.0385331
-0.0379511
-0.0376944
-0.03784
-0.0384632
-0.0393774
-0.0401575
-0.0403501
-0.0398125
-0.0389214
-0.0381695
-0.0368335
-0.0356219
-0.0348125
-0.0344985
-0.0346992
-0.0354364
-0.0365898
-0.0377096
-0.0381431
-0.0376752
-0.0367489
-0.0349485
-0.03337
-0.0320537
-0.0311701
-0.030759
-0.030829
-0.0314024
-0.0324468
-0.0337084
-0.0346027
-0.0346285
-0.0340185
-0.0308816
-0.0293181
-0.0281893
-0.0274406
-0.0270045
-0.0269017
-0.0271855
-0.0278972
-0.0289734
-0.0301464
-0.0308824
-0.0308721
-0.0262752
-0.0249187
-0.0240686
-0.0235013
-0.0231075
-0.022906
-0.0229816
-0.0233993
-0.0241359
-0.0251108
-0.0263198
-0.0272844
-0.0213691
-0.0203175
-0.019806
-0.0194683
-0.0191816
-0.0189931
-0.0189668
-0.0191559
-0.0195985
-0.0202208
-0.0212801
-0.0232037
-0.016488
-0.0157606
-0.0156218
-0.015569
-0.015423
-0.015252
-0.0151515
-0.0151888
-0.0154052
-0.0157835
-0.0165372
-0.0185775
-0.0120008
-0.0115433
-0.0117011
-0.0119331
-0.011963
-0.0118321
-0.011661
-0.0115317
-0.011495
-0.0115923
-0.011861
-0.0132923
-0.00818004
-0.00794389
-0.00824158
-0.00866708
-0.00887887
-0.00882349
-0.00860322
-0.00831775
-0.00800917
-0.00766255
-0.00729065
-0.00768299
-0.00497343
-0.00505813
-0.00544883
-0.00592747
-0.00624507
-0.00628273
-0.00606858
-0.00568405
-0.00516863
-0.00443411
-0.00339089
-0.00280008
-0.0024982
-0.0027292
-0.00326255
-0.00379849
-0.00414482
-0.00423921
-0.00408776
-0.00372614
-0.00318604
-0.00233401
-0.00083061
0.00106533
-0.0470796
-0.0470089
-0.0468552
-0.0466402
-0.046374
-0.0460598
-0.0456899
-0.0452426
-0.04476
-0.0442543
-0.0437308
-0.0431923
-0.0440052
-0.043981
-0.0440327
-0.0440715
-0.0440045
-0.0438014
-0.0434775
-0.0430926
-0.0426605
-0.0422092
-0.0417186
-0.0411204
-0.0425147
-0.0425622
-0.0427639
-0.0429597
-0.0430065
-0.0428608
-0.0425396
-0.0420862
-0.0415409
-0.0409417
-0.0402711
-0.0394178
-0.040351
-0.0405055
-0.0408805
-0.0411583
-0.041196
-0.0409647
-0.0405039
-0.039898
-0.0392403
-0.0385424
-0.0376943
-0.0365553
-0.0380976
-0.0382959
-0.0386798
-0.0389173
-0.0388756
-0.0385326
-0.0379402
-0.0372022
-0.0364011
-0.0354955
-0.0343398
-0.0328055
-0.0356535
-0.03575
-0.0359875
-0.0360942
-0.0359061
-0.0354136
-0.034671
-0.0337702
-0.0327709
-0.0316132
-0.0301275
-0.0282866
-0.0330881
-0.032903
-0.0328143
-0.0326291
-0.0323571
-0.0316546
-0.0307405
-0.0296618
-0.0284407
-0.0269896
-0.0252612
-0.0232822
-0.0305103
-0.0299377
-0.0295326
-0.0290714
-0.0283495
-0.027492
-0.0263215
-0.0249844
-0.0235412
-0.0219314
-0.020134
-0.0181855
-0.0279654
-0.0269921
-0.0264078
-0.0258169
-0.0249051
-0.0235859
-0.0219215
-0.0201257
-0.0183647
-0.0166651
-0.0149536
-0.0133608
-0.0253027
-0.0240656
-0.0235632
-0.023048
-0.022012
-0.0203193
-0.0181603
-0.0158549
-0.0136694
-0.0117773
-0.0102388
-0.0090542
-0.0221118
-0.0209028
-0.0208824
-0.0207004
-0.0196665
-0.0177224
-0.0152374
-0.0126052
-0.0101125
-0.00798209
-0.00638354
-0.0054026
-0.0184049
-0.0176908
-0.0184075
-0.0187665
-0.0178025
-0.0157051
-0.0130765
-0.0103265
-0.00773773
-0.00553356
-0.00387065
-0.00285071
-0.0426535
-0.0421474
-0.0417168
-0.0413899
-0.0411933
-0.0411568
-0.0413013
-0.0416379
-0.0419532
-0.0419983
-0.041732
-0.0412854
-0.0403605
-0.0394781
-0.0386558
-0.0380761
-0.0378239
-0.0379705
-0.03859
-0.0394949
-0.0402668
-0.0404549
-0.0399136
-0.0390207
-0.0382881
-0.0369688
-0.0357587
-0.0349439
-0.034627
-0.0348284
-0.0355669
-0.0367195
-0.0378356
-0.0382628
-0.037789
-0.0368566
-0.0350825
-0.0335106
-0.0321875
-0.0312958
-0.0308813
-0.0309533
-0.0315322
-0.0325833
-0.0338478
-0.0347368
-0.0347526
-0.0341321
-0.0310318
-0.0294577
-0.0283166
-0.0275614
-0.027124
-0.0270233
-0.0273132
-0.0280335
-0.0291178
-0.0302925
-0.031017
-0.0309924
-0.0264301
-0.0250531
-0.0241918
-0.0236215
-0.0232273
-0.0230275
-0.0231084
-0.0235336
-0.0242789
-0.025262
-0.0264702
-0.0274169
-0.021514
-0.020437
-0.0199177
-0.0195821
-0.0192985
-0.0191133
-0.0190918
-0.0192881
-0.0197406
-0.0203705
-0.0214376
-0.0233496
-0.0166109
-0.0158551
-0.0157122
-0.0156687
-0.0155307
-0.0153656
-0.0152726
-0.0153208
-0.0155477
-0.015936
-0.0167004
-0.0187409
-0.0120963
-0.0116088
-0.0117647
-0.0120121
-0.0120561
-0.0119347
-0.0117734
-0.0116571
-0.0116357
-0.0117487
-0.0120328
-0.0134786
-0.00823882
-0.00797923
-0.0082774
-0.00872181
-0.00895327
-0.00891211
-0.00870427
-0.00843337
-0.00814228
-0.00781477
-0.00746444
-0.00788603
-0.00499948
-0.00506687
-0.00545992
-0.00595806
-0.00629882
-0.00635506
-0.00615595
-0.00578684
-0.00528903
-0.00457256
-0.00355105
-0.00299129
-0.00250062
-0.00271961
-0.00325715
-0.00381067
-0.00417981
-0.00429493
-0.00416036
-0.00381411
-0.00328969
-0.00245148
-0.000958434
0.000964813
-0.047064
-0.0469111
-0.0467009
-0.0464751
-0.0462307
-0.0459372
-0.0455719
-0.0451224
-0.0446395
-0.0441349
-0.0436113
-0.0430714
-0.0439623
-0.0439181
-0.0439676
-0.0439972
-0.043916
-0.0437013
-0.0433721
-0.0429865
-0.0425557
-0.0421068
-0.0416155
-0.0410087
-0.0424753
-0.042511
-0.0427031
-0.0428866
-0.0429193
-0.0427615
-0.0424327
-0.0419773
-0.0414366
-0.0408422
-0.0401693
-0.0393008
-0.0402779
-0.0404354
-0.0408085
-0.0410759
-0.0410992
-0.0408541
-0.0403851
-0.0397803
-0.0391319
-0.0384406
-0.0375858
-0.0364264
-0.038022
-0.0382234
-0.0386032
-0.0388279
-0.0387714
-0.0384149
-0.0378156
-0.0370795
-0.0362835
-0.0353791
-0.0342095
-0.03265
-0.0355684
-0.0356704
-0.0359088
-0.0359974
-0.0357973
-0.0352932
-0.0345444
-0.033644
-0.0326447
-0.0314765
-0.029973
-0.0281114
-0.0329935
-0.032811
-0.0327138
-0.0325285
-0.0322436
-0.0315322
-0.0306136
-0.0295336
-0.0283085
-0.0268469
-0.0251029
-0.0231061
-0.0304042
-0.0298352
-0.0294235
-0.028955
-0.0282246
-0.0273612
-0.0261892
-0.0248518
-0.0234045
-0.0217881
-0.0200093
-0.0180257
-0.0278451
-0.0268756
-0.0262825
-0.0256799
-0.0247593
-0.0234372
-0.021776
-0.0199845
-0.018223
-0.0165117
-0.0147609
-0.0132105
-0.0251696
-0.0239346
-0.0234201
-0.0228892
-0.0218433
-0.0201511
-0.0180007
-0.0157059
-0.0135288
-0.0116405
-0.0101016
-0.0089447
-0.0219686
-0.0207618
-0.0207272
-0.0205261
-0.0194803
-0.0175396
-0.015069
-0.0124536
-0.00997763
-0.00786352
-0.00628248
-0.00532773
-0.0182505
-0.0175435
-0.0182457
-0.0185826
-0.0176044
-0.0155143
-0.0129054
-0.0101777
-0.00761269
-0.00543204
-0.00379343
-0.00279982
-0.0425302
-0.0420225
-0.0415905
-0.0412619
-0.0410621
-0.0410209
-0.0411707
-0.0415164
-0.0418412
-0.0418913
-0.0416265
-0.0411797
-0.0402342
-0.039339
-0.0385117
-0.0379312
-0.0376769
-0.0378267
-0.038453
-0.0393712
-0.0401544
-0.040348
-0.0398092
-0.0389164
-0.0381487
-0.0368131
-0.0356024
-0.0347945
-0.0344827
-0.0346864
-0.0354275
-0.0365856
-0.0377091
-0.0381434
-0.037674
-0.0367453
-0.0349309
-0.0333527
-0.0320373
-0.0311553
-0.0307462
-0.0308187
-0.0313952
-0.0324432
-0.033708
-0.0346033
-0.0346277
-0.0340157
-0.0308668
-0.0293039
-0.0281766
-0.0274299
-0.0269961
-0.0268958
-0.0271816
-0.0278952
-0.0289731
-0.0301475
-0.0308827
-0.0308705
-0.0262618
-0.0249064
-0.0240585
-0.0234938
-0.0231026
-0.0229035
-0.0229808
-0.0233994
-0.0241365
-0.0251128
-0.026323
-0.0272851
-0.0213554
-0.0203055
-0.019797
-0.0194623
-0.0191785
-0.0189924
-0.0189676
-0.0191576
-0.0195998
-0.0202226
-0.0212843
-0.0232061
-0.0164727
-0.0157475
-0.0156124
-0.0155634
-0.0154206
-0.015252
-0.015153
-0.0151905
-0.0154066
-0.0157843
-0.0165396
-0.0185797
-0.0119832
-0.011528
-0.0116901
-0.0119267
-0.0119607
-0.0118327
-0.0116631
-0.011534
-0.0114964
-0.0115919
-0.0118607
-0.0132914
-0.00815984
-0.00792565
-0.00822778
-0.00865891
-0.00887602
-0.00882441
-0.00860573
-0.00832014
-0.00801005
-0.00766106
-0.00728717
-0.00767624
-0.00495075
-0.00503651
-0.00543111
-0.0059162
-0.0062408
-0.00628367
-0.00607148
-0.00568644
-0.00516873
-0.00443048
-0.00338245
-0.00278604
-0.00247235
-0.00270361
-0.00324011
-0.00378273
-0.00413793
-0.00423944
-0.00409051
-0.00372847
-0.00318567
-0.00232916
-0.000818006
0.00108543
-0.0124243
-0.0148882
-0.0166691
-0.01737
-0.0163657
-0.0141897
-0.0115172
-0.00875556
-0.00619607
-0.00406213
-0.00247725
-0.00147615
-0.0108108
-0.0143608
-0.016015
-0.0162082
-0.0150807
-0.0129518
-0.0103151
-0.00761046
-0.00515659
-0.00315894
-0.00170858
-0.000799157
-0.00997309
-0.0133196
-0.0147921
-0.0149243
-0.0138959
-0.0118821
-0.00934466
-0.00678133
-0.00451076
-0.00269927
-0.00140365
-0.000588584
-0.00942747
-0.012288
-0.013811
-0.0139541
-0.0128913
-0.0109004
-0.00847775
-0.00612293
-0.00409131
-0.00249124
-0.00135624
-0.000639898
-0.00104434
-0.00112723
-0.00157878
-0.00213599
-0.0025463
-0.00271923
-0.00268754
-0.00248762
-0.00219275
-0.00191178
-0.00207671
-0.00446188
-0.000368837
-0.000338983
-0.000594455
-0.000957639
-0.0012489
-0.00142619
-0.00153207
-0.00156547
-0.00164543
-0.00201862
-0.00319617
-0.00571906
-0.000167254
-6.4192e-05
-0.000198684
-0.000401123
-0.000492668
-0.000538848
-0.000705647
-0.000918045
-0.00131399
-0.00209213
-0.00357696
-0.00592075
-0.000236551
-9.20119e-05
-0.000178477
-0.000282631
-0.000144319
-9.10138e-06
-0.000282176
-0.000600674
-0.00118768
-0.00219193
-0.00382572
-0.00617956
-0.0123364
-0.0147834
-0.0165596
-0.0172462
-0.0162294
-0.0140491
-0.0113793
-0.00862819
-0.00608658
-0.00397647
-0.00241944
-0.00144764
-0.0107542
-0.0142669
-0.015911
-0.0160914
-0.0149525
-0.0128181
-0.0101846
-0.00749252
-0.00505877
-0.00308598
-0.00166267
-0.000779458
-0.0099445
-0.01325
-0.0147047
-0.0148224
-0.0137779
-0.0117561
-0.00922284
-0.00667341
-0.00442329
-0.00263552
-0.00136457
-0.000572377
-0.0094201
-0.0122446
-0.0137442
-0.0138634
-0.0127821
-0.010784
-0.00836717
-0.00602625
-0.00401354
-0.00243434
-0.00132121
-0.000624981
-0.00104039
-0.00113546
-0.00158245
-0.00212175
-0.00250932
-0.00266079
-0.00261084
-0.00239596
-0.00209007
-0.00180359
-0.00198335
-0.00443573
-0.000369918
-0.000350444
-0.000602492
-0.000950313
-0.00122043
-0.00137759
-0.00146724
-0.00148878
-0.00156232
-0.00193754
-0.00314187
-0.00572922
-0.000168573
-7.37865e-05
-0.000206485
-0.00039743
-0.000472177
-0.000500567
-0.000652059
-0.000854512
-0.00124761
-0.00203266
-0.00354415
-0.00593631
-0.000236344
-9.87535e-05
-0.000184343
-0.000279529
-0.000128995
1.90615e-05
-0.000241489
-0.000551837
-0.00113759
-0.00214922
-0.00380378
-0.0061893
-0.0124495
-0.0149127
-0.0166919
-0.0173861
-0.0163715
-0.0141846
-0.0115031
-0.00873608
-0.00617447
-0.00404068
-0.0024572
-0.00145832
-0.0108626
-0.0144049
-0.0160463
-0.0162281
-0.0150884
-0.0129487
-0.0103043
-0.00759539
-0.00513995
-0.00314242
-0.00169288
-0.000784395
-0.0100242
-0.0133602
-0.0148226
-0.0149455
-0.0139054
-0.0118812
-0.00933727
-0.00677093
-0.00449948
-0.00268824
-0.00139303
-0.000577924
-0.00946848
-0.0123221
-0.0138389
-0.0139738
-0.0129005
-0.0109004
-0.00847292
-0.00611653
-0.00408472
-0.00248505
-0.00135032
-0.00063366
-0.00102901
-0.00111387
-0.00156671
-0.0021236
-0.00253231
-0.00270337
-0.00267003
-0.00246944
-0.00217595
-0.00189721
-0.00207011
-0.00445858
-0.000354743
-0.000325213
-0.00058113
-0.000944352
-0.00123547
-0.00141232
-0.00151759
-0.00155116
-0.00163304
-0.0020096
-0.00319548
-0.00573008
-0.000156062
-5.27468e-05
-0.000186657
-0.000388489
-0.000480018
-0.000526916
-0.000694501
-0.000908467
-0.00130744
-0.00209067
-0.0035841
-0.00593855
-0.000229464
-8.39234e-05
-0.000168646
-0.000271839
-0.000134436
-1.89934e-06
-0.000277223
-0.000598763
-0.00118979
-0.00219982
-0.00384033
-0.00619729
-0.0123154
-0.0147596
-0.0165239
-0.0171922
-0.0161654
-0.0139897
-0.0113318
-0.00859188
-0.00606019
-0.00395397
-0.00239618
-0.00142148
-0.0107613
-0.0142585
-0.0158802
-0.0160373
-0.0148815
-0.0127457
-0.0101285
-0.00745462
-0.00503507
-0.00306617
-0.0016411
-0.000753567
-0.00995517
-0.0132399
-0.0146756
-0.0147724
-0.0137061
-0.0116751
-0.0091547
-0.00663504
-0.0044029
-0.00261762
-0.00134407
-0.000547083
-0.0094264
-0.0122335
-0.0137184
-0.0138162
-0.0127189
-0.0107206
-0.00831584
-0.00599913
-0.00399625
-0.00241564
-0.00129898
-0.000598725
-0.00101119
-0.00110454
-0.00155358
-0.00209954
-0.00249801
-0.00265934
-0.00261266
-0.00239777
-0.00208942
-0.00179791
-0.00196554
-0.00440545
-0.000338927
-0.000315313
-0.000567633
-0.000921404
-0.00120408
-0.00137424
-0.00146815
-0.00149039
-0.00156166
-0.00192962
-0.00311989
-0.00568694
-0.000137242
-3.77291e-05
-0.000168513
-0.00036404
-0.000452415
-0.000499454
-0.00065686
-0.00085792
-0.00124606
-0.00202093
-0.0035174
-0.00589108
-0.00020537
-6.22888e-05
-0.000142008
-0.000239148
-9.2012e-05
3.50382e-05
-0.000246483
-0.000562384
-0.00113506
-0.00213328
-0.00377338
-0.00614784
-0.0100485
-0.00799799
-0.0059554
-0.004145
-0.00266196
-0.00154868
-0.000802987
-0.000359273
-0.000174304
-0.000240465
-0.000344502
-0.000171807
-0.0091154
-0.00736581
-0.00560947
-0.00402448
-0.00269807
-0.00167754
-0.000974411
-0.000538144
-0.000330169
-0.000379777
-0.000533794
-0.000390938
-0.00829667
-0.00683956
-0.00534973
-0.00397315
-0.00279526
-0.00186614
-0.00120841
-0.000789907
-0.000566596
-0.000580356
-0.000791083
-0.000778919
-0.00762263
-0.00642855
-0.00515773
-0.00396133
-0.00291712
-0.00207456
-0.00146072
-0.00106605
-0.000851068
-0.000826434
-0.00102863
-0.00127836
4.601e-05
-0.000147907
-0.000495254
-0.00110073
-0.00212
-0.0036923
-0.00584225
-0.00852161
-0.0110084
-0.012506
-0.0127529
-0.0118964
-4.68896e-05
-0.000260431
-0.000656767
-0.00129449
-0.00231334
-0.0038054
-0.00575629
-0.0080042
-0.0100541
-0.0112735
-0.0114622
-0.0107078
-0.000275481
-0.000453428
-0.000911872
-0.00155017
-0.00251244
-0.00385172
-0.00553483
-0.0073904
-0.00903139
-0.0100062
-0.0101909
-0.00958514
-0.000564379
-0.000669223
-0.00118593
-0.00180281
-0.00269169
-0.00386567
-0.00528438
-0.00679722
-0.00811424
-0.00892211
-0.00910251
-0.00865079
-0.0102015
-0.00812696
-0.00606868
-0.00424022
-0.00273994
-0.00161017
-0.000849474
-0.000395118
-0.000208261
-0.000281118
-0.000387573
-0.000213481
-0.0092473
-0.00747871
-0.00571206
-0.00411411
-0.00277311
-0.00173778
-0.00102084
-0.000574246
-0.000362915
-0.00041673
-0.000577499
-0.00042976
-0.00840783
-0.00694229
-0.00544398
-0.00405863
-0.00286818
-0.00192582
-0.00125562
-0.000827281
-0.000597455
-0.000611279
-0.000828585
-0.000819831
-0.00772134
-0.00652267
-0.0052463
-0.00404306
-0.00298796
-0.00213376
-0.00150884
-0.00110529
-0.000884959
-0.000858071
-0.00106564
-0.00132197
1.43967e-05
-0.000171905
-0.000525947
-0.0011461
-0.00217137
-0.0037409
-0.00587696
-0.00852858
-0.0109837
-0.0124529
-0.0126718
-0.0117969
-6.87539e-05
-0.000277384
-0.000682849
-0.00133324
-0.00235718
-0.00384682
-0.00578514
-0.00800922
-0.0100317
-0.0112225
-0.0113882
-0.0106183
-0.000300471
-0.000469922
-0.00093489
-0.00158188
-0.00254808
-0.00388501
-0.00555687
-0.00739284
-0.00900926
-0.00995849
-0.0101246
-0.00950654
-0.000586379
-0.000684727
-0.00120651
-0.001829
-0.00272044
-0.00389106
-0.00530002
-0.006797
-0.00809384
-0.00888069
-0.00904487
-0.00858264
-0.0100949
-0.0080257
-0.00597978
-0.00416727
-0.00268467
-0.00157371
-0.000831242
-0.000391548
-0.000212735
-0.000285016
-0.000385337
-0.00020361
-0.00915239
-0.00738926
-0.00563325
-0.00404851
-0.00272268
-0.00170349
-0.00100242
-0.000569093
-0.000365569
-0.000419287
-0.000574445
-0.000420341
-0.0083252
-0.00686355
-0.00537388
-0.00399895
-0.00282138
-0.00189289
-0.00123643
-0.00081988
-0.000597795
-0.000611814
-0.00082297
-0.000808968
-0.00764918
-0.00645301
-0.00518284
-0.00398815
-0.00294408
-0.00210174
-0.00148859
-0.00109523
-0.000881204
-0.000855965
-0.00105767
-0.00130779
3.30482e-05
-0.000143815
-0.00049074
-0.0011083
-0.00213761
-0.00372047
-0.00587733
-0.00855662
-0.0110398
-0.0125323
-0.0127716
-0.0119065
-5.41381e-05
-0.000255713
-0.000655508
-0.00130389
-0.00233117
-0.00383127
-0.00578725
-0.00803565
-0.010083
-0.0112974
-0.0114793
-0.0107176
-0.000287562
-0.000453196
-0.000913837
-0.00155967
-0.00252916
-0.00387477
-0.00556175
-0.0074181
-0.00905684
-0.0100269
-0.0102059
-0.00959459
-0.000574704
-0.00067169
-0.00119034
-0.0018126
-0.00270735
-0.00388592
-0.00530769
-0.00682137
-0.0081367
-0.00894076
-0.00911646
-0.00866028
-0.0102048
-0.00812662
-0.00606668
-0.00423743
-0.00273672
-0.00160658
-0.000845218
-0.000389745
-0.000201353
-0.000272814
-0.000378306
-0.000205336
-0.00925148
-0.00747995
-0.00571166
-0.00411275
-0.00277109
-0.00173519
-0.00101739
-0.00056956
-0.000356666
-0.00040869
-0.000567622
-0.000420314
-0.0084129
-0.00694464
-0.00544469
-0.00405825
-0.00286693
-0.00192384
-0.00125267
-0.000822991
-0.000591449
-0.000603426
-0.00081811
-0.000808502
-0.00772711
-0.00652576
-0.00524773
-0.0040433
-0.00298718
-0.0021321
-0.00150611
-0.00110123
-0.000879397
-0.000850277
-0.00105534
-0.00130941
1.92307e-05
-0.000170537
-0.000528213
-0.0011526
-0.00218283
-0.00375666
-0.0058923
-0.00853421
-0.0109742
-0.0124277
-0.0126315
-0.0117455
-6.42624e-05
-0.000277147
-0.000685942
-0.00133992
-0.00236758
-0.00385977
-0.00579668
-0.00801309
-0.0100227
-0.0112006
-0.0113557
-0.0105774
-0.000297107
-0.000471046
-0.00093826
-0.00158772
-0.00255627
-0.00389467
-0.0055649
-0.00739479
-0.00900144
-0.00994028
-0.0100986
-0.00947586
-0.000583466
-0.00068692
-0.00121006
-0.00183405
-0.00272672
-0.00389807
-0.00530541
-0.0067977
-0.00808729
-0.00886607
-0.00902355
-0.00855702
-0.00707763
-0.00609
-0.00501271
-0.00396446
-0.00303897
-0.00227725
-0.00170699
-0.00132792
-0.00111364
-0.0010762
-0.00121901
-0.00149846
-0.00663503
-0.00581041
-0.00489007
-0.0039778
-0.00314836
-0.00245776
-0.00192629
-0.00155985
-0.00133872
-0.0012553
-0.00127355
-0.00138976
-0.00627601
-0.00557987
-0.00478658
-0.00398545
-0.00324446
-0.00260951
-0.00211137
-0.00175457
-0.00152702
-0.00142077
-0.00140664
-0.00150989
-0.00598688
-0.00539116
-0.00469939
-0.00398849
-0.00331947
-0.00273549
-0.00226324
-0.00191453
-0.00168059
-0.00155391
-0.00150531
-0.00154635
-0.00575587
-0.005238
-0.00462648
-0.00398801
-0.00337739
-0.00283495
-0.00238618
-0.00204462
-0.00180576
-0.00166353
-0.00159265
-0.00160606
-0.00557278
-0.00511494
-0.00456636
-0.00398545
-0.00342178
-0.00291306
-0.00248412
-0.00214916
-0.00190699
-0.0017532
-0.00166794
-0.00166013
-0.00542928
-0.00501747
-0.0045178
-0.00398213
-0.00345566
-0.00297389
-0.00256119
-0.00223207
-0.0019878
-0.00182568
-0.00173088
-0.00170725
-0.00531892
-0.00494199
-0.00447979
-0.00397899
-0.0034814
-0.0030206
-0.00262076
-0.00229655
-0.00205096
-0.00188293
-0.00178152
-0.00174666
-0.00523676
-0.00488568
-0.00445141
-0.00397674
-0.0035008
-0.00305558
-0.00266552
-0.00234515
-0.00209864
-0.00192652
-0.00182019
-0.00177761
-0.00517903
-0.00484634
-0.00443194
-0.00397587
-0.00351524
-0.00308069
-0.00269758
-0.00237992
-0.00213259
-0.00195775
-0.00184786
-0.00180024
-0.00514289
-0.00482233
-0.00442092
-0.00397683
-0.00352591
-0.00309726
-0.0027186
-0.00240251
-0.00215421
-0.00197775
-0.00186485
-0.00181458
-0.00512589
-0.0048119
-0.00441716
-0.00397892
-0.00353274
-0.00310552
-0.00272945
-0.00241443
-0.00216791
-0.00198744
-0.00187319
-0.00182103
-0.000665343
-0.000919012
-0.00143784
-0.00202878
-0.00284055
-0.00386709
-0.00506539
-0.00630921
-0.00738356
-0.00806388
-0.00824057
-0.007906
-0.000967209
-0.00120927
-0.00166997
-0.00222662
-0.00296372
-0.00386722
-0.00489264
-0.00593381
-0.00682645
-0.00740255
-0.00756794
-0.00731432
-0.00125213
-0.00147134
-0.00188076
-0.00239723
-0.0030662
-0.00386732
-0.0047562
-0.00564196
-0.00639527
-0.00688639
-0.00703859
-0.00684242
-0.00150752
-0.00170021
-0.00206546
-0.002542
-0.00315085
-0.00386718
-0.00464725
-0.00541244
-0.00605836
-0.00648269
-0.00662249
-0.00646761
-0.0017203
-0.00189274
-0.00222271
-0.00266251
-0.00321958
-0.00386644
-0.00456026
-0.00523205
-0.0057956
-0.00616807
-0.00629684
-0.00617167
-0.00189386
-0.0020499
-0.00235325
-0.00276035
-0.00327444
-0.00386489
-0.00449068
-0.00509037
-0.0055909
-0.00592333
-0.00604286
-0.00593933
-0.00203034
-0.0021743
-0.00245821
-0.00283884
-0.00331719
-0.00386252
-0.00443521
-0.00497959
-0.00543214
-0.00573389
-0.00584598
-0.0057585
-0.00213603
-0.00226963
-0.00254116
-0.00289907
-0.00334936
-0.00385956
-0.00439152
-0.00489404
-0.00531058
-0.00558919
-0.00569557
-0.00562008
-0.00221538
-0.00234534
-0.0025982
-0.00294296
-0.00337228
-0.00385613
-0.00435782
-0.00482959
-0.00521984
-0.00548151
-0.00558384
-0.00551721
-0.00227183
-0.00239641
-0.00263826
-0.00297272
-0.00338707
-0.00385228
-0.00433268
-0.00478304
-0.00515518
-0.00540515
-0.00550495
-0.00544474
-0.00230646
-0.00242721
-0.00266238
-0.00298988
-0.00339453
-0.00384784
-0.00431476
-0.00475173
-0.00511286
-0.00535606
-0.00545442
-0.00539872
-0.00232201
-0.00244085
-0.00267279
-0.00299665
-0.00339629
-0.0038434
-0.00430328
-0.00473311
-0.00508787
-0.00532984
-0.00542851
-0.00537597
-0.00716639
-0.00617748
-0.00509616
-0.00404222
-0.00310774
-0.00233603
-0.00175601
-0.00136904
-0.00115034
-0.00111041
-0.00125952
-0.00154631
-0.00671628
-0.00589222
-0.00496904
-0.00405183
-0.00321517
-0.00251619
-0.001976
-0.00160285
-0.00137705
-0.00129326
-0.00130943
-0.00143157
-0.00635121
-0.00565667
-0.00486158
-0.00405637
-0.00330943
-0.00266786
-0.00216144
-0.00179926
-0.00156819
-0.00146085
-0.00144703
-0.00155452
-0.00605723
-0.00546366
-0.00477092
-0.00405674
-0.0033828
-0.002793
-0.00231436
-0.00196076
-0.00172359
-0.00159561
-0.00154684
-0.0015894
-0.00582238
-0.00530698
-0.00469511
-0.00405405
-0.00343936
-0.00289193
-0.00243791
-0.00209202
-0.00185018
-0.00170653
-0.00163516
-0.0016497
-0.00563622
-0.00518108
-0.00463264
-0.00404973
-0.00348263
-0.00296964
-0.00253625
-0.00219744
-0.00195248
-0.00179719
-0.00171126
-0.0017041
-0.0054903
-0.00508135
-0.00458219
-0.004045
-0.00351563
-0.00303016
-0.00261357
-0.002281
-0.00203412
-0.00187044
-0.00177484
-0.00175153
-0.00537809
-0.00500411
-0.00454268
-0.00404075
-0.00354068
-0.00307663
-0.00267332
-0.00234596
-0.0020979
-0.00192828
-0.00182597
-0.00179125
-0.00529455
-0.00494648
-0.00451316
-0.00403765
-0.00355955
-0.00311144
-0.0027182
-0.00239491
-0.00214605
-0.00197231
-0.00186501
-0.00182232
-0.00523585
-0.00490619
-0.00449289
-0.00403616
-0.00357363
-0.00313643
-0.00275036
-0.00242994
-0.00218033
-0.00200387
-0.00189293
-0.00184509
-0.00519908
-0.00488158
-0.00448134
-0.00403673
-0.00358406
-0.00315294
-0.00277145
-0.00245269
-0.00220217
-0.00202412
-0.00191002
-0.00185953
-0.00518175
-0.00487085
-0.00447732
-0.00403864
-0.00359079
-0.00316119
-0.00278233
-0.00246468
-0.0022159
-0.00203387
-0.00191847
-0.00186601
-0.000681024
-0.000932891
-0.00145613
-0.00205059
-0.00286336
-0.00388639
-0.00507614
-0.00630695
-0.00736479
-0.00802769
-0.00819029
-0.00784644
-0.000981847
-0.00122356
-0.00168638
-0.00224478
-0.00298181
-0.00388163
-0.00489968
-0.00592986
-0.00680857
-0.00737002
-0.00752299
-0.00726113
-0.00126593
-0.00148515
-0.00189553
-0.00241228
-0.00308044
-0.003878
-0.0047603
-0.00563648
-0.00637781
-0.00685645
-0.00699804
-0.00679431
-0.00152089
-0.00171335
-0.00207883
-0.00255454
-0.00316213
-0.00387486
-0.00464903
-0.00540564
-0.00604117
-0.00645476
-0.00658535
-0.00642356
-0.00173332
-0.00190543
-0.00223511
-0.00267271
-0.00322854
-0.00387187
-0.00456017
-0.00522425
-0.00577861
-0.00614166
-0.00626209
-0.00613077
-0.0019067
-0.00206233
-0.00236521
-0.0027682
-0.00328151
-0.00386854
-0.00448913
-0.00508182
-0.00557409
-0.00589803
-0.00600989
-0.00590087
-0.00204283
-0.00218663
-0.00246811
-0.00284626
-0.0033229
-0.00386486
-0.00443252
-0.00497044
-0.00541546
-0.00570945
-0.0058145
-0.00572197
-0.00214818
-0.00228252
-0.00254901
-0.0029059
-0.00335411
-0.0038609
-0.004388
-0.00488444
-0.00529398
-0.00556542
-0.00566534
-0.00558505
-0.00222698
-0.00235688
-0.00260637
-0.00294938
-0.00337634
-0.00385676
-0.00435371
-0.00481966
-0.00520331
-0.00545825
-0.00555457
-0.00548331
-0.00228302
-0.00240712
-0.00264646
-0.00297885
-0.00339067
-0.00385241
-0.00432817
-0.00477288
-0.00513871
-0.00538223
-0.00547634
-0.00541163
-0.00231739
-0.00243745
-0.0026705
-0.0029958
-0.00339785
-0.00384765
-0.00431001
-0.00474144
-0.00509646
-0.00533344
-0.00542623
-0.00536612
-0.00233281
-0.00245089
-0.00268084
-0.00300247
-0.00339946
-0.00384306
-0.00429839
-0.00472274
-0.00507148
-0.00530748
-0.00540054
-0.00534363
-0.00710266
-0.00611484
-0.00503824
-0.00399161
-0.00306627
-0.00230467
-0.00173474
-0.00135655
-0.00114301
-0.0011054
-0.00124818
-0.00153069
-0.00665913
-0.00583535
-0.00491584
-0.00400484
-0.00317565
-0.00248526
-0.00195383
-0.00158809
-0.00136729
-0.00128399
-0.00130195
-0.00141926
-0.00629932
-0.0056046
-0.00481231
-0.0040122
-0.00327162
-0.00263711