/*--------------------------------*- C++ -*----------------------------------*\
| =========                 |                                                 |
| \\      /  F ield         | OpenFOAM: The Open Source CFD Toolbox           |
|  \\    /   O peration     | Version:  v1606+                                |
|   \\  /    A nd           | Web:      www.OpenFOAM.com                      |
|    \\/     M anipulation  |                                                 |
\*---------------------------------------------------------------------------*/
FoamFile
{
    version     2.0;
    format      ascii;
    class       surfaceScalarField;
    location    "2";
    object      phi;
}
// * * * * * * * * * * * * * * * * * * * * * * * * * * * * * * * * * * * * * //

dimensions      [0 3 -1 0 0 0 0];

internalField   nonuniform List<scalar> 
1460
(
5.83106e-08
-5.83106e-08
1.37874e-07
-7.9564e-08
1.9762e-07
-5.97454e-08
2.40013e-07
-4.23934e-08
2.53966e-07
-1.39532e-08
2.35734e-07
1.82325e-08
1.89377e-07
4.63568e-08
1.21317e-07
6.80595e-08
3.0656e-08
9.06615e-08
-8.87099e-08
1.19366e-07
-2.38237e-07
1.49527e-07
1.74096e-07
-4.12333e-07
-3.63276e-08
-2.1983e-08
-3.50215e-08
-8.08702e-08
-1.19539e-08
-8.2813e-08
-1.16692e-08
-4.26782e-08
-5.812e-08
3.24976e-08
-1.5084e-07
1.10953e-07
-2.81397e-07
1.76914e-07
-4.41598e-07
2.2826e-07
-6.34596e-07
2.8366e-07
-8.7058e-07
3.55349e-07
-1.14698e-06
4.25931e-07
4.71003e-07
-1.44389e-06
9.42989e-08
-1.16282e-07
1.63851e-07
-1.50423e-07
1.88294e-07
-1.07256e-07
1.67324e-07
-2.17078e-08
8.36459e-08
1.16175e-07
-5.87474e-08
2.53346e-07
-2.50781e-07
3.68948e-07
-4.93291e-07
4.7077e-07
-7.89819e-07
5.80188e-07
-1.13824e-06
7.0377e-07
-1.52539e-06
8.1308e-07
8.74972e-07
-1.92936e-06
9.29759e-08
-2.09258e-07
1.8746e-07
-2.44907e-07
2.51684e-07
-1.7148e-07
2.32628e-07
-2.65207e-09
1.4829e-07
2.00513e-07
9.05967e-09
3.92576e-07
-1.89655e-07
5.67662e-07
-4.64873e-07
7.45988e-07
-8.27008e-07
9.42323e-07
-1.2618e-06
1.13857e-06
-1.73282e-06
1.2841e-06
1.33537e-06
-2.19322e-06
1.22532e-07
-3.3179e-07
2.01011e-07
-3.23386e-07
2.00359e-07
-1.70828e-07
1.53567e-07
4.41396e-08
7.60603e-08
2.7802e-07
-4.02256e-08
5.08862e-07
-2.17401e-07
7.44838e-07
-4.80875e-07
1.00946e-06
-8.37938e-07
1.29939e-06
-1.26e-06
1.56062e-06
-1.69014e-06
1.71424e-06
1.70881e-06
-2.06358e-06
1.04048e-07
-4.35838e-07
1.35116e-07
-3.54454e-07
1.07312e-07
-1.43024e-07
4.2817e-08
1.08635e-07
-4.0372e-08
3.61209e-07
-1.47749e-07
6.16239e-07
-3.02721e-07
8.9981e-07
-5.23788e-07
1.23053e-06
-8.07751e-07
1.58335e-06
-1.12222e-06
1.87509e-06
-1.41331e-06
2.00534e-06
1.92091e-06
-1.62541e-06
5.92125e-08
-4.95051e-07
2.19063e-08
-3.17148e-07
-4.38713e-08
-7.72464e-08
-1.23446e-07
1.8821e-07
-2.10403e-07
4.48165e-07
-3.11095e-07
7.16931e-07
-4.3596e-07
1.02467e-06
-5.86174e-07
1.38074e-06
-7.48991e-07
1.74617e-06
-9.01014e-07
2.02711e-06
-1.01319e-06
2.11751e-06
1.96786e-06
-1.06014e-06
-5.87421e-09
-4.89176e-07
-1.05072e-07
-2.1795e-07
-2.11774e-07
2.9456e-08
-3.17577e-07
2.94013e-07
-4.22134e-07
5.52722e-07
-5.23253e-07
8.1805e-07
-6.11602e-07
1.11302e-06
-6.73053e-07
1.44219e-06
-6.94384e-07
1.7675e-06
-6.70384e-07
2.00311e-06
-6.05473e-07
2.0526e-06
1.87264e-06
-5.10247e-07
-6.00437e-08
-4.29133e-07
-1.90631e-07
-8.73624e-08
-3.10027e-07
1.48851e-07
-4.2583e-07
4.09817e-07
-5.49514e-07
6.76406e-07
-6.68088e-07
9.36624e-07
-7.4718e-07
1.19212e-06
-7.5431e-07
1.44932e-06
-6.76072e-07
1.68926e-06
-5.25097e-07
1.85214e-06
-3.35761e-07
1.86327e-06
1.68693e-06
-1.50057e-07
-8.17074e-08
-3.47425e-07
-1.68477e-07
-5.92541e-10
-2.15316e-07
1.9569e-07
-2.61377e-07
4.55878e-07
-3.51368e-07
7.66397e-07
-4.76156e-07
1.06141e-06
-5.79928e-07
1.29589e-06
-6.07166e-07
1.47656e-06
-5.32078e-07
1.61417e-06
-3.67255e-07
1.68731e-06
-1.55804e-07
1.65181e-06
1.48186e-06
4.92684e-08
2.58636e-08
-3.73289e-07
2.8156e-08
-2.88504e-09
1.39145e-07
8.47003e-08
2.78791e-07
3.16232e-07
3.21735e-07
7.23454e-07
2.56875e-07
1.12627e-06
1.53907e-07
1.39886e-06
8.902e-08
1.54145e-06
1.11113e-07
1.59208e-06
2.2807e-07
1.57036e-06
4.11382e-07
1.4685e-06
1.2744e-06
6.18844e-07
1.49082e-07
-5.22372e-07
3.74392e-07
-2.28195e-07
7.03355e-07
-2.44262e-07
1.08759e-06
-6.80013e-08
1.3606e-06
4.50438e-07
1.45813e-06
1.02874e-06
1.43843e-06
1.41856e-06
1.38723e-06
1.59265e-06
1.37521e-06
1.6041e-06
1.43663e-06
1.50893e-06
1.56832e-06
1.33682e-06
1.74405e-06
1.09867e-06
-6.01017e-07
1.88684e-07
-7.87729e-07
1.86711e-07
-9.48201e-07
1.60472e-07
-1.0548e-06
1.06595e-07
-1.08446e-06
2.96683e-08
-1.03198e-06
-5.24842e-08
-8.6333e-07
-1.68649e-07
-6.01479e-07
-2.61852e-07
-3.15325e-07
-2.86154e-07
-9.1203e-08
-2.24122e-07
-8.83597e-09
-8.2367e-08
-8.83596e-09
-1.7358e-06
4.8059e-07
-1.99707e-06
4.47985e-07
-2.19878e-06
3.62187e-07
-2.30893e-06
2.16746e-07
-2.29475e-06
1.54803e-08
-2.12584e-06
-2.21393e-07
-1.8276e-06
-4.66885e-07
-1.40488e-06
-6.84574e-07
-8.95558e-07
-7.95475e-07
-4.06441e-07
-7.13239e-07
-7.11369e-08
-4.17671e-07
-7.99729e-08
-2.32005e-06
8.71283e-07
-2.65875e-06
7.86683e-07
-2.90671e-06
6.10147e-07
-3.03675e-06
3.46787e-07
-3.03841e-06
1.71428e-08
-2.8999e-06
-3.59911e-07
-2.61361e-06
-7.53172e-07
-2.16779e-06
-1.13039e-06
-1.54486e-06
-1.41841e-06
-7.9463e-07
-1.46347e-06
-1.53301e-07
-1.059e-06
-2.33274e-07
-2.5918e-06
1.26986e-06
-2.88343e-06
1.07831e-06
-3.04577e-06
7.72489e-07
-3.08664e-06
3.87654e-07
-3.03109e-06
-3.84081e-08
-2.91197e-06
-4.79029e-07
-2.73254e-06
-9.32605e-07
-2.46298e-06
-1.39995e-06
-2.02683e-06
-1.85456e-06
-1.33293e-06
-2.15737e-06
-4.64328e-07
-1.9276e-06
-6.97602e-07
-2.32672e-06
1.533e-06
-2.45447e-06
1.20607e-06
-2.45903e-06
7.77048e-07
-2.38088e-06
3.09505e-07
-2.27417e-06
-1.45119e-07
-2.16306e-06
-5.90137e-07
-2.06647e-06
-1.02919e-06
-1.97786e-06
-1.48856e-06
-1.84182e-06
-1.9906e-06
-1.50295e-06
-2.49624e-06
-7.73279e-07
-2.65727e-06
-1.47088e-06
-1.72486e-06
1.63245e-06
-1.71483e-06
1.19603e-06
-1.63123e-06
6.93455e-07
-1.52167e-06
1.99938e-07
-1.41495e-06
-2.51833e-07
-1.32275e-06
-6.82335e-07
-1.24784e-06
-1.10411e-06
-1.20379e-06
-1.53261e-06
-1.20273e-06
-1.99166e-06
-1.18328e-06
-2.51569e-06
-8.29309e-07
-3.01124e-06
-2.30019e-06
-1.0366e-06
1.60891e-06
-9.64043e-07
1.12347e-06
-8.76584e-07
6.05996e-07
-7.99431e-07
1.22785e-07
-7.34806e-07
-3.16457e-07
-6.79027e-07
-7.38114e-07
-6.28803e-07
-1.15434e-06
-5.87245e-07
-1.57417e-06
-5.72811e-07
-2.00609e-06
-6.23404e-07
-2.46509e-06
-5.84175e-07
-3.05047e-06
-2.88436e-06
-4.0258e-07
1.50124e-06
-3.05357e-07
1.02625e-06
-2.37914e-07
5.38553e-07
-2.06882e-07
9.17527e-08
-1.84736e-07
-3.38604e-07
-1.59916e-07
-7.62933e-07
-1.31328e-07
-1.18292e-06
-1.07752e-07
-1.59774e-06
-9.85357e-08
-2.01531e-06
-1.28407e-07
-2.43522e-06
-2.21479e-07
-2.9574e-06
-3.10584e-06
-1.13938e-09
1.35233e-06
9.3699e-08
9.31411e-07
1.37565e-07
4.94688e-07
1.64842e-07
6.44755e-08
2.01355e-07
-3.75117e-07
2.51355e-07
-8.12933e-07
3.04305e-07
-1.23588e-06
3.41961e-07
-1.6354e-06
3.44193e-07
-2.01754e-06
2.9046e-07
-2.38149e-06
1.29283e-07
-2.79622e-06
-2.97656e-06
2.11535e-07
1.19006e-06
3.27021e-07
8.15925e-07
4.2216e-07
3.99549e-07
5.2566e-07
-3.90243e-08
6.38071e-07
-4.87529e-07
7.44073e-07
-9.18934e-07
8.30055e-07
-1.32186e-06
8.76876e-07
-1.68222e-06
8.58996e-07
-1.99966e-06
7.46522e-07
-2.26902e-06
4.95802e-07
-2.5455e-06
-2.48076e-06
8.17665e-07
9.91239e-07
9.99196e-07
6.34394e-07
1.16807e-06
2.30678e-07
1.32394e-06
-1.94896e-07
1.45904e-06
-6.22626e-07
1.57072e-06
-1.03062e-06
1.6489e-06
-1.40004e-06
1.67308e-06
-1.7064e-06
1.60128e-06
-1.92786e-06
1.37068e-06
-2.03841e-06
9.29478e-07
-2.1043e-06
-1.55128e-06
1.93473e-06
8.00556e-07
2.12102e-06
4.48101e-07
2.29275e-06
5.89485e-08
2.44046e-06
-3.426e-07
2.56068e-06
-7.42847e-07
2.65181e-06
-1.12175e-06
2.70994e-06
-1.45816e-06
2.72207e-06
-1.71854e-06
2.64836e-06
-1.85416e-06
2.37999e-06
-1.77004e-06
1.63874e-06
-1.36306e-06
8.74647e-08
7.60127e-08
-7.60127e-08
1.53281e-07
-7.72687e-08
2.14353e-07
-6.10714e-08
2.52326e-07
-3.7973e-08
2.61623e-07
-9.29704e-09
2.39652e-07
2.19714e-08
1.91587e-07
4.80648e-08
1.232e-07
6.83871e-08
3.24898e-08
9.071e-08
-8.72447e-08
1.19734e-07
-2.37766e-07
1.50522e-07
1.76577e-07
-4.14343e-07
-2.82644e-08
-4.77482e-08
-2.34148e-08
-8.21183e-08
-6.4087e-09
-7.80775e-08
-1.29614e-08
-3.14203e-08
-6.37276e-08
4.14692e-08
-1.58936e-07
1.1718e-07
-2.90081e-07
1.7921e-07
-4.49866e-07
2.28172e-07
-6.43701e-07
2.84545e-07
-8.83148e-07
3.59182e-07
-1.16529e-06
4.32664e-07
4.80488e-07
-1.4692e-06
7.83697e-08
-1.26118e-07
1.43216e-07
-1.46965e-07
1.64384e-07
-9.9245e-08
1.45694e-07
-1.27305e-08
6.38292e-08
1.23334e-07
-7.65413e-08
2.5755e-07
-2.67908e-07
3.70578e-07
-5.1172e-07
4.71984e-07
-8.11752e-07
5.84577e-07
-1.16553e-06
7.1296e-07
-1.55877e-06
8.259e-07
8.89436e-07
-1.96771e-06
8.39052e-08
-2.10023e-07
1.76996e-07
-2.40056e-07
2.41728e-07
-1.63977e-07
2.21295e-07
7.70257e-09
1.36547e-07
2.08083e-07
-2.55442e-09
3.96651e-07
-2.0264e-07
5.70663e-07
-4.81898e-07
7.51241e-07
-8.49594e-07
9.52273e-07
-1.28928e-06
1.15265e-06
-1.76267e-06
1.29929e-06
1.34819e-06
-2.22143e-06
1.17648e-07
-3.27671e-07
1.92729e-07
-3.15137e-07
1.91469e-07
-1.62717e-07
1.48122e-07
5.10492e-08
7.34515e-08
2.82754e-07
-4.20869e-08
5.1219e-07
-2.21351e-07
7.49927e-07
-4.89562e-07
1.01945e-06
-8.51827e-07
1.31454e-06
-1.27664e-06
1.57746e-06
-1.70524e-06
1.72789e-06
1.71544e-06
-2.07249e-06
1.01609e-07
-4.29279e-07
1.33367e-07
-3.46895e-07
1.07642e-07
-1.36993e-07
4.63858e-08
1.12306e-07
-3.37822e-08
3.62922e-07
-1.40214e-07
6.18621e-07
-2.96762e-07
9.06475e-07
-5.21088e-07
1.24378e-06
-8.08134e-07
1.60158e-06
-1.12337e-06
1.8927e-06
-1.41169e-06
2.01621e-06
1.92174e-06
-1.61799e-06
6.00711e-08
-4.8935e-07
2.56661e-08
-3.1249e-07
-3.64821e-08
-7.48445e-08
-1.12094e-07
1.87918e-07
-1.95849e-07
4.46677e-07
-2.95023e-07
7.17795e-07
-4.19994e-07
1.03145e-06
-5.71161e-07
1.39495e-06
-7.3491e-07
1.76533e-06
-8.8707e-07
2.04486e-06
-9.98089e-07
2.12723e-06
1.96689e-06
-1.04324e-06
-2.96075e-09
-4.8639e-07
-9.85524e-08
-2.16898e-07
-2.01364e-07
2.79669e-08
-3.02781e-07
2.89335e-07
-4.03038e-07
5.46934e-07
-5.00459e-07
8.15216e-07
-5.8607e-07
1.11706e-06
-6.45819e-07
1.4547e-06
-6.66551e-07
1.78606e-06
-6.43213e-07
2.02152e-06
-5.80161e-07
2.06418e-06
1.87478e-06
-4.88053e-07
-5.68814e-08
-4.29508e-07
-1.85155e-07
-8.86252e-08
-3.01817e-07
1.44629e-07
-4.13807e-07
4.01325e-07
-5.32443e-07
6.6557e-07
-6.44919e-07
9.27692e-07
-7.17665e-07
1.1898e-06
-7.19392e-07
1.45642e-06
-6.37951e-07
1.70462e-06
-4.87049e-07
1.87062e-06
-3.01316e-07
1.87845e-06
1.69554e-06
-1.22075e-07
-8.02387e-08
-3.4927e-07
-1.67072e-07
-1.79213e-09
-2.12919e-07
1.90477e-07
-2.5683e-07
4.45237e-07
-3.43139e-07
7.51879e-07
-4.62567e-07
1.04712e-06
-5.59485e-07
1.28672e-06
-5.79418e-07
1.47636e-06
-4.98314e-07
1.62352e-06
-3.30751e-07
1.70306e-06
-1.21012e-07
1.66871e-06
1.49598e-06
7.85418e-08
2.60912e-08
-3.75361e-07
2.574e-08
-1.44091e-09
1.36024e-07
8.01929e-08
2.76125e-07
3.05136e-07
3.20483e-07
7.0752e-07
2.5747e-07
1.11013e-06
1.57581e-07
1.38661e-06
9.73393e-08
1.5366e-06
1.24701e-07
1.59616e-06
2.46096e-07
1.58166e-06
4.30946e-07
1.48386e-06
1.29028e-06
6.36652e-07
1.40152e-07
-5.15513e-07
3.67014e-07
-2.28303e-07
6.9668e-07
-2.49473e-07
1.08015e-06
-7.83317e-08
1.35388e-06
4.33789e-07
1.45145e-06
1.01256e-06
1.43168e-06
1.40638e-06
1.38153e-06
1.58675e-06
1.37227e-06
1.60541e-06
1.4372e-06
1.51674e-06
1.57215e-06
1.34891e-06
1.74918e-06
1.11324e-06
-6.07597e-07
1.93254e-07
-8.00377e-07
1.9278e-07
-9.6691e-07
1.66533e-07
-1.07798e-06
1.11067e-07
-1.10947e-06
3.14933e-08
-1.056e-06
-5.34673e-08
-8.82499e-07
-1.73504e-07
-6.14084e-07
-2.68415e-07
-3.21006e-07
-2.93078e-07
-9.14908e-08
-2.29515e-07
-7.91496e-09
-8.35758e-08
-7.91496e-09
-1.76806e-06
4.9211e-07
-2.03453e-06
4.59254e-07
-2.2384e-06
3.70403e-07
-2.34754e-06
2.2021e-07
-2.32993e-06
1.38797e-08
-2.15608e-06
-2.27318e-07
-1.8529e-06
-4.76687e-07
-1.42416e-06
-6.97148e-07
-9.07763e-07
-8.09479e-07
-4.11562e-07
-7.25717e-07
-7.12621e-08
-4.23875e-07
-7.9177e-08
-2.3602e-06
8.84601e-07
-2.69665e-06
7.95698e-07
-2.93942e-06
6.1317e-07
-3.06342e-06
3.4421e-07
-3.05996e-06
1.04242e-08
-2.91799e-06
-3.69285e-07
-2.63067e-06
-7.64006e-07
-2.18503e-06
-1.14279e-06
-1.56157e-06
-1.43294e-06
-8.07341e-07
-1.47995e-06
-1.57847e-07
-1.07337e-06
-2.37024e-07
-2.61378e-06
1.27695e-06
-2.89588e-06
1.07781e-06
-3.04814e-06
7.65425e-07
-3.08101e-06
3.77081e-07
-3.02106e-06
-4.9521e-08
-2.90122e-06
-4.89132e-07
-2.72399e-06
-9.41232e-07
-2.45931e-06
-1.40747e-06
-2.02968e-06
-1.86258e-06
-1.34096e-06
-2.16866e-06
-4.71232e-07
-1.9431e-06
-7.08256e-07
-2.32611e-06
1.53057e-06
-2.4438e-06
1.1955e-06
-2.44071e-06
7.62335e-07
-2.35863e-06
2.94996e-07
-2.25205e-06
-1.56098e-07
-2.14161e-06
-5.99577e-07
-2.04667e-06
-1.03617e-06
-1.96091e-06
-1.49322e-06
-1.83012e-06
-1.99337e-06
-1.49951e-06
-2.49927e-06
-7.76601e-07
-2.66601e-06
-1.48486e-06
-1.71096e-06
1.62353e-06
-1.69666e-06
1.1812e-06
-1.61269e-06
6.78371e-07
-1.506e-06
1.88302e-07
-1.40162e-06
-2.60474e-07
-1.31166e-06
-6.89534e-07
-1.23755e-06
-1.11028e-06
-1.19306e-06
-1.53771e-06
-1.19127e-06
-1.99516e-06
-1.17365e-06
-2.51689e-06
-8.25897e-07
-3.01376e-06
-2.31075e-06
-1.01907e-06
1.59936e-06
-9.48514e-07
1.11064e-06
-8.65281e-07
5.95137e-07
-7.92628e-07
1.1565e-07
-7.30906e-07
-3.22197e-07
-6.77064e-07
-7.43375e-07
-6.27745e-07
-1.1596e-06
-5.86009e-07
-1.57945e-06
-5.6991e-07
-2.01126e-06
-6.17689e-07
-2.46911e-06
-5.7904e-07
-3.05241e-06
-2.88979e-06
-3.85075e-07
1.49639e-06
-2.93776e-07
1.01934e-06
-2.32356e-07
5.33718e-07
-2.05252e-07
8.85453e-08
-1.85489e-07
-3.4196e-07
-1.62123e-07
-7.66742e-07
-1.34082e-07
-1.18764e-06
-1.10327e-07
-1.60321e-06
-1.0038e-07
-2.02121e-06
-1.28456e-07
-2.44104e-06
-2.19242e-07
-2.96163e-06
-3.10904e-06
1.8706e-08
1.35561e-06
1.05154e-07
9.32894e-07
1.42568e-07
4.96304e-07
1.65942e-07
6.51705e-08
1.99842e-07
-3.75859e-07
2.48473e-07
-8.15373e-07
3.00847e-07
-1.24001e-06
3.38568e-07
-1.64093e-06
3.41319e-07
-2.02396e-06
2.88576e-07
-2.38829e-06
1.29313e-07
-2.80236e-06
-2.97972e-06
2.32998e-07
1.20115e-06
3.40891e-07
8.25002e-07
4.30559e-07
4.06636e-07
5.30368e-07
-3.46382e-08
6.40101e-07
-4.85592e-07
7.44493e-07
-9.19766e-07
8.29502e-07
-1.32502e-06
8.75735e-07
-1.68716e-06
8.57446e-07
-2.00567e-06
7.44953e-07
-2.2758e-06
4.94942e-07
-2.55235e-06
-2.48478e-06
8.3159e-07
1.00621e-06
1.00886e-06
6.4773e-07
1.17446e-06
2.41037e-07
1.32779e-06
-1.87972e-07
1.46143e-06
-6.19226e-07
1.5723e-06
-1.03064e-06
1.65019e-06
-1.40291e-06
1.67427e-06
-1.71124e-06
1.60215e-06
-1.93356e-06
1.37097e-06
-2.04462e-06
9.29589e-07
-2.11097e-06
-1.55519e-06
1.93968e-06
8.15718e-07
2.12457e-06
4.62835e-07
2.29477e-06
7.08391e-08
2.44111e-06
-3.34314e-07
2.56059e-06
-7.38703e-07
2.65169e-06
-1.12174e-06
2.71041e-06
-1.46162e-06
2.72335e-06
-1.72419e-06
2.65018e-06
-1.86038e-06
2.38154e-06
-1.77598e-06
1.63913e-06
-1.36855e-06
8.39326e-08
3.9414e-06
-2.05008e-07
3.72696e-06
-1.37591e-08
3.30726e-06
1.75435e-07
2.8817e-06
3.57567e-07
2.72208e-06
6.10051e-07
2.78772e-06
9.63107e-07
2.89205e-06
1.31423e-06
2.95248e-06
1.53222e-06
2.98375e-06
1.57282e-06
3.02743e-06
1.46526e-06
3.10799e-06
1.25626e-06
9.82861e-07
3.22379e-06
5.41007e-06
-3.20695e-07
5.42698e-06
-3.06726e-08
5.31207e-06
2.90348e-07
5.04052e-06
6.29115e-07
4.73278e-06
9.17785e-07
4.53484e-06
1.16105e-06
4.48739e-06
1.36168e-06
4.53359e-06
1.48602e-06
4.61065e-06
1.49576e-06
4.69422e-06
1.3817e-06
4.78467e-06
1.16581e-06
8.8648e-07
4.88105e-06
6.39107e-06
-3.87063e-07
6.41121e-06
-5.08082e-08
6.42867e-06
2.72887e-07
6.43337e-06
6.24419e-07
6.39233e-06
9.58823e-07
6.32175e-06
1.23163e-06
6.27113e-06
1.41229e-06
6.27347e-06
1.48369e-06
6.32874e-06
1.44048e-06
6.41937e-06
1.29107e-06
6.5254e-06
1.05978e-06
7.88226e-07
6.62365e-06
7.27501e-06
7.27411e-06
7.2832e-06
7.33213e-06
7.41438e-06
7.51417e-06
7.61964e-06
7.73006e-06
7.85068e-06
7.9825e-06
8.11722e-06
8.23413e-06
3.35709e-06
6.67261e-07
3.49214e-06
3.13045e-07
3.62151e-06
-7.04226e-08
3.72865e-06
-4.49733e-07
3.80753e-06
-8.21732e-07
3.85685e-06
-1.17107e-06
3.88109e-06
-1.4824e-06
3.88058e-06
-1.71802e-06
3.84094e-06
-1.81452e-06
3.75603e-06
-1.68513e-06
3.71444e-06
-1.32147e-06
-4.64915e-07
4.26682e-06
4.96891e-06
5.79396e-07
5.04868e-06
2.33277e-07
5.11302e-06
-1.34763e-07
5.15596e-06
-4.92677e-07
5.16653e-06
-8.32294e-07
5.14944e-06
-1.15398e-06
5.11884e-06
-1.45181e-06
5.08761e-06
-1.68679e-06
5.05838e-06
-1.78528e-06
5.04112e-06
-1.66787e-06
5.04319e-06
-1.32354e-06
-7.27041e-07
5.30532e-06
6.67353e-06
5.29512e-07
6.68785e-06
2.18959e-07
6.67005e-06
-1.16962e-07
6.62083e-06
-4.43459e-07
6.54158e-06
-7.53038e-07
6.44547e-06
-1.05787e-06
6.35486e-06
-1.3612e-06
6.28731e-06
-1.61924e-06
6.24358e-06
-1.74154e-06
6.22067e-06
-1.64497e-06
6.2236e-06
-1.32647e-06
-8.404e-07
6.33696e-06
8.2417e-06
8.18791e-06
8.08685e-06
7.95357e-06
7.79932e-06
7.64442e-06
7.51547e-06
7.42404e-06
7.35719e-06
7.29988e-06
7.25668e-06
7.26482e-06
3.95162e-06
-2.00316e-07
3.7373e-06
-1.39785e-08
3.31461e-06
1.73217e-07
2.88472e-06
3.51558e-07
2.71794e-06
6.00573e-07
2.77904e-06
9.5146e-07
2.88179e-06
1.30363e-06
2.94243e-06
1.52612e-06
2.97519e-06
1.57265e-06
3.02134e-06
1.47059e-06
3.10442e-06
1.26583e-06
9.95575e-07
3.22208e-06
5.42578e-06
-3.20782e-07
5.44006e-06
-2.82553e-08
5.32184e-06
2.91433e-07
5.04806e-06
6.25343e-07
4.73697e-06
9.11659e-07
4.53399e-06
1.15444e-06
4.48187e-06
1.35575e-06
4.52563e-06
1.48235e-06
4.60248e-06
1.4958e-06
4.68706e-06
1.38601e-06
4.77871e-06
1.17419e-06
8.98503e-07
4.87578e-06
6.40796e-06
-3.91779e-07
6.42476e-06
-4.5052e-08
6.43605e-06
2.80134e-07
6.43618e-06
6.25221e-07
6.39342e-06
9.54418e-07
6.32206e-06
1.22579e-06
6.27e-06
1.40782e-06
6.27044e-06
1.48191e-06
6.32423e-06
1.442e-06
6.41406e-06
1.29619e-06
6.51961e-06
1.06863e-06
8.01034e-07
6.61708e-06
7.28537e-06
7.28433e-06
7.28966e-06
7.33344e-06
7.41279e-06
7.51165e-06
7.61737e-06
7.72843e-06
7.84975e-06
7.98242e-06
8.11796e-06
8.23402e-06
3.3558e-06
6.82e-07
3.49064e-06
3.27994e-07
3.61911e-06
-5.76326e-08
3.72567e-06
-4.40871e-07
3.80459e-06
-8.17625e-07
3.85471e-06
-1.17186e-06
3.88039e-06
-1.4873e-06
3.8814e-06
-1.7252e-06
3.84275e-06
-1.82174e-06
3.75744e-06
-1.69066e-06
3.7147e-06
-1.32582e-06
-4.68204e-07
4.96342e-06
5.94358e-07
5.04253e-06
2.48886e-07
5.10646e-06
-1.21561e-07
5.14958e-06
-4.83991e-07
5.1611e-06
-8.29149e-07
5.14577e-06
-1.15653e-06
5.1175e-06
-1.45902e-06
5.08846e-06
-1.69616e-06
5.06046e-06
-1.79373e-06
5.04311e-06
-1.67332e-06
5.04344e-06
-1.32615e-06
-7.28374e-07
6.66592e-06
5.45516e-07
6.67975e-06
2.35053e-07
6.66193e-06
-1.03739e-07
6.61326e-06
-4.35315e-07
6.53537e-06
-7.51265e-07
6.44157e-06
-1.06273e-06
6.35385e-06
-1.3713e-06
6.28877e-06
-1.63109e-06
6.24608e-06
-1.75104e-06
6.2226e-06
-1.64984e-06
6.22382e-06
-1.32736e-06
-8.39054e-07
8.23918e-06
8.18386e-06
8.08177e-06
7.94813e-06
7.79481e-06
7.64223e-06
7.51622e-06
7.42676e-06
7.36e-06
7.30134e-06
7.25623e-06
)
;

boundaryField
{
    rotor
    {
        type            calculated;
        value           nonuniform List<scalar> 
96
(
7.30243e-24
-1.78878e-23
2.71289e-23
1.77327e-23
-1.50444e-23
1.32892e-22
1.09252e-22
-4.13461e-23
3.30226e-23
-1.031e-22
-1.42172e-22
3.58015e-24
1.23431e-23
-2.30706e-23
4.16046e-23
-5.95441e-23
-1.25576e-22
-1.53287e-23
1.76681e-23
-2.11189e-23
-2.63535e-23
-3.47804e-23
2.13904e-23
-1.79007e-23
-5.94524e-25
2.50351e-23
9.04757e-25
4.12298e-24
5.45034e-23
2.01238e-23
5.02512e-23
-6.38868e-23
9.29544e-23
-3.61633e-23
-1.15301e-22
8.19297e-23
-1.45015e-23
-1.41008e-23
-1.33292e-22
-1.26649e-22
-7.22491e-23
-9.49967e-24
2.53327e-24
2.85119e-23
2.39236e-23
6.29432e-23
-2.20495e-23
-2.08088e-24
-8.47033e-22
0
-8.47033e-22
-8.47033e-22
-8.47033e-22
-8.47033e-22
-8.47033e-22
0
-8.47033e-22
-8.47033e-22
0
0
-4.23516e-22
8.47033e-22
0
0
-8.47033e-22
0
0
0
8.47033e-22
-1.69407e-21
0
0
4.23516e-22
-8.47033e-22
0
0
8.47033e-22
0
0
0
-8.47033e-22
8.47033e-22
0
0
0
-8.47033e-22
0
-8.47033e-22
0
0
0
0
1.69407e-21
0
0
0
)
;
    }
    stator
    {
        type            calculated;
        value           nonuniform 0();
    }
    AMI1
    {
        type            cyclicAMI;
        value           nonuniform List<scalar> 
48
(
-4.02525e-07
-4.99037e-08
2.63797e-07
5.75486e-07
8.76575e-07
1.13184e-06
1.30682e-06
1.37326e-06
1.31987e-06
1.15924e-06
9.25069e-07
6.71316e-07
5.21935e-07
2.72754e-07
-1.59019e-08
-3.10177e-07
-5.98791e-07
-9.0297e-07
-1.23226e-06
-1.52781e-06
-1.67469e-06
-1.58766e-06
-1.28328e-06
-8.48537e-07
-4.12336e-07
-4.4004e-08
2.74803e-07
5.81438e-07
8.75064e-07
1.12694e-06
1.30209e-06
1.37086e-06
1.32068e-06
1.16352e-06
9.33089e-07
6.8497e-07
5.40365e-07
2.90371e-07
-1.65486e-09
-3.01675e-07
-5.97941e-07
-9.10149e-07
-1.24529e-06
-1.54163e-06
-1.68428e-06
-1.59118e-06
-1.28225e-06
-8.45348e-07
)
;
    }
    AMI2
    {
        type            cyclicAMI;
        value           nonuniform 0();
    }
    front
    {
        type            empty;
        value           nonuniform 0();
    }
    back
    {
        type            empty;
        value           nonuniform 0();
    }
    procBoundary3to2
    {
        type            processor;
        value           nonuniform List<scalar> 8(-4.25876e-06 -5.29438e-06 -6.32471e-06 -7.25955e-06 4.26683e-06 5.30361e-06 6.3345e-06 7.26252e-06);
    }
}


// ************************************************************************* //
