/*--------------------------------*- C++ -*----------------------------------*\
| =========                 |                                                 |
| \\      /  F ield         | OpenFOAM: The Open Source CFD Toolbox           |
|  \\    /   O peration     | Version:  v1606+                                |
|   \\  /    A nd           | Web:      www.OpenFOAM.com                      |
|    \\/     M anipulation  |                                                 |
\*---------------------------------------------------------------------------*/
FoamFile
{
    version     2.0;
    format      ascii;
    class       volVectorField;
    location    "1.04";
    object      U.particles;
}
// * * * * * * * * * * * * * * * * * * * * * * * * * * * * * * * * * * * * * //

dimensions      [0 1 -1 0 0 0 0];

internalField   nonuniform List<vector> 
6000
(
(0.00849812 -0.351816 0)
(0.0303187 -0.400678 0)
(0.0437357 -0.411688 0)
(0.035618 -0.433393 0)
(0.0182144 -0.440195 0)
(0.00174704 -0.44426 0)
(0.00119211 -0.450767 0)
(-0.007773 -0.449419 0)
(-0.0358423 -0.463461 0)
(-0.0648723 -0.486572 0)
(-0.0851534 -0.488356 0)
(-0.0976924 -0.482535 0)
(-0.101259 -0.471582 0)
(-0.100362 -0.461133 0)
(-0.0949571 -0.452112 0)
(-0.085291 -0.448532 0)
(-0.0730817 -0.448617 0)
(-0.0588264 -0.45008 0)
(-0.0454853 -0.46045 0)
(-0.0382359 -0.488353 0)
(-0.040579 -0.500482 0)
(-0.0517132 -0.486666 0)
(-0.0604994 -0.466811 0)
(-0.067103 -0.463559 0)
(-0.0693049 -0.452683 0)
(-0.0718435 -0.451328 0)
(-0.0717341 -0.447858 0)
(-0.0709406 -0.420061 0)
(-0.0534827 -0.389001 0)
(-0.0188252 -0.309076 0)
(0.0225879 -0.00468124 0)
(0.0356418 0.0051187 0)
(0.0683802 0.00710261 0)
(0.0953936 0.0197562 0)
(0.094547 0.0380949 0)
(0.0677074 0.0498704 0)
(0.00268228 0.0671058 0)
(-0.0538865 0.0330564 0)
(-0.0796919 0.0126042 0)
(-0.0970856 0.0241914 0)
(-0.10634 0.023789 0)
(-0.111012 0.0104758 0)
(-0.111204 -0.00496238 0)
(-0.108603 -0.0198169 0)
(-0.0981467 -0.0319559 0)
(-0.0855801 -0.0350178 0)
(-0.0727912 -0.031158 0)
(-0.0607087 -0.0239125 0)
(-0.050996 -0.0079526 0)
(-0.0444684 0.0179198 0)
(-0.0423764 0.0251002 0)
(-0.0447363 0.0349042 0)
(-0.0657272 0.0579511 0)
(-0.105412 0.0645223 0)
(-0.129349 0.054845 0)
(-0.130903 0.0347954 0)
(-0.106541 0.0196012 0)
(-0.0711662 0.0117869 0)
(-0.038147 0.023681 0)
(-0.0237448 0.00735842 0)
(0.024625 -0.0335848 0)
(0.0212621 -0.0500539 0)
(0.0540735 -0.0567688 0)
(0.0800014 -0.0372307 0)
(0.0903005 -0.00600395 0)
(0.0681738 0.0127259 0)
(-0.00178625 0.00139125 0)
(-0.0694965 -0.0586915 0)
(-0.0938992 -0.129701 0)
(-0.0979171 -0.162707 0)
(-0.0988194 -0.172177 0)
(-0.102081 -0.172982 0)
(-0.104809 -0.169514 0)
(-0.104966 -0.169066 0)
(-0.0954441 -0.174056 0)
(-0.0827481 -0.174783 0)
(-0.0687895 -0.17259 0)
(-0.0604091 -0.171871 0)
(-0.0582019 -0.170472 0)
(-0.0576676 -0.170637 0)
(-0.0519191 -0.164566 0)
(-0.0521348 -0.148955 0)
(-0.0675243 -0.0944871 0)
(-0.0982158 -0.0513232 0)
(-0.108514 -0.049911 0)
(-0.100929 -0.0646345 0)
(-0.0710716 -0.0842464 0)
(-0.041924 -0.0842578 0)
(-0.0165864 -0.0682936 0)
(-0.0362117 -0.0622971 0)
(0.0173295 -0.0284677 0)
(0.010908 -0.0218748 0)
(0.0125933 -0.00783604 0)
(0.0345825 0.00979366 0)
(0.067048 0.0292621 0)
(0.0539786 0.0378618 0)
(-0.019684 0.0147263 0)
(-0.0756839 -0.0401921 0)
(-0.0870962 -0.0672817 0)
(-0.089581 -0.0720377 0)
(-0.0954908 -0.0753738 0)
(-0.10568 -0.0779456 0)
(-0.115917 -0.0885929 0)
(-0.11406 -0.106551 0)
(-0.10297 -0.12337 0)
(-0.0852695 -0.135261 0)
(-0.0613178 -0.135938 0)
(-0.0439603 -0.129209 0)
(-0.0422149 -0.120983 0)
(-0.0499278 -0.111989 0)
(-0.0497205 -0.110132 0)
(-0.0444306 -0.0917712 0)
(-0.0405495 -0.056304 0)
(-0.0631471 -0.024511 0)
(-0.068881 -0.0104702 0)
(-0.0466624 -0.0148249 0)
(-0.00999783 -0.0215919 0)
(-0.00567061 -0.0154316 0)
(-0.0140801 -0.0210291 0)
(-0.0152894 -0.0285854 0)
(0.00665473 -0.00514444 0)
(0.00679637 0.00308108 0)
(0.0066877 0.00913253 0)
(-0.0181945 0.0506601 0)
(-0.0121313 0.0911963 0)
(-0.0121181 0.0858399 0)
(-0.0695242 0.0553875 0)
(-0.100618 -0.00487502 0)
(-0.103101 -0.0336245 0)
(-0.105988 -0.0424263 0)
(-0.108674 -0.0446201 0)
(-0.117137 -0.0435695 0)
(-0.126198 -0.0518171 0)
(-0.128732 -0.0748502 0)
(-0.119259 -0.0979202 0)
(-0.097689 -0.114196 0)
(-0.0671838 -0.117443 0)
(-0.0353751 -0.104182 0)
(-0.0230617 -0.0861037 0)
(-0.0195674 -0.0900451 0)
(-0.0172762 -0.100178 0)
(-0.011447 -0.0874358 0)
(-0.00167577 -0.0468037 0)
(-0.0028205 0.00639971 0)
(-0.0130436 0.0121265 0)
(0.00291406 0.00891707 0)
(0.0255079 0.00354108 0)
(-0.000307278 0.000663199 0)
(-0.00195701 -0.00105179 0)
(-0.00379966 -0.00673225 0)
(0.000289525 0.00666215 0)
(-0.00477519 0.0194922 0)
(-0.00789752 0.0321044 0)
(-0.0116089 0.0514506 0)
(-0.0301792 0.119711 0)
(-0.0764793 0.158227 0)
(-0.100402 0.122948 0)
(-0.117897 0.0706002 0)
(-0.119614 0.0380578 0)
(-0.124656 0.0286947 0)
(-0.130199 0.0265366 0)
(-0.148261 0.0228375 0)
(-0.159774 0.00404535 0)
(-0.151948 -0.0256942 0)
(-0.131441 -0.0538385 0)
(-0.101757 -0.0751639 0)
(-0.0665031 -0.0878115 0)
(-0.0252777 -0.0836406 0)
(0.0188408 -0.061431 0)
(0.0400694 -0.0228227 0)
(0.0376032 -0.0166106 0)
(0.0279126 -0.0166362 0)
(0.0275188 0.00109406 0)
(0.0250934 0.0389146 0)
(0.015027 0.0420309 0)
(0.0206462 0.0225376 0)
(0.0119501 0.0159016 0)
(0.00941663 0.0141477 0)
(0.00676396 0.0113465 0)
(0.000758289 0.00364502 0)
(-0.00649634 0.0148831 0)
(-0.0193912 0.0305969 0)
(-0.0236298 0.0449534 0)
(-0.0216078 0.0636734 0)
(-0.00218978 0.104106 0)
(-0.0561129 0.21416 0)
(-0.109696 0.242474 0)
(-0.109956 0.203067 0)
(-0.107538 0.150322 0)
(-0.115194 0.118943 0)
(-0.126074 0.110214 0)
(-0.143456 0.104132 0)
(-0.1484 0.0748739 0)
(-0.136921 0.038948 0)
(-0.115886 0.000221648 0)
(-0.0833917 -0.0366585 0)
(-0.0436423 -0.0529949 0)
(-0.0089899 -0.0448319 0)
(0.0180575 -0.0200219 0)
(0.0530432 0.0137785 0)
(0.0717779 0.0494664 0)
(0.0620676 0.0635866 0)
(0.0517188 0.0872428 0)
(0.0301777 0.0952732 0)
(0.00722995 0.0551378 0)
(0.0140014 0.0272885 0)
(0.0179846 0.0204518 0)
(0.0202388 0.0216607 0)
(0.0163602 0.01999 0)
(0.00514403 0.0106497 0)
(-0.0157246 0.0214434 0)
(-0.0339997 0.0354697 0)
(-0.0388433 0.0495005 0)
(-0.0343531 0.0722333 0)
(-0.0181045 0.114 0)
(-0.0217563 0.200307 0)
(-0.0953439 0.345201 0)
(-0.0904788 0.333699 0)
(-0.0905037 0.270243 0)
(-0.0954607 0.230223 0)
(-0.104801 0.221159 0)
(-0.114523 0.207088 0)
(-0.117105 0.152286 0)
(-0.109792 0.0920372 0)
(-0.0897674 0.026359 0)
(-0.0525544 -0.0275313 0)
(-0.00828933 -0.047571 0)
(0.0277966 -0.0289062 0)
(0.0513425 0.0139442 0)
(0.0717516 0.0676913 0)
(0.0830192 0.126172 0)
(0.0738448 0.167945 0)
(0.0368962 0.184058 0)
(-0.0177693 0.131937 0)
(-0.0152231 0.0623038 0)
(0.00620743 0.025207 0)
(0.0193637 0.0178939 0)
(0.0268491 0.0214657 0)
(0.0254314 0.0240639 0)
(0.0110952 0.0146306 0)
(-0.0385861 0.0400419 0)
(-0.0470742 0.038848 0)
(-0.0462433 0.0411605 0)
(-0.0435343 0.0682201 0)
(-0.0414313 0.114033 0)
(-0.0480926 0.209506 0)
(-0.069157 0.365161 0)
(-0.0706567 0.386106 0)
(-0.0748934 0.33607 0)
(-0.0794905 0.310949 0)
(-0.0804898 0.306812 0)
(-0.0726387 0.283119 0)
(-0.067157 0.214113 0)
(-0.0646309 0.125136 0)
(-0.0487747 0.0362669 0)
(-0.0194656 -0.0288851 0)
(0.020212 -0.0521593 0)
(0.0563841 -0.0260937 0)
(0.0794509 0.0419729 0)
(0.0766635 0.122297 0)
(0.0779641 0.19489 0)
(0.0588538 0.254186 0)
(0.00877418 0.238946 0)
(-0.012269 0.152484 0)
(-0.019328 0.0734268 0)
(-0.000622577 0.0216708 0)
(0.017814 0.00708435 0)
(0.031077 0.0117409 0)
(0.03727 0.0266508 0)
(0.0244432 0.0219174 0)
(0.0217788 -0.259147 0)
(-0.0165055 -0.0500164 0)
(-0.0353078 0.0187165 0)
(-0.0379279 0.0526195 0)
(-0.0419501 0.0945782 0)
(-0.0485807 0.159685 0)
(-0.0285271 0.2969 0)
(-0.0353598 0.304403 0)
(-0.0469433 0.271815 0)
(-0.0690429 0.287092 0)
(-0.0681926 0.28661 0)
(-0.0536249 0.255728 0)
(-0.0278596 0.193905 0)
(-0.0151827 0.110896 0)
(-0.00880112 0.0285866 0)
(0.0127249 -0.0506127 0)
(0.0349514 -0.0648625 0)
(0.0502369 -0.026747 0)
(0.055005 0.0517833 0)
(0.0510929 0.151707 0)
(0.0490446 0.235588 0)
(0.044552 0.291737 0)
(0.0298955 0.267411 0)
(0.00983865 0.169668 0)
(-0.000547231 0.0803438 0)
(0.00284325 0.0156217 0)
(0.0149646 -0.0140664 0)
(0.0330799 -0.00917641 0)
(0.0396218 -0.00963141 0)
(0.0113982 -0.147928 0)
(0.0320113 -0.299609 0)
(0.0589059 -0.301379 0)
(0.0501464 -0.185442 0)
(0.0121107 -0.0349088 0)
(0.00372774 -0.00661633 0)
(0.037584 -0.0937071 0)
(0.037743 0.0161473 0)
(0.0321109 0.0184207 0)
(0.0135772 -0.00719668 0)
(-0.0206853 0.033649 0)
(-0.0337697 0.025295 0)
(-0.0326582 -0.0337597 0)
(-0.00959951 -0.108252 0)
(0.0204155 -0.113463 0)
(0.0369844 -0.111215 0)
(0.0411614 -0.117301 0)
(0.0415416 -0.103258 0)
(0.0385669 -0.0464484 0)
(0.0273334 0.0402449 0)
(0.0254294 0.149218 0)
(0.028237 0.235934 0)
(0.0391864 0.294268 0)
(0.051911 0.28284 0)
(0.0313624 0.187334 0)
(0.022809 0.082106 0)
(0.00760313 -0.00602639 0)
(0.00506829 -0.0533678 0)
(0.022481 -0.0664827 0)
(-0.0318671 -0.271046 0)
(-0.0162415 -0.256153 0)
(0.0275418 -0.282107 0)
(0.0560018 -0.284718 0)
(0.0785297 -0.277767 0)
(0.0809974 -0.255062 0)
(0.045423 -0.247929 0)
(0.0014664 -0.203789 0)
(0.0380883 -0.16823 0)
(0.0452528 -0.168055 0)
(0.0396612 -0.178247 0)
(0.0129673 -0.172655 0)
(-0.0123837 -0.186543 0)
(-0.0102861 -0.246131 0)
(0.0104397 -0.317099 0)
(0.0407906 -0.345465 0)
(0.0617509 -0.35494 0)
(0.0618565 -0.287611 0)
(0.0440447 -0.23692 0)
(0.0181478 -0.190144 0)
(0.0170219 -0.234309 0)
(0.0318307 -0.187351 0)
(0.03841 -0.0414723 0)
(0.0518178 0.107142 0)
(0.0675109 0.148804 0)
(0.0340866 0.0406377 0)
(0.0327408 0.0456602 0)
(0.0138281 -0.0299745 0)
(0.0131649 -0.100302 0)
(-0.0241619 -0.221861 0)
(-0.0555019 -0.262574 0)
(-0.021484 -0.236844 0)
(0.0124363 -0.25209 0)
(0.0241182 -0.254642 0)
(0.0271829 -0.260796 0)
(0.00792922 -0.246661 0)
(-0.0279491 -0.217571 0)
(-0.0362779 -0.182741 0)
(-0.0122516 -0.168088 0)
(0.0348396 -0.162713 0)
(0.0288063 -0.152661 0)
(0.0112186 -0.14672 0)
(-0.00517271 -0.160321 0)
(0.0119334 -0.230263 0)
(0.0327946 -0.299758 0)
(0.0597313 -0.327025 0)
(0.0755861 -0.345298 0)
(0.0597468 -0.355004 0)
(0.0031069 -0.355478 0)
(-0.0423136 -0.355443 0)
(-0.053353 -0.34044 0)
(-0.0248477 -0.336456 0)
(0.00609455 -0.322887 0)
(0.055196 -0.246407 0)
(0.0867112 -0.198197 0)
(0.0850017 -0.218407 0)
(0.0962178 -0.221528 0)
(0.0424233 -0.132459 0)
(0.00543664 -0.20551 0)
(-0.0749026 -0.288977 0)
(-0.0564989 -0.246214 0)
(-0.0204574 -0.2122 0)
(0.00333673 -0.208272 0)
(-0.00443841 -0.208219 0)
(-0.0360529 -0.21556 0)
(-0.08472 -0.193053 0)
(-0.0940784 -0.173639 0)
(-0.060046 -0.154421 0)
(-0.0246726 -0.139468 0)
(0.0119366 -0.132197 0)
(0.027417 -0.118171 0)
(0.0188452 -0.107565 0)
(0.0153554 -0.124052 0)
(0.0389919 -0.19245 0)
(0.0564335 -0.275081 0)
(0.0706256 -0.297906 0)
(0.060502 -0.307942 0)
(-0.000576761 -0.310477 0)
(-0.0930198 -0.299482 0)
(-0.119131 -0.296443 0)
(-0.113817 -0.297927 0)
(-0.0927906 -0.303771 0)
(-0.0808582 -0.304274 0)
(-0.0148912 -0.288324 0)
(0.0639612 -0.289996 0)
(0.101865 -0.26928 0)
(0.136426 -0.239827 0)
(0.109661 -0.287871 0)
(0.0492719 -0.334142 0)
(-0.0133302 -0.289236 0)
(-0.0394254 -0.232459 0)
(-0.0146981 -0.187314 0)
(-0.00251541 -0.148149 0)
(-0.0219906 -0.145455 0)
(-0.0619433 -0.162896 0)
(-0.113385 -0.1653 0)
(-0.131078 -0.158632 0)
(-0.0689078 -0.144477 0)
(-0.0202234 -0.0991103 0)
(0.0169342 -0.0761867 0)
(0.0262232 -0.0710176 0)
(0.0251559 -0.0535597 0)
(0.0296534 -0.0707981 0)
(0.0553345 -0.147215 0)
(0.0686609 -0.22874 0)
(0.0673984 -0.249246 0)
(0.0330636 -0.257423 0)
(-0.0670162 -0.254435 0)
(-0.138616 -0.251214 0)
(-0.152553 -0.264242 0)
(-0.144353 -0.281879 0)
(-0.134216 -0.282471 0)
(-0.118793 -0.259557 0)
(-0.07084 -0.224901 0)
(-0.000404825 -0.198544 0)
(0.0425124 -0.189961 0)
(0.123816 -0.179871 0)
(0.150704 -0.245515 0)
(0.12557 -0.289234 0)
(0.0707165 -0.264432 0)
(0.00103836 -0.199313 0)
(-0.00994929 -0.157564 0)
(-0.00541497 -0.104132 0)
(-0.013825 -0.110905 0)
(-0.0308771 -0.125166 0)
(-0.0649706 -0.132306 0)
(-0.12383 -0.127771 0)
(-0.0568621 -0.119883 0)
(-0.0215751 -0.0886598 0)
(0.0312256 -0.0367141 0)
(0.0316226 -0.0174146 0)
(0.0309216 -0.00528674 0)
(0.0443905 -0.0257298 0)
(0.0739816 -0.107254 0)
(0.0827447 -0.188458 0)
(0.066568 -0.202197 0)
(-0.00141983 -0.196944 0)
(-0.116463 -0.181768 0)
(-0.17253 -0.192815 0)
(-0.182052 -0.229974 0)
(-0.165769 -0.24813 0)
(-0.152525 -0.247298 0)
(-0.129052 -0.227268 0)
(-0.100344 -0.188241 0)
(-0.0536876 -0.141199 0)
(-0.00461999 -0.128319 0)
(0.109777 -0.148099 0)
(0.155569 -0.206756 0)
(0.146246 -0.222083 0)
(0.105964 -0.198651 0)
(0.0338914 -0.145374 0)
(0.00109589 -0.113578 0)
(-0.00554126 -0.0668865 0)
(-0.0219376 -0.0767036 0)
(-0.0492353 -0.0825101 0)
(-0.0823213 -0.0657291 0)
(-0.0882666 -0.0753489 0)
(-0.0260793 -0.104699 0)
(0.00976029 -0.103415 0)
(0.000478742 0.00620308 0)
(0.0369934 0.0328744 0)
(0.0374366 0.0423652 0)
(0.0558471 0.0191551 0)
(0.0903503 -0.0691586 0)
(0.0901677 -0.142624 0)
(0.0636689 -0.142728 0)
(-0.0326223 -0.113944 0)
(-0.110977 -0.108566 0)
(-0.140383 -0.121747 0)
(-0.147998 -0.131245 0)
(-0.149984 -0.146541 0)
(-0.143434 -0.167804 0)
(-0.125414 -0.172645 0)
(-0.101377 -0.155809 0)
(-0.0659739 -0.118749 0)
(0.0110439 -0.100107 0)
(0.106298 -0.148007 0)
(0.127003 -0.175218 0)
(0.126628 -0.162836 0)
(0.0886688 -0.121522 0)
(0.0410737 -0.0820388 0)
(0.00605435 -0.0640361 0)
(-0.00890631 -0.0320784 0)
(-0.0374592 -0.0358489 0)
(-0.084162 -0.0303416 0)
(-0.120027 -0.0178374 0)
(-0.0976055 -0.023372 0)
(-0.0536266 -0.0454558 0)
(0.0129708 -0.0552144 0)
(0.00212086 0.0170099 0)
(0.0436842 0.0959359 0)
(0.042981 0.0888278 0)
(0.0660229 0.0622248 0)
(0.109648 -0.0321115 0)
(0.0919841 -0.079123 0)
(0.0480725 -0.0662761 0)
(-0.0192115 -0.052721 0)
(-0.0671492 -0.0490727 0)
(-0.0956325 -0.0492555 0)
(-0.111767 -0.0566215 0)
(-0.120884 -0.0702951 0)
(-0.123821 -0.0825993 0)
(-0.113844 -0.0915767 0)
(-0.0880571 -0.0901848 0)
(-0.0450376 -0.0787562 0)
(0.0345327 -0.0723284 0)
(0.0946139 -0.0896212 0)
(0.115672 -0.0831655 0)
(0.109394 -0.0649395 0)
(0.0737392 -0.037867 0)
(0.0355788 -0.0212101 0)
(0.00559458 -0.0180482 0)
(-0.0112962 0.0010323 0)
(-0.0573515 0.0127183 0)
(-0.125644 0.0354119 0)
(-0.150456 0.0432638 0)
(-0.130469 0.0284311 0)
(-0.0840491 -0.0135751 0)
(-0.0273993 -0.0324466 0)
(-0.00827756 0.0383743 0)
(0.0375645 0.115303 0)
(0.0436265 0.143396 0)
(0.0842124 0.108474 0)
(0.106418 0.00697513 0)
(0.0873108 -0.0223398 0)
(0.0674881 -0.00877783 0)
(0.01889 0.00881528 0)
(-0.0201287 0.0216496 0)
(-0.0459231 0.0292775 0)
(-0.0601514 0.0290249 0)
(-0.0703653 0.0224793 0)
(-0.076196 0.0126019 0)
(-0.0709987 0.00275304 0)
(-0.0514 -0.00414235 0)
(-0.0155462 -0.005207 0)
(0.0393668 -0.00597484 0)
(0.0787927 -0.0019812 0)
(0.0844891 0.00703711 0)
(0.0593629 0.0152718 0)
(0.0304377 0.0186698 0)
(0.0133587 0.0144338 0)
(0.000445218 0.00721406 0)
(-0.0189625 0.0366807 0)
(-0.0759152 0.0780375 0)
(-0.114634 0.103082 0)
(-0.115399 0.0990033 0)
(-0.0966375 0.0817084 0)
(-0.0920723 0.0765799 0)
(-0.105927 0.0791649 0)
(-0.0655873 0.127583 0)
(0.0237655 0.167087 0)
(0.0641417 0.169376 0)
(0.0955623 0.136342 0)
(0.10237 0.0496864 0)
(0.110084 0.033483 0)
(0.0909278 0.0586697 0)
(0.0500195 0.0758371 0)
(0.0220553 0.0738017 0)
(0.0103509 0.0687574 0)
(0.00701002 0.065667 0)
(0.00396991 0.0640187 0)
(-0.00046233 0.063203 0)
(-0.00361311 0.0650493 0)
(0.00238807 0.0679158 0)
(0.021096 0.0689232 0)
(0.0435101 0.0628851 0)
(0.0425367 0.0534598 0)
(0.0190551 0.0461494 0)
(0.00682772 0.0421126 0)
(0.00154729 0.0339306 0)
(-0.00138133 0.0245399 0)
(-0.00325237 0.0121199 0)
(-0.0254137 0.0860695 0)
(-0.0444145 0.107998 0)
(-0.0336063 0.0970445 0)
(-0.00877079 0.0902065 0)
(0.00341373 0.093914 0)
(0.000300151 0.0970203 0)
(-0.00321659 0.0880993 0)
(-0.0546145 0.120315 0)
(-0.0181407 0.238825 0)
(0.0725082 0.256705 0)
(0.143207 0.188008 0)
(0.141038 0.15321 0)
(0.0791682 0.121872 0)
(0.0327031 0.0970726 0)
(0.0294721 0.0866397 0)
(0.0269764 0.0799064 0)
(0.0269826 0.0747874 0)
(0.0286228 0.0728529 0)
(0.0301753 0.0732562 0)
(0.0308848 0.074789 0)
(0.0301064 0.0756219 0)
(0.0281865 0.0740545 0)
(0.0264901 0.0719197 0)
(0.0210945 0.0705075 0)
(0.0093936 0.0692278 0)
(0.00195832 0.0615972 0)
(-0.00152304 0.0526567 0)
(-0.00367272 0.0412775 0)
(-0.00483907 0.0278875 0)
(-0.00426954 0.0115541 0)
(0.003435 0.105868 0)
(0.00222048 0.091805 0)
(0.0109216 0.0897191 0)
(0.0166365 0.0977474 0)
(0.0178971 0.108984 0)
(0.014611 0.118829 0)
(0.00931353 0.124641 0)
(0.000108103 0.121073 0)
(-0.0355448 0.138603 0)
(0.0241954 0.291043 0)
(0.139084 0.309934 0)
(0.0902557 0.183276 0)
(0.0324902 0.129867 0)
(0.0204973 0.105145 0)
(0.0201533 0.0869749 0)
(0.0253075 0.0780034 0)
(0.0295784 0.0745378 0)
(0.0327724 0.0744609 0)
(0.0345563 0.0764956 0)
(0.0348444 0.0792414 0)
(0.0336167 0.0814857 0)
(0.0301601 0.0828946 0)
(0.023392 0.082954 0)
(0.0158117 0.0809491 0)
(0.0100917 0.0775251 0)
(0.00568811 0.0711235 0)
(0.00151836 0.0607976 0)
(-0.00197671 0.047133 0)
(-0.00368765 0.0310034 0)
(-0.0038631 0.0112018 0)
(0.013097 0.076072 0)
(0.0161991 0.082 0)
(0.0197768 0.0903947 0)
(0.0213629 0.103607 0)
(0.0198118 0.117901 0)
(0.0141469 0.130323 0)
(0.00701664 0.136996 0)
(-0.00120193 0.136334 0)
(-0.0268735 0.135899 0)
(-0.0619937 0.100282 0)
(0.0134243 0.117747 0)
(0.0361062 0.134446 0)
(0.0243331 0.132822 0)
(0.019603 0.110135 0)
(0.018472 0.0868799 0)
(0.0250449 0.0754201 0)
(0.0308335 0.0725789 0)
(0.0345428 0.0744552 0)
(0.0361356 0.0786571 0)
(0.0357261 0.0836844 0)
(0.0335955 0.0882608 0)
(0.0299544 0.0915118 0)
(0.0250519 0.0927272 0)
(0.0197461 0.0913513 0)
(0.0147354 0.0871486 0)
(0.00987886 0.0795952 0)
(0.00495156 0.0682399 0)
(0.000693275 0.0530492 0)
(-0.00174159 0.0345706 0)
(-0.0028602 0.0119828 0)
(0.012632 0.0558011 0)
(0.0183998 0.0768243 0)
(0.0223612 0.0914315 0)
(0.0241973 0.107943 0)
(0.0228391 0.125159 0)
(0.0163935 0.141066 0)
(0.00810192 0.149626 0)
(-0.0160166 0.146985 0)
(-0.044753 0.132276 0)
(-0.052497 0.109565 0)
(-0.0309917 0.0952235 0)
(0.00157616 0.116817 0)
(0.0160961 0.13873 0)
(0.0176926 0.109684 0)
(0.0170308 0.0834017 0)
(0.0245385 0.0708504 0)
(0.0315813 0.068765 0)
(0.0359573 0.07273 0)
(0.0377749 0.0793011 0)
(0.0373849 0.0865614 0)
(0.0351127 0.093117 0)
(0.0314117 0.0978333 0)
(0.0268109 0.0998654 0)
(0.0218516 0.0987184 0)
(0.0169402 0.0942418 0)
(0.0121881 0.0862797 0)
(0.00752621 0.07452 0)
(0.00322829 0.058508 0)
(0.000149005 0.0382115 0)
(-0.00164024 0.0135767 0)
(0.0111981 0.0434451 0)
(0.0180261 0.0724199 0)
(0.0232753 0.0909417 0)
(0.0265905 0.109826 0)
(0.0271463 0.129605 0)
(0.0225663 0.149654 0)
(0.0190474 0.161581 0)
(-0.0300136 0.152075 0)
(-0.0600445 0.130858 0)
(-0.0591828 0.107707 0)
(-0.0478829 0.0926688 0)
(-0.0260667 0.101671 0)
(-0.00605451 0.130383 0)
(0.0128034 0.10059 0)
(0.0153412 0.0750885 0)
(0.0238104 0.0639752 0)
(0.0318851 0.0636596 0)
(0.0370271 0.0698843 0)
(0.039235 0.07892 0)
(0.0390049 0.0884366 0)
(0.036626 0.0969347 0)
(0.0325381 0.103106 0)
(0.0274188 0.105901 0)
(0.0220109 0.104818 0)
(0.016932 0.0999291 0)
(0.0124735 0.0914857 0)
(0.00849588 0.0794314 0)
(0.00477317 0.0630764 0)
(0.0016506 0.0416501 0)
(-0.000457551 0.0153252 0)
(0.00942071 0.0344716 0)
(0.0170324 0.0671321 0)
(0.0235795 0.0882664 0)
(0.0287156 0.108811 0)
(0.0320455 0.130768 0)
(0.0323563 0.1555 0)
(0.0313044 0.179619 0)
(-0.021164 0.206551 0)
(-0.066515 0.126628 0)
(-0.0666707 0.101991 0)
(-0.0588531 0.0862386 0)
(-0.0437063 0.087652 0)
(-0.0279128 0.109894 0)
(0.00611141 0.0830049 0)
(0.0133308 0.0629928 0)
(0.022927 0.0555764 0)
(0.0317539 0.0577831 0)
(0.0376219 0.0664161 0)
(0.0402965 0.0780362 0)
(0.0402002 0.0900772 0)
(0.0375516 0.100838 0)
(0.0327699 0.108692 0)
(0.026692 0.112265 0)
(0.0204567 0.111007 0)
(0.0150162 0.105303 0)
(0.0107512 0.0958911 0)
(0.00745971 0.083136 0)
(0.00466489 0.0665142 0)
(0.0021869 0.0445488 0)
(0.0002441 0.0166857 0)
(0.00781566 0.0278213 0)
(0.0159697 0.0610293 0)
(0.0234959 0.0836977 0)
(0.0301498 0.105302 0)
(0.0357783 0.129555 0)
(0.0404536 0.162595 0)
(0.0346369 0.225569 0)
(-0.0272121 0.36805 0)
(-0.0900612 0.114717 0)
(-0.0775838 0.0918759 0)
(-0.0690045 0.0776468 0)
(-0.0558226 0.074507 0)
(-0.0438619 0.0886152 0)
(0.00266006 0.0650743 0)
(0.011375 0.0496218 0)
(0.0216623 0.0462037 0)
(0.0310608 0.0512318 0)
(0.0376701 0.06238 0)
(0.0409589 0.0767767 0)
(0.0410562 0.091808 0)
(0.0380186 0.105394 0)
(0.0321929 0.115412 0)
(0.0247681 0.119877 0)
(0.0174582 0.118141 0)
(0.0115658 0.111084 0)
(0.00744695 0.100089 0)
(0.00478489 0.086013 0)
(0.00295435 0.0687631 0)
(0.00144058 0.0466628 0)
(0.000372244 0.0177235 0)
(0.00662959 0.0226065 0)
(0.0151149 0.0545647 0)
(0.0232874 0.0778316 0)
(0.0308845 0.100038 0)
(0.0380639 0.125875 0)
(0.0424394 0.167183 0)
(0.0269805 0.26729 0)
(-0.0185981 0.275303 0)
(-0.103218 0.139333 0)
(-0.087597 0.0819008 0)
(-0.0774824 0.0680064 0)
(-0.0647228 0.0606261 0)
(-0.0555325 0.0650763 0)
(-0.000686818 0.0452524 0)
(0.00900345 0.0356936 0)
(0.0195173 0.0365698 0)
(0.0294896 0.0442483 0)
(0.0370647 0.0577108 0)
(0.0412727 0.0749971 0)
(0.0417984 0.0935074 0)
(0.0383468 0.110643 0)
(0.0309542 0.123618 0)
(0.0214865 0.129192 0)
(0.0130145 0.126517 0)
(0.00689635 0.117436 0)
(0.00314896 0.104284 0)
(0.00130715 0.0884329 0)
(0.000513441 0.0700115 0)
(-0.000215852 0.0476172 0)
(1.52016e-05 0.0184389 0)
(0.00587144 0.0184446 0)
(0.0146986 0.0480921 0)
(0.0232127 0.0713949 0)
(0.0312001 0.0940105 0)
(0.0383289 0.120746 0)
(0.0394393 0.164658 0)
(0.02195 0.261309 0)
(0.012659 0.22097 0)
(-0.0200349 0.187974 0)
(-0.0844223 0.0796993 0)
(-0.0801639 0.0595342 0)
(-0.0691853 0.0468931 0)
(-0.0614767 0.0386411 0)
(-0.00906416 0.0216636 0)
(0.00469375 0.020474 0)
(0.0160003 0.0260648 0)
(0.0272139 0.0362936 0)
(0.0362401 0.0520341 0)
(0.0417495 0.0724445 0)
(0.0425475 0.0948961 0)
(0.0389902 0.116289 0)
(0.0295116 0.133625 0)
(0.0157679 0.140705 0)
(0.0064223 0.135998 0)
(0.00107287 0.124054 0)
(-0.00144476 0.108445 0)
(-0.00231761 0.0904437 0)
(-0.00199294 0.0704933 0)
(-0.00172873 0.0472959 0)
(-0.000833218 0.0182913 0)
(0.00561188 0.0149858 0)
(0.0148147 0.041746 0)
(0.0233169 0.0648107 0)
(0.0310854 0.0879472 0)
(0.037354 0.11506 0)
(0.0382792 0.154959 0)
(0.0229709 0.210131 0)
(0.0221121 0.205956 0)
(0.00625099 0.196498 0)
(-0.0727982 0.0754983 0)
(-0.0801815 0.0514561 0)
(-0.0698531 0.0331578 0)
(-0.0606087 0.0139533 0)
(-0.0214919 -0.00335125 0)
(-0.00153113 0.0033301 0)
(0.0112846 0.0135954 0)
(0.0243931 0.0263158 0)
(0.0355982 0.0446055 0)
(0.0424128 0.068495 0)
(0.043025 0.0948653 0)
(0.0402558 0.121197 0)
(0.0278549 0.149119 0)
(0.00655522 0.157526 0)
(-0.0024699 0.146533 0)
(-0.00573561 0.130142 0)
(-0.00630609 0.111825 0)
(-0.00552573 0.0919984 0)
(-0.00414317 0.0703956 0)
(-0.00259949 0.0462918 0)
(-0.00159492 0.0169263 0)
(0.00580918 0.0119444 0)
(0.0147594 0.0360646 0)
(0.0223533 0.0591618 0)
(0.0288919 0.083126 0)
(0.0337333 0.110495 0)
(0.0341302 0.146272 0)
(0.0227501 0.182021 0)
(0.0193568 0.193256 0)
(0.00970028 0.180823 0)
(-0.0533855 0.0887853 0)
(-0.0794056 0.0438083 0)
(-0.0677476 0.018631 0)
(-0.0566634 -0.00630121 0)
(-0.0294708 -0.0236013 0)
(-0.00837117 -0.0146479 0)
(0.00618422 -0.00100123 0)
(0.0215694 0.0139655 0)
(0.034995 0.034938 0)
(0.0416418 0.0627211 0)
(0.0416612 0.0913269 0)
(0.040768 0.134634 0)
(0.0237371 0.207978 0)
(0.000199138 0.202874 0)
(-0.0127381 0.166251 0)
(-0.0119836 0.136945 0)
(-0.0102493 0.114644 0)
(-0.00795606 0.0929388 0)
(-0.00572405 0.0698434 0)
(-0.00312611 0.0450983 0)
(-0.00176369 0.0156965 0)
(0.00546185 0.00996725 0)
(0.0123142 0.0327227 0)
(0.0173704 0.0565299 0)
(0.0210489 0.0816618 0)
(0.0229676 0.109045 0)
(0.0215858 0.140317 0)
(0.017343 0.17008 0)
(0.0194318 0.186853 0)
(0.0260861 0.179742 0)
(-0.0356822 0.0972637 0)
(-0.0753033 0.0338257 0)
(-0.0639155 0.00385069 0)
(-0.0518755 -0.0221108 0)
(-0.0326999 -0.0385613 0)
(-0.0142017 -0.0311561 0)
(0.00187747 -0.0171731 0)
(0.0197057 -0.000727225 0)
(0.0339505 0.0219984 0)
(0.0394559 0.0521049 0)
(0.0461559 0.0836026 0)
(0.0523029 0.227436 0)
(0.0284081 0.300455 0)
(-0.00551482 0.280414 0)
(-0.0212995 0.219002 0)
(-0.0198971 0.148666 0)
(-0.0129435 0.117636 0)
(-0.00917864 0.0934515 0)
(-0.00603572 0.0695998 0)
(-0.00329956 0.0439704 0)
(-0.00134839 0.0154117 0)
(0.00343104 0.010201 0)
(0.00586809 0.0334941 0)
(0.00661478 0.0583159 0)
(0.00623177 0.0842452 0)
(0.00475702 0.111213 0)
(0.00296632 0.138949 0)
(0.00402249 0.166311 0)
(0.0135705 0.188518 0)
(0.0328454 0.192389 0)
(-0.0472772 0.0899998 0)
(-0.0688566 0.0209423 0)
(-0.0609323 -0.0104925 0)
(-0.0486576 -0.0351273 0)
(-0.0335739 -0.0496747 0)
(-0.0175477 -0.0459531 0)
(0.000161943 -0.0340241 0)
(0.0200006 -0.0171449 0)
(0.0344985 0.00701272 0)
(0.035918 0.0266137 0)
(0.0793474 0.0914476 0)
(0.0878147 0.262321 0)
(0.041164 0.327686 0)
(0.0201835 0.312071 0)
(-0.017061 0.252338 0)
(-0.0320441 0.174062 0)
(-0.0150292 0.122426 0)
(-0.00851063 0.0948027 0)
(-0.00488002 0.0698036 0)
(-0.00240314 0.043667 0)
(-0.000814616 0.0154596 0)
(0.000547547 0.013095 0)
(-0.00280387 0.0389787 0)
(-0.00764715 0.0651797 0)
(-0.0134115 0.0915976 0)
(-0.0190038 0.117194 0)
(-0.0223737 0.142179 0)
(-0.0208266 0.16705 0)
(-0.0101267 0.193401 0)
(0.0125934 0.220638 0)
(-0.0367784 0.153748 0)
(-0.0573433 0.00070989 0)
(-0.0598884 -0.0235126 0)
(-0.0485686 -0.0469771 0)
(-0.0338864 -0.0606753 0)
(-0.0180158 -0.0602401 0)
(0.000753922 -0.0509338 0)
(0.0211272 -0.0357617 0)
(0.0379529 -0.0117597 0)
(0.0489249 -0.00473941 0)
(0.0863796 0.141519 0)
(0.112029 0.263208 0)
(0.0803557 0.358894 0)
(0.0693402 0.336233 0)
(0.0190253 0.303637 0)
(-0.0110476 0.20461 0)
(-0.011733 0.136412 0)
(-0.00547976 0.0982057 0)
(-0.00224864 0.0711136 0)
(-0.000540114 0.0442369 0)
(-0.000195118 0.0158539 0)
(-0.0025545 0.0170396 0)
(-0.01202 0.0474189 0)
(-0.0230268 0.0757183 0)
(-0.0360447 0.10315 0)
(-0.0479886 0.126907 0)
(-0.0554337 0.148216 0)
(-0.0572079 0.168143 0)
(-0.0531948 0.191022 0)
(-0.0457242 0.228199 0)
(-0.0577917 0.29932 0)
(-0.0713181 -0.0284763 0)
(-0.0650262 -0.0391564 0)
(-0.0512247 -0.0621219 0)
(-0.0348966 -0.0741896 0)
(-0.0172918 -0.0750649 0)
(0.00268536 -0.0672115 0)
(0.0225151 -0.0538462 0)
(0.0386841 -0.036153 0)
(0.0651913 -0.0254792 0)
(0.0883299 0.160504 0)
(0.113334 0.251058 0)
(0.129645 0.345555 0)
(0.108737 0.375629 0)
(0.202489 0.193088 0)
(0.279626 0.114719 0)
(0.106662 0.156033 0)
(0.0109192 0.118178 0)
(0.00339347 0.0757508 0)
(0.00213328 0.0466807 0)
(0.00170412 0.018125 0)
(-0.00471085 0.020508 0)
(-0.019697 0.0566344 0)
(-0.0367442 0.0856417 0)
(-0.0610826 0.113893 0)
(-0.0833017 0.137208 0)
(-0.0948417 0.155811 0)
(-0.0995143 0.168617 0)
(-0.0986039 0.181642 0)
(-0.101897 0.195263 0)
(-0.106755 0.25147 0)
(-0.0776514 -0.0432617 0)
(-0.0631766 -0.0602427 0)
(-0.0521746 -0.0800959 0)
(-0.0352819 -0.0902494 0)
(-0.0155414 -0.0913689 0)
(0.00627564 -0.0837983 0)
(0.0259936 -0.0705236 0)
(0.0320505 -0.0640118 0)
(0.0587829 -0.0357867 0)
(0.0990335 0.178551 0)
(0.115724 0.24736 0)
(0.152435 0.345465 0)
(0.343423 0.0628485 0)
(0.355774 0.0425589 0)
(0.350227 0.0587514 0)
(0.32244 0.087492 0)
(0.172131 0.126661 0)
(0.0319426 0.102129 0)
(0.0070714 0.0540319 0)
(0.00609263 0.023217 0)
(-0.00401247 0.0237437 0)
(-0.0177609 0.0631458 0)
(-0.0449925 0.09095 0)
(-0.0950004 0.118766 0)
(-0.13116 0.142278 0)
(-0.13841 0.160044 0)
(-0.140738 0.167596 0)
(-0.137662 0.169047 0)
(-0.137929 0.167998 0)
(-0.145039 0.187213 0)
(-0.0838559 -0.0361578 0)
(-0.0602353 -0.0844916 0)
(-0.0533345 -0.0992237 0)
(-0.035611 -0.108276 0)
(-0.013454 -0.110214 0)
(0.0115596 -0.103044 0)
(0.0345493 -0.0867538 0)
(0.0391216 -0.0882776 0)
(0.0606606 0.0551645 0)
(0.0975466 0.182891 0)
(0.140246 0.254167 0)
(0.34762 -0.0438417 0)
(0.35683 -0.0344128 0)
(0.354299 0.0095321 0)
(0.354773 0.0481683 0)
(0.350922 0.0880627 0)
(0.328835 0.132512 0)
(0.139574 0.149109 0)
(0.0132687 0.0847642 0)
(0.0188951 0.0360988 0)
(-0.00796263 0.0300402 0)
(-0.0106339 0.0710188 0)
(-0.0783824 0.124559 0)
(-0.192496 0.248721 0)
(-0.184635 0.158631 0)
(-0.176549 0.163003 0)
(-0.173286 0.164681 0)
(-0.168791 0.155359 0)
(-0.165443 0.141708 0)
(-0.172753 0.121007 0)
(-0.142954 0.0572856 0)
(-0.0580454 -0.107743 0)
(-0.0558412 -0.11827 0)
(-0.0369641 -0.127387 0)
(-0.0131783 -0.131137 0)
(0.0122356 -0.125967 0)
(0.0358729 -0.105627 0)
(0.0473385 -0.102264 0)
(0.0468557 0.0594382 0)
(0.124347 0.136195 0)
(0.294316 -0.133566 0)
(0.32316 -0.123851 0)
(0.326484 -0.0649027 0)
(0.33108 -0.00762539 0)
(0.334721 0.0434331 0)
(0.333905 0.0953637 0)
(0.326212 0.154844 0)
(0.251539 0.220333 0)
(0.0625083 0.163606 0)
(0.0476642 0.0702737 0)
(-0.0451181 0.0402779 0)
(0.0214573 0.111039 0)
(-0.119545 0.314823 0)
(-0.240333 0.416765 0)
(-0.287539 0.261967 0)
(-0.208944 0.178587 0)
(-0.189925 0.163993 0)
(-0.182122 0.141051 0)
(-0.174189 0.111811 0)
(-0.177873 0.0667908 0)
(-0.186746 0.0448685 0)
(-0.0596007 -0.133099 0)
(-0.0590138 -0.137956 0)
(-0.038405 -0.146846 0)
(-0.0136848 -0.151941 0)
(0.0101942 -0.149662 0)
(0.0269077 -0.133682 0)
(0.0449243 -0.122911 0)
(0.0760306 0.0167189 0)
(0.234411 -0.14559 0)
(0.266853 -0.198825 0)
(0.277225 -0.143484 0)
(0.28723 -0.0793102 0)
(0.295626 -0.0184718 0)
(0.296535 0.0396442 0)
(0.287637 0.097256 0)
(0.272604 0.155134 0)
(0.240052 0.216131 0)
(0.113922 0.236462 0)
(0.0771545 0.156778 0)
(-0.0873057 0.0555393 0)
(-0.0108712 0.193032 0)
(-0.127346 0.473381 0)
(-0.244286 0.461736 0)
(-0.283866 0.26857 0)
(-0.23632 0.216013 0)
(-0.185401 0.163944 0)
(-0.175533 0.130055 0)
(-0.16531 0.0824045 0)
(-0.162047 0.0241812 0)
(-0.172607 -0.0434507 0)
(-0.0682138 -0.150493 0)
(-0.0581576 -0.158245 0)
(-0.0361154 -0.166633 0)
(-0.0106131 -0.172198 0)
(0.0116407 -0.17327 0)
(0.0185959 -0.167517 0)
(0.03411 -0.147655 0)
(0.137659 -0.0954335 0)
(0.206543 -0.256539 0)
(0.21874 -0.211528 0)
(0.233975 -0.151583 0)
(0.249196 -0.0886944 0)
(0.257186 -0.0252381 0)
(0.252879 0.039105 0)
(0.232843 0.101476 0)
(0.205964 0.154719 0)
(0.172931 0.194861 0)
(0.105143 0.214285 0)
(-0.0192924 0.183365 0)
(-0.134441 0.144683 0)