/*--------------------------------*- C++ -*----------------------------------*\
| =========                 |                                                 |
| \\      /  F ield         | OpenFOAM: The Open Source CFD Toolbox           |
|  \\    /   O peration     | Version:  v1606+                                |
|   \\  /    A nd           | Web:      www.OpenFOAM.com                      |
|    \\/     M anipulation  |                                                 |
\*---------------------------------------------------------------------------*/
FoamFile
{
    version     2.0;
    format      ascii;
    class       volScalarField;
    location    "0.75";
    object      nut.air;
}
// * * * * * * * * * * * * * * * * * * * * * * * * * * * * * * * * * * * * * //

dimensions      [0 2 -1 0 0 0 0];

internalField   nonuniform List<scalar> 
6000
(
0.000528318
0.00487723
0.00779256
0.00849784
0.0087506
0.0088677
0.00894059
0.00900621
0.00906288
0.00909373
0.00911411
0.00912754
0.00913936
0.00914723
0.00915081
0.00915233
0.00915128
0.00914659
0.00913876
0.00913005
0.00911263
0.00908311
0.0090261
0.00896081
0.00888662
0.0087681
0.00851134
0.00780157
0.00488086
0.000528329
0.00044467
0.00315024
0.00612453
0.00788876
0.00882928
0.00942039
0.00981806
0.0100961
0.010294
0.0104617
0.0106008
0.0107226
0.0108097
0.0108665
0.0108962
0.0109059
0.0108929
0.0108535
0.010789
0.0106843
0.0105646
0.0104092
0.0102125
0.00993081
0.0095217
0.00890725
0.00794277
0.00615912
0.00316412
0.00044524
0.000387847
0.00266977
0.00534546
0.00742791
0.00889617
0.00990934
0.0105801
0.0110193
0.0113718
0.0117234
0.0120028
0.0122267
0.0123948
0.0125025
0.0125581
0.0125699
0.0125408
0.0124638
0.0123344
0.0121492
0.0119065
0.0115864
0.0112491
0.0108133
0.0101342
0.00907905
0.00756257
0.00542896
0.00270364
0.000389235
0.000351734
0.00224112
0.00493905
0.00728506
0.00917009
0.0106425
0.0117482
0.0125185
0.0130183
0.0133543
0.0137066
0.0140382
0.0143261
0.0145544
0.0146844
0.0146974
0.0145982
0.0144143
0.0141797
0.0139073
0.0136106
0.013325
0.0128702
0.0121076
0.0109693
0.00945616
0.00750326
0.00508872
0.00230785
0.000354387
0.000310474
0.00205187
0.00483715
0.00728628
0.00937937
0.0111019
0.0125079
0.0136543
0.014508
0.014999
0.0154089
0.0158714
0.016319
0.0167353
0.0170002
0.0170014
0.0167524
0.0164035
0.0160362
0.0156623
0.0153413
0.0149354
0.0141251
0.0129813
0.011544
0.00976719
0.00759761
0.00505415
0.00216073
0.000315349
0.000293361
0.00238424
0.00524551
0.00773558
0.00983199
0.0116108
0.0131697
0.01453
0.0156866
0.0165033
0.0170656
0.0177388
0.0184852
0.0189942
0.0192251
0.0192403
0.0190179
0.0185153
0.017906
0.0173655
0.0169419
0.016231
0.0151176
0.013761
0.0121729
0.0103321
0.00814966
0.00553063
0.0025209
0.000301457
0.000304302
0.00293319
0.00605461
0.00865481
0.0107441
0.0124994
0.0140525
0.015459
0.0167112
0.0177907
0.0186849
0.0196755
0.020475
0.0207815
0.0208903
0.0209204
0.0208392
0.0205265
0.0197808
0.0189832
0.0183052
0.0173541
0.0161572
0.0147583
0.0131738
0.0113619
0.00918258
0.00645313
0.00313682
0.000315535
0.000336497
0.00356616
0.00701795
0.00975308
0.0119165
0.0136934
0.0152047
0.016582
0.0178528
0.0190807
0.0203638
0.0215096
0.0220243
0.022221
0.0223069
0.0223345
0.0222867
0.0221288
0.021628
0.0206744
0.0196656
0.018577
0.0173828
0.0160129
0.0144697
0.0126267
0.0103577
0.0074673
0.00378914
0.000352352
0.000366608
0.0039698
0.00780113
0.0107889
0.0131245
0.0150136
0.0165458
0.0178662
0.0191234
0.0204576
0.0219258
0.0230478
0.0234148
0.0235969
0.0236749
0.02369
0.0236473
0.0235224
0.0232541
0.0223811
0.0211713
0.0199505
0.0187662
0.0174579
0.0158871
0.0139194
0.0114615
0.0082989
0.00422336
0.000387532
0.000391888
0.00427461
0.00844679
0.0117106
0.0142637
0.0163112
0.0179254
0.0192364
0.0204708
0.021837
0.0233114
0.0243624
0.0247921
0.0249945
0.0250724
0.0250656
0.0250044
0.024901
0.0246636
0.0239329
0.0227103
0.0214173
0.020271
0.0189689
0.0172943
0.0151504
0.0124574
0.00900207
0.00456935
0.000418023
0.000415766
0.00453373
0.00899724
0.0125266
0.0153007
0.0175155
0.019227
0.0205942
0.0218714
0.023238
0.0246579
0.0256341
0.0261622
0.0264129
0.0265076
0.026492
0.0264007
0.0262872
0.0260426
0.0253939
0.0242441
0.0229582
0.0217926
0.0204242
0.0186246
0.0162931
0.0133624
0.00962255
0.00487354
0.000447421
0.000440457
0.004764
0.00947081
0.0132412
0.0162261
0.0185909
0.0204085
0.0219041
0.0232999
0.0246994
0.0259996
0.0268981
0.0275252
0.02782
0.0279438
0.0279388
0.027834
0.0277086
0.0274367
0.0267745
0.0257677
0.0245581
0.0232906
0.0217727
0.0198432
0.017345
0.0141857
0.0101817
0.00515753
0.000478149
0.000469156
0.00494696
0.00986102
0.0138446
0.0170255
0.0195306
0.021475
0.0231523
0.0247302
0.0261559
0.0272796
0.0281197
0.0288429
0.0292067
0.0293802
0.0293868
0.0292715
0.0291377
0.0288174
0.0281071
0.0272576
0.0261729
0.0247591
0.0230276
0.0209472
0.0182967
0.0149216
0.010672
0.00540205
0.00051339
0.000471854
0.00508878
0.0101356
0.0143112
0.0176963
0.0203575
0.0224619
0.0243319
0.0260757
0.0274752
0.028467
0.0292764
0.0300922
0.0306266
0.0308707
0.0308383
0.0306853
0.0305278
0.0301499
0.0294196
0.0286545
0.0277212
0.0262023
0.0242426
0.0219725
0.019144
0.0155413
0.011049
0.00557574
0.000522363
0.000486266
0.00500374
0.010077
0.0145799
0.01825
0.0211221
0.0234236
0.0254321
0.0272128
0.0285599
0.029553
0.0303785
0.0313134
0.0321191
0.0324583
0.0322926
0.0320599
0.0318322
0.0313658
0.0306626
0.0299247
0.0290701
0.0276015
0.0254923
0.0229827
0.0199032
0.0159786
0.0111144
0.00555489
0.000541273
0.000488336
0.00495359
0.0100216
0.0147371
0.0187866
0.0219367
0.0244102
0.026389
0.0280682
0.0294106
0.0304862
0.0314058
0.0324891
0.033483
0.0338546
0.0337591
0.0334747
0.0331473
0.0325208
0.0318286
0.0310866
0.0302177
0.0289053
0.0267999
0.0240643
0.0206716
0.0163277
0.0111962
0.00554161
0.000548108
0.000482903
0.00484365
0.0101398
0.0150112
0.0194169
0.0228421
0.0253311
0.0271839
0.0286772
0.0300686
0.0312382
0.0322834
0.0333532
0.0341653
0.0345342
0.0347012
0.0346752
0.0344743
0.0337404
0.0329761
0.0321993
0.0313085
0.0301429
0.0282047
0.0253122
0.0215223
0.0168113
0.0114578
0.00554494
0.000550143
0.000485773
0.00486219
0.0104662
0.0156115
0.0200802
0.0234973
0.0259002
0.0276989
0.0291598
0.0305311
0.0317222
0.0327696
0.0336543
0.0342479
0.0346586
0.0350063
0.0353476
0.0354622
0.0349352
0.0341439
0.0333285
0.0323845
0.0312809
0.0295173
0.0266689
0.022571
0.0175504
0.0119412
0.00572007
0.000561073
0.000500213
0.0050316
0.0108688
0.0161551
0.0205057
0.0237305
0.0260652
0.0279064
0.0294968
0.0308783
0.0320587
0.0330031
0.0336935
0.0342195
0.0346819
0.0351425
0.0356514
0.036028
0.0358928
0.0352322
0.0344301
0.0333718
0.0320807
0.0302757
0.0275786
0.0235776
0.0184471
0.0125667
0.00597871
0.000582819
0.000522838
0.00528945
0.0112528
0.0165091
0.0207116
0.0238301
0.0261723
0.0280294
0.0295829
0.0309179
0.0320252
0.032909
0.0335951
0.0341621
0.0346888
0.0352397
0.0358301
0.0362725
0.0363419
0.0359282
0.0351817
0.0340539
0.0325163
0.0306524
0.0280605
0.0242427
0.0191586
0.0131209
0.00624315
0.000607335
0.00054197
0.00561716
0.0116282
0.0167414
0.0207763
0.0238454
0.0261958
0.0280676
0.0295906
0.0308533
0.0319083
0.0327829
0.0334973
0.0341072
0.0346968
0.0353118
0.0359399
0.0364029
0.0364805
0.036114
0.0354177
0.0342808
0.032809
0.0309398
0.0283309
0.0245963
0.0196042
0.0135183
0.00648838
0.000628618
0.000544612
0.00573945
0.0117336
0.0167384
0.0207038
0.0237687
0.0261302
0.0280101
0.0295461
0.0308041
0.0318455
0.0327124
0.033443
0.0340931
0.0347352
0.0353931
0.0360281
0.0364383
0.0364005
0.0360284
0.0353585
0.0343588
0.0329888
0.0311351
0.0284953
0.0247708
0.01987
0.013828
0.00673587
0.000643684
0.00054164
0.00574411
0.0116481
0.01655
0.020458
0.0235358
0.0259579
0.0278807
0.0294412
0.030733
0.0318094
0.0326985
0.0334552
0.0341362
0.03481
0.0354855
0.0360998
0.0364113
0.0362566
0.0358572
0.0352641
0.0343962
0.0331299
0.0312865
0.0286139
0.0248878
0.0200565
0.0140687
0.00693266
0.000654903
0.000538998
0.00568626
0.0114944
0.016321
0.0201828
0.0232493
0.0256965
0.0276679
0.0292783
0.030617
0.0317547
0.032709
0.0335132
0.0342238
0.0349082
0.0355712
0.0361302
0.0363167
0.0360944
0.0357101
0.035192
0.0344398
0.0332543
0.0314075
0.0287134
0.0249953
0.0202068
0.0142309
0.00703208
0.000663573
0.000536898
0.00561734
0.0113496
0.0161223
0.0199452
0.0229929
0.0254424
0.0274295
0.0290638
0.0304443
0.0316421
0.0326901
0.0335723
0.0343229
0.0350008
0.035622
0.03609
0.0361773
0.0359536
0.0356005
0.0351382
0.0344719
0.0333587
0.0315053
0.028794
0.0250916
0.0203318
0.0143487
0.00709234
0.000670669
0.000535172
0.00553869
0.0112347
0.0159807
0.0197961
0.0228218
0.0252424
0.0272133
0.0288501
0.0302391
0.031466
0.0325737
0.0335483
0.0343465
0.0350217
0.0355986
0.0359864
0.0360494
0.0358598
0.0355251
0.0350866
0.0344782
0.0334311
0.0315755
0.0288349
0.0251349
0.0204029
0.0144214
0.00713565
0.000670827
0.000532492
0.005495
0.0111927
0.0159477
0.0197274
0.0227304
0.0251259
0.0270489
0.0286456
0.030019
0.0312362
0.0323554
0.03337
0.0342292
0.0349255
0.035474
0.0358523
0.035958
0.0358069
0.0354724
0.0350303
0.0344503
0.0334604
0.0316067
0.0288186
0.0250936
0.0204198
0.0144523
0.00715586
0.000668414
0.000529928
0.0055091
0.0111929
0.0159676
0.0197605
0.0227151
0.0250422
0.0269154
0.0284595
0.0297768
0.030954
0.0320372
0.0330421
0.0339308
0.0346773
0.0352695
0.0357131
0.0358948
0.0357775
0.0354256
0.0349604
0.0343899
0.0334429
0.0315896
0.0288239
0.0251507
0.0204754
0.0145039
0.00718528
0.000667327
0.00053054
0.00553495
0.0112095
0.0159771
0.0197725
0.0227029
0.0249955
0.0267899
0.0282698
0.0295185
0.0306219
0.0316356
0.0325837
0.0334751
0.0342749
0.034945
0.0354847
0.0357661
0.0357
0.0353628
0.034866
0.0342879
0.033386
0.0316154
0.02892
0.0253159
0.0206408
0.0146302
0.00724429
0.000668725
0.000533721
0.00557927
0.0112802
0.0160781
0.01985
0.0226713
0.0248543
0.0266289
0.0280648
0.0292379
0.0302548
0.0311814
0.0320486
0.0329078
0.0337502
0.0344977
0.0351261
0.0355025
0.0354957
0.0351965
0.034713
0.0341227
0.0332938
0.0317073
0.0291078
0.0255576
0.0208984
0.0148441
0.00735316
0.000673149
0.000536203
0.00558152
0.0113432
0.0161947
0.0198632
0.0225773
0.024691
0.0264147
0.0278164
0.0289337
0.0298762
0.0307157
0.0315086
0.0322921
0.0331163
0.0339474
0.0346458
0.0351007
0.0351751
0.0349301
0.034477
0.0338625
0.0331398
0.031802
0.0293367
0.0258348
0.0212103
0.0151214
0.00750389
0.000682281
0.000544747
0.00561018
0.0113907
0.0161673
0.0197177
0.0223862
0.0244692
0.0261525
0.0275207
0.0286033
0.0294925
0.0302704
0.0310092
0.0317403
0.0324715
0.0332639
0.0340204
0.0346132
0.0348296
0.0346337
0.034193
0.0335791
0.0328754
0.0317063
0.0295364
0.0261679
0.0215774
0.0154513
0.00768912
0.000696393
0.000545415
0.00564133
0.0113679
0.0159834
0.019417
0.022064
0.0241601
0.025842
0.0271821
0.0282452
0.0290986
0.0298379
0.0305426
0.0312665
0.032004
0.0327298
0.0334533
0.0340578
0.0344292
0.0343216
0.033896
0.0332956
0.0325361
0.0313925
0.029595
0.0264571
0.0219608
0.0158169
0.00790712
0.000713782
0.00054632
0.00566159
0.0112629
0.0156887
0.0190358
0.0216737
0.0238059
0.0254938
0.0268224
0.0278563
0.0286797
0.0293861
0.0300645
0.0307864
0.0315709
0.0323336
0.0330038
0.0335613
0.0339517
0.0339915
0.0335948
0.0330159
0.0322103
0.0310821
0.0293392
0.0265518
0.0222625
0.0161755
0.00815896
0.000737386
0.000547845
0.00564083
0.0111631
0.0154649
0.0187601
0.0214206
0.0235417
0.0251589
0.0264392
0.0274272
0.0282182
0.028891
0.029537
0.0302477
0.031038
0.0318124
0.032487
0.0330578
0.0334547
0.0335516
0.0332399
0.0327046
0.031909
0.0307343
0.0289894
0.0262898
0.0222225
0.01632
0.00830306
0.00076687
0.00056479
0.00567991
0.0111601
0.0154604
0.0187725
0.0213613
0.0233357
0.0248605
0.026064
0.0269596
0.0277043
0.0283363
0.0289421
0.029627
0.0304088
0.0311737
0.0318841
0.0324884
0.0330137
0.0332051
0.0329533
0.0324453
0.031615
0.0303891
0.0285875
0.0258618
0.0218037
0.016078
0.00824238
0.000779265
0.000599664
0.00568777
0.0112176
0.0155981
0.0189684
0.0215297
0.0234239
0.0248025
0.0256951
0.0264344
0.0271245
0.0277161
0.0282847
0.028945
0.0297482
0.0305911
0.0313473
0.0320093
0.0327207
0.0331851
0.0328762
0.0323518
0.0314569
0.0301304
0.0282101
0.0253789
0.0212459
0.015551
0.00804036
0.000779969
0.000603544
0.00571077
0.0112203
0.0155603
0.0188305
0.0212575
0.023066
0.0244201
0.0253874
0.0260452
0.02649
0.0270246
0.0275719
0.0282273
0.0290967
0.0301049
0.0310304
0.0318926
0.0329648
0.0336986
0.0332849
0.0325652
0.0315449
0.0300747
0.0279827
0.0249869
0.0207152
0.0149168
0.00762584
0.000777937
0.000597937
0.00568526
0.0110348
0.0152014
0.0183154
0.0206327
0.0223903
0.0237216
0.0247163
0.0254614
0.0259705
0.0262906
0.0267798
0.0274365
0.0283476
0.0295138
0.0307345
0.0319057
0.0331457
0.0338061
0.0335543
0.0328697
0.0317797
0.0301983
0.0279681
0.0248144
0.0204197
0.0146281
0.0074156
0.000770989
0.000593345
0.00554645
0.0106822
0.0146718
0.0176696
0.0199222
0.0216362
0.0229511
0.0239487
0.0246972
0.0252599
0.0256561
0.0259572
0.02656
0.0274386
0.0286275
0.0299769
0.0312348
0.0323808
0.0330049
0.0329683
0.0324355
0.0314671
0.0299908
0.0278066
0.0246826
0.0203361
0.0145542
0.00723788
0.000738819
0.000583154
0.00529408
0.010197
0.0140323
0.016942
0.0191557
0.0208517
0.022154
0.023152
0.0238983
0.0244552
0.0248892
0.025221
0.0256252
0.0264062
0.0274889
0.0287816
0.0299507
0.0309787
0.0315958
0.0316616
0.0312646
0.0304234
0.0290962
0.0271114
0.0241898
0.0200626
0.014465
0.00727103
0.000730466
0.000568107
0.00500815
0.0096595
0.0133417
0.0161665
0.0183448
0.0200354
0.0213379
0.0223354
0.0230835
0.023635
0.0240553
0.0243875
0.0246521
0.0252858
0.0262158
0.0273592
0.0283688
0.029294
0.0299054
0.0300801
0.0297808
0.0290776
0.0279148
0.0261223
0.0234212
0.0195881
0.0142519
0.00725572
0.000734704
0.00055147
0.0047258
0.00912277
0.0126419
0.0153769
0.0175151
0.019193
0.0205014
0.0214971
0.0222481
0.0227988
0.0232026
0.0235016
0.0236948
0.0241609
0.0249129
0.0258516
0.0267364
0.0275561
0.0281457
0.0284104
0.0282535
0.0276937
0.0266622
0.025012
0.0224867
0.0188821
0.0137938
0.00709167
0.000734966
0.000534504
0.00446
0.0086096
0.0119612
0.0145988
0.016687
0.0183414
0.0196394
0.0206399
0.0213846
0.0219367
0.0223367
0.0226216
0.0227817
0.0230475
0.0236263
0.0243307
0.0251991
0.0259044
0.0264564
0.0267763
0.0267394
0.0263009
0.0253724
0.0238187
0.021439
0.0179927
0.0131358
0.0067517
0.000728592
0.000517757
0.00421492
0.00813025
0.0113154
0.0138501
0.0158777
0.0174946
0.0187668
0.0197497
0.0204971
0.0210398
0.0214434
0.0217306
0.021888
0.0219732
0.0224053
0.022966
0.0237548
0.0243735
0.0248894
0.0252317
0.0252752
0.024925
0.0240875
0.0226077
0.020339
0.0170252
0.0123969
0.00637245
0.000712129
0.000501521
0.00399432
0.00769015
0.0107136
0.0131431
0.0151003
0.0166653
0.0178919
0.0188444
0.019569
0.0201165
0.0205125
0.0208049
0.0209652
0.0209787
0.0212286
0.0217765
0.022417
0.0229577
0.0234276
0.0237686
0.0238646
0.0235848
0.0228247
0.0214271
0.0192406
0.0160544
0.011652
0.00598898
0.000690564
0.000486395
0.00380055
0.00729168
0.0101607
0.0124852
0.0143643
0.0158626
0.0170314
0.0179354
0.0186229
0.0191494
0.0195463
0.019836
0.0200015
0.0200161
0.0201451
0.0206342
0.0211375
0.0215991
0.0220147
0.0223422
0.0224778
0.0222747
0.0215863
0.0202908
0.0181875
0.0151315
0.010948
0.00562606
0.000667885
0.000472596
0.00362948
0.00693286
0.0096586
0.0118799
0.0136749
0.0150958
0.0161954
0.0170349
0.0176697
0.0181609
0.0185491
0.0188288
0.0189919
0.0190086
0.0190915
0.0194534
0.0198534
0.0202365
0.0205972
0.0209102
0.0210854
0.0209678
0.0203829
0.019191
0.0172022
0.0142842
0.0103091
0.00529638
0.000645304
0.000459855
0.00347463
0.00661012
0.00920659
0.0113279
0.0130343
0.0143697
0.0153899
0.0161544
0.0167261
0.0171716
0.0175339
0.0177991
0.0179461
0.0179459
0.0179814
0.0182274
0.0185395
0.0188469
0.019156
0.019458
0.0196779
0.0196564
0.0191987
0.0181336
0.0162889
0.0135216
0.00974418
0.00500437
0.000623637
0.000447747
0.00333128
0.00631902
0.00880175
0.0108265
0.0124405
0.0136839
0.0146175
0.0153016
0.0158057
0.0161994
0.0165239
0.0167665
0.0168854
0.0168509
0.016822
0.0169817
0.0172123
0.0174473
0.0177075
0.0180018
0.0182676
0.0183475
0.0180298
0.0171173
0.0154411
0.0128413
0.00925431
0.00475205
0.000603382
0.000436104
0.00317615
0.00605142
0.00843827
0.0103696
0.0118882
0.0130346
0.0138777
0.0144803
0.0149174
0.015259
0.0155432
0.0157539
0.0158386
0.0157682
0.0156769
0.0157474
0.0158993
0.0160701
0.0162871
0.0165745
0.016882
0.0170592
0.016879
0.0161371
0.014648
0.0122331
0.008835
0.00453865
0.000584847
0.000424555
0.00302658
0.00581188
0.00811228
0.00995084
0.0113696
0.0124169
0.013168
0.0136919
0.0140672
0.0143614
0.0146066
0.0147833
0.0148311
0.0147256
0.014577
0.0145661
0.0146455
0.0147561
0.0149322
0.0152094
0.0155485
0.0158084
0.0157565
0.0151908
0.0138958
0.0116817
0.0084762
0.0043613
0.000568238
0.000413415
0.00291471
0.00561123
0.00782302
0.00956434
0.0108778
0.0118244
0.0124848
0.012936
0.0132581
0.0135128
0.0137238
0.0138705
0.0138798
0.0137416
0.0135501
0.0134707
0.0134827
0.0135361
0.0136709
0.0139311
0.0142873
0.0146096
0.0146721
0.0142743
0.0131732
0.0111727
0.00816474
0.00421848
0.00055365
0.000403209
0.00285315
0.00545433
0.00756825
0.0092035
0.010405
0.0112499
0.0118232
0.01221
0.0124894
0.0127147
0.0128997
0.0130203
0.0129994
0.0128334
0.0126097
0.0124786
0.0124289
0.0124277
0.012518
0.0127524
0.0131101
0.0134724
0.0136339
0.0133822
0.0124693
0.0106893
0.00788707
0.00410577
0.000541205
0.000394792
0.00282179
0.00533328
0.0073403
0.00885951
0.00994283
0.0106865
0.0111783
0.0115097
0.0117569
0.0119634
0.0121324
0.0122333
0.0121907
0.0120124
0.0117676
0.0115894
0.0114854
0.0114333
0.0114764
0.0116758
0.0120203
0.0124028
0.0126432
0.0125085
0.0117767
0.0102139
0.00762497
0.00401151
0.000530825
0.000388212
0.00280259
0.00523401
0.00712736
0.00852088
0.00948382
0.010128
0.0105462
0.0108311
0.0110554
0.0112521
0.0114134
0.0115021
0.0114506
0.0112693
0.0110185
0.0108048
0.0106485
0.010546
0.010541
0.010697
0.0110159
0.0114031
0.0116963
0.0116506
0.0110891
0.0097307
0.00736173
0.00392236
0.000522128
0.000383551
0.00279398
0.00514428
0.00691731
0.00817588
0.00902212
0.00957104
0.00992375
0.0101712
0.0103815
0.0105771
0.01074
0.0108274
0.0107781
0.0106017
0.0103526
0.0101157
0.00991242
0.00975557
0.00969941
0.00980556
0.0100885
0.0104651
0.0107886
0.0108154
0.0104029
0.00923518
0.00708479
0.00382643
0.000514735
0.000380814
0.00278545
0.00504831
0.00669505
0.0078167
0.00855122
0.0090141
0.00930845
0.00952761
0.00973242
0.00993548
0.0101089
0.010205
0.0101665
0.0100072
0.00977224
0.00951435
0.00926378
0.00905112
0.00893822
0.00899123
0.00922942
0.00958191
0.00991665
0.0100095
0.00971745
0.00872612
0.00678732
0.00371704
0.000507796
0.00037889
0.00275908
0.00493003
0.00644826
0.00743878
0.00806775
0.00845547
0.0086995
0.00889847
0.0091056
0.00932409
0.00951702
0.00963135
0.00961595
0.00948006
0.00925809
0.00898706
0.00869356
0.008421
0.00824659
0.0082426
0.00842981
0.00874865
0.00908062
0.00923712
0.00902643
0.00820479
0.00647004
0.00359831
0.000501171
0.000376805
0.00271226
0.00478391
0.00617041
0.00704137
0.00757162
0.00789319
0.00809592
0.00828221
0.00849892
0.00874024
0.00896166
0.00910387
0.00911784
0.00901159
0.00881148
0.00852774
0.00818991
0.00785505
0.00761529
0.00755245
0.00768325
0.00796289
0.00828406
0.00848883
0.0083286
0.00767
0.00613698
0.00347357
0.00049472
0.000374702
0.00264728
0.00460829
0.0058623
0.00662391
0.00706687
0.00732513
0.00749577
0.00767746
0.00791153
0.0081839
0.008444
0.00862052
0.00867284
0.00860233
0.00842052
0.0081266
0.00774684
0.00734733
0.00703711
0.00691043
0.00698286
0.00722078
0.00752449
0.00775676
0.0076328
0.00711675
0.00578287
0.00334189
0.000488469
0.000372349
0.00256781
0.00440494
0.00553003
0.00618484
0.00655296
0.00675153
0.00689792
0.0070828
0.00734207
0.00765282
0.00795676
0.0081766
0.00827606
0.00824661
0.00808203
0.00777894
0.00735707
0.00689087
0.00650497
0.00630863
0.00632441
0.00651627
0.00679152
0.00702675
0.00696174
0.00653563
0.00538791
0.00320036
0.000482437
0.000369924
0.00247276
0.00417172
0.00517316
0.00572508
0.00602779
0.00617517
0.00630337
0.00649879
0.00679083
0.00714578
0.00749601
0.00777137
0.00792724
0.00794018
0.00779179
0.00747449
0.00701581
0.0064826
0.00601641
0.00574628
0.00570362
0.00584686
0.00608785
0.00631394
0.00629905
0.00592415
0.00492831
0.00299225
0.000475679
0.000367428
0.00237666
0.00391529
0.00479037
0.00525144
0.00548925
0.00559644
0.00571443
0.00592879
0.00626229
0.00666933
0.00707009
0.00740746
0.00762215
0.00767492
0.00754085
0.00721036
0.00671537
0.00612228
0.00557286
0.00522346
0.00512141
0.00521408
0.00541854
0.00562761
0.00564126
0.00529887
0.00441963
0.00267681
0.000466839
0.000364588
0.00226232
0.00363322
0.00438264
0.00476893
0.00493921
0.00501686
0.00513479
0.00537812
0.00576197
0.00621999
0.00667928
0.00708328
0.00735391
0.0074415
0.00732085
0.00698113
0.00644869
0.00581103
0.00517903
0.00474244
0.00457293
0.00461626
0.00478803
0.00497849
0.00500154
0.0046735
0.00386142
0.00225748
0.000454388
0.000361473
0.00213591
0.00332364
0.00395203
0.00427546
0.00438461
0.00444171
0.00457087
0.00485305
0.00529054
0.00579554
0.00632662
0.00679635
0.00711183
0.00722627
0.00711823
0.00677641
0.00622625
0.0055338
0.00484101
0.00430574
0.00405898
0.00405669
0.00419772
0.00437173
0.00439708
0.00407748
0.00330035
0.00180238
0.000436284
0.000356054
0.00196082
0.00298085
0.00350709
0.00376555
0.00383105
0.00387845
0.0040324
0.00436467
0.00485012
0.00541167
0.00601735
0.00653541
0.00688145
0.00701539
0.00692296
0.00658964
0.00603428
0.00530152
0.00455899
0.00392607
0.00358933
0.00353496
0.00364515
0.00380818
0.00384568
0.00354738
0.00282139
0.0014524
0.0004131
0.000349362
0.0017314
0.00260882
0.00305528
0.00324571
0.00328314
0.00333763
0.00353143
0.00392056
0.00444613
0.00508426
0.00574822
0.006292
0.00665433
0.00680247
0.00672613
0.00641122
0.00586582
0.00512724
0.00431392
0.00361982
0.00317363
0.00305391
0.00313465
0.00328603
0.00334475
0.00310622
0.00244982
0.00121607
0.000386979
0.00033983
0.00146073
0.00222025
0.00260147
0.00273071
0.00275561
0.00283426
0.00308065
0.00352442
0.00410475
0.00481558
0.00550964
0.00606035
0.00642539
0.00658213
0.00652227
0.00623321
0.00571351
0.0049907
0.00413777
0.0033898
0.00283266
0.00262349
0.00266603
0.00280063
0.00289259
0.0027346
0.00219088
0.00107664
0.000360055
0.000327604
0.00121693
0.00184804
0.00216614
0.00224118
0.002267
0.00238557
0.00269691
0.00318157
0.0038489
0.00460267
0.00529284
0.00583541
0.00619467
0.00635687
0.00631346
0.00605313
0.00557
0.0048834
0.00404433
0.00321518
0.00259259
0.0022625
0.00224876
0.00237133
0.0024856
0.00240846
0.00200312
0.00101045
0.000335002
0.00031363
0.00103098
0.00151049
0.00176382
0.00179975
0.00183864
0.00200878
0.00237803
0.00292493
0.00366197
0.00442576
0.00509532
0.00561774
0.0059667
0.00613152
0.00610254
0.00587015
0.00542779
0.00478943
0.00399017
0.00312274
0.00243942
0.00198831
0.00188569
0.00199159
0.00212724
0.00209385
0.00185013
0.000988168
0.000313217
0.000298369
0.000871447
0.00120405
0.00139987
0.0014151
0.00147719
0.00171054
0.00211498
0.00275425
0.00351884
0.0042669
0.00490782
0.00540629
0.00574306
0.00590753
0.00589013
0.00568256
0.00528137
0.00469282
0.00394493
0.00309801
0.00232454
0.00180275
0.00158144
0.00164082
0.00179122
0.00181375
0.0017085
0.000985117
0.000295795
0.000282255
0.000720049
0.000955107
0.00106452
0.00108218
0.00118623
0.00145855
0.00192158
0.00262703
0.00340077
0.00412214
0.00473618
0.0052136
0.00553859
0.00570075
0.00569156
0.00550434
0.00513683
0.00459479
0.00389365
0.00308046
0.00225388
0.0016694
0.00133937
0.00133022
0.00147016
0.00158023
0.00155877
0.000980047
0.00028352
0.000265523
0.000565888
0.000742599
0.000786311
0.00081109
0.000956174
0.001243
0.00177828
0.0025309
0.0033001
0.00400363
0.00459676
0.0050565
0.00536989
0.00552787
0.00552374
0.005352
0.00501071
0.00450358
0.00384335
0.00305342
0.00221409
0.00154621
0.00115819
0.00107517
0.00119352
0.00134849
0.00138932
0.000955568
0.000274038
0.000246944
0.000430275
0.000563109
0.000564401
0.000604175
0.000764564
0.0010602
0.00166985
0.00244908
0.00321642
0.00390641
0.00448202
0.00492552
0.00522741
0.00538031
0.00537935
0.00521951
0.00489848
0.00441796
0.00378606
0.00302256
0.00217012
0.00143115
0.0010211
0.000873504
0.00096623
0.00111612
0.00118424
0.000901727
0.000266802
0.000228182
0.000330121
0.000392961
0.00039454
0.000453579
0.000601207
0.000900618
0.0015776
0.00237323
0.00314521
0.00382667
0.00438889
0.00481925
0.00511091
0.00525817
0.00525806
0.00510586
0.00479923
0.00433819
0.00372653
0.00297863
0.00212149
0.00131272
0.000899934
0.000710604
0.000777862
0.000921258
0.000948737
0.000836152
0.000258827
0.000209677
0.000252867
0.000268801
0.000279755
0.00034754
0.000472048
0.000761089
0.00148487
0.00231333
0.00309436
0.00376921
0.00431878
0.0047365
0.00501864
0.00516088
0.00516159
0.00501581
0.00472034
0.00427296
0.00367352
0.00292946
0.00207185
0.00119333
0.00076802
0.00057515
0.000596303
0.000689131
0.000767434
0.00068489
0.000249
0.00019067
0.000201359
0.00020561
0.000215287
0.000275494
0.000376637
0.000650238
0.00140683
0.00227383
0.00306049
0.00372599
0.00426155
0.00466628
0.00493966
0.0050783
0.00508077
0.00494189
0.00465764
0.00422388
0.00363624
0.00289466
0.00202226
0.00108005
0.000634667
0.000458809
0.000443301
0.000500503
0.000565795
0.000487165
0.000236757
0.000174504
0.000178296
0.000179493
0.000183643
0.000230044
0.000312527
0.000570755
0.00135087
0.00223201
0.00300991
0.00366227
0.00418541
0.00458031
0.00484927
0.00498819
0.00499434
0.00486426
0.0045939
0.00417762
0.0036071
0.0028752
0.00198825
0.000988403
0.000517834
0.000363183
0.000325159
0.000354317
0.000382552
0.000322548
0.000222328
0.000162548
0.000167187
0.000166026
0.000163166
0.000200009
0.000269273
0.000523219
0.00130351
0.00216384
0.00292509
0.00356435
0.00407941
0.00447051
0.00473998
0.00488154
0.00489227
0.00477011
0.00451148
0.00411095
0.00356047
0.00285088
0.00197395
0.000936486
0.000432311
0.000295505
0.000247169
0.000264573
0.000261974
0.000242587
0.000205623
0.000151773
0.000152293
0.000149403
0.000146489
0.000184246
0.000246175
0.000508789
0.00128343
0.00211385
0.00285254
0.00347584
0.00398152
0.00436674
0.00463247
0.00477415
0.00478875
0.00467455
0.00442938
0.00404764
0.00352191
0.00283961
0.00199299
0.00097305
0.000383836
0.000253734
0.000200505
0.00021814
0.000213393
0.000210057
0.000190329
0.000139136
0.000134289
0.000134427
0.00013625
0.000175231
0.000229404
0.000532964
0.00131637
0.0021115
0.0028201
0.003421
0.00391011
0.00428106
0.00453286
0.0046705
0.00468857
0.00458551
0.00435751
0.00400057
0.00351015
0.00287284
0.00208212
0.00110802
0.000382116
0.000223984
0.000169116
0.000189576
0.00019115
0.000195172
0.000177898
0.000124991
0.000121902
0.000119177
0.000119175
0.000150866
0.000238023
0.000644563
0.0014309
0.00217545
0.00284358
0.00340874
0.00386476
0.00420911
0.00444335
0.00457298
0.00459491
0.00450698
0.00430227
0.00397779
0.00352845
0.00294685
0.00218189
0.00125693
0.000459649
0.000208115
0.000144739
0.000154722
0.000174081
0.000180237
0.000166594
0.000110907
0.000107059
9.36931e-05
0.00010212
0.000145516
0.000309392
0.000803826
0.00157165
0.00229505
0.00290903
0.003424
0.0038363
0.00414729
0.00436465
0.00448672
0.00451276
0.00444236
0.00426733
0.00398319
0.0035806
0.00304448
0.00235743
0.00153115
0.000608453
0.000247267
0.000150629
0.000117337
0.000140486
0.000162846
0.000154486
9.77356e-05
8.51439e-05
8.5504e-05
0.000119666
0.000190915
0.000431503
0.00107499
0.00177114
0.00241989
0.00298264
0.00344632
0.00381597
0.00409648
0.00429564
0.00441311
0.00444369
0.0043897
0.00424694
0.00400686
0.00365855
0.00319579
0.00262931
0.0019293
0.00104134
0.000373932
0.000192847
0.000128606
0.000104281
0.000132381
0.000141043
8.71331e-05
8.52182e-05
0.000117299
0.000161852
0.000279362
0.000714632
0.00132517
0.00195295
0.00254636
0.00305219
0.00346679
0.00379682
0.00405224
0.00423519
0.00434659
0.00438242
0.00434626
0.00423375
0.00403918
0.00375049
0.00337083
0.00288698
0.0023017
0.00166243
0.000890316
0.000344276
0.000183413
0.000121523
0.000101658
0.000124388
8.2135e-05
0.000115123
0.000176215
0.000287497
0.000567401
0.001072
0.00160367
0.00215345
0.00267674
0.00312585
0.00349181
0.00378371
0.00401472
0.00418268
0.0042865
0.00432872
0.00430905
0.00422504
0.00407129
0.00384044
0.00353251
0.00311911
0.00262088
0.00209746
0.00158754
0.000973282
0.00040983
0.000192765
0.0001162
0.000106765
8.21687e-05
0.000191877
0.000431754
0.000734026
0.00108235
0.00147917
0.00192116
0.00237328
0.00281613
0.0032028
0.00352277
0.00378059
0.0039863
0.00413897
0.00423658
0.00428274
0.00427586
0.00421573
0.00409651
0.00391521
0.00365052
0.00331647
0.00288026
0.00243191
0.00202858
0.00159894
0.00110035
0.000499556
0.000177391
9.78891e-05
8.7028e-05
0.000462563
0.000919439
0.00126735
0.00158161
0.00191733
0.00227278
0.00261481
0.00297569
0.00328446
0.00355628
0.00378509
0.00396815
0.00410581
0.00419722
0.00424366
0.004245
0.00420196
0.00411352
0.00396471
0.00374639
0.00347096
0.00309377
0.00270971
0.00238011
0.00201354
0.00159609
0.00107375
0.00041581
9.91819e-05
0.00010098
0.000714347
0.00126426
0.00168037
0.00201148
0.00231825
0.00261505
0.00288649
0.00311581
0.00338463
0.00360803
0.00380511
0.00396533
0.00408708
0.00416999
0.00421417
0.00421952
0.00418688
0.00411852
0.00400564
0.00382862
0.00357195
0.00326332
0.00292255
0.00264285
0.00233995
0.00195237
0.00143234
0.000733779
0.000110554
0.000114861
0.000805401
0.00147344
0.00196553
0.00232446
0.00261744
0.00287384
0.00309994
0.00330007
0.0035009
0.00368761
0.00384779
0.00398229
0.00408807
0.00416099
0.00420134
0.00420816
0.00418171
0.00412398
0.00403654
0.0038944
0.00368737
0.0033997
0.00311261
0.00285821
0.00261132
0.00224511
0.00170668
0.000925922
0.000127727
0.000120855
0.000780339
0.00154699
0.00210145
0.00249443
0.00279834
0.00304347
0.00325297
0.00342743
0.00359634
0.00376786
0.00391263
0.004028
0.00411689
0.00418016
0.00421642
0.00422376
0.00420152
0.0041508
0.00407444
0.003953
0.00377782
0.00357324
0.00337425
0.00311162
0.00284951
0.00249328
0.00194857
0.00109811
0.000142245
0.00012393
0.000756381
0.00154956
0.00213274
0.00255796
0.00287559
0.00311971
0.00330814