/*--------------------------------*- C++ -*----------------------------------*\
| =========                 |                                                 |
| \\      /  F ield         | OpenFOAM: The Open Source CFD Toolbox           |
|  \\    /   O peration     | Version:  v1606+                                |
|   \\  /    A nd           | Web:      www.OpenFOAM.com                      |
|    \\/     M anipulation  |                                                 |
\*---------------------------------------------------------------------------*/
FoamFile
{
    version     2.0;
    format      ascii;
    class       volScalarField;
    location    "0.75";
    object      Theta.particles;
}
// * * * * * * * * * * * * * * * * * * * * * * * * * * * * * * * * * * * * * //

dimensions      [0 2 -2 0 0 0 0];

internalField   nonuniform List<scalar> 
6000
(
0.000732477
0.000535453
0.000559771
0.000590889
0.000616888
0.000649881
0.000635473
0.00051683
0.000426846
0.000426566
0.000452239
0.000526551
0.000542149
0.000563115
0.00058215
0.000591748
0.000585779
0.000563158
0.000560907
0.000454475
0.000426891
0.00043045
0.000514048
0.000621165
0.000627336
0.000595352
0.000574353
0.000549759
0.000523309
0.000722038
0.000256976
0.000246997
0.00025303
0.000261378
0.000266421
0.000271748
0.00027295
0.000259147
0.000239047
0.000218241
0.000209755
0.000210441
0.000211687
0.000213765
0.000214864
0.00021737
0.000217205
0.00021283
0.000212125
0.000208875
0.000217267
0.000239074
0.000257473
0.000271172
0.000271208
0.000267083
0.000262764
0.000254875
0.000248965
0.000257871
0.000489418
0.000403658
0.000432494
0.000489598
0.000555262
0.000603736
0.000644783
0.000614892
0.000417532
0.000282008
0.000256415
0.000253415
0.000252334
0.000270105
0.000294651
0.000285508
0.000264893
0.000252178
0.000252523
0.000253493
0.000281159
0.000414536
0.000613829
0.000648878
0.000607547
0.000557539
0.000495632
0.000442102
0.000412981
0.000497857
0.000313173
0.000252752
0.000282895
0.000337192
0.000386401
0.000427071
0.000484511
0.000543427
0.000460074
0.000285917
0.000217718
0.000212998
0.000236518
0.000306793
0.000379717
0.000367438
0.000282847
0.000225439
0.000207864
0.000213144
0.0002828
0.000464996
0.000550187
0.000484706
0.000425433
0.000384866
0.000336467
0.000282781
0.000252514
0.000311129
0.000215379
0.000172671
0.000203166
0.000265962
0.000329936
0.000381629
0.000423515
0.000450696
0.00043647
0.000348812
0.000243852
0.000255387
0.000396502
0.000596442
0.000604006
0.00063852
0.000571889
0.00034692
0.000236892
0.000236946
0.000348099
0.000437481
0.000451505
0.000422638
0.000380216
0.000328459
0.000265036
0.00020195
0.000169784
0.00021164
0.000140705
0.000116364
0.000140391
0.000195601
0.000274695
0.000345968
0.000392048
0.000418896
0.000409761
0.000319212
0.000237951
0.000335168
0.000473362
0.000488449
0.00045297
0.00048205
0.000551679
0.000490525
0.000296864
0.000221226
0.000314399
0.000409302
0.000420167
0.000394528
0.000347474
0.000273987
0.000195081
0.000138977
0.000114095
0.000139535
0.000103548
8.96427e-05
0.000101672
0.000138376
0.00021224
0.000319171
0.000399269
0.000428531
0.000435946
0.000354923
0.000290175
0.00037883
0.000379632
0.000345002
0.000308314
0.00032119
0.000378293
0.000417318
0.000407455
0.000257011
0.000344985
0.000440928
0.000435671
0.000404903
0.000319913
0.000211142
0.000137512
0.000100412
8.79264e-05
0.000104779
7.8952e-05
7.33077e-05
7.69865e-05
9.5223e-05
0.000141992
0.000239266
0.000374066
0.000441438
0.000451812
0.000413162
0.000403256
0.000350851
0.00033703
0.000270805
0.000210553
0.000222863
0.000273275
0.000309719
0.000367863
0.000375556
0.000400182
0.00046883
0.000456837
0.000380721
0.000238708
0.000140955
9.47321e-05
7.65337e-05
7.28485e-05
8.12549e-05
7.54566e-05
7.06334e-05
6.90284e-05
7.44268e-05
9.89017e-05
0.000164923
0.000308042
0.000417667
0.000444863
0.000458793
0.000472611
0.000395268
0.000344127
0.000231797
0.000160762
0.000167769
0.000226446
0.000278777
0.000354734
0.000460913
0.000455524
0.000481966
0.00044817
0.000312992
0.00016411
9.84042e-05
7.43224e-05
6.92594e-05
7.09363e-05
7.686e-05
7.9883e-05
7.59307e-05
7.20794e-05
7.21544e-05
7.76332e-05
0.000120107
0.000240062
0.000352488
0.000407029
0.000462485
0.000542193
0.000485997
0.000351167
0.000193523
0.000132273
0.00013124
0.000180341
0.000289335
0.000371348
0.00052226
0.000491089
0.000460406
0.000386929
0.000237639
0.000117359
7.73463e-05
7.2242e-05
7.2332e-05
7.64297e-05
8.12001e-05
8.63104e-05
8.0948e-05
7.51769e-05
7.2259e-05
7.5208e-05
0.000101257
0.000196988
0.000276142
0.000352344
0.000477746
0.000658059
0.000569461
0.000327486
0.000160567
0.000115778
0.000112554
0.000140155
0.00026986
0.000421817
0.00062088
0.000520765
0.000413725
0.000303099
0.000182387
9.6161e-05
7.42661e-05
7.22261e-05
7.57047e-05
8.22295e-05
8.82193e-05
9.64544e-05
8.74068e-05
7.82253e-05
7.20024e-05
7.34071e-05
9.84367e-05
0.000168487
0.000209658
0.000296253
0.000489425
0.00074278
0.000621306
0.000301911
0.000132281
0.000100606
9.74402e-05
0.000110007
0.000228713
0.000464017
0.000704783
0.000556213
0.000373017
0.00022906
0.000148421
9.27372e-05
7.2902e-05
7.24493e-05
7.96743e-05
8.99501e-05
9.99714e-05
0.000120128
0.000109445
8.36235e-05
7.21893e-05
7.34067e-05
9.74388e-05
0.000143843
0.000159086
0.000239481
0.000473548
0.000743691
0.000611303
0.000291485
0.0001173
9.25173e-05
8.38623e-05
8.75393e-05
0.000194647
0.000477519
0.000690237
0.000586642
0.000352505
0.000172291
0.000124289
9.09837e-05
7.32986e-05
7.305e-05
8.6193e-05
0.000115775
0.000134151
0.000703069
0.000486824
0.00010052
7.27803e-05
7.07068e-05
8.6277e-05
0.000112987
0.000122495
0.000199198
0.000431346
0.000668386
0.000569281
0.000321979
0.000162002
0.000129236
0.00010761
9.76073e-05
0.00015588
0.000456405
0.000631864
0.000595113
0.000327395
0.000143946
9.71045e-05
7.68299e-05
6.91672e-05
7.12245e-05
9.75201e-05
0.000431284
0.00056458
0.000602678
0.000494954
0.000366693
8.08366e-05
6.82434e-05
8.00291e-05
9.93096e-05
0.000101015
0.000169124
0.000365358
0.000537104
0.000525809
0.000436894
0.000680418
0.000407775
0.000261273
0.000180964
0.000280567
0.00041579
0.000548659
0.000554759
0.000312848
0.000147191
9.03691e-05
7.22453e-05
6.21768e-05
6.4898e-05
0.000288688
0.000367259
0.000430843
0.000297787
0.000200833
0.000303745
0.000183733
9.13119e-05
0.000126392
0.000202071
0.000240815
0.000160364
0.000295303
0.000455488
0.000573669
0.00102322
0.00102555
0.000837858
0.000642676
0.000434781
0.000678306
0.000469637
0.000497473
0.000460001
0.000312977
0.000193568
0.000147661
0.000101329
6.5663e-05
0.000111847
0.000241013
0.000177889
0.000234394
0.000239155
0.000167253
0.00015338
0.000244957
0.000218022
0.000557756
0.000871426
0.00098466
0.000491717
0.000397736
0.000701481
0.00140214
0.00174505
0.00100471
0.000527096
0.00038195
0.000640235
0.00112176
0.000949497
0.000533354
0.00045595
0.000395677
0.000500548
0.000694798
0.000232291
0.000118201
0.000166121
0.000141188
0.000152103
0.000192956
0.000186682
0.000147084
0.00013455
0.000160756
0.000312057
0.000399783
0.000505574
0.000958949
0.00142776
0.00110192
0.0014028
0.00185855
0.00126228
0.000677446
0.000444219
0.000326349
0.000408082
0.000887727
0.00196238
0.000942041
0.000777735
0.00100869
0.00133416
0.00070322
0.000366811
0.000192022
0.00012623
0.000123558
0.000137199
0.00016647
0.000138074
0.000122521
0.000113263
0.000121988
0.00013977
0.00014875
0.000280079
0.000468849
0.00104145
0.00124931
0.00114145
0.00107553
0.000738541
0.000594083
0.000433826
0.000348985
0.000413747
0.000714834
0.0014375
0.00124421
0.00112666
0.00142697
0.00101432
0.000451271
0.000258868
0.000181579
0.000106371
0.000111458
0.000125122
0.000148495
9.05271e-05
9.1433e-05
8.42515e-05
8.03882e-05
7.80445e-05
9.79118e-05
0.000170038
0.000298517
0.000458608
0.00068877
0.000646969
0.000627166
0.000622039
0.000560598
0.000428952
0.000376653
0.000466864
0.000714945
0.0010737
0.0012192
0.00107787
0.00115921
0.000668797
0.000336018
0.0001438
0.000110163
9.36174e-05
9.99009e-05
0.000117441
0.000135787
6.89261e-05
7.25164e-05
6.43429e-05
5.7438e-05
5.6959e-05
7.29019e-05
9.55752e-05
0.000161001
0.000278629
0.000398607
0.000502422
0.000549229
0.00056588
0.000530907
0.0004321
0.000395628
0.000504432
0.000744251
0.00112422
0.00119447
0.00111332
0.000900146
0.000533542
0.000212602
9.50516e-05
6.42696e-05
7.02867e-05
8.89509e-05
0.000108675
0.000127807
7.90256e-05
7.87625e-05
6.86547e-05
5.72528e-05
5.26102e-05
6.16916e-05
7.32773e-05
9.26812e-05
0.00015532
0.000259153
0.000380382
0.000457402
0.000490975
0.000480679
0.000425059
0.000388342
0.000529895
0.000816492
0.00118994
0.00121936
0.00121771
0.00084317
0.000442745
0.000161846
6.66276e-05
4.93892e-05
6.05357e-05
7.94053e-05
9.26561e-05
0.000114661
8.977e-05
9.07731e-05
8.42883e-05
7.99219e-05
7.55455e-05
7.10614e-05
6.9058e-05
7.71047e-05
9.61957e-05
0.000144553
0.000262443
0.000344707
0.000385898
0.000402265
0.000378355
0.000386022
0.000554238
0.000901889
0.00128909
0.00136799
0.00123428
0.000806357
0.000371678
0.000129622
5.57349e-05
4.56113e-05
5.5658e-05
6.96204e-05
7.6949e-05
9.36879e-05
9.61369e-05
9.54971e-05
9.40861e-05
9.38505e-05
9.38052e-05
9.58316e-05
9.29179e-05
8.28786e-05
8.51572e-05
0.000104092
0.000151597
0.000217578
0.000290872
0.00027914
0.000298827
0.000387014
0.000593987
0.000987318
0.00130765
0.00145319
0.00120486
0.000735345
0.000319654
0.000108958
5.053e-05
4.55696e-05
5.30695e-05
6.13581e-05
6.48615e-05
7.2393e-05
9.58934e-05
9.75729e-05
0.00010026
0.000107705
0.000113468
0.000116913
0.000114535
0.000112122
9.77826e-05
9.28474e-05
0.000110051
0.000155376
0.000198057
0.000218823
0.000263254
0.000382937
0.000631273
0.00109759
0.00136711
0.00139796
0.00114017
0.00069083
0.000293495
9.34607e-05
4.75639e-05
4.77189e-05
5.11949e-05
5.51494e-05
5.68493e-05
5.69977e-05
8.58841e-05
9.10299e-05
9.96795e-05
0.000115515
0.000129475
0.000146822
0.000140266
0.000131192
0.000124539
0.000106102
9.36906e-05
0.000105088
0.000134856
0.000152337
0.000222967
0.000377746
0.000717963
0.00111716
0.00136713
0.00128891
0.00105426
0.000678399
0.000293634
8.59574e-05
5.44823e-05
5.25143e-05
5.30736e-05
5.29093e-05
5.14486e-05
4.93459e-05
7.51252e-05
7.89923e-05
8.13419e-05
8.88036e-05
0.000117065
0.00014778
0.000157828
0.000150164
0.000138663
0.000126923
0.000103566
8.28304e-05
8.27692e-05
0.00010474
0.000165911
0.000368123
0.000729824
0.0010608
0.00121239
0.00115871
0.000970317
0.000681561
0.000330459
0.000186309
9.38099e-05
5.15285e-05
5.57101e-05
5.37458e-05
5.16731e-05
5.02724e-05
7.87215e-05
7.82955e-05
7.91228e-05
9.23394e-05
0.00012382
0.000158642
0.000157536
0.000159889
0.000151049
0.000136833
0.00011991
8.97122e-05
6.48823e-05
8.9069e-05
0.000135083
0.000342246
0.000636271
0.00090842
0.00101059
0.00101334
0.000912187
0.000687191
0.000508091
0.000413871
5.56387e-05
5.64491e-05
5.71971e-05
5.59279e-05
5.39094e-05
5.27722e-05
9.35132e-05
9.56959e-05
9.35013e-05
0.000110832
0.000207457
0.000278449
0.000173
0.000135846
0.000155025
0.000147096
0.000131531
0.000111403
8.13287e-05
9.85126e-05
0.000123426
0.000286658
0.000501702
0.000708804
0.000838055
0.000898046
0.000873707
0.000726263
0.000631858
0.000487911
5.73074e-05
5.63596e-05
5.83744e-05
5.76844e-05
5.61302e-05
5.56248e-05
0.000126116
0.000121578
0.000109589
0.000131795
0.00027421
0.00028919
0.000191508
0.000140608
0.000131171
0.00015216
0.000145379
0.000135226
0.000117602
0.000122519
0.000141519
0.000215009
0.000367431
0.000520752
0.000679358
0.000801278
0.000856499
0.000784076
0.000800312
0.000625815
6.22615e-05
6.04545e-05
6.07456e-05
6.03576e-05
5.9385e-05
5.93237e-05
0.000120991
0.000135663
0.00014271
0.000173462
0.00025576
0.000220578
0.00019383
0.000141058
0.000122827
0.000139358
0.000152605
0.000152773
0.000148664
0.000154529
0.000226242
0.000158805
0.000222554
0.000337419
0.000534496
0.000716868
0.000835781
0.000832592
0.00077266
0.000728994
0.000136304
7.18405e-05
6.84942e-05
6.63031e-05
6.51266e-05
6.51372e-05
0.000102043
0.000134743
0.000177174
0.000184144
0.00020822
0.000184192
0.000174291
0.00013618
0.000114696
0.000124266
0.000147751
0.000158284
0.000162619
0.000169035
0.000309666
0.000257798
0.000250929
0.000237613
0.000351284
0.000646527
0.000808013
0.000840509
0.0007325
0.000709113
0.000553759
9.49183e-05
8.23161e-05
7.76724e-05
7.46785e-05
7.42876e-05
9.5002e-05
0.000131332
0.00017832
0.000189925
0.000188898
0.000165752
0.000145083
0.000121221
0.000105606
0.000109678
0.000136651
0.00015376
0.000161565
0.000166423
0.000198962
0.000248037
0.000207324
0.000262936
0.000304138
0.000478805
0.000728881
0.000773206
0.000714115
0.000528807
0.000581639
0.000328263
0.00011481
0.000100821
9.05379e-05
8.81191e-05
0.000126863
0.000137264
0.00015871
0.000190182
0.000190914
0.000155873
0.000132517
0.000113789
0.000100005
0.000105782
0.000127667
0.000146801
0.00015761
0.0001602
0.00016748
0.000165225
0.000152512
0.000183173
0.000283756
0.000367777
0.000559747
0.000592665
0.000584364
0.000510677
0.000404524
0.000371634
0.000294109
0.00014424
0.000113831
0.000105024
0.000227735
0.000201739
0.00021901
0.000231545
0.000225603
0.000197165
0.000191514
0.000193058
0.000134956
0.000119072
0.000126547
0.000142459
0.00015299
0.00015545
0.000161131
0.000163276
0.000149624
0.000148842
0.000206835
0.000313837
0.000456055
0.000491506
0.000486167
0.000463849
0.000385296
0.000294805
0.000307911
0.000280631
0.000146352
0.000121251
0.000636358
0.000971443
0.00137288
0.00124955
0.00145908
0.00230689
0.0037104
0.00262547
0.000393638
0.000169907
0.000130683
0.000140847
0.000151669
0.000154253
0.000164503
0.000267268
0.00020799
0.000225011
0.00024817
0.000401458
0.000428412
0.000424889
0.000402771
0.000386597
0.000346009
0.000275491
0.000238593
0.000270486
0.000245987
0.00017951
0.00280938
0.00338052
0.00367662
0.00414189
0.0046112
0.00445669
0.00366073
0.0045255
0.0043301
0.00127972
0.000203282
0.000140706
0.000149267
0.000156244
0.000157242
0.00028109
0.000502236
0.000683375
0.00098833
0.00156336
0.000807219
0.000474215
0.00039524
0.000351618
0.000311245
0.000269705
0.00024258
0.000280766
0.000461116
0.00107022
0.0122888
0.00346516
0.00206603
0.00218623
0.00165165
0.00111726
0.000847452
0.000751807
0.00156074
0.00415161
0.00217437
0.000281249
0.000146073
0.000144108
0.000135996
0.00015269
0.00037179
0.00109003
0.00288723
0.00445728
0.00495778
0.00277339
0.00148029
0.000969522
0.000714241
0.000580609
0.000588118
0.00110038
0.00274715
0.00367528
0.0138495
0.00312913
0.00164584
0.00144179
0.00117944
0.000921014
0.000741321
0.000613351
0.000515737
0.000666511
0.00324329
0.00244006
0.00029594
0.000134431
0.000114464
0.000107541
0.000174445
0.000460707
0.00141494
0.00186903
0.00521411
0.00668404
0.00626425
0.00531713
0.00447372
0.00385145
0.0037727
0.00440075
0.00423385
0.00909804
0.0123841
0.00309597
0.00172138
0.00147459
0.00117755
0.000907933
0.000721177
0.000592206
0.000487785
0.000410066
0.000410536
0.00221511
0.00193921
0.000145072
9.54983e-05
7.44172e-05
8.85084e-05
0.0003074
0.000782258
0.000940645
0.00140798
0.0022794
0.00349352
0.0042264
0.00447725
0.00445779
0.00424706
0.00360708
0.00333184
0.0105848
0.0113538
0.00303706
0.00174977
0.00148998
0.00118
0.000903733
0.000714104
0.000583357
0.000475745
0.000393921
0.000325207
0.00031202
0.00110138
0.000357229
7.2872e-05
4.95751e-05
4.52718e-05
0.000289219
0.000597561
0.000672234
0.00090337
0.00113958
0.00137819
0.0015912
0.00176556
0.00194441
0.00210522
0.00221672
0.00329405
0.0096073
0.0103474
0.00297151
0.00178502
0.00152046
0.0011955
0.000908988
0.00071468
0.000580671
0.000464349
0.000373154
0.000306084
0.000247895
0.000320542
0.000571573
6.22403e-05
3.62927e-05
3.02007e-05
0.000491001
0.000436893
0.000504136
0.000704974
0.00097039
0.001243
0.00147122
0.00166455
0.00186426
0.00212337
0.00235682
0.00335542
0.00859721
0.00937728
0.00287794
0.00181327
0.00155018
0.00122022
0.000933113
0.000734753
0.000585341
0.000460551
0.000353457
0.000279224
0.000228029
0.000239618
0.000595483
8.13149e-05
3.18165e-05
6.49326e-05
0.000605294
0.000324818
0.000388922
0.000552677
0.000810298
0.00112528
0.00142284
0.00167153
0.00192372
0.00222476
0.00249281
0.00341201
0.00771219
0.00832834
0.00274486
0.00184674
0.00158328
0.00124691
0.000963663
0.000764621
0.000604151
0.000459024
0.000340457
0.000258785
0.000206545
0.000182053
0.000314128
0.000194454
4.38525e-05
0.000307591
0.000287758
0.000244134
0.000313575
0.000445466
0.0006948
0.0010305
0.00136906
0.00166396
0.00196002
0.00230963
0.00261759
0.00343858
0.0069322
0.00713756
0.00261124
0.00188244
0.00161559
0.00127523
0.000998522
0.00079401
0.000619818
0.000460719
0.000329081
0.000245486
0.000194355
0.000163125
0.000204547
0.000358201
8.34761e-05
0.000446347
0.000177947
0.000212256
0.000256705
0.000368872
0.000606248
0.000950375
0.00132376
0.00165785
0.00198032
0.00237154
0.00275102
0.00344613
0.00614823
0.00601917
0.00250088
0.00190444
0.00164059
0.00130487
0.00102966
0.000820334
0.000633847
0.000462106
0.000323525
0.000230084
0.000180032
0.000154104
0.000161161
0.000330416
0.000178414
0.000129087
0.000136283
0.000179734
0.000217076
0.000312035
0.000527816
0.000872714
0.00128533
0.00165562
0.00200037
0.00240917
0.0028565
0.00342363
0.00545373
0.00503027
0.00243068
0.0019216
0.00165522
0.00132066
0.00105184
0.000839904
0.000640932
0.000462628
0.000315276
0.000221023
0.000168929
0.000144489
0.000139834
0.000203729
0.000192633
6.95051e-05
0.000118865
0.000153833
0.00018486
0.000267562
0.000459163
0.000786022
0.00123366
0.00165497
0.00201872
0.00243594
0.00294352
0.00340744
0.00485479
0.00423842
0.00236461
0.00192983
0.001659
0.00132627
0.00106802
0.000851593
0.000643671
0.000460986
0.000310702
0.000210225
0.000160227
0.000136221
0.000131495
0.000176335
0.000115794
6.52747e-05
9.78535e-05
0.000136361
0.000162052
0.000231479
0.000400398
0.000700933
0.00115521
0.00164703
0.00204403
0.00245739
0.0029997
0.00343145
0.00438119
0.00380556
0.00232297
0.00193904
0.00165793
0.00132733
0.00107824
0.000855984
0.000643681
0.000454137
0.000302564
0.000201275
0.000150602
0.000128265
0.000122321
0.000164993
0.00010558
6.50039e-05
8.53331e-05
0.000124631
0.000145411
0.000203765
0.00034711
0.000617576
0.00104859
0.00159937
0.00205606
0.00248021
0.00302399
0.00350633
0.00403269
0.00365656
0.00230511
0.00194938
0.00163631
0.00132367
0.00108481
0.000856783
0.00063584
0.000444285
0.000293059
0.000192605
0.00014285
0.000122633
0.000114809
0.000160114
0.00011385
6.3666e-05
8.01256e-05
0.000112974
0.000132932
0.000181237
0.000303772
0.000540148
0.000938892
0.00150203
0.00204885
0.00248745
0.00302785
0.0035821
0.00382746
0.00362436
0.00229781
0.00194992
0.00160172
0.00132318
0.00108669
0.000846102
0.000615237
0.00042458
0.000281161
0.000183309
0.000134496
0.000114669
0.000111534
0.000139061
0.000105302
6.57923e-05
7.82802e-05
0.000106237
0.000122941
0.000161357
0.00026427
0.000473369
0.000831133
0.0013772
0.00198765
0.00247114
0.00299555
0.0036112
0.00371175
0.00366218
0.00228024
0.00192055
0.00158043
0.00132414
0.00107685
0.000815035
0.000584414
0.000400854
0.00026757
0.000175033
0.000127141
0.000107065
0.000107725
0.000126523
9.79554e-05
6.62002e-05
7.45501e-05
9.8597e-05
0.000114427
0.000145372
0.000230401
0.000411198
0.000734237
0.00124586
0.00189133
0.00243168
0.0029467
0.00361556
0.00365337
0.00370314
0.00223345
0.00186398
0.00155801
0.00131259
0.00103929
0.000770264
0.000544991
0.000375298
0.000253049
0.00016644
0.000119858
0.000100394
0.000103448
0.000122256
9.17245e-05
6.46989e-05
7.01343e-05
9.12328e-05
0.0001068
0.000131858
0.000201681
0.000356213
0.000644699
0.00112178
0.0017744
0.00237242
0.00287794
0.00355675
0.00359935
0.00369148
0.0021778
0.00179359
0.0015206
0.00127248
0.000982865
0.000717245
0.000505751
0.000350112
0.000237872
0.000158983
0.000113881
9.34278e-05
9.81874e-05
0.000119249
9.06097e-05
6.18363e-05
6.47731e-05
8.12884e-05
9.96823e-05
0.000120946
0.000177821
0.000309461
0.000561609
0.00100034
0.00164273
0.00230037
0.0027941
0.00346582
0.00353989
0.0036533
0.00208921
0.00169496
0.00147289
0.00121498
0.000919399
0.000662621
0.000465004
0.00032333
0.000223379
0.00015214
0.000109342
8.65869e-05
9.25583e-05
0.000101837
8.47313e-05
6.29684e-05
6.29304e-05
7.10516e-05
9.10748e-05
0.000111797
0.000159379
0.000270825
0.000489684
0.000884725
0.00150814
0.00223417
0.00275303
0.0033253
0.00349252
0.00357812
0.00195561
0.00160736
0.00142296
0.00114349
0.000846853
0.000604245
0.000423184
0.000297168
0.000208628
0.000144837
0.000102837
8.43108e-05
8.97301e-05
9.4008e-05
7.7394e-05
6.24278e-05
6.2097e-05
6.69796e-05
7.9881e-05
0.000103535
0.000145016
0.000240702
0.00043122
0.000779298
0.0013661
0.00215674
0.00276085
0.00317981
0.00338936
0.00337072
0.00183497
0.00155765
0.00135387
0.00105287
0.000766076
0.000542105
0.000382
0.000271488
0.000194158
0.00013689
9.76477e-05
8.02851e-05
8.42085e-05
9.00772e-05
7.77984e-05
6.08201e-05
5.99137e-05
6.42819e-05
7.14471e-05
9.43403e-05
0.000134498
0.000218007
0.000384251
0.000691517
0.00122255
0.00202103
0.00280095
0.00312631
0.00325548
0.0030912
0.00177286
0.00149875
0.00125036
0.000946694
0.000679578
0.000481931
0.000342772
0.000246921
0.000180267
0.000129333
9.173e-05
7.68248e-05
8.25003e-05
8.34907e-05
6.91493e-05
6.10111e-05
6.00855e-05
6.16736e-05
6.84033e-05
8.68025e-05
0.000126089
0.000199871
0.000344242
0.000615282
0.00109352
0.00184312
0.00272937
0.00310437
0.00319467
0.00283019
0.0017302
0.00142127
0.00114012
0.000842266
0.000602202
0.000427744
0.000307372
0.000224221
0.000166301
0.000121602
8.66341e-05
7.38157e-05
7.57662e-05
7.74123e-05
7.10955e-05
6.19207e-05
5.91693e-05
6.05456e-05
6.63924e-05
8.33748e-05
0.00011947
0.000185855
0.000309958
0.000544514
0.000976599
0.00169349
0.00261286
0.00304015
0.00313826
0.00254399
0.00171011
0.0013619
0.00103859
0.000749246
0.000532801
0.000378521
0.000273682
0.000202854
0.000153101
0.00011392
8.16785e-05
7.01519e-05
7.41072e-05
7.60007e-05
6.73406e-05
6.19915e-05
6.01289e-05
6.0227e-05
6.5454e-05
8.05768e-05
0.000116274
0.000175779
0.000282266
0.000481174
0.000855451
0.00150498
0.00243345
0.00298392
0.00310281
0.0023184
0.00170219
0.00126936
0.000922114
0.000657112
0.000464467
0.000330408
0.000241348
0.000182488
0.000140532
0.000106672
7.64349e-05
6.70862e-05
6.96753e-05
7.31156e-05
6.94007e-05
6.50426e-05
6.12894e-05
6.05106e-05
6.52493e-05
7.94047e-05
0.000113932
0.000168191
0.000258268
0.000427971
0.000755236
0.00134144
0.00220836
0.00288009
0.00312779
0.00216105
0.00165586
0.00116184
0.000822246
0.00057748
0.000404015
0.000287652
0.000212699
0.000164253
0.000129177
9.96057e-05
7.24157e-05
6.38938e-05
6.75908e-05
7.26696e-05
7.05598e-05
6.78971e-05
6.38114e-05
6.183e-05
6.5182e-05
7.87348e-05
0.000110463
0.000159769
0.000235219
0.000376339
0.000654606
0.00117171
0.00199563
0.00279005
0.00321753
0.00204413
0.00159685
0.00106921
0.000731378
0.000502187
0.000348548
0.000249602
0.000187397
0.00014771
0.000118725
9.2352e-05
6.98999e-05
6.23183e-05
6.62828e-05
7.26564e-05
7.35703e-05
7.16445e-05
6.69369e-05
6.38554e-05
6.56712e-05
7.66362e-05
0.000104938
0.000150648
0.00021562
0.000336444
0.000576793
0.00101383
0.00174839
0.00260682
0.00322223
0.00196578
0.00151638
0.000965578
0.000639106
0.000432399
0.000298837
0.000215167
0.000164553
0.000132739
0.000108746
8.50192e-05
6.84834e-05
6.23924e-05
6.66434e-05
7.29193e-05
7.62105e-05
7.49215e-05
7.03726e-05
6.62683e-05
6.65067e-05
7.50541e-05
9.57802e-05
0.000139448
0.000198515
0.000305527
0.000523031
0.00090401
0.00153241
0.00241331
0.0029892
0.00190027
0.00142161
0.000867439
0.000556407
0.000369954
0.000254782
0.000185301
0.00014481
0.000119582
9.79546e-05
7.88826e-05
6.81537e-05
6.42702e-05
6.72088e-05
7.26889e-05
7.8062e-05
7.77244e-05
7.43471e-05
6.99875e-05
6.90431e-05
7.47449e-05
8.95102e-05
0.000125746
0.000181195
0.000275784
0.000475121
0.00082519
0.00131147
0.00207924
0.00248982
0.00183676
0.00132706
0.000769136
0.000476881
0.000313263
0.000215867
0.000159451
0.000128171
0.000106077
8.59512e-05
7.70536e-05
6.94087e-05
6.63988e-05
6.87502e-05
7.47674e-05
7.89666e-05
7.97472e-05
7.78453e-05
7.46393e-05
7.29192e-05
7.62472e-05
8.6987e-05
0.000112569
0.000163991
0.000246223
0.000419938
0.000760855
0.0011952
0.00170134
0.00196668
0.00172684
0.00120595
0.000666089
0.000405318
0.000263909
0.000182466
0.000138111
0.00011197
9.13124e-05
8.23576e-05
7.66491e-05
7.15032e-05
6.94582e-05
7.12978e-05
7.56368e-05
7.90015e-05
8.03997e-05
7.94726e-05
7.84948e-05
7.72005e-05
7.8707e-05
8.57224e-05
0.000100778
0.00014461
0.000220115
0.000368532
0.00067257
0.00107973
0.00139408
0.00156234
0.00153931
0.00103991
0.000565474
0.000341428
0.000220604
0.000154437
0.00011838
9.44248e-05
8.46338e-05
8.09035e-05
7.71514e-05
7.34767e-05
7.16335e-05
7.2659e-05
7.56859e-05
7.79752e-05
7.89077e-05
7.91706e-05
8.02454e-05
8.01869e-05
8.14363e-05
8.53899e-05
9.45663e-05
0.000122529
0.000189336
0.000314809
0.000575374
0.00095045
0.00115649
0.00123987
0.00132319
0.000877078
0.000475663
0.000283699
0.000182988
0.000128698
9.81958e-05
8.56411e-05
8.21877e-05
7.97798e-05
7.69796e-05
7.37539e-05
7.17639e-05
7.19816e-05
7.36045e-05
7.47583e-05
7.52799e-05
7.62428e-05
7.88078e-05
8.07424e-05
8.26867e-05
8.48107e-05
8.93243e-05
0.000103075
0.000155405
0.000264159
0.000496615
0.000859162
0.00101562
0.00100275
0.0011377
0.00073938
0.000394141
0.000232135
0.000148859
0.000104746
8.70267e-05
8.25833e-05
7.97588e-05
7.72452e-05
7.42327e-05
7.10258e-05
6.91697e-05
6.89298e-05
6.94968e-05
6.98741e-05
7.0185e-05
7.12651e-05
7.39487e-05
7.70523e-05
8.03001e-05
8.2841e-05
8.53311e-05
9.20433e-05
0.000117909
0.000210847
0.000410873
0.000767583
0.000954905
0.000889749
0.00098068
0.000619338
0.000322509
0.000186464
0.000118266
8.9904e-05
8.32186e-05
7.96363e-05
7.60927e-05
7.26002e-05
6.89722e-05
6.59711e-05
6.4422e-05
6.39328e-05
6.38556e-05
6.38435e-05
6.40728e-05
6.4977e-05
6.70441e-05
7.01742e-05
7.41936e-05
7.7907e-05
8.1105e-05
8.5379e-05
9.93956e-05
0.000158487
0.000328524
0.000650943
0.00088602
0.000825653
0.000848405
0.000511333
0.000258294
0.00014513
9.64921e-05
8.55387e-05
8.14444e-05
7.65979e-05
7.19871e-05
6.75029e-05
6.37988e-05
6.15497e-05
6.05936e-05
6.02638e-05
6.00686e-05
5.98127e-05
5.96522e-05
5.99554e-05
6.10888e-05
6.34224e-05
6.71853e-05
7.17579e-05
7.64788e-05
8.06176e-05
8.88369e-05
0.000121033
0.000245883
0.000524176
0.00081624
0.000816093
0.000732461
0.000413983
0.000199438
0.000111563
9.05223e-05
8.56367e-05
8.10741e-05
7.49695e-05
7.19826e-05
7.20392e-05
7.20668e-05
7.22996e-05
7.257e-05
7.26101e-05
7.22822e-05
7.1597e-05
7.06522e-05
6.95886e-05
6.8587e-05
6.80003e-05
6.83259e-05
6.91182e-05
7.3014e-05
7.82994e-05
8.39277e-05
0.000102006
0.000176011
0.000412599
0.000737598
0.000824038
0.00062611
0.000326115
0.000146418
0.000101703
9.27601e-05
8.86271e-05
8.3054e-05
8.57284e-05
8.66435e-05
8.64427e-05
8.56667e-05
8.47986e-05
8.39638e-05
8.31462e-05
8.23522e-05
8.15957e-05
8.08848e-05
8.02338e-05
7.96405e-05
7.91322e-05
7.86394e-05
7.82671e-05
7.76569e-05
7.79059e-05
8.37755e-05
9.42682e-05
0.000136044
0.000304033
0.000632348
0.00085899
0.000526281
0.000247159
0.000128782
0.00010517
9.79408e-05
9.71085e-05
0.000101762
0.000102096
0.000100277
9.77992e-05
9.53647e-05
9.3312e-05
9.1677e-05
9.0324e-05
8.92326e-05
8.84159e-05
8.78875e-05
8.77204e-05
8.7919e-05
8.84278e-05
8.91199e-05
8.96982e-05
8.96348e-05
8.71955e-05
8.5418e-05
9.37351e-05
0.000116205
0.000213108
0.000513481
0.000876547
0.000432024
0.000206656
0.000129901
0.000111707
0.000112213
0.000119052
0.000118057
0.000114918
0.000111447
0.000107693
0.000104146
0.000101105
9.87175e-05
9.68527e-05
9.55658e-05
9.48454e-05
9.46417e-05
9.49116e-05
9.56121e-05
9.68388e-05
9.85119e-05
0.000100432
0.00010212
0.000102481
9.77583e-05
9.59067e-05
0.000111336
0.000169962
0.000410389
0.000863328
0.000367001
0.000201331
0.000136779
0.000129202
0.000136069
0.000134269
0.000130176
0.000126177
0.000121648
0.000116207
0.000111254
0.000106961
0.000103552
0.000101001
9.967e-05
9.94367e-05
0.000100065
0.000101288
0.00010293
0.000105256
0.000107993
0.000110832
0.00011372
0.000116537
0.000117013
0.000108182
0.000112976
0.000151345
0.000315303
0.000797363
0.000352401
0.000203871
0.000151538
0.000151862
0.000148622
0.00014297
0.000137933
0.000132873
0.000125192
0.000116668
0.000109664
0.000104169
0.000100178
9.76421e-05
9.65788e-05
9.68809e-05
9.85715e-05
0.000101309
0.000105205
0.000110008
0.000115213
0.000119804
0.000124161
0.000128576
0.000132759
0.000132194
0.000120465
0.000150134
0.000275404
0.000665211
0.000346931
0.00020063
0.000166191
0.000158025
0.000151373
0.000144502
0.000137016
0.000128328
0.000118301
0.000110538
0.000104149
9.8542e-05
9.43999e-05
9.26165e-05
9.19872e-05
9.24805e-05
9.40806e-05
9.61923e-05
9.94621e-05
0.000105278
0.000113847
0.000122104
0.000129813
0.000136591
0.000143123
0.000148945
0.000147958
0.000156058
0.000264226
0.000553135
0.000321867
0.000193184
0.00016304
0.000154383
0.000147154
0.000138261
0.000127284
0.000118354
0.000113908
0.000109734
0.000106139
0.000102083
9.74923e-05
9.52758e-05
9.51473e-05
9.52041e-05
9.62934e-05
9.88216e-05
0.000101852
0.000105314
0.000108274
0.000114721
0.000125459
0.000137009
0.000147
0.000156439
0.000163958
0.00017088
0.000265152
0.000498014
0.000267326
0.000174237
0.000153316
0.000145968
0.000138454
0.000129949
0.000125672
0.000121634
0.000117678
0.00011408
0.000111979
0.000109568
0.000104963
0.000101133
0.000100704
0.000100576
0.00010108
0.00010345
0.000107305
0.000111298
0.000113963
0.000117415
0.000122046
0.00013207
0.000144475
0.000156072
0.000166679
0.000183723
0.000261085
0.000473696
0.000217604
0.000158101
0.000144208
0.000136854
0.000130131
0.000127991
0.000132607
0.000130693
0.000123003
0.000120279
0.000118432
0.000115397
0.000110805
0.000106545
0.000104538
0.000105223
0.000105796
0.000107449
0.00011137
0.000115956
0.000121595
0.000125203
0.00012695
0.000131036
0.00013989
0.000151087
0.000162329
0.000179351
0.000238869
0.000441741
0.00017787
0.000148183
0.000137229
0.000128961
0.000123754
0.00012838
0.000142163
0.000137012
0.000125743
0.000123351
0.000120215
0.00011796
0.000113839
0.000109174
0.000107568
0.000108622
0.000110068
0.00011187
0.000114755
0.000118631
0.000124915
0.000131803
0.000136372
0.000133109
0.00013616