/*--------------------------------*- C++ -*----------------------------------*\
| =========                 |                                                 |
| \\      /  F ield         | OpenFOAM: The Open Source CFD Toolbox           |
|  \\    /   O peration     | Version:  v1606+                                |
|   \\  /    A nd           | Web:      www.OpenFOAM.com                      |
|    \\/     M anipulation  |                                                 |
\*---------------------------------------------------------------------------*/
FoamFile
{
    version     2.0;
    format      ascii;
    class       volScalarField;
    location    "0.63";
    object      k.air;
}
// * * * * * * * * * * * * * * * * * * * * * * * * * * * * * * * * * * * * * //

dimensions      [0 2 -2 0 0 0 0];

internalField   nonuniform List<scalar> 
6000
(
0.886692
0.950002
0.959238
0.963688
0.968727
0.974255
0.978362
0.981045
0.982959
0.984562
0.985949
0.986637
0.985655
0.98311
0.981856
0.981849
0.98416
0.986029
0.987072
0.986023
0.9844
0.982875
0.981058
0.978421
0.974233
0.968573
0.96341
0.95892
0.949742
0.886619
0.61736
0.891276
0.946674
0.972132
0.996099
1.02115
1.04289
1.05917
1.07133
1.08308
1.09364
1.09384
1.08313
1.07
1.06112
1.06332
1.07346
1.08767
1.09471
1.0912
1.08047
1.0694
1.0577
1.0414
1.01922
0.994059
0.97034
0.944992
0.889196
0.615651
0.451589
0.757057
0.864905
0.919708
0.959099
0.991418
1.01783
1.03825
1.05371
1.06639
1.07736
1.08392
1.08583
1.08611
1.08672
1.0858
1.0845
1.08418
1.081
1.07321
1.06252
1.05046
1.03541
1.015
0.988389
0.955904
0.916472
0.861675
0.753747
0.449614
0.360566
0.665383
0.802407
0.883026
0.939078
0.981332
1.01432
1.03989
1.05955
1.07538
1.08971
1.10215
1.11134
1.11746
1.1193
1.11755
1.11269
1.10496
1.09475
1.08209
1.06903
1.05439
1.03569
1.01043
0.977367
0.934772
0.878233
0.796926
0.660106
0.358101
0.308121
0.612211
0.771826
0.875936
0.952263
1.00984
1.05314
1.08355
1.10453
1.11892
1.13278
1.15099
1.17127
1.18594
1.19034
1.1869
1.17536
1.1562
1.13594
1.12015
1.10915
1.09689
1.07762
1.04761
1.00408
0.945963
0.869458
0.764579
0.60447
0.304151
0.321168
0.644328
0.823487
0.953272
1.05332
1.12373
1.17183
1.20243
1.22092
1.22861
1.23502
1.25451
1.28794
1.3155
1.32327
1.31764
1.29592
1.25991
1.22922
1.21604
1.21365
1.20912
1.19402
1.16595
1.11912
1.04784
0.945572
0.815051
0.635328
0.316549
0.341924
0.686463
0.899303
1.07271
1.22439
1.34674
1.42917
1.45799
1.44456
1.42559
1.41794
1.43629
1.48406
1.52525
1.53299
1.52475
1.49353
1.43755
1.39833
1.39125
1.40609
1.43302
1.4497
1.41888
1.33443
1.21197
1.05956
0.886761
0.674576
0.335567
0.325136
0.676944
0.911041
1.1158
1.30688
1.48578
1.63235
1.71905
1.73782
1.72065
1.69844
1.70678
1.75071
1.79696
1.80491
1.78892
1.75048
1.6906
1.65667
1.65939
1.68743
1.70752
1.69046
1.60179
1.45584
1.28253
1.09588
0.895053
0.663791
0.318239
0.302244
0.650715
0.890338
1.10015
1.29902
1.48298
1.6481
1.78154
1.88163
1.92271
1.93623
1.97149
2.03175
2.08453
2.08138
2.05968
2.01732
1.94515
1.89179
1.86737
1.85915
1.81662
1.72522
1.5986
1.4402
1.26456
1.07246
0.869236
0.634853
0.294653
0.281553
0.609407
0.837096
1.03868
1.23739
1.42879
1.5895
1.72105
1.83879
1.94264
2.03957
2.13414
2.23452
2.32274
2.2986
2.2788
2.21716
2.11068
2.0179
1.9346
1.8504
1.75729
1.65461
1.53039
1.37701
1.19463
1.00418
0.810373
0.590624
0.273005
0.254031
0.563596
0.785979
0.983567
1.17844
1.37075
1.54461
1.68402
1.81109
1.95479
2.10311
2.24265
2.37619
2.47801
2.43923
2.42643
2.36115
2.22866
2.10165
1.97567
1.8449
1.71925
1.60813
1.47817
1.31379
1.13162
0.946254
0.757267
0.543285
0.245213
0.233248
0.537265
0.765978
0.965322
1.15848
1.34948
1.5341
1.69556
1.83235
1.99498
2.18457
2.36557
2.52868
2.62476
2.56534
2.56049
2.5167
2.36551
2.20439
2.03766
1.8694
1.731
1.6081
1.45908
1.28725
1.10799
0.925338
0.735626
0.516302
0.224778
0.233094
0.54484
0.778286
0.981293
1.17702
1.3718
1.5676
1.75221
1.90196
2.06297
2.27052
2.48089
2.66401
2.74228
2.67174
2.66861
2.64863
2.49374
2.30726
2.11194
1.92758
1.78757
1.65123
1.48395
1.30376
1.12284
0.938801
0.746048
0.522084
0.22395
0.243049
0.574945
0.812205
1.02092
1.2233
1.42608
1.63797
1.84926
2.01502
2.16264
2.36256
2.58116
2.76836
2.81608
2.74608
2.73866
2.74221
2.60492
2.40541
2.20097
2.0218
1.88967
1.73405
1.54308
1.35282
1.16647
0.977353
0.779362
0.549659
0.232291
0.263193
0.612944
0.855109
1.07041
1.28216
1.49616
1.72326
1.96248
2.15514
2.28665
2.45834
2.67422
2.85332
2.86146
2.79773
2.78765
2.80491
2.70112
2.49663
2.29838
2.14161
2.01613
1.83511
1.6234
1.42333
1.22955
1.03426
0.830051
0.592942
0.251544
0.280187
0.654418
0.90831
1.1308
1.34896
1.57266
1.80997
2.06941
2.29335
2.41839
2.55527
2.7688
2.93202
2.90801
2.84682
2.8318
2.84943
2.78584
2.58788
2.39969
2.27772
2.14995
1.93972
1.71447
1.50938
1.30992
1.10907
0.897439
0.648617
0.274589
0.304318
0.709776
0.978392
1.20993
1.43457
1.66132
1.89469
2.15322
2.40882
2.54404
2.65179
2.87331
3.01367
2.96253
2.90588
2.88949
2.90719
2.8759
2.68502
2.50819
2.42066
2.2802
2.04343
1.81533
1.60964
1.40894
1.20413
0.98506
0.722232
0.30892
0.340727
0.781074
1.06498
1.30744
1.53846
1.76386
1.98851
2.22578
2.49592
2.66478
2.755
2.98388
3.10516
3.03596
2.98318
2.96889
2.98859
2.98509
2.80309
2.64009
2.57529
2.39905
2.14503
1.9232
1.72054
1.5229
1.31619
1.08962
0.812595
0.355174
0.383191
0.864183
1.16681
1.42292
1.65994
1.87924
2.09088
2.31026
2.57451
2.79609
2.89057
3.10854
3.22762
3.13384
3.07642
3.0671
3.09861
3.11343
2.93779
2.81452
2.73973
2.51279
2.25245
2.03121
1.83466
1.64114
1.43061
1.19652
0.910605
0.419022
0.427391
0.95867
1.28318
1.54749
1.78834
2.00337
2.20256
2.40445
2.65194
2.93806
3.07095
3.24324
3.35277
3.23926
3.17117
3.16925
3.22023
3.24681
3.09144
3.03063
2.90506
2.61784
2.35859
2.1405
1.94623
1.73667
1.517
1.28779
1.00201
0.474011
0.48032
1.06172
1.39599
1.66656
1.90135
2.11391
2.30523
2.49586
2.73282
3.04322
3.25097
3.35709
3.45289
3.33047
3.25039
3.25564
3.32049
3.3407
3.23805
3.20553
2.99315
2.69792
2.45337
2.2443
2.02769
1.79263
1.56328
1.33087
1.04912
0.514504
0.542531
1.15944
1.49505
1.74408
1.96577
2.19183
2.39147
2.57824
2.79752
3.08721
3.35189
3.44745
3.51461
3.39561
3.308
3.31599
3.37792
3.38722
3.35076
3.26408
3.00701
2.74513
2.52043
2.31445
2.08391
1.8557
1.6165
1.35826
1.05322
0.511894
0.580875
1.21428
1.5416
1.77906
2.00645
2.24432
2.46417
2.64772
2.8447
3.08986
3.35607
3.50314
3.54007
3.43431
3.34898
3.35478
3.39585
3.40688
3.39965
3.24352
2.99846
2.77276
2.56757
2.36012
2.15272
1.93437
1.6917
1.4196
1.08372
0.501114
0.592565
1.24614
1.57917
1.83099
2.06018
2.28256
2.5093
2.69978
2.88137
3.08568
3.31523
3.49928
3.54429
3.45317
3.38148
3.3852
3.40295
3.42847
3.38182
3.20182
2.99719
2.80345
2.61531
2.42464
2.23553
2.02848
1.7817
1.49877
1.14198
0.518638
0.615757
1.30821
1.6557
1.91373
2.13609
2.34008
2.54752
2.75022
2.92435
3.09303
3.27581
3.45276
3.53022
3.46485
3.41379
3.41749
3.42458
3.43723
3.34653
3.18588
3.01867
2.85497
2.687
2.51703
2.34283
2.14255
1.89478
1.60611
1.23092
0.557747
0.678944
1.42426
1.76947
2.0184
2.2342
2.43337
2.62357
2.82076
2.99086
3.12979
3.26898
3.40731
3.49468
3.47448
3.45402
3.46143
3.46079
3.43598
3.33598
3.20487
3.07206
2.93651
2.79186
2.6367
2.46797
2.26163
2.02387
1.75345
1.38687
0.632797
0.831695
1.57517
1.89585
2.147
2.36758
2.5705
2.75039
2.93048
3.09655
3.20618
3.30223
3.40126
3.4716
3.48417
3.50395
3.5216
3.50606
3.44768
3.3557
3.2555
3.15535
3.05081
2.93475
2.77644
2.59347
2.39017
2.15504
1.89527
1.56145
0.801083
0.920736
1.66339
1.99918
2.27904
2.51555
2.72533
2.91159
3.09068
3.22334
3.31359
3.37146
3.43013
3.47946
3.50577
3.54492
3.58404
3.56283
3.47732
3.39767
3.32707
3.2613
3.18369
3.0723
2.90938
2.71831
2.52011
2.28377
2.00455
1.65999
0.905377
0.865471
1.60575
2.01923
2.33702
2.58935
2.80989
3.01132
3.19774
3.33031
3.4074
3.45342
3.48215
3.51032
3.53689
3.5823
3.63345
3.59698
3.51243
3.44956
3.40551
3.35935
3.2927
3.17116
2.99394
2.79464
2.58363
2.33488
2.02552
1.61965
0.856414
0.707192
1.41804
1.91464
2.27959
2.55536
2.77872
2.97812
3.1666
3.33426
3.45804
3.52166
3.54872
3.55926
3.57403
3.61054
3.65482
3.60802
3.54388
3.50493
3.47344
3.41979
3.31355
3.14842
2.96221
2.76521
2.54944
2.28059
1.93495
1.46958
0.723575
0.593481
1.28481
1.80005
2.17905
2.46794
2.6983
2.90326
3.10131
3.28407
3.45062
3.56915
3.61885
3.63115
3.62234
3.62763
3.64496
3.61691
3.58391
3.56282
3.51483
3.42158
3.26379
3.08436
2.89134
2.69072
2.46861
2.19362
1.83506
1.34783
0.626687
0.54874
1.23741
1.74016
2.1048
2.38862
2.62131
2.83116
3.03766
3.2374
3.42583
3.59942
3.69196
3.71691
3.69458
3.64721
3.63714
3.64067
3.64303
3.61334
3.53883
3.395
3.21593
3.02317
2.82202
2.61661
2.39245
2.12273
1.77322
1.28839
0.578563
0.537511
1.23296
1.70809
2.04452
2.31715
2.55062
2.76558
2.9755
3.17973
3.37866
3.56753
3.70312
3.74894
3.75302
3.68843
3.66019
3.6876
3.68308
3.63679
3.52683
3.35521
3.16331
2.96333
2.75753
2.5467
2.32035
2.05866
1.73083
1.26153
0.556574
0.53854
1.24446
1.6872
1.99736
2.25775
2.48852
2.70357
2.9096
3.10586
3.29539
3.47827
3.62589
3.69155
3.7099
3.70867
3.69959
3.6823
3.63812
3.5859
3.45632
3.28039
3.09278
2.89818
2.6948
2.48299
2.25722
2.00395
1.69753
1.2506
0.545945
0.545481
1.26799
1.67013
1.9587
2.20763
2.43305
2.64383
2.84196
3.02663
3.20192
3.36914
3.51126
3.58429
3.57838
3.56494
3.55963
3.55212
3.53603
3.4718
3.34547
3.18531
3.01232
2.82887
2.63249
2.42391
2.20145
1.95609
1.66728
1.25132
0.541894
0.558346
1.29346
1.65524
1.92548
2.16347
2.3819
2.58573
2.77433
2.94784
3.11249
3.2723
3.41662
3.49823
3.45264
3.39447
3.38133
3.41092
3.44233
3.37359
3.24423
3.0923
2.93066
2.75815
2.57049
2.36792
2.15082
1.91352
1.63966
1.25796
0.54349
0.572201
1.3148
1.64127
1.89554
2.12296
2.33318
2.52812
2.70577
2.86763
3.02208
3.17555
3.32026
3.40323
3.33194
3.24237
3.22511
3.28228
3.34497
3.27719
3.14604
2.99965
2.84771
2.68605
2.50832
2.31371
2.10366
1.87509
1.61533
1.26855
0.549519
0.588305
1.3263
1.62653
1.86722
2.08448
2.28542
2.46954
2.63412
2.78197
2.92331
3.06616
3.20428
3.28068
3.19804
3.09723
3.08017
3.14987
3.22485
3.163
3.03702
2.89986
2.75981
2.61084
2.44493
2.26023
2.05876
1.83955
1.59315
1.27699
0.5591
0.601182
1.32675
1.60989
1.83931
2.04681
2.23738
2.40865
2.55748
2.68817
2.81285
2.94051
3.06539
3.13094
3.04652
2.94704
2.93188
3.00384
3.0806
3.02707
2.91234
2.78891
2.66405
2.53067
2.37912
2.2065
2.01513
1.80571
1.57134
1.27699
0.571869
0.607622
1.31968
1.5908
1.81073
2.00885
2.18809
2.34452
2.47485
2.58561
2.6913
2.80146
2.91006
2.96318
2.88101
2.78847
2.77583
2.84505
2.91941
2.87509
2.77465
2.66712
2.55961
2.44453
2.3102
2.15192
1.97206
1.77268
1.54896
1.27063
0.580394
0.610133
1.30443
1.56844
1.78014
1.96922
2.13672
2.27652
2.3857
2.47493
2.56132
2.65403
2.74627
2.78764
2.70941
2.62451
2.61421
2.67995
2.75092
2.71539
2.62905
2.53724
2.44731
2.35206
2.23784
2.09619
1.92895
1.73953
1.52482
1.25601
0.583301
0.61476
1.28532
1.54295
1.74649
1.92696
2.08241
2.20339
2.28945
2.3573
2.42573
2.50228
2.5792
2.61014
2.53686
2.45948
2.45145
2.51369
2.58041
2.55291
2.47955
2.4022
2.32863
2.2531
2.1612
2.0391
1.88532
1.70546
1.49887
1.23786
0.586797
0.619474
1.26299
1.51421
1.70951
1.88165
2.02378
2.12322
2.18576
2.23409
2.28684
2.34934
2.41299
2.43555
2.36753
2.29648
2.2901
2.34894
2.41172
2.39114
2.32901
2.26431
2.20521
2.14783
2.07872
1.9795
1.84102
1.67022
1.4715
1.21777
0.592098
0.61897
1.23606
1.48146
1.66937
1.83296
1.95899
2.0347
2.07498
2.10688
2.14678
2.19741
2.24978
2.26599
2.20374
2.13888
2.13344
2.18874
2.24745
2.23216
2.17957
2.1257
2.07879
2.03692
1.98924
1.91521
1.79556
1.63406
1.44253
1.19577
0.594298
0.61556
1.20351
1.4441
1.62624
1.78009
1.88649
1.9376
1.95852
1.97775
2.00755
2.04822
2.09093
2.10307
2.04667
1.98779
1.98299
2.03442
2.0895
2.07755
2.03306
1.98826
1.95119
1.92171
1.89241
1.84383
1.7475
1.59735
1.41152
1.17066
0.593247
0.60793
1.16619
1.4026
1.58009
1.72218
1.80592
1.8333
1.83891
1.84905
1.8711
1.90369
1.93846
1.94854
1.89732
1.84463
1.84063
1.88797
1.94019
1.92955
1.89131
1.85364
1.8242
1.80397
1.78893
1.76357
1.69439
1.55967
1.37894
1.14264
0.590252
0.596515
1.12604
1.35866
1.5317
1.65914
1.71784
1.72405
1.71889
1.72278
1.73875
1.76454
1.79174
1.8007
1.75635
1.70998
1.70692
1.7501
1.79752
1.78756
1.75485
1.72286
1.69919
1.68552
1.68024
1.67349
1.6327
1.52056
1.34618
1.11351
0.585285
0.581706
1.08531
1.31454
1.48221
1.59078
1.62332
1.61259
1.60058
1.60028
1.61144
1.63161
1.65305
1.65958
1.62335
1.58465
1.58267
1.62047
1.66144
1.65319
1.6243
1.59662
1.57721
1.56795
1.56843
1.57408
1.5594
1.47674
1.31372
1.08507
0.579395
0.565221
1.0466
1.27278
1.43228
1.51706
1.52375
1.50134
1.48538
1.48211
1.48956
1.50526
1.52254
1.5284
1.50057
1.47021
1.4693
1.50077
1.53472
1.52645
1.50008
1.47551
1.45915
1.45257
1.45589
1.46791
1.47289
1.42274
1.28093
1.05795
0.572339
0.549173
1.01176
1.23489
1.38023
1.43668
1.42103
1.39165
1.3738
1.36854
1.37331
1.38576
1.40067
1.40709
1.3878
1.36694
1.36754
1.39172
1.41749
1.40794
1.38279
1.36018
1.34563
1.34043
1.34481
1.35918
1.37559
1.35593
1.24483
1.02947
0.56101
0.533512
0.979898
1.1992
1.32348
1.34851
1.31669
1.28446
1.26608
1.25979
1.26295
1.27349
1.28785
1.29626
1.28616
1.27551
1.27798
1.29432
1.31045
1.29838
1.273
1.25111
1.23713
1.23218
1.23654
1.25149
1.2737
1.27828
1.20336
1.00042
0.547321
0.517393
0.948646
1.16179
1.25953
1.25417
1.21256
1.18015
1.16236
1.15601
1.1587
1.1689
1.18464
1.19564
1.19537
1.19506
1.19941
1.20781
1.21335
1.19833
1.17112
1.1486
1.1338
1.12788
1.13151
1.14667
1.17274
1.19362
1.15453
0.969567
0.532325
0.498661
0.915009
1.12008
1.18794
1.15724
1.10994
1.07886
1.06258
1.05715
1.06035
1.07119
1.08891
1.10527
1.11488
1.12371
1.1297
1.13117
1.12616
1.10519
1.07618
1.05259
1.03572
1.02749
1.02931
1.04446
1.07375
1.10591
1.09672
0.934046
0.513607
0.478029
0.877775
1.07275
1.10859
1.0602
1.00998
0.980497
0.966425
0.962971
0.967957
0.9807
0.999902
1.02216
1.04255
1.05878
1.06605
1.06176
1.04528
1.01812
0.98871
0.963287
0.94329
0.93137
0.929868
0.94368
0.975434
1.01635
1.02821
0.895481
0.492245
0.455482
0.834412
1.01532
1.0225
0.964238
0.912489
0.884302
0.872749
0.873197
0.881403
0.89692
0.919514
0.947587
0.976102
0.997079
1.00516
0.997045
0.972487
0.939871
0.907686
0.880452
0.857422
0.84047
0.834
0.844265
0.877117
0.925352
0.951341
0.848896
0.467081
0.432119
0.783702
0.945766
0.932804
0.868941
0.816883
0.791072
0.783929
0.787941
0.800272
0.819377
0.846395
0.879869
0.912781
0.935522
0.943643
0.933943
0.90588
0.868816
0.833279
0.803115
0.777152
0.755598
0.743836
0.747398
0.777845
0.830773
0.867804
0.795864
0.440802
0.405129
0.723314
0.864469
0.841088
0.774264
0.723381
0.701996
0.699913
0.708578
0.725307
0.748805
0.780137
0.816479
0.849904
0.871712
0.878928
0.869472
0.842419
0.804832
0.766767
0.73316
0.703512
0.677188
0.659174
0.655458
0.677342
0.729261
0.772856
0.727964
0.412118
0.374598
0.659258
0.77566
0.746551
0.67903
0.633326
0.617008
0.620637
0.635222
0.656933
0.684766
0.718866
0.755287
0.786309
0.805471
0.811174
0.802896
0.779683
0.74522
0.70735
0.671546
0.638756
0.608173
0.582184
0.56947
0.578506
0.621139
0.663948
0.642888
0.379355
0.343196
0.593586
0.679823
0.648585
0.585069
0.546607
0.537847
0.548122
0.569389
0.595595
0.626405
0.661036
0.695154
0.722372
0.738614
0.743087
0.736161
0.717305
0.687902
0.652897
0.617142
0.582515
0.548386
0.515215
0.490824
0.485219
0.50986
0.545269
0.54012
0.340838
0.310265
0.519636
0.580743
0.54665
0.492758
0.464386
0.465612
0.483812
0.510743
0.540157
0.572041
0.605176
0.635726
0.659185
0.673152
0.677092
0.671389
0.655978
0.631518
0.600724
0.567051
0.532404
0.496342
0.458053
0.421119
0.400975
0.403955
0.426187
0.429754
0.298332
0.276845
0.44032
0.473898
0.445439
0.403931
0.388769
0.399859
0.42668
0.457215
0.48815
0.519555
0.550197
0.577233
0.597758
0.61021
0.614077
0.609513
0.596689
0.576196
0.549544
0.518802
0.485296
0.448675
0.407471
0.362554
0.325329
0.312424
0.319917
0.321614
0.253001
0.241416
0.349886
0.368744
0.348708
0.319952
0.320403
0.340862
0.373813
0.4067
0.438366
0.468903
0.497316
0.521717
0.540239
0.551748
0.555769
0.552318
0.541624
0.524236
0.501098
0.473381
0.441787
0.405804
0.3636
0.313991
0.262505
0.234945
0.23194
0.234642
0.208743
0.204024
0.266561
0.274794
0.258679
0.247762
0.258987
0.289412
0.325557
0.35995
0.392071
0.421912
0.448751
0.471368
0.488529
0.499393
0.503561
0.501014
0.491964
0.476903
0.456518
0.431567
0.402395
0.368261
0.327208
0.27634
0.215417
0.173037
0.161426
0.167459
0.17065
0.170494
0.195871
0.19356
0.184922
0.188432
0.20926
0.245626
0.283009
0.318022
0.350208
0.379408
0.405114
0.426495
0.442693
0.453075
0.457318
0.455394
0.447496
0.434063
0.415701
0.39309
0.36656
0.33536
0.297612
0.248787
0.181718
0.129394
0.114202
0.11867
0.136583
0.138283
0.136164
0.132774
0.13341
0.143908
0.171437
0.208837
0.246183
0.28106
0.312914
0.341496
0.36637
0.386902
0.402441
0.412487
0.416767
0.415247
0.408101
0.395728
0.378716
0.357819
0.333703
0.306178
0.273456
0.229875
0.159428
0.102114
0.0860145
0.0886782
0.108634
0.110819
0.0979169
0.0966622
0.100079
0.112745
0.141754
0.178223
0.2146
0.248749
0.279999
0.307986
0.332246
0.352216
0.367342
0.377191
0.381518
0.380275
0.373613
0.361885
0.345684
0.325922
0.303756
0.279789
0.252471
0.216653
0.14952
0.0856861
0.0689112
0.0692895
0.0861281
0.0925801
0.0775654
0.0754327
0.0783919
0.0902488
0.118085
0.152761
0.187599
0.220644
0.251142
0.278571
0.302387
0.322021
0.336942
0.346737
0.351165
0.350167
0.34387
0.332605
0.316975
0.298055
0.27743
0.256277
0.234254
0.203809
0.149565
0.0811433
0.0549868
0.0540149
0.0662731
0.0810543
0.0639008
0.060224
0.0626847
0.0735044
0.0992533
0.131622
0.164573
0.196329
0.226006
0.252926
0.276435
0.295902
0.310776
0.320635
0.325229
0.324491
0.318552
0.307751
0.292713
0.27458
0.255019
0.235396
0.216512
0.193111
0.149418
0.0835142
0.0482396
0.0402944
0.049671
0.0705817
0.0520329
0.0482844
0.0506252
0.0606005
0.0841343
0.114047
0.145034
0.175446
0.204285
0.23074
0.254041
0.273451
0.288371
0.298358
0.303151
0.302693
0.297135
0.286825
0.272424
0.255083
0.236258
0.217134
0.198746
0.183569
0.148714
0.0895572
0.0492574
0.0336091
0.0373143
0.0614003
0.0423303
0.0387401
0.0409743
0.050155
0.0717547
0.0994445
0.128595
0.157685
0.185688
0.211689
0.23481
0.254233
0.269266
0.279414
0.284406
0.284201
0.278999
0.269135
0.255305
0.238543
0.220189
0.201039
0.181784
0.165782
0.145157
0.100636
0.0532518
0.0335906
0.0303094
0.0537367
0.0348319
0.0309779
0.0329904
0.041448
0.0616174
0.0874685
0.114926
0.142754
0.169966
0.195593
0.218613
0.238065
0.253195
0.263478
0.268634
0.268661
0.263845
0.254382
0.240873
0.224302
0.205891
0.186468
0.1666
0.147926
0.131572
0.104279
0.0627653
0.0347715
0.0296042
0.0473124
0.0288131
0.0247046
0.0265395
0.0345642
0.053802
0.0779938
0.103904
0.130603
0.157167
0.18254
0.205493
0.224897
0.239994
0.2503
0.25558
0.255899
0.25164
0.24264
0.229264
0.212394
0.193341
0.173278
0.153136
0.134198
0.116652
0.0983528
0.0675689
0.037067
0.0302112
0.0417798
0.0240849
0.0201185
0.0220648
0.0303579
0.0487404
0.0711542
0.0957122
0.121538
0.147715
0.173016
0.195847
0.214849
0.229377
0.239362
0.24474
0.245683
0.242568
0.234588
0.221542
0.203995
0.183663
0.162475
0.142036
0.123485
0.106762
0.0896869
0.0664303
0.0386194
0.0315765
0.0368556
0.0207475
0.0174888
0.0199668
0.0293821
0.0469165
0.0677939
0.091251
0.11648
0.142399
0.16729
0.188719
0.205683
0.218449
0.227456
0.232807
0.234681
0.233357
0.228139
0.217979
0.201095
0.179376
0.155894
0.134345
0.115882
0.10008
0.084474
0.065356
0.0422341
0.0331134
0.0323594
0.0184186
0.0165275
0.0197081
0.0298403
0.0472896
0.0679351
0.0911999
0.116097
0.140832
0.163157
0.181795
0.196236
0.207014
0.214942
0.220153
0.222657
0.22251
0.219555
0.213331
0.201222
0.180962
0.155778
0.131655
0.111935
0.0960735
0.0814885
0.0646269
0.044871
0.0364307
0.0287977
0.0170104
0.0165149
0.0203784
0.0320112
0.0498838
0.0708433
0.0941384
0.118239
0.141078
0.160208
0.176085
0.188407
0.197662
0.204683
0.209627
0.212512
0.212923
0.211029
0.206948
0.199855
0.185652
0.160341
0.133547
0.111875
0.0947441
0.0797203
0.0634096
0.0446366
0.0380561
0.0262146
0.016627
0.0172437
0.0236296
0.0385724
0.0577676
0.0796191
0.102292
0.123952
0.1435
0.159981
0.173042
0.183556
0.191603
0.197793
0.202257
0.205244
0.206469
0.205667
0.202558
0.197165
0.188387
0.170225
0.141152
0.115021
0.0953873
0.0786839
0.0614236
0.0433549
0.0378391
0.0240858
0.0170197
0.0206493
0.0336471
0.0534309
0.0743452
0.0957439
0.115532
0.13309
0.14806
0.161137
0.172977
0.182399
0.189082
0.194248
0.198226
0.201231
0.202865
0.203019
0.20109
0.196809
0.189422
0.178253
0.155259
0.124954
0.0993358
0.0791767
0.0588733
0.0413516
0.0369941
0.0230932
0.0197571
0.0313452
0.0533663
0.0753335
0.0972776
0.117177
0.131031
0.141415
0.152437
0.163609
0.174294
0.182636
0.18844
0.192969
0.19671
0.199911
0.201505
0.201641
0.200598
0.197648
0.191401
0.183061
0.169261
0.144116
0.11058
0.0830913
0.0589914
0.039296
0.0353542
0.0234312
0.0292928
0.0542308
0.0791886
0.102653
0.123786
0.136146
0.142395
0.15035
0.158819
0.167005
0.175596
0.182562
0.187945
0.192522
0.196507
0.199974
0.201737
0.201601
0.200583
0.198436
0.193853
0.187814
0.181521
0.166631
0.132352
0.0948555
0.0630506
0.0394377
0.0321429
0.0265988
0.0514123
0.082236
0.108259
0.129297
0.14105
0.146716
0.152886
0.160247
0.165506
0.170296
0.176397
0.182146
0.187232
0.191954
0.196288
0.200102
0.202607
0.202929
0.201567
0.199123
0.195445
0.191843
0.191241
0.183651
0.159564
0.118481
0.0774314
0.0433311
0.0302595
0.0362588
0.0796262
0.109819
0.130911
0.145302
0.153018
0.159732
0.164055
0.16779
0.170156
0.172683
0.177478
0.182109
0.186575
0.191105
0.195615
0.199751
0.203518
0.205713
0.204311
0.200754
0.196652
0.193604
0.193766
0.191258
0.183379
0.149204
0.105397
0.0590338
0.031518
0.0532341
0.104227
0.129723
0.147069
0.159433
0.167381
0.170364
0.171861
0.174672
0.174605
0.175637
0.179733
0.182936
0.186455
0.190293
0.194548
0.19894
0.203484
0.207977
0.207996
0.203884
0.199008
0.195553
0.194206
0.193509
0.193917
0.182802
0.139106
0.0901284
0.0386757
0.067318
0.120921
0.144716
0.161007
0.170503
0.174477
0.176297
0.17873
0.180482
0.179397
0.180107
0.183134
0.184804
0.186929
0.189915
0.193675
0.198043
0.20288
0.208183
0.211382
0.2089
0.203268
0.199217
0.197747
0.198072
0.197048
0.202016
0.177181
0.126115
0.0552497
0.075353
0.129396
0.152783
0.166545
0.174275
0.179415
0.183625
0.186458
0.186489
0.18479
0.185521
0.186961
0.187194
0.188158
0.19025
0.193479
0.197529
0.202096
0.2073
0.212401
0.214737
0.209879
0.205546
0.206489
0.208931
0.204197
0.204744
0.203819
0.16756
0.0771251
0.0749072
0.128219
0.153123
0.168463
0.17875
0.187001
0.192927
0.194904
0.193152
0.191552
0.191714
0.19111
0.190211
0.190355
0.191646
0.194238
0.197862
0.201908
0.2061
0.21075
0.215666
0.216317
0.213639
0.2176
0.222167
0.214893
0.208447
0.209811
0.192669
0.0979888
0.0701566
0.125288
0.154921
0.173309
0.18697
0.197542
0.20349
0.203519
0.201475
0.200202
0.198398
0.195863
0.194305
0.193901
0.194644
0.196522
0.199413
0.202687
0.205763
0.208421
0.212349
0.216919
0.221235
0.226489
0.228319
0.221532
0.213218
0.208979
0.192208
0.107835
0.0687266
0.127575
0.161154
0.183086
0.199033
0.209977
0.214077
0.214085
0.212918
0.209569
0.205188
0.20175
0.199765
0.198917
0.199183
0.200476
0.202557
0.204796
0.206592
0.207669
0.209206
0.214094
0.22328
0.231901
0.231084
0.221073
0.212834
0.203929
0.184773
0.107575
0.0711173
0.137657
0.174235
0.197182
0.21307
0.222472
0.227407
0.228687
0.224186
0.218057
0.212667
0.208791
0.20631
0.204987
0.20473
0.205387
0.206617
0.207875
0.208513
0.208356
0.208497
0.211541
0.220451
0.230274
0.229697
0.217673
0.207094
0.194055
0.170959
0.103303
0.0817885
0.157482
0.191111
0.212287
0.227632
0.239087
0.244007
0.239913
0.233167
0.226306
0.220504
0.216164
0.213171
0.211335
0.210567
0.210625
0.211073
0.211418
0.210997
0.209794
0.208875
0.210486
0.21618
0.222863
0.222418
0.210304
0.195771
0.181685
0.155795
0.0957992
0.0993109
0.174546
0.205289
0.22759
0.24371
0.253572
0.252568
0.246891
0.240332
0.233518
0.227702
0.223209
0.219809
0.2175
0.2162
0.215678
0.215498
0.215212
0.214013
0.211957
0.209905
0.209513
0.211523
0.213203
0.209979
0.199232
0.183796
0.167731
0.141662
0.0880104
0.104373
0.176274
0.210366
0.234071
0.249602
0.255776
0.254556
0.250557
0.245103
0.239341
0.234119
0.22956
0.225743
0.222868
0.220936
0.219788
0.21912
0.218583
0.21716
0.214665
0.211521
0.208787
0.206977
0.20448
0.198458
0.187277
0.171802
0.154062
0.128284
0.0798905
0.102153
0.173327
0.208533
0.231577
0.24557
0.251891
0.253057
0.251273
0.24808
0.244075
0.239465
0.234641
0.230016
0.226162
0.22327
0.221253
0.220029
0.219267
0.218248
0.216303
0.213092
0.208444
0.203394
0.197288
0.188697
0.176353
0.160225
0.140876
0.114315
0.0726009
0.0975018
0.164693
0.199529
0.220368
0.23366
0.24301
0.248228
0.250292
0.250005
0.247523
0.242739
0.236869
0.231278
0.226608
0.223112
0.22066
0.219115
0.218068
0.217169
0.215648
0.213072
0.208066
0.200966
0.191936
0.180689
0.166656
0.149188
0.127893
0.100006
0.0661726
0.0869814
0.145377
0.179346
0.201288
0.218624
0.232039
0.242014
0.248486
0.250558
0.248128
0.242498
0.236264
0.230564
0.225724
0.221951
0.219219
0.217408
0.216076
0.214981
0.213671
0.211698
0.206909
0.199533
0.188608
0.174768
0.158284
0.13872
0.114771
0.0840776
0.0591077
0.07257
0.117894
0.155336
0.182366
0.203894
0.222055
0.236684
0.246244
0.248868
0.245925
0.240121
0.234112
0.228638
0.223883
0.220208
0.217513
0.215643
0.214222
0.212966
0.211583
0.209554
0.205231
0.198367
0.187317
0.171515
0.152306
0.129693
0.10245
0.0680984
0.0506833
0.059352
0.0923416
0.134095
0.165594
0.191946
0.214226
0.231561
0.241811
0.243928
0.241151
0.236221
0.230938
0.226012
0.221788
0.218453
0.215916
0.214072
0.212608
0.211258
0.209757
0.207454
0.203995
0.197504
0.187316
0.171495
0.150697
0.125518
0.0953214
0.0592723
0.0428926
0.0484996
0.0757682
0.119062
0.154465
0.184586
0.208184
0.225259
0.234634
0.23751
0.23574
0.231771
0.22734
0.223217
0.219646
0.216752
0.214473
0.212705
0.21115
0.209626
0.207977
0.205683
0.202391
0.196984
0.188268
0.173673
0.152933
0.126795
0.0955134
0.0589983
0.037924
0.0416576
0.0719488
0.114626
0.151576
0.182071
0.203873
0.218455
0.227411
0.230875
0.230039
0.227052
0.223539
0.220307
0.217395
0.214945
0.212923
0.211217
0.209589
0.207907
0.206199
0.204423
0.201674
0.196475
0.188945
0.178239
0.159658
0.133145
0.100514
0.062371
0.0368728
0.0399389
0.0742198
0.11705
0.153312
0.181322
0.200122
0.211975
0.221194
0.225326
0.225024
0.222629
0.219787
0.217243
0.214945
0.212889
0.211074
0.209419
0.207816
0.206183
0.204847
0.203769
0.201833
0.196978
0.190281
0.180991
0.166098
0.14412
0.113458
0.0734382
0.0382051
0.0410683
0.0828388
0.124507
0.156806
0.179371
0.196292
0.207269
0.215784
0.220145
0.220826
0.218785
0.216303
0.214144
0.212286
0.21057
0.208974
0.207524
0.206203
0.205016
0.204083
0.202925
0.201694
0.19831
0.193515
0.184854
0.170791
0.152342
0.127735
0.0919246
0.0437134
0.0461719
0.0962861
0.133193
0.158676
0.17818
0.19328
0.205046
0.212214
0.214974
0.216553
0.215642
0.213294
0.2112
0.209531
0.208102
0.206866
0.205901
0.205257
0.204892
0.20391
0.202353
0.202232
0.199763
0.194265
0.186979
0.175184
0.158378
0.137407
0.1078
0.0547188
0.0537339
0.106422
0.137419
0.158968
0.177132
0.192384
0.205045
0.211135
0.211771
0.21311
0.213376
0.21088
0.208575
0.206883
0.205689
0.204927
0.204682
0.205039
0.205667
0.204828
0.202923
0.203565
0.201137
0.194335
0.185857
0.174707
0.160046
0.141387
0.116122
0.0618679
0.0579772
0.110482
0.138287
0.159406
0.177741
0.193677
0.20642
0.211142
0.210382
0.211389
0.21161
0.208892
0.206225
0.204413
0.203392
0.203084
0.203594
0.205041
0.207137
0.207158
0.204676
0.205098
0.202767
0.195223
0.185385
0.173279
0.158822
0.140673
0.11552
0.0632677
0.060426
0.113989
0.141265
0.162175
0.180545
0.196906
0.208418
0.211372
0.210695
0.211144
0.210104
0.20702
0.203963
0.202022
0.201104
0.20111
0.202191
0.204545
0.20769
0.20912
0.206746
0.206083
0.204141
0.197066
0.186487
0.173958
0.159241
0.140887
0.114235
0.0621893
0.0659873
0.121795
0.148637
0.168555
0.185979
0.201047
0.210042
0.212698
0.212405
0.211658
0.20913
0.205321
0.201824
0.199643
0.198724
0.198866
0.200239
0.203094
0.206923
0.209255
0.207908
0.207121
0.205419
0.199432
0.189293
0.176827
0.162189
0.143656
0.115948
0.0623065
0.0774872
0.134474
0.158821
0.177193
0.192943
0.206017
0.213317
0.216045
0.215514
0.212949
0.208847
0.204135
0.200148
0.197502
0.196356
0.196488
0.197941
0.200909
0.205019
0.208466
0.208562
0.208789
0.207639
0.202475
0.193161
0.181616
0.168303
0.150758
0.122245
0.0656287
0.0845386
0.140718
0.166256
0.185468
0.201268
0.212413
0.218207
0.220251
0.218483
0.213914
0.208512
0.203136
0.198848
0.195965
0.194444
0.194387
0.195792
0.198772
0.203099
0.207782
0.209856
0.211431
0.210901
0.206639
0.198164
0.187317
0.175495
0.160561
0.134114
0.0761038
0.0843152
0.144783
0.174367
0.192947
0.208234
0.217895
0.221879
0.222108
0.219051
0.21348
0.20722
0.201431
0.197083
0.194457
0.193122
0.193008
0.194376
0.197409
0.202116
0.207924
0.212419
0.214921
0.21427
0.210693
0.203755
0.193537
0.182402
0.168687
0.141364
0.0802207
0.0823074
0.14366
0.176199
0.195877
0.210226
0.218828
0.221383
0.220297
0.216537
0.210402
0.20375
0.198154
0.194235
0.192066
0.191413
0.191806
0.193403
0.196574
0.201509
0.207803
0.214319
0.217853
0.217024
0.213645
0.207658
0.199862
0.190999
0.175767
0.140953
0.0800784
0.0803529
0.137528
0.169242
0.191099
0.206425
0.214401
0.216002
0.21367
0.209136
0.20322
0.197622
0.193228
0.190293
0.188853
0.188789
0.189776
0.191732
0.194881
0.199655
0.206063
0.213169
0.217541
0.217661
0.21501
0.210184
0.205806
0.197181
0.175982
0.137473
0.0778205
0.0750445
0.12297
0.153872
0.177605
0.194067
0.202292
0.204215
0.202401
0.198764
0.194496
0.190586
0.187562
0.185654
0.184941
0.185348
0.186667
0.188693
0.19152
0.195681
0.201632
0.208431
0.213481
0.215105
0.213319
0.208902
0.204742
0.194055
0.171459
0.129525
0.071935
0.0619317
0.0995452
0.135542
0.160027
0.176874
0.186477
0.190325
0.190458
0.188781
0.186362
0.183945
0.181999
0.18081
0.180521
0.181127
0.182469
0.184341
0.18677
0.190161
0.194954
0.200574
0.205342
0.207898
0.206889
0.202249
0.195943
0.183239
0.160459
0.117286
0.0618652
0.0497856
0.0809681
0.119974
0.144279
0.161052
0.171746
0.177473
0.179704
0.179936
0.179142
0.177989
0.176928