/*--------------------------------*- C++ -*----------------------------------*\
| =========                 |                                                 |
| \\      /  F ield         | OpenFOAM: The Open Source CFD Toolbox           |
|  \\    /   O peration     | Version:  v1606+                                |
|   \\  /    A nd           | Web:      www.OpenFOAM.com                      |
|    \\/     M anipulation  |                                                 |
\*---------------------------------------------------------------------------*/
FoamFile
{
    version     2.0;
    format      ascii;
    class       volVectorField;
    location    "0.63";
    object      U;
}
// * * * * * * * * * * * * * * * * * * * * * * * * * * * * * * * * * * * * * //

dimensions      [0 1 -1 0 0 0 0];

internalField   nonuniform List<vector> 
6000
(
(-0.0213438 -0.0187148 0)
(-0.0180944 -0.0605219 0)
(-0.00403943 -0.0505128 0)
(0.0176361 -0.0450677 0)
(0.0338235 -0.0461254 0)
(0.041109 -0.0447682 0)
(0.0370325 -0.0492275 0)
(0.0309812 -0.0563295 0)
(0.0238981 -0.0637586 0)
(0.0187341 -0.0791973 0)
(0.0184043 -0.0975727 0)
(0.0175153 -0.0977764 0)
(0.0081945 -0.0980384 0)
(0.0025268 -0.106147 0)
(0.000311121 -0.0972003 0)
(-0.00160059 -0.104732 0)
(-0.00400378 -0.10154 0)
(-0.0107418 -0.103115 0)
(-0.0181726 -0.0940001 0)
(-0.0234336 -0.092368 0)
(-0.0256374 -0.0744822 0)
(-0.030948 -0.0614821 0)
(-0.038125 -0.0553588 0)
(-0.0440359 -0.0486879 0)
(-0.047955 -0.0437569 0)
(-0.0396296 -0.044745 0)
(-0.0222282 -0.0452036 0)
(0.00106058 -0.0527928 0)
(0.0167234 -0.0622966 0)
(0.0217363 -0.0162024 0)
(0.00280057 0.656656 0)
(-0.024939 0.663746 0)
(-0.0094996 0.638595 0)
(0.0305445 0.622456 0)
(0.0707437 0.625537 0)
(0.0915052 0.630843 0)
(0.0930505 0.633318 0)
(0.0820373 0.635183 0)
(0.0664115 0.638373 0)
(0.0481163 0.646234 0)
(0.0134703 0.655455 0)
(-0.0226179 0.661733 0)
(-0.0406561 0.667077 0)
(-0.0355585 0.662848 0)
(-0.0107967 0.656934 0)
(0.0197172 0.656868 0)
(0.0384435 0.667719 0)
(0.0356312 0.666185 0)
(0.0101564 0.663687 0)
(-0.0268872 0.656464 0)
(-0.0580889 0.643864 0)
(-0.0757339 0.637762 0)
(-0.0915821 0.635432 0)
(-0.102493 0.63469 0)
(-0.100301 0.631572 0)
(-0.0774439 0.624827 0)
(-0.0362899 0.621579 0)
(0.0041844 0.638662 0)
(0.0201511 0.661887 0)
(-0.00415474 0.654223 0)
(-0.0277315 0.545895 0)
(-0.040757 0.441388 0)
(-0.00676662 0.38542 0)
(0.0270719 0.369018 0)
(0.0626769 0.400468 0)
(0.0873284 0.462745 0)
(0.0938576 0.501724 0)
(0.0896179 0.519876 0)
(0.0759558 0.526595 0)
(0.0524116 0.52988 0)
(0.0113104 0.53765 0)
(-0.0288037 0.532705 0)
(-0.0529678 0.488826 0)
(-0.0472492 0.434519 0)
(-0.0135099 0.405223 0)
(0.027083 0.411259 0)
(0.0515 0.44999 0)
(0.0464702 0.50408 0)
(0.0144198 0.541863 0)
(-0.0255812 0.538243 0)
(-0.0640001 0.530555 0)
(-0.0851909 0.526104 0)
(-0.0976515 0.51909 0)
(-0.101361 0.500069 0)
(-0.0940916 0.458209 0)
(-0.068434 0.395452 0)
(-0.0329734 0.365664 0)
(0.00105228 0.381654 0)
(0.0375138 0.433301 0)
(0.0277418 0.541273 0)
(-0.0042455 0.597066 0)
(-0.0071528 0.493722 0)
(-0.00307222 0.429776 0)
(-0.00185844 0.40773 0)
(0.00345016 0.425523 0)
(0.0157944 0.476073 0)
(0.0301422 0.512314 0)
(0.0374632 0.53748 0)
(0.0352259 0.554909 0)
(0.0229495 0.574491 0)
(-0.00789075 0.598522 0)
(-0.0443184 0.59708 0)
(-0.0696853 0.551424 0)
(-0.0598274 0.481903 0)
(-0.0168196 0.432638 0)
(0.0351796 0.44629 0)
(0.0656937 0.506686 0)
(0.0620653 0.572123 0)
(0.030496 0.606615 0)
(-0.00427124 0.593642 0)
(-0.0303539 0.572535 0)
(-0.040771 0.552198 0)
(-0.042226 0.536007 0)
(-0.0350932 0.512042 0)
(-0.0220468 0.473461 0)
(-0.0104378 0.422537 0)
(-0.00556311 0.406844 0)
(-0.00402836 0.427134 0)
(0.00273881 0.485045 0)
(0.00350633 0.591817 0)
(0.00154143 0.595274 0)
(-0.00865126 0.503346 0)
(-0.0334324 0.438283 0)
(-0.0484557 0.421787 0)
(-0.0515195 0.434929 0)
(-0.0415805 0.469035 0)
(-0.0296086 0.492348 0)
(-0.0318076 0.525549 0)
(-0.0452868 0.561221 0)
(-0.0636074 0.595885 0)
(-0.0829426 0.633051 0)
(-0.102765 0.630678 0)
(-0.10559 0.547534 0)
(-0.0773781 0.427897 0)
(-0.0215857 0.351563 0)
(0.0426941 0.372768 0)
(0.0870372 0.471414 0)
(0.102557 0.580704 0)
(0.0936846 0.643087 0)
(0.0743077 0.624025 0)
(0.0573639 0.590004 0)
(0.0391211 0.555678 0)
(0.025919 0.522487 0)
(0.0247559 0.495977 0)
(0.0360411 0.47072 0)
(0.0451907 0.433674 0)
(0.0404979 0.419849 0)
(0.0242496 0.431593 0)
(0.00218774 0.488738 0)
(-0.00342124 0.585511 0)
(0.0118016 0.48532 0)
(0.00199349 0.404997 0)
(-0.0242233 0.338466 0)
(-0.0505431 0.312873 0)
(-0.0809187 0.354129 0)
(-0.0948275 0.431853 0)
(-0.0881727 0.515162 0)
(-0.0829118 0.565931 0)
(-0.09448 0.590506 0)
(-0.118964 0.603836 0)
(-0.13319 0.629031 0)
(-0.133294 0.617926 0)
(-0.114401 0.521335 0)
(-0.0770394 0.377627 0)
(-0.0212471 0.285289 0)
(0.0413361 0.310439 0)
(0.089403 0.433647 0)
(0.114032 0.561824 0)
(0.128001 0.631664 0)
(0.125607 0.620107 0)
(0.112048 0.60186 0)
(0.0888208 0.590188 0)
(0.080361 0.565681 0)
(0.0853887 0.509695 0)
(0.0875959 0.421245 0)
(0.0686212 0.339975 0)
(0.0389106 0.310375 0)
(0.0159565 0.332695 0)
(-0.00723884 0.388496 0)
(-0.0149251 0.472885 0)
(0.0212037 0.616525 0)
(0.0397728 0.588358 0)
(0.0296228 0.501206 0)
(0.0148938 0.45731 0)
(0.000385199 0.396382 0)
(-0.0103602 0.352471 0)
(-0.0313037 0.373028 0)
(-0.0648075 0.473003 0)
(-0.106562 0.598802 0)
(-0.136082 0.655385 0)
(-0.142892 0.659089 0)
(-0.130307 0.614997 0)
(-0.112977 0.498511 0)
(-0.0817508 0.332739 0)
(-0.0227142 0.22781 0)
(0.0483035 0.257959 0)
(0.0922232 0.404765 0)
(0.107235 0.549201 0)
(0.12347 0.63548 0)
(0.135836 0.656002 0)
(0.128014 0.642839 0)
(0.0973732 0.577707 0)
(0.0506952 0.446439 0)
(0.0164851 0.373308 0)
(-0.00345349 0.367165 0)
(-0.0177967 0.415831 0)
(-0.0341333 0.458388 0)
(-0.0423601 0.49435 0)
(-0.0462134 0.567265 0)
(-0.025602 0.597818 0)
(0.015644 0.535996 0)
(0.0677523 0.532092 0)
(0.123135 0.497883 0)
(0.199984 0.496698 0)
(0.269919 0.52724 0)
(0.281799 0.566221 0)
(0.234289 0.621995 0)
(0.129248 0.588499 0)
(0.0424735 0.526801 0)
(-0.019058 0.542984 0)
(-0.0598128 0.550951 0)
(-0.0743838 0.545999 0)
(-0.111214 0.476495 0)
(-0.111208 0.291962 0)
(-0.026621 0.141483 0)
(0.072424 0.187475 0)
(0.112822 0.386693 0)
(0.0730144 0.509223 0)
(0.0490022 0.543319 0)
(0.0422034 0.534195 0)
(-0.00168875 0.526097 0)
(-0.0668896 0.542533 0)
(-0.172898 0.634656 0)
(-0.281556 0.638695 0)
(-0.321897 0.57261 0)
(-0.298974 0.526962 0)
(-0.220235 0.48355 0)
(-0.136404 0.476624 0)
(-0.0738943 0.507346 0)
(-0.0183078 0.512308 0)
(0.011375 0.48183 0)
(0.03907 0.444019 0)
(0.112129 0.36124 0)
(0.223524 0.303971 0)
(0.354397 0.337778 0)
(0.485649 0.459333 0)
(0.563341 0.623502 0)
(0.577107 0.828644 0)
(0.418157 0.871028 0)
(0.2208 0.846523 0)
(0.0703627 0.678919 0)
(0.00183583 0.577993 0)
(-0.0527003 0.462996 0)
(-0.0954411 0.188385 0)
(-0.0294546 0.00613288 0)
(0.0574404 0.0726975 0)
(0.066892 0.344541 0)
(0.00737386 0.533016 0)
(-0.0415639 0.594352 0)
(-0.118049 0.707463 0)
(-0.286011 0.876102 0)
(-0.485623 0.889277 0)
(-0.614948 0.818614 0)
(-0.578331 0.603768 0)
(-0.497209 0.4463 0)
(-0.364877 0.328814 0)
(-0.234386 0.289988 0)
(-0.123187 0.334729 0)
(-0.0445745 0.416677 0)
(-0.0121261 0.454794 0)
(0.004228 0.470438 0)
(0.0351894 0.415223 0)
(0.108416 0.262282 0)
(0.1869 0.186069 0)
(0.276709 0.199815 0)
(0.395191 0.293223 0)
(0.540815 0.51052 0)
(0.638327 0.754784 0)
(0.622038 0.992672 0)
(0.474782 1.04655 0)
(0.290382 0.947699 0)
(0.112352 0.849153 0)
(-0.0387696 0.732708 0)
(-0.112153 0.345968 0)
(-0.0191889 -0.12028 0)
(0.0164705 0.0833896 0)
(0.0627124 0.577358 0)
(-0.0611051 0.786767 0)
(-0.197971 0.8471 0)
(-0.369923 0.943308 0)
(-0.534491 1.03048 0)
(-0.65636 0.961049 0)
(-0.643957 0.724414 0)
(-0.544979 0.495054 0)
(-0.400271 0.287765 0)
(-0.283996 0.194067 0)
(-0.195999 0.175117 0)
(-0.118872 0.234153 0)
(-0.0429088 0.375902 0)
(-0.00715558 0.442309 0)
(0.0122369 0.46639 0)
(0.0657325 0.340929 0)
(0.120626 0.200561 0)
(0.152156 0.134049 0)
(0.185202 0.126845 0)
(0.235195 0.166746 0)
(0.34311 0.368626 0)
(0.458545 0.67146 0)
(0.497967 1.00485 0)
(0.403705 1.0877 0)
(0.279147 1.01655 0)
(0.127064 0.92055 0)
(-0.00403752 0.780638 0)
(-0.070883 0.355114 0)
(-0.0202107 -0.159859 0)
(-0.0436285 0.0456957 0)
(0.0041473 0.602282 0)
(-0.0918741 0.821339 0)
(-0.211496 0.90878 0)
(-0.350542 0.997649 0)
(-0.452539 1.0635 0)
(-0.523968 0.959006 0)
(-0.465192 0.638993 0)
(-0.353111 0.352204 0)
(-0.247694 0.165075 0)
(-0.198802 0.124314 0)
(-0.164009 0.124353 0)
(-0.130627 0.174715 0)
(-0.0755901 0.299089 0)
(-0.0169739 0.428486 0)
(0.0311528 0.408758 0)
(0.0852918 0.277548 0)
(0.116815 0.175655 0)
(0.123703 0.12167 0)
(0.127443 0.107733 0)
(0.139611 0.128913 0)
(0.175602 0.277362 0)
(0.254988 0.589216 0)
(0.31827 1.03128 0)
(0.255011 1.18019 0)
(0.156749 1.13112 0)
(0.0311747 1.02541 0)
(-0.0549806 0.822583 0)
(-0.0592531 0.333894 0)
(-0.00742676 -0.166179 0)
(-0.0591312 -0.0170386 0)
(0.0126313 0.591466 0)
(-0.0228349 0.878257 0)
(-0.11516 1.01109 0)
(-0.227246 1.09852 0)
(-0.306153 1.13393 0)
(-0.339002 0.959495 0)
(-0.270009 0.546697 0)
(-0.199182 0.261762 0)
(-0.158108 0.126967 0)
(-0.141247 0.101812 0)
(-0.133402 0.107662 0)
(-0.122906 0.147214 0)
(-0.0909119 0.236349 0)
(-0.0350024 0.365067 0)
(0.0301891 0.346108 0)
(0.0707483 0.238338 0)
(0.0878907 0.167255 0)
(0.0826725 0.12649 0)
(0.0703563 0.10828 0)
(0.0612899 0.120742 0)
(0.0739926 0.239068 0)
(0.101315 0.524789 0)
(0.150296 1.01699 0)
(0.128635 1.25766 0)
(0.0280689 1.24166 0)
(-0.0922554 1.12854 0)
(-0.133149 0.84234 0)
(-0.0561286 0.289 0)
(-0.00862791 -0.15832 0)
(-0.0597983 -0.0489936 0)
(0.0331707 0.565738 0)
(0.0777217 0.934874 0)
(0.00432488 1.11285 0)
(-0.105794 1.19241 0)
(-0.193885 1.19327 0)
(-0.195351 0.927653 0)
(-0.146045 0.526306 0)
(-0.0967245 0.218405 0)
(-0.0783538 0.111754 0)
(-0.0824656 0.0975461 0)
(-0.0913958 0.108199 0)
(-0.0939688 0.136826 0)
(-0.0765474 0.197254 0)
(-0.0337265 0.298464 0)
(0.0204547 0.308781 0)
(0.0426865 0.21603 0)
(0.0478894 0.169657 0)
(0.0337643 0.142199 0)
(0.0123676 0.122908 0)
(-0.00644471 0.128872 0)
(-0.00777588 0.222501 0)
(0.0100884 0.532225 0)
(0.0472151 0.98917 0)
(0.0370781 1.32656 0)
(-0.0705608 1.35028 0)
(-0.192145 1.2125 0)
(-0.171722 0.789201 0)
(-0.0442563 0.202688 0)
(-0.0209559 -0.13265 0)
(-0.0540534 -0.0720906 0)
(0.0163137 0.447118 0)
(0.149517 0.936862 0)
(0.111717 1.20895 0)
(-0.010621 1.29228 0)
(-0.104883 1.24781 0)
(-0.101724 0.887689 0)
(-0.03933 0.470354 0)
(-0.00300699 0.192114 0)
(-0.00562991 0.116891 0)
(-0.0247113 0.114827 0)
(-0.0454573 0.124523 0)
(-0.0584134 0.139109 0)
(-0.0530639 0.174882 0)
(-0.0252435 0.254146 0)
(0.0166126 0.287972 0)
(0.0273376 0.211212 0)
(0.0206266 0.187127 0)
(-0.00380967 0.177277 0)
(-0.0433355 0.164651 0)
(-0.0809309 0.151833 0)
(-0.0842502 0.214454 0)
(-0.0539497 0.494684 0)
(-0.00319676 0.956184 0)
(-0.0100357 1.40149 0)
(-0.117474 1.46723 0)
(-0.208762 1.25724 0)
(-0.128046 0.664867 0)
(-0.0237499 0.0974722 0)
(-0.0174724 -0.107359 0)
(-0.0485219 -0.0744761 0)
(-0.0213993 0.300375 0)
(0.143349 0.863453 0)
(0.161864 1.28951 0)
(0.045126 1.40589 0)
(-0.0452255 1.30595 0)
(-0.0269386 0.843357 0)
(0.0460425 0.41867 0)
(0.0802423 0.19039 0)
(0.0495315 0.142557 0)
(0.0200566 0.142968 0)
(-0.00414489 0.1462 0)
(-0.0236759 0.150568 0)
(-0.032674 0.164868 0)
(-0.0210712 0.221479 0)
(0.0154837 0.264459 0)
(0.0227119 0.206246 0)
(0.0139314 0.196354 0)
(-0.0036508 0.196982 0)
(-0.0298029 0.196035 0)
(-0.0632156 0.18812 0)
(-0.142206 0.214912 0)
(-0.112646 0.451902 0)
(-0.0272101 0.92292 0)
(-0.00831745 1.45655 0)
(-0.105991 1.57856 0)
(-0.168579 1.24258 0)
(-0.0651671 0.559044 0)
(0.00957573 0.0598635 0)
(0.00171419 -0.0652292 0)
(-0.0601098 -0.0357742 0)
(-0.0384156 0.173885 0)
(0.0817695 0.723495 0)
(0.13865 1.33029 0)
(0.0446888 1.5159 0)
(-0.0169781 1.32543 0)
(0.0457721 0.780979 0)
(0.122522 0.358582 0)
(0.111039 0.197203 0)
(0.0863802 0.172858 0)
(0.0648368 0.169293 0)
(0.0402024 0.16844 0)
(0.0179575 0.169714 0)
(-0.00138042 0.175284 0)
(-0.00984939 0.199791 0)
(0.0109502 0.240899 0)
(0.0132678 0.213316 0)
(-0.000866016 0.212537 0)
(-0.0201787 0.219044 0)
(-0.0435333 0.227265 0)
(-0.0698628 0.235399 0)
(-0.0950806 0.247955 0)
(-0.180408 0.383027 0)
(-0.0857257 0.855093 0)
(0.00730755 1.48138 0)
(-0.038667 1.6754 0)
(-0.0855128 1.2119 0)
(-0.00465014 0.444123 0)
(0.0300701 0.0593751 0)
(6.23805e-05 -0.0223774 0)
(-0.0640064 0.000636117 0)
(-0.073828 0.141125 0)
(-0.0183481 0.652958 0)
(0.0465122 1.34589 0)
(-0.0130036 1.60106 0)
(0.0017816 1.3016 0)
(0.131684 0.72714 0)
(0.170361 0.32132 0)
(0.152871 0.226503 0)
(0.130735 0.198635 0)
(0.105226 0.191014 0)
(0.0740677 0.191087 0)
(0.0430157 0.190165 0)
(0.0173712 0.191958 0)
(0.00027979 0.200568 0)
(0.0061442 0.231668 0)
(0.00104713 0.225368 0)
(-0.0168922 0.231931 0)
(-0.0425532 0.243128 0)
(-0.075063 0.256498 0)
(-0.112565 0.275108 0)
(-0.147513 0.311871 0)
(-0.165909 0.379108 0)
(-0.202515 0.748934 0)
(-0.0149685 1.40845 0)
(0.0650864 1.7197 0)
(0.0367272 1.19401 0)
(0.0476384 0.39007 0)
(0.0425882 0.0792426 0)
(0.00779648 0.0313169 0)
(-0.06001 0.0493256 0)
(-0.0901037 0.14493 0)
(-0.0894782 0.577206 0)
(-0.071835 1.34992 0)
(-0.0665019 1.62835 0)
(0.058867 1.1726 0)
(0.212665 0.596727 0)
(0.230811 0.320924 0)
(0.22736 0.248882 0)
(0.205144 0.230762 0)
(0.165007 0.227013 0)
(0.110841 0.226174 0)
(0.0629681 0.221159 0)
(0.0249045 0.220872 0)
(0.00167055 0.204735 0)
(0.00139365 0.229549 0)
(-0.00756139 0.240634 0)
(-0.0276589 0.256574 0)
(-0.0623085 0.276525 0)
(-0.118187 0.298751 0)
(-0.185441 0.322719 0)
(-0.235157 0.355993 0)
(-0.265652 0.416197 0)
(-0.261188 0.625592 0)
(-0.123094 1.25395 0)
(0.113082 1.65397 0)
(0.157061 1.25728 0)
(0.0942537 0.408022 0)
(0.0539965 0.111364 0)
(0.0216736 0.0902321 0)
(-0.0516318 0.107936 0)
(-0.0865625 0.176037 0)
(-0.142691 0.583434 0)
(-0.180656 1.32437 0)
(-0.0756333 1.50913 0)
(0.174293 1.00975 0)
(0.31171 0.493007 0)
(0.36018 0.304822 0)
(0.34019 0.276251 0)
(0.30736 0.258719 0)
(0.255729 0.259658 0)
(0.152139 0.284082 0)
(0.0928031 0.271029 0)
(0.0406045 0.266319 0)
(0.0132701 0.21756 0)
(-0.000711954 0.233773 0)
(-0.0120399 0.255637 0)
(-0.038441 0.285258 0)
(-0.085499 0.331361 0)
(-0.177918 0.372915 0)
(-0.296311 0.377187 0)
(-0.353785 0.404827 0)
(-0.389589 0.428565 0)
(-0.380358 0.556172 0)
(-0.280029 0.992983 0)
(0.0413992 1.49874 0)
(0.193231 1.25351 0)
(0.126321 0.471648 0)
(0.0603947 0.153257 0)
(0.0355183 0.149167 0)
(-0.0364325 0.170487 0)
(-0.0785575 0.234095 0)
(-0.181853 0.658612 0)
(-0.218679 1.31246 0)
(-0.00356077 1.28005 0)
(0.311454 0.74189 0)
(0.451974 0.389209 0)
(0.454093 0.305686 0)
(0.441733 0.282625 0)
(0.419458 0.293123 0)
(0.324253 0.403777 0)
(0.238461 0.391471 0)
(0.156014 0.316116 0)
(0.0785209 0.298273 0)
(0.0400043 0.272873 0)
(-0.00481031 0.237973 0)
(-0.0257688 0.278502 0)
(-0.0674833 0.337116 0)
(-0.145947 0.396368 0)
(-0.298294 0.488302 0)
(-0.415303 0.48938 0)
(-0.481913 0.469932 0)
(-0.513581 0.456762 0)
(-0.526343 0.483987 0)
(-0.425352 0.743589 0)
(-0.115695 1.17393 0)
(0.13313 1.18003 0)
(0.116954 0.537671 0)
(0.0467464 0.190043 0)
(0.0418597 0.197305 0)
(-0.0169159 0.229815 0)
(-0.0663898 0.309405 0)
(-0.18248 0.731339 0)
(-0.140701 1.16781 0)
(0.146597 0.929798 0)
(0.442564 0.507212 0)
(0.508741 0.342948 0)
(0.492681 0.337424 0)
(0.449478 0.339531 0)
(0.298959 0.473885 0)
(0.196423 0.475785 0)
(0.154592 0.473509 0)
(0.100468 0.459458 0)
(0.00871271 0.393074 0)
(0.0448852 0.30514 0)
(-0.0141104 0.253496 0)
(-0.0475863 0.308697 0)
(-0.110833 0.388505 0)
(-0.213645 0.582004 0)
(-0.321985 0.652898 0)
(-0.452958 0.594459 0)
(-0.530217 0.537248 0)
(-0.552829 0.482892 0)
(-0.569439 0.465029 0)
(-0.534721 0.538469 0)
(-0.282874 0.840364 0)
(0.0085109 1.03155 0)
(0.0743267 0.575708 0)
(0.0182522 0.20708 0)
(0.0361842 0.219823 0)
(-0.00152779 0.280094 0)
(-0.0558836 0.390375 0)
(-0.142718 0.771445 0)
(-0.00629682 0.946566 0)
(0.311074 0.611619 0)
(0.472796 0.389396 0)
(0.474594 0.358276 0)
(0.440665 0.395223 0)
(0.325827 0.487559 0)
(0.223785 0.516423 0)
(0.174699 0.509877 0)
(0.125697 0.488767 0)
(0.084493 0.458435 0)
(0.0362291 0.399939 0)
(-0.0193525 0.367867 0)
(0.0172199 0.284546 0)
(-0.0168169 0.408664 0)
(-0.103615 0.560435 0)
(-0.195484 0.64999 0)
(-0.240632 0.699115 0)
(-0.325276 0.724221 0)
(-0.480976 0.623156 0)
(-0.536172 0.52181 0)
(-0.557668 0.472311 0)
(-0.536962 0.452783 0)
(-0.428522 0.56725 0)
(-0.153841 0.803593 0)
(0.0112549 0.575202 0)
(-0.00811902 0.202951 0)
(0.021414 0.218265 0)
(-0.00118476 0.322847 0)
(-0.0533614 0.46031 0)
(-0.0747195 0.740376 0)
(0.162064 0.659092 0)
(0.394542 0.417983 0)
(0.447183 0.355645 0)
(0.434301 0.396755 0)
(0.381313 0.472985 0)
(0.299269 0.565217 0)
(0.239355 0.579202 0)
(0.181324 0.576129 0)
(0.119992 0.547362 0)
(0.0678228 0.500681 0)
(0.0268697 0.424647 0)
(-0.0260672 0.371951 0)
(-0.00349939 0.300274 0)
(-0.065207 0.443516 0)
(-0.121844 0.577568 0)
(-0.177681 0.683752 0)
(-0.229518 0.745091 0)
(-0.272852 0.794749 0)
(-0.392705 0.769377 0)
(-0.492469 0.589875 0)
(-0.514778 0.483146 0)
(-0.515284 0.424034 0)
(-0.467264 0.422545 0)
(-0.311973 0.565076 0)
(-0.065171 0.495653 0)
(-0.0322674 0.184365 0)
(0.000195588 0.205741 0)
(-0.0103126 0.358585 0)
(-0.046694 0.490395 0)
(0.051017 0.584626 0)
(0.293344 0.422194 0)
(0.393185 0.329289 0)
(0.41332 0.357657 0)
(0.39649 0.435393 0)
(0.35292 0.537431 0)
(0.307564 0.604494 0)
(0.258388 0.63932 0)
(0.187982 0.643048 0)
(0.120233 0.603972 0)
(0.0715213 0.546129 0)
(0.03112 0.462491 0)
(-0.00447792 0.359725 0)
(-0.0281285 0.34956 0)
(-0.0968058 0.50125 0)
(-0.1587 0.631845 0)
(-0.212078 0.732428 0)
(-0.266933 0.804296 0)
(-0.314288 0.841239 0)
(-0.373498 0.849155 0)
(-0.4326 0.657523 0)
(-0.46221 0.508433 0)
(-0.472014 0.412213 0)
(-0.446274 0.35052 0)
(-0.379729 0.375679 0)
(-0.163136 0.334076 0)
(-0.0670978 0.143539 0)
(-0.0258772 0.175741 0)
(-0.020532 0.385126 0)
(0.00350263 0.440354 0)
(0.175537 0.382392 0)
(0.317597 0.288219 0)
(0.371699 0.292242 0)
(0.381438 0.364985 0)
(0.370214 0.463018 0)
(0.34852 0.563611 0)
(0.319651 0.636917 0)
(0.275717 0.694908 0)
(0.194013 0.711919 0)
(0.11515 0.646462 0)
(0.0803003 0.578103 0)
(0.047754 0.507475 0)
(0.014651 0.391852 0)
(-0.0740193 0.427786 0)
(-0.166129 0.568731 0)
(-0.230619 0.681475 0)
(-0.282877 0.79361 0)
(-0.329317 0.868046 0)
(-0.343281 0.87756 0)
(-0.367913 0.857778 0)
(-0.375719 0.716917 0)
(-0.402011 0.539235 0)
(-0.417753 0.408951 0)
(-0.405455 0.318073 0)
(-0.361031 0.259801 0)
(-0.246034 0.183888 0)
(-0.129796 0.065967 0)
(-0.0703993 0.125372 0)
(-0.0225653 0.373573 0)
(0.0968811 0.339589 0)
(0.222474 0.233352 0)
(0.311642 0.2065 0)
(0.348791 0.271887 0)
(0.359843 0.367624 0)
(0.357842 0.475279 0)
(0.339558 0.58185 0)
(0.30966 0.664481 0)
(0.267686 0.758455 0)
(0.219234 0.818215 0)
(0.149645 0.696044 0)
(0.138726 0.598558 0)
(0.0993537 0.545785 0)
(0.044555 0.424958 0)
(-0.234726 0.545652 0)
(-0.364351 0.674783 0)
(-0.405779 0.751052 0)
(-0.365322 0.830929 0)
(-0.317982 0.872496 0)
(-0.284742 0.898518 0)
(-0.278607 0.86678 0)
(-0.304887 0.749737 0)
(-0.34633 0.574836 0)
(-0.366835 0.413138 0)
(-0.358178 0.292349 0)
(-0.319768 0.19355 0)
(-0.250681 0.0941767 0)
(-0.176972 -0.00287896 0)
(-0.132027 0.0356054 0)
(0.0246313 0.265664 0)
(0.142688 0.240431 0)
(0.242902 0.124778 0)
(0.302914 0.157354 0)
(0.332536 0.253928 0)
(0.345509 0.364447 0)
(0.342493 0.47728 0)
(0.30129 0.610486 0)
(0.228011 0.721824 0)
(0.206935 0.867697 0)
(0.259817 0.857457 0)
(0.310086 0.76551 0)
(0.290723 0.645174 0)
(0.249648 0.627703 0)
(0.189246 0.463124 0)
(-0.220506 0.937051 0)
(-0.338093 0.757693 0)
(-0.385646 0.694664 0)
(-0.307555 0.761817 0)
(-0.233389 0.803003 0)
(-0.164103 0.854937 0)
(-0.132167 0.807247 0)
(-0.234296 0.706606 0)
(-0.341097 0.627777 0)
(-0.331789 0.408536 0)
(-0.317913 0.261186 0)
(-0.283102 0.144796 0)
(-0.232256 0.0372214 0)
(-0.181345 -0.0550037 0)
(-0.129033 -0.0745535 0)
(-0.0156085 0.106479 0)
(0.162049 0.124658 0)
(0.255967 0.0376077 0)
(0.297126 0.122247 0)
(0.32443 0.232944 0)
(0.334736 0.353853 0)
(0.31258 0.515661 0)
(0.249389 0.732946 0)
(0.147055 0.756182 0)
(0.125323 0.77678 0)
(0.192779 0.710494 0)
(0.278892 0.665748 0)
(0.328362 0.637695 0)
(0.280015 0.75678 0)
(0.208916 0.800593 0)
(0.0310692 1.26044 0)
(0.0516904 1.01588 0)
(0.00147588 0.72081 0)
(-0.0350114 0.685211 0)
(-0.0327338 0.70161 0)
(-0.0211662 0.844055 0)
(-0.0731084 0.993356 0)
(-0.229128 1.02946 0)
(-0.362912 0.6393 0)
(-0.34304 0.403221 0)
(-0.282124 0.221464 0)
(-0.251932 0.0999922 0)
(-0.211329 -0.00824183 0)
(-0.165366 -0.101391 0)
(-0.109929 -0.150861 0)
(-0.00594138 0.00539273 0)
(0.170537 -0.0435286 0)
(0.239775 -0.0211117 0)
(0.282029 0.0862075 0)
(0.311333 0.201677 0)
(0.341267 0.363082 0)
(0.429016 0.491331 0)
(0.324198 0.837659 0)
(0.168816 0.937375 0)
(0.0656238 0.828551 0)
(0.0299571 0.674218 0)
(0.00458561 0.646222 0)
(-0.0311233 0.732247 0)
(-0.0467962 0.907074 0)
(0.0124561 1.07591 0)
(0.125546 0.932955 0)
(0.304725 0.850067 0)
(0.315168 0.86513 0)
(0.192991 0.923853 0)
(0.0424654 0.943796 0)
(-0.0892645 1.03979 0)
(-0.178551 1.16887 0)
(-0.223677 1.19608 0)
(-0.30728 0.937321 0)
(-0.413563 0.420013 0)
(-0.300908 0.174645 0)
(-0.221622 0.0488109 0)
(-0.190386 -0.0529933 0)
(-0.148577 -0.149611 0)
(-0.100499 -0.225996 0)
(0.0263788 -0.120889 0)
(0.156326 -0.161791 0)
(0.213413 -0.0651529 0)
(0.25032 0.0451498 0)
(0.293467 0.164991 0)
(0.442956 0.222591 0)
(0.426625 0.766553 0)
(0.290345 1.08676 0)
(0.226486 1.10667 0)
(0.149553 1.02005 0)
(0.0221294 0.907795 0)
(-0.136178 0.827094 0)
(-0.231501 0.737609 0)
(-0.206525 0.723268 0)
(-0.0793701 0.823204 0)
(0.098782 0.693048 0)
(0.216537 0.689845 0)
(0.222888 0.787216 0)
(0.123181 0.912311 0)
(-0.0101076 0.949195 0)
(-0.127346 1.00362 0)
(-0.180999 1.0602 0)
(-0.157639 1.03031 0)
(-0.131531 0.844512 0)
(-0.241816 0.56748 0)
(-0.368595 0.101821 0)
(-0.230024 0.00847478 0)
(-0.165114 -0.100285 0)
(-0.131902 -0.197738 0)
(-0.0795033 -0.291681 0)
(0.0200865 -0.293492 0)
(0.118449 -0.228234 0)
(0.166091 -0.115497 0)
(0.207472 -0.00405559 0)
(0.359665 0.0169993 0)
(0.369342 0.42281 0)
(0.197726 0.743787 0)
(0.183313 0.950987 0)
(0.200498 1.01465 0)
(0.163436 0.978584 0)
(0.0682794 0.908682 0)
(-0.0575636 0.833504 0)
(-0.148207 0.6982 0)
(-0.147169 0.627663 0)
(-0.0725533 0.665862 0)
(0.0766104 0.584613 0)
(0.148119 0.667297 0)
(0.108976 0.867183 0)
(0.0233969 1.02235 0)
(-0.0609544 1.05602 0)
(-0.1346 1.0784 0)
(-0.163059 1.07909 0)
(-0.135681 1.0021 0)
(-0.0946255 0.818109 0)
(-0.114161 0.577657 0)
(-0.293937 0.301426 0)
(-0.443454 -0.100306 0)
(-0.194019 -0.133057 0)
(-0.110466 -0.245503 0)
(-0.0576576 -0.353515 0)
(0.0187904 -0.37162 0)
(0.0806827 -0.286258 0)
(0.135327 -0.164967 0)
(0.30347 -0.140003 0)
(0.383952 0.14177 0)
(0.179989 0.463625 0)
(0.111526 0.723977 0)
(0.142212 0.926058 0)
(0.170973 1.02449 0)
(0.15564 1.03951 0)
(0.0979525 1.01029 0)
(0.0163425 0.950493 0)
(-0.0699032 0.770167 0)
(-0.106231 0.614062 0)
(-0.0568332 0.587123 0)
(0.0773663 0.478192 0)
(0.112457 0.671785 0)
(0.0300627 0.947317 0)
(-0.0431845 1.09014 0)
(-0.0962061 1.12346 0)
(-0.140308 1.12058 0)
(-0.152626 1.07918 0)
(-0.129936 0.976331 0)
(-0.103871 0.816592 0)
(-0.114998 0.626962 0)
(-0.205811 0.38008 0)
(-0.464854 0.0478754 0)
(-0.471401 -0.435154 0)
(-0.166847 -0.289735 0)
(-0.0340092 -0.405199 0)
(0.0368597 -0.428381 0)
(0.0825013 -0.328064 0)
(0.350086 -0.358131 0)
(0.470075 -0.137222 0)
(0.27607 0.241462 0)
(0.128397 0.516525 0)
(0.105716 0.732667 0)
(0.127182 0.904378 0)
(0.150027 1.01807 0)
(0.145741 1.06834 0)
(0.111596 1.06757 0)
(0.0613992 1.01777 0)
(-0.0160072 0.846684 0)
(-0.087832 0.618207 0)
(-0.0563516 0.513312 0)
(0.0817446 0.377991 0)
(0.0818569 0.724474 0)
(-0.0265254 1.03419 0)
(-0.0812355 1.14092 0)
(-0.119502 1.16333 0)
(-0.146473 1.14069 0)
(-0.148951 1.07233 0)
(-0.128831 0.954022 0)
(-0.10875 0.812708 0)
(-0.110717 0.671824 0)
(-0.147298 0.481957 0)
(-0.293543 0.171415 0)
(-0.460957 -0.341533 0)
(-0.263552 -0.743289 0)
(-0.0932186 -0.679512 0)
(0.0941185 -0.65001 0)
(0.261823 -0.706258 0)
(0.469161 -0.442038 0)
(0.40569 0.0231203 0)
(0.190998 0.351793 0)
(0.122102 0.575672 0)
(0.110097 0.738999 0)
(0.122918 0.88684 0)
(0.140067 1.00941 0)
(0.140835 1.08167 0)
(0.119759 1.1026 0)
(0.0860853 1.06798 0)
(0.0221762 0.935995 0)
(-0.0755519 0.654822 0)
(-0.0697224 0.437699 0)
(0.0652398 0.29139 0)
(0.0467843 0.810344 0)
(-0.0668356 1.10352 0)
(-0.102762 1.182 0)
(-0.135641 1.19146 0)
(-0.152358 1.15053 0)
(-0.149708 1.06245 0)
(-0.131214 0.934756 0)
(-0.109417 0.800751 0)
(-0.093839 0.67972 0)
(-0.0866636 0.524857 0)
(-0.115133 0.24433 0)
(-0.229398 -0.256931 0)
(-0.0923778 -0.770486 0)
(-0.0454318 -0.784031 0)
(0.0613087 -0.761864 0)
(0.118405 -0.789574 0)
(0.269296 -0.378872 0)
(0.190311 0.11374 0)
(0.111528 0.419995 0)
(0.102676 0.602007 0)
(0.108533 0.736811 0)
(0.12235 0.873491 0)
(0.136551 1.00111 0)
(0.139814 1.0886 0)
(0.126366 1.12672 0)
(0.0981496 1.10925 0)
(0.0529802 1.01589 0)
(-0.0556159 0.72309 0)
(-0.0713038 0.354175 0)
(0.0333764 0.238903 0)
(0.0129248 0.904493 0)
(-0.0907042 1.16055 0)
(-0.116721 1.21654 0)
(-0.146836 1.2132 0)
(-0.157869 1.15596 0)
(-0.154433 1.05221 0)
(-0.137101 0.915306 0)
(-0.112224 0.777233 0)
(-0.0826671 0.65648 0)
(-0.0483507 0.506935 0)
(-0.0202167 0.243233 0)
(-0.0705919 -0.252544 0)
(0.0191815 -0.824418 0)
(0.000641589 -0.840764 0)
(0.030925 -0.827195 0)
(0.0130166 -0.850652 0)
(0.112017 -0.378053 0)
(0.0562081 0.128968 0)
(0.0592129 0.419369 0)
(0.0852476 0.59028 0)
(0.107176 0.721488 0)
(0.124765 0.860275 0)
(0.137522 0.993447 0)
(0.140618 1.09248 0)
(0.13224 1.14582 0)
(0.106618 1.14326 0)
(0.0777885 1.07756 0)
(-0.0284145 0.812179 0)
(-0.0503671 0.28854 0)
(0.00311492 0.22066 0)
(-0.0167589 0.980783 0)
(-0.0992664 1.20906 0)
(-0.126165 1.24878 0)
(-0.154492 1.2314 0)
(-0.164722 1.15996 0)
(-0.16213 1.04268 0)
(-0.144211 0.894671 0)
(-0.114902 0.746735 0)
(-0.0752928 0.616976 0)
(-0.0295374 0.466643 0)
(0.0152931 0.211918 0)
(0.00588329 -0.25525 0)
(0.0587461 -0.820736 0)
(0.0180911 -0.844249 0)
(0.0144226 -0.836134 0)
(-0.032589 -0.850791 0)
(0.0271695 -0.374419 0)
(-0.00384575 0.110532 0)
(0.0297375 0.387467 0)
(0.0712535 0.557868 0)
(0.105451 0.697274 0)
(0.128451 0.845135 0)
(0.141932 0.986693 0)
(0.14416 1.09509 0)
(0.137638 1.15992 0)
(0.114336 1.17272 0)
(0.0914812 1.12873 0)
(-0.000182492 0.89718 0)
(-0.0222839 0.251515 0)
(-0.0253813 0.237704 0)
(-0.0417498 1.03683 0)
(-0.0998947 1.2536 0)
(-0.133137 1.28111 0)
(-0.16185 1.24995 0)
(-0.174063 1.16533 0)
(-0.171126 1.03275 0)
(-0.148825 0.870397 0)
(-0.111968 0.709419 0)
(-0.0655388 0.571302 0)
(-0.0165215 0.420859 0)
(0.0288375 0.174706 0)
(0.0444827 -0.28166 0)
(0.0774976 -0.799884 0)
(0.0272915 -0.8259 0)
(0.00503683 -0.820414 0)
(-0.0485598 -0.825055 0)
(-0.014015 -0.375498 0)
(-0.0286006 0.08212 0)
(0.0116403 0.347125 0)
(0.0572522 0.516296 0)
(0.0992855 0.665586 0)
(0.130457 0.826414 0)
(0.148329 0.978913 0)
(0.151128 1.09857 0)
(0.143925 1.17341 0)
(0.121597 1.19981 0)
(0.0972524 1.17174 0)
(0.028029 0.964602 0)
(0.00774991 0.246232 0)
(-0.0488654 0.283972 0)
(-0.059256 1.06554 0)
(-0.0984873 1.29689 0)
(-0.139573 1.31569 0)
(-0.171116 1.27157 0)
(-0.185544 1.1713 0)
(-0.178075 1.0188 0)
(-0.145839 0.837946 0)
(-0.098961 0.664566 0)
(-0.048121 0.521919 0)
(0.000239444 0.374352 0)
(0.0401866 0.136254 0)
(0.0608605 -0.304989 0)
(0.0775738 -0.76872 0)
(0.0279783 -0.796037 0)
(-7.1068e-05 -0.793973 0)
(-0.0530522 -0.79107 0)
(-0.0339315 -0.378262 0)
(-0.0412334 0.0538395 0)
(-0.00577575 0.304898 0)
(0.0384878 0.47097 0)
(0.084509 0.625532 0)
(0.12595 0.799116 0)
(0.15416 0.967694 0)
(0.161262 1.10147 0)
(0.152673 1.18799 0)
(0.128579 1.22709 0)
(0.0980584 1.21123 0)
(0.0507633 1.00888 0)
(0.036367 0.277797 0)
(-0.0587584 0.348113 0)
(-0.0739975 1.08018 0)
(-0.105768 1.33977 0)
(-0.151069 1.35413 0)
(-0.184657 1.2963 0)
(-0.196984 1.17391 0)
(-0.178208 0.994508 0)
(-0.132058 0.793199 0)
(-0.0751585 0.612017 0)
(-0.0224642 0.47239 0)
(0.0220493 0.332034 0)
(0.0552794 0.10415 0)
(0.0706454 -0.31979 0)
(0.0740402 -0.735639 0)
(0.0255081 -0.765491 0)
(-0.00175376 -0.764905 0)
(-0.0512277 -0.754101 0)
(-0.0438801 -0.37489 0)
(-0.0524434 0.0308191 0)
(-0.0251633 0.26763 0)
(0.0143183 0.426734 0)
(0.060706 0.578535 0)
(0.110954 0.758698 0)
(0.153923 0.945733 0)
(0.172694 1.10187 0)
(0.16534 1.20567 0)
(0.139111 1.25749 0)
(0.100646 1.24979 0)
(0.0662113 1.03042 0)
(0.0531366 0.331955 0)
(-0.0677079 0.416739 0)
(-0.101902 1.10176 0)
(-0.129972 1.38103 0)
(-0.17217 1.3932 0)
(-0.201758 1.31939 0)
(-0.203451 1.16678 0)
(-0.167331 0.954524 0)
(-0.107037 0.735475 0)
(-0.0443677 0.554586 0)
(0.00630693 0.42537 0)
(0.045429 0.295968 0)
(0.0739718 0.0792569 0)
(0.0803592 -0.322425 0)
(0.0750057 -0.700439 0)
(0.0223312 -0.734048 0)
(-0.00442598 -0.735295 0)
(-0.0587578 -0.719018 0)
(-0.0553389 -0.366353 0)
(-0.0666653 0.0152228 0)
(-0.0443605 0.238052 0)
(-0.0112365 0.38604 0)
(0.0316348 0.52896 0)
(0.085875 0.706132 0)
(0.142811 0.906489 0)
(0.180566 1.09229 0)
(0.18264 1.223 0)
(0.157554 1.29125 0)
(0.116213 1.29027 0)
(0.085655 1.04922 0)
(0.0604773 0.398542 0)
(-0.085871 0.520932 0)
(-0.14603 1.13351 0)
(-0.167761 1.41625 0)
(-0.19972 1.42628 0)
(-0.216864 1.33047 0)
(-0.199598 1.14193 0)
(-0.144904 0.898078 0)
(-0.0749918 0.669876 0)
(-0.0122651 0.498099 0)
(0.0334845 0.383767 0)
(0.0668007 0.265232 0)
(0.0880109 0.0607209 0)
(0.0843011 -0.312274 0)
(0.07193 -0.660478 0)
(0.0201185 -0.700516 0)
(-0.00619887 -0.702816 0)
(-0.0607724 -0.679189 0)
(-0.0601234 -0.351369 0)
(-0.0759501 0.00353842 0)
(-0.0613791 0.21356 0)
(-0.034962 0.351987 0)
(0.0022051 0.481794 0)
(0.0552771 0.647462 0)
(0.120947 0.850223 0)
(0.179215 1.06365 0)
(0.201473 1.2321 0)
(0.185718 1.32262 0)
(0.149649 1.32846 0)
(0.125171 1.07747 0)
(0.0763701 0.476736 0)
(-0.10036 0.66121 0)
(-0.187565 1.17442 0)
(-0.205888 1.44085 0)
(-0.223768 1.44341 0)
(-0.222165 1.32247 0)
(-0.18295 1.09516 0)
(-0.113816 0.829379 0)
(-0.0401439 0.602465 0)
(0.0186113 0.446008 0)
(0.0569941 0.348016 0)
(0.0836236 0.242148 0)