/*--------------------------------*- C++ -*----------------------------------*\
| =========                 |                                                 |
| \\      /  F ield         | OpenFOAM: The Open Source CFD Toolbox           |
|  \\    /   O peration     | Version:  v1606+                                |
|   \\  /    A nd           | Web:      www.OpenFOAM.com                      |
|    \\/     M anipulation  |                                                 |
\*---------------------------------------------------------------------------*/
FoamFile
{
    version     2.0;
    format      ascii;
    class       volVectorField;
    location    "0.63";
    object      U.airMean;
}
// * * * * * * * * * * * * * * * * * * * * * * * * * * * * * * * * * * * * * //

dimensions      [0 1 -1 0 0 0 0];

internalField   nonuniform List<vector> 
6000
(
(-0.020119 0.275065 0)
(-0.00803693 0.235631 0)
(0.00240506 0.24624 0)
(0.013143 0.249168 0)
(0.0211995 0.250437 0)
(0.025468 0.250528 0)
(0.0273613 0.251752 0)
(0.0266407 0.25155 0)
(0.0238941 0.250401 0)
(0.0191332 0.247013 0)
(0.0137103 0.24343 0)
(0.00853654 0.242796 0)
(0.00371859 0.242712 0)
(0.000960328 0.241195 0)
(-0.00018032 0.241453 0)
(-0.000869973 0.241124 0)
(-0.00191609 0.241925 0)
(-0.00502859 0.242683 0)
(-0.00972867 0.242743 0)
(-0.0156882 0.243764 0)
(-0.0212619 0.247568 0)
(-0.0257664 0.250765 0)
(-0.0284083 0.252113 0)
(-0.0287805 0.251971 0)
(-0.0268103 0.250566 0)
(-0.0223715 0.251338 0)
(-0.0138696 0.249836 0)
(-0.00251683 0.246293 0)
(0.00826818 0.235793 0)
(0.0205177 0.275686 0)
(0.0082709 0.995082 0)
(-0.00374862 0.98564 0)
(0.00439456 0.982826 0)
(0.00965154 0.979287 0)
(0.0193928 0.98368 0)
(0.026462 0.986301 0)
(0.0321521 0.989837 0)
(0.0350161 0.993472 0)
(0.0350419 0.999226 0)
(0.0290745 1.00427 0)
(0.0184072 1.00709 0)
(0.00886009 1.00486 0)
(0.00349053 1.00162 0)
(0.00107559 0.99795 0)
(0.000137775 0.996297 0)
(-0.00055247 0.995885 0)
(-0.00201791 0.998525 0)
(-0.00491255 1.00169 0)
(-0.0111713 1.00607 0)
(-0.0210905 1.0077 0)
(-0.0314709 1.0038 0)
(-0.0372741 0.998802 0)
(-0.0373774 0.992854 0)
(-0.0340616 0.989302 0)
(-0.0281213 0.986362 0)
(-0.020643 0.982438 0)
(-0.0102278 0.978037 0)
(-0.00427719 0.981849 0)
(0.00364313 0.985455 0)
(-0.00839692 0.99513 0)
(-0.0150479 0.833817 0)
(-0.013572 0.778851 0)
(-0.000625413 0.784119 0)
(0.00396309 0.777956 0)
(0.0161416 0.781458 0)
(0.026663 0.785609 0)
(0.0355493 0.793874 0)
(0.0396728 0.79997 0)
(0.0393881 0.810135 0)
(0.0319836 0.81907 0)
(0.0195518 0.820975 0)
(0.00913219 0.815687 0)
(0.00416667 0.809288 0)
(0.00260783 0.804532 0)
(0.0011767 0.802858 0)
(-0.00121165 0.803286 0)
(-0.00328527 0.805581 0)
(-0.00568554 0.810597 0)
(-0.0117154 0.816992 0)
(-0.0222132 0.821578 0)
(-0.0343289 0.818686 0)
(-0.0413092 0.80994 0)
(-0.0416198 0.799618 0)
(-0.0370099 0.792753 0)
(-0.0272052 0.785117 0)
(-0.0161324 0.780573 0)
(-0.00391869 0.777003 0)
(0.000878476 0.782673 0)
(0.013972 0.779278 0)
(0.015199 0.834733 0)
(4.07657e-05 0.879166 0)
(-0.00299044 0.819347 0)
(-0.0069688 0.825544 0)
(-0.00480328 0.814074 0)
(0.00725642 0.814341 0)
(0.0208449 0.816989 0)
(0.0337849 0.826679 0)
(0.0415551 0.837231 0)
(0.0427451 0.853632 0)
(0.037244 0.869813 0)
(0.0250725 0.876716 0)
(0.0101937 0.868689 0)
(0.000526052 0.855674 0)
(-0.000851371 0.848283 0)
(-2.17492e-06 0.846778 0)
(0.000434138 0.847633 0)
(0.000560279 0.850082 0)
(-0.00223838 0.858177 0)
(-0.0132724 0.870583 0)
(-0.0280247 0.876617 0)
(-0.0393283 0.868581 0)
(-0.044346 0.852961 0)
(-0.0426282 0.836499 0)
(-0.0343304 0.824988 0)
(-0.0205243 0.815841 0)
(-0.00616562 0.813008 0)
(0.00603526 0.813251 0)
(0.00792412 0.824808 0)
(0.00355273 0.819942 0)
(0.000209907 0.880211 0)
(0.000974573 0.858136 0)
(-0.0119652 0.809982 0)
(-0.0199027 0.810633 0)
(-0.0156787 0.787885 0)
(-0.00186179 0.782704 0)
(0.0140417 0.784147 0)
(0.0312282 0.795611 0)
(0.0450203 0.812139 0)
(0.0518145 0.835236 0)
(0.0496768 0.858275 0)
(0.0401106 0.872667 0)
(0.0218297 0.869186 0)
(0.004817 0.850441 0)
(-0.00185023 0.836491 0)
(-0.000775669 0.83288 0)
(0.00157955 0.834028 0)
(0.00135274 0.83959 0)
(-0.00747122 0.854188 0)
(-0.0255363 0.871258 0)
(-0.043108 0.871516 0)
(-0.0516729 0.856223 0)
(-0.0531103 0.833721 0)
(-0.0452216 0.810449 0)
(-0.0307709 0.793087 0)
(-0.0131057 0.782022 0)
(0.00333314 0.780782 0)
(0.0173627 0.786884 0)
(0.0214417 0.810203 0)
(0.0129896 0.81133 0)
(-0.000506415 0.859954 0)
(-0.00742619 0.855686 0)
(-0.0316447 0.811578 0)
(-0.0357756 0.793882 0)
(-0.0311997 0.764435 0)
(-0.0169919 0.753423 0)
(0.00583678 0.752621 0)
(0.0309294 0.763581 0)
(0.0525198 0.784996 0)
(0.067385 0.817416 0)
(0.0720046 0.851446 0)
(0.065804 0.877058 0)
(0.0460206 0.883895 0)
(0.0211091 0.86278 0)
(0.00415939 0.840607 0)
(0.000170362 0.8318 0)
(0.000641149 0.833797 0)
(-0.00594434 0.845684 0)
(-0.0256012 0.867807 0)
(-0.0506894 0.885127 0)
(-0.0685493 0.874602 0)
(-0.0737193 0.848397 0)
(-0.0677085 0.814633 0)
(-0.0518303 0.782007 0)
(-0.0296243 0.760674 0)
(-0.00414646 0.749992 0)
(0.0187289 0.751291 0)
(0.0326258 0.763285 0)
(0.0368613 0.793717 0)
(0.0328112 0.812786 0)
(0.00787931 0.858328 0)
(-0.0114467 0.882207 0)
(-0.0418379 0.817739 0)
(-0.0554903 0.790511 0)
(-0.061021 0.748308 0)
(-0.0456371 0.719241 0)
(-0.00957703 0.708767 0)
(0.0278138 0.718035 0)
(0.0589894 0.745295 0)
(0.0785225 0.784083 0)
(0.092124 0.829227 0)
(0.0923489 0.868211 0)
(0.0745555 0.888435 0)
(0.043011 0.875467 0)
(0.0153136 0.845435 0)
(0.00225272 0.828234 0)
(-0.00192619 0.831669 0)
(-0.0192778 0.853064 0)
(-0.0497199 0.88083 0)
(-0.0796568 0.886929 0)
(-0.094942 0.864414 0)
(-0.0933647 0.824449 0)
(-0.077932 0.780186 0)
(-0.0571925 0.741668 0)
(-0.0249977 0.714852 0)
(0.0126239 0.706335 0)
(0.0477012 0.718138 0)
(0.061824 0.748044 0)
(0.055468 0.790801 0)
(0.041983 0.819446 0)
(0.0115808 0.885402 0)
(-0.00375172 0.908931 0)
(-0.0432966 0.846747 0)
(-0.0745295 0.804679 0)
(-0.089441 0.740953 0)
(-0.0722637 0.6843 0)
(-0.0310222 0.662079 0)
(0.0149705 0.673957 0)
(0.0549266 0.711169 0)
(0.078462 0.755315 0)
(0.0986643 0.801161 0)
(0.108902 0.856083 0)
(0.0983081 0.890811 0)
(0.0655552 0.890033 0)
(0.0296224 0.859637 0)
(0.00662234 0.83177 0)
(-0.00815307 0.837571 0)
(-0.0358451 0.869611 0)
(-0.073346 0.892951 0)
(-0.102896 0.887568 0)
(-0.111168 0.851252 0)
(-0.0990283 0.795334 0)
(-0.0771807 0.750722 0)
(-0.0518228 0.706757 0)
(-0.010583 0.670208 0)
(0.0349755 0.66051 0)
(0.0746383 0.684439 0)
(0.0897663 0.741603 0)
(0.0729488 0.805467 0)
(0.0414373 0.84774 0)
(0.00217411 0.912415 0)
(-0.00663216 0.94039 0)
(-0.0479911 0.891229 0)
(-0.0909862 0.826525 0)
(-0.111167 0.733093 0)
(-0.0986731 0.651743 0)
(-0.0631968 0.613951 0)
(-0.0192476 0.623685 0)
(0.0295579 0.669275 0)
(0.064494 0.725658 0)
(0.0874373 0.770887 0)
(0.10432 0.840615 0)
(0.106384 0.895466 0)
(0.0778525 0.905768 0)
(0.0407828 0.882627 0)
(0.0126455 0.844408 0)
(-0.0176957 0.85322 0)
(-0.0486545 0.893008 0)
(-0.085145 0.906774 0)
(-0.110484 0.891007 0)
(-0.105969 0.833173 0)
(-0.0871603 0.764029 0)
(-0.0623986 0.719339 0)
(-0.0249653 0.663648 0)
(0.0241322 0.620144 0)
(0.0663761 0.613832 0)
(0.10017 0.653782 0)
(0.111027 0.73552 0)
(0.088115 0.829186 0)
(0.0436115 0.892764 0)
(0.00448415 0.940428 0)
(-0.0121013 0.976931 0)
(-0.0563423 0.932372 0)
(-0.10118 0.852735 0)
(-0.126144 0.728739 0)
(-0.122841 0.629187 0)
(-0.0991364 0.581778 0)
(-0.0602989 0.580345 0)
(-0.0128955 0.621314 0)
(0.0299637 0.691483 0)
(0.0580833 0.743488 0)
(0.0767425 0.809783 0)
(0.0932056 0.891491 0)
(0.075435 0.918046 0)
(0.042762 0.902553 0)
(0.0149203 0.865156 0)
(-0.0223203 0.877691 0)
(-0.0511329 0.90991 0)
(-0.0829569 0.916878 0)
(-0.0964255 0.884978 0)
(-0.0779793 0.800058 0)
(-0.0571298 0.736343 0)
(-0.0269715 0.683479 0)
(0.0164713 0.61509 0)
(0.0634547 0.578628 0)
(0.102227 0.584357 0)
(0.125039 0.631948 0)
(0.126728 0.732802 0)
(0.0987775 0.857252 0)
(0.0522453 0.933857 0)
(0.0104419 0.975402 0)
(-0.0152973 1.00633 0)
(-0.0594655 0.967002 0)
(-0.106842 0.879545 0)
(-0.138238 0.727601 0)
(-0.14728 0.613076 0)
(-0.133588 0.551093 0)
(-0.100147 0.543725 0)
(-0.0528316 0.578489 0)
(-0.0106126 0.652731 0)
(0.0193967 0.721359 0)
(0.0387547 0.780784 0)
(0.0590679 0.879267 0)
(0.0609744 0.927406 0)
(0.0360427 0.916668 0)
(0.0129893 0.889861 0)
(-0.0215475 0.90073 0)
(-0.043324 0.923642 0)
(-0.0680008 0.925064 0)
(-0.061731 0.870122 0)
(-0.0395976 0.769762 0)
(-0.0178988 0.712992 0)
(0.0124605 0.643704 0)
(0.0550429 0.573286 0)
(0.101584 0.541153 0)
(0.135255 0.55171 0)
(0.148846 0.616097 0)
(0.138166 0.733556 0)
(0.104683 0.886833 0)
(0.0560535 0.968236 0)
(0.0141336 1.00225 0)
(-0.0161771 1.03715 0)
(-0.058935 1.00061 0)
(-0.10601 0.910382 0)
(-0.142298 0.73461 0)
(-0.162188 0.604313 0)
(-0.15581 0.527817 0)
(-0.128973 0.50466 0)
(-0.0874322 0.542278 0)
(-0.0461943 0.619444 0)
(-0.0217301 0.701551 0)
(-0.0036638 0.758742 0)
(0.0170223 0.857967 0)
(0.0364522 0.93186 0)
(0.024347 0.928605 0)
(0.00993425 0.914042 0)
(-0.0155701 0.921958 0)
(-0.0296734 0.935476 0)
(-0.041997 0.928041 0)
(-0.0195036 0.843844 0)
(0.00298568 0.747196 0)
(0.0222067 0.691681 0)
(0.0470795 0.610388 0)
(0.0886804 0.537102 0)
(0.12976 0.502377 0)
(0.156736 0.528579 0)
(0.162714 0.607881 0)
(0.141506 0.742432 0)
(0.103594 0.917381 0)
(0.0570656 1.00136 0)
(0.0154214 1.03135 0)
(-0.0162089 1.06619 0)
(-0.0548441 1.02895 0)
(-0.0969034 0.937317 0)
(-0.13659 0.745777 0)
(-0.164025 0.601456 0)
(-0.166585 0.511131 0)
(-0.148954 0.477545 0)
(-0.116501 0.511799 0)
(-0.0800843 0.592314 0)
(-0.0586708 0.688672 0)
(-0.0449025 0.745392 0)
(-0.0262975 0.83033 0)
(0.00379145 0.926677 0)
(0.0113114 0.93557 0)
(0.00530669 0.931559 0)
(-0.0082346 0.937522 0)
(-0.0150026 0.943533 0)
(-0.00678649 0.921113 0)
(0.0236589 0.814448 0)
(0.0437499 0.733735 0)
(0.057089 0.677729 0)
(0.0796004 0.582494 0)
(0.116346 0.505423 0)
(0.149198 0.475293 0)
(0.166928 0.511657 0)
(0.163556 0.605103 0)
(0.135265 0.755187 0)
(0.0946441 0.944745 0)
(0.0538058 1.02933 0)
(0.0159307 1.05996 0)
(-0.0139019 1.09257 0)
(-0.0469754 1.04985 0)
(-0.0805894 0.961375 0)
(-0.122156 0.761933 0)
(-0.156949 0.60396 0)
(-0.170596 0.503052 0)
(-0.163443 0.459806 0)
(-0.139806 0.487909 0)
(-0.110434 0.572028 0)
(-0.091302 0.678145 0)
(-0.0829962 0.739781 0)
(-0.0669881 0.80745 0)
(-0.0323874 0.9057 0)
(-0.000287275 0.935252 0)
(9.37637e-05 0.940971 0)
(-0.00302215 0.945016 0)
(-0.00134442 0.943372 0)
(0.0323803 0.898936 0)
(0.0645625 0.792096 0)
(0.0806883 0.728164 0)
(0.0889887 0.665827 0)
(0.108817 0.561636 0)
(0.138464 0.480637 0)
(0.162502 0.456998 0)
(0.169781 0.503921 0)
(0.154945 0.608397 0)
(0.118811 0.773056 0)
(0.0771214 0.967377 0)
(0.0456612 1.04881 0)
(0.0139295 1.08571 0)
(-0.00981971 1.10866 0)
(-0.0374811 1.06306 0)
(-0.0574501 0.977548 0)
(-0.0996026 0.783914 0)
(-0.144334 0.614146 0)
(-0.170117 0.504304 0)
(-0.172656 0.449996 0)
(-0.158615 0.472597 0)
(-0.136447 0.56083 0)
(-0.118832 0.672107 0)
(-0.113933 0.742586 0)
(-0.099243 0.792589 0)
(-0.0634343 0.873798 0)
(-0.0124851 0.929119 0)
(-0.00592926 0.948548 0)
(0.00321 0.950336 0)
(0.0138025 0.93707 0)
(0.0667189 0.86646 0)
(0.0960822 0.779797 0)
(0.109468 0.730316 0)
(0.115541 0.658521 0)
(0.134586 0.550648 0)
(0.157117 0.46514 0)
(0.170837 0.447794 0)
(0.16738 0.506075 0)
(0.140035 0.618655 0)
(0.095178 0.795179 0)
(0.053458 0.98103 0)
(0.036081 1.06036 0)
(0.0100076 1.10137 0)
(-0.0071804 1.12225 0)
(-0.0302329 1.06821 0)
(-0.0337252 0.983971 0)
(-0.0736848 0.811378 0)
(-0.122406 0.631316 0)
(-0.161446 0.514053 0)
(-0.177142 0.449494 0)
(-0.174713 0.465777 0)
(-0.158369 0.555816 0)
(-0.135737 0.665842 0)
(-0.125252 0.746695 0)
(-0.116865 0.787521 0)
(-0.0842868 0.83856 0)
(-0.0322829 0.918227 0)
(-0.0101893 0.952501 0)
(0.00558698 0.95189 0)
(0.0372424 0.919208 0)
(0.0903746 0.83597 0)
(0.115824 0.780182 0)
(0.120057 0.733389 0)
(0.132772 0.650437 0)
(0.158025 0.544713 0)
(0.17333 0.458915 0)
(0.173907 0.448228 0)
(0.157798 0.516105 0)
(0.117633 0.636931 0)
(0.070017 0.823216 0)
(0.0321521 0.986193 0)
(0.0298001 1.065 0)
(0.00771152 1.11589 0)
(-0.00602583 1.13551 0)
(-0.0240567 1.06674 0)
(-0.0154128 0.982746 0)
(-0.0441697 0.842223 0)
(-0.0943335 0.658221 0)
(-0.141809 0.533276 0)
(-0.173382 0.460478 0)
(-0.18684 0.467789 0)
(-0.176912 0.549711 0)
(-0.14454 0.653515 0)
(-0.119038 0.748742 0)
(-0.114827 0.798122 0)
(-0.0914858 0.810617 0)
(-0.0535318 0.912017 0)
(-0.015155 0.953057 0)
(0.00836697 0.949139 0)
(0.0554165 0.905039 0)
(0.0953596 0.813962 0)
(0.11406 0.795082 0)
(0.115618 0.734689 0)
(0.144554 0.636034 0)
(0.177971 0.538384 0)
(0.185447 0.46407 0)
(0.170343 0.460918 0)
(0.136599 0.534755 0)
(0.087805 0.663439 0)
(0.0391981 0.849275 0)
(0.0156457 0.984027 0)
(0.0247909 1.06355 0)
(0.00702634 1.13023 0)
(-0.00596246 1.14841 0)
(-0.0181129 1.05969 0)
(0.00103927 0.97959 0)
(-0.00558789 0.862764 0)
(-0.0500654 0.693024 0)
(-0.109796 0.561577 0)
(-0.165979 0.488609 0)
(-0.195861 0.481908 0)
(-0.194497 0.541608 0)
(-0.155226 0.629486 0)
(-0.108997 0.739038 0)
(-0.0920215 0.810354 0)
(-0.0877743 0.809208 0)
(-0.065166 0.897223 0)
(-0.0168408 0.943798 0)
(0.0125294 0.938774 0)
(0.0628501 0.885343 0)
(0.0864575 0.812854 0)
(0.0915115 0.809676 0)
(0.110375 0.723433 0)
(0.159082 0.610842 0)
(0.196645 0.531799 0)
(0.197042 0.479941 0)
(0.162696 0.490527 0)
(0.102024 0.565579 0)
(0.0405423 0.700394 0)
(-8.74342e-05 0.866221 0)
(-0.000156584 0.979237 0)
(0.0202675 1.05684 0)
(0.00735499 1.14452 0)
(-0.00142731 1.16209 0)
(-0.00543023 1.04601 0)
(0.0197669 0.968454 0)
(0.0344214 0.873708 0)
(0.00261942 0.7428 0)
(-0.0601937 0.616689 0)
(-0.143378 0.533071 0)
(-0.199776 0.50541 0)
(-0.206829 0.534365 0)
(-0.171003 0.597726 0)
(-0.107929 0.710254 0)
(-0.0652543 0.809797 0)
(-0.0675509 0.821781 0)
(-0.0585361 0.870239 0)
(-0.018019 0.927371 0)
(0.0177897 0.921343 0)
(0.0557765 0.858557 0)
(0.0631864 0.823506 0)
(0.0654123 0.806668 0)
(0.113679 0.691659 0)
(0.177033 0.579866 0)
(0.211692 0.524852 0)
(0.202529 0.501579 0)
(0.142341 0.536899 0)
(0.0565307 0.62125 0)
(-0.00397688 0.746239 0)
(-0.0331978 0.871893 0)
(-0.017757 0.96316 0)
(0.00687836 1.04357 0)
(0.00195009 1.16028 0)
(0.0137234 1.15999 0)
(0.023013 1.03195 0)
(0.041492 0.944662 0)
(0.0427419 0.869364 0)
(0.0187407 0.775101 0)
(-0.0443634 0.672296 0)
(-0.136699 0.595176 0)
(-0.211606 0.532613 0)
(-0.221239 0.522422 0)
(-0.18672 0.56477 0)
(-0.123936 0.664193 0)
(-0.0631215 0.787231 0)
(-0.0450743 0.827486 0)
(-0.0462107 0.851132 0)
(-0.0178152 0.901828 0)
(0.020697 0.894554 0)
(0.0446925 0.844343 0)
(0.0414915 0.82726 0)
(0.0669477 0.778469 0)
(0.131125 0.644497 0)
(0.192215 0.546929 0)
(0.22453 0.510875 0)
(0.212775 0.529708 0)
(0.139076 0.599173 0)
(0.0490861 0.674503 0)
(-0.0126721 0.772372 0)
(-0.0355106 0.862939 0)
(-0.0388686 0.937133 0)
(-0.0240335 1.02709 0)
(-0.0138885 1.15508 0)
(0.027411 1.12585 0)
(0.0513866 1.00644 0)
(0.054003 0.932794 0)
(0.024527 0.870568 0)
(-0.018091 0.796792 0)
(-0.084092 0.731557 0)
(-0.163209 0.65205 0)
(-0.227526 0.56171 0)
(-0.244464 0.505518 0)
(-0.216729 0.526854 0)
(-0.159992 0.617132 0)
(-0.0907814 0.740732 0)
(-0.0436729 0.814405 0)
(-0.0318963 0.831081 0)
(-0.0128958 0.865273 0)
(0.0150418 0.860513 0)
(0.0300541 0.826672 0)
(0.043096 0.809924 0)
(0.0970484 0.726965 0)
(0.167805 0.598148 0)
(0.219697 0.509112 0)
(0.242288 0.493813 0)
(0.224657 0.554825 0)
(0.16481 0.649348 0)
(0.0913037 0.733768 0)
(0.0275255 0.797126 0)
(-0.0136274 0.869748 0)
(-0.047018 0.932095 0)
(-0.0492888 0.998469 0)
(-0.0260315 1.11649 0)
(0.0242467 1.06079 0)
(0.0336986 0.972152 0)
(0.00881354 0.943177 0)
(-0.0359472 0.904487 0)
(-0.0883282 0.841581 0)
(-0.141073 0.775877 0)
(-0.186259 0.681094 0)
(-0.226723 0.568893 0)
(-0.242707 0.48744 0)
(-0.229403 0.492697 0)
(-0.184995 0.567845 0)
(-0.12063 0.687108 0)
(-0.0553282 0.772836 0)
(-0.0239592 0.804887 0)
(-0.00713445 0.82952 0)
(0.0078352 0.827727 0)
(0.0219599 0.802098 0)
(0.0553689 0.765282 0)
(0.124833 0.66952 0)
(0.188019 0.549889 0)
(0.227653 0.479046 0)
(0.236641 0.476892 0)
(0.220655 0.560034 0)
(0.182643 0.675875 0)
(0.143482 0.772122 0)
(0.0966581 0.839666 0)
(0.0461272 0.902837 0)
(0.00394028 0.948148 0)
(-0.0226772 0.9711 0)
(-0.0218825 1.05552 0)
(0.00863075 1.03796 0)
(-0.0215928 0.993127 0)
(-0.0639353 0.965671 0)
(-0.100229 0.918847 0)
(-0.136263 0.858991 0)
(-0.159329 0.787341 0)
(-0.178034 0.690391 0)
(-0.204608 0.571287 0)
(-0.222572 0.473702 0)
(-0.217019 0.463918 0)
(-0.186443 0.526734 0)
(-0.133112 0.633318 0)
(-0.0675616 0.725679 0)
(-0.0257259 0.773865 0)
(-0.00539434 0.80573 0)
(0.0055189 0.805969 0)
(0.023559 0.77257 0)
(0.0671206 0.715904 0)
(0.133967 0.614733 0)
(0.184787 0.510647 0)
(0.212082 0.450337 0)
(0.21601 0.464628 0)
(0.196898 0.562743 0)
(0.171925 0.684229 0)
(0.158634 0.78068 0)
(0.139532 0.855039 0)
(0.105904 0.914401 0)
(0.0744084 0.964078 0)
(0.0338433 0.997942 0)
(-0.00439901 1.04293 0)
(-0.0144293 1.03609 0)
(-0.0623598 1.01253 0)
(-0.100906 0.973469 0)
(-0.126246 0.927972 0)
(-0.141121 0.865876 0)
(-0.142769 0.784644 0)
(-0.14794 0.691309 0)
(-0.168452 0.573378 0)
(-0.194168 0.467106 0)
(-0.197359 0.440411 0)
(-0.175887 0.494146 0)
(-0.133509 0.588754 0)
(-0.0766181 0.682134 0)
(-0.0314508 0.743065 0)
(-0.00633558 0.783635 0)
(0.00688856 0.78562 0)
(0.0295121 0.742983 0)
(0.0773024 0.670689 0)
(0.132296 0.571582 0)
(0.172386 0.480124 0)
(0.191422 0.428711 0)
(0.18698 0.459368 0)
(0.160964 0.56736 0)
(0.142617 0.683114 0)
(0.14007 0.777036 0)
(0.13991 0.861066 0)
(0.126645 0.925153 0)
(0.10329 0.974094 0)
(0.0657266 1.02191 0)
(0.0177482 1.04879 0)
(-0.0262346 1.0655 0)
(-0.0688645 1.05114 0)
(-0.108846 0.994001 0)
(-0.12127 0.935688 0)
(-0.115998 0.859846 0)
(-0.107272 0.775945 0)
(-0.108548 0.689864 0)
(-0.128138 0.579709 0)
(-0.160911 0.469258 0)
(-0.174097 0.424776 0)
(-0.161321 0.468544 0)
(-0.127584 0.553427 0)
(-0.0803034 0.644549 0)
(-0.0354173 0.714031 0)
(-0.00724006 0.765783 0)
(0.00788082 0.770029 0)
(0.0348503 0.713283 0)
(0.0804791 0.632446 0)
(0.125817 0.538431 0)
(0.157563 0.456543 0)
(0.168716 0.4149 0)
(0.153975 0.462668 0)
(0.123035 0.573621 0)
(0.104668 0.681603 0)
(0.103365 0.768175 0)
(0.11148 0.852679 0)
(0.117729 0.931446 0)
(0.106674 0.993748 0)
(0.0679077 1.06164 0)
(0.0267518 1.08421 0)
(-0.0308651 1.10952 0)
(-0.0698122 1.09061 0)
(-0.0970749 1.00931 0)
(-0.0890392 0.931154 0)
(-0.0722775 0.844797 0)
(-0.0643752 0.769216 0)
(-0.0669755 0.690161 0)
(-0.0882358 0.589884 0)
(-0.125513 0.478063 0)
(-0.150206 0.41691 0)
(-0.145338 0.449586 0)
(-0.118753 0.524009 0)
(-0.0788226 0.612135 0)
(-0.0378672 0.685795 0)
(-0.0081276 0.746243 0)
(0.00901774 0.752963 0)
(0.0378853 0.683804 0)
(0.0783295 0.59982 0)
(0.117255 0.510087 0)
(0.142461 0.437841 0)
(0.146628 0.408325 0)
(0.121739 0.471994 0)
(0.0864199 0.582779 0)
(0.0648149 0.681559 0)
(0.0606585 0.761152 0)
(0.0677681 0.837714 0)
(0.0839376 0.924927 0)
(0.0930576 1.0075 0)
(0.0663092 1.09889 0)
(0.0298678 1.12571 0)
(-0.035238 1.15516 0)
(-0.0576309 1.11439 0)
(-0.0601405 1.00752 0)
(-0.0389983 0.91555 0)
(-0.0252949 0.835974 0)
(-0.0208541 0.765633 0)
(-0.0273218 0.692968 0)
(-0.0507379 0.60252 0)
(-0.0908206 0.494284 0)
(-0.12635 0.41881 0)
(-0.130304 0.431591 0)
(-0.109652 0.498749 0)
(-0.0756647 0.583622 0)
(-0.0388285 0.659463 0)
(-0.00877792 0.725224 0)
(0.0107433 0.735927 0)
(0.038357 0.656832 0)
(0.0743046 0.571186 0)
(0.107514 0.485878 0)
(0.126828 0.420517 0)
(0.122754 0.410799 0)
(0.089127 0.487087 0)
(0.0509777 0.595328 0)
(0.0271331 0.685294 0)
(0.0194536 0.757441 0)
(0.0230491 0.828461 0)
(0.0363316 0.909541 0)
(0.0561417 1.0052 0)
(0.0549569 1.12028 0)
(0.0357864 1.16876 0)
(-0.0315545 1.19928 0)
(-0.0290801 1.11299 0)
(-0.00634949 0.995853 0)
(0.0101732 0.906023 0)
(0.0201081 0.829907 0)
(0.0197019 0.764645 0)
(0.00917065 0.699759 0)
(-0.0146524 0.618827 0)
(-0.0548559 0.515084 0)
(-0.0988606 0.429754 0)
(-0.112873 0.418914 0)
(-0.101256 0.477678 0)
(-0.0729394 0.558658 0)
(-0.0399933 0.635367 0)
(-0.00908982 0.704385 0)
(0.00980264 0.718586 0)
(0.0391863 0.632763 0)
(0.0709441 0.546759 0)
(0.098298 0.466186 0)
(0.108539 0.409506 0)
(0.0952224 0.420646 0)
(0.0541455 0.506999 0)
(0.0160969 0.61118 0)
(-0.0071843 0.692113 0)
(-0.0182534 0.756771 0)
(-0.0195959 0.82217 0)
(-0.0103599 0.900001 0)
(0.00545261 0.994185 0)
(0.0293086 1.11625 0)
(0.0323545 1.21382 0)
(-0.0131517 1.22748 0)
(0.00427816 1.09167 0)
(0.0383867 0.986239 0)
(0.0532211 0.898743 0)
(0.0593548 0.82809 0)
(0.054615 0.769664 0)
(0.0411416 0.71168 0)
(0.0187051 0.6391 0)
(-0.0189206 0.542601 0)
(-0.0709608 0.449185 0)
(-0.0965241 0.415698 0)
(-0.0930179 0.461645 0)
(-0.0708527 0.536787 0)
(-0.0406862 0.613862 0)
(-0.0106188 0.685172 0)
(0.00994039 0.700356 0)
(0.0398031 0.61107 0)
(0.0680363 0.526367 0)
(0.0892692 0.45254 0)
(0.0920934 0.406918 0)
(0.0685654 0.43952 0)
(0.0197055 0.532705 0)
(-0.0176224 0.629836 0)
(-0.0392844 0.703399 0)
(-0.0521465 0.762205 0)
(-0.0569845 0.821089 0)
(-0.0511599 0.892956 0)
(-0.0361354 0.983986 0)
(-0.0015624 1.09526 0)
(0.0138714 1.2427 0)
(0.00369281 1.23208 0)
(0.0258289 1.06923 0)
(0.0656214 0.969714 0)
(0.0834486 0.89066 0)
(0.0894552 0.828693 0)
(0.0833443 0.777652 0)
(0.0684081 0.724944 0)
(0.0456996 0.659291 0)
(0.0110795 0.572947 0)
(-0.0445826 0.480924 0)
(-0.084787 0.421227 0)
(-0.0859544 0.451584 0)
(-0.0672798 0.518195 0)
(-0.0405405 0.595523 0)
(-0.0128962 0.667784 0)
(0.0100113 0.680917 0)
(0.0386323 0.593369 0)
(0.0628528 0.510212 0)
(0.0804919 0.443722 0)
(0.0793844 0.412998 0)
(0.045007 0.468695 0)
(-0.010219 0.562868 0)
(-0.045584 0.649918 0)
(-0.06754 0.716357 0)
(-0.0815819 0.769796 0)
(-0.0872079 0.821474 0)
(-0.0808983 0.884389 0)
(-0.0626544 0.967005 0)
(-0.0229141 1.07448 0)
(-0.00261335 1.25001 0)
(0.0139757 1.22628 0)
(0.0415451 1.04301 0)
(0.0845067 0.949015 0)
(0.105541 0.881475 0)
(0.112639 0.830657 0)
(0.10591 0.788656 0)
(0.0887077 0.742656 0)
(0.0623312 0.683323 0)
(0.0274487 0.60399 0)
(-0.0228862 0.516193 0)
(-0.0739496 0.43684 0)
(-0.0798366 0.439707 0)
(-0.063655 0.502695 0)
(-0.0407399 0.580902 0)
(-0.015751 0.653005 0)
(0.00919678 0.662782 0)
(0.035647 0.580763 0)
(0.055766 0.49674 0)
(0.0720338 0.433599 0)
(0.0707709 0.424149 0)
(0.0255384 0.503827 0)
(-0.0275858 0.593637 0)
(-0.0624726 0.673444 0)
(-0.0881932 0.733559 0)
(-0.104877 0.780494 0)
(-0.111277 0.823568 0)
(-0.104167 0.875433 0)
(-0.0829708 0.946375 0)
(-0.0401852 1.04881 0)
(-0.0131063 1.24602 0)
(0.0216433 1.20654 0)
(0.0560611 1.01229 0)
(0.10084 0.925953 0)
(0.12288 0.872099 0)
(0.129066 0.833932 0)
(0.119663 0.801677 0)
(0.0980757 0.762519 0)
(0.0667889 0.70921 0)
(0.0307518 0.634953 0)
(-0.0111505 0.550114 0)
(-0.0573448 0.459234 0)
(-0.0760059 0.432371 0)
(-0.0659591 0.488727 0)
(-0.0444362 0.567831 0)
(-0.0196487 0.637532 0)
(0.00967351 0.644493 0)
(0.0350934 0.569861 0)
(0.0524753 0.486424 0)
(0.0657805 0.421293 0)
(0.0571373 0.442598 0)
(0.0120343 0.536686 0)
(-0.0310577 0.624285 0)
(-0.0665473 0.698797 0)
(-0.09755 0.753004 0)
(-0.119005 0.793168 0)
(-0.128532 0.826814 0)
(-0.122789 0.866168 0)
(-0.100986 0.923338 0)
(-0.0562889 1.01819 0)
(-0.0214334 1.22639 0)
(0.029568 1.17358 0)
(0.0713228 0.977462 0)
(0.116019 0.901711 0)
(0.135531 0.862639 0)
(0.137201 0.838257 0)
(0.122118 0.816261 0)
(0.0942859 0.784094 0)
(0.0605523 0.734637 0)
(0.0284536 0.661433 0)
(-0.00159673 0.576916 0)
(-0.0353769 0.480523 0)
(-0.0592645 0.438862 0)
(-0.061796 0.475406 0)
(-0.0469289 0.552025 0)
(-0.0202707 0.617118 0)
(0.0118556 0.624306 0)
(0.037198 0.558177 0)
(0.0534882 0.47538 0)
(0.0567035 0.422701 0)
(0.0367994 0.461896 0)
(0.00150778 0.562633 0)
(-0.0284445 0.650176 0)
(-0.0598167 0.724056 0)
(-0.0933882 0.774427 0)
(-0.121532 0.807864 0)
(-0.137128 0.831548 0)
(-0.13627 0.857278 0)
(-0.117318 0.899256 0)
(-0.0727396 0.983297 0)
(-0.0300508 1.19304 0)
(0.0402683 1.1281 0)
(0.0882113 0.94118 0)
(0.128462 0.879349 0)
(0.141356 0.85674 0)
(0.135074 0.846237 0)
(0.111871 0.834442 0)
(0.079392 0.807318 0)
(0.04976 0.756613 0)
(0.0284259 0.680182 0)
(0.0109311 0.594577 0)
(-0.0124395 0.50074 0)
(-0.0351994 0.44891 0)
(-0.0436985 0.476539 0)
(-0.0360236 0.535992 0)
(-0.0158147 0.595597 0)
(0.0112669 0.603455 0)
(0.0329065 0.543525 0)
(0.0422879 0.469853 0)
(0.0366101 0.432046 0)
(0.0139503 0.481922 0)
(-0.0111123 0.580362 0)
(-0.0284897 0.668317 0)
(-0.0489822 0.745614 0)
(-0.0783239 0.797815 0)
(-0.111106 0.826466 0)
(-0.135197 0.840178 0)
(-0.14232 0.852144 0)
(-0.130223 0.877237 0)
(-0.0901993 0.946806 0)
(-0.0413017 1.14627 0)
(0.0522381 1.06738 0)
(0.103751 0.905811 0)
(0.134708 0.861996 0)
(0.137987 0.856663 0)
(0.120972 0.860298 0)
(0.0905472 0.856448 0)
(0.0611565 0.828486 0)
(0.0426216 0.770977 0)
(0.0330279 0.690538 0)
(0.0251115 0.606384 0)
(0.00843619 0.518795 0)
(-0.0129631 0.461729 0)
(-0.0240987 0.476845 0)
(-0.0212631 0.527829 0)
(-0.0103227 0.580435 0)
(0.00873206 0.587002 0)
(0.0218091 0.534342 0)
(0.0249899 0.470742 0)
(0.014745 0.445331 0)
(-0.00722413 0.50045 0)
(-0.0252661 0.592648 0)
(-0.033325 0.678428 0)
(-0.0424281 0.759633 0)
(-0.0604029 0.818942 0)
(-0.0899567 0.849154 0)
(-0.12104 0.854877 0)
(-0.138865 0.852772 0)
(-0.136292 0.860392 0)
(-0.105309 0.91104 0)
(-0.0530112 1.08419 0)
(0.060645 0.992975 0)
(0.110937 0.874481 0)
(0.130732 0.852056 0)
(0.123154 0.86522 0)
(0.096316 0.881165 0)
(0.0663262 0.877901 0)
(0.0476205 0.842355 0)
(0.0412952 0.777806 0)
(0.041325 0.69579 0)
(0.0381684 0.615213 0)
(0.0251956 0.535086 0)
(0.00522477 0.477138 0)
(-0.00865548 0.482216 0)
(-0.0102071 0.525912 0)
(-0.0057265 0.572538 0)
(0.00677921 0.578136 0)
(0.0129808 0.531515 0)
(0.011078 0.475584 0)
(-0.00288468 0.461261 0)
(-0.0242073 0.517422 0)
(-0.0384509 0.601884 0)
(-0.0420954 0.683624 0)
(-0.0419948 0.76614 0)
(-0.0478875 0.832567 0)
(-0.0663276 0.870958 0)
(-0.0965222 0.876314 0)
(-0.123721 0.861936 0)
(-0.131878 0.850738 0)
(-0.111314 0.879035 0)
(-0.060749 1.00895 0)
(0.0599814 0.913407 0)
(0.105702 0.849665 0)
(0.115332 0.851205 0)
(0.0970072 0.88195 0)
(0.067559 0.904182 0)
(0.0464736 0.893677 0)
(0.0401473 0.848214 0)
(0.044925 0.778329 0)
(0.0507116 0.697891 0)
(0.0490794 0.623448 0)
(0.0380711 0.550193 0)
(0.0192492 0.494027 0)
(0.00330401 0.491196 0)
(-0.00149183 0.529358 0)
(-0.00161385 0.570404 0)
(0.00532674 0.575271 0)
(0.00629584 0.534554 0)
(0.000526164 0.48505 0)
(-0.0160086 0.479757 0)
(-0.0368436 0.533793 0)
(-0.0493088 0.610727 0)
(-0.0517658 0.686146 0)
(-0.0467091 0.766654 0)
(-0.0416893 0.838062 0)
(-0.0475893 0.886677 0)
(-0.0681322 0.899261 0)
(-0.097417 0.879113 0)
(-0.115925 0.849635 0)
(-0.105289 0.853292 0)
(-0.0594146 0.929958 0)
(0.0504742 0.840188 0)
(0.0904938 0.831356 0)
(0.0884374 0.858386 0)
(0.0658508 0.904658 0)
(0.0420418 0.92089 0)
(0.0341008 0.901264 0)
(0.0392508 0.847132 0)
(0.0516139 0.774713 0)
(0.059875 0.699798 0)
(0.058803 0.631784 0)
(0.0483406 0.565053 0)
(0.0293831 0.51214 0)
(0.011539 0.503001 0)
(0.00481079 0.536077 0)
(0.00158725 0.572871 0)
(0.00344134 0.577171 0)
(0.00126685 0.541703 0)
(-0.0065031 0.497989 0)
(-0.0252206 0.499497 0)
(-0.0462375 0.550345 0)
(-0.0583546 0.619864 0)
(-0.0605739 0.688938 0)
(-0.0536278 0.763545 0)
(-0.0416381 0.836737 0)
(-0.0359227 0.893872 0)
(-0.0432618 0.915739 0)
(-0.06669 0.901976 0)
(-0.0890091 0.856707 0)
(-0.0900482 0.834131 0)
(-0.050041 0.857391 0)
(0.0357479 0.781552 0)
(0.0670214 0.8222 0)
(0.0546037 0.871546 0)
(0.0352516 0.925414 0)
(0.0242351 0.931756 0)
(0.0302622 0.902483 0)
(0.0451658 0.840134 0)
(0.0620974 0.768727 0)
(0.0699702 0.701382 0)
(0.0681472 0.640307 0)
(0.0565791 0.580684 0)
(0.0365509 0.531843 0)
(0.0176951 0.516927 0)
(0.00966478 0.542783 0)
(0.0042159 0.579063 0)
(0.00137019 0.582803 0)
(-0.0030077 0.548233 0)
(-0.0117584 0.512838 0)
(-0.031526 0.520807 0)
(-0.0533496 0.567741 0)
(-0.0666306 0.629482 0)
(-0.0696788 0.691728 0)
(-0.0632214 0.758698 0)
(-0.0472712 0.829932 0)
(-0.0320599 0.894662 0)
(-0.0260319 0.926539 0)
(-0.0382209 0.92223 0)
(-0.0563639 0.869168 0)
(-0.0672615 0.824068 0)
(-0.0358579 0.799353 0)
(0.0225047 0.740587 0)
(0.040597 0.82438 0)
(0.0217682 0.888657 0)
(0.0174945 0.939477 0)
(0.0238043 0.932295 0)
(0.0407738 0.895458 0)
(0.0598119 0.830334 0)
(0.07597 0.764261 0)
(0.0811552 0.704773 0)
(0.0767162 0.65065 0)
(0.0626692 0.598016 0)
(0.041259 0.55238 0)
(0.0219477 0.53189 0)
(0.0121764 0.551125 0)
(0.0054347 0.589065 0)
(0.000412236 0.592025 0)
(-0.00547226 0.556169 0)
(-0.0155976 0.528647 0)
(-0.0358128 0.5425 0)
(-0.0585996 0.586533 0)
(-0.0741859 0.640826 0)
(-0.0797892 0.696043 0)
(-0.0757836 0.75528 0)
(-0.0605085 0.820504 0)
(-0.0414913 0.886916 0)
(-0.0244916 0.928002 0)
(-0.0191662 0.937114 0)
(-0.0247703 0.884488 0)
(-0.0415759 0.825287 0)
(-0.0231668 0.758187 0)
(0.00927303 0.716881 0)
(0.0173919 0.832541 0)
(0.00469258 0.89714 0)
(0.0183615 0.938971 0)
(0.0351874 0.925851 0)
(0.0569884 0.88735 0)
(0.0758898 0.822549 0)
(0.0888578 0.762168 0)
(0.0905621 0.710433 0)
(0.0824582 0.66358 0)
(0.0655747 0.617076 0)
(0.0432493 0.573402 0)
(0.0241818 0.547838 0)
(0.013027 0.561187 0)
(0.0055107 0.598734 0)
(7.66229e-05 0.602077 0)
(-0.00648562 0.565642 0)
(-0.0175404 0.545127 0)
(-0.037365 0.564494 0)
(-0.0607887 0.606666 0)
(-0.0791575 0.654647 0)
(-0.0885423 0.70235 0)
(-0.0881109 0.753741 0)
(-0.0761584 0.812768 0)
(-0.0573893 0.878534 0)
(-0.0354309 0.921536 0)
(-0.0186144 0.937564 0)
(-0.00593777 0.894816 0)
(-0.019971 0.831898 0)
(-0.0105241 0.733663 0)
(-0.00153263 0.71186 0)
(0.00316241 0.838217 0)
(0.00793378 0.89375 0)
(0.0271972 0.929871 0)
(0.0468126 0.915699 0)
(0.0701823 0.877189 0)
(0.0887935 0.816435 0)
(0.0983218 0.762645 0)
(0.0960629 0.718903 0)
(0.0840065 0.678896 0)
(0.0648452 0.637099 0)
(0.0429427 0.594132 0)
(0.0250704 0.56435 0)
(0.0132938 0.572768 0)
(0.00492317 0.609357 0)
(-0.000840448 0.612075 0)
(-0.00782046 0.576217 0)
(-0.0189788 0.561739 0)
(-0.0371425 0.585767 0)
(-0.0596555 0.627555 0)
(-0.0801902 0.670879 0)
(-0.0937431 0.711672 0)
(-0.0976526 0.755022 0)
(-0.0896226 0.807022 0)
(-0.0717353 0.867949 0)
(-0.0477591 0.911001 0)
(-0.0272742 0.928373 0)
(-0.00842767 0.893552 0)
(-0.00563711 0.838651 0)