/*--------------------------------*- C++ -*----------------------------------*\
| =========                 |                                                 |
| \\      /  F ield         | OpenFOAM: The Open Source CFD Toolbox           |
|  \\    /   O peration     | Version:  v1606+                                |
|   \\  /    A nd           | Web:      www.OpenFOAM.com                      |
|    \\/     M anipulation  |                                                 |
\*---------------------------------------------------------------------------*/
FoamFile
{
    version     2.0;
    format      ascii;
    class       surfaceScalarField;
    location    "3.5";
    object      alphaPhi;
}
// * * * * * * * * * * * * * * * * * * * * * * * * * * * * * * * * * * * * * //

dimensions      [0 3 -1 0 0 0 0];

internalField   nonuniform List<scalar> 
5952
(
-2.84411e-10
2.10495e-11
-1.6902e-09
-6.24581e-12
1.31295e-09
-3.00316e-09
-1.33417e-09
2.64712e-09
-6.40773e-13
1.95923e-09
-6.34331e-13
-6.44281e-15
-4.22941e-12
2.06709e-13
-5.55291e-12
1.32331e-12
-2.54562e-16
7.20192e-13
-2.84336e-16
2.97509e-17
-4.52498e-16
3.15751e-17
3.09703e-17
-5.19835e-16
2.10493e-11
4.87823e-18
5.26411e-10
3.1269e-11
-4.20693e-09
1.73018e-09
-1.96397e-09
4.54209e-09
-3.50363e-12
6.59995e-13
-2.73958e-12
1.18456e-12
-1.60253e-12
3.43591e-13
-1.46291e-12
6.34144e-17
-8.61482e-16
1.66069e-16
-9.14646e-16
8.27431e-17
-1.28729e-15
1.19857e-16
9.84596e-17
-1.42559e-15
-1.2358e-13
1.23331e-13
-5.07781e-09
2.64048e-09
-4.54578e-09
2.20887e-09
-3.69222e-12
1.17781e-16
-2.74937e-12
1.74861e-12
-3.43855e-13
5.68636e-13
-4.2385e-16
1.61296e-16
-5.32835e-16
1.6789e-16
-5.90884e-16
1.66474e-16
-6.4996e-16
1.41767e-16
-9.04035e-16
3.73284e-16
1.86711e-14
-2.84557e-14
-4.42019e-10
5.82372e-11
-3.51944e-09
3.42057e-09
-1.42637e-12
1.43227e-09
-1.42642e-12
1.74772e-16
-1.11623e-12
2.20267e-13
-3.73603e-16
3.53898e-14
-4.37613e-16
2.21425e-16
-5.55757e-16
2.10236e-16
-9.27454e-16
5.11262e-16
-2.60523e-12
7.88218e-13
-2.93226e-12
9.52106e-13
2.09739e-13
-1.79572e-15
-7.19821e-10
4.97346e-10
-1.43227e-09
1.71559e-09
-1.64865e-16
2.17451e-16
-2.49528e-16
2.52988e-16
-3.67646e-13
5.87586e-13
-6.9963e-13
5.67871e-13
-8.44843e-15
2.392e-12
-1.65742e-13
1.58303e-13
-1.40571e-12
9.15548e-14
-3.29976e-12
8.33132e-13
-3.20332e-12
9.73981e-13
3.72745e-13
-9.1101e-16
-6.66043e-10
1.01704e-09
-2.58677e-12
5.96115e-10
-2.58683e-12
2.64708e-16
-1.69212e-12
2.07427e-11
-1.81395e-12
1.66823e-11
-4.49242e-12
1.81168e-12
-7.62202e-12
5.96752e-12
-6.28696e-13
3.18064e-12
-5.3749e-13
2.81777e-16
-9.16417e-13
2.56709e-13
-6.34925e-13
3.94068e-13
5.06094e-14
3.328e-15
-9.10866e-10
1.92791e-09
-2.78856e-11
4.01017e-10
-2.78857e-11
3.34232e-16
-2.56799e-11
3.66472e-11
-1.07913e-11
2.72746e-11
-8.97999e-12
3.78414e-16
-6.39399e-12
2.90099e-12
-3.94239e-16
1.53083e-12
-3.99826e-16
2.81082e-16
-4.07264e-16
2.56707e-13
-4.46213e-16
3.94101e-13
1.25386e-09
-1.25381e-09
-8.31958e-10
6.56661e-10
-3.06957e-11
1.46424e-11
-3.06578e-11
-3.75415e-14
-1.41929e-11
3.85937e-11
-1.03253e-12
5.0699e-12
-1.03254e-12
3.69011e-16
3.00515e-13
3.1054e-13
1.83099e-12
2.85058e-16
1.97528e-11
3.92213e-11
2.94095e-10
1.58833e-10
-1.60731e-09
1.25901e-09
3.97679e-09
-5.10026e-09
-1.48443e-11
-1.17476e-13
-2.02318e-13
3.79175e-16
-7.60652e-12
2.46422e-12
-3.18005e-12
-1.29278e-12
-2.34685e-16
-3.9407e-13
-2.25745e-16
3.4594e-16
-1.89058e-16
3.10459e-13
-1.66356e-16
2.27874e-16
1.8443e-11
6.80472e-11
4.16579e-12
3.05147e-10
7.47526e-10
7.2925e-10
6.26417e-10
2.19558e-09
-8.44553e-17
-1.17476e-13
-1.96962e-16
3.95945e-16
-1.23554e-12
1.0131e-13
-1.06847e-12
-7.68501e-13
-8.75169e-13
8.97599e-13
-8.5589e-13
1.25868e-12
4.43716e-14
2.37127e-12
3.4625e-14
9.92059e-15
1.06244e-10
5.64674e-13
3.78931e-10
-7.10454e-12
6.25241e-10
-5.4636e-14
-7.73911e-17
5.24346e-10
-1.0449e-14
4.90867e-13
-1.04316e-14
3.4564e-16
1.83054e-14
3.6323e-14
2.29138e-14
9.27827e-13
6.79761e-13
1.76596e-13
7.19442e-13
1.27911e-12
1.00724e-12
2.58331e-12
1.06473e-11
1.45233e-10
1.26333e-11
4.75819e-13
2.44175e-14
-3.752e-14
2.6501e-16
-3.05058e-14
3.83541e-18
2.49819e-16
-6.27073e-17
4.90929e-13
2.01501e-17
2.62783e-16
-1.36046e-14
4.99477e-14
1.42198e-14
5.40576e-11
3.38776e-14
9.09406e-16
3.05786e-15
5.62005e-13
5.73486e-09
4.31101e-08
1.60769e-09
-4.0129e-08
3.37918e-12
1.60435e-09
3.73139e-12
3.60099e-14
4.40844e-16
2.13958e-14
3.47938e-16
-6.40086e-18
-5.16581e-16
1.41549e-17
-4.63307e-16
-1.24622e-17
-4.84692e-16
-3.41625e-17
-7.73115e-09
-2.79813e-10
-1.67831e-08
-3.25965e-09
-1.43994e-08
-2.67033e-09
-4.50689e-09
-9.89246e-09
1.44935e-10
-4.65182e-09
-1.21325e-08
-7.23256e-09
-2.22062e-09
-9.91185e-09
-1.06094e-08
4.11326e-09
-1.20026e-08
-1.26639e-15
2.56304e-17
-9.0759e-16
-4.40532e-17
-8.87062e-16
-1.15264e-16
-2.79814e-10
-1.97634e-16
-8.0932e-09
-2.29317e-16
-1.26347e-08
-3.72349e-09
-6.74179e-09
-2.47012e-08
-1.22124e-09
-2.15239e-08
-5.57929e-09
-1.73171e-08
1.37453e-08
-2.92364e-08
2.11225e-08
-3.26392e-09
9.11991e-09
-1.3163e-15
8.55207e-16
-1.32911e-15
-4.60548e-17
-1.37855e-15
-3.55711e-16
-1.16875e-15
9.99667e-16
-9.77871e-16
-4.77176e-16
-3.72347e-09
-2.7859e-14
-1.65938e-08
-3.71838e-09
-3.02232e-09
-4.67478e-08
-2.43915e-09
-3.79862e-08
-2.78908e-09
-3.09823e-08
-2.97423e-09
-1.46876e-09
4.68014e-09
-9.94826e-16
4.92117e-17
-1.15413e-15
-4.13014e-17
-2.34263e-14
-1.58436e-16
-1.50087e-15
-2.03617e-13
-4.40421e-14
4.19935e-14
1.45222e-14
1.26918e-15
-3.71836e-09
-1.23636e-15
-3.28585e-08
-2.0313e-08
-3.91217e-09
-7.04385e-08
-2.03412e-08
-1.10474e-08
-6.33975e-09
-1.89761e-08
-3.0539e-09
-9.44255e-16
8.73695e-17
-1.01835e-15
-1.59009e-17
-3.34783e-13
3.33553e-13
-4.67114e-12
4.6705e-14
-1.9923e-13
-1.2216e-11
8.56091e-16
-1.20723e-13
-3.25042e-16
-1.36459e-15
-1.68425e-08
-1.90645e-09
-1.11735e-09
-6.67865e-08
6.19611e-09
-3.75472e-08
-1.93462e-09
-1.89946e-08
-7.76664e-09
-8.38966e-16
4.24899e-15
-8.5549e-11
8.55481e-11
-1.97039e-12
-2.41475e-10
-6.17134e-11
5.58102e-11
-7.30658e-12
-3.66508e-11
-5.25424e-14
-8.04908e-11
-1.48755e-16
-5.38293e-14
-1.90645e-09
-1.82615e-15
-1.37647e-08
-7.14746e-08
4.34983e-08
-1.93826e-07
2.16217e-09
-1.6491e-08
-2.56582e-08
-4.62245e-09
1.8338e-09
-9.68969e-09
1.22149e-09
-8.52868e-09
-9.81132e-10
-2.82859e-10
-2.81025e-09
-2.46263e-10
-3.82701e-11
-4.20051e-10
-2.84781e-10
2.03141e-10
-1.23855e-09
3.32363e-09
-3.12049e-09
-7.82312e-08
-5.03513e-08
9.34247e-09
-4.25234e-07
3.88757e-08
-5.8244e-08
1.32174e-08
-6.53623e-09
3.27376e-09
-7.82676e-09
2.50802e-09
-8.94734e-09
1.43431e-10
-2.23416e-10
7.19353e-10
-1.91452e-10
-3.34244e-11
5.09884e-11
1.15718e-10
4.5542e-10
2.66911e-10
7.10088e-09
-7.28515e-09
-3.35482e-08
-4.10472e-08
-1.96755e-07
-3.68679e-07
-4.33681e-08
-2.11631e-07
-3.01507e-08
2.12198e-09
9.0082e-10
1.18655e-09
3.76178e-10
6.92354e-11
-6.9978e-12
-1.9641e-13
2.10615e-09
-5.66494e-12
1.27925e-11
-4.47847e-11
1.9534e-10
4.62991e-10
5.38722e-09
3.62924e-09
-3.81827e-10
1.76466e-08
-6.76489e-08
-2.61614e-07
-1.73112e-07
-1.14692e-07
-2.36297e-07
-1.44842e-07
6.13881e-10
-5.76917e-17
7.7872e-10
-3.21983e-17
7.0577e-09
3.38313e-12
5.37326e-08
-2.04569e-09
9.28997e-08
-2.24006e-07
3.34061e-08
-3.73915e-07
2.55697e-09
-1.62816e-07
3.36492e-09
-2.43013e-08
3.50228e-09
5.28869e-09
-1.86692e-09
-1.01565e-07
2.19404e-08
-1.35806e-07
-7.27659e-08
2.47342e-16
-3.03266e-17
2.44263e-16
-4.58687e-17
3.38347e-12
-4.48443e-17
1.86855e-06
-4.16001e-08
2.10934e-06
-2.64733e-07
1.57007e-06
-5.07824e-07
4.88038e-07
-8.15927e-07
1.19416e-07
-5.75146e-07
3.17308e-08
-2.31078e-07
9.77418e-08
9.09558e-10
1.24077e-07
-6.65195e-08
5.49059e-09
3.25309e-16
-7.54286e-17
3.20538e-16
-1.17061e-16
3.99326e-16
-1.04006e-16
3.32691e-06
-1.35545e-07
3.63663e-06
-1.45184e-07
3.28864e-06
-1.60818e-07
2.86442e-06
-3.91387e-07
1.62122e-06
-4.84288e-07
5.53902e-08
-3.71973e-07
7.84298e-08
-9.22548e-09
1.6008e-07
-4.97028e-09
-1.16442e-08
-6.16672e-20
2.49244e-19
-4.66278e-19
4.0461e-19
-1.08515e-18
6.18839e-19
-2.53761e-18
7.43326e-19
-8.33111e-13
8.33079e-13
-3.16157e-11
7.08558e-12
-4.66336e-10
2.43537e-10
-3.73004e-10
3.01307e-10
-4.46695e-11
5.52133e-11
-5.23666e-11
4.23664e-17
-8.41166e-10
5.14463e-11
7.26929e-11
-9.1386e-10
-1.88096e-18
1.26047e-16
-1.1822e-17
4.96702e-18
-5.54419e-11
3.65302e-12
-1.77769e-11
4.7493e-11
4.53498e-11
6.64357e-11
-1.59908e-09
4.44678e-10
-5.69515e-09
1.56707e-09
-6.57117e-09
2.40732e-09
-2.43605e-10
6.33617e-10
-2.43605e-10
1.16427e-16
-7.44688e-10
2.56483e-11
5.21639e-12
-2.00793e-09
-2.95978e-18
1.21242e-16
-3.85223e-13
3.85242e-13
5.30697e-13
1.37303e-11
5.04814e-11
6.90543e-11
-5.47686e-10
1.42189e-10
-7.20202e-09
3.01151e-09
-9.18391e-09
3.53495e-09
-6.90513e-09
2.28666e-09
-1.91681e-10
2.29193e-10
-1.91522e-10
-1.59153e-13
-6.4347e-10
5.45437e-11
4.89571e-12
-4.09334e-10
-1.04043e-16
2.10269e-16
-1.33375e-11
2.75128e-11
-1.10608e-11
2.00204e-10
6.47868e-11
1.94764e-10
-1.5958e-09
9.75871e-11
-7.29205e-09
2.75778e-09
-7.86125e-09
4.11949e-09
-2.68704e-10
1.17925e-09
-3.95109e-11
1.60688e-16
-1.41588e-10
1.26833e-11
-2.54612e-10
1.60131e-11
2.97134e-12
-4.48193e-12
-1.70155e-16
3.20839e-16
-4.62158e-11
1.03645e-10
-1.5115e-10
1.86945e-09
9.86729e-11
1.00445e-09
-9.8757e-11
6.38199e-12
-5.69744e-09
6.29743e-10
-7.66517e-09
2.75429e-09
-1.05496e-11
2.66234e-11
-1.05496e-11
1.93442e-16
-1.39237e-11
-8.81623e-13
-2.38481e-12
-1.7895e-13
-8.7244e-15
-8.3151e-13
-1.94841e-16
4.60117e-16
-7.61921e-10
5.5493e-10
-1.71233e-09
5.59075e-09
-1.55085e-10
4.55702e-09
-1.48703e-10
2.27017e-16
-7.04847e-10
-1.80083e-14
-2.32575e-10
-5.07588e-13
-1.79773e-13
-7.13897e-13
-1.79806e-13
2.10768e-16
2.95138e-16
2.1694e-16
-1.78481e-13
1.58466e-17
1.34626e-13
-1.80851e-12
-2.40335e-16
6.44654e-16
-1.63232e-09
1.38808e-09
-3.22045e-09
6.75919e-09
-2.00116e-16
6.29198e-09
-2.03627e-16
2.45546e-16
-2.41098e-16
-1.7989e-14
-2.60684e-16
-5.07561e-13
-2.68622e-16
-7.13921e-13
-2.87646e-16
2.3788e-16
-3.11014e-16
2.05072e-16
-2.60841e-16
1.97683e-16
3.83674e-14
-2.22562e-13
-3.06472e-16
8.93187e-16
-2.37714e-09
1.42059e-09
-2.82115e-09
7.57641e-09
-2.3571e-14
3.43884e-09
-2.35903e-14
2.48831e-16
-1.03712e-13
3.60637e-14
-5.30615e-13
9.42615e-13
-1.20102e-12
1.31354e-12
-1.27022e-16
9.55211e-13
-1.03509e-16
1.81793e-16
-8.25323e-17
1.76443e-16
3.83414e-14
-6.15412e-17
9.17351e-15
-8.34382e-15
-1.10815e-09
1.73298e-10
-1.63244e-09
6.4438e-10
-7.20012e-15
4.14219e-12
-2.20514e-15
-4.72904e-15
-6.95759e-15
8.00767e-15
-2.85554e-14
3.23799e-13
3.00978e-13
1.72343e-12
7.49499e-13
1.51517e-13
1.28356e-12
9.61647e-13
2.44243e-12
2.37436e-12
2.51877e-12
1.71565e-12
-4.28861e-12
7.77893e-13
-1.00848e-11
2.18598e-14
-4.14209e-12
2.35143e-11
2.18347e-17
3.90122e-16
1.04501e-13
3.27499e-13
2.25671e-14
9.28006e-14
4.33973e-14
1.99386e-14
1.90907e-13
7.92006e-13
1.46697e-12
2.27408e-13
2.775e-12
7.80069e-13
2.78276e-12
3.53181e-12
8.57517e-13
7.26931e-12
-2.16848e-14
1.95125e-13
-1.77826e-17
1.9075e-16
4.30678e-17
2.35142e-11
1.17037e-16
3.15745e-16
1.77241e-16
3.27439e-13
2.21855e-16
9.27555e-14
-8.19886e-14
1.02149e-13
3.58867e-12
-3.49939e-11
3.50543e-12
-2.81188e-11
1.41127e-12
8.89355e-14
2.97329e-10
4.97758e-11
3.08237e-11
3.49525e-10
6.40803e-17
1.95061e-13
1.32268e-16
1.22555e-16
6.34815e-09
6.50133e-10
2.88365e-08
4.81247e-11
2.82596e-08
1.35613e-10
1.6705e-08
-1.57661e-09
2.14881e-09
-1.78087e-09
-8.19317e-10
-4.06826e-10
1.1921e-09
-5.67716e-12
2.68466e-10
-6.50814e-10
1.11442e-15
3.18241e-10
1.05371e-15
3.08235e-11
-3.2122e-10
3.04552e-11
-6.20059e-11
5.64955e-13
-2.25284e-10
2.00244e-13
-2.24543e-10
-1.32809e-16
-3.86394e-12
-9.5186e-17
-3.86395e-12
-2.31741e-17
-1.93139e-11
-5.47211e-12
-4.45039e-13
-5.74104e-11
-6.15977e-14
-3.83884e-13
-4.53546e-14
-1.66858e-14
-1.17656e-14
-7.66681e-14
-1.50675e-13
-5.82013e-13
6.18037e-11
-1.73538e-14
1.09714e-17
-2.99515e-16
-1.06403e-16
-2.82002e-16
-1.24109e-16
-2.94803e-16
-1.08642e-16
-1.93839e-16
-1.08906e-16
-9.57642e-11
-2.25609e-12
-4.70046e-10
-1.71799e-10
-3.14442e-11
-8.78261e-10
-1.67042e-13
-3.12943e-11
-3.14369e-13
-2.22102e-14
-4.65358e-13
-1.68482e-15
4.45905e-12
-1.37914e-15
1.8605e-17
-2.15215e-15
-3.18649e-16
-9.49159e-16
-9.97249e-16
-6.02325e-16
-8.01156e-16
-4.85628e-16
-3.23213e-15
-2.25559e-12
-2.28051e-15
-6.44182e-10
-3.1548e-11
-2.09757e-09
-2.02467e-09
-1.76305e-10
-3.79678e-09
-5.76901e-13
-1.75855e-10
3.93784e-14
-2.20949e-15
-2.03611e-14
-1.62054e-14
2.97973e-14
-1.17419e-14
-1.316e-17
-7.08556e-15
-2.7098e-16
-1.10056e-14
4.28541e-17
-7.20779e-15
1.13908e-15
2.28986e-15
-7.92412e-15
-3.15448e-11
-9.73812e-16
-3.26524e-09
-3.23894e-10
-2.14095e-09
-1.20085e-08
-1.84472e-10
-6.7629e-09
-1.84433e-10
-1.55363e-12
1.83082e-13
-1.45285e-15
2.75383e-13
-6.41865e-16
-1.48019e-15
-1.43793e-15
-9.21418e-17
-3.24725e-15
4.0244e-14
-1.37146e-14
4.48152e-14
-1.23638e-15
4.40393e-15
-9.54579e-16
-1.30962e-15
-3.23893e-10
-1.5446e-15
-5.86443e-09
-9.44687e-09
-9.01151e-10
-2.46848e-08
-6.9207e-09
-1.83436e-12
4.74595e-13
-1.20304e-12
1.46938e-13
-5.71326e-14
1.00013e-15
-5.78735e-14
-7.36913e-17
-9.20705e-13
-6.94555e-13
-5.59056e-15
-6.7618e-12
-1.26038e-15
-3.22788e-17
-1.71646e-16
-2.46023e-15
3.38786e-17
-1.84183e-15
-7.24886e-09
-2.15525e-09
2.98179e-08
-7.74397e-08
-6.36834e-09
-2.83675e-13
1.01046e-13
-8.93806e-14
8.12046e-15
6.93859e-15
3.82474e-16
4.75913e-14
-4.16228e-14
1.00467e-12
-7.14182e-13
-1.39745e-11
-1.04107e-11
-3.75475e-11
-7.1394e-11
-4.80235e-12
-6.69773e-11
-8.72232e-16
-1.16173e-11
-2.15525e-09
-2.06921e-15
-6.34449e-09
-9.35312e-08
-2.1188e-08
-3.89253e-17
1.01006e-13
-1.07724e-16
8.18472e-15
4.86252e-16
-3.87696e-18
7.873e-15
1.92123e-14
3.48669e-13
-3.14848e-14
-3.63492e-12
-1.14389e-16
-3.30172e-12
-4.10828e-11
-7.65893e-11
-2.02828e-10
3.59609e-11
-4.6866e-10
3.59606e-11
-2.30486e-15
-1.03487e-08
-9.18404e-08
-1.26906e-07
5.75033e-13
1.06256e-12
4.33181e-14
2.64166e-14
2.07916e-16
4.30808e-14
1.8929e-16
1.9218e-14
1.76693e-16
-3.1433e-14
1.42067e-16
-9.98548e-17
3.65308e-11
-6.93407e-14
3.52103e-11
-9.33359e-15
2.65414e-11
-2.14512e-10
3.71968e-10
-3.45429e-10
-8.73701e-08
-1.60674e-10
-1.41743e-07
9.95807e-12
-3.03185e-13
1.22795e-11
-6.83896e-12
1.00973e-11
2.37637e-11
3.3716e-12
3.40553e-11
4.84978e-16
1.35921e-11
3.77148e-16
3.29703e-18
3.05922e-16
-6.92984e-14
2.41045e-14
-3.31344e-14
3.51349e-10
-4.19452e-12
4.60033e-10
-1.87835e-09
2.9936e-10
-2.609e-16
-1.29432e-08
3.2917e-10
4.34109e-12
2.20278e-10
8.97466e-12
6.73714e-10
-7.94822e-10
5.53754e-10
-1.67043e-09
5.94597e-11
-7.3965e-10
-1.3523e-14
3.78677e-11
3.57639e-13
1.81351e-14
1.56714e-12
7.48235e-15
3.68084e-12
-7.70068e-12
3.4828e-09
-9.12449e-10
3.99294e-09
-5.10147e-10
6.7439e-08
1.14097e-15
4.3413e-12
5.73369e-10
-5.64394e-10
1.32049e-08
7.6249e-10
1.23456e-08
1.38278e-09
8.76403e-09
6.48045e-10
1.18591e-09
1.99743e-10
1.11915e-15
1.18592e-09
3.35536e-14
-2.51201e-14
1.89217e-10
2.41807e-10
7.44447e-09
1.64753e-10
4.28035e-09
1.01814e-09
1.25675e-08
3.51245e-22
-2.72384e-20
-2.80889e-21
5.37286e-21
-8.12441e-21
5.3025e-21
-1.60976e-20
7.12121e-21
-2.49856e-20
8.95654e-21
-3.43527e-20
9.42328e-21
-3.14946e-19
2.80635e-19
-5.14899e-18
6.50897e-20
-4.62542e-12
4.62537e-12
-8.14269e-11
9.18379e-13
-4.58618e-10
2.06168e-11
1.90384e-11
-4.77657e-10
-1.22622e-18
5.77913e-19
-1.39558e-17
3.20111e-18
-8.1176e-14
1.8201e-14
1.30752e-14
7.11581e-14
-8.26482e-12
8.27785e-12
-6.54557e-10
3.38938e-10
-2.74813e-09
5.88528e-10
-1.32793e-09
6.28151e-10
-6.15283e-11
2.09995e-10
-3.34682e-11
9.85815e-13
-2.13619e-11
1.27523e-12
3.87907e-14
-9.68676e-13
-1.09511e-16
3.69599e-18
-5.34838e-15
5.03195e-16
6.45075e-15
-1.74526e-15
7.51891e-14
1.26231e-16
-8.526e-10
6.14729e-10
-4.16096e-09
7.4473e-09
-1.59478e-12
2.41466e-09
-2.37269e-10
5.16462e-13
-2.99286e-11
-6.39238e-12
-1.27566e-12
1.23152e-12
-5.35439e-16
6.87677e-17
3.8788e-14
-5.08821e-16
-1.77482e-16
3.51576e-17
-6.11011e-16
9.54874e-16
5.01334e-16
1.41407e-15
1.77789e-13
-1.77278e-13
-9.52924e-09
5.63779e-09
-1.5757e-08
1.55919e-08
-5.19926e-13
3.57999e-09
-6.16405e-16
2.68359e-16
-6.39327e-12
2.12977e-16
-5.68126e-13
7.83543e-13
-5.68281e-13
1.18525e-16
2.15942e-12
-3.18711e-11
-1.3414e-15
5.99956e-17
1.62501e-15
1.2626e-14
5.96175e-15
2.05022e-15
-4.74222e-10
1.63332e-11
-1.58905e-08
1.11685e-08
-1.46475e-08
1.76833e-08
-4.83728e-16
8.97262e-09
-5.62352e-16
2.90636e-16
-6.37846e-16
3.63702e-16
-6.62189e-16
7.83332e-13
-2.93649e-14
2.86726e-14
1.30554e-11
-1.91151e-10
-7.71794e-16
5.88307e-16
5.23767e-17
2.28142e-14
1.78485e-13
6.59628e-15
-1.10327e-09
7.11962e-12
-1.54156e-08
8.89099e-09
-1.76453e-08
1.63118e-08
-1.9581e-12
7.77356e-09
-1.95459e-12
4.43514e-16
-4.95973e-12
1.74485e-12
1.94407e-13
3.1696e-12
6.89012e-12
4.10319e-12
1.60822e-12
-7.95391e-11
-5.66787e-15
3.06483e-14
-1.82828e-14
1.19024e-13
1.0426e-14
3.68253e-14
7.12847e-12
2.57669e-16
-9.71334e-09
8.07064e-10
-1.38395e-08
4.1794e-09
-2.65643e-12
7.03135e-10
-2.60223e-12
-5.37618e-14
-1.27054e-11
1.75567e-12
-1.24968e-11
8.34581e-12
-6.53849e-12
6.71776e-12
3.22573e-13
-1.36282e-12
-4.35368e-14
7.36347e-14
-2.90468e-14
2.51998e-13
-1.41158e-16
2.72238e-15
-1.72178e-11
1.72173e-11
-3.23504e-10
1.01554e-11
-1.5846e-10
-8.36624e-12
-6.36418e-12
4.9203e-12
-2.72449e-12
4.3391e-12
-4.72222e-12
8.84844e-13
-9.2505e-12
4.45951e-12
-5.62449e-13
7.65438e-12
3.87654e-12
-8.06e-14
-3.81852e-16
2.33045e-14
-4.46968e-16
3.04131e-13
-1.71434e-11
1.71394e-11
-1.72193e-12
7.04692e-11
-9.71066e-17
8.43334e-12
-8.56092e-17
-8.3666e-12
-2.74812e-17
4.92008e-12
-6.91885e-17
4.33884e-12
-6.98165e-13
1.5828e-12
-1.13997e-12
3.70182e-12
-3.29793e-12
1.05506e-11
1.07159e-11
-3.16278e-12
2.3207e-14
9.52713e-17
-2.99363e-11
1.99528e-11
-5.40815e-11
1.51908e-10
-1.24516e-11
1.3856e-10
-1.62341e-12
4.11455e-11
1.18365e-12
7.20681e-11
5.47691e-12
6.60513e-11
6.74247e-12
7.61112e-11
4.57927e-12
3.03369e-11
5.96411e-13
6.79968e-12
2.1282e-12
9.49063e-12
7.42907e-12
6.89173e-12
-2.6218e-18
9.6711e-17
-7.72381e-12
8.82386e-12
2.19993e-11
1.39675e-11
5.83722e-11
7.76577e-11
1.10358e-10
1.96179e-10
4.6171e-11
2.77317e-10
4.79813e-11
3.66009e-11
6.01659e-11
1.27675e-10
5.37359e-11
4.90972e-11
2.85827e-11
3.02912e-11
1.4932e-12
1.51715e-11
2.29332e-12
1.72281e-12
2.80793e-17
6.86317e-17
-2.06501e-15
8.82595e-12
6.33921e-12
4.92584e-14
5.79377e-11
4.96825e-11
6.02088e-10
5.35202e-11
8.7114e-10
4.3875e-10
9.39216e-10
2.55414e-10
1.27906e-10
1.04027e-10
-6.87237e-12
6.00078e-12
3.04081e-12
2.27082e-12
2.60569e-12
1.23382e-12
1.9534e-12
5.17188e-13
-1.56974e-16
9.68327e-13
-1.5186e-16
-5.11389e-18
-1.39567e-16
-1.31044e-17
-2.5947e-11
-1.26246e-13
-3.02945e-10
-6.29963e-11
-1.54307e-10
-2.14229e-10
-4.75755e-12
4.64329e-12
-1.16179e-12
-2.83399e-12
-4.41722e-13
5.85207e-14
7.11302e-14
-2.63773e-14
-7.17538e-13
-1.80967e-12
-1.09421e-11
-3.46196e-16
-1.7468e-18
-3.79537e-16
2.73867e-17
-3.81585e-16
-4.44803e-17
-1.26597e-13
-6.88207e-17
-5.18945e-09
-1.86061e-11
-5.08566e-09
-3.93333e-10
-1.53214e-09
-9.54933e-10
-4.43275e-11
-1.16525e-10
-5.37912e-15
-4.42633e-11
-3.25586e-14
-8.65233e-16
-1.36471e-11
2.61398e-12
2.2347e-11
-2.55289e-13
2.5473e-13
-6.3496e-15
-1.02832e-12
-6.01388e-16
-5.82087e-15
-5.73573e-16
-1.317e-16
-1.86066e-11
-1.63574e-16
-2.19233e-09
-2.33153e-16
-9.90504e-09
-1.19643e-09
-1.18915e-08
-2.63381e-09
-6.04918e-10
-9.3022e-10
-9.22017e-15
-6.04909e-10
-3.1214e-14
8.1876e-12
2.23149e-11
-1.14944e-10
4.59153e-12
-7.41796e-11
-7.81771e-12
-6.59005e-13
-1.23832e-11
-7.24025e-16
-6.58373e-13
-6.41198e-16
-2.46402e-16
-5.50166e-16
-3.24185e-16
-1.19643e-09
-3.60273e-16
-1.43095e-08
-4.06761e-08
-1.16917e-08
-5.69375e-08
-3.92412e-09
-8.28177e-08
-1.29558e-08
-8.68432e-08
-1.22699e-07
-2.05659e-10
1.91128e-11
-2.14149e-10
6.59121e-13
-7.75978e-11
-1.94011e-11
-9.68623e-16
-2.20625e-11
-9.43405e-16
-2.71649e-16
-9.19577e-16
-3.63165e-16
-8.40237e-16
-4.52907e-16
-8.11103e-08
-2.12869e-08
-8.50908e-08
-1.40417e-07
-5.33629e-08
-2.06226e-07
3.82407e-08
-1.78447e-07
-8.44587e-08
-2.0702e-10
1.39929e-11
-2.20461e-10
1.41137e-11
-2.31497e-10
-8.37927e-12
-1.77657e-12
-2.78727e-11
-1.22465e-15
-1.77561e-12
-7.31834e-16
-9.18437e-16
7.75699e-14
-7.86805e-14
-2.67311e-08
-8.47701e-16
-5.15793e-08
-3.27364e-11
-5.06975e-08
-2.06216e-10
-9.25215e-08
-4.46755e-09
-9.9746e-08
-1.74417e-12
2.66993e-13
-5.92953e-11
-4.87063e-14
-1.57032e-10
6.2051e-13
-5.81826e-12
-6.18336e-16
-1.18495e-12
-1.36568e-13
-5.41757e-13
-6.45846e-13
-1.31578e-15
-4.31821e-13
-1.24069e-15
-9.90174e-16
-1.00271e-15
-3.27365e-11
-6.04209e-16
-2.06217e-10
-4.25929e-09
-2.0826e-10
-7.68094e-10
-1.59283e-16
1.86495e-13
-4.89272e-14
5.1484e-17
-6.0611e-15
6.54668e-15
-1.56857e-13
-1.13146e-17
-1.22687e-12
-8.74144e-15
-1.07895e-12
-2.94057e-15
5.6291e-13
-8.28494e-13
1.52262e-12
-9.60617e-13
-8.20762e-12
-5.97388e-12
-1.05531e-10
-1.49217e-10
-3.89721e-12
-4.21691e-10
-7.71991e-10
-5.14534e-17
3.19069e-12
-5.49846e-17
4.79538e-17
-1.07731e-16
6.58397e-15
-1.33787e-16
1.07539e-17
-1.4641e-15
-7.42715e-15
1.36863e-14
-1.9457e-14
-6.50545e-13
1.22098e-13
-2.07767e-14
1.27148e-12
-3.74612e-13
-1.04151e-12
-2.39064e-11
-7.29217e-11
-7.3368e-11
-2.72599e-10
-8.47042e-10
3.74604e-12
4.85896e-12
1.99706e-12
2.6028e-12
-6.76805e-15
9.32187e-13
-8.49808e-15
1.7326e-15
1.98883e-14
-1.18997e-12
9.34593e-15
9.76388e-17
2.7528e-14
1.21465e-13
5.87864e-13
2.67724e-11
3.64646e-13
-5.67581e-12
1.22976e-12
-1.26598e-10
-4.97311e-11
-4.13281e-10
-4.46719e-10
6.23984e-12
1.49377e-12
7.86249e-12
1.6459e-12
3.01846e-12
1.99613e-13
-3.19085e-12
1.81918e-14
8.43483e-12
-6.78569e-17
5.79989e-13
7.87346e-12
3.44246e-11
-4.43745e-10
6.34693e-11
-1.22541e-09
1.5136e-10
-9.67575e-10
1.31077e-10
-7.25516e-11
8.23785e-11
-4.87474e-10
-3.6434e-10
2.11172e-12
2.43822e-13
1.21934e-12
4.41512e-12
7.20178e-13
-4.30812e-14
1.09549e-13
6.38133e-17
1.09485e-13
-1.10452e-16
7.52339e-09
-1.19704e-09
1.4058e-08
-4.15961e-09
8.73679e-09
-6.90521e-09
-1.76282e-10
-1.72409e-10
-2.24857e-10
-5.06052e-12
5.89209e-10
1.16293e-10
1.46798e-10
1.52861e-08
-1.52861e-08
5.91461e-08
-4.386e-08
1.45183e-08
4.46278e-08
-2.84726e-09
9.15773e-09
-4.91133e-17
1.73659e-10
-8.25819e-17
3.34686e-17
-1.32226e-16
3.81563e-17
-9.98609e-11
2.7083e-12
-1.22706e-10
2.28455e-11
-3.16889e-11
1.78319e-11
-3.65883e-11
4.89887e-12
6.04262e-11
-3.38817e-10
2.3871e-09
-1.27231e-08
-4.36861e-08
5.59988e-09
-9.87566e-09
1.07964e-08
-7.18156e-10
9.42535e-12
-3.89304e-13
-4.66573e-11
-3.92868e-13
3.59694e-15
-5.4323e-12
1.67621e-13
-1.92489e-11
1.86261e-13
-4.30543e-13
-2.83139e-13
8.36984e-12
4.03556e-12
-1.16545e-08
2.56597e-10
5.86231e-10
-2.17432e-08
-1.56064e-08
-2.30684e-11
-1.08373e-08
-2.80666e-10
-4.08505e-11
1.59029e-17
-4.31779e-11
2.02498e-11
-1.07861e-10
-4.97176e-12
-1.86703e-14
6.69066e-11
-1.69898e-13
9.58338e-15
-1.39262e-14
4.11816e-14
-5.53957e-13
-5.32343e-16
-2.90521e-10
1.30798e-11
-4.04619e-10
-1.95562e-11
1.92976e-12
-3.65169e-16
-7.88401e-11
1.55238e-09
-1.97237e-17
-3.59506e-10
-9.34895e-17
8.69434e-17
-1.61061e-11
1.6101e-12
-1.25848e-10
5.2266e-11
-2.00366e-11
1.07567e-10
-6.56995e-13
1.29742e-11
-6.16252e-13
2.82338e-16
-6.19018e-12
2.59716e-13
-7.0446e-12
-8.10419e-13
-1.93011e-12
6.41072e-14
3.70974e-17
-4.40395e-16
2.60574e-09
2.32808e-10
-1.87592e-13
1.58551e-09
-1.8761e-13
1.04805e-16
-3.32409e-12
4.85154e-13
-6.31157e-11
4.09625e-11
-4.55734e-11
1.25496e-11
-4.64093e-13
6.6994e-13
-4.63802e-13
-5.70908e-17
-4.11204e-13
1.14337e-14
-6.43581e-14
3.22736e-14
-3.45091e-16
9.80172e-17
5.2099e-17
-4.04973e-16
-1.79596e-09
-8.59641e-10
-3.74223e-17
5.31976e-11
-5.67747e-17
1.24127e-16
-8.28471e-17
4.8518e-13
-3.78942e-13
4.13413e-11
-3.78747e-13
5.21269e-13
-5.53849e-14
-4.43318e-15
-1.08123e-13
2.92991e-14
-1.59274e-15
1.83792e-14
-2.46278e-16
3.09331e-14
-2.64751e-16
1.16482e-16
6.9379e-17
-2.82031e-16
-6.20645e-11
3.40858e-10
-8.86698e-12
7.46644e-17
-2.49653e-10
6.18161e-11
-3.90382e-10
3.47395e-09
-1.31683e-14
5.57867e-09
-1.21354e-16
5.08188e-13
-4.7231e-15
1.90749e-16
2.48649e-15
6.63019e-15
2.1151e-14
1.82926e-16
2.71451e-12
1.73402e-12
8.65576e-12
8.37798e-12
3.25171e-11
-8.91428e-11
-1.64999e-11
7.88486e-09
-1.64999e-11
6.91068e-17
-1.91092e-10
2.68277e-11
-1.41413e-09
4.15856e-09
-2.52489e-09
7.71328e-09
-5.54208e-17
5.47758e-09
-5.44778e-17
1.64123e-16
-5.47417e-17
6.65994e-15
-6.18135e-17
1.60513e-16
-6.53568e-17
1.7345e-12
-2.10959e-11
2.94739e-11
3.97262e-11
-1.32125e-10
-1.79544e-17
1.23009e-08
-2.30738e-17
7.30843e-17
2.71829e-11
-3.55197e-13
-1.05819e-09
7.45122e-10
-1.86176e-10
6.97578e-09
5.48292e-10
4.60859e-09
5.47417e-10
2.8543e-09
2.41184e-10
3.65626e-09
2.36572e-10
3.26827e-09
2.49523e-10
2.88104e-09
3.08976e-10
1.78316e-09
1.06441e-10
1.33661e-10
-4.41782e-12
1.26453e-08
-2.02753e-12
-2.39022e-12
3.05942e-11
7.35163e-11
4.07521e-10
-5.15865e-11
2.27938e-09
-2.78341e-10
3.73114e-09
2.97935e-10
3.41037e-09
1.92089e-10
3.08689e-09
7.27212e-10
2.69397e-09
1.04222e-09
1.94764e-09
1.16051e-09
8.44368e-10
6.59793e-10
3.2674e-10
7.56437e-10
9.54931e-10
4.26921e-10
-6.18813e-11
1.22842e-10
2.58091e-11
3.8264e-11
1.69164e-10
-1.04951e-11
1.12276e-10
-1.28972e-11
1.42398e-10
-1.04678e-11
2.07736e-10
9.2184e-12
1.06442e-09
1.52746e-10
1.69325e-09
4.98275e-10
1.63176e-09
1.28487e-10
1.43281e-09
4.05886e-12
1.04597e-10
1.44901e-09
2.24859e-10
-3.53303e-10
1.02159e-10
-1.39852e-10
4.08335e-11
6.94579e-12
4.40759e-11
7.74743e-12
1.49108e-11
5.82855e-13
2.72223e-11
2.92777e-13
2.88409e-11
2.92747e-12
1.30288e-10
1.13334e-09
5.38131e-12
6.21346e-10
5.32099e-12
1.30382e-10
7.13359e-12
1.26561e-12
8.02234e-12
1.33993e-10
-1.56967e-09
-1.59424e-10
-3.60271e-09
-7.42786e-10
-4.73507e-09
-1.07103e-09
-1.23726e-09
-1.88393e-10
-1.97192e-10
-1.17719e-10
-1.31325e-11
-1.229e-10
4.75775e-17
-5.92442e-11
5.34523e-17
-2.10338e-17
5.72104e-17
-3.75812e-18
9.36909e-08
2.29805e-08
3.90116e-08
6.79184e-08
3.90116e-08
-2.14728e-08
-1.9869e-17
-2.20005e-08
-9.80417e-14
-6.49933e-09
-9.21482e-11
-7.80566e-10
-5.60031e-11
-3.94938e-10
-3.71247e-10
-1.30065e-10
-3.2217e-10
-4.14445e-18
-1.73161e-10
2.88138e-17
-5.48741e-17
9.49976e-10
-9.49976e-10
9.581e-08
5.14221e-08
3.85927e-08
1.30304e-07
7.76043e-08
-3.65682e-16
-2.18311e-17
-3.54535e-16
-9.80504e-14
-8.52983e-11
-6.85027e-12
-1.965e-10
-2.38557e-11
-4.14282e-10
-1.6712e-10
-4.15479e-10
-2.8028e-10
2.43198e-11
-3.31899e-11
2.43199e-11
-1.19889e-16
2.42028e-08
-6.71787e-09
7.73626e-08
7.3834e-08
2.91673e-08
1.78499e-07
1.06772e-07
-4.45027e-16
-1.46186e-17
-1.84282e-13
-3.65393e-14
-1.26268e-11
-5.9758e-12
-2.98379e-11
-3.51216e-11
-1.49492e-11
-1.28969e-10
-1.43193e-12
-1.63618e-10
-8.94473e-17
-3.46218e-11
-3.13199e-18
-2.16534e-16
2.9612e-08
-2.70708e-08
7.60923e-08
8.04893e-08
3.07257e-08
2.23866e-07
1.37497e-07
-4.4052e-16
-5.75678e-19
-3.68982e-14
-6.44305e-17
9.28026e-12
1.33848e-12
-4.48344e-11
-2.1715e-11
-1.389e-10
-1.53162e-10
-1.19007e-10
-2.22239e-10
1.3226e-11
-1.59439e-10
1.32261e-11
-3.65939e-16
2.66767e-08
-6.57348e-08
7.28264e-08
6.7558e-08
3.12338e-08
2.65458e-07
1.68726e-07
-3.33931e-16
5.13194e-17
-3.53322e-16
-4.50275e-17
1.26897e-13
1.21123e-12
-1.06392e-10
-7.30165e-12
-2.16452e-10
-1.16577e-10
-1.59853e-10
-1.52496e-10
5.4508e-11
-1.29524e-10
5.45081e-11
-5.38571e-16
6.13253e-09
-8.36775e-08
6.51948e-08
2.34469e-08
3.03926e-08
3.0026e-07
1.99118e-07
-3.64336e-10
1.85066e-10
-9.85202e-11
-2.93343e-10
-9.2408e-12
-1.20545e-10
-1.98703e-11
-2.51128e-11
-9.632e-11
-6.83255e-16
-5.73856e-11
-5.30131e-16
7.48924e-12
-6.16227e-16
7.48941e-12
-6.49839e-16
-3.77058e-08
-3.06066e-08
5.44927e-08
-9.40059e-08
2.98239e-08
3.24929e-07
2.28946e-07
-9.47574e-10
4.96549e-10
-1.04047e-09
-1.21257e-10
-3.9586e-10
-8.45975e-10
-4.96013e-16
-3.79584e-10
-2.35418e-16
-3.90678e-16
-2.53995e-16
-5.20349e-16
-2.57047e-16
-5.80689e-16
2.28467e-11
-2.28476e-11
-3.92145e-08
-8.33806e-09
8.58697e-08
-2.32412e-07
4.38313e-08
3.66967e-07
2.72778e-07
8.29401e-10
3.10855e-10
6.07119e-10
1.6725e-11
2.87807e-10
-4.42364e-10
-5.53485e-12
-2.99364e-10
-8.78849e-17
-5.53519e-12
-9.93513e-17
-3.99031e-16
-2.4011e-16
-4.8594e-16
3.60473e-10
-2.28581e-11
-1.5852e-08
-1.47227e-09
3.71452e-08
-1.52082e-07
4.2641e-08
3.62197e-07
3.15419e-07
6.69867e-10
1.48638e-11
8.04765e-10
-5.87965e-12
4.87208e-10
-2.98142e-11
3.59206e-11
5.54122e-11
2.23335e-16
1.84487e-12
1.38439e-16
-3.22205e-16
4.41661e-17
-4.28006e-16
4.03397e-13
8.52989e-12
-1.45718e-09
-5.43651e-12
4.39931e-08
-3.37883e-13
1.23064e-07
2.99311e-07
4.38483e-07
1.03402e-09
9.32406e-11
4.69397e-10
3.01625e-11
7.86818e-11
-1.57361e-10
5.95313e-11
-2.1328e-10
5.78669e-16
6.13755e-11
4.71864e-16
-2.38321e-16
3.44396e-16
-3.09945e-16
-2.91997e-14
8.55879e-12
1.49765e-12
1.93075e-12
1.15991e-12
-2.62223e-16
3.73425e-07
1.56489e-07
8.11908e-07
2.3595e-11
1.83338e-10
8.12087e-10
1.02196e-11
6.32914e-09
-6.36224e-09
3.86281e-09
-1.31431e-09
7.29052e-10
-1.06693e-09
6.84434e-11
6.60608e-10
4.69126e-09
-1.96592e-08
7.28456e-10
-4.33111e-08
3.52712e-16
7.30386e-10
9.46334e-09
-9.46334e-09
4.13494e-07
1.90466e-08
1.36514e-06
6.43867e-07
4.79961e-07
-8.24434e-07
3.50341e-07
5.00027e-07
4.99923e-08
1.16167e-07
8.90913e-09
-2.82818e-08
1.44424e-08
-5.5341e-09
1.84899e-06
-2.96961e-09
2.03294e-06
1.71071e-07
1.32953e-06
-1.26854e-07
7.02116e-08
-1.97313e-07
5.98145e-16
3.35094e-08
5.01681e-16
2.22812e-14
7.83713e-18
4.17244e-16
1.35292e-06
2.2563e-07
-3.20278e-07
1.39487e-06
2.75492e-07
1.58947e-06
1.22342e-07
-8.05459e-08
-3.31267e-09
8.65562e-08
9.39618e-09
3.23266e-07
-1.8792e-08
4.32454e-06
5.47499e-08
4.2507e-06
-5.29817e-08
3.99695e-06
5.64057e-08
1.01994e-06
6.11617e-07
3.301e-07
1.76027e-07
1.62235e-07
9.26325e-07
9.86065e-08
3.3188e-07
-9.67855e-07
3.295e-07
5.55465e-08
3.94191e-07
-1.86697e-09
3.08202e-07
3.22597e-08
1.75324e-07
-1.20052e-07
5.3082e-07
6.07998e-09
2.73735e-06
-3.41204e-08
4.32302e-06
1.75711e-07
3.67132e-06
7.08141e-07
3.03157e-06
7.79422e-07
2.94919e-06
3.32874e-07
1.43154e-08
3.16829e-06
1.9229e-06
-4.57026e-06
5.72404e-07
7.09333e-07
1.23212e-07
2.03415e-06
-4.06775e-08
2.32353e-06
2.43125e-08
1.61036e-06
-2.15484e-07
7.69116e-07
-5.37405e-08
2.90371e-06
-1.72483e-08