/*--------------------------------*- C++ -*----------------------------------*\
| =========                 |                                                 |
| \\      /  F ield         | OpenFOAM: The Open Source CFD Toolbox           |
|  \\    /   O peration     | Version:  v1606+                                |
|   \\  /    A nd           | Web:      www.OpenFOAM.com                      |
|    \\/     M anipulation  |                                                 |
\*---------------------------------------------------------------------------*/
FoamFile
{
    version     2.0;
    format      ascii;
    class       surfaceScalarField;
    location    "3.5";
    object      phi;
}
// * * * * * * * * * * * * * * * * * * * * * * * * * * * * * * * * * * * * * //

dimensions      [0 3 -1 0 0 0 0];

internalField   nonuniform List<scalar> 
5952
(
-1.96759e-08
1.9676e-08
-1.89892e-08
-6.86656e-10
1.76248e-08
-3.66141e-08
-1.84504e-08
3.60752e-08
-7.65072e-08
5.80567e-08
-1.43452e-07
6.69446e-08
-2.11479e-07
6.80273e-08
-2.77157e-07
6.56775e-08
-3.38284e-07
6.11275e-08
-3.92346e-07
5.40621e-08
-4.36115e-07
4.37691e-08
2.99537e-08
-4.66069e-07
1.97072e-08
-3.1232e-11
1.59551e-08
3.06545e-09
-5.27296e-08
3.20705e-08
-1.69841e-07
1.53187e-07
-3.01808e-07
1.90024e-07
-4.36476e-07
2.01612e-07
-5.6775e-07
1.99301e-07
-6.91623e-07
1.89551e-07
-8.04267e-07
1.73771e-07
-9.00951e-07
1.50746e-07
-9.75582e-07
1.184e-07
7.50358e-08
-1.02066e-06
-6.25435e-08
6.25122e-08
-1.67056e-07
1.07578e-07
-3.03824e-07
1.68839e-07
-4.12846e-07
2.62209e-07
-5.41319e-07
3.18497e-07
-6.79148e-07
3.39441e-07
-8.18787e-07
3.3894e-07
-9.53522e-07
3.24285e-07
-1.07756e-06
2.97813e-07
-1.18537e-06
2.58554e-07
-1.27108e-06
2.04112e-07
1.3203e-07
-1.32808e-06
-4.48655e-08
1.07378e-07
-1.61459e-07
2.24172e-07
-3.45084e-07
3.52464e-07
-5.08814e-07
4.25938e-07
-6.62223e-07
4.71906e-07
-8.10021e-07
4.87239e-07
-9.50998e-07
4.79918e-07
-1.08296e-06
4.5625e-07
-1.20375e-06
4.18595e-07
-1.311e-06
3.65805e-07
-1.40165e-06
2.9477e-07
2.01622e-07
-1.47125e-06
-7.52122e-08
1.8259e-07
-2.35962e-07
3.84921e-07
-4.02429e-07
5.18931e-07
-5.69333e-07
5.92842e-07
-7.22696e-07
6.25269e-07
-8.61849e-07
6.26392e-07
-9.8666e-07
6.04729e-07
-1.09838e-06
5.67972e-07
-1.19939e-06
5.19605e-07
-1.29173e-06
4.58139e-07
-1.37634e-06
3.79379e-07
2.77389e-07
-1.4521e-06
-9.06731e-08
2.73263e-07
-2.63107e-07
5.57355e-07
-4.39415e-07
6.95239e-07
-5.98929e-07
7.52356e-07
-7.36362e-07
7.62702e-07
-8.50349e-07
7.40379e-07
-9.41533e-07
6.95914e-07
-1.0149e-06
6.41342e-07
-1.07851e-06
5.83213e-07
-1.13916e-06
5.1879e-07
-1.20198e-06
4.422e-07
3.44613e-07
-1.26921e-06
-9.81809e-08
3.71444e-07
-2.78981e-07
7.38155e-07
-4.62763e-07
8.79021e-07
-6.05661e-07
8.95255e-07
-7.12184e-07
8.69224e-07
-7.86266e-07
8.14462e-07
-8.27717e-07
7.37365e-07
-8.45035e-07
6.5866e-07
-8.54059e-07
5.92237e-07
-8.6649e-07
5.31221e-07
-8.9081e-07
4.6652e-07
3.83533e-07
-9.29731e-07
-1.40841e-07
5.12285e-07
-3.3207e-07
9.29383e-07
-4.98883e-07
1.04583e-06
-5.97128e-07
9.935e-07
-6.51379e-07
9.23475e-07
-6.72663e-07
8.35746e-07
-6.51154e-07
7.15855e-07
-5.95709e-07
6.03216e-07
-5.34714e-07
5.31242e-07
-4.85001e-07
4.81508e-07
-4.52947e-07
4.34465e-07
3.71761e-07
-4.41174e-07
-1.97882e-07
7.10167e-07
-3.96789e-07
1.12829e-06
-5.29956e-07
1.179e-06
-5.50872e-07
1.01441e-06
-5.29036e-07
9.01639e-07
-4.93213e-07
7.99923e-07
-4.04804e-07
6.27446e-07
-2.62773e-07
4.61184e-07
-1.19403e-07
3.87872e-07
-1.45071e-09
3.63556e-07
9.15593e-08
3.41455e-07
2.97817e-07
1.65503e-07
-2.81725e-07
9.91893e-07
-4.5175e-07
1.29831e-06
-5.06717e-07
1.23397e-06
-4.0001e-07
9.07708e-07
-2.70447e-07
7.72076e-07
-1.88675e-07
7.18152e-07
-5.31402e-08
4.91911e-07
1.78055e-07
2.29989e-07
4.07654e-07
1.58273e-07
5.81805e-07
1.89405e-07
7.18246e-07
2.05014e-07
1.68516e-07
8.47547e-07
-3.80387e-07
1.37228e-06
-4.01535e-07
1.31946e-06
-2.93579e-07
1.12601e-06
4.58693e-09
6.09542e-07
2.91532e-07
4.85131e-07
3.97743e-07
6.11942e-07
5.14682e-07
3.74971e-07
7.97603e-07
-5.29315e-08
1.08565e-06
-1.29775e-07
1.27855e-06
-3.49834e-09
1.43265e-06
5.09185e-08
3.07948e-08
1.57037e-06
-2.84864e-07
1.65714e-06
8.41822e-08
9.50417e-07
3.66621e-07
8.43573e-07
8.53417e-07
1.22747e-07
1.39479e-06
-5.6244e-08
1.58786e-06
4.18877e-07
1.58928e-06
3.73544e-07
1.80139e-06
-2.65041e-07
2.00546e-06
-3.33847e-07
2.09862e-06
-9.66587e-08
2.19783e-06
-4.82828e-08
2.24217e-06
-1.35511e-08
-4.78752e-07
1.26828e-08
-4.68435e-07
-1.03169e-08
-4.30609e-07
-3.78256e-08
-3.72986e-07
-5.76231e-08
-3.17018e-07
-5.59683e-08
-2.95069e-07
-2.19487e-08
-1.76343e-07
-1.18726e-07
-1.06065e-07
-7.02777e-08
-5.49974e-08
-5.1068e-08
-2.28637e-08
-3.21337e-08
-4.13866e-08
1.85229e-08
-4.13865e-08
-1.02688e-06
1.8902e-08
-9.92489e-07
-4.47107e-08
-9.1578e-07
-1.14535e-07
-7.94783e-07
-1.7862e-07
-6.33643e-07
-2.17108e-07
-4.18696e-07
-2.36896e-07
-2.29699e-07
-3.07723e-07
-1.05338e-07
-1.94639e-07
-2.88509e-08
-1.27555e-07
4.61923e-08
-1.07177e-07
7.47833e-08
-1.00681e-08
3.33968e-08
-1.3502e-06
4.10204e-08
-1.32635e-06
-6.85569e-08
-1.24863e-06
-1.92257e-07
-1.10865e-06
-3.18596e-07
-8.96401e-07
-4.29359e-07
-6.22486e-07
-5.1081e-07
-3.92963e-07
-5.37246e-07
-1.64633e-07
-4.22969e-07
-3.97501e-08
-2.52438e-07
-2.60238e-08
-1.20903e-07
-1.91172e-08
-1.69748e-08
1.42796e-08
-1.51344e-06
8.3215e-08
-1.51821e-06
-6.37887e-08
-1.47141e-06
-2.39056e-07
-1.35708e-06
-4.32928e-07
-1.16323e-06
-6.23206e-07
-9.00616e-07
-7.73427e-07
-6.0941e-07
-8.28451e-07
-3.26743e-07
-7.05636e-07
-1.61902e-07
-4.17279e-07
-1.39728e-07
-1.43077e-07
-4.3147e-08
-1.13555e-07
-2.88674e-08
-1.51565e-06
1.46763e-07
-1.55755e-06
-2.18882e-08
-1.5595e-06
-2.37102e-07
-1.49686e-06
-4.9557e-07
-1.34684e-06
-7.73229e-07
-1.10277e-06
-1.01749e-06
-7.68692e-07
-1.16253e-06
-3.76249e-07
-1.09808e-06
-5.673e-08
-7.36798e-07
9.59365e-09
-2.09401e-07
-9.93741e-09
-9.40242e-08
-3.88048e-08
-1.34342e-06
2.20982e-07
-1.4174e-06
5.209e-08
-1.47304e-06
-1.81467e-07
-1.4781e-06
-4.90506e-07
-1.39908e-06
-8.52253e-07
-1.22307e-06
-1.1935e-06
-9.29809e-07
-1.45579e-06
-5.2019e-07
-1.5077e-06
-9.18622e-08
-1.16513e-06
5.89179e-08
-3.60181e-07
-1.54825e-09
-3.35581e-08
-4.0353e-08
-9.94478e-07
2.85729e-07
-1.08057e-06
1.3818e-07
-1.17808e-06
-8.39504e-08
-1.24696e-06
-4.2163e-07
-1.25121e-06
-8.48001e-07
-1.1871e-06
-1.25761e-06
-1.02378e-06
-1.61912e-06
-7.31961e-07
-1.79951e-06
-3.38729e-07
-1.55836e-06
1.04823e-09
-6.99958e-07
4.14915e-08
-7.40014e-08
1.13849e-09
-4.57964e-07
3.02519e-07
-5.06717e-07
1.86932e-07
-6.05581e-07
1.4914e-08
-7.3634e-07
-2.90871e-07
-8.36514e-07
-7.47827e-07
-8.97503e-07
-1.19663e-06
-8.95022e-07
-1.6216e-06
-8.18998e-07
-1.87554e-06
-6.32221e-07
-1.74513e-06
-2.26863e-07
-1.10532e-06
-5.11778e-08
-2.49686e-07
-5.00394e-08
2.31999e-07
2.36023e-07
2.49754e-07
1.69178e-07
1.89148e-07
7.55198e-08
2.71595e-08
-1.28883e-07
-1.18384e-07
-6.02283e-07
-2.71663e-07
-1.04335e-06
-4.01018e-07
-1.49224e-06
-5.16362e-07
-1.76019e-06
-5.81129e-07
-1.68037e-06
-3.92007e-07
-1.29444e-06
-1.44201e-07
-4.97492e-07
-1.94241e-07
1.03265e-06
5.09183e-08
1.2327e-06
-3.08742e-08
1.37084e-06
-6.26178e-08
1.21671e-06
2.52479e-08
1.06034e-06
-4.45908e-07
8.09304e-07
-7.92316e-07
5.22118e-07
-1.20506e-06
2.28936e-07
-1.46701e-06
-5.59852e-10
-1.45087e-06
-9.48381e-08
-1.20016e-06
1.21673e-08
-6.04498e-07
-1.82073e-07
1.83371e-06
-2.12418e-07
2.21886e-06
-4.16031e-07
2.66745e-06
-5.11201e-07
2.89435e-06
-2.01657e-07
2.68248e-06
-2.3404e-07
2.32352e-06
-4.33355e-07
1.90843e-06
-7.89964e-07
1.37018e-06
-9.28761e-07
9.20182e-07
-1.00087e-06
6.58717e-07
-9.38694e-07
5.1915e-07
-4.64931e-07
3.37077e-07
2.44898e-06
-4.19224e-07
2.80445e-06
-7.71504e-07
3.3451e-06
-1.05185e-06
3.88268e-06
-7.39236e-07
3.81242e-06
-1.63778e-07
3.49541e-06
-1.16345e-07
3.05262e-06
-3.47182e-07
2.57176e-06
-4.47893e-07
2.05093e-06
-4.80049e-07
1.64091e-06
-5.2867e-07
1.24736e-06
-7.13809e-08
1.58443e-06
-2.70438e-09
2.70438e-09
-2.20304e-08
1.9326e-08
-5.15273e-08
2.94969e-08
-8.71723e-08
3.5645e-08
-1.26071e-07
3.88991e-08
-1.67487e-07
4.14151e-08
-2.11813e-07
4.43267e-08
-2.62076e-07
5.02625e-08
-3.08646e-07
4.65703e-08
-3.5257e-07
4.39238e-08
-3.9333e-07
4.07606e-08
3.4446e-08
-4.27776e-07
-2.79147e-08
3.0619e-08
-8.23453e-08
7.37567e-08
-1.54994e-07
1.02146e-07
-2.38198e-07
1.18849e-07
-3.26995e-07
1.27695e-07
-4.17877e-07
1.32298e-07
-5.12391e-07
1.3884e-07
-6.07059e-07
1.44931e-07
-6.90834e-07
1.30345e-07
-7.71095e-07
1.24185e-07
-8.44153e-07
1.13818e-07
9.40302e-08
-9.03737e-07
-3.57752e-08
6.63942e-08
-1.16197e-07
1.54178e-07
-2.18912e-07
2.04861e-07
-3.30062e-07
2.29999e-07
-4.42523e-07
2.40156e-07
-5.52213e-07
2.41988e-07
-6.55899e-07
2.42527e-07
-7.61596e-07
2.50628e-07
-8.66619e-07
2.35368e-07
-9.62906e-07
2.20472e-07
-1.04643e-06
1.97342e-07
1.63212e-07
-1.11561e-06
-4.67123e-08
1.13106e-07
-1.44553e-07
2.52019e-07
-2.6548e-07
3.25787e-07
-3.9084e-07
3.5536e-07
-5.13531e-07
3.62846e-07
-6.26865e-07
3.55321e-07
-7.34948e-07
3.5061e-07
-8.30332e-07
3.46012e-07
-9.28802e-07
3.33838e-07
-1.01901e-06
3.10681e-07
-1.09796e-06
2.76294e-07
2.28922e-07
-1.16367e-06
-5.61358e-08
1.69242e-07
-1.67291e-07
3.63175e-07
-2.98063e-07
4.56559e-07
-4.2583e-07
4.83127e-07
-5.43165e-07
4.80181e-07
-6.52385e-07
4.64542e-07
-7.47294e-07
4.45519e-07
-8.27601e-07
4.26318e-07
-8.9995e-07
4.06188e-07
-9.65303e-07
3.76034e-07
-1.02351e-06
3.34497e-07
2.78536e-07
-1.07312e-06
-6.9368e-08
2.3861e-07
-1.90278e-07
4.84084e-07
-3.2317e-07
5.89451e-07
-4.43733e-07
6.0369e-07
-5.44874e-07
5.81322e-07
-6.27589e-07
5.47257e-07
-6.92504e-07
5.10434e-07
-7.41136e-07
4.74951e-07
-7.77855e-07
4.42906e-07
-8.08732e-07
4.06911e-07
-8.35702e-07
3.61466e-07
3.01822e-07
-8.58988e-07
-9.01508e-08
3.28761e-07
-2.17907e-07
6.11841e-07
-3.36098e-07
7.07641e-07
-4.29623e-07
6.97215e-07
-4.95662e-07
6.47362e-07
-5.38655e-07
5.9025e-07
-5.61893e-07
5.33672e-07
-5.68226e-07
4.81284e-07
-5.63458e-07
4.38137e-07
-5.55682e-07
3.99136e-07
-5.47255e-07
3.5304e-07
2.92339e-07
-5.37773e-07
-1.18889e-07
4.4765e-07
-2.47673e-07
7.40625e-07
-3.35643e-07
7.95611e-07
-3.77692e-07
7.39264e-07
-3.86915e-07
6.56585e-07
-3.75183e-07
5.78518e-07
-3.4694e-07
5.05429e-07
-3.03095e-07
4.3744e-07
-2.522e-07
3.87242e-07
-2.065e-07
3.53435e-07
-1.66048e-07
3.12588e-07
2.51303e-07
-1.25011e-07
-1.55378e-07
6.03029e-07
-2.71367e-07
8.56614e-07
-2.99426e-07
8.2367e-07
-2.58907e-07
6.98744e-07
-1.83546e-07
5.81224e-07
-1.03044e-07
4.98016e-07
-1.68894e-08
4.19274e-07
8.08836e-08
3.39667e-07
1.79276e-07
2.8885e-07
2.55972e-07
2.76738e-07
3.14414e-07
2.54146e-07
1.91617e-07
3.741e-07
-1.985e-07
8.01529e-07
-2.59185e-07
9.17298e-07
-1.71137e-07
7.35623e-07
6.83075e-09
5.20776e-07
1.83712e-07
4.04343e-07
3.35149e-07
3.46578e-07
4.76756e-07
2.77667e-07
6.28324e-07
1.88099e-07
7.75353e-07
1.41821e-07
8.72953e-07
1.79138e-07
9.23525e-07
2.03575e-07
1.40713e-07
9.74428e-07
-1.84773e-07
9.86302e-07
-8.62495e-08
8.18775e-07
1.66993e-07
4.8238e-07
4.96994e-07
1.90775e-07
7.87368e-07
1.13969e-07
9.99713e-07
1.34233e-07
1.1826e-06
9.47804e-08
1.38471e-06
-1.40076e-08
1.58829e-06
-6.17608e-08
1.70632e-06
6.11053e-08
1.7179e-06
1.91995e-07
1.37787e-07
1.72083e-06
3.25871e-07
6.60431e-07
5.95253e-07
5.49392e-07
9.19276e-07
1.58358e-07
1.32977e-06
-2.19721e-07
1.69369e-06
-2.49949e-07
1.92058e-06
-9.26526e-08
2.10953e-06
-9.41771e-08
2.35098e-06
-2.55452e-07
2.62793e-06
-3.3871e-07
2.81124e-06
-1.22208e-07
2.774e-06
2.29236e-07
2.69312e-06
2.18664e-07
-4.55439e-07
2.76622e-08
-4.7356e-07
1.81215e-08
-4.75378e-07
1.81773e-09
-4.56758e-07
-1.86196e-08
-4.13362e-07
-4.33958e-08
-3.49509e-07
-6.38533e-08
-2.71747e-07
-7.77618e-08
-1.90353e-07
-8.13945e-08
-1.16083e-07
-7.42699e-08
-5.76453e-08
-5.84378e-08
-1.8691e-08
-3.89543e-08
-1.8691e-08
-9.45483e-07
6.9408e-08
-9.61216e-07
3.38547e-08
-9.45112e-07
-1.42865e-08
-8.95302e-07
-6.84298e-08
-8.09841e-07
-1.28856e-07
-6.88432e-07
-1.85263e-07
-5.39443e-07
-2.26751e-07
-3.80348e-07
-2.40489e-07
-2.38525e-07
-2.16093e-07
-1.22459e-07
-1.74504e-07
-4.19621e-08
-1.19451e-07
-6.06531e-08
-1.16297e-06
1.16764e-07
-1.18339e-06
5.42782e-08
-1.17204e-06
-2.56409e-08
-1.11866e-06
-1.21805e-07
-1.02055e-06
-2.26966e-07
-8.75492e-07
-3.30323e-07
-6.88172e-07
-4.14071e-07
-4.75411e-07
-4.5325e-07
-2.72541e-07
-4.18963e-07
-1.45473e-07
-3.01572e-07
-6.72235e-08
-1.97701e-07
-1.27877e-07
-1.21167e-06
1.64764e-07
-1.23749e-06
8.00993e-08
-1.23605e-06
-2.7084e-08
-1.19985e-06
-1.58008e-07
-1.12032e-06
-3.06497e-07
-9.88482e-07
-4.62158e-07
-7.98437e-07
-6.04115e-07
-5.54991e-07
-6.96695e-07
-2.86102e-07
-6.87852e-07
-7.73543e-08
-5.1032e-07
-4.52138e-08
-2.29841e-07
-1.7309e-07
-1.1126e-06
2.04244e-07
-1.14023e-06
1.07728e-07
-1.1534e-06
-1.39094e-08
-1.14578e-06
-1.65633e-07
-1.10817e-06
-3.44106e-07
-1.0265e-06
-5.43829e-07
-8.83978e-07
-7.46635e-07
-6.6775e-07
-9.12923e-07
-3.84878e-07
-9.70725e-07
-8.88914e-08
-8.06306e-07
-3.18578e-08
-2.86875e-07
-2.04948e-07
-8.79079e-07
2.24336e-07
-8.97707e-07
1.26356e-07
-9.15815e-07
4.19844e-09
-9.32362e-07
-1.49086e-07
-9.41339e-07
-3.3513e-07
-9.28688e-07
-5.56479e-07
-8.71862e-07
-8.03461e-07
-7.43343e-07
-1.04144e-06
-5.18242e-07
-1.19583e-06
-2.02831e-07
-1.12172e-06
1.09045e-07
-5.98751e-07
-9.59034e-08
-5.28013e-07
2.14576e-07
-5.23331e-07
1.21674e-07
-5.28016e-07
8.88381e-09
-5.49175e-07
-1.27927e-07
-5.87628e-07
-2.96677e-07
-6.34615e-07
-5.09493e-07
-6.69465e-07
-7.6861e-07
-6.61869e-07
-1.04904e-06
-5.70312e-07
-1.28738e-06
-3.5619e-07
-1.33584e-06
-4.67713e-08
-9.08169e-07
-1.42675e-07
-8.0746e-08
1.70311e-07
-4.17745e-08
8.27022e-08
-1.49082e-08
-1.79825e-08
-1.57661e-08
-1.27069e-07
-5.58637e-08
-2.5658e-07
-1.32618e-07
-4.32738e-07
-2.29704e-07
-6.71525e-07
-3.24306e-07
-9.54435e-07
-3.72654e-07
-1.23904e-06
-2.90013e-07
-1.41848e-06
-5.02323e-08
-1.14795e-06
-1.92907e-07
4.46549e-07
9.78621e-08
5.20541e-07
8.71071e-09
5.90408e-07
-8.78503e-08
6.29294e-07
-1.65955e-07
6.09482e-07
-2.36767e-07
5.29787e-07
-3.53043e-07
4.05686e-07
-5.47424e-07
2.39772e-07
-7.88522e-07
3.88713e-08
-1.03813e-06
-1.32913e-07
-1.2467e-06
-1.73323e-07
-1.10754e-06
-3.6623e-07
1.05338e-06
1.89074e-08
1.1495e-06
-8.74066e-08
1.26057e-06
-1.98919e-07
1.35163e-06
-2.57015e-07
1.36255e-06
-2.47684e-07
1.29332e-06
-2.8382e-07
1.17591e-06
-4.30012e-07
1.00734e-06
-6.19952e-07
7.70917e-07
-8.0171e-07
5.04649e-07
-9.80428e-07
2.87655e-07
-8.90547e-07
-7.8575e-08
1.76799e-06
-2.82594e-08
1.84627e-06
-1.65679e-07
1.97994e-06
-3.32589e-07
2.13138e-06
-4.08456e-07
2.17605e-06
-2.92356e-07
2.11329e-06
-2.21058e-07
2.00499e-06
-3.21713e-07
1.84989e-06
-4.64857e-07
1.60828e-06
-5.60096e-07
1.19705e-06
-5.69195e-07
6.14563e-07
-3.08063e-07
5.35988e-07
2.65283e-06
1.20274e-08
2.64134e-06
-1.54189e-07
2.73907e-06
-4.30311e-07
2.96028e-06
-6.29668e-07
3.04158e-06
-3.73656e-07
2.9865e-06
-1.65981e-07
2.89299e-06
-2.28201e-07
2.75788e-06
-3.29746e-07
2.53883e-06
-3.41045e-07
2.17281e-06
-2.03182e-07
1.49714e-06
3.67611e-07
2.03313e-06
1.24028e-09
-1.24028e-09
-1.19234e-08
1.31637e-08
-3.5361e-08
2.34376e-08
-6.69352e-08
3.15741e-08
-1.04263e-07
3.73278e-08
-1.43474e-07
3.92111e-08
-1.80994e-07
3.75197e-08
-2.18855e-07
3.78609e-08
-2.52052e-07
3.31972e-08
-2.8139e-07
2.93387e-08
-3.04411e-07
2.3021e-08
1.29581e-08
-3.1737e-07
-2.08399e-08
1.95996e-08
-6.21374e-08
5.44612e-08
-1.22708e-07
8.40085e-08
-1.99085e-07
1.07951e-07
-2.88186e-07
1.26429e-07
-3.81536e-07
1.32561e-07
-4.71791e-07
1.27775e-07
-5.42332e-07
1.08401e-07
-6.08193e-07
9.90588e-08
-6.63068e-07
8.42137e-08
-7.03198e-07
6.31505e-08
3.45145e-08
-7.24754e-07
-2.54137e-08
4.50132e-08
-8.82519e-08
1.17299e-07
-1.73984e-07
1.6974e-07
-2.74315e-07
2.08281e-07
-3.89729e-07
2.41843e-07
-5.14577e-07
2.57409e-07
-6.3139e-07
2.44588e-07
-7.28547e-07
2.05558e-07
-8.11902e-07
1.82414e-07
-8.83419e-07
1.55731e-07
-9.39956e-07
1.19687e-07
7.14711e-08
-9.76912e-07
-3.67806e-08
8.17939e-08
-1.1834e-07
1.98858e-07
-2.23537e-07
2.74938e-07
-3.38691e-07
3.23435e-07
-4.60916e-07
3.64068e-07
-5.87069e-07
3.83563e-07
-7.0139e-07
3.58909e-07
-8.11107e-07
3.15275e-07
-9.10672e-07
2.81979e-07
-9.99772e-07
2.44831e-07
-1.07574e-06
1.95658e-07
1.30704e-07
-1.13498e-06
-4.83811e-08
1.30175e-07
-1.46988e-07
2.97465e-07
-2.6579e-07
3.9374e-07
-3.85534e-07
4.43179e-07
-4.93147e-07
4.71681e-07
-6.09858e-07
5.00274e-07
-7.09369e-07
4.5842e-07
-8.18501e-07
4.24407e-07
-9.23462e-07
3.8694e-07
-1.02025e-06
3.41618e-07
-1.10867e-06
2.84075e-07
2.09499e-07
-1.18746e-06
-6.23295e-08
1.92505e-07
-1.75841e-07
4.10977e-07
-3.03108e-07
5.21007e-07
-4.22213e-07
5.62283e-07
-5.17215e-07
5.66683e-07
-5.94758e-07
5.77817e-07
-6.78702e-07
5.42365e-07
-7.72624e-07
5.18329e-07
-8.64089e-07
4.78404e-07
-9.51219e-07
4.28749e-07
-1.03629e-06
3.69146e-07
2.92947e-07
-1.11974e-06
-8.02138e-08
2.72718e-07
-2.02912e-07
5.33675e-07
-3.23317e-07
6.41412e-07
-4.19711e-07
6.58677e-07
-4.97482e-07
6.44455e-07
-5.67628e-07
6.47963e-07
-6.24636e-07
5.99372e-07
-6.76943e-07
5.70636e-07
-7.34894e-07
5.36356e-07
-7.95479e-07
4.89333e-07
-8.60515e-07
4.34183e-07
3.62185e-07
-9.29753e-07
-1.0783e-07
3.80548e-07
-2.35922e-07
6.61767e-07
-3.3813e-07
7.4362e-07
-4.03089e-07
7.23636e-07
-4.45877e-07
6.87243e-07
-4.61115e-07
6.63202e-07
-4.83174e-07
6.21431e-07
-4.99816e-07
5.87278e-07
-5.25601e-07
5.62141e-07
-5.5517e-07
5.18902e-07
-5.91416e-07
4.70428e-07
4.03696e-07
-6.32926e-07
-1.46771e-07
5.27319e-07
-2.66205e-07
7.81201e-07
-3.2165e-07
7.99065e-07
-3.23913e-07
7.259e-07
-3.0465e-07
6.67979e-07
-2.74137e-07
6.32689e-07
-2.52978e-07
6.00272e-07
-2.32427e-07
5.66727e-07
-2.30146e-07
5.59861e-07
-2.32252e-07
5.21008e-07
-2.39672e-07
4.77848e-07
4.13764e-07
-2.4974e-07
-1.90904e-07
7.18223e-07
-2.62385e-07
8.52683e-07
-2.24513e-07
7.61192e-07
-1.30545e-07
6.31932e-07
-3.48609e-08
5.72295e-07
4.63399e-08
5.51488e-07
1.03483e-07
5.43128e-07
1.56087e-07
5.14124e-07
1.7495e-07
5.40997e-07
1.86155e-07
5.09802e-07
1.97331e-07
4.66673e-07
3.99126e-07
2.11969e-07
-1.76847e-07
8.9507e-07
-1.07592e-07
7.83428e-07
6.9651e-08
5.83949e-07
2.74324e-07
4.27259e-07
4.44681e-07
4.01938e-07
5.66961e-07
4.29208e-07
6.46767e-07
4.63322e-07
7.2128e-07
4.39611e-07
7.39861e-07
5.22416e-07
7.38436e-07
5.11227e-07
7.45096e-07
4.60013e-07
3.76466e-07
7.67757e-07
3.88019e-07
5.07051e-07
5.9583e-07
5.75617e-07
8.10221e-07
3.69558e-07
1.04368e-06
1.93802e-07
1.23136e-06
2.14259e-07
1.35323e-06
3.07331e-07
1.43443e-06
3.82125e-07
1.5295e-06
3.44536e-07
1.54417e-06
5.07753e-07
1.5036e-06
5.51794e-07
1.46492e-06
4.98699e-07
1.46539e-06
3.7599e-07
-3.1899e-07
1.62033e-09
-3.0885e-07
-1.01401e-08
-2.85683e-07
-2.31671e-08
-2.54269e-07
-3.1414e-08
-2.24884e-07
-2.93845e-08
-2.06939e-07
-1.79456e-08
-1.98715e-07
-8.22345e-09
-1.92741e-07
-5.9746e-09
-1.60192e-07
-3.25486e-08
-9.80817e-08
-6.21103e-08
-3.45674e-08
-6.35143e-08
-3.45674e-08
-7.20667e-07
-2.46647e-09
-6.93978e-07
-3.68291e-08
-6.43367e-07
-7.3778e-08
-5.71939e-07
-1.02843e-07
-4.87617e-07
-1.13706e-07
-4.09407e-07
-9.61555e-08
-3.74988e-07
-4.26427e-08
-3.52226e-07
-2.87358e-08
-2.94944e-07
-8.98312e-08
-1.84897e-07
-1.72157e-07
-6.69883e-08
-1.81423e-07
-1.01556e-07
-9.9168e-07
1.23012e-08
-9.71745e-07
-5.67645e-08
-9.16234e-07
-1.29288e-07
-8.23038e-07
-1.96039e-07
-6.93475e-07
-2.4327e-07
-5.39747e-07
-2.49883e-07
-3.80767e-07
-2.01623e-07
-3.39721e-07
-6.97816e-08
-3.1269e-07
-1.16862e-07
-1.92578e-07
-2.92269e-07
-8.1815e-08
-2.92186e-07
-1.83371e-07
-1.17247e-06
4.97968e-08
-1.1832e-06
-4.60312e-08
-1.1586e-06
-1.53895e-07
-1.09015e-06
-2.64486e-07
-9.66162e-07
-3.67257e-07
-7.71007e-07
-4.45038e-07
-4.97278e-07
-4.75352e-07
-1.67406e-07
-3.99654e-07
-6.44115e-08
-2.19857e-07
-5.82372e-09
-3.50857e-07
-6.84459e-08
-2.29564e-07
-2.51816e-07
-1.25443e-06
1.16771e-07
-1.30753e-06
7.06765e-09
-1.3393e-06
-1.22128e-07
-1.34294e-06
-2.60852e-07
-1.30737e-06
-4.02826e-07
-1.21943e-06
-5.32976e-07
-1.0667e-06
-6.28078e-07
-7.75371e-07
-6.90985e-07
-3.77139e-07
-6.18089e-07
-1.96756e-07
-5.3124e-07
8.12912e-08
-5.07611e-07
-1.70525e-07
-1.20183e-06
1.98858e-07
-1.28019e-06
8.54282e-08
-1.35317e-06
-4.91493e-08
-1.41125e-06
-2.02763e-07
-1.4378e-06
-3.76277e-07
-1.41098e-06
-5.59799e-07
-1.29407e-06
-7.44985e-07
-1.08983e-06
-8.95232e-07
-8.10843e-07
-8.97073e-07
-5.3202e-07
-8.10063e-07
-3.02419e-07
-7.37213e-07
-4.72944e-07
-1.00451e-06
2.73615e-07
-1.08493e-06
1.65846e-07
-1.17139e-06
3.73119e-08
-1.26101e-06
-1.1314e-07
-1.3387e-06
-2.98588e-07
-1.39156e-06
-5.06935e-07
-1.39251e-06
-7.44039e-07
-1.30798e-06
-9.79763e-07
-1.05619e-06
-1.14886e-06
-6.34022e-07
-1.23224e-06
-1.97128e-07
-1.17411e-06
-6.70072e-07
-6.80976e-07
3.21665e-07
-7.37419e-07
2.22289e-07
-8.04587e-07
1.0448e-07
-8.88702e-07
-2.9025e-08
-9.72025e-07
-2.15265e-07
-1.05242e-06
-4.26541e-07
-1.10271e-06
-6.93749e-07
-1.08372e-06
-9.98747e-07
-9.35403e-07
-1.29718e-06
-6.37431e-07
-1.53021e-06
-2.55891e-07
-1.55565e-06
-9.25963e-07
-2.61616e-07
3.3354e-07
-2.77883e-07
2.38555e-07
-3.04258e-07
1.30855e-07
-3.58469e-07
2.51862e-08
-4.14363e-07
-1.59371e-07
-4.89244e-07
-3.51659e-07
-5.60289e-07
-6.22704e-07
-5.97525e-07
-9.61512e-07
-5.70271e-07
-1.32443e-06
-4.56382e-07
-1.6441e-06
-2.34547e-07
-1.77748e-06
-1.16051e-06
2.35216e-07
3.10293e-07
2.64981e-07
2.08791e-07
2.9025e-07
1.05585e-07
2.74441e-07
4.09959e-08
2.68416e-07
-1.53346e-07
2.22745e-07
-3.05989e-07
1.57934e-07
-5.57893e-07
9.9259e-08
-9.02837e-07
3.89145e-08
-1.26409e-06
-4.22134e-08
-1.56297e-06
-8.56546e-08
-1.73404e-06
-1.24617e-06
8.16523e-07
2.61526e-07
8.92443e-07
1.32871e-07
9.71639e-07
2.63886e-08
9.88336e-07
2.42989e-08
1.0469e-06
-2.11907e-07
1.04537e-06
-3.04461e-07
1.01041e-06
-5.22935e-07
9.80941e-07
-8.73366e-07
9.06821e-07
-1.18997e-06
6.69532e-07
-1.32568e-06
2.77945e-07
-1.34245e-06
-9.6822e-07
1.52239e-06
2.04531e-07
1.64322e-06
1.20419e-08
1.7723e-06
-1.02691e-07
1.80149e-06
-4.89637e-09
1.92731e-06
-3.37726e-07
1.97014e-06
-3.47292e-07
1.97417e-06
-5.26963e-07
2.02572e-06
-9.24918e-07
2.04295e-06
-1.2072e-06
1.76942e-06
-1.05215e-06
1.09403e-06
-6.67067e-07
1.25812e-07
1.66394e-08
-1.66394e-08
6.64655e-08
-4.98261e-08
1.76919e-08
4.87735e-08
-1.89768e-08
3.66687e-08
-7.78591e-08
5.88823e-08
-1.43803e-07
6.59435e-08
-2.11554e-07
6.77514e-08
-2.7872e-07
6.71662e-08
-3.42656e-07
6.3936e-08
-3.98204e-07
5.5548e-08
-4.36783e-07
3.85787e-08
1.00587e-08
-4.46842e-07
4.10099e-09
-2.07404e-08
-5.65857e-08
1.08607e-08
-1.12332e-07
1.0452e-07
-2.12683e-07
1.37019e-07
-3.17335e-07
1.63535e-07
-4.3063e-07
1.79238e-07
-5.4824e-07
1.85361e-07
-6.64764e-07
1.8369e-07
-7.73358e-07
1.7253e-07
-8.65092e-07
1.47282e-07
-9.26972e-07
1.00459e-07
3.25952e-08
-9.49508e-07
-4.90384e-08
2.8298e-08
-2.26049e-07
1.87871e-07
-2.86625e-07
1.65096e-07
-3.74006e-07
2.244e-07
-4.8222e-07
2.71749e-07
-6.03045e-07
3.00063e-07
-7.2949e-07
3.11806e-07
-8.5317e-07
3.0737e-07
-9.6521e-07
2.84571e-07
-1.05636e-06
2.38427e-07
-1.12028e-06
1.64386e-07
6.11138e-08
-1.1488e-06
-1.8106e-09
3.01086e-08
-4.99255e-08
2.35986e-07
-2.0891e-07
3.2408e-07
-3.63923e-07
3.79414e-07
-5.11591e-07
4.19417e-07
-6.51739e-07
4.40211e-07
-7.84922e-07
4.44989e-07
-9.09597e-07
4.32045e-07
-1.02188e-06
3.96857e-07
-1.11723e-06
3.33775e-07
-1.19159e-06
2.38745e-07
1.11529e-07
-1.24201e-06
3.19469e-08
-1.83823e-09
-6.04123e-08
3.28345e-07
-2.04257e-07
4.67925e-07
-3.59091e-07
5.34248e-07
-5.03248e-07
5.63574e-07
-6.34054e-07
5.71017e-07
-7.53468e-07
5.64403e-07
-8.63752e-07
5.42329e-07
-9.64871e-07
4.97977e-07
-1.05508e-06
4.23982e-07
-1.13251e-06
3.16176e-07
1.73832e-07
-1.19481e-06
-1.16898e-07
1.15059e-07
-1.65254e-07
3.76701e-07
-2.51703e-07
5.54374e-07
-3.6161e-07
6.44155e-07
-4.69108e-07
6.71073e-07
-5.6405e-07
6.65958e-07
-6.50008e-07
6.50361e-07
-7.30789e-07
6.23109e-07
-8.08148e-07
5.75335e-07
-8.81144e-07
4.96978e-07
-9.49382e-07
3.84414e-07
2.37675e-07
-1.01323e-06
-7.10574e-08
1.86117e-07
-1.62285e-07
4.67929e-07
-2.43097e-07
6.35186e-07
-3.22102e-07
7.2316e-07
-3.86799e-07
7.35769e-07
-4.34935e-07
7.14095e-07
-4.76128e-07
6.91554e-07
-5.18003e-07
6.64984e-07
-5.62833e-07
6.20166e-07
-6.08079e-07
5.42224e-07
-6.53646e-07
4.29982e-07
2.864e-07
-7.02371e-07
-6.38911e-08
2.50008e-07
-1.59449e-07
5.63487e-07
-2.24124e-07
6.99861e-07
-2.36981e-07
7.36017e-07
-2.35775e-07
7.34562e-07
-2.28324e-07
7.06644e-07
-2.2261e-07
6.8584e-07
-2.23321e-07
6.65695e-07
-2.33007e-07
6.29852e-07
-2.45287e-07
5.54504e-07
-2.5974e-07
4.44434e-07
3.07428e-07
-2.80768e-07
-1.03055e-07
3.53063e-07
-1.44326e-07
6.04758e-07
-1.40034e-07
6.95568e-07
-9.05583e-08
6.86541e-07
-1.98978e-08
6.63902e-07
6.3969e-08
6.22778e-07
1.27772e-07
6.22037e-07
1.71973e-07
6.21494e-07
1.96524e-07
6.05301e-07
2.16099e-07
5.34929e-07
2.34404e-07
4.26129e-07
2.94373e-07
2.47459e-07
-8.12995e-08
4.34363e-07
-1.70316e-08
5.4049e-07
9.77242e-08
5.80813e-07
2.2731e-07
5.56955e-07
3.77678e-07
5.13534e-07
5.34093e-07
4.66363e-07
6.5778e-07
4.9835e-07
7.33456e-07
5.45818e-07
7.67075e-07
5.71682e-07
7.93067e-07
5.08937e-07
8.33183e-07
3.86013e-07
2.35493e-07
8.92063e-07
7.07246e-08
3.63638e-07
3.71384e-07
2.39831e-07
6.37408e-07
3.14789e-07
8.43687e-07
3.50676e-07
1.04972e-06
3.07503e-07
1.2687e-06
2.47378e-07
1.45969e-06
3.07364e-07
1.56092e-06
4.4459e-07
1.58153e-06
5.51067e-07
1.55603e-06
5.34441e-07
1.57438e-06
3.67658e-07
1.49573e-07
1.6603e-06
8.50165e-07
-4.86527e-07
1.3804e-06
-2.90407e-07
1.72439e-06
-2.92e-08
1.91709e-06
1.57979e-07
2.10109e-06
1.23503e-07
2.34102e-06
7.44372e-09
2.59384e-06
5.45452e-08
2.72713e-06
3.11298e-07
2.72321e-06
5.54992e-07
2.58197e-06
6.75683e-07
2.49921e-06
4.50414e-07
2.54422e-06
1.04558e-07
-4.4203e-07
-4.81173e-09
-4.0014e-07
-4.189e-08
-3.43035e-07
-5.71044e-08
-2.51534e-07
-9.15015e-08
-1.42241e-07
-1.09293e-07
-2.83135e-08
-1.13927e-07
7.33953e-08
-1.01709e-07
1.44447e-07
-7.10513e-08
1.57519e-07
-1.30722e-08
1.07166e-07
5.03528e-08
3.93508e-08
6.78152e-08
3.93508e-08
-8.85098e-07
-6.92222e-08
-8.02505e-07
-1.24483e-07
-6.89939e-07
-1.6967e-07
-5.47603e-07
-2.33838e-07
-3.71248e-07
-2.85647e-07
-1.83803e-07
-3.01373e-07
-1.70339e-08
-2.68478e-07
9.45421e-08
-1.82627e-07
1.31415e-07
-4.99454e-08
9.9061e-08
8.27072e-08
3.79286e-08
1.28948e-07
7.72794e-08
-1.15612e-06
-6.18987e-08
-1.09941e-06
-1.81194e-07
-9.75243e-07
-2.93841e-07
-8.01899e-07
-4.07182e-07
-5.89515e-07
-4.98031e-07
-3.55021e-07
-5.35867e-07
-1.35068e-07
-4.88431e-07
2.77565e-08
-3.45452e-07
9.15348e-08
-1.13724e-07
7.57764e-08
9.84656e-08
2.85564e-08
1.76168e-07
1.05836e-07
-1.26247e-06
-4.14358e-08
-1.23423e-06
-2.09434e-07
-1.14474e-06
-3.83327e-07
-9.95324e-07
-5.566e-07
-7.89648e-07
-7.03707e-07
-5.38516e-07
-7.86999e-07
-2.68454e-07
-7.58493e-07
-4.08974e-08
-5.73009e-07
7.18167e-08
-2.26438e-07
7.46723e-08
9.56101e-08
3.03274e-08
2.20513e-07
1.36163e-07
-1.23753e-06
1.28457e-09
-1.2447e-06
-2.02263e-07
-1.20455e-06
-4.2348e-07
-1.1072e-06
-6.53952e-07
-9.43383e-07
-8.67523e-07
-7.08874e-07
-1.02151e-06
-4.17442e-07
-1.04992e-06
-1.27234e-07
-8.63217e-07
5.07114e-08
-4.04383e-07
7.07704e-08
7.5551e-08
3.06568e-08
2.60626e-07
1.6682e-07
-1.07011e-06
5.81669e-08
-1.1112e-06
-1.61174e-07
-1.12379e-06
-4.10892e-07
-1.09404e-06
-6.837e-07
-1.00487e-06
-9.56688e-07
-8.35473e-07
-1.19091e-06
-5.74981e-07
-1.31042e-06
-2.54582e-07
-1.18362e-06
2.81711e-09
-6.61782e-07
6.08655e-08
1.75026e-08
2.90452e-08
2.92447e-07
1.95865e-07
-7.61187e-07
1.16983e-07
-8.21429e-07
-1.00931e-07
-8.756e-07
-3.56721e-07
-9.11301e-07
-6.47998e-07
-9.12885e-07
-9.55105e-07
-8.50258e-07
-1.25353e-06
-6.86617e-07
-1.47406e-06
-4.06907e-07
-1.46333e-06
-9.37167e-08
-9.74972e-07
4.99313e-08
-1.26145e-07
2.83587e-08
3.14019e-07
2.24224e-07
-3.20947e-07
1.57162e-07
-3.82082e-07
-3.97969e-08
-4.5535e-07
-2.83453e-07
-5.34438e-07
-5.6891e-07
-6.15598e-07
-8.73946e-07
-6.67982e-07
-1.20115e-06
-6.36867e-07
-1.50517e-06
-4.5213e-07
-1.64806e-06
-1.13373e-07
-1.31373e-06
7.81464e-08
-3.17665e-07
4.10438e-08
3.51122e-07
2.65268e-07
2.39863e-07
1.64758e-07
1.93724e-07
6.3416e-09
1.22607e-07
-2.12336e-07
2.98748e-08
-4.76177e-07
-1.05337e-07
-7.38734e-07
-2.6246e-07
-1.04403e-06
-3.87798e-07
-1.37983e-06
-3.98314e-07
-1.63755e-06
-1.9475e-07
-1.51729e-06
1.72558e-08
-5.2967e-07
3.49797e-08
3.33398e-07
3.00247e-07
9.27733e-07
1.29088e-07
9.02931e-07
3.11437e-08
8.47696e-07
-1.571e-07
7.70557e-07
-3.99039e-07
6.11563e-07
-5.79739e-07
3.77503e-07
-8.09967e-07
1.16186e-07
-1.11852e-06
-1.26755e-07
-1.39461e-06
-1.93153e-07
-1.45089e-06
7.60257e-08
-7.98849e-07
1.16448e-07
2.92976e-07
4.16695e-07
1.74191e-06
4.7484e-08
1.74112e-06
3.19356e-08
1.71213e-06
-1.28119e-07
1.68229e-06
-3.69194e-07
1.53644e-06
-4.33886e-07
1.26195e-06
-5.35481e-07
9.37041e-07
-7.93608e-07
5.60575e-07
-1.01814e-06
2.79112e-07
-1.16943e-06
4.21604e-07
-9.41341e-07
3.90682e-07
3.23898e-07
8.07377e-07
2.6479e-06
-5.61877e-08
2.66114e-06
1.86939e-08
2.6619e-06
-1.28877e-07
2.73144e-06
-4.38733e-07
2.6651e-06
-3.67552e-07
2.3931e-06
-2.63479e-07
2.08387e-06
-4.84381e-07
1.66171e-06
-5.95975e-07
1.15255e-06
-6.60271e-07
9.98182e-07
-7.86977e-07
1.16511e-06
1.56969e-07
1.97249e-06
1.50391e-06
1.50866e-06
-1.35543e-06
1.61858e-06
8.35751e-07
1.81987e-06
6.42276e-07
2.15608e-06
-2.1346e-07
2.68799e-06
-5.8815e-07
3.4761e-06
-3.69231e-07
3.54893e-06
3.00714e-07
3.35205e-06
-6.81644e-08
3.27267e-06
-2.54472e-07
3.04653e-06
1.29485e-07
2.97674e-06
2.15052e-08
1.20907e-07
2.84228e-06
3.45897e-06
1.65725e-06
-3.60755e-06
3.4031e-06
8.91614e-07
3.71895e-06
3.2643e-07
3.77596e-06
-2.70473e-07
3.8977e-06
-7.09888e-07
4.34517e-06
-8.16699e-07
4.64775e-06
-1.87095e-09
4.56946e-06
1.01314e-08
4.30725e-06
7.72863e-09
3.89796e-06
5.38776e-07
3.54077e-06
3.78702e-07
4.16813e-07
3.24486e-06
4.67564e-06
1.58115e-06
-4.59954e-06
5.02767e-06
5.39592e-07
5.49884e-06
-1.44745e-07
5.09771e-06
1.30658e-07
4.77297e-06
-3.85152e-07
4.60774e-06
-6.51466e-07
4.8406e-06
-2.34729e-07
4.74066e-06
1.1007e-07
4.08287e-06
6.65521e-07
3.67544e-06
9.46202e-07
3.71219e-06
3.41958e-07
2.2824e-07
3.90076e-06
5.50169e-06
-4.92522e-06
1.00468e-06
5.72746e-06
3.13817e-07
5.83164e-06
-2.48921e-07
5.8143e-06
1.48e-07
5.82563e-06
-3.9649e-07
5.53195e-06