/*--------------------------------*- C++ -*----------------------------------*\
| =========                 |                                                 |
| \\      /  F ield         | OpenFOAM: The Open Source CFD Toolbox           |
|  \\    /   O peration     | Version:  v1606+                                |
|   \\  /    A nd           | Web:      www.OpenFOAM.com                      |
|    \\/     M anipulation  |                                                 |
\*---------------------------------------------------------------------------*/
FoamFile
{
    version     2.0;
    format      ascii;
    class       surfaceScalarField;
    location    "1.28";
    object      phi;
}
// * * * * * * * * * * * * * * * * * * * * * * * * * * * * * * * * * * * * * //

dimensions      [0 3 -1 0 0 0 0];

internalField   nonuniform List<scalar> 
11770
(
-6.94034e-06
5.42331e-05
-5.03213e-06
4.51694e-05
-3.60009e-06
4.56657e-05
-1.42238e-06
4.47791e-05
-1.66446e-07
4.5545e-05
1.73865e-06
4.4582e-05
2.39569e-06
4.53678e-05
3.82075e-06
4.45894e-05
4.5212e-06
4.55081e-05
4.80968e-06
4.61772e-05
5.11077e-06
4.64184e-05
4.13943e-06
4.77765e-05
2.32407e-06
4.86364e-05
5.64987e-07
4.85462e-05
-6.3328e-07
4.79484e-05
-1.82484e-06
4.79524e-05
-2.73912e-06
4.76572e-05
-3.25039e-06
4.71664e-05
-2.85473e-06
4.60481e-05
-2.65236e-06
4.60602e-05
-3.40287e-06
4.69853e-05
-4.13743e-06
4.73314e-05
-4.22145e-06
4.6942e-05
-4.47639e-06
4.72958e-05
-5.51745e-06
4.83035e-05
-5.4277e-06
4.72319e-05
-3.81408e-06
4.5708e-05
-1.25899e-06
4.47494e-05
4.2989e-06
4.15324e-05
5.16916e-05
8.25197e-07
5.65437e-05
1.80198e-06
4.68059e-05
2.09147e-06
4.79954e-05
1.19954e-06
4.82828e-05
1.09658e-06
4.83723e-05
1.31658e-06
4.7017e-05
2.09684e-06
4.71687e-05
3.25207e-06
4.60294e-05
4.79691e-06
4.67467e-05
6.12859e-06
4.76824e-05
6.73514e-06
4.8622e-05
6.19899e-06
5.11801e-05
3.94875e-06
5.3774e-05
5.98259e-07
5.47626e-05
-2.74046e-06
5.41136e-05
-5.17255e-06
5.32074e-05
-6.15417e-06
5.14437e-05
-6.19243e-06
4.99972e-05
-5.70166e-06
4.8261e-05
-4.03842e-06
4.70916e-05
-2.82183e-06
4.84972e-05
-4.71149e-06
5.19428e-05
-7.211e-06
5.2182e-05
-1.1191e-05
5.3952e-05
-1.49297e-05
5.46459e-05
-1.52821e-05
5.0108e-05
-1.20914e-05
4.49814e-05
-7.5143e-06
4.26331e-05
-3.4364e-06
3.98605e-05
5.1282e-05
5.19312e-06
5.16143e-05
4.83886e-06
4.73445e-05
3.56419e-06
4.94821e-05
7.86255e-07
5.13094e-05
9.87288e-07
4.84927e-05
4.06339e-06
4.43531e-05
3.99115e-06
4.76759e-05
4.27603e-06
4.61893e-05
5.08513e-06
4.64023e-05
6.204e-06
4.69929e-05
6.11872e-06
4.91003e-05
5.24075e-06
5.24647e-05
3.51434e-06
5.5929e-05
7.83517e-07
5.7938e-05
-3.51665e-06
5.88581e-05
-7.74709e-06
5.78718e-05
-9.99566e-06
5.41176e-05
-1.05757e-05
5.1026e-05
-9.42831e-06
4.76001e-05
-6.62388e-06
4.48023e-05
-3.40718e-06
4.57853e-05
-1.00964e-06
4.99599e-05
-3.01267e-06
5.45134e-05
-1.43042e-05
6.55276e-05
-2.35628e-05
6.4132e-05
-2.45999e-05
5.13207e-05
-2.00243e-05
4.0555e-05
-1.35792e-05
3.63271e-05
-9.95446e-06
3.63546e-05
4.14499e-05
7.94189e-06
4.37009e-05
1.09075e-05
4.4403e-05
1.21136e-05
4.83045e-05
1.16272e-05
5.18317e-05
1.01757e-05
4.99981e-05
1.08364e-05
4.38099e-05
1.0659e-05
4.80713e-05
1.03324e-05
4.67119e-05
1.02006e-05
4.66762e-05
1.07092e-05
4.66138e-05
9.30845e-06
5.0624e-05
7.35639e-06
5.453e-05
5.64333e-06
5.77557e-05
2.91571e-06
6.07857e-05
-9.07711e-07
6.28035e-05
-5.72649e-06
6.28157e-05
-1.09433e-05
5.94796e-05
-1.42321e-05
5.44976e-05
-1.44215e-05
4.80077e-05
-1.08915e-05
4.15185e-05
-5.01816e-06
4.01488e-05
-2.03091e-06
4.71432e-05
-1.269e-05
6.52545e-05
-3.19988e-05
8.48934e-05
-4.0433e-05
7.26091e-05
-3.56948e-05
4.66122e-05
-2.71927e-05
3.20737e-05
-1.85158e-05
2.76668e-05
-1.14015e-05
2.92551e-05
3.00629e-05
7.49659e-06
3.6215e-05
1.46539e-05
3.72566e-05
2.08546e-05
4.21166e-05
2.59895e-05
4.67125e-05
2.54203e-05
5.05835e-05
1.8303e-05
5.09635e-05
1.59062e-05
5.06023e-05
1.67991e-05
4.59813e-05
1.64339e-05
4.71657e-05
1.31084e-05
5.00456e-05
9.631e-06
5.41833e-05
8.00467e-06
5.62086e-05
6.73534e-06
5.90664e-05
4.37343e-06
6.31883e-05
1.47912e-06
6.57387e-05
-1.66497e-06
6.60021e-05
-5.73627e-06
6.36019e-05
-8.88294e-06
5.77166e-05
-1.06735e-05
4.98977e-05
-1.07375e-05
4.17013e-05
-1.04524e-05
3.99858e-05
-1.63922e-05
5.31828e-05
-3.62421e-05
8.51368e-05
-5.25828e-05
0.000101263
-4.93112e-05
6.9365e-05
-3.68191e-05
3.41385e-05
-2.5898e-05
2.1164e-05
-1.68399e-05
1.86165e-05
-8.63051e-06
2.10527e-05
2.14391e-05
8.27241e-06
2.79496e-05
1.68801e-05
2.86569e-05
2.71047e-05
3.19023e-05
3.72208e-05
3.66106e-05
4.17393e-05
4.60774e-05
3.00203e-05
6.27047e-05
1.8856e-05
6.18778e-05
1.42251e-05
5.07625e-05
1.04757e-05
5.10427e-05
4.95132e-06
5.5662e-05
2.36995e-06
5.68149e-05
1.37115e-06
5.72319e-05
3.66681e-07
6.00885e-05
1.22069e-07
6.34488e-05
2.95683e-07
6.55804e-05
3.04356e-07
6.60096e-05
-9.81562e-07
6.49057e-05
-4.34171e-06
6.10999e-05
-9.53055e-06
5.51213e-05
-1.65174e-05
4.87368e-05
-2.58075e-05
4.93399e-05
-3.99189e-05
6.73618e-05
-5.14885e-05
9.67268e-05
-5.37739e-05
0.000103568
-4.11569e-05
5.67695e-05
-2.70561e-05
2.00506e-05
-1.79821e-05
1.20974e-05
-1.12043e-05
1.18437e-05
-5.53827e-06
1.53914e-05
1.59054e-05
6.77928e-06
2.11755e-05
1.42475e-05
2.11946e-05
2.4949e-05
2.12088e-05
3.81136e-05
2.34584e-05
4.96339e-05
3.45681e-05
4.37203e-05
6.86279e-05
2.6429e-05
7.92704e-05
1.05547e-05
6.67607e-05
-1.7915e-06
6.34692e-05
-1.10887e-05
6.50034e-05
-1.16322e-05
5.73794e-05
-8.75234e-06
5.43652e-05
-5.73962e-06
5.70867e-05
-3.53253e-06
6.12525e-05
-1.59241e-06
6.3651e-05
-6.46201e-07
6.50741e-05
-1.20163e-06
6.54725e-05
-4.43708e-06
6.43479e-05
-1.18517e-05
6.25528e-05
-2.3092e-05
6.0004e-05
-3.33925e-05
5.96794e-05
-4.06897e-05
7.47048e-05
-4.05529e-05
9.66136e-05
-3.77132e-05
0.000100743
-2.60604e-05
4.51315e-05
-1.53749e-05
9.37223e-06
-9.811e-06
6.53729e-06
-6.23378e-06
8.2692e-06
-2.87793e-06
1.20388e-05
1.30305e-05
4.76708e-06
1.64119e-05
1.01883e-05
1.57772e-05
1.77674e-05
1.36346e-05
2.89159e-05
1.23173e-05
4.13455e-05
2.21428e-05
3.5937e-05
7.40392e-05
1.88407e-05
9.64484e-05
-1.42089e-06
8.71105e-05
-1.27799e-05
7.48742e-05
-1.85175e-05
7.07648e-05
-1.71346e-05
5.60097e-05
-1.1952e-05
4.91928e-05
-6.1657e-06
5.13097e-05
-2.85336e-06
5.79493e-05
-1.29103e-06
6.20982e-05
-9.38102e-07
6.4731e-05
-2.21007e-06
6.67544e-05
-5.35277e-06
6.75013e-05
-1.03396e-05
6.7552e-05
-1.75664e-05
6.72493e-05
-2.17562e-05
6.38966e-05
-2.13152e-05
7.4295e-05
-1.79771e-05
9.33039e-05
-1.62522e-05
9.90345e-05
-1.28514e-05
4.17411e-05
-7.19335e-06
3.71756e-06
-4.7659e-06
4.11159e-06
-3.35692e-06
6.86157e-06
-1.37194e-06
1.00556e-05
1.16603e-05
3.07808e-06
1.33356e-05
6.63689e-06
1.22203e-05
1.06483e-05
9.62527e-06
1.65941e-05
6.37395e-06
2.31514e-05
1.55856e-05
1.30386e-05
8.41609e-05
2.05707e-06
0.000107496
-1.04044e-05
9.96336e-05
-1.88491e-05
8.3349e-05
-2.17614e-05
7.36927e-05
-1.91498e-05
5.34076e-05
-1.43153e-05
4.43658e-05
-8.63007e-06
4.5632e-05
-3.76668e-06
5.30941e-05
-1.19152e-06
5.95316e-05
-8.98213e-08
6.36381e-05
-1.19048e-06
6.78647e-05
-4.7208e-06
7.10416e-05
-9.08326e-06
7.19253e-05
-1.14291e-05
6.96085e-05
-8.84039e-06
6.13261e-05
-2.34512e-06
6.78207e-05
2.06782e-06
8.89162e-05
3.72813e-06
9.73944e-05
-1.56182e-06
4.70402e-05
-1.94532e-06
4.10276e-06
-1.30881e-06
3.47553e-06
-1.24232e-06
6.79542e-06
-4.75178e-07
9.28902e-06
1.11858e-05
1.73313e-06
1.16028e-05
3.58601e-06
1.03677e-05
4.89616e-06
8.31534e-06
6.56572e-06
4.70457e-06
5.077e-06
1.70755e-05
-4.91441e-06
9.41733e-05
-1.09781e-05
0.000113617
-1.6842e-05
0.000105543
-2.13329e-05
8.78575e-05
-2.00485e-05
7.24181e-05
-1.64285e-05
4.97939e-05
-1.3129e-05
4.10718e-05
-9.74391e-06
4.22529e-05
-5.28702e-06
4.86443e-05
-1.94301e-06
5.61957e-05
-2.90238e-07
6.19939e-05
-1.4381e-06
6.90218e-05
-5.33634e-06
7.49496e-05
-9.57551e-06
7.61747e-05
-8.57639e-06
6.86203e-05
-1.15536e-06
5.39168e-05
1.0776e-05
5.59037e-05
1.90597e-05
8.06517e-05
2.10663e-05
9.54078e-05
1.05775e-05
5.75394e-05
2.93997e-06
1.17421e-05
1.62943e-06
4.78571e-06
5.68685e-07
7.85573e-06
2.10253e-07
9.64704e-06
1.13958e-05
6.28461e-07
1.09734e-05
9.34276e-07
1.00609e-05
4.77004e-07
8.77172e-06
-3.7955e-07
5.56046e-06
-8.58806e-06
2.52872e-05
-1.59075e-05
0.000101522
-1.92579e-05
0.000117014
-2.05008e-05
0.000106817
-2.01796e-05
8.75433e-05
-1.42744e-05
6.65188e-05
-9.98607e-06
4.551e-05
-8.11957e-06
3.92097e-05
-7.25158e-06
4.13901e-05
-5.08234e-06
4.64815e-05
-3.11283e-06
5.42341e-05
-2.62073e-06
6.15107e-05
-4.50027e-06
7.09114e-05
-7.33774e-06
7.77979e-05
-7.66977e-06
7.65173e-05
-2.01773e-06
6.29777e-05
6.89157e-06
4.5016e-05
1.74182e-05
4.53883e-05
2.99135e-05
6.8173e-05
3.56097e-05
8.97321e-05
2.29729e-05
7.01903e-05
8.07831e-06
2.66408e-05
4.25646e-06
8.60698e-06
2.16669e-06
9.94449e-06
8.55646e-07
1.09569e-05
1.22503e-05
-3.67296e-07
1.13385e-05
-1.44199e-06
1.11335e-05
-3.53469e-06
1.08629e-05
-7.19095e-06
9.21605e-06
-1.88198e-05
3.69211e-05
-2.42555e-05
0.000106986
-2.59375e-05
0.000118733
-2.22586e-05
0.000103164
-1.50246e-05
8.03224e-05
-4.17519e-06
5.56755e-05
-6.26903e-07
4.19664e-05
-1.16341e-06
3.97508e-05
-2.29117e-06
4.25234e-05
-2.41736e-06
4.66142e-05
-3.1281e-06
5.49531e-05
-4.6315e-06
6.3024e-05
-6.97302e-06
7.32647e-05
-7.0919e-06
7.79294e-05
-1.75909e-06
7.11959e-05
5.33158e-06
5.58961e-05
7.56612e-06
4.27893e-05
1.0747e-05
4.22175e-05
2.27749e-05
5.6161e-05
3.64756e-05
7.6053e-05
3.10974e-05
7.55879e-05
1.38653e-05
4.38816e-05
6.57595e-06
1.58967e-05
3.4104e-06
1.31089e-05
1.44114e-06
1.29243e-05
1.36895e-05
-1.35417e-06
1.26894e-05
-3.54639e-06
1.33228e-05
-6.73156e-06
1.40463e-05
-1.27597e-05
1.52441e-05
-2.66707e-05
5.08401e-05
-2.96902e-05
0.000110033
-2.79085e-05
0.000116982
-1.70875e-05
9.23676e-05
-2.75287e-06
6.60095e-05
4.00853e-06
4.89255e-05
3.0095e-06
4.29731e-05
8.23382e-07
4.19433e-05
-4.23031e-07
4.37761e-05
-7.65258e-07
4.69634e-05
-2.10058e-06
5.62973e-05
-4.61551e-06
6.55503e-05
-5.8662e-06
7.45289e-05
-2.91847e-06
7.49954e-05
3.57654e-06
6.47128e-05
6.93459e-06
5.25481e-05
4.64668e-06
4.50859e-05
2.85315e-06
4.40209e-05
9.58735e-06
4.94415e-05
2.49162e-05
6.07451e-05
3.11434e-05
6.93835e-05
1.91164e-05
5.5923e-05
7.90817e-06
2.71082e-05
3.94888e-06
1.70672e-05
1.86284e-06
1.50081e-05
1.555e-05
-2.53575e-06
1.5221e-05
-5.77223e-06
1.65559e-05
-9.63211e-06
1.79043e-05
-1.72408e-05
2.28536e-05
-3.30379e-05
6.66504e-05
-3.08805e-05
0.000107905
-1.90569e-05
0.000105187
-2.82224e-06
7.61552e-05
7.34299e-06
5.58621e-05
8.46983e-06
4.78118e-05
6.09761e-06
4.53553e-05
3.40165e-06
4.46472e-05
1.38025e-06
4.58048e-05
-7.26433e-08
4.84238e-05
-8.56677e-07
5.7091e-05
-2.77845e-06
6.74847e-05
-2.20788e-06
7.39731e-05
2.28753e-06
7.05142e-05
7.25395e-06
5.97587e-05
7.66735e-06
5.21455e-05
4.38559e-06
4.83768e-05
1.22571e-06
4.71903e-05
2.70069e-06
4.79794e-05
1.20772e-05
5.1386e-05
2.35694e-05
5.79128e-05
2.08288e-05
5.86823e-05
8.45729e-06
3.94882e-05
4.16935e-06
2.1355e-05
2.40892e-06
1.67657e-05
1.79564e-05
-3.88389e-06
1.91005e-05
-8.57483e-06
2.12438e-05
-1.32822e-05
2.26113e-05
-2.17576e-05
3.1333e-05
-3.35595e-05
7.84735e-05
-2.28567e-05
9.72346e-05
-3.25866e-06
8.56161e-05
8.54343e-06
6.43732e-05
1.04911e-05
5.39314e-05
8.59281e-06
4.97234e-05
6.26181e-06
4.76963e-05
4.3314e-06
4.65854e-05
2.95143e-06
4.71918e-05
1.34974e-06
5.00329e-05
6.24429e-07
5.78263e-05
-2.51759e-08
6.81478e-05
2.60102e-06
7.13621e-05
8.17387e-06
6.49554e-05
1.07526e-05
5.71925e-05
9.05005e-06
5.38592e-05
5.46154e-06
5.19749e-05
1.92985e-06
5.07314e-05
5.67594e-07
4.93527e-05
3.33064e-06
4.86366e-05
1.22653e-05
4.89948e-05
1.92395e-05
5.17262e-05
1.07993e-05
4.79407e-05
4.69565e-06
2.74604e-05
3.78184e-06
1.76765e-05
2.17354e-05
-4.53929e-06
2.36331e-05
-1.0508e-05
2.72109e-05
-1.74511e-05
2.95553e-05
-2.76976e-05
4.15891e-05
-2.7225e-05
7.80291e-05
-9.91389e-06
7.99545e-05
6.6073e-06
6.912e-05
1.11347e-05
5.9866e-05
9.79161e-06
5.52907e-05
7.17387e-06
5.23531e-05
4.91172e-06
4.99669e-05
3.21292e-06
4.82906e-05
2.35682e-06
4.80538e-05
1.76106e-06
5.06353e-05
1.79778e-06
5.77994e-05
3.64238e-06
6.63171e-05
8.61849e-06
6.6401e-05
1.31029e-05
6.04854e-05
1.30281e-05
5.72806e-05
1.04398e-05
5.64597e-05
6.99519e-06
5.54303e-05
3.58699e-06
5.41502e-05
9.97336e-07
5.19534e-05
3.3569e-07
4.931e-05
3.01988e-06
4.63227e-05
1.09893e-05
4.37699e-05
1.39104e-05
4.50303e-05
6.13075e-06
3.5242e-05
4.02404e-06
1.97815e-05
2.57572e-05
-5.24351e-06
2.88652e-05
-1.27979e-05
3.47594e-05
-1.96633e-05
3.64175e-05
-2.77946e-05
4.97315e-05
-1.46949e-05
6.49543e-05
2.22664e-06
6.30566e-05
1.04982e-05
6.08693e-05
1.09789e-05
5.94036e-05
8.542e-06
5.77424e-05
5.65435e-06
5.52514e-05
3.34703e-06
5.22814e-05
1.7669e-06
4.9876e-05
1.11711e-06
4.87083e-05
1.52867e-06
5.02295e-05
3.37454e-06
5.59631e-05
7.86841e-06
6.1837e-05
1.34495e-05
6.08347e-05
1.54842e-05
5.84652e-05
1.418e-05
5.85993e-05
1.17118e-05
5.89414e-05
8.51157e-06
5.86429e-05
5.24238e-06
5.74311e-05
2.1691e-06
5.50378e-05
1.0009e-09
5.14886e-05
-5.20116e-07
4.68534e-05
1.62318e-06
4.16347e-05
8.96204e-06
3.76973e-05
8.25621e-06
3.59495e-05
9.84654e-07
2.70508e-05
2.67399e-05
-2.72886e-06
3.15813e-05
-8.45102e-06
4.0471e-05
-1.32312e-05
4.11913e-05
-1.35771e-05
5.00805e-05
6.47344e-07
5.07413e-05
8.93567e-06
5.47828e-05
1.14317e-05
5.83896e-05
1.02381e-05
6.06134e-05
7.52775e-06
6.0466e-05
4.4788e-06
5.83101e-05
2.13712e-06
5.46298e-05
8.42065e-07
5.11755e-05
4.76661e-07
4.90771e-05
1.6867e-06
4.90234e-05
5.29582e-06
5.23613e-05
1.10764e-05
5.6068e-05
1.53024e-05
5.66218e-05
1.60415e-05
5.77402e-05
1.48224e-05
5.98331e-05
1.27502e-05
6.10279e-05
9.97162e-06
6.14343e-05
6.82098e-06
6.0594e-05
3.50525e-06
5.8365e-05
3.65395e-07
5.46378e-05
-1.70106e-06
4.89274e-05
-2.94543e-06
4.28852e-05
-1.31259e-06
3.60679e-05
2.86728e-06
3.17718e-05
-3.09724e-06
3.30143e-05
2.36403e-05
7.46919e-07
3.08241e-05
2.93543e-06
3.82743e-05
3.04852e-06
4.10742e-05
6.39502e-06
4.67355e-05
9.9995e-06
4.7143e-05
1.12844e-05
5.35095e-05
1.13687e-05
5.83194e-05
9.71777e-06
6.2278e-05
6.90192e-06
6.32939e-05
3.74612e-06
6.14751e-05
1.23422e-06
5.71475e-05
2.19388e-07
5.21935e-05
3.10907e-07
4.89859e-05
2.26781e-06
4.70662e-05
6.62277e-06
4.8008e-05
1.19654e-05
5.07309e-05
1.51144e-05
5.34816e-05
1.6262e-05
5.6604e-05
1.54318e-05
6.06768e-05
1.36599e-05
6.28145e-05
1.14042e-05
6.37032e-05
8.85804e-06
6.31519e-05
4.8339e-06
6.24002e-05
1.00526e-06
5.8475e-05
-1.78918e-06
5.17291e-05
-4.74106e-06
4.58432e-05
-5.76002e-06
3.7089e-05
-3.57868e-06
2.95915e-05
-5.63163e-07
2.99991e-05
2.3075e-05
5.20262e-06
2.56167e-05
1.32892e-05
3.01875e-05
1.41332e-05
4.02375e-05
1.49755e-05
4.59043e-05
1.25153e-05
4.96132e-05
1.13234e-05
5.47138e-05
1.07295e-05
5.89269e-05
9.1475e-06
6.38724e-05
6.42066e-06
6.60322e-05
3.43519e-06
6.44696e-05
4.68457e-07
6.01199e-05
-1.09787e-06
5.37632e-05
-5.55357e-07
4.84391e-05
2.28409e-06
4.42194e-05
7.03055e-06
4.32537e-05
1.19321e-05
4.58255e-05
1.51266e-05
5.02893e-05
1.69358e-05
5.48031e-05
1.642e-05
6.1203e-05
1.40323e-05
6.52138e-05
1.14442e-05
6.63014e-05
1.03771e-05
6.42265e-05
5.44501e-06
6.73388e-05
1.76727e-06
6.21582e-05
-9.64781e-07
5.44663e-05
-6.45248e-06
5.13342e-05
-8.2752e-06
3.89104e-05
-8.26524e-06
2.95806e-05
-2.44638e-06
2.41795e-05
2.06253e-05
8.17027e-06
1.74493e-05
1.27884e-05
2.55806e-05
1.12069e-05
4.18336e-05
1.04035e-05
4.67174e-05
9.77844e-06
5.02442e-05
9.25813e-06
5.52401e-05
8.17365e-06
6.00191e-05
7.00833e-06
6.50457e-05
5.39459e-06
6.76528e-05
3.91474e-06
6.59547e-05
5.11082e-07
6.35273e-05
-4.32559e-06
5.86012e-05
-3.33568e-06
4.74433e-05
1.20533e-06
3.96629e-05
7.0603e-06
3.738e-05
1.27247e-05
4.0147e-05
1.65707e-05
4.64396e-05
1.63917e-05
5.49844e-05
1.62441e-05
6.13536e-05
1.32421e-05
6.82175e-05
1.08233e-05
6.87175e-05
1.03879e-05
6.46562e-05
2.65909e-06
7.50597e-05
-3.25087e-06
6.80596e-05
-4.91865e-06
5.61263e-05
-6.53454e-06
5.29448e-05
-9.36502e-06
4.17365e-05
-1.00262e-05
3.02353e-05
-4.89945e-06
1.90455e-05
1.57178e-05
1.27436e-05
4.70195e-06
9.46646e-06
2.88615e-05
2.60029e-06
4.87045e-05
2.48157e-06
4.68353e-05
6.24001e-06
4.64815e-05
9.89237e-06
5.15825e-05
1.22361e-05
5.7669e-05
9.63912e-06
6.76364e-05
4.97678e-06
7.23084e-05
1.14354e-06
6.97811e-05
-4.54196e-06
6.92065e-05
-1.11225e-05
6.51752e-05
-8.08634e-06
4.43986e-05
-9.30563e-07
3.24868e-05
6.89404e-06
2.95271e-05
1.47604e-05
3.22622e-05
1.99105e-05
4.12854e-05
2.07182e-05
5.41699e-05
1.92889e-05
6.27709e-05
1.40082e-05
7.34809e-05
7.56533e-06
7.51399e-05
2.04515e-07
7.19948e-05
-5.74792e-06
8.0989e-05
-1.3349e-05
7.56369e-05
-2.19311e-05
6.46849e-05
-2.60773e-05
5.70704e-05
-2.58821e-05
4.15256e-05
-1.41538e-05
1.84945e-05
-6.93839e-06
1.18169e-05
8.7666e-06
1.51802e-05
-1.04992e-05
1.96256e-05
2.43995e-05
2.1957e-05
4.63579e-05
2.46557e-05
4.41193e-05
3.06835e-05
4.04345e-05
3.69083e-05
4.53371e-05
3.85121e-05
5.60426e-05
3.17677e-05
7.43574e-05
1.87212e-05
8.53313e-05
2.79781e-06
8.56809e-05
-1.32822e-05
8.52637e-05
-2.5996e-05
7.78677e-05
-2.11634e-05
3.95487e-05
-3.50017e-06
1.48148e-05
8.73875e-06
1.72629e-05
2.20661e-05
1.89313e-05
2.69587e-05
3.6377e-05
2.05347e-05
6.05713e-05
1.04737e-05
7.28063e-05
3.92851e-06
7.99988e-05
-2.53749e-06
8.15778e-05
-1.0747e-05
8.01759e-05
-1.26974e-05
8.29119e-05
-1.68623e-05
7.97738e-05
-2.56562e-05
7.34502e-05
-3.42817e-05
6.56681e-05
-3.83354e-05
4.55532e-05
-2.46336e-05
4.7704e-06
-8.32978e-06
-4.50262e-06
4.21479e-07
1.37383e-05
-2.42647e-05
2.63937e-05
1.1718e-05
3.81839e-05
3.45421e-05
4.3517e-05
3.876e-05
4.75708e-05
3.63533e-05
5.21719e-05
4.07081e-05
5.26473e-05
5.55385e-05
4.746e-05
7.95156e-05
3.41932e-05
9.8569e-05
1.51854e-05
0.000104659
-3.3281e-06
0.000103748
-1.66709e-05
9.11815e-05
-2.25712e-05
4.54215e-05
-8.96512e-06
1.1858e-06
1.15176e-05
-3.22768e-06
2.30752e-05
7.35124e-06
1.69821e-05
4.24431e-05
9.84374e-06
6.76814e-05
3.27066e-06
7.93513e-05
-1.23254e-06
8.44746e-05
-5.80508e-06
8.61224e-05
-1.15002e-05
8.58429e-05
-1.50889e-05
8.64724e-05
-1.95264e-05
8.41831e-05
-2.5127e-05
7.90224e-05
-2.80837e-05
6.85963e-05
-2.76314e-05
4.50725e-05
-2.57191e-05
2.83169e-06
-9.11268e-06
-2.11274e-05
-8.70453e-06
5.30033e-06
-2.95917e-05
1.61413e-05
8.49011e-07
2.69279e-05
2.37273e-05
3.37419e-05
3.19176e-05
3.80662e-05
3.20002e-05
4.24545e-05
3.62906e-05
4.60165e-05
5.19471e-05
4.52942e-05
8.02085e-05
3.58732e-05
0.000107961
2.04846e-05
0.000120019
6.36672e-06
0.000117837
-7.19416e-07
9.82377e-05
-1.40933e-06
4.60808e-05
-2.13323e-07
-4.02153e-08
1.0597e-05
-1.4062e-05
9.19298e-06
8.72525e-06
5.2376e-06
4.6369e-05
3.25341e-06
6.96368e-05
4.77492e-07
8.20988e-05
-2.94552e-06
8.78696e-05
-7.22695e-06
9.03766e-05
-1.20679e-05
9.06559e-05
-1.59889e-05
9.03656e-05
-1.95393e-05
8.77055e-05
-2.17961e-05
8.12509e-05
-2.08387e-05
6.76105e-05
-1.87758e-05
4.29808e-05
-2.07969e-05
4.82454e-06
-1.29819e-05
-2.89651e-05
-2.16964e-05
-4.16097e-07
-2.92009e-05
8.67176e-06
-8.26648e-06
1.55332e-05
1.68376e-05
2.1016e-05
2.64063e-05
2.39565e-05
2.90311e-05
2.66512e-05
3.35672e-05
3.17325e-05
4.68367e-05
3.61748e-05
7.57374e-05
3.20527e-05
0.000112055
2.03543e-05
0.00013169
9.31065e-06
0.000128852
6.45631e-06
0.000101063
9.81388e-06
4.26934e-05
9.49599e-06
2.49421e-07
6.26422e-06
-1.08595e-05
1.45295e-06
1.3507e-05
-8.01563e-07
4.85943e-05
-1.5376e-06
7.03444e-05
-2.50033e-06
8.30335e-05
-4.66124e-06
9.00025e-05
-8.13076e-06
9.38182e-05
-1.21582e-05
9.46561e-05
-1.54733e-05
9.36527e-05
-1.72682e-05
8.94724e-05
-1.60773e-05
8.00317e-05
-1.23763e-05
6.38809e-05
-8.94703e-06
3.95226e-05
-1.07143e-05
6.56286e-06
-1.18926e-05
-2.78145e-05
-3.36076e-05
-1.96085e-06
-2.72646e-05
3.65143e-06
-1.39054e-05
9.35292e-06
1.11084e-05
1.16125e-05
2.41187e-05
1.38639e-05
2.67512e-05
1.52117e-05
3.21907e-05
1.92018e-05
4.2818e-05
2.5394e-05
6.95168e-05
2.51828e-05
0.000112239
1.72388e-05
0.000139607
9.21694e-06
0.000136847
9.19655e-06
0.000101055
1.18764e-05
3.99848e-05
9.36478e-06
2.73371e-06
4.09403e-06
-5.61576e-06
-1.64262e-06
1.92148e-05
-4.51883e-06
5.14418e-05
-5.54016e-06
7.13376e-05
-5.83249e-06
8.3298e-05
-6.74461e-06
9.08868e-05
-8.79178e-06
9.58376e-05
-1.13735e-05
9.721e-05
-1.29779e-05
9.52293e-05
-1.22422e-05
8.87088e-05
-8.72536e-06
7.64867e-05
-4.09973e-06
5.92269e-05
-8.11713e-08
3.54753e-05
-7.92978e-07
7.24607e-06
-1.50184e-06
-2.71323e-05
-3.51354e-05
-3.01481e-06
-2.42735e-05
-1.32846e-06
-1.56174e-05
4.65451e-06
5.09854e-06
6.72556e-06
2.20201e-05
8.04161e-06
2.5407e-05
8.30294e-06
3.19009e-05
1.01829e-05
4.09096e-05
1.52571e-05
6.44148e-05
1.67074e-05
0.000110762
1.23662e-05
0.000143922
7.98129e-06
0.000141205
1.02114e-05
9.87971e-05
1.22702e-05
3.7898e-05
9.22775e-06
5.74933e-06
2.68593e-06
8.99607e-07
-4.13756e-06
2.60101e-05
-7.47005e-06
5.47461e-05
-8.80431e-06
7.26441e-05
-9.01547e-06
8.34818e-05
-9.04114e-06
9.08852e-05
-9.49302e-06
9.62622e-05
-1.01759e-05
9.78657e-05
-9.71886e-06
9.47449e-05
-7.26826e-06
8.62307e-05
-3.41375e-06
7.26045e-05
4.74189e-07
5.53109e-05
3.57632e-06
3.23448e-05
4.23553e-06
6.55903e-06
3.09896e-06
-2.60204e-05
-3.20573e-05
-3.57091e-06
-2.07261e-05
-4.24728e-06
-1.49657e-05
-4.77686e-07
1.3028e-06
3.84269e-06
1.76728e-05
3.5202e-06
2.57018e-05
3.01197e-06
3.23811e-05
3.0685e-06
4.08249e-05
5.92429e-06
6.15316e-05
8.06428e-06
0.000108595
6.93681e-06
0.000145024
5.73201e-06
0.000142385
8.78921e-06
9.57133e-05
9.74076e-06
3.69193e-05
6.15748e-06
9.30659e-06
-4.9759e-07
7.52988e-06
-6.49953e-06
3.1984e-05
-9.36225e-06
5.75812e-05
-1.0589e-05
7.38437e-05
-1.06552e-05
8.35212e-05
-1.01087e-05
9.03122e-05
-9.32832e-06
9.54553e-05
-8.34792e-06
9.68588e-05
-6.33589e-06
9.27063e-05
-3.17068e-06
8.30387e-05
2.14623e-07
6.91922e-05
3.06017e-06
5.24379e-05
5.02176e-06
3.03555e-05
7.30737e-06
4.24654e-06
4.6007e-06
-2.3337e-05
-2.7476e-05
-3.93039e-06
-1.6819e-05
-6.61018e-06
-1.231e-05
-5.19067e-06
-1.41965e-07
-5.43751e-07
1.29998e-05
9.24596e-07
2.42065e-05
-9.64304e-07
3.42423e-05
-2.59294e-06
4.24251e-05
-2.47618e-06
6.13878e-05
7.06341e-08
0.000106023
2.17117e-06
0.0001429
4.06951e-06
0.000140463
7.7381e-06
9.20192e-05
7.41679e-06
3.72145e-05
3.77492e-06
1.29229e-05
-2.8271e-06
1.4105e-05
-7.9826e-06
3.71122e-05
-1.04032e-05
5.99747e-05
-1.12729e-05
7.46868e-05
-1.10707e-05
8.32928e-05
-1.00923e-05
8.93078e-05
-8.51231e-06
9.38495e-05
-6.42292e-06
9.47436e-05
-3.5278e-06
8.97853e-05
-9.74959e-08
7.95823e-05
3.13206e-06
6.59362e-05
6.03663e-06
4.95065e-05
6.46352e-06
2.99017e-05
8.98279e-06
1.70145e-06
5.30547e-06
-1.96816e-05
-2.21897e-05
-4.63639e-06
-1.22059e-05
-8.57934e-06
-8.39066e-06
-8.78626e-06
4.06383e-08
-5.0789e-06
9.26738e-06
-9.99412e-07
2.01012e-05
-2.52599e-06
3.57419e-05
-6.54783e-06
4.6416e-05
-9.00582e-06
6.38192e-05
-6.43556e-06
0.000103428
-1.4451e-06
0.000137886
3.20159e-06
0.000135793
7.21174e-06
8.79844e-05
4.36185e-06
4.00392e-05
7.12225e-07
1.65475e-05
-5.0512e-06
1.98429e-05
-9.10711e-06
4.11413e-05
-1.07999e-05
6.1641e-05
-1.10747e-05
7.49357e-05
-1.04189e-05
8.26113e-05
-9.04901e-06
8.79127e-05
-7.0134e-06
9.17889e-05
-4.32868e-06
9.2034e-05
-1.1316e-06
8.65632e-05
2.23508e-06
7.61902e-05
5.14071e-06
6.30048e-05
7.54175e-06
4.70793e-05
8.77433e-06
2.86431e-05
1.02162e-05
2.34948e-07
5.79788e-06
-1.52843e-05
-1.64112e-05
-5.5757e-06
-6.65345e-06
-1.02866e-05
-3.70297e-06
-1.15185e-05
1.24933e-06
-9.06e-06
6.78553e-06
-5.35774e-06
1.63755e-05
-4.8069e-06
3.51679e-05
-9.96521e-06
5.15511e-05
-1.36031e-05
6.74333e-05
-1.17812e-05
0.000101584
-4.91884e-06
0.000131002
1.80616e-06
0.000129046
6.04009e-06
8.37265e-05
2.55044e-06
4.35041e-05
-1.26893e-06
2.03422e-05
-6.19928e-06
2.47481e-05
-9.71798e-06
4.4634e-05
-1.0664e-05
6.25612e-05
-1.02621e-05
7.45084e-05
-9.09041e-06
8.14147e-05
-7.37652e-06
8.61742e-05
-5.0488e-06
8.94368e-05
-2.01108e-06
8.8972e-05
1.23299e-06
8.32948e-05
4.62814e-06
7.27704e-05
7.35237e-06
6.02555e-05
8.24411e-06
4.61622e-05
1.1745e-05
2.51172e-05
1.13402e-05
6.16405e-07
6.38827e-06
-1.03526e-05
-1.00425e-05
-6.66229e-06
-1.44249e-08
-1.16564e-05
1.26836e-06
-1.37097e-05
3.28055e-06
-1.30503e-05
6.10451e-06
-1.08796e-05
1.41834e-05
-1.04836e-05
3.47514e-05
-1.35092e-05
5.45596e-05
-1.78721e-05
7.17752e-05
-1.6492e-05
0.000100182
-8.51691e-06
0.000123006
-4.0072e-07
0.000120908
3.70492e-06
7.95972e-05
1.59819e-06
4.55867e-05
-2.32964e-06
2.42459e-05
-6.15001e-06
2.85437e-05
-1.0177e-05
4.86356e-05
-1.00985e-05
6.24575e-05
-8.99856e-06
7.33837e-05
-7.37665e-06
7.97685e-05
-5.37672e-06
8.41503e-05
-2.73401e-06
8.67705e-05
6.40742e-07
8.55737e-05
3.69847e-06
8.02136e-05
7.19309e-06
6.92519e-05
8.72541e-06
5.86989e-05
1.10224e-05
4.38407e-05
1.39905e-05
2.21252e-05
1.16191e-05
2.96573e-06
6.28592e-06
-5.03917e-06
-3.77648e-06
-7.46137e-06
7.42386e-06
-1.27188e-05
6.50348e-06
-1.66118e-05
7.15245e-06
-1.91058e-05
8.57805e-06
-1.8946e-05
1.40028e-05
-1.79467e-05
3.37309e-05
-1.87522e-05
5.53445e-05
-2.25112e-05
7.55127e-05
-2.04841e-05
9.81339e-05
-1.13889e-05
0.000113889
-1.75435e-06
0.000111251
2.67359e-06
7.51459e-05
1.01138e-06
4.72254e-05
-3.03354e-06
2.82671e-05
-6.02431e-06
3.15102e-05
-8.78978e-06
5.13763e-05
-8.42377e-06
6.20668e-05
-7.14278e-06
7.20787e-05
-5.34136e-06
7.79435e-05
-3.15582e-06
8.19417e-05
-1.84775e-07
8.37765e-05
3.72513e-06
8.1641e-05
5.611e-06
7.83048e-05
8.12974e-06
6.67098e-05
1.09885e-05
5.58165e-05
1.5158e-05
3.96478e-05
1.56655e-05
2.1595e-05
1.12206e-05
7.38967e-06
5.3102e-06
8.5156e-07
1.51385e-06
-7.83511e-06
1.52367e-05
-1.43985e-05
1.30456e-05
-2.22871e-05
1.50213e-05
-2.99001e-05
1.6172e-05
-3.12555e-05
1.5338e-05
-2.57179e-05
2.81706e-05
-2.66505e-05
5.62543e-05
-2.85208e-05
7.73606e-05
-2.39045e-05
9.34955e-05
-1.24945e-05
0.000102457
-1.01813e-06
9.97521e-05
3.00203e-06
7.11024e-05
1.35887e-06
4.88452e-05
-3.13431e-06
3.27368e-05
-6.25141e-06
3.46035e-05
-6.00994e-06
5.11106e-05
-6.03158e-06
6.20644e-05
-4.89844e-06
7.0922e-05
-3.12258e-06
7.61445e-05
-1.03952e-06
7.98358e-05
1.49762e-06
8.12169e-05
4.52556e-06
7.85906e-05
7.91604e-06
7.48918e-05
1.1057e-05
6.35462e-05
1.58863e-05
5.09648e-05
1.86427e-05
3.68695e-05
1.69404e-05
2.32764e-05
1.12895e-05
1.30205e-05
4.7997e-06
7.32142e-06
6.29331e-06
-8.36567e-06
2.35824e-05
-1.69523e-05
2.16131e-05
-2.64189e-05
2.44707e-05
-3.421e-05
2.3948e-05
-4.00103e-05
2.11234e-05
-3.36102e-05
2.175e-05
-2.99272e-05
5.2547e-05
-2.965e-05
7.70602e-05
-2.36517e-05
8.74748e-05
-1.15411e-05
9.03243e-05
2.79706e-07
8.79087e-05
2.35145e-06
6.90078e-05
1.22021e-06
4.99535e-05
-3.14203e-06
3.70759e-05
-6.36767e-06
3.78058e-05
-5.39614e-06
5.01155e-05
-4.56447e-06
6.1209e-05
-2.78491e-06
6.91189e-05
-4.72164e-07
7.38086e-05
2.00282e-06
7.7338e-05
4.49815e-06
7.86992e-05
6.91728e-06
7.61495e-05
1.20027e-05
6.97849e-05
1.64093e-05
5.91184e-05
1.98296e-05
4.75241e-05
2.04723e-05
3.62072e-05
1.73786e-05
2.6351e-05
1.14159e-05
1.89642e-05
4.73344e-06
1.39838e-05
1.10055e-05
-7.42807e-06
3.09936e-05
-1.28282e-05
2.69967e-05
-1.65386e-05
2.8166e-05
-1.86865e-05
2.6083e-05
-2.19746e-05
2.44014e-05
-2.54695e-05
2.52341e-05
-2.38372e-05
5.08961e-05
-2.44528e-05
7.76551e-05
-2.05704e-05
8.3572e-05
-1.00235e-05
7.97566e-05
5.01542e-07
7.73622e-05
2.98271e-06
6.6505e-05
1.42439e-06
5.14903e-05
-3.5995e-06
4.2078e-05
-7.77549e-06
4.19595e-05
-7.80966e-06
5.01272e-05
-5.49289e-06
5.88696e-05
-2.2103e-06
6.58138e-05
1.26539e-06
7.03107e-05
4.89691e-06
7.36848e-05
8.49594e-06
7.50792e-05
1.21176e-05
7.25076e-05
1.63466e-05
6.55366e-05
1.97116e-05
5.57348e-05
2.13549e-05
4.58633e-05
2.03421e-05
3.72031e-05
1.65361e-05
3.014e-05
1.08019e-05
2.46802e-05
4.58308e-06
2.01829e-05
1.55674e-05
-2.89718e-06
3.38777e-05
-5.35767e-06
2.9444e-05
-7.36505e-06
3.01612e-05
-1.05221e-05
2.92291e-05
-1.54943e-05
2.93651e-05
-2.34402e-05
3.31754e-05
-2.45914e-05
5.20424e-05
-2.18987e-05
7.49505e-05
-1.54355e-05
7.70934e-05
-5.81293e-06
7.01167e-05
3.21304e-06
6.83183e-05
7.06991e-06
6.26301e-05
4.67791e-06
5.38641e-05
-1.15366e-06
4.78909e-05
-6.41531e-06
4.72022e-05
-7.94593e-06
5.16385e-05
-6.18378e-06
5.7088e-05
-2.51123e-06
6.21217e-05
1.8841e-06
6.5896e-05
6.65233e-06
6.88977e-05
1.12477e-05
7.04658e-05
1.51905e-05
6.85479e-05
1.84303e-05
6.2281e-05
2.03731e-05
5.37772e-05
2.05226e-05
4.56996e-05
1.85511e-05
3.91604e-05
1.47005e-05
3.39753e-05
9.66725e-06
2.96964e-05
4.30635e-06
2.55249e-05
1.9853e-05
8.32861e-08
3.37861e-05
-2.08534e-06
3.16023e-05
-3.83033e-06
3.18964e-05
-7.33158e-06
3.27214e-05
-1.38085e-05
3.58356e-05
-2.3857e-05
4.32248e-05
-2.54726e-05
5.36646e-05
-1.48778e-05
6.43576e-05
-6.02633e-06
6.82365e-05
2.47547e-07
6.3834e-05
5.45779e-06
6.30982e-05
7.16042e-06
6.0917e-05
4.51764e-06
5.64954e-05
-5.81348e-07
5.29772e-05
-5.44268e-06
5.205e-05
-7.54354e-06
5.37256e-05
-6.80994e-06
5.63404e-05
-3.8924e-06
5.919e-05
2.41286e-07
6.17481e-05
5.22851e-06
6.38967e-05
1.05989e-05
6.50822e-05
1.51588e-05
6.39759e-05
1.78302e-05
5.95985e-05
1.85921e-05
5.30048e-05
1.7765e-05
4.65158e-05
1.55595e-05
4.13537e-05
1.22884e-05
3.72323e-05
8.31122e-06
3.36575e-05
3.99304e-06
2.98251e-05
2.38273e-05
-1.62767e-08
3.37951e-05
-9.55875e-07
3.25324e-05
-2.42635e-06
3.33572e-05
-5.70621e-06
3.59927e-05
-1.08712e-05
4.09962e-05
-1.5046e-05
4.74035e-05
-1.26698e-05
5.13004e-05
-5.94605e-06
5.76483e-05
-4.21065e-07
6.27226e-05
1.49047e-06
6.19293e-05
2.66315e-06
6.19305e-05
2.60601e-06
6.09769e-05
5.50454e-07
5.85506e-05
-2.82201e-06
5.63463e-05
-6.11749e-06
5.53401e-05
-7.89204e-06
5.5494e-05
-7.85143e-06
5.62931e-05
-6.06682e-06
5.73983e-05
-2.92282e-06
5.85969e-05
1.37252e-06
5.95942e-05
6.51768e-06
5.99303e-05
1.13981e-05
5.90892e-05
1.43159e-05
5.66744e-05
1.48304e-05
5.2483e-05
1.38324e-05
4.75049e-05
1.20435e-05
4.31315e-05
9.69729e-06
3.95652e-05
6.84826e-06
3.64914e-05
3.5428e-06
3.31138e-05
2.7351e-05
-8.73727e-08
3.38728e-05
-2.77662e-07
3.27114e-05
-1.25189e-06
3.43208e-05
-3.3722e-06
3.8105e-05
-5.5116e-06
4.31329e-05
-5.60612e-06
4.75029e-05
-5.08055e-06
5.07877e-05
-3.22433e-06
5.58132e-05
-6.6935e-07
6.01917e-05
-3.39958e-07
6.16208e-05
-5.39821e-07
6.21487e-05
-1.17389e-06
6.16256e-05
-2.72651e-06
6.01131e-05
-4.87832e-06
5.85038e-05
-6.91343e-06
5.7378e-05
-8.19089e-06
5.67726e-05
-8.46321e-06
5.65655e-05
-7.62156e-06
5.65559e-05
-5.66263e-06