/*--------------------------------*- C++ -*----------------------------------*\
| =========                 |                                                 |
| \\      /  F ield         | OpenFOAM: The Open Source CFD Toolbox           |
|  \\    /   O peration     | Version:  v1606+                                |
|   \\  /    A nd           | Web:      www.OpenFOAM.com                      |
|    \\/     M anipulation  |                                                 |
\*---------------------------------------------------------------------------*/
FoamFile
{
    version     2.0;
    format      ascii;
    class       volVectorField;
    location    "1.28";
    object      U.air;
}
// * * * * * * * * * * * * * * * * * * * * * * * * * * * * * * * * * * * * * //

dimensions      [0 1 -1 0 0 0 0];

internalField   nonuniform List<vector> 
6000
(
(-0.0739286 0.338487 0)
(-0.099108 0.273451 0)
(-0.0694582 0.252606 0)
(-0.0421363 0.212768 0)
(-0.0110206 0.178739 0)
(0.016288 0.151947 0)
(0.0370186 0.180915 0)
(0.0529677 0.168373 0)
(0.0712547 0.172768 0)
(0.0781977 0.181495 0)
(0.0816821 0.203075 0)
(0.0749947 0.210305 0)
(0.0496295 0.206589 0)
(0.0216397 0.201672 0)
(0.00189286 0.204718 0)
(-0.0117946 0.208092 0)
(-0.0250459 0.202911 0)
(-0.0351364 0.186413 0)
(-0.0362117 0.167118 0)
(-0.0309226 0.173496 0)
(-0.0361013 0.190013 0)
(-0.0478902 0.177497 0)
(-0.049268 0.196932 0)
(-0.041133 0.238985 0)
(-0.0416804 0.280012 0)
(-0.0428605 0.298373 0)
(-0.0287556 0.303372 0)
(-0.00686139 0.301357 0)
(0.051551 0.274633 0)
(0.0568048 0.319414 0)
(0.00660006 1.11043 0)
(-0.0139528 0.997934 0)
(-0.0116186 1.0342 0)
(-0.0213671 1.04929 0)
(-0.0278694 1.05589 0)
(-0.00795212 1.01712 0)
(0.0169653 1.0004 0)
(0.0478666 1.0005 0)
(0.0776531 1.02313 0)
(0.0995282 1.04061 0)
(0.112238 1.04186 0)
(0.110424 1.07291 0)
(0.088625 1.10125 0)
(0.0477603 1.11141 0)
(-0.000683997 1.10495 0)
(-0.0426487 1.10338 0)
(-0.0693306 1.0948 0)
(-0.0778589 1.08969 0)
(-0.0774444 1.07265 0)
(-0.0592858 1.05465 0)
(-0.0246921 1.05277 0)
(-0.0153452 1.08235 0)
(-0.0331071 1.08932 0)
(-0.0651443 1.1143 0)
(-0.125195 1.11873 0)
(-0.159804 1.06148 0)
(-0.149029 0.994937 0)
(-0.100079 0.955585 0)
(-0.0427983 0.901759 0)
(-0.0268573 1.05156 0)
(0.042084 0.899157 0)
(0.0494478 0.797681 0)
(0.0222329 0.80734 0)
(-0.0240827 0.806219 0)
(-0.0473783 0.774076 0)
(-0.00726961 0.723421 0)
(0.0444557 0.753119 0)
(0.0634375 0.737776 0)
(0.0847049 0.748372 0)
(0.105455 0.767922 0)
(0.113105 0.813477 0)
(0.102734 0.868992 0)
(0.0834481 0.924349 0)
(0.0528079 0.961662 0)
(0.00269007 0.973637 0)
(-0.0617513 0.958196 0)
(-0.110959 0.908813 0)
(-0.131431 0.853797 0)
(-0.127932 0.799862 0)
(-0.0953932 0.770618 0)
(-0.0422037 0.791822 0)
(0.0237605 0.839578 0)
(0.0525662 0.884681 0)
(-0.0434779 0.961247 0)
(-0.215198 0.9561 0)
(-0.300961 0.855666 0)
(-0.283027 0.752756 0)
(-0.208043 0.701641 0)
(-0.143781 0.67535 0)
(-0.0792418 0.773803 0)
(0.0635224 0.797337 0)
(0.11159 0.795895 0)
(0.13738 0.848852 0)
(0.11779 0.897816 0)
(0.102871 0.863627 0)
(0.0958211 0.779609 0)
(0.122397 0.833174 0)
(0.145243 0.836271 0)
(0.165396 0.871 0)
(0.183823 0.914469 0)
(0.183948 0.971394 0)
(0.154757 1.01708 0)
(0.123389 1.0455 0)
(0.0839348 1.05712 0)
(0.029082 1.06626 0)
(-0.0425127 1.06299 0)
(-0.12092 1.02833 0)
(-0.185301 0.996669 0)
(-0.205993 0.939173 0)
(-0.16881 0.867276 0)
(-0.0777412 0.840545 0)
(0.0226045 0.886968 0)
(-0.0229373 0.988333 0)
(-0.261551 1.17847 0)
(-0.49269 1.12409 0)
(-0.517303 0.876217 0)
(-0.426502 0.69025 0)
(-0.308978 0.616558 0)
(-0.201236 0.620155 0)
(-0.0824076 0.640968 0)
(0.0452433 0.68619 0)
(0.140096 0.699455 0)
(0.225266 0.758599 0)
(0.298135 0.827124 0)
(0.33493 0.861295 0)
(0.274559 0.820299 0)
(0.209349 0.87528 0)
(0.229335 0.870274 0)
(0.26876 0.885362 0)
(0.252552 0.877161 0)
(0.197748 0.903409 0)
(0.148633 0.924349 0)
(0.119232 0.949713 0)
(0.0829425 0.991806 0)
(0.0370899 1.01939 0)
(-0.010754 1.01894 0)
(-0.0662573 0.977788 0)
(-0.12204 0.900135 0)
(-0.156341 0.818643 0)
(-0.156927 0.741334 0)
(-0.133293 0.716737 0)
(-0.139102 0.816045 0)
(-0.312429 1.12432 0)
(-0.599041 1.3499 0)
(-0.702584 1.09477 0)
(-0.590656 0.709471 0)
(-0.440947 0.517286 0)
(-0.302874 0.462536 0)
(-0.185581 0.484688 0)
(-0.0553942 0.48671 0)
(0.0552668 0.578134 0)
(0.166852 0.594206 0)
(0.290398 0.658984 0)
(0.449933 0.733711 0)
(0.56065 0.841336 0)
(0.519564 0.941637 0)
(0.345427 0.90389 0)
(0.238947 0.801266 0)
(0.195847 0.794038 0)
(0.128059 0.852552 0)
(0.0608442 0.90749 0)
(0.0313228 0.920226 0)
(0.0133909 0.949122 0)
(-0.000339549 0.991343 0)
(-0.005898 1.01573 0)
(-0.00642416 1.01714 0)
(-0.0155739 1.00058 0)
(-0.0488903 0.947847 0)
(-0.107786 0.847589 0)
(-0.185126 0.737174 0)
(-0.2813 0.725031 0)
(-0.417367 0.923389 0)
(-0.593577 1.29202 0)
(-0.709974 1.41119 0)
(-0.646608 0.974251 0)
(-0.477452 0.525674 0)
(-0.334897 0.383086 0)
(-0.217025 0.360651 0)
(-0.133597 0.396209 0)
(-0.0351619 0.395465 0)
(0.0452743 0.473565 0)
(0.151363 0.482934 0)
(0.277626 0.507763 0)
(0.465637 0.572494 0)
(0.643563 0.725207 0)
(0.684089 1.01904 0)
(0.501072 1.04041 0)
(0.244677 0.892679 0)
(0.0653183 0.895224 0)
(-0.0826132 0.921336 0)
(-0.147457 0.860939 0)
(-0.125192 0.825369 0)
(-0.0879838 0.832948 0)
(-0.0580077 0.848227 0)
(-0.0357675 0.863312 0)
(-0.0209136 0.872336 0)
(-0.019794 0.872548 0)
(-0.04236 0.857373 0)
(-0.108709 0.837596 0)
(-0.231199 0.80648 0)
(-0.368135 0.819393 0)
(-0.473017 1.00878 0)
(-0.524551 1.28658 0)
(-0.532722 1.34074 0)
(-0.435059 0.782271 0)
(-0.306333 0.345749 0)
(-0.193652 0.273045 0)
(-0.129661 0.284845 0)
(-0.0791795 0.337113 0)
(-0.0169571 0.338565 0)
(0.0329349 0.401736 0)
(0.116917 0.401756 0)
(0.216248 0.386491 0)
(0.358707 0.395194 0)
(0.522634 0.538583 0)
(0.56128 1.02814 0)
(0.380949 1.17996 0)
(0.101763 1.04211 0)
(-0.0919212 0.929061 0)
(-0.199459 0.918678 0)
(-0.224157 0.782611 0)
(-0.179938 0.72156 0)
(-0.107981 0.746665 0)
(-0.0512885 0.806422 0)
(-0.0263732 0.838118 0)
(-0.0195918 0.859516 0)
(-0.0291998 0.873963 0)
(-0.0617887 0.870107 0)
(-0.115203 0.858449 0)
(-0.195955 0.843254 0)
(-0.273312 0.836883 0)
(-0.289077 0.988416 0)
(-0.259087 1.21389 0)
(-0.237322 1.28185 0)
(-0.216131 0.66598 0)
(-0.156217 0.220765 0)
(-0.0998541 0.209069 0)
(-0.0689905 0.245041 0)
(-0.0439042 0.293918 0)
(-0.00676361 0.302558 0)
(0.0216815 0.343447 0)
(0.0820412 0.334434 0)
(0.143879 0.296802 0)
(0.223354 0.25948 0)
(0.308773 0.3792 0)
(0.289705 1.06279 0)
(0.112058 1.26662 0)
(-0.0461163 1.16295 0)
(-0.174025 0.994961 0)
(-0.254222 0.946979 0)
(-0.248939 0.759239 0)
(-0.203924 0.66495 0)
(-0.137769 0.68194 0)
(-0.0707277 0.763464 0)
(-0.0277202 0.823122 0)
(-0.0107707 0.860213 0)
(-0.015783 0.888661 0)
(-0.0519021 0.90306 0)
(-0.112591 0.903332 0)
(-0.168281 0.895064 0)
(-0.158922 0.835581 0)
(-0.0986562 0.934185 0)
(-0.0187873 1.15904 0)
(0.0317862 1.24999 0)
(-0.00881491 0.660773 0)
(-0.0483232 0.16368 0)
(-0.032464 0.17351 0)
(-0.0225855 0.222843 0)
(-0.0163718 0.263202 0)
(-0.00122137 0.27878 0)
(0.0119833 0.297208 0)
(0.0474955 0.282387 0)
(0.0755802 0.242972 0)
(0.108293 0.185287 0)
(0.120121 0.315461 0)
(0.0425743 1.16045 0)
(-0.0827972 1.34019 0)
(-0.152478 1.25395 0)
(-0.228523 1.07609 0)
(-0.256837 0.964549 0)
(-0.222035 0.722601 0)
(-0.180344 0.61836 0)
(-0.140807 0.630167 0)
(-0.0914333 0.708382 0)
(-0.042343 0.789626 0)
(-0.0152659 0.845841 0)
(-0.0164808 0.907484 0)
(-0.0565682 0.955299 0)
(-0.123304 0.963189 0)
(-0.161982 0.908193 0)
(-0.0960329 0.78067 0)
(0.0273871 0.82791 0)
(0.168053 1.08712 0)
(0.256442 1.21355 0)
(0.199611 0.745048 0)
(0.0599501 0.200078 0)
(0.0300959 0.162488 0)
(0.0219628 0.219199 0)
(0.00804547 0.251129 0)
(0.00405338 0.269724 0)
(0.00331324 0.26777 0)
(0.0138754 0.252035 0)
(0.0151849 0.219017 0)
(0.0230698 0.156164 0)
(-0.0162764 0.357355 0)
(-0.136051 1.2362 0)
(-0.197143 1.38497 0)
(-0.224117 1.28275 0)
(-0.247478 1.09041 0)
(-0.216105 0.922382 0)
(-0.144368 0.672573 0)
(-0.110304 0.587143 0)
(-0.0970329 0.611553 0)
(-0.0781883 0.680405 0)
(-0.0524622 0.769951 0)
(-0.0384593 0.845039 0)
(-0.053836 0.937455 0)
(-0.0939514 1.0083 0)
(-0.135432 1.00882 0)
(-0.114622 0.880462 0)
(-0.0126567 0.67778 0)
(0.115972 0.69274 0)
(0.262328 0.991958 0)
(0.427809 1.21068 0)
(0.400195 0.889892 0)
(0.179644 0.346477 0)
(0.093178 0.18973 0)
(0.0651402 0.235349 0)
(0.0316078 0.25882 0)
(0.0101312 0.275563 0)
(-0.00539638 0.257924 0)
(-0.0194677 0.246687 0)
(-0.0444896 0.222983 0)
(-0.0549046 0.168283 0)
(-0.134035 0.473244 0)
(-0.267137 1.29919 0)
(-0.282462 1.40907 0)
(-0.287665 1.27942 0)
(-0.234857 1.06486 0)
(-0.114514 0.821413 0)
(-0.0210753 0.624541 0)
(-0.00902869 0.585831 0)
(-0.0231598 0.628358 0)
(-0.0296252 0.688899 0)
(-0.0396001 0.783793 0)
(-0.0570507 0.87489 0)
(-0.0934714 0.987525 0)
(-0.127057 1.04855 0)
(-0.106638 0.995355 0)
(-0.0156926 0.813149 0)
(0.048003 0.608825 0)
(0.0837583 0.601896 0)
(0.191944 0.834629 0)
(0.39524 1.11794 0)
(0.494277 1.03284 0)
(0.309261 0.575425 0)
(0.151797 0.271257 0)
(0.0999353 0.273275 0)
(0.0520457 0.283782 0)
(0.0160122 0.295388 0)
(-0.0143339 0.269505 0)
(-0.0512229 0.266747 0)
(-0.0992224 0.254738 0)
(-0.120598 0.228435 0)
(-0.237291 0.630047 0)
(-0.366638 1.36686 0)
(-0.338054 1.42802 0)
(-0.290748 1.21653 0)
(-0.12317 0.976607 0)
(0.0242463 0.719227 0)
(0.0590415 0.614644 0)
(0.0423797 0.611017 0)
(0.0130105 0.653838 0)
(-0.00152061 0.708841 0)
(-0.0212485 0.822206 0)
(-0.0588301 0.926815 0)
(-0.103229 1.03828 0)
(-0.10546 1.06027 0)
(-0.0289762 0.93855 0)
(0.050246 0.761138 0)
(0.0701719 0.645982 0)
(0.0392472 0.644991 0)
(0.0683731 0.761666 0)
(0.235838 0.95575 0)
(0.424763 1.05365 0)
(0.397279 0.786804 0)
(0.200368 0.415557 0)
(0.116382 0.331289 0)
(0.0645303 0.319031 0)
(0.0207606 0.32703 0)
(-0.0240675 0.304294 0)
(-0.0827658 0.311808 0)
(-0.148152 0.31035 0)
(-0.184629 0.330043 0)
(-0.33611 0.835591 0)
(-0.452314 1.41842 0)
(-0.324911 1.44292 0)
(-0.143201 1.11442 0)
(0.0367335 0.805219 0)
(0.121305 0.680917 0)
(0.117257 0.65452 0)
(0.0788478 0.657269 0)
(0.0397683 0.686694 0)
(0.00985857 0.731812 0)
(-0.0152362 0.853973 0)
(-0.0479559 0.978691 0)
(-0.0743504 1.06673 0)
(-0.0357298 1.03464 0)
(0.0492178 0.895292 0)
(0.109732 0.775171 0)
(0.0971054 0.70675 0)
(0.0396473 0.700681 0)
(0.0177601 0.755374 0)
(0.100723 0.854152 0)
(0.273624 0.961124 0)
(0.384246 0.909153 0)
(0.230997 0.606502 0)
(0.120339 0.403312 0)
(0.0726639 0.355817 0)
(0.0264671 0.368988 0)
(-0.0326558 0.366078 0)
(-0.112403 0.384028 0)
(-0.196089 0.39193 0)
(-0.257164 0.487339 0)
(-0.419575 1.05604 0)
(-0.439066 1.38944 0)
(-0.178416 1.27279 0)
(0.041413 0.95287 0)
(0.146923 0.796017 0)
(0.153729 0.735784 0)
(0.116168 0.713305 0)
(0.0751984 0.707015 0)
(0.0440232 0.727428 0)
(0.0159891 0.770902 0)
(-0.0107931 0.879853 0)
(-0.0296119 1.01587 0)
(-0.0194856 1.06934 0)
(0.0524657 0.997561 0)
(0.139368 0.872783 0)
(0.162275 0.803703 0)
(0.124084 0.770335 0)
(0.0590365 0.763143 0)
(0.0133202 0.772899 0)
(0.0283975 0.802053 0)
(0.118514 0.850488 0)
(0.281577 0.88849 0)
(0.259122 0.750484 0)
(0.12791 0.506265 0)
(0.0812811 0.394117 0)
(0.0394102 0.427733 0)
(-0.037107 0.434586 0)
(-0.125556 0.517069 0)
(-0.231517 0.511256 0)
(-0.356722 0.666727 0)
(-0.46631 1.17569 0)
(-0.301524 1.26982 0)
(-0.029526 1.10315 0)
(0.140068 0.929147 0)
(0.172715 0.838308 0)
(0.137114 0.790336 0)
(0.0877384 0.760305 0)
(0.0468341 0.743517 0)
(0.019503 0.75216 0)
(0.00209138 0.798881 0)
(-0.0100941 0.907574 0)
(-0.00171166 1.03332 0)
(0.057435 1.04387 0)
(0.150554 0.949726 0)
(0.206277 0.874059 0)
(0.19261 0.847981 0)
(0.143835 0.830892 0)
(0.0854528 0.822603 0)
(0.0336197 0.810169 0)
(0.00569606 0.799122 0)
(0.029015 0.78499 0)
(0.118769 0.781391 0)
(0.227386 0.801976 0)
(0.176412 0.576658 0)
(0.0758223 0.460549 0)
(0.0431763 0.529399 0)
(-0.058873 0.534804 0)
(-0.134773 0.589813 0)
(-0.269265 0.63225 0)
(-0.408417 0.805062 0)
(-0.397758 1.1016 0)
(-0.116836 1.0851 0)
(0.0865266 1.00402 0)
(0.17331 0.933238 0)
(0.15767 0.885295 0)
(0.106199 0.842474 0)
(0.0557965 0.803391 0)
(0.0171791 0.776342 0)
(-0.00812732 0.771812 0)
(-0.0163516 0.810246 0)
(-0.00553924 0.912383 0)
(0.0439935 1.01067 0)
(0.139528 0.990068 0)
(0.21813 0.923601 0)
(0.234323 0.899183 0)
(0.204753 0.893618 0)
(0.158599 0.886207 0)
(0.107021 0.876653 0)
(0.0546904 0.855693 0)
(0.00955309 0.823224 0)
(-0.0148209 0.776028 0)
(0.00343676 0.718338 0)
(0.0751393 0.695535 0)
(0.185435 0.663971 0)
(0.0579683 0.496955 0)
(0.0278365 0.538488 0)
(-0.042036 0.55766 0)
(-0.104043 0.701732 0)
(-0.189028 0.702326 0)
(-0.289102 0.854995 0)
(-0.14628 0.906001 0)
(0.0448671 0.933008 0)
(0.149711 0.948057 0)
(0.167708 0.948044 0)
(0.133499 0.927145 0)
(0.0811428 0.890935 0)
(0.0316288 0.843794 0)
(-0.00343328 0.804372 0)
(-0.022616 0.786211 0)
(-0.0223962 0.806597 0)
(0.0109786 0.883699 0)
(0.0943279 0.951265 0)
(0.188804 0.93428 0)
(0.239463 0.916314 0)
(0.23843 0.924502 0)
(0.211179 0.932145 0)
(0.172141 0.93409 0)
(0.125479 0.926163 0)
(0.0722986 0.905325 0)
(0.0151483 0.863293 0)
(-0.0336503 0.79831 0)
(-0.0657944 0.722053 0)
(-0.0614221 0.638911 0)
(0.0278746 0.603218 0)
(-0.00265183 0.609725 0)
(-0.0135834 0.544241 0)
(-0.0300014 0.623728 0)
(0.00226932 0.749847 0)
(0.00746672 0.761908 0)
(0.0129345 0.831942 0)
(0.105103 0.790976 0)
(0.153005 0.875275 0)
(0.170468 0.931934 0)
(0.158515 0.966224 0)
(0.11878 0.966349 0)
(0.0650524 0.936899 0)
(0.0139231 0.883205 0)
(-0.0194059 0.82575 0)
(-0.0304983 0.790288 0)
(-0.0180386 0.784049 0)
(0.0333133 0.82552 0)
(0.122815 0.871737 0)
(0.200107 0.884428 0)
(0.240446 0.904659 0)
(0.243226 0.940192 0)
(0.219565 0.961996 0)
(0.185394 0.97161 0)
(0.147597 0.96468 0)
(0.0915606 0.958069 0)
(0.0188827 0.912904 0)
(-0.0429175 0.83508 0)
(-0.0981026 0.762059 0)
(-0.136306 0.654565 0)
(-0.120877 0.569048 0)
(-0.0645474 0.63954 0)
(0.00271385 0.504039 0)
(-0.00642732 0.598068 0)
(0.124725 0.700069 0)
(0.175883 0.780915 0)
(0.202103 0.810831 0)
(0.214206 0.813447 0)
(0.187577 0.882759 0)
(0.171248 0.936743 0)
(0.149786 0.988884 0)
(0.108183 1.00559 0)
(0.0548186 0.980671 0)
(0.000623254 0.921494 0)
(-0.0422727 0.847504 0)
(-0.0528617 0.78189 0)
(-0.023085 0.738072 0)
(0.0452809 0.744948 0)
(0.134934 0.783491 0)
(0.207903 0.828114 0)
(0.252126 0.879312 0)
(0.260978 0.943781 0)
(0.232513 0.990817 0)
(0.183391 1.03284 0)
(0.154927 1.01629 0)
(0.10344 1.0773 0)
(0.0198129 1.02359 0)
(-0.0372985 0.903579 0)
(-0.118444 0.810562 0)
(-0.188267 0.677061 0)
(-0.196233 0.573756 0)
(-0.126698 0.547385 0)
(-0.0183926 0.497441 0)
(0.0618183 0.64176 0)
(0.165692 0.744212 0)
(0.188416 0.846024 0)
(0.178947 0.838173 0)
(0.17312 0.842352 0)
(0.164294 0.893309 0)
(0.146605 0.963138 0)
(0.117927 1.05 0)
(0.0845424 1.07401 0)
(0.0466653 1.03809 0)
(0.00522549 0.988007 0)
(-0.0801958 0.903855 0)
(-0.112138 0.756697 0)
(-0.0567811 0.666805 0)
(0.0440744 0.64348 0)
(0.151199 0.684425 0)
(0.24286 0.760381 0)
(0.267562 0.872175 0)
(0.251853 0.988912 0)
(0.223169 1.02525 0)
(0.160361 0.999267 0)
(0.147711 0.940459 0)
(0.0888869 0.985464 0)
(-0.027318 0.911337 0)
(-0.0937864 0.834561 0)
(-0.12731 0.868062 0)
(-0.186009 0.778107 0)
(-0.221229 0.567251 0)
(-0.167827 0.469364 0)
(-0.0496971 0.418354 0)
(0.128492 0.477093 0)
(0.189743 0.681638 0)
(0.105279 0.910914 0)
(0.0583568 0.919839 0)
(0.0995225 0.903896 0)
(0.147196 0.92111 0)
(0.184416 0.93178 0)
(0.172064 0.952149 0)
(0.103753 0.968934 0)
(0.0322497 0.947346 0)
(-0.0344915 0.941716 0)
(-0.163784 0.921338 0)
(-0.194565 0.772669 0)
(-0.109851 0.561 0)
(0.0325559 0.521284 0)
(0.175512 0.569167 0)
(0.292185 0.744522 0)
(0.314699 0.834089 0)
(0.288573 0.859337 0)
(0.231528 0.987601 0)
(0.135081 0.989644 0)
(0.0498406 0.94736 0)
(-0.0285575 1.09271 0)
(-0.107583 1.02047 0)
(-0.214726 0.853982 0)
(-0.313283 0.752502 0)
(-0.404148 0.632245 0)
(-0.314846 0.555733 0)
(-0.202747 0.34708 0)
(-0.0678133 0.298396 0)
(0.112718 0.260258 0)
(0.26379 0.639982 0)
(0.297567 0.826241 0)
(0.313535 0.723758 0)
(0.362444 0.675509 0)
(0.437895 0.745387 0)
(0.465564 0.822918 0)
(0.429907 0.994876 0)
(0.298625 1.06269 0)
(0.123623 1.03278 0)
(-0.0616859 1.0271 0)
(-0.278405 0.961365 0)
(-0.372945 0.627323 0)
(-0.187521 0.481081 0)
(0.033932 0.385498 0)
(0.241883 0.48518 0)
(0.375171 0.580128 0)
(0.330763 0.807691 0)
(0.187816 0.932811 0)
(0.0825978 0.983833 0)
(0.0135946 0.969343 0)
(-0.0746519 0.92571 0)
(-0.129843 0.944955 0)
(-0.150475 0.904881 0)
(-0.226444 0.845942 0)
(-0.334579 0.807617 0)
(-0.479568 0.668565 0)
(-0.442837 0.279527 0)
(-0.247964 0.182928 0)
(-0.0633257 0.154067 0)
(0.0796627 0.0116657 0)
(0.269304 0.461183 0)
(0.402139 0.685001 0)
(0.490473 0.692665 0)
(0.523373 0.634628 0)
(0.566057 0.646498 0)
(0.589458 0.747585 0)
(0.559401 0.924735 0)
(0.452852 1.05878 0)
(0.266404 1.09522 0)
(0.0572957 1.09794 0)
(-0.132979 1.01397 0)
(-0.283167 0.626557 0)
(-0.210975 0.187635 0)
(0.036682 0.220821 0)
(0.258947 0.259859 0)
(0.299727 0.59906 0)
(0.162092 0.803979 0)
(0.0717889 0.876407 0)
(0.0123641 0.914948 0)
(-0.0323217 0.923943 0)
(-0.0932958 0.916895 0)
(-0.145138 0.931472 0)
(-0.182425 0.904432 0)
(-0.243086 0.848168 0)
(-0.299286 0.76256 0)
(-0.334936 0.552965 0)
(-0.376306 0.161227 0)
(-0.241732 -0.0649226 0)
(-0.0583033 0.00458354 0)
(0.0221415 -0.157346 0)
(0.141675 0.229589 0)
(0.269423 0.438129 0)
(0.369304 0.491195 0)
(0.417925 0.465125 0)
(0.455899 0.49764 0)
(0.495419 0.643962 0)
(0.511391 0.897178 0)
(0.45337 1.11875 0)
(0.3032 1.20374 0)
(0.130854 1.1882 0)
(0.0100726 1.03108 0)
(-0.0283758 0.588171 0)
(-0.00623183 0.180304 0)
(0.0737479 -0.0311871 0)
(0.16811 0.218894 0)
(0.107247 0.557865 0)
(0.05212 0.782328 0)
(0.0281832 0.904482 0)
(-0.00641895 0.960876 0)
(-0.0484664 0.981957 0)
(-0.101866 0.98266 0)
(-0.151958 0.984925 0)
(-0.192443 0.962501 0)
(-0.231507 0.908408 0)
(-0.24459 0.786313 0)
(-0.228163 0.542479 0)
(-0.28586 0.139372 0)
(-0.230902 -0.203005 0)
(-0.131503 -0.0947173 0)
(-0.0159395 -0.211453 0)
(0.0534553 0.108499 0)
(0.161443 0.335832 0)
(0.226159 0.426378 0)
(0.268448 0.430543 0)
(0.290724 0.467727 0)
(0.3249 0.614078 0)
(0.384138 0.900092 0)
(0.389117 1.20949 0)
(0.285916 1.35988 0)
(0.143568 1.33022 0)
(0.0645382 1.09232 0)
(0.093235 0.554422 0)
(0.138951 0.127143 0)
(0.113142 0.00116108 0)
(0.0739569 0.22328 0)
(0.0173946 0.574027 0)
(-0.00573901 0.8012 0)
(-0.0120974 0.930117 0)
(-0.0298713 0.993994 0)
(-0.0620321 1.02435 0)
(-0.106751 1.02939 0)
(-0.150271 1.02279 0)
(-0.182169 0.99088 0)
(-0.190822 0.914453 0)
(-0.167865 0.766884 0)
(-0.123357 0.52285 0)
(-0.157864 0.164701 0)
(-0.150787 -0.221338 0)
(-0.179539 -0.279344 0)
(-0.0149065 -0.195195 0)
(0.00463605 0.00449143 0)
(0.0979974 0.305884 0)
(0.134326 0.383363 0)
(0.15475 0.415819 0)
(0.169461 0.460073 0)
(0.190547 0.572952 0)
(0.250904 0.849061 0)
(0.29482 1.23512 0)
(0.236409 1.46322 0)
(0.127782 1.43197 0)
(0.0863595 1.11469 0)
(0.131504 0.529529 0)
(0.154322 0.141664 0)
(0.104421 0.0325502 0)
(0.0388135 0.269986 0)
(-0.0231557 0.603926 0)
(-0.0477104 0.816121 0)
(-0.0530428 0.940217 0)
(-0.0597384 1.01432 0)
(-0.077269 1.05839 0)
(-0.106616 1.06983 0)
(-0.134651 1.05615 0)
(-0.144786 1.00435 0)
(-0.123595 0.895084 0)
(-0.081234 0.726201 0)
(-0.0302896 0.48308 0)
(-0.0305223 0.16922 0)
(-0.0432429 -0.190718 0)
(-0.0307252 -0.324496 0)
(-0.021395 -0.183531 0)
(-0.0313142 -0.0376724 0)
(0.0271474 0.223928 0)
(0.0839861 0.39952 0)
(0.0906246 0.397385 0)
(0.0970368 0.452038 0)
(0.100965 0.54897 0)
(0.141717 0.801725 0)
(0.18956 1.23798 0)
(0.165685 1.53193 0)
(0.0983314 1.50203 0)
(0.0933916 1.11871 0)
(0.142203 0.521696 0)
(0.155828 0.172712 0)
(0.0956219 0.095738 0)
(0.0137662 0.337881 0)
(-0.0537954 0.645213 0)
(-0.0811554 0.835969 0)
(-0.0888718 0.950866 0)
(-0.0906979 1.02575 0)
(-0.0943236 1.07627 0)
(-0.104634 1.09188 0)
(-0.111311 1.06669 0)
(-0.0990079 0.990914 0)
(-0.0653992 0.861504 0)
(-0.0257833 0.688718 0)
(0.0141464 0.457329 0)
(0.0209028 0.202556 0)
(0.0338993 -0.19753 0)
(0.00154243 -0.298411 0)
(-0.0226341 -0.141449 0)
(-0.0537143 -0.0520277 0)
(-0.0313594 0.16588 0)
(0.0315459 0.352794 0)
(0.0514458 0.386598 0)
(0.0392967 0.46 0)
(0.0336741 0.546739 0)
(0.0484285 0.769647 0)
(0.0855895 1.2282 0)
(0.0893025 1.56516 0)
(0.0626247 1.53491 0)
(0.0833539 1.10098 0)
(0.125646 0.507311 0)
(0.127889 0.206354 0)
(0.06022 0.167667 0)
(-0.0163411 0.412073 0)
(-0.0774846 0.683038 0)
(-0.101218 0.855688 0)
(-0.108442 0.959138 0)
(-0.107242 1.03046 0)
(-0.101184 1.08402 0)
(-0.0950853 1.09955 0)
(-0.0829891 1.06362 0)
(-0.0568809 0.973104 0)
(-0.0219926 0.835627 0)
(0.00919687 0.664053 0)
(0.0308874 0.43364 0)
(0.0537139 0.171061 0)
(0.0647442 -0.189667 0)
(0.0154451 -0.266712 0)
(-0.0239195 -0.102374 0)
(-0.0703083 -0.034895 0)
(-0.0789247 0.133832 0)
(-0.0316391 0.302281 0)
(0.0135093 0.418512 0)
(0.00554707 0.468132 0)
(-0.0195287 0.558432 0)
(-0.0304893 0.762262 0)
(-0.0113651 1.21798 0)
(0.0193098 1.57289 0)
(0.0348998 1.54358 0)
(0.0781559 1.07894 0)
(0.10868 0.511084 0)
(0.0981197 0.246316 0)
(0.0334957 0.242043 0)
(-0.0411295 0.472012 0)
(-0.09092 0.716985 0)
(-0.110141 0.874743 0)
(-0.114596 0.968221 0)
(-0.110372 1.03374 0)
(-0.0979664 1.08292 0)
(-0.0808893 1.0936 0)
(-0.0566208 1.04815 0)
(-0.0235595 0.948913 0)
(0.0108685 0.811078 0)
(0.0435904 0.642392 0)
(0.0543236 0.419149 0)
(0.0753148 0.142351 0)
(0.0808538 -0.158554 0)
(0.0217065 -0.212285 0)
(-0.0281651 -0.0496928 0)
(-0.0893816 0.00290052 0)
(-0.117053 0.125124 0)
(-0.0898241 0.251299 0)
(-0.0293476 0.374874 0)
(-0.00952939 0.52201 0)
(-0.048631 0.589086 0)
(-0.0920205 0.777322 0)
(-0.0912813 1.19658 0)
(-0.0389068 1.54425 0)
(0.0172705 1.51887 0)
(0.0796185 1.04808 0)
(0.0900253 0.521765 0)
(0.059696 0.284797 0)
(0.0019581 0.308191 0)
(-0.0608023 0.523887 0)
(-0.0988445 0.74464 0)
(-0.110855 0.888125 0)
(-0.109829 0.972751 0)
(-0.101448 1.03122 0)
(-0.0848047 1.07271 0)
(-0.061421 1.07902 0)
(-0.0315164 1.02796 0)
(0.00296288 0.925376 0)
(0.0352892 0.790181 0)
(0.0617099 0.625691 0)
(0.0764974 0.453272 0)
(0.10259 0.114254 0)
(0.0926363 -0.118947 0)
(0.0277857 -0.147621 0)
(-0.0355579 0.0125577 0)
(-0.108684 0.0537569 0)
(-0.147132 0.130909 0)
(-0.134667 0.212486 0)
(-0.084167 0.325414 0)
(-0.0498695 0.514446 0)
(-0.0796577 0.644142 0)
(-0.135717 0.812222 0)
(-0.152868 1.17948 0)
(-0.0909237 1.492 0)
(-0.00425241 1.46692 0)
(0.0695699 1.01345 0)
(0.0793461 0.589569 0)
(0.0341792 0.324983 0)
(-0.0163383 0.366178 0)
(-0.0711977 0.56822 0)
(-0.101693 0.764913 0)
(-0.10497 0.895406 0)
(-0.097768 0.971254 0)
(-0.0845547 1.02302 0)
(-0.0650248 1.06032 0)
(-0.0376364 1.06101 0)
(-0.00522581 1.00625 0)
(0.0297819 0.90193 0)
(0.0626704 0.770852 0)
(0.0742221 0.606093 0)
(0.10267 0.414761 0)
(0.13507 0.101499 0)
(0.10484 -0.0687252 0)
(0.0381669 -0.0788778 0)
(-0.044917 0.0881957 0)
(-0.126056 0.111183 0)
(-0.171039 0.145966 0)
(-0.173802 0.187492 0)
(-0.148285 0.286148 0)
(-0.124316 0.505409 0)
(-0.134633 0.714082 0)
(-0.175617 0.855266 0)
(-0.203757 1.16884 0)
(-0.138283 1.42238 0)
(-0.0323804 1.39725 0)
(0.0463656 0.974373 0)
(0.0624385 0.610989 0)
(0.0233882 0.363846 0)
(-0.0214789 0.411664 0)
(-0.0727919 0.601825 0)
(-0.102173 0.77533 0)
(-0.0939118 0.89521 0)
(-0.0806231 0.96559 0)
(-0.0635257 1.01455 0)
(-0.0410323 1.0463 0)
(-0.00907149 1.04 0)
(0.024193 0.985715 0)
(0.0592778 0.876707 0)
(0.0831274 0.749384 0)
(0.0988773 0.634967 0)
(0.141228 0.379016 0)
(0.157441 0.112011 0)
(0.107847 -0.0110791 0)
(0.0435349 -0.000608946 0)
(-0.0522817 0.177446 0)
(-0.13769 0.1712 0)
(-0.196403 0.1756 0)
(-0.232808 0.19027 0)
(-0.242697 0.262378 0)
(-0.222938 0.487501 0)
(-0.202335 0.687849 0)
(-0.228454 0.889327 0)
(-0.249873 1.14861 0)
(-0.176424 1.34216 0)
(-0.0525753 1.31491 0)
(0.0365036 0.933444 0)
(0.0550229 0.628641 0)
(0.0171157 0.404771 0)
(-0.0271767 0.448278 0)
(-0.0602545 0.675275 0)
(-0.0837897 0.781755 0)
(-0.0728405 0.891305 0)
(-0.058208 0.957955 0)
(-0.0391087 1.0037 0)
(-0.0138355 1.0284 0)
(0.0247092 1.01212 0)
(0.0546963 0.956909 0)
(0.0724965 0.844532 0)
(0.0998815 0.775155 0)
(0.146011 0.59088 0)
(0.187277 0.35883 0)
(0.172359 0.15086 0)
(0.103264 0.0576306 0)
(0.0373093 0.0715794 0)
(-0.0543822 0.275157 0)
(-0.147689 0.2436 0)
(-0.243254 0.245323 0)
(-0.343951 0.247958 0)
(-0.393752 0.263447 0)
(-0.347326 0.442306 0)
(-0.277609 0.683141 0)
(-0.303708 0.912436 0)
(-0.295513 1.11851 0)
(-0.198857 1.23816 0)
(-0.04718 1.20724 0)
(0.0439209 0.885887 0)
(0.0601605 0.642006 0)
(0.0197021 0.447127 0)
(-0.0331126 0.476879 0)
(-0.0441578 0.679642 0)
(-0.048654 0.77207 0)
(-0.0447175 0.871014 0)
(-0.0317356 0.930949 0)
(-0.0130279 0.972988 0)
(0.00941869 0.992115 0)
(0.0363847 0.973328 0)
(0.0723805 0.988203 0)
(0.105007 0.868155 0)
(0.153765 0.726845 0)
(0.210641 0.555802 0)
(0.227047 0.371143 0)
(0.189265 0.216728 0)
(0.106938 0.139899 0)
(0.0317386 0.138924 0)
(-0.0534462 0.386437 0)
(-0.163001 0.342509 0)
(-0.292914 0.37722 0)
(-0.40878 0.380007 0)
(-0.466447 0.328391 0)
(-0.457541 0.378793 0)
(-0.334307 0.715965 0)
(-0.312801 0.934191 0)
(-0.29098 1.07055 0)
(-0.188345 1.13412 0)
(-0.02686 1.10376 0)
(0.0524798 0.85658 0)
(0.058787 0.662086 0)
(0.0215127 0.497551 0)
(-0.032578 0.51065 0)
(-0.044404 0.675341 0)
(-0.0337226 0.809252 0)
(-0.0222684 0.905278 0)
(-0.00194158 0.963245 0)
(0.0227526 1.00647 0)
(0.0476034 1.0254 0)
(0.0692278 1.00129 0)
(0.111854 0.938156 0)
(0.172416 0.820439 0)
(0.225659 0.688575 0)
(0.260384 0.546866 0)
(0.254834 0.40924 0)
(0.202193 0.297909 0)
(0.114758 0.233685 0)
(0.0301697 0.210575 0)
(-0.0492814 0.496616 0)
(-0.146927 0.462394 0)
(-0.220717 0.480375 0)
(-0.270753 0.44507 0)
(-0.319108 0.397993 0)
(-0.291494 0.352867 0)
(-0.305807 0.701574 0)
(-0.245858 0.953356 0)
(-0.240454 1.03113 0)
(-0.161413 1.02156 0)
(-0.0195379 0.99772 0)
(0.0664486 0.880312 0)
(0.0657786 0.68241 0)
(0.0248059 0.555068 0)
(-0.0431867 0.560415 0)
(-0.0688179 0.680385 0)
(-0.056351 0.793561 0)
(-0.0227099 0.876622 0)
(0.0135847 0.928096 0)
(0.0531137 0.969246 0)
(0.0930006 0.989925 0)
(0.133036 0.968616 0)
(0.1815 0.901057 0)
(0.233745 0.792453 0)
(0.272839 0.675629 0)
(0.286541 0.564294 0)
(0.263413 0.464231 0)
(0.201175 0.383521 0)
(0.115276 0.328837 0)
(0.0303344 0.28553 0)
(-0.0249366 0.600669 0)
(-0.0763805 0.518308 0)
(-0.115013 0.529529 0)
(-0.164299 0.505528 0)
(-0.240379 0.488893 0)
(-0.314987 0.505091 0)
(-0.335234 0.716799 0)
(-0.308253 1.03664 0)
(-0.204439 1.06971 0)
(-0.116081 0.986766 0)
(0.00886894 0.955254 0)
(0.0985222 0.858437 0)
(0.106185 0.722913 0)
(0.0511097 0.630765 0)
(-0.0275811 0.62469 0)
(-0.071332 0.700224 0)
(-0.0686215 0.784412 0)
(-0.033186 0.85688 0)
(0.0166134 0.908419 0)
(0.0708287 0.948426 0)
(0.127958 0.969766 0)
(0.1814 0.949964 0)
(0.229269 0.882086 0)
(0.269065 0.783915 0)
(0.291498 0.686211 0)
(0.287545 0.600433 0)
(0.25116 0.526452 0)
(0.187777 0.465197 0)
(0.108713 0.415224 0)
(0.0305557 0.357321 0)
(0.00131092 0.628058 0)
(-0.0329632 0.578539 0)
(-0.0733967 0.580854 0)
(-0.125339 0.571096 0)
(-0.213429 0.587774 0)
(-0.349933 0.662197 0)
(-0.42465 0.858573 0)
(-0.332557 1.00686 0)
(-0.149434 1.02196 0)
(-0.0437694 0.934229 0)
(0.0424399 0.911369 0)
(0.103297 0.86789 0)
(0.102496 0.790698 0)
(0.0496595 0.731718 0)
(-0.0226165 0.71974 0)
(-0.0721194 0.755324 0)
(-0.0790239 0.802323 0)
(-0.0526927 0.84761 0)
(-0.00436135 0.886536 0)
(0.0548309 0.921491 0)
(0.122938 0.945072 0)
(0.192477 0.93579 0)
(0.244881 0.879661 0)
(0.274293 0.79647 0)
(0.280522 0.713416 0)
(0.262551 0.643663 0)
(0.222058 0.585198 0)
(0.165422 0.535278 0)
(0.0991335 0.488946 0)
(0.0307061 0.424508 0)
(-0.00497933 0.654286 0)
(-0.0290461 0.617852 0)
(-0.062138 0.619056 0)
(-0.114276 0.637064 0)
(-0.196681 0.692683 0)
(-0.297698 0.796206 0)
(-0.312939 0.876192 0)
(-0.222469 0.9718 0)
(-0.0950169 1.01236 0)
(-0.0153028 0.967443 0)
(0.0246697 0.952913 0)
(0.0508898 0.92614 0)
(0.0460143 0.876474 0)
(0.00823759 0.832193 0)
(-0.04366 0.814194 0)
(-0.0823992 0.82284 0)
(-0.0928356 0.841828 0)
(-0.0766533 0.865496 0)
(-0.0397126 0.888302 0)
(0.0128513 0.908907 0)
(0.080329 0.922231 0)
(0.155267 0.916817 0)
(0.216731 0.881578 0)
(0.244686 0.816978 0)
(0.241239 0.744773 0)
(0.21847 0.683244 0)
(0.183178 0.63248 0)
(0.138784 0.589951 0)
(0.0871482 0.5484 0)
(0.0291001 0.486106 0)
(-0.00875323 0.671492 0)
(-0.028549 0.636772 0)
(-0.054443 0.647606 0)
(-0.0968376 0.690061 0)
(-0.146143 0.762172 0)
(-0.172842 0.834897 0)
(-0.168346 0.896169 0)
(-0.139154 0.98842 0)
(-0.0802159 1.04984 0)
(-0.0338023 1.03881 0)
(-0.0149353 1.0269 0)
(-0.00579426 1.0005 0)
(-0.0127787 0.956489 0)
(-0.0387859 0.915413 0)
(-0.0719029 0.891412 0)
(-0.0966382 0.884455 0)
(-0.104442 0.887209 0)
(-0.0944456 0.893916 0)
(-0.0682315 0.902577 0)
(-0.0275609 0.909062 0)
(0.0269056 0.907535 0)
(0.09038 0.893865 0)
(0.148513 0.86827 0)
(0.181451 0.825468 0)
(0.183199 0.767772 0)
(0.166756 0.711869 0)
(0.14221 0.666157 0)
(0.111289 0.629593 0)
(0.073149 0.59468 0)
(0.025815 0.539212 0)
(-0.00300384 0.675839 0)
(-0.0169994 0.645487 0)
(-0.0357835 0.66903 0)
(-0.0592508 0.726083 0)
(-0.0741349 0.795291 0)
(-0.0729367 0.86055 0)
(-0.0755789 0.922464 0)
(-0.0813008 1.00099 0)
(-0.0721917 1.0596 0)
(-0.0611009 1.0719 0)
(-0.0587334 1.06549 0)
(-0.0609429 1.04155 0)
(-0.0704049 1.00431 0)
(-0.0878628 0.967429 0)
(-0.10666 0.940216 0)
(-0.118985 0.923759 0)
(-0.120167 0.915226 0)
(-0.108866 0.910876 0)
(-0.0859517 0.908023 0)
(-0.0529235 0.902996 0)
(-0.0121365 0.891098 0)
(0.0324364 0.870736 0)
(0.0753002 0.845641 0)
(0.107915 0.815907 0)
(0.121452 0.774439 0)
(0.117349 0.727771 0)
(0.104043 0.687396 0)
(0.0849619 0.655978 0)
(0.0591932 0.62867 0)
(0.0227391 0.583688 0)
(0.0053847 0.67202 0)
(0.00131643 0.651013 0)
(-0.00602317 0.685216 0)
(-0.0105692 0.747717 0)
(-0.00978638 0.814227 0)
(-0.0147019 0.881097 0)
(-0.0347092 0.949561 0)
(-0.0600352 1.01755 0)
(-0.0798701 1.06576 0)
(-0.0946305 1.08164 0)
(-0.107076 1.07565 0)
(-0.116999 1.05281 0)
(-0.126119 1.02016 0)
(-0.135418 0.98624 0)
(-0.142997 0.956908 0)
(-0.145823 0.934849 0)
(-0.141118 0.918639 0)
(-0.127437 0.906316 0)
(-0.105506 0.895473 0)
(-0.0771319 0.882937 0)
(-0.0450637 0.865398 0)
(-0.0123175 0.842808 0)