/*--------------------------------*- C++ -*----------------------------------*\
| =========                 |                                                 |
| \\      /  F ield         | OpenFOAM: The Open Source CFD Toolbox           |
|  \\    /   O peration     | Version:  v1606+                                |
|   \\  /    A nd           | Web:      www.OpenFOAM.com                      |
|    \\/     M anipulation  |                                                 |
\*---------------------------------------------------------------------------*/
FoamFile
{
    version     2.0;
    format      ascii;
    class       volScalarField;
    location    "0.0042";
    object      nut;
}
// * * * * * * * * * * * * * * * * * * * * * * * * * * * * * * * * * * * * * //

dimensions      [0 2 -1 0 0 0 0];

internalField   nonuniform List<scalar> 
2450
(
1.65168e-05
1.46229e-05
1.24627e-05
1.09967e-05
1.0113e-05
1.03856e-05
1.50087e-05
0.000157225
0.000388836
0.000463669
0.000493428
0.000507453
0.000511084
0.000508407
0.000506115
0.000504371
0.000502973
0.000501985
0.000501284
0.000500777
0.000500403
0.000500123
0.000499909
0.000499744
0.000499616
0.000499514
0.000499434
0.000499369
0.000499317
0.000499274
0.00049924
0.000499211
0.000499188
0.000499169
0.000499154
0.000499141
0.000499131
0.000499123
0.000499117
0.000499112
0.000499108
0.000499105
0.000499103
0.000499102
0.000499101
0.0004991
0.0004991
0.0004991
0.0004991
0.0004991
0.0004991
0.000499101
0.000499101
0.000499101
0.000499101
0.000499102
0.000499102
0.000499102
0.000499102
0.000499102
0.000499102
0.000499101
0.000499101
0.000499099
0.000499095
0.000499089
0.000499079
0.000499066
0.000499053
0.000499039
1.427e-05
1.31714e-05
1.17063e-05
1.05663e-05
9.94549e-06
1.08295e-05
1.99765e-05
0.00021919
0.00039307
0.000472088
0.000497972
0.000510192
0.000511594
0.000508686
0.000506309
0.000504503
0.000503079
0.000502072
0.000501356
0.000500837
0.000500452
0.000500164
0.000499943
0.000499773
0.000499641
0.000499536
0.000499453
0.000499386
0.000499332
0.000499288
0.000499252
0.000499223
0.000499199
0.000499179
0.000499163
0.00049915
0.00049914
0.000499131
0.000499125
0.00049912
0.000499116
0.000499113
0.000499111
0.000499109
0.000499108
0.000499107
0.000499107
0.000499107
0.000499107
0.000499107
0.000499107
0.000499108
0.000499108
0.000499108
0.000499108
0.000499108
0.000499109
0.000499109
0.000499109
0.000499109
0.000499108
0.000499108
0.000499107
0.000499105
0.000499101
0.000499094
0.000499082
0.000499067
0.000499051
0.000499036
1.20224e-05
1.15634e-05
1.07372e-05
1.00373e-05
9.64345e-06
1.13092e-05
3.55543e-05
0.000256448
0.000423565
0.000483798
0.000502721
0.000512694
0.000511316
0.000508478
0.000506275
0.000504359
0.000502985
0.000502017
0.000501325
0.00050082
0.000500445
0.000500162
0.000499946
0.000499779
0.000499648
0.000499544
0.000499462
0.000499396
0.000499343
0.000499299
0.000499264
0.000499235
0.000499211
0.000499192
0.000499176
0.000499163
0.000499153
0.000499145
0.000499138
0.000499133
0.000499129
0.000499126
0.000499124
0.000499123
0.000499122
0.000499121
0.000499121
0.000499121
0.000499121
0.000499121
0.000499121
0.000499121
0.000499122
0.000499122
0.000499122
0.000499122
0.000499122
0.000499122
0.000499122
0.000499122
0.000499122
0.000499121
0.000499121
0.000499119
0.000499114
0.000499106
0.000499092
0.000499073
0.000499052
0.000499035
1.05459e-05
1.04557e-05
1.00727e-05
9.55252e-06
1.01468e-05
1.45761e-05
0.00011281
0.000357712
0.000450009
0.000493251
0.000507871
0.000513673
0.000510852
0.000508023
0.000505854
0.00050407
0.000502798
0.000501895
0.000501245
0.000500767
0.00050041
0.000500139
0.000499931
0.00049977
0.000499644
0.000499544
0.000499464
0.0004994
0.000499348
0.000499306
0.000499271
0.000499243
0.00049922
0.000499201
0.000499186
0.000499174
0.000499164
0.000499156
0.000499149
0.000499144
0.00049914
0.000499138
0.000499136
0.000499134
0.000499133
0.000499132
0.000499132
0.000499132
0.000499132
0.000499132
0.000499132
0.000499132
0.000499132
0.000499133
0.000499133
0.000499133
0.000499133
0.000499133
0.000499133
0.000499132
0.000499132
0.000499132
0.000499131
0.000499129
0.000499124
0.000499115
0.0004991
0.000499078
0.000499054
0.000499035
9.55888e-06
9.50574e-06
9.63815e-06
1.00996e-05
1.25568e-05
4.38572e-05
0.000276689
0.000425906
0.000480156
0.000502469
0.000513171
0.000513
0.000510034
0.000507375
0.000505322
0.000503707
0.000502558
0.000501735
0.000501136
0.000500692
0.000500357
0.000500102
0.000499905
0.000499752
0.000499631
0.000499536
0.000499459
0.000499397
0.000499347
0.000499307
0.000499273
0.000499246
0.000499224
0.000499206
0.000499191
0.000499179
0.000499169
0.000499161
0.000499155
0.000499151
0.000499147
0.000499144
0.000499142
0.000499141
0.00049914
0.000499139
0.000499139
0.000499138
0.000499138
0.000499138
0.000499138
0.000499139
0.000499139
0.000499139
0.000499139
0.000499139
0.000499138
0.000499138
0.000499138
0.000499138
0.000499138
0.000499137
0.000499136
0.000499134
0.000499129
0.00049912
0.000499103
0.00049908
0.000499055
0.000499035
9.26794e-06
9.22414e-06
1.01667e-05
1.43969e-05
3.85725e-05
0.000216659
0.000400194
0.000471518
0.000496512
0.000511222
0.000514902
0.000511984
0.000509052
0.000506675
0.000504716
0.0005033
0.000502287
0.000501551
0.000501009
0.000500602
0.000500293
0.000500055
0.000499871
0.000499727
0.000499612
0.000499522
0.000499449
0.00049939
0.000499342
0.000499303
0.000499271
0.000499245
0.000499224
0.000499206
0.000499192
0.00049918
0.000499171
0.000499164
0.000499158
0.000499153
0.00049915
0.000499147
0.000499145
0.000499144
0.000499143
0.000499142
0.000499141
0.000499141
0.000499141
0.000499141
0.000499141
0.000499141
0.000499141
0.000499141
0.000499141
0.00049914
0.00049914
0.00049914
0.00049914
0.000499139
0.000499139
0.000499138
0.000499137
0.000499135
0.00049913
0.00049912
0.000499104
0.00049908
0.000499054
0.000499034
1.4409e-05
1.71772e-05
2.86786e-05
0.000107901
0.000271208
0.000400483
0.000470031
0.000497577
0.00051002
0.000515738
0.000513783
0.000510637
0.000508027
0.00050576
0.000504087
0.00050288
0.000502002
0.000501355
0.00050087
0.000500502
0.00050022
0.000500001
0.00049983
0.000499696
0.000499589
0.000499504
0.000499435
0.000499379
0.000499334
0.000499297
0.000499266
0.000499241
0.000499221
0.000499204
0.000499191
0.00049918
0.000499171
0.000499164
0.000499158
0.000499154
0.00049915
0.000499148
0.000499146
0.000499144
0.000499143
0.000499143
0.000499142
0.000499142
0.000499142
0.000499142
0.000499141
0.000499141
0.000499141
0.000499141
0.000499141
0.00049914
0.00049914
0.000499139
0.000499139
0.000499139
0.000499138
0.000499137
0.000499136
0.000499134
0.000499129
0.000499119
0.000499102
0.000499078
0.000499052
0.000499032
0.000129914
0.00017559
0.000263001
0.000366787
0.000424994
0.000474416
0.000498921
0.000510574
0.000517036
0.000515154
0.000511985
0.000509052
0.000506741
0.000504861
0.00050348
0.000502468
0.000501718
0.000501154
0.000500726
0.000500397
0.000500142
0.000499943
0.000499786
0.000499662
0.000499563
0.000499483
0.000499419
0.000499366
0.000499324
0.000499289
0.00049926
0.000499236
0.000499217
0.000499201
0.000499188
0.000499178
0.00049917
0.000499163
0.000499157
0.000499153
0.00049915
0.000499147
0.000499146
0.000499144
0.000499143
0.000499142
0.000499142
0.000499142
0.000499141
0.000499141
0.000499141
0.00049914
0.00049914
0.00049914
0.000499139
0.000499139
0.000499138
0.000499138
0.000499137
0.000499137
0.000499136
0.000499135
0.000499134
0.000499131
0.000499126
0.000499116
0.000499099
0.000499075
0.000499049
0.000499029
0.00040397
0.000414843
0.000440273
0.000465728
0.000486106
0.000502017
0.0005121
0.000518502
0.000515967
0.000512792
0.000509921
0.000507546
0.000505548
0.00050404
0.000502919
0.000502079
0.000501443
0.000500957
0.000500583
0.000500291
0.000500063
0.000499883
0.00049974
0.000499627
0.000499535
0.000499461
0.000499401
0.000499352
0.000499312
0.00049928
0.000499253
0.000499231
0.000499212
0.000499198
0.000499185
0.000499176
0.000499168
0.000499161
0.000499156
0.000499152
0.000499149
0.000499147
0.000499145
0.000499144
0.000499143
0.000499142
0.000499141
0.000499141
0.00049914
0.00049914
0.000499139
0.000499139
0.000499139
0.000499138
0.000499137
0.000499137
0.000499136
0.000499135
0.000499135
0.000499134
0.000499133
0.000499132
0.000499131
0.000499128
0.000499123
0.000499113
0.000499096
0.000499072
0.000499046
0.000499025
0.000478845
0.000485135
0.000492018
0.000499509
0.000506061
0.000514628
0.000517845
0.000515762
0.000513049
0.000510349
0.000508068
0.000506064
0.000504504
0.000503318
0.000502414
0.000501721
0.000501186
0.00050077
0.000500444
0.000500187
0.000499984
0.000499823
0.000499694
0.00049959
0.000499506
0.000499438
0.000499383
0.000499338
0.000499301
0.00049927
0.000499245
0.000499224
0.000499207
0.000499193
0.000499182
0.000499173
0.000499165
0.000499159
0.000499155
0.000499151
0.000499148
0.000499146
0.000499144
0.000499143
0.000499142
0.000499141
0.00049914
0.00049914
0.000499139
0.000499139
0.000499138
0.000499137
0.000499137
0.000499136
0.000499135
0.000499134
0.000499134
0.000499133
0.000499132
0.000499131
0.00049913
0.000499129
0.000499127
0.000499124
0.000499119
0.000499109
0.000499092
0.000499068
0.000499041
0.000499021
0.000499385
0.000504153
0.000508829
0.000514056
0.00051716
0.000516767
0.000514955
0.000512734
0.000510332
0.000508243
0.000506347
0.000504821
0.000503626
0.000502696
0.000501968
0.000501398
0.000500949
0.000500594
0.000500312
0.000500087
0.000499908
0.000499764
0.000499648
0.000499554
0.000499478
0.000499415
0.000499365
0.000499323
0.000499288
0.00049926
0.000499237
0.000499218
0.000499202
0.000499189
0.000499179
0.00049917
0.000499163
0.000499158
0.000499153
0.00049915
0.000499147
0.000499145
0.000499143
0.000499142
0.000499141
0.00049914
0.000499139
0.000499139
0.000499138
0.000499137
0.000499136
0.000499136
0.000499135
0.000499134
0.000499133
0.000499132
0.000499131
0.00049913
0.000499129
0.000499128
0.000499126
0.000499125
0.000499123
0.00049912
0.000499115
0.000499105
0.000499087
0.000499063
0.000499037
0.000499017
0.000513285
0.000515527
0.000516427
0.000516042
0.000514891
0.000513452
0.000511766
0.000509831
0.000508056
0.000506368
0.000504957
0.000503815
0.000502899
0.000502166
0.000501579
0.00050111
0.000500734
0.000500432
0.000500189
0.000499993
0.000499835
0.000499707
0.000499603
0.000499518
0.000499449
0.000499393
0.000499346
0.000499308
0.000499276
0.00049925
0.000499229
0.000499211
0.000499197
0.000499185
0.000499175
0.000499167
0.000499161
0.000499156
0.000499152
0.000499148
0.000499146
0.000499144
0.000499142
0.000499141
0.00049914
0.000499139
0.000499138
0.000499137
0.000499137
0.000499136
0.000499135
0.000499134
0.000499133
0.000499132
0.00049913
0.000499129
0.000499128
0.000499127
0.000499125
0.000499124
0.000499123
0.000499121
0.000499119
0.000499116
0.00049911
0.0004991
0.000499083
0.000499059
0.000499032
0.000499012
0.000513094
0.000513393
0.000513221
0.000512714
0.000511717
0.000510428
0.000509084
0.000507546
0.000506134
0.000504903
0.000503867
0.000503007
0.000502298
0.000501718
0.000501243
0.000500856
0.000500541
0.000500285
0.000500076
0.000499905
0.000499767
0.000499653
0.00049956
0.000499484
0.000499422
0.00049937
0.000499328
0.000499293
0.000499264
0.00049924
0.000499221
0.000499204
0.000499191
0.00049918
0.000499171
0.000499164
0.000499158
0.000499154
0.00049915
0.000499147
0.000499145
0.000499143
0.000499141
0.00049914
0.000499139
0.000499138
0.000499137
0.000499136
0.000499135
0.000499134
0.000499133
0.000499132
0.000499131
0.000499129
0.000499128
0.000499126
0.000499125
0.000499123
0.000499122
0.00049912
0.000499119
0.000499117
0.000499115
0.000499111
0.000499106
0.000499095
0.000499078
0.000499054
0.000499027
0.000499007
0.000510365
0.000510712
0.000510435
0.00050979
0.000509027
0.000507932
0.000506793
0.000505685
0.000504674
0.000503783
0.000503013
0.000502357
0.000501804
0.000501341
0.000500955
0.000500635
0.000500371
0.000500152
0.000499973
0.000499825
0.000499703
0.000499603
0.00049952
0.000499452
0.000499395
0.000499349
0.00049931
0.000499279
0.000499252
0.000499231
0.000499213
0.000499198
0.000499186
0.000499176
0.000499168
0.000499161
0.000499156
0.000499152
0.000499148
0.000499146
0.000499143
0.000499142
0.00049914
0.000499139
0.000499138
0.000499137
0.000499136
0.000499135
0.000499134
0.000499133
0.000499131
0.00049913
0.000499128
0.000499127
0.000499125
0.000499123
0.000499122
0.00049912
0.000499118
0.000499116
0.000499114
0.000499113
0.00049911
0.000499107
0.000499101
0.00049909
0.000499073
0.000499049
0.000499022
0.000499002
0.000507878
0.000508249
0.000507955
0.000507393
0.000506688
0.000505899
0.00050509
0.000504306
0.000503578
0.000502921
0.00050234
0.000501833
0.000501397
0.000501024
0.000500709
0.000500443
0.000500221
0.000500035
0.00049988
0.000499751
0.000499644
0.000499556
0.000499482
0.000499421
0.00049937
0.000499328
0.000499294
0.000499265
0.000499241
0.000499221
0.000499205
0.000499191
0.00049918
0.000499171
0.000499164
0.000499158
0.000499153
0.00049915
0.000499147
0.000499144
0.000499142
0.000499141
0.000499139
0.000499138
0.000499137
0.000499136
0.000499135
0.000499133
0.000499132
0.000499131
0.000499129
0.000499128
0.000499126
0.000499124
0.000499122
0.00049912
0.000499118
0.000499116
0.000499114
0.000499112
0.00049911
0.000499108
0.000499106
0.000499102
0.000499096
0.000499085
0.000499068
0.000499043
0.000499017
0.000498997
0.000505907
0.000506079
0.000505868
0.000505471
0.000504973
0.00050442
0.000503847
0.000503283
0.000502747
0.000502253
0.000501806
0.000501409
0.000501061
0.000500759
0.000500499
0.000500278
0.00050009
0.000499931
0.000499797
0.000499685
0.000499591
0.000499513
0.000499447
0.000499393
0.000499347
0.000499309
0.000499278
0.000499251
0.00049923
0.000499212
0.000499197
0.000499185
0.000499175
0.000499167
0.00049916
0.000499155
0.000499151
0.000499148
0.000499145
0.000499143
0.000499141
0.00049914
0.000499138
0.000499137
0.000499136
0.000499135
0.000499133
0.000499132
0.000499131
0.000499129
0.000499127
0.000499126
0.000499124
0.000499122
0.00049912
0.000499117
0.000499115
0.000499113
0.00049911
0.000499108
0.000499106
0.000499104
0.000499101
0.000499097
0.000499091
0.00049908
0.000499063
0.000499038
0.000499012
0.000498992
0.00050436
0.000504504
0.000504364
0.000504089
0.000503738
0.000503344
0.000502929
0.000502512
0.000502109
0.00050173
0.000501381
0.000501065
0.000500784
0.000500537
0.000500322
0.000500136
0.000499976
0.000499839
0.000499723
0.000499625
0.000499543
0.000499473
0.000499415
0.000499366
0.000499325
0.000499291
0.000499263
0.000499239
0.000499219
0.000499203
0.00049919
0.000499179
0.00049917
0.000499163
0.000499157
0.000499152
0.000499149
0.000499146
0.000499143
0.000499141
0.00049914
0.000499138
0.000499137
0.000499136
0.000499135
0.000499134
0.000499132
0.000499131
0.000499129
0.000499127
0.000499126
0.000499124
0.000499121
0.000499119
0.000499117
0.000499114
0.000499112
0.000499109
0.000499107
0.000499104
0.000499102
0.000499099
0.000499096
0.000499092
0.000499086
0.000499075
0.000499057
0.000499033
0.000499006
0.000498986
0.000503252
0.000503377
0.000503284
0.00050309
0.000502837
0.000502548
0.000502238
0.000501923
0.000501613
0.000501316
0.000501039
0.000500785
0.000500556
0.000500352
0.000500171
0.000500014
0.000499877
0.000499759
0.000499658
0.000499573
0.0004995
0.000499438
0.000499386
0.000499342
0.000499305
0.000499274
0.000499249
0.000499227
0.000499209
0.000499195
0.000499183
0.000499173
0.000499165
0.000499159
0.000499154
0.00049915
0.000499146
0.000499144
0.000499142
0.00049914
0.000499139
0.000499137
0.000499136
0.000499135
0.000499134
0.000499132
0.000499131
0.000499129
0.000499128
0.000499126
0.000499124
0.000499121
0.000499119
0.000499116
0.000499114
0.000499111
0.000499108
0.000499105
0.000499103
0.0004991
0.000499097
0.000499095
0.000499091
0.000499087
0.000499081
0.00049907
0.000499052
0.000499027
0.000499001
0.000498981
0.000502449
0.000502558
0.000502495
0.000502353
0.000502166
0.000501948
0.000501711
0.000501467
0.000501223
0.000500987
0.000500764
0.000500557
0.000500367
0.000500196
0.000500044
0.00049991
0.000499792
0.00049969
0.000499601
0.000499526
0.000499461
0.000499406
0.000499359
0.00049932
0.000499286
0.000499259
0.000499235
0.000499216
0.0004992
0.000499187
0.000499176
0.000499168
0.000499161
0.000499155
0.000499151
0.000499147
0.000499144
0.000499142
0.00049914
0.000499139
0.000499137
0.000499136
0.000499135
0.000499134
0.000499133
0.000499131
0.00049913
0.000499128
0.000499126
0.000499124
0.000499122
0.000499119
0.000499117
0.000499114
0.000499111
0.000499108
0.000499105
0.000499102
0.000499099
0.000499096
0.000499093
0.00049909
0.000499087
0.000499082
0.000499076
0.000499065
0.000499047
0.000499022
0.000498996
0.000498975
0.000501855
0.000501949
0.000501906
0.0005018
0.000501657
0.000501489
0.000501304
0.00050111
0.000500915
0.000500724
0.000500541
0.00050037
0.000500211
0.000500067
0.000499937
0.000499821
0.000499719
0.000499629
0.000499551
0.000499484
0.000499426
0.000499377
0.000499335
0.0004993
0.00049927
0.000499244
0.000499223
0.000499206
0.000499192
0.00049918
0.00049917
0.000499163
0.000499156
0.000499151
0.000499148
0.000499144
0.000499142
0.00049914
0.000499139
0.000499137
0.000499136
0.000499135
0.000499134
0.000499133
0.000499132
0.00049913
0.000499129
0.000499127
0.000499125
0.000499122
0.00049912
0.000499117
0.000499114
0.000499111
0.000499108
0.000499105
0.000499102
0.000499098
0.000499095
0.000499092
0.000499089
0.000499085
0.000499082
0.000499077
0.000499071
0.000499059
0.000499041
0.000499017
0.00049899
0.00049897
0.000501406
0.000501488
0.000501458
0.000501377
0.000501266
0.000501133
0.000500985
0.000500828
0.000500669
0.000500512
0.00050036
0.000500216
0.000500081
0.000499958
0.000499846
0.000499745
0.000499656
0.000499577
0.000499508
0.000499448
0.000499396
0.000499352
0.000499314
0.000499281
0.000499254
0.000499232
0.000499212
0.000499197
0.000499184
0.000499173
0.000499165
0.000499158
0.000499152
0.000499148
0.000499145
0.000499142
0.00049914
0.000499139
0.000499137
0.000499136
0.000499135
0.000499134
0.000499133
0.000499132
0.000499131
0.000499129
0.000499127
0.000499125
0.000499123
0.000499121
0.000499118
0.000499115
0.000499112
0.000499109
0.000499105
0.000499102
0.000499098
0.000499095
0.000499091
0.000499088
0.000499084
0.000499081
0.000499077
0.000499073
0.000499066
0.000499054
0.000499036
0.000499012
0.000498985
0.000498965
0.000501061
0.000501133
0.000501112
0.00050105
0.000500961
0.000500853
0.000500733
0.000500604
0.000500472
0.00050034
0.000500212
0.000500089
0.000499974
0.000499867
0.000499769
0.000499681
0.000499602
0.000499531
0.00049947
0.000499416
0.000499369
0.000499329
0.000499295
0.000499265
0.000499241
0.00049922
0.000499203
0.000499188
0.000499177
0.000499167
0.000499159
0.000499153
0.000499149
0.000499145
0.000499142
0.00049914
0.000499138
0.000499137
0.000499136
0.000499135
0.000499134
0.000499133
0.000499132
0.000499131
0.00049913
0.000499128
0.000499126
0.000499124
0.000499122
0.000499119
0.000499116
0.000499113
0.00049911
0.000499106
0.000499103
0.000499099
0.000499095
0.000499091
0.000499088
0.000499084
0.00049908
0.000499077
0.000499073
0.000499068
0.000499061
0.00049905
0.000499031
0.000499007
0.00049898
0.00049896
0.000500793
0.000500857
0.000500843
0.000500793
0.000500721
0.000500632
0.000500532
0.000500424
0.000500312
0.0005002
0.00050009
0.000499984
0.000499884
0.00049979
0.000499704
0.000499626
0.000499555
0.000499492
0.000499437
0.000499388
0.000499346
0.000499309
0.000499278
0.000499251
0.000499228
0.000499209
0.000499193
0.00049918
0.00049917
0.000499161
0.000499155
0.000499149
0.000499145
0.000499142
0.000499139
0.000499138
0.000499136
0.000499135
0.000499135
0.000499134
0.000499133
0.000499132
0.000499131
0.00049913
0.000499129
0.000499127
0.000499125
0.000499123
0.00049912
0.000499118
0.000499114
0.000499111
0.000499108
0.000499104
0.0004991
0.000499096
0.000499092
0.000499088
0.000499084
0.00049908
0.000499077
0.000499073
0.000499069
0.000499064
0.000499056
0.000499045
0.000499027
0.000499002
0.000498976
0.000498955
0.000500583
0.000500639
0.00050063
0.00050059
0.00050053
0.000500456
0.000500371
0.000500279
0.000500183
0.000500086
0.00049999
0.000499898
0.000499809
0.000499726
0.00049965
0.000499579
0.000499516
0.000499459
0.000499408
0.000499364
0.000499325
0.000499291
0.000499263
0.000499238
0.000499217
0.0004992
0.000499185
0.000499174
0.000499164
0.000499156
0.00049915
0.000499145
0.000499142
0.000499139
0.000499137
0.000499136
0.000499135
0.000499134
0.000499133
0.000499133
0.000499132
0.000499131
0.00049913
0.000499129
0.000499128
0.000499126
0.000499124
0.000499122
0.000499119
0.000499116
0.000499113
0.000499109
0.000499106
0.000499102
0.000499098
0.000499093
0.000499089
0.000499085
0.000499081
0.000499077
0.000499073
0.000499069
0.000499065
0.000499059
0.000499052
0.00049904
0.000499022
0.000498997
0.000498971
0.000498951
0.000500416
0.000500467
0.000500461
0.000500428
0.000500378
0.000500315
0.000500241
0.000500161
0.000500078
0.000499992
0.000499908
0.000499826
0.000499747
0.000499673
0.000499604
0.00049954
0.000499482
0.00049943
0.000499384
0.000499343
0.000499307
0.000499276
0.000499249
0.000499227
0.000499207
0.000499191
0.000499178
0.000499167
0.000499159
0.000499152
0.000499146
0.000499142
0.000499139
0.000499137
0.000499135
0.000499134
0.000499133
0.000499132
0.000499132
0.000499132
0.000499131
0.00049913
0.000499129
0.000499128
0.000499127
0.000499125
0.000499123
0.00049912
0.000499118
0.000499115
0.000499111
0.000499108
0.000499104
0.000499099
0.000499095
0.000499091
0.000499086
0.000499082
0.000499078
0.000499073
0.000499069
0.000499065
0.000499061
0.000499055
0.000499048
0.000499036
0.000499018
0.000498993
0.000498967
0.000498947
0.000500283
0.000500329
0.000500326
0.000500299
0.000500256
0.000500201
0.000500136
0.000500066
0.000499992
0.000499916
0.00049984
0.000499766
0.000499695
0.000499628
0.000499565
0.000499507
0.000499453
0.000499406
0.000499363
0.000499325
0.000499291
0.000499263
0.000499238
0.000499217
0.000499199
0.000499184
0.000499172
0.000499162
0.000499154
0.000499147
0.000499142
0.000499139
0.000499136
0.000499134
0.000499133
0.000499132
0.000499131
0.000499131
0.000499131
0.00049913
0.00049913
0.000499129
0.000499128
0.000499127
0.000499126
0.000499124
0.000499122
0.000499119
0.000499116
0.000499113
0.00049911
0.000499106
0.000499102
0.000499097
0.000499093
0.000499088
0.000499084
0.000499079
0.000499075
0.00049907
0.000499066
0.000499062
0.000499057
0.000499052
0.000499044
0.000499032
0.000499014
0.000498989
0.000498962
0.000498943
0.000500176
0.000500219
0.000500218
0.000500195
0.000500157
0.000500109
0.000500051
0.000499988
0.000499921
0.000499853
0.000499784
0.000499717
0.000499652
0.00049959
0.000499532
0.000499478
0.000499429
0.000499384
0.000499344
0.000499309
0.000499278
0.000499251
0.000499227
0.000499208
0.000499191
0.000499177
0.000499166
0.000499156
0.000499149
0.000499143
0.000499139
0.000499136
0.000499133
0.000499132
0.000499131
0.00049913
0.00049913
0.00049913
0.000499129
0.000499129
0.000499129
0.000499128
0.000499127
0.000499126
0.000499125
0.000499123
0.000499121
0.000499118
0.000499115
0.000499112
0.000499108
0.000499104
0.0004991
0.000499095
0.000499091
0.000499086
0.000499081
0.000499076
0.000499072
0.000499067
0.000499062
0.000499058
0.000499053
0.000499048
0.00049904
0.000499028
0.00049901
0.000498985
0.000498958
0.000498939
0.000500091
0.00050013
0.000500131
0.000500111
0.000500078
0.000500034
0.000499982
0.000499925
0.000499864
0.000499801
0.000499738
0.000499676
0.000499616
0.000499558
0.000499504
0.000499454
0.000499408
0.000499366
0.000499328
0.000499295
0.000499266
0.00049924
0.000499218
0.000499199
0.000499184
0.000499171
0.00049916
0.000499151
0.000499144
0.000499139
0.000499135
0.000499132
0.00049913
0.000499129
0.000499128
0.000499128
0.000499128
0.000499128
0.000499128
0.000499127
0.000499127
0.000499127
0.000499126
0.000499125
0.000499123
0.000499121
0.000499119
0.000499116
0.000499113
0.00049911
0.000499106
0.000499102
0.000499097
0.000499093
0.000499088
0.000499083
0.000499078
0.000499073
0.000499068
0.000499064
0.000499059
0.000499054
0.00049905
0.000499044
0.000499036
0.000499024
0.000499006
0.000498981
0.000498954
0.000498934
0.000500022
0.000500058
0.00050006
0.000500043
0.000500013
0.000499973
0.000499925
0.000499872
0.000499816
0.000499758
0.000499699
0.000499641
0.000499585
0.000499531
0.00049948
0.000499433
0.000499389
0.000499349
0.000499314
0.000499282
0.000499254
0.00049923
0.000499209
0.000499191
0.000499176
0.000499164
0.000499153
0.000499145
0.000499139
0.000499134
0.000499131
0.000499128
0.000499126
0.000499125
0.000499125
0.000499125
0.000499124
0.000499125
0.000499125
0.000499125
0.000499124
0.000499124
0.000499123
0.000499122
0.00049912
0.000499118
0.000499116
0.000499113
0.00049911
0.000499107
0.000499103
0.000499098
0.000499094
0.000499089
0.000499084
0.000499079
0.000499074
0.000499069
0.000499064
0.000499059
0.000499054
0.00049905
0.000499045
0.000499039
0.000499031
0.000499019
0.000499001
0.000498976
0.000498949
0.000498929
0.000499965
0.000499999
0.000500001
0.000499986
0.000499959
0.000499922
0.000499877
0.000499828
0.000499775
0.00049972
0.000499665
0.00049961
0.000499557
0.000499506
0.000499457
0.000499412
0.00049937
0.000499333
0.000499298
0.000499268
0.000499241
0.000499218
0.000499198
0.000499181
0.000499166
0.000499155
0.000499145
0.000499137
0.000499131
0.000499127
0.000499124
0.000499121
0.00049912
0.000499119
0.000499119
0.000499119
0.000499119
0.000499119
0.000499119
0.000499119
0.000499119
0.000499118
0.000499118
0.000499117
0.000499115
0.000499113
0.000499111
0.000499108
0.000499105
0.000499101
0.000499097
0.000499093
0.000499088
0.000499083
0.000499078
0.000499073
0.000499068
0.000499062
0.000499057
0.000499052
0.000499047
0.000499043
0.000499038
0.000499032
0.000499024
0.000499012
0.000498993
0.000498968
0.000498942
0.000498922
0.000499917
0.000499949
0.000499951
0.000499937
0.000499911
0.000499876
0.000499834
0.000499787
0.000499737
0.000499685
0.000499632
0.00049958
0.000499529
0.00049948
0.000499433
0.00049939
0.00049935
0.000499313
0.00049928
0.000499251
0.000499225
0.000499203
0.000499183
0.000499167
0.000499153
0.000499142
0.000499132
0.000499125
0.00049912
0.000499115
0.000499112
0.00049911
0.000499109
0.000499108
0.000499108
0.000499108
0.000499108
0.000499109
0.000499109
0.000499109
0.000499109
0.000499108
0.000499108
0.000499106
0.000499105
0.000499103
0.000499101
0.000499098
0.000499094
0.000499091
0.000499087
0.000499082
0.000499077
0.000499072
0.000499067
0.000499062
0.000499057
0.000499051
0.000499046
0.000499041
0.000499036
0.000499031
0.000499026
0.000499021
0.000499013
0.000499
0.000498982
0.000498956
0.00049893
0.00049891
0.000499876
0.000499905
0.000499905
0.000499891
0.000499866
0.000499832
0.000499792
0.000499747
0.000499699
0.000499649
0.000499598
0.000499547
0.000499498
0.000499451
0.000499406
0.000499364
0.000499325
0.000499289
0.000499257
0.000499228
0.000499203
0.000499181
0.000499163
0.000499147
0.000499133
0.000499122
0.000499113
0.000499106
0.000499101
0.000499097
0.000499094
0.000499092
0.000499091
0.000499091
0.00049909
0.000499091
0.000499091
0.000499091
0.000499092
0.000499092
0.000499092
0.000499091
0.000499091
0.00049909
0.000499088
0.000499086
0.000499084
0.000499081
0.000499077
0.000499074
0.000499069
0.000499065
0.00049906
0.000499055
0.00049905
0.000499045
0.000499039
0.000499034
0.000499029
0.000499024
0.000499019
0.000499014
0.000499009
0.000499003
0.000498995
0.000498982
0.000498964
0.000498938
0.000498912
0.000498892
0.000499839
0.000499865
0.000499861
0.000499845
0.00049982
0.000499787
0.000499748
0.000499704
0.000499657
0.000499609
0.00049956
0.000499511
0.000499463
0.000499417
0.000499373
0.000499332
0.000499294
0.000499259
0.000499228
0.0004992
0.000499175
0.000499154
0.000499135
0.00049912
0.000499107
0.000499096
0.000499088
0.000499081
0.000499076
0.000499072
0.000499069
0.000499068
0.000499067
0.000499066
0.000499066
0.000499067
0.000499067
0.000499067
0.000499068
0.000499068
0.000499068
0.000499068
0.000499067
0.000499066
0.000499064
0.000499062
0.00049906
0.000499057
0.000499054
0.00049905
0.000499046
0.000499041
0.000499037
0.000499032
0.000499026
0.000499021
0.000499016
0.00049901
0.000499005
0.000499
0.000498995
0.00049899
0.000498985
0.000498979
0.000498971
0.000498958
0.000498939
0.000498915
0.000498888
0.000498869
0.0004998
0.000499822
0.000499815
0.000499797
0.000499771
0.000499738
0.0004997
0.000499658
0.000499613
0.000499566
0.000499518
0.00049947
0.000499424
0.000499379
0.000499337
0.000499297
0.00049926
0.000499226
0.000499196
0.000499169
0.000499145
0.000499124
0.000499106
0.000499091
0.000499079
0.000499068
0.00049906
0.000499054
0.000499049
0.000499046
0.000499043
0.000499042
0.000499041
0.000499041
0.000499041
0.000499041
0.000499042
0.000499042
0.000499043
0.000499043
0.000499043
0.000499043
0.000499042
0.000499041
0.00049904
0.000499038
0.000499036
0.000499033
0.000499029
0.000499026
0.000499021
0.000499017
0.000499012
0.000499007
0.000499002
0.000498997
0.000498991
0.000498986
0.00049898
0.000498975
0.00049897
0.000498965
0.00049896
0.000498954
0.000498946
0.000498934
0.000498915
0.00049889
0.000498865
0.000498846
0.000499718
0.00049974
0.000499731
0.000499713
0.000499688
0.000499658
0.000499623
0.000499584
0.000499542
0.000499499
0.000499455
0.000499412
0.000499369
0.000499328
0.000499289
0.000499253
0.000499219
0.000499188
0.000499161
0.000499136
0.000499115
0.000499096
0.00049908
0.000499067
0.000499056
0.000499047
0.00049904
0.000499034
0.00049903
0.000499028
0.000499026
0.000499025
0.000499025
0.000499025
0.000499026
0.000499027
0.000499027
0.000499028
0.000499029
0.000499029
0.00049903
0.00049903
0.000499029
0.000499028
0.000499027
0.000499025
0.000499023
0.00049902
0.000499016
0.000499013
0.000499009
0.000499004
0.000498999
0.000498994
0.000498989
0.000498984
0.000498978
0.000498973
0.000498968
0.000498962
0.000498957
0.000498952
0.000498947
0.000498941
0.000498933
0.000498921
0.000498902
0.000498877
0.000498853
0.000498835
)
;
