/*--------------------------------*- C++ -*----------------------------------*\
| =========                 |                                                 |
| \\      /  F ield         | OpenFOAM: The Open Source CFD Toolbox           |
|  \\    /   O peration     | Version:  v1606+                                |
|   \\  /    A nd           | Web:      www.OpenFOAM.com                      |
|    \\/     M anipulation  |                                                 |
\*---------------------------------------------------------------------------*/
FoamFile
{
    version     2.0;
    format      ascii;
    class       volScalarField;
    location    "0.25";
    object      alpha.water;
}
// * * * * * * * * * * * * * * * * * * * * * * * * * * * * * * * * * * * * * //

dimensions      [0 0 0 0 0 0 0];

internalField   nonuniform List<scalar> 
3072
(
2.56936e-20
2.88068e-22
1.10867e-20
3.58801e-19
4.68041e-18
3.49178e-17
1.74008e-16
6.35213e-16
1.8152e-15
4.29475e-15
8.88848e-15
1.69034e-14
1.96121e-18
5.54484e-17
4.79892e-16
2.25028e-15
7.28482e-15
1.84245e-14
3.92554e-14
7.43394e-14
1.29886e-13
2.14698e-13
3.41161e-13
5.22885e-13
3.08271e-16
3.92442e-15
1.81894e-14
5.38372e-14
1.25797e-13
2.55574e-13
4.72842e-13
8.16415e-13
1.34136e-12
2.1207e-12
3.20437e-12
4.62265e-12
3.78151e-15
3.40912e-14
1.29272e-13
3.41145e-13
7.46287e-13
1.45936e-12
2.619e-12
4.20219e-12
5.59783e-12
5.76066e-12
4.72373e-12
4.40853e-12
1.50653e-14
1.12289e-13
3.63823e-13
8.02575e-13
1.43347e-12
2.27179e-12
3.34705e-12
4.71194e-12
6.72367e-12
1.06664e-11
1.81339e-11
0.0250803
3.55224e-14
2.34217e-13
7.13704e-13
1.50201e-12
2.56351e-12
3.7573e-12
4.69091e-12
5.05801e-12
5.092e-12
2.93708e-11
0.344382
0.780098
7.39589e-14
3.93213e-13
1.1598e-12
2.42436e-12
4.29492e-12
7.26092e-12
1.23997e-11
2.23804e-11
0.0437374
0.599947
0.994826
1
1.76136e-13
6.2477e-13
1.69871e-12
3.42529e-12
5.91158e-12
9.94041e-12
1.7762e-11
3.40864e-11
0.247828
0.989169
1
1
2.5234e-12
1.16201e-12
2.56044e-12
4.76698e-12
7.53469e-12
1.1543e-11
1.68248e-11
1.48041e-11
0.36017
0.98757
1
1
9.48267e-12
4.07412e-12
5.31965e-12
7.94537e-12
1.06307e-11
1.4315e-11
1.69435e-11
1.48581e-11
0.116095
0.65806
0.914738
0.939459
1.71252e-10
2.11414e-11
1.41319e-11
1.69821e-11
1.86755e-11
2.07403e-11
2.0982e-11
1.94222e-11
3.66257e-11
0.0400226
0.0909645
0.216589
1.07216e-11
1.07216e-11
5.0329e-11
5.0299e-11
4.31497e-11
4.12312e-11
3.81613e-11
3.4267e-11
2.96875e-11
0.00288482
6.01422e-11
6.3294e-11
3.05287e-14
5.33055e-14
9.106e-14
1.11463e-13
9.79626e-14
6.91374e-14
4.04617e-14
1.9182e-14
7.02579e-15
1.54493e-15
9.97583e-17
6.69036e-20
7.74539e-13
1.11709e-12
1.40659e-12
1.38237e-12
1.07264e-12
7.14499e-13
3.9599e-13
1.811e-13
6.84295e-14
1.72681e-14
1.58634e-15
2.81388e-18
6.3602e-12
8.32668e-12
8.9562e-12
8.21085e-12
6.29313e-12
3.80677e-12
2.01525e-12
8.83179e-13
3.33589e-13
9.20135e-14
1.1109e-14
4.8257e-17
2.74336e-11
3.14644e-11
3.16439e-11
2.97141e-11
2.63138e-11
1.37807e-11
7.23594e-12
3.13966e-12
1.16846e-12
3.43654e-13
5.14666e-14
4.90081e-16
0.131414
0.171396
0.152049
0.0827669
0.0137011
3.56941e-11
1.98007e-11
9.63396e-12
3.37018e-12
1.04356e-12
1.85729e-13
3.50351e-15
0.905797
0.927603
0.909028
0.814967
0.576438
0.187834
4.22022e-11
2.86073e-11
8.79683e-12
2.77788e-12
5.73256e-13
1.96818e-14
1
1
1
1
1
0.921374
0.308845
0.00220495
2.32756e-11
6.76276e-12
1.60939e-12
9.50786e-14
1
1
1
1
1
1
0.95174
0.213565
3.16813e-11
1.39107e-11
4.11675e-12
4.30288e-13
1
1
0.911884
0.740456
0.735206
0.872926
0.931423
0.532368
0.0102715
2.23619e-11
8.2914e-12
1.33435e-12
0.887911
0.721483
0.427868
0.207045
0.0996654
0.110877
0.370007
0.434811
0.0782452
2.87886e-11
1.3634e-11
3.43986e-12
0.1742
0.0899419
0.118509
0.224067
0.135982
0.00183083
7.84251e-12
0.00114839
0.0549428
0.0168446
2.06122e-11
5.68254e-12
6.57924e-11
0.0324577
0.358259
0.494102
0.494587
0.126661
1.73479e-11
4.88298e-12
0.000225933
0.00319264
0.00160882
2.27919e-11
8.52621e-35
1.32209e-36
2.47431e-34
1.378e-32
3.69802e-31
5.8657e-30
6.18506e-29
4.72226e-28
2.80532e-27
1.38482e-26
6.0256e-26
2.41375e-25
7.40288e-32
6.11595e-30
1.49014e-28
1.84144e-27
1.44121e-26
8.07956e-26
3.52918e-25
1.28225e-24
4.08468e-24
1.18687e-23
3.22582e-23
8.33403e-23
5.94944e-29
2.62564e-27
3.73544e-26
2.95722e-25
1.62847e-24
7.02292e-24
2.54088e-23
8.03896e-23
2.28517e-22
5.95509e-22
1.44806e-21
3.33432e-21
2.39776e-27
8.46118e-26
1.03235e-24
7.34914e-24
3.74097e-23
1.50993e-22
5.14223e-22
1.54201e-21
4.20594e-21
1.07054e-20
2.58745e-20
5.98413e-20
2.1351e-26
7.60374e-25
9.31332e-24
6.66453e-23
3.44563e-22
1.43437e-21
5.10257e-21
1.60352e-20
4.53951e-20
1.17337e-19
2.80045e-19
6.25359e-19
6.3377e-26
2.70359e-24
3.78302e-23
3.02424e-22
1.71657e-21
7.71335e-21
2.92081e-20
9.69197e-20
2.89029e-19
7.86773e-19
1.97253e-18
4.58729e-18
6.63293e-26
4.11018e-24
7.25652e-23
6.92551e-22
4.57809e-21
2.35492e-20
1.00156e-19
3.64728e-19
1.16759e-18
3.37102e-18
8.98886e-18
2.24441e-17
2.05314e-26
2.44602e-24
6.10559e-23
7.38173e-22
5.92508e-21
3.61033e-20
1.79222e-19
7.56118e-19
2.78952e-18
9.18854e-18
2.77057e-17
8.10258e-17
2.95537e-27
7.55444e-25
2.42866e-23
3.52037e-22
3.41629e-21
2.4029e-20
1.33431e-19
6.21748e-19
2.60657e-18
1.10286e-17
5.92834e-17
2.46374e-16
1.3713e-27
2.30553e-25
9.41792e-24
1.56594e-22
1.65223e-21
1.22752e-20
6.98913e-20
3.27604e-19
1.7e-18
1.78853e-17
1.99828e-16
6.64488e-16
1.91034e-27
6.69162e-26
3.49197e-24
6.58903e-23
7.39182e-22
5.64391e-21
3.19346e-20
1.74073e-19
2.58939e-18
6.80359e-17
7.24877e-16
1.85849e-15
7.18472e-28
1.79418e-26
1.16739e-24
2.50798e-23
2.96236e-22
2.28693e-21
1.47263e-20
2.89213e-19
1.54461e-17
6.61203e-16
3.00343e-15
5.29157e-15
9.13442e-25
3.30257e-24
1.15079e-23
1.64726e-23
1.26047e-23
6.28729e-24
2.19769e-24
5.3989e-25
8.80848e-26
7.19184e-27
1.37577e-28
2.09623e-32
2.06726e-22
4.97586e-22
8.12771e-22
7.61438e-22
4.63317e-22
2.00133e-22
6.41236e-23
1.52053e-23
2.55937e-24
2.39944e-25
6.46838e-27
2.50273e-30
7.3599e-21
1.4856e-20
1.79048e-20
1.3856e-20
7.36005e-21
2.88586e-21
8.67633e-22
1.99443e-22
3.41719e-23
3.5623e-24
1.2886e-25
1.21247e-28
1.33343e-19
2.13606e-19
2.20685e-19
1.53261e-19
7.52131e-20
2.78059e-20
8.0522e-21
1.81607e-21
3.15403e-22
3.57263e-23
1.65561e-24
3.50536e-27
1.3528e-18
1.91833e-18
1.81501e-18
1.19428e-18
5.68706e-19
2.06179e-19
5.94406e-20
1.34327e-20
2.37392e-21
2.87334e-22
1.63366e-23
7.22029e-26
8.99689e-18
1.18816e-17
1.07147e-17
6.95189e-18
3.3572e-18
1.24381e-18
3.72113e-19
8.71837e-20
1.59539e-20
2.0527e-21
1.38201e-22
1.18485e-24
4.24868e-17
5.38118e-17
4.73989e-17
3.11688e-17
1.5833e-17
6.2402e-18
2.03105e-18
5.17774e-19
1.01667e-19
1.40772e-20
1.09712e-21
1.70932e-23
1.52055e-16
1.86606e-16
1.62751e-16
1.10291e-16
6.04752e-17
2.68286e-17
9.60485e-18
2.70748e-18
5.86754e-19
9.07123e-20
8.52147e-21
2.43148e-22
4.40923e-16
5.16548e-16
4.57084e-16
3.22925e-16
1.87993e-16
9.0324e-17
3.55815e-17
1.11848e-17
2.72272e-18
4.76411e-19
5.30338e-20
2.29039e-21
1.10899e-15
1.25125e-15
1.09537e-15
7.86263e-16
4.76125e-16
2.43776e-16
1.04634e-16
3.66207e-17
1.01218e-17
2.03648e-18
2.80793e-19
1.86571e-20
2.67975e-15
2.77734e-15
2.32285e-15
1.6454e-15
1.0109e-15
5.39805e-16
2.48231e-16
9.58234e-17
3.06545e-17
8.08872e-18
1.56402e-18
1.66063e-19
6.19852e-15
5.67012e-15
4.39576e-15
2.99393e-15
1.8229e-15
9.93463e-16
4.80212e-16
2.03063e-16
7.54581e-17
2.32764e-17
5.65694e-18
8.7586e-19
2.79861e-44
6.58159e-46
3.12904e-43
3.68112e-41
1.95975e-39
5.96672e-38
1.18714e-36
1.69639e-35
1.87726e-34
1.70892e-33
1.33765e-32
9.26971e-32
4.59734e-41
8.79415e-39
4.67781e-37
1.19982e-35
1.87193e-34
2.02429e-33
1.65719e-32
1.09619e-31
6.15225e-31
3.03901e-30
1.35909e-29
5.65368e-29
4.23393e-38
4.50915e-36
1.47799e-34
2.55867e-33
2.90601e-32
2.43305e-31
1.61795e-30
9.01187e-30
4.37642e-29
1.91263e-28
7.73445e-28
2.95565e-27
1.49344e-36
1.33506e-34
3.79815e-33
5.86511e-32
6.1094e-31
4.82345e-30
3.10544e-29
1.71479e-28
8.42208e-28
3.77877e-27
1.57969e-26
6.25357e-26
8.59402e-36
8.20419e-34
2.46817e-32
4.03989e-31
4.48928e-30
3.80223e-29
2.63036e-28
1.55532e-27
8.11983e-27
3.84014e-26
1.68192e-25
6.97594e-25
1.32891e-35
1.63116e-33
5.86474e-32
1.11286e-30
1.41605e-29
1.36495e-28
1.06885e-27
7.10559e-27
4.13911e-26
2.1697e-25
1.0497e-24
4.81294e-24
5.09034e-36
1.0104e-33
4.93099e-32
1.1833e-30
1.84411e-29
2.13391e-28
1.97463e-27
1.5313e-26
1.03153e-25
6.23632e-25
3.49755e-24
1.88577e-23
4.53936e-37
1.94711e-34
1.40043e-32
4.31134e-31
8.22461e-30
1.14133e-28
1.25595e-27
1.16047e-26
9.46337e-26
7.15631e-25
5.28593e-24
4.05511e-23
1.75081e-38
1.92393e-35
1.93087e-33
7.19841e-32
1.63558e-30
2.52145e-29
2.85843e-28
2.46985e-27
1.67002e-26
9.1485e-26
4.83953e-25
6.74571e-23
2.20228e-39
1.73478e-36
2.47824e-34
1.09241e-32
2.73111e-31
4.40853e-30
4.96019e-29
3.93896e-28
2.16749e-27
8.69313e-27
4.67069e-24
3.45922e-22
8.22751e-40
1.32055e-37
2.77669e-35
1.47482e-33
4.08383e-32
6.86818e-31
7.5414e-30
5.30861e-29
2.19511e-28
3.20615e-26
3.75556e-23
1.68412e-21
5.45616e-41
7.79597e-39
2.39425e-36
1.64825e-34
5.19977e-33
9.14119e-32
9.61587e-31
5.71411e-30
3.49616e-29
8.23988e-25
2.57596e-22
7.91701e-21
5.84094e-31
3.43506e-30
1.93766e-29
4.02716e-29
3.3602e-29
1.43159e-29
3.67754e-30
5.9832e-31
6.03388e-32
2.86e-33
2.98018e-35
2.23411e-39
2.23709e-28
8.61686e-28
2.32406e-27
3.17443e-27
2.10377e-27
7.72055e-28
1.81606e-28
2.85987e-29
2.99402e-30
1.64283e-31
2.42897e-33
4.6676e-37
1.08685e-26
3.72003e-26
8.07625e-26
9.46462e-26
5.52762e-26
1.83966e-26
4.06402e-27
6.23162e-28
6.69616e-29
4.13508e-30
8.31566e-32
3.95214e-35
2.39186e-25
7.39547e-25
1.5345e-24
1.69339e-24
9.27158e-25
2.91584e-25
6.20876e-26
9.36938e-27
1.02701e-27
6.96552e-29
1.82214e-30
1.99048e-33
2.82662e-24
8.97051e-24
1.93815e-23
2.13687e-23
1.1545e-23
3.57933e-24
7.58793e-25
1.1483e-25
1.28471e-26
9.37743e-28
3.05158e-29
7.1153e-32
2.06661e-23
7.36998e-23
1.76508e-22
2.03209e-22
1.13445e-22
3.62846e-23
7.98343e-24
1.25108e-24
1.44811e-25
1.12587e-26
4.3796e-28
2.02196e-30
9.85287e-23
4.38524e-22
1.21797e-21
1.50933e-21
9.05768e-22
3.13046e-22
7.5094e-23
1.27765e-23
1.57936e-24
1.31575e-25
5.93792e-27
5.059e-29
3.42499e-22
2.08987e-21
6.69154e-21
9.02414e-21
6.00287e-21
2.3745e-21
6.33408e-22
1.18973e-22
1.60976e-23
1.48225e-24
8.02032e-26
1.25779e-27
1.34356e-21
9.53011e-21
3.07925e-20
4.62078e-20
3.43868e-20
1.50773e-20
4.43452e-21
9.1854e-22
1.37113e-22
1.39776e-23
8.8059e-25
2.0856e-26
5.78091e-21
3.93029e-20
1.31644e-19
2.17147e-19
1.77368e-19
8.42705e-20
2.67991e-20
6.04532e-21
9.95549e-22
1.1243e-22
8.47946e-24
3.01985e-25
2.40759e-20
1.57673e-19
5.45747e-19
9.83361e-19
8.70609e-19
4.37532e-19
1.46557e-19
3.5291e-20
6.52312e-21
9.79138e-22
1.06355e-22
6.21219e-24
9.86577e-20
6.27882e-19
2.25549e-18
4.46001e-18
4.28626e-18
2.23017e-18
7.6442e-19
1.95104e-19
4.31356e-20
7.84644e-21
1.11691e-21
9.91222e-23
1
1
1
1
1
1
1
1
1
1
1
1
1
1
1
1
1
1
1
1
1
1
1
1
1
1
1
1
1
1
1
1
1
1
1
1
1
1
1
1
1
1
1
1
1
1
1
1
1
1
1
1
1
1
1
1
1
1
1
1
1
1
1
1
1
1
1
1
1
1
0.997402
0.985692
1
1
1
1
1
1
1
1
0.987836
0.699347
0.449548
0.366364
1
1
1
1
1
1
1
0.76568
0.16563
0.00451899
2.09014e-12
2.03322e-12
1
1
1
1
1
1
0.881547
0.150307
4.23912e-11
2.87708e-11
1.46377e-11
2.41923e-11
1
1
1
1
1
1
0.489427
0.000525053
5.51705e-11
4.08406e-11
5.45253e-11
6.02555e-11
1
1
1
1
1
1
0.602696
0.0166471
4.46155e-11
5.66136e-11
6.84968e-11
7.46307e-11
1
1
1
1
1
1
0.913133
0.212795
5.83361e-11
7.33038e-11
8.28359e-11
8.69211e-11
1
1
1
1
1
1
1
1
1
1
1
1
1
1
1
1
1
1
1
1
1
1
1
1
1
1
1
1
1
1
1
1
1
1
1
1
1
1
1
1
1
1
1
1
1
1
1
1
1
1
1
1
1
1
1
1
1
1
1
1
0.98994
0.999641
1
1
1
1
1
1
1
1
1
1
0.408686
0.554976
0.784257
0.970319
1
1
1
1
1
1
1
1
2.09014e-12
3.06653e-12
0.0445463
0.313085
0.847716
1
1
1
1
1
1
1
2.42719e-11
1.21695e-11
1.83859e-12
1.91945e-12
0.0766284
0.758743
1
1
1
1
1
1
6.07337e-11
5.66291e-11
4.01659e-11
2.91966e-11
2.59287e-11
0.0540592
0.790924
1
1
1
1
1
7.66467e-11
7.48908e-11
5.23418e-11
4.2736e-11
4.05795e-11
4.05807e-11
0.243031
0.944713
1
1
1
1
9.00061e-11
8.96632e-11
0.0430063
0.120534
0.111767
0.0173285
0.0749752
0.77943
1
1
1
1
0.782676
0.161977
6.03657e-11
5.20824e-11
7.25453e-11
6.93453e-11
3.99963e-11
2.2621e-11
3.39045e-11
4.64333e-11
5.91229e-11
0.0172926
1
0.914872
0.535175
0.0325867
1.72822e-11
1.42923e-11
1.39549e-11
2.91651e-11
0.0345786
0.0772529
0.166353
0.448286
1
1
1
0.892046
0.514897
0.0347657
0.0334518
0.120063
0.283224
0.711117
0.726007
0.705458
1
1
1
1
1
0.912041
0.872145
0.722665
0.497111
0.30641
0.148222
1.26887e-11
0.141415
0.467038
0.494102
0.492347
0.35215
0.0654864
1.79115e-11
6.3017e-12
7.98442e-12
0.000482267
0.000721677
0.000102499
0.513744
0.500124
0.377016
0.0834866
1.01633e-11
3.61853e-13
5.16274e-12
8.70581e-12
1.44961e-11
2.27129e-11
3.62182e-11
1.56102e-05
0.522759
0.108691
9.59248e-12
6.60837e-14
1.05871e-13
3.23537e-13
9.91454e-13
2.27549e-12
5.24194e-12
1.02776e-11
2.01818e-11
3.30985e-08
2.26606e-15
2.26496e-15
2.03158e-14
6.64239e-14
1.42077e-13
2.1605e-13
2.46926e-13
6.13763e-13
1.73374e-12
4.36621e-12
1.05662e-11
2.07177e-11
1.22751e-11
3.85862e-12
1.09344e-12
2.77786e-13
7.55295e-14
2.29469e-14
7.91605e-15
3.18611e-15
1.95676e-15
6.68768e-15
1.20108e-14
1.41065e-14
2.18787e-06
1.55384e-11
5.76829e-12
1.91684e-12
6.46468e-13
2.388e-13
1.00999e-13
5.02572e-14
3.97737e-14
4.10972e-14
3.80676e-14
3.11525e-14
4.18729e-07
3.32447e-08
1.58732e-11
5.83479e-12
2.17843e-12
8.52774e-13
4.01056e-13
2.36947e-13
1.62995e-13
1.11404e-13
7.34158e-14
4.66615e-14
1.27902e-08
6.74492e-09
4.99779e-11
1.00023e-11
3.79714e-12
1.45255e-12
7.35803e-13
4.12584e-13
2.25046e-13
1.22878e-13
6.70643e-14
3.58068e-14
1.30437e-14
1.02923e-14
7.24464e-15
4.6521e-15
2.75429e-15
1.50414e-15
7.51619e-16
3.41127e-16
1.36699e-16
4.73873e-17
1.38027e-17
3.38539e-18
2.28709e-14
1.54712e-14
9.79257e-15
5.84468e-15
3.30694e-15
1.78172e-15
9.06721e-16
4.23175e-16
1.78984e-16
6.80439e-17
2.29496e-17
6.95952e-18
2.83697e-14
1.65723e-14
9.31522e-15
5.08518e-15
2.72309e-15
1.43124e-15
7.22741e-16
3.45841e-16
1.54803e-16
6.43548e-17
2.45259e-17
8.59422e-18
1.83367e-14
9.12286e-15
4.52521e-15
2.25473e-15
1.13514e-15
5.79464e-16
2.97451e-16
1.551e-16
7.79995e-17
3.72127e-17
1.62104e-17
6.5934e-18
8.47184e-19
1.43401e-19
1.70155e-20
1.90914e-21
2.40151e-22
3.4979e-23
5.88255e-24
1.14602e-24
2.72846e-25
9.02777e-24
1.5181e-21
3.58876e-20
2.16011e-18
5.88321e-19
1.32471e-19
2.54945e-20
4.65476e-21
8.8548e-22
1.85331e-22
4.41361e-23
1.57013e-23
5.49106e-23
7.73589e-21
1.5669e-19
2.9755e-18
9.67803e-19
2.86055e-19
7.62203e-20
1.88793e-20
4.60465e-21
1.17712e-21
3.42187e-22
1.20968e-22
2.10297e-22
3.51572e-20
6.39026e-19
2.51989e-18
9.1136e-19
3.08883e-19
9.78899e-20
2.94344e-20
8.71055e-21
2.66796e-21
8.37158e-22
2.6762e-22
5.35464e-22
1.41523e-19
2.65828e-18
3.9944e-19
2.509e-18
9.45972e-18
2.08626e-17
2.23227e-17
1.18289e-17
4.03839e-18
1.13292e-18
2.75157e-19
5.73805e-20
1.00457e-20
7.02918e-23
1.60824e-18
1.01125e-17
4.10638e-17
1.03203e-16
1.30378e-16
6.97754e-17
2.39516e-17
7.2083e-18
1.89275e-18
4.37396e-19
8.91225e-20
1.63651e-20
6.49627e-18
4.2958e-17
1.94686e-16
5.73858e-16
9.06568e-16
5.00361e-16
1.79354e-16
5.65299e-17
1.58522e-17
4.00168e-18
9.30988e-19
3.36747e-19
2.78236e-17
2.00207e-16
1.00428e-15
3.50135e-15
7.58283e-15
5.37834e-15
1.95941e-15
6.67712e-16
2.1439e-16
6.27711e-17
1.71406e-17
5.83627e-18
0.0837691
0.471729
0.984095
1
1
1
1
0.811433
0.287691
0.223415
0.0942114
0.0234758
1.29503e-11
2.8754e-11
0.123442
0.339474
0.759821
1
0.999394
0.962348
0.950385
0.872164
0.424895
0.48991
3.93983e-12
1.35454e-11
1.98748e-11
2.03363e-11
0.0559398
0.244226
0.300268
0.228602
0.226382
0.227367
0.490631
0.916038
1.28332e-12
5.20684e-12
8.14645e-12
8.02257e-12
1.1221e-11
0.0804491
0.216801
0.400381
0.587192
0.848959
1
1
0.0851584
0.279038
0.573248
0.827255
0.858253
0.737099
0.495277
0.606213
0.979005
1
1
1
0.709582
0.965472
1
1
1
1
1
0.993213
0.984311
0.983796
0.99877
1
1
1
1
1
1
1
1
1
0.996584
0.995313
0.998393
1
1
1
1
1
1
1
1
1
1
1
0.999857
0.999962
1
1
1
0.983971
0.746126
0.206989
5.47878e-20
8.97825e-20
5.16472e-20
8.92999e-20
5.14867e-20
6.64869e-15
1
1
1
0.921082
0.344763
2.67872e-11
1.42133e-11
6.28052e-12
2.18053e-12
6.28149e-13
1.3951e-13
1.91898e-14
1
1
1
0.93607
0.25639
2.3843e-11
1.23859e-11
5.00669e-12
1.529e-12
3.61185e-13
6.38554e-14
7.72439e-15
1
1
1
0.867257
0.155703
1.9235e-11
9.11587e-12
3.24919e-12
8.58683e-13
1.69949e-13
2.43763e-14
2.41482e-15
2.2789e-15
1.58877e-14
6.97667e-14
2.1182e-13
4.80387e-13
8.47572e-13
1.21279e-12
1.57594e-12
2.51215e-12
4.93749e-12
1.05063e-11
1.72728e-11
1.34936e-15
2.63409e-15
1.62152e-14
6.50115e-14
1.91113e-13
4.34241e-13
7.88686e-13
1.2022e-12
1.7542e-12
2.85183e-12
5.16727e-12
8.24795e-12
5.03808e-16
2.63373e-16
2.24706e-15
1.21664e-14
4.76271e-14
1.43075e-13
3.37813e-13
6.22215e-13
9.38015e-13
1.33438e-12
1.90172e-12
2.77657e-12
1.33545e-16
1.76949e-17
2.05459e-16
1.51402e-15
8.00529e-15
3.24326e-14
1.0354e-13
2.37009e-13
3.98362e-13
5.61175e-13
6.56798e-13
8.29278e-13
1.60794e-11
4.60216e-10
5.22612e-12
1.77976e-12
5.93563e-13
1.73179e-13
7.73425e-15
9.05569e-16
1.23163e-16
1.06166e-17
2.32235e-19
2.67624e-22
6.4715e-12
2.47921e-11
1.04278e-12
3.25105e-13
8.43297e-14
9.80105e-15
1.08701e-15
1.40058e-16
1.5075e-17
9.97036e-19
2.36481e-20
3.99053e-24
1.62965e-12
1.34267e-12
2.11221e-13
5.77357e-14
9.94375e-15
1.14974e-15
1.40225e-16
1.53958e-17
1.32793e-18
7.57368e-20
2.12886e-21
1.07407e-23
3.93459e-13
1.66006e-13
4.38368e-14
9.1372e-15
1.16683e-15
1.33894e-16
1.43904e-17
1.31328e-18
9.30559e-20
4.59825e-21
1.37772e-22
1.96103e-24
2.51518e-21
1.9051e-20
1.19535e-19
6.16391e-19
2.5024e-18
7.8052e-18
2.24564e-17
2.01948e-17
1.26396e-17
7.36353e-18
3.23006e-18
1.55553e-18
4.95016e-23
5.03658e-22
4.03832e-21
2.58144e-20
1.30184e-19
5.19076e-19
1.89927e-18
2.48313e-18
1.92643e-18
1.32267e-18
6.07435e-19
3.28217e-19
7.09497e-25
1.03943e-23
1.13879e-22
9.66389e-22
6.42466e-21
3.41352e-20
1.62685e-19
2.83436e-19
2.69226e-19
2.1505e-19
1.04087e-19
6.15259e-20
8.33319e-27
1.80374e-25
2.7676e-24
3.1912e-23
2.88146e-22
2.09816e-21
1.28956e-20
2.92004e-20
3.35989e-20
3.10498e-20
1.56673e-20
9.94925e-21
5.09976e-19
1.6327e-19
4.64957e-20
1.23787e-20
2.88857e-21
5.04252e-22
8.20741e-24
4.10982e-25
4.66626e-26
1.23756e-21
6.07706e-19
1.23589e-17
9.41074e-20
2.6984e-20
6.31611e-21
1.26799e-21
1.73823e-22
9.30637e-24
4.26499e-25
2.52053e-26
2.32768e-27
6.93523e-23
5.78987e-20
2.66655e-18
1.52312e-20
3.79887e-21
6.67234e-22
9.16245e-23
7.33826e-24
3.7238e-25
2.12132e-26
1.1494e-27
5.37226e-29
3.48588e-25
6.45937e-22
1.47536e-19
2.06602e-21
4.17986e-22
5.65497e-23
5.44333e-24
3.00354e-25
1.61482e-26
8.6038e-28
4.11241e-29
1.60605e-30
7.66816e-29
5.05457e-25
1.77233e-21
1.28699e-16
9.63618e-16
5.38181e-15
2.25874e-14
7.12526e-14
1.67905e-13
2.97878e-13
4.37868e-13
5.42277e-13
5.50986e-13
6.70908e-13
1.19891e-12
4.26106e-17
4.25255e-16
3.11251e-15
1.72531e-14
7.35257e-14
2.40575e-13
5.98416e-13
1.1976e-12
1.96171e-12
2.55996e-12
2.81819e-12
2.41588e-12
4.73951e-18
6.67855e-17
6.68754e-16
5.03793e-15
2.92941e-14
1.32331e-13
4.62168e-13
1.24573e-12
2.68906e-12
4.70863e-12
6.85671e-12
6.71437e-12
2.54908e-19
5.21828e-18
7.3274e-17
7.59164e-16
6.07203e-15
3.81785e-14
1.8693e-13
6.69231e-13
1.85354e-12
4.13176e-12
7.59428e-12
1.16877e-11
3.85675e-12
9.16472e-12
1.81301e-11
0.0647608
0.741407
1
1
1
1
1
1
1
3.95261e-12
1.12795e-11
0.0145917
0.479607
0.983389
1
1
1
1
1
1
1
1.47162e-12
1.38036e-12
0.21367
0.894844
1
1
1
1
1
1
1
1
3.62112e-19
0.00913728
0.592139
0.996942
1
1
1
1
1
1
1
1
1
1
1
1
1
1
1
1
1
1
1
0.999997
1
1
1
1
1
1
1
1
1
1
1
1
1
1
1
1
1
1
1
1
1
1
1
1
1
1
1
1
1
1
1
1
1
1
1
1
1
1
1
0.639213
0.0382768
1.4989e-11
6.19838e-12
1.89803e-12
4.33703e-13
7.31664e-14
8.5582e-15
5.98458e-16
1
1
0.981283
0.312395
2.19892e-05
9.99693e-12
3.66529e-12
1.01475e-12
2.07834e-13
3.05975e-14
2.9659e-15
1.42455e-16
1
1
0.734582
0.0704193
1.54996e-11
6.63107e-12
2.15947e-12
5.34504e-13
9.83256e-14
1.28046e-14
1.05527e-15
3.96009e-17
1
0.979337
0.342514
0.00101697
1.16791e-11
4.11191e-12
1.22987e-12
2.81124e-13
4.71491e-14
5.4896e-15
3.91749e-16
1.20189e-17
1
0.788319
0.0968505
1.58357e-11
7.30129e-12
2.62146e-12
7.26332e-13
1.52239e-13
2.32922e-14
2.44143e-15
1.53175e-16
3.95739e-18
1
0.512171
0.0114372
1.23917e-11
5.18235e-12
1.69947e-12
4.34711e-13
8.38641e-14
1.17209e-14
1.11069e-15
6.19867e-17
1.38211e-18
0.951125
0.308458
1.8969e-11
9.21776e-12
3.64302e-12
1.12754e-12
2.66727e-13
4.715e-14
6.01309e-15
5.17312e-16
2.59578e-17
5.09897e-19
0.867121
0.175366
1.53416e-11
7.1928e-12
2.64458e-12
7.47477e-13
1.60576e-13
2.5776e-14
2.98803e-15
2.3348e-16
1.05891e-17
1.85497e-19
0.772404
0.0920399
1.28485e-11
5.62303e-12
1.85938e-12
4.66868e-13
8.91142e-14
1.27732e-14
1.32906e-15
9.34566e-17
3.80624e-18
5.92593e-20
0.658103
0.0364319
1.06824e-11
4.09677e-12
1.13668e-12
2.38986e-13
3.86674e-14
4.76466e-15
4.30453e-16
2.63732e-17
9.32173e-19
1.24183e-20
0.558301
0.0133744
8.66859e-12
2.46299e-12
4.87333e-13
7.50706e-14
9.18728e-15
8.71183e-16
6.07576e-17
2.85929e-18
7.67102e-20
7.57096e-22
0.404254
0.000137567
6.34155e-12
4.05008e-13
3.80423e-14
3.05264e-15
1.86148e-16
8.42495e-18
2.73231e-19
5.89891e-21
7.142e-23
3.05507e-25
2.98818e-20
8.53022e-19
1.33481e-17
1.3327e-16
9.52949e-16
5.25647e-15
2.32386e-14
6.73083e-14
1.31044e-13
1.99131e-13
2.10515e-13
2.471e-13
6.38761e-22
2.98423e-20
6.42622e-19
8.62563e-18
8.28914e-17
6.21659e-16
3.82883e-15
1.4214e-14
3.26571e-14
5.59844e-14
5.53502e-14
6.49948e-14
1.16868e-23
8.12907e-22
2.36344e-20
4.20929e-19
5.37805e-18
5.42992e-17
4.61833e-16
2.21515e-15
6.05687e-15
1.20351e-14
1.10746e-14
1.32027e-14
1.83285e-25
1.76103e-23
6.74726e-22
1.56894e-20
2.62758e-19
3.5206e-18
4.06311e-17
2.52533e-16
8.23577e-16
1.93107e-15
1.63713e-15
1.95927e-15
2.419e-27
3.05358e-25
1.50517e-23
4.4881e-22
9.68983e-21
1.69218e-19
2.59215e-18
2.08537e-17
8.09976e-17
2.2654e-16
1.76062e-16
2.08689e-16
2.63717e-29
4.2168e-27
2.61235e-25
9.79496e-24
2.67606e-22
5.97523e-21
1.18674e-19
1.23068e-18
5.67692e-18
1.90506e-17
1.36052e-17
1.57798e-17
2.30619e-31
4.5405e-29
3.46113e-27
1.6015e-25
5.43652e-24
1.52145e-22
3.82185e-21
5.07932e-20
2.77674e-19
1.12163e-18
7.4184e-19
8.33031e-19
1.51936e-33
3.61526e-31
3.34005e-29
1.88085e-27
7.81729e-26
2.69195e-24
8.34362e-23
1.41291e-21
9.16039e-21
4.46567e-20
2.76198e-20
2.9781e-20
6.55485e-36
1.88457e-33
2.11143e-31
1.4467e-29
7.33063e-28
3.07047e-26
1.15171e-24
2.48221e-23
1.92054e-22
1.13412e-21
6.62213e-22
6.82205e-22
1.34144e-38
4.85408e-36
6.84511e-34
5.88654e-32
3.71589e-30
1.91553e-28
8.7337e-27
2.44274e-25
2.29422e-24
1.65224e-23
9.19735e-24
9.04168e-24
5.71915e-42
3.00104e-39
6.04191e-37
7.29091e-35
6.32909e-33
4.38935e-31
2.63612e-29
1.0527e-27
1.24835e-26
1.11821e-25
5.99584e-26
5.6473e-26
2.25655e-47
2.9399e-44
1.38164e-41
3.71136e-39
6.85082e-37
9.59595e-35
1.09259e-32
1.04036e-30
1.72956e-29
2.06498e-28
1.08043e-28
9.86669e-29
9.57211e-14
3.38816e-14
7.93416e-15
1.25407e-15
1.34899e-16
1.36759e-17
1.21751e-18
8.99251e-20
5.19133e-21
2.17786e-22
6.1194e-24
1.01747e-25
2.11578e-14
6.12011e-15
1.14948e-15
1.44118e-16
1.321e-17
1.10277e-18
7.9854e-20
4.79981e-21
2.27574e-22
7.98293e-24
1.90002e-25
2.38409e-27
3.73307e-15
8.60132e-16
1.29687e-16
1.31892e-17
1.00057e-18
6.8504e-20
4.06828e-21
2.01338e-22
7.90481e-24
2.30739e-25
4.52506e-27
4.41491e-29
4.90155e-16
9.12115e-17
1.11767e-17
9.33027e-19
5.82006e-20
3.28586e-21
1.61716e-22
6.66329e-24
2.18532e-25
5.32328e-27
8.5714e-29
6.55705e-31
4.6588e-17
7.15042e-18
7.22463e-19
5.00724e-20
2.57968e-21
1.2121e-22
4.99683e-24
1.7323e-25
4.78988e-27
9.80796e-29
1.30633e-30
7.95961e-33
3.15622e-18
4.06787e-19
3.43622e-20
2.00023e-21
8.58234e-23
3.38837e-24
1.18144e-25
3.47884e-27
8.18356e-29
1.42138e-30
1.58427e-32
7.83226e-35
1.49527e-19
1.63981e-20
1.17115e-21
5.78101e-23
2.07904e-24
6.94247e-26
2.06076e-27
5.18871e-29
1.0459e-30
1.55385e-32
1.4669e-34
5.99873e-37
4.79127e-21
4.50509e-22
2.73733e-23
1.15046e-24
3.47611e-26
9.7579e-28
2.45982e-29
5.29376e-31
9.15513e-33
1.16755e-34
9.40879e-37
3.23192e-39
9.7778e-23
7.88125e-24
4.06177e-25
1.44228e-26
3.64697e-28
8.38342e-30
1.74766e-31
3.14483e-33
4.58984e-35
4.96699e-37
3.39555e-39
9.80702e-42
1.13861e-24
7.77104e-26
3.33138e-27
9.69936e-29
1.96587e-30
3.48488e-32
5.66086e-34
8.01892e-36
9.31298e-38
8.10035e-40
4.47763e-42
1.04453e-44
6.09594e-27
3.41568e-28
1.16148e-29
2.58723e-31
3.78076e-33
4.36078e-35
4.69534e-37
4.48604e-39
3.56873e-41
2.15217e-43
8.29445e-46
1.34626e-48
8.81108e-30
3.82782e-31
9.39082e-33
1.39367e-34
1.17518e-36
4.79614e-39
1.88482e-41
6.77723e-44
2.08766e-46
4.99061e-49
7.68754e-52
4.94903e-55
7.2959e-29
2.648e-27
5.7618e-26
9.05702e-25
1.11479e-23
1.12866e-22
8.97465e-22
2.61984e-21
3.62602e-21
3.86614e-21
1.99509e-21
1.33565e-21
5.26223e-31
3.30681e-29
1.01511e-27
2.15944e-26
3.59245e-25
5.0003e-24
5.23275e-23
1.9719e-22
3.26948e-22
4.01784e-22
2.07386e-22
1.42213e-22
3.80896e-33
3.5611e-31
1.49896e-29
4.25465e-28
9.43343e-27
1.77428e-25
2.46251e-24
1.20352e-23
2.38464e-23
3.37746e-23
1.70352e-23
1.17802e-23
2.51866e-35
3.26896e-33
1.83712e-31
6.83975e-30
1.98707e-28
4.94784e-27
9.09344e-26
5.78927e-25
1.36814e-24
2.23422e-24
1.08303e-24
7.45424e-25
1.45835e-37
2.52611e-35
1.8495e-33
8.86216e-32
3.30973e-30
1.06719e-28
2.57559e-27
2.14211e-26
6.02745e-26
1.13419e-25
5.25122e-26
3.55019e-26
7.2334e-40
1.61804e-37
1.5066e-35
9.10258e-34
4.28095e-32
1.74698e-30
5.46972e-29
5.95117e-28
1.99135e-27
4.31808e-27
1.90644e-27
1.25277e-27
2.97501e-42
8.34723e-40
9.65942e-38
7.20828e-36
4.18061e-34
2.11027e-32
8.46175e-31
1.20489e-29
4.79488e-29
1.19983e-28
5.05293e-29
3.20309e-29
9.47713e-45
3.26403e-42
4.60998e-40
4.17725e-38
2.9344e-36
1.79522e-34
9.13153e-33
1.70234e-31
8.07469e-31
2.3393e-30
9.41064e-31
5.72505e-31
2.01864e-47
8.49131e-45
1.45741e-42
1.59548e-40
1.34771e-38
9.88476e-37
6.39606e-35
1.5659e-33
8.9049e-33
3.00393e-32
1.15658e-32
6.73451e-33
2.07144e-50
1.09866e-47
2.35911e-45
3.20162e-43
3.32312e-41
2.96926e-39
2.54673e-37
8.31361e-36
5.73549e-35
2.27673e-34
8.40362e-35
4.68571e-35
4.49749e-54
3.41005e-51
1.03201e-48
1.96068e-46
2.86045e-44
3.61994e-42
4.34926e-40
2.01395e-38
1.72707e-37
8.22406e-37
2.91636e-37
1.56421e-37
9.62772e-60
1.83343e-56
1.35808e-53
6.15436e-51
2.06456e-48
5.71348e-46
1.42422e-43
1.23145e-41
1.39193e-40
8.31932e-40
2.8379e-40
1.4837e-40
2.23812e-22
3.799e-23
4.07939e-24
2.94053e-25
1.48326e-26
7.45643e-28
3.45263e-29
1.38327e-30
4.50478e-32
1.10884e-33
1.92362e-35
2.98665e-36
2.06332e-23
2.83179e-24
2.47371e-25
1.45139e-26
6.62378e-28
2.87496e-29
1.12461e-30
3.77955e-32
1.03478e-33
2.16257e-35
3.15702e-37
2.47267e-39
1.54223e-24
1.70956e-25
1.23648e-26
6.1192e-28
2.42406e-29
8.97497e-31
2.97455e-32
8.45513e-34
1.95891e-35
3.46209e-37
4.205e-39
2.57102e-41
8.95828e-26
8.19562e-27
4.97978e-28
2.10324e-29
7.13502e-31
2.25352e-32
6.36784e-34
1.54333e-35
3.04644e-37
4.56465e-39
4.60676e-41
2.2301e-43
3.936e-27
3.04529e-28
1.57561e-29
5.723e-31
1.661e-32
4.49686e-34
1.09125e-35
2.27284e-37
3.85059e-39
4.92222e-41
4.15967e-43
1.622e-45
1.28185e-28
8.54873e-30
3.81047e-31
1.19896e-32
2.98812e-34
6.9749e-36
1.46333e-37
2.63775e-39
3.86328e-41
4.24614e-43
3.038e-45
9.72029e-48
3.0196e-30
1.75768e-31
6.80642e-33
1.86518e-34
4.00141e-36
8.07831e-38
1.4707e-39
2.30442e-41
2.93317e-43
2.79105e-45
1.70923e-47
4.57098e-50
4.95031e-32
2.5293e-33
8.53333e-35
2.03583e-36
3.73667e-38
6.48991e-40
1.02091e-41
1.38661e-43
1.53237e-45
1.26442e-47
6.66852e-50
1.51103e-52
5.29061e-34
2.36502e-35
6.9022e-37
1.41528e-38
2.1643e-40
3.15463e-42
4.19203e-44
4.83815e-46
4.56501e-48
3.22375e-50
1.45196e-52
2.78321e-55
3.28418e-36
1.26302e-37
3.10978e-39
5.28179e-41
6.31378e-43
7.18917e-45
7.55769e-47
6.98116e-49
5.32335e-51
3.05981e-53
1.12449e-55
1.75167e-58
9.47641e-39
3.01833e-40
5.92794e-42
7.69126e-44
6.51472e-46
4.87969e-48
3.4161e-50
2.13046e-52
1.11258e-54
4.4347e-57
1.13765e-59
1.23568e-62
7.38636e-42
1.81524e-43
2.54383e-45
2.14017e-47
9.67278e-50
2.6127e-52
6.76061e-55
1.59881e-57
3.24465e-60
5.12772e-63
5.24272e-66
2.24358e-69
7.23798e-21
2.45243e-19
4.89754e-18
6.97016e-17
7.64308e-16
6.69032e-15
4.55121e-14
2.14651e-13
7.51356e-13
2.06822e-12
4.3744e-12
7.97023e-12
1.33412e-22
7.82803e-21
2.21741e-19
4.29543e-18
6.38754e-17
7.70342e-16
7.20224e-15
4.44868e-14
1.95382e-13
6.61236e-13
1.57673e-12
1.86241e-12
2.10566e-24
1.8507e-22
7.23293e-21
1.8777e-19
3.72982e-18
6.09309e-17
7.7343e-16
6.22383e-15
3.41409e-14
1.42891e-13
3.7722e-13
4.79487e-21
2.72202e-26
3.34611e-24
1.75527e-22
5.99667e-21
1.56398e-19
3.39319e-18
5.76802e-17
6.01262e-16
4.10439e-15
2.15415e-14
5.98823e-14
5.69538e-24
2.83939e-28
4.68698e-26
3.2162e-24
1.41805e-22
4.76701e-21
1.34543e-19
3.01695e-18
4.04663e-17
3.4234e-16
2.28588e-15
6.30732e-15
3.41957e-25
2.37569e-30
5.08877e-28
4.45604e-26
2.4849e-24
1.05618e-22
3.79731e-21
1.10573e-19
1.894e-18
1.97704e-17
1.6864e-16
4.41885e-16
1.74216e-26
1.55898e-32
4.20712e-30
4.596e-28
3.17964e-26
1.677e-24
7.52589e-23
2.80355e-21
6.08638e-20
7.8147e-19
8.50539e-18
2.05999e-17
6.6555e-28
7.54496e-35
2.51323e-32
3.37007e-30
2.85104e-28
1.83843e-26
1.01248e-24
4.77252e-23
1.30555e-21
2.06201e-20
2.85924e-19
6.36435e-19
1.80903e-29
2.33755e-37
9.59081e-35
1.57726e-32
1.62981e-30
1.28105e-28
8.60283e-27
5.13609e-25
1.77079e-23
3.46178e-22
6.12334e-21
1.28328e-20
3.1533e-31
3.36364e-40
1.76345e-37
3.6799e-35
4.79029e-33
4.71476e-31
3.94495e-29
3.08988e-27
1.36656e-25
3.36523e-24
7.65569e-23
1.62134e-22
3.47764e-33
9.98204e-44
7.63535e-41
2.28729e-38
4.22875e-36
5.89912e-34
7.02814e-32
7.85499e-30
4.77275e-28
1.54132e-26
4.65999e-25
1.14171e-24
1.84439e-35
2.77526e-49
5.36907e-46
3.93816e-43
1.74488e-40
5.69163e-38
1.52814e-35
3.68839e-33
4.02907e-31
1.87867e-29
8.49469e-28
3.05239e-27
1.42033e-37
6.31518e-19
0.158623
0.866093
1
1
1
1
1
1
1
1
1
3.35117e-19
0.425434
0.98038
1
1
1
1
1
1
1
1
1
0.0240725
0.674038
1
1
1
1
1
1
1
1
1
1
0.115938
0.827145
1
1
1
1
1
1
1
1
1
1
0.223645
0.914745
1
1
1
1
1
1
1
1
1
1
0.325086
0.96128
1
1
1
1
1
1
1
1
1
1
0.415885
0.984333
1
1
1
1
1
1
1
1
1
1
0.500196
0.995423
1
1
1
1
1
1
1
1
1
1
0.575008
0.999476
1
1
1
1
1
1
1
1
1
1