/*--------------------------------*- C++ -*----------------------------------*\
| =========                 |                                                 |
| \\      /  F ield         | OpenFOAM: The Open Source CFD Toolbox           |
|  \\    /   O peration     | Version:  v1606+                                |
|   \\  /    A nd           | Web:      www.OpenFOAM.com                      |
|    \\/     M anipulation  |                                                 |
\*---------------------------------------------------------------------------*/
FoamFile
{
    version     2.0;
    format      ascii;
    class       volScalarField;
    location    "0.65";
    object      p;
}
// * * * * * * * * * * * * * * * * * * * * * * * * * * * * * * * * * * * * * //

dimensions      [1 -1 -2 0 0 0 0];

internalField   nonuniform List<scalar> 
2268
(
501.031
500.115
501.581
506.096
515.472
530.519
550.384
571.484
591.808
612.195
633.302
655.099
677.177
699.083
720.451
740.601
758.596
774.221
786.029
788.068
788.212
810.365
845.13
441.816
440.432
441.723
446.119
455.316
470.332
490.537
512.048
532.597
553.083
574.193
596.016
618.166
640.149
661.528
681.775
700.192
716.597
730.936
731.873
723.734
739.468
780.796
381.669
379.986
381.282
385.267
393.894
408.721
429.614
452.028
473.081
493.772
515.054
536.992
559.196
581.211
602.49
622.534
641.024
657.531
672.698
675.652
666.004
675.541
718.321
321.172
319.18
320.296
323.556
331.213
345.737
367.752
391.569
413.419
434.384
455.844
477.947
500.283
522.451
543.794
563.717
582.135
598.843
613.259
619.862
615.789
624.026
662.35
260.876
258.411
259.086
261.377
267.688
282.316
305.787
331.003
353.65
374.985
396.66
418.942
441.432
463.885
485.452
505.35
523.802
540.735
555.403
565.245
570.144
579.413
611.996
200.733
198.081
197.64
198.702
205.213
220.354
244.536
270.356
293.425
315.41
337.573
360.008
382.64
405.515
427.438
447.296
465.861
483.104
498.549
511.279
521.892
533.335
562.449
140.791
139.707
137.416
138.623
144.701
160.169
183.96
209.211
232.157
255.098
278.206
301.116
323.909
347.444
369.762
389.513
408.195
425.677
441.802
456.482
470.258
484.615
511.069
78.9137
76.5645
76.4679
78.5848
85.7828
101.256
123.444
147.219
170.24
194.372
218.711
242.177
265.424
289.477
312.121
331.936
350.785
368.461
385.11
401.231
417.353
434.986
463.726
816.095
746.509
849.777
1009.79
1139.11
1211.86
1306.09
1382.13
1192.97
730.656
403.782
272.365
244.856
245.988
304.761
570.06
1040.48
1287.86
1193.26
748.95
640.223
754.997
931.673
1056.88
1135.03
1252.74
1348.55
1062.5
485.439
211.015
166.952
170.123
185.178
233.479
437.544
877.757
1189.87
1138.06
671.016
546.972
665.829
846.984
964.372
1041.14
1210.51
1280.52
645.63
211.611
134.577
127.684
127.535
129.657
139.476
219.884
590.575
1055.49
1076.35
622.389
481.532
586.602
753.872
858.686
932.44
1163.52
1137.09
284.637
143.857
127.228
124.874
124.024
123.392
124.371
148.899
301.185
841.671
999.973
598.809
474.372
520.462
655.838
739.446
800.843
1046.27
886.594
190.984
130.6
125.679
124.643
123.677
122.828
123.028
131.326
185.785
547.253
901.677
579.362
466.97
465.311
552.92
600.452
646.126
870.512
598.761
166.025
127.072
125.13
124.544
123.419
122.43
122.334
125.842
149.986
306.28
784.411
548.667
448.199
415.582
447.539
439.77
473.038
694.957
551.636
155.927
126.594
124.883
124.473
123.144
122.048
121.743
123.498
133.72
184.313
647.588
501.902
419.785
366.211
341.144
287.548
318.209
529.739
529.754
151.424
126.564
124.845
124.381
122.806
121.584
121.175
122.265
126.511
136.818
498.031
24.7141
21.3586
21.5909
26.3067
31.6807
39.2796
49.1776
61.3245
79.3424
101.132
125.032
149.792
173.856
199.637
223.013
242.255
261.269
279.023
296.234
313.773
332.913
355.613
387.957
1.806
1.44544
1.42789
3.01094
4.94235
6.38509
6.97011
8.34889
12.8144
20.5434
31.3919
46.2539
64.0108
83.5431
103.717
122.754
140.853
157.123
174.175
192.882
214.084
240.783
277.173
1.31624
1.15655
1.04052
1.04335
0.983748
0.917441
0.901853
0.94529
0.987122
0.996071
1.35247
4.11365
8.70037
15.4568
24.2785
35.2729
45.6822
54.6431
64.3816
75.6716
90.1177
119.074
171.514
0.980894
0.857206
0.760905
0.789789
0.786052
0.726583
0.70744
0.756353
0.82679
0.891069
0.961562
1.01477
1.1237
1.24502
1.31128
1.37672
2.7074
4.62007
6.96034
9.92844
10.5604
17.1512
80.9842
0.759535
0.698149
0.656146
0.67654
0.655487
0.604958
0.587493
0.61749
0.674286
0.737531
0.799971
0.875227
0.967415
1.06827
1.16733
1.24801
1.31487
1.44554
1.52733
1.21808
-0.351955
-1.3659
2.36988
0.564605
0.55204
0.526805
0.51279
0.502504
0.488702
0.494404
0.525751
0.564989
0.610627
0.665672
0.729457
0.803626
0.875172
0.941893
1.01313
1.10632
1.23037
1.35162
1.41543
1.33913
1.92551
6.82634
0.37859
0.377938
0.362034
0.351349
0.34776
0.34829
0.358407
0.380183
0.411545
0.451516
0.499931
0.555604
0.621522
0.689069
0.758428
0.831497
0.908303
0.990228
1.05551
1.09923
1.24737
1.46847
0.972008
0.198708
0.196404
0.190193
0.18854
0.189309
0.19316
0.205877
0.228405
0.259058
0.294894
0.334593
0.379674
0.430305
0.486338
0.548257
0.61418
0.682482
0.75657
0.835245
0.910077
0.974368
1.03796
1.28337
0.0196662
0.0184424
0.0165129
0.0176938
0.0212784
0.0280935
0.0415384
0.0616673
0.087188
0.117599
0.152664
0.192725
0.237249
0.286881
0.3413
0.396857
0.454393
0.516744
0.586239
0.665479
0.74887
0.84237
1.01974
-0.159756
-0.160008
-0.159883
-0.157739
-0.15271
-0.144538
-0.131849
-0.114489
-0.0924925
-0.065975
-0.0355626
-0.00184275
0.0355764
0.0769474
0.121458
0.167551
0.215789
0.267768
0.324772
0.394027
0.485602
0.605884
0.79618
-0.33974
-0.339671
-0.338238
-0.335248
-0.329752
-0.321859
-0.310484
-0.29545
-0.276641
-0.254424
-0.229346
-0.201742
-0.171643
-0.13911
-0.10482
-0.0696529
-0.0324826
0.00840253
0.0530372
0.106247
0.182233
0.282499
0.430848
-0.52039
-0.520046
-0.518101
-0.514914
-0.509713
-0.502657
-0.492998
-0.480684
-0.465695
-0.448299
-0.428759
-0.407342
-0.384404
-0.360392
-0.336006
-0.311929
-0.287643
-0.261685
-0.234144
-0.20526
-0.165089
-0.115624
-0.0702527
-0.701835
-0.701283
-0.699386
-0.696537
-0.692121
-0.686297
-0.678676
-0.669284
-0.658116
-0.64537
-0.631353
-0.616512
-0.60131
-0.586333
-0.572344
-0.560172
-0.550319
-0.542968
-0.538407
-0.540793
-0.556803
-0.581876
-0.650673
-0.884002
-0.883417
-0.881844
-0.879592
-0.876226
-0.871921
-0.866488
-0.860006
-0.852559
-0.844398
-0.835915
-0.827635
-0.820144
-0.814196
-0.810772
-0.81109
-0.816559
-0.829197
-0.851322
-0.887349
-0.955151
-1.06957
-1.26557
-1.06674
-1.06626
-1.06516
-1.06365
-1.06148
-1.05882
-1.05562
-1.05203
-1.04823
-1.04453
-1.04138
-1.03937
-1.03923
-1.04188
-1.04851
-1.06076
-1.08079
-1.11172
-1.15811
-1.22591
-1.32959
-1.50163
-1.78955
-1.24985
-1.24956
-1.249
-1.24832
-1.24741
-1.24642
-1.24543
-1.24463
-1.24428
-1.24476
-1.24657
-1.25037
-1.25701
-1.26753
-1.2833
-1.30619
-1.33882
-1.38481
-1.44943
-1.54036
-1.66948
-1.86364
-2.17887
-1.43308
-1.43303
-1.43304
-1.43321
-1.43354
-1.43418
-1.43528
-1.43709
-1.43993
-1.44422
-1.4505
-1.45952
-1.47216
-1.48957
-1.51322
-1.54508
-1.5879
-1.64544
-1.7228
-1.82754
-1.97173
-2.17663
-2.48918
-1.61618
-1.61637
-1.61693
-1.61794
-1.61944
-1.62161
-1.62463
-1.62881
-1.6345
-1.64216
-1.65238
-1.6659
-1.68365
-1.70682
-1.73689
-1.77583
-1.82625
-1.89193
-1.97755
-2.08921
-2.23817
-2.44143
-2.73057
-1.79886
-1.79929
-1.80036
-1.80215
-1.80474
-1.80828
-1.81302
-1.81927
-1.82743
-1.83798
-1.85152
-1.86878
-1.89069
-1.91842
-1.95343
-1.99753
-2.05286
-2.12357
-2.21366
-2.32561
-2.47307
-2.6663
-2.92266
-1.98083
-1.98152
-1.98303
-1.98553
-1.98907
-1.99384
-2.00005
-2.00806
-2.01828
-2.0312
-2.04741
-2.06763
-2.0927
-2.1238
-2.16233
-2.21009
-2.26704
-2.33992
-2.42989
-2.54104
-2.6803
-2.85544
-3.0736
-2.16184
-2.16283
-2.16466
-2.16779
-2.17217
-2.17797
-2.18542
-2.19485
-2.20671
-2.22148
-2.23972
-2.26213
-2.28933
-2.3226
-2.3631
-2.41216
-2.47119
-2.54326
-2.63072
-2.7366
-2.86497
-3.02073
-3.20719
-2.3417
-2.34301
-2.34496
-2.34871
-2.35379
-2.36047
-2.3689
-2.37939
-2.39251
-2.40862
-2.42826
-2.45206
-2.48073
-2.5152
-2.5565
-2.60584
-2.66453
-2.73451
-2.81778
-2.91649
-3.0331
-3.17048
-3.33014
-2.52019
-2.52162
-2.52402
-2.52812
-2.53373
-2.54105
-2.55025
-2.56164
-2.57562
-2.59261
-2.61311
-2.63767
-2.66697
-2.70177
-2.74295
-2.79148
-2.84844
-2.91522
-2.99324
-3.08398
-3.18887
-3.30942
-3.44581
-2.69723
-2.69878
-2.70145
-2.70585
-2.71186
-2.71966
-2.72942
-2.74141
-2.75595
-2.77344
-2.79432
-2.81911
-2.84838
-2.88279
-2.92305
-2.96992
-3.02427
-3.08707
-3.15928
-3.24184
-3.33556
-3.44107
-3.55791
-2.87273
-2.87437
-2.87719
-2.88182
-2.8881
-2.89622
-2.90632
-2.91864
-2.93346
-2.95112
-2.97201
-2.99657
-3.02532
-3.05878
-3.09752
-3.14215
-3.19331
-3.25168
-3.31786
-3.39244
-3.47578
-3.56802
-3.66849
-3.04661
-3.04831
-3.05122
-3.05598
-3.0624
-3.07068
-3.08093
-3.09336
-3.1082
-3.12574
-3.14632
-3.17031
-3.19813
-3.23022
-3.26704
-3.30904
-3.35668
-3.41042
-3.47064
-3.53764
-3.61149
-3.69209
-3.7787
-3.21886
-3.22059
-3.22352
-3.22831
-3.23476
-3.24305
-3.25327
-3.2656
-3.28023
-3.29741
-3.31741
-3.34055
-3.36716
-3.39759
-3.4322
-3.47134
-3.51532
-3.56443
-3.61889
-3.6788
-3.74407
-3.81447
-3.88925
-3.38947
-3.39121
-3.39411
-3.39885
-3.40522
-3.41338
-3.42341
-3.43546
-3.44969
-3.46629
-3.4855
-3.50756
-3.53274
-3.56131
-3.59354
-3.62969
-3.66998
-3.71456
-3.76355
-3.81691
-3.87448
-3.93593
-4.00059
-3.55847
-3.5602
-3.56302
-3.56764
-3.57382
-3.58175
-3.59145
-3.60306
-3.61672
-3.63257
-3.6508
-3.67161
-3.6952
-3.72177
-3.75154
-3.78467
-3.82131
-3.86154
-3.90537
-3.95272
-4.00338
-4.057
-4.11294
-3.72591
-3.72762
-3.73031
-3.73475
-3.74067
-3.74826
-3.75751
-3.76856
-3.7815
-3.79646
-3.81357
-3.83299
-3.85488
-3.87937
-3.90662
-3.93676
-3.96985
-4.00592
-4.04495
-4.08682
-4.13129
-4.17801
-4.22645
-3.89186
-3.89351
-3.89606
-3.90028
-3.90587
-3.91304
-3.92175
-3.93212
-3.94423
-3.95817
-3.97406
-3.99199
-4.01209
-4.03446
-4.05921
-4.08639
-4.11607
-4.14821
-4.18278
-4.21963
-4.25854
-4.29919
-4.34112
-4.05641
-4.05798
-4.06037
-4.06433
-4.06954
-4.07622
-4.0843
-4.09392
-4.10511
-4.11795
-4.13251
-4.14889
-4.16716
-4.1874
-4.20965
-4.23397
-4.26037
-4.28881
-4.31923
-4.35148
-4.38537
-4.42063
-4.45686
-4.21967
-4.22112
-4.22335
-4.22701
-4.2318
-4.23793
-4.24534
-4.25413
-4.26433
-4.276
-4.2892
-4.30398
-4.32039
-4.33849
-4.3583
-4.37984
-4.40311
-4.42806
-4.45461
-4.48264
-4.51198
-4.54238
-4.57356
-4.38174
-4.38306
-4.38511
-4.38844
-4.39278
-4.39833
-4.40502
-4.41294
-4.42211
-4.43256
-4.44434
-4.4575
-4.47206
-4.48804
-4.50547
-4.52433
-4.54462
-4.56627
-4.58922
-4.61336
-4.63852
-4.66454
-4.69116
-4.54275
-4.5439
-4.54577
-4.54876
-4.55262
-4.55757
-4.5635
-4.57053
-4.57862
-4.58783
-4.59819
-4.60971
-4.62243
-4.63634
-4.65145
-4.66774
-4.68519
-4.70375
-4.72334
-4.74387
-4.76521
-4.78722
-4.80971
-4.70284
-4.70378
-4.70547
-4.70809
-4.71147
-4.71579
-4.72094
-4.72704
-4.73405
-4.74201
-4.75094
-4.76085
-4.77174
-4.78363
-4.7965
-4.81033
-4.82509
-4.84073
-4.8572
-4.8744
-4.89223
-4.91058
-4.92931
-4.8621
-4.86283
-4.86432
-4.86657
-4.86944
-4.87312
-4.87748
-4.88265
-4.88857
-4.89527
-4.90278
-4.91109
-4.92021
-4.93013
-4.94084
-4.95232
-4.96453
-4.97743
-4.99097
-5.00509
-5.01969
-5.03469
-5.04999
-5.02069
-5.02118
-5.02245
-5.02432
-5.02668
-5.02971
-5.03328
-5.0375
-5.04233
-5.04779
-5.05389
-5.06064
-5.06802
-5.07603
-5.08466
-5.09388
-5.10367
-5.11399
-5.1248
-5.13603
-5.14764
-5.15956
-5.17171
-5.17874
-5.17899
-5.18005
-5.18151
-5.18336
-5.18572
-5.18849
-5.19178
-5.19551
-5.19974
-5.20446
-5.20966
-5.21535
-5.2215
-5.22812
-5.23518
-5.24266
-5.25052
-5.25874
-5.26728
-5.27608
-5.28512
-5.29434
-5.33637
-5.33641
-5.33724
-5.33829
-5.3396
-5.34129
-5.34327
-5.34561
-5.34827
-5.35128
-5.35462
-5.35831
-5.36234
-5.36668
-5.37135
-5.37632
-5.38157
-5.3871
-5.39285
-5.39882
-5.40498
-5.41129
-5.41773
-5.49363
-5.49353
-5.4941
-5.49473
-5.49551
-5.49653
-5.49771
-5.49911
-5.5007
-5.5025
-5.50449
-5.50669
-5.50908
-5.51166
-5.51443
-5.51737
-5.52048
-5.52374
-5.52713
-5.53065
-5.53427
-5.53798
-5.54177
-5.6507
-5.65053
-5.65076
-5.65096
-5.65122
-5.65157
-5.65196
-5.65243
-5.65295
-5.65355
-5.65421
-5.65494
-5.65573
-5.65658
-5.65749
-5.65845
-5.65947
-5.66053
-5.66164
-5.66279
-5.66397
-5.66518
-5.66641
414.137
428.541
440.634
445.641
305.491
321.153
332.974
339.811
207.181
221.162
229.273
232.322
138.639
150.594
138.1
124.899
44.1289
76.4019
85.226
88.8701
23.5118
66.737
75.7037
78.5907
2.50905
5.15855
26.6071
50.9472
1.6047
1.61326
2.34185
5.43809
1.24108
1.44932
1.63941
1.62187
1.08785
1.3303
1.5307
1.52119
0.678123
0.892755
1.10022
1.17939
0.000355463
0.065116
0.116512
0.0651725
-0.780011
-0.883885
-1.02277
-1.32408
-1.58015
-1.86256
-2.24056
-2.84914
-2.18772
-2.54272
-3.04208
-3.74254
-2.5773
-2.94206
-3.49752
-4.17097
-2.83621
-3.18975
-3.71517
-4.26444
-3.06375
-3.35401
-3.72677
-4.0988
-3.18989
-3.39576
-3.62968
-3.87743
-3.28062
-3.43013
-3.59229
-3.76313
-3.37405
-3.49011
-3.61205
-3.73838
-3.46718
-3.56048
-3.65683
-3.75562
-3.55917
-3.63545
-3.71362
-3.79331
-3.65266
-3.71587
-3.78033
-3.84571
-3.74849
-3.8015
-3.85531
-3.90963
-3.84669
-3.89149
-3.93678
-3.98229
-3.94729
-3.98534
-4.02366
-4.062
-4.05028
-4.08271
-4.11527
-4.14773
-4.15559
-4.18332
-4.2111
-4.23873
-4.26314
-4.28693
-4.31072
-4.33436
-4.37272
-4.39318
-4.41364
-4.43397
-4.48408
-4.50169
-4.5193
-4.53682
-4.59693
-4.61204
-4.62717
-4.64224
-4.71109
-4.72396
-4.73687
-4.74974
-4.82652
-4.83738
-4.84826
-4.85913
-4.9433
-4.95232
-4.96137
-4.97041
-5.06141
-5.06878
-5.07617
-5.08356
-5.18078
-5.18664
-5.19251
-5.19841
-5.30123
-5.30567
-5.31015
-5.31465
-5.42255
-5.42567
-5.42881
-5.43199
-5.5446
-5.54644
-5.5483
-5.55019
-5.66734
-5.66794
-5.66855
-5.66918
441.461
378.88
284.479
179.485
136.031
176.177
291.462
362.788
138.708
125.742
124.96
124.05
122.205
120.777
120.335
121.102
122.84
122.71
306.414
340.078
286.134
166.441
80.2592
53.9101
35.3334
26.589
71.3892
100.423
118.46
123.193
123.216
121.562
120.178
119.817
120.546
121.603
121.994
196.891
223.789
164.936
103.971
77.7791
41.5806
-57.2081
-121.397
-69.4444
52.618
108.492
120.626
122.478
121.485
120.395
119.997
120.678
121.77
123.763
157.197
113.304
100.148
97.2497
90.7235
93.0452
103.463
88.0262
56.2904
63.5777
107.689
119.582
122.584
122.146
121.17
120.357
120.964
122.752
126.23
154.459
91.9116
94.2703
93.729
91.3746
88.4497
85.1334
76.443
61.932
67.9939
107.133
119.1
122.878
123.093
121.865
119.601
119.683
122.576
126.888
157.65
83.6587
92.5491
92.5303
91.0317
89.487
86.8921
81.7563
76.9956
84.8524
106.217
117.208
121.41
122.748
120.448
114.373
114.48
117.374
121.739
154.169
61.6321
79.3643
91.1123
92.3155
91.5528
89.9736
88.1253
88.0766
93.6741
104.1
112.653
117.999
118.952
99.4989
65.4338
78.6441
99.3712
110.472
148.631
15.9796
47.6995
94.2232
93.4344
92.5157
91.7087
91.1305
92.2893
95.8505
101.443
106.726
107.933
97.0735
70.7793
-10.1751
-12.1986
34.0235
58.353
116.975
1.80766
7.13406
49.2676
91.5466
93.1792
91.97
91.509
92.2632
94.3914
97.8978
100.112
109.002
111.634
53.0757
-70.6314
-110.277
-52.7698
-9.30909
60.289
1.33016
4.23677
24.6053
63.3016
89.2954
92.8989
90.8381
91.1191
91.883
87.0769
95.3419
83.551
69.604
20.5183
-99.3554
-129.249
-76.9599
-49.3384
6.49601
1.08793
1.52352
6.19208
19.3653
70.4927
69.7716
63.5967
63.546
90.9687
99.0443
59.815
34.568
21.6824
-6.69356
-107.897
-98.3274
-61.5341
-27.9971
9.43932
-0.238651
-0.670013
-1.63873
12.1917
37.6026
60.2782
87.614
82.8817
66.5431
39.6363
23.6127
15.9374
5.48099
-3.68579
-97.1388
-80.5876
-34.6128
5.84163
37.41
-2.2804
-2.74597
2.47042
-29.9383
-24.0053
3.72831
30.1379
22.4857
11.1575
10.3137
7.53304
5.15032
5.79018
8.03356
-39.3096
-37.3925
-0.579433
35.0166
59.3589
-4.23146
-4.60715
-5.32843
3.50535
18.4752
16.883
0.722135
-1.71135
-2.60154
-2.68651
-3.12151
-2.14916
-0.878549
-3.09403
-8.01939
19.3457
44.8508
70.1169
65.6739
-4.78033
-5.2075
-5.35627
-5.43724
-5.36356
-4.9976
-4.20137
-4.34969
-4.36287
-4.57818
-4.70097
-4.3471
-4.01901
-4.65529
-5.3245
-2.54143
35.8246
77.3394
36.462
-4.9232
-5.45692
-5.67298
-5.61273
-5.35251
-5.12024
-4.9791
-4.84659
-4.78921
-4.95882
-5.16789
-5.25534
-5.30364
-5.40404
-5.31951
-4.41673
1.30724
25.9035
21.8775
-4.92952
-5.49023
-5.74857
-5.65716
-5.31951
-5.11388
-5.04008
-5.02517
-5.11906
-5.37806
-5.71166
-5.9972
-6.0968
-5.88624
-5.4185
-4.7583
-2.72736
6.00151
46.8486
-4.66055
-5.2109
-5.47362
-5.43843
-5.27382
-5.11978
-5.04802
-5.09705
-5.31044
-5.65858
-6.05962
-6.41641
-6.52398
-6.21638
-5.55977
-4.85992
-3.83996
-0.843144
11.664
-4.29989
-4.78319
-5.07185
-5.15993
-5.12021
-5.0453
-5.02607
-5.11604
-5.34905
-5.6853
-6.04256
-6.37656
-6.47598
-6.1932
-5.52879
-4.91882
-4.20041
-2.93266
2.14852
-4.06105
-4.44067
-4.71512
-4.86459
-4.91792
-4.93793
-4.97613
-5.06829
-5.23062
-5.46195
-5.75212
-5.9747
-6.01117
-5.77394
-5.24786
-4.77011
-4.1085
-3.19255
0.379487
-3.95504
-4.24589
-4.48383
-4.64902
-4.75256
-4.82362
-4.89037
-4.97376
-5.08416
-5.22286
-5.36962
-5.47179
-5.44681
-5.23043
-4.83262
-4.4812
-3.98029
-3.62479
-1.85043
-3.92342
-4.15328
-4.35469
-4.51328
-4.63173
-4.7232
-4.80185
-4.87802
-4.95614
-5.03396
-5.09551
-5.10862
-5.02783
-4.82271
-4.50314
-4.23777
-3.94461
-3.77783
-2.58721
-3.92835
-4.11458
-4.2845
-4.42858
-4.5458
-4.64136
-4.72194
-4.79235
-4.85318
-4.89943
-4.91817
-4.88971
-4.78728
-4.59519
-4.3208
-4.09597
-3.91621
-3.87668
-3.2838
-3.95617
-4.10877
-4.2516
-4.37832
-4.48668
-4.57841
-4.65635
-4.72212
-4.77405
-4.80578
-4.80593
-4.76181
-4.65864
-4.48661
-4.24929
-4.05083
-3.91094
-3.97479
-3.56354
-4.00096
-4.12681
-4.24614
-4.35485
-4.45095
-4.5351
-4.60868
-4.67168
-4.72034
-4.74647
-4.7392
-4.69012
-4.59403
-4.44546
-4.24702
-4.07761
-3.97109
-4.03016
-3.54845
-4.05844
-4.16272
-4.26196
-4.35359
-4.43634
-4.5109
-4.57894
-4.64057
-4.69039
-4.71715
-4.70883
-4.6598
-4.57276
-4.44709
-4.28689
-4.14515
-4.05231
-4.10691
-3.85222
-4.12586
-4.21261
-4.29498
-4.37124
-4.44074
-4.50472
-4.56662
-4.62838
-4.68354
-4.71699
-4.71293
-4.66708
-4.58845
-4.48195
-4.3518
-4.24033
-4.15677
-4.1714
-3.80391
-4.20155
-4.27405
-4.34246
-4.40546
-4.46265
-4.51617
-4.57271
-4.63705
-4.70189
-4.74735
-4.75166
-4.71048
-4.63729
-4.54331
-4.43164
-4.34312
-4.28154
-4.31689
-4.12102
-4.28436
-4.34537
-4.40248
-4.45457
-4.50111
-4.54552
-4.59846
-4.66697
-4.74236
-4.80111
-4.81521
-4.77908
-4.70854
-4.62111
-4.52118
-4.44864
-4.40222
-4.42986
-4.01903
-4.37332
-4.42516
-4.47346
-4.51716
-4.55556
-4.59313
-4.64303
-4.71276
-4.79353
-4.86207
-4.88511
-4.85471
-4.78659
-4.70501
-4.61538
-4.56694
-4.52305
-4.54626
-4.22217
-4.46746
-4.51203
-4.55364
-4.59143
-4.62462
-4.65725
-4.7019
-4.76525
-4.842
-4.91382
-4.94359
-4.92112
-4.85992
-4.79032
-4.71413
-4.69229
-4.63907
-4.65861
-4.32069
-4.56574
-4.60441
-4.64086
-4.67447
-4.70466
-4.73369
-4.77078
-4.82072
-4.88229
-4.94664
-4.978
-4.96537
-4.91982
-4.87307
-4.82678
-4.80261
-4.74198
-4.7614
-4.34177
-4.66718
-4.70077
-4.73287
-4.76301
-4.79106
-4.81788
-4.84813
-4.88401
-4.92559
-4.96892
-4.99401
-4.99451
-4.97776
-4.95706
-4.92788
-4.90022
-4.83672
-4.86196
-4.42589
-4.77109
-4.8001
-4.82812
-4.85498
-4.88073
-4.90581
-4.93182
-4.95914
-4.98552
-5.00872
-5.02509
-5.0375
-5.04387
-5.03984
-5.01516
-4.9898
-4.9327
-4.96466
-4.55549
-4.87721
-4.90197
-4.92619
-4.94975
-4.97275
-4.99552
-5.01868
-5.04188
-5.0619
-5.07702
-5.08898
-5.10384
-5.11541
-5.11284
-5.09298
-5.07652
-5.03261
-5.06574
-4.67952
-4.9855
-5.00637
-5.02702
-5.04733
-5.06739
-5.08741
-5.1075
-5.12736
-5.14505
-5.15858
-5.1693
-5.17939
-5.18591
-5.18224
-5.17171
-5.16662
-5.13517
-5.1662
-4.70558
-5.09595
-5.11326
-5.13056
-5.14776
-5.16494
-5.18226
-5.19934
-5.21588
-5.23147
-5.24402
-5.25328
-5.26021
-5.26279
-5.25894
-5.25726
-5.26823
-5.25063
-5.27173
-4.76215
-5.20833
-5.22233
-5.23648
-5.25076
-5.26516
-5.27986
-5.29427
-5.30801
-5.32147
-5.33262
-5.34136
-5.34686
-5.34758
-5.34404
-5.34793
-5.37602
-5.36279
-5.41935
-5.47241
-5.32227
-5.33318
-5.34429
-5.35574
-5.3675
-5.37965
-5.39166
-5.40321
-5.41488
-5.42456
-5.43295
-5.43774
-5.43898
-5.43726
-5.4423
-5.47243
-5.42603
-5.51379
-5.26481
-5.43739
-5.44526
-5.45347
-5.4622
-5.47142
-5.48118
-5.49107
-5.5009
-5.51099
-5.51956
-5.52755
-5.53232
-5.53556
-5.53738
-5.54211
-5.55605
-5.55445
-5.66905
-5.36302
-5.55343
-5.55827
-5.56362
-5.56965
-5.57639
-5.58386
-5.59181
-5.6001
-5.60867
-5.61638
-5.62374
-5.62888
-5.63394
-5.63868
-5.64596
-5.65986
-5.67456
-5.74909
-5.69442
-5.67026
-5.67198
-5.67433
-5.67754
-5.68172
-5.68684
-5.69285
-5.69967
-5.70688
-5.71345
-5.72021
-5.72482
-5.73133
-5.73755
-5.74768
-5.75598
-5.74687
-5.82364
-5.80521
)
;

boundaryField
{
    leftWall
    {
        type            calculated;
        value           nonuniform List<scalar> 
50
(
501.031
441.816
381.669
321.172
260.876
200.733
140.791
78.9137
24.7141
1.806
1.31624
0.980894
0.759535
0.564605
0.37859
0.198708
0.0196662
-0.159756
-0.33974
-0.52039
-0.701835
-0.884002
-1.06674
-1.24985
-1.43308
-1.61618
-1.79886
-1.98083
-2.16184
-2.3417
-2.52019
-2.69723
-2.87273
-3.04661
-3.21886
-3.38947
-3.55847
-3.72591
-3.89186
-4.05641
-4.21967
-4.38174
-4.54275
-4.70284
-4.8621
-5.02069
-5.17874
-5.33637
-5.49363
-5.6507
)
;
    }
    rightWall
    {
        type            calculated;
        value           nonuniform List<scalar> 
50
(
1193.26
1138.06
1076.35
999.973
901.677
784.411
647.588
498.031
306.414
196.891
157.197
154.459
157.65
154.169
148.631
116.975
60.289
6.49601
9.43932
37.41
59.3589
65.6739
36.462
21.8775
46.8486
11.664
2.14852
0.379487
-1.85043
-2.58721
-3.2838
-3.56354
-3.54845
-3.85222
-3.80391
-4.12102
-4.01903
-4.22217
-4.32069
-4.34177
-4.42589
-4.55549
-4.67952
-4.70558
-4.76215
-5.47241
-5.26481
-5.36302
-5.69442
-5.80521
)
;
    }
    lowerWall
    {
        type            calculated;
        value           nonuniform List<scalar> 
62
(
530.461
529.544
531.01
535.525
544.902
559.948
579.814
600.913
621.237
641.625
662.731
684.529
706.606
728.513
749.88
770.031
788.026
803.231
813.599
815.917
817.6
839.753
874.518
845.13
780.796
718.321
662.35
611.996
562.449
511.069
463.726
476.731
491.136
503.228
508.235
816.095
748.95
671.016
622.389
598.809
579.362
548.667
501.902
836.041
775.937
879.205
1039.22
1168.54
1235.25
1324.62
1400.66
1219.3
757.183
430.343
298.951
271.444
272.668
331.464
596.777
1067.31
1313.76
1217.3
)
;
    }
    atmosphere
    {
        type            calculated;
        value           nonuniform List<scalar> 
46
(
-5.72904
-5.72904
-5.72904
-5.72904
-5.72904
-5.72904
-5.72904
-5.72904
-5.72904
-5.72904
-5.72904
-5.72904
-5.72904
-5.72904
-5.72904
-5.72904
-5.72904
-5.72904
-5.72904
-5.72904
-5.72904
-5.72904
-5.72904
-5.72904
-5.72904
-5.72904
-5.72904
-5.72904
-5.72908
-5.72983
-5.73153
-5.7344
-5.73824
-5.74325
-5.74942
-5.75597
-5.76142
-5.76825
-5.77116
-5.77901
-5.7855
-5.80149
-5.80033
-5.78593
-5.92457
-5.78771
)
;
    }
    defaultFaces
    {
        type            empty;
    }
}


// ************************************************************************* //
