/*--------------------------------*- C++ -*----------------------------------*\
| =========                 |                                                 |
| \\      /  F ield         | OpenFOAM: The Open Source CFD Toolbox           |
|  \\    /   O peration     | Version:  2.4.0                                 |
|   \\  /    A nd           | Web:      www.OpenFOAM.org                      |
|    \\/     M anipulation  |                                                 |
\*---------------------------------------------------------------------------*/
FoamFile
{
    version     2.0;
    format      ascii;
    class       volScalarField;
    location    "1";
    object      alpha.water;
}
// * * * * * * * * * * * * * * * * * * * * * * * * * * * * * * * * * * * * * //

dimensions      [0 0 0 0 0 0 0];

internalField   nonuniform List<scalar> 
3072
(
3.09256e-15
6.54698e-14
1.68837e-13
6.72841e-13
6.60235e-12
5.17485e-11
9.70578e-06
0.00566298
0.0247011
0.0247962
0.0447622
0.0783986
3.64781e-14
4.1929e-13
1.40944e-12
3.74235e-12
1.20826e-11
5.14347e-11
0.00691734
0.219326
0.331799
0.147839
6.80258e-11
0.000168376
2.00997e-13
4.77234e-12
2.55379e-11
3.66439e-12
1.87488e-11
5.9408e-11
0.073921
0.331799
0.3292
0.0459726
6.80859e-11
0.000705176
4.24604e-13
7.73959e-12
5.17937e-10
2.86053e-06
5.25433e-06
9.608e-11
0.0733661
0.32481
0.278907
5.98416e-11
3.58647e-05
0.000447018
1.55318e-12
1.61245e-11
5.96728e-11
2.17913e-06
4.61355e-06
1.28347e-10
0.0525503
0.277483
0.167553
5.61352e-11
5.67538e-11
6.1236e-11
8.57736e-12
4.0768e-11
6.95157e-08
3.60402e-07
2.21388e-07
1.43795e-10
0.00856194
0.0822619
0.0470915
0.00826717
0.00400532
0.00512584
1.6581e-10
3.16096e-09
2.71524e-08
2.89759e-10
3.18917e-10
0.0318825
0.165565
0.129148
0.00602109
0.00622911
0.0227451
0.0228516
1.80186e-11
1.0896e-09
2.2411e-10
2.59398e-10
2.93495e-10
0.0827467
0.190645
0.190649
0.0120925
2.19438e-05
0.00573395
0.0113326
2.78747e-06
4.63367e-06
1.84394e-10
1.85065e-10
1.10002e-08
0.0183266
0.124241
0.167019
0.0315033
1.87527e-05
1.21788e-05
0.000119416
7.93563e-07
4.76945e-09
0.000104693
0.000524293
0.000668227
0.000554775
0.00231689
0.0149708
0.00815343
0.00492662
0.00373078
0.0037469
2.46819e-11
2.46819e-11
2.49169e-11
5.00558e-11
7.9059e-11
9.01951e-05
9.14088e-11
9.21206e-11
9.45826e-11
1.16037e-10
7.71228e-05
0.000508571
0.0678932
0.0928484
0.143923
0.22289
0.304064
0.34583
0.334966
0.360676
0.365582
0.22996
0.0404395
0.00157465
0.0752571
0.0111378
1.00579e-10
0.00932476
0.0747461
0.101344
0.0528996
0.0180105
0.0140969
0.00114937
0.000206127
6.27298e-09
9.25991e-11
8.91946e-11
7.20996e-11
0.0324744
0.109965
0.162029
0.167255
0.202676
0.2027
0.161881
0.120065
0.0873736
0.000726629
7.99123e-05
2.30546e-11
2.30546e-11
2.30546e-11
2.7076e-11
0.00227021
0.145618
0.251477
0.259261
0.258904
0.23422
0.000169994
7.30658e-11
1.78134e-10
1.43815e-10
1.44199e-10
7.11304e-11
0.00123471
0.0135783
0.0277245
0.0518813
0.0742839
0.115808
8.70435e-11
3.02029e-10
1.53726e-09
1.56377e-09
3.49218e-10
9.13937e-10
7.9553e-11
7.9553e-11
0.210291
0.362947
0.583712
0.714237
0.000192472
1.49286e-10
2.08922e-08
7.39551e-08
3.6237e-10
1.58506e-09
8.01481e-11
7.9553e-11
0.312756
0.856534
0.999455
1
0.0179917
1.59203e-10
2.82066e-08
9.58646e-08
6.1627e-09
9.25496e-10
1.03981e-10
8.01081e-11
0.577141
0.999837
1
1
0.00806118
0.00281129
1.15977e-08
1.00953e-08
3.13629e-10
3.1526e-10
3.1168e-10
7.95531e-11
0.630918
1
1
1
0.000373793
8.97897e-05
1.04653e-05
7.20459e-06
1.29159e-06
1.65596e-10
1.4416e-10
1.04371e-10
0.237533
0.999383
1
1
0.00297334
0.000420738
8.42433e-10
0.000206386
0.000288878
4.40627e-05
1.26186e-06
7.4865e-11
0.0199756
0.8007
1
0.992798
0.000234565
8.2782e-10
8.38278e-10
0.000201203
0.000499614
0.000661589
8.29309e-05
7.4862e-11
5.74294e-11
0.0209274
0.995453
0.995833
0.00825714
0.0347362
0.0151743
1.83052e-07
3.48626e-06
0.00265751
0.000195507
5.31515e-11
5.30831e-11
5.42982e-11
0.343501
0.9959
1.46138e-21
4.09644e-19
5.05733e-18
1.37494e-17
9.38252e-18
2.76162e-18
2.19661e-17
4.4807e-15
1.02863e-13
7.61734e-13
3.62329e-12
1.1529e-11
2.23813e-20
3.82757e-18
4.80362e-17
1.53228e-16
5.36427e-16
3.42978e-14
7.94762e-13
7.0721e-12
3.33778e-11
1.14187e-10
4.56888e-10
2.01812e-09
2.17498e-19
2.26485e-17
3.045e-16
4.4079e-15
1.0161e-13
1.30335e-12
8.79009e-12
3.50763e-11
9.58469e-11
2.24689e-10
5.29601e-10
1.11153e-09
6.09489e-18
3.04311e-16
5.78758e-15
7.77732e-14
7.38169e-13
4.79094e-12
2.07923e-11
6.0213e-11
1.23416e-10
2.0632e-10
3.3053e-10
4.88849e-10
1.26693e-16
3.49231e-15
3.66371e-14
2.65339e-13
1.58367e-12
7.57903e-12
2.72156e-11
7.04825e-11
1.31498e-10
1.87734e-10
2.33048e-10
2.73966e-10
8.54415e-16
1.26093e-14
8.25187e-14
4.16376e-13
1.89608e-12
7.59904e-12
2.49716e-11
6.37388e-11
1.21992e-10
1.74614e-10
1.98335e-10
2.00384e-10
2.33326e-15
2.19936e-14
1.04152e-13
4.00697e-13
1.47866e-12
5.22979e-12
1.64512e-11
4.33705e-11
9.16216e-11
1.48347e-10
1.82682e-10
1.80293e-10
1.12404e-14
3.95695e-14
9.70152e-14
2.56868e-13
7.59747e-13
2.38251e-12
7.21908e-12
1.98452e-11
4.81729e-11
9.65067e-11
1.48445e-10
1.67172e-10
1.61505e-12
4.81045e-12
7.49275e-12
8.85334e-12
1.33155e-11
1.06028e-12
1.92791e-12
5.23072e-12
1.61317e-11
4.5188e-11
8.70508e-11
1.19676e-10
6.30095e-12
5.34128e-12
8.82999e-13
8.80905e-13
8.82999e-13
8.80906e-13
9.02975e-13
8.89096e-13
1.2505e-11
1.7627e-11
3.37151e-11
5.85084e-11
4.48372e-16
4.48372e-16
0.00877944
0.0502453
0.0468245
0.000735114
1.03681e-12
0.00376214
2.94566e-11
1.60996e-11
1.62142e-11
4.20603e-11
0.064074
0.0894171
0.175793
0.489708
0.714728
0.62728
0.494862
0.508023
0.421263
0.236681
0.3365
0.29296
2.61968e-11
7.33257e-11
1.50313e-10
1.51595e-10
2.13327e-10
1.9951e-09
3.82462e-10
7.55907e-08
4.77456e-08
2.51757e-08
7.04037e-11
2.02184e-13
5.53254e-09
4.22544e-09
1.95171e-10
4.52804e-07
1.99543e-05
4.0517e-05
3.38825e-05
4.77474e-06
6.47556e-11
1.46708e-07
7.26299e-12
5.29869e-12
1.32104e-09
3.76859e-10
6.12766e-06
7.13704e-05
7.60712e-05
7.60712e-05
7.12534e-05
5.09929e-06
6.81326e-11
8.86144e-11
4.24903e-11
1.02765e-11
5.17177e-10
3.51619e-10
8.18487e-06
7.27513e-05
7.60712e-05
5.61432e-05
8.15934e-11
1.58538e-10
9.89946e-07
6.59886e-06
1.24462e-06
4.47695e-11
2.91857e-10
6.2581e-09
2.33008e-06
4.73738e-06
1.33158e-06
7.90821e-11
8.1736e-11
1.29394e-10
1.68887e-10
1.82804e-05
5.47371e-05
1.33344e-05
2.00105e-10
1.36525e-08
6.83166e-08
1.12658e-10
8.68433e-11
1.20448e-10
2.26098e-09
1.24302e-08
1.98372e-10
2.37744e-06
7.26047e-05
0.000125985
1.75383e-10
9.52579e-10
1.29719e-10
9.7963e-11
1.09657e-10
1.19795e-10
7.02905e-11
6.93644e-08
4.403e-07
3.78344e-07
4.60007e-06
0.000114899
1.54157e-10
1.62474e-10
1.03726e-10
7.71053e-11
6.11766e-11
9.9841e-11
4.08917e-11
4.20955e-11
1.24589e-06
1.0954e-05
1.02071e-05
2.86724e-10
1.30349e-10
1.22716e-10
1.03203e-10
8.03467e-11
5.53236e-11
3.25239e-11
1.79342e-11
1.7545e-11
1.30209e-07
1.57252e-05
0.000171452
3.2003e-10
8.02855e-11
9.01019e-11
8.69134e-11
7.42892e-11
5.60533e-11
3.6961e-11
2.44321e-11
2.90053e-11
2.17405e-11
1.32328e-06
0.000188015
6.07392e-05
4.14e-11
5.51641e-11
5.95567e-11
5.54724e-11
4.50404e-11
3.22903e-11
4.36024e-11
4.91173e-11
4.27559e-11
1.80291e-11
0.000131297
0.000185572
0.0376114
4.08643e-11
2.01979e-11
3.12657e-12
3.08326e-12
3.0835e-12
8.8397e-09
1.01941e-07
5.46402e-11
3.619e-11
3.52466e-11
0.000166454
2.98071e-23
1.656e-20
2.60589e-19
7.74466e-19
4.87256e-19
9.86699e-20
2.09854e-20
1.43607e-17
3.63649e-15
2.01686e-14
4.79373e-14
8.29493e-14
6.37161e-22
2.11528e-19
2.98915e-18
1.13093e-17
1.38135e-17
6.67021e-17
6.60533e-15
4.04552e-14
9.48345e-14
1.64682e-13
2.43532e-13
3.2662e-13
1.05138e-20
1.54342e-18
1.9471e-17
9.91356e-17
5.37662e-16
1.09727e-14
4.39707e-14
1.04618e-13
1.87058e-13
2.83156e-13
3.85627e-13
4.89227e-13
2.05996e-19
1.18625e-17
1.41185e-16
1.19114e-15
8.39744e-15
3.08483e-14
7.80578e-14
1.51671e-13
2.45138e-13
3.4931e-13
4.55786e-13
5.58077e-13
3.79669e-18
1.08224e-16
1.00049e-15
5.14103e-15
1.75512e-14
4.58463e-14
9.70688e-14
1.72093e-13
2.64598e-13
3.64609e-13
4.61895e-13
5.4794e-13
3.08534e-17
4.67004e-16
2.62509e-15
8.99666e-15
2.34579e-14
5.16506e-14
9.92416e-14
1.67869e-13
2.52479e-13
3.42667e-13
4.25904e-13
4.90616e-13
1.01795e-16
9.555e-16
3.8874e-15
1.06923e-14
2.39569e-14
4.76276e-14
8.66874e-14
1.44319e-13
2.17958e-13
2.98053e-13
3.70397e-13
4.20015e-13
1.61696e-16
1.11144e-15
3.70892e-15
8.88203e-15
1.81696e-14
3.44137e-14
6.21928e-14
1.06344e-13
1.71486e-13
2.41757e-13
3.05587e-13
3.49925e-13
7.15034e-16
2.28451e-14
3.63515e-13
3.07996e-12
2.6832e-12
2.32365e-11
3.38068e-14
6.96735e-14
1.19159e-13
1.77072e-13
2.33497e-13
2.75927e-13
8.60659e-14
1.12924e-12
2.62761e-13
9.93239e-09
1.49146e-07
1.92615e-07
2.96468e-09
1.1283e-12
2.59088e-13
2.05286e-13
1.87761e-13
2.06827e-13
4.31603e-17
4.41119e-17
2.87807e-05
1.87265e-10
1.57832e-10
3.46341e-06
5.5521e-06
2.19074e-06
2.20429e-11
2.09911e-13
6.51214e-13
4.56922e-13
0.000270842
0.000631189
0.00201038
0.00258844
0.00185832
0.000144576
8.98826e-06
2.21132e-05
2.13099e-05
4.20144e-06
1.51829e-11
1.17532e-13
1.21835e-13
1.63128e-13
2.06826e-13
2.54071e-13
3.07174e-13
3.70188e-13
4.09267e-13
4.21343e-13
3.9636e-13
3.16179e-13
1.61114e-13
3.02642e-15
4.10933e-13
4.94496e-13
5.75647e-13
6.52721e-13
7.2439e-13
7.83928e-13
8.30385e-13
8.59094e-13
8.54432e-13
7.79588e-13
5.58343e-13
7.50814e-14
5.9026e-13
6.85825e-13
7.73391e-13
8.50833e-13
9.16805e-13
9.75781e-13
1.04055e-12
1.10977e-12
1.1685e-12
1.1727e-12
1.00912e-12
3.46453e-13
6.51564e-13
7.33429e-13
8.02947e-13
8.61844e-13
9.14061e-13
9.70839e-13
1.05618e-12
1.17375e-12
1.31312e-12
1.43103e-12
1.40098e-12
7.97501e-13
6.17047e-13
6.67475e-13
7.0259e-13
7.31083e-13
7.65126e-13
8.15391e-13
9.18037e-13
1.08358e-12
1.31026e-12
1.55848e-12
1.69201e-12
1.27557e-12
5.28797e-13
5.3877e-13
5.27832e-13
5.13058e-13
5.17988e-13
5.58075e-13
6.67987e-13
8.70979e-13
1.18385e-12
1.57579e-12
1.88811e-12
1.66825e-12
4.35082e-13
4.10857e-13
3.53601e-13
2.84037e-13
2.39723e-13
2.72792e-13
3.7007e-13
5.80286e-13
9.60126e-13
1.50356e-12
2.0117e-12
1.95462e-12
3.61088e-13
3.30096e-13
2.55129e-13
1.51014e-13
5.64977e-14
6.83806e-14
1.26489e-13
2.90667e-13
6.85792e-13
1.36652e-12
2.08714e-12
2.15938e-12
2.91222e-13
2.6994e-13
2.11591e-13
1.32706e-13
6.48345e-14
3.39094e-14
3.82014e-14
1.17653e-13
4.52793e-13
1.21066e-12
2.13687e-12
2.31459e-12
2.23274e-13
2.16474e-13
1.83015e-13
1.3452e-13
9.12106e-14
6.28948e-14
5.70143e-14
1.33519e-13
4.48351e-13
1.13693e-12
2.18618e-12
2.4492e-12
2.7238e-13
1.97807e-13
1.6043e-13
1.28084e-13
9.93621e-14
7.74878e-14
9.09172e-14
2.3118e-13
6.59881e-13
1.41837e-12
2.43257e-12
2.60866e-12
1.19613e-13
1.21093e-13
1.28862e-13
1.15551e-13
9.86997e-14
8.68899e-14
3.89983e-13
7.68125e-13
1.43184e-12
2.35155e-12
3.29398e-12
2.98033e-12
1
1
1
1
1
1
1
1
1
1
1
0.999995
1
1
1
1
1
1
1
0.999932
0.999422
0.999213
0.999689
0.999905
1
1
1
1
1
1
1
0.998622
0.991706
0.991772
0.996169
0.998513
1
1
1
1
1
1
1
1
1
0.999769
1
0.945593
1
1
1
1
0.974998
0.799081
0.749126
0.807444
0.910881
0.988415
1
1
1
1
1
0.920364
0.351075
0.0401765
0.00276438
1.20869e-10
0.151551
0.479532
0.793581
0.949049
1
1
0.996003
0.647916
0.00734957
1.4267e-10
1.14724e-10
8.85952e-11
7.68808e-11
7.63677e-11
0.015655
0.267193
1
1
1
0.717724
0.052236
1.48349e-10
1.21123e-10
1.04561e-10
9.22678e-11
7.17602e-11
5.56867e-11
5.55184e-11
1
1
1
0.953812
0.244131
1.51637e-10
1.26189e-10
1.05921e-10
9.45689e-11
8.82377e-11
7.88064e-11
6.63565e-11
1
1
1
1
0.854871
0.189991
1.23356e-10
1.00491e-10
7.64569e-11
7.63235e-11
7.1313e-11
7.13442e-11
1
1
1
1
1
0.90447
0.393248
0.127135
0.00888387
7.9354e-11
0.00303273
8.24958e-11
0.229308
0.273833
0.389756
0.740282
1
1
0.933935
0.931265
0.869163
0.591762
0.617271
0.612729
0.999983
0.999987
0.999987
0.999987
0.999941
0.999581
0.99949
0.999773
0.999985
1
1
1
0.983252
0.953673
0.956377
0.967955
0.97348
0.998611
1
0.99896
1
1
1
0.999989
0.825536
0.63653
0.636542
0.756532
1
1
1
0.984997
0.968774
0.985168
0.999301
0.999999
0.660969
0.636542
0.636534
0.818327
1
1
1
0.989781
0.864426
0.822141
0.895723
0.969214
0.995509
0.797458
0.649858
0.987336
1
1
1
1
0.948737
0.824774
0.776261
0.775326
0.994467
0.974465
0.918231
0.97552
1
1
0.999997
0.999994
0.999996
0.999996
0.866544
0.757232
0.512446
0.842999
0.967938
0.991695
1
1
0.999997
0.999993
0.999996
0.998167
0.986554
0.879916
6.03124e-11
0.0221475
0.258813
0.450532
0.789705
0.98081
0.999997
0.999994
0.999996
0.993168
0.978949
0.99942
5.8417e-11
5.42723e-11
5.42716e-11
5.52364e-11
0.0101492
0.292313
0.883823
0.999996
0.999996
0.997279
0.979195
0.994074
6.98594e-11
6.64089e-11
6.30388e-11
5.82543e-11
3.34979e-11
3.34979e-11
0.127285
0.671726
0.990809
0.99726
0.992885
0.965886
9.94862e-11
9.54024e-11
9.16194e-11
6.35074e-11
4.12567e-11
4.96689e-11
6.13797e-11
0.101751
0.464646
0.838112
0.979777
0.968393
0.385366
0.366844
0.366358
0.124931
5.64427e-11
3.38885e-11
3.37148e-11
0.0205369
0.0632216
0.305518
0.90031
0.992939
0.980678
0.952893
0.96199
0.936471
0.805665
0.756854
0.851103
0.969963
0.998826
0.999414
0.99943
0.893084
0.997898
0.998122
0.998095
0.998122
0.962933
0.635461
0.604184
0.601794
0.878364
0.99943
0.982927
0.915876
0.770926
0.998095
0.98763
0.989785
0.998568
1
0.733906
0.613803
0.866389
0.999414
0.995397
0.992094
1
0.878664
0.854137
0.869907
0.992921
1
1
0.992411
0.974319
0.987473
1
1
0.842572
0.864776
0.683858
0.161578
0.000814818
0.000180832
0.0340022
0.176513
0.280261
0.0923199
0.072939
0.411317
0.936495
0.987587
1
1
0.579932
0.206077
0.197848
0.485338
0.853286
0.70598
0.109178
0.0233323
0.993949
0.997063
1
0.988893
0.94554
0.942313
0.899872
0.889397
0.885364
0.880059
0.7827
0.693627
1
1
1
1
0.975003
0.869952
0.824112
0.870797
0.880059
0.873707
0.848277
0.71698
0.235375
0.347571
0.635329
0.826908
0.826744
0.806033
0.510777
0.432225
0.722313
0.973473
0.993915
0.996873
0.0193748
0.0490427
0.67936
0.826744
0.826908
0.826744
0.792674
0.149066
0.00661566
0.497897
0.988347
0.996873
0.349433
0.41244
0.744953
0.780595
0.757651
0.745898
0.655874
0.168775
0.00685889
0.0168504
0.134516
0.702435
0.559524
0.248406
0.106791
0.0928088
0.0774735
0.039731
0.00604455
0.00759661
0.00720994
0.00171084
8.77892e-11
0.0619642
0.794903
0.0858164
3.83483e-11
1.60642e-07
5.52807e-07
1.25986e-07
2.15483e-07
2.72105e-06
9.0126e-06
1.76846e-05
6.35246e-06
1.26935e-05
0.996873
0.618406
0.0164803
5.54613e-11
5.11482e-07
2.53764e-07
3.18502e-11
8.16699e-11
0.000379738
0.0016237
0.0015502
0.000390997
0.98875
0.748934
0.062121
3.98908e-11
1.73543e-07
2.12969e-07
2.52362e-08
6.1461e-12
0.000357115
0.00246473
0.00246066
0.00219131
0.25384
0.271213
0.148271
0.000298431
5.0897e-10
7.92732e-10
9.55003e-10
3.94428e-10
3.72319e-12
2.29849e-05
0.00102781
0.000956645
3.5015e-11
1.61874e-11
1.53383e-11
0.00721664
0.0117793
0.0119182
0.00245566
3.32071e-07
6.13174e-07
8.75842e-11
1.86738e-05
4.52648e-05
6.4828e-11
4.41589e-11
2.54884e-11
1.7297e-11
4.65566e-05
0.0172026
0.0195328
0.0151763
0.000445068
1.03859e-10
8.22564e-06
5.5847e-05
0.000111872
5.29211e-11
3.7934e-11
3.38615e-11
3.33379e-11
4.07088e-11
0.0156986
0.0154793
0.000881228
1.02235e-10
1.09269e-10
1.40641e-05
0.000142292
5.03153e-11
3.62415e-11
8.03523e-07
1.11002e-06
1.10805e-06
0.000540811
0.00184096
0.00147749
8.30554e-05
1.53283e-10
1.48151e-10
2.26819e-05
9.66614e-08
2.16846e-11
9.2433e-12
4.89237e-12
2.57962e-12
6.63741e-12
6.96517e-12
5.39744e-12
5.42262e-12
6.27619e-12
5.52391e-12
5.60875e-05
3.12355e-05
2.53865e-11
9.48623e-13
9.4496e-13
1.89621e-11
2.46129e-11
4.52497e-11
2.77084e-11
1.58291e-11
1.31553e-11
1.19463e-11
1.59432e-05
1.04535e-05
2.89624e-05
4.02199e-05
2.67106e-05
1.11932e-05
2.11286e-06
8.24611e-11
3.68086e-11
2.66476e-11
2.23996e-11
1.99995e-11
1.55896e-10
1.37503e-10
4.76491e-05
0.000134154
0.000135167
0.000133876
5.14864e-05
5.01279e-11
4.00221e-11
3.23029e-11
2.68579e-11
2.362e-11
3.08938e-12
3.08938e-12
3.08938e-12
3.08938e-12
0.0874706
0.231764
0.769629
0.890781
0.799458
0.617419
0.564243
0.827286
1.15061e-11
1.08132e-11
9.94367e-12
1.04102e-11
3.07943e-11
3.86678e-11
0.0918074
0.187207
0.120271
0.0167574
2.29747e-11
0.327521
1.84649e-11
1.72053e-11
1.58851e-11
1.48798e-11
1.76848e-11
2.31893e-11
4.12772e-11
4.05495e-11
3.92543e-11
2.02526e-11
2.02526e-11
0.0456308
2.1619e-11
2.03934e-11
1.92085e-11
1.80135e-11
1.75345e-11
1.89447e-11
2.28022e-11
2.02526e-11
2.02526e-11
2.02526e-11
2.02526e-11
0.0427023
0.948326
0.948453
0.948863
0.948682
0.536442
0.242465
0.264557
0.121165
0.079636
0.236374
0.733629
0.991184
0.919249
0.948326
0.93316
0.926167
0.925487
0.892792
0.345565
0.103036
0.0937777
0.103036
0.117817
0.672865
0.234866
0.385948
0.386472
0.446744
0.549529
0.376847
0.157898
0.163903
0.191254
0.274492
0.328956
0.330238
0.199581
0.33501
0.388367
0.414275
0.443337
0.593624
0.753449
0.817527
0.836332
0.877466
0.978779
1
1
1
0.999629
1
1
0.99997
1
1
1
1
0.865917
0.69812
1
0.9997
0.967971
0.847209
0.64791
0.595335
0.637054
0.596268
0.458339
0.280924
0.132298
0.0355365
0.823322
0.562331
0.232601
0.0355057
0.0082273
0.0225168
0.0280033
0.0126431
0.000116674
4.05247e-11
3.47711e-11
3.12079e-11
0.0721275
0.00189603
2.72295e-11
2.27029e-11
2.25071e-11
2.23196e-11
3.191e-11
2.89034e-11
2.66213e-11
2.24853e-11
1.8818e-11
1.70174e-11
0.519509
0.409646
0.28873
0.215278
0.176546
0.261197
0.376
0.418595
0.289437
0.142426
6.47393e-11
5.17173e-11
4.33897e-11
5.86217e-05
3.90464e-11
1.95407e-11
1.55879e-12
1.79351e-12
0.000489999
0.00136945
0.000120134
0.0067897
0.0232984
0.0214047
2.24943e-11
3.27703e-11
3.53685e-11
3.74393e-11
3.37192e-06
8.8489e-06
4.02875e-06
4.96065e-06
0.000158637
0.0170161
0.0288911
0.0288839
2.34345e-11
7.77409e-11
2.84876e-10
1.43556e-09
2.23068e-09
2.37488e-09
2.10833e-06
1.9767e-05
7.58205e-05
0.00143174
0.00551215
0.00578479
4.90386e-11
4.71135e-11
4.44417e-11
4.41647e-11
4.78125e-11
0.00137998
0.000888872
0.000728248
0.000339184
8.8074e-11
7.34631e-11
6.92411e-11
0.0176335
0.0117177
0.000890261
5.88213e-11
0.00127344
0.00339092
0.000876503
1.20536e-10
1.23899e-10
2.10052e-07
2.62771e-07
1.88876e-07
0.0286157
0.0181918
6.83979e-06
1.78946e-05
0.00266404
0.00525666
0.00519973
0.00104348
9.30143e-11
9.58748e-08
2.45185e-07
1.72095e-07
1.02786e-11
1.7495e-11
0.00169052
0.00186266
0.000920401
0.00244732
0.00422663
0.00243364
9.40616e-11
1.94377e-09
7.43236e-09
2.68554e-09
5.17182e-11
0.00685568
0.00275965
3.17965e-13
4.56113e-13
1.08293e-12
2.20334e-12
3.59531e-12
4.34936e-12
1.32607e-14
1.2905e-14
1.32548e-14
3.0391e-11
2.99527e-11
1.48631e-11
3.44112e-13
1.27153e-12
3.02648e-12
6.56845e-12
1.32049e-11
2.59429e-11
4.96224e-11
8.69325e-11
1.30631e-10
9.57155e-08
8.24496e-08
1.44975e-14
1.91127e-13
6.42087e-13
1.66325e-12
3.69649e-12
7.4863e-12
1.49069e-11
2.92078e-11
5.2869e-11
8.38844e-11
9.4095e-17
1.14114e-16
1.30794e-14
4.78273e-14
1.56347e-13
4.48092e-13
1.17297e-12
3.05681e-12
8.17704e-12
2.08285e-11
4.57507e-11
8.11996e-11
1.40412e-14
6.93177e-11
5.11795e-11
1.72868e-05
7.819e-05
7.92045e-05
7.71994e-05
0.000113637
0.000161105
3.85114e-05
3.00977e-05
2.93484e-05
1.60035e-10
1.29239e-10
6.57306e-11
2.75631e-06
2.61352e-05
4.57101e-05
3.87722e-05
2.51531e-05
2.56203e-05
2.99206e-05
1.61892e-05
6.87308e-06
1.12497e-10
1.13694e-10
8.05692e-11
3.51114e-06
1.1493e-05
1.25759e-05
7.60479e-06
6.84926e-08
4.60326e-11
2.44291e-06
3.9624e-11
2.61072e-11
1.15404e-10
1.30931e-10
2.1741e-07
4.99424e-07
4.28052e-07
3.61396e-11
3.45513e-11
3.06934e-11
2.84358e-11
2.649e-11
1.9244e-11
8.96045e-12
1.41253e-05
1.60764e-05
1.63694e-05
2.02855e-06
1.52929e-11
1.52978e-11
1.5293e-11
3.10146e-11
2.77963e-11
2.23392e-11
1.80414e-11
1.62302e-11
2.16961e-06
2.06368e-06
1.84983e-11
8.37618e-12
1.70435e-11
2.50359e-11
3.15484e-11
3.38446e-11
3.13615e-11
2.65557e-11
2.29507e-11
2.18231e-11
1.61605e-11
1.61022e-11
3.99459e-12
8.47757e-12
1.59411e-11
2.51081e-11
3.30435e-11
3.69428e-11
3.59252e-11
3.22189e-11
2.96714e-11
2.99467e-11
2.75441e-13
8.71335e-13
2.61013e-12
6.78322e-12
1.42719e-11
2.4102e-11
3.35904e-11
3.97669e-11
4.09632e-11
3.84985e-11
3.62603e-11
3.54597e-11
1.67335e-11
1.8169e-11
1.92325e-11
1.96161e-11
1.94931e-11
1.90415e-11
3.86007e-11
0.264167
0.574179
0.793204
0.939126
1
2.29437e-11
2.48024e-11
2.71761e-11
3.03064e-11
3.47193e-11
0.178615
0.714267
0.951765
1
1
1
1
3.26765e-11
3.49038e-11
2.71631e-11
4.56434e-11
0.336843
0.882827
1
1
1
1
1
1
3.44576e-11
3.51972e-11
0.00110204
0.439974
0.937833
1
1
1
1
1
1
1
1
1
1
1
1
1
1
1
1
1
1
1
1
1
1
1
0.999999
0.999999
1
1
0.999998
0.999998
0.999998
1
1
1
1
1
1
0.999999
1
1
1
1
1
0.997425
1
1
1
1
1
1
1
1
1
1
0.993983
0.630378
3.77553e-06
2.39437e-05
0.00240136
2.71083e-11
2.91115e-11
2.21323e-11
1.78723e-11
1.51684e-11
1.32536e-11
1.13217e-11
8.66124e-12
6.04079e-12
0.0341441
5.36125e-12
1.30186e-05
9.67521e-09
1.25794e-11
1.60669e-11
1.14245e-11
8.39848e-12
6.50395e-12
4.99534e-12
3.01353e-12
6.75352e-13
1.15169e-11
5.46139e-12
1.70742e-11
2.9324e-11
1.23432e-11
1.3978e-11
1.0297e-11
6.90855e-12
4.43053e-12
2.62567e-12
1.12968e-12
1.38325e-13
0.00509788
4.84422e-12
4.91258e-12
5.0628e-12
2.67874e-08
1.07581e-11
1.0984e-11
7.36409e-12
4.31006e-12
2.09355e-12
6.87959e-13
7.90445e-14
0.0715879
4.9133e-12
2.20701e-06
8.10913e-06
6.01127e-06
1.0726e-11
1.12599e-11
7.46535e-12
4.09246e-12
1.74272e-12
4.5818e-13
4.89765e-14
0.260705
4.84344e-12
1.9667e-06
8.47684e-06
7.9503e-06
1.07153e-11
1.11173e-11
6.83531e-12
3.36991e-12
1.23583e-12
2.68128e-13
2.33033e-14
0.529911
1.216e-11
1.4901e-07
3.24212e-06
1.20357e-06
1.0705e-11
1.0693e-11
5.66769e-12
2.36193e-12
7.12602e-13
1.26454e-13
8.06775e-15
0.792431
0.0939229
4.28807e-12
1.82181e-11
2.52421e-11
1.35714e-11
8.46587e-12
3.94128e-12
1.34243e-12
3.14887e-13
4.33029e-14
1.96392e-15
0.955901
0.366671
4.28622e-12
7.90174e-12
1.49662e-11
1.13669e-11
6.24756e-12
2.31717e-12
5.70723e-13
9.38399e-14
9.23628e-15
3.36228e-16
0.995672
0.569793
0.0023984
4.2858e-12
1.58852e-11
9.21909e-12
3.67023e-12
9.26481e-13
1.42509e-13
1.41317e-14
1.06675e-15
3.70515e-17
1
0.776605
0.0780888
4.2858e-12
1.16923e-11
4.77373e-12
1.20795e-12
1.54646e-13
1.09638e-14
6.12193e-16
5.14146e-17
1.88212e-18
1
0.857277
0.165227
4.2858e-12
4.44362e-12
6.19048e-13
3.85348e-14
9.26717e-16
1.22642e-17
2.77818e-18
5.73073e-19
2.41793e-20
8.57946e-12
4.99469e-11
2.25651e-10
8.00377e-10
1.62534e-09
1.6684e-09
9.44438e-06
6.31748e-05
6.28418e-05
7.03813e-06
7.4697e-12
7.47418e-12
1.02021e-12
6.71355e-12
2.27429e-11
3.77709e-11
4.18262e-09
6.43312e-08
5.01014e-07
2.85987e-06
2.27788e-06
2.59474e-11
1.85232e-11
3.51349e-11
3.99378e-13
4.12818e-12
2.21594e-11
8.48768e-11
3.74005e-10
2.23695e-09
4.10224e-11
2.85892e-11
3.3307e-11
2.97796e-11
6.8525e-11
1.55775e-10
3.53226e-15
4.57754e-14
2.98166e-13
1.58271e-12
1.23398e-11
3.73683e-11
5.66346e-11
1.60833e-11
2.09117e-11
2.36471e-11
2.63454e-11
3.62104e-11
2.74823e-16
5.515e-15
5.09134e-14
3.04971e-13
1.4538e-12
5.62752e-12
1.16035e-11
1.29283e-11
1.74162e-11
1.90846e-11
1.7706e-11
1.49429e-11
1.09576e-17
3.19569e-16
4.07431e-15
3.57269e-14
2.34224e-13
1.00155e-12
2.78536e-12
5.35377e-12
8.50318e-12
1.08742e-11
1.1535e-11
1.02863e-11
2.22026e-19
9.6221e-18
1.78917e-16
2.59782e-15
2.53168e-14
1.43254e-13
5.12751e-13
1.27916e-12
2.45664e-12
3.78677e-12
4.80801e-12
4.92706e-12
1.83563e-21
1.29054e-19
4.37152e-18
1.1311e-16
1.66749e-15
1.29952e-14
6.05582e-14
1.87156e-13
4.26425e-13
7.70074e-13
1.13323e-12
1.28383e-12
7.09582e-24
8.38632e-22
5.54353e-20
2.77365e-18
6.71734e-17
7.42223e-16
4.41687e-15
1.64658e-14
4.35221e-14
8.85003e-14
1.42719e-13
1.65627e-13
2.96423e-26
3.27974e-24
3.82551e-22
4.06167e-20
1.57447e-18
2.4121e-17
1.81183e-16
8.02356e-16
2.40067e-15
5.2634e-15
8.68506e-15
9.32187e-15
9.35033e-29
7.26541e-27
1.35073e-24
2.88784e-22
1.75279e-20
3.64997e-19
3.4254e-18
1.7813e-17
5.89293e-17
1.33257e-16
2.06339e-16
1.75618e-16
1.24098e-31
5.77731e-30
1.52402e-27
6.02597e-25
5.50947e-23
1.53537e-21
1.78888e-20
1.0841e-19
3.88482e-19
8.65624e-19
1.13665e-18
6.47222e-19
2.1394e-11
1.27192e-06
2.11676e-05
0.000220717
0.000221241
2.28559e-05
0.000166255
0.00035768
0.000153978
1.76855e-11
1.24982e-11
1.3221e-11
5.5012e-11
3.61166e-11
3.59202e-11
4.68796e-11
7.77482e-06
1.26204e-05
1.37526e-10
3.36563e-09
1.12751e-05
6.59177e-06
4.19472e-07
8.68233e-14
3.5914e-10
9.5422e-10
2.64596e-09
3.45103e-09
9.37367e-09
1.57685e-07
1.97545e-07
3.31384e-09
1.93797e-10
1.31453e-07
2.91606e-08
3.89143e-12
6.45718e-11
1.29131e-10
2.51182e-10
4.55704e-10
6.34886e-10
1.90897e-10
4.42074e-09
1.2358e-09
1.8034e-10
1.24642e-11
3.07253e-12
6.38019e-15
1.30704e-11
1.41662e-11
1.97338e-11
2.97346e-11
3.84731e-11
3.46063e-11
2.97639e-11
7.06284e-11
2.41272e-11
7.93799e-14
1.88772e-15
3.84141e-17
7.54162e-12
4.59193e-12
2.55748e-12
1.8599e-12
1.68452e-12
1.15142e-12
1.22839e-13
4.51781e-13
4.47769e-13
7.78722e-16
1.29423e-17
2.7408e-19
3.9065e-12
2.22726e-12
6.98301e-13
2.10508e-13
5.92775e-14
2.59832e-14
1.30544e-15
8.52076e-17
3.06144e-17
1.53584e-18
1.10223e-19
3.31975e-21
1.09797e-12
6.69191e-13
1.58766e-13
2.84806e-14
3.59551e-15
3.8947e-16
2.6657e-17
1.66494e-18
1.58443e-19
1.72273e-20
2.15857e-21
8.09818e-23
1.44698e-13
9.16673e-14
2.22293e-14
3.23596e-15
3.16592e-16
2.12706e-17
1.02094e-18
4.02781e-20
2.04165e-21
2.5039e-22
4.74759e-23
1.90203e-24
7.90596e-15
4.91768e-15
1.22552e-15
1.67136e-16
1.39211e-17
7.30015e-19
2.46575e-20
5.83659e-22
1.64135e-23
2.26989e-24
6.67891e-25
2.78417e-26
1.38525e-16
7.97732e-17
1.78717e-17
2.0914e-18
1.42278e-19
5.86722e-21
1.50493e-22
2.5398e-24
4.86997e-26
9.15708e-27
4.21038e-27
1.82491e-28
3.87857e-19
1.83293e-19
2.48765e-20
1.65564e-21
6.24041e-23
1.41248e-24
2.00086e-26
2.22711e-28
1.58281e-29
9.0494e-30
6.02994e-30
2.68057e-31
1.01448e-16
7.17953e-16
3.68807e-15
1.51424e-14
5.00688e-14
1.39772e-13
3.66052e-13
1.06488e-12
3.76966e-12
1.41249e-11
4.657e-11
1.27426e-10
1.00897e-17
1.36875e-16
9.83029e-16
4.81779e-15
1.71459e-14
4.70158e-14
1.07361e-13
2.22588e-13
4.61909e-13
1.05925e-12
2.72184e-12
6.94184e-12
8.57829e-19
1.93165e-17
1.9136e-16
1.1713e-15
4.90747e-15
1.49663e-14
3.54564e-14
7.00123e-14
1.23084e-13
2.04784e-13
3.44688e-13
6.23952e-13
5.05645e-20
1.72929e-18
2.32247e-17
1.81924e-16
9.4723e-16
3.49313e-15
9.61192e-15
2.08453e-14
3.75845e-14
5.90136e-14
8.40949e-14
1.13988e-13
1.74088e-21
8.82639e-20
1.60018e-18
1.6244e-17
1.07911e-16
5.02823e-16
1.71776e-15
4.48193e-15
9.30282e-15
1.59181e-14
2.30828e-14
2.90704e-14
3.25332e-23
2.38812e-21
5.94654e-20
7.92558e-19
6.80472e-18
4.08835e-17
1.79849e-16
5.95135e-16
1.52345e-15
3.09496e-15
5.06947e-15
6.72781e-15
5.96694e-25
3.03394e-23
1.09909e-21
1.98825e-20
2.31749e-19
1.86541e-18
1.04556e-17
4.51416e-17
1.50217e-16
3.82991e-16
7.5176e-16
1.11785e-15
1.01677e-26
4.15431e-25
1.09441e-23
3.1511e-22
5.71535e-21
6.00463e-20
4.00544e-19
1.97892e-18
8.27127e-18
2.83031e-17
7.00301e-17
1.18913e-16
1.55835e-28
5.16058e-27
1.02847e-25
3.67518e-24
9.4614e-23
1.29044e-21
1.01391e-20
5.53406e-20
2.523e-19
1.12741e-18
3.84298e-18
7.55427e-18
1.70464e-30
4.71682e-29
7.18185e-28
3.02148e-26
1.03816e-24
1.7752e-23
1.60946e-22
9.44399e-22
4.46645e-21
2.25102e-20
1.09281e-19
2.47122e-19
9.94651e-33
2.35418e-31
2.74148e-30
1.315e-28
5.85863e-27
1.22955e-25
1.26044e-24
7.70104e-24
3.50661e-23
1.8455e-22
1.2126e-21
3.03989e-21
1.74031e-35
3.57777e-34
3.25154e-33
1.75413e-31
1.00351e-29
2.55761e-28
2.92806e-27
1.82349e-26
7.42596e-26
3.07226e-25
2.40335e-24
6.63119e-24
3.69494e-10
4.03157e-09
7.78315e-09
9.53068e-09
2.14892e-11
2.07604e-11
1.89336e-11
1.71018e-11
1.49427e-11
1.25378e-11
8.08109e-12
3.41652e-12
1.44347e-11
1.56072e-11
6.6274e-12
1.60408e-11
9.14315e-12
8.40722e-12
7.40971e-12
6.59093e-12
5.46958e-12
4.15387e-12
2.21004e-12
4.31261e-13
1.20169e-12
2.19052e-12
3.20106e-12
3.32125e-12
2.5183e-12
2.27003e-12
1.95416e-12
1.66718e-12
1.29137e-12
8.59116e-13
3.37057e-13
1.56274e-14
1.56202e-13
2.27816e-13
3.40869e-13
4.59617e-13
4.2818e-13
3.83219e-13
3.21891e-13
2.583e-13
1.83694e-13
1.03502e-13
2.73537e-14
1.45633e-16
3.2759e-14
3.45465e-14
3.63003e-14
4.02618e-14
4.20107e-14
3.73253e-14
3.02561e-14
2.27914e-14
1.48731e-14
7.03118e-15
1.21572e-15
8.71058e-19
7.22419e-15
6.32213e-15
4.60747e-15
3.08058e-15
2.14524e-15
1.80245e-15
1.44192e-15
1.06591e-15
6.59636e-16
2.6864e-16
3.17585e-17
2.73442e-20
1.21616e-15
9.32018e-16
4.62311e-16
1.75017e-16
4.60293e-17
2.709e-17
2.90707e-17
2.46349e-17
1.56937e-17
5.8579e-18
5.22222e-19
3.95863e-22
1.30369e-16
8.74467e-17
2.4751e-17
4.19154e-18
2.41307e-19
9.85113e-21
1.75796e-19
2.62572e-19
1.97978e-19
7.39737e-20
5.62586e-21
2.14817e-24
7.68381e-18
4.2151e-18
5.3945e-19
3.18163e-20
6.54342e-22
2.42823e-23
9.2987e-23
1.20017e-21
1.29962e-21
5.35892e-22
3.9112e-23
5.79507e-27
2.06057e-19
8.23246e-20
4.27129e-21
1.21481e-22
2.77337e-24
5.9735e-26
1.41349e-26
2.14756e-24
4.19314e-24
2.08154e-24
1.58789e-25
1.5249e-29
1.83647e-21
4.98856e-22
2.15087e-23
2.55552e-25
1.98091e-27
1.74047e-29
4.08283e-30
1.28218e-27
5.65538e-27
3.5826e-27
2.97323e-28
5.41353e-32
2.40827e-24
4.07586e-25
1.24293e-26
9.13676e-29
9.79007e-32
2.45439e-35
1.3049e-34
1.62701e-31
1.95276e-30
1.58953e-30
1.43649e-31
4.80625e-35
6.51486e-14
3.8477e-13
1.59411e-12
4.97514e-12
1.17193e-11
2.15285e-11
3.23116e-11
4.11429e-11
4.54254e-11
4.44865e-11
4.20692e-11
4.45207e-11
1.45714e-14
1.54364e-13
8.54719e-13
3.17256e-12
8.47652e-12
1.72623e-11
2.83892e-11
3.96418e-11
4.87251e-11
5.38439e-11
5.5609e-11
6.1369e-11
3.30628e-15
5.26659e-14
3.7406e-13
1.65793e-12
5.12436e-12
1.1814e-11
2.16004e-11
3.32623e-11
4.55869e-11
5.78436e-11
6.88056e-11
0.0532308
6.09963e-16
1.36587e-14
1.23258e-13
6.62789e-13
2.42937e-12
6.51557e-12
1.3541e-11
2.31038e-11
3.4306e-11
4.67234e-11
6.03863e-11
0.176492
7.5018e-17
2.39378e-15
2.82175e-14
1.90732e-13
8.63064e-13
2.81677e-12
6.97057e-12
1.37186e-11
2.26583e-11
3.33215e-11
4.63567e-11
0.133514
5.32939e-18
2.56003e-16
4.15056e-15
3.69986e-14
2.16553e-13
9.04577e-13
2.82776e-12
6.86178e-12
1.34824e-11
2.27127e-11
3.52238e-11
0.118959
1.79489e-19
1.40996e-17
3.42785e-16
4.35057e-15
3.55065e-14
2.046e-13
8.69823e-13
2.80183e-12
7.06571e-12
1.46748e-11
2.65413e-11
0.0868528
3.48358e-21
2.81946e-19
1.15714e-17
2.2381e-16
2.70949e-15
2.32606e-14
1.49005e-13