/*--------------------------------*- C++ -*----------------------------------*\
| =========                 |                                                 |
| \\      /  F ield         | OpenFOAM: The Open Source CFD Toolbox           |
|  \\    /   O peration     | Version:  v1606+                                |
|   \\  /    A nd           | Web:      www.OpenFOAM.com                      |
|    \\/     M anipulation  |                                                 |
\*---------------------------------------------------------------------------*/
FoamFile
{
    version     2.0;
    format      ascii;
    class       volVectorField;
    location    "3.3";
    object      ddt0(rho,U);
}
// * * * * * * * * * * * * * * * * * * * * * * * * * * * * * * * * * * * * * //

dimensions      [1 -2 -2 0 0 0 0];

internalField   nonuniform List<vector> 
11640
(
(-11.1278509774 -8.63380761282 12.7962938291)
(-32.5245451786 -9.23450831558 12.6710273469)
(-52.5328715295 -9.61709332657 12.4220206935)
(-70.8453232322 -9.76858793587 11.9004821916)
(-86.9222532178 -9.72804364258 11.069379499)
(-100.222936405 -9.48951223114 9.95164113011)
(-110.758002919 -9.0758815056 8.69837563585)
(-118.628545463 -8.44837018516 7.36379036842)
(-123.736849294 -7.6084089882 6.00204902979)
(-125.942830766 -6.5644132123 4.35552915079)
(-125.363562169 -5.45436639862 2.8568136509)
(-122.134831725 -4.2956692454 1.30488294922)
(-116.308911136 -3.21386609422 -0.217728998056)
(-107.923455952 -2.24238749272 -1.67120496185)
(-96.9887468466 -1.34854623901 -3.0466156839)
(-83.5543714502 -0.469297398904 -4.43705897181)
(-67.9372028013 -0.143686386796 -5.34640944266)
(-50.4143864786 0.137451821891 -6.14449941642)
(-31.2277813909 0.280183303409 -6.73900970744)
(-10.5604708915 0.221135210915 -7.15064807728)
(-11.7435794121 -25.1837811401 12.7932477242)
(-33.4070728992 -26.1135452788 11.2981254774)
(-52.8302977104 -26.6313411009 10.5536025485)
(-70.2123754682 -26.5992417151 9.7514416717)
(-84.7992215003 -26.0266926243 8.68871345536)
(-96.7335086603 -25.0898294289 7.49738753366)
(-106.515897723 -23.8926765267 6.36474154813)
(-114.238562268 -22.3323929871 5.2532811582)
(-119.58182726 -20.3330536425 4.10386757216)
(-122.17153695 -17.8153420672 2.81275003495)
(-122.14515901 -15.0041161169 1.55226184014)
(-119.623155839 -11.9694100089 0.291855596123)
(-114.642137598 -9.07883230565 -0.89415206645)
(-106.878934449 -6.4836794899 -2.07718173672)
(-95.9636045856 -4.02053229297 -3.30888873172)
(-82.6412961876 -2.01594390391 -4.95730264858)
(-67.2096435702 -0.592940254691 -5.54349980776)
(-49.7836874123 0.328495838221 -6.2149953033)
(-30.9419138841 0.774421862102 -6.79160278291)
(-10.5192677523 0.702939638229 -7.30746487217)
(-12.1783470525 -40.8317610275 12.7103927962)
(-33.9833990028 -41.1379950153 10.7581289636)
(-52.6007488457 -40.7550089182 9.55460827943)
(-68.258802663 -39.405421748 8.36432266038)
(-80.889671172 -37.6354495258 7.07945644031)
(-91.4586717495 -35.9600659932 5.84442384543)
(-100.633495098 -34.4044793497 4.81890037794)
(-108.386492735 -32.52759414 3.97187467762)
(-114.117456641 -29.9809283653 3.02581233466)
(-117.349713133 -26.51471749 2.02314883898)
(-118.285504062 -22.4289684207 1.00640223327)
(-117.031646458 -18.1218555717 0.0521831983277)
(-113.525818594 -14.1208331892 -0.883337028228)
(-106.963376378 -10.5600341399 -1.89898413846)
(-96.7779161304 -7.031527296 -3.15200093787)
(-83.0932998787 -3.95102717268 -4.25305647832)
(-66.6608136569 -1.06223893949 -5.28135978576)
(-48.9836919763 0.770539317453 -6.10434372735)
(-30.5506215285 1.62881642869 -6.75491874661)
(-10.4680884908 1.65950287954 -7.35779876126)
(-12.3223408742 -55.5735923786 12.4524598041)
(-34.0038034478 -54.7091078348 10.2857708698)
(-51.3533253296 -52.3602490326 8.70888489556)
(-65.0482246575 -49.1090914575 7.25718102469)
(-76.0679701038 -46.2807511279 5.8432177213)
(-85.7077627539 -44.3659275225 4.65629017687)
(-94.371864919 -43.1109614952 3.82109845261)
(-101.994080808 -41.3949645887 3.29346679369)
(-107.776433604 -38.7423892136 2.57661696)
(-111.437720045 -34.5048455752 1.77880973171)
(-113.343256377 -29.2309554412 1.039519426)
(-113.683469869 -23.671286312 0.33218185721)
(-112.271708119 -19.0725798015 -0.437108131711)
(-107.738531339 -15.6311721689 -1.37342584579)
(-98.6961482242 -11.6799197116 -2.30732869597)
(-84.8030817749 -7.1728181612 -3.49976556279)
(-67.3219933119 -2.7677793064 -4.7558928211)
(-48.6097223259 0.564686639801 -5.70937925519)
(-30.0398303416 2.29335722149 -6.52487617137)
(-10.3922556199 2.61624379868 -7.22055149635)
(-12.2121902112 -68.992442089 11.9768906907)
(-33.4377910164 -66.3253722472 9.64497816544)
(-49.4066089295 -61.564790773 7.90026268836)
(-61.5257306142 -56.8324287426 6.33179258568)
(-71.5820241738 -53.5981139643 4.91547422615)
(-80.8216428336 -52.1344026306 3.7820821803)
(-88.8326827998 -52.030481188 3.12282645615)
(-95.7358108464 -51.2329985552 2.85077972493)
(-100.734738462 -48.8069927512 2.21821960308)
(-103.897709626 -43.6769833003 1.56157301057)
(-106.127847227 -37.444489081 0.98683460374)
(-108.198010002 -31.078315378 -0.123143306255)
(-110.032565693 -26.0737257129 -0.89315093155)
(-108.450919522 -22.5181577756 -1.66938632659)
(-100.893656556 -18.4783300206 -2.07396152121)
(-87.2602191767 -12.7499622009 -3.04959983011)
(-68.7527717255 -6.25320163339 -4.16618135092)
(-48.844851564 -0.950863887001 -5.38021193439)
(-29.6707813799 2.23668755007 -6.12613578166)
(-10.228843847 3.2301624731 -6.89100091701)
(-11.9560256845 -80.7389848264 11.311641234)
(-32.4115774375 -76.1187778171 8.96614761692)
(-47.2282403077 -69.3722476763 7.23372031693)
(-58.4384409526 -63.6537416549 5.70752083609)
(-68.1951222826 -60.3520744405 4.3778487828)
(-77.6947751573 -59.4222255833 3.12066573197)
(-85.1537656985 -60.3863515328 2.10051132221)
(-90.5160568536 -60.3041314598 1.15183230491)
(-93.0329124236 -55.9796550252 0.159719125512)
(-94.5365932273 -45.6743550864 -0.190940691693)
(-96.8032144611 -34.819519691 -0.713017554924)
(-100.049646401 -25.7574347344 -1.41747543015)
(-103.889526978 -21.6945613234 -1.54753038984)
(-105.500391292 -22.8617672222 -2.06096067991)
(-101.432217792 -22.4159011616 -2.0244794745)
(-89.3908657051 -17.8146502743 -3.16338318237)
(-70.3440069258 -10.4514189481 -4.13378906197)
(-49.329132919 -3.42136574305 -4.93472288569)
(-29.4323293001 1.29396416231 -5.77085723547)
(-10.0472745324 3.09948545941 -6.56031675645)
(-11.549393402 -90.8858980752 10.4482819802)
(-31.0883369513 -84.8082029208 8.30416321126)
(-45.1016647487 -76.7582490653 6.73974194455)
(-55.8466729997 -70.4140888295 5.39036183492)
(-65.5763236153 -67.0896390898 4.36674907053)
(-75.6848099113 -66.5397053615 3.06632335935)
(-81.8950536385 -69.1719263742 1.63479664579)
(-83.6341621227 -70.8789383101 1.36047360704)
(-79.3935967964 -65.5144137671 0.586221248906)
(-75.4092108885 -50.8135614032 -0.06767032228)
(-77.6139800536 -33.2881093051 -1.15435095854)
(-86.6347555091 -14.8388912416 -2.04379191369)
(-100.791581362 -9.96664037338 -2.40126065899)
(-109.045490287 -19.2049498839 -3.42819804335)
(-105.418633505 -25.7772090401 -2.84142694554)
(-92.4844903263 -23.1868871039 -3.29321400088)
(-71.836531832 -15.0702811203 -4.0025665661)
(-49.7174021168 -6.53054680888 -4.68646270858)
(-29.3186631565 -0.536347999948 -5.37089765908)
(-9.92276899057 2.02645062261 -6.06903575046)
(-10.9277962484 -99.3331006437 9.41654766094)
(-29.456104291 -92.4250984325 7.52394899793)
(-42.9225447285 -83.3849440998 6.185849241)
(-53.5055132801 -76.1754800725 4.92490660214)
(-63.6667878216 -72.0722504397 3.88303660514)
(-76.0899241395 -70.6750645695 1.04738228374)
(-84.3208700192 -71.8943951817 -3.16147744738)
(-81.952095225 -71.321681746 -9.68139478082)
(-68.2905694617 -66.5209176474 -9.61679262941)
(-56.0328830293 -53.6499409359 -4.03029580106)
(-54.8098567538 -37.9214815348 2.80616013519)
(-70.2473423774 -22.2317773645 10.6758228553)
(-95.8000547427 -18.395529625 13.3184358068)
(-110.375332128 -24.6967139635 -0.0528390527515)
(-107.431563754 -31.0077162907 -1.3158380202)
(-91.5199841493 -28.216756793 -2.73575588088)
(-70.9672626316 -19.2689502833 -3.67667908638)
(-48.9544162288 -9.70930489083 -4.3129801535)
(-28.7612600135 -2.89944726872 -4.92206255773)
(-9.73002980123 0.0981161677762 -5.57251074749)
(-10.0695864996 -105.743367016 8.22083488396)
(-27.2787492314 -98.3183311248 6.60343320956)
(-39.926956451 -88.325240878 5.51250020163)
(-49.9750420638 -79.9099500984 4.49195875369)
(-59.8072090434 -74.1945103029 3.67626587171)
(-72.4262514243 -70.3659742006 0.657040133628)
(-80.7022973082 -67.5147429375 -4.30648712365)
(-75.3498220036 -60.9813854137 -13.2142315721)
(-54.8894682602 -55.6320744128 -12.0772029363)
(-36.5427204524 -47.4828116615 -3.7427737207)
(-35.4941591193 -39.932865525 4.10313352808)
(-56.4381872088 -34.5122981762 11.7799704412)
(-91.9378941925 -34.2802294698 12.3647261415)
(-112.213145952 -36.8054101621 0.488567777325)
(-109.491872691 -38.3327846041 -0.796361627171)
(-91.2759639346 -33.9014697784 -2.31630360603)
(-69.7593303202 -23.652944356 -3.27761100236)
(-47.6950335337 -13.2215627625 -3.88782584717)
(-27.9425693898 -5.95496269481 -4.45067004063)
(-9.48303953918 -2.72321597539 -5.08049555363)
(-9.06806264345 -109.967613184 6.93887271338)
(-24.6030839578 -102.198639509 5.58920756327)
(-36.0790448637 -91.4877614672 4.72274094693)
(-45.1890565162 -82.0372871386 3.99251727318)
(-54.0015961867 -74.7258309961 3.45540206453)
(-65.2598887744 -68.5531201802 0.639157056351)
(-72.4117271015 -60.9716077671 -4.25712298681)
(-67.0237317085 -48.9515560684 -12.5784730676)
(-46.1498895726 -44.0452722994 -11.3400499131)
(-28.6939032539 -45.3991015224 -3.3626336532)
(-29.356780702 -50.1100542186 4.23633562339)
(-50.6537030302 -56.7330055503 12.5784424253)
(-84.9111132419 -59.6751205304 13.820793883)
(-104.029908207 -56.9040284304 0.493289425922)
(-104.702200326 -50.6554625065 -0.366687630055)
(-87.2961869127 -42.053811756 -2.03113628777)
(-66.7773876254 -29.3205551859 -3.01636166127)
(-45.6010899359 -17.5610713818 -3.58640397014)
(-26.6872700149 -9.70014882265 -4.04051813001)
(-9.07561408795 -6.22208451932 -4.63859779014)
(-7.89030170112 -111.917380842 5.37912395086)
(-21.4900839972 -104.002769573 4.37329171959)
(-31.5208104993 -92.9551000524 3.76966336047)
(-39.2913326992 -82.9011545293 3.39514400242)
(-46.4853582559 -74.7398482819 3.19015717752)
(-54.5835279503 -67.8008300543 1.09832262119)
(-58.1864907215 -57.592071337 -2.39926249191)
(-54.9755118922 -44.134775249 -8.37181264477)
(-41.7176690621 -40.4541558828 -7.60688541496)
(-30.5975650289 -48.8192140986 -1.85763306666)
(-32.904058516 -61.0692990643 4.87482606541)
(-50.9015106036 -75.2622575047 11.4123703082)
(-77.8997038452 -79.777335825 11.980215741)
(-95.0764230059 -72.5645441919 2.30920583488)
(-96.4616905755 -61.9157878532 -0.0334389141712)
(-81.1755147086 -49.6824386575 -1.82536332289)
(-62.3047600139 -34.7335235046 -2.86529889288)
(-42.598398532 -21.8657643034 -3.34476062681)
(-25.0081416202 -13.6169680641 -3.68609177768)
(-8.56690477147 -10.0114682316 -4.23679007113)
(-6.69978920849 -111.542434067 3.82402092388)
(-18.3131258947 -104.02233068 3.06195697237)
(-26.865403103 -93.208634139 2.6451894368)
(-33.3775908232 -82.9970398505 2.52534734695)
(-39.5218932845 -74.5781406096 2.43049715404)
(-45.1855733271 -67.2481271454 1.55873495486)
(-49.4096617714 -58.3475744452 1.27918321448)
(-47.589135756 -52.4530935271 -2.02785657276)
(-40.366193344 -48.6934779283 -1.07175333297)
(-36.5623760335 -56.6540326728 1.07795845272)
(-39.4191920022 -67.7328192703 2.64547534092)
(-51.3744478709 -81.0140775098 3.06597943365)
(-66.7557519331 -84.4775172015 2.10747945665)
(-78.2536756132 -79.9915849383 0.665361385344)
(-81.7064382926 -67.6508227904 -1.04293543098)
(-71.3611142512 -53.4913909528 -2.39115116243)
(-55.8036549709 -37.8335140343 -3.12618468172)
(-38.6897874846 -25.0333196785 -3.31018505073)
(-22.9530156139 -17.0033844206 -3.46353482345)
(-7.94676585982 -13.506761305 -3.94489469105)
(-5.47907907891 -108.788238999 2.19837818755)
(-15.2255593693 -102.647976974 1.62279221742)
(-22.3805985659 -92.8889492879 1.41421773585)
(-27.5730273221 -83.1235861588 1.51983623703)
(-31.8414342316 -74.9330625358 1.81816836477)
(-34.8937891655 -67.715876406 1.85302712932)
(-36.1849927695 -61.0614227058 2.35175711301)
(-36.6796154378 -55.8347410822 2.29411736376)
(-36.7659869149 -55.3060945316 2.48237156195)
(-37.9652252439 -59.7232429368 2.46592695063)
(-42.3580908665 -66.9563488765 2.07125546344)
(-50.875779875 -74.7120232032 1.15955166864)
(-59.8500455238 -76.6428341104 -0.132272858888)
(-66.8018612253 -74.7741548729 -0.823068839799)
(-68.4504766506 -64.699587864 -2.01076297331)
(-60.8452056542 -51.3093911696 -2.95329551147)
(-48.3072082326 -37.2945505774 -3.30615555652)
(-34.1042467968 -26.1512604076 -3.18743050698)
(-20.6110187945 -19.2467642012 -3.27599598519)
(-7.27761934537 -16.2829441759 -3.73449137326)
(-4.36736521204 -103.237393829 0.508135093627)
(-12.455719189 -99.0353008907 0.185731949095)
(-18.4506839837 -91.302354679 0.0281371922875)
(-22.7878561746 -82.6775244416 0.150369365234)
(-26.2628937196 -75.1922484168 0.453921580761)
(-29.0516150861 -69.2663127993 0.647016182986)
(-31.4276567866 -65.137658792 0.809902557327)
(-33.2320732816 -63.2484919985 0.204748748497)
(-34.5254863744 -63.0059129492 -0.0249750804857)
(-36.5511407272 -64.6331235165 -0.328296163035)
(-40.3515022127 -67.385759361 -0.856113370501)
(-45.8615350062 -69.6601912324 -1.54465190456)
(-51.1529885484 -68.816169937 -2.31584437365)
(-55.0024877915 -65.4006476453 -2.72058318064)
(-55.2491460961 -56.6196375681 -3.16337533719)
(-49.6805622814 -45.2268572504 -3.36513462242)
(-40.1876525508 -34.0910220959 -3.26495175488)
(-29.108612683 -25.5033257138 -2.99230692759)
(-18.1472524488 -20.2448110588 -3.08866768275)
(-6.54930220431 -18.0055357751 -3.6178914247)
(-3.36939559954 -94.4419345779 -1.09350282252)
(-9.91259965745 -91.8880274142 -1.2040911004)
(-15.028071164 -86.7869406705 -1.33675749128)
(-18.7449647066 -79.9793375871 -1.25256765826)
(-21.6689793065 -73.4470652964 -0.996859622703)
(-24.1574743071 -68.0127657402 -0.716746070803)
(-26.5553110353 -63.975798607 -0.448717966677)
(-28.8563712013 -61.1899450985 -0.536615397474)
(-31.0810812874 -59.6084580116 -0.647050129433)
(-33.7177054599 -59.168988643 -0.956102222075)
(-36.9954076696 -59.2505684428 -1.40023626315)
(-40.6537945354 -58.6909863465 -2.0289193611)
(-43.7304478565 -56.6607039259 -2.65276163784)
(-45.4505015321 -52.9449906389 -3.01012258005)
(-44.6241783601 -46.146568876 -3.21214916612)
(-40.2248748069 -37.7021837052 -3.14590957459)
(-33.1264729998 -29.775555087 -2.99727930104)
(-24.6449383627 -23.8197809221 -2.85856396389)
(-15.8732434081 -20.1657516014 -3.03578498527)
(-5.85746999629 -18.5613904679 -3.59417801391)
(-2.5158334269 -82.5525471951 -2.58261704686)
(-7.64960429524 -80.8353731851 -2.4890212223)
(-12.0332994902 -77.8620713873 -2.55273075505)
(-15.4435171587 -73.4217065758 -2.47070547626)
(-18.1159171326 -68.3955371137 -2.27919315029)
(-20.4815373416 -63.7863281574 -2.0310545074)
(-22.8745746048 -60.0106395835 -1.77540198289)
(-25.2863790293 -56.9677499944 -1.67696411745)
(-27.6873185075 -54.5909486875 -1.63068687556)
(-30.2343455305 -52.6767486454 -1.66168833875)
(-32.8832141421 -50.8254697045 -1.91111523501)
(-35.3820626347 -48.6035549934 -2.22702873551)
(-37.1914259462 -45.6603920862 -2.58626380184)
(-37.8305130655 -41.8342673138 -2.8110480946)
(-36.641397832 -36.57978454 -2.87455395244)
(-33.160869238 -30.7088345019 -2.8358746575)
(-27.796940628 -25.4451410372 -2.83570840048)
(-21.1873115365 -21.5289417286 -2.89652100086)
(-13.973148167 -19.0396404937 -3.17081823337)
(-5.23522368497 -17.8493777134 -3.72438844379)
(-1.84519242176 -67.9137701478 -3.87205924612)
(-5.84539421004 -66.6234054934 -3.6670719078)
(-9.4269738554 -64.6668645766 -3.56117467851)
(-12.5552285032 -61.9809072414 -3.38034189677)
(-15.1985818628 -58.7019827248 -3.19018476805)
(-17.5174267831 -55.1964358628 -2.92680390519)
(-19.7935006776 -51.8851995941 -2.62455995153)
(-22.12940298 -48.8299478383 -2.38502097768)
(-24.4670419157 -46.0794612388 -2.18350229302)
(-26.8162105367 -43.5337754735 -2.12812494743)
(-29.0816415085 -41.0291285349 -2.16357616297)
(-31.0207860664 -38.36189266 -2.28043455318)
(-32.2607123114 -35.4230941076 -2.43073077417)
(-32.4533634152 -32.1301137373 -2.54215571676)
(-31.2655230868 -28.3243967782 -2.59004677268)
(-28.5044218243 -24.446883368 -2.73802733515)
(-24.2192610027 -21.076832159 -2.93149575437)
(-18.6865778866 -18.5149742203 -3.12184659195)
(-12.4529009013 -16.7183403117 -3.38008816866)
(-4.7090551714 -15.7579271979 -3.88161558029)
(-1.40050757511 -50.8556007133 -4.90486736402)
(-4.61149509035 -50.0348264691 -4.60581892676)
(-7.52354115643 -48.7617360852 -4.42918612977)
(-10.149397847 -46.9967059233 -4.13870089239)
(-12.5782583851 -44.8578572351 -3.82956306689)
(-14.8617763616 -42.4724438525 -3.51321750705)
(-17.1022286947 -40.0354231698 -3.16714945948)
(-19.3428245226 -37.5763299311 -2.83077095464)
(-21.6157695008 -35.2272650906 -2.5638640317)
(-23.8966879008 -32.9519777902 -2.37062710439)
(-26.0024902099 -30.711986603 -2.27163758422)
(-27.7536841218 -28.4211053691 -2.26986077932)
(-28.8484405979 -26.0241343955 -2.33383156282)
(-28.9911827247 -23.5330267934 -2.47125566894)
(-27.9617482749 -20.9657064232 -2.62601336496)
(-25.5966096241 -18.4827598839 -2.87956149264)
(-21.8582544341 -16.3049561801 -3.15290335079)
(-16.8891257083 -14.5335167398 -3.36642695382)
(-11.2506147366 -13.2024542317 -3.55786342692)
(-4.25826586221 -12.3706143978 -3.99551414345)
(-1.22231025649 -31.7270893935 -5.64968084782)
(-3.99954779461 -31.4354639309 -5.40762367583)
(-6.45557037849 -30.8749456537 -5.28155313048)
(-8.69101544283 -29.9920647247 -5.04460922611)
(-10.822930379 -28.8539773346 -4.73072526014)
(-12.945615661 -27.5105646638 -4.34603452351)
(-15.1022490581 -26.0444033037 -3.93990027485)
(-17.3292213949 -24.5396033725 -3.56344189304)
(-19.5903341203 -23.0470459253 -3.22682124947)
(-21.8416893998 -21.5553470454 -2.96377638591)
(-23.938851447 -20.0549073412 -2.78165413267)
(-25.6365571681 -18.5430348993 -2.68885448669)
(-26.6790813974 -16.9754246988 -2.72634777433)
(-26.8493290031 -15.4034003757 -2.84278022613)
(-25.9309889204 -13.8389129813 -3.0133106454)
(-23.747759026 -12.3257710311 -3.23974707619)
(-20.2540861256 -10.9560140254 -3.48680541018)
(-15.5999865955 -9.78719847293 -3.62973320486)
(-10.2971697152 -8.84544280688 -3.77300009597)
(-3.83170541625 -7.99505527164 -4.00253601101)
(-1.33776677661 -10.7904822211 -6.13346904619)
(-4.05616937944 -10.79290089 -6.29735273244)
(-6.25953581172 -10.7071676178 -6.33710112777)
(-8.28549888461 -10.5102693777 -6.21092899984)
(-10.2323415534 -10.2170416437 -5.968276536)
(-12.1858710572 -9.82907460981 -5.66585078826)
(-14.2577820605 -9.36790905741 -5.29216023207)
(-16.4340673921 -8.90247227849 -4.90623447732)
(-18.643953865 -8.40154314347 -4.55500621079)
(-20.8612998038 -7.90075288084 -4.223920583)
(-22.9062318422 -7.37585928377 -3.98534030038)
(-24.5728504837 -6.83968307691 -3.82545969507)
(-25.5915501345 -6.28862736928 -3.72219385648)
(-25.7473945159 -5.73887094424 -3.70940979461)
(-24.8236911662 -5.19672937045 -3.74131023513)
(-22.6926783594 -4.65797210984 -3.83495667751)
(-19.3199730885 -4.1526393473 -3.93908049938)
(-14.7931204753 -3.70316263596 -4.03083513729)
(-9.45030373721 -3.29758055833 -4.00273693299)
(-3.31634528188 -2.79505080104 -3.96875368979)
(-10.8886511274 -8.30273041132 39.3812439746)
(-32.5845222141 -8.19804229302 38.7131432644)
(-52.895429494 -8.31198316122 37.6727702381)
(-71.5163462481 -8.31880930738 35.9222822132)
(-87.8715866358 -8.18235470913 33.3855492885)
(-101.405725549 -7.88179909162 30.1259288296)
(-112.06234025 -7.44502578377 26.3824585882)
(-119.983465527 -6.88464383764 22.3071440687)
(-125.122365886 -6.17615260903 17.946095841)
(-127.364135952 -5.31665932883 13.3007391112)
(-126.751722713 -4.34490414567 8.52053588993)
(-123.43869033 -3.35191547743 3.77542697433)
(-117.513421187 -2.37571916831 -0.849617871884)
(-109.048300289 -1.51569654949 -5.27565975911)
(-98.2699454232 -0.77041254006 -9.37132305804)
(-84.8269799652 -0.236775758967 -13.1242315754)
(-68.9682269907 0.185768775515 -16.2477214925)
(-51.2529607728 0.455716115103 -18.7235837365)
(-31.792408196 0.498305751922 -20.5338510126)
(-10.7026623198 0.194917020193 -21.669555493)
(-10.8131009691 -25.0237413109 39.0651171751)
(-32.4692770489 -24.88578142 36.5822682941)
(-52.6144463991 -24.9411257937 34.7428694651)
(-70.5244618657 -24.5545511872 32.5969819553)
(-85.8150863299 -23.7563725236 29.806009405)
(-98.3869270696 -22.7176308142 26.4885160404)
(-108.28257153 -21.4942792616 22.8366662734)
(-115.682709334 -19.9415762522 19.0002029203)
(-120.512575818 -18.0046167957 14.8933874735)
(-122.559505916 -15.5654715878 10.5536986312)
(-121.966793615 -12.7727967604 6.16030873863)
(-118.842001349 -9.85743831067 1.81632459415)
(-113.310785214 -7.00679952101 -2.32475043776)
(-105.323308653 -4.51751208635 -6.2986678163)
(-95.1107009677 -2.44598624337 -10.0375405576)
(-82.3792812213 -0.784270880138 -13.8493431646)
(-67.26768291 0.12934989469 -16.5870364855)
(-50.1691995911 0.802430735618 -18.9163200792)
(-30.934765268 1.10236608546 -20.6722188685)
(-10.2247857016 0.675152289229 -21.909901318)
(-10.9614134979 -40.8956729189 38.6133552672)
(-32.5950522735 -40.5370278035 35.3797744213)
(-52.2010504553 -39.8861520042 32.9404139415)
(-69.3399354524 -38.5628090842 30.4926650942)
(-83.9491644717 -36.9481595256 27.6239790441)
(-95.8811842719 -35.2055912263 24.2909428568)
(-105.042823356 -33.3235696519 20.6797779639)
(-111.736690623 -30.8383846213 17.0013807807)
(-115.991582728 -27.7445788411 13.0152153744)
(-117.556883247 -23.7125095859 8.85873686375)
(-116.77712495 -19.0803336368 4.72395455797)
(-113.798814321 -14.2532078521 0.753119900228)
(-108.773086089 -9.73178353399 -2.86957547166)
(-101.425750684 -5.91418919794 -6.43294882893)
(-91.6513467088 -2.68830156968 -9.91164872152)
(-79.6477736984 -0.341563183422 -13.1227043363)
(-65.35314015 0.947232409729 -16.0132182801)
(-48.8455624872 1.71687160585 -18.5245828099)
(-30.2909228221 2.05531985911 -20.5096594274)
(-10.0195491773 1.83007762576 -21.8950749315)
(-10.9774168093 -55.8398332898 37.6863029451)
(-32.3975419803 -54.7591116357 34.2498700357)
(-51.5093680559 -53.1202367803 31.634260971)
(-68.2317935298 -50.948544273 29.2090402053)
(-82.5093842987 -48.6459625199 26.4223777418)
(-94.0934303224 -46.4873234428 23.2019099351)
(-102.500857062 -44.3638926849 19.6849001755)
(-108.275788427 -41.0323884756 16.1459374947)
(-111.535274655 -36.7149572427 12.0667953362)
(-112.259431711 -30.7102648844 7.87152687901)
(-111.122463644 -23.7290864804 3.87065341713)
(-108.352858005 -16.8929193465 0.207137662699)
(-104.042778425 -10.7381294099 -2.82319399354)
(-97.4326827164 -6.02512874374 -6.12726273957)
(-88.4529559084 -2.00112386441 -8.91440408017)
(-77.2470121547 0.528543293888 -11.9162991575)
(-63.5295727213 2.13633202541 -14.7607652006)
(-47.6010172145 3.02513015876 -17.3974151276)
(-29.6416567105 3.29982317797 -19.7685267791)
(-9.8776054999 3.04637603875 -21.4630017359)
(-10.8639685282 -69.5239405693 36.2109290747)
(-31.9353101748 -67.7845552678 32.8402653714)
(-50.7557883781 -65.3849107612 30.3970912688)
(-67.3075448464 -62.6213891301 28.1703457003)
(-81.5823947896 -60.0304938446 25.5571062153)
(-93.2885738304 -58.0610732633 22.5427956075)
(-100.879640755 -56.736630085 19.05022627)
(-105.351112568 -53.2759108524 15.4306480421)
(-106.825164638 -47.7386510729 10.9097707713)
(-106.087927897 -38.9111629662 6.45943999483)
(-104.51911728 -29.6190649396 2.08035419136)
(-102.332328914 -20.3659371318 -1.55278510262)
(-99.2334798062 -12.5025779873 -3.83692857552)
(-93.8952306436 -6.51459822467 -6.33650648918)
(-85.8402313604 -1.47026325971 -8.18841020281)
(-75.2871728763 1.29255925649 -10.8026599741)
(-62.0177534116 2.93204195794 -13.4679102809)
(-46.5560647133 3.83585028648 -15.9961082542)
(-29.0671085372 4.22409511651 -18.5500573123)
(-9.70821888653 3.91291640188 -20.583944948)
(-10.6579830067 -81.9521233349 34.2542814396)
(-31.2642835749 -79.7063752706 31.0804503908)
(-49.8705668345 -76.8234631529 28.8813163998)
(-66.4383533636 -73.5553321038 26.7913807215)
(-81.16037861 -70.7311070867 24.4121835524)
(-93.9733991739 -69.0014043964 21.3565840393)
(-101.401552375 -68.7925292476 17.2407511343)
(-103.957741471 -65.864072096 12.5401089266)
(-101.687138333 -57.6473599558 6.52547514325)
(-97.9775886683 -44.1752812994 1.2382799329)
(-95.7313632919 -30.3676025076 -2.80040016473)
(-94.202889417 -17.3648695651 -5.18955213236)
(-92.6670967226 -8.29650458125 -5.33264312338)
(-88.9133231742 -3.4148689494 -7.37975462909)
(-82.4277842498 -0.0535053092375 -7.81304965926)
(-73.2360697675 1.75616390327 -9.7249393716)
(-60.6889010604 3.06989038209 -12.1633317207)
(-45.6965596273 3.90133430419 -14.7668000616)
(-28.6015878972 4.38850955917 -17.199736018)
(-9.59267519566 4.1443888926 -19.4448106813)
(-10.3033346649 -92.90930379 31.7054957786)
(-30.2955534939 -90.4976315164 28.8556844215)
(-48.5107885921 -87.4067824419 26.8956748068)
(-64.8674239738 -83.9273920095 24.9686551399)
(-79.8097762849 -80.9606483078 22.9013711604)
(-93.9658466465 -79.6043136707 19.6609115557)
(-103.121961422 -81.9617784766 14.4303569127)
(-100.546791815 -91.4244460994 6.1552566173)
(-89.5487145142 -78.1979286242 -0.704144751947)
(-82.1456623399 -51.6798106877 -5.52352134881)
(-80.2988275559 -23.3472418577 -11.9245589798)
(-82.1422237377 2.48373983538 -13.3036283018)
(-85.5765396662 11.203053865 -10.2219735977)
(-87.3471024266 1.73202087908 -10.2355304743)
(-82.2313507574 -0.262273106337 -7.99248153824)
(-73.126948583 0.445418754369 -9.21310849802)
(-60.2611659113 1.58773172782 -11.2196158319)
(-45.2019681825 2.56305420358 -13.5774687339)
(-28.2535394036 3.30773147966 -15.7634128209)
(-9.47997367848 3.35800844603 -18.0297981202)
(-9.80697053474 -101.864578545 28.5401235777)
(-28.9350299561 -99.3334375034 25.9445306193)
(-46.5631050842 -95.9292070154 24.0808441269)
(-62.778239699 -91.9231817863 22.1446093904)
(-78.5254505328 -88.0518503332 20.0021285196)
(-96.7403394812 -85.1746144545 16.4340871654)
(-121.531575681 -84.6450956941 10.0338408843)
(-107.106437124 -93.2660313114 -51.4528611806)
(-70.2907511488 -79.0416898377 -39.2133297304)
(-47.0994904636 -50.8501731988 -14.2215951047)
(-42.9476881029 -20.7818427551 11.431977359)
(-58.420191306 6.66983149611 41.1095230822)
(-90.6587762665 15.1630716269 55.3633858872)
(-102.205027941 3.7989661699 0.61948565915)
(-85.3497170706 -2.59936365326 -4.99833335659)
(-72.1728598751 -2.37578049677 -7.76647268519)
(-59.0171953888 -1.18297013592 -10.076881218)
(-44.1911352716 0.0702760002727 -12.3581961143)
(-27.6011484963 1.14909914135 -14.3364561053)
(-9.2668345771 1.45854190668 -16.5478503698)
(-9.11337226677 -108.562884587 24.8528494423)
(-26.9321845801 -105.757274112 22.5166485475)
(-43.3837939836 -101.780845999 20.7911588725)
(-58.5871342696 -96.762630448 18.9815843492)
(-73.7182619392 -91.1380308065 17.1503823906)
(-91.3997946954 -85.0757840013 13.5191724534)
(-119.164365983 -78.1230473394 8.17329123434)
(-100.050402325 -74.8697867853 -58.8604446407)
(-52.7101032712 -61.8971841249 -43.9608658433)
(-25.3178170937 -44.5574892788 -12.7167668412)
(-23.6386997801 -29.7714518739 14.576441898)
(-45.7089898295 -16.6693302123 44.708645952)
(-88.5042734811 -9.69911804564 60.3694502885)
(-104.678350651 -6.55253037844 4.15472761814)
(-86.5371003589 -7.96283610232 -2.93878617281)
(-71.4232153687 -6.84702704516 -6.37247408161)
(-57.624592057 -5.13229172012 -8.87807923684)
(-42.866263202 -3.37421063194 -11.0737022536)
(-26.7457615701 -1.92303226688 -12.8840512577)
(-8.99869774009 -1.36897026237 -15.0628000825)
(-8.24411936838 -113.007544219 20.7240669885)
(-24.4010151384 -109.981203097 18.6588278439)
(-39.2686234259 -105.526128286 17.1016924896)
(-52.9878031587 -99.6299345201 15.4806103635)
(-66.7230636778 -92.4417741377 13.849815763)
(-82.7825370302 -83.4600659803 10.4580387223)
(-108.699963363 -70.6616891856 4.47316118373)
(-89.9524329161 -58.5979396121 -58.8582388184)
(-42.7819746576 -46.8475343599 -43.2944353741)
(-17.0250558536 -42.6711177804 -12.9539643811)
(-16.5150464172 -39.1956938655 14.4806700349)
(-39.4424380974 -36.7571311243 46.8919400058)
(-82.1459851505 -31.5559885972 61.7428932308)
(-99.3049836921 -20.9476545423 6.95470038337)
(-82.7412143635 -17.4008620517 -1.45339773564)
(-68.1353372278 -13.6996951561 -5.40140769656)
(-54.90594038 -10.5401674773 -7.93946637261)
(-40.7944525815 -7.87281321919 -9.99577214885)
(-25.4275104316 -5.83681067873 -11.6051544304)
(-8.5560298429 -4.93952335622 -13.6901280143)
(-7.23053422572 -115.111645713 16.1777341387)
(-21.4203846413 -111.957240594 14.477442943)
(-34.3422710023 -107.29016669 13.1523821825)
(-46.0321702078 -100.930262563 11.8369291043)
(-57.5456429394 -92.8448801228 10.5712127541)
(-69.8558087337 -81.5932343523 8.14767174404)
(-91.4203024326 -64.0525354186 3.45072350768)
(-74.0413445252 -36.2658222636 -54.7287730145)
(-36.0952487669 -28.4976660095 -38.527325489)
(-17.64800415 -37.0263214246 -9.54570787488)
(-18.9522449414 -46.4556845976 16.3309251968)
(-39.6529682774 -55.9472591142 44.1229129867)
(-75.1736229838 -52.9903785498 56.3876535436)
(-87.8003705887 -35.3305539764 8.1267109578)
(-76.3852471925 -26.0900607771 -0.791037971351)
(-63.3043923809 -20.6332344577 -4.8210623193)
(-51.1223349169 -16.2407758698 -7.30903556513)
(-37.937815259 -12.6692533088 -9.1684681352)
(-23.676101516 -10.050521724 -10.5666149814)
(-7.99747220944 -8.83875187868 -12.5214846197)
(-6.16088420064 -114.75461006 11.325833532)
(-18.3263729655 -111.910758067 9.96363880419)
(-29.2808824116 -107.548109955 8.82954812411)
(-38.9597567679 -101.366618502 7.7463370457)
(-47.7228370368 -93.2903588308 6.75401554815)
(-54.7261167944 -81.8297737284 6.3803168049)
(-58.4822677624 -65.7920971527 8.02119184033)
(-52.4349199368 -36.4632264754 8.89032732322)
(-41.1092561391 -32.9261792094 12.1197552579)