/*--------------------------------*- C++ -*----------------------------------*\
| =========                 |                                                 |
| \\      /  F ield         | OpenFOAM: The Open Source CFD Toolbox           |
|  \\    /   O peration     | Version:  v1606+                                |
|   \\  /    A nd           | Web:      www.OpenFOAM.com                      |
|    \\/     M anipulation  |                                                 |
\*---------------------------------------------------------------------------*/
FoamFile
{
    version     2.0;
    format      ascii;
    class       pointVectorField;
    location    "3.3";
    object      pointDisplacement;
}
// * * * * * * * * * * * * * * * * * * * * * * * * * * * * * * * * * * * * * //

dimensions      [0 1 0 0 0 0 0];

internalField   nonuniform List<vector> 
13461
(
(0 0 0)
(0 0 0)
(0 0 0)
(0 0 0)
(0 0 0)
(0 0 0)
(0 0 0)
(0 0 0)
(0 0 0)
(0 0 0)
(0 0 0)
(0 0 0)
(0 0 0)
(0 0 0)
(0 0 0)
(0 0 0)
(0 0 0)
(0 0 0)
(0 0 0)
(0 0 0)
(0 0 0)
(0 0 0)
(0 0 0)
(0 0 0)
(0 0 0)
(0 0 0)
(0 0 0)
(0 0 0)
(0 0 0)
(0 0 0)
(0 0 0)
(0 0 0)
(0 0 0)
(0 0 0)
(0 0 0)
(0 0 0)
(0 0 0)
(0 0 0)
(0 0 0)
(0 0 0)
(0 0 0)
(0 0 0)
(0 0 0)
(0 0 0)
(0 0 0)
(0 0 0)
(0 0 0)
(0 0 0)
(0 0 0)
(0 0 0)
(0 0 0)
(0 0 0)
(0 0 0)
(0 0 0)
(0 0 0)
(0 0 0)
(0 0 0)
(0 0 0)
(0 0 0)
(0 0 0)
(0 0 0)
(0 0 0)
(0 0 0)
(0 0 0)
(0 0 0)
(0 0 0)
(0 0 0)
(0 0 0)
(0 0 0)
(0 0 0)
(0 0 0)
(0 0 0)
(0 0 0)
(0 0 0)
(0 0 0)
(0 0 0)
(0 0 0)
(0 0 0)
(0 0 0)
(0 0 0)
(0 0 0)
(0 0 0)
(0 0 0)
(0 0 0)
(0 0 0)
(0 0 0)
(0 0 0)
(0 0 0)
(0 0 0)
(0 0 0)
(0 0 0)
(0 0 0)
(0 0 0)
(0 0 0)
(0 0 0)
(0 0 0)
(0 0 0)
(0 0 0)
(0 0 0)
(0 0 0)
(0 0 0)
(0 0 0)
(0 0 0)
(0 0 0)
(0 0 0)
(0 0 0)
(0 0 0)
(0 0 0)
(0 0 0)
(0 0 0)
(0 0 0)
(0 0 0)
(0 0 0)
(0 0 0)
(0 0 0)
(0 0 0)
(0 0 0)
(0 0 0)
(0 0 0)
(0 0 0)
(0 0 0)
(0 0 0)
(0 0 0)
(0 0 0)
(0 0 0)
(0 0 0)
(0 0 0)
(0 0 0)
(0 0 0)
(0 0 0)
(0 0 0)
(0 0 0)
(0 0 0)
(0 0 0)
(0 0 0)
(0 0 0)
(0 0 0)
(0 0 0)
(0 0 0)
(0 0 0)
(0 0 0)
(0 0 0)
(0 0 0)
(0 0 0)
(0 0 0)
(0 0 0)
(0 0 0)
(0 0 0)
(0 0 0)
(0 0 0)
(0 0 0)
(0 0 0)
(0 0 0)
(0 0 0)
(0 0 0)
(0 0 0)
(0 0 0)
(0 0 0)
(0 0 0)
(0 0 0)
(0 0 0)
(0 0 0)
(0 0 0)
(0 0 0)
(0 0 0)
(0 0 0)
(0 0 0)
(0 0 0)
(0 0 0)
(0 0 0)
(0 0 0)
(0 0 0)
(0 0 0)
(0 0 0)
(0 0 0)
(0 0 0)
(0 0 0)
(0 0 0)
(0 0 0)
(0 0 0)
(0 0 0)
(0 0 0)
(0 0 0)
(0 0 0)
(0 0 0)
(0 0 0)
(0 0 0)
(0 0 0)
(0 0 0)
(0 0 0)
(0 0 0)
(0 0 0)
(0 0 0)
(0 0 0)
(0 0 0)
(0 0 0)
(0 0 0)
(0 0 0)
(0 0 0)
(0 0 0)
(0 0 0)
(0 0 0)
(0 0 0)
(0 0 0)
(0 0 0)
(0 0 0)
(0 0 0)
(0 0 0)
(0 0 0)
(0 0 0)
(0 0 0)
(0 0 0)
(0 0 0)
(0 0 0)
(0 0 0)
(0 0 0)
(0 0 0)
(0 0 0)
(0 0 0)
(0 0 0)
(0 0 0)
(0 0 0)
(0 0 0)
(0 0 0)
(0 0 0)
(0 0 0)
(0 0 0)
(0 0 0)
(0 0 0)
(0 0 0)
(0 0 0)
(0 0 0)
(0 0 0)
(0 0 0)
(0 0 0)
(0 0 0)
(0 0 0)
(0 0 0)
(0 0 0)
(0 0 0)
(0 0 0)
(0 0 0)
(0 0 0)
(0 0 0)
(0 0 0)
(0 0 0)
(0 0 0)
(0 0 0)
(0 0 0)
(0 0 0)
(0 0 0)
(0 0 0)
(0 0 0)
(0 0 0)
(0 0 0)
(0 0 0)
(0 0 0)
(0 0 0)
(0 0 0)
(0 0 0)
(0 0 0)
(0 0 0)
(0 0 0)
(0 0 0)
(0 0 0)
(0 0 0)
(0 0 0)
(0 0 0)
(0 0 0)
(0 0 0)
(0 0 0)
(0 0 0)
(0 0 0)
(0 0 0)
(0 0 0)
(0 0 0)
(0 0 0)
(0 0 0)
(0 0 0)
(0 0 0)
(0 0 0)
(0 0 0)
(0 0 0)
(0 0 0)
(0 0 0)
(0 0 0)
(0 0 0)
(0 0 0)
(0 0 0)
(0 0 0)
(0 0 0)
(0 0 0)
(0 0 0)
(0 0 0)
(0 0 0)
(0 0 0)
(0 0 0)
(0 0 0)
(0 0 0)
(0 0 0)
(0 0 0)
(0 0 0)
(0 0 0)
(0 0 0)
(0 0 0)
(0 0 0)
(0 0 0)
(0 0 0)
(0 0 0)
(0 0 0)
(0 0 0)
(0 0 0)
(0 0 0)
(0 0 0)
(0 0 0)
(0 0 0)
(0 0 0)
(0 0 0)
(0 0 0)
(0 0 0)
(0 0 0)
(0 0 0)
(0 0 0)
(0 0 0)
(0 0 0)
(0 0 0)
(0 0 0)
(0 0 0)
(0 0 0)
(0 0 0)
(0 0 0)
(0 0 0)
(0 0 0)
(0 0 0)
(0 0 0)
(0 0 0)
(0 0 0)
(0 0 0)
(0 0 0)
(0 0 0)
(0 0 0)
(0 0 0)
(0 0 0)
(0 0 0)
(0 0 0)
(0 0 0)
(0 0 0)
(0 0 0)
(0 0 0)
(0 0 0)
(0 0 0)
(0 0 0)
(0 0 0)
(0 0 0)
(0 0 0)
(0 0 0)
(0 0 0)
(0 0 0)
(0 0 0)
(0 0 0)
(0 0 0)
(0 0 0)
(0 0 0)
(0 0 0)
(0 0 0)
(0 0 0)
(0 0 0)
(0 0 0)
(0 0 0)
(0 0 0)
(0 0 0)
(0 0 0)
(0 0 0)
(0 0 0)
(0 0 0)
(0 0 0)
(0 0 0)
(0 0 0)
(0 0 0)
(0 0 0)
(0 0 0)
(0 0 0)
(0 0 0)
(0 0 0)
(0 0 0)
(0 0 0)
(0 0 0)
(0 0 0)
(0 0 0)
(0 0 0)
(0 0 0)
(0 0 0)
(0 0 0)
(0 0 0)
(0 0 0)
(0 0 0)
(0 0 0)
(0 0 0)
(0 0 0)
(0 0 0)
(0 0 0)
(0 0 0)
(0 0 0)
(0 0 0)
(0 0 0)
(0 0 0)
(0 0 0)
(0 0 0)
(0 0 0)
(0 0 0)
(0 0 0)
(0 0 0)
(0 0 0)
(0 0 0)
(0 0 0)
(0 0 0)
(0 0 0)
(0 0 0)
(0 0 0)
(0 0 0)
(0 0 0)
(0 0 0)
(0 0 0)
(0 0 0)
(0 0 0)
(0 0 0)
(0 0 0)
(0 0 0)
(0 0 0)
(0 0 0)
(0 0 0)
(0 0 0)
(0 0 0)
(0 0 0)
(0 0 0)
(0 0 0)
(0 0 0)
(0 0 0)
(0 0 0)
(0 0 0)
(0 0 0)
(0 0 0)
(0 0 0)
(0 0 0)
(0 0 0)
(0 0 0)
(0 0 0)
(0 0 0)
(0 0 0)
(0 0 0)
(0 0 0)
(0 0 0)
(0 0 0)
(0 0 0)
(0 0 0)
(0 0 0)
(0 0 0)
(0 0 0)
(0 0 0)
(0 0 0)
(0 0 0)
(0 0 0)
(0 0 0)
(0 0 0)
(0 0 0)
(0 0 0)
(-7.22365388622e-06 -1.27493754097e-05 2.7021896249e-05)
(-7.97956556259e-05 -0.000141439304991 0.000249433983389)
(-0.000163731057403 -0.000291492982031 0.000410338947203)
(-0.000198929762493 -0.000354576820063 0.000372825241059)
(-0.000199089598297 -0.000354576820063 0.000246399156708)
(-0.0001992494341 -0.000354576820063 0.000119973072356)
(-0.000199409269904 -0.000354576820063 -6.45301199494e-06)
(-0.000199569105707 -0.000354576820063 -0.000132879096346)
(-0.000199728941511 -0.000354576820063 -0.000259305180698)
(-0.000199888777314 -0.000354576820063 -0.000385731265049)
(-0.000164595228337 -0.000291492982031 -0.000421127228336)
(-8.00499834108e-05 -0.000141439304991 -0.000254875168083)
(-7.22613366344e-06 -1.27493754097e-05 -2.75283812121e-05)
(0 0 0)
(0 0 0)
(0 0 0)
(0 0 0)
(0 0 0)
(0 0 0)
(0 0 0)
(-5.87063047458e-05 -0.000103976040042 0.00025749340687)
(-0.000279051880766 -0.000501245371313 0.00106356111179)
(-0.000544801422277 -0.000994142227221 0.00175728319409)
(-0.000749401457038 -0.00138159464644 0.00195207381514)
(-0.000827144168079 -0.00152669012245 0.00161377929362)
(-0.000830107300909 -0.00152669012245 0.00106944070153)
(-0.000833070433739 -0.00152669012245 0.000525102109436)
(-0.000836033566569 -0.00152669012245 -1.92364826544e-05)
(-0.000838996699399 -0.00152669012245 -0.000563575074745)
(-0.000841959832229 -0.00152669012245 -0.00110791366683)
(-0.000844922965059 -0.00152669012245 -0.00165225225893)
(-0.000768814846883 -0.00138159464644 -0.00198878078707)
(-0.000557366027337 -0.000994142227221 -0.00178735320334)
(-0.000282884848403 -0.000501245371313 -0.00108109421563)
(-5.88987238462e-05 -0.000103976040042 -0.000261531355465)
(0 0 0)
(0 0 0)
(0 0 0)
(0 0 0)
(0 0 0)
(-5.86925605243e-05 -0.000103976040042 0.00029456660418)
(-0.00037348724452 -0.000676215992525 0.00167649537899)
(-0.000818254769589 -0.00152669012245 0.00324679506989)
(-0.0012392234488 -0.00237493329564 0.0042132260461)
(-0.00153315986542 -0.0029826603913 0.00423608804524)
(-0.00164618092029 -0.00320138902326 0.0034084732004)
(-0.00165920993754 -0.00320138902326 0.00226710035608)
(-0.00167223895479 -0.00320138902326 0.00112572751176)
(-0.00168526797204 -0.00320138902326 -1.56453325618e-05)
(-0.00169829698929 -0.00320138902326 -0.00115701817688)
(-0.00171132600654 -0.00320138902326 -0.0022983910212)
(-0.00172435502379 -0.00320138902326 -0.00343976386552)
(-0.00162363616843 -0.0029826603913 -0.00427113573506)
(-0.0013109278924 -0.00237493329564 -0.00425431799395)
(-0.000853812363548 -0.00152669012245 -0.0032852680352)
(-0.000381625881694 -0.000676215992525 -0.00169900840645)
(-5.89124680678e-05 -0.000103976040042 -0.000298604552775)
(0 0 0)
(0 0 0)
(0 0 0)
(-7.22303394191e-06 -1.27493754097e-05 4.06594656142e-05)
(-0.000278413052826 -0.000501245371313 0.00142100366636)
(-0.000815291636759 -0.00152669012245 0.00379113366198)
(-0.00141567801382 -0.00277193367697 0.00591075859461)
(-0.00192325589416 -0.00390357411159 0.0069514544554)
(-0.00225925726813 -0.00466735955007 0.00666286348616)
(-0.00239540772138 -0.00493296217801 0.00528900918025)
(-0.00242634088966 -0.00493296217801 0.00353049845594)
(-0.00245727405795 -0.00493296217801 0.00177198773162)
(-0.00248820722623 -0.00493296217801 1.34770073027e-05)
(-0.00251914039451 -0.00493296217801 -0.00174503371701)
(-0.0025500735628 -0.00493296217801 -0.00350354444133)
(-0.00258100673108 -0.00493296217801 -0.00526205516565)
(-0.00248079414502 -0.00466735955007 -0.00664805019114)
(-0.00211696517657 -0.00390357411159 -0.00696514567284)
(-0.00153289387781 -0.00277193367697 -0.00594863840606)
(-0.000856775496378 -0.00152669012245 -0.00382960662729)
(-0.000283523676343 -0.000501245371313 -0.0014385367702)
(-7.22675360765e-06 -1.27493754097e-05 -4.11659505773e-05)
(0 0 0)
(0 0 0)
(-7.9693924512e-05 -0.000141439304991 0.000451157643978)
(-0.00054103204076 -0.000994142227221 0.00282067411332)
(-0.00122488256008 -0.00237493329564 0.00590673485411)
(-0.00190388496591 -0.00390357411159 0.00834311446823)
(-0.00243428018625 -0.0052025467701 0.00929306369007)
(-0.00276869177744 -0.00601981047872 0.00862706120808)
(-0.00291184409923 -0.00628707696361 0.00677586371084)
(-0.00296208743019 -0.00628707696361 0.00453492446487)
(-0.00301233076116 -0.00628707696361 0.00229398521891)
(-0.00306257409212 -0.00628707696361 5.30459729414e-05)
(-0.00311281742309 -0.00628707696361 -0.00218789327302)
(-0.00316306075405 -0.00628707696361 -0.00442883251899)
(-0.00321330408501 -0.00628707696361 -0.00666977176495)
(-0.00313719606753 -0.00601981047872 -0.00853882463177)
(-0.00277834145809 -0.0052025467701 -0.00925263375401)
(-0.00213633610481 -0.00390357411159 -0.00835680568567)
(-0.00132526878112 -0.00237493329564 -0.00594782680196)
(-0.000561135408854 -0.000994142227221 -0.00285074412256)
(-8.01517145248e-05 -0.000141439304991 -0.000456598828672)
(0 0 0)
(0 0 0)
(-0.000163190950568 -0.000291492982031 0.000930005306914)
(-0.000739694762116 -0.00138159464644 0.00392250111624)
(-0.00149923125179 -0.0029826603913 0.00742629696286)
(-0.0022038730489 -0.00466735955007 0.00999059190549)
(-0.00272262874117 -0.00601981047872 0.0107727969381)
(-0.00302855281745 -0.00678717007235 0.00974740934705)
(-0.00315955609727 -0.00700118786569 0.00756532810163)
(-0.0032218587973 -0.00700118786569 0.00507005489491)
(-0.00328416149732 -0.00700118786569 0.00257478168819)
(-0.00334646419735 -0.00700118786569 7.9508481473e-05)
(-0.00340876689738 -0.00700118786569 -0.00241576472525)
(-0.0034710695974 -0.00700118786569 -0.00491103793197)
(-0.00353337229743 -0.00700118786569 -0.00740631113868)
(-0.00349697374234 -0.00678717007235 -0.00960504067225)
(-0.0031832591038 -0.00601981047872 -0.0106845603618)
(-0.00253617836424 -0.00466735955007 -0.00997577861047)
(-0.00165756478206 -0.0029826603913 -0.00746134465267)
(-0.000778521541805 -0.00138159464644 -0.00395920808818)
(-0.000165135335172 -0.000291492982031 -0.000940793588047)
(0 0 0)
(0 0 0)
(-0.000197970747672 -0.000354576820063 0.00113138174717)
(-0.000812328503929 -0.00152669012245 0.00433547225407)
(-0.00159406485128 -0.00320138902326 0.00797396457768)
(-0.00230260821652 -0.00493296217801 0.0105645413532)
(-0.0028113574373 -0.00628707696361 0.0112577422028)
(-0.00309725339725 -0.00700118786569 0.0100606013083)
(-0.00321365569126 -0.00716402785019 0.00774584618571)
(-0.00327888964345 -0.00716402785019 0.00519258557424)
(-0.00334412359564 -0.00716402785019 0.00263932496276)
(-0.00340935754782 -0.00716402785019 8.6064351283e-05)
(-0.00347459150001 -0.00716402785019 -0.00246719626019)
(-0.00353982545219 -0.00716402785019 -0.00502045687167)
(-0.00360505940438 -0.00716402785019 -0.00757371748315)
(-0.00359567499745 -0.00700118786569 -0.0099015843454)
(-0.00331379074694 -0.00628707696361 -0.0111516502569)
(-0.00267380623594 -0.00493296217801 -0.0105375873386)
(-0.00177647109279 -0.00320138902326 -0.00800525524281)
(-0.000859738629208 -0.00152669012245 -0.00437394521938)
(-0.000200847792136 -0.000354576820063 -0.00114428777116)
(0 0 0)
(0 0 0)
(-0.000197970747672 -0.000354576820063 0.00113138174717)
(-0.000812328503929 -0.00152669012245 0.00433547225407)
(-0.00159406485128 -0.00320138902326 0.00797396457768)
(-0.00230260821652 -0.00493296217801 0.0105645413532)
(-0.0028113574373 -0.00628707696361 0.0112577422028)
(-0.00309725339725 -0.00700118786569 0.0100606013083)
(-0.00321365569126 -0.00716402785019 0.00774584618571)
(-0.00327888964345 -0.00716402785019 0.00519258557424)
(-0.00334412359564 -0.00716402785019 0.00263932496276)
(-0.00340935754782 -0.00716402785019 8.6064351283e-05)
(-0.00347459150001 -0.00716402785019 -0.00246719626019)
(-0.00353982545219 -0.00716402785019 -0.00502045687167)
(-0.00360505940438 -0.00716402785019 -0.00757371748315)
(-0.00359567499745 -0.00700118786569 -0.0099015843454)
(-0.00331379074694 -0.00628707696361 -0.0111516502569)
(-0.00267380623594 -0.00493296217801 -0.0105375873386)
(-0.00177647109279 -0.00320138902326 -0.00800525524281)
(-0.000859738629208 -0.00152669012245 -0.00437394521938)
(-0.000200847792136 -0.000354576820063 -0.00114428777116)
(0 0 0)
(0 0 0)
(-0.000197970747672 -0.000354576820063 0.00113138174717)
(-0.000812328503929 -0.00152669012245 0.00433547225407)
(-0.00159406485128 -0.00320138902326 0.00797396457768)
(-0.00230260821652 -0.00493296217801 0.0105645413532)
(-0.0028113574373 -0.00628707696361 0.0112577422028)
(-0.00309725339725 -0.00700118786569 0.0100606013083)
(-0.00321365569126 -0.00716402785019 0.00774584618571)
(-0.00327888964345 -0.00716402785019 0.00519258557424)
(-0.00334412359564 -0.00716402785019 0.00263932496276)
(-0.00340935754782 -0.00716402785019 8.6064351283e-05)
(-0.00347459150001 -0.00716402785019 -0.00246719626019)
(-0.00353982545219 -0.00716402785019 -0.00502045687167)
(-0.00360505940438 -0.00716402785019 -0.00757371748315)
(-0.00359567499745 -0.00700118786569 -0.0099015843454)
(-0.00331379074694 -0.00628707696361 -0.0111516502569)
(-0.00267380623594 -0.00493296217801 -0.0105375873386)
(-0.00177647109279 -0.00320138902326 -0.00800525524281)
(-0.000859738629208 -0.00152669012245 -0.00437394521938)
(-0.000200847792136 -0.000354576820063 -0.00114428777116)
(0 0 0)
(0 0 0)
(-0.000197970747672 -0.000354576820063 0.00113138174717)
(-0.000812328503929 -0.00152669012245 0.00433547225407)
(-0.00159406485128 -0.00320138902326 0.00797396457768)
(-0.00230260821652 -0.00493296217801 0.0105645413532)
(-0.0028113574373 -0.00628707696361 0.0112577422028)
(-0.00309725339725 -0.00700118786569 0.0100606013083)
(-0.00321365569126 -0.00716402785019 0.00774584618571)
(-0.00327888964345 -0.00716402785019 0.00519258557424)
(-0.00334412359564 -0.00716402785019 0.00263932496276)
(-0.00340935754782 -0.00716402785019 8.6064351283e-05)
(-0.00347459150001 -0.00716402785019 -0.00246719626019)
(-0.00353982545219 -0.00716402785019 -0.00502045687167)
(-0.00360505940438 -0.00716402785019 -0.00757371748315)
(-0.00359567499745 -0.00700118786569 -0.0099015843454)
(-0.00331379074694 -0.00628707696361 -0.0111516502569)
(-0.00267380623594 -0.00493296217801 -0.0105375873386)
(-0.00177647109279 -0.00320138902326 -0.00800525524281)
(-0.000859738629208 -0.00152669012245 -0.00437394521938)
(-0.000200847792136 -0.000354576820063 -0.00114428777116)
(0 0 0)
(0 0 0)
(-0.000197970747672 -0.000354576820063 0.00113138174717)
(-0.000812328503929 -0.00152669012245 0.00433547225407)
(-0.00159406485128 -0.00320138902326 0.00797396457768)
(-0.00230260821652 -0.00493296217801 0.0105645413532)
(-0.0028113574373 -0.00628707696361 0.0112577422028)
(-0.00309725339725 -0.00700118786569 0.0100606013083)
(-0.00321365569126 -0.00716402785019 0.00774584618571)
(-0.00327888964345 -0.00716402785019 0.00519258557424)
(-0.00334412359564 -0.00716402785019 0.00263932496276)
(-0.00340935754782 -0.00716402785019 8.6064351283e-05)
(-0.00347459150001 -0.00716402785019 -0.00246719626019)
(-0.00353982545219 -0.00716402785019 -0.00502045687167)
(-0.00360505940438 -0.00716402785019 -0.00757371748315)
(-0.00359567499745 -0.00700118786569 -0.0099015843454)
(-0.00331379074694 -0.00628707696361 -0.0111516502569)
(-0.00267380623594 -0.00493296217801 -0.0105375873386)
(-0.00177647109279 -0.00320138902326 -0.00800525524281)
(-0.000859738629208 -0.00152669012245 -0.00437394521938)
(-0.000200847792136 -0.000354576820063 -0.00114428777116)
(0 0 0)
(0 0 0)
(-0.000163190950568 -0.000291492982031 0.000930005306914)
(-0.000739694762116 -0.00138159464644 0.00392250111624)
(-0.00149923125179 -0.0029826603913 0.00742629696286)
(-0.0022038730489 -0.00466735955007 0.00999059190549)
(-0.00272262874117 -0.00601981047872 0.0107727969381)
(-0.00302855281745 -0.00678717007235 0.00974740934705)
(-0.00315955609727 -0.00700118786569 0.00756532810163)
(-0.0032218587973 -0.00700118786569 0.00507005489491)
(-0.00328416149732 -0.00700118786569 0.00257478168819)
(-0.00334646419735 -0.00700118786569 7.9508481473e-05)
(-0.00340876689738 -0.00700118786569 -0.00241576472525)
(-0.0034710695974 -0.00700118786569 -0.00491103793197)
(-0.00353337229743 -0.00700118786569 -0.00740631113868)
(-0.00349697374234 -0.00678717007235 -0.00960504067225)
(-0.0031832591038 -0.00601981047872 -0.0106845603618)
(-0.00253617836424 -0.00466735955007 -0.00997577861047)
(-0.00165756478206 -0.0029826603913 -0.00746134465267)
(-0.000778521541805 -0.00138159464644 -0.00395920808818)
(-0.000165135335172 -0.000291492982031 -0.000940793588047)
(0 0 0)
(0 0 0)
(-7.9693924512e-05 -0.000141439304991 0.000451157643978)
(-0.00054103204076 -0.000994142227221 0.00282067411332)
(-0.00122488256008 -0.00237493329564 0.00590673485411)
(-0.00190388496591 -0.00390357411159 0.00834311446823)
(-0.00243428018625 -0.0052025467701 0.00929306369007)
(-0.00276869177744 -0.00601981047872 0.00862706120808)
(-0.00291184409923 -0.00628707696361 0.00677586371084)
(-0.00296208743019 -0.00628707696361 0.00453492446487)
(-0.00301233076116 -0.00628707696361 0.00229398521891)
(-0.00306257409212 -0.00628707696361 5.30459729414e-05)
(-0.00311281742309 -0.00628707696361 -0.00218789327302)
(-0.00316306075405 -0.00628707696361 -0.00442883251899)
(-0.00321330408501 -0.00628707696361 -0.00666977176495)
(-0.00313719606753 -0.00601981047872 -0.00853882463177)
(-0.00277834145809 -0.0052025467701 -0.00925263375401)
(-0.00213633610481 -0.00390357411159 -0.00835680568567)
(-0.00132526878112 -0.00237493329564 -0.00594782680196)
(-0.000561135408854 -0.000994142227221 -0.00285074412256)
(-8.01517145248e-05 -0.000141439304991 -0.000456598828672)
(0 0 0)
(0 0 0)
(-7.22303394191e-06 -1.27493754095e-05 4.06594656142e-05)
(-0.000278413052826 -0.000501245371313 0.00142100366636)
(-0.000815291636759 -0.00152669012245 0.00379113366198)
(-0.00141567801382 -0.00277193367697 0.00591075859461)
(-0.00192325589416 -0.00390357411159 0.0069514544554)
(-0.00225925726813 -0.00466735955007 0.00666286348616)
(-0.00239540772138 -0.00493296217801 0.00528900918025)
(-0.00242634088966 -0.00493296217801 0.00353049845594)
(-0.00245727405795 -0.00493296217801 0.00177198773162)
(-0.00248820722623 -0.00493296217801 1.34770073027e-05)
(-0.00251914039451 -0.00493296217801 -0.00174503371701)
(-0.0025500735628 -0.00493296217801 -0.00350354444133)
(-0.00258100673108 -0.00493296217801 -0.00526205516565)
(-0.00248079414502 -0.00466735955007 -0.00664805019114)
(-0.00211696517657 -0.00390357411159 -0.00696514567284)
(-0.00153289387781 -0.00277193367697 -0.00594863840606)
(-0.000856775496378 -0.00152669012245 -0.00382960662729)
(-0.000283523676343 -0.000501245371313 -0.0014385367702)
(-7.22675360765e-06 -1.27493754095e-05 -4.11659505773e-05)
(0 0 0)
(0 0 0)
(0 0 0)
(-5.86925605243e-05 -0.000103976040042 0.00029456660418)
(-0.00037348724452 -0.000676215992525 0.00167649537899)
(-0.000818254769589 -0.00152669012245 0.00324679506989)
(-0.0012392234488 -0.00237493329564 0.0042132260461)
(-0.00153315986542 -0.0029826603913 0.00423608804524)
(-0.00164618092029 -0.00320138902326 0.0034084732004)
(-0.00165920993754 -0.00320138902326 0.00226710035608)
(-0.00167223895479 -0.00320138902326 0.00112572751176)
(-0.00168526797204 -0.00320138902326 -1.56453325618e-05)
(-0.00169829698929 -0.00320138902326 -0.00115701817688)
(-0.00171132600654 -0.00320138902326 -0.0022983910212)
(-0.00172435502379 -0.00320138902326 -0.00343976386552)
(-0.00162363616843 -0.0029826603913 -0.00427113573506)
(-0.0013109278924 -0.00237493329564 -0.00425431799395)
(-0.000853812363548 -0.00152669012245 -0.0032852680352)
(-0.000381625881694 -0.000676215992525 -0.00169900840645)
(-5.89124680678e-05 -0.000103976040042 -0.000298604552775)
(0 0 0)
(0 0 0)
(0 0 0)
(0 0 0)
(0 0 0)
(-5.87063047458e-05 -0.000103976040042 0.00025749340687)
(-0.000279051880766 -0.000501245371313 0.00106356111179)
(-0.000544801422277 -0.000994142227221 0.00175728319409)
(-0.000749401457038 -0.00138159464644 0.00195207381514)
(-0.000827144168079 -0.00152669012245 0.00161377929362)
(-0.000830107300909 -0.00152669012245 0.00106944070153)
(-0.000833070433739 -0.00152669012245 0.000525102109436)
(-0.000836033566569 -0.00152669012245 -1.92364826544e-05)
(-0.000838996699399 -0.00152669012245 -0.000563575074745)
(-0.000841959832229 -0.00152669012245 -0.00110791366683)
(-0.000844922965059 -0.00152669012245 -0.00165225225893)
(-0.000768814846883 -0.00138159464644 -0.00198878078707)
(-0.000557366027337 -0.000994142227221 -0.00178735320334)
(-0.000282884848403 -0.000501245371313 -0.00108109421563)
(-5.88987238462e-05 -0.000103976040042 -0.000261531355465)
(0 0 0)
(0 0 0)
(0 0 0)
(0 0 0)
(0 0 0)
(0 0 0)
(0 0 0)
(-7.22365388622e-06 -1.27493754096e-05 2.7021896249e-05)
(-7.97956556259e-05 -0.000141439304991 0.000249433983389)
(-0.000163731057403 -0.000291492982031 0.000410338947203)
(-0.000198929762493 -0.000354576820063 0.000372825241059)
(-0.000199089598297 -0.000354576820063 0.000246399156708)
(-0.0001992494341 -0.000354576820063 0.000119973072356)
(-0.000199409269904 -0.000354576820063 -6.45301199493e-06)
(-0.000199569105707 -0.000354576820063 -0.000132879096346)
(-0.000199728941511 -0.000354576820063 -0.000259305180698)
(-0.000199888777314 -0.000354576820063 -0.000385731265049)
(-0.000164595228337 -0.000291492982031 -0.000421127228336)
(-8.00499834108e-05 -0.000141439304991 -0.000254875168083)
(-7.22613366344e-06 -1.27493754096e-05 -2.75283812121e-05)
(0 0 0)
(0 0 0)
(0 0 0)
(0 0 0)
(0 0 0)
(0 0 0)
(0 0 0)
(0 0 0)
(0 0 0)
(0 0 0)
(0 0 0)
(0 0 0)
(0 0 0)
(0 0 0)
(0 0 0)
(0 0 0)
(0 0 0)
(0 0 0)
(0 0 0)
(0 0 0)
(0 0 0)
(0 0 0)
(0 0 0)
(0 0 0)
(0 0 0)
(0 0 0)
(0 0 0)
(0 0 0)
(0 0 0)
(0 0 0)
(0 0 0)
(0 0 0)
(0 0 0)
(0 0 0)
(0 0 0)
(0 0 0)
(0 0 0)
(0 0 0)
(0 0 0)
(0 0 0)
(0 0 0)
(0 0 0)
(0 0 0)
(0 0 0)
(0 0 0)
(0 0 0)
(0 0 0)
(0 0 0)
(0 0 0)
(0 0 0)
(0 0 0)
(0 0 0)
(0 0 0)
(0 0 0)
(0 0 0)
(0 0 0)
(0 0 0)
(0 0 0)
(0 0 0)
(0 0 0)
(0 0 0)
(0 0 0)
(0 0 0)
(0 0 0)
(0 0 0)
(0 0 0)
(0 0 0)
(0 0 0)
(0 0 0)
(0 0 0)
(0 0 0)
(0 0 0)
(0 0 0)
(0 0 0)
(0 0 0)
(0 0 0)
(0 0 0)
(0 0 0)
(0 0 0)
(0 0 0)
(0 0 0)
(0 0 0)
(0 0 0)
(0 0 0)
(0 0 0)
(0 0 0)
(0 0 0)
(0 0 0)
(0 0 0)
(0 0 0)
(0 0 0)
(0 0 0)
(-1.08644110419e-05 -3.30753277599e-05 7.01044644264e-05)
(-6.5399862593e-05 -0.000201021682634 0.000354533946406)
(-0.000121609702857 -0.000377105087387 0.000530892146644)
(-0.000144564636845 -0.000449267790545 0.000472424105049)
(-0.000144821241076 -0.000449267790545 0.000312235599407)
(-0.000145077845308 -0.000449267790545 0.000152047093764)
(-0.00014533444954 -0.000449267790545 -8.14141187845e-06)
(-0.000145591053772 -0.000449267790545 -0.000168329917521)
(-0.000145847658004 -0.000449267790545 -0.000328518423163)
(-0.000146104262236 -0.000449267790545 -0.000488706928806)
(-0.000123056035294 -0.000377105087387 -0.00054477688143)
(-6.59135978263e-05 -0.000201021682634 -0.000362219127788)
(-1.08811005363e-05 -3.30753277599e-05 -7.14137067928e-05)
(0 0 0)
(0 0 0)
(0 0 0)
(0 0 0)
(0 0 0)
(0 0 0)
(0 0 0)
(-5.05952603443e-05 -0.000155291483912 0.000384592856051)
(-0.000194681321812 -0.000614677920896 0.00130426115809)
(-0.000355621151847 -0.00115757989094 0.00204594059131)
(-0.000475045329501 -0.00157685496474 0.00222729225284)
(-0.000521053245646 -0.00173278503554 0.00183075180694)
(-0.000524870380206 -0.00173278503554 0.00121293396524)
(-0.000528687514766 -0.00173278503554 0.000595116123542)
(-0.000532504649327 -0.00173278503554 -2.27017181573e-05)
(-0.000536321783887 -0.00173278503554 -0.000640519559857)
(-0.000540138918448 -0.00173278503554 -0.00125833740156)
(-0.000543956053008 -0.00173278503554 -0.00187615524326)
(-0.000500333798008 -0.00157685496474 -0.00227050001655)
(-0.000372656581826 -0.00115757989094 -0.00208142415799)
(-0.000200445393803 -0.000614677920896 -0.00132572993779)
(-5.10244773194e-05 -0.000155291483912 -0.00039058685275)
(0 0 0)
(0 0 0)
(0 0 0)
(0 0 0)
(0 0 0)
(-5.05646019889e-05 -0.000155291483912 0.000439962835251)
(-0.000252256409687 -0.000809136978506 0.00200599520755)
(-0.000509601841965 -0.00173278503554 0.00368420533204)
(-0.000735800182925 -0.00263595675917 0.00467350835737)
(-0.000888234989351 -0.00327604882264 0.00464793899608)
(-0.000951711340255 -0.00350517117939 0.00372620553572)
(-0.000967330205239 -0.00350517117939 0.00247654856298)
(-0.000982949070224 -0.00350517117939 0.00122689159023)
(-0.000998567935209 -0.00350517117939 -2.27653825147e-05)
(-0.00101418680019 -0.00350517117939 -0.00127242235526)
(-0.00102980566518 -0.00350517117939 -0.00252207932801)
(-0.00104542453016 -0.00350517117939 -0.00377173630075)
(-0.0009973852014 -0.00327604882264 -0.00469594969496)
(-0.000824132046707 -0.00263595675917 -0.00472457981331)
(-0.000555407456689 -0.00173278503554 -0.00372960876836)
(-0.000263909055549 -0.000809136978506 -0.002033010663)
(-5.10551356748e-05 -0.000155291483912 -0.00044595683195)
(0 0 0)
(0 0 0)
(0 0 0)
(-1.08602386684e-05 -3.30753277599e-05 0.000105484007231)
(-0.000193720643147 -0.000614677920896 0.0017425930074)
(-0.000505784707404 -0.00173278503554 0.00430202317374)
(-0.00081649843071 -0.00305468818296 0.006509614185)
(-0.0010534630467 -0.00423620283545 0.00753461510681)
(-0.00120575569031 -0.00502243927226 0.00715584900964)
(-0.00128082767947 -0.00529307614509 0.00565934175688)
(-0.00131644148138 -0.00529307614509 0.00377251589092)
(-0.0013520552833 -0.00529307614509 0.00188569002495)
(-0.00138766908521 -0.00529307614509 -1.13584101703e-06)
(-0.00142328288712 -0.00529307614509 -0.00188796170698)
(-0.00145889668904 -0.00529307614509 -0.00377478757295)
(-0.00149451049095 -0.00529307614509 -0.00566161343892)
(-0.00146227884315 -0.00502243927226 -0.00716730420968)
(-0.00128158867829 -0.00423620283545 -0.00756749038506)
(-0.000958846460611 -0.00305468818296 -0.00655933270905)
(-0.00055922459125 -0.00173278503554 -0.00434742661005)
(-0.000201406072468 -0.000614677920896 -0.0017640617871)
(-1.08852729098e-05 -3.30753277599e-05 -0.000106793249598)
(0 0 0)
(0 0 0)
(-6.51943684997e-05 -0.000201021682633 0.000641235176084)
(-0.000350510522853 -0.00115757989094 0.0032841500161)
(-0.000718133810168 -0.00263595675917 0.0065531259915)
(-0.00103065048354 -0.00423620283545 0.00904482565599)
(-0.00124295454253 -0.00556585628716 0.00992402014008)
(-0.00137670689961 -0.00637441664362 0.00910984315522)
(-0.00145732860856 -0.00662810288777 0.00711520186475)
(-0.00151316935908 -0.00662810288777 0.00475279697513)
(-0.0015690101096 -0.00662810288777 0.00239039208551)
(-0.00162485086012 -0.00662810288777 2.79871958925e-05)
(-0.00168069161064 -0.00662810288777 -0.00233441769373)
(-0.00173653236116 -0.00662810288777 -0.00469682258335)
(-0.00179237311167 -0.00662810288777 -0.00705922747297)
(-0.00178989681636 -0.00637441664362 -0.00906654833188)
(-0.0016367408225 -0.00556585628716 -0.00991612129939)
(-0.00130440124145 -0.00423620283545 -0.00907770093425)
(-0.000841798419463 -0.00263595675917 -0.00660419744745)
(-0.00037776721082 -0.00115757989094 -0.00331963358278)
(-6.61190919196e-05 -0.000201021682633 -0.000648920357466)
(0 0 0)
(0 0 0)
(-0.000120705745083 -0.000377105087387 0.00120318528919)
(-0.000462401095248 -0.00157685496474 0.00447618838754)
(-0.000847303659832 -0.00327604882264 0.00815189725522)
(-0.0011416249021 -0.00502243927226 0.0107366373145)
(-0.00132505816002 -0.00637441664362 0.0113818920911)
(-0.00143859161442 -0.00706290866371 0.0101087099649)
(-0.00151465760619 -0.00719872315065 0.00774041990751)
(-0.0015805248038 -0.00719872315065 0.00517480472344)
(-0.0016463920014 -0.00719872315065 0.00260918953937)
(-0.00171225919901 -0.00719872315065 4.35743553008e-05)
(-0.00177812639661 -0.00719872315065 -0.00252204082877)
(-0.00184399359422 -0.00719872315065 -0.00508765601284)
(-0.00190986079182 -0.00719872315065 -0.00765327119691)
(-0.00194583801605 -0.00706290866371 -0.0100293093615)
(-0.00184154555595 -0.00637441664362 -0.0113385972678)
(-0.00152640963136 -0.00502243927226 -0.0107480925145)
(-0.00103831653092 -0.00327604882264 -0.0081999079541)
(-0.000512978032261 -0.00157685496474 -0.00451939615124)
(-0.000123959993067 -0.000377105087387 -0.00121707002398)
(0 0 0)
(0 0 0)
(-0.000143025011453 -0.000449267790545 0.0014335551389)
(-0.000501967572844 -0.00173278503554 0.00491984101544)
(-0.000889235880316 -0.00350517117939 0.0087248334267)
(-0.00117398627373 -0.00529307614509 0.0113198193548)
(-0.00134564710752 -0.00662810288777 0.011840011644)
(-0.00144879040859 -0.00719872315065 0.0103060350916)
(-0.00151648259837 -0.00721886322675 0.00776251770051)
(-0.00158271878716 -0.00721886322675 0.00518973095341)
(-0.00164895497595 -0.00721886322675 0.0026169442063)
(-0.00171519116474 -0.00721886322675 4.41574591919e-05)
(-0.00178142735352 -0.00721886322675 -0.00252862928792)
(-0.00184766354231 -0.00721886322675 -0.00510141603502)
(-0.0019138997311 -0.00721886322675 -0.00767420278213)
(-0.00197572798943 -0.00719872315065 -0.010218886381)
(-0.00190405461271 -0.00662810288777 -0.0117840372522)
(-0.00160135189669 -0.00529307614509 -0.0113220910368)
(-0.0011078999901 -0.00350517117939 -0.00877036419173)
(-0.00056304172581 -0.00173278503554 -0.00496524445175)
(-0.000147643887627 -0.000449267790545 -0.00144983796266)
(0 0 0)
(0 0 0)
(-0.000143025011453 -0.000449267790545 0.0014335551389)
(-0.000501967572844 -0.00173278503554 0.00491984101544)
(-0.000889235880316 -0.00350517117939 0.0087248334267)
(-0.00117398627373 -0.00529307614509 0.0113198193548)
(-0.00134564710752 -0.00662810288777 0.011840011644)
(-0.00144879040859 -0.00719872315065 0.0103060350916)
(-0.00151648259837 -0.00721886322675 0.00776251770051)
(-0.00158271878716 -0.00721886322675 0.00518973095341)
(-0.00164895497595 -0.00721886322675 0.0026169442063)