/*--------------------------------*- C++ -*----------------------------------*\
| =========                 |                                                 |
| \\      /  F ield         | OpenFOAM: The Open Source CFD Toolbox           |
|  \\    /   O peration     | Version:  v1606+                                |
|   \\  /    A nd           | Web:      www.OpenFOAM.com                      |
|    \\/     M anipulation  |                                                 |
\*---------------------------------------------------------------------------*/
FoamFile
{
    version     2.0;
    format      ascii;
    class       volScalarField;
    location    "1.8";
    object      p;
}
// * * * * * * * * * * * * * * * * * * * * * * * * * * * * * * * * * * * * * //

dimensions      [0 2 -2 0 0 0 0];

internalField   nonuniform List<scalar> 
768
(
-0.0470796
-0.0470089
-0.0468552
-0.0466402
-0.046374
-0.0460598
-0.0456899
-0.0452426
-0.04476
-0.0442543
-0.0437308
-0.0431923
-0.0440052
-0.043981
-0.0440327
-0.0440715
-0.0440045
-0.0438014
-0.0434775
-0.0430926
-0.0426605
-0.0422092
-0.0417186
-0.0411204
-0.0425147
-0.0425622
-0.0427639
-0.0429597
-0.0430065
-0.0428608
-0.0425396
-0.0420862
-0.0415409
-0.0409417
-0.0402711
-0.0394178
-0.040351
-0.0405055
-0.0408805
-0.0411583
-0.041196
-0.0409647
-0.0405039
-0.039898
-0.0392403
-0.0385424
-0.0376943
-0.0365553
-0.0380976
-0.0382959
-0.0386798
-0.0389173
-0.0388756
-0.0385326
-0.0379402
-0.0372022
-0.0364011
-0.0354955
-0.0343398
-0.0328055
-0.0356535
-0.03575
-0.0359875
-0.0360942
-0.0359061
-0.0354136
-0.034671
-0.0337702
-0.0327709
-0.0316132
-0.0301275
-0.0282866
-0.0330881
-0.032903
-0.0328143
-0.0326291
-0.0323571
-0.0316546
-0.0307405
-0.0296618
-0.0284407
-0.0269896
-0.0252612
-0.0232822
-0.0305103
-0.0299377
-0.0295326
-0.0290714
-0.0283495
-0.027492
-0.0263215
-0.0249844
-0.0235412
-0.0219314
-0.020134
-0.0181855
-0.0279654
-0.0269921
-0.0264078
-0.0258169
-0.0249051
-0.0235859
-0.0219215
-0.0201257
-0.0183647
-0.0166651
-0.0149536
-0.0133608
-0.0253027
-0.0240656
-0.0235632
-0.023048
-0.022012
-0.0203193
-0.0181603
-0.0158549
-0.0136694
-0.0117773
-0.0102388
-0.0090542
-0.0221118
-0.0209028
-0.0208824
-0.0207004
-0.0196665
-0.0177224
-0.0152374
-0.0126052
-0.0101125
-0.00798209
-0.00638354
-0.0054026
-0.0184049
-0.0176908
-0.0184075
-0.0187665
-0.0178025
-0.0157051
-0.0130765
-0.0103265
-0.00773773
-0.00553356
-0.00387065
-0.00285071
-0.0426535
-0.0421474
-0.0417168
-0.0413899
-0.0411933
-0.0411568
-0.0413013
-0.0416379
-0.0419532
-0.0419983
-0.041732
-0.0412854
-0.0403605
-0.0394781
-0.0386558
-0.0380761
-0.0378239
-0.0379705
-0.03859
-0.0394949
-0.0402668
-0.0404549
-0.0399136
-0.0390207
-0.0382881
-0.0369688
-0.0357587
-0.0349439
-0.034627
-0.0348284
-0.0355669
-0.0367195
-0.0378356
-0.0382628
-0.037789
-0.0368566
-0.0350825
-0.0335106
-0.0321875
-0.0312958
-0.0308813
-0.0309533
-0.0315322
-0.0325833
-0.0338478
-0.0347368
-0.0347526
-0.0341321
-0.0310318
-0.0294577
-0.0283166
-0.0275614
-0.027124
-0.0270233
-0.0273132
-0.0280335
-0.0291178
-0.0302925
-0.031017
-0.0309924
-0.0264301
-0.0250531
-0.0241918
-0.0236215
-0.0232273
-0.0230275
-0.0231084
-0.0235336
-0.0242789
-0.025262
-0.0264702
-0.0274169
-0.021514
-0.020437
-0.0199177
-0.0195821
-0.0192985
-0.0191133
-0.0190918
-0.0192881
-0.0197406
-0.0203705
-0.0214376
-0.0233496
-0.0166109
-0.0158551
-0.0157122
-0.0156687
-0.0155307
-0.0153656
-0.0152726
-0.0153208
-0.0155477
-0.015936
-0.0167004
-0.0187409
-0.0120963
-0.0116088
-0.0117647
-0.0120121
-0.0120561
-0.0119347
-0.0117734
-0.0116571
-0.0116357
-0.0117487
-0.0120328
-0.0134786
-0.00823882
-0.00797923
-0.0082774
-0.00872181
-0.00895327
-0.00891211
-0.00870427
-0.00843337
-0.00814228
-0.00781477
-0.00746444
-0.00788603
-0.00499948
-0.00506687
-0.00545992
-0.00595806
-0.00629882
-0.00635506
-0.00615595
-0.00578684
-0.00528903
-0.00457256
-0.00355105
-0.00299129
-0.00250062
-0.00271961
-0.00325715
-0.00381067
-0.00417981
-0.00429493
-0.00416036
-0.00381411
-0.00328969
-0.00245148
-0.000958434
0.000964813
-0.047064
-0.0469111
-0.0467009
-0.0464751
-0.0462307
-0.0459372
-0.0455719
-0.0451224
-0.0446395
-0.0441349
-0.0436113
-0.0430714
-0.0439623
-0.0439181
-0.0439676
-0.0439972
-0.043916
-0.0437013
-0.0433721
-0.0429865
-0.0425557
-0.0421068
-0.0416155
-0.0410087
-0.0424753
-0.042511
-0.0427031
-0.0428866
-0.0429193
-0.0427615
-0.0424327
-0.0419773
-0.0414366
-0.0408422
-0.0401693
-0.0393008
-0.0402779
-0.0404354
-0.0408085
-0.0410759
-0.0410992
-0.0408541
-0.0403851
-0.0397803
-0.0391319
-0.0384406
-0.0375858
-0.0364264
-0.038022
-0.0382234
-0.0386032
-0.0388279
-0.0387714
-0.0384149
-0.0378156
-0.0370795
-0.0362835
-0.0353791
-0.0342095
-0.03265
-0.0355684
-0.0356704
-0.0359088
-0.0359974
-0.0357973
-0.0352932
-0.0345444
-0.033644
-0.0326447
-0.0314765
-0.029973
-0.0281114
-0.0329935
-0.032811
-0.0327138
-0.0325285
-0.0322436
-0.0315322
-0.0306136
-0.0295336
-0.0283085
-0.0268469
-0.0251029
-0.0231061
-0.0304042
-0.0298352
-0.0294235
-0.028955
-0.0282246
-0.0273612
-0.0261892
-0.0248518
-0.0234045
-0.0217881
-0.0200093
-0.0180257
-0.0278451
-0.0268756
-0.0262825
-0.0256799
-0.0247593
-0.0234372
-0.021776
-0.0199845
-0.018223
-0.0165117
-0.0147609
-0.0132105
-0.0251696
-0.0239346
-0.0234201
-0.0228892
-0.0218433
-0.0201511
-0.0180007
-0.0157059
-0.0135288
-0.0116405
-0.0101016
-0.0089447
-0.0219686
-0.0207618
-0.0207272
-0.0205261
-0.0194803
-0.0175396
-0.015069
-0.0124536
-0.00997763
-0.00786352
-0.00628248
-0.00532773
-0.0182505
-0.0175435
-0.0182457
-0.0185826
-0.0176044
-0.0155143
-0.0129054
-0.0101777
-0.00761269
-0.00543204
-0.00379343
-0.00279982
-0.0425302
-0.0420225
-0.0415905
-0.0412619
-0.0410621
-0.0410209
-0.0411707
-0.0415164
-0.0418412
-0.0418913
-0.0416265
-0.0411797
-0.0402342
-0.039339
-0.0385117
-0.0379312
-0.0376769
-0.0378267
-0.038453
-0.0393712
-0.0401544
-0.040348
-0.0398092
-0.0389164
-0.0381487
-0.0368131
-0.0356024
-0.0347945
-0.0344827
-0.0346864
-0.0354275
-0.0365856
-0.0377091
-0.0381434
-0.037674
-0.0367453
-0.0349309
-0.0333527
-0.0320373
-0.0311553
-0.0307462
-0.0308187
-0.0313952
-0.0324432
-0.033708
-0.0346033
-0.0346277
-0.0340157
-0.0308668
-0.0293039
-0.0281766
-0.0274299
-0.0269961
-0.0268958
-0.0271816
-0.0278952
-0.0289731
-0.0301475
-0.0308827
-0.0308705
-0.0262618
-0.0249064
-0.0240585
-0.0234938
-0.0231026
-0.0229035
-0.0229808
-0.0233994
-0.0241365
-0.0251128
-0.026323
-0.0272851
-0.0213554
-0.0203055
-0.019797
-0.0194623
-0.0191785
-0.0189924
-0.0189676
-0.0191576
-0.0195998
-0.0202226
-0.0212843
-0.0232061
-0.0164727
-0.0157475
-0.0156124
-0.0155634
-0.0154206
-0.015252
-0.015153
-0.0151905
-0.0154066
-0.0157843
-0.0165396
-0.0185797
-0.0119832
-0.011528
-0.0116901
-0.0119267
-0.0119607
-0.0118327
-0.0116631
-0.011534
-0.0114964
-0.0115919
-0.0118607
-0.0132914
-0.00815984
-0.00792565
-0.00822778
-0.00865891
-0.00887602
-0.00882441
-0.00860573
-0.00832014
-0.00801005
-0.00766106
-0.00728717
-0.00767624
-0.00495075
-0.00503651
-0.00543111
-0.0059162
-0.0062408
-0.00628367
-0.00607148
-0.00568644
-0.00516873
-0.00443048
-0.00338245
-0.00278604
-0.00247235
-0.00270361
-0.00324011
-0.00378273
-0.00413793
-0.00423944
-0.00409051
-0.00372847
-0.00318567
-0.00232916
-0.000818006
0.00108543
-0.0124495
-0.0149127
-0.0166919
-0.0173861
-0.0163715
-0.0141846
-0.0115031
-0.00873608
-0.00617447
-0.00404068
-0.0024572
-0.00145832
-0.0108626
-0.0144049
-0.0160463
-0.0162281
-0.0150884
-0.0129487
-0.0103043
-0.00759539
-0.00513995
-0.00314242
-0.00169288
-0.000784395
-0.0100242
-0.0133602
-0.0148226
-0.0149455
-0.0139054
-0.0118812
-0.00933727
-0.00677093
-0.00449948
-0.00268824
-0.00139303
-0.000577924
-0.00946848
-0.0123221
-0.0138389
-0.0139738
-0.0129005
-0.0109004
-0.00847292
-0.00611653
-0.00408472
-0.00248505
-0.00135032
-0.00063366
-0.00102901
-0.00111387
-0.00156671
-0.0021236
-0.00253231
-0.00270337
-0.00267003
-0.00246944
-0.00217595
-0.00189721
-0.00207011
-0.00445858
-0.000354743
-0.000325213
-0.00058113
-0.000944352
-0.00123547
-0.00141232
-0.00151759
-0.00155116
-0.00163304
-0.0020096
-0.00319548
-0.00573008
-0.000156062
-5.27468e-05
-0.000186657
-0.000388489
-0.000480018
-0.000526916
-0.000694501
-0.000908467
-0.00130744
-0.00209067
-0.0035841
-0.00593855
-0.000229464
-8.39234e-05
-0.000168646
-0.000271839
-0.000134436
-1.89934e-06
-0.000277223
-0.000598763
-0.00118979
-0.00219982
-0.00384033
-0.00619729
-0.0123154
-0.0147596
-0.0165239
-0.0171922
-0.0161654
-0.0139897
-0.0113318
-0.00859188
-0.00606019
-0.00395397
-0.00239618
-0.00142148
-0.0107613
-0.0142585
-0.0158802
-0.0160373
-0.0148815
-0.0127457
-0.0101285
-0.00745462
-0.00503507
-0.00306617
-0.0016411
-0.000753567
-0.00995517
-0.0132399
-0.0146756
-0.0147724
-0.0137061
-0.0116751
-0.0091547
-0.00663504
-0.0044029
-0.00261762
-0.00134407
-0.000547083
-0.0094264
-0.0122335
-0.0137184
-0.0138162
-0.0127189
-0.0107206
-0.00831584
-0.00599913
-0.00399625
-0.00241564
-0.00129898
-0.000598725
-0.00101119
-0.00110454
-0.00155358
-0.00209954
-0.00249801
-0.00265934
-0.00261266
-0.00239777
-0.00208942
-0.00179791
-0.00196554
-0.00440545
-0.000338927
-0.000315313
-0.000567633
-0.000921404
-0.00120408
-0.00137424
-0.00146815
-0.00149039
-0.00156166
-0.00192962
-0.00311989
-0.00568694
-0.000137242
-3.77291e-05
-0.000168513
-0.00036404
-0.000452415
-0.000499454
-0.00065686
-0.00085792
-0.00124606
-0.00202093
-0.0035174
-0.00589108
-0.00020537
-6.22888e-05
-0.000142008
-0.000239148
-9.2012e-05
3.50382e-05
-0.000246483
-0.000562384
-0.00113506
-0.00213328
-0.00377338
-0.00614784
)
;

boundaryField
{
    rotor
    {
        type            zeroGradient;
    }
    stator
    {
        type            zeroGradient;
    }
    AMI1
    {
        type            cyclicAMI;
        value           nonuniform List<scalar> 
48
(
-0.0092619
-0.0118334
-0.0132138
-0.0132911
-0.0122383
-0.010349
-0.00809675
-0.00591043
-0.00401177
-0.00249797
-0.00140208
-0.000693549
-0.000290371
-0.000149315
-0.000230827
-0.000307555
-0.000147377
-1.0221e-05
-0.00025971
-0.000625634
-0.00127346
-0.00234741
-0.00401051
-0.00630777
-0.0092253
-0.0117523
-0.0130977
-0.0131401
-0.0120673
-0.0101836
-0.00795552
-0.00579793
-0.00392308
-0.00242757
-0.00134903
-0.000656157
-0.000263449
-0.000124466
-0.000201209
-0.000274338
-0.000110038
2.12613e-05
-0.000231973
-0.000589079
-0.00121906
-0.00228256
-0.00394626
-0.00626173
)
;
    }
    AMI2
    {
        type            cyclicAMI;
        value           nonuniform 0();
    }
    front
    {
        type            empty;
    }
    back
    {
        type            empty;
    }
    procBoundary2to3
    {
        type            processor;
        value           nonuniform List<scalar> 8(-0.0124243 -0.0108108 -0.00997309 -0.00942747 -0.00443573 -0.00572922 -0.00593631 -0.0061893);
    }
}


// ************************************************************************* //
