/*--------------------------------*- C++ -*----------------------------------*\
| =========                 |                                                 |
| \\      /  F ield         | OpenFOAM: The Open Source CFD Toolbox           |
|  \\    /   O peration     | Version:  v1606+                                |
|   \\  /    A nd           | Web:      www.OpenFOAM.com                      |
|    \\/     M anipulation  |                                                 |
\*---------------------------------------------------------------------------*/
FoamFile
{
    version     2.0;
    format      ascii;
    class       volScalarField;
    location    "0.3";
    object      alpha.water;
}
// * * * * * * * * * * * * * * * * * * * * * * * * * * * * * * * * * * * * * //

dimensions      [0 0 0 0 0 0 0];

internalField   nonuniform List<scalar> 
11640
(
0.999999960288
1
1.00000000248
1
1.0000000259
1.00000000108
1.00000004826
0.999999992921
0.999999945867
0.999999861265
0.999999967522
0.999999924948
0.999999800762
0.999999713793
0.999999707274
0.999999747435
0.999999811123
0.999999938614
0.999999969739
1.00000000357
1.00000000015
1.00000004645
0.999999989954
1.00000000066
0.999999984638
1.00000004939
0.999999970168
0.999999939678
0.9999998609
0.999999827394
0.999999824118
0.999999581998
0.999999778125
0.999999750535
0.999999912798
0.999999941583
0.999999819859
0.99999919845
0.999999653161
1.00000002993
1.00000001967
0.999999951979
0.999999960693
0.999999979734
0.999999956837
1.00000000761
1.00000002899
0.999999951916
0.999999935392
0.999999917952
0.999999837883
0.999999536174
0.999999846872
0.999999813846
0.999999832231
0.999999389001
0.999998966334
0.999999021224
0.999999461487
0.999998825201
0.999999990405
0.999999985503
0.999999973582
0.999999957482
0.999999903654
0.999999961376
1.00000000345
0.999999821157
0.999999981072
0.999999766113
0.999999947547
0.999999926212
0.999999901272
0.999999737311
0.999999560946
0.999999912476
0.999998848904
0.999998650082
0.999998650129
0.999998737978
1.00000001137
0.999999990982
0.999999968953
0.999999925572
0.999999888699
1
0.999999985214
0.999999929132
0.999999960204
1.00000000001
0.999999945451
0.999999945233
0.999999727535
0.999999420836
0.999999503571
0.999998701547
0.999999014726
0.999998922228
0.999998152819
0.999998976178
1.00000000038
1.00000004472
0.999999812881
0.999999907866
1.00000000122
1.00000000477
0.999999920577
0.99999981728
0.999999782182
1.0000000064
0.999999998213
0.999999581224
0.999998039803
0.999996372209
0.999994391376
0.99999368374
0.999996932854
0.999998175006
0.999998152819
0.999999151472
1.00000006663
0.999999914971
0.999999733025
0.999999980675
0.99999999108
1.00000000078
0.99999999988
0.999999981772
1.00000008106
1.00000002655
0.999999403259
0.999999050496
0.999996720785
0.999995785068
0.999993232199
0.999993227211
0.999993855695
0.999996655899
0.999999938221
0.999998438713
1.00000000272
0.999999736927
0.99999973241
0.999999878723
1.00000000009
1.00000000073
1.00000000032
1.00000004143
1
1.00000002005
0.999999945938
0.999999502394
0.999997237372
0.999995623453
0.999993223497
0.999993256083
0.999993526402
0.999995969553
0.999999465793
0.999998910331
1.0000000632
0.999999854652
0.999999742765
0.999999889859
0.999999530275
0.999999706743
1.00000000141
1.00000000092
1
0.999999610159
0.999998377498
0.999999448511
0.999995905203
0.999994779982
0.99999353479
0.999993609246
0.999993805525
0.999995932482
0.999998814818
0.999998388515
0.999999992963
0.999999919937
0.999999856901
0.999999545616
0.999999361796
0.999999800419
1.00000000033
1.00000000479
0.999998856547
0.999998358869
0.999998107255
0.999998107259
0.999995597411
0.99999518889
0.999994275934
0.999993851388
0.999993893075
0.99999594992
0.99999829693
0.999998935596
0.999999958348
0.999999794357
0.999999762377
0.999999557652
0.999998982081
0.999998985507
0.999999891577
0.999999845886
0.999999382533
0.99999821921
0.999998645312
0.999997882435
0.999997093534
0.99999657119
0.999994817451
0.999993938259
0.999994126999
0.99999604373
0.999998277603
0.999999569861
0.999999900423
0.999999925108
0.999999885664
0.999999885921
0.999999243118
0.999999031205
0.999999474484
0.999999797375
0.999999498659
0.999999053622
0.999999547435
0.999998640691
0.999999554523
0.999996824206
0.999994086195
0.999993722996
0.999994277785
0.999996233972
0.99999851793
0.999999571155
0.999999998276
0.999999998919
0.999999983326
0.9999997711
0.999999256821
0.999999443354
0.999999482466
0.999999573853
0.999999860507
0.999999842421
0.999999491871
0.999999479574
0.999997696388
0.999995642114
0.999993716575
0.999993716575
0.999994836429
0.999996917719
0.999998975316
0.999999842461
0.999999398296
0.999999770266
0.999999575892
0.999999685229
0.99999964155
0.999999439449
0.999999411586
0.999999220949
0.99999962432
0.999999773976
0.999998614647
0.999996832963
0.999995246765
0.99999414587
0.999993788306
0.99999427971
0.99999630481
0.999998242893
0.999999904519
0.999999849597
0.999999398296
0.999999719147
0.999999341029
0.999999556852
0.999999057519
0.999998842846
0.999999114918
0.999999513924
0.999999533777
0.999999300676
0.999998092172
0.99999699306
0.999996057515
0.999995229079
0.999995275166
0.999996692247
0.999998371769
0.99999990024
0.999999953522
0.99999995819
0.999999517298
0.999999482451
0.999998963172
0.999998903625
0.999998892155
0.999998897941
0.999998512266
0.999999503335
0.999999505759
0.99999915455
0.999998405469
0.999997999773
0.999997289225
0.999997084502
0.99999789076
0.999998946897
0.999999884297
0.999999966227
0.999999888953
0.999999988633
0.999999903527
0.999999261999
0.999999145929
0.999999579462
0.999998751026
0.99999875093
0.999998601885
0.99999953431
0.999999546628
0.999999354205
0.999999101886
0.999998908405
0.999998946221
0.999999053648
0.999999618591
0.999999920786
0.999999928678
0.999999980564
0.999999977025
0.999999988634
0.999999781862
0.999999281269
0.999999292011
0.999999483623
0.999998810182
0.999999544051
0.999998947421
0.999997954017
0.999999573414
0.999999645833
0.99999995143
0.999999700464
0.999999552529
0.999999853795
0.999999977324
0.999999966076
0.999999977128
0.999999969489
0.999999953571
0.999999966894
0.999999855347
0.999999669002
0.999999301448
0.999999898696
0.999998934692
0.999998113214
0.999999230327
0.999997690965
0.999997033303
0.999997380082
0.999998622796
0.999998958174
0.999999850941
0.999999734452
0.999999978848
0.999999981239
0.999999993021
0.999999943296
0.999999839116
0.999999810254
0.999999886468
0.999999953151
0.999999966705
0.999999847962
0.999999338871
0.999998942624
0.999997822761
0.999998486902
0.999998484948
0.999997175783
0.999996922966
0.99999884299
0.99999693524
0.999999493926
0.999999845906
0.999999998319
0.999999998418
0.999999997671
0.999999826069
0.999999815973
0.999999965212
0.999999959688
0.999999993026
1.00000001654
1.00000000143
1.00000002348
1.00000000371
1.00000002819
1.00000000997
1.00000001561
0.999999906445
0.999999919608
0.999999800722
0.999999820647
0.999999927173
0.999999926213
0.999999930117
0.999999991795
0.999999988316
1.0000000113
1.00000046612
1.00000026753
1.00000016054
0.999999980349
1.00000001949
1.00000000454
1.00000003136
1.00000000208
0.999999979985
0.999999970666
0.999999826227
0.999999862167
0.999999850026
0.999999684185
0.999999704108
0.999999770913
0.999999825034
0.999999886067
0.999999910853
1.00000003855
0.999999964623
1.00000014234
0.999999993168
0.99999998227
0.999999984915
1.00000002926
1.00000000664
0.999999985995
0.99999998809
0.999999831499
0.999999722672
0.999999478028
0.999999853553
0.999999980371
1.00000001337
1.00000001237
1.00000000076
0.9999999712
0.999999748291
1.00000007768
1.0000000192
0.999999983825
0.999999984677
0.999999982972
1.00000003262
1.00000001261
1.00000003896
0.999999959779
0.999999882209
0.999999733112
0.999999683374
0.99999983959
0.999999904872
0.999999670314
0.999999597596
1.00000000597
1.00000000508
0.999999948821
0.999999911977
1.00000010151
1
1.00000000925
0.999999989968
1.00000001717
0.999999992133
1.00000004966
0.999999985103
0.999999797524
0.999999714456
0.999999507999
0.999999708291
0.999999682788
0.999999614459
0.999999508358
0.999999436428
1.00000001321
1.00000000045
1.00000000041
0.999999906515
0.999999839674
1.00000003402
0.999999999464
1.00000001293
0.999999984721
1.00000004609
1.00000001906
1.00000002574
0.999999847318
0.999999773833
0.999999997531
0.999999930616
0.999999280903
0.999998989523
0.99999869487
0.999999194632
0.999999196385
1.00000006765
1.00000000379
0.999999995406
0.99999934772
1.00000000099
1.00000002546
0.999999995202
0.999999855716
0.999999856552
0.999999760237
0.999999899415
0.999999848665
0.999999888083
0.999999974247
0.999999680099
0.999999706534
0.999999316336
0.999998440649
0.999999550754
0.999999574575
1.00000031909
0.999999757215
0.9999999709
0.999999104458
1.00000002712
0.999999983041
0.999999973854
0.99999986404
0.999999652535
0.99999987888
1.00000000498
1.00000000334
1.00000003136
1.00000003711
0.999999859289
0.999999663958
0.999999246647
1.00000014562
1.00000031117
1.00000036958
1.00000022186
1.00000021001
0.999999627773
0.999998817194
0.999999995637
1.0000000073
0.999999948247
0.999999978232
0.999999194082
0.999999961535
0.999999990166
1.0000000121
1.00000005418
1.00000002672
0.999999831302
0.999999779067
1.00000000661
1.00000009285
1.00000025673
1.00000024679
1.0000002354
1.00000016022
0.999999787416
0.999998388515
0.999999892588
0.999999880518
0.999999960728
0.999998967881
0.999999323429
0.999999831524
1.00000000137
1.00000001964
1.00000001249
1.00000002841
0.99999950813
0.999999698263
0.999999927357
1.00000004137
1.00000016763
1.00000024583
1.00000015027
1.00000014871
0.999999812673
0.999999382272
0.99999997968
0.999999907743
0.999999771894
0.99999917601
0.999999295611
0.999999338278
0.999999936656
0.999999848614
0.999999999998
0.999999019225
0.999999019901
0.99999972117
0.999999929111
1.00000014225
1.00000014135
1.00000011497
1.00000019063
1.00000015091
0.99999974209
0.999999293091
0.999999899105
0.999999948281
0.999999814187
0.999998759174
0.999998590539
0.999999130279
0.999999550642
0.999999825517
0.999999724448
0.99999951952
0.999999803371
0.999999940214
1.00000008035
1.00000018572
1.00000011474
1.00000017384
1.00000013874
1.00000018941
0.999999743895
0.999999344484
0.999999998701
0.999999837941
0.999999750216
0.999999625073
0.999999206705
0.999999157273
0.99999962226
0.999999809641
1.00000004244
1.0000001899
1.00000021474
1.00000004407
1.00000014084
1.0000000489
1.00000003639
1.00000002739
1.00000015282
1.00000006559
0.999999710647
0.999999566885
0.999999965419
0.99999974265
0.999999868507
0.999999801836
0.99999967138
0.999999478142
0.999999269622
0.999999147628
0.999999453198
1.00000012024
1.00000002754
1.00000004077
1.00000000924
1.00000003445
1.00000003553
1.0000000756
0.999999761773
0.999999363144
0.999999881671
0.999999990544
0.999999941967
0.999999425367
0.999999571222
0.999999725916
0.999999792876
0.999999670684
0.99999954521
0.99999907312
0.999998628889
0.999998742119
0.999999564417
0.999999840114
0.99999992533
0.999999973707
1.00000002057
0.999999766515
0.999998958298
0.999999971187
0.999999995103
0.999999972868
0.999999895439
0.999999425138
0.999999640012
0.999999829333
0.999999936497
0.999998895357
0.99999851131
0.99999851131
0.999998565199
0.999998794721
0.999999503096
0.999999662774
0.999999357723
0.999999453001
0.999999492487
0.999998885246
0.999999818506
0.999999960527
0.999999935481
0.999999944164
0.999999984213
0.999999644211
0.999999759447
0.999999514776
0.999999896645
0.999999662972
0.999998699691
0.999998609062
0.999999587895
0.999999677998
0.999999139152
0.999999417219
0.999999529826
0.999998792065
0.999999135792
0.999999915813
0.999999980235
0.999999984127
0.999999963876
0.99999994398
0.999999920084
0.999999617626
0.999999398189
0.9999994337
0.999999893479
0.999999951908
0.999999953831
0.999998913128
0.999999537413
0.999999821146
0.999999950881
0.999999636099
0.999999608674
0.999999504088
0.999999931326
0.999999978416
0.999999962164
0.999999971106
0.999999962311
0.999999999969
0.999999988421
0.999999609333
0.999999301448
0.999999604932
0.999999609725
0.999999578069
0.99999963158
0.999999674155
0.999999670976
0.999999880224
0.999999962068
0.999999827438
0.999999998527
0.999999998527
0.99999996824
0.99999996972
0.999999992039
0.999999968543
0.999999953421
0.999999941062
0.999999905629
0.999999768873
0.999999487492
0.999999540356
0.999999993092
0.999999994667
0.999998761652
0.999998457484
0.999998514157
0.999998526975
0.999998299585
0.999998787677
0.999999917276
0.999999942242
0.999999999107
0.999999998239
0.99999999823
0.999999997374
0.999999864239
0.999999815637
1.00000016948
0.999999962699
0.999999951208
0.999999961773
1.00000002211
1.00000001014
1.00000000973
1.00000001118
1.00000000943
1.0000000203
0.999999972738
0.999999945008
0.999999864969
0.999999875224
0.99999996835
1.00000001056
0.999999996552
0.999999992559
1.00000000696
1.00000001621
1.00000006222
1.00000036247
1.00000027198
1.00000005265
1.00000000402
1.00000000163
0.999999995018
0.999999997489
1.00000000093
0.999999960711
0.999999922931
0.999999884032
0.999999840063
0.999999803038
0.99999985744
0.999999952895
0.999999936818
1.00000012595
1.00000003186
1.00000003539
1.00000103954
1.00000020213
0.999999926498
0.999999980454
1.0000000019
1.00000000073
1.00000000135
0.999999400374
0.999999255862
0.999998893156
0.999998456598
0.999999045887
1.00000004806
1.00000003563
1.00000003498
1.00000001237
1.00000001056
0.99999996734
0.9999998604
1.00000006026
1.00000005536
1.00000006144
0.999999952162
0.999999927346
0.999999984818
1.00000000243
1.0000000019
0.999999712406
0.999998706532
0.999998595296
0.99999817995
0.999999561042
0.999999878616
1.00000009087
1.00000005443
1.00000007179
1.00000000452
0.999999976874
0.999999923731
1.00000005885
0.999999997753
1.00000000311
0.999999947313
0.999999925721
0.999999745846
1.00000001159
1.00000001179
0.999999999707
0.999999764489
0.999999057248
0.999999158618
0.999999142907
0.999999507003
1.00000011029
1.0000003182
1.00000021564
1.00000034076
1.00000003983
0.999999990635
0.999999629767
0.999999987456
1.00000000553
0.999999996132
0.999999769854
0.999999620246
1.00000003458
0.999999748392
0.99999983881
0.999999907429
1.00000000646
0.999999950399
0.999999648113
1.00000007872
1.00000046024
1.00000060433
1.00000095015
1.0000007394
1.00000029141
1
0.999999946775
1.00000002696
1
0.999999901282
0.999998881364
0.999999588251
0.999999677983
0.999999590102
0.999999710719
0.999999678863
1.00000003101
0.999999797411
0.999999692868
1.0000001617
1.00000046807
1.00000119452
1.00000099494
1.0000004528
1.00000019383
0.999999977131
0.999999667032
1
1.00000000458
0.999999885515
0.99999941195
0.999998505119
0.999999549452
0.999999488667
0.999999853268
1.00000011547
1.00000030759
0.99999991487
0.999999946031
1.00000000026
1.00000042898
1.00000076892
1.00000057721
1.0000003748
1.00000015104
0.999999769681
0.999999150058
0.999999890264
0.999999975269
0.999999909406
0.999998469343
0.999998234524
0.999999775222
1.00000001466
1.00000002476
1.00000004912
1.00000010829
1.00000015504
1.00000005422
0.999999989563
1.00000014738
1.00000042226
1.00000043195
1.00000016507
1.00000009851
0.999999407947
0.999999144246
0.999999869725
0.99999996866
0.999999926235
0.999998222281
0.99999856019
0.999999278911
0.999999978492
1.00000001196
1.00000002022
1.00000002439
0.999999912545
0.999999667981
1.00000000094
1.00000008714
1.00000021485
1.00000015343
1.00000025241
1.0000000288
0.999999942179
0.999998689684
0.999999817386
0.999999937045
0.999998604076
0.999998172133
0.99999844921
0.999999407429
1.00000000694
1.00000000347
0.99999965622
0.999999204209
0.999999556033
0.99999963992
1.00000002396
1.00000015728
1.0000002733
1.00000023506
1.0000000534
1.00000005539
1.00000001562
0.999998814831
0.999999790116
0.999999824599
0.999999263168
0.999998172133
0.999998254991
0.999999982099
1.0000000031
1.00000009049
0.999999956949
1.00000006832
0.999999969888
1.00000001345
1.00000011629
1.00000018817
1.00000015633
1.00000006818
1.00000002716
1.0000000231
1.00000000767
0.999999146791
0.999999834556
0.999999992317
0.999999689888
0.999998664951
0.999999144356
0.999999817989
1.00000009161
1.0000002294
1.00000043679
1.00000031456
1.00000009203
1.0000003706
1.00000014089
1.00000011958
1.0000000293
1.00000001457
1.00000001122
0.99999993449
1.00000000083
0.999999499181
0.999999911645
1.00000001076
0.999999823343
0.99999975841
0.999999489706
0.999999461206
0.9999997671
1.00000024272
1.00000026881
1.00000014274
1.00000019465
1.00000002493
1.0000000032
0.99999989289
0.999999822348
0.999999076021
0.999999804443
1.00000000005
1.00000000052
0.999999970511
0.9999999988
0.999999979603
0.999999703281
0.999999920899
0.999999605473
0.999999268213
0.999999625703
1.00000013337
1.00000016688
1.00000007014
1.00000001333
0.999999805083
0.999999881266
0.999999672739
0.999998043789
0.999997592215
0.999998151126
1.00000000029
1.00000000053
0.999999859657
1.00000000042
0.999999623725
0.999999635471
0.999999967307
0.999999689164
0.999998975931
0.999999059705
1.00000016127
1.00000002698
0.999999734123
0.999999654884
0.999999734484
0.999999594045
0.999998821837
0.999997482391
0.999997541802
0.99999848317
0.999999781683
1.00000000082
0.999999883016
1.00000003144
0.99999981997
0.999999718954
0.999999664142
0.999999895953
0.999999802646
0.999999111661
0.999999862266
1.00000001928
0.999999609294
0.999999189321
0.999999528506
0.999998667881
0.999997498608
0.99999780867
0.999998025216
0.999999042347
0.999999741428
0.999999947926
1
1.00000001012
0.99999980331
0.999999769186
0.999999507767
0.999999746679
0.999999757031
0.999999501916
0.999999069227
0.99999910286
0.99999933835
0.999999989683
0.999999350509
0.999998787743
0.999998661678
0.999999198731
0.999999699168
0.999999485427
0.999999961903
0.999999969636
1
1.00000002695
0.999999967175
0.999999609969
0.99999947998
0.999999910412
0.999999910207
0.999999815562
0.999999373329
0.999999937811
0.999999999179
0.999999998604
0.999999999546
0.999999983459
0.99999998409
0.999999894837
0.999999913565
0.999999928336
0.999999985678
0.999999964168
0.999999888598
1.00000000976
0.999999986964
0.999999867924
0.999999547373
0.999999684359
0.99999979513
0.99999967776
0.999999068353
0.999999125745
0.99999954478
0.999998628564
0.999999300458
0.999999999929
0.999999999988
1
0.999999999043
0.999999961052
0.99999990292
0.999999960013
0.999999818584
1.00000003396
1.00000018663
0.999999954546
0.999999942948
0.999999992645
0.999999944995
0.999999956459
1.00000000686
1.00000000538
0.999999831064
0.999999895522
0.999999977595
0.999999879732
0.999999970494
0.999999976001
0.999999983994
0.999999974513
0.999999998889
0.999999985614
1.00000001427
1.0000002345
1.00000005759
1.0000001851
0.99999990399
0.999999919426
0.999999896797
0.999999940499
0.999999774227
0.999999696759
0.999999654895
0.9999997831
1.00000000321
0.999999728545
0.999999867166
1.00000004975
1.00000004409
1.00000012147
1.00000014267
1.00000024404
1.00000006044
1.00000005853
1.00000015823
0.999999914427
0.999999707108
0.999999950169
0.999999269976
0.999998724884
0.999998562655
0.999998501777
0.999997483564
0.999997441198
0.999997441198
0.999998741501
1.00000003654
1.00000002498
0.999999941464
0.999999967781
0.999999940067
0.999999988632
1.00000003923
1.00000118656
1.00000006096
0.999999544869
0.999999978079
0.999999980013
0.999999917108
0.999999820721
0.999999209824
0.999997894423
0.999997490948
0.999998049297
0.999997744308
1.00000007174
1.00000008766
1.00000022967
0.999999957828
1.00000023191
1.00000017382
1.00000000045
0.999999450618
1.0000000286
0.99999963131
0.999999627119
0.999998331871
0.999999978913
0.999999779426
1.00000000162
1.00000000061
0.999998613358
0.999997827192
0.999999318614
0.999999594172
1.00000013999
1.00000059341
1.00000061053
1.00000106302
1.00000079841
1.00000036499
0.999999867524
0.999998808223
0.999999895687
0.999999774447
0.99999978847
0.999998274017
0.99999898276
0.999999773493
0.999999706121
0.999999940569
1.00000000437
1.00000000042
1.00000001374
1.00000007466
1.00000045744
1.00000076563
1.00000179152
1.00000126459
1.00000052128
1.00000019274
0.999999932518
0.99999892779
0.999999845811
0.999999799129
0.999999855072
0.999998154439
0.999998319506
0.999999923029
0.999999643324
0.99999966047
0.999999605908
0.999999792781
0.999999951997
1.0000000221
1.00000019979
1.0000011477
1.00000123613
1.00000063416
1.00000032459
1.00000032302
0.999999956258
0.99999968777
0.99999992248
0.999999951367
0.999999815883
0.99999808135
0.999998633252
0.999999580885
0.999999677719
1.00000049012
1.000000539
1.00000040969
1.00000032836
1.000000295
0.999999856202
0.999999934229
0.999999877862
0.999999914084
0.999999786464
0.999998080536
0.99999820988
0.999999875453
1.00000000226
1.00000018933
1.0000002702
1.00000027772
1.00000055313
1.00000014014
0.999999959605
0.999998710973
0.999999902552
0.999999946235
0.999999598462
0.999998081629
0.999998115943
0.999999701803
1.00000001162
1.00000008613
1.00000041681
1.00000040139
1.00000020424
1.00000007088
0.999999778689
0.999999357728
0.999999888212
0.999999898342
0.999998638189
0.999998248847
0.999998885108
0.999999996232
1.00000003183
1.00000014132
1.00000025478
1.00000038766
1.00000030626
1.00000002981
1.00000000636
0.999998763448
0.999999831002
0.999999963847
0.999998988629
0.999999197803
0.999999856557
1.00000002468
1.00000033616
1.00000011123
1.000000031
1.00000000068
1.00000005391
1.00000017532
1.0000000964
1.00000023743
1.00000024597
1.00000073909
1.00000018465
1.00000003814
1.00000000415
0.999999372059
0.999999936047
0.999999861656
0.99999978414
0.999999703016
0.999999910639
1.00000040128
1.00000053664
1.00000061305
1.00000029985
1.00000023452
1.0000006494
1.00000027659
1.00000020653
1.00000029426
1.00000036396
1.00000020366
1.00000006106
1.00000000774
1.00000000321
1
0.999999857397
0.999999889413
0.999999900425
0.99999989522
0.999999963894
1.00000042073
1.000000707
1.00000037368
1.0000004639
1.00000063873
1.00000018801
1.00000011156
1.00000000734
1
0.999997923748
0.999999982412
1.00000001597
1.00000001357
1.00000000419
0.999999926146
0.999999815445
0.999999899931
0.999999946682
1.0000000401
0.999999901546
1.00000044984
1.0000003254
1.00000062807
1.00000043641
1.00000018608
1.00000005531
1.00000008351
0.999999100622
0.999997694056
0.999997328771
0.999997750706
1.00000000705
1.00000000153
1.00000000847
0.999999870069
0.999999823083
0.99999987366
1.00000017196
1.000000091
1.00000027228
1.00000026447
1.000000724
1.0000002811
1.00000032885
1.00000002979
1.00000000263
0.999999027949
0.99999761434
0.999997473369
0.999995931794
0.999997089459
0.999997225246
0.999997757019
1.00000000042
1
1.00000002116
1.00000008731
0.999999857459
0.999999973173
1.00000016548
1.00000055981
1.00000019677
1.00000047815
1.00000005145
1.00000001533
1.00000000461
0.999997963943
0.999997165682
0.999996207229
0.999995670214
0.999997932307
0.999997876504
0.999997835774
0.999999706559
1
1.00000002525
0.999999994856
0.999999874716
0.999999490098
0.999999447328
1.00000002174
1.00000018023
1.00000001387
1.00000000734
1.00000000004
1.00000000157
1
0.999999590775
0.999998317779
0.999998599373
0.999997387311
0.999998085385
0.999999988318
0.999999994303
0.999999875246
1.00000003296
1.00000000023
0.999999895718
0.999999445998
0.999999446159
0.99999962309
0.999999888058
0.999999909333
0.999999871614
0.999999973202
1.00000000006
0.99999999995
0.999999921132
0.999999904028
0.999999917802
0.999999932714
0.999999958723
0.999999985029
0.999999904393
0.999999847732
1.00000007191
1.00000003805
1.00000008269
1.00000004703
1.00000004103
1.00000010897
0.999999364056
0.999999133645
0.999998647378
0.99999899455
0.999999617646
0.999999459534
0.999999999988
0.999999999995
1.00000000002
0.999999998917
0.999999876419
0.999999892569
0.999999931793
0.999999818861
1.00000017914
1.00000010934
1.00000024484
0.999999952516
0.999999913581
0.999999816296
0.999999934087
1.00000004061
1.00000002316
0.999999876977
0.999999890979
0.999999960245
0.999999958735
0.999999946247
0.99999992539
0.999999911567
0.999999918873
0.999999911402
0.999999903708
0.999999975993
1.00000010097
1.00000006659
1.00000005577
1.00000002697
0.999999848317
0.999999646689
0.999999897328
0.999999897843
0.999999970143
0.999999891551
0.999999889116
1.00000000032
0.999999968269
0.999999767746
1.00000005043
1.00000011354
1.00000015188
1.00000031602
1.00000022858
0.999999992032
1.00000025968
1.0000000077
0.999999951338
0.999999800767
0.999999930241
0.999999455188
0.999998836146
0.999998894696
0.999998532874
0.999998738065
0.999998156551
0.99999744119
0.999997852014
0.999998884903
0.999999961918
0.999999990309
1.00000010412
1.0000000328
1.00000023682
1.00000004323
1.00000008648
1.00000004224
0.999999523747
0.999998586994
0.999999979185
0.999999552488
0.999999533332
0.999998709444
0.999998135254
0.999997520899
0.999997414415
0.999997413411
0.999998995637
1.00000032881
1.00000014303
1.00000074549
1.00000036573
1.00000014312
0.99999977925
0.999999412759
1.00000082042
1.00000000659
0.999999910704
0.999998109294
0.999998366561
0.999999087212
1.00000000186
0.999998227555
0.999997726416
0.999997613045
0.999997804777
0.999999935117
1.00000044084
1.00000053929
1.00000174427
1.00000094483
1.00000055783
1.00000015182
0.999999838007
0.999998769106
0.999999856363
0.999999764343
0.999999954348
0.999998098531
0.999998089292
0.999999182878
0.999999781714
0.999999740046
0.999999236563
1.00000002188
1.00000001558
1.00000015465
1.00000041852
1.0000018349
1.00000129485
1.00000069645
1.00000022577
1.0000004991
0.999999718155
0.999998665522
0.999999735749
0.999999647993
0.999999641774
0.999998099152
0.999998176575
0.999999138877
0.999999606708
0.999999767734
0.999999542722
0.999999664781
1
1.00000002079
1.00000046031
1.0000009061
1.00000070097
1.00000012762
1.00000042893
1.00000010168
0.999999835751
0.999999163197
0.999999884406
0.999999873673
0.999999802525
0.999998922098
0.999999270745
0.999999985981
0.999999984817
1.00000068127
1.00000046238
1.00000034572
1.00000010199
1.00000016798
0.999999474743
0.999999378247
0.999999919689
0.999999938501
0.999999336861
0.999998177485
0.999999433138
0.999999848275
1.00000003636
1.00000016958
1.00000047923
1.00000015588
1.00000021043
1.00000041197
0.999999737328
0.999999239499
0.99999991257
0.999999875946
0.999999527182
0.999999539859
0.999999083422
1.00000002423
1.00000003482
1.00000012091
1.00000017801
1.00000097668
1.00000059461
1.00000017804
0.999999598093
0.999998836676
0.999999894979
0.999999852459
0.99999886865
0.999999735569
0.999999572378
1.00000017399
1.00000025506
1.00000014932
1.00000043714
1.00000214179
1.00000164054
1.00000017695
1.00000001418
0.999999024943
0.999999907601
0.999999909758
0.999999771454
0.999999953234
1.00000020298
1.00000067974
1.00000035005
1.0000001729
0.999999982096
1.00000009434
1.00000023829
1.00000013731
1.0000001745
1.00000021463
1.00000066362
1.00000134933
1.00000045609
1.00000004313
1.00000000388
0.999999997289
0.999999948251
0.999999898554
0.999999948248
1.0000002359
1.00000088018
1.00000057666
1.00000069129
1.00000016035
1.00000037694
1.00000069065
1.00000034627
1.00000053368
1.00000049114
1.00000072095
1.00000109563
1.00000033239
1.00000006806
1.00000006526
1.00000000968
0.999999996617
0.999999945446
1.00000003182
1.00000009266
1.00000075634
1.00000048709
1.00000079566
1.00000020767
1.00000062787
1.00000085661
1.00000063404
1.00000084901
1.00000023266
1.00000008249
1
0.999999998826
0.999999824881
1.00000005705
1.00000002386
1.00000003418
0.999999692194
0.999999903095
1.00000002132
1.0000004692
1.00000024744
1.00000061976
1.00000021172
1.00000081764
1.00000070706
1.00000086562
1.00000075529
1.00000018678
1.00000005267
1.00000013481
0.999998203042
0.999997507676
1.00000000601
1.00000001607
1.00000002566
1.00000001211
0.999999987836
0.999999807736
0.999999951608
1.00000007248
1.00000031207
1.00000017402
1.00000074173
1.00000044903
1.00000104989
1.00000042402
1.0000002432
1.00000000542
1.00000005997
0.999997303033
0.999996005674
0.999995169834
0.999996922883
0.999996335165
0.999998708315
1.0000000053
1
0.999999883136
0.999999906885
1.0000000977
1.00000008706
1.00000034317
1.00000026256
1.00000095407
1.00000034187
1.0000002657
1.00000004079
1.00000000429
1.00000000023
0.999997786446
0.999995598788
0.999995120285
0.999994641235
0.999993913726
0.999998543944
1
1
0.999999947963
1.00000008968
1.00000000063
0.99999983714
1.00000001642
1.00000018017
1.00000005932
1.00000011962
1.00000001484
1.00000000735
1.00000000288
1.00000000231
1.00000000462
1.00000000009
0.99999603304
0.999997404387
0.999999219564
0.999999999953
0.999999978163
0.999999877218
1.00000003633
0.999999955458
1.00000004009
0.999999761284
0.999999446678
0.999999996345
1.00000003264
0.999999925324
0.999999828211
1.00000000027
1
1.00000000054
1.00000000022
1.00000000691
1.00000000094
1.0000000008
0.99999997383
0.999999977383
0.999999937431
0.999999893823
0.999999974195
1.00000006623
1.00000005416
1.00000003092
1.00000001594
0.9999998881
0.99999919417
0.999998647699
0.999999820617
0.999998938979
0.999999306264
1
1
1
1.00000000026
1.00000001038
0.999999874385
0.999999890476
0.99999971941
0.999999666404
1.00000281376
1.00000139592
1.00000096791
1.00000050057
1.00000005401
0.999999946917
1.00000002851
1.00000012989
1.00000042784
1.00000084376
1.00000088348
1.00000092324
1.00000083905
1.00000079523
1.00000060167
1.00000078318
1.00000109817
1.00000162936
1.00000218198
1.00000362689
1.00000123354
1.00000011977
1.00000003027
1.0000000306
0.999999815946
0.999999462339
1.00000003674
1.00000008224
1.00000010356
1.00000003331
1.00000006453
1.00000006285
1.00000008742
1.0000001025
1.0000002004
1.00000014345
1.0000002484
1.00000010186
1.00000031894
1.00000127292
1.00000056339
1.00000000837
0.999999860026
0.999999955343
0.999999864784
0.999999353586
1.00000004312
1.00000004277
1.00000001931
1.00000001578
0.999999820976
1.00000000212
0.999999329507
0.999999257802
0.999999884751
1.0000001384
1.00000005723
1.00000011746
1.00000014844
1.00000014521
1.00000070863
1.00000000227
0.999999835247
0.999999597657
0.999999656499
0.999998818703
0.999999263083
0.999998393254
0.999998315316
0.999999667351
0.999998753818
0.999997684039