/*--------------------------------*- C++ -*----------------------------------*\
| =========                 |                                                 |
| \\      /  F ield         | OpenFOAM: The Open Source CFD Toolbox           |
|  \\    /   O peration     | Version:  v1606+                                |
|   \\  /    A nd           | Web:      www.OpenFOAM.com                      |
|    \\/     M anipulation  |                                                 |
\*---------------------------------------------------------------------------*/
FoamFile
{
    version     2.0;
    format      ascii;
    class       surfaceVectorField;
    location    "0.3";
    object      ddt0(Uf);
}
// * * * * * * * * * * * * * * * * * * * * * * * * * * * * * * * * * * * * * //

dimensions      [0 1 -2 0 0 0 0];

internalField   nonuniform List<vector> 
33146
(
(-0.00648823606085 -0.00116743392974 0.00382456603589)
(-0.00207676194832 -0.00466272351326 0.00376529213236)
(-0.0028692032899 -0.00194501946135 0.00745713524864)
(-0.0139966604035 -0.000558294197133 0.00398835721525)
(-0.00818279582982 -0.00356468942938 0.00525932851592)
(-0.00905591068816 -0.00159708982024 0.00739751055567)
(-0.0214029668918 -0.000293652918998 0.00373753587507)
(-0.0157150106698 -0.00298434003587 0.00527503947928)
(-0.0162983536419 -0.00131492169773 0.00691707581446)
(-0.0281980040209 -0.00032514053879 0.00346378944307)
(-0.0230446398573 -0.00292546586059 0.00500643746866)
(-0.0234085889139 -0.00135036874765 0.00643182698269)
(-0.0340469253255 -0.000539330684909 0.00319435372783)
(-0.0295257094075 -0.00323505979686 0.00475198862381)
(-0.0297788148795 -0.00158101683172 0.00596047238574)
(-0.0386206894373 -0.000888294127617 0.00290881141159)
(-0.0348902255009 -0.00383225353348 0.00451936791561)
(-0.0350768939856 -0.00196923243682 0.00546681347644)
(-0.0416008823581 -0.00132472732772 0.00260606891285)
(-0.0388115616823 -0.00468135793661 0.00429592488347)
(-0.0389531122048 -0.00250240303193 0.00494903505195)
(-0.0427607027622 -0.00174443157808 0.0023119323946)
(-0.0408820714707 -0.00569145675409 0.00405664403801)
(-0.0410370982059 -0.00311990509145 0.00440541379547)
(-0.0423987100369 -0.00205266259784 0.00204813546042)
(-0.0411874270541 -0.00647702965873 0.00386693221665)
(-0.0414333928113 -0.00363054801732 0.00391936396393)
(-0.04086896998 -0.00222625643676 0.0018146734582)
(-0.0401476416158 -0.00699329870979 0.00370605256338)
(-0.0404549204093 -0.00398331532241 0.00349201383997)
(-0.0385020431336 -0.00229353577887 0.00161305692243)
(-0.0381786900628 -0.00727428773407 0.00357554844057)
(-0.0385178986426 -0.00418359301804 0.0031261664082)
(-0.0355225354904 -0.00230245288931 0.00144002520099)
(-0.0355630950747 -0.00741834761108 0.00347286864777)
(-0.0359011054744 -0.0042902241858 0.00281553111985)
(-0.0320434851509 -0.00228986291066 0.00129147424953)
(-0.0324717995702 -0.00751347648912 0.00338908568493)
(-0.0327847882615 -0.00435265908052 0.00254748548022)
(-0.0281154837114 -0.00228846259519 0.00116785443263)
(-0.0289884810983 -0.00761246232562 0.00331778178513)
(-0.029257398584 -0.00440991460072 0.00231444216318)
(-0.02374899607 -0.00232644934178 0.00108488581133)
(-0.0251388697263 -0.00776268121045 0.00324695472041)
(-0.0253449626633 -0.00450603054839 0.00211641264392)
(-0.0189968238685 -0.00244216985133 0.00108493072101)
(-0.0209678490874 -0.00798035390831 0.00320857869246)
(-0.0210582852845 -0.00465523030024 0.00200345014277)
(-0.0139591384591 -0.00271411534099 0.00125405319675)
(-0.0166035239867 -0.00832612846539 0.00325997033874)
(-0.0164372125424 -0.00488466410909 0.00206981869433)
(-0.00885853925172 -0.00321530726627 0.00169253809206)
(-0.0122141327046 -0.00893230460371 0.00346101464466)
(-0.0115807669979 -0.00521871236192 0.00247370121245)
(-0.00409555550098 -0.00386193029808 0.00213388907108)
(-0.00770403257018 -0.00983517245699 0.00370859128762)
(-0.00641760833816 -0.00544223158996 0.00332860411249)
(-0.00363424977518 -0.0107583785641 0.00272753011978)
(-0.00264076320482 -0.00483021724483 0.00440490299178)
(-0.00543883909507 -0.00553900101778 0.00520005461239)
(-0.0015017144909 -0.0100514300194 0.00384869186982)
(-0.00273822771847 -0.00642357471602 0.00723987855966)
(-0.0134005194222 -0.00469519056432 0.00654548168986)
(-0.00742875437969 -0.00933611315672 0.00652839609534)
(-0.00897829910655 -0.00594056452405 0.00916420483245)
(-0.0214364447243 -0.00436222619748 0.00654013519482)
(-0.0155770587514 -0.00892526226097 0.006893838692)
(-0.0166103393582 -0.00554985854894 0.00929105902412)
(-0.0286690228196 -0.00459561706156 0.00628286959545)
(-0.023504006452 -0.00913720422743 0.00662117691165)
(-0.0241540838282 -0.00569130920044 0.00887141878617)
(-0.0348161653817 -0.00530085407429 0.00605316479475)
(-0.0304685770221 -0.00997354081677 0.00633461089024)
(-0.0308409609248 -0.00628840526724 0.00842298334342)
(-0.0396113494332 -0.00641685553078 0.00587030777073)
(-0.036226453305 -0.0114189317872 0.00612839327697)
(-0.0363616089517 -0.00730996888672 0.00804314816369)
(-0.0427239375424 -0.0078716196392 0.00570191843496)
(-0.040451631713 -0.0134440922441 0.00598394074158)
(-0.0403780521185 -0.00874359799951 0.00772647716355)
(-0.0437285335885 -0.00927683908443 0.00556138277779)
(-0.042435933625 -0.0159396838896 0.0057951203759)
(-0.0423844237896 -0.0105254716095 0.00739233865947)
(-0.0431469586504 -0.0102656194517 0.0054709096516)
(-0.0422683510771 -0.0178235233061 0.00572418380352)
(-0.042442240129 -0.0118881320023 0.00715774628791)
(-0.0414359352037 -0.0108461567784 0.00541009699521)
(-0.040812808616 -0.019068247123 0.00569415077649)
(-0.0411588444982 -0.0127856272259 0.00697024041842)
(-0.0389551114387 -0.0111272251962 0.00537641734335)
(-0.0385448030288 -0.0198093419272 0.00570176028562)
(-0.0389735640641 -0.0132877975176 0.00682993560796)
(-0.0359296487928 -0.0112505284579 0.0053616170323)
(-0.0357754954549 -0.0202677044508 0.00573891679424)
(-0.0362029945271 -0.0135473216008 0.00673133235113)
(-0.0324405365887 -0.0113236334615 0.00535632098741)
(-0.0326384733506 -0.0206367961807 0.00577750882726)
(-0.0330175740043 -0.013706359396 0.00665649326249)
(-0.0285305031647 -0.0114308626039 0.00534653776995)
(-0.0291815110626 -0.0210109092649 0.0058133995737)
(-0.0294930050298 -0.0138621977261 0.00659413306794)
(-0.0241977643054 -0.0116223957339 0.00533760293917)
(-0.0253902269486 -0.0214668949136 0.00580353802183)
(-0.0256300100771 -0.0141479514932 0.00649346228888)
(-0.0195848052786 -0.0119368807102 0.00536865111347)
(-0.0213216520939 -0.0219833541554 0.00579007650605)
(-0.0214570619242 -0.0145554349176 0.00640986998714)
(-0.0149129787173 -0.0124664968305 0.00546277151253)
(-0.017189414041 -0.0225849056529 0.00579641628282)
(-0.0171158748438 -0.0150730970168 0.00641416105836)
(-0.0104036870138 -0.0132429579621 0.00547652791018)
(-0.0131894083475 -0.0232884667347 0.00579222106896)
(-0.0127746541822 -0.0156298014206 0.00651493222776)
(-0.00601094207167 -0.0139861346336 0.00430223233632)
(-0.00916472504035 -0.0239779898503 0.00548484968831)
(-0.0083914928888 -0.0158860434572 0.00644143947278)
(-0.00452727107136 -0.0240101141613 0.00295526880669)
(-0.00397369830506 -0.0148910170042 0.00477868337052)
(-0.00483038009513 -0.0108999124055 0.00517725632392)
(-0.00118709523549 -0.0152428219448 0.00357500459987)
(-0.00247036126318 -0.0114484455057 0.00669344484106)
(-0.0130112898466 -0.0105525593364 0.00687658463132)
(-0.00701717858642 -0.0150363084951 0.00650809898746)
(-0.00864390626356 -0.0112396166702 0.00924443886128)
(-0.0216123599548 -0.0106094291129 0.00697407194353)
(-0.0156626208401 -0.0150094820674 0.00697184421981)
(-0.0166648157415 -0.0111244395436 0.00968858727403)
(-0.0294239936399 -0.0113164874554 0.00667455819555)
(-0.0242305250071 -0.0156232225039 0.00661948692338)
(-0.0246729320026 -0.0115427107225 0.00926213622973)
(-0.0361005537814 -0.0127498942878 0.0064165732402)
(-0.0318615794435 -0.0170436946925 0.00625289907898)
(-0.0318134032857 -0.01261549799 0.00875039509965)
(-0.0413629481682 -0.0149331272352 0.00625311735525)
(-0.0382837635098 -0.0193860357523 0.00602206127024)
(-0.0377700988362 -0.0144221515172 0.00838141264002)
(-0.0447542959571 -0.0178561022775 0.00608758665729)
(-0.0431620952768 -0.0227430463245 0.00584978985407)
(-0.0421863782363 -0.0170032468586 0.00814422855379)
(-0.0452927316069 -0.0206550966348 0.00595751431683)
(-0.0449580970745 -0.0271905966411 0.00545505287163)
(-0.0440637761114 -0.0203924932301 0.00780362365924)
(-0.0441596505118 -0.0225189426633 0.00594413447879)
(-0.0438469771367 -0.0301922614009 0.00536860055355)
(-0.043503840267 -0.0227777105053 0.00767661322464)
(-0.0420228310167 -0.0236029475446 0.00598256371945)
(-0.041646025349 -0.0320455525024 0.00536982351014)
(-0.041695851074 -0.0242681741376 0.00761381674553)
(-0.0393109153856 -0.0241657943106 0.00606209108327)
(-0.0389012545749 -0.0331050756188 0.00544740132068)
(-0.0391526832356 -0.0250726638605 0.00760986570419)
(-0.0362261771851 -0.0244825329429 0.00615381260599)
(-0.0359263453504 -0.0337840289354 0.00556644222736)
(-0.0362138204402 -0.0254841698651 0.00765571804779)
(-0.032751569892 -0.0247336952376 0.00623441663499)
(-0.032748571567 -0.0344119058838 0.00568658873457)
(-0.0329921289594 -0.0257745817653 0.00771095023994)
(-0.0289000478552 -0.0250401034711 0.00627069348188)
(-0.0293502278473 -0.0350791098373 0.00581716122957)
(-0.0295383007988 -0.0260756719436 0.0077646642958)
(-0.0245988773611 -0.0254326474213 0.00625591402533)
(-0.0256258027055 -0.0358315814253 0.00582071159716)
(-0.0257881743868 -0.02660956619 0.00765605834854)
(-0.0200819499849 -0.0258744907908 0.00621724436252)
(-0.0216003386259 -0.0365452786411 0.00578681420835)
(-0.0217426062351 -0.0272614255298 0.00746874242106)
(-0.0156157432571 -0.0263462496734 0.00612522722822)
(-0.0175569744445 -0.0371975832163 0.00571291142901)
(-0.0176110936694 -0.0279510758006 0.00722493951035)
(-0.0113441559329 -0.026757819046 0.00580033982031)
(-0.0136656818655 -0.0377079339387 0.00555559790058)
(-0.0135273337456 -0.028479120913 0.00690210520313)
(-0.00688574822742 -0.0266923869158 0.00413790034866)
(-0.00970188055568 -0.0378906880071 0.00502033014068)
(-0.00938199595996 -0.0285023727581 0.00626421538889)
(-0.00478829921551 -0.036885295302 0.00231888421328)
(-0.00453306602591 -0.0273055104494 0.00393080507074)
(-0.00465267845651 -0.0160228032231 0.00490802338705)
(-0.00109154142163 -0.0199353999764 0.00331606572209)
(-0.00242319858892 -0.0163545167087 0.00622865955878)
(-0.013093902442 -0.0160352720436 0.00660983110477)
(-0.00696742917769 -0.0199887304282 0.00625362845957)
(-0.00863883132141 -0.0163638679976 0.0088538364556)
(-0.0223037252859 -0.0164409257089 0.00663881927777)
(-0.0161010032214 -0.0202050768204 0.00664963009659)
(-0.0170586017564 -0.0164496041731 0.00928295541876)
(-0.0308529289896 -0.0175940335297 0.00625137145056)
(-0.0253785549328 -0.021098456745 0.00618768756306)
(-0.025631112267 -0.0171196946111 0.00872366436981)
(-0.0383253264607 -0.0197074908643 0.00595466950112)
(-0.033872864992 -0.0229413431337 0.0057623584237)
(-0.0334406196827 -0.0186349854062 0.00810994088465)
(-0.044401576638 -0.0229449104323 0.00575550955703)
(-0.0412946673996 -0.0260072323133 0.0055524425132)
(-0.0401248457933 -0.0211963960751 0.00769565580119)
(-0.0483840838008 -0.0275667112258 0.00537864957393)
(-0.0474403266249 -0.0306158194183 0.00520259452267)
(-0.0453567034375 -0.0249653332819 0.00740711706582)
(-0.0479433106105 -0.0318955795052 0.00500306500001)
(-0.0488678995413 -0.0375509676175 0.00410130742186)
(-0.0469801853716 -0.0304040425536 0.00668531365169)
(-0.0457999907752 -0.0343964405515 0.00493954810753)
(-0.0459785828401 -0.0413362660109 0.00385903233342)
(-0.0452223716601 -0.0336560540932 0.00647903662421)
(-0.0429455879776 -0.0356763017004 0.004992425166)
(-0.0426343038832 -0.0433484212459 0.00381806422737)
(-0.0425331289519 -0.0354507165267 0.00640040010186)
(-0.0398861867447 -0.0362504761022 0.00511956924642)
(-0.0392470436029 -0.0443305303053 0.00392923686418)
(-0.0394381057085 -0.0362556899716 0.00643486391224)
(-0.0367390661374 -0.036591351675 0.00527035497084)
(-0.0360753381414 -0.0449815068398 0.00412046168304)
(-0.0362683543878 -0.0365867674899 0.0065534430531)
(-0.0332812661815 -0.0369491086977 0.00543305791612)
(-0.0329068198429 -0.0458229416786 0.00434788880558)
(-0.032988207735 -0.0369025992787 0.00668558934994)
(-0.0294820472573 -0.0374103030668 0.00551100790666)
(-0.0296098856082 -0.0468626590442 0.00466376998812)
(-0.0296316782526 -0.0372948658747 0.00687151575028)
(-0.0251108340812 -0.0379099187388 0.00546115091504)
(-0.0259301076604 -0.0479091505967 0.00469689515555)
(-0.0259983429062 -0.0380415001519 0.0067138736281)
(-0.020513084895 -0.0383356843386 0.00535117522813)
(-0.0218339416035 -0.0486954807637 0.0046771973008)
(-0.0219743441163 -0.0388097626419 0.00641887766386)
(-0.0159594759287 -0.0386411136703 0.00517525962865)
(-0.0177070808582 -0.0492739757553 0.00457153078381)
(-0.0178572550804 -0.0395457065585 0.00598871554859)
(-0.0115503063773 -0.0386838544486 0.00478486497554)
(-0.0136847481338 -0.0495623456532 0.00437758976288)
(-0.0137298088669 -0.0400311594923 0.00541730630902)
(-0.00692176301972 -0.0379326131336 0.00320242679979)
(-0.0095465988665 -0.0493745351912 0.00388025514751)
(-0.00942964783104 -0.0399343152158 0.00462229825949)
(-0.00465846269146 -0.0476717237088 0.00141086917873)
(-0.00449905977786 -0.0383430761383 0.00250414519011)
(-0.00468700522898 -0.0204417785205 0.00466783885798)
(-0.00107338183992 -0.0240490287441 0.00310021617738)
(-0.00247526509161 -0.0207070388229 0.00584263821954)
(-0.0134674841934 -0.0205781520919 0.0063099648913)
(-0.00706969224495 -0.0241671424908 0.00602294937647)
(-0.00884158954331 -0.0207450976701 0.00843101767974)
(-0.0233291758676 -0.0211181599233 0.00624851602014)
(-0.0166819670224 -0.0244130509311 0.00634029900973)
(-0.0177012786433 -0.0208646030241 0.00873678663804)
(-0.0327518294188 -0.022473605961 0.00581481085555)
(-0.0266898604184 -0.0253364164776 0.00581397514124)
(-0.0269440394337 -0.0216142219388 0.00804936339672)
(-0.0413138974527 -0.0249583930823 0.00557398507893)
(-0.0361790001421 -0.0272883542494 0.00540588992278)
(-0.0356328618824 -0.0233272777239 0.00735718069598)
(-0.0486906088166 -0.0289057974631 0.00533350210366)
(-0.0449325523415 -0.0307011328469 0.00532823055177)
(-0.043399296598 -0.0263227864897 0.00689584258503)
(-0.0538054839642 -0.0352981964516 0.00439349131541)
(-0.0533909381685 -0.0362162542581 0.00465774473341)
(-0.0501828883852 -0.0309270846802 0.00645092206778)
(-0.0514536325602 -0.0411140735762 0.00339622792172)
(-0.0540984758028 -0.0462772954839 0.00223780533799)
(-0.0512921474188 -0.0388942935428 0.00465669431697)
(-0.0476789374475 -0.0436456491231 0.00323292668341)
(-0.0481010877378 -0.050064950516 0.0018353280755)
(-0.0473340423315 -0.0424597166836 0.00422354304237)
(-0.0438291335858 -0.0445743037535 0.00328644701187)
(-0.0432928683928 -0.0515235770023 0.0017647972481)
(-0.0433660815149 -0.043969229274 0.00405646725081)
(-0.0404053452768 -0.0448230526797 0.00346838249681)
(-0.0392817438996 -0.051887508916 0.00190065716176)
(-0.0395664189598 -0.0443108852738 0.00408365245148)
(-0.0373319701824 -0.0451410693768 0.00370520785235)
(-0.036159918176 -0.0522357622843 0.00216030189379)
(-0.0361918352313 -0.0443651973081 0.00425352074477)
(-0.0339988978777 -0.0458243457985 0.00400804785216)
(-0.0332419356708 -0.0533574996932 0.00240440778672)
(-0.0328765936566 -0.0448288342876 0.00445024206095)
(-0.0302270917839 -0.0466729582998 0.0041841561873)
(-0.0300919817085 -0.055249375545 0.00299186520231)
(-0.0296682975935 -0.045684954021 0.00489385497767)
(-0.0256527709689 -0.047321213251 0.00415547269717)
(-0.0263128783591 -0.0567416607541 0.00305351177118)
(-0.0261731240352 -0.0468300563257 0.00471553148284)
(-0.0208399897169 -0.0476710907246 0.00405306953042)
(-0.0219949985696 -0.057590723454 0.00315987684769)
(-0.0220669263465 -0.0476596421258 0.00443923662559)
(-0.0160285856355 -0.0477787159286 0.00385424483453)
(-0.017671589387 -0.0580616786548 0.00310304286615)
(-0.0178496160728 -0.0483418534674 0.00395929883905)
(-0.0113282506764 -0.0475370502205 0.00350183562291)
(-0.0134048336625 -0.0581549239761 0.00292858485162)
(-0.0135614573161 -0.0487323564847 0.00331913934923)
(-0.00656022497966 -0.0463164311658 0.00209314787419)
(-0.0090543237492 -0.0576971765248 0.00255329749343)
(-0.00909779905291 -0.0485523992771 0.0025483223878)
(-0.00435792499737 -0.0554163703494 0.000363168059966)
(-0.00429979312243 -0.0466269775711 0.000738860335465)
(-0.00476474322971 -0.0242073014266 0.00446542206835)
(-0.00105553603159 -0.0276139902502 0.00290675339301)
(-0.00254388120766 -0.024478957495 0.00549489513439)
(-0.0138793087875 -0.024292426413 0.00607606329715)
(-0.00714772886367 -0.0276993328375 0.00584336479968)
(-0.00905928602423 -0.0244362321285 0.00806725475131)
(-0.0243568600707 -0.0247484947262 0.00596941178896)
(-0.0171677000968 -0.0278062535287 0.00612143736138)
(-0.0183280889328 -0.0244488015789 0.008292542289)
(-0.0347096391253 -0.0260722033285 0.00554207503114)
(-0.0278986967868 -0.02848726975 0.00553962936717)
(-0.028235030219 -0.0250967682437 0.00755112514133)
(-0.0445998796155 -0.0287770955177 0.00539140969049)
(-0.0385688215297 -0.0301073942817 0.00501232947431)
(-0.037873417018 -0.0268644912888 0.00685329542066)
(-0.053824877096 -0.0335164470365 0.00496951704789)
(-0.0492689710292 -0.0330676113273 0.00447039858405)
(-0.0469519560802 -0.0303703059885 0.00640480611114)
(-0.0609363779044 -0.042630377874 0.00299108577169)
(-0.0616606219208 -0.0382256973829 0.00225917131828)
(-0.0565009405332 -0.0363807076088 0.00569422434046)
(-0.055183041463 -0.0504949789031 0.000940680483051)
(-0.060833816494 -0.0508220167327 -0.00494933601049)
(-0.0566542825413 -0.049182207642 0.00147181004868)
(-0.0491306150014 -0.0524714562154 0.000707089292708)
(-0.049524641638 -0.0529338968001 -0.0059841726922)
(-0.0490932146261 -0.052818990294 0.000730362959005)
(-0.0442361837631 -0.0524218134889 0.000778578931016)
(-0.0430115588168 -0.0527973983458 -0.00630570055329)
(-0.0436961895348 -0.0536630122994 0.000448203884591)
(-0.0407466942289 -0.0516801717289 0.00104869667879)
(-0.0384749232947 -0.0519525436046 -0.00611166384253)
(-0.0393727272369 -0.0530490800829 0.000434252642322)
(-0.038189380171 -0.0512359107912 0.00137580206312)
(-0.0355976446062 -0.0519606612388 -0.00538066663072)
(-0.0362111179231 -0.0521849524604 0.000646902306953)
(-0.0354162001645 -0.0515832846005 0.00192183050938)
(-0.0333006805277 -0.0539413232809 -0.00401018952818)
(-0.0331861042493 -0.051731085269 0.000890642739945)
(-0.0312653989037 -0.0524682509763 0.00232415892328)
(-0.0305008434791 -0.0593318858099 -0.000775763780458)
(-0.0300494058985 -0.0517255283314 0.00196170847477)
(-0.0262355416785 -0.0531707224679 0.00240724938139)
(-0.0266657931583 -0.0615910876516 0.000402522143868)
(-0.0264301819962 -0.0527176835533 0.00175875625011)
(-0.0210948835201 -0.0534451174166 0.00243953686107)
(-0.0221122839897 -0.0627189334006 0.00110744444303)
(-0.0220516245002 -0.0534046379667 0.00171505135888)
(-0.0159494366662 -0.0533787244073 0.00230423124654)
(-0.0175453044229 -0.0632037249429 0.0012957068723)
(-0.0176801886861 -0.0539278589478 0.00136062070497)
(-0.010902047421 -0.0528840029318 0.002033032937)
(-0.0129599501131 -0.0631643248144 0.00122987118729)
(-0.013199411218 -0.0541511624819 0.000792232044864)
(-0.0060149530855 -0.0512214317335 0.00083400657131)
(-0.00836870157589 -0.0624353829285 0.00100790094808)
(-0.00860602410421 -0.0537645593897 0.000158649653507)
(-0.003951526378 -0.0595431766124 -0.000789142624677)
(-0.00405004056431 -0.0513927144132 -0.00128104157227)
(-0.00479518008828 -0.0274031817617 0.00429623855806)
(-0.00099056721012 -0.0306953419468 0.00273364436255)
(-0.00258522862459 -0.0277204006555 0.00517193477806)
(-0.0141627556988 -0.0272652392005 0.00591413998198)
(-0.00704011142797 -0.0306936581423 0.00574564627864)
(-0.00918331233407 -0.0275128564889 0.00777356919054)
(-0.0251980578247 -0.0272362169203 0.00577758433061)
(-0.017185780489 -0.0304819129334 0.006117488943)
(-0.0187885004813 -0.027186432843 0.00797053170665)
(-0.0366581794937 -0.0276364567618 0.0052613896724)
(-0.0281734966511 -0.030454582723 0.0057789870994)
(-0.0294085366788 -0.0271707617197 0.00716177843813)
(-0.0485546843187 -0.0286923080619 0.00470668838913)
(-0.0392044893028 -0.0307038669728 0.00595327821479)
(-0.0403402739666 -0.0277518403929 0.00618316100074)
(-0.0606533899378 -0.0308601744691 0.00298763769782)
(-0.0511061256482 -0.0312663038982 0.00611548835986)
(-0.0516514280473 -0.0292183770333 0.00477513206266)
(-0.0707423903971 -0.0380819349979 -0.00313058024276)
(-0.0679908708506 -0.032479837613 0.00488478636952)
(-0.0662725151843 -0.0323481769276 0.00125844947784)
(-0.0589397847024 -0.043495980905 -0.00909231944381)
(-0.0652733057659 -0.0402272652266 -0.00698154205964)
(-0.0641938565426 -0.0448003580091 -0.0124849314596)
(-0.0497022182375 -0.0416561217328 -0.0097825445812)
(-0.0477540943419 -0.0382361055042 -0.00590590048196)
(-0.0502340653467 -0.0441495119792 -0.0140764664941)
(-0.0435355580323 -0.0387326128783 -0.00980990889528)
(-0.0404404602559 -0.0355962101278 -0.00432412543541)
(-0.0430192518092 -0.0414277772972 -0.0149663641458)
(-0.0399625769236 -0.0367188768958 -0.00915107075613)
(-0.0367811408682 -0.0332926858668 -0.00284662429564)
(-0.0379206682621 -0.0382072837171 -0.0153205975385)
(-0.0378048224764 -0.0374935852969 -0.00768556706559)
(-0.0363044606717 -0.0335333111639 -0.00112894919385)
(-0.0344673339715 -0.0366087564606 -0.0150315718866)
(-0.0363576757557 -0.0441424343541 -0.00459485615989)
(-0.038838295111 -0.0381779744804 2.63400966247e-05)
(-0.0314175567539 -0.0385235411975 -0.012759897977)
(-0.0319583227292 -0.0513171369636 -0.00165343050145)
(-0.0366418322757 -0.0543639819621 -0.00379676222509)
(-0.0285509866905 -0.0500242804457 -0.00524921532009)
(-0.0267592918112 -0.0538984659777 -0.000319044077823)
(-0.0287823659609 -0.0601338542411 -0.0018245755852)
(-0.0258555976892 -0.0530665882961 -0.00324213555684)
(-0.0213476728762 -0.0549386692933 0.000283356831356)
(-0.0230535335816 -0.0630635412314 -0.000943457112355)
(-0.021749028843 -0.0548022010468 -0.00209324091013)
(-0.0158283871827 -0.0550299722392 0.000389761871756)
(-0.0177122479629 -0.0642105343967 -0.000709104597828)
(-0.0173956930773 -0.0556343168181 -0.00191406851299)
(-0.0103616699277 -0.054363050681 0.000279083794353)
(-0.0125094194801 -0.0642680902682 -0.000716671574228)
(-0.0127343532261 -0.0557996227068 -0.00222104096708)
(-0.00530201538078 -0.0522221746761 -0.000597368456349)
(-0.00753386353136 -0.0632647826032 -0.000750111226587)
(-0.00801260229379 -0.0551216655941 -0.00258633024126)
(-0.00343682922044 -0.0596779728591 -0.00197814790356)
(-0.00375217312047 -0.0521454584658 -0.00345607008564)
(-0.00466109573212 -0.0302638974223 0.00418875475075)
(-0.000904491814679 -0.0334855266848 0.00255128049205)
(-0.00252984515847 -0.0306123566887 0.00489103526713)
(-0.0139766362873 -0.0300119388569 0.00593612279161)
(-0.00684757503999 -0.0335574611292 0.00565983989084)
(-0.00897862689784 -0.0303255112768 0.0076239268295)
(-0.0249091608387 -0.0297030631926 0.00603980459213)
(-0.0169620748888 -0.0334543456547 0.00611654289926)
(-0.0184361699305 -0.0298258370116 0.00800473279986)
(-0.0361298279416 -0.0294676843002 0.00620950024138)
(-0.0278596413329 -0.0335801285726 0.00590310767608)
(-0.0287885757846 -0.029401531323 0.00755940527218)
(-0.047811581204 -0.0292763696494 0.00672561455468)
(-0.0385417398913 -0.0339125208191 0.006458879298)
(-0.0390175485453 -0.0290794835534 0.00735126726614)
(-0.0606739430821 -0.0293012717495 0.00654933439456)
(-0.0505419797623 -0.0344613049174 0.0070106540724)
(-0.0498391086547 -0.0289296428998 0.00777307044437)
(-0.0730990313246 -0.0318870160773 -0.000153050865838)
(-0.0698657275959 -0.0354210441675 0.0060016539183)
(-0.0676100054429 -0.0295240493631 0.00705704129191)
(-0.0562495716999 -0.033103911007 -0.00644560833601)
(-0.0656972750641 -0.0376572344651 -0.00729277606901)
(-0.0638420468048 -0.0349503336675 -0.0116915560049)
(-0.0458665899895 -0.0303481926543 -0.00378545388996)
(-0.0446564263241 -0.0368243136251 -0.00465644226538)
(-0.0451711417516 -0.0325956266421 -0.00733316059002)
(-0.0406950836958 -0.0278399149986 -0.00132865848233)
(-0.037866942663 -0.036532204097 -0.00191825881221)
(-0.0385532141116 -0.0293779176212 -0.00328878916989)
(-0.0408329774356 -0.0269317968464 0.000949320500298)
(-0.0358452059003 -0.0371676057903 0.000212420125411)
(-0.0358183247293 -0.0267704310086 0.0018045342876)
(-0.0447173204114 -0.0293165202323 0.00266051414397)
(-0.0385086976675 -0.0388463661937 0.00255167626274)
(-0.0369292742681 -0.0264104525546 0.00538008668637)
(-0.0516991824555 -0.0383446220276 -0.00128923385619)
(-0.0475148984569 -0.0431456296583 0.00386706281713)
(-0.0447312477147 -0.0305987474544 0.00763729039726)
(-0.0395641556305 -0.0475487305597 -0.00467923774654)
(-0.0456780396813 -0.054405218592 -0.00649126862691)
(-0.0413075642009 -0.0453497317967 -0.00774854181824)
(-0.0299611939046 -0.0511271495373 -0.00249103264095)
(-0.0319754054791 -0.0583020470546 -0.00412829508433)
(-0.0288954605288 -0.0502020653675 -0.00698489286533)
(-0.0227051598119 -0.0526773611522 -0.00179846341876)
(-0.0246689019504 -0.0608628101642 -0.00306242082596)
(-0.0232913869792 -0.0526297639459 -0.00554505913574)
(-0.0160830916901 -0.0528216079103 -0.00168579837252)
(-0.0181168873483 -0.0618644940655 -0.00287165266297)
(-0.0178527223512 -0.0535874175246 -0.00530279747409)
(-0.0098132952405 -0.0518823993426 -0.00167223458547)
(-0.0120017833602 -0.0616675473552 -0.00287260318585)
(-0.0124790816282 -0.0535487457723 -0.00548514656724)
(-0.00438649275474 -0.0491351579758 -0.00210968828149)
(-0.00647582590636 -0.0601948567174 -0.00263886079929)
(-0.0073918410562 -0.0524051899122 -0.00552021072299)
(-0.00275635102748 -0.0557232144229 -0.00308643590421)
(-0.00340408190677 -0.0486334566544 -0.00557134734469)
(-0.00460397752382 -0.032828244176 0.00403046360184)
(-0.000851744266633 -0.035782778912 0.00232333768778)
(-0.00251688473135 -0.0331750503653 0.00454013980823)
(-0.013985323531 -0.0326783668708 0.00584398559064)
(-0.00676260546434 -0.0359711845615 0.00551411621944)
(-0.0089145220356 -0.0329494524241 0.00738026192003)
(-0.0250129513662 -0.0325387572402 0.00597928303831)
(-0.0169306946049 -0.0360610366833 0.00598877049919)
(-0.0183746124278 -0.0326012750981 0.00781703864107)
(-0.0363488264157 -0.0325082904266 0.00615864686225)
(-0.0277972412476 -0.0364200078651 0.00574649671677)
(-0.0286903900183 -0.0323805588489 0.0074104512371)
(-0.0482358350699 -0.0325395134363 0.00679203881277)
(-0.0383001765614 -0.0368753081875 0.0061307906599)
(-0.0387420816022 -0.0322204623809 0.00730048602977)
(-0.0616898730639 -0.0325457396332 0.00638587212153)
(-0.0502167095316 -0.0373179794784 0.00699039533916)
(-0.0497440244845 -0.0322850405679 0.00790640463287)
(-0.0739319556556 -0.0321163477804 -0.000151032078543)
(-0.0695307155074 -0.0372347671851 0.0054858958987)
(-0.0684003791724 -0.0325972037497 0.00644193876334)
(-0.0556984778538 -0.0312076720785 -0.00574306275294)
(-0.0646544281545 -0.034900623745 -0.00737961992349)
(-0.0637535409783 -0.0326369710894 -0.0128765976414)
(-0.0456249408236 -0.0305427581674 -0.00272685041586)
(-0.0436156725261 -0.0352658586273 -0.00444105258278)
(-0.043611159318 -0.0315831350017 -0.00703463745602)
(-0.0413371335635 -0.0306238460584 -0.000186347094044)
(-0.0376348443744 -0.0367350611301 -0.00163953016022)
(-0.0377950461188 -0.0310696935164 -0.00259411679477)
(-0.0424591096193 -0.0315750501092 0.00211371523483)
(-0.0364262261039 -0.038739002354 0.000595943184956)
(-0.0360795980439 -0.0311744982959 0.00183963615119)
(-0.0485324935344 -0.0339288326971 0.00392669359517)
(-0.0403572305263 -0.0414916267635 0.00305967834037)
(-0.0389896537602 -0.0323914153742 0.00627651786957)
(-0.0593324857031 -0.039207851043 -0.000707623936868)
(-0.0519641294249 -0.0452191634764 0.00450426620136)
(-0.0507336810505 -0.0356712854511 0.00945512417055)
(-0.0436563260869 -0.0442893815971 -0.00596259248966)
(-0.0500355060628 -0.0508741917523 -0.00771074699872)
(-0.0475631934072 -0.043059419943 -0.0133646754849)
(-0.0325548338975 -0.0464946484053 -0.00459392594045)
(-0.0339042072878 -0.0539286858863 -0.00601937278481)
(-0.0316448107426 -0.0462846132483 -0.0102681249963)
(-0.0240013955422 -0.0474009282286 -0.00398683011458)
(-0.0257435556179 -0.0555937875374 -0.0052467771166)
(-0.0246479849229 -0.0478822508789 -0.00901579780155)
(-0.016262532736 -0.0470578240147 -0.00393045900236)
(-0.0181956732455 -0.0561122697137 -0.00518587221032)
(-0.0182306378415 -0.0481957790399 -0.00880322854112)
(-0.00908118050542 -0.0455749436938 -0.00376413864541)
(-0.0111884905999 -0.0553430708365 -0.0052741978432)
(-0.0120863800041 -0.047540831476 -0.00889027306573)
(-0.00321143963425 -0.04205639603 -0.0035922049567)
(-0.0050773040078 -0.0533702711099 -0.00456712864657)
(-0.00656469374914 -0.045668251464 -0.00843057258242)
(-0.00182857838368 -0.047896682506 -0.00397493574196)
(-0.00292661350342 -0.0409059318648 -0.00736833590006)
(-0.00463502721376 -0.0348453309371 0.003817563191)
(-0.000843851121669 -0.0373670637444 0.00204316688495)
(-0.00255247408957 -0.0351842304137 0.00410474267343)
(-0.0141745554949 -0.0348252377456 0.00566915126388)
(-0.00679707315967 -0.037684368123 0.00530957981994)
(-0.00898112431694 -0.0350425658799 0.00703923193857)
(-0.0253277471423 -0.0348610027488 0.00576368714802)
(-0.0170654980025 -0.0379910697223 0.00575565142208)
(-0.0185038274277 -0.0348754286476 0.00746388174298)
(-0.036672881513 -0.0349174476126 0.00571595367213)
(-0.0278161820165 -0.0385891073894 0.00538075008977)
(-0.028753566648 -0.0348475575045 0.00697768581546)
(-0.0483821220549 -0.0347862558848 0.00629492762698)
(-0.0379758445616 -0.0390680587575 0.00538042925256)
(-0.0385705148979 -0.0346875118105 0.00670060908703)