/*--------------------------------*- C++ -*----------------------------------*\
| =========                 |                                                 |
| \\      /  F ield         | OpenFOAM: The Open Source CFD Toolbox           |
|  \\    /   O peration     | Version:  v1606+                                |
|   \\  /    A nd           | Web:      www.OpenFOAM.com                      |
|    \\/     M anipulation  |                                                 |
\*---------------------------------------------------------------------------*/
FoamFile
{
    version     2.0;
    format      ascii;
    class       volVectorField;
    location    "0.3";
    object      U_0;
}
// * * * * * * * * * * * * * * * * * * * * * * * * * * * * * * * * * * * * * //

dimensions      [0 1 -1 0 0 0 0];

internalField   nonuniform List<vector> 
11640
(
(-0.00100963158117 -0.00071136450236 0.0012727959644)
(-0.00299353021651 -0.000652651044971 0.00120118291689)
(-0.0049147171637 -0.000653677799434 0.00116402258305)
(-0.00670175601631 -0.000726117486332 0.00114768229096)
(-0.00827017704883 -0.000850885960022 0.00113826763994)
(-0.00953347973929 -0.00102016688362 0.00113050463314)
(-0.0104125954293 -0.00122726804097 0.00112342566255)
(-0.0108440294839 -0.00145328273781 0.00111809997986)
(-0.01084384191 -0.0016623948093 0.00112206510106)
(-0.0104878780939 -0.00183706339802 0.00113598513755)
(-0.00987796509314 -0.0019727481241 0.00115867107261)
(-0.00910094390145 -0.00207761804285 0.00118771659561)
(-0.00821677278422 -0.00216237196786 0.001219427587)
(-0.00725543409328 -0.00223707163366 0.00125056928015)
(-0.00622807042979 -0.00230735433628 0.0012800228003)
(-0.00513674453629 -0.00237845925443 0.00130873873438)
(-0.0039813845332 -0.00245631795684 0.00134268887926)
(-0.00277597105603 -0.00255162109506 0.00139631627987)
(-0.001532393446 -0.00267831454579 0.00150235467371)
(-0.000529741328657 -0.00280510585806 0.00168535064869)
(-0.00094798564682 -0.00212413684708 0.00119388428563)
(-0.00291978892128 -0.00205681744725 0.00139033474213)
(-0.00496271794369 -0.00211743476802 0.00141238146253)
(-0.00686276385772 -0.00234426844555 0.0013956052336)
(-0.00852258954272 -0.00271443317059 0.00138743093211)
(-0.00986730902389 -0.00322137328785 0.00138890890851)
(-0.0108089847788 -0.0038514503271 0.00139557764143)
(-0.0112548159937 -0.00455628719203 0.0014032832607)
(-0.0112145400014 -0.00520088960341 0.00142750354141)
(-0.0108035053419 -0.00573599915425 0.00146633015804)
(-0.0101419456363 -0.00615749643529 0.00151719181039)
(-0.00932762881609 -0.00648957074693 0.00157642084921)
(-0.00842194243833 -0.0067653549642 0.0016383702433)
(-0.00744860063186 -0.00701390794928 0.0016969798738)
(-0.00641391107424 -0.0072481854171 0.0017493174094)
(-0.00532262612221 -0.00747819670691 0.00179529920676)
(-0.00418389226535 -0.00770879834783 0.00183943711984)
(-0.00302659695924 -0.00794833765577 0.00188459113501)
(-0.0018601499892 -0.00819935713071 0.00190003897901)
(-0.000710034830155 -0.00837377663093 0.00166688126203)
(-0.000941719157519 -0.00345482101131 0.00115341113151)
(-0.00296960776279 -0.00350405443481 0.00141097873258)
(-0.00516777773846 -0.00369339394402 0.00145868195337)
(-0.00724685468181 -0.00409570151129 0.00143417282585)
(-0.00908639520297 -0.00472594631543 0.00141680917079)
(-0.0106043431098 -0.0056006864328 0.00141216307037)
(-0.0116832511913 -0.00671559320335 0.00140913216837)
(-0.0121403746288 -0.00800358117088 0.00139198392117)
(-0.0119842478457 -0.00915168450305 0.00140952373272)
(-0.0114274421136 -0.0100887104376 0.00145448406988)
(-0.0106369970458 -0.0108245467847 0.00152216184803)
(-0.00973288940386 -0.011411863879 0.00160528080497)
(-0.00877748548614 -0.0119129723076 0.00169203616172)
(-0.0077776960971 -0.0123763224591 0.00177128749564)
(-0.00672621875551 -0.0128126308485 0.00183940112793)
(-0.00562489805022 -0.0132310688021 0.00189385037417)
(-0.00447969862453 -0.013622469864 0.00193539969967)
(-0.0033148240389 -0.0139674683737 0.00196311587044)
(-0.00211919003338 -0.0142372637379 0.00193373804212)
(-0.000828158373062 -0.0142915613149 0.00162520074388)
(-0.000990631317929 -0.00467618897254 0.00113970171916)
(-0.00314900529068 -0.00480828338517 0.00139954682239)
(-0.00554635260964 -0.00510336086659 0.00144146445471)
(-0.00786847280528 -0.00565389135165 0.00140256034392)
(-0.00998272841931 -0.00650974512454 0.00137333627942)
(-0.0117936894153 -0.0077290206816 0.00135258824059)
(-0.013134804806 -0.00934688719719 0.0013135680829)
(-0.013609480032 -0.0113235540861 0.00120809395907)
(-0.0132243727178 -0.0129919198412 0.00118752342409)
(-0.0124134940939 -0.0143086687735 0.0012229310204)
(-0.0114150798739 -0.0153301029067 0.00130222563747)
(-0.0103764875117 -0.0161577309793 0.00141123554619)
(-0.00935266032255 -0.0168930586939 0.00153088814802)
(-0.00831388372311 -0.0175999935466 0.00163813275172)
(-0.0072271104798 -0.0182641883752 0.0017262151655)
(-0.00608738390701 -0.0188921928822 0.001791284948)
(-0.00488632011916 -0.0194612466129 0.00183575433152)
(-0.00363488591225 -0.0199295224504 0.0018640288655)
(-0.00231458132124 -0.0202429497631 0.00184209017079)
(-0.00089614531779 -0.0202222570364 0.00156776145303)
(-0.00106531814846 -0.00575434638942 0.00113732208472)
(-0.00339596578844 -0.00592133318159 0.00139875310098)
(-0.006031698412 -0.006266818582 0.00143261631976)
(-0.00865339863449 -0.00689745578722 0.00138453729225)
(-0.0111405834942 -0.0078941906641 0.00134860171323)
(-0.0133978243991 -0.00937216246505 0.00130968285848)
(-0.0152143762252 -0.0114477439621 0.00120628058476)
(-0.0157132799831 -0.014242625553 0.000884518460972)
(-0.0149048876669 -0.0163824638325 0.000792996153745)
(-0.0137115569526 -0.0179984987145 0.000817032920227)
(-0.012439767328 -0.0192503514168 0.000921878949478)
(-0.0112524526899 -0.0203170818263 0.00108224625715)
(-0.0101717958787 -0.0213485263123 0.00126507175712)
(-0.00909546890574 -0.0224076748623 0.00142763630796)
(-0.00795601127707 -0.0233773990931 0.00155905468698)
(-0.00675137404982 -0.0242741051728 0.00165172448207)
(-0.00544987042234 -0.0250717737652 0.00170808022345)
(-0.00405047041779 -0.0257146434998 0.00174253101818)
(-0.00254694413085 -0.0261341153498 0.00173648039616)
(-0.000969472753806 -0.0261012474339 0.00148737254884)
(-0.00114527282858 -0.00668066894296 0.00114357821385)
(-0.00365996819107 -0.0068523747593 0.0014128304435)
(-0.006547412903 -0.00719326325077 0.00144623548981)
(-0.00949894531819 -0.00781923396147 0.00139942556535)
(-0.0124366218725 -0.00884105552185 0.00136760086242)
(-0.0153059648568 -0.0104522266911 0.00131488617227)
(-0.0179452906673 -0.0129172642821 0.0010939261963)
(-0.0184693485459 -0.016775052521 0.000305768009468)
(-0.0169270503223 -0.0192637557583 0.000110939616641)
(-0.0152404592803 -0.0210420257337 0.000139298032449)
(-0.0136941795976 -0.0224376218268 0.000296054489744)
(-0.0124243590401 -0.0237333502419 0.000544867507271)
(-0.0113653000582 -0.0251151381946 0.000823429522223)
(-0.0102585601347 -0.0266632436055 0.00110403677301)
(-0.00901366373615 -0.0280616616012 0.00131919762452)
(-0.00769957399483 -0.0293346796176 0.00146838747525)
(-0.00624426270394 -0.0304467983822 0.00154955459339)
(-0.00463094737621 -0.0313306539522 0.00159346433517)
(-0.00287317573026 -0.0319045491784 0.00159976949412)
(-0.00107255423725 -0.0318758816577 0.00137473237974)
(-0.00121829510345 -0.00748180145578 0.00115797126663)
(-0.00390273269822 -0.00763931864133 0.00144176673398)
(-0.0070234449874 -0.00792480183359 0.00148384963529)
(-0.0102998693957 -0.00842957376192 0.001447110559)
(-0.0137423151851 -0.00922253634531 0.00141355404442)
(-0.0174318401063 -0.0104539857023 0.00127270776045)
(-0.021442630363 -0.0124182551686 0.000701910103647)
(-0.0219192571928 -0.0165137392286 -0.00153815934962)
(-0.0191305575593 -0.0186385312341 -0.00193460994242)
(-0.0168840138018 -0.0202305795998 -0.00188571874813)
(-0.0151378522565 -0.0217287670784 -0.0016194668061)
(-0.0139095020798 -0.0235508655132 -0.00116632398882)
(-0.0130175346883 -0.0260396686577 -0.000560366744773)
(-0.0119216370152 -0.0296047578439 0.000367234016039)
(-0.0105283586323 -0.032005365372 0.00089214293088)
(-0.00905286733409 -0.0339510391685 0.00118003101247)
(-0.00736453695922 -0.0355400870995 0.001314258627)
(-0.00544329509963 -0.0367551620715 0.00137441720477)
(-0.00332870903931 -0.0375227157296 0.00139530358289)
(-0.00121381272777 -0.0374983163465 0.0012100315605)
(-0.00127695922626 -0.00820374831439 0.00118053132173)
(-0.00409186640232 -0.00836025348303 0.00149004821509)
(-0.00736390486253 -0.00861840913088 0.00156735064973)
(-0.0107984931455 -0.00904703000785 0.0016082150284)
(-0.0144247608726 -0.00966110529722 0.0017421567978)
(-0.0184751901064 -0.0105387174109 0.00194214583047)
(-0.0239038508625 -0.0119141292602 0.00194713194526)
(-0.0245165726553 -0.0149788419706 -0.00142805219988)
(-0.0207155797835 -0.0168353318557 -0.00129359331977)
(-0.0184473109093 -0.0186504491276 -0.000707204749412)
(-0.0171152684407 -0.0207534160879 -0.000105795604766)
(-0.0167450508024 -0.0234638013307 0.00057596425872)
(-0.0171739704058 -0.0271103493567 0.000962087867754)
(-0.0159908432965 -0.0320833596913 -6.55520043008e-05)
(-0.0132361977312 -0.0354775197682 0.000523403045547)
(-0.0111583129497 -0.0381847220551 0.000858752390052)
(-0.00898269689216 -0.0403372941882 0.00100239360744)
(-0.00657029074741 -0.0419406403263 0.0010601922068)
(-0.00394461308196 -0.0429202861966 0.00109477393816)
(-0.00139850671679 -0.0428900523783 0.000973709977198)
(-0.00134069031367 -0.00886572005995 0.00120138965186)
(-0.00429755807165 -0.00905134510409 0.00153424349354)
(-0.00773520692232 -0.00935482997367 0.00163175531048)
(-0.0113430680074 -0.00984422887324 0.00170310461662)
(-0.015173129921 -0.0105138481127 0.00190589085772)
(-0.0195796832261 -0.0114065154357 0.00221992957029)
(-0.025792068813 -0.0126320097384 0.0023046578756)
(-0.0266912508558 -0.0145241199014 -0.00129373877816)
(-0.0227892054266 -0.0165820624253 -0.00104637874815)
(-0.0208487485755 -0.0190847281802 -0.000393270962717)
(-0.020001066049 -0.0221389476689 0.000328638632213)
(-0.0202672758347 -0.0257549120029 0.00105143015219)
(-0.0215380131636 -0.0299880159905 0.00135033234006)
(-0.0202461120515 -0.0349527555844 -0.000534553954417)
(-0.0165510774421 -0.0388352484104 0.000130311331869)
(-0.0138741620846 -0.0421380345965 0.000471410945858)
(-0.0110869654777 -0.0448171288838 0.000588406242661)
(-0.00802252126316 -0.0468030846864 0.000622284627878)
(-0.00472416015678 -0.0479844032406 0.000668777053601)
(-0.00162482955354 -0.0479235829278 0.000646541403958)
(-0.00142022456865 -0.00943634038716 0.00121700148358)
(-0.0045499433911 -0.00966865176466 0.00157118415347)
(-0.00818061038042 -0.0100548562413 0.00167874028589)
(-0.0119641406783 -0.010655761208 0.00175718970593)
(-0.0159537530411 -0.0114203581593 0.00197425451773)
(-0.020553827066 -0.0123065122212 0.00235039856649)
(-0.0270790272356 -0.0132475557821 0.00244749013374)
(-0.0284482607122 -0.014038375747 -0.00119569174543)
(-0.0252291041322 -0.0161685537563 -0.00095628577131)
(-0.0239869982074 -0.0192546010043 -0.000308615890573)
(-0.0237590101698 -0.0231948978332 0.000407694932414)
(-0.0245260492157 -0.0277410829429 0.00113761708225)
(-0.0262085694389 -0.0325820320745 0.00137963214995)
(-0.0247147104953 -0.0374338697525 -0.000906430070807)
(-0.0203700110606 -0.0417984902322 -0.000329324207342)
(-0.0171321492406 -0.0456648724224 -1.56329305964e-05)
(-0.0136472952083 -0.0488465853556 4.35185200809e-05)
(-0.00978482314978 -0.0511911679282 2.79369693995e-05)
(-0.00565237719603 -0.0525388070194 8.83930317987e-05)
(-0.00188080788456 -0.0524121758083 0.000206301385765)
(-0.00152422836844 -0.00985896239164 0.00122500587404)
(-0.00487352598457 -0.0101487232525 0.00159801756849)
(-0.00874152175803 -0.0106450165916 0.00170439221785)
(-0.0127132538153 -0.0114019816561 0.00176359995963)
(-0.0168061151608 -0.0123125045954 0.00194868069252)
(-0.021398601987 -0.0131934983769 0.00231919632582)
(-0.0276311260214 -0.0135938899751 0.00237356294926)
(-0.0296288831474 -0.0121480787501 -0.000810955317335)
(-0.0279640004126 -0.0142346275909 -0.000618483957048)
(-0.0278626387705 -0.0183255886363 4.71947159534e-05)
(-0.0284726353102 -0.0236791668329 0.000663234734795)
(-0.0296229205279 -0.0295361391639 0.0012813031543)
(-0.0311280165254 -0.0350662026262 0.00132896201875)
(-0.0293522868033 -0.0393534446183 -0.00106375576642)
(-0.0247665532834 -0.0442506881604 -0.000656835165793)
(-0.0209487613222 -0.0486486746922 -0.000541752620099)
(-0.0166508323474 -0.052261688248 -0.00061590989097)
(-0.0118242681707 -0.0548882829447 -0.000719138452797)
(-0.00669526683794 -0.0563381683341 -0.000661168528197)
(-0.00214997385358 -0.0561058998259 -0.000365013578947)
(-0.00165534347451 -0.0100582546662 0.00122554757029)
(-0.00528322276529 -0.0104053506696 0.0016156766442)
(-0.00944792636217 -0.01101935238 0.00170923421126)
(-0.0136355261535 -0.011971020146 0.00172331053817)
(-0.0177474962916 -0.0131720657048 0.00184168532528)
(-0.0218318193871 -0.0144592281746 0.00213660079867)
(-0.0259661673528 -0.0154590306967 0.00265408025394)
(-0.0291554660753 -0.0147870807817 0.00322913283934)
(-0.0314090427966 -0.0174317416857 0.00352117687204)
(-0.0334554602004 -0.0217970823498 0.00328927036227)
(-0.0350080304286 -0.0272109016322 0.00272797290819)
(-0.0359763404883 -0.0329116749192 0.0020112371467)
(-0.0361417578204 -0.0380980217342 0.00111688724599)
(-0.0339161862832 -0.0418937649704 -0.000282378090952)
(-0.0297544343308 -0.0467370144952 -0.000687288929865)
(-0.0252117186987 -0.0512012288083 -0.00106507779952)
(-0.0199615114522 -0.0549193994857 -0.00141127432669)
(-0.0140382321214 -0.0576159088679 -0.00166323423168)
(-0.00779310384477 -0.05904568851 -0.00161435990071)
(-0.00240681516475 -0.0586633814806 -0.00110145377057)
(-0.00181505410038 -0.00996448106273 0.00122204969502)
(-0.00577527706161 -0.0103496241433 0.00163160691514)
(-0.0103162309991 -0.011049943004 0.00171149006155)
(-0.0148599927781 -0.0121562430468 0.00166977278071)
(-0.0192859606173 -0.0136378600827 0.00168207277036)
(-0.023645676321 -0.0154513228823 0.00177995322328)
(-0.0279453941659 -0.0175462487085 0.00192526830104)
(-0.0317286784497 -0.019821344569 0.0020125643613)
(-0.034877626437 -0.0230289507183 0.00198910960826)
(-0.0375933097029 -0.026866473192 0.00172840533287)
(-0.0395857225477 -0.0311993393862 0.00123815032565)
(-0.0405675418223 -0.0357535621456 0.000592867481209)
(-0.0402477778589 -0.0401628996402 -0.000111000041437)
(-0.0380319289889 -0.0441477003182 -0.000854398596848)
(-0.0341648144809 -0.0485822104189 -0.00143522175443)
(-0.0292009017217 -0.0527759623502 -0.001993862008)
(-0.0231528426782 -0.0563353176936 -0.00249150251286)
(-0.0161724663487 -0.0589190184261 -0.00284199287749)
(-0.00879973896885 -0.0602067815792 -0.00274592714217)
(-0.00259462177559 -0.059600325062 -0.00190304342525)
(-0.0019884697477 -0.00952476261462 0.00121668605127)
(-0.00631191950371 -0.00992498774917 0.00165027399859)
(-0.0112658747815 -0.0106584461191 0.00172579840299)
(-0.0162186680445 -0.0118182424962 0.00164493924915)
(-0.0210302359464 -0.0133927062291 0.00158656923536)
(-0.025726409018 -0.0153571944788 0.00157547538494)
(-0.0302956658038 -0.0176646929523 0.00158330934549)
(-0.0345698795729 -0.0202733822578 0.00155139452228)
(-0.0383954913268 -0.0235078584853 0.00139993555789)
(-0.0416179090691 -0.0272339171509 0.00105869408111)
(-0.0439237013931 -0.0313193020801 0.000526256654695)
(-0.0449969702976 -0.0356072780945 -0.000146331520905)
(-0.0445682672855 -0.0399338781151 -0.00088750047874)
(-0.0423623596267 -0.0441675459234 -0.00167131653121)
(-0.0384489449717 -0.0484561914247 -0.00242559915293)
(-0.0330419630942 -0.0524458044769 -0.00314013298998)
(-0.026233223382 -0.0558240722254 -0.00377841498558)
(-0.0182383074796 -0.0582663715649 -0.00423485784055)
(-0.0097651413706 -0.0594272728621 -0.00411156519708)
(-0.0027535732332 -0.0586798664812 -0.00292134444621)
(-0.00216448825608 -0.00872372165757 0.00121152496097)
(-0.00685606911735 -0.00911785135651 0.00166907914593)
(-0.0122269025131 -0.00983679119002 0.00174667345295)
(-0.0175999711083 -0.0109639030563 0.00163887577997)
(-0.0228269708169 -0.0124975405591 0.00152854721531)
(-0.0279237879014 -0.0144303336193 0.00143644746661)
(-0.0328775586266 -0.016746098123 0.00133492061188)
(-0.0375800477665 -0.0194360321347 0.00118007065)
(-0.0418492737933 -0.0225548909215 0.000901581486513)
(-0.045429667892 -0.0260361362787 0.000458352964417)
(-0.0479945367623 -0.0298073102858 -0.000155172294401)
(-0.0492182111772 -0.0337858134391 -0.000905914950506)
(-0.0488250160686 -0.037881195447 -0.00175508548765)
(-0.0466070841902 -0.0419800381402 -0.00266081691552)
(-0.0425362538148 -0.0460016514071 -0.00356948073562)
(-0.0366902850841 -0.0497006454167 -0.0044354679217)
(-0.0291605193621 -0.0528208323989 -0.0052186051118)
(-0.0201881936387 -0.0550697314136 -0.00578823195218)
(-0.0106287922768 -0.0561035842582 -0.00562344535772)
(-0.0028594396866 -0.0552821472726 -0.00402791598427)
(-0.00233571244754 -0.00757091108372 0.00121073413975)
(-0.00737532834697 -0.00794764450729 0.00168720341009)
(-0.0131337561471 -0.00861471519473 0.00176675872266)
(-0.0188964196922 -0.00963410244049 0.00164171611629)
(-0.0245162182149 -0.0110101069711 0.00149477606657)
(-0.0300058836712 -0.0127463004473 0.00134317255121)
(-0.0353452346538 -0.0148392565414 0.00115602330733)
(-0.0404264074663 -0.0172811307505 0.000892661196613)
(-0.0450494866844 -0.0200632739778 0.00050294586363)
(-0.0489325721872 -0.0231447446892 -4.48562357389e-05)
(-0.0517381647701 -0.026476546674 -0.000759737919068)
(-0.053131425445 -0.0300031505624 -0.00162774114228)
(-0.0528175084425 -0.0336646529631 -0.00261825056302)
(-0.0505663299792 -0.0373523896551 -0.00368390927337)
(-0.0462927066933 -0.0409241801209 -0.00475902884675)
(-0.04002289141 -0.0441954974588 -0.00578073302532)
(-0.0318335634059 -0.046977640943 -0.00670848923962)
(-0.0219740836411 -0.0490404842888 -0.00738654119715)
(-0.0114135490143 -0.0500456044059 -0.0071667656746)
(-0.00294590403318 -0.0493187004767 -0.00513586922552)
(-0.00250048725618 -0.006102414048 0.00122229572467)
(-0.00785305250079 -0.00646472370603 0.00170847207248)
(-0.0139306800816 -0.00705649450438 0.0017819864307)
(-0.0200153906055 -0.00790629734292 0.00164366731664)
(-0.0259668519253 -0.0090295023519 0.0014722836447)
(-0.0317957115399 -0.0104415858439 0.00127737917987)
(-0.0374703887398 -0.0121458125014 0.00102487286753)
(-0.0428704587277 -0.0141343661302 0.000675657445542)
(-0.0477856992254 -0.0163882665678 0.000188767544399)
(-0.0519239796108 -0.018880758789 -0.000462902475894)
(-0.0549354488307 -0.0215666647138 -0.00128940369462)
(-0.0564777466218 -0.0244023248146 -0.00228795017995)
(-0.056241200592 -0.0273554758973 -0.00343053883759)
(-0.0539477791644 -0.0303359581917 -0.00466382129392)
(-0.0494879089312 -0.0332115622135 -0.00590303802792)
(-0.042877196483 -0.0358685077216 -0.0070775933966)
(-0.0341852107847 -0.0382037353681 -0.0081493289938)
(-0.0236420935796 -0.0400750733402 -0.00894432787558)
(-0.0122406759342 -0.0411791224688 -0.00867937359716)
(-0.00309556554055 -0.0408134265758 -0.00620847847258)
(-0.0026635062731 -0.00439138697517 0.00126271515033)
(-0.00828266357289 -0.00475519648224 0.00173667504275)
(-0.014578849502 -0.00525259818107 0.00179001779788)
(-0.0208783761955 -0.00587943529281 0.00164289420559)
(-0.0270705519653 -0.00667724848405 0.00146012521083)
(-0.0331549444816 -0.00767363125886 0.00123911968401)
(-0.0390814612815 -0.00887340898102 0.000942379257333)
(-0.0447156042684 -0.0102670676946 0.000532293362053)
(-0.0498427110271 -0.0118344103808 -2.93392020971e-05)
(-0.0541609583902 -0.0135545204838 -0.000757031631659)
(-0.0573104398342 -0.0153896469449 -0.00168446934184)
(-0.0589404103236 -0.0172983829741 -0.00278468600762)
(-0.0587556135925 -0.0192863695689 -0.00404924936377)
(-0.0564200681781 -0.0212964420368 -0.00541913908355)
(-0.0518381268007 -0.0232331283839 -0.0067842127366)
(-0.0450401339926 -0.0250654973357 -0.00807871873585)
(-0.0361062929697 -0.0267844769815 -0.0092712436007)
(-0.0252320122882 -0.0283843256211 -0.0101852839539)
(-0.0132967744834 -0.029714942287 -0.00997292642439)
(-0.00345097164767 -0.0301162892139 -0.0072023183153)
(-0.00282900596362 -0.00251689634456 0.00136968698029)
(-0.00864581160182 -0.00290286327807 0.00175593154908)
(-0.0150328278422 -0.00327252500579 0.00176537866506)
(-0.021429258986 -0.00363329154913 0.00162985823867)
(-0.0277533489638 -0.00406947016968 0.00146047161251)
(-0.0339838557157 -0.0046113403536 0.00124311773385)
(-0.0400479742477 -0.00525976543163 0.000942794490437)
(-0.0457961124959 -0.00600047050327 0.000526198301636)
(-0.0510099846808 -0.00681614738998 -4.03731638262e-05)
(-0.055390099025 -0.00768435033838 -0.000769143941255)
(-0.0585744006315 -0.00858305777917 -0.00169645328529)
(-0.0601862541886 -0.009476971757 -0.0027706307073)
(-0.0600045401321 -0.0103996104593 -0.00401654571736)
(-0.0576253422104 -0.0113278733994 -0.00537363053631)
(-0.0530032955337 -0.0122119103134 -0.00670583466624)
(-0.0461962095826 -0.0130872851775 -0.00796753770953)
(-0.0373396547821 -0.014014924314 -0.0091365582414)
(-0.0266427418587 -0.0151390120052 -0.010126791813)
(-0.0147854953019 -0.0166101711207 -0.010313256166)
(-0.00420438295553 -0.0179669391444 -0.00807035183914)
(-0.0029608541799 -0.000871299888492 0.00156225454383)
(-0.00884346796357 -0.00106977860388 0.00155127464396)
(-0.0151429663636 -0.00122128553434 0.0014987632815)
(-0.0214836325252 -0.00133907772905 0.00141514480473)
(-0.0277962722774 -0.00147372019566 0.00129644469821)
(-0.0340127726759 -0.00163810991179 0.00113024559729)
(-0.0400399410838 -0.0018294483451 0.000898204672435)
(-0.0457233935718 -0.00203740998783 0.000577678144049)
(-0.0508432613155 -0.00225330050061 0.000148546367051)
(-0.0551084639761 -0.00246334243195 -0.000397054894433)
(-0.0581803497264 -0.00265793880646 -0.00109911861687)
(-0.0596445909514 -0.00282248777191 -0.00187230487003)
(-0.0593947408114 -0.00297336737299 -0.00277261172146)
(-0.0569809604326 -0.00312095139033 -0.00377064228581)
(-0.0524151290345 -0.00325145735828 -0.00472725183142)
(-0.0457782191321 -0.00340507429183 -0.00563321390151)
(-0.0372868317552 -0.00363298637469 -0.00647226690396)
(-0.0272810331418 -0.00404810321341 -0.00726764001492)
(-0.0162801025336 -0.00481656282881 -0.00803320035665)
(-0.00521661067692 -0.00579915974467 -0.00844959835288)
(-0.00107364798862 -0.000778834674244 0.00342434411601)
(-0.00302613028686 -0.000832590323858 0.0033373773765)
(-0.004951522637 -0.000879472334081 0.00327068652144)
(-0.00674109204241 -0.000983040219983 0.00324102307617)
(-0.00831760458327 -0.00113576654571 0.00322855497069)
(-0.00959558335152 -0.00133696806171 0.00322320624405)
(-0.0104918701407 -0.00158385554538 0.00322125116219)
(-0.0109344950995 -0.00185875503776 0.00322351268249)
(-0.0109362795445 -0.00211235697248 0.00324870493282)
(-0.0105805043566 -0.00232542970377 0.00329873252482)
(-0.00997068050652 -0.00249445283757 0.00337076029926)
(-0.00919434300047 -0.00262875083624 0.00345833569576)
(-0.00831051962485 -0.00274083635262 0.0035519751465)
(-0.00734624064265 -0.00284265175698 0.00364288052547)
(-0.00631022319791 -0.00294012523792 0.00372716523389)
(-0.00520187343068 -0.00303788499361 0.00380779052614)
(-0.00401447684297 -0.00313705939833 0.00389848491104)
(-0.00275115255395 -0.00323071725245 0.0040303085928)
(-0.00143199903073 -0.00324895662755 0.00425436425845)
(-0.0004315022646 -0.00296027626967 0.00454908487122)
(-0.00114983815598 -0.00217852611566 0.00332324686249)
(-0.00310897016986 -0.0022493865679 0.00358186078559)
(-0.00502809159945 -0.00237596116694 0.00361637662216)
(-0.00687314764739 -0.00264177884585 0.00359505413765)
(-0.00851456310539 -0.00304063206105 0.00358785329678)
(-0.00986334594098 -0.00357724478244 0.00359913847052)
(-0.0108231400877 -0.00424656538175 0.00362100150187)
(-0.011285456756 -0.00500988947852 0.00364447896321)
(-0.0112565341255 -0.00570302128675 0.00370396697067)
(-0.0108617711937 -0.00627897678273 0.00379720942071)
(-0.0102196034004 -0.00673618464122 0.00391935908201)
(-0.00942529080546 -0.00710146508332 0.00406106592541)
(-0.0085367712833 -0.00741054898745 0.00420925725803)
(-0.00757306493977 -0.00769568693342 0.00435020020598)
(-0.00653699286123 -0.0079734287179 0.00447463892076)
(-0.00543134927605 -0.00825182696933 0.00458336670684)
(-0.00426026700209 -0.00852134497833 0.00468487117992)
(-0.00304209383635 -0.00874802592761 0.00478323220112)
(-0.00181065057058 -0.00882651322483 0.00483057967692)
(-0.000651156452504 -0.00848976870643 0.00456582754988)
(-0.00119485308598 -0.00352094945789 0.00325023842874)
(-0.00322881136865 -0.00361417875254 0.00361434142631)
(-0.00525414068257 -0.00382971844715 0.00370169851448)
(-0.00723437194123 -0.00424383834313 0.00367434177824)
(-0.00902609175241 -0.00487781512819 0.00364758377345)
(-0.0105303976223 -0.00575545422051 0.0036403815715)
(-0.0116246562672 -0.00688308004038 0.00363751028582)
(-0.0120976841558 -0.00821986934211 0.00360806278176)
(-0.0119524969148 -0.00939388178219 0.00365065879398)
(-0.0114216063331 -0.0103470571074 0.00375463943413)
(-0.0106641702729 -0.0110945965778 0.00390986152684)
(-0.00979479941589 -0.0116926928515 0.00410030338889)
(-0.00887015634614 -0.0122088419222 0.00430283329008)
(-0.00789188265811 -0.012698272766 0.00449289304204)
(-0.00684709039058 -0.0131771090325 0.00465076107394)
(-0.00573571365443 -0.0136501560002 0.00477512285832)
(-0.00455932334668 -0.0140953288845 0.00486836203543)
(-0.00332753996792 -0.014457089115 0.0049245718162)
(-0.00206050509585 -0.0146464725506 0.00487646450235)
(-0.000769661257841 -0.0145043703411 0.00447887305607)
(-0.00127393964331 -0.0047477926924 0.00322559854312)
(-0.00344863578984 -0.00488687977909 0.0036034896439)
(-0.0056484764747 -0.00517556111778 0.00368881287985)
(-0.00784447592784 -0.00571454991057 0.00363351229327)
(-0.0098896085179 -0.00655702339049 0.00356957134854)
(-0.0116726516063 -0.00776529423276 0.00351365871386)
(-0.0130363567594 -0.00938736036055 0.00342616246236)
(-0.0135231585057 -0.0114484346973 0.00321127050818)
(-0.013135076094 -0.0131405673978 0.00316736636907)
(-0.0123528717421 -0.0144591946529 0.00325063640564)
(-0.0113945041663 -0.0154705443471 0.00343442868882)
(-0.010399715253 -0.0162823954304 0.00368951044584)
(-0.00941628956035 -0.0170097437127 0.00397124802055)
(-0.00841114411352 -0.0177290070587 0.00423323924923)
(-0.00733922173151 -0.0184336261974 0.00443785150794)
(-0.00619197947745 -0.0191191762021 0.00458950150819)
(-0.00495950534024 -0.0197582020971 0.00468832321854)
(-0.00363572062108 -0.0202853048789 0.00473395251324)
(-0.0022339691554 -0.0206122423203 0.00468313871931)
(-0.000823927494571 -0.0205235689528 0.00432820530511)
(-0.00137339712713 -0.00583067873803 0.00322876633946)
(-0.00372820589736 -0.0059911087649 0.0036131744878)
(-0.00615004170912 -0.00631322271888 0.00368649619214)
(-0.00862912521685 -0.00691940554239 0.00360601635919)
(-0.011033554359 -0.0078931942056 0.0035075659367)
(-0.0132550137692 -0.0093528787143 0.00338790633591)
(-0.0151304356819 -0.0114339125155 0.00314169095364)
(-0.0156310772517 -0.0144324170274 0.00245682977327)
(-0.0147789095718 -0.0166152580221 0.0022274584688)
(-0.0136045083268 -0.0182205410165 0.00227304345593)
(-0.0123663839279 -0.0194316239157 0.00251200629428)
(-0.0112179176931 -0.0204425865274 0.00289013174022)
(-0.0101744266955 -0.021434741703 0.00332101342093)
(-0.00914976011276 -0.0224958922257 0.00373422122416)
(-0.0080449463731 -0.0235046339209 0.00403869521362)
(-0.00684030757964 -0.0244520094467 0.00425653830847)
(-0.0055135712711 -0.0253252862435 0.00438531650363)
(-0.00404627441917 -0.0260533479819 0.00444542673991)
(-0.00246788182844 -0.0265423004292 0.00441352258099)
(-0.000903499959471 -0.0264951443753 0.00410502807475)
(-0.00147724285841 -0.00676189741118 0.00325454792329)
(-0.00402255232096 -0.00692460195987 0.00365550499748)
(-0.00668171747471 -0.00723688758753 0.00373121263184)
(-0.00947635181446 -0.00783704095154 0.0036487174836)
(-0.0123161799846 -0.00884395696911 0.00354265259054)
(-0.0151375403535 -0.0104743011643 0.00336902022014)
(-0.0179431760262 -0.0130636412395 0.00287065361947)
(-0.018455564192 -0.0176371364086 0.000970810793149)
(-0.0167851393474 -0.0202771595052 0.000455192868346)
(-0.0150941235789 -0.0220528176408 0.000509965776282)
(-0.0135592284219 -0.0233677753159 0.000889147489174)
(-0.0123062889185 -0.0245202035854 0.00149658478657)
(-0.0112533774189 -0.0257087957656 0.0021856027926)
(-0.0102136780519 -0.0269851644247 0.00292117540793)
(-0.00904244188435 -0.0283260926954 0.00342279045656)
(-0.00774924807382 -0.0295971731072 0.00377968992572)
(-0.00629056297523 -0.0307661462531 0.00397020947763)
(-0.0046280616678 -0.0317409620946 0.00405482764555)
(-0.00281730712565 -0.0324036939139 0.00404452078408)
(-0.00103160448646 -0.0323780065979 0.00377837699697)
(-0.00157325260783 -0.0075665343196 0.0033015421261)
(-0.00429466675015 -0.00771361670728 0.00373186396366)
(-0.00717662585933 -0.00796206998411 0.00383105255413)
(-0.010292030236 -0.00842042435105 0.00377363966856)
(-0.0136495125918 -0.00914949766376 0.00366154642588)
(-0.0173413952307 -0.0102889251176 0.0032907890978)
(-0.0219511288606 -0.0121527423662 0.00184092672952)
(-0.0223148021732 -0.0172221122797 -0.00397825705892)
(-0.0190893436132 -0.0193602177556 -0.00491162209732)
(-0.016733743131 -0.0207637406092 -0.00471135146346)
(-0.0149018531286 -0.0220336870777 -0.00393429791737)
(-0.0135530711716 -0.0235866304336 -0.00270100548311)
(-0.0124150165798 -0.0259519380318 -0.00103254126372)
(-0.0113293066425 -0.0300754058539 0.00118792713766)
(-0.0103057290277 -0.0324284169096 0.00233832110678)
(-0.00898690466571 -0.0343560177621 0.00304088145568)
(-0.00737104126502 -0.0359893478988 0.00336027779887)
(-0.00544532045758 -0.0372936661937 0.00348453407458)
(-0.00331711241115 -0.0381518237838 0.00350334547698)
(-0.00121686680627 -0.0381281597971 0.00329875251937)