/*--------------------------------*- C++ -*----------------------------------*\
| =========                 |                                                 |
| \\      /  F ield         | OpenFOAM: The Open Source CFD Toolbox           |
|  \\    /   O peration     | Version:  v1606+                                |
|   \\  /    A nd           | Web:      www.OpenFOAM.com                      |
|    \\/     M anipulation  |                                                 |
\*---------------------------------------------------------------------------*/
FoamFile
{
    version     2.0;
    format      ascii;
    class       surfaceVectorField;
    location    "0.3";
    object      Uf;
}
// * * * * * * * * * * * * * * * * * * * * * * * * * * * * * * * * * * * * * //

dimensions      [0 1 -1 0 0 0 0];

internalField   nonuniform List<vector> 
33146
(
(-0.00210902831417 -0.000706717719937 0.00131190162165)
(-0.00103465248939 -0.00147437539933 0.00130747371643)
(-0.00110867430738 -0.000781041018037 0.00238911043674)
(-0.00422450098974 -0.000668866108045 0.00125385025583)
(-0.0031432870044 -0.00134391597019 0.0013835069585)
(-0.00320961111665 -0.000773997231077 0.00230647505779)
(-0.00623583754606 -0.000702364878153 0.00122157833193)
(-0.00526967259503 -0.00134621491748 0.00137426412015)
(-0.00527230295433 -0.000794655299713 0.00223860514483)
(-0.0080492438978 -0.000803103102168 0.00120334007947)
(-0.00724718214299 -0.00148787663053 0.00135252131591)
(-0.00719031660244 -0.00088461180104 0.00220105540147)
(-0.00957822142261 -0.000956026813241 0.00118922582978)
(-0.00897572571327 -0.00173599641374 0.0013386458337)
(-0.0088745127312 -0.00102928155957 0.0021765500717)
(-0.0107331337347 -0.00115286168636 0.00117582928842)
(-0.0103679442704 -0.00207835607665 0.00133067029722)
(-0.010231543817 -0.00122382909198 0.00215550122782)
(-0.0114319641734 -0.00137947577918 0.00116333655281)
(-0.0113330989987 -0.00250217845355 0.00132559251361)
(-0.0111729821861 -0.00146288661822 0.00213519342585)
(-0.0116316139856 -0.00160612345084 0.00115664576992)
(-0.0117859648585 -0.00297063244363 0.00132154266015)
(-0.0116250244641 -0.00172638014017 0.00211648210915)
(-0.0114001908747 -0.00180402885528 0.00116035838905)
(-0.0117428280367 -0.00339663841456 0.0013313888131)
(-0.0116058047589 -0.00196789399836 0.00211475910562)
(-0.0108429302635 -0.00196145020535 0.00117429271618)
(-0.0113097324535 -0.00374620950882 0.00135438285332)
(-0.0112030428284 -0.00216783451159 0.00213200845877)
(-0.0100673332786 -0.00208067225593 0.0011967061056)
(-0.010608902885 -0.00401444907678 0.00138877876903)
(-0.0105302709224 -0.00232201777479 0.00216650023147)
(-0.00915673495726 -0.00217231440054 0.00122444253835)
(-0.00974155808387 -0.00421847161871 0.00143150195132)
(-0.00968317110685 -0.00244040929714 0.00221360121833)
(-0.00816051537408 -0.00224798433 0.0012538485514)
(-0.00877449817988 -0.00438198354098 0.00147761735592)
(-0.00872725519317 -0.0025359831273 0.00226655102267)
(-0.00709799731221 -0.00231676066645 0.00128258361196)
(-0.00773780537126 -0.00452693000508 0.00152201289832)
(-0.00769417576354 -0.00262108136178 0.00231900665343)
(-0.00597422762069 -0.00238510977648 0.00131066590905)
(-0.00664053137678 -0.00466564186834 0.00156193442625)
(-0.00659440297322 -0.00270293023462 0.0023681134162)
(-0.00478730162375 -0.00245947746525 0.00134220507808)
(-0.00548504718093 -0.0048079182544 0.00159831104241)
(-0.00542759178432 -0.0027872078334 0.00241672141446)
(-0.00354028193517 -0.00254932547059 0.00138886506438)
(-0.00427583340848 -0.0049624168008 0.0016378269089)
(-0.00418916718464 -0.00287790738842 0.00247736788675)
(-0.00226021244437 -0.0026678763537 0.00147619717471)
(-0.00303578161954 -0.00514662072822 0.00169033622113)
(-0.00288799626685 -0.00297688706153 0.00257787182301)
(-0.00103205823262 -0.00280477798054 0.00163285792614)
(-0.00177485254903 -0.00537936769421 0.00175555880661)
(-0.00153996007293 -0.00305210432564 0.00276762414611)
(-0.000656638703699 -0.00560949980052 0.00172399470877)
(-0.000502127123029 -0.00296064498481 0.00305174385589)
(-0.00197234635074 -0.00218565124781 0.00137907905329)
(-0.000991668115244 -0.00293731075356 0.00124301982187)
(-0.00111382684539 -0.00226056482743 0.00229039721379)
(-0.00420390132311 -0.00216940472329 0.00150388008215)
(-0.0031187510335 -0.00292142788995 0.00150300973226)
(-0.00320967704812 -0.00225463127857 0.0025396229602)
(-0.00634891128969 -0.00231005560761 0.00150491470365)
(-0.00539435430575 -0.00304018077136 0.00154203107048)
(-0.00533517834645 -0.00234387557686 0.00255886579067)
(-0.00826687699476 -0.0026166948791 0.00148690086815)
(-0.00752912839856 -0.00336116723731 0.00151558169661)
(-0.00734411713709 -0.00259592554543 0.00252472996916)
(-0.00988592310774 -0.00307316713861 0.00147815884247)
(-0.00940301653272 -0.00388253406563 0.00149615907009)
(-0.00911202140159 -0.00299554631275 0.00250450039654)
(-0.0111182697527 -0.00366791245155 0.00147743829875)
(-0.0109305776856 -0.00460613269663 0.00148888566061)
(-0.010549538745 -0.00354149594346 0.00250007011776)
(-0.0118636059095 -0.00436728254362 0.00148003789498)
(-0.0120010912274 -0.00551750478422 0.00148597699358)
(-0.0115570576788 -0.00422348371809 0.002504541204)
(-0.0120398502665 -0.00507122482 0.00149198422313)
(-0.0124640836185 -0.00654941699068 0.00147623389968)
(-0.0120252851415 -0.00499472358279 0.00250925930956)
(-0.0117518929083 -0.00567978911614 0.00152073663834)
(-0.0123321948679 -0.00747541707649 0.00149415484778)
(-0.0119649159081 -0.005690747049 0.00254199608787)
(-0.0111341240145 -0.00616547592978 0.00156388270311)
(-0.0117879942843 -0.00822933145096 0.00153428963266)
(-0.0115095926089 -0.00626142031363 0.00259963199696)
(-0.0103096452242 -0.00654020347417 0.00161834543777)
(-0.0109881410366 -0.00881220065686 0.00159329588885)
(-0.0107901225973 -0.00670452144935 0.00267883602997)
(-0.00936812037968 -0.00683612526301 0.00167926726701)
(-0.0100518086552 -0.00926462096462 0.00166567719589)
(-0.00991252815833 -0.00704872191479 0.00277332400859)
(-0.00835605838556 -0.00708800082479 0.00174043596781)
(-0.00904711529116 -0.00963870955379 0.00174207972841)
(-0.00894266164282 -0.00733241914501 0.00287364824355)
(-0.00728578487051 -0.00732033048815 0.00179679098079)
(-0.00799221542859 -0.00997834332509 0.00181343047525)
(-0.00790497871091 -0.00758993595056 0.0029692660584)
(-0.00615995033456 -0.00754705673908 0.00184660320653)
(-0.00688589423096 -0.0103017685324 0.00187499934889)
(-0.00680391434637 -0.0078402797343 0.0030521963234)
(-0.00498275896819 -0.00777677760778 0.00189261506076)
(-0.00572983325041 -0.0106216460307 0.00192582154174)
(-0.00564183709289 -0.00809365883097 0.00312324992425)
(-0.00377325967478 -0.00801703477647 0.00193894198974)
(-0.00453199077128 -0.0109374368452 0.00196901572107)
(-0.0044254302465 -0.00834754104476 0.00319135100667)
(-0.00256909197547 -0.00827286312916 0.00196965172998)
(-0.00331980276008 -0.0112421151392 0.00200526180263)
(-0.00317946136934 -0.00858689009777 0.00326363868955)
(-0.00139425032826 -0.00849633750617 0.00184669558923)
(-0.00209127565402 -0.0115150843043 0.00199361027333)
(-0.00192642601154 -0.00875371397468 0.00330741705907)
(-0.000819537522222 -0.0116152944393 0.0016913942479)
(-0.00072328451791 -0.00865561793839 0.00307449978297)
(-0.00196069951516 -0.00365368343202 0.00136696696649)
(-0.001008347475 -0.00430090636932 0.00121015437114)
(-0.00112979587835 -0.00367151250887 0.0022164099028)
(-0.00431926632249 -0.00376863497244 0.00154114858056)
(-0.0032278692731 -0.00439887026289 0.00150603151086)
(-0.00329020832755 -0.00374046920998 0.00255668163342)
(-0.00665014742587 -0.00406853543194 0.0015526729506)
(-0.00569063768874 -0.00465013359238 0.00155614948883)
(-0.0055537291701 -0.00394332430073 0.00262008273842)
(-0.00875851228625 -0.00460248166797 0.00152509641934)
(-0.00804939350854 -0.00514836421098 0.00151600853149)
(-0.00772897831892 -0.00436269308449 0.00257681855765)
(-0.0105661885039 -0.00538787272983 0.00150765278349)
(-0.0101643961508 -0.0059308655514 0.00148273327501)
(-0.00967132484792 -0.00501972478509 0.00253881229603)
(-0.0119688929727 -0.00643073851689 0.00149856763279)
(-0.0119384899797 -0.00703527413414 0.00146145073264)
(-0.0112820654292 -0.00593676549374 0.00252093431794)
(-0.0128130042294 -0.00769294487431 0.00148307664501)
(-0.0132199794127 -0.00847258629875 0.00143280562555)
(-0.0124322801472 -0.00711444414397 0.00250973408251)
(-0.012904789579 -0.00896685775542 0.00147812327661)
(-0.0136914536247 -0.0101733057199 0.00136190059224)
(-0.0129074361737 -0.00849540214307 0.0024763767453)
(-0.0124619614194 -0.0100436196528 0.00150690932476)
(-0.01336570068 -0.0116372314902 0.00135527670379)
(-0.0127167269564 -0.00970317217647 0.00249986543203)
(-0.0116878473626 -0.01089364393 0.00156271047378)
(-0.0126019461533 -0.0127973846605 0.00139268006504)
(-0.0121065269357 -0.0106727533737 0.00256828523969)
(-0.0107428495707 -0.0115528262597 0.001639566638)
(-0.0116186709834 -0.0136858291965 0.0014664368191)
(-0.0112538969614 -0.011419486253 0.00267502918681)
(-0.00972843948923 -0.0120852466368 0.00172737451053)
(-0.010561480646 -0.0143839081641 0.00156565650582)
(-0.0102872909483 -0.0120038410407 0.00280926388277)
(-0.00868115620287 -0.0125525760035 0.00181391189148)
(-0.00949483922643 -0.0149807618742 0.00167412669647)
(-0.00927244831471 -0.0124980030457 0.00295339769549)
(-0.0075943160569 -0.0129900624796 0.00189050414257)
(-0.00840955784329 -0.0155409104991 0.00177413599328)
(-0.00821677631935 -0.0129596465487 0.00308853986891)
(-0.00646020177398 -0.0134108400189 0.00195328755611)
(-0.0072823513173 -0.0160730144747 0.00185660026596)
(-0.00710827846774 -0.0134097332259 0.00319777258386)
(-0.00528018732023 -0.0138148534069 0.00200164121004)
(-0.00610761595552 -0.0165863146806 0.00191906292713)
(-0.00594431588322 -0.0138553219802 0.0032788296866)
(-0.00407246439321 -0.0141861844112 0.00203509175177)
(-0.00488402991668 -0.0170633312341 0.00196292473354)
(-0.00472840465975 -0.0142786666084 0.00333496721119)
(-0.00286432651913 -0.0144976582372 0.00202917185447)
(-0.00362910123705 -0.0174683704552 0.00198928396527)
(-0.00347728548756 -0.0146373119932 0.00336684866126)
(-0.00162015981866 -0.0146565665871 0.00183830978842)
(-0.00232590033766 -0.0177489960524 0.00195567398745)
(-0.00219594252953 -0.0148652180352 0.00332969084684)
(-0.000916295939217 -0.0177208850015 0.00163043090135)
(-0.000850084844464 -0.0147999745588 0.00299044271463)
(-0.00206019786715 -0.00498600784079 0.00134938928389)
(-0.00106884020157 -0.00551533358294 0.00119716171136)
(-0.00119348636399 -0.00496223118674 0.00218319107674)
(-0.00459241279868 -0.00520103856427 0.00152162590988)
(-0.00344145514642 -0.00567167354846 0.0014946858363)
(-0.00349151569371 -0.00509963976041 0.00253077925892)
(-0.00716026952469 -0.00563330563184 0.00152161865255)
(-0.00613270726727 -0.00600515526841 0.00153603877401)
(-0.00595034831868 -0.00539455973153 0.00258766733075)
(-0.00954268290951 -0.00636155662386 0.00147892893987)
(-0.00877714418263 -0.00662510915088 0.00148088083999)
(-0.00836698070897 -0.00595399151823 0.00251739550116)
(-0.0116543395753 -0.0074441716127 0.00144595473742)
(-0.011233867226 -0.00760387839798 0.00143482947139)
(-0.0105879148835 -0.00683575796515 0.00244993493827)
(-0.0133605362133 -0.00893045138958 0.00140882985462)
(-0.0133976717806 -0.0090336242789 0.00139269072409)
(-0.0124997478487 -0.00810499714905 0.00239678773124)
(-0.0144067834753 -0.0108194221536 0.0013263210396)
(-0.0150699316253 -0.0109912482981 0.00130534536094)
(-0.0139299800237 -0.00980511035041 0.00232444576683)
(-0.0143184086055 -0.0127252722932 0.00125086128767)
(-0.0155523143718 -0.0134944058236 0.00106600047078)
(-0.014413324005 -0.0119302597477 0.00215019038892)
(-0.0135932708564 -0.0142619062768 0.00125285145912)
(-0.014862576283 -0.0154832017694 0.000996716277447)
(-0.0139596967133 -0.0136730433414 0.00211039730306)
(-0.012558222121 -0.0154442510922 0.001308901546)
(-0.0137514653285 -0.0169924072128 0.00101939219867)
(-0.0130730914817 -0.0150183559501 0.0021626092609)
(-0.0114265654046 -0.01636081128 0.00140557644783)
(-0.0125074056607 -0.018133580726 0.00111143145134)
(-0.0119981325754 -0.0160349923544 0.00228939016079)
(-0.0103078681931 -0.017124058533 0.00152539028207)
(-0.0112985947242 -0.0190561442649 0.00125275235987)
(-0.0108913123425 -0.0168381583089 0.00247056421986)
(-0.00921272731097 -0.0178256403008 0.00164642105519)
(-0.0101672803033 -0.019897435372 0.00141650950538)
(-0.00980940460055 -0.017547561156 0.00267458561145)
(-0.00809758035196 -0.0184969560327 0.00175037936548)
(-0.00904851762816 -0.0207304661907 0.00156912338423)
(-0.0087248241198 -0.0182401761531 0.00286671124918)
(-0.00693477658087 -0.0191364049506 0.00182976353357)
(-0.00788492927753 -0.0215153927651 0.00168956805962)
(-0.00759303681873 -0.0189164811969 0.00301260160168)
(-0.00571395105175 -0.0197340262436 0.00188473023805)
(-0.00666457260628 -0.0222584667864 0.00177499267452)
(-0.00639873996499 -0.0195743132056 0.00311245648517)
(-0.00444001725668 -0.0202542642838 0.00191903674906)
(-0.00536659125149 -0.0229312096977 0.00182779279044)
(-0.00513181075882 -0.0201852420216 0.00316867658284)
(-0.00313037787219 -0.0206442800829 0.0019163135673)
(-0.00399500867353 -0.0234780799547 0.00185808276053)
(-0.00379319699128 -0.0206888459312 0.00318800073263)
(-0.0017508432273 -0.0207767399192 0.00174785451679)
(-0.0025362012097 -0.0238296568301 0.00183739689829)
(-0.00238032004946 -0.0210066231061 0.00314863755323)
(-0.000984528545932 -0.0237577766815 0.0015461514045)
(-0.000910296526388 -0.0209240817228 0.00285791749729)
(-0.00221208618449 -0.00613700399574 0.00134296095005)
(-0.00114572358976 -0.00656190361934 0.00119463213579)
(-0.00128170836157 -0.00609774600925 0.00217128304293)
(-0.00495637977768 -0.00639582932547 0.00151063086816)
(-0.00369839631064 -0.00673581578584 0.0014962745022)
(-0.00375915532721 -0.00626372885511 0.00252094492282)
(-0.00780396803553 -0.0068935572316 0.00150011412631)
(-0.00664324667414 -0.00708833047811 0.00153157935009)
(-0.00645695161372 -0.00659929190052 0.00256216646569)
(-0.0105373474411 -0.00773273985921 0.0014479124359)
(-0.00961636531586 -0.00774204441476 0.00147044323043)
(-0.0091790870161 -0.00723101991591 0.00246856995009)
(-0.0130844634766 -0.00901804645223 0.00140194127487)
(-0.0125047807209 -0.00880025747016 0.00142148916751)
(-0.0117853373867 -0.00824928816784 0.00237541950401)
(-0.0152851601706 -0.010871438298 0.00132039936098)
(-0.0152241611145 -0.0104241416567 0.00136262298995)
(-0.0141625094773 -0.00977863220748 0.00227744130731)
(-0.0167254972464 -0.0134248417747 0.00108624823518)
(-0.0175861382322 -0.0128098882588 0.00117289280288)
(-0.0161138426105 -0.0119505223558 0.00209073772457)
(-0.016272630311 -0.0159971300344 0.000848929612405)
(-0.0180764296312 -0.0162767099086 0.000565637597647)
(-0.016603816815 -0.0149944684212 0.00156503020492)
(-0.0150896748558 -0.0179141449178 0.000804067613829)
(-0.0167460270095 -0.0186719071635 0.000398798782182)
(-0.0156597860684 -0.0172208056792 0.00139348145989)
(-0.0136895553216 -0.0193488519726 0.000865454358662)
(-0.0151611926216 -0.0203982099603 0.00041279813466)
(-0.0143520855328 -0.0188490961303 0.00141619125257)
(-0.0123335622681 -0.0204887431235 0.00100222789601)
(-0.0136233815869 -0.0217142413202 0.00054238852695)
(-0.0129775381813 -0.0200670845399 0.0015795144652)
(-0.0111164205986 -0.0215152933647 0.00118404737797)
(-0.0122941213628 -0.0228696279548 0.000756397613496)
(-0.0117080257074 -0.0210793044719 0.00184666302062)
(-0.00998688085823 -0.022545804503 0.00137213099651)
(-0.0111493802169 -0.0240547987547 0.00100436427544)
(-0.0105643130656 -0.0220675615397 0.00216089281777)
(-0.00883816926022 -0.0235551299338 0.00153241874498)
(-0.0100051214536 -0.0253304461752 0.00125778134679)
(-0.00945822796694 -0.0231129039638 0.00247059156496)
(-0.00762658520544 -0.0244890248153 0.00165103020006)
(-0.00877036934113 -0.0264915536239 0.001449798568)
(-0.00829559799418 -0.0241027795315 0.00269555799793)
(-0.00632959199749 -0.0253395482208 0.00172753028813)
(-0.00746754751961 -0.0275573119886 0.00158380127671)
(-0.00704791945304 -0.0250318118145 0.00284608014337)
(-0.00493204412449 -0.0260627414975 0.00177121958227)
(-0.00604391469396 -0.0285004555052 0.00165791200964)
(-0.00568778730023 -0.0258783521566 0.00292304915968)
(-0.00345283748495 -0.0265914918269 0.00178055602384)
(-0.00448908125407 -0.029254214393 0.00169733066416)
(-0.00420339923146 -0.0265719471453 0.00294965992872)
(-0.00188916264471 -0.0267644831224 0.00163583756899)
(-0.00280800218261 -0.0297361196788 0.00169335366134)
(-0.00260847424152 -0.0270243606816 0.0029254269617)
(-0.00106796376772 -0.0296555402358 0.00143196537455)
(-0.000983499255262 -0.0269510576415 0.00267657072538)
(-0.00237499228196 -0.00710805583826 0.00134877010235)
(-0.00122098007705 -0.00745581483763 0.00120079933803)
(-0.00137445647685 -0.00706986448223 0.00217502483758)
(-0.00534139709215 -0.00736412777904 0.00151929912314)
(-0.00395030674352 -0.00762181086744 0.00151371466199)
(-0.00404091570672 -0.00723735108095 0.00253507694004)
(-0.00848369706898 -0.00785149943385 0.00150798006752)
(-0.00714309266059 -0.00793765403244 0.00155227687823)
(-0.00699032905059 -0.00756066044371 0.00257208904905)
(-0.01161660519 -0.00869322599584 0.00145753710888)
(-0.0104553260779 -0.00852564636044 0.00149451342969)
(-0.0100482104054 -0.00817972191535 0.00247267162288)
(-0.0147195050163 -0.0100510738995 0.00140641068917)
(-0.013842490214 -0.00949832857557 0.00143860550579)
(-0.013117385548 -0.00921957557806 0.00237269443114)
(-0.0176551754738 -0.0121655655038 0.00125072505488)
(-0.0173137729791 -0.0110598508029 0.00130312848524)
(-0.0161286126039 -0.0108977793459 0.00223650709438)
(-0.0198262436011 -0.0154730879564 0.00070425613156)
(-0.0208390421842 -0.0135355697416 0.000814137740462)
(-0.0190061175187 -0.0135278276384 0.00185983119608)
(-0.018676928068 -0.0187682427217 0.000148685160126)
(-0.0212855550789 -0.0179234933682 -0.000888322512196)
(-0.0194939959487 -0.0179519245385 0.000492507841615)
(-0.016832101811 -0.0209153540708 4.75037929687e-05)
(-0.0188663913435 -0.0203753893424 -0.00124495243036)
(-0.0177007682352 -0.0205678990699 0.000116746427239)
(-0.0150181830114 -0.0224751644307 0.000135320122092)
(-0.0167181184896 -0.0220901764728 -0.00123203959248)
(-0.0158503666807 -0.0223397597219 0.000130451693323)
(-0.0134868653339 -0.0237804788106 0.000345580087579)
(-0.0149309282244 -0.0235049704033 -0.00101970394911)
(-0.0141711105148 -0.0236599009101 0.000376208933785)
(-0.0122643271292 -0.0250886311305 0.000627042198018)
(-0.0135872898352 -0.0249881060308 -0.000637857215676)
(-0.0128054773162 -0.0248434388093 0.000793800007159)
(-0.0111733489481 -0.0265481729753 0.000936642279955)
(-0.0125555702825 -0.0267822553048 -0.000125536854061)
(-0.0116718664798 -0.0261000254421 0.00128608799788)
(-0.00994376054594 -0.0280368352959 0.00121094480429)
(-0.0114178347108 -0.0290583461901 0.000622992391892)
(-0.0105523047395 -0.0274989065046 0.00184785312197)
(-0.00863326332785 -0.0293917335089 0.00140656957944)
(-0.0100634682747 -0.030857512093 0.00105687577086)
(-0.0093152405337 -0.028883584642 0.00222462461607)
(-0.00720950693497 -0.0305998655852 0.00152791272461)
(-0.00862652195517 -0.0324236587143 0.00130826966971)
(-0.00797412264815 -0.0301748646309 0.00247879023725)
(-0.00562455957007 -0.0316068055769 0.00159048572047)
(-0.00700634461462 -0.0337575899276 0.00142862061817)
(-0.00647319330413 -0.0313340430569 0.0026013649879)
(-0.00390073632354 -0.0323342204924 0.00161241277004)
(-0.00518389955424 -0.0347970512255 0.00148378733188)
(-0.00478202968776 -0.0322748762798 0.00264520375687)
(-0.00208093555605 -0.0325813575063 0.00148971012875)
(-0.00319091173119 -0.0354520144961 0.00149636550996)
(-0.00294072437374 -0.0328907350968 0.00263829800313)
(-0.00118445774722 -0.0353672922855 0.00127410045581)
(-0.00109581460557 -0.0328229327151 0.00242829158636)
(-0.00252120413318 -0.00793419397128 0.00136662530187)
(-0.00128370007761 -0.00823509975788 0.00121551897019)
(-0.00145834093142 -0.00790664939931 0.00219342771423)
(-0.00568934159418 -0.00814886111769 0.00154870378029)
(-0.00415822939578 -0.00838173349314 0.001550122427)
(-0.00429626627753 -0.00805535662477 0.00257436415502)
(-0.00910658288653 -0.00853346487982 0.00154589576681)
(-0.00754086921684 -0.00862150154977 0.00161423084756)
(-0.00747709664151 -0.00830909358203 0.00262284349168)
(-0.012655987922 -0.00917354854679 0.00149729444627)
(-0.011093744727 -0.00903502743222 0.00161177861524)
(-0.0108680980061 -0.0087777449311 0.00253337001851)
(-0.0164410742685 -0.0101812996586 0.00139239632181)
(-0.0148253401549 -0.00965608724148 0.00166997026527)
(-0.0144691619828 -0.00953149861106 0.00241674548302)
(-0.0204300917181 -0.0117832200676 0.000989090050211)
(-0.0189022676764 -0.0105813257392 0.00171219835782)
(-0.0183644634282 -0.0107189711259 0.00212219053064)
(-0.0238331616659 -0.0148825349468 -0.000525186549217)
(-0.0238875888099 -0.0120478409715 0.00142094137361)
(-0.0229105235103 -0.0126509977026 0.00109026307951)
(-0.0213815310439 -0.018027155092 -0.00199691807416)
(-0.0243386454195 -0.0156868519824 -0.00160452911374)
(-0.0232605612618 -0.0173753597201 -0.00293554271721)
(-0.0186555243182 -0.0198011419096 -0.00219853895537)
(-0.0206865143108 -0.0173811006126 -0.00169910748115)
(-0.0199502114482 -0.0194396079526 -0.00366536367929)
(-0.0164509216207 -0.0212531057645 -0.00204685160657)
(-0.0182404823174 -0.0187996222237 -0.00132937460646)
(-0.017450798004 -0.0208422593463 -0.00362257637416)
(-0.014872877544 -0.0228512873643 -0.00166933108389)
(-0.0165883093084 -0.0203748687094 -0.000843007534136)
(-0.0155101768878 -0.0221338469571 -0.00318775834364)
(-0.0137784400342 -0.0250178929541 -0.00109629091155)
(-0.0157568547383 -0.0225941057701 -0.000229703020525)
(-0.0141180655591 -0.0237745044183 -0.0024335261218)
(-0.0129070661612 -0.0281919415678 -0.00024531263104)
(-0.0155811254059 -0.0259104317545 0.000277505658529)
(-0.0130347472407 -0.0262479214236 -0.00125289372457)
(-0.011552188042 -0.0313492619644 0.000558118664163)
(-0.0144294075785 -0.0310079136332 8.32615659404e-05)
(-0.0119131882647 -0.0303513515488 0.000498289562915)
(-0.0100936459667 -0.0336082335841 0.00100264615779)
(-0.0122465371226 -0.0342296416848 0.000657375040587)
(-0.0107033124694 -0.0328271091457 0.00141130847067)
(-0.00846745512365 -0.0354247181461 0.00122978566636)
(-0.010399529072 -0.0367025265353 0.00098001264313)
(-0.00927798805797 -0.034827628766 0.0019195338331)
(-0.0066020605625 -0.0368500121319 0.00133098757545)
(-0.00839804244248 -0.0386309592599 0.00112402456511)
(-0.00758117386718 -0.0364769794817 0.00213923102501)
(-0.00452803660632 -0.0378429895717 0.00137105939941)
(-0.00615870302094 -0.0400572550768 0.001184824802)
(-0.00559826573807 -0.0377544132467 0.00221450991518)
(-0.0023490559823 -0.0381834536635 0.00128117528224)
(-0.00371951161352 -0.0409205367749 0.00121442985207)
(-0.00341397098782 -0.0385628400924 0.00223254941562)
(-0.00134096814452 -0.0408265968628 0.00105416950085)
(-0.00125592396145 -0.0384880381053 0.00208172412369)
(-0.00263029325915 -0.00868385268252 0.00139932344536)
(-0.0013403698143 -0.00895818363242 0.00123329221765)
(-0.00152188434389 -0.00866342725233 0.00222772016581)
(-0.00593732169567 -0.00887964299765 0.00161404043921)
(-0.0043429870461 -0.0091209762849 0.00159387934407)
(-0.00448097257287 -0.00880985034588 0.00264873569188)
(-0.00949701677286 -0.0092017992359 0.00167179488781)
(-0.00787663884615 -0.00937660743976 0.00168647752808)
(-0.0077891366046 -0.00902931696503 0.00275417367161)
(-0.0132005379357 -0.00969366337171 0.00175774803536)
(-0.0115856348752 -0.00980240035633 0.00173730686848)
(-0.0112956110258 -0.00940531943802 0.00278511047027)
(-0.01723338039 -0.0103986341031 0.00192659155702)
(-0.0154950033089 -0.0104063049901 0.00191204341182)
(-0.0149914397931 -0.0099450353973 0.00293197750217)
(-0.0218640862772 -0.0114716009199 0.00200818825966)
(-0.0199199176176 -0.0112519966244 0.00216999175373)
(-0.0190813408669 -0.0107138830432 0.00323053549997)
(-0.0267202501568 -0.0136566438207 0.000243137391696)
(-0.0260269468193 -0.0125181767363 0.00218041634344)
(-0.0252011250162 -0.0119680500321 0.00320415917909)
(-0.0230782898876 -0.0160556970175 -0.00152373508302)
(-0.0266568290633 -0.0149123511025 -0.00151953842352)
(-0.0258000124139 -0.0153835163061 -0.00286762321973)
(-0.0200124073414 -0.0177779725276 -0.00111174805502)
(-0.0224008762621 -0.0167733329628 -0.00128355117701)
(-0.0212551050582 -0.0171165301235 -0.00243074768091)
(-0.0180207511073 -0.0196485086632 -0.000468030462765)
(-0.020135838812 -0.0188673286448 -0.000610806334833)
(-0.0187762462181 -0.0187069518822 -0.00135309377047)
(-0.0171896568626 -0.0220211111243 0.000227845853743)
(-0.0189865687859 -0.0214329641363 9.7667151983e-05)
(-0.0173465079096 -0.0206019863352 4.32145108924e-05)
(-0.0172959057954 -0.025256851227 0.000806464736291)
(-0.0189895112674 -0.0246068821434 0.000858988381328)
(-0.0169847239337 -0.0231909389405 0.001318788803)
(-0.0178288431063 -0.0297767888076 0.000427822762533)
(-0.020044143558 -0.0286218989549 0.00124012765405)
(-0.017758126559 -0.0269904513366 0.00212177774006)
(-0.0149534189051 -0.0341910485818 0.000123476955147)
(-0.0188126956934 -0.0338199413043 -0.00042079881763)
(-0.016542571404 -0.0327562715464 4.71970592252e-06)
(-0.0125562761672 -0.0373618402146 0.000628407224429)
(-0.0153660514976 -0.0376002192987 0.000241338039981)
(-0.0134527077511 -0.0363005584388 0.000737398720078)
(-0.0103610073316 -0.0398618412329 0.000881116542262)
(-0.0128774621 -0.0407120523192 0.000594154267817)
(-0.0114178762809 -0.0390769533015 0.00131727689015)
(-0.0079908604804 -0.0417712451327 0.000984353714827)
(-0.010293242363 -0.0431832518106 0.000726878048315)
(-0.00922583798461 -0.041292871689 0.00155368269162)
(-0.00539122937294 -0.0430633773644 0.00103163692199)
(-0.00745663381787 -0.0449959060018 0.000773649957005)
(-0.0067520696749 -0.0429563091924 0.00162691921355)
(-0.00270701544247 -0.0434979780135 0.000988089748437)
(-0.00440844197283 -0.0460601717499 0.000819980108677)
(-0.0040672567128 -0.0439673186433 0.00166707275971)
(-0.00153799737885 -0.0459363916511 0.000754830932035)
(-0.00147177540549 -0.0438659838289 0.00160847535681)
(-0.00274883208191 -0.0093879960993 0.00142833202634)
(-0.0014072232606 -0.00960834225683 0.00124686277202)
(-0.00159271826462 -0.00936370139373 0.00225804663028)
(-0.00620777060465 -0.00962087743812 0.00166598981933)
(-0.00455855298077 -0.00980940021761 0.00163101114931)
(-0.00468868614615 -0.00954277528073 0.00271528419086)
(-0.00992584996694 -0.00999493177624 0.00174991993664)
(-0.00826329501784 -0.0101298989282 0.00173897016034)
(-0.0081468833495 -0.00981367434498 0.00285559826068)
(-0.0138043945404 -0.0105420566146 0.00188682882408)
(-0.0121355132198 -0.0106399322789 0.00180850087083)
(-0.0118041374547 -0.0102623517929 0.00294299836441)
(-0.0180955077635 -0.0112780862049 0.00215033845253)
(-0.0162114237874 -0.0113083193976 0.00202405118273)
(-0.015669310827 -0.0108778128393 0.00319940160752)
(-0.0232208264798 -0.0122764143033 0.00232523563182)
(-0.0208979205045 -0.0121344974613 0.00237947687297)
(-0.0200817161065 -0.0117032221712 0.00369874982589)
(-0.0288242104044 -0.0137528607025 0.000502027182174)
(-0.0275419839522 -0.0131290987854 0.00243586938523)
(-0.0270668867465 -0.0128625598895 0.00382201278692)
(-0.0250032081565 -0.0156389656007 -0.00130694389173)
(-0.0285389479027 -0.0143703930368 -0.0013943866836)
(-0.0279998172882 -0.014802849657 -0.00284113386791)
(-0.0221415334535 -0.0178516440538 -0.000792869974563)
(-0.0245894124777 -0.0164102422622 -0.00109932167083)
(-0.0232625559377 -0.0168009700058 -0.00210800894638)
(-0.0206113258802 -0.0205988850529 -4.98658764465e-05)
(-0.0228733938691 -0.0191939344112 -0.000394290673226)
(-0.0211254637789 -0.0192406653133 -0.000811324817916)
(-0.0203733756192 -0.0239460126378 0.00072937620327)
(-0.0223168250624 -0.0226978960861 0.000379707405759)
(-0.0202256269166 -0.0222332340451 0.000666691790948)
(-0.0212649676949 -0.0279346427658 0.00128606261022)
(-0.022936995825 -0.0268137342955 0.00116840267614)
(-0.020614893571 -0.0258641492315 0.0020876500962)
(-0.022597304442 -0.0326709466172 0.00042634666418)
(-0.0246852544794 -0.0314258810753 0.00147603727875)
(-0.022462263379 -0.0302870592879 0.00282448411078)
(-0.0187779606314 -0.0372400304321 -0.000316403324644)
(-0.0233034066421 -0.0365094838821 -0.000858133384339)
(-0.0210713839242 -0.0357113881079 -0.000766915840076)
(-0.0156483371535 -0.0409244106567 0.000210183024399)
(-0.019014030993 -0.0407119694738 -0.000213514443357)
(-0.016809363931 -0.0397160265798 3.137948768e-05)
(-0.0128136588201 -0.0439740793657 0.000447922736558)
(-0.0159208247883 -0.0443615051673 0.000122986027569)
(-0.0141706643206 -0.0430470875137 0.000604564850489)
(-0.00978761371837 -0.0463299363013 0.000523466798084)
(-0.0126534702413 -0.0473244931555 0.00021201205521)
(-0.0113682476261 -0.0457661461585 0.000800448057197)
(-0.00649222491012 -0.047903532836 0.000566240009212)
(-0.00906560352592 -0.0494926762069 0.000221392928499)
(-0.00824585853504 -0.0477965947852 0.000839514878784)
(-0.00314595359065 -0.0484091978399 0.000587874245248)
(-0.00524690971096 -0.0507289162483 0.000283931725782)
(-0.00490255676038 -0.0489893423955 0.000899576497396)
(-0.00176724355792 -0.0505445707825 0.000357605029348)
(-0.00174263284139 -0.0488313463892 0.000979417072666)
(-0.00289809218469 -0.0100067583785 0.00145029422126)
(-0.00149461335695 -0.010138813624 0.00125318312838)
(-0.00168241921359 -0.00997075204522 0.00227776265021)
(-0.00654078485297 -0.0103060029817 0.00170444937595)
(-0.00483390482805 -0.0103934982208 0.00165851668238)
(-0.00494961448095 -0.010199713263 0.00276796536658)
(-0.010435279039 -0.0107786053465 0.00179683222215)
(-0.00874552825106 -0.0108145515752 0.00177029559985)
(-0.00858974609705 -0.0105602822129 0.00292645454989)