/*--------------------------------*- C++ -*----------------------------------*\
| =========                 |                                                 |
| \\      /  F ield         | OpenFOAM: The Open Source CFD Toolbox           |
|  \\    /   O peration     | Version:  v1606+                                |
|   \\  /    A nd           | Web:      www.OpenFOAM.com                      |
|    \\/     M anipulation  |                                                 |
\*---------------------------------------------------------------------------*/
FoamFile
{
    version     2.0;
    format      ascii;
    class       volScalarField;
    location    "0.18";
    object      dgdt;
}
// * * * * * * * * * * * * * * * * * * * * * * * * * * * * * * * * * * * * * //

dimensions      [0 0 -1 0 0 0 0];

internalField   nonuniform List<scalar> 
6000
(
-20.3824
-20.3817
-20.4041
-20.3847
-20.3779
-20.3706
-20.3637
-20.3529
-20.347
-20.2177
-20.1105
-20.0191
-19.9409
-19.8747
-19.8242
-19.8373
-19.8938
-19.965
-20.0475
-20.1431
-20.2552
-20.3637
-20.3723
-20.3813
-20.3889
-20.3969
-20.4045
-20.4227
-20.4029
-20.3973
-2.23698
-2.12986
-2.12339
-2.09192
-2.0741
-2.05582
-2.03631
-2.0183
-2.00704
-1.97407
-1.96187
-1.96215
-1.96388
-1.96683
-1.97248
-1.97103
-1.96555
-1.96208
-1.96036
-1.96066
-1.97661
-2.00502
-2.01795
-2.03608
-2.05496
-2.07345
-2.09146
-2.12256
-2.13277
-2.23525
-0.0571889
-0.065534
-0.0961898
-0.103922
-0.107645
-0.109927
-0.111966
-0.113352
-0.113845
-0.112944
-0.112948
-0.113387
-0.113627
-0.11382
-0.114097
-0.11402
-0.113693
-0.113362
-0.11315
-0.112827
-0.113131
-0.113797
-0.112883
-0.111375
-0.109205
-0.106896
-0.103265
-0.0954172
-0.065519
-0.0590846
0.00829228
0.0106132
0.00724468
0.00671709
0.00526358
0.00372652
0.00188506
0.000150688
-0.00133374
-0.00198294
-0.00110092
-0.00165376
-0.00176682
-0.00177183
-0.00173388
-0.00168101
-0.00165308
-0.00165277
-0.00145924
-0.000887705
-0.00180749
-0.00104322
0.00057009
0.00232461
0.0041411
0.00575397
0.00719876
0.0077695
0.0109545
0.00856148
0.0153529
0.0162658
0.0152045
0.0159465
0.0160891
0.0162867
0.0163276
0.0162609
0.0159667
0.0155752
0.0158627
0.0149735
0.0146067
0.0142568
0.0141853
0.014153
0.0144896
0.0147316
0.0152197
0.015906
0.0157946
0.0161179
0.0164217
0.0164934
0.0164626
0.0162759
0.0161466
0.0153871
0.0163333
0.0154632
0.0133473
0.0144311
0.0146111
0.0151869
0.015424
0.0155417
0.0157106
0.015496
0.0155983
0.0157743
0.016124
0.0164599
0.0166133
0.0167142
0.0170575
0.0169205
0.0170192
0.016789
0.0162945
0.0161176
0.0159062
0.0157381
0.0157251
0.0154121
0.0156687
0.0155742
0.0153515
0.0147454
0.014433
0.0132619
0.0135916
0.0143439
0.0151466
0.0158697
0.0160776
0.0159194
0.0156428
0.0161218
0.0156186
0.0157283
0.0157738
0.0156251
0.0157277
0.0158306
0.0157907
0.0155677
0.0156857
0.0156379
0.0157768
0.0157722
0.01589
0.0161007
0.0155969
0.0162472
0.016069
0.0162361
0.0160304
0.01529
0.0143234
0.0134879
0.0135179
0.0144805
0.0162032
0.0171412
0.0173233
0.0168618
0.016381
0.0157263
0.0162303
0.0159537
0.0158126
0.0158732
0.0158017
0.0159065
0.0158066
0.0161284
0.0157524
0.015878
0.0158097
0.0160221
0.0160899
0.015762
0.0163634
0.0164718
0.0170192
0.0175167
0.0173523
0.0165465
0.0144707
0.0134075
0.0133039
0.0148474
0.0172041
0.0188754
0.019131
0.018529
0.0175591
0.0166695
0.0162237
0.0162892
0.015997
0.0158449
0.0159652
0.0158638
0.0158884
0.0159127
0.015931
0.0158707
0.0160552
0.0159775
0.0158916
0.016297
0.0167297
0.0176644
0.0186736
0.0193128
0.0190977
0.0172803
0.0147492
0.0131317
0.013062
0.0153739
0.0183156
0.020637
0.021048
0.0204476
0.0192824
0.0180428
0.0171426
0.0167133
0.0161424
0.0161161
0.0159286
0.0160408
0.0160473
0.0159882
0.0159199
0.0160699
0.0159929
0.0162317
0.0167425
0.0172008
0.0181228
0.0193683
0.0205477
0.0211562
0.0207102
0.0179671
0.0152204
0.012849
0.0129689
0.0160694
0.0199166
0.0225038
0.0229585
0.0223796
0.0211476
0.0197289
0.0185662
0.0175928
0.0168738
0.0163976
0.0161796
0.0160047
0.0159521
0.0162367
0.0160461
0.0161379
0.016478
0.0168873
0.0176327
0.0186175
0.0197909
0.0212163
0.0224573
0.0230412
0.0225306
0.0197181
0.0159415
0.0127747
0.012904
0.0170798
0.0214571
0.0242086
0.0246875
0.0241473
0.0229415
0.0215031
0.0202412
0.0189401
0.0181688
0.0174276
0.0169018
0.0166371
0.0168974
0.0168883
0.0166274
0.0169324
0.0174328
0.0181938
0.0189699
0.0202802
0.0215479
0.0229901
0.0242003
0.0247271
0.0241716
0.0212961
0.0169475
0.0127742
0.013629
0.0185543
0.0230486
0.0256483
0.0260572
0.0255403
0.0244883
0.0232333
0.0220481
0.0208719
0.0198696
0.0189639
0.0182348
0.0177552
0.0175167
0.0175303
0.017764
0.0182437
0.0189744
0.0198815
0.0208872
0.0220714
0.0232631
0.0245214
0.0255704
0.0260573
0.025549
0.0227979
0.0183275
0.0133847
0.0147991
0.0200289
0.0240672
0.0264654
0.026832
0.0263303
0.025485
0.0245513
0.0236425
0.022671
0.0217387
0.0208411
0.0200326
0.0194462
0.0187104
0.0187115
0.0194503
0.020037
0.0208441
0.0217425
0.0226801
0.0236629
0.0245802
0.0255189
0.0263662
0.0268611
0.0264571
0.0240083
0.0199688
0.0148243
0.0160669
0.0214486
0.0245442
0.0266448
0.0269947
0.0265321
0.0258397
0.025176
0.0246098
0.0240202
0.0233951
0.0227157
0.0220724
0.0216134
0.0211569
0.0211604
0.0216205
0.022081
0.0227238
0.0234054
0.024035
0.024634
0.0252094
0.0258853
0.0265987
0.0270945
0.0267927
0.0247856
0.0217219
0.016757
0.0172171
0.0223138
0.0244568
0.0261572
0.0263308
0.0256648
0.0247576
0.023964
0.0234564
0.0231558
0.022955
0.0227442
0.0224866
0.0222331
0.0219976
0.0220027
0.0222462
0.0225035
0.0227622
0.0229812
0.0231776
0.023483
0.0239997
0.024812
0.0257565
0.0264789
0.0263765
0.0247672
0.0226827
0.0177844
0.0153559
0.0215868
0.0231858
0.024183
0.0237266
0.0225048
0.0212807
0.0203385
0.0196965
0.0192574
0.0190601
0.0190367
0.0191006
0.0191568
0.0191619
0.0191699
0.0191799
0.0191344
0.0190785
0.0191039
0.0193113
0.0197624
0.0204212
0.0213751
0.0226235
0.0238938
0.024428
0.0235279
0.022024
0.0159414
0.0125998
0.0198989
0.0204738
0.0200534
0.0189545
0.0175984
0.0167778
0.0162459
0.0158578
0.0153651
0.0148755
0.0145096
0.0142918
0.0141893
0.0141599
0.0141707
0.0142197
0.0143365
0.014566
0.0149491
0.0154647
0.0160014
0.0164471
0.0169766
0.0177669
0.0191333
0.0202836
0.0207753
0.0202833
0.0131151
0.0121458
0.018212
0.017019
0.0151247
0.0138655
0.0129031
0.0136225
0.0139915
0.0140846
0.0137146
0.0129961
0.0121855
0.0114599
0.0109355
0.0106728
0.0106787
0.010952
0.0114851
0.0122224
0.0130586
0.0138227
0.0142575
0.0142438
0.01387
0.0130562
0.0140211
0.015307
0.0172293
0.0184698
0.0124987
0.0138007
0.0169525
0.0145338
0.0124084
0.0113906
0.0111226
0.0129231
0.0140991
0.0145444
0.0142024
0.0132691
0.0121099
0.0109954
0.010135
0.00967153
0.00966781
0.0101235
0.0109763
0.0120886
0.0132632
0.0142434
0.0146719
0.0143085
0.013123
0.0112418
0.0114726
0.0125008
0.0146411
0.0170988
0.01406
0.0162405
0.0168888
0.0143827
0.0119659
0.0122229
0.0130806
0.014325
0.0159036
0.0160002
0.0151072
0.013746
0.0123264
0.0110813
0.0101609
0.00966948
0.00965912
0.0101301
0.011029
0.0122543
0.0136633
0.015043
0.0160061
0.0160363
0.0145821
0.0134511
0.0123182
0.0120335
0.0143762
0.0169771
0.01644
0.0191774
0.0181888
0.0156876
0.0142912
0.0145608
0.0149421
0.0172256
0.018061
0.0171491
0.0153484
0.0135142
0.0119188
0.0106513
0.00976533
0.00930474
0.00929424
0.00973263
0.0105937
0.0118318
0.0133938
0.0152023
0.017023
0.0181439
0.017595
0.0153756
0.0145003
0.014227
0.0155284
0.018109
0.0192983
0.0229862
0.0208431
0.0191988
0.0179711
0.0163645
0.0172152
0.0195318
0.0189924
0.0167436
0.0144081
0.0124561
0.010919
0.00976415
0.00899214
0.00860305
0.00859635
0.00897038
0.00972365
0.0108533
0.0123549
0.0142594
0.0165603
0.0189
0.0197782
0.0173958
0.0162791
0.017623
0.0188985
0.020481
0.0229175
0.0277437
0.0245396
0.0226842
0.0192543
0.0183031
0.02004
0.0198732
0.0175594
0.0148664
0.0126722
0.0109842
0.00970742
0.00877697
0.00817239
0.00787889
0.00787637
0.0081639
0.00875888
0.00967529
0.0109276
0.0125738
0.0147028
0.0173283
0.0196952
0.01992
0.0183307
0.0189137
0.022322
0.0241816
0.0273759
0.0315048
0.0274934
0.0232573
0.020478
0.021001
0.0207085
0.0176504
0.0147405
0.0125005
0.0107726
0.00947446
0.0085418
0.00793075
0.00757116
0.00740466
0.00740573
0.00757353
0.00793232
0.00853733
0.00945752
0.0107316
0.0124121
0.0145568
0.0173157
0.0202436
0.0209222
0.0202479
0.0227548
0.0270524
0.0310942
0.0319226
0.0258248
0.0226824
0.0221931
0.02106
0.017496
0.0140271
0.0117707
0.0101526
0.00889673
0.00801562
0.00750398
0.00729672
0.00725501
0.00726368
0.00726783
0.00726651
0.00731303
0.00752068
0.00802857
0.00890179
0.0101394
0.0117323
0.0138714
0.0170913
0.0206812
0.0219082
0.022351
0.0254003
0.0314967
0.02937
0.0244206
0.0228253
0.0211163
0.0167628
0.0128161
0.0106109
0.00906403
0.00779547
0.00694427
0.00661184
0.00670622
0.00704835
0.00739501
0.00760572
0.00761255
0.00741422
0.00707724
0.00674128
0.00664666
0.00697871
0.00782648
0.00907611
0.0105929
0.0126773
0.0163465
0.0205494
0.0224319
0.024025
0.0287947
0.0255143
0.0234265
0.0208908
0.0158526
0.01153
0.00934068
0.00776293
0.00642893
0.00540723
0.0049412
0.00537657
0.00624711
0.00722701
0.00797828
0.00838029
0.00838996
0.00800582
0.0072691
0.00630109
0.00542683
0.00498739
0.00544188
0.0064526
0.00778256
0.00926802
0.0113556
0.0153189
0.0202153
0.0229299
0.0248078
0.0200388
0.0192437
0.0148989
0.0106835
0.00855949
0.0069091
0.00538825
0.00394391
0.00312807
0.00304185
0.00453702
0.0062427
0.00782738
0.00889569
0.0094164
0.00942899
0.0089336
0.00788531
0.00632094
0.00460179
0.00310434
0.00314942
0.00393995
0.00536624
0.00691542
0.00845801
0.0104156
0.0142297
0.0184127
0.0192186
0.0128569
0.0128172
0.010376
0.00863773
0.00707281
0.00536149
0.00347146
0.00206362
0.00186525
0.00227608
0.00476405
0.00706896
0.00902253
0.0101737
0.0106806
0.0106957
0.0102214
0.0091021
0.00717746
0.00485247
0.00241861
0.00192499
0.00207229
0.00345526
0.00530828
0.00702778
0.00843815
0.00998065
0.0120314
0.0119626
0.00853999
0.0101627
0.0096266
0.00850393
0.00669141
0.00454078
0.0027884
0.00241222
0.00349128
0.00462171
0.00700596
0.00929146
0.0110036
0.0118309
0.0121297
0.0121448
0.0118797
0.0111016
0.00942897
0.00717072
0.00492767
0.0036949
0.00257614
0.00291065
0.00456384
0.0066849
0.00843994
0.00950126
0.00981943
0.00804049
0.0103631
0.011593
0.0110677
0.00938162
0.0072035
0.00528188
0.00502181
0.0065864
0.0076357
0.00836223
0.0108716
0.0127159
0.0134401
0.013522
0.01343
0.0134422
0.0135637
0.0135229
0.012881
0.0111903
0.00870151
0.00788376
0.00698018
0.00543437
0.00550517
0.00729882
0.00955651
0.0111116
0.0116081
0.0104038
0.0150584
0.0147549
0.0134862
0.011225
0.00930564
0.00891383
0.0105692
0.011098
0.0109615
0.0120391
0.0145776
0.0156658
0.0153224
0.0146078
0.0141644
0.014172
0.0146332
0.0153806
0.0158218
0.0148191
0.0123021
0.0111758
0.0113309
0.0109742
0.00934397
0.00958569
0.0114063
0.0136583
0.0149829
0.0153715
0.0196081
0.0183085
0.0164919
0.0143141
0.0137969
0.0147414
0.0146468
0.0133672
0.0134875
0.0156828
0.0175704
0.0171179
0.0158275
0.0147075
0.0141213
0.0141228
0.0147117
0.0158381
0.0171636
0.017695
0.0159231
0.0135966
0.0133968
0.0146156
0.0150264
0.0142066
0.014657
0.0167827
0.0186613
0.0200449
0.0234807
0.0218098
0.0197903
0.0186746
0.0187443
0.0177722
0.015738
0.0148425
0.016279
0.0185809
0.0182094
0.0166743
0.0150449
0.0139215
0.0133661
0.0133606
0.0139046
0.0150153
0.0166442
0.0182443
0.0187568
0.0165376
0.0149066
0.0156173
0.0177092
0.0190273
0.0190885
0.020269
0.0222815
0.0240057
0.0269481
0.0250781
0.0237173
0.0223301
0.019966
0.0172137
0.0161608
0.0167164
0.0187761
0.0187444
0.0166937
0.0148875
0.0135006
0.012598
0.01215
0.0121388
0.012566
0.0134506
0.0148259
0.0166432
0.0187267
0.0190293
0.0169926
0.0161853
0.0171354
0.0199234
0.0226357
0.0242022
0.0255974
0.0275325
0.0299495
0.0283755
0.0267661
0.0225837
0.0191636
0.0172957
0.0175982
0.0188233
0.0182601
0.016158
0.0140929
0.0127479
0.0117991
0.0111661
0.0108454
0.0108317
0.0111285
0.0117467
0.0126943
0.0140349
0.0160311
0.0182041
0.0190449
0.0177964
0.0173315
0.0191616
0.0225798
0.0270459
0.0287983
0.030483
0.0322723
0.029002
0.026311
0.021471
0.0189404
0.0188155
0.0194246
0.0175436
0.0147358
0.0126277
0.0115569
0.0107773
0.0102738
0.00994135
0.00976684
0.00975477
0.00990688
0.0102239
0.0107267
0.0114601
0.01258
0.0145183
0.017417
0.0195204
0.0190472
0.0190499
0.0214782
0.0265041
0.0292135
0.0326309
0.032573
0.0267187
0.0237057
0.0204389
0.0201267
0.0198827
0.0169306
0.0129488
0.0107241
0.0101446
0.00942022
0.00922443
0.00911536
0.00908137
0.00907151
0.00906678
0.00906122
0.00906479
0.00912827
0.00933221
0.00970736
0.0105604
0.0127851
0.0168072
0.0199376
0.0204155
0.0207386
0.0238515
0.0268213
0.0328561
0.0298179
0.0240718
0.0220744
0.0205622
0.0200605
0.0161686
0.0112846
0.00853524
0.00771135
0.00766768
0.00782269
0.00815849
0.00851618
0.00878798
0.00894057
0.0089565
0.00882137
0.00852748
0.00810506
0.0076934
0.00741082
0.00765006
0.00855407
0.0112426
0.01608
0.0202056
0.0209123
0.0220169
0.0242733
0.0300964
0.0257862
0.022305
0.0214937
0.0196129
0.0152098
0.00999811
0.00693992
0.00563473
0.00525537
0.00565049
0.00668634
0.00765329
0.0084443
0.00896659
0.00924948
0.00930799
0.00911875
0.0086346
0.00780529
0.00676313
0.00558571
0.00525621
0.00577049
0.00720027
0.0101411
0.0152588
0.0198652
0.0218189
0.0227184
0.0261672
0.0223813
0.021428
0.0194968
0.0142727
0.00932334
0.00627432
0.00453923
0.00325802
0.00334292
0.00458812
0.00636055
0.00776218
0.00880468
0.00945038
0.00979837
0.00991404
0.00977081
0.00927346
0.00827142
0.00690781
0.00480019
0.00361718
0.00356669
0.00490826
0.00674056
0.00981841
0.0147402
0.0199489
0.0220154
0.0226834
0.0181882
0.0184411
0.0139891
0.00948977
0.00657755
0.00440541
0.00244861
0.00185485
0.00287133
0.00500549
0.00703036
0.00863285
0.00968523
0.0102621
0.0105619
0.0107249
0.0107553
0.0104511
0.00961721
0.00832118
0.00621461
0.00399998
0.00275422
0.00316526
0.00502348
0.00722661
0.01006
0.0148046
0.0190308
0.0187212
0.0130975
0.0133729
0.010362
0.00792512
0.00558815
0.00320906
0.00224835
0.00319078
0.00530447
0.00747149
0.00893597
0.0103735
0.011116
0.0113611
0.0114829
0.0116615
0.0119048
0.0120326
0.0117459
0.0105131
0.00888395
0.00720497
0.00520022
0.00363607
0.0041441
0.00627158
0.00873908
0.0113371
0.0144796
0.0140287
0.0104638
0.0112878
0.00996784
0.00790379
0.00549991
0.00443557
0.00578141
0.0075516
0.00857036
0.0105574
0.0121001
0.01261
0.0126105
0.0123901
0.012265
0.0124049
0.0128255
0.0134029
0.01372
0.0131888
0.0115561
0.0102855
0.00972313
0.00798373
0.00608909
0.00665915
0.00898408
0.0113372
0.0128939
0.0120747
0.012386
0.0124588
0.011162
0.00905661
0.00803962
0.00927269
0.0107149
0.0106339
0.0114937
0.0132372
0.0145838
0.0142619
0.0135176
0.0129188
0.0126381
0.012725
0.0131851
0.0139817
0.0149254
0.0155276
0.0143919
0.0127544
0.0122234
0.0126943
0.0115613
0.00986385
0.0104388
0.0127834
0.0143735
0.0144918
0.0162247
0.0150582
0.0134828
0.0123081
0.0133069
0.0137139
0.0127166
0.0124093
0.0139555
0.0156245
0.015357
0.0143842
0.0134288
0.0127973
0.0125205
0.0125804
0.0129747
0.013722
0.0148246
0.0160333
0.0165793
0.0150558
0.0136098
0.0142081
0.0156131
0.0153661
0.0142984
0.0153563
0.0171284
0.0184624
0.0198026
0.018104
0.0171536
0.0168942
0.0164687
0.0146304
0.01341
0.0143518
0.0158947
0.0158819
0.0145632
0.0134338
0.0126623
0.0122146
0.0120332
0.0120898
0.0123818
0.0129321
0.0137982
0.0150216
0.0165539
0.0167752
0.0155341
0.014542
0.0157317
0.0181058
0.0189198
0.0193596
0.020381
0.0221003
0.0232031
0.0211737
0.0207565
0.0185247
0.0157459
0.0142008
0.0147518
0.0159401
0.0154403
0.0140545
0.0128079
0.0120781
0.0116612
0.0114426
0.0113706
0.0114283
0.0116156
0.0119488
0.0124688
0.0132806
0.0146007
0.0160971
0.016921
0.0160249
0.0155148
0.0170156
0.0202426
0.0230472
0.0237972
0.0256481
0.0260382
0.022685
0.0211452
0.0169083
0.0150278
0.0152649
0.0156184
0.0142329
0.0125379
0.0114565
0.0109647
0.0107669
0.0106992
0.0106836
0.0107048
0.0107563
0.0108424
0.0109788
0.0111813
0.0115162
0.0121331
0.0133389
0.01536
0.0169577
0.0167056
0.0165234
0.0184639
0.0230987
0.0249353
0.0284745
0.027364
0.0226307
0.0186795
0.0162566
0.0160312
0.0154301
0.0127639
0.010151
0.00919753
0.00914079
0.00939327
0.00967955
0.00990548
0.0100625
0.0101561
0.0101921
0.0101793
0.0101274
0.0100461
0.00996219
0.00997981
0.010351
0.0116557
0.014474
0.0169763
0.0176184
0.017871
0.0203151
0.0243281
0.0295605
0.0252856
0.0202767
0.0177026
0.0168026
0.0153897
0.0115735
0.00787233
0.00638442
0.00654818
0.00730513
0.00816204
0.00887434
0.00936002
0.00965344
0.00979082
0.00980499
0.00970289
0.00947164
0.00910349
0.0086214
0.00815049
0.00791217
0.00829529
0.0100221
0.013645
0.0172308
0.0184598
0.0193087
0.0221384
0.0273857
0.0222381
0.0190984
0.0177641
0.0153632
0.0108776
0.00628948
0.00423738
0.00358758
0.00436858
0.00606085
0.00752929
0.00855369
0.00917161
0.0094927
0.00962206
0.0096136
0.00946678
0.00913353
0.00855229
0.00766916
0.00658684
0.00563825
0.00552747
0.00649761
0.00876319
0.0130695
0.0174406
0.0196285
0.0209362
0.0242319
0.0184764
0.0181289
0.0153116
0.0106827
0.00564238
0.00298376
0.0013376
0.00116215
0.00337438
0.00594731
0.00778732
0.00883884
0.00934566
0.00953735
0.00959457
0.00957346
0.00946858
0.00919339
0.00859144
0.00747252
0.00584996
0.00392613
0.0026559
0.00345808
0.00535682
0.00796964
0.0128294
0.0175342
0.0201402
0.0204605
0.014476
0.0142787
0.0106723
0.00622689
0.0030646
0.000583657
-0.000164777
0.00141702
0.00506786
0.00747052
0.0090128
0.00962476
0.00969019
0.0096146
0.009549
0.00953956
0.00956663
0.00954979
0.00924526
0.00837593
0.00670103
0.00418111
0.00148585
0.00103302
0.00252162
0.0051257
0.00809555
0.0126783
0.0166049
0.0166173
0.00934056
0.00980653
0.00714581
0.00448804
0.00180359
0.000996763
0.0032177
0.00644579
0.00794778
0.0102672
0.0106579
0.0103322
0.00983025
0.00944653
0.0092659
0.00928765
0.00949363
0.00982765
0.010149
0.0100847
0.0088764
0.00633346
0.00407874
0.00221117
0.00140401
0.00313661
0.00611182
0.00878531
0.011801
0.0116322
0.00782198
0.00812338
0.0067506
0.00437711
0.00383763
0.00636057
0.00961901
0.00840722
0.0109271
0.0121601
0.0114044
0.0102528
0.00936176
0.00881649
0.00858238
0.00862581
0.00894171
0.00954125
0.0103844
0.0111386
0.0110111
0.00935905
0.00759978
0.00639299
0.00459178
0.00348279
0.005349
0.00821666
0.00977561
0.00934319
0.0109693
0.00998476
0.00817782
0.00716571
0.00899759
0.010833
0.00988065
0.0116522
0.012972
0.0120954
0.0104759
0.00912753
0.00823138
0.00770922
0.00748507
0.00752589
0.00783599
0.00845706
0.00944006
0.0107554
0.0120029
0.0117267
0.00947768
0.00873205
0.00892581
0.00780063
0.00686035
0.00912147
0.0111922
0.0117981
0.0149534
0.0130395
0.0117239
0.0116029
0.0117993
0.0103247
0.0111756
0.0123637
0.0118189
0.0099506
0.00837391
0.00733696
0.00666471
0.00626643
0.00609253
0.00612389
0.00636453
0.00684791
0.00763967
0.00885739
0.0104826
0.0119529
0.0116445
0.0098457
0.0101966
0.0116263
0.0112681
0.0122295
0.0135586
0.0153743
0.0187887
0.0166704
0.0157246
0.0134305
0.0110816
0.0112377
0.0118868
0.0106596
0.00832806
0.00681109
0.00586644
0.00526302
0.00486746
0.00463644
0.00454624
0.00458184
0.00474462
0.00505702
0.00556628
0.00637709
0.0076213
0.00964308
0.0117026
0.0119856
0.0107632
0.0116984
0.0142422
0.01561
0.0160166
0.0186006
0.0215434
0.018178
0.0160505
0.0121605
0.011747
0.0119953
0.00947842
0.00623201
0.00435474
0.00364625
0.00329001
0.00308185
0.00299064
0.00297538
0.00300411
0.0030605
0.00314415
0.0032737
0.00349101
0.00385763
0.00451992
0.00588839
0.00840447
0.0113259
0.0125392
0.0120189
0.0128981
0.0166075
0.017939
0.0211242
0.0220088
0.0165517
0.01359
0.0125709
0.0120902
0.00848518
0.00403915
0.00164551
0.000825148
0.00059109
0.000669362
0.000908806
0.00118469
0.00142583
0.00159585
0.00168032
0.00167614
0.00159127
0.00145832
0.00136678
0.00151706
0.002069
0.00353133
0.00687216
0.0109404
0.0133089
0.0133265
0.0151293
0.0192223
0.0241809
0.0194647
0.0146004
0.0128517
0.011733
0.00729349
0.00217454
-0.000872319
-0.00210409
-0.00262315
-0.00246933
-0.00186468
-0.00108422
-0.000391925
0.000117587
0.000429913
0.000548613
0.000469403
0.000175179
-0.000333194
-0.000979585
-0.00150041
-0.00153312
-0.000723975
0.00112524
0.00539125
0.0106067
0.0143381
0.0152127
0.0172535
0.022253
0.0153218
0.0135195
0.0114171
0.00595942
0.000159843
-0.00309047
-0.00473527
-0.00587149
-0.00627553
-0.00547061
-0.00409693
-0.00267711
-0.00158191
-0.000857628
-0.000442851
-0.000288079
-0.00039783
-0.000827767
-0.00165851
-0.00291748
-0.00431454
-0.00521442
-0.00480161
-0.00302191
-0.00055891
0.00424595
0.010181
0.0150586
0.0166139
0.0195531
0.0105486
0.009924
0.00482276
-0.00105017
-0.00454393
-0.00670603
-0.00844649
-0.00970693
-0.00987867
-0.0078474
-0.00555768
-0.00357042
-0.00223501
-0.00145262
-0.00104051
-0.000865312
-0.000927569
-0.00132192
-0.00227622
-0.00399716
-0.00631814
-0.00858659
-0.0088505
-0.00713273
-0.00423953
-0.00117001
0.00368882
0.00950505
0.0150156
0.0157122
0.00378156
0.00274453
-0.00146143
-0.00472702
-0.00734722
-0.00962371
-0.0114921
-0.0121578
-0.0114248
-0.0085102
-0.00560467
-0.00344475
-0.00227802
-0.00170909
-0.00144444
-0.00128743
-0.00120387
-0.00133309
-0.00202619
-0.00368303
-0.00655634
-0.0100576
-0.0114119
-0.0103244
-0.00773646
-0.0040128
-0.000555376
0.00356458
0.00805976
0.0102984
-0.00188889
-0.0017276
-0.00375032
-0.00621461
-0.00912806
-0.0111713
-0.0118407
-0.0104408
-0.00837126
-0.00665414
-0.00407016
-0.00235987
-0.00187087
-0.00182692
-0.00182761
-0.00171806
-0.00146023
-0.00115513
-0.00109214
-0.00195036
-0.00458427
-0.00726663
-0.00904328
-0.0102659
-0.00928395
-0.00614948
-0.00248642
0.000103282
0.00204035
0.00247627
-0.00186406
-0.00169798
-0.00350251
-0.00646123
-0.00881458
-0.00932705
-0.00760918
-0.00652628
-0.00527993
-0.00257719
-0.0014347
-0.00113658
-0.00158669
-0.00212539
-0.0024273
-0.00239967
-0.00201628
-0.00128142
-0.000359087
0.000114655
-0.000595966
-0.00265308
-0.00360078
-0.00575401
-0.00744019
-0.00652046
-0.00353547
-0.000808686
0.000149542
-0.000716827
0.00157026
0.000439941
-0.00201066
-0.00454734
-0.00510162
-0.0037564
-0.00358524
-0.00410776
-0.00281582
0.000321976
0.000485779
-0.00068495
-0.00197661
-0.00290985
-0.0033994
-0.00344839
-0.0030469
-0.00213904
-0.000690497
0.0010832
0.00214104
0.000245371
-0.00141415
-0.00206886
-0.0023732
-0.00349331
-0.00294364
-0.000625531
0.00103547
0.00135169
0.00538997
0.00338702
0.00104271
0.000147417
0.000624295
5.88869e-05
-0.00188518
-0.00171425
0.000636143
0.00140249
0.000156453
-0.00167532
-0.0031906
-0.00419167
-0.00472059
-0.00481614
-0.00448125
-0.0036685
-0.00228275
-0.000256679
0.00183294
0.0024516
0.000484936
-0.000329112
0.000438461
0.000930544
0.000286601
0.00105182
0.00245839
0.00400589
0.00880261
0.00709803
0.00621021
0.00446479
0.00313504
0.00044266
-0.000158691
0.00144998
0.00233727
0.000503259
-0.00173465
-0.00355136
-0.00486097
-0.00572938
-0.00621248
-0.00633621
-0.00610495
-0.00550157
-0.00447966
-0.00296103
-0.000785046
0.00171621
0.00258213
0.000964066
0.000285943
0.00178565
0.00371249
0.00409035
0.00479234
0.00633408
0.0121771
0.0110895
0.00951511
0.00617831
0.00279006
0.00117348
0.00205484
0.00278038
0.000682347
-0.00230576
-0.00427612
-0.00565046
-0.00662645
-0.00729383
-0.00768761
-0.00782731
-0.00771656
-0.00734578
-0.00685155
-0.00367347
-0.00442539
-0.00214844
0.000828504
0.00226179
0.00123036
0.000977232
0.00296936
0.00697256
0.00785559
0.00951142
0.0142139
0.0111807
0.00864931
0.00403073
0.00213152
0.00252929
0.00191851
-0.000599305
-0.00365205
-0.00566771
-0.0068358
-0.00766468
-0.00828142
-0.00871649
-0.00899755
-0.00914492
-0.00916692
-0.00906117
-0.00883864
-0.0101629
-0.00790254
-0.00686213
-0.00441753
-0.000890709
0.00195394
0.0016278
0.0016902
0.00562653
0.00824148
0.0125474
0.0139302
0.0082017
0.00479549
0.0024664
0.00260377
0.00077868
-0.00308343
-0.00636897
-0.00797719
-0.00871829
-0.00916673
-0.00943699
-0.00963636
-0.00980197
-0.00995167
-0.0101006
-0.0102614
-0.0104447
-0.0106472
-0.0109858
-0.0108972
-0.0106742
-0.00989644
-0.00742527
-0.00272995
0.00129027
0.00177666
0.00286473
0.00616066
0.0123079
0.0105322
0.00426198
0.00266689
0.00173164
-0.000654676
-0.00558937
-0.00993111
-0.0111884
-0.0114564
-0.011389
-0.0110689
-0.0107369
-0.0105069
-0.010409
-0.0104344
-0.0105735
-0.0108409
-0.0112753
-0.0119107
-0.0126979
-0.0134812
-0.0139263
-0.0138062
-0.0129507
-0.0101595
-0.00473105
-0.000258765
0.00195417
0.00337576
0.00886052
0.00643274
0.00233991
0.00153957
-0.00259283
-0.00769564
-0.012259
-0.0140675
-0.0147275
-0.0143632
-0.0134132
-0.0122393
-0.0113171
-0.0107528
-0.01049
-0.0104454
-0.0105637
-0.0108567
-0.0114145
-0.0123543
-0.0137397
-0.0154211
-0.0167334
-0.0172093
-0.0165305
-0.015264
-0.0120984
-0.00624178
-0.000269072
0.00157194
0.00398844
0.00245744
0.000262014
-0.00335237
-0.00885034
-0.0131684
-0.0154869
-0.0168971
-0.0176299
-0.0162644
-0.014154
-0.0122145
-0.0109434
-0.0103287
-0.0101261
-0.0101158
-0.010206
-0.010403
-0.0108298
-0.0117308
-0.0134206
-0.0158864
-0.0183053
-0.0199133
-0.0194425
-0.01785
-0.0158359
-0.0121681
-0.00662744
-0.00223766
-0.00133514
-0.00394657
-0.00529787
-0.00876481
-0.0123481
-0.0150349
-0.017357
-0.0187392
-0.0185289
-0.015652
-0.0126517
-0.0106032
-0.00961804
-0.00938922
-0.00952281
-0.00968948
-0.00975169
-0.00971157
-0.00970376
-0.0100621
-0.0113368
-0.0136943
-0.0166832
-0.0197379
-0.0202112
-0.0193944
-0.0170663
-0.0139119
-0.01084
-0.00739985
-0.00708373
-0.00998976
-0.0091759
-0.0106098
-0.0127511
-0.0153036
-0.0169981
-0.0162442
-0.01427
-0.0114662
-0.00900091
-0.00769215
-0.00780413
-0.00842988
-0.0090603
-0.00945248
-0.00949643
-0.00918527
-0.00861386
-0.00804121
-0.00793795
-0.00911821
-0.0119024
-0.0143222
-0.0158521
-0.0176275
-0.01623
-0.0134637
-0.010407
-0.00855512
-0.00876019
-0.00924756
-0.008088
-0.00889946
-0.0110468
-0.0125785
-0.0112691
-0.0090564
-0.00781716
-0.00572296
-0.00482415
-0.0051885
-0.00660495
-0.00808232
-0.00915748
-0.00972377
-0.00975956
-0.00925915
-0.00823245
-0.00676362
-0.00525633
-0.00486956
-0.00601468
-0.00760911
-0.00842416
-0.00998479
-0.0115819
-0.0119537
-0.00825132
-0.00577351
-0.00522873
-0.00345857
-0.00388986
-0.00510356
-0.00649258
-0.00499531
-0.00347659
-0.00362067
-0.00331247
-0.00164315
-0.00213983
-0.00443871
-0.00684266
-0.00872816
-0.00998354
-0.0106169
-0.0106447
-0.010066
-0.00886277
-0.00701827
-0.00465102
-0.00242208
-0.0017705
-0.00349989
-0.00348172
-0.00233623
-0.00346175
-0.00399153
-0.00403656
-0.00188449
-4.65014e-05
0.0022869
0.00113433
0.000368064
0.000339951
0.000960076
0.000136934
-0.000567637
0.000197152
-1.06363e-05
-0.0026133
-0.00576102
-0.0083176
-0.0101785
-0.0114117
-0.0120331
-0.0120464
-0.0114523
-0.0102508
-0.00843408
-0.00596179
-0.00289547
-0.000329174
0.000132871
-0.000726616
-8.78724e-05
0.00180053
0.00181965
0.00241216
0.00303732
0.00459426
0.00698941
0.0055107
0.00545187
0.00348978
0.00175064
0.000658211
0.00117387
0.0010174
-0.00193251
-0.00545548
-0.00825617
-0.0104446
-0.0120975
-0.0132333
-0.0138133
-0.0138085
-0.0132199
-0.0120787
-0.0104312
-0.00827891
-0.00555749
-0.00218293
0.000825317
0.00114339
0.000793835
0.00183596
0.0043116
0.00683072
0.00751027
0.00860201
0.00992224
0.00709875
0.00614149
0.00247879
0.0014492
0.0017471
0.000314199
-0.00277166
-0.00659158
-0.00915943
-0.0111137
-0.0128233
-0.0142171
-0.0152118
-0.0157265
-0.0157069
-0.0151537
-0.0141228
-0.0126992
-0.0109004
-0.0094308
-0.00655495
-0.00284061
0.000185099
0.00202593
0.00198055
0.00305
0.0071991
0.00858572
0.0111704
0.0108126
0.00658985
0.00329084
0.0016979
0.00205269
0.000177013
-0.00425694
-0.00861992
-0.0105686
-0.0124666
-0.0138137
-0.0150812
-0.0161113
-0.0168538
-0.0172354
-0.0172062
-0.0167675
-0.0159698
-0.0148885
-0.0135794
-0.0117383
-0.0107748
-0.0083993
-0.00426791
0.000152333
0.00254509
0.00246837
0.0041701
0.00702188
0.0114696
0.00886291
0.00478209
0.00320491
0.00207562
5.10497e-05
-0.0045697
-0.00995091
-0.0129678
-0.0139174
-0.0148709
-0.0157472
-0.0163653
-0.0167691
-0.0170166
-0.0171104
-0.0170738
-0.0169131
-0.0166048
-0.0161422
-0.0154684
-0.0145638
-0.0132776
-0.0119733
-0.00960892
-0.00462228
2.36301e-05
0.00234762
0.00329174
0.00487137
0.00909483
0.00675747
0.00396202
0.00321506
0.000287663
-0.00400664
-0.00926247
-0.0122449
-0.0143245
-0.0153896
-0.015986
-0.0158614
-0.0153777
-0.0147663
-0.0142308
-0.0138982
-0.0138545
-0.0141155
-0.0145925
-0.0151446
-0.015574
-0.015643
-0.0151055
-0.0144554
-0.0118496
-0.0089792
-0.00410505
9.79899e-05
0.00333606
0.00410167
0.00677779
0.0040426
0.00341486
0.00081441
-0.00280762
-0.00729887
-0.0105653
-0.0131831
-0.0146837
-0.0154794
-0.014591
-0.012959
-0.0113228
-0.00989531
-0.00892598
-0.00855424
-0.00854241
-0.00883926
-0.00972966
-0.0110888
-0.0126692
-0.0142439
-0.0150424
-0.014571
-0.0131745
-0.0102957
-0.00704347
-0.00283093
0.000809531
0.00358175
0.00415948
0.00183885
0.000831245
-0.00145969
-0.00494981
-0.00794861
-0.0108393
-0.0134406
-0.0139982
-0.0125488
-0.0100821
-0.00774954
-0.00617245
-0.00518106
-0.00460651
-0.00443361
-0.00439401
-0.00454744
-0.00506492
-0.00600581
-0.00749328
-0.00973875
-0.0121127
-0.0133971
-0.0131356
-0.0107604
-0.00747172
-0.00458067
-0.00129376
0.000996127
0.00204528
-0.00127927
-0.000930428
-0.00293302
-0.00527716
-0.00795837
-0.0109581
-0.0117412
-0.00984739
-0.00711154
-0.00504527
-0.00388287
-0.00325011
-0.00291871
-0.00280123
-0.00275667
-0.00273442
-0.00277221
-0.00285491
-0.0030871
-0.00370303
-0.00479292
-0.00673227
-0.00932304
-0.0110447
-0.0103994
-0.00737201
-0.00465437
-0.00249105
-0.000656117
-0.000946717
-0.00149665
-0.00132939
-0.0028101
-0.00532026
-0.00806172
-0.00905283
-0.0069985
-0.00464687
-0.00324729
-0.00261368
-0.00239672
-0.00237761
-0.00233413
-0.00217415
-0.00204249
-0.00205145
-0.00214207
-0.0022852
-0.00232491
-0.002262
-0.00242334
-0.00299355
-0.00429393
-0.00647054
-0.00833393
-0.0074436
-0.00444907
-0.00219886
-0.00092065
-0.00108156
0.00060974
-0.00021222
-0.00210098
-0.00440615
-0.00582794
-0.00450621
-0.00268578
-0.00202646
-0.0018465
-0.001973
-0.00216713
-0.00224997
-0.00205891
-0.00185955
-0.00175445
-0.00174335
-0.00182537
-0.0020112
-0.00212267
-0.00206958
-0.00184882
-0.00168287
-0.00179874
-0.00240878
-0.00408786