/*--------------------------------*- C++ -*----------------------------------*\
| =========                 |                                                 |
| \\      /  F ield         | OpenFOAM: The Open Source CFD Toolbox           |
|  \\    /   O peration     | Version:  v1606+                                |
|   \\  /    A nd           | Web:      www.OpenFOAM.com                      |
|    \\/     M anipulation  |                                                 |
\*---------------------------------------------------------------------------*/
FoamFile
{
    version     2.0;
    format      ascii;
    class       surfaceScalarField;
    location    "0.25";
    object      phi;
}
// * * * * * * * * * * * * * * * * * * * * * * * * * * * * * * * * * * * * * //

dimensions      [0 3 -1 0 0 0 0];

internalField   nonuniform List<scalar> 
15580
(
2.81375e-17
1.31443e-10
2.73024e-17
3.07428e-10
2.04069e-17
4.21291e-10
1.27547e-17
4.90625e-10
6.28258e-18
5.28759e-10
1.5099e-18
5.46188e-10
-1.57014e-18
5.51094e-10
-3.06507e-18
5.49652e-10
-3.25777e-18
5.46301e-10
-2.73817e-18
5.43915e-10
-2.20112e-18
5.43915e-10
-2.23197e-18
5.46301e-10
-3.22891e-18
5.49652e-10
-5.43523e-18
5.51094e-10
-8.82608e-18
5.46188e-10
-1.28883e-17
5.28759e-10
-1.64329e-17
4.90625e-10
-1.74587e-17
4.21291e-10
-1.29159e-17
3.07428e-10
1.31443e-10
5.7309e-17
1.31443e-10
6.56175e-17
3.07428e-10
5.1957e-17
4.21291e-10
3.29906e-17
4.90625e-10
1.55707e-17
5.28759e-10
2.25587e-18
5.46188e-10
-6.31051e-18
5.51094e-10
-1.02655e-17
5.49652e-10
-1.04531e-17
5.46301e-10
-8.63372e-18
5.43915e-10
-6.84389e-18
5.43915e-10
-6.76354e-18
5.46301e-10
-9.56278e-18
5.49652e-10
-1.59355e-17
5.51094e-10
-2.57767e-17
5.46188e-10
-3.74385e-17
5.28759e-10
-4.72212e-17
4.90625e-10
-4.93064e-17
4.21291e-10
-3.52621e-17
3.07428e-10
1.31443e-10
7.04564e-17
1.31443e-10
8.39122e-17
3.07428e-10
6.80556e-17
4.21291e-10
4.25271e-17
4.90625e-10
1.75346e-17
5.28759e-10
-2.03369e-18
5.46188e-10
-1.43181e-17
5.51094e-10
-1.92997e-17
5.49652e-10
-1.85389e-17
5.46301e-10
-1.48965e-17
5.43915e-10
-1.14509e-17
5.43915e-10
-1.0766e-17
5.46301e-10
-1.46886e-17
5.49652e-10
-2.42712e-17
5.51094e-10
-3.93657e-17
5.46188e-10
-5.73342e-17
5.28759e-10
-7.22458e-17
4.90625e-10
-7.51434e-17
4.21291e-10
-5.59886e-17
3.07428e-10
1.31443e-10
6.94712e-17
1.31443e-10
8.14553e-17
3.07428e-10
6.44627e-17
4.21291e-10
3.6733e-17
4.90625e-10
8.96443e-18
5.28759e-10
-1.27719e-17
5.46188e-10
-2.57488e-17
5.51094e-10
-2.98146e-17
5.49652e-10
-2.70862e-17
5.46301e-10
-2.10509e-17
5.43915e-10
-1.54e-17
5.43915e-10
-1.32895e-17
5.46301e-10
-1.698e-17
5.49652e-10
-2.77575e-17
5.51094e-10
-4.55857e-17
5.46188e-10
-6.73807e-17
5.28759e-10
-8.56788e-17
4.90625e-10
-8.93296e-17
4.21291e-10
-6.67419e-17
3.07428e-10
1.31443e-10
5.29985e-17
1.31443e-10
5.82679e-17
3.07428e-10
4.12744e-17
4.21291e-10
1.54818e-17
4.90625e-10
-1.01546e-17
5.28759e-10
-2.97223e-17
5.46188e-10
-4.02334e-17
5.51094e-10
-4.15326e-17
5.49652e-10
-3.5973e-17
5.46301e-10
-2.71539e-17
5.43915e-10
-1.89411e-17
5.43915e-10
-1.46654e-17
5.46301e-10
-1.66699e-17
5.49652e-10
-2.62794e-17
5.51094e-10
-4.36975e-17
5.46188e-10
-6.6219e-17
5.28759e-10
-8.59874e-17
4.90625e-10
-9.10737e-17
4.21291e-10
-6.85081e-17
3.07428e-10
1.31443e-10
2.31589e-17
1.31443e-10
1.85039e-17
3.07428e-10
3.01906e-18
4.21291e-10
-1.72861e-17
4.90625e-10
-3.67716e-17
5.28759e-10
-5.07099e-17
5.46188e-10
-5.64215e-17
5.51094e-10
-5.3826e-17
5.49652e-10
-4.50486e-17
5.46301e-10
-3.34131e-17
5.43915e-10
-2.25839e-17
5.43915e-10
-1.57361e-17
5.46301e-10
-1.5016e-17
5.49652e-10
-2.15119e-17
5.51094e-10
-3.55838e-17
5.46188e-10
-5.56852e-17
5.28759e-10
-7.49375e-17
4.90625e-10
-8.24129e-17
4.21291e-10
-6.37983e-17
3.07428e-10
1.31443e-10
-1.6179e-17
1.31443e-10
-2.97368e-17
3.07428e-10
-4.25568e-17
4.21291e-10
-5.52302e-17
4.90625e-10
-6.61891e-17
5.28759e-10
-7.25229e-17
5.46188e-10
-7.22511e-17
5.51094e-10
-6.53335e-17
5.49652e-10
-5.33827e-17
5.46301e-10
-3.92085e-17
5.43915e-10
-2.60059e-17
5.43915e-10
-1.65548e-17
5.46301e-10
-1.26466e-17
5.49652e-10
-1.49192e-17
5.51094e-10
-2.35473e-17
5.46188e-10
-3.82881e-17
5.28759e-10
-5.47935e-17
4.90625e-10
-6.46409e-17
4.21291e-10
-5.42955e-17
3.07428e-10
1.31443e-10
-5.53378e-17
1.31443e-10
-7.73741e-17
3.07428e-10
-8.62425e-17
4.21291e-10
-9.09263e-17
4.90625e-10
-9.29041e-17
5.28759e-10
-9.13268e-17
5.46188e-10
-8.51232e-17
5.51094e-10
-7.41737e-17
5.49652e-10
-5.95494e-17
5.46301e-10
-4.34069e-17
5.43915e-10
-2.83007e-17
5.43915e-10
-1.65067e-17
5.46301e-10
-9.43769e-18
5.49652e-10
-7.25535e-18
5.51094e-10
-9.43716e-18
5.46188e-10
-1.63011e-17
5.28759e-10
-2.68533e-17
4.90625e-10
-3.62349e-17
4.21291e-10
-3.39746e-17
3.07428e-10
1.31443e-10
-8.57366e-17
1.31443e-10
-1.12349e-16
3.07428e-10
-1.18527e-16
4.21291e-10
-1.16769e-16
4.90625e-10
-1.11368e-16
5.28759e-10
-1.03313e-16
5.46188e-10
-9.24263e-17
5.51094e-10
-7.85261e-17
5.49652e-10
-6.22039e-17
5.463e-10
-4.49574e-17
5.43915e-10
-2.86925e-17
5.43915e-10
-1.51715e-17
5.46301e-10
-5.44729e-18
5.49652e-10
6.74438e-19
5.51094e-10
4.59761e-18
5.46188e-10
6.71561e-18
5.28759e-10
4.98727e-18
4.90625e-10
-5.14479e-19
4.21291e-10
-6.05472e-18
3.07428e-10
1.31443e-10
-9.88454e-17
1.31443e-10
-1.28237e-16
3.07428e-10
-1.32414e-16
4.21291e-10
-1.27022e-16
4.90625e-10
-1.17352e-16
5.28759e-10
-1.05576e-16
5.46188e-10
-9.223e-17
5.51094e-10
-7.71145e-17
5.49652e-10
-6.04956e-17
5.463e-10
-4.3388e-17
5.43915e-10
-2.71864e-17
5.43915e-10
-1.31656e-17
5.463e-10
-1.95813e-18
5.49652e-10
6.9646e-18
5.51094e-10
1.56557e-17
5.46188e-10
2.58228e-17
5.28759e-10
3.45764e-17
4.90625e-10
3.65037e-17
4.21291e-10
2.78378e-17
3.07428e-10
1.31443e-10
-9.28271e-17
1.31443e-10
-1.20236e-16
3.07428e-10
-1.24469e-16
4.21291e-10
-1.18927e-16
4.90625e-10
-1.08854e-16
5.28759e-10
-9.68195e-17
5.46188e-10
-8.37494e-17
5.51094e-10
-6.9507e-17
5.49652e-10
-5.42977e-17
5.463e-10
-3.8952e-17
5.43915e-10
-2.45349e-17
5.43915e-10
-1.1842e-17
5.463e-10
-1.01403e-18
5.49652e-10
8.88731e-18
5.51094e-10
2.03668e-17
5.46188e-10
3.61676e-17
5.28759e-10
5.43126e-17
4.90625e-10
6.58454e-17
4.21291e-10
5.73505e-17
3.07428e-10
1.31443e-10
-6.69701e-17
1.31443e-10
-8.9703e-17
3.07428e-10
-9.56895e-17
4.21291e-10
-9.3398e-17
4.90625e-10
-8.66044e-17
5.28759e-10
-7.76442e-17
5.46188e-10
-6.74864e-17
5.51094e-10
-5.61883e-17
5.49652e-10
-4.41703e-17
5.463e-10
-3.22704e-17
5.43915e-10
-2.12816e-17
5.43915e-10
-1.15473e-17
5.463e-10
-2.79501e-18
5.49652e-10
6.02774e-18
5.51094e-10
1.74252e-17
5.46188e-10
3.50906e-17
5.28759e-10
5.86725e-17
4.90625e-10
7.88411e-17
4.21291e-10
7.29543e-17
3.07428e-10
1.31443e-10
-2.55504e-17
1.31443e-10
-4.27305e-17
3.07428e-10
-5.15372e-17
4.21291e-10
-5.47668e-17
4.90625e-10
-5.38341e-17
5.28759e-10
-5.03683e-17
5.46188e-10
-4.51027e-17
5.51094e-10
-3.83819e-17
5.49652e-10
-3.09659e-17
5.463e-10
-2.37303e-17
5.43915e-10
-1.71919e-17
5.43915e-10
-1.1327e-17
5.463e-10
-5.55736e-18
5.49652e-10
1.21945e-18
5.51094e-10
1.06612e-17
5.46188e-10
2.57061e-17
5.28759e-10
4.87237e-17
4.90625e-10
7.21809e-17
4.21291e-10
7.17142e-17
3.07428e-10
1.31443e-10
1.73138e-17
1.31443e-10
9.73575e-18
3.07428e-10
-9.73864e-19
4.21291e-10
-9.84157e-18
4.90625e-10
-1.55741e-17
5.28759e-10
-1.85662e-17
5.46188e-10
-1.90805e-17
5.51094e-10
-1.77241e-17
5.49652e-10
-1.55016e-17
5.463e-10
-1.32057e-17
5.43915e-10
-1.11085e-17
5.43915e-10
-9.00954e-18
5.463e-10
-6.30599e-18
5.49652e-10
-2.1188e-18
5.51094e-10
4.30278e-18
5.46188e-10
1.3947e-17
5.28759e-10
2.90604e-17
4.90625e-10
4.62098e-17
4.21291e-10
4.23016e-17
3.07428e-10
1.31443e-10
5.22827e-17
1.31443e-10
5.75204e-17
3.07428e-10
4.70834e-17
4.21291e-10
3.40372e-17
4.90625e-10
2.24996e-17
5.28759e-10
1.36584e-17
5.46188e-10
7.75448e-18
5.51094e-10
4.053e-18
5.49652e-10
1.5456e-18
5.463e-10
-3.42768e-19
5.43915e-10
-1.72501e-18
5.43915e-10
-2.45702e-18
5.463e-10
-2.24274e-18
5.49652e-10
-7.94727e-19
5.51094e-10
1.61264e-18
5.46188e-10
4.13878e-18
5.28759e-10
7.59154e-18
4.90625e-10
1.33694e-17
4.21291e-10
1.03113e-17
3.07428e-10
1.31443e-10
7.54837e-17
1.31443e-10
9.27486e-17
3.07428e-10
8.51202e-17
4.21291e-10
7.04138e-17
4.90625e-10
5.5294e-17
5.28759e-10
4.25298e-17
5.46188e-10
3.27591e-17
5.51094e-10
2.52865e-17
5.49652e-10
1.9336e-17
5.463e-10
1.46217e-17
5.43915e-10
1.11233e-17
5.43915e-10
8.78117e-18
5.463e-10
7.36664e-18
5.49652e-10
6.4028e-18
5.51094e-10
4.75858e-18
5.46188e-10
1.91514e-19
5.28759e-10
-8.38395e-18
4.90625e-10
-1.70592e-17
4.21291e-10
-2.12607e-17
3.07428e-10
1.31443e-10
8.36063e-17
1.31443e-10
1.10576e-16
3.07428e-10
1.08268e-16
4.21291e-10
9.49672e-17
4.90625e-10
7.93423e-17
5.28759e-10
6.53613e-17
5.46188e-10
5.39071e-17
5.51094e-10
4.44573e-17
5.49652e-10
3.66291e-17
5.463e-10
3.04727e-17
5.43915e-10
2.6063e-17
5.43915e-10
2.31224e-17
5.463e-10
2.0886e-17
5.49652e-10
1.82111e-17
5.51094e-10
1.34763e-17
5.46188e-10
3.89535e-18
5.28759e-10
-1.3153e-17
4.90625e-10
-3.28999e-17
4.21291e-10
-3.83285e-17
3.07428e-10
1.31443e-10
7.81491e-17
1.31443e-10
1.11329e-16
3.07428e-10
1.15705e-16
4.21291e-10
1.06446e-16
4.90625e-10
9.33734e-17
5.28759e-10
8.09147e-17
5.46188e-10
6.99606e-17
5.51094e-10
6.02486e-17
5.49652e-10
5.18928e-17
5.463e-10
4.53348e-17
5.43915e-10
4.08192e-17
5.43915e-10
3.79594e-17
5.463e-10
3.56276e-17
5.49652e-10
3.22807e-17
5.51094e-10
2.62301e-17
5.46188e-10
1.50843e-17
5.28759e-10
-3.97208e-18
4.90625e-10
-2.69365e-17
4.21291e-10
-3.29704e-17
3.07428e-10
1.31443e-10
6.46913e-17
1.31443e-10
1.00169e-16
3.07428e-10
1.10483e-16
4.21291e-10
1.06613e-16
4.90625e-10
9.82042e-17
5.28759e-10
8.92359e-17
5.46188e-10
8.03346e-17
5.51094e-10
7.15673e-17
5.49652e-10
6.35965e-17
5.463e-10
5.72998e-17
5.43915e-10
5.31885e-17
5.43915e-10
5.09333e-17
5.463e-10
4.92841e-17
5.49652e-10
4.65793e-17
5.51094e-10
4.13524e-17
5.46188e-10
3.21023e-17
5.28759e-10
1.67099e-17
4.90625e-10
-2.71473e-18
4.21291e-10
-1.14012e-17
3.07428e-10
1.31443e-10
5.00307e-17
1.31443e-10
8.38985e-17
3.07428e-10
9.75778e-17
4.21291e-10
9.88675e-17
4.90625e-10
9.57719e-17
5.28759e-10
9.09863e-17
5.46188e-10
8.47401e-17
5.51094e-10
7.75102e-17
5.49652e-10
7.04834e-17
5.463e-10
6.49381e-17
5.43915e-10
6.16661e-17
5.43915e-10
6.04964e-17
5.463e-10
6.0246e-17
5.49652e-10
5.93146e-17
5.51094e-10
5.65122e-17
5.46188e-10
5.11747e-17
5.28759e-10
4.19251e-17
4.90625e-10
2.83194e-17
4.21291e-10
1.64937e-17
3.07428e-10
1.31443e-10
3.87751e-17
1.31443e-10
6.73592e-17
3.07428e-10
8.1209e-17
4.21291e-10
8.63227e-17
4.90625e-10
8.7817e-17
5.28759e-10
8.66689e-17
5.46188e-10
8.28825e-17
5.51094e-10
7.74022e-17
5.49652e-10
7.17708e-17
5.463e-10
6.75011e-17
5.43915e-10
6.554e-17
5.43915e-10
6.58184e-17
5.463e-10
6.72821e-17
5.49652e-10
6.84499e-17
5.51094e-10
6.82771e-17
5.46188e-10
6.65532e-17
5.28759e-10
6.22394e-17
4.90625e-10
5.21666e-17
4.21291e-10
3.51638e-17
3.07428e-10
1.31443e-10
3.07873e-17
1.31443e-10
5.12584e-17
3.07428e-10
6.29919e-17
4.21291e-10
7.04332e-17
4.90625e-10
7.50262e-17
5.28759e-10
7.63253e-17
5.46188e-10
7.45472e-17
5.51094e-10
7.10249e-17
5.49652e-10
6.73336e-17
5.463e-10
6.49519e-17
5.43915e-10
6.47473e-17
5.43915e-10
6.65881e-17
5.463e-10
6.95205e-17
5.49652e-10
7.21863e-17
5.51094e-10
7.35588e-17
5.46188e-10
7.35499e-17
5.28759e-10
7.12989e-17
4.90625e-10
6.20055e-17
4.21291e-10
4.09983e-17
3.07428e-10
1.31443e-10
2.11602e-17
1.31443e-10
3.20753e-17
3.07428e-10
4.17408e-17
4.21291e-10
5.0775e-17
4.90625e-10
5.71195e-17
5.28759e-10
5.99169e-17
5.46188e-10
6.00605e-17
5.51094e-10
5.89624e-17
5.49652e-10
5.78903e-17
5.463e-10
5.79901e-17
5.43915e-10
5.97926e-17
5.43915e-10
6.29792e-17
5.463e-10
6.66868e-17
5.49652e-10
6.97441e-17
5.51094e-10
7.11624e-17
5.46188e-10
7.08927e-17
5.28759e-10
6.85639e-17
4.90625e-10
5.94153e-17
4.21291e-10
3.88708e-17
3.07428e-10
1.31443e-10
3.94058e-18
1.31443e-10
6.11397e-18
3.07428e-10
1.56027e-17
4.21291e-10
2.64227e-17
4.90625e-10
3.39789e-17
5.28759e-10
3.82038e-17
5.46188e-10
4.07638e-17
5.51094e-10
4.27772e-17
5.49652e-10
4.49623e-17
5.463e-10
4.78926e-17
5.43915e-10
5.15949e-17
5.43915e-10
5.55864e-17
5.463e-10
5.91944e-17
5.49652e-10
6.15735e-17
5.51094e-10
6.19369e-17
5.46188e-10
6.03898e-17
5.28759e-10
5.73661e-17
4.90625e-10
4.90496e-17
4.21291e-10
3.14991e-17
3.07428e-10
1.31443e-10
-2.31716e-17
1.31443e-10
-2.62996e-17
3.07428e-10
-1.46554e-17
4.21291e-10
-1.94214e-18
4.90625e-10
6.98127e-18
5.28759e-10
1.33075e-17
5.46188e-10
1.89816e-17
5.51094e-10
2.46263e-17
5.49652e-10
3.03273e-17
5.463e-10
3.59662e-17
5.43915e-10
4.10735e-17
5.43915e-10
4.51437e-17
5.463e-10
4.78574e-17
5.49652e-10
4.88732e-17
5.51094e-10
4.78258e-17
5.46188e-10
4.51095e-17
5.28759e-10
4.17711e-17
4.90625e-10
3.59693e-17
4.21291e-10
2.39236e-17
3.07428e-10
1.31443e-10
-5.11096e-17
1.31443e-10
-5.76886e-17
3.07428e-10
-4.4428e-17
4.21291e-10
-3.09078e-17
4.90625e-10
-2.05294e-17
5.28759e-10
-1.16268e-17
5.46188e-10
-2.67733e-18
5.51094e-10
6.42857e-18
5.49652e-10
1.52331e-17
5.463e-10
2.29552e-17
5.43915e-10
2.87608e-17
5.43915e-10
3.22656e-17
5.463e-10
3.35934e-17
5.49652e-10
3.29967e-17
5.51094e-10
3.06027e-17
5.46188e-10
2.69785e-17
5.28759e-10
2.33375e-17
4.90625e-10
1.96603e-17
4.21291e-10
1.49116e-17
3.07428e-10
1.31443e-10
-6.78802e-17
1.31443e-10
-7.73205e-17
3.07428e-10
-6.63252e-17
4.21291e-10
-5.47982e-17
4.90625e-10
-4.42449e-17
5.28759e-10
-3.36095e-17
5.46188e-10
-2.23074e-17
5.51094e-10
-1.07296e-17
5.49652e-10
1.84893e-19
5.463e-10
9.11123e-18
5.43915e-10
1.50139e-17
5.43915e-10
1.76754e-17
5.463e-10
1.75948e-17
5.49652e-10
1.55128e-17
5.51094e-10
1.19422e-17
5.46188e-10
7.3608e-18
5.28759e-10
2.78346e-18
4.90625e-10
2.02687e-19
4.21291e-10
8.69035e-19
3.07428e-10
1.31443e-10
-5.95052e-17
1.31443e-10
-7.66881e-17
3.07428e-10
-7.50509e-17
4.21291e-10
-6.92376e-17
4.90625e-10
-6.08811e-17
5.28759e-10
-5.05745e-17
5.46188e-10
-3.87149e-17
5.51094e-10
-2.61534e-17
5.49652e-10
-1.43913e-17
5.463e-10
-5.09721e-18
5.43915e-10
6.3337e-19
5.43915e-10
2.66222e-18
5.463e-10
1.65845e-18
5.49652e-10
-1.41251e-18
5.51094e-10
-5.87806e-18
5.46188e-10
-1.15616e-17
5.28759e-10
-1.77679e-17
4.90625e-10
-2.09944e-17
4.21291e-10
-1.75958e-17
3.07428e-10
1.31443e-10
-3.46513e-17
1.31443e-10
-5.91532e-17
3.07428e-10
-7.14835e-17
4.21291e-10
-7.37146e-17
4.90625e-10
-6.97997e-17
5.28759e-10
-6.17744e-17
5.46188e-10
-5.09845e-17
5.51094e-10
-3.89073e-17
5.49652e-10
-2.7438e-17
5.463e-10
-1.84114e-17
5.43915e-10
-1.28718e-17
5.43915e-10
-1.09257e-17
5.463e-10
-1.1996e-17
5.49652e-10
-1.51859e-17
5.51094e-10
-1.98597e-17
5.46188e-10
-2.61537e-17
5.28759e-10
-3.36513e-17
4.90625e-10
-3.82714e-17
4.21291e-10
-3.33159e-17
3.07428e-10
1.31443e-10
-1.07273e-17
1.31443e-10
-4.09729e-17
3.07428e-10
-6.3366e-17
4.21291e-10
-7.25593e-17
4.90625e-10
-7.32376e-17
5.28759e-10
-6.80362e-17
5.46188e-10
-5.90784e-17
5.51094e-10
-4.83631e-17
5.49652e-10
-3.79038e-17
5.463e-10
-2.94412e-17
5.43915e-10
-2.39333e-17
5.43915e-10
-2.14616e-17
5.463e-10
-2.16368e-17
5.49652e-10
-2.38238e-17
5.51094e-10
-2.74951e-17
5.46188e-10
-3.29036e-17
5.28759e-10
-3.98968e-17
4.90625e-10
-4.47284e-17
4.21291e-10
-3.89089e-17
3.07428e-10
1.31443e-10
-8.38591e-19
1.31443e-10
-3.18818e-17
3.07428e-10
-5.85696e-17
4.21291e-10
-7.14129e-17
4.90625e-10
-7.46109e-17
5.28759e-10
-7.12769e-17
5.46188e-10
-6.39111e-17
5.51094e-10
-5.46411e-17
5.49652e-10
-4.53632e-17
5.463e-10
-3.75091e-17
5.43915e-10
-3.18346e-17
5.43915e-10
-2.83926e-17
5.463e-10
-2.69104e-17
5.49652e-10
-2.70156e-17
5.51094e-10
-2.83121e-17
5.46188e-10
-3.10029e-17
5.28759e-10
-3.53429e-17
4.90625e-10
-3.89407e-17
4.21291e-10
-3.41544e-17
3.07428e-10
1.31443e-10
-1.25427e-17
1.31443e-10
-4.02106e-17
3.07428e-10
-6.3046e-17
4.21291e-10
-7.42091e-17
4.90625e-10
-7.64521e-17
5.28759e-10
-7.31508e-17
5.46188e-10
-6.65239e-17
5.51094e-10
-5.83668e-17
5.49652e-10
-5.01297e-17
5.463e-10
-4.28122e-17
5.43915e-10
-3.68631e-17
5.43915e-10
-3.22618e-17
5.463e-10
-2.87596e-17
5.49652e-10
-2.6122e-17
5.51094e-10
-2.40419e-17
5.46188e-10
-2.26155e-17
5.28759e-10
-2.25754e-17
4.90625e-10
-2.34945e-17
4.21291e-10
-2.05472e-17
3.07428e-10
1.31443e-10
-4.31312e-17
1.31443e-10
-6.34257e-17
3.07428e-10
-7.56659e-17
4.21291e-10
-7.98949e-17
4.90625e-10
-7.83509e-17
5.28759e-10
-7.36591e-17
5.46188e-10
-6.7147e-17
5.51094e-10
-5.98824e-17
5.49652e-10
-5.26113e-17
5.463e-10
-4.58126e-17
5.43915e-10
-3.96436e-17
5.43915e-10
-3.39927e-17
5.463e-10
-2.8595e-17
5.49652e-10
-2.32284e-17
5.51094e-10
-1.75912e-17
5.46188e-10
-1.16679e-17
5.28759e-10
-6.54459e-18
4.90625e-10
-3.62109e-18
4.21291e-10
-2.2682e-18
3.07428e-10
1.31443e-10
-7.2579e-17
1.31443e-10
-8.48552e-17
3.07428e-10
-8.5859e-17
4.21291e-10
-8.1853e-17
4.90625e-10
-7.63967e-17
5.28759e-10
-7.0521e-17
5.46188e-10
-6.45244e-17
5.51094e-10
-5.85317e-17
5.49652e-10
-5.25131e-17
5.463e-10
-4.64664e-17
5.43915e-10
-4.03809e-17
5.43915e-10
-3.41671e-17
5.463e-10
-2.76002e-17
5.49652e-10
-2.02871e-17
5.51094e-10
-1.18205e-17
5.46188e-10
-2.14102e-18
5.28759e-10
7.55138e-18
4.90625e-10
1.50301e-17
4.21291e-10
1.65158e-17
3.07428e-10
1.31443e-10
-7.37864e-17
1.31443e-10
-8.38099e-17
3.07428e-10
-7.95556e-17
4.21291e-10
-7.18035e-17
4.90625e-10
-6.55095e-17
5.28759e-10
-6.06182e-17
5.46188e-10
-5.66469e-17
5.51094e-10
-5.28513e-17
5.49652e-10
-4.87003e-17
5.463e-10
-4.39661e-17
5.43915e-10
-3.86062e-17
5.43915e-10
-3.26776e-17
5.463e-10
-2.60653e-17
5.49652e-10
-1.8212e-17
5.51094e-10
-8.54403e-18
5.46188e-10
2.96787e-18
5.28759e-10
1.55742e-17
4.90625e-10
2.67508e-17
4.21291e-10
2.77332e-17
3.07428e-10
1.31443e-10
-5.06016e-17
1.31443e-10
-5.5459e-17
3.07428e-10
-5.1304e-17
4.21291e-10
-4.61988e-17
4.90625e-10
-4.33734e-17
5.28759e-10
-4.24531e-17
5.46188e-10
-4.2256e-17
5.51094e-10
-4.16061e-17
5.49652e-10
-4.00039e-17
5.463e-10
-3.72988e-17
5.43915e-10
-3.34927e-17
5.43915e-10
-2.87834e-17
5.463e-10
-2.32727e-17
5.49652e-10
-1.64422e-17
5.51094e-10
-7.53161e-18
5.46188e-10
3.39298e-18
5.28759e-10
1.61689e-17
4.90625e-10
2.89133e-17
4.21291e-10
2.97962e-17
3.07428e-10
1.31443e-10
-3.27339e-18
1.31443e-10
-5.38411e-18
3.07428e-10
-5.41187e-18
4.21291e-10
-7.96742e-18
4.90625e-10
-1.21821e-17
5.28759e-10
-1.7387e-17
5.46188e-10
-2.19393e-17
5.51094e-10
-2.49242e-17
5.49652e-10
-2.63087e-17
5.463e-10
-2.61684e-17
5.43915e-10
-2.45603e-17
5.43915e-10
-2.1771e-17
5.463e-10
-1.81605e-17
5.49652e-10
-1.35803e-17
5.51094e-10
-7.32873e-18
5.46188e-10
6.87322e-19
5.28759e-10
1.05195e-17
4.90625e-10
2.20764e-17
4.21291e-10
2.47903e-17
3.07428e-10
1.31443e-10
4.99872e-17
1.31443e-10
5.15402e-17
3.07428e-10
4.45258e-17
4.21291e-10
3.34166e-17
4.90625e-10
2.15601e-17
5.28759e-10
1.03999e-17
5.46188e-10
1.5481e-18
5.51094e-10
-4.78831e-18
5.49652e-10
-9.04922e-18
5.463e-10
-1.14703e-17
5.43915e-10
-1.21907e-17
5.43915e-10
-1.15695e-17
5.463e-10
-1.01519e-17
5.49652e-10
-8.32727e-18
5.51094e-10
-5.93369e-18
5.46188e-10
-2.76732e-18
5.28759e-10
1.39071e-18
4.90625e-10
8.00293e-18
4.21291e-10
1.17447e-17
3.07428e-10
1.31443e-10
8.23945e-17
1.31443e-10
9.13038e-17
3.07428e-10
8.08566e-17
4.21291e-10
6.55754e-17
4.90625e-10
4.94818e-17
5.28759e-10
3.52011e-17
5.46188e-10
2.39585e-17
5.51094e-10
1.54502e-17
5.49652e-10
9.1911e-18
5.463e-10
4.9119e-18
5.43915e-10
2.33193e-18
5.43915e-10
1.02311e-18
5.463e-10
4.30275e-19
5.49652e-10
-1.87551e-19
5.51094e-10
-1.50486e-18
5.46188e-10
-3.64892e-18
5.28759e-10
-6.29861e-18
4.90625e-10
-7.08769e-18
4.21291e-10
-5.97475e-18
3.07428e-10
1.31443e-10
8.45588e-17
1.31443e-10
9.92806e-17
3.07428e-10
9.23753e-17
4.21291e-10
7.98353e-17
4.90625e-10
6.52818e-17
5.28759e-10
5.21135e-17
5.46188e-10
4.12032e-17
5.51094e-10
3.23745e-17
5.49652e-10
2.55407e-17
5.463e-10
2.04977e-17
5.43915e-10
1.6832e-17
5.43915e-10
1.41363e-17
5.463e-10
1.20394e-17
5.49652e-10
9.84656e-18
5.51094e-10
6.3509e-18
5.46188e-10
6.94142e-19
5.28759e-10
-7.04855e-18
4.90625e-10
-1.43851e-17
4.21291e-10
-1.69747e-17
3.07428e-10
1.31443e-10
6.06116e-17
1.31443e-10
7.74653e-17
3.07428e-10
7.95576e-17
4.21291e-10
7.52209e-17
4.90625e-10
6.73398e-17
5.28759e-10
5.90637e-17
5.46188e-10
5.10747e-17
5.51094e-10
4.38323e-17
5.49652e-10
3.7795e-17
5.463e-10
3.29501e-17
5.43915e-10
2.89398e-17
5.43915e-10
2.55168e-17
5.463e-10
2.26184e-17
5.49652e-10
1.99533e-17
5.51094e-10
1.64343e-17
5.46188e-10
1.06044e-17
5.28759e-10
1.91216e-18
4.90625e-10
-8.0489e-18
4.21291e-10
-1.40641e-17
3.07428e-10
1.31443e-10
2.2206e-17
1.31443e-10
4.03248e-17
3.07428e-10
5.25365e-17
4.21291e-10
5.80353e-17
4.90625e-10
5.91198e-17
5.28759e-10
5.75882e-17
5.46188e-10
5.39367e-17
5.51094e-10
4.93011e-17
5.49652e-10
4.47702e-17
5.463e-10
4.0702e-17
5.43915e-10
3.69882e-17
5.43915e-10
3.3595e-17
5.463e-10
3.07364e-17
5.49652e-10
2.85931e-17
5.51094e-10
2.67077e-17
5.46188e-10
2.37069e-17
5.28759e-10
1.82596e-17
4.90625e-10
1.01862e-17
4.21291e-10
2.30768e-18
3.07428e-10
1.31443e-10
-1.00583e-17
1.31443e-10
7.53149e-18
3.07428e-10
2.55005e-17
4.21291e-10
3.84877e-17
4.90625e-10
4.71972e-17
5.28759e-10
5.1561e-17
5.46188e-10
5.17785e-17
5.51094e-10
4.95545e-17
5.49652e-10
4.66121e-17
5.463e-10
4.36319e-17
5.43915e-10
4.06418e-17
5.43915e-10
3.77804e-17
5.463e-10
3.54796e-17
5.49652e-10
3.42964e-17
5.51094e-10
3.45405e-17
5.46188e-10
3.54105e-17
5.28759e-10
3.50773e-17
4.90625e-10
3.15983e-17
4.21291e-10
2.42307e-17
3.07428e-10
1.31443e-10
-2.35904e-17
1.31443e-10
-9.41493e-18
3.07428e-10
9.38234e-18
4.21291e-10
2.53265e-17
4.90625e-10
3.75909e-17
5.28759e-10
4.47388e-17
5.46188e-10
4.70013e-17
5.51094e-10
4.64311e-17
5.49652e-10
4.48543e-17
5.463e-10
4.288e-17
5.43915e-10
4.05388e-17
5.43915e-10
3.81277e-17
5.463e-10
3.62775e-17
5.49652e-10
3.57048e-17
5.51094e-10
3.70873e-17
5.46188e-10
4.04103e-17
5.28759e-10
4.376e-17
4.90625e-10
4.3832e-17
4.21291e-10
3.70597e-17
3.07428e-10
1.31443e-10
-1.82378e-17
1.31443e-10
-6.08441e-18
3.07428e-10
9.12821e-18
4.21291e-10
2.25579e-17
4.90625e-10
3.32594e-17
5.28759e-10
3.95707e-17
5.46188e-10
4.19023e-17
5.51094e-10
4.20257e-17
5.49652e-10
4.12204e-17
5.463e-10
3.96926e-17
5.43915e-10
3.74904e-17
5.43915e-10
3.50775e-17
5.463e-10
3.31633e-17
5.49652e-10
3.23666e-17
5.51094e-10
3.31379e-17
5.46188e-10
3.5775e-17
5.28759e-10
3.86957e-17
4.90625e-10
3.82231e-17
4.21291e-10
3.20417e-17
3.07428e-10
1.31443e-10
2.45451e-18
1.31443e-10
1.35562e-17
3.07428e-10
2.24785e-17
4.21291e-10
2.87508e-17
4.90625e-10
3.37864e-17
5.28759e-10
3.68616e-17
5.46188e-10
3.79955e-17
5.51094e-10
3.78838e-17
5.49652e-10
3.68819e-17
5.463e-10
3.49749e-17
5.43915e-10
3.23897e-17
5.43915e-10
2.96101e-17
5.463e-10
2.71806e-17
5.49652e-10
2.53907e-17
5.51094e-10
2.40572e-17
5.46188e-10
2.31296e-17
5.28759e-10
2.15669e-17
4.90625e-10
1.64494e-17
4.21291e-10
8.27587e-18
3.07428e-10
1.31443e-10
2.88691e-17
1.31443e-10
3.95263e-17
3.07428e-10
4.08274e-17
4.21291e-10
3.81939e-17
4.90625e-10
3.66659e-17
5.28759e-10
3.60653e-17
5.46188e-10
3.52635e-17
5.51094e-10
3.38962e-17
5.49652e-10
3.18099e-17
5.463e-10
2.91165e-17
5.43915e-10
2.61288e-17
5.43915e-10
2.30852e-17
5.463e-10
2.01414e-17
5.49652e-10
1.71681e-17
5.51094e-10
1.34553e-17
5.46188e-10
8.47131e-18
5.28759e-10
1.73939e-18
4.90625e-10
-8.37167e-18
4.21291e-10
-1.7034e-17
3.07428e-10
1.31443e-10
5.02587e-17
1.31443e-10
6.03993e-17
3.07428e-10
5.38663e-17
4.21291e-10
4.42836e-17
4.90625e-10
3.82343e-17
5.28759e-10
3.45505e-17
5.46188e-10
3.14875e-17
5.51094e-10
2.84798e-17
5.49652e-10
2.54319e-17
5.463e-10
2.24752e-17
5.43915e-10
1.96487e-17
5.43915e-10
1.68256e-17
5.463e-10
1.3801e-17
5.49652e-10
1.01722e-17
5.51094e-10
5.20978e-18
5.46188e-10
-1.51763e-18
5.28759e-10
-9.9178e-18
4.90625e-10
-2.05915e-17
4.21291e-10
-2.67585e-17
3.07428e-10
1.31443e-10
5.84907e-17
1.31443e-10
6.4675e-17
3.07428e-10
5.32472e-17
4.21291e-10
4.15714e-17
4.90625e-10
3.41086e-17
5.28759e-10
2.85542e-17
5.46188e-10
2.40186e-17
5.51094e-10
2.04367e-17
5.49652e-10
1.76879e-17
5.463e-10
1.55079e-17
5.43915e-10
1.35349e-17
5.43915e-10
1.14639e-17
5.463e-10
8.95652e-18
5.49652e-10
5.59526e-18
5.51094e-10
1.16098e-18
5.46188e-10
-3.96048e-18
5.28759e-10
-9.12412e-18
4.90625e-10
-1.49981e-17
4.21291e-10
-1.81481e-17
3.07428e-10
1.31443e-10
4.48315e-17
1.31443e-10
4.52273e-17
3.07428e-10
3.51613e-17
4.21291e-10
2.70892e-17
4.90625e-10
2.10948e-17
5.28759e-10
1.57537e-17
5.46188e-10
1.19844e-17
5.51094e-10
9.9349e-18
5.49652e-10
8.90402e-18
5.463e-10
8.22112e-18
5.43915e-10
7.52743e-18
5.43915e-10
6.62333e-18
5.463e-10
5.166e-18
5.49652e-10
2.91927e-18
5.51094e-10
3.49186e-19
5.46188e-10
-1.13984e-18
5.28759e-10
-2.02466e-19
4.90625e-10
1.38656e-18
4.21291e-10
2.48736e-18
3.07428e-10
1.31443e-10
8.1827e-18
1.31443e-10
4.20537e-18
3.07428e-10
2.26658e-18
4.21291e-10
1.76825e-18
4.90625e-10
-4.1084e-19
5.28759e-10
-2.56837e-18
5.46188e-10
-2.95016e-18
5.51094e-10
-2.03185e-18
5.49652e-10
-8.81187e-19
5.463e-10
6.95106e-20
5.43915e-10
8.73718e-19
5.43915e-10
1.4314e-18
5.463e-10
1.30678e-18
5.49652e-10
4.8646e-19
5.51094e-10
-3.84863e-21
5.46188e-10
1.85044e-18
5.28759e-10
8.01789e-18
4.90625e-10
1.56951e-17
4.21291e-10
1.9169e-17
3.07428e-10
1.31443e-10
-3.96695e-17
1.31443e-10
-4.35965e-17
3.07428e-10
-3.60564e-17
4.21291e-10
-2.87767e-17
4.90625e-10
-2.52244e-17
5.28759e-10
-2.20656e-17
5.46188e-10
-1.82416e-17
5.51094e-10
-1.45941e-17
5.49652e-10
-1.16903e-17
5.463e-10
-9.25812e-18
5.43915e-10
-6.88332e-18
5.43915e-10
-4.80616e-18
5.463e-10
-3.6126e-18
5.49652e-10
-3.19489e-18
5.51094e-10
-2.25437e-18
5.46188e-10
1.0544e-18
5.28759e-10
8.67384e-18
4.90625e-10
1.80969e-17
4.21291e-10
2.23851e-17
3.07428e-10
1.31443e-10
-7.36772e-17
1.31443e-10
-8.03013e-17
3.07428e-10
-6.71252e-17
4.21291e-10
-5.47992e-17
4.90625e-10
-4.60011e-17
5.28759e-10
-3.86628e-17
5.46188e-10
-3.21517e-17
5.51094e-10
-2.69667e-17
5.49652e-10
-2.29094e-17
5.463e-10
-1.9203e-17
5.43915e-10
-1.54859e-17
5.43915e-10
-1.21332e-17
5.463e-10
-9.76593e-18
5.49652e-10
-8.41717e-18
5.51094e-10
-6.98778e-18
5.46188e-10
-4.41299e-18
5.28759e-10
3.43172e-19
4.90625e-10
7.07235e-18
4.21291e-10
1.09569e-17
3.07428e-10
1.31443e-10
-7.93444e-17
1.31443e-10
-9.23015e-17
3.07428e-10
-8.10768e-17
4.21291e-10
-6.90845e-17
4.90625e-10
-5.92813e-17
5.28759e-10
-5.08702e-17
5.46188e-10
-4.37858e-17
5.51094e-10
-3.81409e-17
5.49652e-10
-3.33452e-17
5.463e-10
-2.87578e-17
5.43915e-10
-2.42061e-17
5.43915e-10
-1.99811e-17
5.463e-10
-1.6664e-17
5.49652e-10
-1.46434e-17
5.51094e-10
-1.35886e-17
5.46188e-10
-1.3389e-17
5.28759e-10
-1.44282e-17
4.90625e-10
-1.46534e-17
4.21291e-10
-1.04611e-17
3.07428e-10
1.31443e-10
-6.45311e-17
1.31443e-10
-8.21527e-17
3.07428e-10
-7.89114e-17
4.21291e-10
-7.25755e-17
4.90625e-10
-6.58999e-17
5.28759e-10
-5.91108e-17
5.46188e-10
-5.28401e-17
5.51094e-10
-4.72472e-17
5.49652e-10
-4.21013e-17
5.463e-10
-3.71602e-17
5.43915e-10
-3.23275e-17
5.43915e-10
-2.77524e-17
5.463e-10
-2.39371e-17
5.49652e-10
-2.15646e-17
5.51094e-10
-2.12082e-17
5.46188e-10
-2.34571e-17
5.28759e-10
-2.91094e-17
4.90625e-10
-3.38217e-17
4.21291e-10
-2.99649e-17
3.07428e-10
1.31443e-10
-3.90171e-17
1.31443e-10
-6.28388e-17
3.07428e-10
-6.90695e-17
4.21291e-10
-7.06034e-17
4.90625e-10
-6.87414e-17
5.28759e-10
-6.44593e-17
5.46188e-10
-5.92574e-17
5.51094e-10
-5.39406e-17
5.49652e-10
-4.886e-17
5.463e-10
-4.41232e-17
5.43915e-10
-3.96606e-17
5.43915e-10
-3.54502e-17
5.463e-10
-3.17128e-17
5.49652e-10
-2.90396e-17
5.51094e-10
-2.84869e-17
5.46188e-10
-3.10538e-17
5.28759e-10
-3.70727e-17
4.90625e-10
-4.18368e-17
4.21291e-10
-3.68511e-17
3.07428e-10
1.31443e-10
-1.84359e-17
1.31443e-10
-4.50963e-17
3.07428e-10
-5.91917e-17
4.21291e-10
-6.7566e-17
4.90625e-10
-6.96618e-17
5.28759e-10
-6.73007e-17
5.46188e-10
-6.29725e-17
5.51094e-10
-5.81728e-17
5.49652e-10
-5.36806e-17
5.463e-10
-4.98005e-17
5.43915e-10
-4.63705e-17
5.43915e-10
-4.30041e-17
5.463e-10
-3.93953e-17
5.49652e-10
-3.57577e-17
5.51094e-10
-3.31643e-17
5.46188e-10
-3.27606e-17
5.28759e-10
-3.41706e-17
4.90625e-10
-3.43254e-17
4.21291e-10
-2.80971e-17
3.07428e-10
1.31443e-10
-1.25159e-17
1.31443e-10
-3.3939e-17
3.07428e-10
-5.283e-17
4.21291e-10
-6.47274e-17
4.90625e-10
-6.85877e-17
5.28759e-10
-6.73157e-17
5.46188e-10
-6.39122e-17
5.51094e-10
-6.01001e-17
5.49652e-10
-5.68352e-17
5.463e-10
-5.43127e-17
5.43915e-10
-5.20552e-17
5.43915e-10
-4.92661e-17
5.463e-10
-4.52014e-17
5.49652e-10
-3.97291e-17
5.51094e-10
-3.36746e-17
5.46188e-10
-2.80374e-17
5.28759e-10
-2.20609e-17
4.90625e-10
-1.48623e-17
4.21291e-10
-6.80989e-18
3.07428e-10
1.31443e-10
-1.17666e-17
1.31443e-10
-2.88387e-17
3.07428e-10
-4.79629e-17
4.21291e-10
-6.00439e-17
4.90625e-10
-6.43157e-17
5.28759e-10
-6.41457e-17
5.46188e-10
-6.21977e-17
5.51094e-10
-6.00678e-17
5.49652e-10
-5.85074e-17
5.463e-10
-5.73118e-17
5.43915e-10
-5.57912e-17
5.43915e-10
-5.30438e-17
5.463e-10
-4.81941e-17
5.49652e-10
-4.0943e-17
5.51094e-10
-3.1748e-17
5.46188e-10
-2.11347e-17
5.28759e-10
-8.52142e-18
4.90625e-10
5.61548e-18
4.21291e-10
1.53867e-17
3.07428e-10
1.31443e-10
-4.14551e-18
1.31443e-10
-1.86235e-17
3.07428e-10
-3.84168e-17
4.21291e-10
-5.04468e-17
4.90625e-10
-5.5856e-17
5.28759e-10
-5.7724e-17
5.46188e-10
-5.81102e-17
5.51094e-10
-5.833e-17
5.49652e-10
-5.85696e-17
5.463e-10
-5.84044e-17
5.43915e-10
-5.73642e-17
5.43915e-10
-5.48071e-17
5.463e-10
-4.99073e-17
5.49652e-10
-4.22287e-17
5.51094e-10
-3.17921e-17
5.46188e-10
-1.853e-17
5.28759e-10
-2.38141e-18
4.90625e-10
1.50996e-17
4.21291e-10
2.5013e-17
3.07428e-10
1.31443e-10
8.67192e-18
1.31443e-10
-3.35288e-18
3.07428e-10
-2.32491e-17
4.21291e-10
-3.62208e-17
4.90625e-10
-4.38118e-17
5.28759e-10
-4.85221e-17
5.46188e-10
-5.19797e-17
5.51094e-10
-5.48061e-17
5.49652e-10
-5.67377e-17
5.463e-10
-5.76478e-17
5.43915e-10
-5.7561e-17
5.43915e-10
-5.60989e-17
5.463e-10
-5.25125e-17
5.49652e-10
-4.62265e-17
5.51094e-10
-3.68998e-17
5.46188e-10
-2.40525e-17
5.28759e-10
-8.21061e-18
4.90625e-10
7.8412e-18
4.21291e-10
1.69053e-17
3.07428e-10
1.31443e-10
1.75939e-17
1.31443e-10
9.65863e-18
3.07428e-10
-7.84632e-18
4.21291e-10
-2.0863e-17
4.90625e-10
-3.02238e-17
5.28759e-10
-3.76893e-17
5.46188e-10
-4.41848e-17
5.51094e-10
-4.9333e-17
5.49652e-10
-5.29137e-17
5.463e-10
-5.53251e-17
5.43915e-10
-5.68755e-17
5.43915e-10
-5.73181e-17