/*--------------------------------*- C++ -*----------------------------------*\
| =========                 |                                                 |
| \\      /  F ield         | OpenFOAM: The Open Source CFD Toolbox           |
|  \\    /   O peration     | Version:  v1606+                                |
|   \\  /    A nd           | Web:      www.OpenFOAM.com                      |
|    \\/     M anipulation  |                                                 |
\*---------------------------------------------------------------------------*/
FoamFile
{
    version     2.0;
    format      ascii;
    class       volScalarField;
    location    "0.54";
    object      alpha.particles;
}
// * * * * * * * * * * * * * * * * * * * * * * * * * * * * * * * * * * * * * //

dimensions      [0 0 0 0 0 0 0];

internalField   nonuniform List<scalar> 
6000
(
0.425068
0.425077
0.42513
0.425152
0.425207
0.425199
0.425259
0.425334
0.425358
0.425361
0.425361
0.42536
0.425357
0.425332
0.424475
0.425256
0.425495
0.42555
0.42556
0.425561
0.42556
0.425551
0.42551
0.425486
0.425473
0.425472
0.425466
0.425433
0.425373
0.425304
0.425057
0.425054
0.425119
0.425148
0.425173
0.425189
0.425211
0.42526
0.425327
0.425344
0.425335
0.42391
0.42135
0.419723
0.419021
0.419021
0.420133
0.421737
0.424612
0.425561
0.425249
0.425465
0.42549
0.425481
0.425484
0.425475
0.42543
0.425371
0.425294
0.425294
0.398839
0.425093
0.425138
0.421422
0.409305
0.397365
0.386215
0.379631
0.379361
0.386353
0.410021
0.424661
0.424667
0.424661
0.424654
0.42474
0.424688
0.424745
0.424688
0.405271
0.383221
0.376709
0.377359
0.384777
0.39718
0.409922
0.422064
0.425387
0.425356
0.402132
0.318187
0.355751
0.366791
0.346042
0.319534
0.30152
0.289432
0.283328
0.282063
0.288472
0.317463
0.381314
0.424678
0.424667
0.42466
0.424654
0.42474
0.421446
0.372302
0.311464
0.286655
0.280551
0.281847
0.288517
0.301559
0.320147
0.347357
0.369645
0.359136
0.321911
0.293164
0.296728
0.300468
0.283924
0.261354
0.248678
0.244822
0.24428
0.244148
0.24401
0.248248
0.288446
0.352043
0.389129
0.389802
0.388327
0.3813
0.341259
0.281007
0.247202
0.245752
0.245859
0.245963
0.246163
0.249709
0.261828
0.28472
0.302178
0.298429
0.294016
0.293162
0.293161
0.292088
0.27942
0.259866
0.24462
0.244305
0.244187
0.244088
0.244064
0.244108
0.246833
0.277781
0.308234
0.306833
0.306222
0.301216
0.272293
0.24598
0.245826
0.245797
0.245822
0.245912
0.245996
0.246323
0.26191
0.280774
0.292525
0.294014
0.294015
0.293173
0.328968
0.333387
0.324562
0.299932
0.271206
0.254475
0.24516
0.244181
0.244131
0.244243
0.244324
0.256448
0.27289
0.273171
0.273294
0.270027
0.25458
0.24598
0.245938
0.245856
0.245908
0.247206
0.257514
0.27455
0.30432
0.327136
0.33422
0.330836
0.294023
0.345351
0.393936
0.408941
0.403316
0.3792
0.340596
0.298317
0.265678
0.249309
0.24425
0.244306
0.244312
0.254203
0.267258
0.269219
0.269152
0.265855
0.253016
0.245979
0.245965
0.24595
0.252609
0.270161
0.305136
0.344311
0.381442
0.404518
0.408477
0.395909
0.346953
0.440162
0.459045
0.478014
0.476087
0.462186
0.429763
0.378496
0.322653
0.276387
0.255257
0.245578
0.247616
0.25861
0.267715
0.268452
0.268463
0.268099
0.260121
0.24973
0.249873
0.260615
0.283417
0.331482
0.386409
0.432485
0.459726
0.474208
0.476633
0.458834
0.441432
0.510478
0.515333
0.524342
0.523047
0.515711
0.496546
0.464211
0.409768
0.336122
0.292002
0.26915
0.270803
0.284267
0.276639
0.268422
0.268797
0.282537
0.289642
0.273515
0.278218
0.301578
0.348123
0.41985
0.465716
0.497035
0.514603
0.522312
0.524077
0.515288
0.510362
0.54398
0.54529
0.546829
0.545621
0.542003
0.534063
0.518017
0.485074
0.418466
0.355405
0.323588
0.318461
0.339822
0.310527
0.272741
0.276933
0.322968
0.345053
0.322113
0.334451
0.367656
0.430549
0.488594
0.518452
0.534448
0.542268
0.545874
0.547105
0.545484
0.543726
0.557273
0.557753
0.557203
0.555963
0.554116
0.550778
0.543844
0.52759
0.487069
0.428568
0.392016
0.380375
0.412232
0.378436
0.286375
0.294942
0.396282
0.413955
0.383202
0.39971
0.437712
0.494095
0.529114
0.544432
0.551068
0.554174
0.555912
0.557119
0.557612
0.556942
0.563603
0.563128
0.561689
0.560011
0.559012
0.55765
0.555055
0.548583
0.527994
0.484468
0.453247
0.440342
0.476306
0.465788
0.304017
0.313058
0.484188
0.474705
0.441563
0.45699
0.489039
0.530566
0.549383
0.55508
0.557363
0.558333
0.559191
0.560918
0.562445
0.562865
0.564459
0.562818
0.561322
0.558631
0.558187
0.558236
0.558236
0.557209
0.548258
0.520229
0.495294
0.488367
0.515156
0.508104
0.325434
0.33369
0.516311
0.516155
0.490225
0.496806
0.522814
0.549382
0.557229
0.557328
0.557318
0.556521
0.556849
0.559606
0.561392
0.563153
0.564294
0.554441
0.557018
0.551541
0.550549
0.554792
0.557889
0.55792
0.556769
0.54232
0.524709
0.524327
0.536588
0.497328
0.37147
0.377861
0.506454
0.538318
0.525957
0.52598
0.543702
0.557026
0.557249
0.556333
0.551266
0.546758
0.54823
0.554011
0.551409
0.562551
0.552595
0.52892
0.545819
0.539232
0.532012
0.536888
0.550651
0.55734
0.558194
0.554978
0.548516
0.548283
0.545654
0.487926
0.435753
0.443729
0.495588
0.546236
0.54864
0.549261
0.555508
0.557503
0.555916
0.546429
0.529374
0.528979
0.538605
0.545749
0.528586
0.551198
0.531087
0.457129
0.505774
0.528074
0.51652
0.504936
0.528911
0.549342
0.558205
0.561114
0.561486
0.555739
0.536959
0.476779
0.47166
0.487722
0.488213
0.535375
0.555457
0.561561
0.561041
0.557521
0.546385
0.521325
0.513428
0.518355
0.525029
0.50793
0.463199
0.533317
0.420759
0.33898
0.407226
0.493667
0.511652
0.504909
0.504932
0.533307
0.554317
0.562559
0.562512
0.542994
0.497651
0.475527
0.472977
0.487589
0.490406
0.497445
0.54273
0.562158
0.562188
0.553226
0.529751
0.513429
0.513481
0.522974
0.499424
0.419775
0.347273
0.430904
0.300426
0.275043
0.323872
0.459842
0.521556
0.516712
0.51325
0.525918
0.548538
0.562519
0.562611
0.542108
0.492846
0.492306
0.475472
0.480703
0.49712
0.497469
0.543191
0.562235
0.562161
0.547365
0.523795
0.520083
0.523493
0.525711
0.498047
0.349224
0.28114
0.31007
0.270551
0.274141
0.306287
0.440616
0.524042
0.524122
0.522273
0.52418
0.541828
0.560721
0.562563
0.553265
0.522174
0.531471
0.513422
0.517028
0.52353
0.52278
0.552971
0.562208
0.560179
0.540714
0.523948
0.524543
0.5257
0.525581
0.430299
0.298409
0.278914
0.270551
0.269631
0.269968
0.239581
0.245189
0.424494
0.497153
0.505546
0.534138
0.534841
0.555316
0.562686
0.560736
0.551448
0.545367
0.545153
0.54527
0.545198
0.548411
0.558879
0.562299
0.555639
0.534176
0.527745
0.491265
0.458811
0.361339
0.187603
0.205982
0.258654
0.255835
0.192631
0.175801
0.11189
0.0715287
0.122277
0.226156
0.287041
0.36771
0.501268
0.546939
0.56254
0.559856
0.548485
0.477293
0.458235
0.460842
0.497266
0.549341
0.558212
0.562179
0.545745
0.487364
0.33707
0.234986
0.164638
0.0863319
0.0503041
0.0863094
0.147046
0.167156
0.0743734
0.0595035
0.0384047
0.0286359
0.0316249
0.0460163
0.0624127
0.092452
0.225435
0.456586
0.554159
0.550661
0.514638
0.297458
0.242484
0.245686
0.325611
0.544374
0.551448
0.553305
0.443799
0.202282
0.0775432
0.0495559
0.0368055
0.0280898
0.0258389
0.0322578
0.0473861
0.0606686
0.0295213
0.0263656
0.0244262
0.0245434
0.025579
0.0278633
0.031388
0.0392795
0.0726171
0.195675
0.377585
0.4707
0.354186
0.204111
0.159912
0.162075
0.213372
0.381012
0.496635
0.390477
0.189838
0.068163
0.0383974
0.0311463
0.0278254
0.0254624
0.0239771
0.0235438
0.0245214
0.026592
0.0228263
0.0230688
0.0234977
0.0246045
0.0264233
0.0289818
0.0323389
0.0382833
0.0573445
0.125898
0.262471
0.342366
0.272379
0.200276
0.154784
0.156806
0.205425
0.281524
0.353918
0.265338
0.122589
0.0563726
0.0386734
0.0327488
0.0292243
0.0264478
0.0243756
0.0231229
0.0225297
0.0221335
0.0223553
0.0229105
0.0236591
0.0252415
0.0278596
0.0309371
0.0345735
0.039821
0.0553215
0.113444
0.227611
0.297097
0.27663
0.20351
0.1544
0.155941
0.209545
0.282696
0.298949
0.224562
0.109529
0.0548714
0.0404836
0.0350641
0.0312342
0.0280318
0.0252743
0.0233432
0.0224011
0.0218582
0.0223464
0.0230202
0.0242812
0.026575
0.029579
0.0329175
0.0368158
0.042238
0.054338
0.102582
0.223922
0.311948
0.287647
0.204383
0.152601
0.153527
0.211122
0.296482
0.314681
0.219982
0.0988386
0.0542103
0.0428599
0.0372584
0.0331809
0.0297754
0.0266751
0.0241014
0.022594
0.0218507
0.0223393
0.023321
0.0252924
0.0282404
0.0314614
0.0348356
0.038933
0.0450129
0.0556632
0.0954115
0.218429
0.326178
0.299867
0.205018
0.150427
0.150715
0.212626
0.312156
0.329059
0.212569
0.0923076
0.0561025
0.0456097
0.0393488
0.0351251
0.031661
0.0283622
0.0252214
0.0229798
0.0218436
0.0223566
0.0237615
0.0266539
0.0302771
0.0337035
0.0369062
0.0412165
0.0478722
0.0588093
0.0921516
0.212144
0.339226
0.311788
0.205243
0.148922
0.148853
0.213125
0.326547
0.342346
0.205071
0.0895432
0.0595865
0.0485835
0.0416849
0.0372231
0.0338939
0.0304147
0.0266768
0.0235016
0.02186
0.0223668
0.0244168
0.0283769
0.0327503
0.0362993
0.0394666
0.0437704
0.0509469
0.0631906
0.0923603
0.207811
0.349783
0.321707
0.205142
0.148009
0.147953
0.21122
0.336133
0.353862
0.201595
0.0917202
0.0641371
0.0517218
0.0443825
0.0398548
0.0365035
0.0328884
0.0284536
0.0242021
0.0218702
0.022375
0.0254531
0.0307678
0.0359109
0.039446
0.0424668
0.0466839
0.0545168
0.0675274
0.0956426
0.205676
0.362182
0.333537
0.205976
0.147938
0.147935
0.20857
0.345462
0.36794
0.200545
0.0965092
0.0687223
0.0554665
0.047443
0.0429453
0.0396332
0.0360126
0.0308669
0.02527
0.021879
0.022437
0.0274276
0.0342545
0.0399009
0.0432101
0.0459018
0.0501249
0.0581502
0.0720606
0.10123
0.206181
0.371562
0.34319
0.207128
0.148911
0.148758
0.20506
0.351214
0.380138
0.206899
0.103551
0.0736741
0.0593255
0.0509945
0.0464438
0.0433929
0.0399017
0.0343036
0.0272338
0.0219392
0.023975
0.0313062
0.0392959
0.0448626
0.0475138
0.0497945
0.0538124
0.0619186
0.0769927
0.107979
0.211516
0.379452
0.351814
0.209464
0.150918
0.150486
0.202096
0.354975
0.390402
0.2198
0.112108
0.0793865
0.063418
0.0547643
0.0503752
0.0476798
0.0447486
0.0391566
0.0309672
0.0233721
0.0293036
0.0380481
0.046041
0.0505932
0.0522475
0.0539157
0.057635
0.065799
0.0818289
0.11486
0.220566
0.389083
0.360736
0.212598
0.152858
0.152117
0.20086
0.36
0.402812
0.233909
0.120902
0.0852255
0.0678121
0.058688
0.0545103
0.0524006
0.0504204
0.0456545
0.0373682
0.0283493
0.0392523
0.0475453
0.0538865
0.0566211
0.0570441
0.0579221
0.0611895
0.0695718
0.0867204
0.122514
0.23235
0.399896
0.368366
0.215786
0.155807
0.154577
0.202014
0.362107
0.414839
0.250683
0.130943
0.0912452
0.0720452
0.0624287
0.0585352
0.057194
0.0564855
0.0533753
0.0464999
0.0377864
0.0512099
0.0578916
0.061635
0.0622436
0.0612086
0.0612942
0.0641947
0.0729252
0.0912534
0.130197
0.245414
0.413045
0.375537
0.218564
0.160842
0.159106
0.2046
0.363482
0.42791
0.268305
0.141067
0.0969409
0.0759504
0.0656282
0.0619378
0.0614065
0.0621988
0.0612041
0.0567613
0.0494352
0.0613427
0.0668556
0.0682138
0.0665175
0.0638608
0.0635789
0.0663832
0.0756534
0.0949951
0.136112
0.256309
0.422554
0.383278
0.224113
0.168664
0.166717
0.209864
0.367588
0.437499
0.283921
0.149379
0.101648
0.0791875
0.0680529
0.0642969
0.0642007
0.0665783
0.0679459
0.0659049
0.0595986
0.0681908
0.0736472
0.0728161
0.0686722
0.0648167
0.064754
0.0678095
0.0775056
0.0973102
0.138966
0.263377
0.424062
0.392381
0.23662
0.178311
0.176182
0.219693
0.376586
0.441186
0.294735
0.154145
0.104601
0.08139
0.0697306
0.0655465
0.0653178
0.0688732
0.0726928
0.0728336
0.0664167
0.0730065
0.0784192
0.0750605
0.0690999
0.0648617
0.0652294
0.0686851
0.0784267
0.0981655
0.139479
0.265342
0.424018
0.40541
0.255179
0.188684
0.186099
0.235048
0.387633
0.441949
0.299063
0.155415
0.105871
0.0825879
0.0708373
0.0661167
0.0654596
0.069324
0.0751532
0.0776353
0.0708059
0.077651
0.0813827
0.0754739
0.0684589
0.0649315
0.0654148
0.069269
0.0788569
0.098222
0.137772
0.259546
0.424113
0.421589
0.276935
0.200895
0.197888
0.254266
0.40353
0.441953
0.297474
0.154024
0.106248
0.0833045
0.0716761
0.0664851
0.0655293
0.0686078
0.0757123
0.0806078
0.0746747
0.0834054
0.0827499
0.0743529
0.067098
0.0649927
0.0655949
0.0701544
0.0795676
0.0982262
0.135259
0.240723
0.424317
0.433845
0.302014
0.216563
0.212887
0.2771
0.422307
0.441139
0.283284
0.150802
0.106638
0.0844209
0.0729538
0.0670559
0.0655926
0.0671248
0.074862
0.0821319
0.0793487
0.0915613
0.0829782
0.0721139
0.0661356
0.0650402
0.0668106
0.0728795
0.0822177
0.0996506
0.133992
0.2176
0.408657
0.435419
0.330296
0.234773
0.229942
0.305426
0.436221
0.434792
0.255736
0.148734
0.108383
0.087527
0.0762291
0.0687853
0.0656434
0.0660563
0.072688
0.0825544
0.0861328
0.102555
0.0826131
0.0707918
0.0662005
0.0666191
0.0707617
0.078641
0.0881489
0.104022
0.134302
0.201878
0.380614
0.435478
0.355518
0.253619
0.248625
0.334265
0.43631
0.416575
0.233225
0.148694
0.112789
0.0937466
0.0823725
0.0729538
0.067163
0.0661254
0.0709053
0.0824723
0.0959308
0.114249
0.082293
0.0711274
0.0683375
0.0712393
0.0778158
0.0868864
0.0969038
0.111362
0.138452
0.198083
0.350998
0.43545
0.371599
0.271043
0.266855
0.355871
0.436249
0.388694
0.225969
0.153319
0.120332
0.102664
0.09059
0.0797132
0.071607
0.0680485
0.0707668
0.0823381
0.107391
0.121225
0.083372
0.0739435
0.0736289
0.0784443
0.0869597
0.0972631
0.108471
0.122548
0.149611
0.21194
0.339619
0.435533
0.374341
0.285275
0.282758
0.362313
0.436388
0.373073
0.24051
0.16643
0.132598
0.114581
0.100736
0.0884553
0.0785197
0.073008
0.0733223
0.0827278
0.11609
0.121547
0.0878711
0.0794714
0.0811096
0.0877221
0.0983627
0.110828
0.124163
0.14047
0.171576
0.240889
0.351818
0.421521
0.363688
0.296823
0.296541
0.359157
0.417575
0.374927
0.267277
0.190481
0.152185
0.130908
0.11435
0.0998722
0.0877094
0.0802448
0.0786867
0.0865212
0.118135
0.121589
0.0945256
0.0863003
0.0899205
0.09967
0.113245
0.128401
0.14488
0.165963
0.203382
0.275894
0.365804
0.394886
0.358224
0.311239
0.312252
0.359825
0.399628
0.382846
0.299647
0.223281
0.178931
0.152503
0.132444
0.115064
0.100049
0.089138
0.0853226
0.0930286
0.118193
0.121627
0.101469
0.0942391
0.10096
0.1153
0.132882
0.151077
0.1713
0.198149
0.242359
0.312072
0.378099
0.390221
0.361952
0.33103
0.332722
0.366533
0.397094
0.391482
0.332737
0.262469
0.212485
0.180137
0.155976
0.135302
0.116508
0.100645
0.0931822
0.100023
0.118165
0.121907
0.109024
0.105215
0.116144
0.136158
0.158182
0.180088
0.205358
0.23917
0.288376
0.349334
0.392303
0.394105
0.375371
0.357643
0.359469
0.38077
0.4013
0.402454
0.366235
0.3075
0.254835
0.21586
0.186443
0.162063
0.139063
0.116979
0.104065
0.107384
0.118356
0.121879
0.120274
0.121944
0.138067
0.164844
0.191569
0.218781
0.251046
0.291896
0.34138
0.388448
0.411634
0.409243
0.399211
0.391019
0.392422
0.403385
0.414588
0.417789
0.399768
0.356807
0.307334
0.263568
0.227781
0.19869
0.171689
0.142247
0.120961
0.117408
0.118493
0.12265
0.137835
0.147154
0.171104
0.205953
0.238751
0.272905
0.312175
0.356086
0.399031
0.429508
0.438673
0.436339
0.432761
0.430474
0.431281
0.435043
0.438925
0.441104
0.434792
0.408864
0.369303
0.326153
0.285802
0.251742
0.221347
0.184932
0.149351
0.132922
0.118725
0.131679
0.162583
0.183335
0.222432
0.267465
0.305845
0.344896
0.386335
0.425538
0.455489
0.471074
0.473961
0.473731
0.474357
0.47531
0.47609
0.476488
0.476418
0.476787
0.475375
0.463566
0.438296
0.402567
0.362877
0.326355
0.294707
0.256435
0.199176
0.156824
0.125643
0.154962
0.192428
0.235779
0.302391
0.352866
0.38988
0.426197
0.460244
0.486201
0.501518
0.508416
0.511001
0.513135
0.515605
0.517732
0.518997
0.51927
0.518784
0.518139
0.516863
0.512195
0.500708
0.479889
0.449719
0.415537
0.384149
0.349944
0.284285
0.196814
0.144945
0.192576
0.231816
0.316544
0.409684
0.443477
0.470155
0.493901
0.512114
0.523517
0.529977
0.533981
0.537011
0.539626
0.541878
0.543679
0.544969
0.545735
0.54596
0.545618
0.544481
0.542198
0.537825
0.529779
0.51592
0.495151
0.468395
0.438508
0.389794
0.266937
0.181727
0.24564
0.295742
0.422898
0.495325
0.507194
0.51926
0.529048
0.535882
0.540607
0.54406
0.546857
0.549219
0.551155
0.552714
0.553959
0.554934
0.555654
0.556073
0.556121
0.555694
0.554706
0.552988
0.550124
0.545271
0.536935
0.523316
0.502884
0.475917
0.367898
0.244435
0.314317
0.382549
0.502565
0.529944
0.534105
0.538326
0.542465
0.545972
0.548839
0.551218
0.55323
0.554906
0.556269
0.55737
0.558259
0.558977
0.559537
0.559918
0.560108
0.560092
0.559794
0.55913
0.557964
0.555948
0.552261
0.545664
0.535694
0.523355
0.463906
0.344959
0.38943
0.463665
0.530932
0.541032
0.544317
0.546658
0.549213
0.551698
0.55385
0.55564
0.557112
0.558305
0.559264
0.56003
0.560644
0.561132
0.561483
0.561714
0.561877
0.56198
0.562007
0.561923
0.561645
0.560925
0.559144
0.555602
0.550366
0.544771
0.525463
0.458422
0.45897
0.518945
0.542464
0.54761
0.550138
0.551943
0.553858
0.55577
0.557427
0.558763
0.559815
0.56063
0.561251
0.561711
0.562046
0.562228
0.562241
0.562248
0.562257
0.562274
0.562409
0.562718
0.563086
0.563264
0.562887
0.561263
0.558305
0.554529
0.545865
0.52119
0.508406
0.542389
0.549771
0.552437
0.554364
0.555924
0.557443
0.558886
0.5601
0.561032
0.561713
0.562186
0.562482
0.562629
0.562638
0.562467
0.562243
0.562038
0.561813
0.561657
0.561662
0.561998
0.562583
0.563354
0.564339
0.564453
0.563409
0.560953
0.551711
0.521393
0.518948
0.54477
0.554783
0.556605
0.557891
0.559135
0.56028
0.561284
0.562082
0.562642
0.562985
0.563142
0.563133
0.562979
0.56265
0.562237
0.561746
0.56111
0.56035
0.559559
0.558906
0.558851
0.559258
0.56105
0.563348
0.565388
0.566292
0.565779
0.558539
0.524918
0.518918
0.544321
0.557925
0.560199
0.560995
0.561786
0.562503
0.563087
0.563509
0.563748
0.56381
0.563723
0.563491
0.563115
0.56258
0.561832
0.560853
0.559475
0.557552
0.555118
0.552257
0.549774
0.547442
0.551155
0.557003
0.563517
0.566872
0.566876
0.564621
0.536296
0.519617
0.545277
0.560699
0.563355
0.56365
0.563894
0.564161
0.564376
0.564503
0.564509
0.5644
0.564178
0.563845
0.563378
0.56274
0.561871
0.560479
0.558211
0.55456
0.549079
0.540517
0.52913
0.518838
0.525201
0.534302
0.553678
0.565409
0.566898
0.566829
0.551236
0.521616
0.548874
0.563556
0.565954
0.565701
0.565411
0.565295
0.56525
0.565196
0.565088
0.564919
0.56469
0.564397
0.564012
0.563473
0.562683
0.56141
0.559205
0.555142
0.546546
0.529309
0.506747
0.49308
0.495215
0.493697
0.518979
0.554967
0.566821
0.566873
0.561098
0.522872
0.554635
0.566313
0.567812
0.567069
0.566361
0.566007
0.565836
0.565717
0.565594
0.565459
0.565321
0.565186
0.56504
0.564833
0.564475
0.563798
0.562434
0.55939
0.551774
0.532734
0.506756
0.488288
0.484123
0.471145
0.466481
0.512331
0.560689
0.566804
0.566027
0.526326
0.560587
0.56868
0.56897
0.567827
0.566887
0.566448
0.566258
0.566148
0.566059
0.565981
0.565921
0.565919
0.565989
0.566123
0.566278
0.566364
0.566209
0.565247
0.561576
0.548114
0.514832
0.495417
0.485004
0.47208
0.455071
0.455215
0.528591
0.563676
0.566051
0.535961
0.565356
0.56982
0.569554
0.568166
0.567161
0.566742
0.566592
0.566512
0.566423
0.56631
0.566197
0.56615
0.566231
0.566496
0.566955
0.567552
0.568221
0.568747
0.568399
0.563923
0.54441
0.514106
0.492253
0.475353
0.455217
0.455129
0.472545
0.534623
0.564632
0.54832
0.567575
0.569863
0.569658
0.568251
0.567294
0.566963
0.566878
0.566792
0.566593
0.566288
0.566
0.565769
0.565697
0.56589
0.566387
0.567127
0.568038
0.56921
0.570561
0.570796
0.565885
0.549123
0.517573
0.485006
0.462697
0.455214
0.466957
0.479123
0.546308
0.555876
0.567745
0.569841
0.569554
0.568182
0.567359
0.567178
0.567147
0.566951
0.566491
0.565819
0.564977
0.564146
0.563577
0.56355
0.564133
0.565204
0.566582
0.568207
0.570051
0.57155
0.57154
0.568178
0.55393
0.521967
0.480491
0.464844
0.48068
0.47898
0.525555
0.559229
0.56762
0.569881
0.569303
0.568019
0.567462
0.567469
0.567399
0.566884
0.56583
0.564122
0.561926
0.559596
0.557968
0.557518
0.558369
0.560172
0.562523
0.565129
0.567982
0.570696
0.571609
0.571583
0.569739
0.557783
0.528983
0.496141
0.497515
0.48056
0.514449
0.561313
0.567658
0.56984
0.568951
0.567918
0.567745
0.567887
0.567523
0.566269
0.563695
0.559587
0.5543
0.548179
0.545487
0.544502
0.545988
0.549002
0.55339
0.558082
0.562902
0.567546
0.571049
0.571621
0.571608
0.570574
0.560876
0.540091
0.523362
0.498227
0.514528
0.562817
0.567788
0.569702
0.568645
0.568105
0.568322
0.568317
0.567174
0.564103
0.558151
0.548848
0.538078
0.52646
0.526729
0.52637
0.52764
0.529742
0.536063
0.543612
0.551829
0.560317
0.567155
0.571033
0.571631
0.571618
0.570334
0.562532
0.546707
0.528685
0.517737
0.56385
0.567855
0.569135
0.568728
0.568748
0.56906
0.568281
0.565276
0.557897
0.544589
0.528184
0.51724
0.516097
0.516084
0.516924
0.516836
0.516845
0.516832
0.521656
0.530875
0.544658
0.558133
0.566943
0.570991
0.571641
0.571629
0.569657
0.562172
0.547461
0.519379
0.564609
0.568078
0.569291
0.56932
0.569638
0.569418
0.566792
0.558806
0.539586
0.51812
0.506767
0.507364
0.516043
0.518719
0.520112
0.518909
0.516948
0.510522
0.504739
0.508042
0.518297
0.537972
0.557295
0.567287
0.571067
0.571655
0.571646
0.569292
0.559697
0.525651
0.565564
0.568713
0.569817
0.570039
0.570032
0.568362
0.560578
0.53883
0.503606
0.492334
0.49548
0.505776
0.518089
0.524379
0.526525
0.524703
0.51962
0.511835
0.503133
0.499989
0.498776
0.50626
0.534771
0.558321
0.568262
0.571455
0.571717
0.571685
0.56677
0.541148
0.56689
0.569518
0.570042
0.57005
0.569725
0.563058
0.53908
0.501619
0.488978
0.488962
0.501554
0.507894
0.519839
0.529677
0.533094
0.53169
0.524778
0.512771
0.505004
0.500298
0.492556
0.487429
0.502584
0.5361
0.560774
0.569786
0.571713
0.57171
0.570003
0.556512
0.56824
0.570033
0.570052
0.570011
0.565648
0.543765
0.491074
0.478636
0.488957
0.500544
0.515677
0.515666
0.521269
0.533606
0.537724
0.537197
0.530182
0.514796
0.504995
0.49845
0.488158
0.481171
0.482842
0.502238
0.539292
0.564013
0.571668
0.571724
0.571524
0.564532
0.569267
0.570043
0.570027
0.567767
0.552155
0.494292
0.47134
0.478614
0.494148
0.5161
0.529379
0.529524
0.525589
0.536765
0.541376
0.54145
0.535147
0.517872
0.504222
0.495827
0.488006
0.475311
0.468243
0.472786
0.493913
0.544611
0.567472
0.571693
0.571708
0.568591
0.569996
0.570022
0.568845
0.558388
0.525237
0.471344
0.47134
0.477618
0.495276
0.521912
0.536833
0.540182
0.532529
0.539484
0.544325
0.54466
0.539554
0.521841
0.5054
0.495096
0.490021
0.476765
0.460196
0.453593
0.444664
0.495211
0.550454
0.569871
0.571676
0.570923
0.56999
0.568913
0.561447
0.541533
0.49032
0.476947
0.471339
0.470996
0.493275
0.523817
0.542669
0.544835
0.537215
0.542963
0.546993
0.547189
0.543318
0.52784
0.505693
0.501301
0.495586
0.482282
0.462765
0.445797
0.443358
0.444017
0.505865
0.556281
0.570314
0.570949
0.568559
0.562671
0.548827
0.528059
0.478554
0.476235
0.463837
0.457874
0.491746
0.53135
0.548841
0.546519
0.541199
0.547355
0.549844
0.549673
0.547059
0.535848
0.513025
0.51263
0.503281
0.486323
0.466826
0.446606
0.443358
0.443358
0.47111
0.525193
0.557014
0.570635
0.563461
0.552764
0.53984
0.502187
0.483721
0.453948
0.440996
0.450612
0.498577
0.543164
0.55315
0.547303
0.547022
0.552277
0.553247
0.552861
0.551419
0.545519
0.530841
0.526693
0.509025
0.4884
0.470198
0.450423
0.443358
0.450331
0.476233
0.495646
0.521565
0.558911
0.55665
0.545431
0.532042
0.487904
0.462568
0.426641
0.42538
0.456379
0.521686
0.55339
0.555404
0.54981
0.554484
0.557206
0.557299
0.55697
0.5564
0.554401
0.548444
0.542817
0.524733
0.496537
0.472705
0.456028
0.452607
0.493792
0.503312
0.496785
0.49687
0.539025
0.550792
0.539279
0.514989
0.472102
0.434176
0.42538
0.425383
0.48647
0.545788
0.558964
0.557792
0.556312
0.560804
0.561416
0.561152
0.560958
0.560842
0.560594
0.559107
0.555845
0.546276
0.522475
0.487599
0.467257
0.472739
0.534365
0.534358
0.512679
0.496803
0.525082
0.542868
0.51521
0.500943
0.446472
0.426492
0.426457
0.45309
0.530164
0.5596
0.562588
0.56149
0.562609
0.564144
0.563673
0.563194
0.563019
0.563082
0.56341
0.563547
0.562982
0.560283
0.550078
0.523662
0.495538
0.49167
0.516732
0.54251
0.537848
0.512104
0.514289
0.523292
0.475098
0.471965
0.433154
0.428782
0.451625
0.51427
0.55777
0.565248
0.564935
0.564451
0.56445
0.564229
0.563164
0.562425
0.562138
0.562279
0.562869
0.563679
0.564832
0.565189
0.563344
0.553968
0.5332
0.516585
0.515973
0.542696
0.54732
0.535817
0.517438
0.488773
0.456932
0.447482
0.438138
0.453927
0.511099
0.556103
0.566397
0.566694
0.565793
0.564665
0.563856
0.561886
0.559552
0.558114
0.557475
0.5578
0.55899
0.561058
0.563377
0.565209
0.565483
0.564969
0.558052
0.54205
0.515985
0.525751
0.547364
0.544075
0.521519
0.478497
0.464772
0.453983
0.467958
0.513242
0.555654
0.566628
0.566717
0.56669
0.564842
0.562167
0.558339
0.553152
0.548454
0.545796
0.544263
0.545054
0.547071
0.551323
0.55659
0.56217
0.565464
0.565554
0.565492
0.559638
0.535786
0.525707
0.547341
0.546203
0.519309
0.491595
0.491516
0.486306
0.52156
0.556262
0.566635
0.56672
0.566701
0.56514
0.560062
0.552692
0.542164
0.532996
0.527053
0.524611
0.522305
0.524031
0.525348
0.530195
0.537768
0.55046
0.560876
0.56551
0.56558
0.565522
0.55745
0.536635
0.547415
0.548028
0.519273
0.5117
0.52016
0.530777
0.556557
0.566533
0.566721
0.566709
0.565582
0.558232
0.54597
0.530133
0.51629
0.510081
0.507862
0.509059
0.507415
0.509082
0.507665
0.509324
0.512324
0.523847
0.545329
0.560616
0.565542
0.565589
0.565281
0.55584
0.551363
0.549989
0.519275
0.514338
0.539971
0.55668
0.565675
0.566717
0.566715
0.56585
0.557424
0.53957
0.519449
0.504539
0.50027
0.502119
0.506551
0.507519
0.507415
0.50613
0.504054
0.502459
0.499472
0.498835
0.51464
0.544629
0.561924
0.565575
0.565593
0.564277
0.559483
0.553803
0.519291
0.520527
0.553986
0.564802
0.566705
0.566718
0.566303
0.55793
0.536064
0.511333
0.498213
0.494847
0.4979
0.501864
0.506556
0.505631
0.507414
0.505072
0.502935
0.498963
0.494768
0.490597
0.488711
0.514052
0.548186
0.563724
0.5656
0.5656
0.564784
0.559293
0.527178
0.535192
0.56188
0.56668
0.56672
0.566675
0.559967
0.53679
0.505728
0.494116
0.489192
0.490985
0.496641
0.501513
0.506547
0.50554
0.506765
0.504909
0.502349
0.497283
0.491918
0.484674
0.479913
0.484766
0.516933
0.553241
0.56518
0.565612
0.565609
0.563253
0.542113
0.549963
0.565289
0.566711
0.566691
0.563053
0.541883
0.50026
0.483838
0.482722
0.483464
0.490216
0.496613
0.501729
0.505877
0.50554
0.506298
0.505104
0.50254
0.497632
0.491716
0.482235
0.474578
0.468553
0.476489
0.528978
0.558561
0.565586
0.565614
0.565076
0.553192
0.558389
0.566655
0.566704
0.566021
0.550096
0.505909
0.466243
0.46992
0.473639
0.482237
0.490719
0.497643
0.502578
0.505759
0.506417
0.506516
0.505667
0.503434
0.498521
0.492576
0.48294
0.471849
0.460098
0.460104
0.492353
0.54209
0.563336
0.565625
0.565591
0.559445
0.56332
0.566689
0.566679
0.557813
0.529641
0.473834
0.457085
0.461009
0.471348
0.482644
0.492228
0.499821
0.5038
0.505714
0.507264
0.506718
0.506435
0.504925
0.50068
0.494547
0.485241
0.473488
0.460295
0.460513
0.467227
0.5253
0.552604
0.565562
0.565624
0.563331
0.566207
0.566652
0.562551
0.540253
0.517277
0.475459
0.457014
0.460859
0.472578
0.483318
0.495627
0.501921
0.505203
0.505821
0.507398
0.50682
0.507078
0.507019
0.504562
0.498913
0.490219
0.479041
0.464934
0.460504
0.473229
0.521488
0.534138
0.558384
0.565551
0.565538
0.566216
0.564348
0.54831
0.53078
0.511946
0.483649
0.457087
0.46293
0.478814
0.486898
0.498592
0.504632
0.506759
0.50658
0.507666
0.506985
0.507322
0.508808
0.508303
0.505229
0.497039
0.484951
0.471839
0.460959
0.488782
0.525712
0.531181
0.54135
0.561337
0.565416
0.56529
0.554452
0.53996
0.534488
0.512686
0.480555
0.457095
0.467884
0.490336
0.49796
0.500086
0.507294
0.508437
0.508055
0.50836
0.507372
0.507304
0.508936
0.508936
0.507008
0.496181
0.483117
0.478163
0.463491
0.489754
0.524659
0.537461
0.538509
0.550836
0.56255
0.556393
0.54277
0.541554
0.531259
0.505998
0.468876
0.457129
0.477653
0.505263
0.510352
0.503359
0.508926
0.509755
0.50969
0.509521
0.508027
0.507205
0.508045
0.507408
0.503643
0.484045
0.481292
0.482611
0.465681
0.479759
0.513052
0.537025
0.543244
0.545195
0.556644
0.522667
0.517343
0.533321
0.512158
0.489263
0.46509
0.463359
0.498047
0.518163
0.514776
0.508885
0.5106
0.511041
0.511643
0.511131
0.509072
0.507055
0.505787
0.502434
0.494636
0.481293
0.481293
0.489
0.467931
0.469936
0.495242
0.520636
0.53864
0.537234
0.531557
0.431391
0.464012
0.497469
0.48642
0.478229
0.470584
0.489372
0.520539
0.523429
0.518741
0.515942
0.513759
0.513336
0.514034
0.513462
0.511298
0.508186
0.505541
0.500414
0.490474
0.481294
0.482964
0.497526
0.477203
0.469923
0.484352
0.498107
0.519153
0.502846
0.434959
0.423267
0.423237
0.445055
0.463777
0.479993
0.495682
0.522209
0.530611
0.526511
0.524874
0.523385
0.519552
0.517848
0.517728
0.517328
0.515704
0.512781
0.509287
0.504527
0.496054
0.488599
0.493916
0.506525
0.49448
0.474621
0.477626
0.476903
0.468046
0.429796
0.411665
0.42327
0.423292
0.433334
0.467667
0.501318
0.52725
0.534306
0.532284
0.529942
0.53075
0.529755
0.526963
0.524735
0.523711
0.523355
0.522635
0.521312
0.5194
0.51693
0.512686
0.509464
0.512975
0.515665
0.513038
0.49268
0.478017
0.458545
0.426443
0.411826
0.411813
0.423295
0.431029
0.457564
0.499841
0.530297
0.536115
0.534551
0.532546
0.532707
0.533229
0.533092
0.532438
0.531283
0.530399
0.530059
0.530093
0.530176
0.53024
0.530057
0.529268
0.52843
0.527952
0.524283
0.523863
0.515315
0.491848
0.463171
0.430689
0.413476
0.411814
0.429922
0.47316
0.508897
0.532735
0.537462
0.536118
0.533253
0.532903
0.533442
0.533616
0.533616
0.533616
0.533615
0.533614
0.533613
0.533613
0.533611
0.533611
0.533609
0.533608
0.533607
0.533337
0.530005
0.528123
0.526408
0.514152
0.487892
0.462942
0.443817
0.411829
0.476051
0.524027
0.537793
0.538314
0.537466
0.534534
0.533196
0.533198
0.533616
0.533616
0.533616
0.533616
0.533615
0.533614
0.533613
0.533611
0.53361
0.533608
0.533606
0.533606
0.533606
0.533606
0.532226
0.53033
0.529595
0.526748
0.516624
0.506364
0.49739
0.448419
0.527941
0.541589
0.540842
0.538314
0.536875
0.534143
0.533608
0.533614
0.533614
0.533612
0.533612
0.53361
0.532335
0.528737
0.525391
0.523313
0.523507
0.522351
0.518749
0.520821
0.526106
0.533195
0.53272
0.53246
0.532026
0.531684
0.529515
0.527154
0.527611
0.509207
0.541716
0.541716
0.53968
0.537724
0.537579
0.534756
0.533228
0.531547
0.527092
0.519421
0.513254
0.509466
0.507442
0.502474
0.498284
0.494508
0.489853
0.480789
0.470542
0.471822
0.48553
0.512103
0.527079
0.531989
0.533149