/*--------------------------------*- C++ -*----------------------------------*\
| =========                 |                                                 |
| \\      /  F ield         | OpenFOAM: The Open Source CFD Toolbox           |
|  \\    /   O peration     | Version:  v1606+                                |
|   \\  /    A nd           | Web:      www.OpenFOAM.com                      |
|    \\/     M anipulation  |                                                 |
\*---------------------------------------------------------------------------*/
FoamFile
{
    version     2.0;
    format      ascii;
    class       volVectorField;
    location    "0.54";
    object      U.airMean;
}
// * * * * * * * * * * * * * * * * * * * * * * * * * * * * * * * * * * * * * //

dimensions      [0 1 -1 0 0 0 0];

internalField   nonuniform List<vector> 
6000
(
(-0.0204687 0.280871 0)
(-0.00942559 0.240332 0)
(-0.000566408 0.250357 0)
(0.00830075 0.252058 0)
(0.0161608 0.25443 0)
(0.0220641 0.256191 0)
(0.027054 0.258773 0)
(0.0292741 0.259272 0)
(0.0287066 0.258722 0)
(0.0249086 0.256609 0)
(0.0201829 0.254599 0)
(0.0158344 0.253874 0)
(0.0113322 0.253445 0)
(0.00677327 0.253544 0)
(0.00175328 0.254426 0)
(-0.00338061 0.254242 0)
(-0.0081437 0.254057 0)
(-0.0126985 0.253483 0)
(-0.0167717 0.253689 0)
(-0.0215961 0.254615 0)
(-0.0263482 0.256813 0)
(-0.0296977 0.258779 0)
(-0.0299852 0.259704 0)
(-0.0273144 0.258888 0)
(-0.0222673 0.256042 0)
(-0.0163364 0.255132 0)
(-0.00818748 0.252688 0)
(0.00115423 0.250569 0)
(0.0101759 0.240635 0)
(0.0210625 0.281405 0)
(0.00721656 0.987552 0)
(-0.0058338 0.979547 0)
(-0.000564831 0.977673 0)
(0.000459629 0.974004 0)
(0.00845897 0.973972 0)
(0.0169038 0.971288 0)
(0.0265877 0.972417 0)
(0.0345603 0.975745 0)
(0.0397324 0.983308 0)
(0.0385303 0.990141 0)
(0.032977 0.99382 0)
(0.0263598 0.994185 0)
(0.0197102 0.995358 0)
(0.0120604 0.995806 0)
(0.00353299 0.996431 0)
(-0.00548374 0.995847 0)
(-0.0140424 0.995569 0)
(-0.0213268 0.994631 0)
(-0.0279407 0.994516 0)
(-0.034438 0.994095 0)
(-0.0396909 0.989394 0)
(-0.0407181 0.982534 0)
(-0.0356025 0.974806 0)
(-0.0270492 0.971713 0)
(-0.0170735 0.971531 0)
(-0.00835831 0.973048 0)
(0.000225654 0.973024 0)
(0.00181864 0.976891 0)
(0.00655797 0.980036 0)
(-0.00706979 0.988617 0)
(-0.0138553 0.829051 0)
(-0.0151672 0.777143 0)
(-0.0082744 0.785073 0)
(-0.00778084 0.775765 0)
(0.00393906 0.774192 0)
(0.0161497 0.772786 0)
(0.029042 0.778634 0)
(0.038632 0.783886 0)
(0.0448289 0.795121 0)
(0.0444093 0.805239 0)
(0.038773 0.810742 0)
(0.0304926 0.812915 0)
(0.0226949 0.815724 0)
(0.0148868 0.818933 0)
(0.00486906 0.821456 0)
(-0.00664242 0.821299 0)
(-0.0166804 0.81849 0)
(-0.0244972 0.815034 0)
(-0.0325185 0.812477 0)
(-0.0402015 0.810517 0)
(-0.0453231 0.804482 0)
(-0.04539 0.794669 0)
(-0.0391777 0.783282 0)
(-0.029125 0.777285 0)
(-0.0153099 0.772396 0)
(-0.00252901 0.773446 0)
(0.00925352 0.775026 0)
(0.00971401 0.784093 0)
(0.0161909 0.778705 0)
(0.0141108 0.83112 0)
(-0.000781158 0.868458 0)
(-0.00838706 0.816102 0)
(-0.0183442 0.824543 0)
(-0.0183308 0.807887 0)
(-0.00566378 0.801403 0)
(0.0108219 0.796555 0)
(0.0291422 0.802588 0)
(0.0436953 0.811712 0)
(0.0521666 0.829041 0)
(0.0536234 0.846217 0)
(0.0484666 0.856662 0)
(0.0378184 0.859487 0)
(0.025563 0.859728 0)
(0.0150804 0.86297 0)
(0.00458799 0.866722 0)
(-0.00657876 0.866623 0)
(-0.0170196 0.862436 0)
(-0.0276837 0.859454 0)
(-0.0399894 0.858944 0)
(-0.0498343 0.855597 0)
(-0.0542631 0.844664 0)
(-0.052279 0.827999 0)
(-0.0432064 0.810651 0)
(-0.0281867 0.800599 0)
(-0.00898194 0.795397 0)
(0.0083395 0.800107 0)
(0.0211176 0.807309 0)
(0.0206578 0.82453 0)
(0.00959613 0.81823 0)
(0.00101269 0.870717 0)
(-0.00351277 0.857869 0)
(-0.0227428 0.819149 0)
(-0.0357392 0.820511 0)
(-0.0348904 0.78906 0)
(-0.0218473 0.773942 0)
(-0.0034578 0.763967 0)
(0.0199413 0.768405 0)
(0.0427202 0.781218 0)
(0.0587214 0.803912 0)
(0.0648663 0.827464 0)
(0.0626279 0.845159 0)
(0.0515176 0.855695 0)
(0.0349465 0.857258 0)
(0.0189101 0.85899 0)
(0.00517593 0.86231 0)
(-0.00776199 0.862038 0)
(-0.021549 0.858398 0)
(-0.0374941 0.856762 0)
(-0.0533962 0.854469 0)
(-0.0634784 0.843269 0)
(-0.0650505 0.825534 0)
(-0.058249 0.802328 0)
(-0.0412279 0.77964 0)
(-0.0180074 0.766029 0)
(0.0057929 0.762193 0)
(0.0246013 0.772394 0)
(0.0377249 0.788598 0)
(0.038427 0.821057 0)
(0.0245217 0.822776 0)
(0.00407891 0.860864 0)
(-0.0132653 0.873816 0)
(-0.0450754 0.833047 0)
(-0.0564259 0.815761 0)
(-0.0591386 0.776889 0)
(-0.0501447 0.753189 0)
(-0.0280227 0.736626 0)
(0.00125307 0.736404 0)
(0.0325154 0.751543 0)
(0.0597973 0.782962 0)
(0.0755922 0.818301 0)
(0.0764441 0.845477 0)
(0.0650575 0.864958 0)
(0.0474267 0.870422 0)
(0.0269332 0.8714 0)
(0.00746471 0.872552 0)
(-0.0107263 0.872453 0)
(-0.0302138 0.870718 0)
(-0.0500266 0.869402 0)
(-0.0666366 0.862721 0)
(-0.076999 0.842939 0)
(-0.075258 0.815709 0)
(-0.0583198 0.780527 0)
(-0.0302676 0.749283 0)
(0.00103749 0.734 0)
(0.0301893 0.734754 0)
(0.0521533 0.751655 0)
(0.0607843 0.776341 0)
(0.0577524 0.81637 0)
(0.046576 0.8369 0)
(0.0138791 0.878144 0)
(-0.0169051 0.916203 0)
(-0.0551872 0.854221 0)
(-0.0787391 0.828914 0)
(-0.0965499 0.777521 0)
(-0.0915503 0.732432 0)
(-0.061365 0.702608 0)
(-0.0245331 0.697203 0)
(0.0130344 0.71146 0)
(0.0473003 0.746269 0)
(0.0764748 0.794907 0)
(0.0870527 0.839007 0)
(0.0769782 0.866253 0)
(0.0585536 0.877549 0)
(0.0358212 0.882071 0)
(0.010546 0.88203 0)
(-0.0144097 0.882071 0)
(-0.0393355 0.880889 0)
(-0.0609372 0.87556 0)
(-0.0785352 0.863187 0)
(-0.0874903 0.835814 0)
(-0.0753912 0.791094 0)
(-0.0448524 0.743442 0)
(-0.0102541 0.709286 0)
(0.0271636 0.695532 0)
(0.0635389 0.701421 0)
(0.0929415 0.731903 0)
(0.096954 0.777893 0)
(0.0783966 0.829864 0)
(0.0551243 0.858084 0)
(0.0173406 0.920858 0)
(-0.00589241 0.959113 0)
(-0.0553007 0.897498 0)
(-0.0977991 0.861019 0)
(-0.127329 0.786967 0)
(-0.121574 0.711677 0)
(-0.0902338 0.665995 0)
(-0.0497896 0.658354 0)
(-0.00985591 0.674932 0)
(0.0245548 0.709254 0)
(0.0622908 0.760132 0)
(0.08821 0.825648 0)
(0.086838 0.869433 0)
(0.0668908 0.887318 0)
(0.0430574 0.898257 0)
(0.013511 0.90023 0)
(-0.017779 0.900242 0)
(-0.0463821 0.89602 0)
(-0.0690009 0.884466 0)
(-0.0883575 0.865979 0)
(-0.0879433 0.821419 0)
(-0.0601617 0.755094 0)
(-0.0217146 0.706336 0)
(0.0128762 0.67302 0)
(0.0531558 0.657006 0)
(0.0931598 0.66556 0)
(0.123207 0.712032 0)
(0.127354 0.788072 0)
(0.0958644 0.862568 0)
(0.0529657 0.900619 0)
(0.00437981 0.964379 0)
(-0.00804053 0.996635 0)
(-0.0603839 0.951751 0)
(-0.115357 0.893944 0)
(-0.146061 0.788119 0)
(-0.141097 0.68825 0)
(-0.113717 0.629149 0)
(-0.077289 0.617468 0)
(-0.0343968 0.637577 0)
(0.0019568 0.673509 0)
(0.0386131 0.719034 0)
(0.073331 0.802789 0)
(0.0879997 0.871913 0)
(0.0696185 0.898792 0)
(0.0454832 0.916617 0)
(0.0150513 0.924047 0)
(-0.0194842 0.923707 0)
(-0.0482908 0.912897 0)
(-0.0717644 0.895437 0)
(-0.0891392 0.867569 0)
(-0.0719062 0.795763 0)
(-0.0362317 0.713645 0)
(0.000505155 0.670533 0)
(0.0376521 0.635338 0)
(0.0811808 0.615819 0)
(0.116756 0.629504 0)
(0.142547 0.689902 0)
(0.145837 0.790706 0)
(0.112042 0.897563 0)
(0.0552585 0.955292 0)
(0.00550679 0.998101 0)
(-0.0160166 1.039 0)
(-0.0718769 1.00248 0)
(-0.126965 0.926022 0)
(-0.157116 0.785819 0)
(-0.156547 0.668003 0)
(-0.136556 0.602303 0)
(-0.10388 0.578796 0)
(-0.0613878 0.596413 0)
(-0.0223546 0.638007 0)
(0.0117478 0.682178 0)
(0.0452446 0.760339 0)
(0.0758138 0.862184 0)
(0.0668828 0.907207 0)
(0.0426345 0.931501 0)
(0.014697 0.947402 0)
(-0.0189097 0.94639 0)
(-0.0454733 0.926163 0)
(-0.0698376 0.903609 0)
(-0.0761495 0.855911 0)
(-0.0434121 0.751761 0)
(-0.00961259 0.67766 0)
(0.0245883 0.634738 0)
(0.0639604 0.593404 0)
(0.106698 0.57773 0)
(0.139712 0.605338 0)
(0.158581 0.670756 0)
(0.157164 0.790392 0)
(0.123516 0.932023 0)
(0.066464 1.00614 0)
(0.0140109 1.03822 0)
(-0.0209628 1.0754 0)
(-0.0767229 1.04382 0)
(-0.132132 0.954147 0)
(-0.165577 0.781367 0)
(-0.17369 0.648521 0)
(-0.158157 0.572466 0)
(-0.12622 0.547124 0)
(-0.082809 0.556714 0)
(-0.0448504 0.601702 0)
(-0.0149994 0.653131 0)
(0.0138711 0.71931 0)
(0.0483713 0.840233 0)
(0.0579739 0.913411 0)
(0.0355227 0.943996 0)
(0.0122505 0.969472 0)
(-0.0154911 0.9674 0)
(-0.0387857 0.938088 0)
(-0.0613834 0.909466 0)
(-0.0478003 0.830965 0)
(-0.0119304 0.710463 0)
(0.0170295 0.648901 0)
(0.0465095 0.598253 0)
(0.0846227 0.554142 0)
(0.127451 0.545208 0)
(0.159845 0.572969 0)
(0.175257 0.651436 0)
(0.16503 0.788009 0)
(0.129051 0.963179 0)
(0.0723757 1.04667 0)
(0.0196208 1.07151 0)
(-0.0220325 1.11338 0)
(-0.0749482 1.08246 0)
(-0.128379 0.985384 0)
(-0.165822 0.783814 0)
(-0.183508 0.63288 0)
(-0.172357 0.5427 0)
(-0.140527 0.506307 0)
(-0.0987608 0.522842 0)
(-0.0631376 0.570281 0)
(-0.0409263 0.629589 0)
(-0.0192729 0.686633 0)
(0.0142916 0.805959 0)
(0.0408414 0.915409 0)
(0.026191 0.955331 0)
(0.00758145 0.988309 0)
(-0.00976411 0.9857 0)
(-0.0301061 0.950341 0)
(-0.0436871 0.909411 0)
(-0.0133055 0.792266 0)
(0.0207906 0.678733 0)
(0.0418806 0.625403 0)
(0.0639044 0.566901 0)
(0.100024 0.520341 0)
(0.141587 0.504532 0)
(0.173358 0.543204 0)
(0.183892 0.636568 0)
(0.164449 0.792752 0)
(0.125031 0.994025 0)
(0.072457 1.08435 0)
(0.0211397 1.10718 0)
(-0.021094 1.149 0)
(-0.0671003 1.11425 0)
(-0.113461 1.01209 0)
(-0.153956 0.790495 0)
(-0.178839 0.622779 0)
(-0.174846 0.516739 0)
(-0.150215 0.471631 0)
(-0.113357 0.490895 0)
(-0.0796645 0.545665 0)
(-0.0637962 0.61528 0)
(-0.0495241 0.665532 0)
(-0.0204194 0.766285 0)
(0.0161743 0.908786 0)
(0.0171956 0.967468 0)
(0.00180002 1.00183 0)
(-0.00355761 0.99938 0)
(-0.0213349 0.963339 0)
(-0.0166787 0.899001 0)
(0.0214608 0.751401 0)
(0.0504475 0.658862 0)
(0.063244 0.611098 0)
(0.0792697 0.5419 0)
(0.113568 0.487244 0)
(0.150537 0.469894 0)
(0.175127 0.517296 0)
(0.177988 0.626715 0)
(0.152016 0.801279 0)
(0.110466 1.02102 0)
(0.0657344 1.11534 0)
(0.0207951 1.14212 0)
(-0.0171044 1.18023 0)
(-0.0542854 1.13634 0)
(-0.0894763 1.03515 0)
(-0.131422 0.802529 0)
(-0.163767 0.618064 0)
(-0.170766 0.499439 0)
(-0.155146 0.444476 0)
(-0.12526 0.46101 0)
(-0.0957008 0.525518 0)
(-0.0825832 0.604744 0)
(-0.0766201 0.653476 0)
(-0.0515706 0.732463 0)
(-0.0127909 0.886563 0)
(0.0089064 0.976744 0)
(-0.00222498 1.00788 0)
(0.000237238 1.00613 0)
(-0.0119538 0.972345 0)
(0.0149608 0.873011 0)
(0.0531615 0.719096 0)
(0.0765836 0.647953 0)
(0.081354 0.600653 0)
(0.094519 0.521531 0)
(0.124075 0.456685 0)
(0.154166 0.442311 0)
(0.169838 0.500072 0)
(0.161372 0.622192 0)
(0.127507 0.814716 0)
(0.0855228 1.04188 0)
(0.0530341 1.13531 0)
(0.0172947 1.1725 0)
(-0.011478 1.19768 0)
(-0.040053 1.14726 0)
(-0.0575386 1.04764 0)
(-0.0995879 0.819952 0)
(-0.142581 0.620237 0)
(-0.162177 0.490787 0)
(-0.155755 0.424306 0)
(-0.134623 0.437825 0)
(-0.111058 0.512113 0)
(-0.0984195 0.598367 0)
(-0.0966809 0.650199 0)
(-0.0777786 0.709751 0)
(-0.0427195 0.856126 0)
(-0.00217666 0.981166 0)
(-0.00309635 1.01143 0)
(0.000796087 1.01009 0)
(0.00208553 0.974737 0)
(0.0449399 0.838648 0)
(0.0775848 0.699519 0)
(0.0941572 0.645176 0)
(0.0961665 0.593887 0)
(0.109557 0.509026 0)
(0.132903 0.433375 0)
(0.153783 0.421918 0)
(0.159866 0.491898 0)
(0.138045 0.624565 0)
(0.0946385 0.83234 0)
(0.053063 1.05117 0)
(0.0387451 1.144 0)
(0.011953 1.18957 0)
(-0.0077475 1.21063 0)
(-0.028354 1.14599 0)
(-0.0239084 1.04768 0)
(-0.0634517 0.843689 0)
(-0.111823 0.630338 0)
(-0.146427 0.490435 0)
(-0.152483 0.412884 0)
(-0.142267 0.422813 0)
(-0.124608 0.503576 0)
(-0.106984 0.590769 0)
(-0.101629 0.650085 0)
(-0.093218 0.700369 0)
(-0.0677412 0.822092 0)
(-0.0226218 0.975651 0)
(-0.00483732 1.01532 0)
(0.00262847 1.0134 0)
(0.0262591 0.966295 0)
(0.0693613 0.805727 0)
(0.092622 0.69355 0)
(0.0977932 0.6446 0)
(0.104283 0.585272 0)
(0.123149 0.499377 0)
(0.140241 0.41855 0)
(0.14933 0.410755 0)
(0.141754 0.4918 0)
(0.105706 0.635505 0)
(0.0587157 0.856151 0)
(0.0219564 1.04916 0)
(0.0279031 1.14144 0)
(0.00835481 1.20325 0)
(-0.00492346 1.221 0)
(-0.0159037 1.13318 0)
(0.00614917 1.03701 0)
(-0.0196226 0.870995 0)
(-0.0707616 0.651044 0)
(-0.116204 0.499557 0)
(-0.140922 0.412417 0)
(-0.145905 0.416772 0)
(-0.134135 0.494546 0)
(-0.109025 0.578201 0)
(-0.0945287 0.650714 0)
(-0.0976534 0.708117 0)
(-0.0859982 0.802085 0)
(-0.0515299 0.964652 0)
(-0.0116436 1.01723 0)
(0.00933574 1.0128 0)
(0.0555086 0.951802 0)
(0.0877618 0.790681 0)
(0.0955699 0.703064 0)
(0.0910278 0.644733 0)
(0.106813 0.571573 0)
(0.132778 0.490453 0)
(0.143302 0.413876 0)
(0.135721 0.412078 0)
(0.109036 0.500954 0)
(0.0622973 0.656002 0)
(0.0138962 0.877348 0)
(-0.00541854 1.0372 0)
(0.0170291 1.1285 0)
(0.00606084 1.21453 0)
(-0.00138557 1.22742 0)
(-0.00111391 1.11241 0)
(0.0344577 1.02424 0)
(0.0350829 0.887322 0)
(-0.00922434 0.683353 0)
(-0.070077 0.521013 0)
(-0.122641 0.430495 0)
(-0.146857 0.421407 0)
(-0.142541 0.485648 0)
(-0.111785 0.559059 0)
(-0.0840412 0.647261 0)
(-0.0862971 0.723509 0)
(-0.0921837 0.804625 0)
(-0.0700269 0.945562 0)
(-0.0173398 1.00427 0)
(0.0156686 0.998269 0)
(0.0703802 0.929037 0)
(0.0903831 0.797255 0)
(0.0823567 0.719022 0)
(0.0817681 0.640784 0)
(0.11106 0.551724 0)
(0.14151 0.480677 0)
(0.144357 0.42055 0)
(0.116216 0.433388 0)
(0.0586949 0.525979 0)
(-0.00252719 0.690226 0)
(-0.0403307 0.889048 0)
(-0.0314497 1.0226 0)
(0.0048981 1.10813 0)
(0.00332768 1.22279 0)
(0.00738278 1.23015 0)
(0.0186183 1.08343 0)
(0.0589063 1.00111 0)
(0.0848808 0.89088 0)
(0.0575041 0.730765 0)
(-0.00521814 0.573658 0)
(-0.0889502 0.469146 0)
(-0.142979 0.437185 0)
(-0.149328 0.475452 0)
(-0.119342 0.534975 0)
(-0.078578 0.632736 0)
(-0.0623529 0.733557 0)
(-0.0762527 0.815152 0)
(-0.0648553 0.915221 0)
(-0.0206824 0.98348 0)
(0.0211372 0.976139 0)
(0.0628882 0.899188 0)
(0.0721572 0.808643 0)
(0.0584662 0.727276 0)
(0.0779762 0.624279 0)
(0.120015 0.527482 0)
(0.149253 0.47096 0)
(0.141865 0.436478 0)
(0.0827308 0.476397 0)
(-0.00519543 0.580748 0)
(-0.0643239 0.734655 0)
(-0.0862074 0.887106 0)
(-0.0563352 0.99461 0)
(-0.0157931 1.08089 0)
(-0.00635814 1.22935 0)
(0.0256985 1.21182 0)
(0.0492378 1.05767 0)
(0.0817571 0.964011 0)
(0.0980552 0.875645 0)
(0.0830339 0.757743 0)
(0.0209512 0.627181 0)
(-0.0745655 0.530482 0)
(-0.151345 0.460516 0)
(-0.16012 0.459775 0)
(-0.130595 0.509744 0)
(-0.0888788 0.603439 0)
(-0.0546751 0.726297 0)
(-0.0517015 0.819284 0)
(-0.0516836 0.8937 0)
(-0.0212436 0.953082 0)
(0.0233675 0.944106 0)
(0.0492986 0.882829 0)
(0.0475181 0.811877 0)
(0.0541805 0.717842 0)
(0.0897719 0.594346 0)
(0.13184 0.501956 0)
(0.161489 0.454087 0)
(0.150555 0.463073 0)
(0.0741515 0.540413 0)
(-0.0213082 0.633503 0)
(-0.083593 0.753326 0)
(-0.0975194 0.865634 0)
(-0.0836742 0.955687 0)
(-0.05208 1.05455 0)
(-0.0268196 1.20965 0)
(0.0412082 1.16526 0)
(0.0779637 1.02788 0)
(0.0951616 0.94111 0)
(0.0831146 0.86621 0)
(0.0489097 0.773521 0)
(-0.0189669 0.686174 0)
(-0.102554 0.587655 0)
(-0.168802 0.488956 0)
(-0.187648 0.440802 0)
(-0.163491 0.478195 0)
(-0.123533 0.573022 0)
(-0.0773083 0.696231 0)
(-0.0469719 0.808231 0)
(-0.035907 0.871788 0)
(-0.0164522 0.909874 0)
(0.0165697 0.90363 0)
(0.0324707 0.863251 0)
(0.0452198 0.797642 0)
(0.0794564 0.685873 0)
(0.127024 0.564233 0)
(0.165442 0.468913 0)
(0.187178 0.435763 0)
(0.167761 0.489026 0)
(0.105626 0.591369 0)
(0.0290777 0.693025 0)
(-0.0379692 0.774854 0)
(-0.0756516 0.86145 0)
(-0.0939686 0.937531 0)
(-0.0799902 1.02108 0)
(-0.0421704 1.15961 0)
(0.0398182 1.09013 0)
(0.0670093 0.989723 0)
(0.0551134 0.942781 0)
(0.0222262 0.891296 0)
(-0.0258513 0.820163 0)
(-0.0809546 0.735879 0)
(-0.128338 0.61847 0)
(-0.170668 0.495081 0)
(-0.190805 0.422406 0)
(-0.180724 0.448752 0)
(-0.148063 0.537515 0)
(-0.103071 0.659779 0)
(-0.0567591 0.771971 0)
(-0.0284643 0.844806 0)
(-0.0109022 0.868842 0)
(0.00884918 0.865481 0)
(0.0253006 0.837016 0)
(0.0556393 0.760028 0)
(0.103403 0.64814 0)
(0.148417 0.528012 0)
(0.179745 0.442798 0)
(0.187386 0.418062 0)
(0.166899 0.493705 0)
(0.128012 0.617357 0)
(0.0877884 0.734688 0)
(0.0382201 0.818708 0)
(-0.0101172 0.889409 0)
(-0.0452981 0.945293 0)
(-0.0603689 0.985775 0)
(-0.0384005 1.08299 0)
(0.0255225 1.04753 0)
(0.0159962 1.00155 0)
(-0.0155835 0.963038 0)
(-0.0465248 0.905808 0)
(-0.0793466 0.837365 0)
(-0.0992818 0.748889 0)
(-0.115491 0.630553 0)
(-0.142902 0.503388 0)
(-0.167904 0.414301 0)
(-0.168931 0.424076 0)
(-0.147841 0.507332 0)
(-0.11055 0.624223 0)
(-0.0678117 0.736108 0)
(-0.0325828 0.814102 0)
(-0.0099161 0.839895 0)
(0.00745739 0.83778 0)
(0.0300298 0.80627 0)
(0.0658028 0.724784 0)
(0.1084 0.612969 0)
(0.144462 0.498149 0)
(0.164302 0.417115 0)
(0.161709 0.41132 0)
(0.13594 0.500869 0)
(0.111172 0.625953 0)
(0.0993203 0.742676 0)
(0.0846999 0.83282 0)
(0.0549803 0.901237 0)
(0.0269491 0.960943 0)
(-0.00449731 1.0041 0)
(-0.0216956 1.04998 0)
(0.00250098 1.03211 0)
(-0.0251561 1.01741 0)
(-0.052353 0.972677 0)
(-0.072853 0.918988 0)
(-0.082825 0.847561 0)
(-0.0783272 0.748956 0)
(-0.0789397 0.636705 0)
(-0.0971992 0.514352 0)
(-0.12568 0.419276 0)
(-0.138452 0.411456 0)
(-0.131766 0.484553 0)
(-0.106496 0.597116 0)
(-0.0730408 0.708617 0)
(-0.0390182 0.784438 0)
(-0.0120601 0.81336 0)
(0.010648 0.811448 0)
(0.0374481 0.77799 0)
(0.0708667 0.697782 0)
(0.103446 0.586822 0)
(0.127607 0.47655 0)
(0.132752 0.406297 0)
(0.118352 0.417682 0)
(0.0901358 0.512067 0)
(0.0737744 0.631092 0)
(0.0750026 0.741167 0)
(0.0823759 0.841497 0)
(0.0752441 0.915557 0)
(0.0569412 0.971356 0)
(0.0300513 1.02161 0)
(0.00185104 1.03806 0)
(-0.0110228 1.04158 0)
(-0.0319385 1.04673 0)
(-0.0595884 0.990745 0)
(-0.0649312 0.92801 0)
(-0.0532171 0.842781 0)
(-0.0383134 0.743108 0)
(-0.0354655 0.642434 0)
(-0.0507582 0.531152 0)
(-0.0805637 0.435914 0)
(-0.100809 0.413274 0)
(-0.104431 0.477634 0)
(-0.0912811 0.579058 0)
(-0.0664754 0.688271 0)
(-0.037922 0.762022 0)
(-0.0123532 0.792699 0)
(0.0116154 0.79058 0)
(0.0373097 0.756493 0)
(0.0650633 0.678766 0)
(0.0885035 0.569352 0)
(0.100563 0.471158 0)
(0.0954197 0.409784 0)
(0.0737847 0.434874 0)
(0.0447087 0.528259 0)
(0.0306052 0.636019 0)
(0.033871 0.734558 0)
(0.0493635 0.833638 0)
(0.0635325 0.922809 0)
(0.0602492 0.988887 0)
(0.0340015 1.05213 0)
(0.0130333 1.05436 0)
(-0.0170088 1.06773 0)
(-0.035216 1.07571 0)
(-0.0487868 1.00131 0)
(-0.0313429 0.922168 0)
(-0.00816304 0.827562 0)
(0.00419895 0.739208 0)
(0.00492163 0.648704 0)
(-0.010109 0.548712 0)
(-0.0400162 0.457256 0)
(-0.0662161 0.42372 0)
(-0.0757397 0.478871 0)
(-0.0702389 0.570035 0)
(-0.0544051 0.673403 0)
(-0.032468 0.745142 0)
(-0.0109425 0.774663 0)
(0.01032 0.772535 0)
(0.031872 0.73966 0)
(0.053196 0.664584 0)
(0.0676054 0.561516 0)
(0.0718397 0.47285 0)
(0.0610472 0.42147 0)
(0.0340426 0.456468 0)
(0.00520686 0.545063 0)
(-0.00910251 0.641789 0)
(-0.00852422 0.730554 0)
(0.00358026 0.81842 0)
(0.0269317 0.914522 0)
(0.0465866 0.998013 0)
(0.0347519 1.07975 0)
(0.0175985 1.08096 0)
(-0.0252245 1.09712 0)
(-0.0291737 1.0879 0)
(-0.0172297 0.992653 0)
(0.0134286 0.903809 0)
(0.0323174 0.81994 0)
(0.0406833 0.738912 0)
(0.0379792 0.656368 0)
(0.0224697 0.566774 0)
(-0.00696107 0.482075 0)
(-0.0371208 0.440818 0)
(-0.0514348 0.482165 0)
(-0.0514013 0.567297 0)
(-0.0431089 0.664373 0)
(-0.0266806 0.732221 0)
(-0.00916504 0.759465 0)
(0.00847457 0.757495 0)
(0.0258906 0.727071 0)
(0.0417638 0.65625 0)
(0.0489471 0.559787 0)
(0.0478369 0.477365 0)
(0.032352 0.439724 0)
(0.00198311 0.481015 0)
(-0.0264149 0.562669 0)
(-0.041414 0.649487 0)
(-0.0444208 0.730394 0)
(-0.0365843 0.811175 0)
(-0.0179023 0.896295 0)
(0.0126125 0.988149 0)
(0.027293 1.09007 0)
(0.0260001 1.11066 0)
(-0.027557 1.13218 0)
(-0.0122714 1.07548 0)
(0.0230701 0.975449 0)
(0.0472341 0.893435 0)
(0.0633384 0.814988 0)
(0.0688245 0.74019 0)
(0.0641045 0.665685 0)
(0.0478848 0.586091 0)
(0.019184 0.507957 0)
(-0.0137867 0.462879 0)
(-0.0331916 0.490439 0)
(-0.038645 0.569918 0)
(-0.0351749 0.659492 0)
(-0.022251 0.722469 0)
(-0.00772113 0.747045 0)
(0.00691333 0.745255 0)
(0.021309 0.717624 0)
(0.0337347 0.65188 0)
(0.0363368 0.563101 0)
(0.0299528 0.486648 0)
(0.00956711 0.462113 0)
(-0.0231108 0.506479 0)
(-0.0509364 0.581468 0)
(-0.0668916 0.658724 0)
(-0.0717455 0.731912 0)
(-0.0667235 0.806405 0)
(-0.0510471 0.885947 0)
(-0.0272373 0.970889 0)
(0.00946807 1.0745 0)
(0.0263244 1.14554 0)
(-0.0118119 1.15912 0)
(0.00907634 1.04746 0)
(0.0497379 0.962077 0)
(0.071072 0.883087 0)
(0.0857575 0.809927 0)
(0.0902649 0.742483 0)
(0.0843873 0.676082 0)
(0.0671285 0.605842 0)
(0.0379428 0.535235 0)
(0.00269343 0.488464 0)
(-0.021487 0.503014 0)
(-0.0310036 0.575553 0)
(-0.0298335 0.656449 0)
(-0.0187435 0.714748 0)
(-0.00644971 0.737055 0)
(0.00563256 0.735466 0)
(0.0177463 0.710131 0)
(0.0282219 0.649265 0)
(0.028866 0.569444 0)
(0.0188699 0.500133 0)
(-0.00612379 0.487963 0)
(-0.0409613 0.533337 0)
(-0.0695553 0.601112 0)
(-0.0866117 0.669179 0)
(-0.0926333 0.734392 0)
(-0.0884428 0.801629 0)
(-0.0740727 0.875651 0)
(-0.052714 0.957256 0)
(-0.0114677 1.04682 0)
(0.00946498 1.16988 0)
(0.00372484 1.16573 0)
(0.0228223 1.02652 0)
(0.0642671 0.944804 0)
(0.0874598 0.87059 0)
(0.102938 0.804244 0)
(0.106907 0.745103 0)
(0.0993533 0.687538 0)
(0.0798052 0.626913 0)
(0.0489154 0.56336 0)
(0.0109643 0.516653 0)
(-0.0174362 0.518465 0)
(-0.0276661 0.583515 0)
(-0.0253557 0.653847 0)
(-0.0156618 0.708314 0)
(-0.00527244 0.729205 0)
(0.00449198 0.727788 0)
(0.014684 0.704033 0)
(0.0235985 0.647177 0)
(0.0252672 0.57694 0)
(0.0149364 0.516126 0)
(-0.0138062 0.515973 0)
(-0.0512225 0.561168 0)
(-0.0817374 0.621826 0)
(-0.101146 0.680619 0)
(-0.10876 0.737227 0)
(-0.105042 0.796122 0)
(-0.089752 0.863026 0)
(-0.0664022 0.939278 0)
(-0.0246548 1.02584 0)
(-0.0053061 1.17476 0)
(0.0110608 1.16537 0)
(0.0313239 1.00272 0)
(0.0743238 0.922445 0)
(0.100533 0.855287 0)
(0.116731 0.798016 0)
(0.119063 0.748673 0)
(0.108239 0.700514 0)
(0.0845293 0.648566 0)
(0.0505836 0.591168 0)
(0.0108648 0.54579 0)
(-0.0181914 0.534312 0)
(-0.0249395 0.585249 0)
(-0.0208307 0.651124 0)
(-0.0126816 0.70309 0)
(-0.00410958 0.72345 0)
(0.00348614 0.722152 0)
(0.0118986 0.699166 0)
(0.0192321 0.64524 0)
(0.0224871 0.579186 0)
(0.0156607 0.532176 0)
(-0.0130429 0.544852 0)
(-0.0522097 0.58868 0)
(-0.0858431 0.643368 0)
(-0.109498 0.693574 0)
(-0.120407 0.740895 0)
(-0.118246 0.790103 0)
(-0.102302 0.847824 0)
(-0.0760809 0.916627 0)
(-0.0328894 1.00155 0)
(-0.011884 1.17308 0)
(0.0155062 1.15505 0)
(0.0399537 0.976302 0)
(0.0848448 0.897281 0)
(0.112621 0.838583 0)
(0.127409 0.79239 0)
(0.12554 0.753949 0)
(0.108755 0.715128 0)
(0.0792373 0.671159 0)
(0.0432505 0.618143 0)
(0.00664682 0.572222 0)
(-0.0167318 0.546333 0)
(-0.0208848 0.584347 0)
(-0.0165171 0.648656 0)
(-0.00985848 0.698973 0)
(-0.0029867 0.719426 0)
(0.00266057 0.71818 0)
(0.00934698 0.695267 0)
(0.0149321 0.643506 0)
(0.0181524 0.578705 0)
(0.0139519 0.543914 0)
(-0.00853335 0.570588 0)
(-0.044112 0.615301 0)
(-0.079647 0.665671 0)
(-0.109211 0.708207 0)
(-0.126128 0.746203 0)
(-0.128278 0.784647 0)
(-0.113954 0.831332 0)
(-0.0865471 0.891422 0)
(-0.0416957 0.974557 0)
(-0.0161687 1.16136 0)
(0.0208525 1.13525 0)
(0.0517684 0.946333 0)
(0.0979603 0.870183 0)
(0.123799 0.82196 0)
(0.133042 0.789116 0)
(0.123499 0.762556 0)
(0.0982477 0.732847 0)
(0.0648155 0.694294 0)
(0.0326055 0.641264 0)
(0.0058965 0.591256 0)
(-0.0102467 0.555381 0)
(-0.0144443 0.583454 0)
(-0.0111603 0.647707 0)
(-0.00642831 0.696304 0)
(-0.00171766 0.717188 0)
(0.00172744 0.716133 0)
(0.00575493 0.693087 0)
(0.00970991 0.645032 0)
(0.0122506 0.578516 0)
(0.00766075 0.552753 0)
(-0.00765998 0.588704 0)
(-0.0330135 0.637614 0)
(-0.0643599 0.688689 0)
(-0.09762 0.725872 0)
(-0.123164 0.75499 0)
(-0.133207 0.781755 0)
(-0.12464 0.815247 0)
(-0.0995374 0.864685 0)
(-0.0539244 0.944413 0)
(-0.0219141 1.14021 0)
(0.0304363 1.10508 0)
(0.0690019 0.91422 0)
(0.112309 0.843797 0)
(0.131348 0.809317 0)
(0.130821 0.790842 0)
(0.110567 0.776553 0)
(0.0783197 0.753871 0)
(0.0480437 0.714861 0)
(0.0266982 0.657493 0)
(0.0115964 0.602832 0)
(0.000375996 0.564285 0)
(-0.00613188 0.584025 0)
(-0.00471521 0.64794 0)
(-0.00193154 0.695685 0)
(-0.000119969 0.717074 0)
(0.000973475 0.716334 0)
(0.00170389 0.693253 0)
(0.00376335 0.643875 0)
(0.00446828 0.580022 0)
(-0.00253889 0.561386 0)
(-0.0130085 0.599667 0)
(-0.027163 0.652694 0)
(-0.0472044 0.708597 0)
(-0.0768725 0.74692 0)
(-0.109198 0.769257 0)
(-0.13022 0.783972 0)
(-0.131467 0.80326 0)
(-0.113386 0.839013 0)
(-0.0712252 0.91246 0)
(-0.0320054 1.10817 0)
(0.0437717 1.05888 0)
(0.088788 0.881315 0)
(0.123493 0.821932 0)
(0.131683 0.803668 0)
(0.117869 0.800898 0)
(0.087734 0.796824 0)
(0.0572651 0.774433 0)
(0.0378474 0.728622 0)
(0.0282958 0.666278 0)
(0.0218189 0.611059 0)
(0.0123927 0.574868 0)
(0.0030559 0.588366 0)
(0.00158477 0.647773 0)
(0.0021665 0.697492 0)
(0.0013597 0.718842 0)
(0.000797725 0.718472 0)
(-0.000923257 0.696053 0)
(-0.00162262 0.644785 0)
(-0.00421274 0.585326 0)
(-0.0139462 0.571536 0)
(-0.0227949 0.607643 0)
(-0.0287469 0.660717 0)
(-0.0372329 0.721516 0)
(-0.0555682 0.767037 0)
(-0.085818 0.789993 0)
(-0.116473 0.794495 0)
(-0.131044 0.798299 0)
(-0.12363 0.818143 0)
(-0.0900695 0.880056 0)
(-0.0448489 1.06019 0)
(0.055363 0.99453 0)
(0.101562 0.850735 0)
(0.125426 0.808046 0)
(0.120855 0.808695 0)
(0.094669 0.820185 0)
(0.0634587 0.818128 0)
(0.0434841 0.788524 0)
(0.036302 0.73571 0)
(0.0359667 0.671332 0)
(0.0329869 0.618731 0)
(0.0238324 0.587284 0)
(0.0127523 0.596392 0)
(0.00769729 0.650308 0)
(0.00544995 0.701794 0)
(0.00259059 0.722076 0)
(0.00106001 0.721865 0)
(-0.00249401 0.701089 0)
(-0.00629782 0.648777 0)
(-0.0127914 0.594186 0)
(-0.0246865 0.583743 0)
(-0.0336755 0.615074 0)
(-0.0365429 0.665139 0)
(-0.0361817 0.727733 0)
(-0.0423785 0.7804 0)
(-0.0616127 0.811357 0)
(-0.0928466 0.814251 0)
(-0.119451 0.803909 0)
(-0.124604 0.804911 0)
(-0.101106 0.849912 0)
(-0.0553407 0.995044 0)
(0.056753 0.921018 0)
(0.100242 0.825325 0)
(0.114754 0.804188 0)
(0.0976759 0.823922 0)
(0.067625 0.843432 0)
(0.0452321 0.834748 0)
(0.0378979 0.795347 0)
(0.0416402 0.737499 0)
(0.0462124 0.674676 0)
(0.0433044 0.627697 0)
(0.0339987 0.600461 0)
(0.0216459 0.607776 0)
(0.013411 0.655823 0)
(0.00883802 0.708384 0)
(0.00437704 0.726678 0)
(0.00133517 0.726726 0)
(-0.00401764 0.70852 0)
(-0.0103933 0.655734 0)
(-0.0200751 0.606685 0)
(-0.0336855 0.59744 0)
(-0.0433728 0.624065 0)
(-0.0465843 0.668412 0)
(-0.0422277 0.728947 0)
(-0.0376934 0.786391 0)
(-0.0441472 0.827546 0)
(-0.0658342 0.837333 0)
(-0.0958174 0.819655 0)
(-0.113139 0.801144 0)
(-0.0986235 0.824659 0)
(-0.0556864 0.922683 0)
(0.0474588 0.852188 0)
(0.0868569 0.804895 0)
(0.0902998 0.80864 0)
(0.068651 0.846346 0)
(0.0444913 0.860509 0)
(0.0360735 0.843296 0)
(0.040458 0.795908 0)
(0.0512409 0.736271 0)
(0.0570664 0.679401 0)
(0.0532654 0.63823 0)
(0.0431321 0.614745 0)
(0.0290473 0.62165 0)
(0.0177282 0.663882 0)
(0.0115221 0.716246 0)
(0.00599695 0.732844 0)
(0.000633872 0.733033 0)
(-0.00550476 0.717861 0)
(-0.0131548 0.665411 0)
(-0.025669 0.621712 0)
(-0.0411212 0.612699 0)
(-0.0519497 0.634914 0)
(-0.0564497 0.673637 0)
(-0.051554 0.727747 0)
(-0.0407305 0.786299 0)
(-0.0353872 0.835458 0)
(-0.0431123 0.854296 0)
(-0.0670946 0.842409 0)
(-0.088656 0.80589 0)
(-0.0849601 0.804306 0)
(-0.0462197 0.855345 0)
(0.0323192 0.797651 0)
(0.0637019 0.792662 0)
(0.0571461 0.818685 0)
(0.0397735 0.866594 0)
(0.0300752 0.871829 0)
(0.0368636 0.845891 0)
(0.0510713 0.791293 0)
(0.0654403 0.733861 0)
(0.0692603 0.685276 0)
(0.0631919 0.650184 0)
(0.0506762 0.630716 0)
(0.0344072 0.638094 0)
(0.0206807 0.674679 0)
(0.0134444 0.722505 0)
(0.00735863 0.740502 0)
(-0.000488637 0.740651 0)
(-0.0069198 0.724786 0)
(-0.0150381 0.676985 0)
(-0.0295192 0.639159 0)
(-0.0468686 0.629687 0)
(-0.0600859 0.647478 0)
(-0.06694 0.680417 0)
(-0.0642302 0.726176 0)
(-0.050572 0.781577 0)
(-0.0358159 0.83742 0)
(-0.0291003 0.865677 0)
(-0.0405229 0.862401 0)
(-0.0569132 0.815615 0)
(-0.0622612 0.791819 0)
(-0.0312936 0.802663 0)
(0.0195015 0.760576 0)
(0.0374376 0.791748 0)
(0.0246975 0.832424 0)
(0.0252255 0.878991 0)
(0.0355133 0.871648 0)
(0.0541554 0.840015 0)
(0.0715949 0.784963 0)
(0.0833666 0.734752 0)
(0.0825504 0.694516 0)
(0.072235 0.665093 0)
(0.0559428 0.649176 0)
(0.0374187 0.65615 0)
(0.0220889 0.686933 0)
(0.0136568 0.729083 0)
(0.00750269 0.749795 0)
(-0.000600207 0.749495 0)
(-0.00701639 0.731696 0)
(-0.0157575 0.689618 0)
(-0.0315153 0.65774 0)
(-0.0507383 0.648741 0)
(-0.0674604 0.66288 0)
(-0.0784751 0.690244 0)
(-0.0801692 0.727865 0)
(-0.0690514 0.775454 0)
(-0.0515717 0.830718 0)
(-0.0329993 0.866821 0)
(-0.0243175 0.876247 0)
(-0.0258074 0.827633 0)
(-0.0364576 0.790325 0)
(-0.018762 0.766969 0)
(0.00736224 0.739803 0)
(0.0156129 0.796313 0)
(0.010667 0.835574 0)
(0.0320191 0.874405 0)
(0.0542215 0.863759 0)
(0.0773984 0.8341 0)
(0.0929643 0.782553 0)
(0.0993885 0.739849 0)
(0.0931878 0.707476 0)
(0.0777943 0.683697 0)
(0.0574614 0.670172 0)
(0.0371018 0.675301 0)
(0.0210762 0.700382 0)
(0.0119807 0.736399 0)
(0.00644346 0.757562 0)
(1.77223e-05 0.75777 0)
(-0.00561697 0.738923 0)
(-0.0144279 0.702885 0)
(-0.0303784 0.677091 0)
(-0.0511231 0.669833 0)
(-0.0717603 0.681784 0)
(-0.0879593 0.703481 0)
(-0.0951053 0.733241 0)
(-0.0895451 0.772974 0)
(-0.0742215 0.824628 0)
(-0.0510066 0.859194 0)
(-0.0292058 0.873335 0)
(-0.00937329 0.833191 0)
(-0.0160612 0.793593 0)
(-0.00704848 0.747202 0)
(-0.00118114 0.7362 0)
(0.00536951 0.796725 0)
(0.0206647 0.82487 0)
(0.0478262 0.860046 0)
(0.0722431 0.852284 0)
(0.095626 0.82721 0)
(0.109077 0.783491 0)
(0.110142 0.749079 0)
(0.0984856 0.72439 0)
(0.0782398 0.705259 0)
(0.0546779 0.692708 0)
(0.0338414 0.694633 0)
(0.0185682 0.714103 0)
(0.00995066 0.744092 0)
(0.00497026 0.764226 0)
(0.000131228 0.764373 0)
(-0.00451223 0.746084 0)
(-0.0123338 0.715935 0)
(-0.0268151 0.696192 0)
(-0.0475299 0.692209 0)
(-0.071358 0.703713 0)
(-0.0926395 0.720808 0)
(-0.105549 0.743033 0)
(-0.105895 0.774312 0)
(-0.0935333 0.817549 0)
(-0.0698386 0.847475 0)
(-0.044594 0.859387 0)