/*--------------------------------*- C++ -*----------------------------------*\
| =========                 |                                                 |
| \\      /  F ield         | OpenFOAM: The Open Source CFD Toolbox           |
|  \\    /   O peration     | Version:  v1606+                                |
|   \\  /    A nd           | Web:      www.OpenFOAM.com                      |
|    \\/     M anipulation  |                                                 |
\*---------------------------------------------------------------------------*/
FoamFile
{
    version     2.0;
    format      ascii;
    class       volVectorField;
    location    "0.54";
    object      U.particlesMean;
}
// * * * * * * * * * * * * * * * * * * * * * * * * * * * * * * * * * * * * * //

dimensions      [0 1 -1 0 0 0 0];

internalField   nonuniform List<vector> 
6000
(
(-0.00769362 -0.332863 0)
(-0.00470985 -0.37078 0)
(-0.0017557 -0.367349 0)
(0.000909328 -0.367685 0)
(0.00437867 -0.368976 0)
(0.00770569 -0.369272 0)
(0.0116238 -0.371136 0)
(0.0142863 -0.375054 0)
(0.0155828 -0.381213 0)
(0.0149069 -0.38744 0)
(0.0133618 -0.391055 0)
(0.0114575 -0.392473 0)
(0.00868524 -0.395071 0)
(0.00546216 -0.396555 0)
(0.00158726 -0.397439 0)
(-0.00250698 -0.396747 0)
(-0.00609487 -0.395615 0)
(-0.00920697 -0.394104 0)
(-0.0115571 -0.393 0)
(-0.0138946 -0.391636 0)
(-0.0156081 -0.386719 0)
(-0.0160064 -0.380016 0)
(-0.0145112 -0.373762 0)
(-0.0114621 -0.370196 0)
(-0.00755657 -0.369751 0)
(-0.00430047 -0.367988 0)
(-0.000698622 -0.366308 0)
(0.00226613 -0.366179 0)
(0.00561784 -0.369789 0)
(0.00837352 -0.334551 0)
(0.0138779 0.0240555 0)
(0.000837819 0.053065 0)
(-0.00054457 0.0488791 0)
(-0.00454094 0.0463539 0)
(-0.00204463 0.0417911 0)
(0.00197097 0.0380814 0)
(0.00771066 0.0347619 0)
(0.0128477 0.0340741 0)
(0.017338 0.0352165 0)
(0.0188847 0.0375052 0)
(0.0181611 0.0390225 0)
(0.0158306 0.0387198 0)
(0.0121062 0.0384459 0)
(0.00739766 0.0369413 0)
(0.00222076 0.0364897 0)
(-0.00313567 0.0361738 0)
(-0.00823063 0.036991 0)
(-0.0126364 0.0379616 0)
(-0.0162961 0.039118 0)
(-0.0185311 0.0391647 0)
(-0.0191032 0.0369158 0)
(-0.0174951 0.0349259 0)
(-0.0131639 0.033557 0)
(-0.00775904 0.034615 0)
(-0.00185507 0.0383325 0)
(0.00225396 0.041131 0)
(0.0050975 0.0455677 0)
(0.00148424 0.0485997 0)
(-0.000108003 0.0530813 0)
(-0.0134827 0.0233363 0)
(-0.00593693 -0.0320974 0)
(-0.00543815 -0.0349164 0)
(-0.00332976 -0.0344788 0)
(-0.00682784 -0.0385603 0)
(-0.0021379 -0.0443524 0)
(0.00296628 -0.0458563 0)
(0.00954887 -0.0448419 0)
(0.0149256 -0.0439749 0)
(0.0193421 -0.0406227 0)
(0.0207642 -0.0367792 0)
(0.0198386 -0.0347836 0)
(0.0167748 -0.0323108 0)
(0.012665 -0.0299446 0)
(0.00801996 -0.0288702 0)
(0.0025944 -0.0279429 0)
(-0.00337941 -0.0283078 0)
(-0.00873056 -0.0291733 0)
(-0.0132658 -0.0308364 0)
(-0.0174537 -0.0325467 0)
(-0.0200586 -0.0346096 0)
(-0.0207552 -0.0369229 0)
(-0.0192741 -0.0405989 0)
(-0.0149946 -0.0441551 0)
(-0.00949431 -0.0456038 0)
(-0.00248959 -0.0460255 0)
(0.00292691 -0.0446461 0)
(0.00764972 -0.0392426 0)
(0.00428843 -0.0351901 0)
(0.00615651 -0.0343672 0)
(0.00607409 -0.031033 0)
(-0.00206486 -0.0219204 0)
(-0.00647434 -0.0332298 0)
(-0.009206 -0.0315173 0)
(-0.0113003 -0.0353192 0)
(-0.00658522 -0.0420122 0)
(0.00163415 -0.0459563 0)
(0.012023 -0.0448612 0)
(0.0206077 -0.0402578 0)
(0.0260451 -0.0324706 0)
(0.027109 -0.0240042 0)
(0.0240511 -0.0186148 0)
(0.0185842 -0.016406 0)
(0.0124743 -0.0156523 0)
(0.00725311 -0.0152177 0)
(0.00224859 -0.0145773 0)
(-0.00300057 -0.0146844 0)
(-0.00789014 -0.0155487 0)
(-0.0130517 -0.0161499 0)
(-0.019138 -0.0167976 0)
(-0.0241709 -0.0189968 0)
(-0.0269218 -0.0244584 0)
(-0.0256752 -0.0327704 0)
(-0.0200522 -0.0406697 0)
(-0.011429 -0.0458522 0)
(-0.00073894 -0.0467549 0)
(0.00780973 -0.0428245 0)
(0.0125126 -0.0360296 0)
(0.0103491 -0.031959 0)
(0.00717312 -0.0325111 0)
(0.00219076 -0.0211791 0)
(-0.00228727 -0.0211858 0)
(-0.0129107 -0.0330732 0)
(-0.0181793 -0.0330496 0)
(-0.0205254 -0.0489285 0)
(-0.0133076 -0.0630588 0)
(-0.00250806 -0.0710038 0)
(0.0101276 -0.070009 0)
(0.0216419 -0.0635254 0)
(0.0303433 -0.0523978 0)
(0.0342655 -0.0399158 0)
(0.0333653 -0.0297368 0)
(0.0263317 -0.0236667 0)
(0.0169374 -0.0224036 0)
(0.00872812 -0.0231581 0)
(0.00245455 -0.0235664 0)
(-0.0032143 -0.0237027 0)
(-0.00944697 -0.0235076 0)
(-0.017559 -0.0228965 0)
(-0.0266935 -0.0241263 0)
(-0.0333254 -0.0301816 0)
(-0.0338957 -0.0403747 0)
(-0.0297575 -0.0526617 0)
(-0.0206942 -0.0637227 0)
(-0.00915389 -0.0707385 0)
(0.00359128 -0.0717611 0)
(0.0144096 -0.0638357 0)
(0.0216204 -0.0498169 0)
(0.0193993 -0.0338351 0)
(0.0138901 -0.0320372 0)
(0.00267422 -0.0199214 0)
(-0.00174986 -0.00935438 0)
(-0.0216845 -0.017606 0)
(-0.0301585 -0.0313659 0)
(-0.0298853 -0.0552791 0)
(-0.0219793 -0.0728826 0)
(-0.00884169 -0.0828972 0)
(0.00603998 -0.0818748 0)
(0.0197881 -0.0737275 0)
(0.0315359 -0.0600727 0)
(0.0394939 -0.0460686 0)
(0.0426283 -0.0334246 0)
(0.0366917 -0.0233305 0)
(0.0251633 -0.0204508 0)
(0.0133899 -0.0216906 0)
(0.00383434 -0.0233326 0)
(-0.00463786 -0.0233377 0)
(-0.0142483 -0.0218566 0)
(-0.025865 -0.0207943 0)
(-0.0371422 -0.0238295 0)
(-0.0423897 -0.0340072 0)
(-0.0390067 -0.0465334 0)
(-0.03073 -0.0603917 0)
(-0.0187513 -0.0740296 0)
(-0.00500838 -0.0827258 0)
(0.00997745 -0.0836426 0)
(0.023055 -0.073613 0)
(0.0308264 -0.0559916 0)
(0.0308836 -0.0319232 0)
(0.022329 -0.0162224 0)
(0.00185975 -0.00753759 0)
(-0.0048573 0.0127989 0)
(-0.030361 -0.00777935 0)
(-0.0386775 -0.0327471 0)
(-0.037724 -0.0590103 0)
(-0.031102 -0.0798862 0)
(-0.0172067 -0.092807 0)
(-0.000967357 -0.0944443 0)
(0.0164018 -0.0855644 0)
(0.0304641 -0.0682005 0)
(0.0415049 -0.0497924 0)
(0.0472033 -0.0323534 0)
(0.0441797 -0.0171112 0)
(0.0325048 -0.0118335 0)
(0.0182754 -0.0129012 0)
(0.00542775 -0.0155398 0)
(-0.00631351 -0.0154511 0)
(-0.0192351 -0.0129892 0)
(-0.0334001 -0.0123093 0)
(-0.0447325 -0.0183408 0)
(-0.0468765 -0.0333265 0)
(-0.0410341 -0.0506461 0)
(-0.0295507 -0.0689621 0)
(-0.0152023 -0.0862898 0)
(0.00222839 -0.0951386 0)
(0.0183342 -0.0932643 0)
(0.0319794 -0.0800659 0)
(0.0383644 -0.0587485 0)
(0.0390069 -0.032248 0)
(0.0302616 -0.00542687 0)
(0.00476089 0.0148517 0)
(0.000653246 0.0268584 0)
(-0.0298491 0.00310946 0)
(-0.0364737 -0.0256332 0)
(-0.0358357 -0.0557534 0)
(-0.0309502 -0.0816174 0)
(-0.0217929 -0.0975587 0)
(-0.00839658 -0.10228 0)
(0.0085889 -0.0947041 0)
(0.0227763 -0.0757711 0)
(0.0364766 -0.0549198 0)
(0.0443244 -0.0351404 0)
(0.04734 -0.0172941 0)
(0.0373594 -0.00792929 0)
(0.0221206 -0.00689643 0)
(0.00672729 -0.00918131 0)
(-0.0076505 -0.00901352 0)
(-0.0230846 -0.00698366 0)
(-0.0382496 -0.0085875 0)
(-0.0475282 -0.0188438 0)
(-0.0436817 -0.03632 0)
(-0.0357925 -0.0560034 0)
(-0.0217988 -0.0768011 0)
(-0.0074827 -0.0955146 0)
(0.00963774 -0.102866 0)
(0.0230089 -0.0981506 0)
(0.0319817 -0.0820354 0)
(0.0366053 -0.0554169 0)
(0.0366143 -0.0247348 0)
(0.0297085 0.0052645 0)
(-0.00138832 0.0314031 0)
(-0.000923812 0.0278996 0)
(-0.0245185 0.0149311 0)
(-0.0298907 -0.0163352 0)
(-0.0298846 -0.0516117 0)
(-0.0292194 -0.0816353 0)
(-0.0219086 -0.102462 0)
(-0.0138682 -0.108539 0)
(0.000518771 -0.100546 0)
(0.0145414 -0.0813984 0)
(0.0280798 -0.057237 0)
(0.034663 -0.033248 0)
(0.0421914 -0.0124216 0)
(0.0361926 0.00112025 0)
(0.0222174 0.00447328 0)
(0.00682194 0.00316466 0)
(-0.00785482 0.00333733 0)
(-0.0231184 0.00435675 0)
(-0.0371021 7.95932e-05 0)
(-0.0419562 -0.0142274 0)
(-0.0340351 -0.0345744 0)
(-0.0274241 -0.0586526 0)
(-0.0136812 -0.0825246 0)
(0.00057142 -0.101337 0)
(0.0148568 -0.109706 0)
(0.0225431 -0.102927 0)
(0.0295507 -0.0814628 0)
(0.0300697 -0.0507634 0)
(0.0295085 -0.0148985 0)
(0.024093 0.0169361 0)
(0.000746369 0.030429 0)
(0.000836737 0.0384028 0)
(-0.016441 0.0299477 0)
(-0.0206655 -0.0033023 0)
(-0.0224275 -0.0439039 0)
(-0.0237237 -0.0780314 0)
(-0.0192523 -0.102273 0)
(-0.0143811 -0.111075 0)
(-0.00492732 -0.104037 0)
(0.00530071 -0.0818561 0)
(0.0179554 -0.0568057 0)
(0.0234919 -0.0317879 0)
(0.0325123 -0.00808375 0)
(0.0323187 0.0110177 0)
(0.0198958 0.0177768 0)
(0.00601475 0.0177732 0)
(-0.00720758 0.0178794 0)
(-0.021515 0.0171802 0)
(-0.0334115 0.00895128 0)
(-0.0316935 -0.0101947 0)
(-0.0230819 -0.0334133 0)
(-0.0172975 -0.0583599 0)
(-0.00441324 -0.0832365 0)
(0.00545984 -0.105422 0)
(0.0147528 -0.111708 0)
(0.0195217 -0.102503 0)
(0.0237435 -0.0774032 0)
(0.0220325 -0.042799 0)
(0.0198797 -0.00165184 0)
(0.0155966 0.0321733 0)
(-0.000804767 0.0409112 0)
(0.00161392 0.0465626 0)
(-0.0111501 0.0385904 0)
(-0.0130547 0.00358039 0)
(-0.0137963 -0.042842 0)
(-0.0175758 -0.0767357 0)
(-0.0150938 -0.101359 0)
(-0.0138761 -0.111735 0)
(-0.00736018 -0.10596 0)
(-0.00177724 -0.0852205 0)
(0.0070275 -0.0583881 0)
(0.0131819 -0.0336765 0)
(0.0180851 -0.00496677 0)
(0.025602 0.0176259 0)
(0.0164073 0.028925 0)
(0.00442291 0.0309511 0)
(-0.00564186 0.0308887 0)
(-0.0180231 0.0275833 0)
(-0.0259522 0.0149877 0)
(-0.0173038 -0.00783981 0)
(-0.0129501 -0.0358758 0)
(-0.00618702 -0.0604811 0)
(0.00213666 -0.0870041 0)
(0.00766804 -0.107025 0)
(0.013819 -0.112157 0)
(0.0149727 -0.101187 0)
(0.0171193 -0.0763232 0)
(0.0129125 -0.0421739 0)
(0.012037 0.00508185 0)
(0.0100403 0.0404245 0)
(-0.00157752 0.0487897 0)
(0.00160206 0.05062 0)
(-0.0088105 0.0418997 0)
(-0.00567817 0.00799383 0)
(-0.00347196 -0.0412793 0)
(-0.00979493 -0.077633 0)
(-0.00917437 -0.101942 0)
(-0.0119191 -0.110897 0)
(-0.0098518 -0.106891 0)
(-0.00711414 -0.0895892 0)
(-0.00347214 -0.0665259 0)
(0.00216277 -0.0399741 0)
(0.00416763 -0.00946966 0)
(0.0127941 0.0187177 0)
(0.0109009 0.0342342 0)
(0.00209367 0.039924 0)
(-0.00308613 0.0396931 0)
(-0.0117858 0.0324475 0)
(-0.012335 0.0156656 0)
(-0.00419978 -0.0125996 0)
(-0.00206102 -0.042212 0)
(0.0038217 -0.0687631 0)
(0.00718142 -0.0911389 0)
(0.0098408 -0.10778 0)
(0.0115431 -0.111353 0)
(0.00874238 -0.102151 0)
(0.00887637 -0.0771995 0)
(0.00235366 -0.0405183 0)
(0.00491321 0.00962012 0)
(0.00831557 0.0433215 0)
(-0.00161855 0.0523109 0)
(0.00163079 0.0523123 0)
(-0.00659619 0.0415187 0)
(0.0019282 0.00962967 0)
(0.00676025 -0.0404047 0)
(0.000979405 -0.0784063 0)
(-0.00239011 -0.102095 0)
(-0.0089933 -0.109896 0)
(-0.012344 -0.105168 0)
(-0.0127209 -0.0909903 0)
(-0.0124173 -0.07177 0)
(-0.00841242 -0.0449559 0)
(-0.00814887 -0.0134635 0)
(-0.00422157 0.0186829 0)
(0.00342347 0.0370757 0)
(-0.000818011 0.0462545 0)
(8.81283e-06 0.045897 0)
(-0.0041104 0.035043 0)
(0.00535216 0.0154661 0)
(0.00752374 -0.0171569 0)
(0.00858868 -0.0473461 0)
(0.0122076 -0.0736628 0)
(0.0124761 -0.0922953 0)
(0.011974 -0.105694 0)
(0.0082728 -0.110027 0)
(0.00194579 -0.101841 0)
(-0.0023846 -0.0779056 0)
(-0.00793964 -0.0388184 0)
(-0.00276759 0.0106978 0)
(0.00618787 0.0427828 0)
(-0.00155986 0.0536427 0)
(0.00265838 0.0538642 0)
(-0.00422811 0.0402122 0)
(0.010371 0.0102636 0)
(0.0168873 -0.0380049 0)
(0.0120205 -0.0792065 0)
(0.0048006 -0.101125 0)
(-0.00517991 -0.107215 0)
(-0.0137248 -0.102582 0)
(-0.0172429 -0.0913849 0)
(-0.0185395 -0.0749712 0)
(-0.0179504 -0.0501255 0)
(-0.0158306 -0.0202454 0)
(-0.0194106 0.0152748 0)
(-0.00413791 0.0371036 0)
(-0.00346071 0.0479809 0)
(0.00286215 0.0477027 0)
(0.00381345 0.0352509 0)
(0.0200413 0.0114943 0)
(0.015218 -0.0240667 0)
(0.0176752 -0.0525241 0)
(0.0178507 -0.0766526 0)
(0.0164583 -0.0923641 0)
(0.0128565 -0.103036 0)
(0.00413816 -0.107263 0)
(-0.00560907 -0.100845 0)
(-0.0136131 -0.0786073 0)
(-0.0187604 -0.0357852 0)
(-0.0111662 0.0112748 0)
(0.00374973 0.0411742 0)
(-0.00244562 0.0547857 0)
(0.00525744 0.0554668 0)
(-0.00139184 0.0369049 0)
(0.0190791 0.0095327 0)
(0.0269158 -0.0370917 0)
(0.0207401 -0.0804292 0)
(0.0109584 -0.0978495 0)
(-0.00208809 -0.102896 0)
(-0.0158924 -0.0981778 0)
(-0.022359 -0.090044 0)
(-0.0249949 -0.0762578 0)
(-0.0266655 -0.0535729 0)
(-0.0220692 -0.0252782 0)
(-0.0300519 0.0109799 0)
(-0.0124418 0.03757 0)
(-0.00487181 0.0467481 0)
(0.00424163 0.0466439 0)
(0.0130446 0.0356919 0)
(0.0285245 0.00606794 0)
(0.0205761 -0.028962 0)
(0.0252123 -0.0555129 0)
(0.023578 -0.0781299 0)
(0.0210192 -0.091238 0)
(0.0146731 -0.0984731 0)
(0.000729749 -0.102776 0)
(-0.0122857 -0.0972551 0)
(-0.0230541 -0.0797734 0)
(-0.0286187 -0.0354572 0)
(-0.0195865 0.00999601 0)
(0.000983503 0.0374027 0)
(-0.00485828 0.0558474 0)
(0.00896679 0.0557047 0)
(0.00162018 0.0324942 0)
(0.0264645 0.00660726 0)
(0.0341382 -0.0363433 0)
(0.0303289 -0.0795601 0)
(0.016177 -0.0926031 0)
(-0.00111747 -0.0955265 0)
(-0.0193444 -0.0920149 0)
(-0.0277343 -0.0895131 0)
(-0.0299687 -0.0793021 0)
(-0.0310771 -0.0584839 0)
(-0.026625 -0.0338517 0)
(-0.0317206 0.00175793 0)
(-0.0227467 0.0351724 0)
(-0.00520644 0.0457572 0)
(0.00464155 0.0460847 0)
(0.023437 0.0318624 0)
(0.0286909 -0.00447096 0)
(0.0259251 -0.0371825 0)
(0.0296332 -0.0602032 0)
(0.0286154 -0.0808683 0)
(0.0265273 -0.0902701 0)
(0.0180102 -0.0921461 0)
(-0.000459303 -0.0953031 0)
(-0.0184805 -0.0925515 0)
(-0.0325951 -0.0782007 0)
(-0.035789 -0.0335565 0)
(-0.0262846 0.00642555 0)
(-0.00173558 0.0321602 0)
(-0.008611 0.0554481 0)
(0.0136622 0.0520422 0)
(0.00932952 0.0253738 0)
(0.0384903 0.00247994 0)
(0.0495 -0.0290172 0)
(0.0391583 -0.0745182 0)
(0.0248292 -0.0871269 0)
(0.00166283 -0.0866381 0)
(-0.020396 -0.0847647 0)
(-0.0298408 -0.0868497 0)
(-0.0320749 -0.0803623 0)
(-0.0327272 -0.0632784 0)
(-0.0309997 -0.0417407 0)
(-0.028942 -0.0145434 0)
(-0.0288207 0.0326095 0)
(-0.00598066 0.0448649 0)
(0.00582488 0.0442955 0)
(0.0299565 0.0295085 0)
(0.0280423 -0.0193255 0)
(0.0301771 -0.0443342 0)
(0.0310531 -0.0655257 0)
(0.0305868 -0.0812706 0)
(0.0285136 -0.0869392 0)
(0.0188524 -0.0842438 0)
(-0.00386501 -0.0863968 0)
(-0.0272827 -0.0874138 0)
(-0.0424465 -0.0744039 0)
(-0.0525774 -0.0261003 0)
(-0.0391095 0.00237937 0)
(-0.00987882 0.0245193 0)
(-0.0133476 0.0509762 0)
(0.0204917 0.04404 0)
(0.0242064 0.019904 0)
(0.0563673 0.00592789 0)
(0.0743957 -0.0183521 0)
(0.05965 -0.0671084 0)
(0.0397241 -0.0862169 0)
(0.00926202 -0.0801142 0)
(-0.0169994 -0.0771493 0)
(-0.0280655 -0.0810832 0)
(-0.0305901 -0.078897 0)
(-0.0312339 -0.0697691 0)
(-0.0322153 -0.0514617 0)
(-0.028841 -0.031508 0)
(-0.0277988 0.0140157 0)
(-0.00519036 0.0215983 0)
(0.00592232 0.0205573 0)
(0.0274191 0.00919455 0)
(0.0279704 -0.0346042 0)
(0.0307052 -0.0536843 0)
(0.0294055 -0.07136 0)
(0.0289218 -0.0795613 0)
(0.0265017 -0.0805604 0)
(0.0152559 -0.0770052 0)
(-0.0119641 -0.0821805 0)
(-0.0436011 -0.0858066 0)
(-0.0651129 -0.0640384 0)
(-0.0781977 -0.0165776 0)
(-0.0567017 0.00510187 0)
(-0.0244597 0.0178748 0)
(-0.020133 0.0425839 0)
(0.0263266 0.0350988 0)
(0.0360156 0.00549967 0)
(0.0645305 -0.00790217 0)
(0.0919484 -0.0197335 0)
(0.0828387 -0.0515124 0)
(0.0666192 -0.0755474 0)
(0.0288719 -0.0902555 0)
(-0.00907468 -0.0760512 0)
(-0.0228824 -0.0735305 0)
(-0.0252278 -0.0783181 0)
(-0.0255377 -0.0748362 0)
(-0.0247913 -0.0694411 0)
(-0.0235468 -0.0544355 0)
(-0.0167062 -0.0288344 0)
(-0.00478338 -0.0127007 0)
(0.00498246 -0.0134513 0)
(0.0146565 -0.0353007 0)
(0.0226057 -0.0568919 0)
(0.0231478 -0.0714942 0)
(0.0239069 -0.0758519 0)
(0.0237161 -0.0787281 0)
(0.021419 -0.0738357 0)
(0.00707673 -0.0795925 0)
(-0.0335917 -0.0944246 0)
(-0.0704704 -0.0784674 0)
(-0.0827166 -0.0522617 0)
(-0.0911803 -0.0236022 0)
(-0.0639698 -0.0143101 0)
(-0.0358959 0.0021151 0)
(-0.026325 0.0332812 0)
(0.031567 0.0180391 0)
(0.0443454 -0.0169018 0)
(0.0679396 -0.04739 0)
(0.0857869 -0.0542962 0)
(0.0850591 -0.0685387 0)
(0.0713279 -0.0901873 0)
(0.0455731 -0.102175 0)
(0.0130558 -0.11125 0)
(-0.0110004 -0.0818301 0)
(-0.0173225 -0.0802552 0)
(-0.0172997 -0.0840199 0)
(-0.0150147 -0.0850178 0)
(-0.0101604 -0.083828 0)
(-0.00879128 -0.0632697 0)
(-0.00370099 -0.0473544 0)
(0.00386009 -0.0491728 0)
(0.00757337 -0.0664032 0)
(0.00900117 -0.0848895 0)
(0.0137515 -0.0857147 0)
(0.015539 -0.0850639 0)
(0.0156635 -0.082417 0)
(0.00825537 -0.0867988 0)
(-0.016866 -0.117308 0)
(-0.0465468 -0.104887 0)
(-0.0708105 -0.0974982 0)
(-0.0849596 -0.0798108 0)
(-0.0845533 -0.0682404 0)
(-0.06814 -0.0584038 0)
(-0.0448232 -0.0204713 0)
(-0.03202 0.0162042 0)
(0.0342069 -0.0162755 0)
(0.0495629 -0.052129 0)
(0.0651972 -0.096858 0)
(0.0712032 -0.112576 0)
(0.0684514 -0.116739 0)
(0.0555188 -0.108979 0)
(0.0419337 -0.108399 0)
(0.0296941 -0.1311 0)
(0.0128214 -0.129098 0)
(-0.00206655 -0.103794 0)
(-0.006703 -0.0944407 0)
(-0.00453755 -0.0971703 0)
(-0.00361528 -0.0895619 0)
(-0.00332645 -0.0803641 0)
(-0.00194954 -0.0728225 0)
(0.0014417 -0.0735317 0)
(0.00211768 -0.0811266 0)
(0.00238861 -0.0895092 0)
(0.00326473 -0.0973731 0)
(0.00535954 -0.0953402 0)
(-0.00106988 -0.111699 0)
(-0.0163513 -0.133585 0)
(-0.0330733 -0.135858 0)
(-0.0431817 -0.115246 0)
(-0.0532659 -0.115625 0)
(-0.0649702 -0.124953 0)
(-0.0680619 -0.121054 0)
(-0.0642372 -0.104608 0)
(-0.0501409 -0.0585647 0)
(-0.034317 -0.0210688 0)
(0.0283248 -0.0807469 0)
(0.0451695 -0.105242 0)
(0.0498553 -0.11654 0)
(0.0500133 -0.118142 0)
(0.0476802 -0.114672 0)
(0.0463544 -0.109303 0)
(0.0481074 -0.119419 0)
(0.0460308 -0.14015 0)
(0.0311439 -0.142531 0)
(0.013197 -0.125698 0)
(0.00392159 -0.106792 0)
(0.00182645 -0.0950688 0)
(0.00134762 -0.086118 0)
(0.000949599 -0.0827075 0)
(-0.00013847 -0.0785232 0)
(-0.0006159 -0.0789467 0)
(-0.00214983 -0.0825111 0)
(-0.00256945 -0.0853847 0)
(-0.00315421 -0.0943513 0)
(-0.00567329 -0.107496 0)
(-0.0161547 -0.127738 0)
(-0.034757 -0.144761 0)
(-0.0489226 -0.142811 0)
(-0.0507482 -0.126762 0)
(-0.0469916 -0.115001 0)
(-0.0469133 -0.117185 0)
(-0.0485647 -0.120215 0)
(-0.0475823 -0.118968 0)
(-0.0436066 -0.110032 0)
(-0.0277501 -0.0858643 0)
(0.0218272 -0.109677 0)
(0.0296969 -0.110716 0)
(0.0384284 -0.103848 0)
(0.0398456 -0.0970215 0)
(0.039884 -0.093122 0)
(0.0512146 -0.100378 0)
(0.0618468 -0.11749 0)
(0.0612384 -0.130577 0)
(0.0487825 -0.13979 0)
(0.0288482 -0.130268 0)
(0.0142045 -0.1075 0)
(0.0088565 -0.0889466 0)
(0.00577056 -0.0793356 0)
(0.00307878 -0.0715035 0)
(0.00101541 -0.0668502 0)
(-0.0015927 -0.0671652 0)
(-0.00389597 -0.0721769 0)
(-0.00706704 -0.0784826 0)
(-0.0100835 -0.0878184 0)
(-0.0162239 -0.107768 0)
(-0.0317131 -0.131653 0)
(-0.0518239 -0.140829 0)
(-0.0640805 -0.132493 0)
(-0.0642444 -0.120299 0)
(-0.0537231 -0.103794 0)
(-0.0405847 -0.0950367 0)
(-0.0392474 -0.0980024 0)
(-0.0379563 -0.103821 0)
(-0.0284931 -0.110802 0)
(-0.0210276 -0.108833 0)
(0.012967 -0.104287 0)
(0.0214929 -0.0946925 0)
(0.0298391 -0.0799867 0)
(0.0311029 -0.0714815 0)
(0.0429026 -0.0758098 0)
(0.0630367 -0.0929871 0)
(0.0745848 -0.106657 0)
(0.0752594 -0.114945 0)
(0.0641152 -0.122169 0)
(0.0426972 -0.120261 0)
(0.0235121 -0.104479 0)
(0.014253 -0.0808025 0)
(0.00894463 -0.0667709 0)
(0.00551377 -0.05315 0)
(0.00185822 -0.0483188 0)
(-0.00223644 -0.0486006 0)
(-0.00601156 -0.0540114 0)
(-0.00982021 -0.0678157 0)
(-0.0155485 -0.0802246 0)
(-0.0257403 -0.104912 0)
(-0.0455063 -0.120931 0)
(-0.066855 -0.122785 0)
(-0.0772609 -0.116671 0)
(-0.0765488 -0.109397 0)
(-0.0652685 -0.0968214 0)
(-0.0450198 -0.0786494 0)
(-0.031461 -0.072941 0)
(-0.0289806 -0.0799639 0)
(-0.0219888 -0.0929689 0)
(-0.0120287 -0.101241 0)
(0.00652732 -0.0893272 0)
(0.0207721 -0.0761453 0)
(0.0193612 -0.0564179 0)
(0.0299221 -0.0559865 0)
(0.0551764 -0.071383 0)
(0.0757161 -0.0882729 0)
(0.0852487 -0.0955003 0)
(0.0853091 -0.0990856 0)
(0.0746712 -0.100988 0)
(0.0543773 -0.0989354 0)
(0.0331972 -0.0863137 0)
(0.0197734 -0.0662907 0)
(0.013387 -0.046712 0)
(0.00822598 -0.0329116 0)
(0.00281724 -0.0278717 0)
(-0.0029671 -0.0281079 0)
(-0.00850002 -0.0337155 0)
(-0.0139978 -0.0478456 0)
(-0.0209182 -0.0670852 0)
(-0.0351955 -0.0869554 0)
(-0.0564464 -0.099003 0)
(-0.0764112 -0.101718 0)
(-0.0871232 -0.100792 0)
(-0.0867625 -0.0974975 0)
(-0.0775851 -0.0909924 0)
(-0.0578545 -0.0752987 0)
(-0.0316417 -0.0582269 0)
(-0.0193856 -0.0570532 0)
(-0.0205672 -0.0750242 0)
(-0.00680801 -0.0868423 0)
(0.000814534 -0.0713573 0)
(0.00948679 -0.0488377 0)
(0.0146234 -0.0384927 0)
(0.0424691 -0.051717 0)
(0.070508 -0.0717594 0)
(0.0847317 -0.0792901 0)
(0.0928402 -0.0822032 0)
(0.0931688 -0.0824522 0)
(0.0827137 -0.0814027 0)
(0.0617613 -0.0764306 0)
(0.0400726 -0.0639099 0)
(0.0248435 -0.044524 0)
(0.0167988 -0.025459 0)
(0.0102127 -0.012082 0)
(0.00349994 -0.00697374 0)
(-0.00350469 -0.00720889 0)
(-0.0103841 -0.0127876 0)
(-0.0172857 -0.026435 0)
(-0.0259076 -0.045257 0)
(-0.0419776 -0.0642724 0)
(-0.063716 -0.0768451 0)
(-0.0843272 -0.0820867 0)
(-0.0942991 -0.0838543 0)
(-0.0941054 -0.0842794 0)
(-0.0858548 -0.0816333 0)
(-0.0721338 -0.0745683 0)
(-0.0451836 -0.0553167 0)
(-0.0161297 -0.0401847 0)
(-0.0100247 -0.0472895 0)
(-0.000829948 -0.0686355 0)
(-0.00770316 -0.0487578 0)
(0.00740323 -0.0257343 0)
(0.027711 -0.0369971 0)
(0.0595451 -0.0573816 0)
(0.0777924 -0.0652047 0)
(0.0907196 -0.0679609 0)
(0.0986342 -0.067814 0)
(0.0977405 -0.065316 0)
(0.0869942 -0.0602334 0)
(0.0674914 -0.0544251 0)
(0.0450134 -0.0409223 0)
(0.0283983 -0.0221947 0)
(0.0188517 -0.00363213 0)
(0.0113103 0.00949463 0)
(0.00383747 0.0145822 0)
(-0.00390756 0.0143875 0)
(-0.0115236 0.00886687 0)
(-0.01936 -0.00450606 0)
(-0.0293982 -0.0227903 0)
(-0.0466307 -0.041299 0)
(-0.0689162 -0.0544342 0)
(-0.0880003 -0.06109 0)
(-0.0988472 -0.0665888 0)
(-0.0993989 -0.0692948 0)
(-0.0917537 -0.0699587 0)
(-0.0788994 -0.0673565 0)
(-0.061178 -0.0599309 0)
(-0.0301894 -0.0398103 0)
(-0.0082591 -0.0256161 0)
(0.00815874 -0.0455059 0)
(-0.00795922 -0.0190807 0)
(0.0137051 -0.0197538 0)
(0.0437498 -0.0412868 0)
(0.0659866 -0.0520084 0)
(0.082368 -0.0553196 0)
(0.0946118 -0.0552093 0)
(0.101338 -0.0520735 0)
(0.100215 -0.0464471 0)
(0.0903124 -0.0403048 0)
(0.070511 -0.0315199 0)
(0.0477156 -0.0176961 0)
(0.0298281 0.000564986 0)
(0.0194049 0.0185674 0)
(0.0114425 0.0310544 0)
(0.00383607 0.0358433 0)
(-0.00391469 0.0356426 0)
(-0.0116361 0.0304461 0)
(-0.0198028 0.0177496 0)
(-0.0307017 -3.16926e-05 0)
(-0.0491287 -0.0180463 0)
(-0.0716948 -0.0319374 0)
(-0.0908973 -0.0409447 0)
(-0.100576 -0.047717 0)
(-0.101906 -0.0536435 0)
(-0.0950163 -0.0569073 0)
(-0.0830418 -0.0571606 0)
(-0.0667957 -0.0539546 0)
(-0.0451425 -0.0434316 0)
(-0.0151082 -0.0216389 0)
(0.00635476 -0.0154855 0)
(0.00763591 0.00302569 0)
(0.0226596 -0.0241914 0)
(0.0487534 -0.0381084 0)
(0.0688316 -0.0439258 0)
(0.0845062 -0.0442808 0)
(0.0961752 -0.0412935 0)
(0.102318 -0.0352443 0)
(0.100768 -0.0282711 0)
(0.090341 -0.0189196 0)
(0.0720264 -0.00867978 0)
(0.0489678 0.00599435 0)
(0.0301084 0.0236339 0)
(0.019009 0.0404632 0)
(0.0110408 0.0520035 0)
(0.00376156 0.0564449 0)
(-0.00365152 0.0562694 0)
(-0.0110562 0.051461 0)
(-0.0192098 0.0397424 0)
(-0.0307234 0.0231509 0)
(-0.049896 0.00570677 0)
(-0.0726894 -0.00882479 0)
(-0.0907688 -0.0197412 0)
(-0.101062 -0.0292066 0)
(-0.102417 -0.0365185 0)
(-0.0965262 -0.0428442 0)
(-0.0849322 -0.0457714 0)
(-0.0693789 -0.0453364 0)
(-0.0494046 -0.039389 0)
(-0.0237015 -0.0250058 0)
(-0.0099127 0.00467251 0)
(0.0190123 0.00650793 0)
(0.0262046 -0.0184721 0)
(0.0505172 -0.0308977 0)
(0.0701596 -0.0344307 0)
(0.0854361 -0.0321633 0)
(0.0961534 -0.0266881 0)
(0.101272 -0.0183413 0)
(0.0988513 -0.0082836 0)
(0.0893981 0.00243161 0)
(0.0706874 0.0147107 0)
(0.0471962 0.0300822 0)
(0.0282878 0.0462441 0)
(0.0176293 0.0612664 0)
(0.0102239 0.0717777 0)
(0.00352676 0.075827 0)
(-0.00327173 0.075652 0)
(-0.0101178 0.0712587 0)
(-0.017791 0.060544 0)
(-0.0289983 0.0458343 0)
(-0.048209 0.0298283 0)
(-0.071405 0.0143405 0)
(-0.089591 0.00180959 0)
(-0.0989973 -0.00949784 0)
(-0.101456 -0.0195926 0)
(-0.096175 -0.0280883 0)
(-0.0856838 -0.0335611 0)
(-0.0705021 -0.0357363 0)
(-0.0510612 -0.0318122 0)
(-0.0271376 -0.0185673 0)
(-0.0205997 0.00749469 0)
(0.0235833 0.0118984 0)
(0.0281411 -0.0124837 0)
(0.0517757 -0.024202 0)
(0.070865 -0.0249805 0)
(0.0850805 -0.0199575 0)
(0.0945303 -0.0115309 0)
(0.0984034 -0.00035162 0)
(0.0953658 0.0115402 0)
(0.0847722 0.0252369 0)
(0.0658548 0.0397421 0)
(0.0429276 0.0545 0)
(0.025844 0.0683314 0)
(0.0159409 0.0807146 0)
(0.00917321 0.0904193 0)
(0.00319553 0.0942922 0)
(-0.00284112 0.0941495 0)
(-0.00899438 0.0899962 0)
(-0.0161108 0.0800509 0)
(-0.0265845 0.0677967 0)
(-0.0438132 0.0542213 0)
(-0.0663019 0.0396376 0)
(-0.0850781 0.0246072 0)
(-0.0954551 0.0107069 0)
(-0.0984043 -0.00163745 0)
(-0.0946592 -0.0128681 0)
(-0.0852231 -0.0212011 0)
(-0.0710915 -0.0260884 0)
(-0.0520454 -0.0249882 0)
(-0.0287986 -0.0125665 0)
(-0.0243097 0.0127197 0)
(0.0258745 0.0171188 0)
(0.0303891 -0.00620113 0)
(0.052965 -0.0166402 0)
(0.070951 -0.0150117 0)
(0.0838609 -0.00690721 0)
(0.0919074 0.00413019 0)
(0.0941838 0.0179966 0)
(0.0891989 0.0342769 0)
(0.0774802 0.0513804 0)
(0.0587007 0.0665905 0)
(0.0391211 0.0764533 0)
(0.0235628 0.0875297 0)
(0.0139888 0.0985785 0)
(0.00795076 0.107823 0)
(0.00279514 0.11158 0)
(-0.002344 0.111463 0)
(-0.00771002 0.107474 0)
(-0.0142226 0.0979319 0)
(-0.0245113 0.0869842 0)
(-0.040229 0.0759107 0)
(-0.0591623 0.066237 0)
(-0.0774204 0.0509708 0)
(-0.0890511 0.0333235 0)
(-0.0940547 0.0169301 0)
(-0.0917505 0.00278776 0)
(-0.0839016 -0.00819548 0)
(-0.0710819 -0.0161631 0)
(-0.0532484 -0.0174461 0)
(-0.0308539 -0.00632409 0)
(-0.0262421 0.0179575 0)
(0.0275763 0.0208261 0)
(0.0327927 -0.00151979 0)
(0.0543799 -0.00981581 0)
(0.0707756 -0.0048792 0)
(0.0821401 0.00592075 0)
(0.0883792 0.0206529 0)
(0.0883636 0.0402728 0)
(0.0810111 0.0612206 0)
(0.0682083 0.0792312 0)
(0.0519711 0.0915562 0)
(0.0361031 0.0958307 0)
(0.021554 0.105605 0)
(0.0123085 0.115407 0)
(0.00691288 0.124287 0)
(0.00249198 0.12805 0)
(-0.00181696 0.127997 0)
(-0.00647765 0.12411 0)
(-0.0123442 0.114922 0)
(-0.0222455 0.105089 0)
(-0.0369919 0.0952582 0)
(-0.0524515 0.0907727 0)
(-0.0680531 0.0787613 0)
(-0.0805895 0.0606494 0)
(-0.0878787 0.0392224 0)
(-0.0880582 0.0195721 0)
(-0.081946 0.0047605 0)
(-0.070716 -0.00591178 0)
(-0.054478 -0.0106194 0)
(-0.0331556 -0.00179944 0)
(-0.0278301 0.0215122 0)
(0.0293517 0.0216614 0)
(0.0358502 0.00243386 0)
(0.0555413 -0.00234958 0)
(0.069883 0.00574177 0)
(0.079724 0.0200201 0)
(0.0837911 0.04139 0)
(0.079915 0.0671251 0)
(0.0709031 0.0901363 0)
(0.0597751 0.104614 0)
(0.04702 0.111124 0)
(0.0338915 0.113053 0)
(0.0200053 0.121806 0)
(0.0109844 0.13135 0)
(0.00612683 0.139805 0)
(0.00234887 0.143633 0)
(-0.00119308 0.143647 0)
(-0.00518563 0.139849 0)
(-0.0106536 0.131581 0)
(-0.0204515 0.121506 0)
(-0.0345287 0.112446 0)
(-0.0472334 0.110029 0)
(-0.0595191 0.103682 0)
(-0.0702725 0.0892534 0)
(-0.0791924 0.0664445 0)
(-0.0830654 0.040448 0)
(-0.0793326 0.0190488 0)
(-0.0695854 0.0047527 0)
(-0.0554083 -0.00304153 0)
(-0.0360244 0.00209081 0)
(-0.0295912 0.0217866 0)
(0.0315783 0.0176486 0)
(0.0383621 0.00448853 0)
(0.0557838 0.00481467 0)
(0.0686295 0.0167004 0)
(0.0760245 0.0381228 0)
(0.075597 0.0670537 0)
(0.0691555 0.0955915 0)
(0.0613677 0.114549 0)
(0.0528679 0.123855 0)
(0.0438138 0.126851 0)
(0.0322566 0.128552 0)
(0.0188895 0.137255 0)
(0.00982012 0.146842 0)
(0.00520253 0.154614 0)
(0.00215678 0.158492 0)
(-0.000583558 0.158537 0)
(-0.00384306 0.154763 0)
(-0.00891263 0.146736 0)
(-0.0186236 0.137084 0)
(-0.0324144 0.128025 0)
(-0.0437898 0.125758 0)
(-0.0525218 0.122692 0)
(-0.0607153 0.113308 0)
(-0.0682238 0.0946575 0)
(-0.0747043 0.0665301 0)
(-0.0753971 0.0374337 0)
(-0.0681633 0.0159339 0)
(-0.0553326 0.00422827 0)
(-0.0381376 0.00425805 0)
(-0.0314568 0.017525 0)
(0.0321298 0.00985346 0)
(0.039061 0.00577692 0)
(0.0547086 0.0121626 0)
(0.0655635 0.0320975 0)
(0.0680333 0.0615823 0)
(0.0645236 0.0952666 0)
(0.0586821 0.119962 0)
(0.0530788 0.133646 0)
(0.0485555 0.138606 0)
(0.0420464 0.140196 0)
(0.0311824 0.14286 0)
(0.0184407 0.151577 0)
(0.00939637 0.161268 0)
(0.00485509 0.169026 0)
(0.00217406 0.173152 0)
(0.000120365 0.173185 0)
(-0.00249777 0.169301 0)
(-0.00747235 0.161654 0)
(-0.017387 0.151652 0)
(-0.0308801 0.142502 0)
(-0.0418622 0.139131 0)
(-0.0483871 0.137054 0)
(-0.0525887 0.132026 0)
(-0.0579375 0.118552 0)
(-0.0634947 0.0944637 0)
(-0.0672603 0.0613148 0)
(-0.0650304 0.0315251 0)
(-0.0542435 0.0117521 0)
(-0.0385475 0.00575876 0)
(-0.0317166 0.010372 0)
(0.0298295 0.0024496 0)
(0.0379624 0.00678464 0)
(0.0509963 0.0237541 0)
(0.0577011 0.0519928 0)
(0.0567311 0.088767 0)
(0.0531332 0.119849 0)
(0.049218 0.138928 0)
(0.047244 0.147865 0)
(0.0457983 0.149538 0)
(0.0406989 0.15214 0)
(0.0305893 0.156088 0)
(0.0184097 0.165321 0)
(0.0096174 0.175286 0)
(0.00548177 0.182837 0)
(0.00317711 0.18733 0)
(0.000957878 0.187547 0)
(-0.00172002 0.183529 0)
(-0.00652019 0.175954 0)
(-0.0161986 0.166003 0)
(-0.0294035 0.156229 0)
(-0.0401416 0.151562 0)
(-0.045642 0.148207 0)
(-0.0472405 0.145957 0)
(-0.0488824 0.137196 0)
(-0.0526065 0.118608 0)
(-0.0559465 0.0883144 0)
(-0.0570108 0.0517909 0)
(-0.0505745 0.0235968 0)
(-0.0376672 0.00707247 0)
(-0.029472 0.00370042 0)
(0.0237184 -0.00354933 0)
(0.0365129 0.0088781 0)
(0.043329 0.0379431 0)
(0.0467879 0.076134 0)
(0.0447366 0.112722 0)
(0.0429321 0.138623 0)
(0.0421293 0.152582 0)
(0.0437226 0.157638 0)
(0.0444106 0.159129 0)
(0.0407415 0.163093 0)
(0.0314484 0.168667 0)
(0.0191331 0.178378 0)
(0.00980805 0.188575 0)
(0.00534431 0.196252 0)
(0.00326907 0.200592 0)
(0.00152622 0.200818 0)
(-0.000576304 0.197001 0)
(-0.00533569 0.189832 0)
(-0.0153323 0.179656 0)
(-0.0287525 0.169591 0)
(-0.0390609 0.163335 0)
(-0.0435312 0.158483 0)
(-0.0434973 0.155998 0)
(-0.0420015 0.150662 0)
(-0.0427511 0.137097 0)
(-0.0445367 0.111906 0)
(-0.0463439 0.0758599 0)
(-0.0428283 0.0380488 0)
(-0.0363507 0.00963131 0)
(-0.0235638 -0.0019508 0)
(0.0145243 -0.00685421 0)
(0.0314554 0.0153803 0)
(0.0335131 0.0547974 0)
(0.0335578 0.0989366 0)
(0.0320289 0.133567 0)
(0.0349322 0.153095 0)
(0.0394595 0.160632 0)
(0.0449577 0.163265 0)
(0.0461112 0.166654 0)
(0.0427428 0.172802 0)
(0.0332583 0.180684 0)
(0.0203117 0.191356 0)
(0.0104747 0.201915 0)
(0.00571473 0.209764 0)
(0.00355057 0.213779 0)
(0.00171311 0.21406 0)
(-0.000472018 0.21064 0)
(-0.00525623 0.203241 0)
(-0.0152743 0.193127 0)
(-0.0289946 0.182371 0)
(-0.0395782 0.174047 0)
(-0.0438499 0.167062 0)