/*--------------------------------*- C++ -*----------------------------------*\
| =========                 |                                                 |
| \\      /  F ield         | OpenFOAM: The Open Source CFD Toolbox           |
|  \\    /   O peration     | Version:  v1606+                                |
|   \\  /    A nd           | Web:      www.OpenFOAM.com                      |
|    \\/     M anipulation  |                                                 |
\*---------------------------------------------------------------------------*/
FoamFile
{
    version     2.0;
    format      ascii;
    class       volScalarField;
    location    "1.57";
    object      alphat.air;
}
// * * * * * * * * * * * * * * * * * * * * * * * * * * * * * * * * * * * * * //

dimensions      [1 -1 -1 0 0 0 0];

internalField   nonuniform List<scalar> 
6000
(
0.000373116
0.00329738
0.00537018
0.00590007
0.00608939
0.00618399
0.00623676
0.00629107
0.00632267
0.00632274
0.00631197
0.00629577
0.00628882
0.00628974
0.00629349
0.00630295
0.00631504
0.00631513
0.00630658
0.00627253
0.00624168
0.00622902
0.00620009
0.00614668
0.00608973
0.00600213
0.00584281
0.00536798
0.00335668
0.000370273
0.000274093
0.00184659
0.00363684
0.0047799
0.00536616
0.00568935
0.00589521
0.00603032
0.00612887
0.00619378
0.00618008
0.00614738
0.00615109
0.00618838
0.00621789
0.00622365
0.00621325
0.00616921
0.00610453
0.0061086
0.00609476
0.00601009
0.00588896
0.00575044
0.00556548
0.00529405
0.00479157
0.00375527
0.00200191
0.000279906
0.000227683
0.00159442
0.00322424
0.00438325
0.00510787
0.00555862
0.0058367
0.00598063
0.00608083
0.00619421
0.00623412
0.00623103
0.00624552
0.00629112
0.00632731
0.00633805
0.00630621
0.00622841
0.00613271
0.00610758
0.0060852
0.00602831
0.00591055
0.0057051
0.00540643
0.00499043
0.00433994
0.00326112
0.00167174
0.000235508
0.000211776
0.00160928
0.00308711
0.00422702
0.00501699
0.00554121
0.00586964
0.00605567
0.00619258
0.00633843
0.00642817
0.00646672
0.00650742
0.0065671
0.00660276
0.0066175
0.0065648
0.00645897
0.0063479
0.0062689
0.00622084
0.00615073
0.00597322
0.00569788
0.00531408
0.00478256
0.00404719
0.00297951
0.00154245
0.000215363
0.000209167
0.00162085
0.00301899
0.00412189
0.0049644
0.00555854
0.0059521
0.00615781
0.00633
0.00649293
0.0066289
0.0067012
0.00677082
0.00682373
0.00681541
0.00683553
0.00685412
0.00674362
0.00658739
0.00648357
0.00640789
0.00631171
0.00607563
0.00572318
0.0052792
0.00469169
0.00391026
0.0028423
0.00150654
0.000210158
0.000206034
0.00155484
0.00295375
0.0040703
0.00493195
0.00558676
0.00605551
0.00632936
0.00651471
0.00666269
0.00681596
0.00693001
0.00700517
0.00703335
0.007026
0.00703574
0.00705757
0.00700485
0.00684117
0.00670857
0.00660516
0.00647905
0.00621337
0.005803
0.0053167
0.00468212
0.00383289
0.00276498
0.0014769
0.000202985
0.000197758
0.00145399
0.00290012
0.00407368
0.00496627
0.00564654
0.00618739
0.00654721
0.00677842
0.00695334
0.0070955
0.00719947
0.00725473
0.00726726
0.00725021
0.00724859
0.00726055
0.0072295
0.00709121
0.00694431
0.00681081
0.00664329
0.00635707
0.00591311
0.00535955
0.00466509
0.00379954
0.00274726
0.00147168
0.000193186
0.000191625
0.00148967
0.00293563
0.00412198
0.00506412
0.00577208
0.00636242
0.0067697
0.00703502
0.00723497
0.00738613
0.00749626
0.00754491
0.00753225
0.00751249
0.00749744
0.00748679
0.00745773
0.00734512
0.00719018
0.00703125
0.0068426
0.00653819
0.00606978
0.00543104
0.00469107
0.00381215
0.00275775
0.00149155
0.000189824
0.000190964
0.00157958
0.00302641
0.00421467
0.00516144
0.0059402
0.00657432
0.00701184
0.00730106
0.00752051
0.00768601
0.00780644
0.00787406
0.00787691
0.0078593
0.0078297
0.00778369
0.00772633
0.00764373
0.00750194
0.00732766
0.00711545
0.00678939
0.00629119
0.0056133
0.00481511
0.00386588
0.00273779
0.00145324
0.000186209
0.000190393
0.00164936
0.00314545
0.00434314
0.00531041
0.00615622
0.00684456
0.00730891
0.0076256
0.0078584
0.00803281
0.00815564
0.00823258
0.00826184
0.00825177
0.00821924
0.00816767
0.00809695
0.00801279
0.00788631
0.00771791
0.00749022
0.00716042
0.0066621
0.00598961
0.00514409
0.00407747
0.00274934
0.00130521
0.000176138
0.000187611
0.00169324
0.00330259
0.00458828
0.005653
0.00657233
0.00729138
0.0077702
0.00808791
0.00830502
0.00846284
0.00856904
0.00863152
0.00865569
0.00865242
0.00862667
0.00858186
0.00851851
0.00843354
0.00832101
0.00817425
0.00796763
0.00766018
0.00719227
0.00655207
0.00570573
0.00452404
0.00294806
0.00120943
0.000165846
0.000189964
0.00177364
0.00364488
0.00508439
0.00625043
0.00721651
0.00794342
0.0084142
0.00871364
0.00890408
0.00902286
0.00909312
0.00913152
0.00913816
0.00911948
0.009088
0.00904626
0.0089962
0.00893679
0.00886039
0.00874336
0.00854957
0.00827202
0.00787579
0.00729935
0.00636595
0.00507671
0.00340547
0.00134084
0.000168574
0.000204907
0.00198598
0.00410291
0.00567605
0.00698623
0.00804626
0.00877989
0.0092152
0.00946625
0.00961731
0.00970586
0.00975367
0.00977638
0.00977412
0.00974599
0.00971607
0.00968693
0.00965594
0.00961832
0.0095501
0.00941899
0.00922431
0.00897307
0.00860655
0.00796112
0.00692497
0.00556134
0.00382408
0.00172902
0.000193358
0.000242884
0.00222826
0.00449542
0.00626936
0.00778552
0.00898405
0.00975264
0.0101507
0.0103203
0.0104077
0.0104621
0.0105048
0.0105383
0.0105501
0.0105469
0.0105307
0.0105199
0.010501
0.0104563
0.0103547
0.0101796
0.00993591
0.00959136
0.00907581
0.00834222
0.00732566
0.00593348
0.00415863
0.0020732
0.000228444
0.000276212
0.00242852
0.00482447
0.00686005
0.00857314
0.00991722
0.0107435
0.0111324
0.0112375
0.011239
0.0112436
0.0112748
0.0113268
0.0113754
0.0114268
0.0114555
0.0114475
0.0113989
0.0112849
0.0110865
0.0108006
0.0104154
0.00989526
0.00928856
0.00859574
0.00760973
0.0062138
0.00442018
0.0022732
0.000240699
0.000294054
0.0025806
0.00513938
0.00738121
0.00922489
0.0106121
0.0114836
0.0119624
0.0121027
0.0120656
0.0120126
0.0120027
0.0120419
0.0121358
0.0121943
0.0121927
0.0121221
0.0119842
0.0117653
0.01147
0.0110727
0.0105545
0.0100081
0.00946547
0.00875973
0.00778257
0.00640514
0.00459154
0.00236439
0.000244462
0.000309146
0.00273185
0.00545862
0.00778804
0.00964589
0.0109853
0.011841
0.0124367
0.0127514
0.0127853
0.0127066
0.0126493
0.0126487
0.0126682
0.012645
0.01256
0.012416
0.0122087
0.0119344
0.011599
0.011173
0.0106754
0.0101639
0.00962108
0.00891906
0.00793261
0.00654752
0.00470606
0.00241635
0.000247506
0.000324867
0.00292644
0.00576677
0.00809796
0.00991991
0.0111948
0.0119947
0.0126218
0.0130617
0.0132086
0.0131867
0.013126
0.0130746
0.0130031
0.0129029
0.0127577
0.0125638
0.0123213
0.0120386
0.011703
0.0112855
0.0108188
0.0103369
0.00978187
0.00904926
0.00805011
0.00665492
0.00478537
0.00244688
0.000249488
0.000339722
0.00312211
0.00602382
0.00833005
0.0101047
0.0113223
0.0120892
0.0126749
0.0131292
0.0133628
0.013435
0.0134232
0.0133605
0.0132616
0.0131177
0.0129279
0.0126956
0.0124312
0.0121441
0.0118113
0.0114048
0.0109675
0.0105028
0.00992616
0.00917174
0.00814546
0.00673325
0.00485438
0.00248196
0.000250724
0.00035055
0.00324909
0.00621259
0.00850677
0.0102076
0.0113712
0.0121319
0.0126876
0.0131466
0.0134288
0.0135629
0.0136201
0.0135919
0.0134971
0.0133405
0.0131238
0.0128572
0.0125674
0.0122656
0.0119313
0.0115493
0.0111408
0.0106555
0.0100626
0.00928893
0.00824212
0.00682054
0.00493212
0.00252548
0.000253413
0.000354637
0.00332471
0.00631259
0.00858904
0.0102296
0.0113583
0.0121001
0.0126371
0.0131023
0.0134254
0.0136148
0.0137517
0.0137862
0.0137246
0.0135766
0.0133519
0.0130625
0.012742
0.0124191
0.0120749
0.0116968
0.0112881
0.0108102
0.0102245
0.0094525
0.00838376
0.00693492
0.00501323
0.00256615
0.000257512
0.000354307
0.00336004
0.00635195
0.00861202
0.0102176
0.0113005
0.0120056
0.0125466
0.013025
0.0133746
0.0136343
0.0138563
0.0139657
0.0139541
0.0138318
0.0136175
0.0133262
0.0129836
0.0126298
0.0122689
0.011881
0.0114697
0.0110292
0.010468
0.00966924
0.00855739
0.00706414
0.00509911
0.00260559
0.000261339
0.000353326
0.00338049
0.00639111
0.00866602
0.0102886
0.0113202
0.0119658
0.0125061
0.0129976
0.0133662
0.0137063
0.0140043
0.0141829
0.014218
0.014125
0.0139309
0.0136577
0.0133208
0.0129482
0.0125623
0.0121661
0.0117742
0.0113614
0.0107847
0.00994438
0.00877676
0.0072166
0.00518969
0.00264261
0.000265184
0.000353281
0.0033575
0.0064416
0.00880477
0.0105001
0.0115655
0.0121851
0.0126496
0.0130928
0.0135337
0.0139458
0.0142958
0.0145088
0.0145649
0.0144892
0.0143131
0.0140617
0.0137509
0.0133918
0.0130022
0.0126147
0.0122408
0.0118147
0.0111996
0.0103095
0.00906206
0.0074017
0.00528394
0.0026785
0.000268662
0.000353739
0.00330871
0.00655886
0.00901966
0.0108069
0.0120761
0.0128106
0.0132116
0.013531
0.0139893
0.014411
0.0147497
0.0149536
0.0150082
0.014941
0.0147798
0.0145456
0.0142546
0.0139184
0.0135553
0.0131862
0.0128084
0.0123774
0.0117353
0.0107902
0.00944203
0.00763807
0.0053847
0.00270919
0.00026813
0.000362167
0.00326576
0.00659027
0.00905343
0.0108945
0.012282
0.013232
0.0138184
0.0141749
0.0145406
0.0149578
0.0152807
0.0154743
0.0155331
0.0154836
0.0153444
0.0151274
0.0148431
0.0145129
0.0141631
0.0138103
0.013442
0.0129816
0.0123077
0.0113058
0.00988276
0.007975
0.00548812
0.00260798
0.000262296
0.00036072
0.00325449
0.00643918
0.00885154
0.0106922
0.012113
0.0131827
0.0139676
0.0145286
0.0150221
0.0154758
0.0158161
0.0160194
0.016135
0.016135
0.0160431
0.0158488
0.0155597
0.015194
0.0148118
0.0144529
0.0140893
0.0135703
0.0127909
0.0117151
0.0102651
0.00831249
0.00563582
0.00248761
0.000268462
0.000352451
0.00327464
0.00624199
0.00855425
0.0103528
0.011773
0.0129136
0.0138269
0.0145498
0.0152266
0.0158576
0.0163291
0.0166285
0.0167824
0.0168817
0.0169178
0.0167897
0.0164945
0.0160214
0.0155188
0.015061
0.014608
0.01395
0.0130705
0.0119411
0.010483
0.0085553
0.00593516
0.00266878
0.000288865
0.000342414
0.00323544
0.00607079
0.00830109
0.0100598
0.0114764
0.0126398
0.0136038
0.014438
0.0152089
0.0159386
0.0165442
0.0170099
0.0173689
0.0176705
0.0178761
0.0178843
0.017605
0.0170064
0.0162855
0.0156483
0.0150044
0.0142452
0.0133065
0.0121365
0.0106561
0.00874292
0.00620876
0.00293328
0.000318568
0.000333127
0.00317541
0.00594364
0.00812249
0.009852
0.0112712
0.0124637
0.0134877
0.014394
0.0152175
0.0159664
0.0166046
0.0171614
0.0176974
0.0182447
0.0186612
0.0188119
0.018598
0.0180195
0.0171326
0.0162354
0.0154259
0.0145746
0.0135747
0.0123589
0.0108476
0.00891938
0.00638431
0.00315181
0.000347113
0.000324212
0.00311302
0.0058495
0.00800263
0.0097254
0.0111595
0.0123896
0.0134704
0.0144382
0.0153097
0.0160845
0.0167638
0.0173964
0.018031
0.0186207
0.0190599
0.0192494
0.0191011
0.0186417
0.0177826
0.0168124
0.0159006
0.014955
0.0138821
0.0126033
0.0110388
0.00907326
0.0065171
0.00332423
0.000362106
0.000316375
0.00305424
0.00577897
0.00793675
0.00967981
0.0111474
0.012425
0.013559
0.0145762
0.0154861
0.0162952
0.0170267
0.0177345
0.0184331
0.0190304
0.0193409
0.0193026
0.0190898
0.018743
0.0182001
0.0173649
0.0164244
0.0154032
0.0142425
0.0128751
0.0112287
0.00920011
0.00661384
0.00340536
0.000369276
0.000309226
0.00300179
0.00573047
0.00791914
0.00971058
0.0112319
0.0125629
0.0137433
0.0147986
0.0157409
0.0165914
0.0173832
0.0181751
0.0189336
0.0194414
0.0195444
0.0193527
0.0190792
0.0188004
0.0184375
0.0178589
0.0169808
0.0159154
0.0146649
0.0131838
0.0114273
0.00931464
0.0066957
0.00346462
0.00037282
0.000303186
0.00296555
0.0057151
0.00795931
0.00982064
0.0114046
0.0127873
0.0140067
0.0150893
0.0160608
0.016954
0.0178186
0.0186734
0.0193887
0.019729
0.0196882
0.0194514
0.0191787
0.0189288
0.0186799
0.0182695
0.0175277
0.0164692
0.0151397
0.0135309
0.0116401
0.0094279
0.00676773
0.0035132
0.000375474
0.000298451
0.0029548
0.00574833
0.00806712
0.0100079
0.0116534
0.0130761
0.0143204
0.0154222
0.0164171
0.0173498
0.0182545
0.0191009
0.0196982
0.019893
0.0197926
0.0195785
0.0193477
0.0191232
0.0188969
0.0185642
0.0179641
0.0169985
0.0156401
0.0139055
0.0118663
0.00953879
0.0068213
0.00354627
0.000377568
0.000295373
0.00297742
0.00584136
0.00824251
0.0102544
0.0119471
0.0133938
0.0146487
0.0157586
0.0167668
0.0177115
0.0186077
0.0193782
0.0198417
0.0199666
0.019864
0.0196866
0.0195014
0.0193032
0.0190731
0.0187524
0.0182363
0.0173921
0.0160912
0.0142756
0.0120898
0.00964161
0.00684715
0.00354526
0.000378339
0.000295323
0.00301916
0.00597496
0.00845724
0.0105244
0.0122466
0.0137046
0.0149628
0.0160733
0.0170761
0.0180036
0.0188606
0.0195437
0.0199196
0.0200019
0.019905
0.0197495
0.019588
0.0194033
0.0191702
0.0188531
0.0183668
0.017603
0.0163922
0.0145665
0.0122706
0.00973337
0.006858
0.00351967
0.000381088
0.000297987
0.00308367
0.00613231
0.00868789
0.0107976
0.0125369
0.0139948
0.0152456
0.0163455
0.017331
0.0182314
0.0190442
0.0196539
0.0199651
0.0200186
0.0199158
0.0197614
0.0195984
0.0194076
0.0191649
0.018848
0.0183816
0.0176702
0.0165003
0.0146949
0.0123777
0.00982808
0.00691553
0.00355004
0.000383709
0.00030195
0.00315102
0.00629724
0.00892711
0.0110695
0.0128072
0.0142468
0.0154783
0.0165635
0.0175333
0.0184075
0.0191627
0.0197046
0.0199767
0.0200083
0.0198899
0.0197225
0.0195406
0.0193291
0.0190724
0.0187468
0.0183157
0.0176423
0.0164512
0.014647
0.0124199
0.00992499
0.00702893
0.00362831
0.000385285
0.00030741
0.00324032
0.00649608
0.00920214
0.0113655
0.013073
0.0144661
0.0156588
0.0167131
0.0176661
0.0185163
0.0192101
0.019702
0.0199502
0.0199579
0.0198184
0.0196278
0.0194168
0.0191776
0.0189018
0.0185685
0.0181609
0.0175016
0.0163208
0.0145284
0.0124085
0.00999071
0.00713699
0.00370535
0.000384695
0.000313307
0.00333941
0.00674597
0.00956041
0.0117369
0.0133492
0.0146496
0.015786
0.0167957
0.0177221
0.0185434
0.0191975
0.0196593
0.0198799
0.0198565
0.0196902
0.01947
0.0192219
0.0189505
0.0186524
0.0183121
0.0179125
0.017242
0.0160945
0.0143802
0.0123643
0.00999436
0.00717319
0.0037306
0.000380628
0.000324854
0.00345327
0.00710384
0.0100267
0.012074
0.0135355
0.0147477
0.0158445
0.0168109
0.0177194
0.0185184
0.0191498
0.0195786
0.0197613
0.0197075
0.0194979
0.0192524
0.0189634
0.0186595
0.0183401
0.017991
0.0175864
0.0169013
0.0158045
0.0142191
0.0122859
0.0099414
0.00712336
0.00367871
0.000373493
0.000343766
0.00365052
0.00743494
0.0102373
0.0121659
0.0136634
0.014861
0.0158419
0.0167619
0.0176985
0.0185194
0.019115
0.0194754
0.0195859
0.0195176
0.0193029
0.0190162
0.0186949
0.0183612
0.0180182
0.0176591
0.0172371
0.0165686
0.015516
0.0140416
0.0121864
0.00987729
0.00704394
0.00357217
0.000362362
0.00036168
0.00384373
0.00748675
0.0101211
0.0120436
0.0136023
0.014862
0.0158996
0.01684
0.0177394
0.0186092
0.0192302
0.0194639
0.0194851
0.0193907
0.019177
0.0188757
0.0185298
0.0181702
0.0177964
0.0174104
0.0169623
0.0163075
0.0152887
0.0138916
0.0121026
0.00983679
0.00699907
0.00350424
0.00035234
0.000368145
0.00394493
0.00747882
0.00997211
0.0118811
0.0134624
0.0147504
0.0158273
0.0168178
0.0177924
0.0187287
0.0193907
0.0195942
0.0195648
0.0194424
0.0192191
0.0189323
0.0186024
0.0182371
0.0178423
0.0174262
0.01692
0.0161855
0.0151553
0.0138056
0.0120744
0.00985034
0.00701455
0.00350907
0.000346691
0.000364717
0.00392675
0.007416
0.00982329
0.0116999
0.0132793
0.0145738
0.0156648
0.0166757
0.0176807
0.0185935
0.019254
0.0195585
0.0196088
0.019512
0.0193256
0.0190867
0.0187983
0.018461
0.0180754
0.0176377
0.0170628
0.0162233
0.0151123
0.0137839
0.0121334
0.00996794
0.00710428
0.00353792
0.00034454
0.000363632
0.00377874
0.00727157
0.00963768
0.0114929
0.0130588
0.0143486
0.0154399
0.0164509
0.017439
0.0182783
0.0188544
0.0192042
0.0193583
0.0193566
0.0192474
0.0190693
0.0188312
0.0185124
0.0181127
0.0176077
0.0169457
0.0160758
0.0149816
0.0136866
0.0121467
0.0101155
0.00730757
0.00359721
0.000344975
0.000362124
0.00376832
0.00713328
0.00943772
0.0112611
0.0128024
0.0140793
0.0151674
0.0161728
0.0171331
0.0179083
0.0184039
0.0187164
0.0188996
0.0189596
0.0189171
0.0187881
0.0185715
0.018259
0.0178364
0.0172862
0.0165901
0.0157211
0.0146676
0.0134049
0.0118904
0.00997921
0.00735687
0.00372814
0.000346732
0.000362551
0.00375606
0.00697199
0.00920525
0.0109948
0.0125094
0.0137735
0.0148584
0.0158575
0.016792
0.0175233
0.0179678
0.0182411
0.0184091
0.0184798
0.0184552
0.0183392
0.0181295
0.0178191
0.0173964
0.0168489
0.0161641
0.015323
0.0143043
0.0130731
0.0115736
0.00970588
0.00722456
0.0037877
0.000350645
0.000360055
0.00365966
0.00676563
0.00893871
0.0106931
0.0121852
0.0134422
0.0145278
0.015524
0.0164379
0.0171371
0.0175494
0.0177947
0.0179436
0.0180064
0.0179809
0.0178656
0.0176564
0.0173472
0.0169293
0.016393
0.0157274
0.0149149
0.0139301
0.0127338
0.0112634
0.00942538
0.00701707
0.00368152
0.000352496
0.000352233
0.00355259
0.00654753
0.00865425
0.0103736
0.0118474
0.0131011
0.0141901
0.0151863
0.0160837
0.0167545
0.0171417
0.0173661
0.0174982
0.0175491
0.0175162
0.0173955
0.017183
0.0168738
0.0164613
0.0159373
0.015291
0.0145054
0.0135537
0.0123953
0.0109673
0.00917622
0.00682779
0.0035871
0.000349844
0.000339009
0.00344738
0.00633996
0.00838311
0.0100661
0.0115203
0.0127682
0.0138601
0.0148573
0.0157389
0.0163783
0.0167408
0.0169475
0.0170641
0.0171019
0.0170588
0.0169305
0.0167134
0.0164043
0.0159979
0.0154867
0.0148597
0.0141003
0.0131819
0.0120636
0.0106835
0.00895212
0.00667122
0.00351125
0.000342185
0.000325024
0.00332912
0.00614676
0.00814565
0.00979496
0.0112255
0.012461
0.013552
0.0145463
0.0154063
0.0160069
0.0163436
0.0165343
0.0166363
0.016661
0.0166071
0.0164713
0.0162507
0.0159427
0.0155431
0.0150449
0.0144374
0.0137044
0.01282
0.011744
0.0104162
0.0087455
0.00652404
0.00342895
0.000334326
0.000313962
0.00320123
0.0059643
0.00794097
0.00956793
0.0109743
0.0121926
0.013275
0.014256
0.0150833
0.0156382
0.0159484
0.016124
0.0162129
0.0162257
0.0161619
0.01602
0.0157974
0.0154917
0.0150996
0.0146148
0.0140273
0.0133217
0.0124727
0.0114414
0.0101687
0.00856064
0.0063932
0.0033542
0.000325035
0.000303131
0.00308149
0.00579906
0.00777189
0.00938589
0.0107669
0.0119627
0.013028
0.0139846
0.014768
0.0152724
0.0155554
0.0157164
0.0157938
0.0157964
0.015725
0.0155783
0.0153548
0.0150528
0.0146691
0.0141986
0.0136322
0.0129549
0.0121427
0.0111574
0.00994094
0.00839523
0.00627414
0.00327959
0.000315828
0.000293441
0.00298227
0.00566658
0.00764581
0.00924995
0.0106007
0.0117695
0.0128096
0.0137344
0.0144587
0.0149087
0.0151657
0.0153134
0.0153805
0.0153744
0.0152969
0.0151472
0.0149243
0.014627
0.0142531
0.0137979
0.0132534
0.0126055
0.011831
0.0108927
0.00973315
0.00824461
0.00615963
0.00320477
0.000305474
0.00028428
0.00290899
0.00557071
0.00756123
0.00915342
0.0104738
0.0116092
0.0126186
0.0135009
0.0141507
0.0145481
0.0147821
0.0149173
0.0149754
0.0149617
0.0148788
0.0147271
0.0145061
0.014215
0.0138519
0.0134131
0.0128913
0.0122732
0.0115365
0.0106447
0.00954119
0.0081003
0.00604083
0.00311964
0.000291808
0.000276841
0.00285543
0.00549294
0.00750048
0.00908041
0.0103729
0.0114748
0.0124508
0.0132706
0.0138406
0.0141927
0.0144068
0.0145298
0.0145794
0.014559
0.0144717
0.0143188
0.0141008
0.013817
0.013466
0.0130445
0.0125459
0.0119576
0.0112582
0.0104113
0.00935733
0.00794966
0.00590213
0.00301322
0.00027698
0.000268278
0.00279538
0.00540828
0.0074348
0.00901033
0.0102828
0.0113579
0.0122919
0.0130355
0.013533
0.0138461
0.0140414
0.0141516
0.0141926
0.014166
0.0140752
0.0139224
0.0137085
0.0134331
0.0130951
0.0126917
0.0122166
0.0116581
0.0109948
0.0101887
0.0091729
0.00778575
0.00573948
0.00289493
0.000265
0.000258882
0.00271957
0.00530873
0.00734498
0.00892516
0.0101919
0.0112446
0.0121243
0.0127878
0.0132261
0.0135066
0.0136832
0.0137805
0.0138131
0.0137815
0.0136885
0.0135369
0.0133282
0.0130623
0.0127382
0.0123534
0.0119022
0.0113728
0.0107431
0.00997406
0.00898672
0.00760536
0.00556153
0.00278464
0.000255648
0.000249174
0.00263006
0.0051799
0.00721704
0.00880706
0.0100833
0.0111118
0.0119235
0.0125152
0.0129115
0.0131649
0.013324
0.0134109
0.0134373
0.0134026
0.0133094
0.0131609
0.0129586
0.0127031
0.0123938
0.0120285
0.0116013
0.0111001
0.0105018
0.0097637
0.00879463
0.00741121
0.00538089
0.00269207
0.000247565
0.000239208
0.00252861
0.00503015
0.00705348
0.00864184
0.0099264
0.0109315
0.0116749
0.0122141
0.0125763
0.0128083
0.0129552
0.0130369
0.0130609
0.0130262
0.0129357
0.0127922
0.0125978
0.0123539
0.0120603
0.0117146
0.0113109
0.010836
0.0102667
0.00955513
0.00859666
0.00720994
0.00520391
0.00260356
0.000240936
0.000230657
0.00244735
0.004902
0.00690463
0.00847461
0.00971471
0.0106673
0.0113616
0.0118656
0.0122069
0.0124289
0.0125728
0.0126552
0.0126812
0.0126498
0.0125646
0.0124282
0.0122434
0.0120122
0.0117349
0.0114091
0.0110281
0.0105782
0.0100339
0.00934199
0.00838971
0.00700298
0.00503795
0.0025239
0.000234312
0.000225923
0.00240271
0.00482337
0.00678284
0.00829955
0.00946598
0.0103454
0.0109924
0.0114673
0.0118048
0.0120307
0.0121794
0.0122656
0.0122966
0.0122709
0.0121926
0.0120652
0.0118916
0.0116745
0.011414
0.0111079
0.0107487
0.0103225
0.00980077
0.00912246
0.00817409
0.00679728
0.00488667
0.00245304
0.000228145
0.000223296
0.00237373
0.00475463
0.00665565
0.00810423
0.0091983
0.0100098
0.0106023
0.0110458
0.0113842
0.0116203
0.0117778
0.0118686
0.0119042
0.0118849
0.0118143
0.0116976
0.0115373
0.0113357
0.011093
0.0108069
0.0104689
0.010064
0.00956127
0.00889541
0.00795409
0.00660079
0.0047519
0.00239105
0.000222905
0.000222085
0.00234117
0.00467373
0.00651177
0.00789426
0.0089263
0.0096802
0.0102272
0.0106363
0.0109532
0.0111984
0.011364
0.0114586
0.0114967
0.0114833
0.0114216
0.0113176
0.0111732
0.0109894
0.0107654
0.0104992
0.010182
0.00979759
0.00931198
0.00865908
0.00773103
0.00641433
0.00462987
0.002335
0.000218435
0.000220917
0.0022879
0.00454997
0.00632453
0.00765096
0.00863342
0.00934928
0.00985875
0.0102303
0.0105179
0.0107561
0.0109241
0.0110215
0.0110629
0.0110562
0.0110055
0.0109162
0.0107905
0.010627
0.0104233
0.0101783
0.00988076
0.0095136
0.00904478
0.00840631
0.0075
0.00623003
0.00451054
0.00228042
0.00021417
0.000216744
0.00220134
0.00436872
0.00607717
0.00736159
0.00831328
0.00900832
0.00949243
0.00982695
0.0100785
0.0102892
0.0104507
0.010547
0.0105931
0.0105955
0.0105586
0.0104858
0.0103791
0.0102369
0.0100563
0.00983202
0.00955053
0.00919911
0.00874482
0.00812237
0.00724726
0.00603097
0.00437937
0.00222057
0.000209737
0.000208424
0.00210063
0.00417955
0.00582677
0.00706983
0.00799316
0.00866801
0.0091364
0.00944028
0.00964802
0.00981615
0.00995511
0.0100475
0.0100998
0.0101131
0.01009
0.0100319
0.00994028
0.00981385
0.0096497
0.00944016
0.00917427
0.00883703
0.00839674
0.00779481
0.00695625
0.00579627
0.00421965
0.00214768
0.000204826
0.000200234
0.00201774
0.00401375
0.00558803
0.00677991
0.0076699
0.00832172
0.0087761
0.00907348
0.00926318
0.00938866
0.00948747
0.00956617
0.00961581
0.00963348
0.00961844
0.0095703
0.00948838
0.00937163
0.00921767
0.00902165
0.0087752
0.00845845
0.0080305
0.00744043
0.00662951
0.00552029
0.00402075
0.00205448
0.000199373
0.000194156
0.00195657
0.00385305
0.00533897
0.00647805
0.00733586
0.00796635
0.00841541
0.00872509
0.00892343
0.00903831
0.00910628
0.00915448
0.00918598
0.00919711
0.00918209
0.00913909
0.00906692
0.00896594
0.00883481
0.00866427
0.008434
0.00811602
0.00767675
0.0070808
0.00628349
0.00521503
0.00378772
0.00193827
0.000192983
0.000191325
0.00187198
0.00365711
0.00506617
0.00616633
0.00700825
0.00763514
0.00809027
0.00840856
0.0086163
0.00874093
0.00881025
0.00884583
0.00885929
0.00885526
0.0088329
0.00879062
0.00872603
0.00863658
0.00851613
0.00834862
0.00810996
0.00777805
0.00732905
0.00673293
0.00594773
0.00491016
0.00354261
0.00180279
0.000185149
0.000186854
0.00176403
0.00342842
0.00479084
0.00587943
0.00672057
0.00735202
0.0078125
0.00813379
0.00834553
0.00847733
0.00855406
0.00859232
0.00860327
0.00859278
0.00856331
0.00851485
0.00844468
0.00834728
0.00821387
0.00803128
0.00778103
0.00744209
0.00699147
0.00640099
0.00563094
0.00462367
0.00331048
0.00166657
0.000175767
0.000179968
0.00161834
0.00320193
0.00455092
0.00563903
0.00648466
0.00712288
0.00758722
0.00790855
0.00811866
0.00824991
0.00832649
0.00836303
0.00837063
0.00835434
0.00831673
0.00825776
0.00817471
0.00806241
0.00791339
0.0077171
0.00745784
0.00711552
0.00666735
0.00608597
0.00533394
0.004359
0.00310081
0.00154604
0.000165823
0.000168955
0.00147995
0.00301834
0.00436117
0.00545502
0.00631003
0.00695662
0.00742361
0.00774051
0.00794138
0.00806286
0.00812966
0.0081566
0.00815431
0.00812718
0.0080778
0.0080061
0.00790962
0.00778382
0.00762208
0.00741495
0.00714853
0.00680432
0.00636026
0.00578967
0.00505734
0.00411602
0.00291289
0.00144078
0.000156717
0.000157026
0.00134293
0.00288571
0.00423453
0.00534423
0.00621036
0.00685907
0.00732168
0.00762535
0.00780788
0.00791115
0.00796045
0.00797245
0.00795522
0.00791394
0.00785092
0.00776602
0.0076569
0.00751929
0.00734693
0.00713094
0.00685869
0.00651325
0.00607367
0.00551422
0.00480179
0.00389362
0.00274307
0.00134714
0.000148849
0.000148291
0.00128602
0.00284077
0.00420858
0.0053236
0.00618222
0.00680855
0.00724944
0.00753141
0.00769113
0.00777474
0.00780739
0.00780331
0.00777111
0.00771586
0.00763975
0.00754259
0.0074221
0.00727417
0.00709272
0.00686931
0.00659221
0.00624584
0.00581046
0.00526154
0.00456808
0.00369131
0.00259031
0.00126695
0.000141795
0.000144833
0.00132127
0.00291015
0.00428371
0.00536498
0.00615581
0.00672041
0.0071279
0.00739754
0.00755257
0.00762725
0.00765166
0.00763857
0.00759677
0.00753156
0.00744542
0.00733842
0.00720854
0.00705194
0.00686281
0.0066331
0.00635184
0.00600455
0.00557272
0.00503317
0.00435694
0.0035088
0.00245322
0.00119617
0.000135383
0.000145367
0.00138901
0.00303463
0.0043889
0.00536384
0.0060583
0.00657194
0.00695187
0.00721095
0.00737031
0.0074508
0.00748085
0.00747006
0.00742743
0.0073589
0.00726768
0.0071545
0.00701796
0.00685469
0.00665932
0.00642429
0.00613934
0.00579093
0.00536176
0.00483006
0.00416887
0.00334595
0.00233069
0.00113237
0.000129557
0.000150469
0.00153532
0.00321664
0.00443722
0.00529301
0.00592262
0.0064017
0.00675385
0.00699125
0.00715029
0.00724609
0.00729328
0.00729517
0.00726054
0.00719599
0.0071055
0.00699062
0.00685072
0.00668314
0.00648314
0.00624376
0.00595545
0.00560563
0.00517813
0.00465259
0.00400399
0.00320277
0.0022223
0.00107479
0.000124315
0.00016216
0.00167038
0.00328216
0.00438012
0.00514996
0.00574451
0.00618643
0.00650826
0.00672732
0.00689381
0.00701932
0.00709261
0.00711495
0.0070956
0.00704164
0.00695759
0.00684568
0.00670606
0.00653683
0.006334
0.00609131
0.00579999
0.0054484
0.00502152
0.00450045
0.003862
0.00307916
0.00212829
0.00102396
0.000119677
0.000173746
0.0017273
0.00320711
0.00423695
0.00493903
0.00548771
0.00590093
0.00619307
0.00641898
0.00661979
0.00678319
0.0068859
0.00693286
0.00693371
0.00689549
0.00682281
0.00671826
0.00658255
0.00641447
0.00621074
0.00596587
0.00567192
0.00531821
0.00489093
0.00437266
0.00374212
0.00297475
0.00204922
0.000981454
0.000115695
0.000184645
0.00168522
0.00307549
0.00399972
0.00464685
0.00515243
0.00553827
0.00584442
0.0061144
0.00635863
0.0065518
0.00668145
0.00675385
0.00677745
0.0067584
0.00670084
0.00660731
0.00647878
0.0063145
0.0061118
0.0058659
0.00556972
0.00521357
0.00478489
0.00426783
0.0036431
0.00288865
0.00198518
0.000948937
0.000112436
0.000186931
0.00159307
0.00282485
0.00365353
0.00421499
0.00475803
0.00520319
0.00555166
0.00585365
0.00612082
0.00633375
0.00648645
0.0065834
0.00663054
0.0066325
0.00659254
0.00651276
0.00639405
0.00623583
0.00603587
0.00578999
0.00549191
0.00513296
0.00470188
0.00418444
0.00356341
0.00281924
0.00193479
0.000926034
0.000109933
0.000181526
0.00137152
0.00242753
0.00316593
0.00383008
0.0044238
0.00490055
0.0052869
0.00561835
0.00590264
0.00613313
0.00630682
0.0064271
0.0064976
0.00652127
0.00650025
0.00643598
0.00632895
0.00617851
0.0059826
0.00573751
0.00543767
0.00507543
0.0046408
0.00412127
0.00350164
0.0027648
0.00189577
0.00090996
0.000108185
0.000167648
0.00114468
0.00210942
0.00288269
0.0035602
0.00415232
0.0046445
0.00505509
0.00540684
0.00570639
0.00595395
0.00614813
0.00629082
0.00638409
0.00642939
0.00642783
0.00637997
0.00628573
0.00614411
0.00595306
0.00570914
0.00540741
0.00504112
0.00460158
0.00407799
0.00345727
0.00272453
0.00186664
0.000898336
0.000107133
0.000154087
0.000938796
0.00187519
0.00266488
0.00334841
0.00393816
0.00443553
0.00485901
0.00522456
0.00553848
0.00580242
0.00601677
0.00618102
0.00629619
0.0063626
0.00638039
0.0063492
0.00626819
0.00613589
0.00594996
0.00570713
0.00540297
0.00503166
0.00458568
0.00405582
0.00343093
0.00269852
0.00184721
0.000890981
0.000106666
0.000143948
0.000818953
0.00171412
0.00250478
0.00319128
0.00377662
0.00427371
0.00470335
0.00507901
0.00540631
0.00568654
0.00591946
0.0061045
0.00624032
0.00632681
0.00636342
0.00634895
0.00628131
0.00615856
0.00597774
0.00573524
0.00542698
0.00504838
0.00459398
0.00405639
0.00342622
0.00269152
0.00184141
0.000888769
0.000106527
0.00013593
0.000761983
0.00161833
0.00240478
0.00308867
0.00366629
0.00416025
0.00459332
0.00497762
0.00531757
0.00561331
0.00586354
0.00606672
0.00622174
0.00632638
0.00637779
0.00637629
0.00632097
0.00620789
0.00603306
0.00579247
0.00548212
0.0050977
0.00463401
0.00408492
0.00344282
0.00269868
0.00184325
0.000889067
0.000106679
0.000129658
0.000739189
0.00158294
0.00237044
0.00304374
0.00360868
0.00409809
0.00453412
0.00492655
0.00527839
0.00558772
0.00585278
0.00607089
0.00624135
0.00636299
0.0064339
0.00645145
0.00641237
0.0063132
0.00614757
0.00590994
0.0055952
0.00519975
0.00472001
0.0041519
0.00349029
0.00272826
0.00185845
0.000894198
0.000107503
0.000124821
0.000738087
0.00161715
0.00240448
0.00305247
0.00360243
0.00408838
0.00452892
0.00492862
0.00528794
0.0056087
0.00588679
0.0061201
0.00630717
0.00644756
0.00653648
0.00657289
0.0065502
0.0064629
0.00630501
0.00606961
0.0057509
0.00534472
0.0048485
0.00425986
0.00357524
0.00278906
0.00189524
0.000908125
0.000108989
0.000121209
0.000785772
0.00169286
0.00246514
0.0030968
0.00363877
0.00412271
0.00456511
0.0049753
0.00534821
0.00568065
0.00597051
0.00621446
0.00641212
0.00656204
0.00666549
0.00671839
0.00671722
0.00665074
0.00650988
0.00628371
0.00596391
0.0055473
0.00503267
0.00441959
0.00370572
0.00288655
0.00195701
0.000932533