/*--------------------------------*- C++ -*----------------------------------*\
| =========                 |                                                 |
| \\      /  F ield         | OpenFOAM: The Open Source CFD Toolbox           |
|  \\    /   O peration     | Version:  v1606+                                |
|   \\  /    A nd           | Web:      www.OpenFOAM.com                      |
|    \\/     M anipulation  |                                                 |
\*---------------------------------------------------------------------------*/
FoamFile
{
    version     2.0;
    format      ascii;
    class       volScalarField;
    location    "1.57";
    object      p;
}
// * * * * * * * * * * * * * * * * * * * * * * * * * * * * * * * * * * * * * //

dimensions      [1 -1 -2 0 0 0 0];

internalField   nonuniform List<scalar> 
6000
(
107705
107702
107696
107687
107678
107672
107667
107665
107667
107671
107674
107676
107678
107679
107678
107674
107668
107661
107653
107648
107647
107650
107657
107668
107678
107687
107694
107698
107700
107702
107648
107646
107642
107634
107624
107614
107603
107595
107591
107589
107591
107592
107591
107589
107586
107584
107582
107580
107574
107571
107575
107586
107599
107611
107621
107627
107630
107630
107629
107629
107617
107618
107615
107607
107597
107585
107572
107561
107552
107546
107543
107542
107538
107532
107525
107525
107530
107532
107530
107530
107536
107549
107566
107580
107589
107591
107588
107580
107575
107575
107552
107559
107565
107565
107560
107550
107538
107525
107514
107505
107496
107489
107481
107472
107465
107465
107470
107476
107481
107486
107493
107503
107520
107531
107533
107525
107507
107492
107487
107488
107464
107471
107489
107507
107515
107514
107505
107491
107480
107470
107460
107450
107439
107431
107427
107425
107425
107431
107439
107446
107451
107457
107467
107472
107461
107440
107424
107418
107416
107414
107404
107405
107409
107426
107450
107464
107465
107455
107445
107436
107428
107419
107409
107403
107400
107397
107395
107397
107403
107409
107413
107415
107415
107412
107393
107381
107378
107376
107375
107373
107368
107367
107366
107369
107381
107406
107417
107417
107412
107405
107398
107391
107383
107377
107374
107371
107368
107368
107372
107376
107380
107379
107374
107364
107355
107352
107350
107347
107344
107343
107338
107338
107338
107338
107340
107353
107369
107379
107381
107377
107371
107364
107357
107352
107348
107345
107342
107341
107343
107346
107349
107345
107336
107328
107328
107328
107325
107320
107314
107312
107310
107312
107314
107316
107317
107320
107328
107341
107349
107349
107345
107338
107332
107327
107323
107320
107317
107315
107314
107315
107314
107304
107292
107288
107293
107296
107294
107290
107284
107281
107284
107287
107291
107293
107295
107291
107289
107298
107308
107313
107312
107309
107306
107303
107299
107296
107292
107289
107285
107280
107268
107249
107230
107225
107230
107236
107240
107246
107248
107247
107249
107252
107255
107257
107253
107239
107228
107231
107244
107257
107266
107271
107273
107274
107272
107270
107265
107259
107249
107233
107206
107174
107147
107134
107131
107131
107149
107174
107193
107201
107185
107181
107177
107174
107163
107146
107134
107139
107155
107176
107197
107215
107226
107232
107235
107233
107227
107215
107196
107165
107124
107084
107050
107024
107016
107031
107054
107080
107110
107131
107079
107064
107057
107062
107050
107027
107017
107030
107055
107082
107110
107136
107156
107167
107173
107170
107159
107139
107109
107068
107026
106987
106955
106946
106952
106970
106990
107008
107024
107040
106969
106959
106955
106956
106937
106905
106892
106910
106948
106985
107019
107046
107065
107075
107074
107066
107049
107023
106991
106956
106927
106912
106908
106912
106921
106934
106950
106962
106969
106973
106894
106891
106885
106873
106848
106815
106802
106807
106843
106891
106930
106957
106970
106970
106958
106942
106926
106911
106898
106887
106882
106883
106888
106895
106902
106909
106921
106930
106935
106935
106847
106843
106835
106817
106794
106774
106764
106762
106772
106807
106849
106879
106892
106887
106882
106877
106873
106869
106866
106865
106867
106871
106877
106882
106887
106892
106899
106904
106907
106908
106810
106805
106797
106783
106767
106755
106750
106747
106747
106759
106789
106820
106838
106846
106851
106854
106856
106856
106856
106857
106859
106862
106867
106871
106874
106876
106879
106882
106882
106883
106779
106774
106769
106760
106751
106744
106742
106741
106740
106744
106759
106784
106805
106822
106834
106841
106845
106846
106848
106849
106850
106853
106856
106859
106861
106859
106856
106856
106856
106855
106751
106749
106746
106742
106739
106737
106735
106734
106733
106736
106744
106761
106781
106798
106813
106824
106831
106835
106837
106838
106840
106842
106845
106846
106842
106833
106823
106818
106817
106815
106722
106724
106725
106726
106728
106730
106728
106727
106726
106727
106731
106741
106756
106771
106785
106799
106811
106819
106823
106825
106827
106829
106830
106825
106810
106788
106771
106762
106758
106756
106687
106692
106697
106705
106716
106723
106722
106720
106719
106718
106719
106722
106728
106738
106750
106765
106781
106795
106803
106806
106809
106809
106804
106784
106750
106720
106700
106689
106684
106681
106635
106642
106650
106665
106690
106710
106714
106713
106711
106710
106706
106700
106698
106699
106706
106718
106735
106755
106770
106776
106779
106773
106750
106705
106662
106632
106616
106607
106602
106600
106568
106571
106575
106588
106620
106667
106692
106697
106698
106696
106684
106669
106654
106647
106647
106654
106668
106688
106708
106719
106718
106695
106644
106589
106550
106528
106519
106516
106515
106513
106493
106489
106481
106474
106491
106545
106613
106645
106661
106656
106634
106607
106584
106572
106568
106570
106577
106590
106606
106614
106600
106555
106493
106444
106413
106405
106412
106420
106424
106422
106416
106400
106378
106367
106371
106388
106434
106490
106549
106547
106525
106503
106486
106476
106472
106470
106471
106474
106477
106468
106437
106383
106318
106273
106253
106263
106294
106317
106329
106325
106343
106330
106321
106319
106320
106324
106333
106347
106366
106384
106384
106379
106375
106373
106369
106364
106359
106352
106341
106317
106271
106208
106154
106128
106121
106135
106163
106204
106231
106236
106303
106299
106297
106298
106298
106297
106295
106292
106285
106280
106275
106272
106274
106270
106266
106255
106243
106229
106212
106181
106126
106080
106061
106056
106056
106060
106072
106103
106134
106149
106283
106282
106282
106281
106279
106277
106271
106264
106251
106237
106222
106208
106199
106192
106175
106144
106117
106097
106089
106064
106036
106022
106021
106022
106023
106024
106027
106039
106057
106074
106267
106267
106266
106264
106262
106258
106251
106242
106229
106213
106194
106176
106157
106133
106098
106052
106007
105983
105982
105986
105986
105990
105995
105998
106000
106000
106000
106001
106005
106018
106249
106249
106249
106247
106245
106240
106233
106223
106209
106192
106173
106154
106128
106088
106034
105981
105943
105925
105921
105932
105949
105962
105970
105975
105977
105978
105977
105975
105974
105979
106229
106230
106230
106229
106226
106222
106214
106203
106188
106171
106152
106129
106095
106043
105981
105933
105907
105896
105893
105901
105918
105933
105945
105952
105956
105957
105957
105955
105954
105955
106208
106209
106209
106208
106206
106200
106192
106180
106164
106146
106125
106097
106052
105987
105927
105895
105883
105878
105876
105877
105888
105903
105917
105928
105935
105938
105938
105937
105937
105936
106184
106185
106185
106185
106181
106175
106165
106152
106135
106115
106090
106053
105994
105924
105880
105865
105862
105861
105860
105858
105862
105873
105888
105902
105913
105919
105920
105920
105920
105920
106156
106157
106157
106155
106151
106143
106131
106115
106097
106074
106044
105996
105928
105870
105848
105844
105844
105844
105844
105842
105842
105848
105860
105876
105892
105901
105904
105905
105905
105905
106121
106123
106122
106119
106112
106101
106086
106069
106048
106022
105986
105933
105871
105838
105831
105830
105830
105830
105830
105830
105828
105830
105838
105852
105872
105885
105890
105891
105891
105891
106080
106081
106079
106073
106064
106051
106035
106016
105994
105966
105930
105881
105837
105822
105820
105820
105820
105819
105820
105820
105820
105820
105823
105834
105854
105870
105877
105879
105879
105880
106032
106032
106028
106021
106010
105996
105980
105962
105940
105915
105883
105844
105818
105811
105811
105812
105812
105812
105813
105813
105814
105815
105816
105823
105840
105856
105864
105867
105868
105869
105980
105978
105973
105965
105953
105941
105927
105911
105892
105870
105845
105817
105804
105802
105803
105804
105806
105807
105807
105809
105810
105811
105812
105819
105830
105843
105851
105855
105857
105857
105926
105923
105916
105905
105892
105882
105873
105863
105849
105833
105815
105800
105794
105795
105796
105798
105800
105801
105803
105804
105805
105807
105809
105816
105822
105830
105836
105841
105844
105843
105871
105867
105856
105840
105822
105816
105816
105815
105810
105803
105794
105788
105787
105788
105790
105792
105794
105796
105798
105800
105801
105803
105805
105809
105810
105816
105821
105825
105828
105827
105817
105812
105794
105768
105739
105741
105756
105766
105772
105776
105779
105780
105781
105782
105784
105787
105789
105792
105794
105796
105797
105799
105802
105801
105798
105802
105805
105808
105809
105808
105769
105761
105734
105706
105697
105697
105704
105718
105734
105746
105762
105771
105774
105776
105778
105781
105785
105788
105791
105792
105794
105796
105799
105792
105783
105784
105786
105787
105787
105787
105728
105720
105697
105684
105682
105682
105684
105691
105702
105710
105728
105754
105763
105768
105771
105775
105779
105783
105786
105788
105789
105792
105790
105775
105763
105761
105762
105764
105766
105768
105700
105693
105682
105677
105678
105677
105678
105680
105684
105688
105694
105712
105737
105751
105757
105762
105766
105769
105771
105774
105776
105777
105765
105743
105732
105732
105735
105739
105743
105746
105686
105680
105674
105673
105673
105673
105673
105675
105677
105678
105677
105681
105699
105718
105728
105732
105734
105734
105735
105736
105736
105728
105711
105695
105691
105698
105707
105714
105720
105723
105681
105674
105669
105668
105668
105668
105669
105670
105671
105671
105670
105669
105672
105680
105687
105690
105690
105689
105688
105686
105680
105671
105664
105662
105663
105668
105676
105691
105700
105704
105676
105669
105664
105664
105664
105664
105664
105664
105665
105665
105664
105662
105660
105660
105661
105662
105662
105661
105660
105658
105655
105651
105650
105649
105650
105651
105657
105668
105681
105686
105666
105662
105659
105659
105659
105659
105659
105659
105659
105659
105657
105656
105655
105653
105652
105652
105651
105651
105650
105649
105648
105648
105647
105647
105647
105647
105648
105655
105664
105669
105658
105656
105654
105654
105655
105655
105655
105654
105654
105652
105651
105650
105649
105648
105648
105647
105647
105646
105646
105645
105645
105644
105644
105644
105644
105644
105644
105646
105654
105656
105651
105651
105650
105651
105651
105651
105651
105650
105649
105647
105645
105644
105644
105643
105643
105642
105642
105642
105641
105641
105641
105641
105640
105640
105640
105640
105641
105641
105645
105646
105646
105647
105647
105647
105647
105647
105646
105645
105643
105641
105639
105639
105638
105638
105637
105637
105637
105637
105637
105637
105637
105637
105637
105637
105637
105637
105637
105637
105638
105639
105641
105643
105643
105643
105643
105642
105642
105640
105638
105635
105633
105633
105633
105633
105632
105632
105632
105632
105632
105632
105632
105632
105632
105633
105633
105633
105633
105634
105634
105633
105636
105638
105638
105638
105638
105638
105637
105635
105632
105629
105628
105628
105627
105627
105627
105627
105627
105628
105628
105628
105628
105628
105628
105628
105628
105629
105629
105629
105629
105628
105630
105632
105633
105633
105633
105632
105631
105629
105626
105623
105622
105622
105622
105622
105622
105622
105622
105623
105623
105623
105623
105623
105624
105624
105624
105624
105624
105625
105623
105621
105624
105626
105627
105627
105627
105627
105625
105623
105620
105617
105616
105617
105617
105617
105617
105617
105617
105618
105618
105618
105618
105618
105619
105619
105619
105619
105620
105620
105617
105614
105618
105619
105620
105621
105621
105620
105619
105617
105614
105611
105611
105611
105611
105612
105612
105612
105612
105612
105613
105613
105613
105613
105613
105614
105614
105614
105615
105614
105609
105607
105609
105610
105613
105614
105614
105614
105613
105611
105607
105605
105605
105606
105606
105606
105607
105607
105607
105607
105607
105607
105608
105608
105608
105608
105608
105609
105610
105608
105603
105602
105598
105600
105604
105606
105607
105608
105607
105604
105600
105600
105600
105600
105601
105601
105601
105601
105601
105602
105602
105602
105602
105602
105602
105602
105603
105603
105604
105603
105598
105598
105586
105589
105594
105598
105600
105601
105600
105596
105594
105594
105594
105595
105595
105596
105596
105596
105596
105596
105596
105596
105596
105596
105596
105596
105596
105597
105598
105597
105593
105592
105575
105578
105583
105588
105591
105594
105592
105589
105588
105589
105589
105590
105590
105590
105590
105590
105590
105590
105590
105590
105589
105589
105589
105589
105590
105590
105591
105590
105585
105582
105562
105564
105569
105575
105581
105586
105586
105584
105583
105583
105584
105584
105584
105585
105585
105584
105584
105584
105584
105583
105583
105583
105582
105582
105583
105583
105582
105580
105574
105571
105546
105547
105552
105559
105567
105577
105580
105579
105579
105579
105579
105579
105579
105579
105579
105578
105578
105578
105577
105577
105576
105576
105575
105575
105575
105574
105572
105567
105560
105557
105523
105523
105527
105535
105545
105559
105574
105576
105574
105574
105574
105573
105573
105573
105573
105572
105572
105571
105570
105570
105569
105568
105567
105567
105566
105564
105559
105551
105544
105541
105484
105485
105490
105499
105514
105536
105562
105570
105570
105569
105568
105568
105568
105567
105567
105566
105565
105565
105564
105562
105561
105560
105558
105558
105555
105551
105543
105532
105524
105520
105431
105433
105442
105456
105478
105506
105542
105560
105564
105563
105563
105562
105562
105561
105561
105560
105559
105558
105556
105555
105553
105551
105549
105547
105543
105535
105522
105508
105498
105494
105372
105378
105389
105408
105435
105469
105513
105543
105554
105556
105556
105556
105556
105555
105554
105553
105552
105550
105549
105547
105544
105542
105539
105534
105526
105512
105494
105477
105466
105460
105313
105321
105335
105357
105386
105424
105472
105517
105539
105546
105549
105549
105549
105548
105547
105546
105545
105543
105541
105538
105535
105532
105527
105518
105503
105481
105457
105438
105425
105419
105254
105263
105279
105301
105330
105369
105416
105470
105511
105531
105538
105540
105541
105540
105539
105538
105536
105534
105532
105529
105526
105520
105511
105495
105470
105440
105412
105391
105377
105370
105191
105198
105211
105231
105259
105296
105342
105397
105454
105497
105518
105526
105529
105529
105529
105528
105526
105524
105521
105518
105512
105502
105485
105458
105422
105386
105357
105334
105319
105312
105114
105119
105128
105147
105174
105210
105254
105307
105366
105422
105466
105491
105502
105508
105509
105509
105508
105505
105500
105493
105482
105461
105430
105391
105353
105318
105290
105268
105252
105244
105022
105026
105037
105057
105084
105117
105158
105204
105253
105306
105360
105405
105436
105453
105462
105465
105464
105458
105447
105429
105401
105367
105330
105295
105264
105236
105212
105192
105176
105167
104923
104929
104944
104964
104987
105013
105045
105081
105121
105167
105215
105262
105304
105335
105355
105365
105365
105356
105338
105311
105278
105244
105212
105184
105159
105138
105120
105105
105092
105083
104825
104833
104849
104863
104876
104892
104914
104941
104975
105015
105058
105101
105140
105173
105196
105210
105214
105207
105192
105169
105143
105115
105088
105064
105044
105027
105014
105004
104996
104990
104728
104737
104745
104747
104749
104756
104770
104791
104821
104859
104899
104939
104975
105006
105029
105044
105050
105048
105038
105022
105002
104980
104958
104938
104922
104908
104899
104892
104888
104886
104630
104634
104628
104619
104612
104610
104616
104633
104662
104700
104741
104780
104815
104844
104867
104882
104889
104890
104884
104873
104859
104842
104824
104808
104794
104784
104776
104771
104769
104770
104524
104516
104501
104485
104469
104459
104461
104476
104505
104546
104589
104628
104662
104690
104710
104724
104732
104734
104731
104724
104713
104700
104687
104674
104663
104654
104648
104644
104643
104644
104403
104390
104371
104348
104327
104316
104322
104339
104367
104406
104449
104487
104518
104542
104560
104572
104580
104582
104580
104575
104567
104557
104547
104537
104528
104521
104516
104513
104512
104513
104278
104265
104243
104219
104205
104208
104221
104238
104260
104290
104326
104357
104382
104401
104416
104425
104431
104433
104431
104427
104421
104413
104405
104397
104390
104384
104381
104378
104378
104379
104161
104147
104125
104112
104118
104133
104148
104162
104177
104195
104218
104238
104255
104267
104276
104282
104285
104286
104284
104280
104275
104269
104262
104255
104249
104245
104242
104241
104240
104241
104056
104043
104031
104035
104053
104072
104086
104095
104103
104111
104119
104126
104132
104136
104140
104142
104142
104141
104138
104134
104129
104123
104117
104112
104107
104103
104101
104100
104100
104101
103970
103962
103965
103978
103996
104016
104029
104033
104032
104028
104020
104013
104010
104007
104005
104003
104001
103997
103993
103988
103983
103978
103972
103967
103963
103960
103958
103957
103958
103959
103904
103904
103914
103927
103943
103960
103968
103967
103955
103935
103913
103897
103885
103877
103871
103865
103860
103854
103849
103843
103837
103832
103826
103822
103818
103815
103813
103812
103813
103814
103852
103856
103869
103879
103887
103889
103887
103879
103855
103824
103795
103773
103757
103745
103735
103726
103719
103711
103704
103697
103691
103685
103680
103675
103671
103668
103666
103666
103666
103667
103795
103807
103819
103824
103818
103795
103772
103752
103726
103694
103666
103643
103625
103611
103598
103587
103577
103568
103559
103551
103544
103538
103532
103527
103523
103521
103519
103518
103518
103519
103716
103732
103742
103739
103705
103665
103635
103610
103583
103555
103530
103508
103490
103474
103460
103447
103435
103424
103414
103405
103396
103389
103383
103378
103375
103372
103370
103369
103369
103370
103604
103613
103604
103581
103546
103512
103485
103461
103437
103413
103391
103371
103352
103336
103320
103305
103292
103279
103267
103257
103248
103240
103234
103229
103225
103222
103221
103220
103220
103220
103453
103446
103428
103404
103376
103351
103329
103310
103290
103270
103250
103232
103213
103196
103179
103163
103148
103133
103120
103108
103098
103089
103082
103077
103074
103072
103070
103070
103070
103070
103278
103266
103248
103227
103205
103188
103174
103159
103144
103127
103110
103092
103074
103056
103038
103020
103003
102986
102971
102957
102946
102937
102930
102925
102922
102920
102919
102919
102920
102920
103099
103088
103071
103051
103037
103028
103021
103012
103000
102986
102971
102954
102935
102916
102896
102877
102857
102838
102821
102805
102792
102782
102775
102770
102768
102767
102767
102768
102769
102770
102924
102913
102895
102879
102875
102876
102874
102869
102860
102848
102833
102816
102797
102777
102755
102733
102711
102689
102668
102650
102635
102624
102617
102614
102613
102613
102615
102617
102619
102620
102754
102742
102721
102718
102725
102732
102735
102732
102724
102713
102698
102681
102661
102639
102615
102590
102564
102538
102513
102492
102475
102463
102457
102454
102456
102459
102462
102466
102469
102471
102594
102578
102570
102578
102590
102599
102602
102600
102593
102582
102567
102549
102527
102503
102476
102447
102417
102385
102355
102329
102309
102297
102292
102292
102297
102303
102310
102316
102320
102323
102447
102442
102445
102457
102467
102475
102477
102474
102466
102455
102439
102420
102397
102370
102340
102306
102270
102232
102194
102162
102140
102128
102125
102129
102137
102147
102158
102167
102174
102177
102321
102326
102336
102345
102353
102357
102357
102353
102344
102332
102315
102295
102270
102241
102207
102169
102125
102079
102034
102000
101978
101968
101965
101970
101980
101994
102008
102021
102030
102035
102216
102221
102235
102237
102241
102243
102241
102236
102227
102213
102196
102174
102148
102116
102079
102036
101986
101933
101890
101865
101851
101843
101838
101837
101842
101852
101864
101879
101891
101899
102122
102127
102134
102131
102132
102133
102130
102124
102113
102099
102081
102058
102030
101997
101958
101910
101857
101810
101786
101776
101770
101762
101753
101745
101740
101737
101740
101750
101760
101769
102026
102031
102032
102024
102026
102027
102023
102016
102005
101990
101971
101947
101919
101885
101844
101796
101750
101724
101719
101716
101712
101704
101693
101682
101670
101659
101651
101647
101646
101651
101921
101922
101927
101923
101925
101925
101920
101912
101900
101884
101865
101841
101813
101780
101740
101698
101668
101664
101666
101667
101663
101654
101642
101630
101617
101603
101588
101573
101558
101554
101810
101809
101823
101828
101830
101828
101822
101812
101799
101783
101763
101740
101713
101681
101646
101617
101607
101612
101618
101622
101619
101607
101593
101581
101568
101551
101531
101509
101489
101481
101721
101725
101730
101742
101743
101737
101728
101716
101702
101685
101665
101642
101617
101589
101561
101547
101552
101562
101571
101576
101568
101553
101539
101525
101509
101488
101465
101442
101425
101415
101663
101663
101663
101670
101663
101651
101637
101623
101606
101589
101569
101548
101524
101501
101483
101482
101497
101511
101515
101503
101483
101470
101460
101447
101431
101412
101393
101375
101360
101349
101614
101612
101610
101604
101585
101566
101548
101531
101513
101495
101475
101454
101433
101415
101408
101417
101433
101436
101424
101397
101370
101353
101343
101333
101322
101313
101305
101298
101289
101278
101558
101556
101551
101531
101504
101481
101459
101440
101421
101402
101382
101362
101342
101329
101327
101339
101337
101321
101298
101269
101243
101223
101210
101201
101194
101192
101193
101199
101204
101201
101483
101483
101473
101447
101419
101395
101370
101348
101329
101310
101289
101269
101250
101238
101236
101236
101215
101191
101166
101140
101116
101096
101081
101070
101063
101062
101066
101077
101091
101102
101390
101390
101377
101356
101334
101308
101280
101256
101237
101217
101196
101173
101151
101135
101126
101104
101081
101063
101047
101029
101009
100989
100970
100954
100941
100935
100937
100946
100958
100971
101291
101289
101279
101264
101247
101218
101185
101162
101145
101126
101102
101073
101041
101013
100989
100961
100944
100950
100950
100942
100927
100908
100888
100866
100846
100829
100819
100817
100818
100831
101190
101187
101179
101169
101153
101118
101083
101066
101055
101037
101011
100971
100923
100885
100861
100848
100843
100856
100873
100875
100866
100849
100829
100805
100778
100752
100728
100706
100693
100701
101083
101080
101077
101071
101051
101012
100978
100974
100970
100957
100927
100881
100838
100807
100795
100787
100783
100785
100802
100824
100820
100805
100786
100760
100726
100689
100655
100627
100614
100616
100968
100964
100968
100968
100950
100910
100880
100890
100896
100888
100861
100824
100790
100772
100764
100758
100753
100747
100744
100752
100768
100774
100756
100722
100676
100634
100606
100591
100587
100587
100849
100837
100855
100869
100858
100823
100807
100822
100834
100832
100815
100791
100766
100754
100746
100739
100732
100722
100710
100700
100695
100689
100675
100653
100627
100604
100588
100581
100579
100579
100729
100726
100749
100776
100777
100758
100754
100766
100780
100785
100780
100767
100745
100734
100725
100717
100708
100696
100683
100669
100654
100640
100628
100614
100601
100589
100581
100578
100577
100577
100638
100646
100661
100690
100708
100705
100706
100716
100730
100738
100738
100731
100722
100711
100701
100691
100680
100668
100656
100643
100631
100619
100609
100600
100591
100583
100578
100575
100574
100575
100584
100588
100597
100621
100651
100659
100661
100671
100682
100691
100695
100696
100697
100684
100672
100662
100651
100640
100629
100618
100608
100600
100593
100587
100581
100577
100574
100572
100571
100572
100549
100545
100548
100568
100600
100617
100619
100629
100640
100649
100657
100664
100668
100654
100644
100634
100624
100614
100604
100595
100587
100581
100576
100572
100570
100569
100568
100568
100568
100568
100523
100517
100516
100529
100560
100580
100581
100593
100603
100612
100623
100636
100637
100625
100616
100608
100599
100590
100582
100575
100569
100564
100560
100558
100558
100559
100561
100563
100564
100564
100506
100502
100500
100506
100526
100540
100545
100560
100570
100581
100593
100613
100606
100597
100591
100584
100576
100569
100562
100556
100552
100548
100545
100544
100545
100548
100552
100556
100559
100560
100496
100493
100493
100493
100500
100503
100512
100527
100540
100552
100566
100593
100576
100570
100566
100561
100555
100548
100543
100539
100536
100534
100532
100532
100533
100536
100541
100547
100551
100553
100488
100486
100486
100486
100486
100485
100491
100501
100512
100522
100538
100556
100545
100541
100539
100536
100532
100528
100524
100522
100520
100520
100519
100520
100521
100523
100528
100535
100541
100544
100481
100480
100480
100479
100478
100476
100478
100480
100483
100488
100502
100508
100507
100506
100506
100507
100506
100506
100505
100505
100505
100505
100506
100507
100509
100510
100515
100522
100529
100532
100475
100474
100474
100473
100471
100467
100465
100457
100450
100447
100461
100458
100460
100463
100467
100472
100477
100482
100485
100487
100489
100491
100493
100494
100496
100498
100501
100506
100513
100518
100469
100468
100468
100467
100464
100458
100447
100428
100410
100397
100402
100405
100408
100415
100424
100434
100446
100455
100463
100469
100473
100477
100479
100482
100484
100486
100487
100491
100497
100502
100462
100461
100461
100459
100455
100445
100424
100394
100365
100343
100342
100350
100357
100366
100378
100394
100410
100426
100439
100449
100456
100462
100466
100469
100472
100474
100475
100477
100480
100486
100449
100447
100449
100447
100441
100428
100394
100352
100317
100300
100298
100304
100310
100318
100332
100351
100371
100391
100409
100425
100436
100445
100451
100456
100460
100463
100464
100465
100466
100470
100430
100427
100427
100424
100417
100396
100355
100309
100280
100268
100271
100275
100277
100281
100291
100308
100329
100352
100374
100394
100412
100424
100434
100442
100447
100451
100453
100453
100453
100455
100406
100400
100392
100388
100378
100345
100305
100268
100256
100256
100259
100260
100260
100260
100264
100273
100290
100313
100336
100359
100380
100398
100412
100423
100431
100437
100440
100442
100441
100440
100381
100370
100351
100347
100328
100291
100262
100252
100249
100251
100252
100252
100252
100252
100252
100254
100262
100277
100300
100323
100346
100368
100386
100401
100412
100420
100425
100428
100429
100428
100352
100338
100312
100301
100285
100259
100249
100246
100248
100249
100249
100249
100249
100248
100248
100247
100249
100254
100268
100289
100311
100335
100357
100375
100390
100401
100408
100413
100416
100416
100319
100310
100285
100263
100253
100247
100245
100246
100247
100247
100247
100247
100247
100247
100246
100245
100245
100245
100249
100260
100278
100300
100324
100346
100366
100381
100391
100397
100400
100401
100299
100292
100270
100254
100246
100245
100245
100245
100246
100246
100246
100246
100246
100245
100245
100244
100244
100243
100243
100246
100254
100269
100289
100313
100337
100358
100372
100381
100384
100386
100306
100290
100269
100249
100245
100245
100245
100245
100245
100245
100245
100245
100245
100244
100244
100244
100243
100243
100242
100242
100243
100249
100260
100279
100303
100329
100350
100363
100369
100371
100285
100277
100257
100246
100245
100244
100244
100244
100244
100244
100244
100244
100244
100243
100243
100243
100242
100242
100242
100241
100241
100241
100245
100253
100270
100297
100323
100342
100351
100355
100264
100259
100249
100245
100243
100243
100243
100243
100243
100243
100243
100243
100243
100243
100243
100242
100242
100242
100241
100241
100240
100240
100240
100241
100247
100265
100292
100318
100331
100337
100252
100249
100245
100243
100242
100242
100242
100242
100242
100242
100242
100242
100242
100242
100242
100242
100241
100241
100241
100240
100239
100239
100238
100238
100238
100244
100263
100291
100309
100316
100246
100245
100243
100241
100241
100240
100241
100241
100241
100241
100242
100242
100242
100242
100241
100241
100241
100241
100240
100239
100238
100238
100237
100236
100236
100236
100244
100266
100286
100295
100242
100242
100240
100239
100239
100239
100239
100239
100240
100240
100241
100241
100241
100241
100241
100241
100240
100240
100239
100238
100237
100236
100236
100235
100235
100234
100236
100248
100265
100274
100240
100239
100238
100238
100238
100237
100238
100238
100238
100239
100239
100240
100240
100240
100240
100240
100239
100238
100237
100236
100235
100235
100234
100234
100233
100233
100232
100238
100249
100257
100237
100237
100236
100236
100236
100236
100236
100236
100237
100237
100238
100238
100239
100239
100238
100238
100237
100236
100235
100234
100233
100233
100232
100232
100232
100231
100231
100234
100239
100244
100235
100235
100234
100234
100234
100234
100234
100234
100235
100235
100236
100236
100236
100236
100236
100235
100234
100233
100233
100232
100231
100231
100230
100230
100230
100230
100229
100231
100233
100236
100233
100233
100233
100232
100232
100232
100232
100232
100232
100233
100233
100233
100233
100233
100233
100232
100231
100231
100230
100229
100229
100229
100228