/*--------------------------------*- C++ -*----------------------------------*\
| =========                 |                                                 |
| \\      /  F ield         | OpenFOAM: The Open Source CFD Toolbox           |
|  \\    /   O peration     | Version:  v1606+                                |
|   \\  /    A nd           | Web:      www.OpenFOAM.com                      |
|    \\/     M anipulation  |                                                 |
\*---------------------------------------------------------------------------*/
FoamFile
{
    version     2.0;
    format      ascii;
    class       volVectorField;
    location    "1.57";
    object      U.particles;
}
// * * * * * * * * * * * * * * * * * * * * * * * * * * * * * * * * * * * * * //

dimensions      [0 1 -1 0 0 0 0];

internalField   nonuniform List<vector> 
6000
(
(0.00297002 -0.349618 0)
(0.00585357 -0.400656 0)
(0.0110865 -0.391923 0)
(0.0295563 -0.382139 0)
(0.0425362 -0.39775 0)
(0.0526899 -0.433651 0)
(0.0464704 -0.477815 0)
(0.0234693 -0.518896 0)
(0.0127353 -0.524458 0)
(0.0124595 -0.519966 0)
(0.0139161 -0.505582 0)
(0.0138499 -0.501807 0)
(0.0141706 -0.502869 0)
(0.00679572 -0.505232 0)
(-0.00827752 -0.506863 0)
(-0.0304946 -0.505515 0)
(-0.0411864 -0.507691 0)
(-0.0430519 -0.509492 0)
(-0.0456246 -0.502717 0)
(-0.0552797 -0.478898 0)
(-0.0883255 -0.459797 0)
(-0.116019 -0.42005 0)
(-0.113181 -0.366599 0)
(-0.0903036 -0.332492 0)
(-0.064576 -0.318088 0)
(-0.0323589 -0.29369 0)
(-0.00128598 -0.286172 0)
(0.0257391 -0.301214 0)
(0.0217839 -0.332864 0)
(0.00676924 -0.298356 0)
(0.0328518 0.112262 0)
(0.00294358 0.135583 0)
(-0.011676 0.113045 0)
(0.0053745 0.0715286 0)
(0.0252294 0.0381451 0)
(0.051775 0.0153166 0)
(0.0827952 0.0224885 0)
(0.0935567 0.0353245 0)
(0.0825756 0.0505131 0)
(0.0499309 0.0662636 0)
(0.0317527 0.0558801 0)
(0.0323305 0.0596037 0)
(0.031562 0.0751814 0)
(0.0183935 0.0669641 0)
(-0.00897423 0.0484932 0)
(-0.0399578 0.0574665 0)
(-0.0640512 0.0933925 0)
(-0.0971565 0.0944266 0)
(-0.140933 0.0687028 0)
(-0.155223 0.0388321 0)
(-0.169675 0.0409022 0)
(-0.168943 0.0584194 0)
(-0.137967 0.0425052 0)
(-0.0997839 0.0503501 0)
(-0.0678444 0.0698655 0)
(-0.0263887 0.0741524 0)
(0.00784123 0.0969098 0)
(0.0369385 0.13624 0)
(0.0286351 0.157783 0)
(-0.00941161 0.129995 0)
(-0.00222404 0.0314072 0)
(-0.0251967 0.0834852 0)
(-0.0532959 0.0103425 0)
(-0.0386363 -0.0489622 0)
(-0.0112939 -0.0793214 0)
(0.0251166 -0.101401 0)
(0.0582412 -0.0959673 0)
(0.0972044 -0.0764411 0)
(0.104541 -0.0669652 0)
(0.0954768 -0.0617547 0)
(0.0730885 -0.0634193 0)
(0.0597466 -0.0623513 0)
(0.047574 -0.0451103 0)
(0.018242 -0.0341034 0)
(-0.0181078 -0.0297305 0)
(-0.0594988 -0.0245811 0)
(-0.0970636 -0.0112915 0)
(-0.123815 0.00281379 0)
(-0.154525 -0.000481895 0)
(-0.177818 -0.0208708 0)
(-0.189845 -0.0357321 0)
(-0.17578 -0.0590784 0)
(-0.132166 -0.0753416 0)
(-0.0868483 -0.0591738 0)
(-0.0458428 -0.044905 0)
(-0.00931642 -0.0448218 0)
(0.0213249 -0.0267252 0)
(0.0405933 0.00994401 0)
(0.0318373 0.0965116 0)
(-0.00243248 0.0683189 0)
(-0.0286712 0.0742732 0)
(-0.0406544 0.114404 0)
(-0.0738337 0.0689011 0)
(-0.0731824 0.0241517 0)
(-0.0474311 -0.0202048 0)
(-0.00185237 -0.0489671 0)
(0.0356627 -0.0503154 0)
(0.0888465 -0.035227 0)
(0.102888 -0.0284135 0)
(0.105504 -0.0341729 0)
(0.0936893 -0.0439775 0)
(0.0732348 -0.0479827 0)
(0.0417665 -0.0365157 0)
(0.00296166 -0.0424478 0)
(-0.0242615 -0.042748 0)
(-0.052154 -0.0303976 0)
(-0.0942457 -0.00515637 0)
(-0.136706 0.0122678 0)
(-0.163992 0.0156811 0)
(-0.176279 0.00851283 0)
(-0.179115 0.00608142 0)
(-0.155676 -0.0166112 0)
(-0.118185 -0.0537271 0)
(-0.0794998 -0.0413297 0)
(-0.0357707 -0.0340012 0)
(-0.022248 -0.0495588 0)
(-0.0172428 -0.0595011 0)
(-0.0219677 -0.0490142 0)
(-0.0124223 0.0108455 0)
(-0.00114016 -0.00457271 0)
(-0.0361197 -0.0136895 0)
(-0.0297708 0.021268 0)
(-0.0624651 0.0214257 0)
(-0.0724974 0.00412678 0)
(-0.0598409 -0.0312531 0)
(-0.0219688 -0.062667 0)
(0.0255417 -0.058647 0)
(0.0751939 -0.0284571 0)
(0.106257 -0.00405651 0)
(0.100228 -0.00186875 0)
(0.0904037 -0.0175672 0)
(0.0623526 -0.0422631 0)
(0.0216833 -0.0416902 0)
(-0.0132937 -0.0463175 0)
(-0.0286409 -0.0433049 0)
(-0.0377818 -0.0309302 0)
(-0.0659264 -0.00225242 0)
(-0.11414 0.0282406 0)
(-0.149382 0.0460183 0)
(-0.155988 0.0461584 0)
(-0.147255 0.0269368 0)
(-0.115904 -0.0358179 0)
(-0.103111 -0.0988931 0)
(-0.105694 -0.133977 0)
(-0.0746901 -0.145811 0)
(-0.0855343 -0.171279 0)
(-0.0854147 -0.192849 0)
(-0.0647698 -0.17785 0)
(-0.0311594 -0.128778 0)
(0.010607 -0.117089 0)
(-0.00698148 -0.112231 0)
(0.0221552 -0.128711 0)
(0.0298891 -0.11526 0)
(0.00848556 -0.0739016 0)
(-0.0231646 -0.0540355 0)
(-0.00867824 -0.0820221 0)
(0.0255493 -0.0799026 0)
(0.0686022 -0.0276678 0)
(0.101805 0.010503 0)
(0.12271 0.0274409 0)
(0.123609 0.0229881 0)
(0.0909034 0.0114953 0)
(0.0186542 0.00546796 0)
(-0.0116739 -0.0149333 0)
(-0.0221952 -0.018674 0)
(-0.0272359 -0.00551369 0)
(-0.0388381 0.0198034 0)
(-0.0623694 0.0475682 0)
(-0.0847742 0.0750335 0)
(-0.090613 0.082797 0)
(-0.0720866 0.0763281 0)
(-0.0536328 0.0213085 0)
(-0.0852336 -0.0806727 0)
(-0.128719 -0.171332 0)
(-0.150431 -0.209319 0)
(-0.144678 -0.242698 0)
(-0.123624 -0.24876 0)
(-0.0835098 -0.227438 0)
(-0.0382516 -0.177125 0)
(0.00783802 -0.151473 0)
(0.0175072 -0.144685 0)
(0.0434818 -0.168154 0)
(0.0723461 -0.181181 0)
(0.0977445 -0.176101 0)
(0.075996 -0.141776 0)
(0.0419162 -0.118664 0)
(0.0298346 -0.0862617 0)
(0.0479492 -0.0194189 0)
(0.0730238 0.0286461 0)
(0.105215 0.0522108 0)
(0.118864 0.0612621 0)
(0.109558 0.05796 0)
(0.0685316 0.05415 0)
(0.036732 0.0461949 0)
(0.00854617 0.0289597 0)
(-0.00595836 0.0256927 0)
(-0.0105888 0.0381689 0)
(-0.00707408 0.0602273 0)
(-0.0390994 0.103387 0)
(-0.0392706 0.116626 0)
(-0.0229941 0.114626 0)
(-0.00838809 0.0798399 0)
(-0.0448421 -0.00353552 0)
(-0.142266 -0.151848 0)
(-0.193523 -0.206488 0)
(-0.163078 -0.253769 0)
(-0.134442 -0.253281 0)
(-0.087847 -0.237152 0)
(-0.0433014 -0.186591 0)
(0.00438845 -0.150984 0)
(0.0147551 -0.131125 0)
(0.046148 -0.154212 0)
(0.0754269 -0.180475 0)
(0.113374 -0.197408 0)
(0.158511 -0.189969 0)
(0.119507 -0.155661 0)
(0.0283033 -0.073139 0)
(0.0304025 0.0161313 0)
(0.035384 0.0671048 0)
(0.0654632 0.0932417 0)
(0.0897577 0.105222 0)
(0.0936654 0.105546 0)
(0.0820423 0.10427 0)
(0.0615193 0.0973 0)
(0.0380709 0.0806196 0)
(0.0262796 0.0746979 0)
(0.0258443 0.0789659 0)
(0.028338 0.0984908 0)
(0.00776365 0.138117 0)
(0.00885992 0.157865 0)
(0.0137664 0.164587 0)
(0.00377439 0.140397 0)
(-0.0408419 0.0857516 0)
(-0.141684 -0.0508999 0)
(-0.192791 -0.167979 0)
(-0.158922 -0.218289 0)
(-0.134587 -0.229352 0)
(-0.0984206 -0.219253 0)
(-0.0595187 -0.172367 0)
(0.00875667 -0.130311 0)
(0.0173775 -0.101378 0)
(0.0496523 -0.110622 0)
(0.0760474 -0.142011 0)
(0.121539 -0.181087 0)
(0.192712 -0.156149 0)
(0.166003 -0.124663 0)
(0.0480721 -0.005647 0)
(0.0163782 0.0792047 0)
(0.00811897 0.120602 0)
(0.0211773 0.141704 0)
(0.042603 0.154736 0)
(0.0540865 0.157855 0)
(0.0602731 0.16073 0)
(0.057804 0.158071 0)
(0.0519514 0.146249 0)
(0.0513109 0.134785 0)
(0.0575187 0.13698 0)
(0.0664424 0.153363 0)
(0.0672004 0.184472 0)
(0.061514 0.213598 0)
(0.0568854 0.226541 0)
(0.0255534 0.212112 0)
(-0.0128983 0.160456 0)
(-0.0708515 0.0668976 0)
(-0.122082 -0.0927596 0)
(-0.12791 -0.168501 0)
(-0.117387 -0.180735 0)
(-0.109193 -0.187324 0)
(-0.0880258 -0.148618 0)
(0.00954504 -0.0979258 0)
(0.0148373 -0.0544756 0)
(0.0590431 -0.057284 0)
(0.0796055 -0.112422 0)
(0.149889 -0.15019 0)
(0.177539 -0.100871 0)
(0.0869602 0.0188557 0)
(0.0111777 0.113873 0)
(-0.0303012 0.152212 0)
(-0.054765 0.169447 0)
(-0.0521457 0.177452 0)
(-0.0304685 0.186436 0)
(-0.00434143 0.198433 0)
(0.0183279 0.210132 0)
(0.0336908 0.215065 0)
(0.0478433 0.207899 0)
(0.0625405 0.201361 0)
(0.0795189 0.201512 0)
(0.100042 0.216176 0)
(0.117174 0.242454 0)
(0.117893 0.272071 0)
(0.108533 0.284804 0)
(0.0815732 0.267866 0)
(0.0455071 0.20731 0)
(0.00112753 0.103301 0)
(-0.041808 -0.0539486 0)
(-0.0754834 -0.146568 0)
(-0.0963286 -0.152027 0)
(-0.109253 -0.152916 0)
(-0.109499 -0.128781 0)
(-0.0055619 -0.0691291 0)
(0.0120736 -0.013795 0)
(0.0714366 -0.0171593 0)
(0.0921205 -0.105067 0)
(0.145819 -0.129617 0)
(0.0717904 -0.000367719 0)
(-0.00115957 0.0836978 0)
(-0.0378142 0.136237 0)
(-0.0617085 0.171184 0)
(-0.0812065 0.192664 0)
(-0.0955821 0.203279 0)
(-0.0972568 0.205445 0)
(-0.0701139 0.217493 0)
(-0.0335552 0.244173 0)
(0.00299604 0.261764 0)
(0.031609 0.262428 0)
(0.0631023 0.259534 0)
(0.0898451 0.261194 0)
(0.120308 0.27587 0)
(0.147721 0.296408 0)
(0.158587 0.313406 0)
(0.155551 0.314546 0)
(0.143358 0.294408 0)
(0.1227 0.240999 0)
(0.0941468 0.128925 0)
(0.0301007 -0.0645935 0)
(-0.065311 -0.207796 0)
(-0.0961021 -0.194902 0)
(-0.101654 -0.143943 0)
(-0.11655 -0.116844 0)
(-0.0404955 -0.061276 0)
(0.0101705 -0.0124644 0)
(0.0775922 -0.0684199 0)
(0.0668609 -0.149595 0)
(0.055208 -0.0987933 0)
(0.0193083 0.0115106 0)
(-0.0343206 0.0992234 0)
(-0.0781559 0.152991 0)
(-0.108156 0.186075 0)
(-0.126723 0.20325 0)
(-0.135473 0.211715 0)
(-0.136923 0.215611 0)
(-0.127121 0.220137 0)
(-0.0909202 0.252437 0)
(-0.0356681 0.283298 0)
(0.012983 0.286121 0)
(0.0525616 0.286881 0)
(0.0869476 0.294955 0)
(0.121758 0.311423 0)
(0.153156 0.323686 0)
(0.169911 0.324895 0)
(0.17696 0.317631 0)
(0.180161 0.299876 0)
(0.177989 0.262294 0)
(0.155762 0.134077 0)
(0.046578 -0.201391 0)
(-0.0480744 -0.303057 0)
(-0.0712526 -0.26832 0)
(-0.0657911 -0.216899 0)
(-0.0854255 -0.144929 0)
(-0.0593245 -0.0777378 0)
(0.011896 -0.087961 0)
(0.0711599 -0.157316 0)
(0.0244519 -0.181333 0)
(-0.00728224 -0.0992171 0)
(-0.0441437 0.0169483 0)
(-0.0907991 0.116433 0)
(-0.133414 0.174685 0)
(-0.15993 0.199254 0)
(-0.170773 0.208834 0)
(-0.173289 0.211575 0)
(-0.171112 0.210983 0)
(-0.163231 0.211321 0)
(-0.138702 0.22729 0)
(-0.0794355 0.247433 0)
(-0.0119273 0.261736 0)
(0.0306967 0.282499 0)
(0.0658973 0.300547 0)
(0.102306 0.321603 0)
(0.1382 0.334699 0)
(0.162846 0.328338 0)
(0.175022 0.315241 0)
(0.181038 0.290157 0)
(0.161847 0.202548 0)
(0.0912266 -0.112848 0)
(0.0498651 -0.317839 0)
(0.0191453 -0.328678 0)
(-0.0146027 -0.304739 0)
(-0.0184531 -0.272335 0)
(-0.0278288 -0.236809 0)
(-0.0206627 -0.189208 0)
(0.00477557 -0.188925 0)
(0.0455389 -0.236912 0)
(0.0148167 -0.272993 0)
(-0.00706387 -0.165935 0)
(-0.0855029 0.0395299 0)
(-0.15084 0.159282 0)
(-0.212918 0.203491 0)
(-0.216001 0.207964 0)
(-0.213256 0.206031 0)
(-0.207877 0.204401 0)
(-0.19885 0.198855 0)
(-0.187285 0.194538 0)
(-0.168059 0.193634 0)
(-0.116268 0.205079 0)
(-0.0470657 0.242408 0)
(-0.00875004 0.26205 0)
(0.0278479 0.279311 0)
(0.0613425 0.297733 0)
(0.0984699 0.307294 0)
(0.134879 0.286507 0)
(0.144758 0.221973 0)
(0.107271 0.0845052 0)
(0.0425982 -0.125266 0)
(0.0564051 -0.281267 0)
(0.0832857 -0.327286 0)
(0.0669711 -0.327828 0)
(0.0295911 -0.299283 0)
(0.0210783 -0.277803 0)
(0.0144639 -0.261771 0)
(0.0153556 -0.233529 0)
(-0.00156258 -0.240922 0)
(0.0248305 -0.26997 0)
(0.0144149 -0.299824 0)
(0.0617051 -0.273783 0)
(-0.0739181 -0.0273867 0)
(-0.151231 0.0445046 0)
(-0.24563 0.0570852 0)
(-0.269049 0.173654 0)
(-0.251457 0.196644 0)
(-0.234059 0.189539 0)
(-0.221741 0.175051 0)
(-0.207692 0.170566 0)
(-0.181923 0.179478 0)
(-0.160474 0.175797 0)
(-0.118088 0.147854 0)
(-0.0667801 0.0734681 0)
(-0.0381512 0.0466063 0)
(-0.00587973 0.0272804 0)
(0.023085 -0.012124 0)
(0.0372584 -0.0570084 0)
(0.0250631 -0.123938 0)
(-0.00748998 -0.207536 0)
(0.0425242 -0.251916 0)
(0.0783671 -0.289326 0)
(0.0999287 -0.303048 0)
(0.10453 -0.294773 0)
(0.0713711 -0.270915 0)
(0.0432484 -0.240766 0)
(0.0326715 -0.233847 0)
(0.0192931 -0.226281 0)
(-0.00859487 -0.25226 0)
(0.0202124 -0.277741 0)
(0.0184071 -0.308035 0)
(0.0348868 -0.302142 0)
(-0.0288034 -0.142709 0)
(-0.12499 -0.0337186 0)
(-0.222775 -0.115088 0)
(-0.254411 -0.0941839 0)
(-0.276145 0.0958127 0)
(-0.24773 0.165623 0)
(-0.236125 0.148478 0)
(-0.235857 0.144419 0)
(-0.223474 0.146137 0)
(-0.204431 -0.0591077 0)
(-0.208352 -0.229852 0)
(-0.180978 -0.269421 0)
(-0.148363 -0.292166 0)
(-0.105991 -0.288949 0)
(-0.0675629 -0.269408 0)
(-0.0314974 -0.249405 0)
(-0.00896125 -0.226718 0)
(-0.00212687 -0.22823 0)
(0.0683691 -0.232935 0)
(0.0932827 -0.258157 0)
(0.10353 -0.270303 0)
(0.10147 -0.253912 0)
(0.0679092 -0.226036 0)
(0.040072 -0.204847 0)
(0.0202501 -0.19293 0)
(0.0141579 -0.183533 0)
(-0.0147815 -0.237141 0)
(0.00997818 -0.265558 0)
(0.0210539 -0.289804 0)
(-0.00284152 -0.293974 0)
(-0.0147737 -0.188508 0)
(-0.120008 -0.0404011 0)
(-0.186605 -0.0788478 0)
(-0.189683 -0.170474 0)
(-0.192842 -0.18638 0)
(-0.239056 -0.132305 0)
(-0.247612 -0.0072018 0)
(-0.259295 -0.0217135 0)
(-0.277001 -0.207591 0)
(-0.268358 -0.22446 0)
(-0.24918 -0.239865 0)
(-0.220831 -0.262479 0)
(-0.181737 -0.283121 0)
(-0.13748 -0.283457 0)
(-0.0917662 -0.263332 0)
(-0.0478793 -0.219017 0)
(-0.0120358 -0.182117 0)
(0.0176041 -0.181209 0)
(0.0706668 -0.191636 0)
(0.107964 -0.219175 0)
(0.135989 -0.211857 0)
(0.128466 -0.192186 0)
(0.0848675 -0.160445 0)
(0.0451226 -0.139202 0)
(0.0217412 -0.132985 0)
(0.00929096 -0.129056 0)
(-0.0232315 -0.211146 0)
(-0.00831948 -0.245584 0)
(-0.0194185 -0.262718 0)
(-0.0415981 -0.238691 0)
(-0.0379614 -0.160691 0)
(-0.147846 -0.0118889 0)
(-0.165139 -0.00812667 0)
(-0.14657 -0.0912469 0)
(-0.121271 -0.111247 0)
(-0.140479 -0.203064 0)
(-0.182973 -0.22945 0)
(-0.241616 -0.206433 0)
(-0.269252 -0.182399 0)
(-0.267363 -0.176812 0)
(-0.251167 -0.184512 0)
(-0.223898 -0.207368 0)
(-0.18638 -0.225946 0)
(-0.151901 -0.233121 0)
(-0.110868 -0.212826 0)
(-0.0703266 -0.164775 0)
(-0.0329586 -0.121374 0)
(0.0384767 -0.123389 0)
(0.0760518 -0.154493 0)
(0.114464 -0.167458 0)
(0.127439 -0.148391 0)
(0.107964 -0.112133 0)
(0.0654125 -0.0814785 0)
(0.0321941 -0.0713795 0)
(0.014515 -0.0731836 0)
(0.00656291 -0.0734964 0)
(-0.0307606 -0.164432 0)
(-0.019029 -0.197665 0)
(-0.0302552 -0.213366 0)
(-0.0566384 -0.215737 0)
(-0.0318441 -0.14648 0)
(-0.155323 0.0509901 0)
(-0.163036 0.0439722 0)
(-0.125948 -0.0231363 0)
(-0.0938165 -0.0404503 0)
(-0.0816579 -0.127067 0)
(-0.117342 -0.171166 0)
(-0.182523 -0.154911 0)
(-0.233639 -0.134354 0)
(-0.241148 -0.128219 0)
(-0.238626 -0.136018 0)
(-0.228049 -0.160156 0)
(-0.203244 -0.175568 0)
(-0.166737 -0.177628 0)
(-0.121605 -0.151232 0)
(-0.0744039 -0.0991678 0)
(-0.0473239 -0.0613612 0)
(0.0471397 -0.0728361 0)
(0.10208 -0.116395 0)
(0.125334 -0.103329 0)
(0.111036 -0.0692691 0)
(0.0643071 -0.0312872 0)
(0.032524 -0.0232789 0)
(0.0152687 -0.0264184 0)
(0.00760282 -0.0324942 0)
(0.00663692 -0.0323409 0)
(-0.0311148 -0.108104 0)
(-0.0210405 -0.140648 0)
(-0.0325286 -0.147878 0)
(-0.063712 -0.13925 0)
(-0.0715834 -0.0943935 0)
(-0.1212 0.131458 0)
(-0.14574 0.154381 0)
(-0.139714 0.0740452 0)
(-0.0788832 0.013698 0)
(-0.0513352 -0.0791 0)
(-0.0665982 -0.110975 0)
(-0.118046 -0.0837215 0)
(-0.172471 -0.0667985 0)
(-0.19668 -0.0630253 0)
(-0.207023 -0.0781379 0)
(-0.211006 -0.0985546 0)
(-0.204068 -0.116888 0)
(-0.179346 -0.122317 0)
(-0.137653 -0.0983749 0)
(-0.0907027 -0.0374362 0)
(-0.0354096 0.00662452 0)
(0.0749275 -0.0499693 0)
(0.117727 -0.0477115 0)
(0.106333 -0.0237875 0)
(0.0497606 0.00611395 0)
(0.0239664 0.00436366 0)
(0.0125286 -0.0023783 0)
(0.00712078 -0.0101634 0)
(0.00467536 -0.0156193 0)
(0.00303995 -0.0126671 0)
(-0.0262706 -0.0530265 0)
(-0.0172236 -0.0846142 0)
(-0.0221635 -0.0765329 0)
(-0.0494126 -0.055389 0)
(-0.0838746 -0.0206353 0)
(-0.0938089 0.146944 0)
(-0.0530713 0.322548 0)
(-0.0641903 0.298111 0)
(-0.0678924 0.163537 0)
(-0.00649475 0.0111837 0)
(-0.0466084 -0.0262226 0)
(-0.0704142 -0.00741485 0)
(-0.11441 0.00468765 0)
(-0.136608 0.00299845 0)
(-0.15194 -0.0116286 0)
(-0.166801 -0.0341779 0)
(-0.174077 -0.0516783 0)
(-0.167899 -0.0573911 0)
(-0.141315 -0.0358137 0)
(-0.094984 0.0209834 0)
(0.00501136 0.0484188 0)
(0.101045 0.0126629 0)
(0.0999813 0.0227351 0)
(0.0448396 0.0435024 0)
(0.0211766 0.0354038 0)
(0.0112431 0.0220794 0)
(0.00591507 0.00880077 0)
(0.0036338 -0.0013936 0)
(0.00263829 -0.00670036 0)
(0.00124149 -0.00524337 0)
(-0.00799711 -0.0245932 0)
(-0.00815071 -0.0458635 0)
(-0.0154491 -0.0309719 0)
(-0.0316195 0.00245332 0)
(-0.0524173 0.0332714 0)
(-0.0795544 0.0915722 0)
(-0.036826 0.36426 0)
(0.0126688 0.461108 0)
(0.0563626 0.418252 0)
(0.0737728 0.231236 0)
(-0.020716 0.0838215 0)
(-0.0268246 0.086136 0)
(-0.0576882 0.0855867 0)
(-0.0759406 0.0728546 0)
(-0.0892316 0.0529013 0)
(-0.102028 0.0304795 0)
(-0.116226 0.00887582 0)
(-0.121964 -8.69739e-05 0)
(-0.119067 0.0163227 0)
(-0.0753572 0.0750183 0)
(0.0448119 0.076612 0)
(0.092222 0.0653545 0)
(0.0490471 0.0773366 0)
(0.0268669 0.0687203 0)
(0.0151972 0.0510673 0)
(0.00814283 0.0322752 0)
(0.00400162 0.0150184 0)
(0.00235731 0.00243959 0)
(0.00197405 -0.00354983 0)
(0.00127747 -0.0027447 0)
(-0.005214 -0.0176317 0)
(-0.00926696 -0.031805 0)
(-0.0199697 -0.0141551 0)
(-0.0410387 0.0182001 0)
(-0.0588506 0.0520843 0)
(-0.0729625 0.112458 0)
(-0.0800618 0.357101 0)
(0.00117188 0.460216 0)
(0.102156 0.48227 0)
(0.0831151 0.297123 0)
(0.042 0.198918 0)
(0.0167797 0.180465 0)
(-0.00627675 0.159154 0)
(-0.0203338 0.130605 0)
(-0.0295029 0.101506 0)
(-0.0371941 0.0746441 0)
(-0.0454027 0.051583 0)
(-0.0523317 0.0379197 0)
(-0.0583087 0.0428872 0)
(-0.0228691 0.074627 0)
(0.0650285 0.0797016 0)
(0.0603905 0.0933127 0)
(0.043036 0.0947462 0)
(0.027816 0.0805607 0)
(0.0157469 0.0599496 0)
(0.00793867 0.0385117 0)
(0.00241444 0.0161315 0)
(8.97058e-06 -0.000436471 0)
(0.000111824 -0.00735588 0)
(0.00154753 -0.00436364 0)
(-0.000132255 -0.0247116 0)
(-0.000695928 -0.0415456 0)
(-0.0159221 -0.0119485 0)
(-0.0441103 0.0287651 0)
(-0.0771567 0.0613355 0)
(-0.112342 0.0916195 0)
(-0.121734 0.237691 0)
(-0.0359282 0.315945 0)
(0.0707023 0.465028 0)
(0.106747 0.270061 0)
(0.0767069 0.260046 0)
(0.0482685 0.228544 0)
(0.0338382 0.19434 0)
(0.0253642 0.158652 0)
(0.0187797 0.126005 0)
(0.0131131 0.0974009 0)
(0.00871269 0.0735226 0)
(0.0068557 0.0562238 0)
(0.00943672 0.0512126 0)
(0.0358414 0.0631126 0)
(0.0615293 0.0842094 0)
(0.0583982 0.0961338 0)
(0.047783 0.0998629 0)
(0.0304165 0.0844665 0)
(0.0155454 0.0643474 0)
(0.00612577 0.0407055 0)
(-0.00180566 0.00840603 0)
(-0.0056644 -0.0152453 0)
(-0.00458876 -0.0226941 0)
(0.000437063 -0.0124636 0)
(0.0181453 -0.0423157 0)
(0.020525 -0.0757228 0)
(0.00334302 -0.0866268 0)
(-0.017951 -0.0931281 0)
(-0.0281367 -0.0993925 0)
(0.00794613 -0.23334 0)
(0.0112306 -0.148865 0)
(0.0129287 -0.0488745 0)
(0.0563769 0.319303 0)
(0.106465 0.269798 0)
(0.103239 0.262229 0)
(0.0872521 0.24295 0)
(0.0752813 0.211681 0)
(0.0682281 0.174401 0)
(0.0607441 0.14045 0)
(0.0531799 0.111152 0)
(0.0464077 0.0866139 0)
(0.0425187 0.0682453 0)
(0.044208 0.0584955 0)
(0.0540996 0.0627432 0)
(0.0633964 0.077689 0)
(0.0591745 0.0878842 0)
(0.0497359 0.099998 0)
(0.0288191 0.0865675 0)
(0.0075638 0.069828 0)
(0.00184014 0.0417775 0)
(-0.00671037 -0.0146172 0)
(-0.0147339 -0.0479529 0)
(-0.0166333 -0.0571986 0)
(-0.00788062 -0.0238712 0)
(0.0709118 -0.201604 0)
(0.059093 -0.261684 0)
(0.043893 -0.547006 0)
(0.0652333 -0.546018 0)
(0.0949318 -0.527654 0)
(0.126246 -0.500469 0)
(0.15001 -0.437921 0)
(0.179035 -0.370145 0)
(0.177083 -0.164582 0)
(0.13396 0.226055 0)
(0.136561 0.258997 0)
(0.124311 0.248902 0)
(0.117169 0.221747 0)
(0.112834 0.183938 0)
(0.103927 0.1501 0)
(0.0928648 0.12056 0)
(0.0786141 0.094919 0)
(0.0660662 0.0748955 0)
(0.0601313 0.0616381 0)
(0.0616446 0.0595631 0)
(0.0687749 0.0696372 0)
(0.0524833 0.0723239 0)
(0.0184259 0.0808657 0)
(-0.0244373 -0.0273991 0)
(-0.0320614 -0.0388146 0)
(0.00264709 0.00716688 0)
(-0.01026 -0.058568 0)
(-0.0241278 -0.0944794 0)
(-0.0401645 -0.122286 0)
(-0.0497555 -0.138579 0)
(0.000639243 -0.586277 0)
(0.018763 -0.603259 0)
(0.0336651 -0.584211 0)
(0.0689683 -0.561728 0)
(0.102838 -0.545695 0)
(0.145256 -0.52496 0)
(0.187179 -0.499308 0)
(0.240928 -0.470225 0)
(0.284802 -0.43012 0)
(0.249005 -0.228072 0)
(0.21434 0.0826264 0)
(0.209581 0.200911 0)
(0.188565 0.250021 0)
(0.172664 0.196198 0)
(0.154705 0.155028 0)
(0.140789 0.125988 0)
(0.115442 0.0987033 0)
(0.0884917 0.0762815 0)
(0.0703691 0.0581456 0)
(0.0613385 0.047679 0)
(0.0753574 0.0579366 0)
(-0.0259915 -0.115874 0)
(-0.110923 -0.368916 0)
(-0.100411 -0.418109 0)
(-0.0805856 -0.446335 0)
(-0.0704712 -0.460709 0)
(-0.0460207 -0.32816 0)
(-0.0380593 -0.258621 0)
(-0.0592234 -0.376513 0)
(-0.0296312 -0.495283 0)
(-0.00513018 -0.579445 0)
(0.0105364 -0.580696 0)
(0.0340619 -0.567402 0)
(0.0687867 -0.552583 0)
(0.10435 -0.538715 0)
(0.149157 -0.526741 0)
(0.193094 -0.508054 0)
(0.245153 -0.485793 0)
(0.295594 -0.466132 0)
(0.32423 -0.432128 0)
(0.366979 -0.384848 0)
(0.413169 -0.333604 0)
(0.4281 -0.206952 0)
(0.306833 0.111769 0)
(0.231816 0.179797 0)
(0.205533 0.139608 0)
(0.161849 0.0980972 0)
(0.111003 0.0722568 0)
(0.0792736 0.0465127 0)
(0.0668828 0.0227788 0)
(0.0280721 -0.0571266 0)
(-0.155125 -0.387338 0)
(-0.120982 -0.415619 0)
(-0.0873096 -0.441967 0)
(-0.0496062 -0.467343 0)
(-0.0189868 -0.49341 0)
(0.000179024 -0.520868 0)
(0.00243218 -0.5481 0)
(-0.0430581 -0.551429 0)
(-0.0302204 -0.521811 0)
(-0.00846956 -0.550936 0)
(0.00610072 -0.556588 0)
(0.0280941 -0.545399 0)
(0.0625213 -0.538964 0)
(0.102057 -0.53465 0)
(0.143563 -0.525513 0)
(0.187868 -0.506371 0)
(0.231072 -0.483898 0)
(0.274965 -0.465865 0)
(0.314821 -0.428194 0)
(0.371422 -0.398831 0)
(0.44505 -0.383023 0)
(0.510304 -0.35856 0)
(0.555092 -0.306172 0)
(0.510606 -0.193938 0)
(0.383766 0.0518106 0)
(0.270532 0.105988 0)
(0.108417 0.0786576 0)
(0.0447062 0.0519847 0)
(-0.0081939 -0.0630053 0)
(-0.230456 -0.351414 0)
(-0.183267 -0.390936 0)
(-0.123552 -0.413003 0)
(-0.0830629 -0.444191 0)
(-0.041746 -0.475605 0)
(-0.00586606 -0.50602 0)
(0.0226017 -0.535793 0)
(0.0418992 -0.572944 0)
(-0.00551159 -0.598355 0)
(-0.0226698 -0.562478 0)
(-0.0094044 -0.521481 0)
(0.0148527 -0.536653 0)
(0.0267357 -0.532395 0)
(0.0588515 -0.516021 0)
(0.0993769 -0.505848 0)
(0.136594 -0.495417 0)
(0.18368 -0.481204 0)
(0.227574 -0.460945 0)
(0.265188 -0.43996 0)
(0.297568 -0.402454 0)
(0.363238 -0.368067 0)
(0.444277 -0.348761 0)
(0.505819 -0.324446 0)
(0.528218 -0.296503 0)
(0.508164 -0.267835 0)
(0.486134 -0.176122 0)
(0.395559 0.030021 0)
(0.172447 0.0238595 0)
(-0.114913 -0.187025 0)
(-0.214743 -0.298808 0)
(-0.235088 -0.331264 0)
(-0.1937 -0.376272 0)
(-0.131269 -0.406018 0)
(-0.0832065 -0.444321 0)
(-0.0403269 -0.478 0)
(-0.00235821 -0.509462 0)
(0.027883 -0.540221 0)
(0.0514802 -0.577349 0)
(0.0197528 -0.614062 0)
(0.00173554 -0.594571 0)
(-0.00433187 -0.492132 0)
(0.0100643 -0.511809 0)
(0.0263832 -0.503953 0)
(0.0594001 -0.499466 0)
(0.0935198 -0.488127 0)
(0.134426 -0.471302 0)
(0.174377 -0.453284 0)
(0.215449 -0.429858 0)
(0.249963 -0.409173 0)
(0.286438 -0.369663 0)
(0.351645 -0.334063 0)
(0.432648 -0.313593 0)
(0.477885 -0.296239 0)
(0.476359 -0.28523 0)
(0.426548 -0.258421 0)
(0.364641 -0.155212 0)
(0.353416 0.0696681 0)
(0.225397 0.116398 0)
(0.0757116 -0.0105603 0)
(-0.123256 -0.250812 0)
(-0.194855 -0.304554 0)
(-0.187313 -0.350235 0)
(-0.138895 -0.390427 0)
(-0.0881053 -0.433408 0)
(-0.0410657 -0.47596 0)
(-0.00316151 -0.510834 0)
(0.0266762 -0.542524 0)
(0.0515829 -0.573242 0)
(0.0381137 -0.603873 0)
(0.0373165 -0.591729 0)
(-0.00735255 -0.466358 0)
(0.010663 -0.485821 0)
(0.0274159 -0.482501 0)
(0.0580266 -0.470528 0)
(0.0962261 -0.460773 0)
(0.134471 -0.443891 0)
(0.166791 -0.419838 0)
(0.200431 -0.389773 0)
(0.230587 -0.368302 0)
(0.269418 -0.329814 0)
(0.33625 -0.295878 0)
(0.413775 -0.279899 0)
(0.444004 -0.271068 0)
(0.423472 -0.271491 0)
(0.345196 -0.253564 0)
(0.280215 -0.168428 0)
(0.276495 0.0658798 0)
(0.249942 0.19711 0)
(0.212587 0.180865 0)
(0.0336442 -0.114197 0)
(-0.118692 -0.254752 0)
(-0.153505 -0.319405 0)
(-0.131809 -0.371869 0)
(-0.0919417 -0.422132 0)
(-0.046632 -0.472066 0)
(-0.00973125 -0.507197 0)
(0.0180884 -0.538362 0)
(0.0380762 -0.56314 0)
(0.0362241 -0.584091 0)
(0.0539284 -0.569874 0)
(-0.0048416 -0.433442 0)
(0.0152655 -0.462562 0)
(0.0332283 -0.459984 0)
(0.0649874 -0.446845 0)
(0.0982415 -0.428757 0)
(0.129045 -0.403678 0)
(0.159889 -0.379665 0)
(0.188046 -0.352646 0)
(0.211402 -0.326411 0)
(0.246873 -0.291951 0)
(0.308283 -0.268394 0)
(0.373476 -0.26595 0)
(0.382355 -0.271216 0)
(0.334513 -0.288178 0)
(0.248586 -0.264691 0)
(0.230214 -0.186056 0)
(0.232323 -0.00928046 0)
(0.254282 0.189682 0)
(0.265753 0.221285 0)
(0.238838 0.149609 0)
(0.0522352 -0.11142 0)
(-0.0795045 -0.268702 0)
(-0.0980737 -0.340293 0)
(-0.0823407 -0.402694 0)
(-0.0487006 -0.462747 0)
(-0.0154043 -0.501437 0)
(0.00653992 -0.533836 0)
(0.0324771 -0.557228 0)
(0.0283978 -0.570455 0)
(0.0514363 -0.540585 0)
(-0.00301394 -0.409326 0)
(0.0144848 -0.435084 0)
(0.0375131 -0.431498 0)
(0.0691705 -0.421015 0)
(0.100117 -0.403565 0)
(0.127871 -0.376859 0)
(0.148024 -0.346177 0)
(0.165949 -0.318848 0)
(0.186086 -0.291633 0)
(0.218424 -0.26873 0)
(0.267023 -0.261019 0)
(0.303962 -0.272746 0)
(0.283064 -0.293616 0)
(0.200581 -0.319482 0)
(0.163434 -0.283577 0)
(0.189 -0.174164 0)
(0.248331 -0.0903743 0)
(0.263227 0.0829742 0)
(0.302092 0.189345 0)
(0.304291 0.180224 0)
(0.250456 0.0763858 0)
(0.0643163 -0.15602 0)
(-0.0311386 -0.287989 0)
(-0.0476512 -0.37662 0)
(-0.0414683 -0.450324 0)
(-0.01674 -0.490034 0)
(-0.00287892 -0.521039 0)
(0.0273995 -0.537552 0)
(0.0222375 -0.540458 0)
(0.0519748 -0.504598 0)
(-0.00198533 -0.388832 0)
(0.0169069 -0.416231 0)
(0.0425256 -0.414607 0)
(0.0716927 -0.400867 0)
(0.0951521 -0.377377 0)
(0.113663 -0.349851 0)
(0.128118 -0.320697 0)
(0.139962 -0.294726 0)
(0.154442 -0.274734 0)
(0.179399 -0.259337 0)
(0.207509 -0.263574 0)
(0.21754 -0.286931 0)
(0.149806 -0.336213 0)
(0.0966847 -0.351096 0)
(0.103042 -0.296769 0)
(0.174746 -0.174232 0)
(0.248422 -0.0860703 0)
(0.276845 -0.0329272 0)
(0.31437 0.0887576 0)
(0.341205 0.143762 0)
(0.330736 0.119612 0)
(0.254351 -0.00221359 0)
(0.0825795 -0.200377 0)
(0.0213966 -0.331363 0)
(-0.0161368 -0.426227 0)
(-0.00828038 -0.466459 0)
(-0.00949775 -0.497997 0)
(0.0199511 -0.510563 0)
(0.0109054 -0.501442 0)
(0.0520393 -0.465096 0)
(-0.00169659 -0.377231 0)
(0.0166549 -0.402537 0)
(0.0385317 -0.399996 0)
(0.0620936 -0.386964 0)
(0.0794668 -0.363299 0)
(0.0921735 -0.336051 0)
(0.101345 -0.309151 0)
(0.109378 -0.285277 0)
(0.117322 -0.267205 0)
(0.13086 -0.259374 0)
(0.142878 -0.269143 0)
(0.134506 -0.294347 0)
(0.0645891 -0.344481 0)
(0.0380102 -0.336798 0)
(0.0694889 -0.263793 0)
(0.152484 -0.169586 0)
(0.226744 -0.0868873 0)
(0.264784 -0.0584141 0)
(0.298694 0.0127456 0)
(0.345315 0.101684 0)
(0.352594 0.10243 0)
(0.337943 0.062548 0)
(0.229097 -0.0833679 0)
(0.143943 -0.259188 0)
(0.026664 -0.388295 0)
(0.00927613 -0.430328 0)
(-0.0140045 -0.464508 0)
(0.00908251 -0.473883 0)
(-0.00352582 -0.448423 0)
(0.0443032 -0.41632 0)
(-0.00565642 -0.368512 0)
(0.0110426 -0.394497 0)
(0.0271008 -0.393753 0)
(0.0436924 -0.380518 0)
(0.056142 -0.356539 0)
(0.0636892 -0.327055 0)
(0.0682712 -0.298505 0)
(0.0712399 -0.275265 0)
(0.0734311 -0.260527 0)
(0.0783477 -0.256634 0)
(0.0792892 -0.269752 0)
(0.0630603 -0.304919 0)
(0.00388246 -0.336918 0)
(-0.0111217 -0.316575 0)
(0.0332016 -0.229226 0)
(0.104396 -0.146427 0)
(0.177383 -0.0672047 0)
(0.235613 -0.04971 0)
(0.273335 -0.0203223 0)
(0.322113 0.0697407 0)
(0.351349 0.0914274 0)
(0.3575 0.0712717 0)
(0.308723 0.0211625 0)
(0.246303 -0.192075 0)
(0.0504536 -0.357724 0)
(0.0262189 -0.384769 0)
(-0.0207594 -0.423559 0)
(-0.00768525 -0.433979 0)
(-0.0145522 -0.398981 0)
(0.0373062 -0.369885 0)
(-0.0145498 -0.352884 0)
(-0.00186992 -0.391784 0)
(0.00994943 -0.392127 0)
(0.022066 -0.375446 0)
(0.0257864 -0.347481 0)
(0.0255837 -0.315771 0)
(0.0240216 -0.285808 0)
(0.0233434 -0.261929 0)
(0.0216528 -0.248952 0)
(0.0222139 -0.247357 0)
(0.0152127 -0.262098 0)
(-0.0204122 -0.295675 0)
(-0.076549 -0.324635 0)
(-0.0660778 -0.287701 0)
(-0.0070136 -0.189554 0)
(0.0562497 -0.107764 0)
(0.127803 -0.0421078 0)
(0.183284 -0.023277 0)
(0.231316 -0.0167483 0)
(0.285304 0.0528931 0)
(0.33474 0.0871202 0)
(0.349813 0.0702513 0)
(0.325005 0.0389806 0)
(0.246538 -0.189483 0)
(0.0304629 -0.326651 0)
(0.0240044 -0.337196 0)
(-0.0317738 -0.378743 0)
(-0.023036 -0.3871 0)
(-0.0155641 -0.358514 0)
(0.030422 -0.33046 0)
(-0.0132211 -0.335227 0)
(-0.00859404 -0.390513 0)
(0.00127885 -0.389049 0)
(0.00143252 -0.366737 0)
(-0.00567038 -0.33813 0)
(-0.0163017 -0.30501 0)
(-0.0266625 -0.27353 0)
(-0.0356391 -0.24592 0)
(-0.0416257 -0.228816 0)
(-0.0409615 -0.22874 0)
(-0.0523786 -0.247971 0)
(-0.0949733 -0.275695 0)
(-0.121661 -0.280678 0)
(-0.114146 -0.244705 0)
(-0.0537993 -0.150492 0)
(-0.0120064 -0.0303705 0)
(0.0751182 0.011514 0)
(0.127536 0.0164013 0)
(0.165719 0.0164778 0)
(0.223373 0.0621274 0)
(0.296415 0.0976388 0)
(0.328439 0.0836467 0)
(0.320219 0.0161899 0)
(0.0820098 -0.267831 0)
(-0.0325656 -0.302975 0)
(-0.0150756 -0.305777 0)
(-0.0442928 -0.339572 0)
(-0.0301583 -0.346871 0)
(-0.00629682 -0.32617 0)
(0.0310139 -0.294643 0)
(-0.0127796 -0.348671 0)
(-0.00982571 -0.395167 0)
(0.000381466 -0.385645 0)
(-0.00715151 -0.362677 0)
(-0.0335059 -0.332667 0)
(-0.0631752 -0.296125 0)
(-0.0832826 -0.266432 0)
(-0.0943831 -0.238102 0)
(-0.102378 -0.213166 0)
(-0.109354 -0.198111 0)
(-0.126266 -0.219701 0)
(-0.162623 -0.242475 0)
(-0.170732 -0.240363 0)
(-0.150684 -0.196922 0)
(-0.087182 -0.123456 0)
(-0.0370549 0.00650142 0)
(0.0261092 0.0378066 0)
(0.0771444 0.0404972 0)
(0.117735 0.0423373 0)
(0.175667 0.0771182 0)
(0.234717 0.0969332 0)
(0.285714 0.078339 0)
(0.251397 -0.0329263 0)
(-0.0432488 -0.268287 0)
(-0.0537848 -0.263804 0)
(-0.0686075 -0.29384 0)
(-0.0558708 -0.316982 0)
(-0.033686 -0.327035 0)
(-0.00248281 -0.311761 0)
(0.025422 -0.251892 0)
(-0.0186012 -0.375589 0)
(0.00235139 -0.409474 0)
(0.00971097 -0.391083 0)
(-0.00216001 -0.36359 0)
(-0.0549704 -0.32761 0)
(-0.122657 -0.277456 0)
(-0.142209 -0.258997 0)
(-0.153829 -0.233764 0)
(-0.16254 -0.209181 0)
(-0.165556 -0.181913 0)
(-0.177992 -0.16574 0)
(-0.228935 -0.190328 0)