/*--------------------------------*- C++ -*----------------------------------*\
| =========                 |                                                 |
| \\      /  F ield         | OpenFOAM: The Open Source CFD Toolbox           |
|  \\    /   O peration     | Version:  v1606+                                |
|   \\  /    A nd           | Web:      www.OpenFOAM.com                      |
|    \\/     M anipulation  |                                                 |
\*---------------------------------------------------------------------------*/
FoamFile
{
    version     2.0;
    format      ascii;
    class       surfaceScalarField;
    location    "0.93";
    object      phi.particles;
}
// * * * * * * * * * * * * * * * * * * * * * * * * * * * * * * * * * * * * * //

dimensions      [0 3 -1 0 0 0 0];

internalField   nonuniform List<scalar> 
11770
(
-1.27368e-06
-1.82346e-05
1.042e-06
-1.8879e-05
2.93961e-06
-1.80746e-05
2.81289e-06
-1.70831e-05
9.51464e-07
-1.64316e-05
-1.45322e-06
-1.59536e-05
-3.00269e-06
-1.36764e-05
-3.44644e-06
-1.19861e-05
-2.35839e-06
-1.0991e-05
-3.74772e-07
-1.31385e-05
1.39165e-06
-1.48768e-05
2.51155e-06
-1.52937e-05
3.05371e-06
-1.52538e-05
3.28965e-06
-1.48102e-05
3.32856e-06
-1.42134e-05
3.18291e-06
-1.41837e-05
2.92101e-06
-1.46397e-05
2.70366e-06
-1.53307e-05
2.85257e-06
-1.62953e-05
3.53872e-06
-1.57914e-05
4.87373e-06
-1.4523e-05
6.10916e-06
-1.19933e-05
6.47841e-06
-1.0971e-05
6.04286e-06
-1.19346e-05
4.17856e-06
-1.46118e-05
1.71572e-06
-1.60823e-05
4.83539e-07
-1.63795e-05
1.51372e-06
-1.76714e-05
2.99882e-06
-1.88607e-05
-1.86724e-05
3.6718e-06
-1.32777e-05
5.57362e-06
-1.3992e-05
8.03505e-06
-1.23386e-05
9.54009e-06
-8.36205e-06
8.53653e-06
-4.95633e-06
5.3941e-06
-1.34631e-06
1.60904e-06
4.39699e-06
-1.55425e-06
9.22617e-06
-1.60172e-06
5.98652e-06
7.17227e-07
3.94761e-06
2.75931e-06
4.27196e-06
4.2243e-06
5.49223e-06
5.08476e-06
6.79684e-06
5.23751e-06
8.32901e-06
4.8065e-06
9.34973e-06
3.85144e-06
1.01985e-05
2.78851e-06
1.04069e-05
2.26473e-06
9.30761e-06
2.26339e-06
8.00288e-06
2.84634e-06
6.69469e-06
4.56039e-06
5.70993e-06
5.59798e-06
6.06139e-06
3.94765e-06
8.83886e-06
6.77951e-07
8.48811e-06
-3.15485e-06
2.41406e-06
-5.7669e-06
-2.37508e-06
-5.76747e-06
-6.5164e-06
-4.1934e-06
-1.06169e-05
-2.66452e-06
-1.3198e-05
-1.28331e-05
4.86532e-06
-2.19847e-05
7.12356e-06
-2.21157e-05
9.18108e-06
-2.08039e-05
1.03321e-05
-1.8678e-05
1.03902e-05
-1.60391e-05
7.81336e-06
-1.26786e-05
2.25789e-06
-7.27801e-06
-7.75936e-07
-1.17215e-06
8.90889e-07
-1.741e-06
3.69924e-06
-2.92028e-06
6.13529e-06
-3.05633e-06
7.70547e-06
-1.37177e-06
8.12793e-06
1.13706e-06
7.57585e-06
2.90837e-06
6.15542e-06
3.73563e-06
4.00787e-06
5.17333e-06
1.71096e-06
6.46736e-06
2.83923e-08
6.01011e-06
-5.88629e-07
4.34066e-06
1.9498e-08
1.06912e-06
2.25911e-06
-1.08434e-06
5.0651e-06
-1.01731e-06
4.30808e-06
7.17725e-07
-1.0626e-06
-2.16416e-06
-6.30315e-06
-8.5487e-06
-8.4109e-06
-1.31475e-05
-8.21293e-06
-1.69223e-05
-6.74809e-06
-1.96218e-05
-4.92728e-06
-2.13069e-05
-2.11489e-05
3.87166e-06
-2.16535e-05
5.61493e-06
-2.17026e-05
7.15137e-06
-2.09503e-05
8.02367e-06
-1.96808e-05
9.05549e-06
-1.74845e-05
9.86838e-06
-1.57434e-05
8.61137e-06
-1.13948e-05
6.47841e-06
-7.39025e-06
6.21875e-06
-6.02139e-06
7.7974e-06
-5.72352e-06
9.37344e-06
-5.34397e-06
9.8972e-06
-3.56992e-06
9.79801e-06
-2.65222e-06
9.14423e-06
-3.71714e-06
7.49695e-06
-4.32949e-06
5.17719e-06
-3.3339e-06
2.59507e-06
-1.06655e-06
-3.13106e-07
2.30921e-06
-2.77399e-06
3.45273e-06
-3.32974e-06
2.88021e-07
-1.82149e-06
-2.69148e-06
-4.26337e-07
-3.51867e-06
-2.62201e-06
-3.74556e-06
-6.52547e-06
-7.10269e-06
-7.95419e-06
-1.26529e-05
-7.80205e-06
-1.52929e-05
-7.34088e-06
-1.78824e-05
-6.20486e-06
-1.98429e-05
-4.83101e-06
-2.11006e-05
-2.12118e-05
1.93663e-06
-1.81332e-05
3.88466e-06
-1.82372e-05
5.57454e-06
-1.80914e-05
6.66434e-06
-1.75102e-05
7.77722e-06
-1.57371e-05
9.57561e-06
-1.44892e-05
1.1328e-05
-1.19965e-05
1.10176e-05
-1.13949e-05
9.58024e-06
-1.1736e-05
9.24237e-06
-1.25004e-05
9.43076e-06
-1.3471e-05
9.32526e-06
-1.43469e-05
8.94986e-06
-1.62717e-05
8.19406e-06
-1.82153e-05
7.2123e-06
-1.88752e-05
5.93443e-06
-1.80712e-05
3.95897e-06
-1.5609e-05
6.96018e-07
-1.09709e-05
-2.49697e-06
-6.73312e-06
-3.58561e-06
-7.41483e-06
-3.56048e-06
-8.81898e-06
-4.89067e-06
-8.49336e-06
-7.66802e-06
-8.22818e-06
-8.75681e-06
-8.88563e-06
-8.01132e-06
-1.21857e-05
-7.19175e-06
-1.36868e-05
-6.47805e-06
-1.60333e-05
-5.03794e-06
-1.74362e-05
-3.10019e-06
-1.85611e-05
-1.88323e-05
1.67032e-06
-1.28943e-05
2.13295e-06
-1.28568e-05
2.69539e-06
-1.31225e-05
3.72368e-06
-1.33525e-05
5.66639e-06
-1.22481e-05
7.83551e-06
-1.07192e-05
1.02079e-05
-1.01223e-05
1.16795e-05
-1.19723e-05
1.03179e-05
-1.45836e-05
7.95635e-06
-1.81918e-05
5.81067e-06
-2.17766e-05
4.34898e-06
-2.47834e-05
4.05137e-06
-2.72139e-05
4.61843e-06
-2.84124e-05
5.85063e-06
-2.84491e-05
7.32016e-06
-2.7502e-05
8.23393e-06
-2.52623e-05
7.6513e-06
-2.20563e-05
5.27987e-06
-1.84704e-05
1.68196e-06
-1.71837e-05
-2.77903e-06
-1.60789e-05
-7.25989e-06
-1.2724e-05
-9.22071e-06
-9.34516e-06
-8.28039e-06
-7.61716e-06
-6.53408e-06
-8.94236e-06
-5.28397e-06
-1.01549e-05
-4.94396e-06
-1.22643e-05
-4.3813e-06
-1.31337e-05
-3.12567e-06
-1.44294e-05
-1.49637e-05
7.38541e-07
-7.32845e-06
3.28071e-07
-7.08262e-06
-1.10657e-07
-7.82447e-06
5.55447e-07
-9.04539e-06
2.81389e-06
-8.99786e-06
5.0472e-06
-6.80937e-06
6.99336e-06
-7.70263e-06
8.11833e-06
-1.09785e-05
6.73291e-06
-1.50742e-05
4.62448e-06
-1.97715e-05
2.99879e-06
-2.3339e-05
2.30049e-06
-2.57372e-05
2.8417e-06
-2.78704e-05
3.97196e-06
-2.91452e-05
5.72971e-06
-2.9197e-05
7.88101e-06
-2.83264e-05
9.74675e-06
-2.64518e-05
1.13674e-05
-2.32608e-05
1.14939e-05
-2.15778e-05
8.32112e-06
-2.11091e-05
2.33462e-06
-1.93641e-05
-4.72047e-06
-1.46701e-05
-7.77574e-06
-8.83155e-06
-6.43236e-06
-5.79352e-06
-4.41292e-06
-5.51547e-06
-3.20033e-06
-7.14921e-06
-3.51545e-06
-8.6197e-06
-3.55633e-06
-9.05713e-06
-2.66721e-06
-1.03026e-05
-1.09919e-05
3.0836e-07
-2.21239e-06
-1.35422e-06
-6.76028e-07
-2.86577e-06
-1.42942e-06
-2.99652e-06
-3.64529e-06
-1.04403e-06
-4.66264e-06
1.62185e-06
-2.7421e-06
2.66001e-06
-4.10743e-06
2.75868e-06
-7.98855e-06
3.06e-06
-1.27621e-05
3.17176e-06
-1.68124e-05
3.65346e-06
-1.78923e-05
4.59284e-06
-1.89941e-05
4.96948e-06
-2.20131e-05
5.06486e-06
-2.45518e-05
5.66436e-06
-2.59119e-05
6.72043e-06
-2.58841e-05
7.98861e-06
-2.43618e-05
9.94723e-06
-2.03321e-05
1.11482e-05
-1.829e-05
1.02813e-05
-1.75753e-05
7.38405e-06
-1.40143e-05
1.88055e-06
-1.09766e-05
-2.56642e-06
-7.21765e-06
-3.03667e-06
-3.55562e-06
-1.16254e-06
-2.06303e-06
-8.50904e-07
-3.72405e-06
-2.05403e-06
-4.43209e-06
-2.46386e-06
-4.87699e-06
-2.33561e-06
-6.15256e-06
-7.34663e-06
9.99779e-07
1.26987e-06
-1.74547e-06
4.84509e-06
-4.91915e-06
5.97127e-06
-6.28565e-06
3.38107e-06
-4.89927e-06
9.84598e-07
-2.1961e-06
1.81853e-06
-8.13706e-07
1.32938e-06
3.05064e-07
-3.09321e-06
3.89074e-06
-8.4313e-06
6.94691e-06
-1.15394e-05
8.31937e-06
-1.26556e-05
1.02864e-05
-1.33902e-05
1.02869e-05
-1.56496e-05
8.42673e-06
-1.73353e-05
7.52224e-06
-1.97312e-05
6.98748e-06
-2.10605e-05
6.91212e-06
-2.09516e-05
7.38398e-06
-1.69731e-05
8.64928e-06
-1.37942e-05
9.79925e-06
-1.02702e-05
8.63676e-06
-7.1013e-06
6.08433e-06
-5.78149e-06
3.11284e-06
-4.31661e-06
1.71348e-06
-7.63347e-07
2.18127e-06
1.63125e-06
1.50476e-06
4.25228e-07
-1.02761e-07
2.84693e-08
-1.46463e-06
-6.56276e-07
-1.96695e-06
-2.33067e-06
-4.44964e-06
1.70829e-06
2.86814e-06
-5.43933e-07
7.79329e-06
-4.74083e-06
1.10235e-05
-8.50135e-06
1.11017e-05
-8.5118e-06
7.86962e-06
-5.52067e-06
7.7968e-06
-2.06824e-06
7.91248e-06
2.03219e-06
2.37003e-06
6.13508e-06
-3.22664e-06
9.10044e-06
-5.55694e-06
1.31374e-05
-7.21873e-06
1.71726e-05
-8.62e-06
1.84888e-05
-1.15709e-05
1.73758e-05
-1.27943e-05
1.52314e-05
-1.40829e-05
1.11148e-05
-1.45886e-05
6.76498e-06
-1.55555e-05
5.84151e-06
-1.34436e-05
8.29345e-06
-8.59841e-06
9.69397e-06
-4.25365e-06
8.97778e-06
-3.54121e-06
9.04507e-06
-2.47043e-06
8.62524e-06
-2.4173e-07
7.19581e-06
3.18817e-06
5.56265e-06
6.04816e-06
3.45135e-06
5.09783e-06
1.05648e-06
4.63635e-06
-1.04564e-06
3.33672e-06
-1.82477e-06
1.10104e-06
-2.09321e-06
-1.81222e-07
3.53151e-06
-2.11029e-06
9.13089e-06
-4.99988e-06
1.30088e-05
-1.06347e-05
1.4869e-05
-1.30421e-05
1.30971e-05
-8.32241e-06
9.50259e-06
-1.63771e-06
6.79926e-06
3.58568e-06
2.5865e-06
7.07497e-06
-1.38146e-06
9.98051e-06
-2.50266e-06
1.3631e-05
-3.03223e-06
1.7857e-05
-6.2195e-06
2.18326e-05
-1.07205e-05
2.434e-05
-1.23291e-05
2.44694e-05
-1.19165e-05
2.17181e-05
-1.0144e-05
1.37275e-05
-9.53326e-06
7.13401e-06
-8.13033e-06
6.92975e-06
-2.14502e-06
8.41529e-06
3.75743e-07
1.0362e-05
4.56733e-07
1.27531e-05
1.94668e-06
1.37282e-05
4.31578e-06
1.23838e-05
7.73478e-06
8.94994e-06
1.10674e-05
4.68985e-06
1.01805e-05
1.35119e-06
8.84033e-06
-8.68575e-07
6.70785e-06
-1.72971e-06
3.87658e-06
-6.09664e-08
-1.73981e-06
4.06323e-06
-4.41767e-06
1.01911e-05
-7.10702e-06
1.43548e-05
-9.89555e-06
1.60038e-05
-1.40668e-05
1.4444e-05
-1.26591e-05
8.5428e-06
-4.37732e-06
2.53521e-06
3.11451e-06
-2.33054e-07
7.93572e-06
-1.36143e-06
1.18549e-05
-1.23722e-06
1.49338e-05
-2.60095e-06
1.69143e-05
-7.48248e-06
1.91082e-05
-1.13487e-05
2.13898e-05
-1.21904e-05
2.27208e-05
-1.122e-05
2.32362e-05
-8.92369e-06
2.22106e-05
-6.36713e-06
1.40455e-05
-3.47084e-06
6.18701e-06
2.34075e-06
6.39286e-06
8.02087e-06
8.8988e-06
7.99838e-06
1.17198e-05
9.02302e-06
1.53228e-05
1.08684e-05
1.69747e-05
1.43136e-05
1.23838e-05
1.61446e-05
5.77308e-06
1.55115e-05
1.79412e-06
1.27145e-05
-4.15601e-07
9.74992e-06
-1.41954e-06
6.03441e-06
1.49168e-06
-2.84992e-06
4.44245e-06
-5.92972e-06
1.12436e-05
-8.56414e-06
1.60437e-05
-1.08319e-05
1.73663e-05
-1.27905e-05
1.45676e-05
-1.34305e-05
9.19841e-06
-9.04109e-06
2.68502e-06
-1.27129e-06
-1.70825e-06
4.96047e-06
-2.67843e-06
9.75096e-06
-2.00891e-06
1.30204e-05
-4.09049e-06
1.46748e-05
-8.7494e-06
1.64524e-05
-1.17184e-05
1.85818e-05
-1.25079e-05
2.05401e-05
-1.15481e-05
2.2105e-05
-9.28146e-06
2.40482e-05
-5.78235e-06
2.41837e-05
-1.35383e-06
1.74295e-05
4.54684e-06
1.22168e-05
1.2012e-05
1.45034e-05
1.48607e-05
1.76483e-05
1.62553e-05
2.02483e-05
1.86779e-05
2.20278e-05
2.35176e-05
1.80428e-05
2.50026e-05
9.45636e-06
2.36744e-05
3.24317e-06
1.80653e-05
4.63099e-07
1.32186e-05
-6.66545e-07
8.01658e-06
2.61992e-06
-3.21535e-06
4.83069e-06
-6.42583e-06
1.25021e-05
-9.06579e-06
1.84823e-05
-1.0575e-05
1.9677e-05
-1.11544e-05
1.48771e-05
-1.12892e-05
8.92065e-06
-1.028e-05
2.47881e-06
-6.06587e-06
-3.15394e-06
6.33317e-07
-6.22895e-06
7.11066e-06
-6.33344e-06
1.14304e-05
-7.02335e-06
1.34285e-05
-1.05257e-05
1.49324e-05
-1.27107e-05
1.67422e-05
-1.32015e-05
1.86509e-05
-1.20694e-05
2.03507e-05
-9.42719e-06
2.14569e-05
-5.51806e-06
2.2315e-05
-2.48643e-07
2.22532e-05
5.95013e-06
1.7944e-05
1.25585e-05
1.4661e-05
1.89233e-05
1.65785e-05
2.04642e-05
2.02883e-05
2.24755e-05
2.57424e-05
2.83895e-05
2.67719e-05
3.39534e-05
1.72783e-05
3.36322e-05
6.71136e-06
2.68232e-05
2.61095e-06
1.76396e-05
8.38664e-07
1.02718e-05
3.83806e-06
-2.56232e-06
7.49433e-06
-5.52528e-06
1.31212e-05
-7.68302e-06
1.77007e-05
-8.11534e-06
1.88405e-05
-8.18835e-06
1.51554e-05
-8.16559e-06
8.55894e-06
-7.67925e-06
2.21269e-06
-6.264e-06
-3.52022e-06
-2.76959e-06
-7.82855e-06
3.24296e-06
-9.94149e-06
9.01459e-06
-1.05418e-05
1.19278e-05
-1.27898e-05
1.34901e-05
-1.39991e-05
1.50289e-05
-1.39247e-05
1.63963e-05
-1.22913e-05
1.71771e-05
-9.19426e-06
1.71748e-05
-4.84546e-06
1.63545e-05
4.96164e-07
1.55286e-05
7.47008e-06
1.23838e-05
1.48035e-05
5.72879e-06
2.00875e-05
3.57807e-06
2.2666e-05
1.06037e-05
2.2581e-05
2.10893e-05
2.42097e-05
2.77596e-05
3.13324e-05
2.37644e-05
3.80649e-05
1.37668e-05
3.47772e-05
7.17674e-06
2.38386e-05
3.32971e-06
1.33407e-05
5.14161e-06
-3.30714e-06
1.05514e-05
-2.11278e-06
1.55342e-05
-1.56843e-06
1.52883e-05
-2.49725e-06
1.41656e-05
-4.03963e-06
1.24681e-05
-4.72497e-06
7.95683e-06
-4.72628e-06
1.72553e-06
-4.10122e-06
-3.73661e-06
-2.70473e-06
-8.26807e-06
6.73623e-07
-1.16098e-05
6.10958e-06
-1.34772e-05
1.01191e-05
-1.50501e-05
1.1923e-05
-1.53239e-05
1.3246e-05
-1.45078e-05
1.41118e-05
-1.22981e-05
1.44091e-05
-8.77676e-06
1.3389e-05
-4.48316e-06
1.01649e-05
1.00467e-06
6.97489e-06
9.03413e-06
4.30524e-06
1.65377e-05
1.57317e-06
2.1613e-05
-3.3322e-06
2.38444e-05
-7.18873e-06
2.15157e-05
-9.46871e-07
1.97156e-05
1.52221e-05
2.12859e-05
2.40217e-05
2.75898e-05
2.15333e-05
3.12597e-05
1.43304e-05
2.8894e-05
6.25042e-06
1.97035e-05
8.60467e-06
1.36365e-06
1.12412e-05
-2.93809e-06
1.83746e-05
-4.07946e-06
1.70433e-05
-2.1566e-06
1.30173e-05
-7.95054e-07
9.43411e-06
-1.59294e-06
6.72393e-06
-2.2016e-06
5.14683e-07
-2.03311e-06
-4.35713e-06
-1.28693e-06
-8.64995e-06
3.42372e-07
-1.22596e-05
4.19451e-06
-1.50419e-05
8.29567e-06
-1.68548e-05
1.04025e-05
-1.65006e-05
1.16809e-05
-1.50505e-05
1.2616e-05
-1.24326e-05
1.27858e-05
-9.04099e-06
1.18583e-05
-4.54157e-06
4.63249e-06
8.86929e-06
-1.93865e-06
1.49158e-05
-3.88571e-06
1.96159e-05
-5.05648e-06
2.31814e-05
-6.57592e-06
2.41434e-05
-7.75905e-06
2.23449e-05
-8.8502e-06
1.92444e-05
-6.23539e-06
1.58837e-05
3.59954e-06
1.51789e-05
1.53433e-05
1.92575e-05
1.68325e-05
2.47076e-05
1.22954e-05
2.62857e-05
1.58443e-05
1.84283e-07
1.14638e-05
-2.7026e-06
2.00667e-05
-4.83045e-06
2.02962e-05
-4.92886e-06
1.5996e-05
-3.00444e-06
1.07497e-05
-9.74183e-07
6.49526e-06
-8.09636e-07
-1.99612e-07
-5.2582e-07
-5.55372e-06
-9.82257e-08
-9.50652e-06
1.0612e-06
-1.27429e-05
3.51492e-06
-1.58346e-05
6.84873e-06
-1.79226e-05
9.00508e-06
-1.73955e-05
1.0438e-05
-1.56506e-05
1.13714e-05
-1.3034e-05
1.26389e-05
-9.49909e-06
1.08378e-05
-6.06017e-06
1.5778e-06
2.16031e-05
-9.1491e-06
3.00007e-05
-1.05146e-05
2.79942e-05
-9.20976e-06
2.73981e-05
-8.52022e-06
2.50025e-05
-8.31899e-06
2.20913e-05
-7.90171e-06
1.90499e-05
-6.98128e-06
1.58356e-05
-5.06161e-06
1.32502e-05
-1.87606e-06
1.24389e-05
3.10745e-06
1.52608e-05
5.02884e-06
2.08251e-05
2.49594e-05
-1.89383e-06
1.36394e-05
-4.55193e-06
2.26278e-05
-5.77954e-06
2.23074e-05
-5.29745e-06
1.86455e-05
-4.401e-06
1.37243e-05
-3.09113e-06
8.55845e-06
-1.02217e-06
2.12627e-06
4.36591e-09
-7.52626e-06
8.3583e-07
-1.02372e-05
1.69932e-06
-1.34896e-05
3.48724e-06
-1.63984e-05
5.90965e-06
-1.84187e-05
7.8069e-06
-1.79823e-05
9.27491e-06
-1.61876e-05
1.0465e-05
-1.38195e-05
1.22908e-05
-1.11316e-05
8.39659e-06
-6.73978e-07
-3.16011e-06
3.64138e-05
-1.2135e-05
4.0292e-05
-1.41205e-05
3.24818e-05
-1.1516e-05
2.75377e-05
-8.35452e-06
2.39148e-05
-7.15894e-06
2.11077e-05
-6.49479e-06
1.83283e-05
-5.78662e-06
1.55957e-05
-4.90511e-06
1.31658e-05
-3.9626e-06
1.14226e-05
-3.24826e-06
1.06431e-05
-1.51392e-06
1.08513e-05
1.95229e-05
-2.90664e-06
1.76999e-05
-3.52861e-06
2.30712e-05
-4.22778e-06
2.29064e-05
-4.02329e-06
2.0227e-05
-3.44853e-06
1.58667e-05
-3.13354e-06
1.12348e-05
-1.88067e-06
5.4349e-06
-9.79836e-08
-6.85043e-06
1.19195e-06
-1.14187e-05
2.15479e-06
-1.43001e-05
3.56506e-06
-1.6915e-05
5.31973e-06
-1.86877e-05
6.95002e-06
-1.83932e-05
8.34688e-06
-1.67477e-05
9.99527e-06
-1.4363e-05
7.66745e-06
-1.26555e-05
1.3255e-06
1.5956e-05
-5.65914e-06
4.35841e-05
-6.71417e-06
3.27535e-05
-4.07203e-06
2.62954e-05
-3.06148e-06
2.23842e-05
-3.72906e-06
2.10045e-05
-4.25796e-06
1.95535e-05
-4.25087e-06
1.74998e-05
-4.02304e-06
1.52898e-05
-3.66337e-06
1.31585e-05
-3.24724e-06
1.12535e-05
-3.08983e-06
9.56389e-06
-3.87028e-06
7.98043e-06
7.21372e-06
9.02025e-07
1.833e-05
1.60999e-06
2.07146e-05
2.55784e-07
2.21745e-05
-6.96293e-07
2.11282e-05
-9.81306e-07
1.70738e-05
-1.06195e-06
1.29256e-05
-1.35004e-06
7.48077e-06
-4.62859e-07
-4.24924e-06
1.12218e-06
-1.24929e-05
2.35187e-06
-1.50997e-05
3.56275e-06
-1.75516e-05
4.94035e-06
-1.89508e-05
6.38287e-06
-1.87278e-05
7.822e-06
-1.75035e-05
9.44228e-06
-1.55906e-05
4.6966e-06
-1.31203e-05
-2.21582e-06
3.24904e-05
-2.30143e-06
3.28244e-05
7.29742e-07
2.35275e-05
1.35724e-06
2.13179e-05
8.51528e-07
2.03226e-05
-1.30636e-07
1.96294e-05
-1.14788e-06
1.85717e-05
-1.66335e-06
1.7045e-05
-1.91006e-06
1.52101e-05
-1.97655e-06
1.32876e-05
-1.88736e-06
1.13171e-05
-1.78037e-06
9.26904e-06
-1.59499e-06
7.1053e-06
4.24066e-06
4.054e-06
1.32714e-05
4.32608e-06
1.88317e-05
3.84144e-06
2.14194e-05
2.53903e-06
2.19425e-05
1.41552e-06
1.73622e-05
7.80055e-07
1.32849e-05
-7.12541e-07
7.86939e-06
-9.00836e-07
-2.40809e-06
8.51495e-07
-1.31181e-05
2.29722e-06
-1.62028e-05
3.53197e-06
-1.83489e-05
4.79784e-06
-1.93447e-05
6.12744e-06
-1.90985e-05
7.55391e-06
-1.8284e-05
8.15343e-06
-1.71449e-05
4.48646e-06
-1.04536e-05
1.68833e-06
3.24369e-05
2.79987e-06
2.48361e-05
3.56617e-06
2.24875e-05
3.68232e-06
2.11028e-05
3.42464e-06
2.03281e-05
2.76727e-06
1.96866e-05
1.85768e-06
1.87632e-05
1.0128e-06
1.7417e-05
3.19526e-07
1.56415e-05
-2.13666e-07
1.37494e-05
-5.17703e-07
1.16358e-05
-5.84691e-07
9.29243e-06
-4.83471e-07
6.6605e-06
3.20721e-06
3.72663e-06
8.62442e-06
4.19083e-06
1.71422e-05
4.1907e-06
2.13232e-05
2.53293e-06
2.32822e-05
3.57213e-07
1.79338e-05
-3.9151e-07
1.2762e-05
-1.54359e-06
7.6023e-06
-1.87377e-06
-2.9232e-07
1.72443e-07
-1.3532e-05
2.1529e-06
-1.75328e-05
3.56227e-06
-1.92788e-05
4.92241e-06
-1.99696e-05
6.16873e-06
-1.97686e-05
7.72038e-06
-1.88501e-05
6.22682e-06
-1.84348e-05
5.81255e-06
5.51709e-06
5.5383e-06
2.49263e-05
6.04264e-06
2.40903e-05
6.4665e-06
2.22615e-05
6.61666e-06
2.1063e-05
6.40136e-06
2.06046e-05
5.7418e-06
2.03224e-05
4.75914e-06
1.96705e-05
3.53856e-06
1.83726e-05
2.34242e-06
1.64888e-05
1.27912e-06
1.45346e-05
5.75297e-07
1.22102e-05
2.2188e-07
9.52678e-06
5.67257e-08
6.43647e-06
2.45343e-06
1.75645e-06
6.85641e-06
1.98021e-06
1.61252e-05
1.95232e-06
2.15633e-05
-8.83006e-07
2.40725e-05
-4.7298e-06
2.07852e-05
-5.94084e-06
1.32354e-05
-5.71099e-06
8.2629e-06
-4.0292e-06
1.91605e-06
-5.97933e-07
-1.3768e-05
2.17419e-06
-1.89973e-05
3.73159e-06
-2.03212e-05
5.15082e-06
-2.08168e-05
6.69842e-06
-2.07212e-05
8.66785e-06
-1.9925e-05
1.02716e-05
-1.77637e-05
9.70853e-06
1.35108e-05
9.21496e-06
2.34275e-05
9.35497e-06
2.29651e-05
9.91233e-06
2.12163e-05
1.02805e-05
2.0534e-05
1.01512e-05
2.07016e-05
9.31379e-06
2.08668e-05
7.92559e-06
2.05678e-05
6.10423e-06
1.94963e-05
3.85699e-06
1.7412e-05
2.1321e-06
1.53538e-05
1.16307e-06
1.28404e-05
6.25879e-07
9.85703e-06
3.37545e-07
6.417e-06
2.23293e-06
-5.26608e-07
6.25172e-06
-1.3325e-06
1.62544e-05
-1.78909e-06
2.24642e-05
-3.00499e-06
2.39573e-05
-5.32071e-06
2.21314e-05
-5.93428e-06
1.47134e-05
-5.09739e-06
9.30366e-06
-3.86335e-06
3.99816e-06
-6.08742e-07
-1.36127e-05
2.33866e-06
-2.02157e-05
3.93665e-06
-2.1382e-05
5.40233e-06
-2.18056e-05
7.44906e-06
-2.17881e-05
1.06175e-05
-2.14226e-05
1.224e-05
-1.74709e-05
1.16335e-05
1.26979e-06
1.22631e-05
2.14762e-05
1.31714e-05
2.00331e-05
1.40658e-05
1.91171e-05
1.4612e-05
1.95514e-05
1.44967e-05
2.05886e-05
1.36275e-05
2.14115e-05
1.19073e-05
2.13833e-05
9.16195e-06
2.05421e-05
4.58988e-06
1.80564e-05
1.91227e-06
1.58171e-05
1.03709e-06
1.32113e-05
5.82497e-07
1.00093e-05
3.30942e-07
6.44729e-06
2.26593e-06
-2.05383e-06
6.91116e-06
-4.66735e-06
1.79643e-05
-5.69085e-06
2.41424e-05
-6.84378e-06
2.34898e-05
-8.25019e-06
2.00396e-05
-6.57206e-06
1.41791e-05
-3.23678e-06
7.69718e-06
-1.77599e-06
4.42372e-06
1.32033e-07
-1.23296e-05
2.50908e-06
-2.09733e-05
4.07161e-06
-2.23245e-05
5.60371e-06
-2.28143e-05
7.3264e-06
-2.27714e-05
8.69857e-06
-2.22092e-05
9.38693e-06
-1.83648e-05
1.26259e-05
-6.4152e-06
1.69581e-05
1.492e-05
1.75626e-05
1.50637e-05
1.8367e-05
1.68059e-05
1.89144e-05
1.86214e-05
1.90973e-05
2.05287e-05
1.86937e-05
2.22042e-05
1.65738e-05
2.35015e-05
1.21598e-05
2.61939e-05
5.58705e-06
2.85161e-05
5.83465e-07
1.70147e-05
1.57434e-07
1.32183e-05
1.81175e-07
9.88289e-06
1.51589e-07
6.32948e-06
2.25684e-06
-2.39355e-06
1.06688e-05
-5.0264e-06
2.42497e-05
-7.70829e-06
2.64664e-05
-8.23343e-06
2.3484e-05
-9.57827e-06
1.85444e-05
-1.11553e-05
1.19361e-05
-7.57387e-06
4.47417e-06
-1.56851e-06
3.62169e-07
1.26806e-06
-8.03401e-06
2.76254e-06
-2.15887e-05
4.1944e-06
-2.30891e-05
5.67571e-06
-2.37128e-05
7.05138e-06
-2.34947e-05
8.40373e-06
-2.2717e-05
1.00433e-05
-2.10876e-05
1.83026e-05
-2.93814e-06
2.16168e-05
6.3165e-06
2.07397e-05
1.09633e-05
2.11843e-05
1.51374e-05
2.16814e-05
1.81514e-05
2.18535e-05
2.07917e-05
2.14132e-05
2.32513e-05
1.96047e-05
2.67151e-05
1.52486e-05
3.20412e-05
6.11486e-06
3.77927e-05
2.73094e-07
2.90657e-05
-8.35138e-07
1.21922e-05
-1.68384e-07
9.63166e-06
9.14967e-10
6.07563e-06
2.18717e-06
-7.3015e-06
1.90147e-05
-6.03443e-06
2.99953e-05
-6.86055e-06
2.83886e-05
-6.95515e-06
2.4386e-05
-7.76863e-06
1.80764e-05
-8.69567e-06
1.07046e-05
-8.88627e-06
3.23408e-06
-4.78513e-06
-4.05405e-06
1.13911e-06
-7.41188e-06
2.95582e-06
-2.22254e-05
4.39068e-06
-2.38463e-05
5.93969e-06
-2.4585e-05
7.46887e-06
-2.43953e-05
9.51394e-06
-2.33627e-05
1.64898e-05
-2.22606e-05
2.27726e-05
-3.30459e-06
2.14202e-05
1.37565e-06
2.1876e-05
8.35061e-06
2.1851e-05
1.35353e-05
2.20688e-05
1.80111e-05
2.10383e-05
2.14138e-05
1.83933e-05
2.4429e-05
1.50203e-05
2.85118e-05
1.20918e-05
3.29141e-05
6.72224e-06
3.59522e-05
1.04384e-06
3.74646e-05
-7.84022e-07
1.77769e-05
-3.46515e-07
9.10355e-06
5.79628e-09
5.81904e-06
2.10659e-06
-4.65843e-06
2.5526e-05
-2.92531e-06
3.04799e-05
-3.05655e-06
2.88341e-05
-3.37908e-06
2.56227e-05
-4.17736e-06
1.92984e-05
-4.98732e-06
1.01063e-05
-5.78662e-06
1.89215e-06
-5.10296e-06
-5.22171e-06
-1.12361e-06
-1.15033e-05
3.46763e-06
-2.1572e-05
4.60176e-06
-2.48047e-05
6.19556e-06
-2.55715e-05
7.98298e-06
-2.56284e-05
1.03162e-05
-2.4695e-05
1.73534e-05
-2.14566e-05
2.14543e-05
-9.87055e-06
2.12845e-05
-1.48755e-06
2.1224e-05
5.76629e-06
2.14636e-05
1.22276e-05
2.11656e-05
1.81248e-05
1.87086e-05
2.23359e-05
1.354e-05
2.51299e-05
9.09577e-06
2.91062e-05
5.66298e-06
3.2563e-05
3.15813e-06
3.46117e-05
-1.22691e-06
3.39782e-05
-1.56949e-06
2.75672e-05
-6.31445e-07
9.59771e-06
3.38115e-08
5.63718e-06
2.1387e-06
-3.14842e-07
2.64737e-05
6.93366e-07
2.88286e-05
1.39477e-06
2.80494e-05
1.62687e-06
2.604e-05
7.9481e-07
2.17751e-05
-1.1991e-06
1.2925e-05
-2.22426e-06
7.30102e-07
-2.58277e-06
-6.82809e-06
-7.31127e-07
-1.34989e-05
2.62401e-06
-2.05764e-05
4.66489e-06
-2.60088e-05
6.34109e-06
-2.66908e-05
8.72959e-06
-2.70203e-05
1.40576e-05
-2.69007e-05
1.80908e-05
-2.19332e-05
1.79716e-05
-1.3245e-05
1.91177e-05
-4.23911e-06
1.95221e-05
3.60896e-06
2.04319e-05
1.09978e-05
2.02539e-05
1.80109e-05
1.4774e-05
2.3502e-05
5.98421e-06
3.08825e-05
1.78623e-06
3.10963e-05
1.88697e-07
3.28592e-05
-1.8686e-06
3.28333e-05
-2.83698e-06
3.16134e-05
-3.57402e-06
2.8478e-05
-7.88622e-07
1.53404e-05
1.17614e-07
5.80191e-06
2.3527e-06
5.05552e-07
2.64054e-05
2.24652e-06
2.66924e-05
3.99039e-06
2.60757e-05
5.28884e-06
2.50875e-05
5.644e-06
2.30942e-05
3.61759e-06
1.8336e-05
2.4697e-07
-2.4282e-06
2.04504e-07
-8.55242e-06
7.57685e-07
-1.46302e-05
2.2294e-06
-2.12518e-05
4.42851e-06
-2.67386e-05
6.28221e-06
-2.77928e-05
8.97923e-06
-2.8425e-05
1.2277e-05
-2.804e-05
1.41178e-05
-2.34169e-05
1.52092e-05
-1.52161e-05
1.6352e-05
-6.61506e-06
1.69514e-05
1.29115e-06
1.81231e-05
9.931e-06
1.81196e-05
1.39348e-05
1.51248e-05
1.19586e-05
3.0433e-06
3.00685e-05
-5.11333e-06
3.36881e-05
-4.4069e-06
3.40992e-05
-4.54136e-06
3.18556e-05
-5.70558e-06
2.87499e-05
-7.04632e-06
2.42503e-05
-4.37934e-06
1.87853e-05
-2.39974e-07
7.63231e-06
2.71557e-06
8.08654e-07
2.61374e-05
3.5016e-06
2.36762e-05
6.10593e-06
2.296e-05
7.53225e-06
2.31931e-05
7.61825e-06
2.29083e-05
5.0081e-06
2.09927e-05
2.059e-06
5.57126e-06
2.50133e-06
-1.05847e-05
2.41995e-06
-1.59957e-05
2.96186e-06
-2.15699e-05
3.94403e-06
-2.66477e-05
5.55631e-06
-2.85382e-05
7.82847e-06
-2.94228e-05
9.89064e-06
-2.83277e-05
1.13898e-05
-2.38847e-05
1.28647e-05
-1.68204e-05
1.34547e-05
-9.04853e-06
1.47183e-05
1.51315e-07
1.53726e-05
6.13731e-06
1.59925e-05
-1.16877e-05
1.49917e-05
-1.00624e-05
5.95561e-06
1.37859e-05
-4.06865e-06
2.82133e-05
-6.87373e-06
3.08666e-05
-5.24941e-06
3.11167e-05
-5.53523e-06
2.6398e-05
-5.66479e-06
2.20135e-05
-5.4232e-06
1.64919e-05
-2.21225e-06
9.49918e-06
3.13928e-06
2.29421e-06
2.45969e-05
5.98865e-06
2.02255e-05
8.99115e-06
1.96276e-05
1.10347e-05
2.07642e-05
1.22533e-05
2.18444e-05
1.22131e-05
2.19464e-05
7.99664e-06
1.69003e-05
3.42386e-06
-1.13233e-05
4.19482e-06
-1.61805e-05
4.22128e-06
-2.1421e-05
4.1134e-06
-2.62462e-05
4.82452e-06
-2.88717e-05
6.64462e-06
-3.0191e-05
8.29647e-06
-2.87719e-05
9.72903e-06
-2.468e-05
1.08062e-05
-1.8619e-05
1.2169e-05
-1.10423e-05
1.3792e-05
-3.62112e-06
1.68301e-05
-2.0194e-05
1.45523e-05
-3.97624e-05
8.46548e-06
-1.45557e-05
6.71618e-06
3.51172e-06
2.13418e-07
1.41267e-05
-3.77841e-06
1.64186e-05
-4.70518e-06
2.27205e-05
-3.64517e-06
2.47144e-05
-3.90138e-06
1.98833e-05
-3.72972e-06
1.49822e-05
-2.51278e-06
9.4432e-06
3.41484e-06
5.13987e-06
1.98247e-05
8.52217e-06
1.6844e-05
1.12394e-05
1.68044e-05
1.39534e-05
1.80863e-05
1.65344e-05
1.95049e-05
1.938e-05
2.01271e-05
1.32247e-05
1.69099e-05
5.41504e-06
-9.33395e-06
6.67978e-06
-1.57617e-05
6.37296e-06
-2.10236e-05
5.09091e-06
-2.59265e-05
4.49527e-06
-2.92004e-05
6.04433e-06
-3.12748e-05
7.4107e-06
-2.97226e-05
8.52115e-06
-2.59841e-05
9.43322e-06
-2.09145e-05
1.01724e-05
-1.47977e-05
1.4875e-05
-1.93594e-05
1.98892e-05
-4.80637e-05
7.36809e-06
-4.11966e-05
-1.30521e-07
-4.12861e-06
3.1317e-06
4.35139e-06
2.89591e-07
7.43861e-06
-4.42014e-06
-4.78425e-07
-4.66031e-06
2.73961e-06
-2.27887e-06
1.92075e-05
-1.7576e-06
1.82037e-05
-1.81453e-06
1.36487e-05
-1.47909e-06
8.49591e-06
3.1842e-06
7.36951e-06
1.31656e-05
9.99317e-06
1.355e-05
1.26855e-05
1.41864e-05
1.66678e-05
1.41136e-05
2.084e-05
1.30787e-05
2.34843e-05
1.34529e-05
2.03278e-05
9.81545e-06
1.44035e-05
-1.83679e-05
1.15523e-05
-1.93142e-05
9.40482e-06
-2.61586e-05
6.8097e-06
-3.62972e-05
4.34492e-06
-3.25971e-05
5.80597e-06
-3.33545e-05
6.92129e-06
-3.14595e-05
7.69279e-06
-2.80084e-05
8.34517e-06
-2.33946e-05
1.08981e-05
-2.13649e-05
1.62515e-05
-3.9484e-05
1.33196e-05
-5.23532e-05
8.56209e-07
-2.91361e-05
-3.77076e-06
2.44938e-06
-1.05399e-06
9.49268e-06
-4.41023e-06
1.01819e-05
-1.02086e-05
-2.33222e-07
-8.58618e-06
-1.0843e-05
-2.58794e-06
1.5865e-06
-4.56889e-07
1.45734e-05
-3.53355e-07
1.19613e-05
-3.41942e-07
7.14805e-06
2.45715e-06
6.63697e-06
-2.86637e-06
9.60848e-06
8.37068e-06
1.31122e-05
8.89164e-06
1.79384e-05
5.31572e-06
2.38365e-05
1.90006e-06
2.82695e-05
-2.78978e-06
2.55253e-05
-2.90743e-05
1.87688e-05
-7.41002e-05
1.19133e-05
-7.49847e-05
4.89263e-06
-6.97666e-05
3.49713e-06
-5.63529e-05
2.93412e-06
-3.88038e-05
5.40215e-06
-3.70671e-05
6.40316e-06
-3.40485e-05
7.89244e-06
-3.0216e-05
8.84427e-06
-2.5947e-05
1.14424e-05
-2.85099e-05
1.10827e-05
-5.47413e-05
4.00141e-06
-4.74657e-05
-3.47981e-06
-1.69933e-05
-5.08584e-06
5.53534e-06
-3.37746e-06
1.42937e-05
-2.38143e-06
1.5207e-05
-5.41373e-06
7.1706e-06
-1.01377e-05
-1.44153e-05
-7.23141e-06
-1.92718e-05
-1.18597e-06
6.98516e-06
2.84824e-07
9.02635e-06
3.74316e-07
5.32225e-06
1.52986e-06
3.26913e-06
-2.23065e-05
7.75184e-06
-2.81809e-06
1.36963e-05
-5.4445e-06
2.23402e-05
-2.53373e-05
2.90286e-05
-3.5735e-05
2.04445e-05
-4.76209e-05
-1.53669e-06
-9.33594e-05
-1.63043e-05
-0.000126018
-1.87736e-05
-0.00012576
-1.01695e-05
-0.000102766
1.50599e-06
-6.00045e-05
2.52755e-06
-4.57655e-05
4.66465e-06
-4.08814e-05
5.66255e-06
-3.69648e-05
7.44713e-06
-3.25225e-05
9.45581e-06
-2.96466e-05
9.52342e-06
-4.00951e-05
4.94854e-07
-7.22419e-05
-3.44459e-06
-3.6779e-05
-3.17023e-06
-1.28134e-05
-4.43054e-06
6.20419e-06
-3.79975e-06
1.76741e-05
-1.58008e-06
1.89937e-05
-2.7969e-06
9.64179e-06
-8.45566e-06
-1.19226e-05
-1.24782e-05
-2.58807e-05
-7.04822e-06
-1.22379e-05
-2.88024e-07
2.12286e-06
5.66412e-07
2.6414e-06
9.83085e-08
1.31952e-06
-2.7362e-05
7.47025e-06
-3.06176e-05
1.11177e-05
-4.45734e-05
8.45084e-06
-7.28089e-05
5.2281e-06
-8.70719e-05
-1.73963e-06
-9.80539e-05
-9.41441e-06
-0.000125869
-1.5647e-05
-0.000131984
-1.87764e-05
-0.000124725
-9.82276e-06
-9.69604e-05
-2.16618e-06
-5.48602e-05
3.32409e-07
-5.01814e-05
2.76802e-06
-4.45156e-05
4.6492e-06
-3.97462e-05
6.28678e-06
-3.47303e-05
1.09801e-05
-3.29092e-05
1.64738e-06
-6.49612e-05
-1.14903e-05
-8.63401e-05
-5.8105e-06
-3.483e-05
-1.51183e-06
-1.56172e-05
-1.96173e-06
4.04383e-06
-2.28519e-06
1.96043e-05
9.73712e-07
2.26606e-05
3.00085e-06
1.35389e-05
1.8846e-06
-3.35207e-06
-2.11277e-06
-1.55908e-05
-6.58838e-06
-2.4662e-05
-4.19349e-06
-1.58878e-05
-1.01736e-07
-2.54977e-06
-2.08281e-06
-4.6758e-07
-2.83987e-05
1.55664e-07
-5.85124e-05
-2.92726e-06
-8.02582e-05
-5.81109e-06
-9.80879e-05
-5.30348e-06
-0.000107745
-4.0002e-06
-0.000115688
-5.24948e-06
-0.000126583
-1.18083e-05
-0.000130314
-1.65969e-05
-0.000118834
-1.00983e-05
-9.00943e-05
-5.53239e-06
-5.55312e-05
-2.58019e-06
-5.31093e-05
5.2357e-07
-4.78708e-05
2.96894e-06
-4.27444e-05
4.11114e-06
-3.72108e-05
-1.62276e-07
-4.62022e-05
-1.24709e-05
-9.80381e-05
-1.71936e-05
-9.37264e-05
-8.73988e-06
-4.77539e-05
-3.15126e-07
-2.08873e-05
2.34699e-06
-1.28538e-06
1.01799e-06
1.83191e-05
3.5058e-06
2.47145e-05
6.02349e-06
1.9284e-05
7.57522e-06
6.6959e-06
8.6897e-06
-1.46567e-06
2.49195e-06
-2.03486e-05
-2.4058e-06
-2.8607e-05
-1.72789e-06
-1.59984e-05
-5.94846e-06
-4.86574e-07
-3.1076e-05
-1.61673e-06
-6.63029e-05
-4.36791e-06
-8.65332e-05
-5.35183e-06
-9.90254e-05
-3.36068e-06
-0.000107803
-4.29751e-07
-0.000115902
-1.95632e-06
-0.000124734
-1.03608e-05
-0.000128274
-1.61736e-05
-0.000110902
-1.01224e-05
-7.99985e-05
-5.66029e-06
-5.7746e-05
-3.62253e-06
-5.61371e-05
-1.19906e-06
-5.17824e-05
4.09582e-07
-4.63077e-05
2.52681e-06
-4.37152e-05
-4.62066e-06
-8.83727e-05
-1.66103e-05
-0.000117789
-1.81014e-05
-9.92141e-05
-1.2406e-05
-6.08711e-05
-1.6244e-07
-2.32758e-05
6.77313e-06
-7.58166e-06
5.48273e-06
1.22664e-05
6.41992e-06
2.37977e-05
1.0065e-05
2.39305e-05
1.2855e-05
1.75484e-05
1.2407e-05
8.25026e-06
9.14578e-06
-9.2928e-06
2.15317e-06
-2.22563e-05
-6.79934e-06
-3.25335e-05
-2.0762e-05
8.78768e-08
-3.07714e-05
-1.18805e-06