/*--------------------------------*- C++ -*----------------------------------*\
| =========                 |                                                 |
| \\      /  F ield         | OpenFOAM: The Open Source CFD Toolbox           |
|  \\    /   O peration     | Version:  v1606+                                |
|   \\  /    A nd           | Web:      www.OpenFOAM.com                      |
|    \\/     M anipulation  |                                                 |
\*---------------------------------------------------------------------------*/
FoamFile
{
    version     2.0;
    format      ascii;
    class       volScalarField;
    location    "1.97";
    object      k.air;
}
// * * * * * * * * * * * * * * * * * * * * * * * * * * * * * * * * * * * * * //

dimensions      [0 2 -2 0 0 0 0];

internalField   nonuniform List<scalar> 
6000
(
0.886978
0.94914
0.968112
0.977804
0.984492
0.986936
0.988992
0.992252
0.994652
0.995492
0.996222
0.992792
0.989001
0.987211
0.988564
0.990508
0.990279
0.990859
0.992034
0.994692
0.997662
0.998131
0.997335
0.994728
0.989995
0.983391
0.974091
0.962569
0.947858
0.887413
0.621267
0.913019
1.00081
1.04135
1.07316
1.09766
1.11669
1.128
1.13126
1.12696
1.1221
1.1078
1.09524
1.09045
1.09467
1.10323
1.10912
1.11364
1.11699
1.12544
1.13703
1.14001
1.134
1.12238
1.10093
1.06844
1.02287
0.965857
0.880833
0.609547
0.441671
0.784736
0.918805
0.986218
1.03738
1.08081
1.11795
1.14216
1.15502
1.15802
1.15579
1.15023
1.14366
1.14189
1.14608
1.15104
1.1569
1.16354
1.16955
1.17482
1.17509
1.16832
1.15089
1.12199
1.08141
1.03269
0.974333
0.896794
0.752806
0.432175
0.36049
0.696977
0.869863
0.980934
1.06252
1.13532
1.20234
1.25376
1.27857
1.27901
1.26927
1.25983
1.25209
1.25072
1.25483
1.26079
1.27359
1.29066
1.30766
1.3181
1.3189
1.30005
1.25698
1.19601
1.12607
1.04937
0.964242
0.854492
0.677432
0.362362
0.337786
0.677211
0.87613
1.01516
1.13045
1.23857
1.33904
1.42446
1.48152
1.49644
1.47276
1.4453
1.42896
1.42518
1.43234
1.44557
1.47076
1.50464
1.53771
1.56208
1.54358
1.47277
1.3777
1.27796
1.17908
1.07905
0.968452
0.828646
0.61127
0.31158
0.319464
0.650042
0.867154
1.02454
1.15837
1.28799
1.41632
1.53789
1.64829
1.73642
1.76232
1.71861
1.68587
1.67829
1.68862
1.71339
1.75942
1.83115
1.8823
1.84508
1.73506
1.59458
1.45273
1.31741
1.18893
1.06818
0.941909
0.776847
0.538795
0.25819
0.275947
0.589907
0.819321
0.992562
1.14322
1.28861
1.43528
1.58094
1.72777
1.87392
2.01029
2.05644
2.01845
2.00741
2.02274
2.06846
2.16025
2.25301
2.2085
2.00834
1.83048
1.65338
1.48182
1.32533
1.18269
1.04973
0.911707
0.737572
0.505735
0.222599
0.231414
0.522138
0.758385
0.947851
1.11961
1.28275
1.4407
1.59666
1.75821
1.92916
2.12077
2.33913
2.41029
2.41897
2.44555
2.49241
2.54421
2.51287
2.29914
2.05858
1.87202
1.68419
1.50221
1.33666
1.18641
1.0462
0.899033
0.723719
0.508563
0.215887
0.21129
0.506262
0.743501
0.94207
1.12756
1.30639
1.47912
1.64462
1.81059
1.98644
2.19634
2.50091
2.77839
2.8731
2.86748
2.79627
2.67922
2.49856
2.28242
2.09374
1.91149
1.72303
1.53742
1.3647
1.20695
1.05681
0.901726
0.730121
0.52448
0.222401
0.224259
0.542178
0.770569
0.970673
1.16424
1.35874
1.55425
1.74255
1.91743
2.09007
2.30812
2.63789
3.01136
3.18849
3.09106
2.86536
2.65132
2.45457
2.29017
2.13034
1.95471
1.76728
1.57861
1.39935
1.2341
1.07663
0.918863
0.752013
0.553299
0.240776
0.259498
0.604067
0.828131
1.02819
1.22472
1.42673
1.63752
1.85078
2.05018
2.23194
2.44353
2.74265
3.06117
3.19685
3.07157
2.83308
2.61249
2.4449
2.31266
2.17117
1.99994
1.81413
1.6245
1.44216
1.27215
1.11087
0.952591
0.785956
0.586225
0.261425
0.294938
0.670312
0.901184
1.10347
1.30335
1.50988
1.72778
1.95569
2.18039
2.38615
2.57445
2.79693
3.01534
3.09441
2.98402
2.77942
2.59667
2.4703
2.35873
2.21965
2.04631
1.86456
1.67835
1.49758
1.32653
1.16324
1.00212
0.830947
0.624147
0.280091
0.335012
0.742263
0.982143
1.19057
1.39686
1.61019
1.83385
2.06833
2.30789
2.53579
2.69769
2.81907
2.94457
2.98546
2.90233
2.74748
2.61758
2.53211
2.42666
2.2747
2.09829
1.92379
1.74535
1.56987
1.40029
1.23478
1.06788
0.888401
0.669877
0.30026
0.38426
0.817129
1.06293
1.28098
1.49991
1.72795
1.96521
2.20786
2.44978
2.68377
2.82123
2.84736
2.8959
2.90895
2.84627
2.73949
2.66409
2.60315
2.49302
2.32968
2.16542
2.00211
1.83365
1.66423
1.49551
1.32583
1.15069
0.959822
0.725272
0.324502
0.402679
0.857048
1.12861
1.36691
1.60848
1.86233
2.12781
2.38984
2.62726
2.83196
2.92423
2.87788
2.86467
2.85145
2.80848
2.7483
2.71123
2.66483
2.54888
2.40273
2.26023
2.11007
1.95098
1.78578
1.61559
1.43925
1.25311
1.0474
0.792437
0.354265
0.403401
0.87343
1.16112
1.43949
1.71887
2.01353
2.32511
2.62845
2.87273
3.01605
3.03618
2.94505
2.8912
2.85708
2.8204
2.795
2.78417
2.73564
2.63214
2.51763
2.39689
2.25867
2.10569
1.94116
1.76621
1.58002
1.37935
1.15451
0.873901
0.389956
0.393384
0.871285
1.19271
1.49604
1.82407
2.17711
2.5477
2.90506
3.19714
3.3206
3.25118
3.1339
3.04319
2.98469
2.94052
2.92411
2.9359
2.88151
2.7887
2.69469
2.5891
2.45899
2.30659
2.13782
1.9542
1.75446
1.53518
1.28598
0.972774
0.43268
0.378662
0.874111
1.23196
1.5589
1.91426
2.31051
2.72423
3.12997
3.48516
3.6286
3.55258
3.45185
3.36615
3.29451
3.22413
3.1667
3.16046
3.10074
3.01844
2.93957
2.84744
2.72159
2.56118
2.38223
2.18632
1.9696
1.72734
1.44798
1.09331
0.483967
0.381032
0.901997
1.28624
1.62901
1.98726
2.37261
2.77557
3.16599
3.51033
3.70031
3.72392
3.68788
3.6551
3.62605
3.56654
3.48569
3.40268
3.34717
3.29652
3.25367
3.18328
3.06126
2.87667
2.67937
2.46863
2.23283
1.96416
1.64798
1.24109
0.546449
0.404869
0.959563
1.34896
1.68924
2.03317
2.39571
2.76645
3.12487
3.41579
3.59719
3.68075
3.7125
3.75996
3.82902
3.85905
3.80161
3.66434
3.55861
3.5692
3.58298
3.55368
3.44083
3.23943
3.02668
2.805
2.55136
2.25569
1.89777
1.423
0.623651
0.446871
1.02465
1.40434
1.73135
2.05509
2.39072
2.73306
3.06452
3.30457
3.4468
3.5442
3.62765
3.73003
3.8594
3.96913
3.95104
3.81742
3.67092
3.64643
3.68466
3.71778
3.68818
3.59373
3.40455
3.18907
2.92741
2.60916
2.21074
1.64729
0.718968
0.481017
1.07996
1.44759
1.75864
2.06035
2.36784
2.68041
2.98742
3.21086
3.32531
3.41473
3.51923
3.65337
3.79422
3.88977
3.88907
3.78986
3.678
3.62237
3.60832
3.61913
3.63459
3.65887
3.65078
3.53007
3.30196
2.97733
2.54568
1.92242
0.872651
0.505024
1.12298
1.4829
1.77955
2.0596
2.33794
2.61818
2.89425
3.11604
3.22526
3.30766
3.41884
3.55888
3.675
3.73253
3.72663
3.67572
3.62023
3.57468
3.53385
3.51065
3.51869
3.56445
3.63501
3.61692
3.45552
3.16428
2.75043
2.11972
0.994445
0.524964
1.16052
1.51826
1.80335
2.06318
2.31283
2.55718
2.7953
3.0103
3.13472
3.21457
3.3231
3.45253
3.54167
3.56791
3.556
3.53644
3.516
3.48961
3.45218
3.42655
3.43803
3.47637
3.51017
3.48604
3.35577
3.11162
2.75435
2.19526
1.01728
0.544702
1.20219
1.56289
1.83911
2.0797
2.30132
2.50985
2.70928
2.90496
3.0465
3.13058
3.23292
3.35254
3.41547
3.416
3.40397
3.39693
3.39238
3.38151
3.35555
3.33546
3.33769
3.34213
3.33084
3.29255
3.18798
2.99448
2.69844
2.18757
1.03272
0.566361
1.25523
1.62668
1.89713
2.11854
2.31147
2.48514
2.64672
2.8101
2.96159
3.06379
3.16381
3.26927
3.29888
3.2849
3.26945
3.26283
3.26418
3.26127
3.24316
3.21991
3.19941
3.16866
3.13087
3.08246
2.99458
2.83736
2.5901
2.14084
1.00751
0.595327
1.33212
1.72613
1.99087
2.19016
2.35094
2.48893
2.61365
2.73988
2.8813
3.0031
3.10672
3.18612
3.1936
3.1683
3.14444
3.13264
3.13274
3.12829
3.10631
3.06925
3.0282
2.98036
2.93217
2.87635
2.79548
2.65996
2.44478
2.03664
0.961901
0.641536
1.45565
1.89432
2.14394
2.30726
2.42754
2.52366
2.61157
2.70661
2.82189
2.93826
3.03966
3.09562
3.08786
3.05392
3.02203
3.00363
2.99577
2.98106
2.9465
2.89842
2.84729
2.79674
2.74465
2.68297
2.6006
2.47625
2.28325
1.90784
0.907316
0.730073
1.5895
2.10256
2.3773
2.48778
2.5474
2.59367
2.63958
2.70156
2.78548
2.8806
2.95925
2.99092
2.97234
2.93482
2.89934
2.87459
2.85531
2.82673
2.78027
2.72782
2.67694
2.62603
2.571
2.50393
2.41731
2.29685
2.1199
1.77219
0.852274
0.782016
1.75864
2.34763
2.70662
2.75665
2.72178
2.70019
2.69695
2.71774
2.76595
2.82675
2.87086
2.87808
2.85293
2.81583
2.77958
2.74884
2.71851
2.67835
2.62438
2.5696
2.52324
2.47224
2.41353
2.34073
2.25007
2.13126
1.96348
1.63645
0.796025
0.832572
1.91703
2.55127
3.00807
3.12715
2.96516
2.84395
2.77614
2.74993
2.75649
2.77784
2.78742
2.77397
2.74379
2.70717
2.67002
2.63386
2.5949
2.54685
2.48825
2.4306
2.38636
2.33666
2.2727
2.19359
2.09721
1.9784
1.81444
1.50124
0.734245
0.882708
2.04408
2.73014
3.10709
3.41419
3.25856
3.02285
2.87362
2.79233
2.75707
2.74143
2.72126
2.69162
2.6559
2.61772
2.57847
2.53767
2.49246
2.43892
2.37626
2.31363
2.26508
2.21879
2.15045
2.06258
1.9567
1.83342
1.66986
1.36384
0.656212
0.898493
2.10458
2.80612
3.13599
3.37948
3.46775
3.20639
2.97793
2.84135
2.76822
2.72166
2.67741
2.63521
2.59374
2.55239
2.51011
2.46523
2.41523
2.35725
2.29022
2.22048
2.16261
2.1161
2.04563
1.94602
1.82716
1.691
1.51599
1.21145
0.568324
0.906006
2.1218
2.80846
3.13136
3.26873
3.44123
3.31918
3.06137
2.88762
2.78682
2.71639
2.65573
2.60433
2.55756
2.5126
2.46693
2.41825
2.36415
2.30221
2.23076
2.15303
2.08172
2.02723
1.96406
1.85601
1.71842
1.56306
1.37424
1.06812
0.490186
0.914567
2.12441
2.79104
3.11012
3.17991
3.31259
3.28363
3.0924
2.91779
2.80542
2.72143
2.65339
2.59647
2.54582
2.49763
2.44871
2.39651
2.33868
2.27302
2.19745
2.11222
2.02616
1.95599
1.89318
1.79145
1.64148
1.46594
1.25828
0.951344
0.426001
0.920341
2.12098
2.76668
3.07183
3.1066
3.20661
3.19665
3.06297
2.92301
2.81879
2.73518
2.6659
2.60729
2.55502
2.50502
2.45396
2.39914
2.33827
2.26923
2.19005
2.09908
1.99897
1.90586
1.83116
1.73852
1.5928
1.40961
1.19342
0.917203
0.41395
0.924734
2.11329
2.73432
3.01414
3.03861
3.12423
3.12632
3.01137
2.90358
2.82273
2.7515
2.68823
2.63278
2.58226
2.53289
2.48134
2.42486
2.36128
2.28889
2.20616
2.1116
2.00424
1.8885
1.7813
1.68444
1.55656
1.38441
1.1734
0.929776
0.43296
0.934972
2.10417
2.69407
2.93562
2.97067
3.06163
3.05965
2.95307
2.87044
2.81525
2.76438
2.71581
2.67098
2.62789
2.58314
2.5337
2.47708
2.41137
2.33527
2.24787
2.14854
2.0367
1.91204
1.77847
1.64918
1.52439
1.37041
1.17195
0.948799
0.464895
0.9545
2.09477
2.63483
2.83804
2.90795
3.00244
2.97705
2.88883
2.83775
2.81085
2.78529
2.75777
2.72877
2.69667
2.65897
2.61327
2.55757
2.49042
2.41088
2.31855
2.21334
2.09535
1.96449
1.8199
1.66731
1.51885
1.36398
1.17319
0.948324
0.477734
0.973744
2.0893
2.56088
2.75167
2.86431
2.93658
2.87956
2.83311
2.82501
2.8274
2.82735
2.82194
2.81048
2.79137
2.76261
2.72222
2.6686
2.60061
2.51772
2.41994
2.30765
2.1814
2.0418
1.88933
1.72494
1.55288
1.37659
1.18012
0.940917
0.478882
1.00417
2.06222
2.46109
2.67529
2.80649
2.82002
2.79439
2.80839
2.8391
2.86959
2.89476
2.9119
2.91929
2.91505
2.89719
2.86382
2.81347
2.74522
2.65887
2.55486
2.43408
2.29769
2.14692
1.98302
1.80742
1.62138
1.42296
1.20668
0.941963
0.480156
1.00162
1.97551
2.34145
2.57929
2.68068
2.70428
2.75093
2.81559
2.8797
2.93915
2.99055
3.03144
3.05942
3.0721
3.06721
3.0427
2.99691
2.92895
2.8388
2.72739
2.59634
2.44767
2.28343
2.10546
1.91531
1.71341
1.49693
1.25882
0.961653
0.484456
0.952046
1.8286
2.20766
2.43385
2.54554
2.64321
2.74953
2.85202
2.94955
3.03905
3.11839
3.18488
3.23562
3.26762
3.27805
3.26451
3.22496
3.15804
3.06366
2.94319
2.79938
2.63555
2.45483
2.25974
2.05188
1.83113
1.59372
1.33086
1.00733
0.495245
0.844293
1.64681
2.04322
2.29652
2.47267
2.63171
2.78013
2.92058
3.05162
3.17278
3.28209
3.37659
3.45273
3.50681
3.53539
3.5355
3.50454
3.44
3.34118
3.20951
3.04938
2.86628
2.66486
2.44847
2.21896
1.97576
1.71414
1.42323
1.06859
0.513159
0.717136
1.45824
1.90044
2.21254
2.45039
2.6561
2.84551
3.02219
3.188
3.3429
3.48486
3.6104
3.71515
3.7946
3.84471
3.86202
3.84264
3.7825
3.67973
3.5349
3.35339
3.14533
2.91756
2.67446
2.41837
2.14857
1.85915
1.53708
1.14387
0.53992
0.604313
1.30322
1.81583
2.18607
2.47261
2.7175
2.94342
3.15642
3.35886
3.55044
3.72866
3.88921
4.02665
4.13544
4.21092
4.2491
4.24603
4.19486
4.09026
3.92768
3.71784
3.47761
3.21672
2.94047
2.65196
2.35068
2.02947
1.67259
1.23532
0.574572
0.553095
1.25717
1.80954
2.21426
2.53322
2.80832
3.0698
3.32067
3.56261
3.79478
4.01404
4.2149
4.39029
4.53305
4.63771
4.70106
4.7173
4.67539
4.5648
4.39018
4.1456
3.86547
3.56456
3.24847
2.92106
2.58278
2.22537
1.82956
1.34368
0.616086
0.565062
1.30259
1.86472
2.28747
2.62587
2.92572
3.22142
3.51184
3.79644
4.07381
4.34008
4.58829
4.80874
4.99096
5.12736
5.21202
5.23736
5.19246
5.07166
4.88341
4.62808
4.30705
3.96074
3.59863
3.22579
2.84452
2.44639
2.00713
1.46805
0.664353
0.6195
1.41912
1.97844
2.39796
2.74468
3.06784
3.39766
3.72745
4.05657
4.38364
4.70406
5.00908
5.28472
5.5136
5.67947
5.77404
5.78271
5.7125
5.58705
5.41197
5.1535
4.79986
4.40305
3.98904
3.56435
3.13418
2.6909
2.20384
1.60678
0.720176
0.695007
1.55254
2.10987
2.53188
2.89288
3.23954
3.59754
3.96241
4.33639
4.71739
5.10018
5.47454
5.82179
6.1081
6.29905
6.39352
6.3777
6.28134
6.14718
5.98698
5.73059
5.34545
4.89072
4.41605
3.9328
3.44863
2.95705
2.41932
1.75643
0.780837
0.756147
1.66448
2.22715
2.66443
3.05787
3.43173
3.80868
4.20438
4.62461
5.0638
5.51703
5.97675
6.41986
6.78294
7.00956
7.11456
7.08829
6.97163
6.81386
6.62858
6.36777
5.94472
5.42
4.87209
4.3236
3.78175
3.24137
2.65299
1.91765
0.847099
0.790087
1.70574
2.30133
2.76552
3.21083
3.62135
4.01176
4.43926
4.90815
5.40752
5.9351
6.49525
7.04982
7.50518
7.8115
7.95357
7.92115
7.78881
7.61184
7.39006
7.0856
6.59498
5.9781
5.34398
4.72304
4.1217
3.53513
2.89856
2.09574
0.926537
0.809437
1.74199
2.32017
2.83261
3.32786
3.78097
4.196
4.66422
5.17815
5.73194
6.32764
6.97249
7.62543
8.16285
8.5771
8.79658
8.7797
8.654
8.47825
8.24225
7.85876
7.26168
6.53461
5.80642
5.10956
4.44952
3.82343
3.14661
2.2832
1.01381
0.809517
1.81665
2.4196
2.93258
3.40242
3.89344
4.38527
4.87865
5.42935
6.02667
6.66607
7.34398
8.02567
8.61457
9.03351
9.29843
9.38318
9.33259
9.17026
8.91706
8.52464
7.85836
7.04304
6.22631
5.45674
4.74452
4.0912
3.37793
2.45552
1.0815
0.890566
1.96042
2.57975
3.08016
3.55286
4.05324
4.57632
5.07607
5.66542
6.29969
6.95705
7.62069
8.25555
8.8167
9.18664
9.407
9.56643
9.61236
9.48297
9.23227
8.88597
8.26233
7.43956
6.56704
5.7421
4.9846
4.30621
3.55509
2.62411
1.22642
0.975015
2.1244
2.81603
3.33265
3.80265
4.27269
4.74378
5.27537
5.91226
6.58048
7.2428
7.87359
8.44458
8.92651
9.22886
9.37367
9.50382
9.56937
9.49143
9.32107
9.04009
8.46741
7.67978
6.79861
5.95348
5.16166
4.42867
3.6843
2.80324
1.30311
1.01179
2.28178
3.04762
3.62666
4.09525
4.54506
4.99316
5.54168
6.2127
6.90296
7.56026
8.16148
8.69584
9.10947
9.28134
9.29902
9.34944
9.39933
9.38248
9.31857
9.13602
8.5928
7.81887
6.94479
6.09994
5.30286
4.55455
3.82643
2.95962
1.40088
1.067
2.42643
3.26666
3.89862
4.39129
4.83555
5.29581
5.89173
6.58729
7.27884
7.92467
8.51699
9.02304
9.30105
9.28091
9.19972
9.19267
9.21987
9.23463
9.23966
9.14862
8.67007
7.90468
7.0416
6.20554
5.41786
4.71955
4.02259
3.14676
1.50189
1.12808
2.57758
3.47091
4.14536
4.6705
5.14189
5.66716
6.32357
7.01789
7.69603
8.33747
8.91782
9.30422
9.33705
9.18821
9.07938
9.05907
9.07027
9.07403
9.07029
9.0239
8.6727
7.9491
7.10797
6.29155
5.5687
4.93266
4.23469
3.3141
1.52451
1.17035
2.69094
3.65799
4.37662
4.95246
5.50494
6.13051
6.79881
7.47273
8.13202
8.75131
9.22657
9.34367
9.20474
9.02495
8.93835
8.92716
8.92197
8.88645
8.83272
8.77946
8.57973
7.95935
7.1764
6.41723
5.74629
5.10713
4.37848
3.3881
1.54066
1.17785
2.80013
3.84253
4.61152
5.28707
5.94769
6.6116
7.27009
7.90947
8.52523
9.04366
9.2406
9.16333
8.97412
8.82642
8.77064
8.76297
8.73351
8.65523
8.55551
8.48394
8.37203
7.94268
7.25193
6.5461
5.89445
5.22122
4.43731
3.40041
1.5195
1.30726
2.96164
4.05081
4.90823
5.69132
6.41503
7.09282
7.71602
8.29266
8.79119
9.03536
9.00632
8.86557
8.71261
8.61223
8.56953
8.54294
8.48265
8.37856
8.26278
8.18455
8.11583
7.84296
7.28553
6.6365
5.97383
5.27066
4.45715
3.39783
1.4417
1.40081
3.2212
4.35843
5.30077
6.14554
6.90704
7.58526
8.17436
8.63521
8.84219
8.80699
8.70486
8.58779
8.47943
8.39724
8.33743
8.275
8.19049
8.08528
7.98174
7.91114
7.86881
7.72612
7.28245
6.68658
6.02598
5.29947
4.45765
3.36293
1.44075
1.48583
3.49597
4.7283
5.73844
6.62823
7.40822
8.04747
8.58676
8.87981
8.81272
8.66512
8.54084
8.42271
8.31394
8.21862
8.12916
8.0384
7.94391
7.84784
7.75956
7.69251
7.64798
7.57914
7.30804
6.78287
6.11099
5.34549
4.46706
3.34268
1.45046
1.59627
3.79392
5.10212
6.17597
7.05598
7.75079
8.29129
8.66283
8.81094
8.73361
8.58794
8.45781
8.33836
8.21551
8.10471
7.99474
7.88928
7.79289
7.70613
7.63337
7.57774
7.5371
7.50158
7.37074
6.93817
6.25839
5.42815
4.49045
3.31264
1.43818
1.68378
3.97557
5.40112
6.47582
7.22441
7.80932
8.23304
8.48082
8.56207
8.51193
8.40345
8.29043
8.18634
8.07697
7.96687
7.85846
7.75617
7.66316
7.58055
7.51022
7.45398
7.40662
7.35521
7.25517
6.93376
6.32565
5.51724
4.50914
3.2698
1.40679
1.69493
3.99957
5.43143
6.42019
7.12688
7.69002
8.04369
8.20459
8.22857
8.17457
8.09017
8.00145
7.91243
7.81918
7.72358
7.62716
7.53347
7.44292
7.35726
7.27776
7.20307
7.12866
7.03933
6.90291
6.66159
6.20633
5.45857
4.47496
3.20445
1.34406
1.76792
3.90181
5.25188
6.22669
6.97883
7.50514
7.7831
7.88945
7.88972
7.83832
7.76554
7.68198
7.59246
7.50195
7.41189
7.32184
7.23252
7.14281
7.05314
6.96366
6.87193
6.77469
6.66484
6.52902
6.34333
6.00909
5.31526
4.39042
3.16037
1.33341
1.82196
3.86809
5.14326
6.09314
6.87845
7.34055
7.52809
7.58632
7.57384
7.52747
7.46316
7.3823
7.28858
7.19204
7.09747
7.00479
6.91336
6.82186
6.72949
6.63545
6.53777
6.434
6.32028
6.19102
6.03353
5.75925
5.16395
4.32507
3.21194
1.45629
1.84526
3.83774
5.041
5.9944
6.81136
7.21774
7.31299
7.31733
7.28653
7.23948
7.17876
7.09913
7.00296
6.90216
6.80335
6.70711
6.61256
6.51856
6.42397
6.32768
6.22801
6.12292
6.01015
5.88788
5.74929
5.52831
5.02139
4.2191
3.15843
1.46717
1.83557
3.78338
4.93475
5.88802
6.72755
7.11279
7.13044
7.0808
7.02517
6.97113
6.90997
6.83067
6.73333
6.63002
6.52831
6.42923
6.33207
6.23596
6.13999
6.0432
5.94429
5.84158
5.73392
5.6229
5.51014
5.35387
4.9238
4.14163
3.11147
1.44709
1.80281
3.70612
4.82571
5.77277
6.6226
6.99618
6.95956
6.86437
6.7836
6.71906
6.65499
6.57549
6.47775
6.37338
6.27026
6.16954
6.07076
5.97345
5.87721
5.78157
5.68571
5.58833
5.48889
5.3915
5.30709
5.21543
4.84865
4.07017
3.05989
1.42697
1.75709
3.61566
4.71418
5.65077
6.49429
6.85301
6.78065
6.65478
6.55456
6.47979
6.41182
6.33173
6.23422
6.13005
6.02698
5.92603
5.82694
5.72968
5.63451
5.54161
5.45072
5.36073
5.27089
5.18549
5.12196
5.07658
4.7646
4.00258
3.00841
1.4111
1.71965
3.52325
4.61166
5.53295
6.34586
6.66937
6.58129
6.44304
6.33264
6.25043
6.17857
6.0976
6.00095
5.89819
5.79657
5.69689
5.59897
5.50319
5.41044
5.32163
5.23711
5.15577
5.07579
4.99899
4.94531
4.92526
4.67537
3.95117
2.98147
1.39228
1.68285
3.45728
4.53165
5.42737
6.18531
6.45235
6.36294
6.22821
6.1162
6.02936
5.9537
5.87171
5.77665
5.67646
5.57754
5.48055
5.38526
5.29231
5.2031
5.11926
5.04175
4.96942
4.89907
4.82874
4.77749
4.76963
4.59455
3.93435
2.98532
1.37305
1.66929
3.43322
4.47816
5.33643
6.01839
6.22054
6.13897
6.01675
5.90712
5.81639
5.73647
5.65326
5.56041
5.46388
5.36876
5.27568
5.18423
5.09513
5.01008
4.93123
4.86018
4.79596
4.73434
4.66999
4.61913
4.61587
4.51782
3.95256
3.01903
1.36748
1.67417
3.44376
4.44815
5.25592
5.84029
5.98555
5.92381
5.81659
5.70822
5.61213
5.52694
5.44231
5.35205
5.25997
5.16952
5.08115
4.9943
4.90951
4.82849
4.75364
4.68712
4.62856
4.57347
4.51449
4.46451
4.46129
4.41879
3.97743
3.06902
1.38084
1.67731
3.46447
4.42221
5.16859
5.63612
5.76193
5.72591
5.63069
5.52052
5.41736
5.32615
5.23993
5.15231
5.0649
4.9795
4.89616
4.81404
4.73333
4.65544
4.58269
4.51781
4.46146
4.40972
4.35471
4.30628
4.30058
4.29502
3.97794
3.099
1.39926
1.6425
3.4462
4.35331
5.04379
5.42203
5.55146
5.54048
5.45533
5.34285
5.23279
5.13566
5.04778
4.96245
4.8794
4.7988
4.72021
4.64233
4.56482
4.48861
4.41568
4.34939
4.29194
4.24062
4.18822
4.14146
4.13165
4.14235
3.92938
3.09421
1.40509
1.54549
3.34385
4.20672
4.84537
5.18532
5.33888
5.35672
5.28501
5.17351
5.05888
4.95696
4.86741
4.78373
4.70415
4.62766
4.55304
4.4784
4.40281
4.32662
4.25143
4.18138
4.12061
4.0681
4.01779
3.9726
3.95818
3.97198
3.82324
3.03524
1.40112
1.46681
3.19206
3.99707
4.58174
4.92486
5.11554
5.16846
5.11619
5.01084
4.89533
4.79056
4.69967
4.61682
4.53967
4.46636
4.39461
4.32186
4.24674
4.16905
4.09015
4.01505
3.95019
3.89654
3.84893
3.80547
3.78571
3.79684
3.68588
2.94208
1.37072
1.41615
3.02831
3.76973
4.3042
4.65616
4.88457
4.97529
4.94701
4.85284
4.74063
4.63573
4.54443
4.46196
4.38614
4.31498
4.24493
4.17269
4.09659
4.01619
3.9328
3.85246
3.78399
3.73029
3.68653
3.6452
3.6194
3.62655
3.53894
2.83299
1.32246
1.36481
2.81697
3.53318
4.03317
4.39133
4.65153
4.77878
4.7761
4.697
4.59213
4.49041
4.40042
4.31838
4.2432
4.17335
4.10395
4.0309
3.95258
3.86861
3.78059
3.69563
3.6247
3.57241
3.53353
3.49464
3.46233
3.46438
3.39071
2.71737
1.26332
1.22994
2.59041
3.29748
3.77419
4.13564
4.42297
4.58384
4.60484
4.54152
4.44694
4.35179
4.26562
4.18488
4.11017
4.04104
3.97148
3.89659
3.81505
3.72697
3.63454
3.546
3.47399
3.42433
3.39075
3.35438
3.31488
3.30996
3.24547
2.59741
1.18492
1.08963
2.38104
3.0745
3.53244
3.90011
4.21161
4.4005
4.43919
4.38783
4.30381
4.21749
4.13769
4.05991
3.98617
3.91745
3.84719
3.76973
3.68426
3.59179
3.49533
3.40429
3.33231
3.28569
3.25684
3.22236
3.17447
3.15759
3.09742
2.47291
1.11031
1.01845
2.24146
2.89144
3.33102
3.70488
4.0342
4.24183
4.28755
4.24043
4.16407
4.08673
4.0149
3.94234
3.87038
3.8019
3.73059
3.65013
3.56032
3.46332
3.36319
3.27048
3.19904
3.15483
3.12894
3.09482
3.03806
3.00486
2.94473
2.35505
1.0521
0.976193
2.17688
2.75925
3.17808
3.55609
3.89872
4.1152
4.15605
4.10461
4.03101
3.96082
3.89677
3.8313
3.76211
3.69366
3.62104
3.53739
3.44305
3.3415
3.23799
3.14406
3.07304
3.02967
3.00372
2.96732
2.90353
2.85544
2.79187
2.25409
1.0257
0.944801
2.10926
2.65791
3.06004
3.44383
3.80154
4.0195
4.04651
3.98399
3.9082
3.84173
3.78387
3.72595
3.66048
3.5919
3.51767
3.43083
3.33204
3.22602
3.11937
3.02437
2.95319
2.90864
2.87912
2.83707
2.76783
2.70754
2.63528
2.15806
1.00605
0.920752
2.04512
2.57015
2.96595
3.36027
3.73601
3.94923
3.95717
3.87973
3.7976
3.73097
3.67687
3.62535
3.56424
3.49564
3.41948
3.32956
3.22662
3.11636
3.00681
2.91082
2.83886
2.79138
2.75545
2.70511
2.62958
2.55817
2.47376
2.05203
0.970784
0.909813
1.98448
2.49215
2.89141
3.29909
3.6884
3.89253
3.88158
3.78957
3.69883
3.62883
3.57576
3.5287
3.4719
3.40353
3.32534
3.23255
3.12595
3.01184
2.89976
2.80292
2.72982
2.6783
2.63419
2.57414
2.49121
2.40821
2.30694
1.93611
0.923653
0.909643
1.91595
2.41778
2.82906
3.25374
3.65061
3.83742
3.81179
3.70884
3.60945
3.53432
3.48009
3.43553
3.3823
3.31421
3.23409
3.13876
3.0291
2.91171
2.79762
2.70026
2.62594
2.56995
2.51691
2.44678
2.35642
2.26337
2.14932
1.81108
0.85038
0.895787
1.84701
2.3467
2.77167
3.21176
3.60628
3.77606
3.74175
3.63209
3.52584
3.44552
3.38904
3.34529
3.29441
3.22666
3.14477
3.04728
2.93517
2.81519
2.69979
2.6024
2.52712
2.4667
2.40465
2.32495
2.22792
2.12642
2.00253
1.68585
0.778237
0.868769
1.78095
2.28035
2.71639
3.1635
3.54819
3.70491
3.66632
3.55402
3.44398
3.36006
3.30141
3.25721
3.20736
3.13996
3.05662
2.95734
2.84335
2.72153
2.60562
2.50883
2.43314
2.36865
2.298
2.20972
2.1069
1.9981
1.86569
1.5647
0.709245
0.836711
1.7207
2.21898
2.65914
3.10216
3.47162
3.61935
3.58053
3.46969
3.3601
3.2756
3.21589
3.17054
3.12056
3.05335
2.96902
2.86838
2.75301
2.6301
2.51446
2.41896
2.34353
2.27562
2.19737
2.10146
1.99345
1.87846
1.73917
1.45376
0.647935
0.786514
1.66619
2.16134
2.59707
3.02581
3.37652
3.51796
3.48134
3.37602
3.27201
3.19076
3.13154
3.08469
3.03341
2.9661
2.88132
2.7799
2.66368
2.54039
2.42575
2.33208
2.25749
2.18688
2.10247
2.00007
1.88742
1.76741
1.62331
1.35931
0.609191
0.746409
1.61552
2.10519
2.53056
2.93892
3.26903
3.40312
3.36929
3.27343
3.1799
3.1055
3.04796
2.99886
2.94523
2.87752
2.7929
2.69144
2.57511
2.45221
2.33915
2.24766
2.17411
2.10128
2.01216
1.90497
1.78846
1.66442
1.51684
1.27095
0.577242
0.714523
1.5637
2.04792
2.46196
2.84851
3.15612
3.27956
3.24859
3.16542
3.0856
3.01999
2.96441
2.91217
2.85527
2.78687
2.703
2.60258
2.48726
2.36568
2.25464
2.1653
2.09246
2.01746
1.92491
1.81506
1.69592
1.56889
1.41967
1.18737
0.545028
0.681803
1.5216
1.99719
2.39508
2.75829
3.04348
3.15273
3.12453
3.0561
2.99091
2.93365
2.87934
2.82344
2.76281
2.69345
2.61098
2.51299
2.40025
2.28121
2.17247
2.08476
2.01174
1.93422
1.83925
1.72874
1.609
1.48061
1.33197
1.11291
0.516437
0.657568
1.4887
1.95318
2.33314
2.6726
2.93667
3.02845
3.00189
2.94797
2.89565
2.84471
2.79079
2.73136
2.66711
2.59686
2.51655
2.42253
2.31429
2.19925
2.09304
2.00594
1.93141
1.85086
1.75424
1.64472
1.52703
1.39913
1.25175
1.04292
0.489192
0.647468
1.46534
1.9145
2.27547
2.59336
2.83855
2.91036
2.88225
2.83969
2.79699
2.75023
2.69645
2.63473
2.56789
2.49724
2.41981
2.33124
2.22946
2.12007
2.01675
1.92889
1.85135
1.76762
1.67036
1.56307
1.44938
1.32374
1.17856
0.974896
0.460749
0.64425
1.44043
1.87069
2.21569
2.51867
2.74649
2.79532
2.76054
2.72525
2.69006
2.64724
2.59481
2.53285
2.46517
2.39509
2.32125
2.23922
2.14542
2.04345
1.94374
1.85379
1.77212
1.68562
1.58904
1.48484
1.37573
1.25404
1.11195
0.914054
0.437752
0.630337
1.39426
1.8047
2.13667
2.43527
2.64454
2.66916
2.62747
2.59873
2.57177
2.53481
2.48577
2.4258
2.35935
2.29112
2.22156
2.14667
2.06183
1.96881
1.87412
1.78132
1.69506
1.60638
1.51133
1.41071
1.30578
1.18981
1.05297
0.858085
0.411212
0.605909
1.33403
1.72474
2.03585
2.31955
2.50618
2.51395
2.47979
2.46148
2.4444
2.41507
2.37083
2.31447
2.25105
2.18602
2.12141
2.05407
1.97874
1.89422
1.80273
1.71093
1.62132
1.53092
1.43745
1.34031
1.23939
1.129
0.99776
0.810141
0.386861
0.579502
1.27448
1.6465
1.93339
2.18554
2.34114
2.34629
2.33071
2.32381
2.31468
2.29175
2.2522
2.20004
2.14081
2.08008
2.02087
1.96101
1.89399
1.81643
1.72648
1.63781
1.54938
1.45878
1.36691
1.27288
1.17596
1.07133
0.947088
0.765173
0.368059
0.556951
1.22332
1.57694
1.84408
2.06729
2.18249
2.18857
2.19108
2.19055
2.18574
2.16673
2.13107
2.0835
2.02925
1.97347
1.91982
1.8675
1.80972
1.73584
1.65031
1.56298
1.47673
1.38778
1.29827
1.20715
1.11383
1.01405
0.897512
0.725352
0.35352
0.539419
1.1797
1.51776
1.77106
1.96485
2.04149
2.05204
2.06471
2.06554
2.0567
2.0363
2.0042
1.96266
1.91499
1.86546
1.81779
1.77146
1.72118
1.65649
1.57804
1.49315
1.40752
1.32129
1.23394
1.14615
1.05668
0.962398
0.852552
0.688515
0.3407
0.524695
1.14131
1.46563
1.70377
1.85384
1.90706
1.93097
1.94309
1.93891
1.92527
1.90498
1.8777
1.84337
1.8031
1.75997
1.71765
1.67691
1.63223
1.57803
1.50997
1.4303
1.34551
1.25981
1.1747
1.09042
1.00479
0.914293
0.80906
0.652817
0.325111
0.514394
1.10243
1.40682
1.6103
1.72539
1.78065
1.8076
1.81172
1.80409
1.79166
1.77475
1.75308
1.72624
1.69409
1.65792
1.62043
1.58357
1.54561
1.50141
1.44422
1.373
1.29203
1.20703
1.12229
1.03949
0.956849
0.869629
0.767054
0.615207
0.305736
0.4989
1.04763
1.3164
1.48713
1.59229
1.65193
1.67578
1.67754
1.67189
1.66281
1.64962
1.63239
1.61128
1.58633
1.55787
1.52696
1.49506
1.46219
1.42537
1.37879
1.31933
1.24597
1.16316
1.07849
0.99547
0.913812
0.82808
0.725214
0.574948
0.285
0.465552
0.964645
1.2006
1.35386
1.45322
1.5122
1.53769
1.54545
1.54651
1.54306
1.53467
1.52179
1.50517
1.48545
1.46329
1.43904
1.41278
1.38425
1.35231
1.31445
1.2677
1.20499
1.12708
1.04433
0.961
0.877573
0.789887
0.684126
0.532812
0.261971
0.419557
0.863852
1.07738
1.21618
1.30968
1.36891
1.40227
1.42052
1.4305
1.43416
1.4317
1.42375
1.41136
1.39576
1.37827
1.35969
1.33958
1.31612
1.28781
1.25538
1.21809
1.16638
1.09643
1.01932
0.938918
0.853352
0.758956
0.645426
0.489323
0.235838
0.370392
0.762968
0.955867
1.08309
1.17259
1.23553
1.27826
1.3069
1.32591
1.33724
1.34144
1.33915
1.33149
1.32001
1.30646
1.29224
1.27763
1.26032
1.23618
1.20616
1.17248
1.12708
1.0667
0.999121
0.926298
0.841996
0.741101
0.617043
0.449733
0.209313
0.324892
0.668876
0.843911
0.962794
1.05123
1.11859
1.16908
1.20646
1.23378
1.25258
1.26344
1.26691
1.26405
1.25663
1.24675
1.23613
1.22543
1.21286
1.19374
1.16643
1.13402
1.09056
1.03644
0.977028
0.91521
0.838817
0.737066
0.60651
0.431354
0.194537
0.282715
0.584703
0.745777
0.859384
0.947955
1.01888
1.07536
1.11994
1.15463
1.18041
1.19758
1.20643
1.20773
1.20355
1.19623
1.18778
1.17895
1.16862
1.15334
1.13146
1.10308
1.06094
1.00972
0.95387
0.897446
0.833394
0.744018
0.614602
0.436797
0.195129
0.2447
0.511781
0.663062
0.773302
0.862113
0.935737
0.996868
1.04735
1.08829
1.1204
1.14355
1.15729
1.16193
1.15978
1.15322
1.14485
1.1358
1.12547
1.11187
1.0945
1.07553
1.03795
0.988409
0.934063
0.878937
0.821478
0.755896
0.640587
0.463575
0.205843
0.213362
0.451126
0.596049
0.703955
0.792896
0.868532
0.933231
0.98837
1.03469
1.07204
1.0997
1.11686
1.12333
1.1218
1.11456
1.10483
1.09414
1.08253
1.06907
1.05389
1.04145
1.01674
0.970691
0.917777
0.863541
0.808232
0.753461
0.667575
0.503394
0.227932
0.189033
0.404736
0.544828
0.650935
0.739938
0.817069
0.884537
0.943349
0.993716
1.03455
1.06313
1.07803
1.08323
1.08257
1.07617
1.06519
1.05279
1.03956
1.02532
1.01084
0.999823
0.987356
0.952779
0.902381
0.848672
0.792742
0.740192
0.670954
0.532191
0.247408
0.171931
0.373325
0.509449
0.614146
0.703294
0.781817
0.85154
0.913008
0.965537
1.00517
1.02745
1.03606
1.03886
1.03825
1.03414
1.02507
1.012
0.997325
0.981882
0.96681
0.954906
0.946475
0.925768
0.884341
0.832243
0.775137
0.722561
0.66112
0.543051
0.260602
0.162216
0.356579
0.489704
0.593546
0.683275
0.763389
0.834933
0.897115
0.947004
0.978625
0.991579
0.995325
0.99607
0.994287
0.989982
0.983242
0.972126
0.956915
0.940147
0.923461
0.909575
0.899189
0.887373
0.856996
0.811322
0.755721
0.702765
0.641818
0.53435
0.261843
0.160341
0.353781
0.484903
0.588774
0.679983
0.762216
0.834832
0.893466
0.934386
0.953388
0.957886
0.958201
0.956777
0.953468
0.948013
0.940889
0.931773
0.917973
0.900519
0.882117
0.865038
0.851619
0.840274
0.821198
0.783382
0.733863
0.682211
0.618715
0.513501
0.257038
0.162246
0.359757
0.491488
0.59695
0.690606
0.775738
0.848609
0.898751
0.923604
0.927889
0.926744
0.924308
0.920366
0.915222
0.908587
0.900217
0.890908
0.87873
0.862186
0.842444
0.822442
0.804976
0.790635
0.776423
0.74905
0.707761
0.660282
0.594408