/*--------------------------------*- C++ -*----------------------------------*\
| =========                 |                                                 |
| \\      /  F ield         | OpenFOAM: The Open Source CFD Toolbox           |
|  \\    /   O peration     | Version:  v1606+                                |
|   \\  /    A nd           | Web:      www.OpenFOAM.com                      |
|    \\/     M anipulation  |                                                 |
\*---------------------------------------------------------------------------*/
FoamFile
{
    version     2.0;
    format      ascii;
    class       volVectorField;
    location    "1.97";
    object      U;
}
// * * * * * * * * * * * * * * * * * * * * * * * * * * * * * * * * * * * * * //

dimensions      [0 1 -1 0 0 0 0];

internalField   nonuniform List<vector> 
6000
(
(-0.00742012 -0.0144055 0)
(0.00015923 -0.108451 0)
(-0.0183912 -0.106029 0)
(-0.0318373 -0.0822486 0)
(-0.0416919 -0.0767007 0)
(-0.0460979 -0.0664643 0)
(-0.0384069 -0.0603185 0)
(-0.0259009 -0.0639068 0)
(-0.0198633 -0.0848918 0)
(-0.0198871 -0.0992636 0)
(-0.0280855 -0.107953 0)
(-0.0414755 -0.0991503 0)
(-0.0391138 -0.0847016 0)
(-0.0189514 -0.0848633 0)
(-0.00471356 -0.105284 0)
(-0.019161 -0.0951702 0)
(-0.0282102 -0.115475 0)
(-0.0233225 -0.124493 0)
(-0.0166365 -0.0983779 0)
(-0.0100014 -0.0723627 0)
(-0.0127971 -0.0573942 0)
(-0.0200333 -0.0393178 0)
(-0.0250175 -0.0348505 0)
(-0.0302085 -0.0467507 0)
(-0.0326038 -0.0605716 0)
(-0.0345065 -0.0662236 0)
(-0.0344463 -0.0520234 0)
(-0.0258028 -0.0416292 0)
(-0.0184152 -0.044361 0)
(-0.000860481 0.000708261 0)
(0.0321093 0.630176 0)
(0.0294764 0.695666 0)
(0.014208 0.730037 0)
(0.0102117 0.725436 0)
(-0.00029834 0.724025 0)
(-0.011105 0.682 0)
(-0.0300539 0.652643 0)
(-0.0453118 0.663953 0)
(-0.0632067 0.691424 0)
(-0.0710624 0.707361 0)
(-0.0823058 0.72707 0)
(-0.0868322 0.689488 0)
(-0.0673098 0.653763 0)
(-0.0512773 0.636267 0)
(-0.0284581 0.671579 0)
(-0.0136996 0.66603 0)
(-0.0156945 0.675631 0)
(-0.0146153 0.698833 0)
(-0.00938369 0.692713 0)
(-0.0022481 0.691653 0)
(-0.00951836 0.701486 0)
(-0.0287732 0.690109 0)
(-0.0476164 0.693557 0)
(-0.0672568 0.697787 0)
(-0.0849112 0.701337 0)
(-0.097231 0.705389 0)
(-0.100521 0.686313 0)
(-0.0804646 0.663127 0)
(-0.0393338 0.646344 0)
(-0.0262917 0.61237 0)
(-0.0181443 0.435287 0)
(0.00357125 0.457182 0)
(0.0361059 0.475519 0)
(0.0610646 0.453257 0)
(0.0701959 0.47723 0)
(0.0615595 0.497475 0)
(0.0264204 0.508333 0)
(-0.022538 0.510618 0)
(-0.0737894 0.490832 0)
(-0.102635 0.45623 0)
(-0.0996585 0.453435 0)
(-0.0764518 0.414221 0)
(-0.0608579 0.385678 0)
(-0.0595923 0.371941 0)
(-0.0433897 0.401125 0)
(-0.0277493 0.464315 0)
(-0.028624 0.449872 0)
(-0.0189792 0.428302 0)
(-0.00650045 0.422794 0)
(-0.00961157 0.453112 0)
(-0.0208456 0.497772 0)
(-0.0537766 0.511826 0)
(-0.101879 0.506123 0)
(-0.149073 0.498018 0)
(-0.181853 0.481378 0)
(-0.181458 0.460322 0)
(-0.15061 0.423861 0)
(-0.100075 0.386022 0)
(-0.0204722 0.363792 0)
(0.0170752 0.428418 0)
(-0.0013008 0.495257 0)
(0.0356769 0.468184 0)
(0.0877257 0.48177 0)
(0.106955 0.49575 0)
(0.112506 0.49099 0)
(0.123103 0.48911 0)
(0.108356 0.512453 0)
(0.0589081 0.533595 0)
(-0.0102756 0.567326 0)
(-0.0770057 0.564651 0)
(-0.099254 0.522468 0)
(-0.0807455 0.488289 0)
(-0.0683136 0.481781 0)
(-0.072059 0.462674 0)
(-0.0536934 0.473769 0)
(-0.0231487 0.504526 0)
(-0.0165115 0.491418 0)
(-0.0194168 0.479137 0)
(-0.00449408 0.486728 0)
(0.0057582 0.517906 0)
(-0.0267481 0.519915 0)
(-0.0789266 0.528668 0)
(-0.130452 0.527638 0)
(-0.173531 0.513703 0)
(-0.202412 0.474555 0)
(-0.212667 0.425391 0)
(-0.195878 0.385177 0)
(-0.141081 0.346937 0)
(-0.0548915 0.32323 0)
(-0.01084 0.46017 0)
(0.017686 0.383405 0)
(0.0561753 0.353947 0)
(0.1015 0.382375 0)
(0.151052 0.436131 0)
(0.187915 0.457279 0)
(0.201716 0.499472 0)
(0.191194 0.569613 0)
(0.145437 0.614745 0)
(0.0692377 0.598005 0)
(-0.0163774 0.530928 0)
(-0.0877562 0.478707 0)
(-0.0933051 0.445287 0)
(-0.0630111 0.436902 0)
(-0.04654 0.413437 0)
(-0.0216733 0.413437 0)
(-0.00178267 0.472378 0)
(4.04957e-05 0.493293 0)
(0.000746013 0.471457 0)
(0.0197686 0.43839 0)
(-0.0179849 0.479256 0)
(-0.100217 0.590559 0)
(-0.184915 0.664517 0)
(-0.238103 0.680248 0)
(-0.255965 0.656095 0)
(-0.25283 0.594458 0)
(-0.254214 0.498081 0)
(-0.246427 0.383659 0)
(-0.194788 0.279557 0)
(-0.121222 0.241152 0)
(-0.0581133 0.416592 0)
(0.0324475 0.435584 0)
(0.0879283 0.396741 0)
(0.165249 0.429074 0)
(0.248018 0.475804 0)
(0.320557 0.519292 0)
(0.364241 0.586947 0)
(0.380749 0.684914 0)
(0.368877 0.787415 0)
(0.304749 0.839239 0)
(0.169535 0.768652 0)
(0.0196015 0.541792 0)
(-0.0523522 0.412215 0)
(-0.0453294 0.420639 0)
(-0.00981359 0.411124 0)
(0.00673822 0.417747 0)
(0.0055732 0.48227 0)
(0.00179346 0.511405 0)
(-0.0260783 0.46017 0)
(-0.10655 0.429234 0)
(-0.243071 0.698063 0)
(-0.390427 0.803233 0)
(-0.442732 0.768218 0)
(-0.419654 0.685645 0)
(-0.369253 0.621647 0)
(-0.319039 0.573815 0)
(-0.296938 0.541219 0)
(-0.274542 0.412926 0)
(-0.226119 0.250361 0)
(-0.162764 0.2094 0)
(-0.0850791 0.317966 0)
(0.0367934 0.351886 0)
(0.122048 0.305957 0)
(0.222558 0.308458 0)
(0.3061 0.339088 0)
(0.38065 0.395691 0)
(0.440999 0.479119 0)
(0.486002 0.585674 0)
(0.521749 0.701094 0)
(0.540416 0.820972 0)
(0.504232 0.933163 0)
(0.314343 0.847143 0)
(0.0968417 0.47342 0)
(0.00815253 0.38938 0)
(0.0238554 0.389567 0)
(0.0436107 0.417885 0)
(0.0243288 0.485192 0)
(-0.0416091 0.485696 0)
(-0.180983 0.503775 0)
(-0.439152 0.7081 0)
(-0.664329 0.864839 0)
(-0.669819 0.79241 0)
(-0.586646 0.670094 0)
(-0.501337 0.579578 0)
(-0.425381 0.518842 0)
(-0.361238 0.480153 0)
(-0.305426 0.451402 0)
(-0.231629 0.345796 0)
(-0.158568 0.180333 0)
(-0.112755 0.141238 0)
(-0.057559 0.179837 0)
(0.0602977 0.265575 0)
(0.143621 0.186322 0)
(0.230035 0.228711 0)
(0.295338 0.266449 0)
(0.385374 0.32983 0)
(0.478215 0.423603 0)
(0.565521 0.553878 0)
(0.622761 0.678455 0)
(0.661715 0.799175 0)
(0.689408 0.928843 0)
(0.65444 1.01377 0)
(0.40239 0.788419 0)
(0.145772 0.423352 0)
(0.0659823 0.335553 0)
(0.0239405 0.360858 0)
(-0.0712653 0.480324 0)
(-0.241155 0.649987 0)
(-0.548137 0.885733 0)
(-0.832981 0.972626 0)
(-0.875267 0.844286 0)
(-0.767715 0.682548 0)
(-0.630744 0.571662 0)
(-0.514625 0.503822 0)
(-0.417003 0.460364 0)
(-0.333096 0.432192 0)
(-0.253094 0.387586 0)
(-0.150666 0.244738 0)
(-0.0886693 0.108961 0)
(-0.0505102 0.112851 0)
(-0.0116845 0.135557 0)
(0.0587813 0.139475 0)
(0.0891965 0.119881 0)
(0.13827 0.161118 0)
(0.188407 0.174878 0)
(0.265078 0.216609 0)
(0.362902 0.304588 0)
(0.482933 0.448027 0)
(0.600949 0.605746 0)
(0.700901 0.754642 0)
(0.777766 0.911717 0)
(0.803306 1.06196 0)
(0.684986 1.04695 0)
(0.372837 0.716608 0)
(0.107089 0.414772 0)
(-0.0744492 0.531026 0)
(-0.320182 0.83077 0)
(-0.604877 1.03317 0)
(-0.851036 1.17321 0)
(-0.939652 1.06314 0)
(-0.817704 0.734813 0)
(-0.673401 0.514566 0)
(-0.532516 0.421101 0)
(-0.409601 0.377294 0)
(-0.310005 0.348495 0)
(-0.222407 0.328209 0)
(-0.12928 0.281311 0)
(-0.0510564 0.16324 0)
(-0.014582 0.075254 0)
(-0.016678 0.0773416 0)
(-0.00242313 0.0998779 0)
(0.00731594 0.0853034 0)
(0.0105676 0.0951904 0)
(0.0342632 0.119587 0)
(0.0684537 0.122552 0)
(0.11626 0.142044 0)
(0.1859 0.197146 0)
(0.29189 0.308124 0)
(0.432406 0.457385 0)
(0.586095 0.620788 0)
(0.714486 0.821183 0)
(0.768009 1.06932 0)
(0.712949 1.24593 0)
(0.479238 1.05708 0)
(0.122538 0.829036 0)
(-0.242051 0.925538 0)
(-0.529258 1.09106 0)
(-0.715206 1.22794 0)
(-0.809095 1.25403 0)
(-0.746441 0.959049 0)
(-0.609529 0.593433 0)
(-0.474366 0.354866 0)
(-0.362895 0.286282 0)
(-0.261515 0.270866 0)
(-0.180933 0.259308 0)
(-0.107868 0.240629 0)
(-0.0370071 0.199695 0)
(0.010243 0.12191 0)
(0.0168526 0.0745262 0)
(0.00225383 0.0923861 0)
(0.00828131 0.0963115 0)
(-0.0169846 0.11616 0)
(-0.0292593 0.100464 0)
(-0.0273284 0.0979029 0)
(-0.00903347 0.0936918 0)
(0.0182583 0.0981616 0)
(0.0589476 0.128904 0)
(0.128196 0.200749 0)
(0.240899 0.305994 0)
(0.389368 0.447988 0)
(0.533466 0.695658 0)
(0.593681 1.08906 0)
(0.499208 1.3401 0)
(0.310914 1.32323 0)
(0.00450667 1.19289 0)
(-0.307671 1.18386 0)
(-0.507666 1.22729 0)
(-0.610239 1.26606 0)
(-0.611243 1.21835 0)
(-0.524752 0.870086 0)
(-0.406564 0.485111 0)
(-0.287482 0.239204 0)
(-0.210746 0.191715 0)
(-0.140736 0.197008 0)
(-0.0837574 0.197848 0)
(-0.0318824 0.182072 0)
(0.00947725 0.151772 0)
(0.0300358 0.109002 0)
(0.0244075 0.0868762 0)
(0.0101097 0.100283 0)
(0.0145502 0.105623 0)
(-0.0152774 0.135969 0)
(-0.0352155 0.108574 0)
(-0.0421029 0.0943305 0)
(-0.0394503 0.0820333 0)
(-0.0285778 0.0764576 0)
(-0.00691234 0.0899847 0)
(0.0294143 0.132138 0)
(0.0973256 0.195409 0)
(0.202012 0.302324 0)
(0.324949 0.598193 0)
(0.390706 1.17551 0)
(0.270609 1.50874 0)
(0.0885677 1.51775 0)
(-0.116236 1.41755 0)
(-0.325184 1.37663 0)
(-0.460413 1.33829 0)
(-0.516477 1.28375 0)
(-0.445722 1.14608 0)
(-0.331687 0.769127 0)
(-0.217741 0.380815 0)
(-0.127657 0.158685 0)
(-0.0873806 0.134104 0)
(-0.051102 0.151495 0)
(-0.0182865 0.158976 0)
(0.00987589 0.14919 0)
(0.0251661 0.130779 0)
(0.0297727 0.109119 0)
(0.0217659 0.100035 0)
(0.0103691 0.107232 0)
(0.00862401 0.11733 0)
(-0.0209404 0.168101 0)
(-0.0519834 0.128656 0)
(-0.0623255 0.099392 0)
(-0.0603483 0.077404 0)
(-0.0510219 0.0666534 0)
(-0.0373021 0.0720257 0)
(-0.0190958 0.0979987 0)
(0.00522884 0.137021 0)
(0.0469194 0.205801 0)
(0.127861 0.532323 0)
(0.18057 1.19138 0)
(0.100246 1.64359 0)
(-0.0504092 1.66441 0)
(-0.20012 1.59463 0)
(-0.365493 1.53506 0)
(-0.470259 1.42671 0)
(-0.466646 1.2616 0)
(-0.326958 1.02673 0)
(-0.176921 0.686458 0)
(-0.0427425 0.275045 0)
(-0.000820262 0.117837 0)
(0.00304205 0.114002 0)
(0.0100574 0.13253 0)
(0.0203404 0.140996 0)
(0.0291901 0.136242 0)
(0.0311016 0.127333 0)
(0.0280459 0.115435 0)
(0.0187864 0.111095 0)
(0.00920641 0.113826 0)
(0.00415326 0.123544 0)
(-0.0440532 0.226039 0)
(-0.0889423 0.141121 0)
(-0.0857026 0.0995789 0)
(-0.0782295 0.0700027 0)
(-0.0666741 0.0553656 0)
(-0.0547391 0.0616229 0)
(-0.0461809 0.0895651 0)
(-0.0479729 0.12676 0)
(-0.0582339 0.173691 0)
(-0.0301403 0.47004 0)
(0.0304823 1.21586 0)
(-0.00735508 1.74867 0)
(-0.11688 1.80601 0)
(-0.241723 1.74644 0)
(-0.38908 1.66862 0)
(-0.452345 1.47104 0)
(-0.38115 1.14316 0)
(-0.192283 0.838212 0)
(-0.0089527 0.510385 0)
(0.081491 0.20191 0)
(0.0751614 0.120604 0)
(0.058196 0.123446 0)
(0.0479655 0.133386 0)
(0.0445288 0.138443 0)
(0.0423109 0.136231 0)
(0.036893 0.131527 0)
(0.029409 0.123888 0)
(0.0189223 0.121273 0)
(0.00928183 0.121401 0)
(0.00265381 0.129289 0)
(-0.0358607 0.28701 0)
(-0.117707 0.162523 0)
(-0.104809 0.0904734 0)
(-0.0908888 0.0560825 0)
(-0.0752439 0.0424915 0)
(-0.0635449 0.0532268 0)
(-0.0622644 0.093741 0)
(-0.0835163 0.150335 0)
(-0.124481 0.196274 0)
(-0.150337 0.424107 0)
(-0.109962 1.2336 0)
(-0.0960778 1.81332 0)
(-0.1465 1.93426 0)
(-0.21163 1.89858 0)
(-0.306882 1.80694 0)
(-0.326009 1.44255 0)
(-0.241046 1.00598 0)
(-0.0437821 0.671185 0)
(0.108282 0.370687 0)
(0.13282 0.191334 0)
(0.108398 0.146735 0)
(0.086089 0.143186 0)
(0.0705114 0.143391 0)
(0.0610344 0.144198 0)
(0.0530028 0.142628 0)
(0.0432719 0.139942 0)
(0.0327794 0.134443 0)
(0.0206654 0.13214 0)
(0.00996936 0.130183 0)
(0.00247864 0.135179 0)
(0.0020103 0.421674 0)
(-0.0355156 0.146986 0)
(-0.101407 0.101637 0)
(-0.0836599 0.0419717 0)
(-0.0684445 0.0266291 0)
(-0.0572381 0.0463344 0)
(-0.0646988 0.112927 0)
(-0.103496 0.199705 0)
(-0.168893 0.259744 0)
(-0.235632 0.436037 0)
(-0.283297 1.15659 0)
(-0.231008 1.81999 0)
(-0.168602 1.92366 0)
(-0.132349 1.90079 0)
(-0.115118 1.82306 0)
(-0.0763873 1.44579 0)
(-0.032493 0.841517 0)
(0.0787979 0.495183 0)
(0.150755 0.302322 0)
(0.14666 0.209005 0)
(0.122157 0.176649 0)
(0.0991444 0.162941 0)
(0.0835091 0.156023 0)
(0.071921 0.153938 0)
(0.0611077 0.152813 0)
(0.0488143 0.151274 0)
(0.0362254 0.146775 0)
(0.0229094 0.144149 0)
(0.0112233 0.139973 0)
(0.00283974 0.141705 0)
(0.0363065 0.367675 0)
(0.0255031 0.281409 0)
(0.02372 0.0894224 0)
(-0.0314084 0.0569328 0)
(-0.0266429 0.0143239 0)
(-0.0211757 0.0357586 0)
(-0.0426203 0.138587 0)
(-0.0926533 0.281823 0)
(-0.20457 0.339243 0)
(-0.359422 0.482419 0)
(-0.478114 1.11427 0)
(-0.391099 1.66389 0)
(-0.213933 1.83438 0)
(-0.074199 1.81884 0)
(0.0757201 1.72307 0)
(0.177637 1.38486 0)
(0.158014 0.806226 0)
(0.12812 0.422068 0)
(0.159586 0.280666 0)
(0.155601 0.229331 0)
(0.130927 0.203544 0)
(0.106755 0.181964 0)
(0.090842 0.169037 0)
(0.0785368 0.165357 0)
(0.0663907 0.165101 0)
(0.0524823 0.164562 0)
(0.0381173 0.160456 0)
(0.0242213 0.156716 0)
(0.0121209 0.150695 0)
(0.00310147 0.14903 0)
(0.0326582 0.329943 0)
(0.0836637 0.229168 0)
(0.106818 0.129885 0)
(0.0983421 0.0677461 0)
(0.0826467 0.019716 0)
(0.0485673 0.0155951 0)
(0.0621266 0.121151 0)
(0.0318907 0.356381 0)
(-0.172532 0.541189 0)
(-0.440365 0.744019 0)
(-0.541714 1.06029 0)
(-0.451016 1.43116 0)
(-0.218225 1.5693 0)
(-0.00686088 1.5579 0)
(0.204979 1.46029 0)
(0.328531 1.31491 0)
(0.313338 0.903136 0)
(0.167786 0.45373 0)
(0.1717 0.271539 0)
(0.177379 0.248999 0)
(0.145219 0.233561 0)
(0.113004 0.206134 0)
(0.0929473 0.182692 0)
(0.0821547 0.177382 0)
(0.0700324 0.178974 0)
(0.054521 0.179767 0)
(0.0377618 0.175915 0)
(0.0227324 0.169746 0)
(0.0107613 0.161664 0)
(0.00250012 0.155858 0)
(0.036947 0.251986 0)
(0.0867182 0.174837 0)
(0.107559 0.110549 0)
(0.108641 0.0845591 0)
(0.0977388 0.0548857 0)
(0.0959606 0.0320297 0)
(0.0665958 0.180732 0)
(0.0919859 0.543445 0)
(-0.0369604 0.859989 0)
(-0.258075 1.06027 0)
(-0.386561 1.1831 0)
(-0.333599 1.27546 0)
(-0.158613 1.37139 0)
(0.0555493 1.36288 0)
(0.251593 1.30203 0)
(0.418465 1.24298 0)
(0.5133 1.02355 0)
(0.425232 0.496553 0)
(0.266345 0.314035 0)
(0.237401 0.288545 0)
(0.184777 0.286617 0)
(0.123033 0.243221 0)
(0.0854921 0.18756 0)
(0.0846299 0.185582 0)
(0.0755519 0.194395 0)
(0.0567206 0.198145 0)
(0.0353965 0.19412 0)
(0.0170289 0.1847 0)
(0.00526003 0.171182 0)
(0.000467009 0.160114 0)
(0.0274692 0.189913 0)
(0.065994 0.148396 0)
(0.0728479 0.108216 0)
(0.0640444 0.0900986 0)
(0.0426083 0.071533 0)
(0.0199284 0.0514811 0)
(-0.00152732 0.129515 0)
(0.0458482 0.478268 0)
(0.0640524 0.912397 0)
(-0.00672558 1.11755 0)
(-0.0748413 1.27072 0)
(-0.0925862 1.27363 0)
(-0.0253267 1.26817 0)
(0.13762 1.20515 0)
(0.356818 1.19827 0)
(0.591711 1.12066 0)
(0.809173 0.9819 0)
(0.837934 0.71121 0)
(0.654057 0.388957 0)
(0.471795 0.334648 0)
(0.360318 0.339786 0)
(0.223191 0.343697 0)
(0.0870386 0.233594 0)
(0.0966823 0.187039 0)
(0.0913733 0.211274 0)
(0.0645195 0.22103 0)
(0.0326311 0.216755 0)
(0.00422047 0.201897 0)
(-0.00827699 0.17593 0)
(-0.00389914 0.157719 0)
(0.0135821 0.152144 0)
(0.040458 0.134713 0)
(0.0410278 0.115904 0)
(0.0272045 0.10913 0)
(0.000728853 0.101861 0)
(-0.0339608 0.0864795 0)
(-0.0624222 0.10777 0)
(-0.0334252 0.418699 0)
(0.0819258 0.892264 0)
(0.0978857 1.13211 0)
(0.0916886 1.23628 0)
(0.0944971 1.27602 0)
(0.137096 1.19197 0)
(0.261863 1.04479 0)
(0.474894 0.923813 0)
(0.759332 0.864932 0)
(0.986706 0.758908 0)
(1.11963 0.703815 0)
(1.10345 0.641802 0)
(0.973733 0.560992 0)
(0.82789 0.568157 0)
(0.665361 0.553165 0)
(0.439273 0.286431 0)
(0.186496 0.250892 0)
(0.153468 0.268464 0)
(0.0944492 0.279399 0)
(0.0395756 0.272635 0)
(-0.021847 0.24383 0)
(-0.0431431 0.172905 0)
(-0.0144909 0.141079 0)
(0.00336572 0.132493 0)
(0.0206486 0.126939 0)
(0.0190059 0.125206 0)
(0.00546008 0.130659 0)
(-0.0199407 0.136039 0)
(-0.0563236 0.133055 0)
(-0.0921918 0.128726 0)
(-0.108834 0.305437 0)
(0.0279714 0.781338 0)
(0.111595 1.1198 0)
(0.128144 1.21665 0)
(0.143368 1.21644 0)
(0.208213 1.08215 0)
(0.343862 0.86084 0)
(0.529301 0.674311 0)
(0.768659 0.599367 0)
(0.934851 0.558767 0)
(1.05215 0.599318 0)
(1.11956 0.633274 0)
(1.12963 0.6503 0)
(1.11977 0.671066 0)
(1.09929 0.72712 0)
(0.945593 0.616774 0)
(0.663913 0.355433 0)
(0.452635 0.288776 0)
(0.277203 0.274724 0)
(0.110048 0.279731 0)
(-0.0445453 0.279338 0)
(-0.0814902 0.174664 0)
(-0.0292875 0.106832 0)
(0.00150039 0.124801 0)
(0.00797585 0.124586 0)
(0.00392633 0.13391 0)
(-0.00885569 0.149374 0)
(-0.0313884 0.166002 0)
(-0.0623436 0.175911 0)
(-0.100563 0.178452 0)
(-0.152711 0.249552 0)
(-0.0630878 0.678658 0)
(0.0734141 1.07295 0)
(0.118555 1.20668 0)
(0.138921 1.19031 0)
(0.21141 0.979567 0)
(0.339325 0.691357 0)
(0.505286 0.504158 0)
(0.633458 0.402399 0)
(0.737057 0.419846 0)
(0.829394 0.495346 0)
(0.936843 0.575146 0)
(1.01993 0.599855 0)
(1.09451 0.609182 0)
(1.13952 0.663656 0)
(1.15336 0.707662 0)
(1.08286 0.725084 0)
(0.850382 0.690392 0)
(0.586274 0.688316 0)
(0.320998 0.657239 0)
(0.0674886 0.560062 0)
(-0.11158 0.118338 0)
(-0.0793927 0.0464902 0)
(0.000372292 0.122123 0)
(-0.00322126 0.12796 0)
(-0.0124461 0.144101 0)
(-0.0272425 0.166417 0)
(-0.0483366 0.191158 0)
(-0.0766634 0.213562 0)
(-0.106421 0.231844 0)
(-0.157837 0.258474 0)
(-0.165493 0.536355 0)
(-0.00942112 0.960384 0)
(0.0751244 1.17132 0)
(0.122903 1.1519 0)
(0.186723 0.866982 0)
(0.30333 0.566742 0)
(0.40671 0.362748 0)
(0.477861 0.299427 0)
(0.540846 0.336611 0)
(0.629724 0.430347 0)
(0.732446 0.494953 0)
(0.826012 0.493251 0)
(0.902488 0.490935 0)
(0.962351 0.557466 0)
(1.06388 0.711864 0)
(1.06768 0.842629 0)
(0.895655 0.889335 0)
(0.670541 0.851471 0)
(0.462716 0.815295 0)
(0.270851 0.741169 0)
(0.0327294 0.408258 0)
(-0.0135425 -0.153073 0)
(-0.0031178 0.125979 0)
(-0.0153592 0.137962 0)
(-0.0320689 0.159221 0)
(-0.0522378 0.186083 0)
(-0.076203 0.216013 0)
(-0.105382 0.246092 0)
(-0.135512 0.275389 0)
(-0.157069 0.310761 0)
(-0.236278 0.45948 0)
(-0.110117 0.865359 0)
(0.0186875 1.08226 0)
(0.0932124 1.07998 0)
(0.169892 0.805165 0)
(0.249037 0.449336 0)
(0.311263 0.290125 0)
(0.350896 0.253755 0)
(0.386187 0.292605 0)
(0.455837 0.367405 0)
(0.541738 0.386437 0)
(0.645429 0.379774 0)
(0.707933 0.394165 0)
(0.776103 0.497037 0)
(0.841289 0.692752 0)
(0.841556 0.910489 0)
(0.723629 1.00322 0)
(0.585736 0.999468 0)
(0.440175 0.974188 0)
(0.288896 0.884106 0)
(0.135453 0.502061 0)
(0.0452675 -0.016383 0)
(-0.00699431 0.138694 0)
(-0.0274014 0.156899 0)
(-0.0537623 0.183006 0)
(-0.0820118 0.211106 0)
(-0.111657 0.244295 0)
(-0.145488 0.277927 0)
(-0.179419 0.311391 0)
(-0.202766 0.352609 0)
(-0.236379 0.449539 0)
(-0.219836 0.707982 0)
(-0.0585419 1.00004 0)
(0.0581615 1.03412 0)
(0.142666 0.70659 0)
(0.194671 0.392238 0)
(0.212214 0.258382 0)
(0.223967 0.23247 0)
(0.243736 0.265225 0)
(0.297255 0.296658 0)
(0.378704 0.281996 0)
(0.465074 0.272608 0)
(0.529223 0.325778 0)
(0.634293 0.520792 0)
(0.627065 0.706964 0)
(0.608822 0.944498 0)
(0.559495 1.09406 0)
(0.467819 1.1185 0)
(0.365709 1.11095 0)
(0.244619 1.02443 0)
(0.126972 0.624543 0)
(0.0475149 0.0353253 0)
(-0.00876386 0.157109 0)
(-0.0343869 0.185177 0)
(-0.0748883 0.22153 0)
(-0.115859 0.244686 0)
(-0.152441 0.278745 0)
(-0.194564 0.313822 0)
(-0.23284 0.346528 0)
(-0.259342 0.382155 0)
(-0.261817 0.450913 0)
(-0.282083 0.61692 0)
(-0.170146 0.842191 0)
(-0.00541166 0.900415 0)
(0.0967065 0.621566 0)
(0.125359 0.372998 0)
(0.117863 0.259759 0)
(0.108373 0.235163 0)
(0.114124 0.243867 0)
(0.153438 0.226747 0)
(0.217834 0.188291 0)
(0.278336 0.184127 0)
(0.353166 0.291598 0)
(0.388774 0.473563 0)
(0.398229 0.703358 0)
(0.400834 0.947414 0)
(0.408893 1.13776 0)
(0.3567 1.20412 0)
(0.279023 1.20648 0)
(0.192899 1.12843 0)
(0.118566 0.706873 0)
(0.0587859 0.128087 0)
(-0.00286049 0.173688 0)
(-0.0255748 0.211999 0)
(-0.0979743 0.273872 0)
(-0.16529 0.281972 0)
(-0.203667 0.321581 0)
(-0.256118 0.356955 0)
(-0.297504 0.382187 0)
(-0.32385 0.407101 0)
(-0.326581 0.443265 0)
(-0.302178 0.571778 0)
(-0.246638 0.715372 0)
(-0.0882768 0.755698 0)
(0.0162083 0.548816 0)
(0.0406032 0.371652 0)
(0.0250363 0.277356 0)
(0.00861018 0.247764 0)
(0.00945946 0.226249 0)
(0.0339642 0.18018 0)
(0.0671312 0.130167 0)
(0.101935 0.133872 0)
(0.166403 0.271863 0)
(0.181666 0.457469 0)
(0.196401 0.686578 0)
(0.215751 0.919001 0)
(0.247791 1.13444 0)
(0.24848 1.25896 0)
(0.201149 1.27813 0)
(0.152162 1.19731 0)
(0.114774 0.751639 0)
(0.0662557 0.215914 0)
(0.000273792 0.169219 0)
(0.0125462 0.294069 0)
(-0.123906 0.432929 0)
(-0.239483 0.332577 0)
(-0.303897 0.364519 0)
(-0.348011 0.404042 0)
(-0.374625 0.413168 0)
(-0.383944 0.418325 0)
(-0.378156 0.436115 0)
(-0.350272 0.511047 0)
(-0.291158 0.62127 0)
(-0.161474 0.630342 0)
(-0.0717642 0.488613 0)
(-0.047307 0.370949 0)
(-0.057659 0.296355 0)
(-0.070575 0.257808 0)
(-0.0720374 0.217998 0)
(-0.0669751 0.163723 0)
(-0.06666 0.112379 0)
(-0.0663642 0.109022 0)
(-0.0344592 0.221943 0)
(0.0205695 0.46148 0)
(0.0408211 0.664992 0)
(0.0659954 0.89019 0)
(0.0944603 1.10437 0)
(0.121964 1.26164 0)
(0.130964 1.30961 0)
(0.126342 1.22352 0)
(0.125353 0.781879 0)
(0.0682575 0.310773 0)
(0.00732168 0.206529 0)
(0.0919255 0.207885 0)
(0.0729584 0.578938 0)
(-0.246047 0.487228 0)
(-0.410932 0.426205 0)
(-0.438744 0.428388 0)
(-0.440021 0.427199 0)
(-0.424629 0.414971 0)
(-0.404185 0.417121 0)
(-0.374618 0.464516 0)
(-0.316258 0.537259 0)
(-0.20959 0.531752 0)
(-0.144927 0.439979 0)
(-0.119965 0.365106 0)
(-0.121166 0.30716 0)
(-0.128532 0.264672 0)
(-0.134548 0.221156 0)
(-0.14506 0.171147 0)
(-0.165342 0.125245 0)
(-0.187646 0.110171 0)
(-0.187364 0.175009 0)
(-0.134874 0.391421 0)
(-0.0925591 0.627433 0)
(-0.063748 0.862916 0)
(-0.0379736 1.0724 0)
(0.00632307 1.22323 0)
(0.0578154 1.27474 0)
(0.0994131 1.2043 0)
(0.128292 0.799782 0)
(0.0668226 0.413991 0)
(0.0363796 0.0213744 0)
(0.10479 0.20143 0)
(0.222683 0.708409 0)
(0.0666813 0.83997 0)
(-0.364716 0.538169 0)
(-0.466887 0.435111 0)
(-0.452811 0.414464 0)
(-0.431472 0.396583 0)
(-0.405188 0.388382 0)
(-0.374275 0.420481 0)
(-0.316765 0.460915 0)
(-0.235593 0.459635 0)
(-0.190001 0.401389 0)
(-0.167623 0.3543 0)
(-0.163849 0.310696 0)
(-0.169175 0.27171 0)
(-0.179897 0.232607 0)
(-0.198457 0.191226 0)
(-0.226307 0.152359 0)
(-0.256834 0.131453 0)
(-0.275951 0.164101 0)
(-0.251999 0.328923 0)
(-0.196945 0.623214 0)
(-0.16203 0.840579 0)
(-0.12207 1.03099 0)
(-0.0808387 1.16301 0)
(-0.00903487 1.2091 0)
(0.0587582 1.15468 0)
(0.109411 0.805547 0)
(0.0566831 0.51051 0)
(0.014653 0.036078 0)
(0.0525289 0.0768246 0)
(0.218667 0.56736 0)
(0.326974 1.21472 0)
(-0.0764819 0.9491 0)
(-0.411472 0.477917 0)
(-0.445245 0.400587 0)
(-0.419763 0.375367 0)
(-0.390968 0.356039 0)
(-0.358117 0.373353 0)
(-0.300562 0.398906 0)
(-0.244594 0.404444 0)
(-0.210108 0.372343 0)
(-0.192868 0.343456 0)
(-0.189606 0.312259 0)
(-0.195813 0.280857 0)
(-0.209741 0.248723 0)
(-0.231349 0.215988 0)
(-0.26084 0.18433 0)
(-0.294562 0.162382 0)
(-0.323973 0.177407 0)
(-0.327447 0.290521 0)
(-0.280827 0.550041 0)
(-0.226191 0.789757 0)
(-0.180933 0.991574 0)
(-0.139694 1.10426 0)
(-0.0704842 1.13277 0)
(0.00916276 1.09051 0)
(0.0607651 0.783298 0)
(0.0259222 0.587136 0)
(0.0108535 0.0130174 0)
(0.0174825 0.00187519 0)
(0.113729 0.357978 0)
(0.305973 1.18494 0)
(0.200218 1.42376 0)
(-0.189559 0.738273 0)
(-0.409487 0.415739 0)
(-0.394253 0.354108 0)
(-0.361312 0.319195 0)
(-0.326221 0.323813 0)
(-0.272673 0.350394 0)
(-0.238577 0.363753 0)
(-0.214396 0.351269 0)
(-0.203044 0.335845 0)
(-0.203039 0.315312 0)
(-0.211515 0.292284 0)
(-0.227705 0.267599 0)
(-0.25118 0.24238 0)
(-0.281733 0.217602 0)
(-0.317291 0.197754 0)
(-0.35292 0.202267 0)
(-0.371555 0.279661 0)
(-0.34335 0.482481 0)
(-0.274001 0.766846 0)
(-0.217272 0.934392 0)
(-0.179013 1.04524 0)
(-0.122003 1.05687 0)
(-0.0687133 1.0147 0)
(-0.028239 0.805176 0)
(0.00070058 0.59789 0)
(0.00792749 0.00859483 0)
(-0.0030718 -0.0181701 0)
(0.0309813 0.221851 0)
(0.163375 1.10166 0)
(0.219571 1.48543 0)
(0.00844428 1.17457 0)
(-0.289413 0.549167 0)
(-0.347585 0.333057 0)
(-0.315524 0.281498 0)
(-0.279902 0.275594 0)
(-0.239169 0.322599 0)
(-0.221412 0.337423 0)
(-0.206123 0.339418 0)
(-0.202799 0.333467 0)
(-0.206904 0.321443 0)
(-0.218174 0.305914 0)
(-0.236188 0.288419 0)
(-0.261 0.270313 0)
(-0.292767 0.252386 0)
(-0.330004 0.236991 0)
(-0.370902 0.236133 0)
(-0.397928 0.285706 0)
(-0.388993 0.428044 0)
(-0.318254 0.674918 0)
(-0.23337 0.922393 0)
(-0.181515 1.00908 0)
(-0.151539 1.00221 0)
(-0.147241 1.03111 0)
(-0.0725733 0.727717 0)
(-0.0354639 0.578838 0)
(0.00299209 0.0130947 0)
(-0.017126 -0.00969329 0)
(-0.0237448 0.155987 0)
(0.0345492 1.04144 0)
(0.0941192 1.47215 0)
(0.0317945 1.33911 0)
(-0.150915 0.828809 0)
(-0.211262 0.334331 0)
(-0.240606 0.23435 0)
(-0.218931 0.249805 0)
(-0.201963 0.300656 0)
(-0.193544 0.32454 0)
(-0.189667 0.335983 0)
(-0.193285 0.336662 0)
(-0.201162 0.331175 0)
(-0.214258 0.321902 0)
(-0.232813 0.310994 0)
(-0.257433 0.299798 0)
(-0.288828 0.289193 0)
(-0.326579 0.28039 0)
(-0.369891 0.279482 0)
(-0.405025 0.30573 0)
(-0.406779 0.392857 0)
(-0.349614 0.583309 0)
(-0.249683 0.829749 0)
(-0.167518 0.983785 0)
(-0.145383 1.03326 0)
(-0.134036 0.991601 0)
(-0.094271 0.668106 0)
(-0.0822694 0.47567 0)
(-0.00180659 0.0270819 0)
(-0.0231633 0.0166238 0)
(-0.060399 0.149638 0)
(-0.0659283 1.00747 0)
(-0.0327195 1.46273 0)
(-0.0422812 1.37139 0)
(-0.0537162 0.870223 0)
(-0.105106 0.437427 0)
(-0.126916 0.241329 0)
(-0.148405 0.243573 0)
(-0.153839 0.293381 0)
(-0.156498 0.32509 0)
(-0.161674 0.341424 0)
(-0.167771 0.345711 0)
(-0.175604 0.344289 0)
(-0.186719 0.339431 0)
(-0.202164 0.333651 0)
(-0.222637 0.328239 0)
(-0.248661 0.324029 0)
(-0.280649 0.321867 0)
(-0.31695 0.323002 0)
(-0.352633 0.336382 0)
(-0.373514 0.383024 0)
(-0.3437 0.50939 0)
(-0.243014 0.727551 0)
(-0.139927 0.912397 0)
(-0.0697511 0.990057 0)
(-0.0248245 0.950506 0)
(-0.0209222 0.643374 0)
(-0.0465494 0.395985 0)
(-0.00493093 0.0461118 0)
(-0.0237301 0.0535709 0)
(-0.0805786 0.193357 0)
(-0.147804 0.988553 0)
(-0.142798 1.46667 0)
(-0.10558 1.34609 0)
(-0.0192329 0.871636 0)
(0.00848477 0.456791 0)
(-0.0167908 0.281729 0)
(-0.061188 0.267992 0)
(-0.087865 0.30918 0)
(-0.0994281 0.338945 0)
(-0.10655 0.351528 0)
(-0.112679 0.354374 0)
(-0.120245 0.353423 0)
(-0.130355 0.350831 0)
(-0.143379 0.348308 0)
(-0.159417 0.346584 0)
(-0.178496 0.346354 0)
(-0.200583 0.348137 0)
(-0.225326 0.352151 0)
(-0.249668 0.357037 0)
(-0.263113 0.369421 0)
(-0.274763 0.44856 0)
(-0.228621 0.633062 0)
(-0.104459 0.817718 0)
(0.0117478 0.906762 0)
(0.0934748 0.903806 0)
(0.076146 0.707576 0)
(0.0155554 0.414833 0)
(-0.000885979 0.0662428 0)
(-0.0272109 0.0948825 0)
(-0.0891014 0.270146 0)
(-0.230394 1.05026 0)
(-0.221767 1.46795 0)
(-0.123057 1.23575 0)
(0.012471 0.74232 0)
(0.0837232 0.438779 0)
(0.0651289 0.32812 0)
(0.017859 0.313824 0)
(-0.016708 0.334171 0)
(-0.0367347 0.350172 0)
(-0.0500872 0.356997 0)
(-0.0610095 0.359686 0)
(-0.0717665 0.360392 0)
(-0.0832248 0.360211 0)
(-0.0957591 0.360071 0)
(-0.109501 0.360626 0)
(-0.124471 0.362525 0)
(-0.140577 0.366218 0)
(-0.157711 0.372184 0)
(-0.176219 0.381593 0)
(-0.194354 0.39572 0)
(-0.198436 0.42208 0)
(-0.187166 0.523624 0)
(-0.114646 0.708406 0)
(0.0293805 0.79296 0)
(0.129882 0.836827 0)
(0.12326 0.791455 0)
(0.0578876 0.47883 0)
(-0.00164508 0.0914586 0)
(-0.049593 0.142193 0)
(-0.142632 0.402947 0)
(-0.324074 1.07897 0)
(-0.263251 1.39433 0)
(-0.0872029 1.11351 0)
(0.0662942 0.617068 0)
(0.121973 0.42198 0)
(0.0967872 0.358912 0)
(0.055939 0.34945 0)
(0.0235148 0.357177 0)
(0.00123985 0.364836 0)
(-0.0147345 0.368924 0)
(-0.0278533 0.37104 0)
(-0.0398708 0.371916 0)
(-0.051586 0.372304 0)
(-0.0634024 0.372852 0)
(-0.0754914 0.37415 0)
(-0.0878879 0.376751 0)
(-0.100563 0.381082 0)
(-0.113563 0.387769 0)
(-0.12715 0.398292 0)
(-0.141612 0.415956 0)
(-0.15379 0.446203 0)
(-0.147064 0.494164 0)
(-0.107138 0.578402 0)
(-0.00857032 0.67343 0)
(0.0944965 0.759453 0)
(0.111919 0.851877 0)
(0.0761891 0.574372 0)
(-0.0125645 0.133327 0)
(-0.10064 0.229616 0)
(-0.285094 0.591913 0)
(-0.401123 1.10095 0)
(-0.257782 1.2883 0)
(0.00443621 0.885149 0)
(0.130246 0.529929 0)
(0.126734 0.412741 0)
(0.101453 0.388793 0)
(0.0717089 0.38306 0)
(0.0453287 0.38259 0)
(0.025107 0.383471 0)
(0.00923149 0.384078 0)
(-0.00420311 0.384365 0)
(-0.0163274 0.38438 0)
(-0.0278195 0.384452 0)
(-0.039051 0.384951 0)
(-0.0501634 0.386306 0)
(-0.0611605 0.388956 0)
(-0.0720516 0.393394 0)
(-0.0829117 0.400362 0)
(-0.0937484 0.411276 0)
(-0.104117 0.428596 0)
(-0.111912 0.455529 0)
(-0.110848 0.494086 0)
(-0.0877194 0.537322 0)
(-0.0361006 0.575159 0)
(0.0237706 0.677787 0)
(0.0723975 0.871133 0)
(0.0663197 0.65254 0)
(-0.0448349 0.202753 0)
(-0.17546 0.405527 0)
(-0.375905 0.715472 0)
(-0.372876 1.04243 0)
(-0.125156 1.02388 0)
(0.109683 0.676745 0)
(0.148546 0.489752 0)
(0.133528 0.439292 0)
(0.108322 0.421749 0)
(0.08241 0.411048 0)
(0.0607015 0.404684 0)
(0.0430842 0.400995 0)
(0.0283971 0.398754 0)
(0.0155387 0.397344 0)
(0.00367402 0.396487 0)
(-0.00774175 0.396168 0)
(-0.0189625 0.396483 0)
(-0.0299799 0.397651 0)
(-0.0406718 0.400066 0)
(-0.0509938 0.404314 0)
(-0.060946 0.411144 0)
(-0.0703463 0.421663 0)
(-0.0784608 0.437384 0)
(-0.0836369 0.459635 0)
(-0.0827339 0.487702 0)
(-0.0714215 0.517891 0)
(-0.048173 0.545814 0)
(-0.0221065 0.618311 0)
(0.0249665 0.839046 0)
(0.0453483 0.714351 0)
(-0.135762 0.35427 0)
(-0.255335 0.598184 0)
(-0.351421 0.760605 0)
(-0.217169 0.863623 0)
(0.0430403 0.735651 0)
(0.14289 0.573748 0)
(0.15329 0.501741 0)
(0.135717 0.469102 0)
(0.112154 0.448031 0)
(0.0911725 0.433122 0)
(0.0736484 0.422951 0)
(0.0588675 0.416304 0)
(0.0459326 0.412135 0)
(0.0339606 0.409688 0)
(0.0222231 0.408462 0)
(0.0103363 0.408113 0)
(-0.00175926 0.408433 0)
(-0.0137802 0.409356 0)
(-0.0253124 0.411276 0)
(-0.0360998 0.414939 0)
(-0.0459873 0.421118 0)
(-0.0547473 0.430625 0)
(-0.0617967 0.444295 0)
(-0.0661448 0.462598 0)
(-0.0665988 0.484351 0)
(-0.0620214 0.50652 0)
(-0.0524489 0.530748 0)
(-0.0411328 0.599162 0)
(-0.0100573 0.783536 0)
(0.0252994 0.751642 0)
(-0.114331 0.562538 0)
(-0.22246 0.659823 0)
(-0.170079 0.649142 0)
(0.00987452 0.634618 0)
(0.109955 0.608187 0)
(0.147874 0.557196 0)
(0.146464 0.52016 0)
(0.130893 0.490998 0)
(0.113907 0.467776 0)
(0.098852 0.450068 0)
(0.0858982 0.437441 0)
(0.0744588 0.429057 0)
(0.0636683 0.424041 0)
(0.0526666 0.421566 0)