/*--------------------------------*- C++ -*----------------------------------*\
| =========                 |                                                 |
| \\      /  F ield         | OpenFOAM: The Open Source CFD Toolbox           |
|  \\    /   O peration     | Version:  v1606+                                |
|   \\  /    A nd           | Web:      www.OpenFOAM.com                      |
|    \\/     M anipulation  |                                                 |
\*---------------------------------------------------------------------------*/
FoamFile
{
    version     2.0;
    format      ascii;
    class       volVectorField;
    location    "1.97";
    object      U.air;
}
// * * * * * * * * * * * * * * * * * * * * * * * * * * * * * * * * * * * * * //

dimensions      [0 1 -1 0 0 0 0];

internalField   nonuniform List<vector> 
6000
(
(-0.0154758 0.238979 0)
(-0.0105003 0.159791 0)
(-0.0321385 0.170122 0)
(-0.0518869 0.181982 0)
(-0.0682948 0.190705 0)
(-0.0723928 0.201666 0)
(-0.0494417 0.206804 0)
(-0.0195583 0.201897 0)
(-0.00417261 0.178866 0)
(-0.00133178 0.159848 0)
(-0.0149992 0.149838 0)
(-0.0372822 0.156782 0)
(-0.0398518 0.165511 0)
(-0.0206653 0.162013 0)
(-0.00926709 0.155138 0)
(-0.0282292 0.171733 0)
(-0.0384143 0.147444 0)
(-0.0339081 0.13385 0)
(-0.0263495 0.156299 0)
(-0.0183741 0.184626 0)
(-0.022201 0.205283 0)
(-0.0275986 0.226369 0)
(-0.0279628 0.2351 0)
(-0.0288891 0.226901 0)
(-0.0268817 0.212811 0)
(-0.0267399 0.2031 0)
(-0.0277756 0.208872 0)
(-0.0202291 0.213964 0)
(-0.0136583 0.20839 0)
(0.00383081 0.24943 0)
(0.0345018 1.00283 0)
(0.0309675 1.07306 0)
(0.00930333 1.11276 0)
(5.35629e-05 1.09632 0)
(-0.0132238 1.10025 0)
(-0.0250279 1.0654 0)
(-0.0443432 1.03911 0)
(-0.0594793 1.04322 0)
(-0.0764013 1.0561 0)
(-0.0821121 1.05515 0)
(-0.0932919 1.06577 0)
(-0.0993943 1.02618 0)
(-0.0794925 0.986872 0)
(-0.0618637 0.965271 0)
(-0.036647 1.01073 0)
(-0.0189485 1.01585 0)
(-0.0150495 1.01355 0)
(-0.00619102 1.02797 0)
(0.00634169 1.02613 0)
(0.0203212 1.04013 0)
(0.0158286 1.07229 0)
(-0.00737118 1.08472 0)
(-0.0352162 1.10533 0)
(-0.0672656 1.11531 0)
(-0.0973664 1.11128 0)
(-0.117273 1.09949 0)
(-0.121283 1.06417 0)
(-0.0966657 1.03278 0)
(-0.0429473 1.01576 0)
(-0.0232468 0.995616 0)
(-0.0162003 0.801765 0)
(0.00848007 0.827674 0)
(0.0409061 0.858356 0)
(0.062274 0.850526 0)
(0.0707227 0.885314 0)
(0.0610983 0.912227 0)
(0.0128256 0.929524 0)
(-0.0518077 0.926189 0)
(-0.110627 0.885694 0)
(-0.141632 0.817278 0)
(-0.130479 0.787779 0)
(-0.0963018 0.731073 0)
(-0.076347 0.696595 0)
(-0.071116 0.676173 0)
(-0.0491396 0.706053 0)
(-0.0319543 0.771408 0)
(-0.0276721 0.751076 0)
(-0.000763451 0.736262 0)
(0.0312129 0.752446 0)
(0.0414163 0.815016 0)
(0.03799 0.901828 0)
(-0.000755965 0.957438 0)
(-0.0737767 0.974595 0)
(-0.152788 0.96961 0)
(-0.211979 0.939574 0)
(-0.220791 0.893057 0)
(-0.183305 0.831801 0)
(-0.119993 0.773863 0)
(-0.0180251 0.737461 0)
(0.0259173 0.829473 0)
(0.00494139 0.926164 0)
(0.0573392 0.902452 0)
(0.124911 0.932951 0)
(0.143585 0.96774 0)
(0.138455 0.979555 0)
(0.138591 0.992744 0)
(0.101914 1.03341 0)
(0.0163287 1.06406 0)
(-0.0911302 1.08308 0)
(-0.176364 1.03093 0)
(-0.183848 0.93079 0)
(-0.138306 0.851584 0)
(-0.105194 0.823923 0)
(-0.0919636 0.792777 0)
(-0.0596739 0.804178 0)
(-0.0125429 0.84235 0)
(0.0151977 0.833132 0)
(0.0366928 0.837246 0)
(0.0828755 0.877152 0)
(0.116476 0.967708 0)
(0.0749001 1.02636 0)
(-0.0166455 1.05174 0)
(-0.110612 1.04463 0)
(-0.188829 1.02109 0)
(-0.245369 0.972751 0)
(-0.273144 0.909679 0)
(-0.25879 0.844817 0)
(-0.189385 0.774416 0)
(-0.0708749 0.725273 0)
(-0.00839759 0.893761 0)
(0.0248087 0.777884 0)
(0.0807919 0.742466 0)
(0.142301 0.773287 0)
(0.199044 0.829983 0)
(0.236684 0.85316 0)
(0.244114 0.902428 0)
(0.217447 0.989742 0)
(0.141501 1.05888 0)
(0.0164287 1.07229 0)
(-0.131413 1.02108 0)
(-0.232061 0.92905 0)
(-0.204918 0.827706 0)
(-0.125675 0.788963 0)
(-0.0742365 0.752809 0)
(-0.0222994 0.754871 0)
(0.0258403 0.822184 0)
(0.0552715 0.848132 0)
(0.0889882 0.845547 0)
(0.152504 0.849551 0)
(0.104751 0.94151 0)
(-0.0487683 1.03759 0)
(-0.189611 1.08194 0)
(-0.272589 1.07133 0)
(-0.304478 1.03015 0)
(-0.31021 0.959522 0)
(-0.324633 0.860636 0)
(-0.329413 0.74005 0)
(-0.268969 0.620149 0)
(-0.167192 0.56852 0)
(-0.0724736 0.771822 0)
(0.0420598 0.706986 0)
(0.115806 0.662378 0)
(0.208169 0.695568 0)
(0.306065 0.744777 0)
(0.392009 0.79116 0)
(0.440727 0.868236 0)
(0.455239 0.98577 0)
(0.434753 1.11435 0)
(0.349003 1.19977 0)
(0.160498 1.16966 0)
(-0.0802172 0.969994 0)
(-0.192576 0.8067 0)
(-0.134787 0.77575 0)
(-0.044536 0.75549 0)
(0.011931 0.770849 0)
(0.0434349 0.855877 0)
(0.0737473 0.903548 0)
(0.0778299 0.875281 0)
(-0.0281364 0.849793 0)
(-0.247247 1.09474 0)
(-0.453447 1.15688 0)
(-0.528132 1.08814 0)
(-0.508222 0.983109 0)
(-0.452623 0.903231 0)
(-0.395361 0.844398 0)
(-0.372354 0.803674 0)
(-0.356195 0.669027 0)
(-0.301802 0.49422 0)
(-0.217911 0.452256 0)
(-0.106879 0.585236 0)
(0.0475592 0.534128 0)
(0.154977 0.48782 0)
(0.274059 0.497019 0)
(0.376505 0.53581 0)
(0.472022 0.603694 0)
(0.547642 0.705142 0)
(0.600666 0.83744 0)
(0.638817 0.982375 0)
(0.654311 1.13213 0)
(0.598371 1.27198 0)
(0.350147 1.2148 0)
(0.0362282 0.85391 0)
(-0.0809454 0.747062 0)
(-0.00686498 0.744687 0)
(0.0743775 0.798877 0)
(0.0936138 0.908199 0)
(0.0268091 0.928897 0)
(-0.177997 0.936316 0)
(-0.539621 1.10443 0)
(-0.814266 1.22052 0)
(-0.819248 1.10418 0)
(-0.722315 0.949678 0)
(-0.62054 0.836576 0)
(-0.529327 0.76131 0)
(-0.452267 0.712661 0)
(-0.387651 0.674924 0)
(-0.305956 0.552974 0)
(-0.217499 0.368444 0)
(-0.152389 0.331859 0)
(-0.0730009 0.38568 0)
(0.0740674 0.407039 0)
(0.184216 0.3335 0)
(0.292521 0.386275 0)
(0.380234 0.43376 0)
(0.494878 0.512049 0)
(0.608468 0.628155 0)
(0.70984 0.786377 0)
(0.77525 0.941018 0)
(0.817457 1.09235 0)
(0.84323 1.25502 0)
(0.793367 1.36605 0)
(0.488856 1.15474 0)
(0.155966 0.783902 0)
(0.0790837 0.699476 0)
(0.0744458 0.756012 0)
(-0.0443207 0.888287 0)
(-0.288911 1.04282 0)
(-0.691275 1.26201 0)
(-1.04904 1.34148 0)
(-1.11269 1.18947 0)
(-0.97449 0.978446 0)
(-0.800424 0.828937 0)
(-0.654591 0.737811 0)
(-0.533265 0.680453 0)
(-0.429885 0.644558 0)
(-0.332864 0.593146 0)
(-0.210437 0.432501 0)
(-0.126802 0.274136 0)
(-0.0754532 0.279795 0)
(-0.0219745 0.311054 0)
(0.0738957 0.271407 0)
(0.128819 0.259827 0)
(0.195432 0.312756 0)
(0.266209 0.333571 0)
(0.368719 0.387304 0)
(0.493362 0.49655 0)
(0.637084 0.669597 0)
(0.772879 0.857537 0)
(0.886826 1.03839 0)
(0.972529 1.23363 0)
(0.999271 1.41857 0)
(0.854494 1.40131 0)
(0.492125 1.045 0)
(0.171847 0.726471 0)
(-0.0678298 0.839029 0)
(-0.379139 1.12826 0)
(-0.713995 1.30112 0)
(-1.01426 1.4563 0)
(-1.16782 1.39429 0)
(-1.07572 1.06346 0)
(-0.907012 0.799078 0)
(-0.716604 0.666923 0)
(-0.551761 0.60179 0)
(-0.420376 0.560975 0)
(-0.305885 0.533573 0)
(-0.18665 0.478703 0)
(-0.0837322 0.341331 0)
(-0.0328678 0.234481 0)
(-0.0301726 0.243773 0)
(-0.00865785 0.27007 0)
(0.0174354 0.230909 0)
(0.0364148 0.244573 0)
(0.0737972 0.278469 0)
(0.124444 0.284582 0)
(0.191826 0.30882 0)
(0.287207 0.378197 0)
(0.423226 0.517042 0)
(0.595824 0.699988 0)
(0.780578 0.900229 0)
(0.928311 1.14322 0)
(0.970106 1.41961 0)
(0.875638 1.56948 0)
(0.588558 1.3147 0)
(0.168796 1.05299 0)
(-0.26614 1.12727 0)
(-0.597013 1.29404 0)
(-0.811771 1.44183 0)
(-0.940371 1.4928 0)
(-0.923659 1.23378 0)
(-0.833611 0.891502 0)
(-0.689856 0.617275 0)
(-0.53189 0.518733 0)
(-0.384656 0.489474 0)
(-0.270231 0.470481 0)
(-0.168219 0.445043 0)
(-0.0677474 0.394072 0)
(0.00233933 0.297206 0)
(0.0162063 0.236515 0)
(-0.00269517 0.264725 0)
(0.00383433 0.26731 0)
(-0.0140531 0.279224 0)
(-0.0195443 0.264544 0)
(-0.00632955 0.267533 0)
(0.0242291 0.261482 0)
(0.0634315 0.264186 0)
(0.12305 0.299583 0)
(0.221401 0.390863 0)
(0.373502 0.527584 0)
(0.565379 0.709809 0)
(0.729943 1.0054 0)
(0.758168 1.41682 0)
(0.603717 1.61109 0)
(0.373255 1.55002 0)
(0.0222383 1.39109 0)
(-0.335244 1.37686 0)
(-0.567975 1.42941 0)
(-0.689111 1.47687 0)
(-0.709761 1.43806 0)
(-0.654308 1.11225 0)
(-0.5772 0.744503 0)
(-0.456442 0.463156 0)
(-0.3451 0.39841 0)
(-0.235322 0.403026 0)
(-0.148258 0.403809 0)
(-0.0700888 0.38306 0)
(-0.0022958 0.343279 0)
(0.0349232 0.284837 0)
(0.0295483 0.253192 0)
(0.00926315 0.273825 0)
(0.0127713 0.273878 0)
(-0.0150991 0.317196 0)
(-0.0344978 0.285309 0)
(-0.0368524 0.269997 0)
(-0.0254068 0.252189 0)
(-0.00598783 0.240828 0)
(0.0271705 0.252122 0)
(0.0866255 0.301771 0)
(0.192029 0.384667 0)
(0.338921 0.525938 0)
(0.473831 0.875776 0)
(0.502478 1.46985 0)
(0.329427 1.75627 0)
(0.118305 1.74806 0)
(-0.11405 1.63719 0)
(-0.353599 1.59163 0)
(-0.515256 1.55275 0)
(-0.583766 1.49479 0)
(-0.52236 1.35534 0)
(-0.425361 0.987996 0)
(-0.333091 0.598891 0)
(-0.235039 0.337478 0)
(-0.173742 0.309338 0)
(-0.112612 0.339464 0)
(-0.0587972 0.354333 0)
(-0.0103894 0.342754 0)
(0.0234419 0.317682 0)
(0.0364711 0.284943 0)
(0.025908 0.269775 0)
(0.0107706 0.279657 0)
(0.00844218 0.283686 0)
(-0.0260293 0.378968 0)
(-0.0615273 0.31779 0)
(-0.0687997 0.275984 0)
(-0.0605666 0.243554 0)
(-0.0433707 0.224114 0)
(-0.0212465 0.22481 0)
(0.0108083 0.251638 0)
(0.0601802 0.295637 0)
(0.130995 0.38329 0)
(0.220392 0.770162 0)
(0.243988 1.44163 0)
(0.133534 1.88322 0)
(-0.0370136 1.90637 0)
(-0.208488 1.83167 0)
(-0.399028 1.76563 0)
(-0.527134 1.64732 0)
(-0.533343 1.47247 0)
(-0.3943 1.23251 0)
(-0.247749 0.904119 0)
(-0.101995 0.458057 0)
(-0.0442607 0.264001 0)
(-0.0329244 0.268516 0)
(-0.0190378 0.305771 0)
(0.00104467 0.325025 0)
(0.0215254 0.321055 0)
(0.0326621 0.308516 0)
(0.0325411 0.289985 0)
(0.0215214 0.282545 0)
(0.0100872 0.284632 0)
(0.00436871 0.290068 0)
(-0.0665512 0.497686 0)
(-0.1262 0.341033 0)
(-0.110724 0.274174 0)
(-0.0931159 0.227701 0)
(-0.069822 0.201726 0)
(-0.0471764 0.203297 0)
(-0.0317334 0.233719 0)
(-0.0287536 0.273629 0)
(-0.030552 0.324129 0)
(0.012958 0.681204 0)
(0.0653902 1.45918 0)
(0.00956988 1.99054 0)
(-0.112888 2.05282 0)
(-0.255969 1.99153 0)
(-0.427376 1.90934 0)
(-0.514492 1.70277 0)
(-0.449145 1.36739 0)
(-0.253001 1.05119 0)
(-0.0478355 0.718788 0)
(0.0794544 0.36146 0)
(0.0854691 0.257609 0)
(0.0614026 0.27379 0)
(0.0445437 0.300241 0)
(0.0413398 0.315198 0)
(0.0425378 0.315009 0)
(0.0400477 0.309216 0)
(0.0331475 0.297976 0)
(0.0215957 0.29409 0)
(0.0106706 0.292267 0)
(0.00302351 0.297812 0)
(-0.0651415 0.559437 0)
(-0.173841 0.380208 0)
(-0.148673 0.254127 0)
(-0.122249 0.200919 0)
(-0.0878494 0.177253 0)
(-0.057251 0.185716 0)
(-0.0485636 0.236979 0)
(-0.0849069 0.310303 0)
(-0.14785 0.35888 0)
(-0.163169 0.636017 0)
(-0.103511 1.52247 0)
(-0.0929639 2.08105 0)
(-0.152524 2.19829 0)
(-0.229353 2.15922 0)
(-0.341745 2.06361 0)
(-0.389267 1.71267 0)
(-0.31283 1.28291 0)
(-0.0889306 0.912793 0)
(0.111053 0.574496 0)
(0.175129 0.350736 0)
(0.151466 0.294938 0)
(0.11203 0.300671 0)
(0.0837735 0.311292 0)
(0.0687003 0.319278 0)
(0.0587869 0.320214 0)
(0.0483742 0.317988 0)
(0.0370209 0.31058 0)
(0.023827 0.307772 0)
(0.0118487 0.303539 0)
(0.00300588 0.307216 0)
(-0.0125076 0.658568 0)
(-0.0805817 0.354294 0)
(-0.151121 0.259624 0)
(-0.117186 0.171016 0)
(-0.0848166 0.152162 0)
(-0.0432036 0.180495 0)
(-0.0321996 0.271527 0)
(-0.0970138 0.393934 0)
(-0.220301 0.477558 0)
(-0.313014 0.717468 0)
(-0.332373 1.52239 0)
(-0.253624 2.18032 0)
(-0.187004 2.24775 0)
(-0.152912 2.21845 0)
(-0.138644 2.1375 0)
(-0.123586 1.80369 0)
(-0.0844619 1.17723 0)
(0.065316 0.755546 0)
(0.192882 0.513563 0)
(0.213864 0.387035 0)
(0.177157 0.344863 0)
(0.133924 0.332388 0)
(0.104989 0.329385 0)
(0.0857798 0.331659 0)
(0.0705809 0.33326 0)
(0.0556267 0.333112 0)
(0.0410479 0.32762 0)
(0.0263783 0.324702 0)
(0.0133316 0.31796 0)
(0.00340166 0.318506 0)
(0.0375845 0.572482 0)
(0.0152454 0.469006 0)
(-0.00227955 0.250692 0)
(-0.049613 0.186097 0)
(-0.0241349 0.136214 0)
(0.0151138 0.186225 0)
(0.0159913 0.345158 0)
(-0.0628095 0.519998 0)
(-0.252157 0.614544 0)
(-0.499391 0.853349 0)
(-0.624187 1.55989 0)
(-0.473024 2.11939 0)
(-0.256016 2.27512 0)
(-0.0937165 2.2544 0)
(0.0782921 2.15898 0)
(0.18824 1.83649 0)
(0.153237 1.22734 0)
(0.13766 0.718115 0)
(0.215261 0.506736 0)
(0.223739 0.428813 0)
(0.183131 0.392385 0)
(0.141279 0.364839 0)
(0.114077 0.349066 0)
(0.0953161 0.347463 0)
(0.0783557 0.350637 0)
(0.0606435 0.352583 0)
(0.0430991 0.348175 0)
(0.0270964 0.343907 0)
(0.0134259 0.334865 0)
(0.0032282 0.331632 0)
(0.0362804 0.521818 0)
(0.0984512 0.405183 0)
(0.126996 0.286128 0)
(0.116606 0.207521 0)
(0.116143 0.143868 0)
(0.123498 0.158955 0)
(0.153745 0.326962 0)
(0.0855375 0.594368 0)
(-0.192154 0.812242 0)
(-0.554004 1.08711 0)
(-0.709996 1.50399 0)
(-0.57559 1.92445 0)
(-0.281238 2.07613 0)
(-0.0216321 2.06632 0)
(0.238721 1.97362 0)
(0.395132 1.82332 0)
(0.35996 1.37799 0)
(0.205166 0.794919 0)
(0.229504 0.497047 0)
(0.239238 0.459493 0)
(0.193065 0.443275 0)
(0.142345 0.407195 0)
(0.113226 0.369189 0)
(0.101193 0.363461 0)
(0.0851779 0.370628 0)
(0.0642567 0.375879 0)
(0.0425285 0.372481 0)
(0.0238579 0.364845 0)
(0.00991614 0.352701 0)
(0.00174737 0.344361 0)
(0.0456292 0.445878 0)
(0.111038 0.351936 0)
(0.141074 0.26338 0)
(0.145857 0.221581 0)
(0.136437 0.171556 0)
(0.149111 0.146507 0)
(0.141335 0.341132 0)
(0.143449 0.707031 0)
(-0.021339 1.03781 0)
(-0.283877 1.279 0)
(-0.461036 1.51831 0)
(-0.41829 1.69601 0)
(-0.207147 1.82487 0)
(0.0593032 1.82944 0)
(0.307095 1.77638 0)
(0.509478 1.70552 0)
(0.616041 1.45791 0)
(0.516891 0.873006 0)
(0.354758 0.581046 0)
(0.318592 0.528796 0)
(0.238438 0.534901 0)
(0.141037 0.473151 0)
(0.0936931 0.373198 0)
(0.106119 0.371374 0)
(0.0966303 0.393131 0)
(0.0698249 0.405251 0)
(0.0398019 0.403256 0)
(0.0145264 0.390283 0)
(0.000294366 0.36839 0)
(-0.00196212 0.35191 0)
(0.0375962 0.388376 0)
(0.0887529 0.32858 0)
(0.0962961 0.261554 0)
(0.083463 0.221551 0)
(0.0563397 0.180266 0)
(0.0334103 0.14579 0)
(0.0331911 0.259146 0)
(0.0933096 0.635257 0)
(0.0969664 1.07257 0)
(0.00870133 1.30419 0)
(-0.0741477 1.48431 0)
(-0.102073 1.5439 0)
(-0.0269663 1.57344 0)
(0.164998 1.5284 0)
(0.428709 1.54829 0)
(0.709233 1.47414 0)
(0.980195 1.33365 0)
(1.05227 1.05801 0)
(0.869334 0.712453 0)
(0.647192 0.613355 0)
(0.465899 0.615454 0)
(0.260726 0.609397 0)
(0.108217 0.451373 0)
(0.13556 0.364882 0)
(0.128103 0.418507 0)
(0.0862488 0.443097 0)
(0.038538 0.443148 0)
(-0.00583161 0.422942 0)
(-0.023174 0.374308 0)
(-0.0100179 0.344801 0)
(0.0204366 0.34327 0)
(0.0533786 0.310571 0)
(0.0486063 0.26712 0)
(0.0251051 0.239123 0)
(-0.0116907 0.2109 0)
(-0.0533042 0.17681 0)
(-0.0629663 0.217724 0)
(0.00529586 0.590399 0)
(0.122568 1.05809 0)
(0.131831 1.31338 0)
(0.118165 1.42916 0)
(0.117532 1.47529 0)
(0.163196 1.40852 0)
(0.307897 1.27256 0)
(0.560098 1.1616 0)
(0.913698 1.13587 0)
(1.22331 1.05175 0)
(1.42457 1.01181 0)
(1.41517 0.941938 0)
(1.24218 0.839977 0)
(1.03049 0.840699 0)
(0.803969 0.849768 0)
(0.537642 0.587646 0)
(0.283389 0.499237 0)
(0.229001 0.523811 0)
(0.131605 0.54668 0)
(0.0483254 0.538542 0)
(-0.0500784 0.495942 0)
(-0.0833229 0.360786 0)
(-0.0289758 0.306398 0)
(0.00551953 0.308945 0)
(0.021554 0.293313 0)
(0.0108345 0.273117 0)
(-0.0149088 0.260924 0)
(-0.0533568 0.248607 0)
(-0.100285 0.2269 0)
(-0.124229 0.2231 0)
(-0.0922744 0.464194 0)
(0.0700898 0.954868 0)
(0.150537 1.29434 0)
(0.161057 1.40087 0)
(0.174965 1.39941 0)
(0.246139 1.26547 0)
(0.406777 1.05035 0)
(0.639127 0.874367 0)
(0.961553 0.834922 0)
(1.21348 0.824794 0)
(1.37725 0.883596 0)
(1.43433 0.905738 0)
(1.40657 0.899365 0)
(1.3702 0.926659 0)
(1.35377 1.02717 0)
(1.2107 0.961264 0)
(0.893494 0.679349 0)
(0.601456 0.558965 0)
(0.350988 0.524936 0)
(0.130268 0.516467 0)
(-0.0732247 0.502851 0)
(-0.13375 0.369257 0)
(-0.0507522 0.240496 0)
(-0.00012755 0.288813 0)
(-0.000159517 0.28269 0)
(-0.0156898 0.280526 0)
(-0.0425243 0.28345 0)
(-0.0806666 0.286418 0)
(-0.126665 0.280284 0)
(-0.160209 0.271402 0)
(-0.166998 0.383912 0)
(-0.0285094 0.866806 0)
(0.112807 1.24351 0)
(0.153282 1.38374 0)
(0.171849 1.36661 0)
(0.255874 1.15903 0)
(0.419144 0.875663 0)
(0.650259 0.70854 0)
(0.857511 0.630312 0)
(1.02544 0.67896 0)
(1.13198 0.766475 0)
(1.21678 0.827716 0)
(1.28627 0.840594 0)
(1.38168 0.875609 0)
(1.46955 0.981245 0)
(1.4847 1.04006 0)
(1.3314 0.993814 0)
(0.981426 0.869023 0)
(0.652274 0.828737 0)
(0.350484 0.790565 0)
(0.0663285 0.69993 0)
(-0.158893 0.293328 0)
(-0.119389 0.16553 0)
(-0.00334961 0.280721 0)
(-0.0163878 0.283932 0)
(-0.0388699 0.294455 0)
(-0.0697361 0.309156 0)
(-0.108851 0.324303 0)
(-0.157353 0.334481 0)
(-0.195456 0.339228 0)
(-0.211123 0.373643 0)
(-0.151603 0.718921 0)
(0.0268304 1.13898 0)
(0.110398 1.35158 0)
(0.159332 1.3356 0)
(0.240467 1.06064 0)
(0.406279 0.771495 0)
(0.576118 0.567223 0)
(0.712336 0.523996 0)
(0.806323 0.582251 0)
(0.884706 0.676605 0)
(0.975454 0.732619 0)
(1.09184 0.743634 0)
(1.21801 0.780249 0)
(1.29844 0.875707 0)
(1.33756 0.987061 0)
(1.22033 1.01498 0)
(0.978551 1.00637 0)
(0.723087 0.954375 0)
(0.495505 0.914771 0)
(0.288093 0.840149 0)
(0.0259274 0.518527 0)
(-0.0309027 -0.0351259 0)
(-0.00753121 0.286581 0)
(-0.0304833 0.298863 0)
(-0.0620887 0.319379 0)
(-0.100485 0.34271 0)
(-0.144757 0.366848 0)
(-0.19707 0.388501 0)
(-0.248056 0.407237 0)
(-0.2499 0.433951 0)
(-0.257073 0.633548 0)
(-0.0806009 1.07597 0)
(0.0573126 1.28548 0)
(0.135465 1.28827 0)
(0.240106 1.03272 0)
(0.3712 0.661814 0)
(0.493737 0.49225 0)
(0.571742 0.467088 0)
(0.609748 0.514324 0)
(0.66764 0.590854 0)
(0.767483 0.619142 0)
(0.917545 0.6383 0)
(1.01953 0.683192 0)
(1.05392 0.772544 0)
(1.01179 0.884462 0)
(0.938769 1.04554 0)
(0.788854 1.11841 0)
(0.633229 1.11179 0)
(0.471776 1.08279 0)
(0.307433 0.988921 0)
(0.142671 0.608876 0)
(0.0459127 0.0933001 0)
(-0.0106701 0.309696 0)
(-0.0409491 0.331274 0)
(-0.0836536 0.361718 0)
(-0.133184 0.387604 0)
(-0.185463 0.418126 0)
(-0.244096 0.447053 0)
(-0.305392 0.473887 0)
(-0.332211 0.509194 0)
(-0.309648 0.62237 0)
(-0.212535 0.940463 0)
(-0.0166889 1.25493 0)
(0.112205 1.29432 0)
(0.229343 0.957797 0)
(0.330328 0.610654 0)
(0.386512 0.456634 0)
(0.410171 0.432779 0)
(0.421748 0.469352 0)
(0.478065 0.50751 0)
(0.594282 0.506834 0)
(0.728467 0.519531 0)
(0.793426 0.578959 0)
(0.830402 0.735324 0)
(0.739785 0.862143 0)
(0.681093 1.07268 0)
(0.612589 1.21388 0)
(0.508915 1.23881 0)
(0.392113 1.22722 0)
(0.259405 1.13672 0)
(0.132117 0.7392 0)
(0.0474776 0.145376 0)
(-0.00994094 0.347327 0)
(-0.0418125 0.386433 0)
(-0.102628 0.438251 0)
(-0.170551 0.450592 0)
(-0.230691 0.480889 0)
(-0.297837 0.513741 0)
(-0.363552 0.542019 0)
(-0.410621 0.576099 0)
(-0.378287 0.651497 0)
(-0.315985 0.869538 0)
(-0.145756 1.13559 0)
(0.0526751 1.20165 0)
(0.193457 0.894626 0)
(0.258545 0.601315 0)
(0.265627 0.458678 0)
(0.250565 0.428666 0)
(0.250866 0.439567 0)
(0.30766 0.426961 0)
(0.412734 0.394801 0)
(0.499413 0.397363 0)
(0.544211 0.495227 0)
(0.511394 0.638846 0)
(0.477988 0.848016 0)
(0.457889 1.08033 0)
(0.452155 1.26301 0)
(0.390716 1.32797 0)
(0.301186 1.328 0)
(0.204172 1.24621 0)
(0.12272 0.829753 0)
(0.0597975 0.248424 0)
(0.0047048 0.38148 0)
(-0.0123745 0.439468 0)
(-0.122641 0.544683 0)
(-0.236267 0.523013 0)
(-0.293166 0.554702 0)
(-0.36607 0.588415 0)
(-0.433496 0.609285 0)
(-0.480281 0.63062 0)
(-0.471571 0.676819 0)
(-0.38166 0.845795 0)
(-0.251324 1.04206 0)
(-0.0419138 1.08809 0)
(0.104896 0.838809 0)
(0.151597 0.610986 0)
(0.135221 0.48242 0)
(0.109232 0.442026 0)
(0.111807 0.416912 0)
(0.158155 0.364286 0)
(0.220557 0.305617 0)
(0.260146 0.304671 0)
(0.298183 0.442176 0)
(0.267496 0.611104 0)
(0.253811 0.832746 0)
(0.260613 1.06149 0)
(0.28357 1.26838 0)
(0.274715 1.38651 0)
(0.219428 1.40433 0)
(0.162422 1.32204 0)
(0.120426 0.884086 0)
(0.0689104 0.346442 0)
(0.00248017 0.364781 0)
(0.0379376 0.575139 0)
(-0.12436 0.778732 0)
(-0.317562 0.614223 0)
(-0.41325 0.621573 0)
(-0.46958 0.656373 0)
(-0.516404 0.660979 0)
(-0.542091 0.659583 0)
(-0.52972 0.682603 0)
(-0.452258 0.797475 0)
(-0.325496 0.961917 0)
(-0.141598 0.973392 0)
(-0.0113772 0.783091 0)
(0.0278176 0.617277 0)
(0.0135493 0.509116 0)
(-0.00489781 0.454907 0)
(-0.0014897 0.402318 0)
(0.0172854 0.329788 0)
(0.0284092 0.259149 0)
(0.0255553 0.249457 0)
(0.0480281 0.37633 0)
(0.0870433 0.626894 0)
(0.0845323 0.81959 0)
(0.0986134 1.04346 0)
(0.120569 1.2509 0)
(0.142549 1.4 0)
(0.146154 1.44507 0)
(0.13789 1.35976 0)
(0.134175 0.924521 0)
(0.0731651 0.452931 0)
(0.039067 0.39715 0)
(0.153712 0.510682 0)
(0.10942 0.967859 0)
(-0.285326 0.840806 0)
(-0.529072 0.71086 0)
(-0.573122 0.685522 0)
(-0.585265 0.675968 0)
(-0.58088 0.654373 0)
(-0.550213 0.660084 0)
(-0.481064 0.743967 0)
(-0.370827 0.864447 0)
(-0.219577 0.859088 0)
(-0.121876 0.725122 0)
(-0.0828893 0.611652 0)
(-0.0837036 0.524355 0)
(-0.0922612 0.462306 0)
(-0.0960252 0.399471 0)
(-0.104232 0.326608 0)
(-0.126565 0.25986 0)
(-0.154113 0.238363 0)
(-0.154002 0.320002 0)
(-0.0948868 0.560871 0)
(-0.0603608 0.792479 0)
(-0.0438127 1.02735 0)
(-0.0221566 1.23331 0)
(0.0200457 1.37892 0)
(0.0707694 1.42794 0)
(0.11204 1.35635 0)
(0.139865 0.952781 0)
(0.0736374 0.568005 0)
(0.0640899 0.228191 0)
(0.174607 0.460613 0)
(0.314236 1.077 0)
(0.100135 1.22009 0)
(-0.449463 0.869458 0)
(-0.613367 0.6941 0)
(-0.600415 0.652822 0)
(-0.581141 0.624692 0)
(-0.542335 0.617991 0)
(-0.477163 0.68278 0)
(-0.381536 0.761882 0)
(-0.268967 0.757054 0)
(-0.197977 0.668816 0)
(-0.161364 0.594542 0)
(-0.153195 0.527126 0)
(-0.158236 0.467985 0)
(-0.170589 0.4086 0)
(-0.193802 0.345813 0)
(-0.22924 0.288076 0)
(-0.265856 0.258626 0)
(-0.282992 0.303314 0)
(-0.244468 0.498844 0)
(-0.18017 0.812343 0)
(-0.150643 1.01733 0)
(-0.11576 1.20865 0)
(-0.0734868 1.33867 0)
(0.000100587 1.38183 0)
(0.0697964 1.32358 0)
(0.120671 0.969663 0)
(0.0637989 0.674378 0)
(0.0246132 0.224787 0)
(0.101307 0.275183 0)
(0.317736 0.875163 0)
(0.409612 1.54317 0)
(-0.0844095 1.28468 0)
(-0.531467 0.753363 0)
(-0.595326 0.627794 0)
(-0.566785 0.590264 0)
(-0.523191 0.570137 0)
(-0.458338 0.618305 0)
(-0.37202 0.674304 0)
(-0.292704 0.671786 0)
(-0.237395 0.619973 0)
(-0.207875 0.573593 0)
(-0.199514 0.524367 0)
(-0.205796 0.475543 0)
(-0.223775 0.42581 0)
(-0.253089 0.375205 0)
(-0.292936 0.326898 0)
(-0.33527 0.294059 0)
(-0.364698 0.314156 0)
(-0.35425 0.455127 0)
(-0.284699 0.745882 0)
(-0.222351 0.980533 0)
(-0.181607 1.1853 0)
(-0.139421 1.29892 0)
(-0.0674871 1.32379 0)
(0.0155643 1.2754 0)
(0.0659882 0.956138 0)
(0.0276445 0.754906 0)
(0.0176243 0.171581 0)
(0.0482609 0.148359 0)
(0.185906 0.60239 0)
(0.380612 1.46163 0)
(0.23199 1.6677 0)
(-0.235983 1.01635 0)
(-0.540232 0.644846 0)
(-0.540015 0.555487 0)
(-0.491127 0.516799 0)
(-0.424503 0.552759 0)
(-0.348262 0.600215 0)
(-0.294827 0.604521 0)
(-0.252239 0.581146 0)
(-0.231652 0.555083 0)
(-0.228063 0.522078 0)
(-0.237773 0.48588 0)
(-0.259474 0.447435 0)
(-0.29226 0.408155 0)
(-0.335161 0.369403 0)
(-0.382544 0.33805 0)
(-0.421695 0.342127 0)
(-0.428476 0.43982 0)
(-0.372486 0.677719 0)
(-0.280899 0.983041 0)
(-0.220919 1.14226 0)
(-0.185899 1.2551 0)
(-0.127353 1.26373 0)
(-0.0751756 1.2153 0)
(-0.0397894 1.00359 0)
(-0.00495522 0.762654 0)
(0.0115171 0.146411 0)
(0.012986 0.0936902 0)
(0.0750924 0.410663 0)
(0.212965 1.34375 0)
(0.254808 1.71087 0)
(0.0130289 1.38536 0)
(-0.366565 0.776635 0)
(-0.486406 0.526725 0)
(-0.443645 0.463169 0)
(-0.377642 0.483908 0)
(-0.315668 0.542951 0)
(-0.278902 0.555561 0)
(-0.248921 0.554582 0)
(-0.23946 0.543151 0)
(-0.242098 0.523564 0)
(-0.256211 0.499066 0)
(-0.281023 0.47179 0)
(-0.316407 0.443448 0)
(-0.362201 0.414904 0)
(-0.414564 0.389386 0)
(-0.464374 0.384166 0)
(-0.483753 0.444013 0)
(-0.447023 0.614568 0)
(-0.341305 0.892685 0)
(-0.239856 1.15718 0)
(-0.189318 1.24013 0)
(-0.164899 1.22737 0)
(-0.173066 1.2721 0)
(-0.0999554 0.933771 0)
(-0.0447101 0.747151 0)
(0.0022224 0.133979 0)
(-0.0141742 0.0802722 0)
(-0.00223662 0.300973 0)
(0.0641897 1.25601 0)
(0.119302 1.6856 0)
(0.04654 1.52987 0)
(-0.17447 1.01127 0)
(-0.308739 0.52032 0)
(-0.360957 0.399243 0)
(-0.312467 0.430004 0)
(-0.271306 0.494241 0)
(-0.245228 0.52447 0)
(-0.232511 0.538999 0)
(-0.233133 0.538492 0)
(-0.24184 0.529716 0)
(-0.259382 0.515572 0)
(-0.285823 0.499034 0)
(-0.32191 0.481816 0)
(-0.368449 0.464878 0)
(-0.42403 0.449682 0)
(-0.482212 0.443793 0)
(-0.515834 0.470618 0)
(-0.490969 0.571463 0)
(-0.393097 0.793409 0)
(-0.262172 1.07079 0)
(-0.171166 1.24265 0)
(-0.156613 1.30095 0)
(-0.15369 1.26309 0)
(-0.107366 0.897997 0)
(-0.0853532 0.670857 0)
(-0.0074674 0.13507 0)
(-0.0325956 0.0931309 0)
(-0.0554184 0.268191 0)
(-0.0481808 1.20751 0)
(-0.0196284 1.66405 0)
(-0.0337433 1.55795 0)
(-0.0588336 1.04605 0)
(-0.14256 0.606652 0)
(-0.19745 0.384982 0)
(-0.218875 0.394511 0)
(-0.206221 0.465128 0)
(-0.197554 0.510609 0)
(-0.199179 0.534553 0)
(-0.205285 0.542063 0)
(-0.215936 0.541951 0)
(-0.232661 0.537068 0)
(-0.256635 0.530629 0)
(-0.288749 0.524231 0)
(-0.329708 0.519007 0)
(-0.380048 0.516274 0)
(-0.435902 0.51787 0)
(-0.48001 0.531703 0)
(-0.479037 0.576034 0)
(-0.402136 0.716483 0)
(-0.259213 0.972111 0)
(-0.135419 1.19073 0)
(-0.0587546 1.2874 0)
(-0.00344382 1.26012 0)
(0.0024452 0.917237 0)
(-0.0381684 0.627967 0)
(-0.0144421 0.144882 0)
(-0.042891 0.123722 0)
(-0.0872465 0.303463 0)
(-0.141303 1.18804 0)
(-0.141389 1.66288 0)
(-0.108922 1.53271 0)
(-0.0165093 1.06741 0)
(0.0142263 0.617969 0)
(-0.0245152 0.411396 0)
(-0.0821899 0.401364 0)
(-0.110485 0.467343 0)
(-0.122044 0.51691 0)
(-0.130992 0.54235 0)
(-0.140045 0.553966 0)
(-0.152275 0.559608 0)
(-0.169178 0.561904 0)
(-0.191432 0.563324 0)
(-0.219109 0.565024 0)
(-0.252184 0.568286 0)
(-0.290666 0.574449 0)
(-0.334314 0.584918 0)
(-0.377528 0.598938 0)
(-0.392087 0.616765 0)
(-0.361287 0.694714 0)
(-0.252867 0.896469 0)
(-0.0889646 1.11766 0)
(0.0532545 1.23356 0)
(0.16677 1.24626 0)
(0.142282 1.02513 0)
(0.0352349 0.67538 0)
(-0.0130764 0.158187 0)
(-0.0539138 0.166326 0)
(-0.111512 0.393398 0)
(-0.239436 1.27838 0)
(-0.229831 1.66751 0)
(-0.134031 1.43338 0)
(0.0249504 0.942492 0)
(0.123085 0.596517 0)
(0.106841 0.462656 0)
(0.0469653 0.454975 0)
(-0.00236715 0.500209 0)
(-0.032636 0.538682 0)
(-0.0532107 0.561689 0)
(-0.0709966 0.576388 0)
(-0.089611 0.58635 0)
(-0.110263 0.593438 0)
(-0.133413 0.599419 0)
(-0.159084 0.605559 0)
(-0.187173 0.613201 0)
(-0.217483 0.623567 0)
(-0.250002 0.638199 0)
(-0.285984 0.659858 0)
(-0.322861 0.690808 0)
(-0.324574 0.734406 0)
(-0.258556 0.846958 0)
(-0.113408 1.04409 0)
(0.0848645 1.14546 0)
(0.229616 1.20311 0)
(0.207086 1.15663 0)
(0.0826793 0.773358 0)
(-0.0162787 0.184801 0)
(-0.0825969 0.227771 0)
(-0.185215 0.553957 0)
(-0.355339 1.32646 0)
(-0.28324 1.61314 0)
(-0.0955832 1.34625 0)
(0.0998364 0.814459 0)
(0.190613 0.587922 0)
(0.176801 0.524743 0)
(0.123898 0.526667 0)
(0.0706535 0.553452 0)
(0.0313941 0.579177 0)
(0.00246335 0.59716 0)
(-0.0220855 0.610163 0)
(-0.0451286 0.619805 0)
(-0.0680306 0.627564 0)
(-0.091442 0.634667 0)
(-0.115581 0.642167 0)
(-0.14043 0.651127 0)
(-0.165952 0.662546 0)
(-0.192401 0.677838 0)
(-0.220442 0.699724 0)
(-0.250653 0.733763 0)
(-0.276278 0.788651 0)
(-0.257533 0.86641 0)
(-0.155801 0.964656 0)
(0.0220517 1.05278 0)
(0.183925 1.14155 0)
(0.188559 1.2653 0)
(0.0997831 0.914269 0)
(-0.0298939 0.249307 0)
(-0.148059 0.357184 0)
(-0.349031 0.782714 0)
(-0.458965 1.37311 0)
(-0.291689 1.55431 0)
(0.0157275 1.13349 0)
(0.202584 0.738022 0)
(0.235857 0.616685 0)
(0.212189 0.601485 0)
(0.161313 0.602801 0)
(0.111415 0.61213 0)
(0.0719863 0.623615 0)
(0.0404427 0.633818 0)
(0.013344 0.642768 0)
(-0.0114047 0.650575 0)
(-0.0351465 0.657758 0)
(-0.0585879 0.664837 0)
(-0.0819541 0.67243 0)
(-0.105204 0.681273 0)
(-0.128368 0.692314 0)
(-0.15166 0.707029 0)
(-0.175035 0.72797 0)
(-0.197176 0.759157 0)
(-0.213298 0.805764 0)
(-0.210454 0.870605 0)
(-0.160698 0.937345 0)
(-0.0522508 0.972661 0)
(0.0682384 1.0732 0)
(0.126055 1.32178 0)
(0.0876054 1.04151 0)
(-0.0676753 0.364051 0)
(-0.252769 0.594278 0)
(-0.476194 0.958023 0)
(-0.452363 1.33946 0)
(-0.149964 1.32339 0)
(0.16893 0.949283 0)
(0.275649 0.743908 0)
(0.275906 0.692496 0)
(0.23127 0.673522 0)
(0.180242 0.662937 0)
(0.136485 0.660076 0)
(0.100318 0.662066 0)
(0.06976 0.666512 0)
(0.0427689 0.672224 0)
(0.0176876 0.678515 0)
(-0.00663487 0.685127 0)
(-0.0307353 0.691961 0)
(-0.0545806 0.699143 0)
(-0.0778727 0.707196 0)
(-0.100452 0.717132 0)
(-0.122238 0.730432 0)
(-0.142671 0.749221 0)
(-0.159802 0.776061 0)
(-0.169604 0.812813 0)
(-0.165599 0.857788 0)
(-0.139832 0.903607 0)
(-0.089524 0.936507 0)
(-0.0273642 1.02174 0)
(0.0505314 1.30859 0)
(0.0646473 1.14493 0)
(-0.169672 0.590675 0)
(-0.355153 0.849618 0)
(-0.4677 1.05143 0)
(-0.285236 1.19418 0)
(0.0623146 1.07766 0)
(0.25896 0.897341 0)
(0.309155 0.807625 0)
(0.280518 0.759248 0)
(0.23345 0.728425 0)
(0.190798 0.709121 0)
(0.154443 0.698743 0)
(0.123201 0.694954 0)
(0.0955733 0.695732 0)
(0.0699511 0.699532 0)
(0.044906 0.705225 0)
(0.0195576 0.711916 0)
(-0.00633099 0.718899 0)
(-0.0322585 0.725641 0)
(-0.0573411 0.732449 0)
(-0.0808773 0.740489 0)
(-0.10232 0.751374 0)
(-0.120921 0.766894 0)
(-0.135138 0.788621 0)
(-0.142484 0.817091 0)
(-0.140481 0.849747 0)
(-0.12791 0.880668 0)
(-0.105372 0.910277 0)
(-0.0732684 1.00248 0)
(-0.00522336 1.25482 0)
(0.0394176 1.21052 0)
(-0.161025 0.869449 0)
(-0.324286 0.956426 0)
(-0.258272 0.972448 0)
(-0.011328 1.0043 0)
(0.183783 0.99337 0)
(0.284511 0.92153 0)
(0.290156 0.855853 0)
(0.260765 0.805455 0)
(0.227337 0.769158 0)
(0.196616 0.744389 0)
(0.169151 0.729407 0)
(0.144302 0.722359 0)
(0.1208 0.721473 0)
(0.0971925 0.725123 0)
(0.0722269 0.731696 0)
(0.0452901 0.739685 0)
(0.0162168 0.747833 0)
(-0.0140944 0.754612 0)
(-0.0436306 0.759912 0)
(-0.0702199 0.764921 0)
(-0.092518 0.77186 0)
(-0.110074 0.782739 0)
(-0.122322 0.798822 0)
(-0.128617 0.820522 0)
(-0.129033 0.845895 0)
(-0.124664 0.87085 0)
(-0.115454 0.899624 0)
(-0.0883841 0.987831 0)
(-0.0349149 1.19751 0)
(0.0173986 1.24005 0)
(-0.10964 1.07335 0)
(-0.133026 0.953697 0)
(0.00533737 0.864026 0)
(0.132327 0.939514 0)
(0.224349 0.96506 0)