# vtk DataFile Version 2.0
cavity_merged
ASCII
DATASET UNSTRUCTURED_GRID
POINTS 882 float
0 0 0 0.005 0 0 0.01 0 0 0.015 0
0 0.02 0 0 0.025 0 0 0.03 0 0
0.035 0 0 0.04 0 0 0.045 0 0 0.05
0 0 0.055 0 0 0.06 0 0 0.065 0
0 0.07 0 0 0.075 0 0 0.08 0 0
0.085 0 0 0.09 0 0 0.095 0 0 0.1
0 0 0 0.005 0 0.005 0.005 0 0.01 0.005
0 0.015 0.005 0 0.02 0.005 0 0.025 0.005 0
0.03 0.005 0 0.035 0.005 0 0.04 0.005 0 0.045
0.005 0 0.05 0.005 0 0.055 0.005 0 0.06 0.005
0 0.065 0.005 0 0.07 0.005 0 0.075 0.005 0
0.08 0.005 0 0.085 0.005 0 0.09 0.005 0 0.095
0.005 0 0.1 0.005 0 0 0.01 0 0.005 0.01
0 0.01 0.01 0 0.015 0.01 0 0.02 0.01 0
0.025 0.01 0 0.03 0.01 0 0.035 0.01 0 0.04
0.01 0 0.045 0.01 0 0.05 0.01 0 0.055 0.01
0 0.06 0.01 0 0.065 0.01 0 0.07 0.01 0
0.075 0.01 0 0.08 0.01 0 0.085 0.01 0 0.09
0.01 0 0.095 0.01 0 0.1 0.01 0 0 0.015
0 0.005 0.015 0 0.01 0.015 0 0.015 0.015 0
0.02 0.015 0 0.025 0.015 0 0.03 0.015 0 0.035
0.015 0 0.04 0.015 0 0.045 0.015 0 0.05 0.015
0 0.055 0.015 0 0.06 0.015 0 0.065 0.015 0
0.07 0.015 0 0.075 0.015 0 0.08 0.015 0 0.085
0.015 0 0.09 0.015 0 0.095 0.015 0 0.1 0.015
0 0 0.02 0 0.005 0.02 0 0.01 0.02 0
0.015 0.02 0 0.02 0.02 0 0.025 0.02 0 0.03
0.02 0 0.035 0.02 0 0.04 0.02 0 0.045 0.02
0 0.05 0.02 0 0.055 0.02 0 0.06 0.02 0
0.065 0.02 0 0.07 0.02 0 0.075 0.02 0 0.08
0.02 0 0.085 0.02 0 0.09 0.02 0 0.095 0.02
0 0.1 0.02 0 0 0.025 0 0.005 0.025 0
0.01 0.025 0 0.015 0.025 0 0.02 0.025 0 0.025
0.025 0 0.03 0.025 0 0.035 0.025 0 0.04 0.025
0 0.045 0.025 0 0.05 0.025 0 0.055 0.025 0
0.06 0.025 0 0.065 0.025 0 0.07 0.025 0 0.075
0.025 0 0.08 0.025 0 0.085 0.025 0 0.09 0.025
0 0.095 0.025 0 0.1 0.025 0 0 0.03 0
0.005 0.03 0 0.01 0.03 0 0.015 0.03 0 0.02
0.03 0 0.025 0.03 0 0.03 0.03 0 0.035 0.03
0 0.04 0.03 0 0.045 0.03 0 0.05 0.03 0
0.055 0.03 0 0.06 0.03 0 0.065 0.03 0 0.07
0.03 0 0.075 0.03 0 0.08 0.03 0 0.085 0.03
0 0.09 0.03 0 0.095 0.03 0 0.1 0.03 0
0 0.035 0 0.005 0.035 0 0.01 0.035 0 0.015
0.035 0 0.02 0.035 0 0.025 0.035 0 0.03 0.035
0 0.035 0.035 0 0.04 0.035 0 0.045 0.035 0
0.05 0.035 0 0.055 0.035 0 0.06 0.035 0 0.065
0.035 0 0.07 0.035 0 0.075 0.035 0 0.08 0.035
0 0.085 0.035 0 0.09 0.035 0 0.095 0.035 0
0.1 0.035 0 0 0.04 0 0.005 0.04 0 0.01
0.04 0 0.015 0.04 0 0.02 0.04 0 0.025 0.04
0 0.03 0.04 0 0.035 0.04 0 0.04 0.04 0
0.045 0.04 0 0.05 0.04 0 0.055 0.04 0 0.06
0.04 0 0.065 0.04 0 0.07 0.04 0 0.075 0.04
0 0.08 0.04 0 0.085 0.04 0 0.09 0.04 0
0.095 0.04 0 0.1 0.04 0 0 0.045 0 0.005
0.045 0 0.01 0.045 0 0.015 0.045 0 0.02 0.045
0 0.025 0.045 0 0.03 0.045 0 0.035 0.045 0
0.04 0.045 0 0.045 0.045 0 0.05 0.045 0 0.055
0.045 0 0.06 0.045 0 0.065 0.045 0 0.07 0.045
0 0.075 0.045 0 0.08 0.045 0 0.085 0.045 0
0.09 0.045 0 0.095 0.045 0 0.1 0.045 0 0
0.05 0 0.005 0.05 0 0.01 0.05 0 0.015 0.05
0 0.02 0.05 0 0.025 0.05 0 0.03 0.05 0
0.035 0.05 0 0.04 0.05 0 0.045 0.05 0 0.05
0.05 0 0.055 0.05 0 0.06 0.05 0 0.065 0.05
0 0.07 0.05 0 0.075 0.05 0 0.08 0.05 0
0.085 0.05 0 0.09 0.05 0 0.095 0.05 0 0.1
0.05 0 0 0.055 0 0.005 0.055 0 0.01 0.055
0 0.015 0.055 0 0.02 0.055 0 0.025 0.055 0
0.03 0.055 0 0.035 0.055 0 0.04 0.055 0 0.045
0.055 0 0.05 0.055 0 0.055 0.055 0 0.06 0.055
0 0.065 0.055 0 0.07 0.055 0 0.075 0.055 0
0.08 0.055 0 0.085 0.055 0 0.09 0.055 0 0.095
0.055 0 0.1 0.055 0 0 0.06 0 0.005 0.06
0 0.01 0.06 0 0.015 0.06 0 0.02 0.06 0
0.025 0.06 0 0.03 0.06 0 0.035 0.06 0 0.04
0.06 0 0.045 0.06 0 0.05 0.06 0 0.055 0.06
0 0.06 0.06 0 0.065 0.06 0 0.07 0.06 0
0.075 0.06 0 0.08 0.06 0 0.085 0.06 0 0.09
0.06 0 0.095 0.06 0 0.1 0.06 0 0 0.065
0 0.005 0.065 0 0.01 0.065 0 0.015 0.065 0
0.02 0.065 0 0.025 0.065 0 0.03 0.065 0 0.035
0.065 0 0.04 0.065 0 0.045 0.065 0 0.05 0.065
0 0.055 0.065 0 0.06 0.065 0 0.065 0.065 0
0.07 0.065 0 0.075 0.065 0 0.08 0.065 0 0.085
0.065 0 0.09 0.065 0 0.095 0.065 0 0.1 0.065
0 0 0.07 0 0.005 0.07 0 0.01 0.07 0
0.015 0.07 0 0.02 0.07 0 0.025 0.07 0 0.03
0.07 0 0.035 0.07 0 0.04 0.07 0 0.045 0.07
0 0.05 0.07 0 0.055 0.07 0 0.06 0.07 0
0.065 0.07 0 0.07 0.07 0 0.075 0.07 0 0.08
0.07 0 0.085 0.07 0 0.09 0.07 0 0.095 0.07
0 0.1 0.07 0 0 0.075 0 0.005 0.075 0
0.01 0.075 0 0.015 0.075 0 0.02 0.075 0 0.025
0.075 0 0.03 0.075 0 0.035 0.075 0 0.04 0.075
0 0.045 0.075 0 0.05 0.075 0 0.055 0.075 0
0.06 0.075 0 0.065 0.075 0 0.07 0.075 0 0.075
0.075 0 0.08 0.075 0 0.085 0.075 0 0.09 0.075
0 0.095 0.075 0 0.1 0.075 0 0 0.08 0
0.005 0.08 0 0.01 0.08 0 0.015 0.08 0 0.02
0.08 0 0.025 0.08 0 0.03 0.08 0 0.035 0.08
0 0.04 0.08 0 0.045 0.08 0 0.05 0.08 0
0.055 0.08 0 0.06 0.08 0 0.065 0.08 0 0.07
0.08 0 0.075 0.08 0 0.08 0.08 0 0.085 0.08
0 0.09 0.08 0 0.095 0.08 0 0.1 0.08 0
0 0.085 0 0.005 0.085 0 0.01 0.085 0 0.015
0.085 0 0.02 0.085 0 0.025 0.085 0 0.03 0.085
0 0.035 0.085 0 0.04 0.085 0 0.045 0.085 0
0.05 0.085 0 0.055 0.085 0 0.06 0.085 0 0.065
0.085 0 0.07 0.085 0 0.075 0.085 0 0.08 0.085
0 0.085 0.085 0 0.09 0.085 0 0.095 0.085 0
0.1 0.085 0 0 0.09 0 0.005 0.09 0 0.01
0.09 0 0.015 0.09 0 0.02 0.09 0 0.025 0.09
0 0.03 0.09 0 0.035 0.09 0 0.04 0.09 0
0.045 0.09 0 0.05 0.09 0 0.055 0.09 0 0.06
0.09 0 0.065 0.09 0 0.07 0.09 0 0.075 0.09
0 0.08 0.09 0 0.085 0.09 0 0.09 0.09 0
0.095 0.09 0 0.1 0.09 0 0 0.095 0 0.005
0.095 0 0.01 0.095 0 0.015 0.095 0 0.02 0.095
0 0.025 0.095 0 0.03 0.095 0 0.035 0.095 0
0.04 0.095 0 0.045 0.095 0 0.05 0.095 0 0.055
0.095 0 0.06 0.095 0 0.065 0.095 0 0.07 0.095
0 0.075 0.095 0 0.08 0.095 0 0.085 0.095 0
0.09 0.095 0 0.095 0.095 0 0.1 0.095 0 0
0.1 0 0.005 0.1 0 0.01 0.1 0 0.015 0.1
0 0.02 0.1 0 0.025 0.1 0 0.03 0.1 0
0.035 0.1 0 0.04 0.1 0 0.045 0.1 0 0.05
0.1 0 0.055 0.1 0 0.06 0.1 0 0.065 0.1
0 0.07 0.1 0 0.075 0.1 0 0.08 0.1 0
0.085 0.1 0 0.09 0.1 0 0.095 0.1 0 0.1
0.1 0 0 0 0.01 0.005 0 0.01 0.01 0
0.01 0.015 0 0.01 0.02 0 0.01 0.025 0 0.01
0.03 0 0.01 0.035 0 0.01 0.04 0 0.01 0.045
0 0.01 0.05 0 0.01 0.055 0 0.01 0.06 0
0.01 0.065 0 0.01 0.07 0 0.01 0.075 0 0.01
0.08 0 0.01 0.085 0 0.01 0.09 0 0.01 0.095
0 0.01 0.1 0 0.01 0 0.005 0.01 0.005 0.005
0.01 0.01 0.005 0.01 0.015 0.005 0.01 0.02 0.005 0.01
0.025 0.005 0.01 0.03 0.005 0.01 0.035 0.005 0.01 0.04
0.005 0.01 0.045 0.005 0.01 0.05 0.005 0.01 0.055 0.005
0.01 0.06 0.005 0.01 0.065 0.005 0.01 0.07 0.005 0.01
0.075 0.005 0.01 0.08 0.005 0.01 0.085 0.005 0.01 0.09
0.005 0.01 0.095 0.005 0.01 0.1 0.005 0.01 0 0.01
0.01 0.005 0.01 0.01 0.01 0.01 0.01 0.015 0.01 0.01
0.02 0.01 0.01 0.025 0.01 0.01 0.03 0.01 0.01 0.035
0.01 0.01 0.04 0.01 0.01 0.045 0.01 0.01 0.05 0.01
0.01 0.055 0.01 0.01 0.06 0.01 0.01 0.065 0.01 0.01
0.07 0.01 0.01 0.075 0.01 0.01 0.08 0.01 0.01 0.085
0.01 0.01 0.09 0.01 0.01 0.095 0.01 0.01 0.1 0.01
0.01 0 0.015 0.01 0.005 0.015 0.01 0.01 0.015 0.01
0.015 0.015 0.01 0.02 0.015 0.01 0.025 0.015 0.01 0.03
0.015 0.01 0.035 0.015 0.01 0.04 0.015 0.01 0.045 0.015
0.01 0.05 0.015 0.01 0.055 0.015 0.01 0.06 0.015 0.01
0.065 0.015 0.01 0.07 0.015 0.01 0.075 0.015 0.01 0.08
0.015 0.01 0.085 0.015 0.01 0.09 0.015 0.01 0.095 0.015
0.01 0.1 0.015 0.01 0 0.02 0.01 0.005 0.02 0.01
0.01 0.02 0.01 0.015 0.02 0.01 0.02 0.02 0.01 0.025
0.02 0.01 0.03 0.02 0.01 0.035 0.02 0.01 0.04 0.02
0.01 0.045 0.02 0.01 0.05 0.02 0.01 0.055 0.02 0.01
0.06 0.02 0.01 0.065 0.02 0.01 0.07 0.02 0.01 0.075
0.02 0.01 0.08 0.02 0.01 0.085 0.02 0.01 0.09 0.02
0.01 0.095 0.02 0.01 0.1 0.02 0.01 0 0.025 0.01
0.005 0.025 0.01 0.01 0.025 0.01 0.015 0.025 0.01 0.02
0.025 0.01 0.025 0.025 0.01 0.03 0.025 0.01 0.035 0.025
0.01 0.04 0.025 0.01 0.045 0.025 0.01 0.05 0.025 0.01
0.055 0.025 0.01 0.06 0.025 0.01 0.065 0.025 0.01 0.07
0.025 0.01 0.075 0.025 0.01 0.08 0.025 0.01 0.085 0.025
0.01 0.09 0.025 0.01 0.095 0.025 0.01 0.1 0.025 0.01
0 0.03 0.01 0.005 0.03 0.01 0.01 0.03 0.01 0.015
0.03 0.01 0.02 0.03 0.01 0.025 0.03 0.01 0.03 0.03
0.01 0.035 0.03 0.01 0.04 0.03 0.01 0.045 0.03 0.01
0.05 0.03 0.01 0.055 0.03 0.01 0.06 0.03 0.01 0.065
0.03 0.01 0.07 0.03 0.01 0.075 0.03 0.01 0.08 0.03
0.01 0.085 0.03 0.01 0.09 0.03 0.01 0.095 0.03 0.01
0.1 0.03 0.01 0 0.035 0.01 0.005 0.035 0.01 0.01
0.035 0.01 0.015 0.035 0.01 0.02 0.035 0.01 0.025 0.035
0.01 0.03 0.035 0.01 0.035 0.035 0.01 0.04 0.035 0.01
0.045 0.035 0.01 0.05 0.035 0.01 0.055 0.035 0.01 0.06
0.035 0.01 0.065 0.035 0.01 0.07 0.035 0.01 0.075 0.035
0.01 0.08 0.035 0.01 0.085 0.035 0.01 0.09 0.035 0.01
0.095 0.035 0.01 0.1 0.035 0.01 0 0.04 0.01 0.005
0.04 0.01 0.01 0.04 0.01 0.015 0.04 0.01 0.02 0.04
0.01 0.025 0.04 0.01 0.03 0.04 0.01 0.035 0.04 0.01
0.04 0.04 0.01 0.045 0.04 0.01 0.05 0.04 0.01 0.055
0.04 0.01 0.06 0.04 0.01 0.065 0.04 0.01 0.07 0.04
0.01 0.075 0.04 0.01 0.08 0.04 0.01 0.085 0.04 0.01
0.09 0.04 0.01 0.095 0.04 0.01 0.1 0.04 0.01 0
0.045 0.01 0.005 0.045 0.01 0.01 0.045 0.01 0.015 0.045
0.01 0.02 0.045 0.01 0.025 0.045 0.01 0.03 0.045 0.01
0.035 0.045 0.01 0.04 0.045 0.01 0.045 0.045 0.01 0.05
0.045 0.01 0.055 0.045 0.01 0.06 0.045 0.01 0.065 0.045
0.01 0.07 0.045 0.01 0.075 0.045 0.01 0.08 0.045 0.01
0.085 0.045 0.01 0.09 0.045 0.01 0.095 0.045 0.01 0.1
0.045 0.01 0 0.05 0.01 0.005 0.05 0.01 0.01 0.05
0.01 0.015 0.05 0.01 0.02 0.05 0.01 0.025 0.05 0.01
0.03 0.05 0.01 0.035 0.05 0.01 0.04 0.05 0.01 0.045
0.05 0.01 0.05 0.05 0.01 0.055 0.05 0.01 0.06 0.05
0.01 0.065 0.05 0.01 0.07 0.05 0.01 0.075 0.05 0.01
0.08 0.05 0.01 0.085 0.05 0.01 0.09 0.05 0.01 0.095
0.05 0.01 0.1 0.05 0.01 0 0.055 0.01 0.005 0.055
0.01 0.01 0.055 0.01 0.015 0.055 0.01 0.02 0.055 0.01
0.025 0.055 0.01 0.03 0.055 0.01 0.035 0.055 0.01 0.04
0.055 0.01 0.045 0.055 0.01 0.05 0.055 0.01 0.055 0.055
0.01 0.06 0.055 0.01 0.065 0.055 0.01 0.07 0.055 0.01
0.075 0.055 0.01 0.08 0.055 0.01 0.085 0.055 0.01 0.09
0.055 0.01 0.095 0.055 0.01 0.1 0.055 0.01 0 0.06
0.01 0.005 0.06 0.01 0.01 0.06 0.01 0.015 0.06 0.01
0.02 0.06 0.01 0.025 0.06 0.01 0.03 0.06 0.01 0.035
0.06 0.01 0.04 0.06 0.01 0.045 0.06 0.01 0.05 0.06
0.01 0.055 0.06 0.01 0.06 0.06 0.01 0.065 0.06 0.01
0.07 0.06 0.01 0.075 0.06 0.01 0.08 0.06 0.01 0.085
0.06 0.01 0.09 0.06 0.01 0.095 0.06 0.01 0.1 0.06
0.01 0 0.065 0.01 0.005 0.065 0.01 0.01 0.065 0.01
0.015 0.065 0.01 0.02 0.065 0.01 0.025 0.065 0.01 0.03
[...]
CELL_DATA 400
FIELD attributes 3
cellID 1 400 int
0 1 2 3 4 5 6 7 8 9 10
11 12 13 14 15 16 17 18 19 20
21 22 23 24 25 26 27 28 29 30
31 32 33 34 35 36 37 38 39 40
41 42 43 44 45 46 47 48 49 50
51 52 53 54 55 56 57 58 59 60
61 62 63 64 65 66 67 68 69 70
71 72 73 74 75 76 77 78 79 80
81 82 83 84 85 86 87 88 89 90
91 92 93 94 95 96 97 98 99 100
101 102 103 104 105 106 107 108 109 110
111 112 113 114 115 116 117 118 119 120
121 122 123 124 125 126 127 128 129 130
131 132 133 134 135 136 137 138 139 140
141 142 143 144 145 146 147 148 149 150
151 152 153 154 155 156 157 158 159 160
161 162 163 164 165 166 167 168 169 170
171 172 173 174 175 176 177 178 179 180
181 182 183 184 185 186 187 188 189 190
191 192 193 194 195 196 197 198 199 200
201 202 203 204 205 206 207 208 209 210
211 212 213 214 215 216 217 218 219 220
221 222 223 224 225 226 227 228 229 230
231 232 233 234 235 236 237 238 239 240
241 242 243 244 245 246 247 248 249 250
251 252 253 254 255 256 257 258 259 260
261 262 263 264 265 266 267 268 269 270
271 272 273 274 275 276 277 278 279 280
281 282 283 284 285 286 287 288 289 290
291 292 293 294 295 296 297 298 299 300
301 302 303 304 305 306 307 308 309 310
311 312 313 314 315 316 317 318 319 320
321 322 323 324 325 326 327 328 329 330
331 332 333 334 335 336 337 338 339 340
341 342 343 344 345 346 347 348 349 350
351 352 353 354 355 356 357 358 359 360
361 362 363 364 365 366 367 368 369 370
371 372 373 374 375 376 377 378 379 380
381 382 383 384 385 386 387 388 389 390
391 392 393 394 395 396 397 398 399 
p 1 400 float
1.34602e-07 -0.00522935 -0.01141 -0.0159079 -0.017206 -0.014636 -0.00817648 0.0017448 0.0143953 0.0288326 0.0439731
0.0586553 0.0717104 0.0820545 0.0888076 0.0914458 0.0899898 0.0852129 0.0788017 0.0735484 0.00515727
-0.000226459 -0.00502402 -0.00803109 -0.00851067 -0.0059918 -0.000431863 0.00786128 0.0183298 0.0302333 0.0427052
0.0548106 0.0656126 0.0742543 0.0800556 0.0826283 0.0820117 0.0787609 0.0737674 0.0683754 0.0117324
0.00425986 -0.000960238 -0.00372959 -0.00405016 -0.00166974 0.00339058 0.0108368 0.0201826 0.0307921 0.0419184
0.0527486 0.062461 0.0702944 0.0756289 0.0780771 0.0776048 0.0745471 0.0690747 0.0615599 0.0175467
0.00721165 0.000674521 -0.0025389 -0.00304545 -0.000790926 0.00410562 0.0113056 0.0203291 0.0305781 0.0413559
0.0518969 0.0614118 0.0691455 0.0744442 0.0768384 0.0761726 0.0725858 0.0656702 0.0551917 0.0211689
0.00776427 -0.000368517 -0.00422635 -0.00496145 -0.00269495 0.00234858 0.0097629 0.0190439 0.029597 0.0407375
0.0517057 0.0616978 0.0699122 0.0756072 0.0781819 0.0773308 0.0730096 0.0643114 0.0505623 0.0215194
0.00491443 -0.00492027 -0.00943432 -0.0102815 -0.00774771 -0.00216906 0.00596522 0.0161065 0.0276403 0.0398685
0.0520077 0.0632044 0.0725687 0.0792234 0.0823879 0.0815697 0.0765306 0.0658836 0.048592 0.0176244
-0.00235647 -0.0139172 -0.0189605 -0.0196632 -0.0164872 -0.00989304 -0.000466903 0.0111851 0.0244165 0.0385028
0.0526204 0.065843 0.0771594 0.0855105 0.0898797 0.0895302 0.0839822 0.0713119 0.0501129 0.00841162
-0.0151837 -0.028418 -0.0337163 -0.0338629 -0.029535 -0.0213413 -0.00997942 0.00388219 0.0195662 0.036325
0.0532959 0.0694732 0.0837029 0.0947011 0.101147 0.101973 0.0963618 0.0817015 0.0561207 -0.00744784
-0.0349507 -0.049702 -0.0547936 -0.0537766 -0.0476169 -0.03711 -0.0230796 -0.00625258 0.0126798 0.0329704
0.0537411 0.0739228 0.0922153 0.107075 0.116798 0.119867 0.114963 0.0985189 0.0679966 -0.0316819
-0.0634156 -0.0793438 -0.0834815 -0.08041 -0.0715029 -0.0577966 -0.0402549 -0.0196458 0.00336253 0.0280725
0.053644 0.0789924 0.102699 0.122945 0.137566 0.144439 0.141497 0.123787 0.0877394 -0.0666074
-0.102875 -0.119292 -0.121255 -0.1148 -0.101886 -0.0838583 -0.0618261 -0.0365611 -0.00864377 0.0213595
0.0527388 0.0844866 0.115142 0.142642 0.164302 0.177219 0.178234 0.160337 0.11828 -0.115463
-0.156421 -0.171967 -0.169725 -0.157868 -0.139183 -0.115391 -0.087727 -0.0568918 -0.0232755 0.0128093
0.0509219 0.0902841 0.129542 0.166498 0.19796 0.220085 0.228183 0.212182 0.163994 -0.183085
-0.228362 -0.240355 -0.230504 -0.210157 -0.183222 -0.151816 -0.117209 -0.0798946 -0.0399148 0.0028435
0.0484015 0.0964312 0.145933 0.194818 0.239541 0.27527 0.295299 0.285072 0.231624 -0.277377
-0.324927 -0.328045 -0.304877 -0.271378 -0.232782 -0.191463 -0.148495 -0.103912 -0.0571692 -0.007502
0.0458157 0.103196 0.164356 0.227747 0.289894 0.345201 0.384618 0.38735 0.332121 -0.41247
-0.455355 -0.438912 -0.393009 -0.339572 -0.284892 -0.23107 -0.178455 -0.126183 -0.0727841 -0.0165615
0.0441864 0.110944 0.184615 0.264856 0.349119 0.431877 0.502051 0.531144 0.484251 -0.614462
-0.63313 -0.576212 -0.492634 -0.409999 -0.334109 -0.265432 -0.202546 -0.142979 -0.0838911 -0.0223491
0.0445715 0.119742 0.205781 0.304454 0.415607 0.53571 0.653495 0.733377 0.720262 -0.931863
-0.87625 -0.740975 -0.598152 -0.474807 -0.372678 -0.287964 -0.215606 -0.150484 -0.0878669 -0.0233612
0.0473467 0.128731 0.2256 0.342957 0.485268 0.65436 0.842946 1.01543 1.09524 -1.47744
-1.20339 -0.921768 -0.693995 -0.519668 -0.38931 -0.29076 -0.212595 -0.145842 -0.0835534 -0.0198873
0.0507064 0.134239 0.237961 0.371222 0.545961 0.774204 1.06114 1.40041 1.73154 -2.56135
-1.61337 -1.0461 -0.716871 -0.500852 -0.356258 -0.25738 -0.184658 -0.125296 -0.0708733 -0.0149965
0.0481242 0.1251 0.224706 0.360314 0.552963 0.831301 1.23718 1.89283 2.94757 -4.41569
-2.02999 -0.97494 -0.569183 -0.363298 -0.245062 -0.174017 -0.125951 -0.0875027 -0.0513229 -0.0125143
0.0333028 0.0911064 0.168375 0.278531 0.447423 0.723119 1.22613 2.39622 4.89869 
U 3 400 float
0.000219972 -0.000215237 0 9.40042e-05 0.00011289 0 -0.00111575 0.000512029 0 -0.0031891 0.000789876
0 -0.00577136 0.000925335 0 -0.00851203 0.00093375 0 -0.0111009 0.000838503 0
-0.0132848 0.000663648 0 -0.0148708 0.000431324 0 -0.0157248 0.000162036 0 -0.0157715
-0.000123888 0 -0.014996 -0.000404733 0 -0.0134496 -0.000656225 0 -0.0112552 -0.000851111
0 -0.0086128 -0.000959847 0 -0.00579872 -0.000953021 0 -0.00315438 -0.000806555 0
-0.00105601 -0.000510769 0 0.000136763 -9.86161e-05 0 0.000232426 0.000225939 0 -7.77216e-05
-0.000118834 0 -0.00148 0.00151671 0 -0.0051561 0.00325746 0 -0.0105316 0.00448986
0 -0.0168922 0.00508894 0 -0.02352 0.00507953 0 -0.0297377 0.00454445 0
-0.0349664 0.00358876 0 -0.0387538 0.0023227 0 -0.0407831 0.00085736 0 -0.0408782
-0.000693132 0 -0.0390106 -0.00220767 0 -0.0353093 -0.00355546 0 -0.030069 -0.00459705
0 -0.0237535 -0.00519115 0 -0.0169839 -0.00521029 0 -0.0104961 -0.00456848 0
-0.00505896 -0.00326308 0 -0.00140057 -0.00146434 0 -5.15738e-05 0.000164874 0 -0.000472168
0.00103012 0 -0.00333231 0.00519758 0 -0.00948947 0.00916079 0 -0.017858 0.0119313
0 -0.0274054 0.0132328 0 -0.0371699 0.0130851 0 -0.0462374 0.0116548 0
-0.0538181 0.00917963 0 -0.0592909 0.00592558 0 -0.062219 0.00217149 0 -0.06236
-0.00179185 0 -0.0596751 -0.00565672 0 -0.0543417 -0.0090957 0 -0.0467633 -0.0117675
0 -0.0375718 -0.013337 0 -0.0276101 -0.0135159 0 -0.0178706 -0.0121278 0
-0.00939009 -0.00919786 0 -0.00323152 -0.00509681 0 -0.000435121 -0.000926349 0 -0.000820469
0.00317065 0 -0.0050872 0.0109957 0 -0.0136964 0.0178045 0 -0.0249528 0.0224044
0 -0.0374669 0.024433 0 -0.0500556 0.0239421 0 -0.0616218 0.0212157 0
-0.0712284 0.0166601 0 -0.0781431 0.0107368 0 -0.0818518 0.00393449 0 -0.0820662
-0.00323505 0 -0.0787339 -0.0102311 0 -0.0720533 -0.0164807 0 -0.0624881 -0.0213897
0 -0.0507757 -0.024378 0 -0.037916 -0.0249483 0 -0.0251088 -0.0227914 0
-0.0136465 -0.0179221 0 -0.00498098 -0.0108578 0 -0.000773569 -0.00299508 0 -0.00113199
0.00621123 0 -0.00676224 0.0188212 0 -0.017823 0.0290716 0 -0.0319622 0.0357145
0 -0.0473918 0.0384099 0 -0.0626985 0.0373176 0 -0.0766232 0.032894 0
-0.088117 0.0257543 0 -0.0963747 0.016586 0 -0.100833 0.00611213 0 -0.101172
-0.00491356 0 -0.0973179 -0.0156954 0 -0.0894644 -0.0253884 0 -0.0780954 -0.0331106
0 -0.0640088 -0.0379909 0 -0.0483251 -0.0392641 0 -0.032439 -0.0364177 0
-0.0179242 -0.0293727 0 -0.00668637 -0.0186949 0 -0.00107957 -0.00596029 0 -0.00143624
0.0101197 0 -0.00844858 0.0286897 0 -0.0220269 0.0430209 0 -0.0391185 0.0519188
0 -0.0574967 0.0551867 0 -0.0755052 0.0531956 0 -0.0917349 0.0466501 0
-0.105054 0.0364257 0 -0.114616 0.0234658 0 -0.119836 0.00874176 0 -0.120369
-0.00674461 0 -0.116114 -0.0219379 0 -0.107234 -0.0357086 0 -0.0941911 -0.0468585
0 -0.0778021 -0.0541737 0 -0.0592752 -0.0565433 0 -0.0401949 -0.0531481 0
-0.0224487 -0.043697 0 -0.00846953 -0.0286899 0 -0.00138908 -0.0098137 0 -0.00176092
0.0149231 0 -0.0102416 0.0406872 0 -0.0264743 0.0597621 0 -0.0466335 0.0711064
0 -0.0680118 0.0748059 0 -0.0887035 0.0715707 0 -0.107171 0.0624512 0
-0.122237 0.0486441 0 -0.133054 0.0313773 0 -0.139043 0.0118743 0 -0.139853
-0.0086267 0 -0.135346 -0.0288245 0 -0.125624 -0.0473091 0 -0.111081 -0.0625466
0 -0.0924964 -0.0729256 0 -0.0711176 -0.0768913 0 -0.0486984 -0.0731804 0
-0.0274655 -0.0611303 0 -0.0104641 -0.0410322 0 -0.00173841 -0.0146252 0 -0.0021303
0.0207023 0 -0.0122265 0.0549696 0 -0.0313035 0.0794439 0 -0.0546476 0.0933609
0 -0.079022 0.0972654 0 -0.102282 0.0923695 0 -0.122806 0.0801899 0
-0.139431 0.0623146 0 -0.151365 0.04028 0 -0.158085 0.0155504 0 -0.159255
-0.010432 0 -0.154697 -0.0361591 0 -0.144418 -0.0599684 0 -0.128684 -0.0799882
0 -0.108154 -0.0941579 0 -0.0840351 -0.100365 0 -0.058194 -0.0967232 0
-0.0331969 -0.0819822 0 -0.0127996 -0.0560216 0 -0.00216269 -0.020541 0 -0.00256818
0.0275844 0 -0.0144805 0.0717502 0 -0.0366157 0.102224 0 -0.0632017 0.118706
0 -0.0904205 0.122443 0 -0.115928 0.115364 0 -0.138101 0.099598 0
-0.155884 0.0772021 0 -0.168632 0.0500352 0 -0.175944 0.0197707 0 -0.177536
-0.0120058 0 -0.173196 -0.0436512 0 -0.1628 -0.0733123 0 -0.14641 -0.0988074
0 -0.124451 -0.117593 0 -0.0979584 -0.126874 0 -0.0687958 -0.123923 0
-0.0398212 -0.106597 0 -0.0156015 -0.0740559 0 -0.00269916 -0.02778 0 -0.00310525
0.0357425 0 -0.0170892 0.0912813 0 -0.0424838 0.128218 0 -0.0722217 0.147016
0 -0.101863 0.149984 0 -0.128954 0.140047 0 -0.152009 0.120131 0
-0.170223 0.092833 0 -0.183224 0.0603334 0 -0.190823 0.0244537 0 -0.192849
-0.0131735 0 -0.18907 -0.050883 0 -0.1792 -0.0867395 0 -0.163007 -0.118327
0 -0.140538 -0.142622 0 -0.112461 -0.156039 0 -0.0804305 -0.15474 0
-0.0474613 -0.135276 0 -0.0190028 -0.0956045 0 -0.00339482 -0.0366361 0 -0.00379304
0.0454115 0 -0.0201771 0.113842 0 -0.0489711 0.157422 0 -0.0814993 0.177894
0 -0.1127 0.179147 0 -0.140194 0.165488 0 -0.162851 0.140833 0
-0.180323 0.108387 0 -0.192664 0.070614 0 -0.200017 0.0293844 0 -0.202396
-0.0137594 0 -0.199581 -0.0572898 0 -0.191107 -0.099355 0 -0.176366 -0.137448
0 -0.154854 -0.168142 0 -0.126609 -0.186991 0 -0.092752 -0.188765 0
-0.0561672 -0.168157 0 -0.0231652 -0.121174 0 -0.00432035 -0.0474938 0 -0.00472972
0.0569329 0 -0.023957 0.139731 0 -0.0561478 0.189616 0 -0.0906367 0.210492
0 -0.12186 0.208617 0 -0.147844 0.190147 0 -0.168151 0.160196 0
-0.183143 0.122591 0 -0.193489 0.0799877 0 -0.199779 0.0341598 0 -0.202292
-0.0136193 0 -0.20087 -0.0621631 0 -0.194882 -0.109927 0 -0.183289 -0.154543
0 -0.164875 -0.192364 0 -0.138736 -0.218128 0 -0.104992 -0.224964 0
-0.0658727 -0.205031 0 -0.0283105 -0.151258 0 -0.00559539 -0.0608687 0 -0.00610744
0.070852 0 -0.0288005 0.169254 0 -0.0640678 0.224174 0 -0.0988907 0.24325
0 -0.127592 0.236236 0 -0.149183 0.211682 0 -0.164375 0.17603 0
-0.17454 0.133642 0 -0.181117 0.0871882 0 -0.185233 0.0381468 0 -0.187491
-0.0126857 0 -0.187856 -0.0646903 0 -0.185586 -0.116897 0 -0.179234 -0.167393
0 -0.166784 -0.212644 0 -0.14609 -0.246812 0 -0.115678 -0.261306 0
-0.0762773 -0.24503 0 -0.0347566 -0.186235 0 -0.00743297 -0.0774918 0 -0.00829146
0.0880965 0 -0.0353082 0.202646 0 -0.0726043 0.25972 0 -0.104765 0.273482
0 -0.126948 0.258692 0 -0.140075 0.226769 0 -0.146563 0.185405 0
-0.149032 0.13922 0 -0.149753 0.0906024 0 -0.150379 0.0404858 0 -0.151831
-0.0110145 0 -0.154249 -0.0640502 0 -0.1569 -0.118487 0 -0.158075 -0.17324
0 -0.155045 -0.225391 0 -0.144278 -0.269071 0 -0.122102 -0.294261 0
-0.0865376 -0.286108 0 -0.0429165 -0.226143 0 -0.010207 -0.0984507 0 -0.011911
0.110239 0 -0.04425 0.239767 0 -0.0808568 0.293458 0 -0.105035 0.296775
0 -0.114762 0.271194 0 -0.11414 0.231061 0 -0.107772 0.1848 0
-0.0995428 0.136707 0 -0.0923756 0.0884609 0 -0.0882438 0.0401888 0 -0.0882704
-0.00881602 0 -0.0927801 -0.0595808 0 -0.101223 -0.112974 0 -0.111951 -0.169083
0 -0.121911 -0.226229 0 -0.126421 -0.279433 0 -0.119306 -0.318217 0
-0.0944838 -0.324189 0 -0.0530787 -0.27012 0 -0.0144966 -0.125352 0 -0.0177763
0.139907 0 -0.0558572 0.279186 0 -0.0853853 0.31988 0 -0.0925895 0.306206
0 -0.0817842 0.267342 0 -0.0614788 0.219525 0 -0.0384177 0.170645 0
-0.0172346 0.123746 0 -0.000921546 0.0792835 0 0.00869243 0.0363952 0 0.0105637
-0.00643506 0 0.00424099 -0.0510194 0 -0.0101029 -0.099181 0 -0.0313716 -0.152332
0 -0.0569665 -0.210617 0 -0.0819636 -0.271175 0 -0.0982306 -0.324945 0
-0.0947181 -0.351826 0 -0.0643758 -0.315172 0 -0.020854 -0.16056 0 -0.0259351
0.181767 0 -0.0670375 0.315718 0 -0.0756214 0.328107 0 -0.0520893 0.291199
0 -0.0116979 0.239346 0 0.0329002 0.187356 0 0.074233 0.140408 0
0.108299 0.0991964 0 0.133099 0.0625901 0 0.147654 0.028793 0 0.151403
-0.00424988 0 0.143911 -0.0387617 0 0.124834 -0.0771355 0 0.0941892 -0.121859
0 0.053035 -0.175079 0 0.00480712 -0.237185 0 -0.0425779 -0.303251 0
-0.0744722 -0.356025 0 -0.0716413 -0.353501 0 -0.0285139 -0.207898 0 -0.0310555
0.240644 0 -0.0627531 0.333925 0 -0.0234554 0.298386 0 0.0476237 0.237751
0 0.122743 0.180181 0 0.190225 0.132492 0 0.245664 0.0947122 0
0.287923 0.0646686 0 0.317244 0.0398936 0 0.334153 0.0181632 0 0.338909
-0.00253159 0 0.331269 -0.0241787 0 0.310407 -0.0490057 0 0.274999 -0.0797499
0 0.22366 -0.119839 0 0.156176 -0.17297 0 0.0759188 -0.240791 0
-0.00549877 -0.316431 0 -0.0572579 -0.366072 0 -0.0301889 -0.268897 0 0.00436633
0.284746 0 0.0160908 0.294276 0 0.138869 0.209875 0 0.263108 0.142333
0 0.361359 0.0958854 0 0.435881 0.0644412 0 0.490858 0.0430292 0
0.529755 0.0279313 0 0.5554 0.0165803 0 0.569727 0.00724417 0 0.573705
-0.00135249 0 0.567354 -0.0103526 0 0.549685 -0.0210577 0 0.518537 -0.0353186
0 0.470408 -0.056095 0 0.400542 -0.0881532 0 0.302892 -0.138489 0
0.172566 -0.215039 0 0.0367871 -0.310753 0 0.0142457 -0.30284 0 0.295677
0.147789 0 0.392281 0.127808 0 0.557486 0.075853 0 0.674268 0.0433658
0 0.742901 0.02517 0 0.785555 0.0148528 0 0.813299 0.00888185 0
0.831246 0.00526357 0 0.842294 0.00287694 0 0.84808 0.00109704 0 0.849366
-0.00045642 0 0.846256 -0.0020874 0 0.838205 -0.00413508 0 0.823791 -0.0071536
0 0.800229 -0.0122052 0 0.7623 -0.0214046 0 0.698543 -0.0388981 0
0.583905 -0.0723476 0 0.411746 -0.128123 0 0.304729 -0.151073 0 
POINT_DATA  882
FIELD attributes 2
p 1 882 float
1.34602e-07 -0.00261461 -0.00831967 -0.013659 -0.016557 -0.015921 -0.0114062 -0.00321584 0.00807005 0.0216139 0.0364029
0.0513142 0.0651828 0.0768825 0.085431 0.0901267 0.0907178 0.0876013 0.0820073 0.076175 0.0735484
0.0025787 -7.46011e-05 -0.00547246 -0.0100933 -0.0124139 -0.0115861 -0.00730904 0.000249434 0.0105828 0.0229477
0.0364361 0.0500361 0.0626972 0.0734079 0.081293 0.0857343 0.0865189 0.0839938 0.0791357 0.0736232
0.0709619 0.00844484 0.00523077 -0.000487714 -0.00443623 -0.00608038 -0.00505559 -0.00117571 0.0054142 0.0143026
0.0248844 0.0364123 0.0480457 0.0589082 0.0681556 0.0750583 0.0790975 0.0800805 0.0782311 0.0740375
0.0681944 0.0649676 0.0146395 0.0101877 0.00279645 -0.00163855 -0.00334102 -0.00238907 0.00125888 0.00740965
0.0156635 0.0254705 0.0361611 0.0469799 0.0571296 0.0658282 0.0723782 0.0762471 0.0771732 0.0752276
0.0704694 0.0628741 0.0583758 0.0193578 0.0134229 0.00382048 -0.00161481 -0.00369304 -0.00287319 0.000742081
0.00688067 0.0151104 0.024887 0.0355671 0.046424 0.056678 0.0655418 0.0722773 0.0762679 0.0771309
0.0747747 0.0688943 0.0589339 0.052877 0.0213441 0.0138418 0.00184748 -0.00473736 -0.00722591 -0.0064214
-0.00256579 0.00397691 0.0127196 0.0230969 0.0344608 0.0460799 0.0571539 0.0668458 0.0743279 0.0788501
0.0798676 0.0771102 0.0699338 0.0573373 0.0495772 0.0195719 0.0104254 -0.00406988 -0.0118081 -0.0145849
-0.0135449 -0.00907425 -0.00164095 0.00819748 0.0198371 0.032607 0.0457499 0.0584189 0.0696939 0.0786155
0.0842504 0.0858419 0.0829032 0.0744271 0.0589751 0.0493524 0.013018 0.00212396 -0.0149688 -0.023753
-0.0265507 -0.0248871 -0.0193141 -0.0104202 0.00115524 0.0147625 0.0297026 0.045186 0.0603081 0.0740446
0.0852685 0.0928096 0.0956325 0.0929618 0.0833393 0.0648118 0.0531168 0.00048189 -0.0122927 -0.0320636
-0.0416575 -0.0440373 -0.0411979 -0.0339008 -0.0228776 -0.00885735 0.0074689 0.0253853 0.0440831 0.0626082
0.0798286 0.0944236 0.10493 0.109946 0.108291 0.0978863 0.0760844 0.0620586 -0.0195649 -0.034374
-0.056853 -0.0668302 -0.0681154 -0.0633266 -0.0535066 -0.0395603 -0.0223082 -0.00246401 0.0192713 0.042107
0.0650751 0.0869574 0.106234 0.121096 0.129668 0.130192 0.119691 0.0945105 0.077868 -0.0491447
-0.066145 -0.0912316 -0.100843 -0.0999866 -0.0921497 -0.078761 -0.060934 -0.039572 -0.015372 0.0110377
0.0389537 0.0674654 0.09533 0.120857 0.141864 0.155881 0.160347 0.150964 0.122536 0.10301
-0.0910352 -0.110342 -0.137639 -0.14556 -0.140912 -0.128434 -0.11008 -0.0872006 -0.0607515 -0.031343
0.000562383 0.0344574 0.0696078 0.104864 0.138456 0.16785 0.189892 0.20093 0.194734 0.163698
0.141137 -0.149274 -0.170833 -0.199276 -0.203138 -0.192063 -0.172607 -0.147403 -0.118036 -0.0854306
-0.0499942 -0.0118844 0.028744 0.0715097 0.115548 0.159198 0.199704 0.233214 0.254709 0.255184
0.223218 0.197809 -0.230231 -0.253438 -0.280422 -0.275945 -0.254229 -0.224385 -0.189821 -0.152246
-0.112378 -0.0702227 -0.0254356 0.0223897 0.0734611 0.127479 0.183214 0.238 0.287477 0.325097
0.338085 0.309042 0.281873 -0.344923 -0.367532 -0.38681 -0.366211 -0.327209 -0.282156 -0.235052
-0.187371 -0.139261 -0.0900121 -0.0385042 0.0164846 0.0760355 0.140778 0.210394 0.282904 0.354023
0.415937 0.451291 0.433717 0.408186 -0.513466 -0.528854 -0.525902 -0.475192 -0.408803 -0.342143
-0.278876 -0.219376 -0.162541 -0.106459 -0.0488965 0.0124618 0.079861 0.155271 0.239927 0.333509
0.433078 0.530783 0.605017 0.617258 0.602256 -0.773162 -0.763926 -0.706642 -0.601993 -0.493898
-0.397898 -0.315046 -0.242887 -0.177904 -0.116305 -0.0543671 0.011552 0.0850978 0.169963 0.269698
0.387071 0.522736 0.671628 0.811312 0.891077 0.907751 -1.20465 -1.12224 -0.935596 -0.738723
-0.571656 -0.439116 -0.335178 -0.251731 -0.181132 -0.116937 -0.0536672 0.0137012 0.0902558 0.181633
0.294435 0.436352 0.614948 0.833162 1.07998 1.31065 1.41339 -2.0194 -1.71389 -1.19616
-0.844684 -0.607846 -0.441522 -0.323427 -0.236348 -0.167098 -0.106391 -0.0473276 0.0159867 0.0895424
0.180502 0.298551 0.457615 0.676107 0.975956 1.39789 1.99309 2.33956 -3.48852 -2.6551
-1.4161 -0.826774 -0.537551 -0.366367 -0.258179 -0.185502 -0.130852 -0.0837487 -0.0374268 0.0134791
0.0744084 0.152322 0.257982 0.409808 0.638701 1.00443 1.68809 3.03383 3.92313 -4.41569
-3.22284 -1.50247 -0.772062 -0.46624 -0.30418 -0.20954 -0.149984 -0.106727 -0.0694128 -0.0319186
0.0103943 0.0622046 0.129741 0.223453 0.362977 0.585271 0.974625 1.81117 3.64745 4.89869
1.34602e-07 -0.00261461 -0.00831967 -0.013659 -0.016557 -0.015921 -0.0114062 -0.00321584 0.00807005 0.0216139
0.0364029 0.0513142 0.0651828 0.0768825 0.085431 0.0901267 0.0907178 0.0876013 0.0820073 0.076175
0.0735484 0.0025787 -7.46011e-05 -0.00547246 -0.0100933 -0.0124139 -0.0115861 -0.00730904 0.000249434 0.0105828
0.0229477 0.0364361 0.0500361 0.0626972 0.0734079 0.081293 0.0857343 0.0865189 0.0839938 0.0791357
0.0736232 0.0709619 0.00844484 0.00523077 -0.000487714 -0.00443623 -0.00608038 -0.00505559 -0.00117571 0.0054142
0.0143026 0.0248844 0.0364123 0.0480457 0.0589082 0.0681556 0.0750583 0.0790975 0.0800805 0.0782311
0.0740375 0.0681944 0.0649676 0.0146395 0.0101877 0.00279645 -0.00163855 -0.00334102 -0.00238907 0.00125888
0.00740965 0.0156635 0.0254705 0.0361611 0.0469799 0.0571296 0.0658282 0.0723782 0.0762471 0.0771732