/*--------------------------------*- C++ -*----------------------------------*\
| =========                 |                                                 |
| \\      /  F ield         | OpenFOAM: The Open Source CFD Toolbox           |
|  \\    /   O peration     | Version:  v1606+                                |
|   \\  /    A nd           | Web:      www.OpenFOAM.com                      |
|    \\/     M anipulation  |                                                 |
\*---------------------------------------------------------------------------*/
FoamFile
{
    version     2.0;
    format      ascii;
    class       volScalarField;
    location    "1.6";
    object      p;
}
// * * * * * * * * * * * * * * * * * * * * * * * * * * * * * * * * * * * * * //

dimensions      [0 2 -2 0 0 0 0];

internalField   nonuniform List<scalar> 
3072
(
-0.0476564
-0.0478184
-0.0481259
-0.0485352
-0.0489399
-0.0493944
-0.0498896
-0.0504305
-0.0510154
-0.0516268
-0.0522205
-0.0527424
-0.0441651
-0.0444676
-0.0448477
-0.0452611
-0.0456993
-0.0461495
-0.0465727
-0.0469778
-0.0473987
-0.0478251
-0.0481931
-0.04842
-0.0417609
-0.0421151
-0.0426317
-0.0431668
-0.0435776
-0.0438479
-0.0440366
-0.0442038
-0.0444012
-0.0446236
-0.0448055
-0.044868
-0.0383927
-0.0390204
-0.0397424
-0.0403137
-0.0408061
-0.0410206
-0.0410543
-0.0410117
-0.0409683
-0.0409431
-0.0408961
-0.0407879
-0.0348496
-0.0357983
-0.0367484
-0.0375047
-0.0378856
-0.0379858
-0.0378594
-0.0375976
-0.0372779
-0.03695
-0.0366532
-0.0364541
-0.0308468
-0.032037
-0.0330638
-0.0337959
-0.0342355
-0.0343829
-0.0342498
-0.0338915
-0.0333858
-0.0328449
-0.0324294
-0.0322956
-0.0264261
-0.0276622
-0.0286406
-0.0293251
-0.0297866
-0.0300166
-0.0299761
-0.0296558
-0.029121
-0.0285512
-0.0282079
-0.0282766
-0.0216024
-0.0226529
-0.0234746
-0.0239701
-0.0244037
-0.0247282
-0.0248582
-0.0247252
-0.0243749
-0.0240208
-0.0239594
-0.0243462
-0.0164737
-0.0171175
-0.0174062
-0.0177139
-0.0180415
-0.0184406
-0.0188273
-0.0190811
-0.0191962
-0.0193471
-0.0197807
-0.0205907
-0.0111365
-0.0113608
-0.0111272
-0.0110051
-0.0110805
-0.0114789
-0.0121496
-0.0129344
-0.0137459
-0.014644
-0.0157562
-0.0171023
-0.00588169
-0.00522196
-0.00481812
-0.00442717
-0.0043052
-0.00472004
-0.00565778
-0.00694506
-0.00845094
-0.0101339
-0.0119942
-0.0139592
-0.00239615
0.00020087
0.00117358
0.00147896
0.00151063
0.000893634
-0.000342156
-0.00203075
-0.00407172
-0.00638027
-0.00886942
-0.0113905
-0.0531355
-0.0533437
-0.0533309
-0.0530994
-0.052705
-0.0522103
-0.0516352
-0.0512622
-0.0512928
-0.0516544
-0.0520282
-0.0521014
-0.0484514
-0.0482921
-0.0479913
-0.047586
-0.047057
-0.0464902
-0.0463033
-0.0465778
-0.0473307
-0.0483659
-0.0492076
-0.0496536
-0.0447702
-0.0445315
-0.0442163
-0.0438963
-0.043626
-0.0434436
-0.043416
-0.0437273
-0.04454
-0.0459437
-0.0475444
-0.0483672
-0.0406214
-0.0404341
-0.0402722
-0.0401681
-0.0401302
-0.0401694
-0.0403264
-0.0406999
-0.0413897
-0.0426285
-0.0446321
-0.0463041
-0.0364097
-0.0364924
-0.0366028
-0.036667
-0.036699
-0.0367623
-0.0369574
-0.037366
-0.038
-0.03887
-0.040679
-0.0435891
-0.0324642
-0.0327648
-0.0329923
-0.0330857
-0.0331089
-0.0331483
-0.0332906
-0.0336379
-0.0342266
-0.0349695
-0.0364731
-0.0401647
-0.0286934
-0.0291807
-0.0295036
-0.0296288
-0.0296365
-0.0296062
-0.0296269
-0.0297963
-0.0302081
-0.0308934
-0.0322198
-0.0358562
-0.0250434
-0.025733
-0.0261867
-0.0263757
-0.0263751
-0.0262651
-0.0261059
-0.0259918
-0.026056
-0.0264899
-0.027536
-0.0306062
-0.0216063
-0.0225309
-0.023164
-0.0234667
-0.02348
-0.0232454
-0.0228053
-0.0222593
-0.0217669
-0.0216311
-0.0221498
-0.0246273
-0.0185091
-0.0197221
-0.0205686
-0.0209905
-0.0209943
-0.0205741
-0.0197624
-0.0186491
-0.0173677
-0.0162023
-0.0157079
-0.0171921
-0.0158369
-0.0173967
-0.0184736
-0.0189875
-0.0189166
-0.0182512
-0.0170393
-0.0153395
-0.0131877
-0.0106564
-0.00816335
-0.00660286
-0.013716
-0.0156045
-0.016871
-0.0174057
-0.0172069
-0.0162817
-0.0147145
-0.0125566
-0.00978533
-0.00624433
-0.00154662
0.00523586
-0.047702
-0.047768
-0.0479796
-0.0483361
-0.0487552
-0.0492245
-0.0497217
-0.0502604
-0.0508442
-0.0514547
-0.0520469
-0.0525655
-0.0441415
-0.0444144
-0.0447727
-0.0451646
-0.0455791
-0.0460082
-0.0464156
-0.046813
-0.0472328
-0.0476589
-0.048023
-0.0482415
-0.0417597
-0.0420832
-0.0425639
-0.0430639
-0.0434406
-0.043691
-0.0438659
-0.0440268
-0.0442231
-0.044444
-0.0446208
-0.0446762
-0.0383555
-0.0389625
-0.0396498
-0.0401706
-0.0406532
-0.040853
-0.0408744
-0.0408248
-0.0407785
-0.0407509
-0.0407018
-0.0405968
-0.0348072
-0.0357327
-0.0366535
-0.0373859
-0.0377383
-0.0378192
-0.0376799
-0.0374104
-0.0370868
-0.0367575
-0.0364662
-0.0362847
-0.030801
-0.0319667
-0.0329686
-0.0336801
-0.0341015
-0.0342328
-0.0340864
-0.0337185
-0.0332074
-0.0326684
-0.0322676
-0.0321607
-0.0263826
-0.027598
-0.0285591
-0.0292295
-0.0296787
-0.0298959
-0.0298419
-0.0295097
-0.0289683
-0.028403
-0.0280791
-0.0281754
-0.0215631
-0.0226003
-0.0234139
-0.0239019
-0.0243287
-0.0246437
-0.0247607
-0.0246146
-0.0242568
-0.0239068
-0.0238629
-0.0242712
-0.0164361
-0.0170742
-0.0173584
-0.0176683
-0.0179964
-0.0183914
-0.0187685
-0.0190103
-0.0191167
-0.0192684
-0.019712
-0.020534
-0.0110962
-0.0113223
-0.0110906
-0.010973
-0.0110541
-0.0114543
-0.0121219
-0.0128997
-0.0137038
-0.0145982
-0.0157117
-0.0170604
-0.00583436
-0.00517909
-0.00478257
-0.00439925
-0.00428751
-0.00470549
-0.00564351
-0.00692896
-0.00843133
-0.0101102
-0.011967
-0.0139276
-0.00233285
0.000242267
0.00120163
0.00150727
0.00152107
0.000905032
-0.000328468
-0.00201542
-0.00405523
-0.00636178
-0.00884701
-0.0113612
-0.0529547
-0.0531613
-0.0531522
-0.0529308
-0.0525513
-0.0520714
-0.051506
-0.0511429
-0.0511836
-0.0515539
-0.051932
-0.0520049
-0.0482636
-0.0481003
-0.0478052
-0.0474146
-0.0469033
-0.0463553
-0.0461889
-0.0464773
-0.0472392
-0.0482804
-0.0491239
-0.0495683
-0.0445759
-0.044346
-0.0440516
-0.0437585
-0.0435129
-0.0433472
-0.0433313
-0.0436484
-0.0444603
-0.0458589
-0.0474562
-0.0482781
-0.0404441
-0.0402803
-0.0401446
-0.040061
-0.0400347
-0.0400821
-0.0402463
-0.040625
-0.0413148
-0.0425434
-0.0445356
-0.0462103
-0.0362667
-0.0363736
-0.0364989
-0.0365704
-0.0366074
-0.0366764
-0.0368769
-0.0372903
-0.0379269
-0.038791
-0.040585
-0.0434949
-0.0323563
-0.032672
-0.0329039
-0.0329995
-0.0330268
-0.0330705
-0.033217
-0.0335675
-0.0341583
-0.0348989
-0.0363906
-0.0400743
-0.0286129
-0.0291059
-0.0294272
-0.0295521
-0.0295628
-0.0295367
-0.0295613
-0.0297332
-0.0301455
-0.0308279
-0.0321438
-0.0357701
-0.0249809
-0.0256705
-0.0261199
-0.0263077
-0.0263095
-0.0262034
-0.0260478
-0.025936
-0.0260006
-0.0264314
-0.0274671
-0.0305304
-0.0215549
-0.0224768
-0.0231051
-0.023406
-0.0234212
-0.0231902
-0.0227539
-0.0222109
-0.0217196
-0.0215818
-0.0220957
-0.0245795
-0.0184655
-0.019673
-0.0205142
-0.0209346
-0.0209403
-0.0205245
-0.0197181
-0.0186091
-0.0173301
-0.0161639
-0.0156738
-0.0171825
-0.015798
-0.0173492
-0.0184204
-0.018934
-0.0188661
-0.0182073
-0.0170031
-0.0153098
-0.0131623
-0.010632
-0.00815126
-0.00661888
-0.0136769
-0.0155557
-0.0168169
-0.0173547
-0.0171598
-0.016244
-0.0146874
-0.0125383
-0.00977296
-0.00623539
-0.00155167
0.0052031
-0.0477207
-0.0478618
-0.0481478
-0.048543
-0.0489478
-0.0494039
-0.0498991
-0.050439
-0.051023
-0.0516335
-0.0522268
-0.0527488
-0.0442152
-0.0445051
-0.0448778
-0.0452859
-0.0457194
-0.0461644
-0.0465828
-0.0469842
-0.0474026
-0.0478277
-0.0481958
-0.0484247
-0.0417954
-0.0421503
-0.0426626
-0.0431926
-0.0435958
-0.0438617
-0.0440463
-0.0442104
-0.0444058
-0.0446276
-0.0448111
-0.0448777
-0.0384232
-0.0390509
-0.0397695
-0.0403327
-0.0408247
-0.0410364
-0.0410668
-0.0410213
-0.0409759
-0.0409505
-0.0409056
-0.0408017
-0.0348802
-0.0358292
-0.0367776
-0.0375319
-0.0379085
-0.0380051
-0.0378755
-0.0376112
-0.0372901
-0.0369624
-0.0366682
-0.036474
-0.030876
-0.0320665
-0.0330919
-0.0338225
-0.0342603
-0.0344054
-0.0342699
-0.0339097
-0.0334033
-0.0328637
-0.0324515
-0.0323226
-0.0264535
-0.0276889
-0.0286656
-0.0293502
-0.0298116
-0.0300408
-0.0299991
-0.029678
-0.0291438
-0.0285762
-0.0282367
-0.0283092
-0.0216272
-0.0226757
-0.0234916
-0.0239918
-0.0244266
-0.0247515
-0.0248818
-0.0247498
-0.024402
-0.0240515
-0.0239936
-0.0243829
-0.0164966
-0.0171396
-0.0174314
-0.0177344
-0.0180611
-0.0184611
-0.0188496
-0.0191066
-0.0192261
-0.0193819
-0.019819
-0.0206301
-0.0111576
-0.0113791
-0.011146
-0.011023
-0.0110979
-0.0114981
-0.012172
-0.0129612
-0.0137782
-0.0146815
-0.0157967
-0.0171432
-0.00590308
-0.00524307
-0.00483666
-0.00444684
-0.0043237
-0.00474277
-0.00568533
-0.00697754
-0.00848851
-0.0101756
-0.0120371
-0.0140012
-0.00241628
0.000184204
0.00116071
0.00145282
0.00148966
0.000864933
-0.000377943
-0.00207241
-0.00411828
-0.0064295
-0.00891762
-0.0114358
-0.0531427
-0.0533534
-0.0533448
-0.0531189
-0.0527308
-0.052242
-0.051673
-0.0513044
-0.0513367
-0.0516979
-0.0520709
-0.0521432
-0.0484602
-0.048307
-0.0480137
-0.0476158
-0.0470929
-0.0465313
-0.0463472
-0.0466231
-0.0473756
-0.0484086
-0.0492477
-0.0496931
-0.0447858
-0.044554
-0.0442453
-0.0439306
-0.043664
-0.0434843
-0.0434589
-0.0437717
-0.0445852
-0.0459882
-0.0475866
-0.0484074
-0.0406414
-0.040461
-0.0403056
-0.0402067
-0.0401723
-0.0402139
-0.0403723
-0.0407464
-0.0414365
-0.0426754
-0.0446772
-0.0463446
-0.036436
-0.0365253
-0.0366415
-0.03671
-0.0367446
-0.0368094
-0.0370054
-0.0374143
-0.0380482
-0.038918
-0.0407253
-0.04363
-0.0324964
-0.0328021
-0.0330337
-0.0331297
-0.0331545
-0.0331949
-0.0333381
-0.033686
-0.0342752
-0.035018
-0.0365202
-0.0402076
-0.0287293
-0.0292196
-0.029545
-0.0296718
-0.0296806
-0.0296512
-0.029673
-0.0298437
-0.0302569
-0.0309434
-0.0322702
-0.0359036
-0.0250812
-0.0257719
-0.026227
-0.0264173
-0.0264176
-0.0263087
-0.0261507
-0.0260385
-0.0261052
-0.0265421
-0.0275913
-0.0306601
-0.0216453
-0.0225697
-0.0232036
-0.0235072
-0.0235214
-0.0232875
-0.0228485
-0.0223048
-0.0218161
-0.021686
-0.0222112
-0.0246892
-0.0185491
-0.0197616
-0.0206082
-0.0210304
-0.0210344
-0.0206144
-0.0198037
-0.0186929
-0.0174161
-0.0162594
-0.0157757
-0.0172647
-0.0158779
-0.0174372
-0.0185139
-0.019027
-0.0189557
-0.01829
-0.017079
-0.0153815
-0.0132345
-0.0107135
-0.00823466
-0.00668356
-0.0137594
-0.0156472
-0.0169129
-0.0174453
-0.0172462
-0.0163205
-0.014754
-0.0125976
-0.00982959
-0.00629816
-0.0016149
0.00515876
-0.047807
-0.0478732
-0.0480847
-0.0484419
-0.0488618
-0.049332
-0.04983
-0.0503696
-0.0509541
-0.0515653
-0.0521579
-0.0526769
-0.0442474
-0.0445207
-0.0448798
-0.0452716
-0.0456868
-0.0461166
-0.0465248
-0.0469229
-0.0473429
-0.0477688
-0.0481325
-0.0483504
-0.041864
-0.0421887
-0.0426702
-0.0431708
-0.0435481
-0.0437991
-0.0439744
-0.0441354
-0.0443314
-0.0445516
-0.0447274
-0.0447816
-0.0384599
-0.039068
-0.0397562
-0.0402777
-0.0407606
-0.0409608
-0.0409824
-0.0409326
-0.0408858
-0.0408573
-0.040807
-0.0407003
-0.0349103
-0.0358372
-0.0367587
-0.0374918
-0.0378448
-0.0379262
-0.0377871
-0.0375173
-0.037193
-0.0368625
-0.0365695
-0.0363854
-0.0309022
-0.0320692
-0.0330717
-0.033784
-0.0342061
-0.0343379
-0.0341916
-0.0338232
-0.033311
-0.0327706
-0.0323672
-0.0322572
-0.026481
-0.0276973
-0.0286587
-0.0293302
-0.0297802
-0.0299976
-0.0299434
-0.0296103
-0.0290677
-0.0285005
-0.028174
-0.0282674
-0.0216583
-0.0226958
-0.0235077
-0.0239984
-0.0244258
-0.0247405
-0.0248569
-0.0247097
-0.0243506
-0.0239991
-0.0239531
-0.0243595
-0.0165275
-0.0171675
-0.0174536
-0.0177618
-0.0180891
-0.0184831
-0.018859
-0.0190996
-0.019205
-0.0193556
-0.0197984
-0.0206199
-0.0111816
-0.0114129
-0.0111812
-0.0110643
-0.0111447
-0.0115433
-0.012209
-0.0129851
-0.013788
-0.0146818
-0.0157952
-0.0171446
-0.00591291
-0.00526074
-0.00486781
-0.0044914
-0.0043799
-0.00479619
-0.00573178
-0.00701473
-0.00851505
-0.0101927
-0.0120494
-0.014011
-0.00239806
0.000166675
0.00111207
0.00140838
0.00142266
0.000808979
-0.000421556
-0.0021052
-0.00414188
-0.00644611
-0.00893018
-0.0114447
-0.0530661
-0.0532721
-0.0532611
-0.0530363
-0.0526527
-0.0521682
-0.0515987
-0.0512335
-0.0512746
-0.0516469
-0.0520265
-0.0520996
-0.0483715
-0.0482063
-0.0479081
-0.0475135
-0.0469977
-0.0464455
-0.046277
-0.0465656
-0.0473302
-0.0483752
-0.0492211
-0.0496665
-0.0446797
-0.0444476
-0.0441502
-0.0438539
-0.0436053
-0.0434372
-0.0434199
-0.0437373
-0.0445517
-0.0459549
-0.0475562
-0.0483789
-0.0405454
-0.0403791
-0.0402411
-0.0401556
-0.0401279
-0.0401742
-0.0403375
-0.0407162
-0.0414072
-0.0426398
-0.0446375
-0.0463145
-0.0363647
-0.0364696
-0.036594
-0.0366649
-0.0367011
-0.0367694
-0.0369693
-0.0373828
-0.0380202
-0.0388874
-0.0406876
-0.0436024
-0.0324503
-0.0327652
-0.0329973
-0.0330928
-0.0331196
-0.0331628
-0.0333091
-0.0336601
-0.034252
-0.0349956
-0.0364939
-0.0401846
-0.0287034
-0.0291968
-0.0295189
-0.0296441
-0.0296546
-0.0296282
-0.0296528
-0.0298253
-0.0302391
-0.0309247
-0.0322477
-0.0358815
-0.0250689
-0.0257596
-0.0262103
-0.0263988
-0.0264007
-0.0262944
-0.0261386
-0.0260272
-0.0260928
-0.0265263
-0.0275685
-0.0306377
-0.0216414
-0.0225649
-0.0231948
-0.0234966
-0.0235122
-0.023281
-0.0228442
-0.0223006
-0.0218091
-0.0216723
-0.022189
-0.0246716
-0.0185513
-0.0197608
-0.0206038
-0.0210255
-0.0210315
-0.0206152
-0.0198076
-0.018697
-0.017416
-0.0162485
-0.0157543
-0.0172503
-0.0158834
-0.017437
-0.0185103
-0.0190252
-0.0189575
-0.0182977
-0.0170913
-0.0153951
-0.0132438
-0.0107091
-0.00821674
-0.00666321
-0.0137621
-0.0156432
-0.0169067
-0.0174459
-0.017251
-0.0163335
-0.0147737
-0.0126202
-0.00984927
-0.00630441
-0.00160537
0.00517656
0.00280539
0.00390085
0.0053936
0.00614736
0.00575231
0.00470176
0.00309617
0.00109333
-0.00125966
-0.00392633
-0.00679679
-0.0096714
0.00453603
0.00467294
0.00512419
0.00619892
0.00663695
0.00615385
0.00475339
0.00265003
0.000110444
-0.00271991
-0.00572329
-0.00870474
0.00475838
0.00519401
0.00598258
0.00657602
0.00674102
0.00612961
0.00483253
0.00292986
0.000521344
-0.00224901
-0.00520035
-0.00810608
0.00472759
0.00542384
0.00587044
0.00614725
0.00608836
0.00546047
0.00428051
0.00257844
0.000401632
-0.00213523
-0.00485416
-0.00752645
-0.0122846
-0.0143659
-0.0157032
-0.016187
-0.0157888
-0.0146214
-0.0127988
-0.010385
-0.00736688
-0.00370837
0.000381184
0.00408422
-0.011389
-0.013482
-0.0147513
-0.0150874
-0.0145118
-0.0131777
-0.011246
-0.00879367
-0.00581975
-0.00241274
0.00102987
0.00396587
-0.0106844
-0.0126366
-0.0137371
-0.0139059
-0.0132164
-0.0118576
-0.010002
-0.00769491
-0.0048944
-0.00178603
0.00118219
0.00361694
-0.00986841
-0.0115854
-0.0124843
-0.0125295
-0.0118391
-0.0106095
-0.00899999
-0.00699197
-0.00439821
-0.00149017
0.00109037
0.00317279
0.0028644
0.00394423
0.00541485
0.00614011
0.00576134
0.00471568
0.00311317
0.00111265
-0.00123811
-0.00390282
-0.00677016
-0.00963866
0.00459503
0.0047248
0.00516237
0.00620994
0.00664564
0.00616701
0.00477309
0.0026735
0.000135812
-0.00269276
-0.00569328
-0.0086696
0.00481043
0.00523997
0.00601639
0.00659893
0.00676019
0.00614971
0.00485551
0.00295573
0.000549475
-0.00221915
-0.00516845
-0.00807056
0.00477127
0.0054634
0.0059051
0.00617659
0.00611568
0.00548885
0.00431122
0.00261135
0.000436005
-0.00210004
-0.00481832
-0.00748929
-0.0122429
-0.0143153
-0.0156481
-0.0161318
-0.0157456
-0.0145911
-0.0127816
-0.0103781
-0.00736611
-0.00371113
0.000367083
0.00404437
-0.0113464
-0.0134326
-0.0146993
-0.0150393
-0.0144757
-0.0131563
-0.0112389
-0.00879689
-0.00582817
-0.00242366
0.00101057
0.00392681
-0.0106435
-0.0125917
-0.013692
-0.0138669
-0.01319
-0.0118461
-0.0100038
-0.00770571
-0.00490939
-0.00180205
0.00116088
0.00358226
-0.00982848
-0.0115455
-0.0124464
-0.0125004
-0.0118227
-0.0106065
-0.00900808
-0.0070069
-0.00441675
-0.0015093
0.00106891
0.00314424
0.0027978
0.00389135
0.00539274
0.00615633
0.00573191
0.00466894
0.00305486
0.00104498
-0.00131425
-0.00398416
-0.00685228
-0.00972199
0.00453627
0.0046652
0.00511783
0.00619934
0.00662287
0.00612416
0.00471114
0.00259996
5.41589e-05
-0.0027805
-0.00578268
-0.0087594
0.0047641
0.0051918
0.00597993
0.00657105
0.00672488
0.00610014
0.00479228
0.00288204
0.000466794
-0.00231091
-0.00526901
-0.00817168
0.00473752
0.00542593
0.00586792
0.00614025
0.00607173
0.00543226
0.00424143
0.00253058
0.000345604
-0.0021946
-0.00492074
-0.00759229
-0.0123321
-0.0144118
-0.015748
-0.0162311
-0.0158301
-0.0146621
-0.01284
-0.0104263
-0.00740762
-0.00375415
0.000324075
0.00402244
-0.0114397
-0.0135301
-0.0147981
-0.0151331
-0.014556
-0.0132221
-0.0112917
-0.00883823
-0.00585849
-0.00244826
0.000986839
0.00391097
-0.0107389
-0.0126864
-0.0137859
-0.013954
-0.0132646
-0.0119075
-0.0100547
-0.00774683
-0.00493836
-0.00182345
0.00114235
0.00356353
-0.00991765
-0.0116302
-0.0125306
-0.0125771
-0.0118892
-0.0106636
-0.00905953
-0.00705282
-0.00445408
-0.00154984
0.00102345
0.00309436
0.00279734
0.00386841
0.00532858
0.00604591
0.00566095
0.00461583
0.00301543
0.00101813
-0.00132859
-0.00398941
-0.00685403
-0.00972158
0.00452772
0.00464551
0.00507412
0.0061136
0.00654228
0.00606457
0.00467455
0.00257887
4.53019e-05
-0.0027789
-0.0057758
-0.00875036
0.00473446
0.00514998
0.00592112
0.00650021
0.00665845
0.0060491
0.0047585
0.00286293
0.000461276
-0.00230282
-0.00524861
-0.00814911
0.00467219
0.00535916
0.00580353
0.00607723
0.00601759
0.00539315
0.00421901
0.00252301
0.000351581
-0.00218079
-0.00489636
-0.00756627
-0.0123267
-0.0144014
-0.0157366
-0.0162219
-0.0158354
-0.0146785
-0.0128647
-0.0104556
-0.00743676
-0.00377293
0.000320601
0.00402159
-0.0114277
-0.0135162
-0.0147857
-0.0151272
-0.014563
-0.0132404
-0.0113176
-0.00886902
-0.00589282
-0.00247893
0.000969484
0.00390563
-0.0107228
-0.0126733
-0.0137762
-0.0139521
-0.0132736
-0.0119255
-0.0100771
-0.00777188
-0.00496765
-0.00185104
0.0011243
0.00356163
-0.00990626
-0.0116252
-0.0125279
-0.0125818
-0.0119016
-0.0106806
-0.00907565
-0.00706717
-0.00446905
-0.00155216
0.0010368
0.00312401
-0.00360018
-0.00598347
-0.00817895
-0.00985432
-0.0108715
-0.0111654
-0.0108292
-0.00999493
-0.00879114
-0.00723498
-0.00517669
-0.00268908
-0.00324879
-0.00532679
-0.00732014
-0.00877377
-0.00969936
-0.0100268
-0.00980964
-0.00913936
-0.00812011
-0.00676715
-0.00494128
-0.002744
-0.00295614
-0.00481798
-0.00652814
-0.00785092
-0.00871792
-0.00907439
-0.00896516
-0.00844714
-0.00761012
-0.00645875
-0.00485108
-0.00292219
-0.00274988
-0.00440614
-0.0059128
-0.00711206
-0.00792396
-0.0083102
-0.00827175
-0.00788627
-0.00721528
-0.00626545
-0.00493417
-0.00338255
6.67803e-05
0.00217303
0.0038119
0.00479019
0.00532426
0.00557995
0.00550148
0.00502081
0.00409668
0.00272666
0.000932689
-0.00121712
2.16009e-05
0.00193596
0.0034811
0.00443549
0.00495855
0.00517487
0.00504098
0.00455023
0.00367227
0.00240789
0.000782546
-0.00113898
2.41322e-05
0.00186236
0.00323707
0.004095
0.00456222
0.00471384
0.00457037
0.00409645
0.00327511
0.00211191
0.000637999
-0.00108228
0.00040521
0.00204733
0.0031
0.00380994
0.00419936
0.00428895
0.00413272
0.00366877
0.00289659
0.00182463
0.000484275
-0.0010633
-0.00358634
-0.00597227
-0.00817326
-0.00985483
-0.010874
-0.0111716
-0.0108394
-0.0100074
-0.0088013
-0.00724112
-0.00517631
-0.0026717
-0.00323627
-0.00531683
-0.00731419
-0.00877393
-0.00970233
-0.0100327
-0.00981763
-0.0091476
-0.00812467
-0.00676596
-0.00493062
-0.00271704
-0.0029476
-0.00480701
-0.00652055
-0.00784953
-0.00871965
-0.00907853
-0.00897045
-0.00845146
-0.0076102
-0.00645325
-0.00483649
-0.00289322
-0.00274461
-0.00439565
-0.00590507
-0.00710958
-0.00792424
-0.00831219
-0.0082743
-0.00788718
-0.00721185
-0.00625769
-0.00491891
-0.00335655
0.000123932
0.00222742
0.00387145
0.00485616
0.00539137
0.00564713
0.00556588
0.00508088
0.00415117
0.00277584
0.000977542
-0.00117543
7.46753e-05
0.00199257
0.00353927
0.00449704
0.00502035
0.00523647
0.00509996
0.00460608
0.00372397
0.00245546
0.000826824
-0.00109703
7.30982e-05
0.00191539
0.00329275
0.00415297
0.00461979
0.00476474
0.0046251
0.00414912
0.00332463
0.00215845
0.000682424
-0.00103912
0.000449798
0.00209745
0.00315337
0.0038653
0.00425509
0.0043462
0.00418609
0.00371968
0.00294482
0.00187049
0.00052883
-0.00101851
-0.00354665
-0.00593281
-0.00813317
-0.00981222
-0.010827
-0.0111174
-0.0107774
-0.00993841
-0.00872929
-0.00717037
-0.00510981
-0.00261057
-0.00319631
-0.00527628
-0.00727168
-0.00872897
-0.0096526
-0.00997687
-0.00975594
-0.009081
-0.00805672
-0.00669962
-0.00486836
-0.00265977
-0.00290729
-0.00476591
-0.0064771
-0.00780334
-0.00866913
-0.0090224
-0.00891015
-0.00838774
-0.00754625
-0.00639075
-0.00477783
-0.00283949
-0.00270504
-0.00435474
-0.00586148
-0.00706294
-0.0078738
-0.00825828
-0.00821582
-0.00782643
-0.00715171
-0.00619802
-0.00486264
-0.0033049
0.000178992
0.00227456
0.00391212
0.00489364
0.00542669
0.00567982
0.00559863
0.00511482
0.00418714
0.00281354
0.00101615
-0.00113675
0.000128509
0.00203926
0.00358079
0.00453636
0.00505824
0.00527232
0.00513615
0.00464264
0.00376157
0.002494
0.000865601
-0.00105868
0.00012423
0.0019611
0.00333509
0.00419346
0.00465958
0.00480964
0.00466369
0.00418725
0.00336325
0.00219736
0.000720887
-0.00100173
0.00049733
0.00214166
0.00319555
0.00390604
0.00429455
0.0043826
0.00422448
0.00375831
0.0029838
0.00190949
0.00056699
-0.000982334
-0.00350837
-0.00589533
-0.0080962
-0.0097766
-0.0107948
-0.0110929
-0.010763
-0.00993503
-0.00873442
-0.00718085
-0.00512323
-0.00262728
-0.00315834
-0.00523983
-0.00723774
-0.00869685
-0.00962498
-0.00995626
-0.00974334
-0.00907689
-0.0080588
-0.00670642
-0.00487777
-0.00267221
-0.00286971
-0.00473023
-0.00644437
-0.00777335
-0.00864368
-0.00900362
-0.00889755
-0.00838165
-0.00754448
-0.00639379
-0.00478288
-0.00284723
-0.0026671
-0.00431898
-0.005829
-0.00703385
-0.007849
-0.00823804
-0.00820217
-0.00781775
-0.0071454
-0.00619807
-0.00486385
-0.00330862
0.00015799
0.00225136
0.00388685
0.00486375
0.00539278
0.00564421
0.00555317
0.00505813
0.00411941
0.00273665
0.000930483
-0.0012302
0.000107076
0.00201433
0.00355275
0.00450292
0.00501993
0.00523377
0.00508633
0.00458393
0.00369406
0.00241942
0.000785148
-0.00114638
0.000102545
0.00193374
0.00330337
0.00415658
0.00461614
0.00474649
0.00460884
0.00412665
0.00329497
0.00212264
0.000642017
-0.00108339
0.000474456
0.00211198
0.00316119
0.00386691
0.00425063
0.00433676
0.00416967
0.00369685
0.00291511
0.00183426
0.000487729
-0.00106163
-0.00259387
-0.00406271
-0.00540918
-0.00650066
-0.00726159
-0.00765627
-0.0076894
-0.00741429
-0.00688238
-0.00611736
-0.00512602
-0.00412895
-0.00243603
-0.00377076
-0.00498878
-0.00598947
-0.00670672
-0.00710746
-0.0071952
-0.00700692
-0.00658534
-0.00596776
-0.00520915
-0.00449119
-0.00231183
-0.00353108
-0.00464444
-0.00556963
-0.00624886
-0.00665195
-0.00677926
-0.00665959
-0.00632926
-0.00583716
-0.00525855
-0.00474705
-0.00221465
-0.0033387
-0.00436739
-0.00523067
-0.00587768
-0.00628082
-0.0064391
-0.00637468
-0.00612244
-0.00573607
-0.00529409
-0.00492519
-0.00213868
-0.00318577
-0.00414641
-0.00495979
-0.00558039
-0.00598315
-0.006166
-0.00614754
-0.00596166
-0.00566204
-0.00532304
-0.00505253
-0.00207892
-0.00306485
-0.00397119
-0.00474474
-0.00534419
-0.00574658
-0.00594934
-0.00596901
-0.00583825
-0.00560808
-0.00534646
-0.0051445
-0.00203199
-0.00296975
-0.0038335
-0.00457565
-0.00515841
-0.00556055
-0.00577943
-0.00583019
-0.00574397
-0.00556845
-0.00536499
-0.0052114
-0.0019954
-0.00289592
-0.00372697
-0.00444491
-0.00501487
-0.00541694
-0.00564865
-0.00572414
-0.00567293
-0.00553958
-0.00537966
-0.00526044
-0.0019673
-0.00283999
-0.0036468
-0.00434677
-0.00490733
-0.00530943
-0.0055511
-0.00564561
-0.00562109
-0.0055194
-0.00539152
-0.00529654
-0.00194623
-0.00279935
-0.0035893
-0.00427673
-0.00483095
-0.00523316
-0.00548233
-0.00559076
-0.00558564
-0.00550676
-0.00540156
-0.00532309
-0.00193095
-0.00277196
-0.00355149
-0.00423116
-0.00478189
-0.00518465
-0.0054388
-0.00555667
-0.00556456
-0.00550085
-0.00541047
-0.00534251
-0.00192155
-0.00275658
-0.00353083
-0.00420626
-0.00475341
-0.00515948
-0.00541718
-0.00554048
-0.00555555
-0.00549994
-0.00541751
-0.00535635
0.00150711
0.00237298
0.00306414
0.00359927
0.00389812
0.0039439
0.00375359
0.00329453
0.00256282
0.00156892
0.000344186
-0.00104903
0.00217507
0.00262351
0.00306872
0.00344605
0.00365269
0.00364902
0.00342925
0.00297315
0.00227638
0.00134963
0.000222314
-0.00105597
0.00256452
0.00279413
0.00307394
0.00332655
0.0034508
0.00339943
0.00315469
0.00270052
0.00203317
0.00116322
0.000118072
-0.00105941
0.00277024
0.00289353
0.0030675
0.00322715
0.00328322
0.00319017
0.00292476
0.00247232
0.00182956
0.00100682
2.97717e-05
-0.00106295
0.00287909
0.0029465
0.00305089
0.00314197
0.00314414
0.00301661
0.00273448
0.00228376
0.00166147
0.000877654
-4.36792e-05
-0.00106682
0.00293683
0.00297171
0.00302861
0.00306905
0.00302966
0.00287463
0.00257925
0.00213025
0.00152482
0.000772685
-0.000103551
-0.00107053
0.00296557
0.00298061
0.0030045
0.00300772
0.00293692
0.0027606
0.00245504
0.00200768
0.00141591
0.000689153
-0.000151137
-0.00107358
0.00297775
0.00298024
0.00298129
0.00295758
0.00286366
0.00267139
0.00235832
0.0019125
0.00133157
0.000624657
-0.000187654
-0.00107555
0.0029804
0.00297505
0.00296068
0.00291818
0.00280797
0.00260434
0.00228609
0.00184171
0.00126909
0.000577139
-0.000214191
-0.00107625
0.00297765
0.00296774
0.00294366
0.002889
0.00276826
0.00255727
0.00223586
0.00179281
0.00122623
0.000544926
-0.000231628
-0.00107559
0.00297165
0.00295991
0.0029308
0.00286959
0.00274321
0.00252843
0.00220566
0.00176382
0.00120125
0.000526735
-0.000240663
-0.00107335
0.00296381
0.00295352
0.00292307
0.00285965
0.00273129
0.00251546
0.00219243
0.00175143
0.00119094
0.000519844
-0.000243533
-0.00107018
-0.00258474
-0.0040531
-0.00540171
-0.00649731
-0.00726049
-0.00765638
-0.00768957
-0.00741271
-0.00687717
-0.00610794
-0.00511128
-0.00410748
-0.00242962
-0.00376216
-0.00498141
-0.00598513
-0.00670421
-0.00710586
-0.00719345
-0.00700359
-0.00657903
-0.00595785
-0.00519531
-0.00447328
-0.00230662
-0.00352357
-0.00463731
-0.00556448
-0.00624516
-0.00664895
-0.00677608
-0.00665509
-0.00632235
-0.00582729
-0.00524565
-0.00473158
-0.00221052
-0.00333224
-0.00436068
-0.00522509
-0.00587313
-0.00627678
-0.00643485
-0.00636928
-0.0061151
-0.00572634
-0.005282
-0.00491138
-0.00213529
-0.00318022
-0.00414017
-0.00495406
-0.00557532
-0.00597837
-0.00616092
-0.0061415
-0.00595401
-0.00565245
-0.0053116
-0.00503986
-0.0020762
-0.00305998
-0.00396542
-0.00473904
-0.0053388
-0.00574129
-0.0059437
-0.00596252
-0.00583039
-0.00559862
-0.00533551
-0.00513264
-0.00202987
-0.00296544
-0.00382815
-0.00457004
-0.00515285
-0.00555495
-0.00577342
-0.00582339
-0.00573597
-0.0055591
-0.00535443
-0.00520013
-0.00199383
-0.00289208
-0.00372199
-0.00443942
-0.00500923
-0.00541112
-0.00564239
-0.00571711
-0.00566485
-0.00553032
-0.00536938
-0.0052496
-0.00196617
-0.00283656
-0.0036421
-0.00434138
-0.00490164
-0.00530347
-0.00554467
-0.00563844
-0.00561295
-0.00551022
-0.00538146
-0.005286
-0.0019454
-0.00279622
-0.00358479
-0.00427142
-0.00482524
-0.00522712
-0.00547579
-0.0055835
-0.00557748
-0.00549764
-0.00539166
-0.00531276
-0.00193027
-0.00276894
-0.00354706
-0.00422591
-0.00477616
-0.00517856
-0.0054322
-0.00554937
-0.00555638
-0.00549178
-0.00540066
-0.00533232
-0.00192097
-0.00275362
-0.00352645
-0.00420104
-0.00474775
-0.00515337
-0.00541054
-0.00553316
-0.00554737
-0.0054909
-0.00540775
-0.00534621
0.0015524
0.00242159
0.00311591
0.00365271
0.0039521
0.00399854
0.00380554
0.00334424
0.00261031
0.00161455
0.000389105
-0.00100088
0.00222079
0.00267181
0.00311954
0.00349814
0.00370523
0.00370159
0.00348
0.00302201
0.00232338
0.0013951
0.000267036
-0.00101084
0.00261086
0.00284245
0.00312413
0.00337765
0.00350219
0.00345056
0.00320451
0.00274877
0.00207985
0.0012086
0.000162653
-0.00101529
0.00281719
0.00294191
0.00311721
0.00327751
0.00333374
0.00324029
0.00297387
0.00252014
0.00187604
0.00105217
7.43072e-05
-0.00101912
0.00292649
0.0029949
0.00310022
0.00319177
0.00319401
0.00306607
0.00278308
0.00233128
0.00170783
0.000922982
8.73591e-07
-0.001023
0.00298452
0.00302008
0.00307767
0.00311844
0.00307904
0.00292361
0.00262749
0.00217754
0.00157109
0.000818022
-5.8939e-05
-0.0010266
0.00301344
0.00302896
0.00305335
0.0030568
0.00298594
0.00280922
0.00250301
0.00205481
0.00146212
0.000734513
-0.00010645
-0.0010295
0.00302573
0.00302856
0.00302998
0.00300642
0.00291242
0.00271977
0.0024061
0.00195952
0.00137775
0.000670044
-0.000142895
-0.00103134
0.00302846
0.00302335
0.00300926
0.00296686
0.00285656
0.00265256
0.00233374
0.00188865
0.00131524
0.000622548
-0.000169376
-0.00103194
0.00302576
0.00301602
0.00299217
0.00293758
0.00281672
0.00260538
0.00228342
0.00183969
0.00127236
0.000590354
-0.000186772
-0.0010312
0.00301978
0.00300818
0.00297927
0.0029181
0.00279159
0.00257647
0.00225316
0.00181065
0.00124736
0.000572173
-0.000195787
-0.0010289
0.00301198
0.0030018
0.00297152
0.00290814
0.00277963
0.00256346
0.0022399
0.00179824
0.00123704
0.000565292
-0.000198677
-0.00102569
-0.00254785
-0.00401207
-0.00535793
-0.00645037
-0.00721019
-0.00760292
-0.00763282
-0.00735435
-0.00681925
-0.00605108
-0.00505648
-0.00405532
-0.00238921
-0.00372028
-0.00493728
-0.00593814
-0.00665429
-0.00705318
-0.00713827
-0.00694712
-0.00652275
-0.00590247
-0.00514121
-0.00442045
-0.00226478
-0.00348095
-0.00459286
-0.0055176
-0.00619572
-0.0065971
-0.00672214
-0.00659999
-0.00626717
-0.00577269
-0.0051919
-0.00467846
-0.00216791
-0.00328903
-0.00431596
-0.0051783
-0.0058241
-0.00622562
-0.00638188
-0.00631524
-0.00606078
-0.0056723
-0.00522849
-0.00485821
-0.00209216
-0.00313653
-0.0040952
-0.00490729
-0.00552658
-0.00592774
-0.00610872
-0.00608825
-0.00590035
-0.00559886
-0.00525831
-0.00498674
-0.00203267
-0.00301594
-0.00392023
-0.00469225
-0.00529026
-0.00569106
-0.00589206
-0.00590985
-0.00577725
-0.00554541
-0.00528243
-0.00507962
-0.00198604
-0.00292112
-0.00378277
-0.00452322
-0.00510444
-0.005505
-0.00572217
-0.00577116
-0.00568322
-0.00550618
-0.00530152
-0.0051472
-0.00194976
-0.00284754
-0.00367647
-0.00439257
-0.00496091
-0.00536139
-0.00559142
-0.00566521
-0.00561239
-0.00547761
-0.00531661
-0.00519677
-0.00192191
-0.00279184