/*--------------------------------*- C++ -*----------------------------------*\
| =========                 |                                                 |
| \\      /  F ield         | OpenFOAM: The Open Source CFD Toolbox           |
|  \\    /   O peration     | Version:  v1606+                                |
|   \\  /    A nd           | Web:      www.OpenFOAM.com                      |
|    \\/     M anipulation  |                                                 |
\*---------------------------------------------------------------------------*/
FoamFile
{
    version     2.0;
    format      ascii;
    class       volVectorField;
    location    "1.6";
    object      U;
}
// * * * * * * * * * * * * * * * * * * * * * * * * * * * * * * * * * * * * * //

dimensions      [0 1 -1 0 0 0 0];

internalField   nonuniform List<vector> 
3072
(
(0.072923 -0.113606 7.7651e-19)
(0.0614329 -0.111671 0)
(0.050194 -0.113694 1.56552e-19)
(0.0397131 -0.112373 1.51184e-19)
(0.0300653 -0.11275 0)
(0.0206407 -0.113802 0)
(0.0120061 -0.115781 -7.72204e-20)
(0.00355542 -0.118666 0)
(-0.00542985 -0.122191 4.32745e-20)
(-0.0152372 -0.126151 -8.15243e-20)
(-0.0258589 -0.130756 -1.52226e-19)
(-0.0374615 -0.136396 1.28523e-19)
(0.0927111 -0.119192 -5.27929e-19)
(0.0879324 -0.118983 7.95531e-19)
(0.0793784 -0.121734 0)
(0.0696074 -0.125087 -4.03897e-19)
(0.0582716 -0.129994 0)
(0.0443929 -0.136826 -4.15506e-19)
(0.0301444 -0.145173 2.15538e-19)
(0.017257 -0.154322 2.07835e-19)
(0.00464531 -0.16345 -1.00865e-19)
(-0.00955284 -0.172573 0)
(-0.0264207 -0.182514 -1.30409e-19)
(-0.0459342 -0.193888 3.74797e-19)
(0.0962122 -0.130644 -6.84549e-19)
(0.0879808 -0.129641 4.33396e-19)
(0.0751665 -0.131919 -6.72264e-19)
(0.0594665 -0.13672 6.92612e-19)
(0.0439335 -0.144643 2.27572e-19)
(0.0300069 -0.154541 6.92442e-21)
(0.015982 -0.165286 1.21823e-19)
(0.00220414 -0.176322 -1.76144e-19)
(-0.0124531 -0.187755 1.39315e-19)
(-0.030672 -0.200251 2.71373e-20)
(-0.0536923 -0.21434 -2.57637e-20)
(-0.0799476 -0.229435 1.95408e-19)
(0.116725 -0.138049 -1.96063e-19)
(0.108682 -0.135979 -1.52932e-20)
(0.0925757 -0.140847 -2.80874e-21)
(0.0725784 -0.14786 3.91777e-19)
(0.0491875 -0.157108 -2.14728e-19)
(0.027106 -0.168589 1.02643e-19)
(0.00790395 -0.180307 1.98632e-19)
(-0.00956124 -0.192411 9.69637e-20)
(-0.0285774 -0.206065 -1.1702e-19)
(-0.0527202 -0.221725 2.61483e-21)
(-0.0817484 -0.238544 -8.25721e-20)
(-0.11114 -0.254469 7.80812e-20)
(0.130301 -0.148762 -3.15512e-19)
(0.119268 -0.147565 4.68448e-19)
(0.0986548 -0.1558 -6.51457e-19)
(0.0758347 -0.166981 3.44428e-19)
(0.0517467 -0.177711 -3.50086e-19)
(0.0268201 -0.187849 -1.69889e-19)
(0.00318232 -0.198138 0)
(-0.019402 -0.209796 0)
(-0.0440632 -0.224005 0)
(-0.073285 -0.240025 1.53799e-20)
(-0.104672 -0.255354 -1.67532e-20)
(-0.131711 -0.267216 -6.00015e-20)
(0.146002 -0.159698 -4.90467e-19)
(0.131145 -0.162313 0)
(0.107971 -0.174391 1.46958e-19)
(0.0833006 -0.187351 0)
(0.0569664 -0.19892 2.83509e-19)
(0.029229 -0.208653 -8.70628e-21)
(0.00104593 -0.217812 0)
(-0.0274083 -0.22813 -6.21091e-20)
(-0.0575206 -0.240416 -2.90913e-20)
(-0.0895308 -0.253074 0)
(-0.119465 -0.262971 0)
(-0.140546 -0.267825 5.68081e-20)
(0.157423 -0.172143 1.24391e-20)
(0.139014 -0.180731 6.26762e-19)
(0.115566 -0.196127 -2.25206e-19)
(0.0908992 -0.210204 0)
(0.063898 -0.221598 -2.4875e-19)
(0.0340206 -0.230684 -9.04793e-21)
(0.0018268 -0.238509 0)
(-0.0317269 -0.246246 1.06431e-19)
(-0.0658105 -0.25412 5.01062e-20)
(-0.0983673 -0.260479 0)
(-0.1247 -0.262844 2.10594e-20)
(-0.139149 -0.260252 -1.33851e-19)
(0.165158 -0.185766 -3.16512e-19)
(0.144674 -0.201185 -2.25456e-20)
(0.122195 -0.218445 -1.53087e-19)
(0.098141 -0.233659 1.83436e-19)
(0.0712484 -0.245372 -1.12784e-19)
(0.0404014 -0.254004 1.77951e-19)
(0.00588292 -0.260017 -7.6398e-20)
(-0.030682 -0.263893 -1.66476e-19)
(-0.0667043 -0.265599 -2.18083e-20)
(-0.0984175 -0.264225 0)
(-0.121011 -0.25881 -3.7654e-20)
(-0.130552 -0.250006 7.74989e-20)
(0.170132 -0.199893 -2.07333e-19)
(0.148661 -0.221064 1.20347e-19)
(0.126445 -0.238236 2.26031e-20)
(0.102984 -0.25343 0)
(0.0768982 -0.265687 1.70194e-20)
(0.0466171 -0.274703 -6.15534e-20)
(0.0120996 -0.279791 7.1812e-20)
(-0.0248557 -0.280454 3.50032e-20)
(-0.0607863 -0.276587 2.5693e-20)
(-0.0910922 -0.268447 0)
(-0.111273 -0.256984 1.68199e-20)
(-0.119054 -0.244498 -3.50169e-20)
(0.173362 -0.215602 9.01288e-20)
(0.151906 -0.237428 0)
(0.128759 -0.25089 7.42397e-20)
(0.104361 -0.262945 -7.45293e-20)
(0.0784281 -0.273829 -9.64219e-20)
(0.0495225 -0.283423 0)
(0.0171791 -0.289633 -2.80902e-20)
(-0.0175481 -0.290399 -1.01201e-20)
(-0.0515618 -0.284927 -5.56394e-20)
(-0.0804088 -0.274092 9.37879e-21)
(-0.10012 -0.260305 0)
(-0.109497 -0.24709 5.22632e-20)
(0.173521 -0.232843 -3.66842e-20)
(0.156432 -0.24732 3.17875e-20)
(0.133251 -0.253786 -3.19617e-20)
(0.10495 -0.258082 0)
(0.0759214 -0.263694 1.40234e-20)
(0.0467783 -0.271657 -2.54351e-20)
(0.0174561 -0.279373 1.68107e-20)
(-0.0129235 -0.283069 4.74056e-20)
(-0.0430977 -0.280411 0)
(-0.0696603 -0.271619 1.08409e-21)
(-0.0892486 -0.259168 0)
(-0.100687 -0.246597 0)
(0.170129 -0.207517 -1.39368e-20)
(0.156555 -0.236533 0)
(0.136431 -0.23885 0)
(0.109763 -0.238997 4.35117e-20)
(0.0745314 -0.239438 -3.40453e-21)
(0.040031 -0.241186 1.38339e-20)
(0.0106766 -0.246211 -8.03029e-21)
(-0.0149742 -0.251457 3.99139e-21)
(-0.0390589 -0.252823 -3.94654e-21)
(-0.0609304 -0.248518 0)
(-0.0781843 -0.239524 0)
(-0.0891147 -0.228453 -2.68158e-20)
(-0.0504394 -0.143102 8.04062e-20)
(-0.0649775 -0.150291 5.62366e-19)
(-0.080174 -0.156704 -9.44028e-19)
(-0.093881 -0.161043 4.60799e-19)
(-0.103814 -0.162192 0)
(-0.1089 -0.15905 0)
(-0.109602 -0.150483 5.90547e-19)
(-0.107357 -0.135926 -2.90457e-19)
(-0.1046 -0.11721 -1.10617e-18)
(-0.104046 -0.0969505 3.41859e-19)
(-0.107032 -0.0791169 6.96998e-19)
(-0.110372 -0.069892 -1.02202e-18)
(-0.0667933 -0.206307 -1.77842e-19)
(-0.0863975 -0.218444 -2.39169e-19)
(-0.101802 -0.228516 3.33432e-19)
(-0.111158 -0.234911 -3.31186e-19)
(-0.114388 -0.236375 2.09006e-19)
(-0.112929 -0.2325 4.29208e-19)
(-0.108243 -0.224111 -6.38016e-19)
(-0.102204 -0.210179 2.3139e-19)
(-0.0976695 -0.188294 -4.72531e-19)
(-0.0977652 -0.157077 7.72183e-19)
(-0.103682 -0.120089 0)
(-0.114335 -0.092132 -5.85711e-19)
(-0.105497 -0.243798 -8.91879e-20)
(-0.125852 -0.255563 -9.308e-20)
(-0.138197 -0.2637 -2.57111e-19)
(-0.142279 -0.268339 9.21987e-20)
(-0.139544 -0.270308 -3.56139e-19)
(-0.131877 -0.270265 1.81374e-19)
(-0.121935 -0.267863 -3.33306e-19)
(-0.111716 -0.261431 -1.67981e-19)
(-0.103648 -0.246556 0)
(-0.1019 -0.215844 0)
(-0.110644 -0.163274 0)
(-0.126533 -0.100397 -2.57091e-19)
(-0.134686 -0.26719 0)
(-0.1479 -0.275397 0)
(-0.150228 -0.279275 0)
(-0.14465 -0.280019 1.57779e-19)
(-0.135422 -0.279094 3.13085e-19)
(-0.125801 -0.278059 1.59498e-19)
(-0.116795 -0.278625 1.56141e-19)
(-0.108264 -0.280427 2.97444e-19)
(-0.100659 -0.279911 0)
(-0.0976741 -0.266838 0)
(-0.108257 -0.223021 0)
(-0.135291 -0.135199 0)
(-0.147986 -0.273883 0)
(-0.15115 -0.275307 0)
(-0.144017 -0.272866 1.24387e-19)
(-0.132269 -0.26864 0)
(-0.120945 -0.264829 1.3562e-19)
(-0.112475 -0.263109 2.65072e-19)
(-0.106543 -0.263707 -2.5665e-19)
(-0.102054 -0.267859 -4.06606e-19)
(-0.0974293 -0.275556 0)
(-0.0933902 -0.281118 -2.72915e-19)
(-0.101951 -0.264803 5.5582e-19)
(-0.141965 -0.186778 0)
(-0.147826 -0.267439 0)
(-0.141849 -0.263441 0)
(-0.12844 -0.258286 -1.25165e-19)
(-0.114933 -0.254135 2.51428e-19)
(-0.105845 -0.252029 -5.0684e-19)
(-0.101044 -0.251833 2.33608e-19)
(-0.0985948 -0.253177 2.56762e-19)
(-0.0974299 -0.256271 -4.76103e-19)
(-0.0962003 -0.262267 1.15975e-20)
(-0.0927768 -0.272185 0)
(-0.095169 -0.278775 -2.78017e-20)
(-0.140733 -0.233963 -1.53901e-20)
(-0.139207 -0.254167 1.88781e-19)
(-0.128273 -0.247438 -5.0219e-21)
(-0.114155 -0.242688 -3.15498e-19)
(-0.104032 -0.241139 -5.06126e-22)
(-0.099838 -0.242418 2.22877e-19)
(-0.0986952 -0.245278 -2.15577e-19)
(-0.0984475 -0.248891 -6.70856e-22)
(-0.0982907 -0.252894 4.09468e-19)
(-0.0980999 -0.257289 1.49354e-20)
(-0.0967151 -0.263389 1.85885e-19)
(-0.0941909 -0.274538 -4.03906e-19)
(-0.137332 -0.261987 -2.50077e-19)
(-0.127099 -0.240534 8.33763e-20)
(-0.116129 -0.23377 -1.88209e-19)
(-0.105841 -0.23173 1.94021e-19)
(-0.101485 -0.233943 -1.86272e-19)
(-0.101571 -0.238349 -1.01184e-20)
(-0.102089 -0.242871 9.52328e-22)
(-0.102058 -0.247196 3.46383e-19)
(-0.101671 -0.251473 0)
(-0.101205 -0.255903 0)
(-0.101664 -0.260933 -3.31217e-19)
(-0.0987687 -0.26808 1.81644e-19)
(-0.135954 -0.273845 -1.87568e-19)
(-0.116521 -0.234524 -6.39175e-20)
(-0.110097 -0.23012 -1.49095e-19)
(-0.106437 -0.231469 9.83577e-21)
(-0.106633 -0.235259 1.69866e-19)
(-0.106564 -0.238716 -1.77663e-19)
(-0.105312 -0.24174 0)
(-0.103708 -0.244625 -2.10827e-20)
(-0.10275 -0.247886 0)
(-0.102609 -0.251789 2.44924e-19)
(-0.104927 -0.257319 1.46105e-19)
(-0.105302 -0.262542 0)
(-0.137403 -0.275469 0)
(-0.111286 -0.237945 1.00549e-21)
(-0.110431 -0.234332 2.37377e-19)
(-0.109876 -0.234248 1.38617e-19)
(-0.108323 -0.234313 -8.17516e-21)
(-0.104815 -0.233751 -1.37629e-19)
(-0.101006 -0.233672 -1.27262e-19)
(-0.0983031 -0.234579 -6.88144e-21)
(-0.0978021 -0.236853 -1.06207e-19)
(-0.0998386 -0.240577 -1.21568e-19)
(-0.105811 -0.246508 0)
(-0.112708 -0.25378 -9.10235e-20)
(-0.14442 -0.265166 -4.15005e-20)
(-0.105487 -0.236658 -1.58479e-21)
(-0.106012 -0.229803 -2.97367e-19)
(-0.103469 -0.224543 -5.06339e-20)
(-0.0984154 -0.219842 -1.0848e-19)
(-0.0924629 -0.216268 0)
(-0.0874875 -0.21437 0)
(-0.0848427 -0.214277 8.87164e-20)
(-0.0856981 -0.216117 -8.65097e-20)
(-0.0908964 -0.219725 0)
(-0.102519 -0.225284 0)
(-0.120696 -0.233084 -5.10182e-20)
(-0.160051 -0.23356 9.39456e-20)
(-0.0936878 -0.217625 -1.04235e-19)
(-0.0928585 -0.207984 8.16487e-20)
(-0.0879657 -0.199681 -4.03386e-20)
(-0.0808574 -0.192988 2.83435e-19)
(-0.0736035 -0.188358 8.20484e-20)
(-0.0681733 -0.185933 -7.83539e-20)
(-0.0660199 -0.185744 1.44786e-19)
(-0.0681442 -0.187614 6.59535e-20)
(-0.0754418 -0.190935 8.22475e-20)
(-0.0905547 -0.194599 0)
(-0.117783 -0.198137 4.81298e-20)
(-0.171706 -0.171398 2.83882e-20)
(-0.110869 -0.0714066 3.2401e-19)
(-0.112113 -0.0602304 -1.10845e-18)
(-0.11252 -0.0496526 -3.69576e-21)
(-0.112541 -0.0397892 1.08998e-18)
(-0.112734 -0.0299636 -1.24262e-18)
(-0.113708 -0.0205716 2.39857e-19)
(-0.115781 -0.0120498 7.69686e-20)
(-0.118741 -0.00363715 -3.76801e-20)
(-0.122234 0.00534135 0)
(-0.126144 0.0151117 4.50818e-20)
(-0.130728 0.0256714 1.08841e-19)
(-0.136409 0.0372541 -1.7095e-19)
(-0.117275 -0.09387 2.753e-19)
(-0.118617 -0.0885362 -6.70029e-19)
(-0.121677 -0.079479 -5.37003e-19)
(-0.125361 -0.0693254 1.07795e-18)
(-0.130332 -0.0578293 -4.0338e-19)
(-0.137249 -0.0439275 8.3877e-21)
(-0.145639 -0.0299113 -7.2442e-20)
(-0.15475 -0.0172985 -5.01575e-23)
(-0.163778 -0.00480793 1.68823e-19)
(-0.172868 0.00947307 0)
(-0.182908 0.0265968 -1.29638e-19)
(-0.194496 0.0464556 1.23863e-19)
(-0.130545 -0.0964602 0)
(-0.13023 -0.0877966 -2.16549e-19)
(-0.132758 -0.0748655 4.53825e-19)
(-0.137713 -0.0591491 -9.19036e-19)
(-0.145536 -0.0438365 4.67198e-19)
(-0.155273 -0.0299898 3.5826e-19)
(-0.165907 -0.0160388 -2.35268e-19)
(-0.176875 -0.00241396 -1.75189e-19)
(-0.188327 0.0122787 5.57901e-20)
(-0.200981 0.0308169 0)
(-0.215311 0.0542934 2.45079e-20)
(-0.230599 0.0808834 1.93746e-19)
(-0.138091 -0.117016 -3.75088e-19)
(-0.136304 -0.108857 1.53899e-20)
(-0.141289 -0.0925681 0)
(-0.148362 -0.0723288 -5.86551e-19)
(-0.157652 -0.0488392 3.96622e-19)
(-0.169096 -0.0269364 -1.9884e-19)
(-0.180746 -0.0079366 1.97733e-19)
(-0.192878 0.00940914 0)
(-0.206681 0.028611 2.40326e-20)
(-0.222558 0.0532058 0)
(-0.239533 0.0826153 -1.03391e-19)
(-0.255444 0.112022 2.3189e-19)
(-0.148936 -0.13006 -2.18036e-20)
(-0.147985 -0.118909 4.57911e-19)
(-0.156267 -0.0982736 1.68098e-19)
(-0.167369 -0.0754899 5.21297e-19)
(-0.177926 -0.0514428 -3.42228e-19)
(-0.187982 -0.0266174 0)
(-0.198264 -0.00311435 -1.65566e-19)
(-0.21004 0.0194358 1.60571e-19)
(-0.224447 0.0443333 0)
(-0.240606 0.0739245 0)
(-0.255916 0.105438 -6.60817e-20)
(-0.267594 0.132154 3.70335e-21)
(-0.159837 -0.145758 -5.24743e-19)
(-0.162536 -0.130846 -2.7997e-19)
(-0.174514 -0.107697 1.46695e-19)
(-0.187353 -0.0830312 -1.36054e-19)
(-0.198785 -0.0566975 0)
(-0.208442 -0.028972 0)
(-0.217619 -0.000816308 0)
(-0.228064 0.0276665 -6.1761e-20)
(-0.240497 0.0579511 -3.06013e-20)
(-0.253181 0.0901373 2.90562e-20)
(-0.262943 0.119953 0)
(-0.267582 0.140525 -4.99992e-20)
(-0.172228 -0.157145 -3.92087e-19)
(-0.180777 -0.13874 4.29678e-19)
(-0.196014 -0.115335 -4.55994e-19)
(-0.209929 -0.090695 3.66188e-19)
(-0.221195 -0.0636599 0)
(-0.230216 -0.0337182 1.06306e-19)
(-0.238043 -0.00147009 0)
(-0.245848 0.0321359 5.70532e-20)
(-0.25378 0.0662937 0)
(-0.260089 0.0988473 0)
(-0.262303 0.124919 0)
(-0.259579 0.138846 -4.22318e-20)
(-0.185783 -0.164976 -1.2014e-19)
(-0.201078 -0.144492 1.69742e-19)
(-0.218209 -0.12206 -3.24917e-19)
(-0.233296 -0.0980263 -1.83009e-19)
(-0.244881 -0.0710761 1.78875e-19)
(-0.25341 -0.0401195 -9.84799e-20)
(-0.259355 -0.00549402 0)
(-0.263207 0.0311401 0)
(-0.26489 0.067174 0)
(-0.263447 0.0987825 9.47483e-21)
(-0.257939 0.121079 -9.37927e-21)
(-0.24912 0.130187 4.17412e-20)
(-0.199894 -0.170044 2.26822e-19)
(-0.220934 -0.14856 3.21645e-21)
(-0.238036 -0.126417 -3.99343e-22)
(-0.253139 -0.103004 1.23999e-19)
(-0.265283 -0.0768789 -3.78177e-20)
(-0.27415 -0.046474 -6.14412e-20)
(-0.27908 -0.0118075 0)
(-0.279607 0.0252526 0)
(-0.275639 0.0611925 2.56186e-20)
(-0.267422 0.0913751 0)
(-0.25593 0.111293 0)
(-0.243519 0.118754 0)
(-0.215601 -0.17337 -8.99124e-20)
(-0.237332 -0.151896 7.43926e-20)
(-0.2508 -0.12881 -2.44835e-19)
(-0.262801 -0.104498 7.43234e-20)
(-0.273617 -0.0785899 8.25262e-20)
(-0.283086 -0.0496008 -3.63337e-20)
(-0.289114 -0.0170953 2.80466e-20)
(-0.289672 0.0177844 -3.05383e-20)
(-0.284017 0.0518573 -2.47832e-20)
(-0.27306 0.080631 5.61836e-21)
(-0.25925 0.100151 1.47374e-20)
(-0.24613 0.109319 -4.54629e-20)
(-0.232824 -0.173568 -3.43612e-20)
(-0.247332 -0.156373 9.79653e-20)
(-0.253789 -0.133296 2.06484e-20)
(-0.258041 -0.105117 -2.91969e-20)
(-0.263621 -0.0761736 3.91295e-20)
(-0.271553 -0.0470359 0)
(-0.279192 -0.0176045 -2.64894e-20)
(-0.282739 0.0129442 2.89538e-20)
(-0.27989 0.0432465 8.92027e-21)
(-0.270938 0.0698281 0)
(-0.258418 0.0893317 -4.7376e-21)
(-0.245893 0.10066 4.27322e-20)
(-0.207845 -0.170345 -1.35705e-20)
(-0.23652 -0.156633 -3.30814e-20)
(-0.238909 -0.136575 -2.45134e-20)
(-0.239001 -0.109988 -3.58483e-20)
(-0.239449 -0.0748415 4.54528e-21)
(-0.241202 -0.0403465 1.85385e-20)
(-0.246231 -0.0109354 7.32215e-21)
(-0.251463 0.0148254 0)
(-0.252754 0.0390379 -8.09821e-21)
(-0.248338 0.0609964 8.22927e-22)
(-0.239257 0.078267 -1.32537e-20)
(-0.228165 0.0891733 0)
(-0.143223 0.0503291 0)
(-0.150542 0.0650769 0)
(-0.15708 0.0804976 -4.68707e-19)
(-0.161507 0.0943153 7.54996e-19)
(-0.162706 0.104217 1.41818e-19)
(-0.159546 0.109179 -1.48347e-19)
(-0.1509 0.109758 5.8805e-19)
(-0.136206 0.10739 -6.03954e-19)
(-0.117359 0.104561 0)
(-0.0969614 0.103981 -1.66534e-19)
(-0.0790099 0.106995 0)
(-0.0697838 0.110388 -5.06289e-19)
(-0.207161 0.0676006 0)
(-0.219461 0.0872902 0)
(-0.229579 0.102559 4.36353e-19)
(-0.23592 0.111653 -4.43101e-19)
(-0.237285 0.114632 -1.14429e-19)
(-0.233312 0.113003 -6.34078e-19)
(-0.22486 0.108219 -5.63964e-22)
(-0.210846 0.102153 4.37078e-19)
(-0.188851 0.0976258 -4.70899e-19)
(-0.157444 0.0977542 5.0552e-19)
(-0.120153 0.103712 5.7078e-19)
(-0.0919834 0.114357 -5.82009e-19)
(-0.24501 0.106453 -1.84404e-19)
(-0.256667 0.126522 9.20185e-20)
(-0.26461 0.138456 -3.54615e-19)
(-0.269049 0.142185 -2.5532e-19)
(-0.270853 0.139246 5.26615e-19)
(-0.270701 0.131508 1.80524e-19)
(-0.268261 0.121612 3.45283e-19)
(-0.261858 0.111465 -3.45566e-19)
(-0.247052 0.103465 0)
(-0.216375 0.101776 0)
(-0.163684 0.1106 0)
(-0.100406 0.126535 2.63593e-19)
(-0.267968 0.135176 -5.80197e-22)
(-0.275877 0.147808 -1.38617e-19)
(-0.279454 0.149647 -1.53692e-19)
(-0.279949 0.143833 -2.87446e-19)
(-0.278859 0.134612 1.49366e-19)
(-0.277785 0.125136 -3.06363e-19)
(-0.278358 0.116295 2.99494e-19)
(-0.280229 0.107916 0)
(-0.279854 0.100413 0)
(-0.266981 0.0974646 2.11262e-20)
(-0.223356 0.108104 -3.29105e-19)
(-0.13546 0.13532 -6.37811e-19)
(-0.273983 0.147789 0)
(-0.275146 0.15034 1.85899e-19)
(-0.272535 0.142899 -1.24362e-19)
(-0.268254 0.131191 4.1937e-19)
(-0.264477 0.120101 -2.83467e-19)
(-0.262787 0.111875 0)
(-0.263401 0.106143 -2.5846e-19)
(-0.267555 0.1018 -2.54442e-19)
(-0.275269 0.0972646 0)
(-0.280919 0.0932295 2.79313e-19)
(-0.264859 0.101744 2.8881e-20)
(-0.187115 0.141896 1.8329e-19)
(-0.267015 0.147148 2.15158e-19)
(-0.262947 0.140736 -2.30037e-19)
(-0.257844 0.127311 1.25187e-19)
(-0.253824 0.114106 -3.70563e-19)
(-0.251841 0.105353 1.29946e-20)
(-0.251725 0.10077 0)
(-0.253106 0.0984554 2.54467e-19)
(-0.256204 0.0973556 2.50495e-19)
(-0.262167 0.0961554 -2.2074e-19)
(-0.272018 0.0927248 2.36789e-19)
(-0.278629 0.0950184 -2.06507e-19)
(-0.234112 0.140619 -1.53713e-20)
(-0.253482 0.138386 0)
(-0.24688 0.127257 0)
(-0.242329 0.113344 -2.14411e-19)
(-0.240956 0.103587 3.44372e-19)
(-0.242351 0.0996376 2.3553e-19)
(-0.245264 0.0986315 2.15081e-19)
(-0.248905 0.0984537 6.93084e-22)
(-0.25292 0.0983164 -2.0329e-19)
(-0.257326 0.0981213 1.12667e-20)
(-0.263404 0.0967234 1.97357e-19)
(-0.274454 0.0941269 4.28934e-19)
(-0.261992 0.137268 -6.90869e-19)
(-0.239784 0.126398 0)
(-0.233265 0.115405 -8.93449e-20)
(-0.231465 0.105374 -8.43436e-20)
(-0.233822 0.101289 0)
(-0.238288 0.101492 -1.9288e-19)
(-0.24285 0.102079 1.09243e-20)
(-0.247197 0.102082 0)
(-0.251492 0.101705 0)
(-0.255943 0.101234 0)
(-0.261004 0.10168 0)
(-0.268095 0.0987247 3.26844e-19)
(-0.273866 0.135947 -1.4344e-19)
(-0.233754 0.11603 -6.37215e-20)
(-0.229613 0.109654 0)
(-0.231149 0.106184 3.27797e-19)
(-0.235017 0.106505 -1.65555e-19)
(-0.238542 0.106503 0)
(-0.241621 0.105303 3.19914e-19)
(-0.244554 0.103732 0)
(-0.24786 0.102785 0)
(-0.251809 0.102641 0)
(-0.25738 0.104931 0)
(-0.262593 0.105254 -3.69097e-19)
(-0.275587 0.137415 1.75547e-20)
(-0.237183 0.111005 1.1655e-19)
(-0.233782 0.110188 -5.84466e-20)
(-0.23383 0.109727 0)
(-0.23398 0.108248 0)
(-0.233498 0.1048 0)
(-0.233492 0.101037 -1.37978e-19)
(-0.234466 0.0983632 0)
(-0.2368 0.0978663 0)
(-0.240582 0.0998923 1.75326e-19)
(-0.24655 0.105812 0)
(-0.253864 0.1127 1.18435e-19)
(-0.265341 0.144468 1.29053e-19)
(-0.236075 0.105401 -4.61582e-20)
(-0.229352 0.105942 4.7036e-20)
(-0.224188 0.10345 0)
(-0.219564 0.0984577 1.12562e-19)
(-0.216059 0.0925552 -1.11029e-19)
(-0.214226 0.0876171 -9.96201e-20)
(-0.214198 0.0849876 9.64838e-20)
(-0.216096 0.0858267 -1.48954e-19)
(-0.219755 0.0909899 -2.22835e-19)
(-0.225334 0.102528 6.20313e-20)
(-0.23321 0.120705 -5.09816e-20)
(-0.233684 0.160065 -1.57566e-19)
(-0.217362 0.0937267 -6.64265e-20)
(-0.207769 0.0929126 4.20177e-20)
(-0.199508 0.0880642 -1.33022e-19)
(-0.192855 0.0810127 1.81632e-21)
(-0.188263 0.0738117 -1.7204e-19)
(-0.185881 0.0684117 -7.82101e-20)
(-0.18574 0.0662561 7.85288e-21)
(-0.187657 0.0683391 1.79942e-19)
(-0.19102 0.0755732 8.21932e-20)
(-0.194692 0.0905791 0)
(-0.198296 0.117764 4.80868e-20)
(-0.171561 0.171702 -8.23897e-21)
(-0.072663 0.113105 -1.55623e-19)
(-0.0611873 0.111723 0)
(-0.0500526 0.113461 -5.21969e-21)
(-0.0396934 0.112401 -7.79322e-19)
(-0.0300183 0.112771 6.29464e-19)
(-0.0206066 0.113811 7.39691e-20)
(-0.011999 0.115814 0)
(-0.00355698 0.118728 1.25285e-19)
(0.00543345 0.122268 -2.04407e-19)
(0.0152505 0.126228 4.77972e-20)
(0.0258808 0.130821 -2.13803e-20)
(0.0374792 0.136431 3.46237e-19)
(-0.0929477 0.118777 7.84737e-19)
(-0.0880579 0.118883 -5.34502e-19)
(-0.0793976 0.121708 4.00161e-19)
(-0.0695399 0.125123 -3.97907e-19)
(-0.0581662 0.130046 2.76166e-19)
(-0.044276 0.136905 -1.44269e-19)
(-0.0300533 0.145279 1.36584e-19)
(-0.0171986 0.154444 2.12368e-19)
(-0.0046226 0.163575 -1.34003e-19)
(0.00952902 0.172686 -2.1793e-21)
(0.0263422 0.182598 -1.30371e-19)
(0.0458001 0.193926 1.84939e-19)
(-0.0962978 0.130604 2.20028e-19)
(-0.0879567 0.129719 -4.48224e-19)
(-0.0750856 0.13204 0)
(-0.0593594 0.136875 4.62448e-19)
(-0.0438675 0.144781 -5.88442e-19)
(-0.0299574 0.154656 -2.37584e-19)
(-0.0159313 0.165398 -1.87929e-23)
(-0.00217373 0.176426 0)
(0.0124418 0.187843 -2.45236e-22)
(0.0306033 0.200319 5.07719e-20)
(0.053565 0.214385 -1.03338e-19)
(0.079778 0.229459 4.68768e-20)
(-0.116835 0.138037 1.99448e-19)
(-0.108763 0.135988 6.51728e-21)
(-0.0925905 0.140878 6.1986e-21)
(-0.0725212 0.147913 5.16539e-21)
(-0.0490808 0.157184 -1.97356e-19)
(-0.0270148 0.168673 -1.99057e-19)
(-0.00783655 0.180389 1.03024e-19)
(0.00959436 0.192486 9.3024e-20)
(0.0285569 0.206133 -7.05511e-20)
(0.0526364 0.221791 4.68332e-20)
(0.081609 0.238612 0)
(0.110971 0.25454 0)
(-0.130328 0.148766 4.57662e-19)
(-0.119256 0.147587 3.21608e-19)
(-0.0985953 0.155853 1.63907e-19)
(-0.0757506 0.167053 -3.39607e-19)
(-0.0516489 0.177773 -1.64518e-19)
(-0.0267246 0.187911 -3.32099e-19)
(-0.00310626 0.198203 1.67341e-19)
(0.0194432 0.209865 -8.41772e-20)
(0.044051 0.224079 0)
(0.0732078 0.240107 0)
(0.104535 0.255443 3.14865e-20)
(0.131547 0.267309 0)
(-0.146043 0.159698 -2.89183e-19)
(-0.131145 0.162324 2.6903e-19)
(-0.107933 0.174426 -7.02902e-19)
(-0.0832308 0.187409 1.52506e-19)
(-0.056874 0.198983 7.58326e-21)
(-0.0291279 0.208719 2.94812e-19)
(-0.000956999 0.217884 0)
(0.0274641 0.228207 6.21228e-20)
(0.0575218 0.240495 -2.91004e-20)
(0.0894609 0.253151 -3.39411e-21)
(0.119329 0.263044 -2.92418e-20)
(0.140381 0.267893 1.07051e-19)
(-0.157445 0.172143 -2.20484e-19)
(-0.138991 0.180748 2.19735e-19)
(-0.115518 0.196171 -2.25451e-19)
(-0.0908269 0.210273 3.72176e-19)
(-0.0638032 0.221682 -2.3749e-19)
(-0.0339139 0.230779 1.06714e-19)
(-0.00173085 0.238608 0)
(0.0317859 0.246343 -5.73582e-20)
(0.0658081 0.254202 2.70066e-20)
(0.098287 0.260541 3.185e-21)
(0.12455 0.262886 0)
(0.138974 0.260282 -4.23789e-20)
(-0.165168 0.185763 -1.38158e-19)
(-0.144635 0.201203 -2.32069e-20)
(-0.12212 0.218503 -4.92138e-21)
(-0.0980485 0.233743 2.15817e-20)
(-0.071141 0.245486 -1.5765e-19)
(-0.0402883 0.254137 -9.88198e-20)
(-0.00578888 0.260156 0)
(0.0307274 0.26402 0)
(0.0666769 0.265698 0)
(0.0983077 0.26429 0)
(0.120837 0.258847 0)
(0.130363 0.25003 4.18699e-20)
(-0.170139 0.199873 1.30594e-19)
(-0.148603 0.221055 -1.3902e-19)
(-0.126344 0.238279 0)
(-0.102867 0.253513 4.58705e-20)
(-0.0767668 0.2658 8.39943e-20)
(-0.0464896 0.274842 -1.32971e-21)
(-0.0120048 0.279944 1.12211e-19)
(0.0248872 0.280606 5.12522e-20)
(0.0607344 0.276724 0)
(0.0909592 0.268561 -9.15604e-21)
(0.111092 0.257085 -6.16856e-21)
(0.118881 0.2446 0)
(-0.173381 0.215574 -7.34233e-20)
(-0.151829 0.23739 3.86655e-23)
(-0.128637 0.250876 7.55875e-20)
(-0.104204 0.262971 1.19213e-19)
(-0.0782576 0.273889 -2.19117e-20)
(-0.0493634 0.283508 5.25683e-20)
(-0.0170647 0.289737 -2.06943e-20)
(0.0175863 0.290519 -4.92827e-20)
(0.0515083 0.285062 -1.68044e-20)
(0.0802773 0.274243 -5.22599e-21)
(0.0999551 0.260474 1.86656e-20)
(0.109354 0.247273 0)
(-0.173603 0.232833 -2.0579e-21)
(-0.156426 0.247214 -6.72208e-20)
(-0.133133 0.253709 3.20968e-20)
(-0.104766 0.258037 2.14938e-20)
(-0.075716 0.263681 -3.49292e-20)
(-0.0465835 0.271661 -2.3769e-20)
(-0.017308 0.27938 -2.66175e-20)
(0.0129933 0.283081 0)
(0.0430715 0.280446 2.49235e-20)
(0.0695501 0.271693 4.96965e-21)
(0.0890947 0.259278 1.06537e-20)
(0.100537 0.246724 0)
(-0.170157 0.207371 -1.96601e-21)
(-0.1566 0.236521 0)
(-0.136355 0.23887 0)
(-0.109575 0.23901 -4.34239e-20)
(-0.0742868 0.239412 0)
(-0.0398123 0.241148 -1.13551e-20)
(-0.0105134 0.246162 -6.38423e-21)
(0.0150698 0.251384 -1.37751e-21)
(0.0390693 0.252738 -4.64842e-21)
(0.06085 0.248447 0)
(0.0780366 0.239477 -1.33521e-20)
(0.0889421 0.228423 -2.69426e-20)
(0.0504345 0.143101 -4.1894e-19)
(0.0649295 0.150247 -4.07147e-19)
(0.0800784 0.156622 3.07525e-19)
(0.0937488 0.160929 -1.45453e-19)
(0.103672 0.162057 -5.99607e-19)
(0.108772 0.158903 -1.43162e-19)
(0.109511 0.15034 4.4826e-19)
(0.107299 0.135803 0)
(0.104571 0.117117 -1.57905e-19)
(0.104035 0.0968995 -6.70592e-19)
(0.10703 0.0791112 6.94623e-19)
(0.11037 0.0699086 0)
(0.0666164 0.206299 0)
(0.086205 0.218392 0)
(0.10163 0.228433 3.23186e-19)
(0.111035 0.234804 -7.52529e-19)
(0.114323 0.236253 4.36395e-19)
(0.112908 0.23237 0)
(0.108244 0.223971 2.22682e-19)
(0.102219 0.210026 2.1862e-19)
(0.0976919 0.188137 -9.37374e-19)
(0.0977852 0.156943 -9.92185e-21)
(0.103688 0.120022 -7.43354e-21)
(0.114334 0.0921443 -2.67747e-21)
(0.105317 0.243808 0)
(0.125699 0.255564 -1.77989e-19)
(0.1381 0.263701 8.27895e-21)
(0.142238 0.268342 -1.67547e-19)
(0.139544 0.27031 0)
(0.131901 0.27026 1.68654e-19)
(0.121971 0.267839 5.25185e-19)
(0.111754 0.261374 -5.26803e-19)
(0.103688 0.246455 0)
(0.101939 0.215703 0)
(0.110672 0.163134 0)
(0.126544 0.100357 -7.77089e-19)
(0.134526 0.267267 0)
(0.147789 0.275484 1.45988e-19)
(0.150187 0.279371 -1.46141e-19)
(0.144673 0.280121 3.15541e-19)
(0.135484 0.279197 -3.13184e-19)
(0.125871 0.278162 4.53995e-19)
(0.116858 0.278717 -3.00278e-19)
(0.108317 0.280495 1.43053e-19)
(0.100708 0.279937 0)
(0.0977286 0.266801 0)
(0.108309 0.222915 0)
(0.1353 0.135082 2.2304e-19)
(0.147844 0.273979 1.8392e-19)
(0.151072 0.275404 3.55115e-22)
(0.144015 0.272963 -6.18335e-21)
(0.132318 0.26873 1.36598e-20)
(0.121007 0.26491 -5.69153e-19)
(0.112523 0.263181 -2.65387e-19)
(0.106579 0.263774 2.71791e-19)
(0.102081 0.267923 -1.40213e-19)
(0.0974566 0.275615 0)
(0.0934322 0.281151 0)
(0.102014 0.264767 2.74096e-19)
(0.142 0.186655 -3.42845e-19)
(0.147689 0.267501 -1.64686e-19)
(0.141779 0.263495 0)
(0.128431 0.258326 -2.3785e-19)
(0.114946 0.254156 3.84057e-19)
(0.105846 0.252031 0)
(0.101031 0.251826 4.94985e-19)
(0.098577 0.253164 0)
(0.0974158 0.256258 0)
(0.0961974 0.262263 0)
(0.0927939 0.272192 0)
(0.095218 0.278772 -2.53952e-19)
(0.140776 0.233894 8.69339e-19)
(0.139064 0.254187 -8.85475e-20)
(0.128194 0.247447 0)
(0.114122 0.242679 -2.14796e-19)
(0.104006 0.241111 4.51685e-19)
(0.0998011 0.242383 -2.2321e-19)
(0.0986512 0.245237 -4.44807e-19)
(0.0984049 0.248847 2.09355e-19)
(0.0982579 0.252847 0)
(0.0980839 0.25724 -2.04124e-19)
(0.0967212 0.263341 1.18655e-20)
(0.0942265 0.274506 0)
(0.137362 0.261942 -2.50384e-19)
(0.126953 0.240555 8.84536e-20)
(0.116048 0.233784 0)
(0.105802 0.231734 -3.68126e-19)
(0.101454 0.233934 1.96647e-19)
(0.101533 0.238332 0)
(0.102045 0.242844 1.85588e-19)
(0.102018 0.247159 -1.79357e-19)
(0.101643 0.251428 0)
(0.101196 0.255852 -1.54578e-19)
(0.101676 0.260871 1.80469e-19)
(0.0988087 0.268021 0)
(0.135973 0.273783 1.87908e-19)
(0.116405 0.234632 -6.40692e-20)
(0.110047 0.230223 0)
(0.106419 0.231557 3.19534e-19)
(0.10661 0.235316 3.26052e-19)
(0.106523 0.238741 -1.67469e-19)
(0.105267 0.24174 0)
(0.103675 0.244608 1.49964e-19)
(0.102736 0.247856 -1.45517e-19)
(0.102615 0.251749 3.9549e-19)
(0.104954 0.257266 0)
(0.105351 0.262487 -2.24223e-19)
(0.137418 0.275383 0)
(0.111198 0.238126 6.00422e-20)
(0.110384 0.234484 6.19319e-20)
(0.109827 0.234356 -1.94957e-19)
(0.108258 0.234376 -2.82316e-19)
(0.104749 0.233784 1.31131e-19)
(0.100959 0.233687 -1.27502e-19)
(0.0982833 0.234581 5.84793e-21)
(0.0978114 0.236846 1.1352e-19)
(0.099869 0.240561 -4.01812e-19)
(0.105861 0.246483 1.52019e-19)
(0.112757 0.253741 2.10563e-19)
(0.144435 0.265086 0)
(0.105361 0.236775 0)
(0.1059 0.229888 -9.4029e-20)
(0.103357 0.224595 2.2289e-19)
(0.0983135 0.219876 -2.25065e-19)
(0.0923909 0.216297 -1.15344e-19)
(0.0874559 0.214397 1.05364e-19)
(0.0848526 0.214303 0)
(0.0857422 0.216141 0)
(0.0909592 0.219743 2.19601e-19)
(0.102597 0.225298 -7.84844e-20)
(0.120754 0.23307 5.1753e-20)
(0.160083 0.233503 3.63164e-20)
(0.0935203 0.217598 0)
(0.092707 0.207959 7.87199e-21)
(0.0878396 0.199668 0)
(0.0807665 0.192996 -9.06687e-20)
(0.0735555 0.188386 0)
(0.0681776 0.185977 0)
(0.0660725 0.185798 -6.7371e-20)
(0.068228 0.187674 6.61562e-20)
(0.0755349 0.190991 -1.93297e-19)
(0.0906516 0.194655 4.83936e-20)
(0.117849 0.198162 -4.00915e-20)
(0.17175 0.171362 -3.75776e-20)
(0.110867 0.0714098 -6.26092e-19)
(0.112099 0.0602343 7.83035e-19)
(0.112495 0.0496517 1.56406e-19)
(0.112509 0.0397865 4.75661e-19)
(0.112698 0.0299632 -7.74452e-19)
(0.113667 0.0205705 -4.70137e-19)
(0.115736 0.012048 -8.30494e-20)
(0.118695 0.0036372 3.22125e-19)
(0.122194 -0.00534033 3.98613e-20)
(0.126116 -0.0151141 0)
(0.130717 -0.0256833 -2.15151e-19)
(0.136417 -0.03728 1.71314e-19)
(0.117266 0.0938857 -2.70475e-19)
(0.118598 0.0885466 -4.15014e-19)
(0.121657 0.0794836 -4.48335e-21)
(0.125341 0.0693275 -1.28872e-19)
(0.130311 0.0578333 5.54407e-19)
(0.137224 0.0439362 1.44214e-19)
(0.145613 0.0299133 0)
(0.154728 0.0172839 6.75161e-20)
(0.163768 0.00477207 -1.04175e-19)
(0.172874 -0.00952756 6.25253e-20)
(0.182927 -0.0266602 3.37896e-20)
(0.194524 -0.0465179 0)
(0.130529 0.0964882 -4.47592e-19)
(0.1302 0.0878195 -1.45368e-20)
(0.132727 0.0748754 0)
(0.137686 0.0591554 4.7627e-19)
(0.145514 0.0438403 -1.20031e-19)
(0.155258 0.0299939 0)
(0.165901 0.0160376 0)
(0.17688 0.00239442 5.62347e-20)
(0.188344 -0.0123196 -8.49284e-20)
(0.201002 -0.0308679 3.49473e-21)
(0.215325 -0.0543399 -1.02773e-19)
(0.230605 -0.0809226 2.91367e-19)
(0.138073 0.117048 3.72998e-19)
(0.136274 0.10888 -2.9028e-21)
(0.141263 0.0925767 3.87526e-19)
(0.148344 0.0723295 -1.8773e-19)
(0.15764 0.04884 -6.45239e-21)
(0.169092 0.0269378 -5.90229e-19)
(0.180752 0.00792954 1.98255e-19)
(0.192893 -0.00943705 0)
(0.206701 -0.0286537 -7.02872e-20)
(0.22257 -0.0532433 2.44956e-20)
(0.239531 -0.0826415 1.02673e-19)
(0.255434 -0.112054 -2.32494e-19)
(0.148908 0.130103 1.52059e-19)
(0.147953 0.118936 -1.47522e-19)
(0.156249 0.0982846 -4.88767e-19)
(0.167363 0.0754924 3.39763e-19)
(0.177932 0.0514409 0)
(0.187997 0.0266151 -1.54685e-19)
(0.198289 0.003103 8.7537e-20)
(0.210071 -0.0194655 -7.98762e-20)
(0.224474 -0.0443687 1.13728e-19)
(0.240622 -0.0739475 -3.79237e-20)
(0.255921 -0.105458 3.13351e-20)
(0.267597 -0.132201 0)
(0.159809 0.145806 2.54823e-19)
(0.162513 0.130869 -2.47197e-19)