/*--------------------------------*- C++ -*----------------------------------*\
| =========                 |                                                 |
| \\      /  F ield         | OpenFOAM: The Open Source CFD Toolbox           |
|  \\    /   O peration     | Version:  v1606+                                |
|   \\  /    A nd           | Web:      www.OpenFOAM.com                      |
|    \\/     M anipulation  |                                                 |
\*---------------------------------------------------------------------------*/
FoamFile
{
    version     2.0;
    format      ascii;
    class       volScalarField;
    location    "26";
    object      k;
}
// * * * * * * * * * * * * * * * * * * * * * * * * * * * * * * * * * * * * * //

dimensions      [0 2 -2 0 0 0 0];

internalField   nonuniform List<scalar> 
5080
(
0.00417042
0.00420147
0.004232
0.0042618
0.00429059
0.00431823
0.00434431
0.0043693
0.00439238
0.0044147
0.00443503
0.00445562
0.00447502
0.004497
0.00452083
0.00455494
0.00460303
0.00470465
0.00483837
0.00420424
0.00415044
0.00418381
0.00425416
0.00437178
0.00456499
0.00481675
0.00519414
0.00564847
0.00627074
0.00698962
0.00789055
0.00892573
0.0100754
0.0114166
0.0126719
0.0142114
0.0154189
0.017341
0.0248249
0.0151337
0.00419538
0.00427012
0.00438356
0.00455799
0.00481797
0.00518934
0.00570912
0.00640252
0.00730971
0.0084755
0.00994931
0.0118397
0.0141067
0.0170667
0.0203539
0.0249361
0.0290349
0.0372043
0.0601361
0.0187476
0.0042649
0.00440969
0.00459276
0.00483867
0.00517896
0.00563736
0.00626144
0.00709105
0.00820933
0.00966495
0.0115678
0.0139912
0.0170653
0.0209531
0.0257152
0.0315268
0.038157
0.0480017
0.0774634
0.0277397
0.00435108
0.00458499
0.00485447
0.00519344
0.00561931
0.00616911
0.00687796
0.00782579
0.009066
0.0107199
0.01282
0.0155754
0.0189423
0.0233108
0.0283683
0.0348742
0.0418508
0.052882
0.0846372
0.0395286
0.00445459
0.0047921
0.00517233
0.00561883
0.00615341
0.00680121
0.00761771
0.00865985
0.0100261
0.011779
0.0140889
0.01702
0.0208489
0.0255777
0.0316061
0.0383156
0.046644
0.0579972
0.0950726
0.0440124
0.00456668
0.00502815
0.00553346
0.00611009
0.0067663
0.00753843
0.00846314
0.00963195
0.0110855
0.0129879
0.0153911
0.018575
0.0224916
0.0276303
0.0335224
0.0410677
0.0488494
0.0622231
0.0976233
0.0517836
0.00468929
0.00527994
0.00592679
0.00664322
0.00744528
0.00835585
0.00942634
0.0107127
0.0123138
0.0143062
0.0168903
0.0201414
0.0244397
0.0296723
0.0365066
0.043815
0.0530031
0.0653874
0.10342
0.0549231
0.00481033
0.00554266
0.00633353
0.00720422
0.0081689
0.00924312
0.0104691
0.0119221
0.0136555
0.015818
0.0184908
0.0219853
0.0262552
0.0319446
0.0382798
0.0467294
0.0546613
0.0703258
0.107015
0.0616154
0.0049325
0.00579831
0.00673759
0.00777751
0.00891903
0.0101791
0.0115935
0.0132197
0.0151409
0.0174544
0.0203498
0.0239385
0.0286554
0.0343831
0.0421508
0.0501383
0.0613451
0.0745059
0.113445
0.0627399
0.0050407
0.00603488
0.00712074
0.0083256
0.00965662
0.0111206
0.0127461
0.0145969
0.0167395
0.0192922
0.0223801
0.0262891
0.0310823
0.037506
0.0445931
0.0543627
0.0632108
0.0813079
0.117612
0.0698548
0.00513465
0.00623807
0.0074613
0.00882821
0.010353
0.0120368
0.0139013
0.0160106
0.018429
0.0212764
0.0246948
0.0288804
0.0342273
0.0407526
0.0497393
0.0587817
0.0729956
0.0867391
0.124902
0.0709582
0.00520381
0.00640367
0.00773535
0.00925197
0.0109736
0.0128898
0.0150222
0.0174347
0.0201994
0.0234071
0.0272342
0.0319038
0.0376489
0.0451392
0.0535836
0.0654116
0.0759737
0.0972924
0.131596
0.0791241
0.00525136
0.00650576
0.00793009
0.00957769
0.0114797
0.0136255
0.0160491
0.0188164
0.0219921
0.0256926
0.0300415
0.0353369
0.0418696
0.0499627
0.0607913
0.0720822
0.0913796
0.105968
0.144739
0.08065
0.0052664
0.00655753
0.00803271
0.00978095
0.0118403
0.0142208
0.0169461
0.020107
0.0237766
0.0280464
0.0331198
0.03922
0.0467658
0.0563322
0.0674956
0.0833079
0.0969121
0.123447
0.15361
0.0923099
0.00525288
0.00653887
0.00803798
0.00984233
0.0120336
0.014623
0.0176724
0.0212512
0.0254862
0.0304743
0.0363958
0.0436308
0.0525307
0.0638023
0.0782312
0.0946246
0.121937
0.139306
0.183281
0.0956636
0.00521789
0.00646541
0.00794225
0.00977412
0.0120553
0.0148322
0.018153
0.0221854
0.0270129
0.0328404
0.0398737
0.0484346
0.0593357
0.073143
0.0905602
0.114515
0.136659
0.173633
0.20423
0.116582
0.00514499
0.00633933
0.00776665
0.00957867
0.011896
0.0147968
0.0183867
0.0227936
0.0282986
0.0350094
0.0433143
0.053739
0.0668082
0.084461
0.107294
0.13682
0.182161
0.212462
0.290271
0.128441
0.00507306
0.00616589
0.0075122
0.00925005
0.011562
0.0145277
0.0182887
0.0230867
0.0291388
0.036886
0.0465822
0.0590433
0.0754835
0.0971018
0.127694
0.170842
0.223512
0.294316
0.375742
0.191541
0.00497062
0.00597266
0.0072119
0.00886585
0.0110839
0.0140618
0.0178993
0.0229518
0.0295794
0.0381127
0.0494366
0.0641118
0.0837954
0.11213
0.151201
0.207604
0.315459
0.381747
0.693306
0.278405
1.41397
2.47243
2.86216
3.31724
3.66623
4.9348
7.9162
11.4753
15.2686
18.0862
17.6361
20.1835
31.7024
50.7783
64.4981
75.2028
80.8808
72.5838
60.4811
49.8168
41.9685
36.3563
32.3146
29.3299
27.0572
25.2901
23.9408
22.8924
22.0832
21.4616
20.8898
20.2267
19.4791
18.6565
17.7363
16.6883
15.3742
13.7687
12.0727
10.5581
9.331
8.34852
7.64857
7.14325
6.77289
6.48724
6.25469
6.05495
5.87727
5.71445
5.56478
5.4254
5.29782
5.1799
5.07347
4.97655
4.89069
4.81348
4.74704
4.68878
3.07472
5.81107
7.00285
8.14241
9.66496
12.8914
18.9611
26.7665
35.3755
42.3996
44.7823
50.0812
67.6942
116.498
156.394
196.115
173.647
140.291
102.297
79.5785
65.5418
56.7717
51.2659
47.5793
44.8679
42.6765
40.7447
39.0301
37.5017
36.0925
34.6782
33.1536
31.5078
29.7264
27.7252
25.3881
22.3455
18.9929
16.4631
14.7879
13.6346
12.8349
12.2298
11.7472
11.3464
11.0048
10.7031
10.4283
10.1705
9.92987
9.70298
9.49431
9.30323
9.13133
8.97785
8.84482
8.72765
8.62927
8.54613
8.4803
4.2621
8.30826
10.0511
11.7208
14.0134
18.3044
25.594
35.4126
46.989
59.1463
69.7317
78.9706
102.416
151.469
180.934
170.35
142.401
118.506
97.1342
80.6787
68.72
60.2158
54.281
50.168
47.2833
45.181
43.5426
42.1517
40.8528
39.535
38.1063
36.5114
34.7178
32.688
30.3858
27.7994
25.0044
22.3432
20.1867
18.6169
17.4948
16.6298
15.9156
15.3272
14.8401
14.4263
14.0634
13.7361
13.4349
13.1574
12.9016
12.6688
12.4595
12.2726
12.1078
11.9643
11.8386
11.7311
11.6395
11.5667
5.58435
11.0028
13.3084
15.414
18.4054
23.6504
32.0885
43.6191
57.9447
75.1286
95.1499
115.918
148.974
182.564
166.611
142.333
120.99
102.675
87.3339
75.1098
65.7338
58.6556
53.377
49.4898
46.6485
44.5538
42.9566
41.6536
40.4793
39.3036
38.0367
36.6258
35.0338
33.2276
31.2046
29.0186
26.7989
24.7432
23.0136
21.6373
20.544
19.6514
18.911
18.2989
17.79
17.3581
16.9823
16.6476
16.3445
16.0696
15.8204
15.5967
15.3977
15.2212
15.0654
14.928
14.8051
14.6963
14.6002
14.5225
7.09262
14.2724
17.1374
19.6612
23.3175
29.5468
39.3075
52.7055
69.7646
91.6434
121.723
160.466
212.179
179.431
147.355
123.458
104.557
89.4188
77.3272
67.8174
60.4575
54.7847
50.4352
47.1216
44.6101
42.6993
41.2148
40.0053
38.9402
37.9113
36.8402
35.6776
34.3916
32.9633
31.3986
29.7448
28.0898
26.5419
25.1847
24.04
23.0823
22.2799
21.6103
21.0551
20.5927
20.2011
19.8615
19.5606
19.2899
19.0465
18.8281
18.634
18.4625
18.3102
18.1737
18.0493
17.932
17.8219
17.7192
17.635
8.80748
18.2253
21.7435
24.728
29.0398
36.3371
47.6983
63.3454
83.3645
109.072
146.305
208.958
206.698
159.02
128.421
106.585
90.1773
77.5692
67.8145
60.2922
54.5234
50.0659
46.6269
43.9734
41.9209
40.3287
39.0756
38.0571
37.1807
36.3669
35.553
34.6937
33.7587
32.7342
31.6258
30.4635
29.296
28.1855
27.1849
26.3172
25.5782
24.9546
24.4325
23.9964
23.6299
23.3166
23.0415
22.794
22.5689
22.3659
22.1845
22.0242
21.8824
21.7549
21.6362
21.5202
21.4004
21.2784
21.1585
21.0608
10.7218
22.9736
27.3589
30.8958
35.8895
44.394
57.7168
76.141
99.9073
129.156
168.713
193.693
159.17
130.384
107.588
90.1855
76.917
66.7897
59.0679
53.2074
48.7945
45.3782
42.7438
40.7285
39.1719
37.9778
37.0654
36.3579
35.7847
35.2836
34.8012
34.2918
33.7225
33.0892
32.4011
31.6754
30.9396
30.2288
29.5839
29.0284
28.5613
28.1666
27.8301
27.5427
27.2969
27.0802
26.873
26.6698
26.4753
26.2964
26.1361
25.9944
25.8681
25.7511
25.6357
25.5106
25.3659
25.2072
25.05
24.9258
12.8274
28.5197
34.2514
38.5885
44.38
54.3007
69.9171
91.6504
120.095
156.107
170.602
149.048
126.346
105.723
88.7724
75.4085
65.1235
57.3128
51.429
47.0412
43.8475
41.3354
39.3865
37.9816
36.9595
36.2173
35.737
35.4471
35.2792
35.174
35.078
34.9438
34.7213
34.4314
34.1358
33.8275
33.499
33.1657
32.8756
32.6572
32.5038
32.3749
32.2389
32.1028
31.9872
31.9015
31.7461
31.5428
31.3282
31.1259
30.9447
30.7844
30.64
30.5012
30.3605
30.1926
29.981
29.739
29.5186
29.3482
15.0996
34.9005
42.7698
48.4647
55.2802
66.7207
84.8722
110.51
144.199
180.348
153.545
125.606
104.082
86.936
73.4333
63.0452
55.2579
49.4926
45.2368
42.1947
40.1119
38.375
36.9771
36.0621
35.5336
35.2469
35.1848
35.2923
35.522
35.8229
36.1449
36.4523
36.7179
36.923
37.0962
37.274
37.3688
37.3623
37.404
37.5452
37.7787
38.018
38.1018
38.0901
37.9559
37.6062
37.1685
36.7675
36.4166
36.1291
35.8965
35.7025
35.5356
35.382
35.2387
35.088
34.9265
34.7312
34.5636
34.4075
17.4648
42.062
53.2827
61.3714
69.6032
82.5331
103.416
133.07
173.408
167.425
133.02
106.897
87.1294
72.2631
61.2103
53.1833
47.5448
43.5893
40.7171
38.9279
37.3866
36.1708
35.2547
34.6063
34.3195
34.3818
34.6182
34.9837
35.4645
36.0349
36.6735
37.3767
38.2069
39.1299
39.9764
40.8104
41.6351
42.3348
42.921
43.4949
43.9587
44.0596
43.7925
43.3037
42.4209
41.3088
40.4716
39.8271
39.3503
39.0163
38.7837
38.6179
38.5009
38.4264
38.3994
38.4287
38.5283
38.6511
38.7866
38.9154
19.7642
49.7025
65.9807
78.119
88.6369
103.377
127.175
161.62
182.308
145.637
114.763
90.885
73.1762
60.4527
51.6073
45.7237
42.0597
39.7295
37.8204
36.5724
35.2391
34.2927
33.7236
33.3913
33.3499
33.6032
33.9891
34.4485
34.9912
35.6211
36.3279
37.0981
37.9555
38.9233
40.0359
41.2816
42.6854
44.1866
45.3761
46.1239
46.2092
45.6833
44.9648
44.0947
43.2055
42.4353
41.7933
41.2353
40.8038
40.5057
40.3135
40.1979
40.1436
40.1472
40.2124
40.3333
40.5016
40.6888
40.8943
41.1014
21.7511
57.1969
80.4271
99.1277
113.942
131.394
157.802
199.254
169.758
129.781
99.3822
77.1418
61.476
50.9793
44.3633
40.5552
38.7992
36.9926
35.5887
34.4852
33.6835
33.1184
32.7726
32.563
32.552
32.7647
33.0833
33.4514
33.8917
34.4253
35.042
35.7185
36.4639
37.347
38.4449
39.6891
40.9642
42.1612
43.1453
43.8614
44.1581
44.0395
43.6278
43.0943
42.6309
42.2598
41.8933
41.5235
41.2152
40.9992
40.8697
40.8111
40.8146
40.8784
41.0007
41.1605
41.3342
41.5075
41.6971
41.9004
23.1952
63.6244
95.1191
123.954
146.446
168.997
197.763
212.135
156.019
114.908
85.4619
65.0804
51.7374
43.6791
39.3189
37.5835
36.0552
34.88
34.11
33.3628
32.7376
32.2806
31.958
31.7144
31.601
31.6425
31.7633
31.9284
32.1733
32.5297
32.9876
33.52
34.1366
34.9105
35.9042
37.0383
38.1525
39.1399
39.9935
40.7233
41.2427
41.4909
41.5103
41.4438
41.4003
41.3481
41.2213
41.039
40.867
40.7456
40.6844
40.6802
40.7304
40.8333
40.9805
41.1435
41.2947
41.4315
41.5818
41.7557
24.0891
68.2679
107.115
150.232
185.355
218.041
259.032
199.276
141.019
100.31
72.5756
54.6105
43.9778
38.4627
36.2979
35.2834
34.5726
34.0857
33.5514
32.7836
32.0017
31.3705
30.8834
30.4929
30.2148
30.0509
29.9484
29.8934
29.9328
30.1059
30.4073
30.8146
31.3381
32.0334
32.936
33.9739
35.0043
35.9411
36.8003
37.6064
38.3126
38.849
39.2307
39.5308
39.7851
39.9561
40.0131
39.9878
39.9385
39.9063
39.9087
39.9508
40.0339
40.1553
40.3022
40.4455
40.5627
40.661
40.7732
40.915
24.8644
71.4364
115.183
169.908
223.277
262.509
289.535
185.707
125.28
86.1431
60.9341
45.9365
38.2202
35.1647
34.7237
34.3814
34.1214
33.5368
32.8033
31.8561
30.8604
29.9951
29.2913
28.718
28.2649
27.9118
27.6177
27.3848
27.2659
27.3045
27.5015
27.8413
28.3301
28.9989
29.8585
30.8482
31.8609
32.8308
33.764
34.675
35.5373
36.2859
36.9165
37.4511
37.8906
38.209
38.3997
38.4963
38.5476
38.5909
38.6466
38.7237
38.8253
38.9477
39.0768
39.1887
39.2698
39.3352
39.419
39.5356
26.3176
74.2321
120.087
173.984
227.354
274.363
247.028
165.627
109.504
73.1552
51.0012
39.2315
34.339
33.509
33.7833
34.3012
33.5973
32.6228
31.5432
30.3352
29.1148
28.0282
27.1197
26.3703
25.7564
25.2469
24.8116
24.4644
24.2594
24.2382
24.4048
24.7463
25.26
25.954
26.8205
27.8096
28.8449
29.8759
30.8951
31.9025
32.8768
33.7685
34.5484
35.2163
35.7632
36.1759
36.4602
36.647
36.7757
36.8779
36.9737
37.0733
37.1802
37.2905
37.3922
37.4694
37.5185
37.5617
37.6289
37.7286
28.3116
78.4149
124.9
178.104
234.478
297.738
224.485
147.685
95.0604
61.714
42.9251
34.3894
32.0839
32.9575
33.8632
33.6859
32.6485
31.263
29.7821
28.2669
26.8128
25.5232
24.4334
23.5267
22.7741
22.1442
21.6198
21.2245
21.0079
21.0036
21.2116
21.6153
22.201
22.9587
23.8686
24.8887
25.9639
27.0535
28.1412
29.2158
30.2549
31.2272
32.0872
32.8235
33.4289
33.8998
34.2472
34.4974
34.6816
34.8259
34.948
35.058
35.1596
35.2501
35.3218
35.3678
35.3948
35.4278
35.4898
35.5815
30.113
83.8146
134.264
192.774
254.844
339.322
215.745
134.151
82.331
51.8381
36.5878
31.156
31.2079
32.8716
33.9879
33.0191
31.3472
29.4602
27.5639
25.7425
24.0661
22.5963
21.3502
20.3085
19.4429
18.7302
18.1688
17.7876
17.6261
17.7024
18.0058
18.5117
19.1956
20.0353
21.0047
22.0671
23.1808
24.3121
25.4401
26.5477
27.6122
28.6072
29.5056
30.273
30.9073
31.4115
31.7985
32.09
32.3104
32.4809
32.6167
32.7273
32.8168
32.8852
32.9305
32.9548
32.9741
33.0087
33.0762
33.1686
31.2733
89.226
146.487
208.429
271.337
324.36
198.414
118.984
69.9545
43.2275
31.7703
29.2776
31.3689
33.4106
33.288
31.7584
29.585
27.2489
24.9801
22.8834
21.0093
19.3853
18.0089
16.8577
15.91
15.1575
14.6125
14.3022
14.2479
14.4465
14.8732
15.4945
16.2786
17.1969
18.221
19.3188
20.4568
21.6063
22.7456
23.8551
24.9136
25.8985
26.7898
27.5692
28.215
28.7354
29.1437
29.4584
29.6988
29.8822
30.0218
30.1265
30.2021
30.2513
30.2803
30.3004
30.3246
30.3721
30.4546
30.5551
31.2929
92.8078
160.362
230.016
303.722
288.352
174.423
101.128
57.5193
35.81
28.3028
28.5388
32.0361
33.9411
32.5731
30.2032
27.4848
24.7342
22.1458
19.8174
17.779
16.0317
14.5558
13.3278
12.3391
11.5985
11.1248
10.9321
11.0155
11.3496
11.897
12.6195
13.4828
14.457
15.5146
16.6275
17.7678
18.9104
20.0345
21.1207
22.1499
23.1029
23.9635
24.7197
25.3656
25.8914
26.3077
26.6317
26.8798
27.0665
27.2041
27.3009
27.3654
27.4088
27.4397
27.4684
27.5099
27.5809
27.6867
27.8016
29.8233
91.6706
167.896
258.147
393.467
263.262
149.417
82.6303
45.9318
29.8428
26.0872
28.7086
32.618
33.5443
31.491
28.4244
25.1747
22.0387
19.1778
16.6655
14.5038
12.6736
11.1406
9.88332
8.91012
8.24216
7.89037
7.84147
8.06261
8.51226
9.1483
9.93409
10.8375
11.8312
12.8904
13.9906
15.1073
16.2182
17.304
18.3467
19.329
20.2351
21.0519
21.7701
22.385
22.8982
23.3133
23.6383
23.8864
24.0714
24.2061
24.3034
24.3737
24.4257
24.4703
24.5204
24.5911
24.6951
24.8316
24.9656
26.9004
84.8853
154.673
237.424
348.105
211.601
120.352
64.7994
36.0802
25.4654
24.9564
29.6843
33.5106
32.6849
29.9134
26.3296
22.6649
19.2278
16.1651
13.5324
11.3018
9.44502
7.9183
6.70274
5.82046
5.28875
5.09004
5.17729
5.49947
6.01322
6.68169
7.47585
8.3688
9.3376
10.3611
11.4175
12.4836
13.5392
14.5665
15.5488
16.4705
17.3185
18.0821
18.7542
19.3317
19.8159
20.2114
20.5263
20.7716
20.9591
21.1008
21.2081
21.2918
21.3629
21.4338
21.5179
21.6284
21.7736
21.9463
22.103
23.8147
77.6041
136.048
204.56
251.569
162.95
93.4009
49.5944
28.5036
22.5876
24.6911
31.049
33.9357
31.659
28.0541
23.9898
19.9991
16.3573
13.1803
10.513
8.28497
6.48334
5.05752
3.98557
3.28322
2.93408
2.87962
3.05229
3.40596
3.91108
4.54155
5.27994
6.10611
7.00195
7.94988
8.93058
9.91897
10.8966
11.847
12.7545
13.604
14.3846
15.0877
15.7076
16.2424
16.6938
17.0666
17.3686
17.6095
17.8001
17.9516
18.0753
18.1822
18.2842
18.3936
18.5227
18.6816
18.8739
19.0867
19.2679
23.2742
74.2967
124.4
184.702
213.117
129.245
71.9877
37.7269
23.1367
20.9403
25.0792
31.7034
33.5568
30.5742
26.17
21.5893
17.2955
13.5165
10.3007
7.70457
5.61775
3.9789
2.75092
1.91909
1.46237
1.3013
1.34449
1.53143
1.83901
2.25681
2.77646
3.39298
4.09443
4.86739
5.69847
6.5704
7.45249
8.32894
9.18459
10.0044
10.7715
11.4767
12.1134
12.6766
13.1652
13.5816
13.9307
14.2198
14.4582
14.6559
14.8235
14.9722
15.1127
15.2565
15.4146
15.5969
15.81
16.0528
16.3067
16.5121
25.3324
79.193
125.332
176.923
192.503
106.973
55.8104
28.9304
19.5809
20.2186
25.8958
32.1538
32.928
29.2585
24.1941
19.1687
14.6288
10.7947
7.71704
5.28719
3.41616
2.0436
1.13169
0.630205
0.43246
0.402792
0.46616
0.598078
0.801443
1.08165
1.44257
1.88936
2.41866
3.02312
3.69102
4.40664
5.1479
5.89666
6.63703
7.35673
8.03148
8.65383
9.21926
9.72293
10.1636
10.5447
10.8711
11.1498
11.3894
11.5998
11.7907
11.9726
12.1554
12.3491
12.5625
12.8024
13.0716
13.3645
13.6573
13.884
29.2064
94.6843
151.739
206.748
181.663
90.1737
43.4328
22.6372
17.3925
20.1564
27.1838
32.9594
31.6791
27.3238
21.8932
16.6388
12.0697
8.3751
5.48818
3.3132
1.7636
0.777111
0.276877
0.103368
0.0675785
0.0735248
0.102141
0.155592
0.244304
0.379283
0.570386
0.828469
1.15828
1.56065
2.03052
2.55669
3.12348
3.71423
4.31236
4.9022
5.4667
5.99643
6.48552
6.92886
7.32039
7.66672
7.97246
8.24339
8.48823
8.71599
8.93543
9.15566
9.38535
9.63217
9.90219
10.1989
10.5211
10.8588
11.1838
11.4263
32.7554
114.05
187.962
268.45
152.473
74.603
34.0421
18.3837
16.1918
20.524
28.7021
33.4403
30.0267
24.9351
19.2911
14.0702
9.71818
6.25506
3.65135
1.83281
0.712073
0.180008
0.0307419
0.0105436
0.00907564
0.0104556
0.0144597
0.0232874
0.0415612
0.0765526
0.137688
0.235857
0.380638
0.57973
0.837006
1.15075
1.51413
1.91629
2.34369
2.78165
3.21604
3.63616
4.03399
4.40312
4.74141
5.05159
5.33805
5.60168
5.8522
6.09818
6.34604
6.60359
6.87787
7.17407
7.495
7.84078
8.20639
8.57784
8.92367
9.17299
33.4451
125.195
187.493
249.399
127.799
60.2915
26.8376
15.6037
15.6433
21.1523
30.158
33.3505
28.2677
22.4478
16.6692
11.6714
7.59504
4.45464
2.23108
0.85966
0.205212
0.0244141
0.00648675
0.00568838
0.00550086
0.00545758
0.00561143
0.00604414
0.00714344
0.00988107
0.0165136
0.0312694
0.0606721
0.112864
0.195752
0.315464
0.47509
0.674171
0.90831
1.16972
1.44895
1.73658
2.02425
2.30545
2.5772
2.83943
3.09313
3.341
3.58948
3.84649
4.11367
4.39758
4.70441
5.03682
5.39375
5.77248
6.16458
6.5525
6.90259
7.14673
31.2632
124.629
164.146
214.875
101.148
46.3618
20.9477
13.7406
15.4944
21.9082
31.0895
32.6095
26.6758
20.192
14.3695
9.53213
5.75208
2.99796
1.22754
0.328174
0.0419719
0.00660825
0.00547608
0.00530613
0.0051204
0.00501646
0.00497323
0.00500792
0.00510914
0.00527537
0.00555412
0.00609911
0.00737278
0.0105048
0.0177198
0.0326148
0.0598287
0.104227
0.169785
0.258726
0.371223
0.50547
0.658204
0.825728
1.00515
1.19471
1.39345
1.60246
1.82502
2.0653
2.32562
2.61075
2.92519
3.26974
3.63709
4.02354
4.41775
4.79913
5.13175
5.35404
26.2062
97.2134
158.924
157.921
76.7218
34.4406
16.3488
12.5238
15.612
22.7403
31.3505
31.3929
25.2296
18.3219
12.4069
7.70136
4.22274
1.89252
0.596859
0.0997965
0.00994575
0.00544506
0.0052904
0.00503131
0.0048811
0.00480061
0.00472339
0.00473364
0.00476543
0.00483493
0.00494373
0.00507908
0.00521667
0.00536424
0.00555862
0.00590477
0.00662361
0.00822617
0.011716
0.0187014
0.0313872
0.0524577
0.0848783
0.131672
0.195697
0.279398
0.384567
0.512973
0.666926
0.849033
1.06156
1.30731
1.58807
1.90227
2.24387
2.60475
2.9707
3.31846
3.60585
3.77745
23.7957
71.8298
130.725
120.585
59.0028
25.6732
13.1589
11.8366
15.9222
23.6527
31.3793
29.9498
23.646
16.5579
10.6673
6.14741
3.0012
1.11384
0.253244
0.0267842
0.00590475
0.00529174
0.00509867
0.00482959
0.00478977
0.00464615
0.0045566
0.00454887
0.00456813
0.00461509
0.00467938
0.00476091
0.00486046
0.00496691
0.00506443
0.00514037
0.00519656
0.00524474
0.00530182
0.0053917
0.00557529
0.00601326
0.0070802
0.00955476
0.0148788
0.0254982
0.045212
0.0794087
0.134894
0.219071
0.338595
0.498476
0.700803
0.94356
1.22001
1.51879
1.82196
2.10103
2.30959
2.36394
24.5633
62.167
116.314
104.219
46.5002
19.4522
11.1274
11.549
16.3754
24.6208
31.5676
28.4675
21.7292
14.677
9.00965
4.80184
2.05168
0.60656
0.094232
0.00939104
0.00540354
0.00512165
0.00491226
0.00480533
0.00470384
0.0045392
0.00448088
0.00444318
0.00444287
0.00447081
0.004518
0.00457003
0.00463101
0.00469351
0.00476489
0.00483352
0.0048874
0.00491919
0.00493189
0.00493465
0.004931
0.00492331
0.00491394
0.00492084
0.00500289
0.00530475
0.00619546
0.00860879
0.0147549
0.0292864
0.0604843
0.119729
0.217618
0.358684
0.539182
0.747155
0.962587
1.15422
1.27241
1.21839
26.9499
58.647
110.102
73.8074
34.066
14.8457
9.88542
11.5371
16.9548
25.7201
31.7804
26.684
19.4266
12.6211
7.37124
3.61635
1.33128
0.301269
0.0323741
0.00603499
0.00524876
0.00509233
0.00491539
0.00480619
0.0045812
0.00448568
0.00442543
0.00437453
0.0043609
0.00436652
0.0043961
0.00443671
0.00448741
0.00453002
0.00456968
0.00460518
0.00463887
0.00466958
0.00469039
0.00469488
0.00468372
0.00466344
0.00464285
0.0046209
0.00459519
0.0045702
0.00456775
0.0046444
0.00493477
0.00583509
0.00858307
0.0166347
0.0375801
0.0826504
0.159954
0.266254
0.385671
0.490649
0.539002
0.461313
21.5636
42.9782
68.7079
49.1768
23.3414
11.4372
9.1406
11.7184
17.654
26.9153
31.635
24.4897
16.8695
10.4889
5.78624
2.58526
0.8042
0.134056
0.0122908
0.00544562
0.00516172
0.00503864
0.00486036
0.00472144
0.00455224
0.00447105
0.00437964
0.00434004
0.00430623
0.00430103
0.00430804
0.00432654
0.00435705
0.00439586
0.00443405
0.00446297
0.00448058
0.00449201
0.00449968
0.00450114
0.00449389
0.00447574
0.00444796
0.00441821
0.00439207
0.00437402
0.00436338
0.00435809
0.00436548
0.00441197
0.00457375
0.00506842
0.00659256
0.0112525
0.0236057
0.0487553
0.0856285
0.121674
0.134173
0.0964558
15.9227
29.3071
44.3851
32.0729
15.539
9.05389
8.76281
12.0583
18.4847
28.1873
30.8429
21.8646
14.2775
8.4424
4.34044
1.73116
0.441588
0.0534612
0.00688754
0.00532893
0.00513379
0.00500365
0.00484838
0.00469227
0.00454827
0.00444326
0.00436725
0.00431679
0.00427445
0.0042589
0.00425416
0.00426182
0.00427042
0.00428653
0.00430618
0.00432984
0.00435056
0.00436187
0.00436123
0.00435281
0.0043406
0.00432596
0.00430728
0.00428479
0.00426054
0.0042353
0.00421411
0.00420281
0.00420378
0.0042179
0.00425231
0.00432723
0.00447332
0.00476826
0.00543909
0.00698128
0.00995769
0.0136179
0.014726
0.00973061
12.1856
21.6457
31.3139
19.3752
10.2466
7.56496
8.71366
12.5495
19.4671
29.4067
29.0321
19.1574
11.8741
6.61663
3.11037
1.07382
0.214556
0.0204205
0.00569694
0.00527198
0.0051384
0.00499164
0.00484066
0.00466204
0.00454229
0.00443485
0.00436071
0.00428944
0.00425236
0.00422446
0.00420954
0.00420916
0.00421295
0.00422041
0.00422629
0.0042313
0.00423605
0.00423969
0.00424091
0.00423755
0.00422766
0.00421142
0.0041931
0.00417507
0.00415574
0.00413262
0.00410788
0.00408959
0.00408335
0.00409164
0.0041174
0.00416366
0.00423231
0.00433148
0.00447735
0.00467616
0.00493477
0.00518195
0.00539336
0.00485585
10.4869
25.3294
20.9187
11.3755
7.22541
6.88257
8.98048
13.2082
20.5664
29.7448
26.335
16.8459
9.74918
5.03142
2.11268
0.606769
0.0901598
0.00925424
0.00550782
0.00526296
0.00515737
0.00498823
0.00482444
0.00465934
0.00455183
0.00444757
0.00436335
0.00429769
0.00424945
0.00421251
0.00418779
0.00417166
0.00416422
0.00416064
0.00416242
0.00416402
0.0041634
0.00415892
0.00415312
0.00414615
0.00413587
0.00411971
0.00409777
0.00407334
0.00405
0.00403152
0.00402013
0.00401486
0.00401259
0.00401175
0.00401737
0.00403761
0.00407855
0.00414502
0.00424104
0.00436344
0.00451403
0.00461922
0.00479707
0.00454229
8.07374
15.4892
10.7122
6.85399
5.79684
6.82154
9.55039
14.0761
21.7463
28.8519
23.4396
14.5834
7.74245
3.60916
1.31932
0.302341
0.033384
0.00629207
0.00548106
0.00529086
0.00515468
0.00498429
0.00482341
0.00468488
0.0045628
0.00446774
0.00438212
0.00431614
0.00426247
0.00421917
0.00418767
0.00416252
0.00414471
0.00413076
0.00412119
0.00411493
0.00410911
0.00410117
0.00408965
0.00407453
0.00405673
0.00403885
0.00402275
0.00400784
0.00399203
0.00397337
0.00395307
0.00393497
0.00392337
0.00392202
0.00393242
0.00395443
0.00398703
0.00403018
0.00408568
0.00415638
0.00425838
0.00433499
0.0044918
0.00435562
6.07559
9.39125
6.06731
4.87158
5.4116
7.2263
10.3991
15.1751
23.0487
27.3456
20.3178
12.007
5.81423
2.36435
0.724526
0.127262
0.0127387
0.00570239
0.00543199
0.00529391
0.00512055
0.00496495
0.00481727
0.00469891
0.00458411
0.00449046
0.00440662
0.00433841
0.00428028
0.00423443
0.00419768
0.00416991
0.00414617
0.00412731
0.00410896
0.00409213
0.00407536
0.00405971
0.00404509
0.0040307
0.00401478
0.00399592
0.00397415
0.00395078
0.00392767
0.00390723
0.00389083
0.00387887
0.00387104
0.00386698
0.00386763
0.00387493
0.00389151
0.00391966
0.00396036
0.00401123
0.00408874
0.00414376
0.00429845
0.00424524
3.35271
3.48392
3.5405
4.25004
5.70562
8.01426
11.5607
16.5276
24.373
24.6337
16.921
9.63047
4.25372
1.41607
0.337599
0.0443757
0.00686111
0.00544856
0.00531444
0.00518547
0.00504427
0.00492299
0.00480184
0.00468668
0.0045874
0.00449826
0.0044225
0.00435848
0.00430182
0.00425429
0.00421327
0.00417763
0.00414845
0.00412316
0.00410235
0.00408339
0.0040653
0.0040463
0.00402573
0.00400354
0.00398041
0.00395728
0.00393466
0.00391291
0.00389208
0.0038719
0.00385293
0.00383589
0.00382199
0.00381268
0.00380905
0.00381179
0.00382125
0.00383772
0.00386193
0.00389193
0.00394852
0.00398715
0.00412772
0.00413825
0.00486035
0.00575537
0.00687786
0.00839461
0.0105146
0.013357
0.0172514
0.0223685
0.0293259
0.0387875
0.0511527
0.0684387
0.0922957
0.124053
0.183166
0.244765
0.414728
0.544269
1.14172
0.664179
0.00477876
0.00554507
0.00655266
0.00789698
0.00981978
0.0125561
0.0162539
0.0214343
0.0285077
0.038227
0.0525103
0.0697763
0.101027
0.134194
0.210126
0.291199
0.524521
0.612503
1.50683
1.25354
0.00464796
0.00534623
0.00621484
0.00741861
0.00913204
0.0116095
0.01524
0.0198645
0.0275736
0.0362759
0.0526389
0.0700926
0.104637
0.143502
0.230257
0.306694
0.614426
0.677785
1.14552
1.67444
0.00457415
0.00513489
0.0059472
0.006836
0.00860879
0.0104791
0.0142937
0.0181306
0.0258876
0.0342613
0.0503972
0.0686068
0.105175
0.1404
0.243392
0.305275
0.540648
0.745973
0.915059
1.50406
0.00464835
0.00493239
0.00583308
0.00638432
0.00819896
0.00962557
0.0132951
0.0166932
0.0238697
0.031344
0.0477407
0.0625022
0.102847
0.131588
0.218444
0.29934
0.418889
0.710488
0.83338
1.17441
0.00456588
0.0047517
0.00552663
0.005999
0.00750866
0.00872981
0.0121274
0.0148199
0.0222727
0.0278456
0.0440849
0.0557939
0.0875357
0.120425
0.169889
0.274046
0.343409
0.573873
0.723761
0.924687
0.00429915
0.00456238
0.00501131
0.00546602
0.00667941
0.00768793
0.0109671
0.0130638
0.019744
0.0247194
0.0357291
0.0490949
0.066912
0.105591
0.133306
0.222537
0.281699
0.423967
0.564141
0.713107
0.00419628
0.004465
0.00475693
0.00509024
0.00596267
0.00697206
0.00946119
0.011858
0.0157951
0.0218887
0.0273006
0.0420645
0.0519
0.0848169
0.105293
0.163371
0.215522
0.300324
0.401667
0.511317
0.00418625
0.00430198
0.00449342
0.00469737
0.00512797
0.00622647
0.00742899
0.0102497
0.0118297
0.0179607
0.0209116
0.0328158
0.0395935
0.0608189
0.0781263
0.112498
0.151756
0.204132
0.268432
0.341451
0.0042141
0.00427001
0.00443354
0.00475418
0.00493399
0.00579327
0.00631026
0.00843081
0.0097882
0.0141407
0.0174828
0.025652
0.032817
0.0469119
0.063448
0.0884313
0.120766
0.163082
0.218564
0.295984
0.00452973
0.00495574
0.0065465
0.00944336
0.0154853
0.0222873
0.0331308
0.0425893
0.0556563
0.0676471
0.082955
0.100074
0.121858
0.150112
0.187338
0.237087
0.303827
0.401557
0.537734
0.712434
0.0168242
0.0461985
0.090893
0.132517
0.180001
0.213134
0.249254
0.272141
0.30004
0.324179
0.356636
0.396465
0.451015
0.522617
0.616606
0.738075
0.889921
1.06799
1.27311
1.48675
0.38629
0.553367
0.633111
0.655599
0.666478
0.66137
0.66195
0.663824
0.679057
0.706071
0.751407
0.816881
0.907206
1.02782
1.18457
1.38117
1.61717
1.8841
2.15585
2.38242
2.36851
1.7513
1.40548
1.20101
1.07588
1.00146
0.961161
0.950961
0.966752
1.01068
1.0859
1.19559
1.34595
1.54311
1.79376
2.09675
2.43843
2.76617
2.95966
3.20583
1.83622
1.22325
1.08649
1.00871
0.953206
0.923894
0.918006
0.931015
0.962339
1.01436
1.09003
1.19266
1.32981
1.50702
1.72844
1.98758
2.24003
2.3867
2.33085
2.37693
0.960578
0.71741
0.655676
0.624366
0.621945
0.630194
0.644916
0.663617
0.686523
0.71463
0.749147
0.791847
0.845056
0.910797
0.990934
1.0845
1.17954
1.23925
1.20874
1.21945
0.579782
0.430381
0.37329
0.36728
0.384293
0.407489
0.431585
0.453981
0.473669
0.490464
0.504198
0.515046
0.522981
0.527435
0.527214
0.520392
0.503556
0.472258
0.427284
0.399487
0.366311
0.25123
0.205662
0.201883
0.215335
0.234051
0.252606
0.268352
0.280106
0.287252
0.289481
0.286711
0.278867
0.265798
0.247284
0.223125
0.193384
0.159005
0.123098
0.0935996
0.251608
0.142675
0.105168
0.102474
0.110397
0.121929
0.133342
0.142356
0.147955
0.149508
0.146793
0.139858
0.12896
0.114564
0.0973999
0.0785484
0.0595064
0.0420909
0.0280666
0.0184923
0.149525
0.0701706
0.0457507
0.0452133
0.0488156
0.054187
0.0591863
0.0627196
0.0641644
0.0631954
0.0598392
0.0543435
0.0471698
0.0389658
0.0305195
0.0226649
0.0161252
0.0113189
0.00825064
0.00656047
0.0845206
0.0290085
0.0173433
0.017592
0.0186927
0.0205594
0.0220793
0.02299
0.0229856
0.0219882
0.0201192
0.0176117
0.0147944
0.0120245
0.00961442
0.00775882
0.00649579
0.00572504
0.00528382
0.00504222
0.0389349
0.0109728
0.00722046
0.00729798
0.00750486
0.00793977
0.00822185
0.0083372
0.0082049
0.00783026
0.00728978
0.00667747
0.00609515
0.00561748
0.00527573
0.00506046
0.00493815
0.00487356
0.00484753
0.00484144
0.0177963
0.0056078
0.00462514
0.00460558
0.00463334
0.00469852
0.0047391
0.00475162
0.00473812
0.00469736
0.0046515
0.00461326
0.00459253
0.00458976
0.00459759
0.00460549
0.00460181
0.00457708
0.00452811
0.00446889
0.00968976
0.00446829
0.00416163
0.00415208
0.00415198
0.0041594
0.00416949
0.00417888
0.00419422
0.00421195
0.00423459
0.00426051
0.00428739
0.00431215
0.00433154
0.00434351
0.00434805
0.00434707
0.00434096
0.00432448
0.964095
1.7983
2.20305
2.6943
3.06172
3.29772
3.18851
2.97894
3.03664
2.87357
2.69736
2.64297
2.52223
2.49154
2.46832
1.21827
2.6172
3.19549