/*--------------------------------*- C++ -*----------------------------------*\
| =========                 |                                                 |
| \\      /  F ield         | OpenFOAM: The Open Source CFD Toolbox           |
|  \\    /   O peration     | Version:  v1606+                                |
|   \\  /    A nd           | Web:      www.OpenFOAM.com                      |
|    \\/     M anipulation  |                                                 |
\*---------------------------------------------------------------------------*/
FoamFile
{
    version     2.0;
    format      ascii;
    class       volVectorField;
    location    "1.95";
    object      U.air;
}
// * * * * * * * * * * * * * * * * * * * * * * * * * * * * * * * * * * * * * //

dimensions      [0 1 -1 0 0 0 0];

internalField   nonuniform List<vector> 
6000
(
(0.000126542 0.22119 0)
(0.024787 0.162708 0)
(0.0100363 0.18508 0)
(-0.0154224 0.194034 0)
(-0.0434093 0.210633 0)
(-0.0488515 0.232354 0)
(-0.0405278 0.257741 0)
(-0.0412676 0.258505 0)
(-0.0427117 0.222105 0)
(-0.047159 0.199083 0)
(-0.0643852 0.18072 0)
(-0.080306 0.165309 0)
(-0.0693262 0.171195 0)
(-0.032729 0.16585 0)
(-0.00180815 0.151496 0)
(0.00024331 0.160582 0)
(0.00216297 0.146861 0)
(0.0129557 0.148411 0)
(0.0167134 0.183794 0)
(0.0169715 0.217256 0)
(0.0151601 0.239063 0)
(0.00357547 0.268847 0)
(-0.0212078 0.280056 0)
(-0.0480298 0.270583 0)
(-0.0625119 0.252176 0)
(-0.0554796 0.22651 0)
(-0.0457509 0.225961 0)
(-0.0403725 0.221046 0)
(-0.0377088 0.208972 0)
(-0.00694416 0.235527 0)
(0.0384846 0.977353 0)
(0.0503503 1.04462 0)
(0.0660328 1.08691 0)
(0.0786164 1.10806 0)
(0.0643807 1.13255 0)
(0.0390567 1.11142 0)
(-0.00368719 1.12979 0)
(-0.0537573 1.14451 0)
(-0.105373 1.12473 0)
(-0.134455 1.11063 0)
(-0.145034 1.08421 0)
(-0.140691 1.04632 0)
(-0.108594 0.993305 0)
(-0.0702145 0.969289 0)
(-0.0271862 1.0124 0)
(0.00797868 1.03161 0)
(0.0227306 1.03878 0)
(0.031957 1.05758 0)
(0.0433845 1.05927 0)
(0.0501843 1.07414 0)
(0.0307728 1.10983 0)
(-0.00735425 1.14566 0)
(-0.0469839 1.16868 0)
(-0.0838054 1.16988 0)
(-0.121025 1.15506 0)
(-0.148696 1.111 0)
(-0.158306 1.08069 0)
(-0.136317 1.03202 0)
(-0.081658 1.008 0)
(-0.0443983 0.955656 0)
(-0.0163361 0.772362 0)
(0.0220783 0.78217 0)
(0.090902 0.805268 0)
(0.156872 0.834759 0)
(0.193401 0.886127 0)
(0.174403 0.924032 0)
(0.0973779 0.963806 0)
(-0.0111512 0.988877 0)
(-0.131543 0.952689 0)
(-0.202305 0.898908 0)
(-0.183771 0.825182 0)
(-0.1349 0.741076 0)
(-0.0942378 0.689046 0)
(-0.0744949 0.666767 0)
(-0.0442206 0.689885 0)
(-0.00993995 0.745365 0)
(0.00499494 0.760311 0)
(0.0267692 0.770782 0)
(0.0606667 0.801981 0)
(0.0839496 0.875918 0)
(0.0489779 0.938133 0)
(-0.0413236 0.955158 0)
(-0.124409 0.938377 0)
(-0.182821 0.916918 0)
(-0.243582 0.907173 0)
(-0.293917 0.866885 0)
(-0.284188 0.830709 0)
(-0.202969 0.759478 0)
(-0.0749044 0.715135 0)
(0.000738613 0.742622 0)
(-0.0127964 0.855291 0)
(0.0358391 0.789909 0)
(0.128446 0.800685 0)
(0.183389 0.857825 0)
(0.216696 0.89122 0)
(0.234434 0.938534 0)
(0.206662 1.01157 0)
(0.141469 1.06495 0)
(0.0329138 1.07482 0)
(-0.0971672 1.00354 0)
(-0.175564 0.93922 0)
(-0.155222 0.856659 0)
(-0.10068 0.804206 0)
(-0.0814804 0.777885 0)
(-0.0489028 0.795551 0)
(-0.0115516 0.838704 0)
(0.00466211 0.874425 0)
(0.0231331 0.898154 0)
(0.06325 0.913548 0)
(0.0358503 0.95061 0)
(-0.0734384 1.01761 0)
(-0.185689 1.03592 0)
(-0.260234 0.999111 0)
(-0.297076 0.965946 0)
(-0.3132 0.951015 0)
(-0.324585 0.874047 0)
(-0.315516 0.778546 0)
(-0.24238 0.692406 0)
(-0.103978 0.649295 0)
(-0.0181004 0.757083 0)
(0.0195863 0.759402 0)
(0.0691216 0.643713 0)
(0.122015 0.668306 0)
(0.180995 0.738753 0)
(0.246454 0.801895 0)
(0.298526 0.888441 0)
(0.336961 0.984648 0)
(0.349923 1.06975 0)
(0.312658 1.13691 0)
(0.174101 1.0865 0)
(-0.0274762 0.942897 0)
(-0.131877 0.806397 0)
(-0.107135 0.770908 0)
(-0.0498497 0.746345 0)
(0.000691377 0.758494 0)
(0.0284603 0.852649 0)
(0.0412334 0.919795 0)
(0.0309164 0.913782 0)
(-0.0495946 0.881817 0)
(-0.224865 1.03513 0)
(-0.402777 1.1085 0)
(-0.477303 1.06038 0)
(-0.479833 0.970127 0)
(-0.451004 0.895901 0)
(-0.398886 0.864188 0)
(-0.350094 0.827918 0)
(-0.327964 0.711702 0)
(-0.279808 0.558035 0)
(-0.166306 0.485965 0)
(-0.0640984 0.656008 0)
(0.0490434 0.682462 0)
(0.105195 0.581964 0)
(0.154474 0.598732 0)
(0.226366 0.623819 0)
(0.30548 0.648895 0)
(0.380656 0.724052 0)
(0.449677 0.827811 0)
(0.506099 0.945014 0)
(0.542914 1.06803 0)
(0.519855 1.17925 0)
(0.340324 1.15208 0)
(0.0767494 0.891458 0)
(-0.0421214 0.773484 0)
(-0.0027344 0.761425 0)
(0.0722437 0.790257 0)
(0.0851966 0.895284 0)
(-0.00678784 0.92736 0)
(-0.196138 0.949906 0)
(-0.484432 1.07172 0)
(-0.726986 1.16432 0)
(-0.757263 1.0727 0)
(-0.683669 0.931509 0)
(-0.593269 0.820923 0)
(-0.505359 0.748176 0)
(-0.418705 0.706374 0)
(-0.349974 0.677533 0)
(-0.318252 0.622375 0)
(-0.261556 0.441664 0)
(-0.17335 0.352331 0)
(-0.0799219 0.496323 0)
(0.0300253 0.511726 0)
(0.105006 0.456833 0)
(0.196106 0.450145 0)
(0.283416 0.47075 0)
(0.376215 0.536036 0)
(0.464683 0.63731 0)
(0.54561 0.755984 0)
(0.61481 0.876062 0)
(0.667974 0.998759 0)
(0.70981 1.12745 0)
(0.700921 1.23626 0)
(0.490807 1.13102 0)
(0.199812 0.824895 0)
(0.0893531 0.719417 0)
(0.0641382 0.733002 0)
(-0.051253 0.890083 0)
(-0.294461 1.0831 0)
(-0.629729 1.20842 0)
(-0.927888 1.26903 0)
(-1.00505 1.14121 0)
(-0.904223 0.961897 0)
(-0.767887 0.819534 0)
(-0.64193 0.718195 0)
(-0.528608 0.650285 0)
(-0.429473 0.621363 0)
(-0.350586 0.612271 0)
(-0.253695 0.51835 0)
(-0.156432 0.329358 0)
(-0.105695 0.241337 0)
(-0.0649052 0.35721 0)
(0.0377959 0.466612 0)
(0.115766 0.345223 0)
(0.199274 0.377525 0)
(0.256713 0.391407 0)
(0.344599 0.443746 0)
(0.448158 0.537577 0)
(0.557904 0.66393 0)
(0.658541 0.803364 0)
(0.746093 0.942893 0)
(0.822993 1.08899 0)
(0.867044 1.24173 0)
(0.785972 1.29745 0)
(0.499753 1.07512 0)
(0.183148 0.793455 0)
(-0.071459 0.844541 0)
(-0.364331 1.12969 0)
(-0.629966 1.26506 0)
(-0.842879 1.34203 0)
(-1.00799 1.33137 0)
(-0.981257 1.04812 0)
(-0.856189 0.818395 0)
(-0.697898 0.678999 0)
(-0.553278 0.594921 0)
(-0.433404 0.546659 0)
(-0.332671 0.530113 0)
(-0.242157 0.522181 0)
(-0.12492 0.413298 0)
(-0.0628247 0.269567 0)
(-0.0427793 0.242567 0)
(-0.0247145 0.294798 0)
(0.0649465 0.380039 0)
(0.0928238 0.303813 0)
(0.126153 0.350841 0)
(0.153727 0.338758 0)
(0.213984 0.366377 0)
(0.296567 0.435114 0)
(0.406024 0.548611 0)
(0.534605 0.687384 0)
(0.671465 0.83513 0)
(0.794513 1.00543 0)
(0.839927 1.22799 0)
(0.768471 1.41455 0)
(0.52631 1.29857 0)
(0.155244 1.09489 0)
(-0.231108 1.10551 0)
(-0.51146 1.24389 0)
(-0.670582 1.35209 0)
(-0.765471 1.37977 0)
(-0.850163 1.29968 0)
(-0.782738 0.921181 0)
(-0.659306 0.659697 0)
(-0.512852 0.537647 0)
(-0.381192 0.483561 0)
(-0.278979 0.459099 0)
(-0.194961 0.452838 0)
(-0.105871 0.439095 0)
(-0.0230166 0.349556 0)
(0.00855274 0.260286 0)
(-0.00591902 0.24519 0)
(-0.00290061 0.278424 0)
(0.030836 0.364383 0)
(0.020819 0.337309 0)
(0.0311406 0.356714 0)
(0.0507297 0.328775 0)
(0.0834566 0.335511 0)
(0.13342 0.372851 0)
(0.213982 0.449906 0)
(0.331601 0.557506 0)
(0.481694 0.687694 0)
(0.626381 0.885795 0)
(0.660637 1.22792 0)
(0.512187 1.46151 0)
(0.304257 1.5085 0)
(0.0168365 1.36583 0)
(-0.279681 1.32672 0)
(-0.480463 1.36348 0)
(-0.581752 1.39544 0)
(-0.613297 1.38275 0)
(-0.633894 1.23913 0)
(-0.53629 0.790194 0)
(-0.423206 0.512642 0)
(-0.3157 0.422525 0)
(-0.220864 0.406351 0)
(-0.149128 0.406389 0)
(-0.0872023 0.406992 0)
(-0.0225552 0.391256 0)
(0.0266952 0.326 0)
(0.032646 0.275353 0)
(0.0104982 0.269451 0)
(0.00655566 0.283588 0)
(-0.00989687 0.424194 0)
(-0.034146 0.387151 0)
(-0.0332061 0.373503 0)
(-0.0188483 0.331618 0)
(-0.00140093 0.322901 0)
(0.0239985 0.339831 0)
(0.0707082 0.38383 0)
(0.153876 0.450635 0)
(0.274897 0.542937 0)
(0.404303 0.758048 0)
(0.436803 1.26787 0)
(0.270613 1.61098 0)
(0.0792174 1.66135 0)
(-0.106974 1.5729 0)
(-0.315647 1.51916 0)
(-0.458569 1.47474 0)
(-0.528247 1.42748 0)
(-0.506321 1.36031 0)
(-0.44543 1.13798 0)
(-0.295797 0.64793 0)
(-0.199324 0.39324 0)
(-0.139913 0.344205 0)
(-0.0908285 0.357695 0)
(-0.0517828 0.373436 0)
(-0.0140431 0.379442 0)
(0.0199455 0.368173 0)
(0.0405831 0.323325 0)
(0.0317221 0.295087 0)
(0.0129307 0.283654 0)
(0.00514254 0.290151 0)
(-0.0504371 0.505762 0)
(-0.103835 0.426763 0)
(-0.0928665 0.375468 0)
(-0.0692122 0.329367 0)
(-0.0513829 0.313861 0)
(-0.036086 0.323798 0)
(-0.015835 0.349187 0)
(0.0226164 0.383159 0)
(0.0873711 0.431203 0)
(0.17296 0.638208 0)
(0.228794 1.29655 0)
(0.12784 1.73288 0)
(-0.0307989 1.80463 0)
(-0.196863 1.74609 0)
(-0.379828 1.67269 0)
(-0.484516 1.55691 0)
(-0.495912 1.42249 0)
(-0.404448 1.26953 0)
(-0.260461 0.970773 0)
(-0.0782583 0.505047 0)
(-0.0210272 0.325722 0)
(-0.00717397 0.314925 0)
(0.000829739 0.338098 0)
(0.012506 0.356682 0)
(0.0285078 0.365096 0)
(0.0407174 0.359262 0)
(0.0439995 0.330563 0)
(0.0283869 0.315609 0)
(0.0121968 0.295347 0)
(0.00382781 0.295723 0)
(-0.117783 0.656277 0)
(-0.17947 0.445337 0)
(-0.152905 0.354713 0)
(-0.111955 0.310535 0)
(-0.0806519 0.301959 0)
(-0.0665546 0.319686 0)
(-0.066336 0.342605 0)
(-0.0678298 0.364694 0)
(-0.0636102 0.387013 0)
(-0.0373691 0.554391 0)
(0.0483431 1.27555 0)
(0.068867 1.82744 0)
(-0.0634286 1.96071 0)
(-0.24331 1.92034 0)
(-0.424379 1.81662 0)
(-0.496069 1.59183 0)
(-0.434664 1.33811 0)
(-0.286128 1.18919 0)
(-0.0582104 0.770725 0)
(0.0779374 0.415628 0)
(0.091497 0.323433 0)
(0.0732546 0.324972 0)
(0.0560935 0.339171 0)
(0.0504981 0.350985 0)
(0.0522612 0.358337 0)
(0.0517929 0.358407 0)
(0.046075 0.342194 0)
(0.0287486 0.337133 0)
(0.012651 0.310205 0)
(0.00367453 0.306518 0)
(-0.0537479 0.73107 0)
(-0.169068 0.453972 0)
(-0.176149 0.346398 0)
(-0.13414 0.294356 0)
(-0.0887398 0.292767 0)
(-0.0739103 0.327372 0)
(-0.0913197 0.359542 0)
(-0.124379 0.38622 0)
(-0.165635 0.414165 0)
(-0.189725 0.540491 0)
(-0.121996 1.18551 0)
(-0.0121575 1.88323 0)
(-0.0742161 2.11489 0)
(-0.22788 2.10301 0)
(-0.393573 1.94732 0)
(-0.429023 1.65023 0)
(-0.315175 1.26713 0)
(-0.0879793 0.997594 0)
(0.114414 0.624042 0)
(0.171231 0.409801 0)
(0.154513 0.360129 0)
(0.115113 0.354629 0)
(0.0849092 0.351445 0)
(0.0700023 0.351904 0)
(0.0636266 0.356729 0)
(0.0572746 0.362328 0)
(0.0479174 0.357625 0)
(0.0308957 0.360746 0)
(0.0157834 0.331402 0)
(0.00649876 0.327249 0)
(0.0218535 0.762811 0)
(-0.0352743 0.486927 0)
(-0.081581 0.319786 0)
(-0.0804022 0.281145 0)
(-0.0639432 0.316334 0)
(-0.0631953 0.384577 0)
(-0.0989337 0.412714 0)
(-0.144458 0.434036 0)
(-0.204858 0.488858 0)
(-0.276499 0.632842 0)
(-0.29134 1.16487 0)
(-0.217184 1.94324 0)
(-0.145465 2.28817 0)
(-0.147625 2.3181 0)
(-0.199564 2.1268 0)
(-0.177085 1.61859 0)
(-0.109021 1.15116 0)
(0.0736668 0.845122 0)
(0.202326 0.574777 0)
(0.228183 0.449531 0)
(0.186631 0.415495 0)
(0.133108 0.394496 0)
(0.0951339 0.372165 0)
(0.0754608 0.358772 0)
(0.0660475 0.35991 0)
(0.0567947 0.369517 0)
(0.0471784 0.371022 0)
(0.0363389 0.378484 0)
(0.0268674 0.349202 0)
(0.0210962 0.369249 0)
(0.0455791 0.659437 0)
(0.0749428 0.50346 0)
(0.0968822 0.351605 0)
(0.11094 0.29684 0)
(0.103082 0.322253 0)
(0.0685768 0.421319 0)
(-0.0203601 0.487458 0)
(-0.100451 0.513892 0)
(-0.180103 0.588636 0)
(-0.341996 0.76044 0)
(-0.500136 1.24935 0)
(-0.464229 1.89544 0)
(-0.259802 2.23435 0)
(-0.0650037 2.2918 0)
(0.0837896 2.1215 0)
(0.143081 1.67394 0)
(0.0642693 1.18373 0)
(0.126353 0.771793 0)
(0.245546 0.560275 0)
(0.254688 0.498123 0)
(0.204168 0.478286 0)
(0.13664 0.452155 0)
(0.085864 0.406406 0)
(0.0667226 0.37079 0)
(0.0614651 0.366246 0)
(0.0505404 0.379842 0)
(0.0375421 0.381048 0)
(0.0297806 0.386999 0)
(0.0280743 0.363108 0)
(0.0151404 0.407156 0)
(0.0516809 0.598902 0)
(0.115125 0.417119 0)
(0.167599 0.310451 0)
(0.209344 0.29313 0)
(0.242976 0.333141 0)
(0.299531 0.485389 0)
(0.275772 0.552125 0)
(0.131402 0.534296 0)
(-0.0605523 0.627897 0)
(-0.342837 0.916513 0)
(-0.55752 1.27447 0)
(-0.542927 1.76067 0)
(-0.30515 2.0216 0)
(-0.00720625 2.09517 0)
(0.269984 1.97473 0)
(0.37147 1.71846 0)
(0.263386 1.29215 0)
(0.172477 0.753224 0)
(0.25636 0.531732 0)
(0.277914 0.53595 0)
(0.231947 0.542702 0)
(0.137053 0.531121 0)
(0.0487404 0.458413 0)
(0.034858 0.381372 0)
(0.0484009 0.374116 0)
(0.0408559 0.396844 0)
(0.0220814 0.396118 0)
(0.0071438 0.393682 0)
(-0.00167434 0.382409 0)
(0.0013788 0.444052 0)
(0.0594375 0.508006 0)
(0.125794 0.373614 0)
(0.148332 0.294433 0)
(0.144443 0.278392 0)
(0.181496 0.268555 0)
(0.214074 0.359404 0)
(0.340682 0.588872 0)
(0.293536 0.684401 0)
(0.11609 0.862133 0)
(-0.125881 1.13182 0)
(-0.314992 1.34418 0)
(-0.350763 1.61814 0)
(-0.191379 1.76239 0)
(0.0804116 1.81056 0)
(0.3473 1.74182 0)
(0.507833 1.6629 0)
(0.556686 1.39202 0)
(0.451061 0.784471 0)
(0.346204 0.559611 0)
(0.337413 0.591923 0)
(0.278063 0.647153 0)
(0.166361 0.697884 0)
(-0.00554474 0.567174 0)
(-0.0168098 0.369139 0)
(0.0278411 0.381139 0)
(0.030581 0.420948 0)
(0.0115883 0.424861 0)
(-0.0169819 0.413802 0)
(-0.0343187 0.398823 0)
(-0.0186994 0.439713 0)
(0.0496826 0.445684 0)
(0.104712 0.357891 0)
(0.104002 0.303346 0)
(0.0812272 0.287597 0)
(0.0587741 0.270589 0)
(0.075261 0.279494 0)
(0.123676 0.428924 0)
(0.2122 0.631251 0)
(0.183331 0.904524 0)
(0.0865143 1.14054 0)
(0.0110308 1.32947 0)
(-0.0148204 1.48376 0)
(0.0442083 1.53087 0)
(0.203242 1.50765 0)
(0.448179 1.52203 0)
(0.712391 1.45486 0)
(0.963959 1.29144 0)
(0.999446 0.956404 0)
(0.801808 0.655083 0)
(0.62643 0.59364 0)
(0.454592 0.626331 0)
(0.284505 0.759258 0)
(0.0717938 0.668515 0)
(-0.0179827 0.342007 0)
(0.0334203 0.372773 0)
(0.0363187 0.439669 0)
(0.0095605 0.462544 0)
(-0.0355856 0.447217 0)
(-0.0556352 0.406082 0)
(-0.0266556 0.408071 0)
(0.0300301 0.392557 0)
(0.0641044 0.344328 0)
(0.0548473 0.316368 0)
(0.026386 0.308671 0)
(-0.0131125 0.298441 0)
(-0.0376566 0.297051 0)
(-0.0239798 0.353943 0)
(0.0619802 0.584069 0)
(0.150446 0.896595 0)
(0.160159 1.15582 0)
(0.145114 1.28743 0)
(0.157607 1.38092 0)
(0.208648 1.38173 0)
(0.337191 1.26723 0)
(0.566069 1.14705 0)
(0.911003 1.11902 0)
(1.21219 1.02375 0)
(1.38961 0.961472 0)
(1.33066 0.866662 0)
(1.12916 0.806872 0)
(0.896494 0.865315 0)
(0.70839 0.98406 0)
(0.549809 0.915636 0)
(0.285416 0.491381 0)
(0.16922 0.429866 0)
(0.0912072 0.50072 0)
(0.0176191 0.512227 0)
(-0.0673371 0.503104 0)
(-0.0934486 0.38875 0)
(-0.0345472 0.354351 0)
(0.0145205 0.354011 0)
(0.0244263 0.334886 0)
(0.00955456 0.329742 0)
(-0.0209909 0.333595 0)
(-0.0628476 0.336981 0)
(-0.106872 0.338211 0)
(-0.108248 0.354688 0)
(-0.09782 0.480509 0)
(0.050879 0.84889 0)
(0.148727 1.13359 0)
(0.172905 1.27842 0)
(0.181 1.3207 0)
(0.251168 1.24497 0)
(0.407253 1.05809 0)
(0.63399 0.881492 0)
(0.948652 0.834316 0)
(1.19106 0.808034 0)
(1.32575 0.853386 0)
(1.32741 0.885017 0)
(1.21202 0.890455 0)
(1.10426 0.904747 0)
(1.10725 0.992323 0)
(1.12242 1.05568 0)
(0.92434 0.796583 0)
(0.528074 0.597186 0)
(0.281985 0.52948 0)
(0.07265 0.545306 0)
(-0.0797156 0.553126 0)
(-0.125395 0.414791 0)
(-0.0525552 0.287383 0)
(0.00275744 0.33424 0)
(-0.00571511 0.337273 0)
(-0.0294636 0.35004 0)
(-0.0658024 0.36528 0)
(-0.111063 0.378988 0)
(-0.161018 0.387813 0)
(-0.185761 0.401112 0)
(-0.1892 0.452846 0)
(-0.115285 0.705623 0)
(0.0442412 1.0353 0)
(0.12614 1.25185 0)
(0.150988 1.29481 0)
(0.229448 1.15158 0)
(0.390978 0.889132 0)
(0.61647 0.719722 0)
(0.824817 0.634744 0)
(0.98549 0.671905 0)
(1.06111 0.765411 0)
(1.09141 0.861493 0)
(1.08949 0.901897 0)
(1.15609 0.902395 0)
(1.26167 0.943901 0)
(1.39036 1.08773 0)
(1.32636 1.08161 0)
(1.01303 0.90462 0)
(0.641401 0.796275 0)
(0.294201 0.701975 0)
(0.0231689 0.638671 0)
(-0.160175 0.301273 0)
(-0.105489 0.21985 0)
(-0.00579686 0.338966 0)
(-0.0275431 0.356753 0)
(-0.0636553 0.384578 0)
(-0.111601 0.407995 0)
(-0.164139 0.427831 0)
(-0.219844 0.443079 0)
(-0.264965 0.456979 0)
(-0.254161 0.488487 0)
(-0.251472 0.630636 0)
(-0.106488 0.964832 0)
(0.0262128 1.1765 0)
(0.0932216 1.2473 0)
(0.176504 1.04877 0)
(0.340233 0.787146 0)
(0.502403 0.582201 0)
(0.635018 0.526607 0)
(0.719316 0.575946 0)
(0.773948 0.702355 0)
(0.818639 0.808937 0)
(0.903281 0.836374 0)
(1.05364 0.824075 0)
(1.16253 0.85211 0)
(1.22475 0.966953 0)
(1.18608 1.05636 0)
(1.01226 1.09876 0)
(0.734572 1.0217 0)
(0.473427 0.942729 0)
(0.234879 0.847024 0)
(0.000775113 0.503085 0)
(-0.0343944 0.0184965 0)
(-0.010508 0.369054 0)
(-0.0401116 0.401366 0)
(-0.0934257 0.450658 0)
(-0.160533 0.469213 0)
(-0.222858 0.48617 0)
(-0.28495 0.504223 0)
(-0.342936 0.517727 0)
(-0.358829 0.542128 0)
(-0.340525 0.630195 0)
(-0.262385 0.84744 0)
(-0.0910373 1.13385 0)
(0.0484833 1.24828 0)
(0.15983 1.02423 0)
(0.274767 0.684263 0)
(0.387205 0.520402 0)
(0.450757 0.476358 0)
(0.469782 0.516046 0)
(0.501458 0.639182 0)
(0.577556 0.721128 0)
(0.720812 0.726108 0)
(0.88376 0.715489 0)
(0.962678 0.761831 0)
(0.995731 0.915037 0)
(0.92007 1.06264 0)
(0.793154 1.16851 0)
(0.628585 1.13989 0)
(0.460504 1.08116 0)
(0.281469 0.963423 0)
(0.127872 0.56322 0)
(0.0407435 0.124669 0)
(-0.00574505 0.413835 0)
(-0.0293627 0.464769 0)
(-0.121528 0.551643 0)
(-0.227333 0.546623 0)
(-0.293324 0.551025 0)
(-0.355153 0.569549 0)
(-0.415559 0.583257 0)
(-0.453066 0.602034 0)
(-0.425704 0.659684 0)
(-0.372965 0.798393 0)
(-0.223372 1.0096 0)
(-0.0230994 1.13707 0)
(0.13113 0.958181 0)
(0.214618 0.647912 0)
(0.258686 0.49767 0)
(0.268578 0.455656 0)
(0.256131 0.491462 0)
(0.286447 0.57452 0)
(0.395079 0.606607 0)
(0.561663 0.600471 0)
(0.680675 0.601585 0)
(0.718831 0.68901 0)
(0.676666 0.823264 0)
(0.647986 1.05498 0)
(0.599956 1.22766 0)
(0.523615 1.26808 0)
(0.40093 1.23986 0)
(0.259682 1.11832 0)
(0.126127 0.678899 0)
(0.0416462 0.17003 0)
(0.0119567 0.412529 0)
(0.0103847 0.606594 0)
(-0.174886 0.772285 0)
(-0.326662 0.621118 0)
(-0.396491 0.603014 0)
(-0.441137 0.624903 0)
(-0.489121 0.63793 0)
(-0.524219 0.65288 0)
(-0.512073 0.684382 0)
(-0.438142 0.786362 0)
(-0.308272 0.916489 0)
(-0.111634 1.01774 0)
(0.0650742 0.89668 0)
(0.131221 0.647546 0)
(0.127511 0.503473 0)
(0.104902 0.462591 0)
(0.0878532 0.477525 0)
(0.131921 0.501919 0)
(0.244106 0.491855 0)
(0.374684 0.473044 0)
(0.447757 0.503714 0)
(0.47404 0.651989 0)
(0.416293 0.783389 0)
(0.427511 1.02394 0)
(0.453954 1.24376 0)
(0.426199 1.33619 0)
(0.343812 1.34869 0)
(0.235438 1.23703 0)
(0.131698 0.784655 0)
(0.048064 0.261819 0)
(0.0464603 0.438575 0)
(0.143487 0.607143 0)
(-0.032893 0.904435 0)
(-0.385152 0.781311 0)
(-0.498312 0.646877 0)
(-0.535552 0.656232 0)
(-0.55313 0.665988 0)
(-0.559332 0.66993 0)
(-0.542648 0.692154 0)
(-0.476125 0.752434 0)
(-0.356179 0.848058 0)
(-0.19407 0.906825 0)
(-0.0324743 0.823562 0)
(0.025574 0.649057 0)
(0.0106054 0.524686 0)
(-0.0151575 0.48197 0)
(-0.0230907 0.466381 0)
(0.0122105 0.44261 0)
(0.0799649 0.396086 0)
(0.14572 0.363734 0)
(0.189615 0.422944 0)
(0.224177 0.602136 0)
(0.20398 0.747186 0)
(0.232002 0.96423 0)
(0.306961 1.21268 0)
(0.319191 1.37474 0)
(0.277318 1.42545 0)
(0.214409 1.32621 0)
(0.145456 0.874433 0)
(0.061377 0.361316 0)
(0.0756051 0.211313 0)
(0.191742 0.628941 0)
(0.191345 1.17119 0)
(-0.0862094 1.01482 0)
(-0.479741 0.767355 0)
(-0.579098 0.668247 0)
(-0.578265 0.657664 0)
(-0.562111 0.6533 0)
(-0.527365 0.66222 0)
(-0.463221 0.700278 0)
(-0.371037 0.771821 0)
(-0.253644 0.803485 0)
(-0.138216 0.743973 0)
(-0.081498 0.636215 0)
(-0.0819384 0.541186 0)
(-0.0952141 0.496033 0)
(-0.0988707 0.461303 0)
(-0.0903722 0.415477 0)
(-0.0808644 0.354028 0)
(-0.0797501 0.310404 0)
(-0.0657674 0.354977 0)
(-0.00564552 0.538636 0)
(0.055543 0.766683 0)
(0.0722831 0.909167 0)
(0.135926 1.15942 0)
(0.190881 1.376 0)
(0.198413 1.45773 0)
(0.188695 1.37437 0)
(0.154871 0.940855 0)
(0.0779521 0.480163 0)
(0.0161363 0.18935 0)
(0.111578 0.44089 0)
(0.318608 1.06822 0)
(0.297249 1.30206 0)
(-0.127456 1.06714 0)
(-0.529892 0.74439 0)
(-0.571422 0.633942 0)
(-0.543468 0.615426 0)
(-0.499887 0.610726 0)
(-0.435729 0.631391 0)
(-0.361685 0.691196 0)
(-0.27797 0.715996 0)
(-0.202309 0.671959 0)
(-0.155589 0.607728 0)
(-0.143429 0.544437 0)
(-0.148308 0.502121 0)
(-0.155958 0.463972 0)
(-0.168546 0.418838 0)
(-0.194029 0.365436 0)
(-0.229479 0.320999 0)
(-0.247133 0.323055 0)
(-0.204047 0.446749 0)
(-0.0981023 0.698401 0)
(-0.0536788 0.876336 0)
(-0.0258532 1.11069 0)
(0.0409108 1.33466 0)
(0.108269 1.44815 0)
(0.149618 1.38732 0)
(0.158132 0.993345 0)
(0.0838092 0.606304 0)
(0.00745759 0.135149 0)
(0.0524229 0.271641 0)
(0.261103 0.841921 0)
(0.423628 1.32634 0)
(0.242753 1.4702 0)
(-0.218512 0.994071 0)
(-0.534214 0.672971 0)
(-0.519727 0.572475 0)
(-0.472368 0.552328 0)
(-0.407215 0.563505 0)
(-0.343299 0.61883 0)
(-0.276195 0.64014 0)
(-0.224401 0.613487 0)
(-0.19047 0.578859 0)
(-0.178094 0.539758 0)
(-0.181563 0.505986 0)
(-0.193904 0.473147 0)
(-0.215152 0.437314 0)
(-0.248609 0.398734 0)
(-0.293633 0.363721 0)
(-0.327902 0.344077 0)
(-0.325369 0.394463 0)
(-0.248429 0.616209 0)
(-0.155151 0.89581 0)
(-0.135466 1.07718 0)
(-0.0860677 1.27977 0)
(0.00762526 1.3911 0)
(0.0945444 1.3595 0)
(0.137231 1.00823 0)
(0.0695641 0.727806 0)
(0.000480923 0.128169 0)
(0.00762303 0.179827 0)
(0.145862 0.60011 0)
(0.327633 1.23258 0)
(0.329518 1.55297 0)
(0.0907824 1.37806 0)
(-0.302201 0.822175 0)
(-0.513703 0.575725 0)
(-0.44298 0.490451 0)
(-0.375201 0.501359 0)
(-0.315208 0.560563 0)
(-0.258361 0.58197 0)
(-0.22317 0.570408 0)
(-0.200351 0.55553 0)
(-0.193475 0.533678 0)
(-0.199314 0.510599 0)
(-0.215019 0.486098 0)
(-0.239805 0.459839 0)
(-0.274365 0.433038 0)
(-0.319602 0.40842 0)
(-0.366025 0.390151 0)
(-0.392373 0.405089 0)
(-0.364641 0.542469 0)
(-0.271799 0.832582 0)
(-0.192416 1.10786 0)
(-0.15225 1.2179 0)
(-0.0821537 1.30838 0)
(-0.00549005 1.28379 0)
(0.0729288 1.06078 0)
(0.0448025 0.815675 0)
(-0.00388487 0.132619 0)
(-0.0175885 0.137906 0)
(0.0496462 0.423584 0)
(0.202068 1.18153 0)
(0.237971 1.56514 0)
(0.167406 1.50573 0)
(-0.132259 1.2017 0)
(-0.395664 0.621853 0)
(-0.422261 0.431791 0)
(-0.31913 0.438272 0)
(-0.266962 0.503733 0)
(-0.229506 0.536305 0)
(-0.205986 0.541174 0)
(-0.194658 0.540098 0)
(-0.194869 0.530731 0)
(-0.204735 0.5172 0)
(-0.223259 0.501137 0)
(-0.250017 0.483534 0)
(-0.285149 0.466114 0)
(-0.329248 0.450922 0)
(-0.381495 0.44124 0)
(-0.421685 0.448034 0)
(-0.428803 0.533114 0)
(-0.379968 0.767558 0)
(-0.276242 1.05284 0)
(-0.215502 1.24683 0)
(-0.165592 1.32717 0)
(-0.0984926 1.29389 0)
(0.0010451 0.995404 0)
(0.0144022 0.861516 0)
(-0.00772557 0.145359 0)
(-0.0363085 0.130466 0)
(-0.0220243 0.314546 0)
(0.0730272 1.06161 0)
(0.118747 1.55745 0)
(0.077523 1.57516 0)
(-0.061963 1.32715 0)
(-0.228871 0.80068 0)
(-0.276134 0.353216 0)
(-0.246633 0.380853 0)
(-0.199479 0.466832 0)
(-0.190869 0.507095 0)
(-0.178046 0.52585 0)
(-0.178513 0.533413 0)
(-0.186151 0.532638 0)
(-0.20066 0.526621 0)
(-0.221855 0.517826 0)
(-0.249858 0.507703 0)
(-0.285073 0.498377 0)
(-0.328003 0.491768 0)
(-0.380049 0.49041 0)
(-0.430422 0.499601 0)
(-0.461295 0.564261 0)
(-0.442333 0.741077 0)
(-0.372766 1.00521 0)
(-0.293606 1.2074 0)
(-0.223913 1.26676 0)
(-0.141312 1.21809 0)
(-0.0582292 0.951607 0)
(-0.0218768 0.858365 0)
(-0.0111723 0.163416 0)
(-0.0512452 0.146406 0)
(-0.0639783 0.271196 0)
(-0.0365363 0.993047 0)
(-0.00165138 1.566 0)
(-0.0397344 1.62116 0)
(-0.0784205 1.38363 0)
(-0.0435606 0.842989 0)
(-0.0798353 0.379314 0)
(-0.119437 0.369138 0)
(-0.125228 0.4518 0)
(-0.135822 0.496749 0)
(-0.142398 0.523282 0)
(-0.154852 0.53563 0)
(-0.170046 0.539915 0)
(-0.189268 0.539208 0)
(-0.212876 0.536058 0)
(-0.241463 0.532056 0)
(-0.275715 0.529645 0)
(-0.316359 0.530722 0)
(-0.364778 0.53761 0)
(-0.418704 0.554759 0)
(-0.463064 0.609115 0)
(-0.466996 0.748607 0)
(-0.418708 0.977351 0)
(-0.330025 1.17269 0)
(-0.240635 1.22885 0)
(-0.166992 1.18224 0)
(-0.102639 0.944188 0)
(-0.0576069 0.853333 0)
(-0.015518 0.185056 0)
(-0.0654912 0.178442 0)
(-0.0943444 0.277261 0)
(-0.126748 0.979407 0)
(-0.115195 1.57444 0)
(-0.13759 1.6462 0)
(-0.0715264 1.32259 0)
(0.0776297 0.774559 0)
(0.0741318 0.440339 0)
(0.00569526 0.413433 0)
(-0.0447442 0.468741 0)
(-0.0769738 0.508549 0)
(-0.103017 0.533763 0)
(-0.126071 0.546605 0)
(-0.148312 0.552963 0)
(-0.171833 0.555246 0)
(-0.197573 0.555909 0)
(-0.226309 0.55642 0)
(-0.258758 0.559336 0)
(-0.295666 0.566609 0)
(-0.338033 0.580872 0)
(-0.386769 0.606503 0)
(-0.432342 0.656717 0)
(-0.449712 0.767471 0)
(-0.415113 0.954678 0)
(-0.323074 1.12649 0)
(-0.217749 1.19231 0)
(-0.144263 1.17781 0)
(-0.111717 0.979316 0)
(-0.115723 0.805361 0)
(-0.0176075 0.211025 0)
(-0.0767696 0.228255 0)
(-0.12063 0.331374 0)
(-0.203891 1.01782 0)
(-0.211827 1.56503 0)
(-0.19528 1.62744 0)
(-0.0142449 1.21 0)
(0.152554 0.693941 0)
(0.158712 0.506179 0)
(0.087512 0.483361 0)
(0.0216879 0.512557 0)
(-0.0259571 0.538453 0)
(-0.062819 0.555892 0)
(-0.0931587 0.566153 0)
(-0.121015 0.572272 0)
(-0.148354 0.575794 0)
(-0.176177 0.578486 0)
(-0.205087 0.581669 0)
(-0.235496 0.587811 0)
(-0.26775 0.598996 0)
(-0.302269 0.618138 0)
(-0.33983 0.64925 0)
(-0.377019 0.698852 0)
(-0.395356 0.787092 0)
(-0.369065 0.930589 0)
(-0.278635 1.06903 0)
(-0.146738 1.13789 0)
(-0.0365161 1.16314 0)
(-0.00691681 1.03722 0)
(-0.0333206 0.767563 0)
(-0.0250996 0.2465 0)
(-0.0946928 0.297745 0)
(-0.163072 0.449052 0)
(-0.30103 1.10329 0)
(-0.305834 1.63739 0)
(-0.171527 1.58912 0)
(0.0780681 1.00894 0)
(0.202143 0.667521 0)
(0.191008 0.570944 0)
(0.128707 0.556142 0)
(0.0662312 0.565237 0)
(0.01666 0.577504 0)
(-0.0229804 0.587049 0)
(-0.0570086 0.594085 0)
(-0.0885388 0.599078 0)
(-0.11892 0.602655 0)
(-0.148698 0.605804 0)
(-0.178005 0.609784 0)
(-0.206698 0.616762 0)
(-0.234464 0.628949 0)
(-0.260939 0.64929 0)
(-0.28636 0.681746 0)
(-0.311049 0.730439 0)
(-0.323801 0.801308 0)
(-0.300674 0.900769 0)
(-0.218787 0.995204 0)
(-0.0852259 1.04598 0)
(0.0358861 1.10062 0)
(0.0695993 1.08634 0)
(0.0308864 0.807869 0)
(-0.0405827 0.311673 0)
(-0.135022 0.39759 0)
(-0.247844 0.622804 0)
(-0.409204 1.19643 0)
(-0.342498 1.58636 0)
(-0.0674968 1.38074 0)
(0.158528 0.884357 0)
(0.222163 0.686701 0)
(0.196139 0.631625 0)
(0.144276 0.617145 0)
(0.0932824 0.614978 0)
(0.0500042 0.618485 0)
(0.012465 0.623324 0)
(-0.0219218 0.628309 0)
(-0.0546737 0.632557 0)
(-0.0864255 0.6359 0)
(-0.117166 0.638737 0)
(-0.146525 0.64222 0)
(-0.173809 0.648149 0)
(-0.198069 0.658733 0)
(-0.218112 0.676854 0)
(-0.233775 0.706922 0)
(-0.247488 0.752425 0)
(-0.25396 0.807478 0)
(-0.232556 0.866664 0)
(-0.16402 0.918408 0)
(-0.0606358 0.94792 0)
(0.0365521 1.02146 0)
(0.0778024 1.07864 0)
(0.0669276 0.834965 0)
(-0.0638856 0.433581 0)
(-0.208615 0.551171 0)
(-0.379153 0.828446 0)
(-0.45612 1.26035 0)
(-0.289812 1.45168 0)
(0.0318203 1.17183 0)
(0.202684 0.840991 0)
(0.228343 0.72583 0)
(0.197465 0.684609 0)
(0.15445 0.666917 0)
(0.114073 0.659716 0)
(0.0773948 0.659153 0)
(0.0430578 0.662015 0)
(0.00991612 0.666258 0)
(-0.0225832 0.670457 0)
(-0.0544358 0.673796 0)
(-0.0852348 0.676256 0)
(-0.11426 0.678725 0)
(-0.140429 0.682654 0)
(-0.162359 0.690084 0)
(-0.178308 0.703843 0)
(-0.187008 0.728854 0)
(-0.192551 0.769392 0)
(-0.196627 0.811708 0)
(-0.181132 0.83367 0)
(-0.129933 0.852099 0)
(-0.059482 0.867365 0)
(0.0118049 0.942498 0)
(0.0525692 1.03672 0)
(0.077059 0.889448 0)
(-0.116345 0.602794 0)
(-0.292072 0.759796 0)
(-0.431303 0.955065 0)
(-0.405218 1.22226 0)
(-0.154905 1.25885 0)
(0.11383 1.02135 0)
(0.225928 0.837105 0)
(0.229627 0.764776 0)
(0.200724 0.729185 0)
(0.167412 0.70956 0)
(0.135499 0.700706 0)
(0.104266 0.699009 0)
(0.0728955 0.701815 0)
(0.0408594 0.706632 0)
(0.00823876 0.71159 0)
(-0.024358 0.715272 0)
(-0.0560937 0.717374 0)
(-0.0857855 0.718433 0)
(-0.111923 0.719684 0)
(-0.132799 0.723031 0)
(-0.146498 0.731402 0)
(-0.150478 0.749901 0)
(-0.148345 0.784553 0)
(-0.152668 0.821796 0)
(-0.146728 0.810517 0)
(-0.113776 0.801891 0)
(-0.0663271 0.807563 0)
(-0.016903 0.87922 0)
(0.0219885 0.984824 0)
(0.0430902 0.920942 0)
(-0.126313 0.812809 0)
(-0.25964 0.899374 0)
(-0.362357 0.986223 0)
(-0.253454 1.10314 0)
(-0.00368509 1.06384 0)
(0.166244 0.935039 0)
(0.225566 0.844137 0)
(0.221389 0.796931 0)
(0.202692 0.765525 0)
(0.181501 0.747105 0)
(0.158274 0.739056 0)
(0.132536 0.738673 0)
(0.103636 0.743599 0)
(0.0715601 0.750742 0)
(0.0371076 0.757433 0)
(0.00155168 0.761695 0)
(-0.0334927 0.763063 0)
(-0.066073 0.761753 0)
(-0.0940666 0.758975 0)
(-0.115394 0.756845 0)
(-0.128002 0.758674 0)
(-0.129042 0.769968 0)
(-0.118806 0.798812 0)
(-0.120176 0.839496 0)
(-0.120408 0.802484 0)
(-0.105446 0.769216 0)
(-0.0743328 0.765595 0)
(-0.0362223 0.830572 0)
(0.00158906 0.949238 0)
(0.018552 0.934122 0)
(-0.0587135 0.937307 0)
(-0.168272 0.989878 0)
(-0.203951 0.972306 0)
(-0.0389533 0.946258 0)
(0.0995546 0.941453 0)
(0.188026 0.895412 0)
(0.213096 0.851072 0)
(0.212914 0.819298 0)
(0.206806 0.793482 0)
(0.197116 0.779212 0)
(0.182608 0.774866 0)
(0.161939 0.779035 0)
(0.134444 0.788776 0)
(0.100648 0.799686 0)
(0.0622047 0.80851 0)
(0.021087 0.813358 0)
(-0.0200798 0.813754 0)
(-0.058381 0.80961 0)
(-0.0907902 0.801747 0)
(-0.114702 0.792411 0)
(-0.127835 0.785289 0)
(-0.126736 0.787535 0)
(-0.106909 0.810394 0)
(-0.0966373 0.85478 0)
(-0.0998385 0.813302 0)
(-0.100714 0.751892 0)
(-0.0817863 0.736706 0)
(-0.0492469 0.789272 0)
(-0.00991042 0.916983 0)
(0.00976603 0.93381 0)
(-0.0575031 1.00969 0)
(-0.0848175 1.01958 0)
(0.0268708 0.8748 0)
(0.120012 0.866318 0)
(0.171737 0.892324 0)
(0.196577 0.879242 0)
(0.206815 0.855709 0)
(0.213214 0.833342 0)
(0.217339 0.813624 0)
(0.217572 0.80497 0)
(0.210879 0.807351 0)
(0.193731 0.818616 0)
(0.166135 0.834414 0)
(0.129472 0.850048 0)
(0.0856624 0.862251 0)
(0.0372112 0.869011 0)
(-0.0125256 0.86919 0)
(-0.0596812 0.862323 0)
(-0.0998258 0.848583 0)
(-0.129899 0.831507 0)
(-0.147397 0.813767 0)
(-0.146861 0.80247 0)
(-0.119794 0.814227 0)
(-0.0896158 0.86503 0)
(-0.0893166 0.839312 0)
(-0.096536 0.746442 0)
(-0.0887788 0.717553 0)
(-0.0608299 0.751117 0)
(-0.0204238 0.880351 0)
(0.00631792 0.927108 0)
(-0.0361131 1.09718 0)
(0.0671569 0.916186 0)
(0.185038 0.828277 0)
(0.217606 0.865341 0)