/*--------------------------------*- C++ -*----------------------------------*\
| =========                 |                                                 |
| \\      /  F ield         | OpenFOAM: The Open Source CFD Toolbox           |
|  \\    /   O peration     | Version:  v1606+                                |
|   \\  /    A nd           | Web:      www.OpenFOAM.com                      |
|    \\/     M anipulation  |                                                 |
\*---------------------------------------------------------------------------*/
FoamFile
{
    version     2.0;
    format      ascii;
    class       volScalarField;
    location    "0.15";
    object      epsilon.air;
}
// * * * * * * * * * * * * * * * * * * * * * * * * * * * * * * * * * * * * * //

dimensions      [0 2 -3 0 0 0 0];

internalField   nonuniform List<scalar> 
6000
(
133.275
16.622
10.7662
10.0506
9.86969
9.802
9.77094
9.74989
9.73627
9.73436
9.73683
9.74053
9.74373
9.7452
9.74655
9.74729
9.74612
9.74439
9.74123
9.73807
9.73607
9.73932
9.75277
9.77181
9.80311
9.86801
10.0483
10.7657
16.6239
133.242
78.908
22.0766
13.63
11.3891
10.666
10.4022
10.3073
10.258
10.2382
10.2517
10.2733
10.2958
10.3159
10.3293
10.3343
10.3331
10.3278
10.3151
10.2954
10.2743
10.2547
10.2464
10.2664
10.3064
10.4033
10.6577
11.3753
13.6166
22.073
78.8357
56.3088
21.2129
13.9336
11.5106
10.5626
10.1515
9.95215
9.84365
9.78327
9.75996
9.75223
9.75114
9.75327
9.75566
9.75656
9.75628
9.75551
9.75298
9.7513
9.7543
9.76453
9.78934
9.85009
9.955
10.1515
10.5586
11.5055
13.9285
21.2222
56.3806
44.0883
19.1056
13.4512
11.2482
10.2427
9.73626
9.47036
9.31742
9.22826
9.17942
9.15359
9.13945
9.1324
9.12942
9.12837
9.12828
9.12919
9.1323
9.14012
9.15598
9.18342
9.23482
9.32492
9.47451
9.73926
10.243
11.2466
13.4537
19.1598
44.404
32.976
16.0725
12.1602
10.4817
9.59448
9.11322
8.84018
8.67534
8.5786
8.52352
8.49414
8.47842
8.47071
8.46762
8.46682
8.4668
8.46745
8.47076
8.47921
8.4962
8.52671
8.58497
8.6834
8.84545
9.11971
9.59823
10.484
12.1711
16.15
33.2833
26.2048
13.3866
10.609
9.39749
8.71461
8.31049
8.06602
7.91557
7.82717
7.77628
7.74998
7.73734
7.73194
7.73018
7.72992
7.72987
7.72995
7.73185
7.7378
7.75135
7.77876
7.83243
7.92247
8.0715
8.31692
8.7187
9.40332
10.6338
13.4616
26.479
23.2414
11.5239
9.25773
8.30366
7.77302
7.45297
7.2562
7.13812
7.07302
7.04079
7.02829
7.02546
7.02689
7.02935
7.03094
7.03084
7.02912
7.02673
7.02565
7.02918
7.04269
7.07661
7.14287
7.26043
7.45715
7.77612
8.31158
9.2916
11.5956
23.5061
21.6876
10.2027
8.12802
7.28495
6.86361
6.6296
6.4932
6.41656
6.38151
6.37369
6.38108
6.39398
6.40674
6.41629
6.42123
6.42116
6.41616
6.40665
6.39412
6.38171
6.37499
6.3837
6.41933
6.49565
6.63164
6.86546
7.29271
8.16348
10.2731
21.9085
20.3542
9.18014
7.13818
6.36071
6.02819
5.87128
5.79581
5.76335
5.75779
5.77091
5.79612
5.82522
5.85104
5.8692
5.87832
5.87833
5.86918
5.85101
5.82528
5.79646
5.77165
5.75893
5.7647
5.79697
5.87233
6.02994
6.36811
7.17001
9.24719
20.5127
18.1269
8.24873
6.26517
5.58532
5.3297
5.22514
5.18847
5.18712
5.2054
5.23509
5.27128
5.30927
5.34317
5.36764
5.38017
5.38017
5.36761
5.34311
5.30926
5.27143
5.23543
5.20591
5.1878
5.1894
5.22671
5.33298
5.59387
6.2925
8.31233
18.2065
14.7605
7.36963
5.53877
4.97359
4.7795
4.70842
4.69
4.70002
4.72767
4.76491
4.80591
4.84621
4.88138
4.90705
4.92036
4.92032
4.90695
4.88126
4.84614
4.80594
4.7651
4.7281
4.70088
4.69156
4.71122
4.78468
4.98383
5.56414
7.43279
14.7911
11.3635
6.46244
4.90677
4.46631
4.33081
4.29181
4.28811
4.30187
4.32788
4.36187
4.39933
4.43617
4.46838
4.4921
4.5045
4.50444
4.49196
4.46823
4.43606
4.39936
4.36218
4.32863
4.30323
4.29038
4.29551
4.33669
4.47576
4.92498
6.50048
11.3553
8.55666
5.37867
4.28799
3.99653
3.92862
3.93003
3.94914
3.97127
3.99544
4.022
4.04996
4.07773
4.10293
4.12228
4.13271
4.13267
4.12218
4.10281
4.07767
4.05003
4.02238
3.99636
3.97287
3.95164
3.93374
3.93358
4.00261
4.29577
5.38802
8.5262
6.66739
4.43823
3.72838
3.56233
3.55594
3.59626
3.6413
3.67637
3.7025
3.72378
3.74325
3.76183
3.77887
3.79238
3.79989
3.79989
3.79237
3.77886
3.76184
3.74333
3.7241
3.70325
3.67772
3.64337
3.59904
3.55887
3.56433
3.72766
4.42986
6.62431
5.65227
3.78671
3.27591
3.18647
3.22216
3.29461
3.36235
3.41156
3.44269
3.46201
3.47558
3.48677
3.49675
3.50481
3.50943
3.50944
3.50484
3.49673
3.48665
3.47535
3.46178
3.44272
3.41211
3.36354
3.29611
3.22303
3.18525
3.27008
3.77068
5.60153
5.16749
3.33867
2.91946
2.87628
2.9409
3.0377
3.12317
3.18321
3.21911
3.23974
3.25295
3.26291
3.27088
3.27669
3.2798
3.27978
3.27659
3.27061
3.2624
3.25212
3.23865
3.21808
3.18266
3.12335
3.03815
2.94043
2.87327
2.91123
3.32019
5.11495
4.83187
2.99665
2.6397
2.63001
2.71518
2.82816
2.92287
2.98495
3.02049
3.04221
3.05826
3.07134
3.08146
3.08823
3.09155
3.09148
3.08799
3.08097
3.07051
3.05698
3.04043
3.01834
2.983
2.92177
2.82772
2.71404
2.62646
2.63108
2.97795
4.78313
4.40333
2.71121
2.42049
2.43879
2.54093
2.66331
2.75981
2.8156
2.8452
2.86597
2.88391
2.89898
2.91023
2.91733
2.92062
2.9205
2.91695
2.90953
2.89786
2.88218
2.86343
2.8417
2.81172
2.75692
2.66189
2.53943
2.43513
2.41277
2.69362
4.36043
3.90194
2.46692
2.2493
2.29399
2.41451
2.54398
2.63212
2.67054
2.69151
2.71072
2.72844
2.74327
2.75407
2.76072
2.76372
2.76357
2.76024
2.75317
2.74182
2.72621
2.70736
2.68671
2.66433
2.62633
2.54105
2.41293
2.29073
2.24279
2.45225
3.86964
3.5212
2.27495
2.11367
2.19228
2.33863
2.46787
2.5237
2.54294
2.55946
2.57506
2.59056
2.60404
2.6141
2.62037
2.62321
2.62304
2.61982
2.61306
2.60232
2.58783
2.57093
2.55361
2.53525
2.51421
2.46183
2.33657
2.18996
2.10868
2.2642
3.50714
3.36909
2.12984
2.02457
2.14479
2.30702
2.3932
2.41911
2.43576
2.44333
2.45481
2.46864
2.48162
2.4917
2.49817
2.50114
2.50096
2.49759
2.4906
2.47976
2.46564
2.45019
2.4365
2.42655
2.40924
2.38176
2.30226
2.14335
2.02131
2.12311
3.37062
3.38706
2.05684
2.00882
2.13825
2.24295
2.2933
2.3284
2.32838
2.33377
2.34638
2.36149
2.37561
2.38664
2.39384
2.39719
2.39701
2.39326
2.38554
2.37377
2.35854
2.34181
2.32698
2.31867
2.31676
2.28389
2.23448
2.13452
2.007
2.05457
3.3923
3.50795
2.0913
2.03285
2.10532
2.15576
2.22062
2.22031
2.21876
2.23151
2.24942
2.26794
2.28421
2.29653
2.30448
2.30827
2.3081
2.30394
2.29551
2.28253
2.26531
2.24541
2.2257
2.21056
2.20859
2.21024
2.14871
2.09808
2.03076
2.09166
3.51798
3.85161
2.1452
2.03303
2.04389
2.11012
2.12921
2.11073
2.11926
2.14042
2.16387
2.18602
2.20475
2.21886
2.22798
2.23237
2.23223
2.22754
2.21803
2.20338
2.18389
2.16075
2.13587
2.11287
2.10138
2.11619
2.10332
2.03901
2.02955
2.14631
3.86648
4.58167
2.25178
2.00805
2.01601
2.04506
2.02196
2.01586
2.0343
2.06182
2.08973
2.115
2.13596
2.15172
2.16206
2.16709
2.16702
2.1618
2.15119
2.13502
2.11346
2.08737
2.05842
2.02957
2.0088
2.01132
2.03417
2.01162
2.00428
2.25199
4.59817
5.08417
2.34019
2.00703
1.98217
1.94552
1.92822
1.93757
1.96417
1.99611
2.02744
2.05527
2.07797
2.0948
2.1058
2.11108
2.11109
2.10579
2.09468
2.07757
2.05439
2.02588
1.99376
1.96079
1.93246
1.92049
1.93589
1.97404
2.00269
2.33664
5.06894
5.17051
2.34377
1.99179
1.8978
1.85614
1.85441
1.87597
1.90933
1.94565
1.98059
2.01085
2.03427
2.04989
2.05848
2.06282
2.06286
2.0586
2.05018
2.03453
2.0108
1.97998
1.94432
1.90704
1.87242
1.84892
1.84836
1.88751
1.9841
2.3357
5.14721
5.08943
2.30111
1.92144
1.81331
1.78672
1.79969
1.83256
1.87394
1.91759
1.95789
1.98917
2.00817
2.0161
2.02013
2.02315
2.02333
2.02055
2.01657
2.00891
1.99013
1.95864
1.91763
1.87289
1.8304
1.79607
1.78105
1.80493
1.91087
2.28954
5.06142
4.79247
2.18644
1.83647
1.74637
1.73839
1.76579
1.81316
1.86884
1.92252
1.96642
1.99155
1.99375
1.98971
1.98998
1.99075
1.991
1.99063
1.99031
1.99415
1.99281
1.96838
1.92401
1.86954
1.81266
1.76371
1.73462
1.74028
1.82758
2.17081
4.75408
4.20907
2.13223
1.7754
1.70009
1.71068
1.75807
1.82368
1.896
1.96091
2.00098
2.00111
1.98168
1.97115
1.96252
1.95767
1.95773
1.96277
1.97172
1.98197
2.00127
2.00427
1.9649
1.89879
1.82502
1.75815
1.70877
1.69629
1.76959
2.12451
4.15759
3.59944
2.06692
1.72728
1.67386
1.70794
1.78002
1.87569
1.97564
2.04273
2.03663
2.00354
1.9799
1.9519
1.92922
1.91759
1.91727
1.92834
1.95081
1.97923
2.00325
2.03594
2.04816
1.98225
1.88096
1.78283
1.70838
1.67217
1.72312
2.05979
3.57136
3.25794
1.97086
1.69217
1.67295
1.73624
1.85466
1.99164
2.07529
2.07511
2.04171
2.01674
1.96845
1.92041
1.88822
1.87242
1.87178
1.8863
1.9173
1.96494
2.01466
2.04094
2.07487
2.08266
2.00281
1.86299
1.73988
1.67323
1.68989
1.96504
3.25131
3.14378
1.89331
1.68355
1.70625
1.82526
1.98575
2.07712
2.07885
2.06683
2.06056
2.00436
1.93442
1.88054
1.84621
1.82931
1.82849
1.84373
1.87628
1.92845
1.99855
2.05949
2.06874
2.08291
2.0862
1.99821
1.83463
1.70992
1.68397
1.89038
3.14566
3.15669
1.86698
1.71607
1.8013
1.95995
2.05513
2.06341
2.07077
2.08918
2.04291
1.95948
1.891
1.8419
1.81001
1.79385
1.79296
1.80736
1.83745
1.88473
1.95178
2.03596
2.09055
2.07571
2.06855
2.0635
1.97229
1.80994
1.71914
1.86725
3.16156
3.25146
1.90779
1.81477
1.94005
2.02689
2.04054
2.06483
2.10538
2.08083
1.98489
1.90701
1.85064
1.80966
1.78203
1.76761
1.76673
1.77945
1.80549
1.84498
1.89979
1.97556
2.07314
2.10999
2.07255
2.04709
2.03629
1.95114
1.8218
1.91128
3.26204
3.59472
2.04614
1.97503
2.01629
2.01963
2.05307
2.11575
2.10808
2.0149
1.92254
1.86081
1.81675
1.78388
1.76116
1.7491
1.74828
1.75878
1.78015
1.81188
1.85474
1.91425
2.00348
2.1026
2.12551
2.06416
2.02822
2.02501
1.98503
2.05548
3.61826
4.35876
2.25702
2.07677
2.02032
2.03977
2.1171
2.12282
2.03582
1.93755
1.86728
1.82159
1.78857
1.76371
1.74639
1.73707
1.73633
1.74428
1.76048
1.78453
1.81678
1.86111
1.92831
2.02556
2.12021
2.13188
2.05446
2.02957
2.0859
2.27366
4.40649
5.26935
2.45382
2.08669
2.03672
2.09676
2.1125
2.03806
1.94292
1.8687
1.82073
1.78902
1.76576
1.74838
1.7363
1.72967
1.72904
1.73458
1.74586
1.76275
1.78569
1.81692
1.8623
1.93412
2.03009
2.11354
2.11414
2.05303
2.09611
2.46899
5.32163
5.90932
2.54831
2.10471
2.07663
2.07414
2.01233
1.92996
1.86093
1.81453
1.78524
1.76492
1.75014
1.73898
1.73111
1.72666
1.72627
1.73017
1.73789
1.74906
1.76376
1.78342
1.81128
1.8553
1.92258
2.00544
2.0754
2.09088
2.11736
2.55725
5.93273
5.93341
2.55592
2.1299
2.04141
1.96427
1.89592
1.83962
1.80183
1.77853
1.76526
1.75589
1.74772
1.73928
1.73136
1.72699
1.72691
1.73125
1.7397
1.74968
1.75868
1.76755
1.78008
1.80026
1.83572
1.88981
1.95698
2.03852
2.13527
2.55738
5.95898
5.79179
2.51907
2.08019
1.92736
1.8511
1.80533
1.78083
1.77004
1.77002
1.76962
1.76585
1.75699
1.74429
1.73359
1.72885
1.7292
1.73458
1.74603
1.76114
1.77205
1.77632
1.77713
1.77565
1.78174
1.80314
1.84541
1.9179
2.07256
2.51323
5.7835
5.32275
2.37762
1.95205
1.81879
1.76582
1.75168
1.75749
1.7754
1.79117
1.79973
1.79186
1.76669
1.74413
1.73091
1.7248
1.72577
1.73388
1.74906
1.77181
1.80022
1.81216
1.80425
1.78702
1.7665
1.75451
1.76425
1.81231
1.93961
2.35324
5.23427
4.34678
2.23799
1.84796
1.73806
1.71786
1.73686
1.77732
1.82079
1.85077
1.84199
1.80066
1.76459
1.7368
1.71711
1.70786
1.70986
1.72306
1.74583
1.77647
1.81067
1.85345
1.87078
1.84127
1.79388
1.74822
1.72078
1.73517
1.83934
2.22481
4.18157
3.53158
2.11121
1.76289
1.69135
1.70852
1.76811
1.84993
1.91602
1.8999
1.84469
1.80025
1.75725
1.71932
1.69391
1.68283
1.68543
1.70156
1.73189
1.77525
1.82254
1.8599
1.90763
1.93151
1.87585
1.78815
1.71996
1.69253
1.75626
2.09247
3.43907
3.1698
1.9717
1.70565
1.68389
1.74702
1.85796
1.94802
1.94323
1.89091
1.84979
1.79666
1.74043
1.69972
1.67392
1.6627
1.66554
1.68203
1.7124
1.75828
1.81853
1.87575
1.90287
1.94016
1.95454
1.88624
1.7683
1.69452
1.70343
1.95768
3.14135
3.10139
1.87945
1.69281
1.72621
1.84579
1.94634
1.94889
1.91919
1.89595
1.84019
1.77339
1.72053
1.6834
1.65984
1.64944
1.65221
1.66758
1.6948
1.73481
1.79024
1.86106
1.91709
1.92745
1.94245
1.95174
1.87167
1.74663
1.70285
1.87567
3.10195
3.14127
1.87187
1.73954
1.82787
1.92385
1.93477
1.92789
1.93013
1.8799
1.80291
1.7446
1.70155
1.67051
1.65007
1.64088
1.64331
1.65685
1.68034
1.7131
1.757
1.8167
1.89684
1.94705
1.9356
1.93067
1.92942
1.84923
1.75667
1.88135
3.15455
3.33304
1.94986
1.85216
1.90601
1.91113
1.92584
1.94979
1.91207
1.827
1.76366
1.71869
1.68547
1.66043
1.64352
1.63587
1.63788
1.64926
1.66892
1.69528
1.72863
1.77347
1.83844
1.92494
1.96572
1.93536
1.91371
1.9151
1.87595
1.97112
3.39846
3.8792
2.09433
1.94687
1.90416
1.91891
1.9579
1.92787
1.84523
1.77777
1.73256
1.70062
1.67437
1.65344
1.63943
1.63322
1.6348
1.64413
1.66071
1.68282
1.70883
1.74009
1.78579
1.85496
1.93976
1.97566
1.9308
1.91374
1.96254
2.12654
4.01906
4.81797
2.28416
1.96179
1.92696
1.95419
1.92525
1.85085
1.78655
1.74426
1.71689
1.69304
1.66953
1.65001
1.63768
1.63241
1.63344
1.64114
1.65634
1.67717
1.69975
1.72186
1.74916
1.79318
1.85992
1.93811
1.96935
1.93709
1.97359
2.31327
4.92658
5.40657
2.39093
2.00298
1.95231
1.90536
1.8416
1.78716
1.7537
1.73634
1.72014
1.69642
1.67015
1.64983
1.63843
1.63367
1.63404
1.64038
1.65506
1.67813
1.70307
1.72305
1.73669
1.75557
1.79207
1.84928
1.91724
1.96254
2.00996
2.40862
5.46698
5.56952
2.43304
2.01714
1.89371
1.82413
1.77942
1.75895
1.75527
1.75426
1.73949
1.70753
1.67417
1.65346
1.64199
1.63651
1.63618
1.64196
1.65611
1.68232
1.71674
1.7416
1.75083
1.75138
1.75734
1.78164
1.82956
1.9041
2.02386
2.43441
5.56703
5.37144
2.38162
1.95032
1.8175
1.76668
1.75834
1.77077
1.79388
1.80405
1.77344
1.72097
1.68542
1.6609
1.6451
1.63711
1.63663
1.64415
1.66079
1.68876
1.73372
1.78285
1.79795
1.78231
1.76151
1.75217
1.76569
1.82063
1.9585
2.38941
5.39979
4.70957
2.22589
1.85744
1.75733
1.74936
1.7802
1.8362
1.88415
1.86331
1.79552
1.74538
1.69964
1.66585
1.64465
1.63432
1.63398
1.6441
1.66652
1.70182
1.74871
1.81369
1.8792
1.86677
1.81362
1.76337
1.73947
1.75539
1.86024
2.23129
4.83112
3.75023
2.12285
1.78428
1.73549
1.77575
1.86942
1.96585
1.9589
1.88664
1.83351
1.7638
1.70592
1.66602
1.64114
1.62866
1.62857
1.64139
1.66826
1.71148
1.7707
1.83679
1.90981
1.98301
1.93692
1.83381
1.75386
1.72573
1.78561
2.13129
3.8483
3.36504
2.00385
1.74988
1.76304
1.87712
2.00438
2.01944
1.96316
1.92533
1.84323
1.76317
1.70449
1.66407
1.63802
1.62496
1.62513
1.63903
1.66748
1.71192
1.77604
1.86044
1.9306
1.99484
2.05486
1.98223
1.83518
1.73953
1.74218
2.01229
3.35014
3.35749
1.94409
1.77569
1.86985
2.01532
2.04011
2.00466
1.99029
1.91936
1.82617
1.75251
1.69944
1.66198
1.6372
1.6246
1.62499
1.63881
1.66619
1.70817
1.76753
1.84897
1.94794
2.0037
2.04157
2.08767
1.993
1.8232
1.75134
1.9352
3.29508
3.43833
1.9799
1.8867
2.00503
2.04245
2.02419
2.03668
1.98636
1.8791
1.79473
1.73575
1.69243
1.66015
1.6378
1.62618
1.62665
1.63959
1.66423
1.70006
1.74931
1.81809
1.91389
2.01929
2.04704
2.05761
2.07888
1.9718
1.8354
1.94529
3.35478
3.79151
2.14536
2.03915
2.03923
2.02768
2.06334
2.03765
1.9284
1.82872
1.76399
1.71942
1.68537
1.65901
1.6401
1.63034
1.63081
1.64179
1.66246
1.69144
1.72953
1.78154
1.85758
1.96619
2.0644
2.06409
2.04743
2.0564
1.99463
2.07108
3.60574
4.69358
2.36031
2.10068
2.03419
2.06769
2.06497
1.96282
1.85672
1.78431
1.73901
1.70627
1.68039
1.65961
1.64425
1.63618
1.63639
1.64522
1.6619
1.6846
1.71303
1.75034
1.80423
1.88739
1.999
2.08559
2.06279
2.04093
2.09756
2.26664
4.30855
5.62647
2.50865
2.10109
2.06809
2.06283
1.97315
1.87158
1.7983
1.75349
1.72394
1.70177
1.68202
1.66382
1.64928
1.64103
1.64064
1.64835
1.66372
1.68369
1.70549
1.73033
1.76535
1.81941
1.90232
2.00755
2.07844
2.05992
2.09519
2.47408
5.35007
5.80726
2.5418
2.12286
2.05266
1.95877
1.86752
1.80232
1.76385
1.74175
1.72631
1.71091
1.69235
1.67147
1.6553
1.64709
1.64648
1.65286
1.66776
1.68909
1.71133
1.73025
1.7484
1.77663
1.82428
1.899
1.99125
2.06474
2.11789
2.54398
5.83119
5.74168
2.51203
2.08965
1.93886
1.84684
1.79279
1.76749
1.75914
1.75496
1.7512
1.73874
1.71126
1.68092
1.66306
1.65546
1.65462
1.65982
1.67317
1.69952
1.73108
1.75129
1.76004
1.76747
1.78257
1.81739
1.88096
1.97492
2.11311
2.541
5.87184
5.39718
2.40184
1.9674
1.82706
1.77237
1.76156
1.77159
1.7873
1.80611
1.81054
1.78095
1.72945
1.69466
1.67475
1.66549
1.66402
1.67005
1.68474
1.71138
1.75774
1.80049
1.809
1.79631
1.78445
1.78124
1.80119
1.86589
2.01535
2.46938
5.62068
4.62746
2.25182
1.86086
1.7564
1.74662
1.77532
1.82239
1.87475
1.91271
1.89229
1.81222
1.75493
1.7137
1.68634
1.67242
1.66992
1.67864
1.6996
1.73387
1.77993
1.85337
1.90488
1.88594
1.83708
1.79367
1.77058
1.78597
1.89502
2.27809
4.89481
3.70889
2.14503
1.78979
1.7318
1.7664
1.85212
1.96103
2.04432
2.02913
1.93204
1.85466
1.78292
1.72602
1.68996
1.67208
1.66888
1.67944
1.70615
1.75246
1.81713
1.8841
1.98024
2.0426
1.97785
1.87192
1.7889
1.75434
1.80984
2.16463
3.82191
3.2354
2.01776
1.75068
1.75234
1.85798
2.03506
2.20241
2.20387
2.0737
1.98916
1.88737
1.79091
1.7249
1.68506
1.66471
1.66084
1.67291
1.70205
1.7528
1.8324
1.93376
2.0102
2.12434
2.18176
2.05406
1.8803
1.77241
1.76607
2.03504
3.29935
3.15309
1.93773
1.76601
1.84731
2.06553
2.30383
2.34964
2.22393
2.13976
2.02563
1.8846
1.78188
1.7139
1.6723
1.65117
1.64712
1.65923
1.68899
1.74056
1.82057
1.93383
2.05884
2.12724
2.22709
2.25279
2.07889
1.86806
1.78093
1.95794
3.23684
3.22205
1.94841
1.86012
2.05991
2.33533
2.42167
2.32432
2.26286
2.1598
1.99902
1.85781
1.75924
1.69542
1.65644
1.63644
1.63247
1.64374
1.67122
1.7181
1.79087
1.89906
2.0397
2.15963
2.19988
2.26428
2.2687
2.06796
1.87723
1.97058
3.31853
3.47981
2.05887
2.07044
2.32867
2.44848
2.37995
2.34829
2.28368
2.10471
1.9386
1.81566
1.7312
1.67525
1.6404
1.62228
1.61858
1.62863
1.653
1.69385
1.75548
1.84553
1.97443
2.13947
2.23219
2.23276
2.27207
2.25969
2.08361
2.09845
3.60157
4.14136
2.33642
2.35334
2.46108
2.41254
2.40355
2.39281
2.21186
2.01591
1.87441
1.77374
1.70332
1.65562
1.62545
1.6096
1.60631
1.61501
1.63609
1.67097
1.72238
1.79527
1.89936
2.05075
2.22291
2.26776
2.2403
2.27736
2.30896
2.39963
4.33775
5.30338
2.72948
2.54338
2.4463
2.43544
2.46156
2.31034
2.09344
1.93181
1.81811
1.73657
1.67828
1.6382
1.61268
1.59922
1.59646
1.60388
1.62185
1.65147
1.69454
1.75382
1.83523
1.95188
2.11601
2.26907
2.27713
2.25959
2.37089
2.72324
5.59327
6.59754
3.04531
2.55119
2.46425
2.48259
2.36769
2.15873
1.98677
1.86315
1.7737
1.70684
1.65803
1.62433
1.60297
1.5918
1.58962
1.59603
1.61146
1.63707
1.67415
1.72377
1.78802
1.87342
1.99426
2.15135
2.28068
2.29051
2.35431
2.8606
6.59339
7.30819
3.10133
2.54562
2.48248
2.37267
2.19258
2.02996
1.90732
1.81617
1.74406
1.68704
1.64451
1.61528
1.59714
1.58792
1.58637
1.59221
1.60611
1.62956
1.66374
1.7084
1.76186
1.82422
1.90387
2.01683
2.15776
2.288
2.3726
2.86445
6.7489
7.27939
3.07221
2.53155
2.35985
2.1936
2.05272
1.94633
1.86568
1.79748
1.73419
1.68023
1.63954
1.61214
1.59567
1.58761
1.58654
1.5924
1.60624
1.62991
1.66497
1.7106
1.76222
1.81166
1.85958
1.92222
2.02001
2.15752
2.34807
2.8316
6.62583
6.88793
2.96357
2.39707
2.18221
2.05345
1.97275
1.91887
1.87069
1.80901
1.74262
1.68472
1.64207
1.61396
1.5974
1.58969
1.58922
1.59581
1.61095
1.63701
1.67651
1.72963
1.78858
1.83701
1.86329
1.88586
1.92347
2.01437
2.19611
2.69737
6.13122
5.7999
2.65827
2.19814
2.03746
1.9773
1.96042
1.95099
1.92277
1.85323
1.76968
1.70117
1.65264
1.62103
1.60264
1.5944
1.59458
1.60326
1.62218
1.65428
1.70289
1.77088
1.85427
1.91729
1.92398
1.90422
1.89274
1.91325
2.04175
2.46812
5.00585
4.23074
2.43745
2.0355
1.95671
1.97323
2.02033
2.06265
2.03354
1.91772
1.81475
1.73235
1.67243
1.63351
1.61097
1.60097
1.60156
1.61287
1.6371
1.67821
1.74104
1.82651
1.92875
2.04464
2.07014
2.00174
1.92199
1.88417
1.93019
2.29876
3.79643
3.37998
2.19907
1.94363
1.95811
2.05275
2.18539
2.22433
2.11054
1.98865
1.86711
1.76613
1.69555
1.6496
1.62256
1.61043
1.61124
1.62518
1.65448
1.70347
1.7782
1.88526
2.01242
2.12897
2.2413
2.20287
2.04691
1.92338
1.89721
2.11994
3.26076
3.25469
2.09651
1.96276
2.06014
2.25263
2.36131
2.28964
2.20119
2.05867
1.90871
1.79828
1.72083
1.66926
1.63814
1.62388
1.62476
1.64095
1.67451
1.72937
1.81146
1.92888
2.08887
2.23666
2.30818
2.37269
2.27397
2.07419
1.953
2.0742
3.24856
3.40313
2.15471
2.11048
2.29639
2.43815
2.41042
2.38334
2.28522
2.0907
1.93906
1.82695
1.74618
1.69104
1.65707
1.64124
1.64205
1.65968
1.69596
1.75431
1.83966
1.95856
2.11927
2.3244
2.4226
2.43003
2.45309
2.33549
2.1487
2.17186
3.46216
4.05795
2.44412
2.40829
2.51216
2.50087
2.52966
2.50876
2.2912
2.10052
1.95754
1.84866
1.76831
1.71261
1.67802
1.66175
1.66245
1.68029
1.71692
1.77549
1.86001
1.97488
2.12595
2.32612
2.55766
2.57766
2.53196
2.54664
2.47579
2.52345
4.26458
5.70546
2.96647
2.69587
2.60733
2.66145
2.69426
2.49164
2.26818
2.09489
1.96198
1.86055
1.78498
1.73248
1.69985
1.68447
1.68507
1.70177
1.73612
1.79105
1.87015
1.97665
2.11689
2.29882
2.53395
2.75001
2.72154
2.6576
2.75845
3.07751
6.08368
7.60684
3.44157
2.82536
2.80748
2.81489
2.64386
2.41779
2.21972
2.07129
1.9542
1.86272
1.79594
1.74989
1.72141
1.70807
1.70856
1.72301
1.7529
1.80091
1.87045
1.96603
2.08764
2.24208
2.44963
2.68599
2.86643
2.86763
2.88305
3.52357
7.8934
8.33187
3.5841
2.9788
2.8932
2.7171
2.51155
2.31056
2.1532
2.03165
1.9348
1.85946
1.80379
1.76581
1.7423
1.73132
1.73173
1.74362
1.76823
1.80764
1.86527
1.94292
2.04288
2.16799
2.32963
2.53587
2.74874
2.92982
3.02529
3.63813
8.4626
8.20697
3.59458
2.9822
2.73496
2.53019
2.34704
2.19957
2.08335
1.99052
1.91603
1.85865
1.81468
1.78402
1.76386
1.75378
1.75411
1.76495
1.78597
1.81761
1.86277
1.92165
1.99779
2.09215
2.20977
2.35875
2.54407
2.75273
3.00623
3.62627
8.26606
7.24773
3.3791
2.75378
2.49121
2.32047
2.19796
2.10284
2.02752
1.96501
1.9131
1.86834
1.83312
1.80302
1.78049
1.76936
1.76966
1.78135
1.80444
1.83537
1.87159
1.9171
1.96972
2.03268
2.10754
2.20227
2.32364
2.49167
2.74919
3.37085
7.18808
5.18057
2.86767
2.41624
2.23709
2.14515
2.08481
2.04297
2.00677
1.96846
1.9279
1.88845
1.84807
1.81341
1.79132
1.78173
1.78196
1.79202
1.81451
1.84958
1.89061
1.93098
1.97208
2.01025
2.04555
2.08541
2.14418
2.23265
2.40626
2.85029
5.06645
3.5837
2.39098
2.1123
2.04665
2.0297
2.0377
2.04052
2.02384
1.99252
1.94545
1.89398
1.8505
1.81961
1.80102
1.79211
1.79229
1.80153
1.82044
1.85152
1.89511
1.94694
1.99486
2.02662
2.04285
2.03834
2.02811
2.04259
2.1046
2.37838
3.54412
2.91554
2.05013
1.93504
1.95422
2.01385
2.06302
2.0807
2.05664
1.99843
1.93886
1.88843
1.85179
1.82564
1.80748
1.79785
1.79799
1.80787
1.82625
1.85258
1.88928
1.93968
1.99938
2.05827
2.08296
2.06454
2.01407
1.95272
1.93132
2.04188
2.9006
2.82975
1.95301
1.91182
1.97996
2.07583
2.1434
2.11697
2.04744
1.97991
1.92535
1.88525
1.85405
1.82788
1.80833
1.79811
1.79824
1.8087
1.82845
1.85478
1.88607
1.92624
1.98077
2.04845
2.11854
2.14625
2.07777
1.98071
1.91176
1.94921
2.8184
3.01416
2.02718
2.00277
2.09968
2.193
2.175
2.09545
2.01902
1.96195
1.91862
1.88343
1.8521
1.8247
1.80503
1.79506
1.79519
1.8054
1.82529
1.85286
1.88429
1.91959
1.96308
2.02021
2.09688
2.1774
2.19636
2.10256
2.00474
2.02676
3.00717
3.71988
2.33364
2.22321
2.27275
2.2266
2.141
2.05844
1.99717
1.95038
1.91218
1.87651
1.84301
1.8155
1.79688
1.78772
1.78784
1.79725
1.81611
1.84383
1.87746
1.91326
1.95166
1.9987
2.06026
2.14317
2.22917
2.2767
2.2278
2.33721
3.72731
5.09734
2.797
2.50201
2.34609
2.20605
2.10539
2.03424
1.98179
1.93907
1.89891
1.85999
1.82654
1.80133
1.78483
1.77679
1.7769
1.78518
1.80192
1.82736
1.86103
1.90012
1.94047
1.98345
2.03626
2.10776
2.20909
2.35049
2.50711
2.80165
5.10917
6.31873
3.22596
2.64171
2.35533
2.18695
2.08798
2.02042
1.9686
1.92112
1.87639
1.83773
1.80717
1.78505
1.77087
1.764
1.7641
1.77118
1.78558
1.80793
1.83873
1.87762
1.92257
1.97028
2.02242
2.09037
2.19
2.35969
2.6464
3.23216
6.32931
7.3179
3.52194
2.65342
2.34484
2.18037
2.08315
2.01019
1.94926
1.89505
1.84975
1.81403
1.78727
1.76849
1.75666
1.75096
1.75105
1.75693
1.76895
1.78795
1.81495
1.85091
1.89646
1.9509
2.01207
2.08536
2.18311
2.34874
2.65821
3.5285
7.32895
8.12369
3.55615
2.63312
2.34701
2.18889
2.08103
1.99185
1.91989
1.86411
1.82222
1.79117
1.7688
1.75353
1.7441
1.73957
1.73965
1.74433
1.75394
1.76939
1.79198
1.82327
1.86541
1.92143
1.99362
2.08305
2.1914
2.35048
2.63719
3.56087
8.13418
8.22932
3.48915
2.65837
2.37481
2.19269
2.05455
1.94931
1.87998
1.83193
1.79697
1.77174
1.75415
1.7425
1.73542
1.73206
1.73213
1.73563
1.74284
1.75466
1.77245
1.7979
1.83312
1.88147
1.9511
2.05663
2.19524
2.3777
2.66108
3.49255
8.23769
7.93636
3.44857
2.65661
2.33794
2.13147
1.9886
1.90328
1.84814
1.80827
1.77945
1.75955
1.74647
1.73824
1.73342
1.73117
1.73122
1.73359
1.73852
1.7469
1.76015
1.78024
1.8093
1.84943
1.90484
1.99042
2.13364
2.34072
2.65956
3.45195
7.94398
6.91696
3.2123
2.54043
2.24969
2.06204
1.94696
1.87807
1.83116
1.79725
1.77371
1.75831
1.74833
1.74227
1.73894
1.73746
1.7375
1.73908
1.7425
1.74868
1.75879
1.77435
1.79808
1.8322
1.87934
1.94837
2.06365
2.25193
2.54339
3.21634
6.92761
5.02891
2.83536
2.35679
2.15518
2.02083
1.93329
1.87364
1.83087
1.8005
1.78053
1.76839
1.76165
1.75824
1.75679
1.75635
1.75638
1.75689
1.75842
1.76193
1.76879
1.78106
1.8012
1.83173
1.87464
1.93439
2.02209
2.15696
2.35915
2.83836
5.03658
4.31301
2.59408
2.24061
2.11045
2.01562
1.93973
1.88505
1.84636
1.82097
1.80562
1.79756
1.79424
1.79341
1.79371
1.79423
1.79425
1.79377
1.79354
1.79444
1.79784
1.80602
1.8215
1.84703
1.88587
1.94062
2.01651
2.11156
2.24204
2.59579
4.31488
4.39376
2.57351
2.25871
2.13303
2.03896
1.97271
1.92398
1.89044
1.87008
1.8589
1.85367
1.85206
1.85236
1.85338
1.85434
1.85436
1.85344
1.85247
1.85221
1.85389
1.85918
1.87044
1.89089
1.92456
1.97337
2.03964
2.13372
2.25952
2.57415
4.39429
5.01729
2.79636
2.40022
2.22281
2.12401
2.05956
2.01013
1.97708
1.95678
1.94569
1.94061
1.93914
1.93953
1.94056
1.94143
1.94144
1.94061
1.93963
1.93928
1.94079
1.94592
1.95707
1.97741
2.01051
2.05996
2.12447
2.22311
2.40024
2.79577
5.01488
7.51569
3.42907
2.70637
2.46159
2.31956
2.22424
2.15678
2.11348
2.08704
2.07186
2.06401
2.06063
2.05971
2.05984
2.06016
2.06018
2.0599
2.0598
2.06077
2.06419
2.07208
2.08729
2.11377
2.15709
2.22454
2.3198
2.46162
2.70583
3.42696
7.50591
12.214
4.58167
3.28042
2.89122
2.63747
2.47283
2.36948
2.30527
2.26545
2.24131
2.22728
2.21963
2.2158
2.21411
2.2135
2.21352
2.21417
2.21591
2.21977
2.22747
2.24154
2.26572
2.30557
2.3698
2.47314
2.63772
2.89137
3.28022
4.58065
12.2084
13.789
5.19098
3.77101
3.30099
3.00962
2.79215
2.6486
2.55588
2.49561
2.45707
2.43297
2.41835
2.40982
2.40522
2.40321
2.40324
2.40529
2.40994
2.41851
2.43318
2.45733
2.49591
2.55623
2.64899
2.79254
3.00999
3.30139
3.7715
5.19169
13.7911
12.9578
5.17652
3.85975
3.42129
3.19797
3.01737
2.87756
2.77915
2.71189
2.66718
2.63816
2.61981
2.60861
2.60227
2.59945
2.59947
2.60235
2.60873
2.61998
2.63839
2.66746
2.71222
2.77953
2.87797
3.0178
3.19838
3.42174
3.86045
5.17765
12.9624
10.4475
4.90483
3.74683
3.36656
3.18593
3.04446
2.93471
2.85729
2.80409
2.76823
2.7446
2.72952
2.72027
2.71503
2.71268
2.7127
2.7151
2.72039
2.7297
2.74482
2.7685
2.80441
2.85764
2.93509
3.04485
3.18635
3.36708
3.74766
4.90644
10.4537
8.3118
4.3644
3.47103
3.14889
3.00648
2.92354
2.86053
2.81266
2.77764
2.75353
2.73763
2.72767
2.72176
2.71862
2.71731
2.71733
2.71869
2.72187
2.72782
2.73782
2.75376
2.77791
2.81296
2.86085
2.92388
3.00686
3.14938
3.47177
4.3657
8.31591
6.8729
3.82627
3.15514
2.91565
2.8088
2.75094
2.71381
2.68974
2.6741
2.66455
2.65925
2.65674
2.65585
2.6557
2.65576
2.65578
2.65575
2.65593
2.65685
2.65939
2.66472
2.6743
2.68996
2.71405
2.75121
2.80911
2.91603
3.15568
3.82719
6.87495
5.91275
3.37913
2.86555
2.69476
2.62392
2.59044
2.57321
2.56456
2.56107
2.56074
2.56222
2.56455
2.56697
2.56889
2.56996
2.56997
2.56893
2.56703
2.56465
2.56234
2.56088
2.56123
2.56473
2.5734
2.59065
2.62416
2.69504
2.86592
3.37967
5.91329
5.34633
3.049
2.62679
2.50089
2.45674
2.44254
2.44072
2.44443
2.4507
2.45792
2.46512
2.47164
2.47696
2.48071
2.48265
2.48266
2.48074
2.47701
2.47171
2.46522
2.45802
2.45082
2.44457
2.44086
2.4427
2.45691
2.50109
2.62704
3.04929
5.34606
5.05013
2.8166
2.43781
2.3365
2.3094
2.30853
2.31772
2.33064
2.3444
2.35759
2.36942
2.37938
2.38713
2.39243
2.39512
2.39513
2.39246
2.38717
2.37944
2.36949
2.35767
2.34449
2.33074
2.31782
2.30865
2.30952
2.33664
2.43797
2.81676
5.04957
4.8932
2.65051
2.28849
2.19828
2.18061
2.18805
2.20471
2.22409
2.2433
2.26096
2.27632
2.28897
2.29864
2.30517
2.30846
2.30847
2.30519
2.29867
2.28901
2.27637
2.26102
2.24337
2.22416
2.20478
2.18813
2.18071
2.19839
2.28862
2.65061
4.89262
4.7895
2.52364
2.16773
2.08146
2.06819
2.08028
2.10155
2.12518
2.14813
2.16894
2.18687
2.20149
2.2126
2.22007
2.22381
2.22382
2.22008
2.21263
2.20153
2.18691
2.16899
2.14818
2.12523
2.10161
2.08035
2.06827
2.08155
2.16783
2.52371
4.789
4.69504
2.41887
2.06685
1.98155
1.96985
1.98416
2.00795
2.03412
2.05944
2.08232
2.10197
2.11796
2.13007
2.13819
2.14226
2.14227
2.1382
2.13009
2.11799
2.10201
2.08236
2.05949
2.03417
2.00801
1.98423
1.96992
1.98164
2.06694
2.41893
4.69463
4.59483
2.32857
1.98046
1.89514
1.88358
1.89864
1.92353
1.95099
1.97762
2.00171
2.0224
2.03924
2.05198
2.06052
2.0648
2.0648
2.06053
2.052
2.03926
2.02244
2.00175
1.97767
1.95105
1.92359
1.8987
1.88366
1.89522
1.98054
2.32859
4.59448
4.48893
2.25018
1.90523
1.81978
1.8078
1.82277
1.84787
1.87576
1.90293
1.92757
1.94877
1.96604
1.97911
1.98788
1.99227
1.99227
1.98789
1.97914
1.96607
1.94881
1.92762
1.90298
1.87583
1.84794
1.82284
1.80788
1.81986
1.90529
2.25018
4.4886
4.37449
2.17816
1.83857
1.75372
1.74131
1.7558
1.78059
1.80835
1.83551
1.86023
1.88153
1.89891
1.91208
1.92091
1.92533
1.92534
1.92092
1.9121
1.89894
1.88158
1.86028
1.83557
1.80842
1.78066
1.75588
1.74139
1.7538
1.83863
2.17815
4.3742
4.25641
2.11139
1.7793
1.69583
1.68321
1.6971
1.7213
1.74858
1.77538
1.79984
1.82096
1.8382
1.85129
1.86007
1.86447
1.86448
1.86009
1.85132
1.83824
1.82101
1.7999
1.77545
1.74866
1.72139
1.69719
1.68329
1.69591
1.77936
2.11138
4.25615
4.14059
2.05045
1.72701
1.64546
1.63285
1.64615
1.66963
1.69623
1.72244
1.74642
1.76716
1.78411
1.79699
1.80563
1.80997
1.80998
1.80565
1.79702
1.78416
1.76721
1.74648
1.72252
1.69632
1.66972
1.64625
1.63294
1.64554
1.72707
2.05045
4.14035
4.03158
1.99605
1.68153
1.60214
1.58968
1.60244
1.62516
1.65097
1.67647
1.69983
1.72007
1.73662
1.74921
1.75766
1.7619
1.76191
1.75768
1.74924
1.73667
1.72013
1.69991
1.67655
1.65107
1.62525
1.60254
1.58978
1.60222
1.68159
1.99604
4.03135
3.93244
1.94858