/*--------------------------------*- C++ -*----------------------------------*\
| =========                 |                                                 |
| \\      /  F ield         | OpenFOAM: The Open Source CFD Toolbox           |
|  \\    /   O peration     | Version:  v1606+                                |
|   \\  /    A nd           | Web:      www.OpenFOAM.com                      |
|    \\/     M anipulation  |                                                 |
\*---------------------------------------------------------------------------*/
FoamFile
{
    version     2.0;
    format      ascii;
    class       volScalarField;
    location    "14";
    object      alpha.water;
}
// * * * * * * * * * * * * * * * * * * * * * * * * * * * * * * * * * * * * * //

dimensions      [0 0 0 0 0 0 0];

internalField   nonuniform List<scalar> 
5080
(
1
1
1
1
1
1
1
1
1
1
1
1
1
1
1
1
1
1
1
1
1
1
1
1
1
1
1
1
1
1
1
1
1
1
1
1
1
1
1
1
1
1
1
1
1
1
1
1
1
1
1
1
1
1
1
1
1
1
1
1
1
1
1
1
1
1
1
1
1
1
1
1
1
1
1
1
1
1
1
1
1
1
1
1
1
1
1
1
1
1
1
1
1
1
1
1
1
1
1
1
1
1
1
1
1
1
1
1
1
1
1
1
1
1
1
1
1
1
1
1
1
1
1
1
1
1
1
1
1
1
1
1
1
1
1
1
1
1
1
1
1
1
1
1
1
1
1
1
1
1
1
1
1
1
1
1
1
1
1
1
1
1
1
1
1
1
1
1
1
1
1
1
1
1
1
1
1
1
1
1
1
1
1
1
1
1
1
1
1
1
1
1
1
1
1
1
1
1
1
1
1
1
1
1
1
1
1
1
1
1
1
1
1
1
1
1
1
1
1
1
1
1
1
1
1
1
1
1
1
1
1
1
1
1
1
1
1
1
1
1
1
1
1
1
1
1
1
1
1
1
1
1
1
1
1
1
1
1
1
1
1
1
1
1
1
1
1
1
1
1
1
1
1
1
1
1
1
1
1
1
1
1
1
1
1
1
1
1
1
1
1
1
1
1
1
1
1
1
1
1
1
1
1
1
1
1
1
1
1
1
1
1
1
1
1
1
1
1
1
1
1
1
1
1
1
1
1
1
1
1
1
1
1
1
1
1
1
1
1
1
1
1
1
1
1
1
1
1
1
1
1
1
1
1
1
1
1
1
1
1
1
1
1
1
1
1
1
1
1
1
1
1
1
1
1
1
1
1
1
1
1
1
1
1
1
1
1
1
1
1
1
1
1
1
1
1
1
1
1
1
0.844446
0.806003
0.718147
0.84354
0.86077
0.86077
0.841218
0.793724
0.807169
0.909262
0.956831
0.979897
0.99614
0.999661
1
1
1
1
1
1
1
1
1
1
1
1
1
1
1
1
1
1
1
1
1
1
1
1
1
1
1
1
1
1
1
1
1
1
1
1
1
1
1
1
1
1
1
1
1
1
0.844446
0.469948
0.199992
0.268902
0.215898
0.148866
0.131419
0.128382
0.203162
0.321706
0.433908
0.59952
0.848068
1
1
1
1
1
1
1
1
1
1
1
1
1
1
1
1
1
1
1
1
1
1
1
1
1
1
1
1
1
1
1
1
1
1
1
1
1
1
1
1
1
1
1
1
1
1
1
0.821564
0.0958489
1.80435e-17
1.64279e-17
1.38768e-17
1.15706e-17
9.63995e-18
7.48737e-18
5.30146e-18
5.30144e-18
7.8646e-18
0.125016
0.56228
0.996689
1
1
1
1
1
1
1
1
1
1
1
1
1
1
1
1
1
1
1
1
1
1
1
1
1
1
1
1
1
1
1
1
1
1
1
1
1
1
1
1
1
1
1
1
1
1
0.842663
0.0377094
1.93144e-17
0.00914559
0.0471613
0.0361887
0.00133884
7.66519e-18
7.25592e-18
4.1248e-08
9.88757e-18
0.00916991
0.431732
0.984428
1
1
1
1
1
1
1
1
1
1
1
1
1
1
1
1
1
1
1
1
1
1
1
1
1
1
1
1
1
1
1
1
0.999999
0.999974
0.999862
0.999735
0.999737
0.999824
0.99999
1
1
1
1
1
1
1
0.842663
0.0379216
0.0658433
0.413302
0.743916
0.717944
0.467886
0.0978671
0.00113768
1.36732e-17
1.1592e-17
0.00434261
0.417732
0.982855
1
1
1
1
0.984861
0.935481
0.87545
0.824795
0.793111
0.774712
0.767294
0.767613
0.767416
0.764128
0.754533
0.740724
0.731686
0.728815
0.727238
0.725287
0.722495
0.718537
0.712223
0.700101
0.677504
0.64668
0.624649
0.620034
0.619539
0.617837
0.61277
0.605443
0.59974
0.592383
0.574105
0.549903
0.545845
0.549157
0.556021
0.562023
0.570731
0.595625
0.646138
0.686495
0.689514
0.681666
0.557844
0.181447
0.574788
0.995541
0.997328
0.997331
0.954303
0.503138
0.0279214
1.27069e-17
1.36449e-17
0.000364083
0.422695
0.987455
1
1
1
0.806212
0.457507
0.184124
0.00427471
1.38377e-15
1.38381e-15
1.38316e-15
1.38387e-15
0.000101213
0.000429309
0.000488024
0.000305653
1.70744e-05
1.38393e-15
1.38316e-15
1.38381e-15
1.38316e-15
1.38381e-15
1.38316e-15
1.38381e-15
1.38316e-15
1.38381e-15
1.38316e-15
1.38381e-15
1.38316e-15
1.38381e-15
1.38316e-15
1.38381e-15
1.38316e-15
1.38381e-15
1.38316e-15
1.38381e-15
1.38316e-15
1.38381e-15
1.38322e-15
0.000176638
0.000943482
0.00259468
0.00540331
0.0101245
0.0175293
0.0260665
0.0291357
0.679564
0.834917
0.994226
0.997329
0.997331
0.997331
0.997331
0.817732
0.127974
1.03087e-17
4.97972e-12
6.03452e-19
0.432955
0.990536
1
1
0.849027
0.153262
1.43368e-15
1.43698e-15
1.43254e-15
1.66769e-15
2.95436e-15
4.4818e-15
5.70561e-15
5.5333e-15
5.52375e-15
5.5333e-15
5.52375e-15
5.5333e-15
9.79842e-15
1.33311e-14
1.48491e-14
1.65047e-14
1.90953e-14
2.30127e-14
2.82349e-14
3.40616e-14
3.96375e-14
4.50176e-14
5.0748e-14
5.65359e-14
5.97536e-14
5.99804e-14
5.94279e-14
5.74175e-14
5.33654e-14
4.73687e-14
4.00784e-14
3.09135e-14
1.65579e-14
3.58188e-15
1.4039e-15
1.40392e-15
1.4039e-15
1.40068e-15
1.40066e-15
1.40066e-15
1.40066e-15
1.40066e-15
0.974758
0.997226
0.997226
0.997176
0.997329
0.997331
0.997329
0.944639
0.263104
9.16545e-18
1.82102e-11
7.12678e-19
0.538738
0.997898
1
1
0.386975
1.47612e-15
1.4602e-15
6.66551e-15
2.57295e-14
7.84328e-14
1.58031e-13
2.33261e-13
2.81222e-13
3.10376e-13
3.44417e-13
3.90679e-13
4.42571e-13
4.8501e-13
5.13143e-13
5.36709e-13
5.63828e-13
5.99223e-13
6.44757e-13
6.98052e-13
7.54005e-13
7.96609e-13
8.05598e-13
8.03688e-13
7.96323e-13
7.8037e-13
7.52933e-13
7.12208e-13
6.58788e-13
5.95797e-13
5.27639e-13
4.59718e-13
3.99754e-13
3.55716e-13
3.284e-13
3.09018e-13
2.90288e-13
2.6784e-13
2.3732e-13
1.97471e-13
1.51741e-13
1.06069e-13
7.05613e-14
3.7092e-14
0.996518
0.994293
0.993825
0.996476
0.997331
0.997329
0.99733
0.990941
0.386206
7.40464e-18
3.68181e-11
6.03452e-19
0.650467
1
1
0.93468
0.125836
1.49496e-15
4.35682e-14
2.38488e-13
6.0789e-13
1.16127e-12
1.80017e-12
2.3637e-12
2.68171e-12
2.83553e-12
2.97424e-12
3.13917e-12
3.25495e-12
3.29155e-12
3.29902e-12
3.295e-12
3.27592e-12
3.24643e-12
3.19883e-12
3.11602e-12
2.98633e-12
2.8135e-12
2.61442e-12
2.40728e-12
2.20244e-12
2.00259e-12
1.8079e-12
1.62007e-12
1.44299e-12
1.2812e-12
1.13828e-12
1.016e-12
9.13783e-13
8.27896e-13
7.52542e-13
6.82666e-13
6.13268e-13
5.40717e-13
4.63647e-13
3.8374e-13
3.05433e-13
2.34143e-13
1.81063e-13
1.18482e-13
0.99302
0.994554
0.997152
0.997156
0.99678
0.99733
0.997328
0.966217
0.342115
4.49707e-18
4.32936e-11
7.12678e-19
0.741144
1
1
0.646376
0.0219223
1.51308e-15
5.96113e-13
2.22289e-12
4.08112e-12
5.93386e-12
7.35376e-12
8.42678e-12
8.67162e-12
8.61594e-12
8.47097e-12
8.2582e-12
8.00449e-12
7.71376e-12
7.37644e-12
6.98643e-12
6.5368e-12
6.02339e-12
5.46215e-12
4.88038e-12
4.31166e-12
3.78775e-12
3.32591e-12
2.92553e-12
2.57629e-12
2.26834e-12
1.9968e-12
1.76056e-12
1.55833e-12
1.38624e-12
1.23831e-12
1.10753e-12
9.8684e-13
8.71614e-13
7.61579e-13
6.59734e-13
5.73685e-13
5.04171e-13
4.42783e-13
3.81527e-13
3.19308e-13
2.61371e-13
2.15601e-13
2.06441e-13
0.997228
0.997226
0.996698
0.996245
0.996771
0.997326
0.997329
0.766794
0.145516
1.80995e-18
1.32288e-11
3.28591e-18
0.83035
1
1
0.423854
8.58147e-05
1.53152e-15
2.89847e-12
7.51559e-12
1.10717e-11
1.32101e-11
1.37953e-11
1.36882e-11
1.33774e-11
1.28321e-11
1.21027e-11
1.12837e-11
1.04468e-11
9.61372e-12
8.77623e-12
7.91994e-12
7.03878e-12
6.13519e-12
5.22693e-12
4.36597e-12
3.60545e-12
2.97007e-12
2.45558e-12
2.0449e-12
1.72003e-12
1.46373e-12
1.25808e-12
1.08677e-12
9.39458e-13
8.11511e-13
7.0082e-13
6.0503e-13
5.16366e-13
4.35673e-13
4.01343e-13
4.02167e-13
4.1009e-13
4.27665e-13
4.54142e-13
4.84986e-13
5.15003e-13
5.51202e-13
5.99429e-13
8.88752e-13
0.997316
0.996944
0.996246
0.996246
0.997324
0.997328
0.876863
0.268755
2.4119e-18
5.49448e-20
8.58893e-21
0.0905377
0.897519
1
1
0.259477
2.19965e-15
1.14892e-12
6.91883e-12
1.32889e-11
1.59698e-11
1.5962e-11
1.56719e-11
1.50613e-11
1.41921e-11
1.30859e-11
1.18537e-11
1.06146e-11
9.4125e-12
8.22803e-12
7.02331e-12
5.78512e-12
4.54912e-12
3.40149e-12
2.4457e-12
1.72997e-12
1.23176e-12
8.96373e-13
6.71448e-13
5.19219e-13
4.14158e-13
3.37002e-13
2.72605e-13
2.12515e-13
1.65484e-13
1.50959e-13
1.51612e-13
1.57941e-13
1.76499e-13
2.14256e-13
2.78051e-13
3.76462e-13
5.2106e-13
7.25605e-13
1.00964e-12
1.40436e-12
1.93289e-12
2.64882e-12
3.42544e-12
5.67617e-12
0.997318
0.99732
0.99732
0.997322
0.997322
0.934108
0.344027
2.06334e-12
2.315e-12
2.80798e-14
8.58893e-21
0.203107
0.946451
1
0.979263
0.141803
2.19464e-15
2.58053e-12
1.16166e-11
1.65565e-11
1.65783e-11
1.61143e-11
1.46097e-11
1.24941e-11
1.03411e-11
8.44732e-12
6.83352e-12
5.45391e-12
4.2397e-12
3.14283e-12
2.16853e-12
1.36486e-12
7.81245e-13
4.2476e-13
2.36305e-13
1.3913e-13
8.67003e-14
5.55598e-14
3.48939e-14
2.16483e-14
1.65015e-14
1.61323e-14
1.63912e-14
1.7614e-14
2.07765e-14
2.72316e-14
3.91584e-14
6.0117e-14
9.57303e-14
1.54541e-13
2.48934e-13
3.95575e-13
6.14164e-13
9.20644e-13
1.32581e-12
1.85705e-12
2.54814e-12
3.6313e-12
4.83774e-12
9.71729e-12
0.995971
0.996421
0.99732
0.99732
0.868952
0.270028
2.00252e-18
2.06568e-12
3.58378e-12
9.10025e-20
8.58893e-21
0.343324
0.980322
1
0.817517
0.0634172
2.19817e-15
4.68044e-12
1.53302e-11
1.70735e-11
1.59973e-11
1.26247e-11
8.66857e-12
5.51101e-12
3.40447e-12
2.09678e-12
1.30319e-12
7.96402e-13
4.56737e-13
2.3414e-13
1.03315e-13
3.86744e-14
1.23818e-14
3.4351e-15
1.07329e-15
8.83946e-16
8.41304e-16
8.55988e-16
9.28611e-16
1.05895e-15
1.24469e-15
1.79354e-15
2.95033e-15
5.10788e-15
9.11989e-15
1.65993e-14
3.00875e-14
5.31811e-14
9.12666e-14
1.53954e-13
2.65533e-13
4.95039e-13
9.46798e-13
1.78651e-12
2.77696e-12
3.19615e-12
3.90414e-12
1.64664e-11
4.57209e-11
3.325e-10
0.923513
0.917932
0.976103
0.717608
0.101682
1.36872e-18
9.72403e-20
9.83189e-20
2.74994e-19
2.11973e-11
8.58893e-21
0.493714
0.99596
1
0.661663
0.0227371
2.19433e-15
7.57828e-12
1.72432e-11
1.70662e-11
1.29341e-11
7.02866e-12
2.97736e-12
1.10925e-12
3.89183e-13
1.28131e-13
3.98706e-14
1.09395e-14
2.58233e-15
6.78089e-16
3.09144e-16
2.0102e-16
1.52747e-16
1.43281e-16
1.59242e-16
1.97584e-16
2.60805e-16
3.55184e-16
4.93051e-16
6.63967e-16
1.36363e-15
4.20468e-15
1.38943e-14
4.3537e-14
1.25377e-13
3.29047e-13
7.84897e-13
1.70541e-12
3.4049e-12
6.33656e-12
1.13813e-11
2.13363e-11
4.01622e-11
6.77679e-11
1.00506e-10
1.27985e-10
1.60318e-10
4.58631e-10
2.14387e-09
4.77061e-09
0.878071
0.872648
0.872973
0.26657
2.82116e-17
1.5842e-11
2.17012e-09
1.41511e-08
2.3563e-12
2.68095e-09
8.58897e-21
0.628882
1
1
0.51177
0.00466105
2.19806e-15
1.15348e-11
1.7947e-11
1.53011e-11
8.31843e-12
2.65564e-12
5.32184e-13
7.48539e-14
7.42401e-15
4.10314e-16
2.09747e-16
1.3168e-16
9.05121e-17
6.95772e-17
6.16012e-17
6.56925e-17
8.20798e-17
1.11821e-16
1.57947e-16
2.25749e-16
3.22621e-16
4.55995e-16
6.28658e-16
1.43028e-15
4.89449e-15
1.8074e-14
6.45309e-14
2.14975e-13
6.57311e-13
1.82853e-12
4.60971e-12
1.05151e-11
2.17555e-11
4.13458e-11
7.35547e-11
1.24497e-10
2.14105e-10
3.88642e-10
6.95688e-10
1.01655e-09
1.08639e-09
1.08692e-09
1.03778e-09
7.21944e-10
0.984406
0.9636
0.854169
0.205663
2.67541e-17
7.60117e-10
4.77061e-08
7.30687e-08
7.11086e-08
8.12011e-13
8.58897e-21
0.751649
1
1
0.374852
2.12337e-15
2.73953e-12
1.58347e-11
1.79624e-11
1.2744e-11
4.46322e-12
6.80239e-13
4.50043e-14
1.29151e-15
1.62919e-16
1.04493e-16
5.85376e-17
3.57602e-17
2.75484e-17
2.80468e-17
3.48982e-17
4.7768e-17
6.77869e-17
9.75015e-17
1.41091e-16
2.049e-16
2.98505e-16
4.38235e-16
6.77342e-16
1.92459e-15
7.23776e-15
2.81775e-14
1.04682e-13
3.60228e-13
1.12928e-12
3.19614e-12
8.13765e-12
1.85612e-11
3.77848e-11
6.9588e-11
1.19543e-10
1.74291e-10
1.89186e-10
1.85289e-10
1.68988e-10
1.30572e-10
7.42974e-11
2.22329e-11
1.43503e-12
1.07114e-12
0.984407
0.984409
0.866607
0.0947146
2.8082e-17
2.54741e-09
4.19377e-08
4.82485e-08
4.13045e-08
6.28618e-23
1.38722e-18
0.864548
1
1
0.250031
2.11941e-15
4.35972e-12
1.7599e-11
1.74853e-11
9.45818e-12
1.90572e-12
1.17617e-13
1.85512e-15
1.56785e-16
8.75202e-17
3.59726e-17
1.56298e-17
1.06364e-17
1.19182e-17
1.6034e-17
2.21626e-17
3.06792e-17
4.2716e-17
6.00988e-17
8.54504e-17
1.22244e-16
1.74966e-16
2.50477e-16
3.61961e-16
5.41599e-16
1.18915e-15
4.41744e-15
1.73837e-14
6.52173e-14
2.2102e-13
6.56882e-13
1.69557e-12
3.70548e-12
6.20279e-12
7.15221e-12
6.9981e-12
5.99349e-12
3.73312e-12
1.18556e-12
9.39722e-14
7.24462e-14
1.96793e-13
4.54476e-13
7.65808e-13
1.61761e-12
0.984409
0.98441
0.445005
5.30008e-19
3.61696e-11
9.04661e-10
3.50967e-09
2.9353e-09
5.15457e-09
6.28807e-23
0.165295
0.941997
1
0.993668
0.141104
2.1213e-15
6.21074e-12
1.88767e-11
1.63133e-11
6.22171e-12
6.6701e-13
1.45909e-14
1.14761e-16
3.72296e-17
1.29277e-17
4.87158e-18
3.51471e-18
4.64973e-18
6.66547e-18
9.22737e-18
1.24913e-17
1.68437e-17
2.29541e-17
3.16768e-17
4.4064e-17
6.11017e-17
8.32202e-17
1.10137e-16
1.41748e-16
1.78899e-16
2.23523e-16
2.98641e-16
4.50034e-16
7.13372e-16
1.38002e-15
3.50227e-15
6.9034e-15
7.90624e-15
6.95813e-15
3.99633e-15
2.50061e-15
3.6033e-15
8.69362e-15
1.94231e-14
3.92816e-14
7.20788e-14
1.20297e-13
1.91083e-13
2.77876e-13
5.02128e-13
0.984407
0.88744
0.00989714
5.18515e-19
1.66725e-12
2.35883e-13
3.27168e-13
5.11489e-07
3.09871e-08
6.31826e-23
0.347562
0.981912
1
0.837801
0.0650472
2.11788e-15
8.83417e-12
1.95028e-11
1.42907e-11
3.66958e-12
1.93288e-13
1.25388e-15
9.56053e-17
1.87272e-17
2.48546e-18
9.5077e-19
1.44986e-18
2.281e-18
3.27833e-18
4.44443e-18
5.88902e-18
7.80799e-18
1.0491e-17
1.41691e-17
1.90787e-17
2.53584e-17
3.29251e-17
4.15525e-17
5.1344e-17
6.27917e-17
7.61498e-17
9.06385e-17
1.04636e-16
1.16894e-16
1.27291e-16
1.44188e-16
1.77466e-16
2.30566e-16
3.13689e-16
4.76526e-16
7.14441e-16
9.59147e-16
1.23197e-15
1.79692e-15
3.35182e-15
5.99268e-15
9.88619e-15
1.52885e-14
2.28756e-14
3.71004e-14
0.98094
0.359682
-9.02325e-20
1.59879e-18
1.95122e-18
1.88571e-08
6.06244e-07
7.14863e-07
1.94797e-08
6.29079e-23
0.539327
0.998005
1
0.670855
0.0226212
2.12073e-15
1.23078e-11
1.9532e-11
1.17652e-11
1.9426e-12
4.65193e-14
1.15006e-16
1.54537e-17
1.20648e-18
1.92058e-19
3.14288e-19
5.52886e-19
8.9911e-19
1.32705e-18
1.82331e-18
2.41102e-18
3.1157e-18
3.98993e-18
5.09841e-18
6.48813e-18
8.18164e-18
1.01931e-17
1.25935e-17
1.55623e-17
1.93632e-17
2.41781e-17
2.99845e-17
3.6638e-17
4.38005e-17
5.13316e-17
6.03097e-17
7.27624e-17
8.92553e-17
1.06705e-16
1.21313e-16
1.32517e-16
1.43173e-16
1.56973e-16
1.75325e-16
2.01811e-16
2.46182e-16
3.02636e-16
3.63226e-16
4.17976e-16
4.55137e-16
0.943796
0.010952
-3.34332e-19
1.53011e-18
2.15048e-07
7.56737e-07
7.60684e-07
2.46458e-07
1.85345e-19
6.28471e-23
0.724683
1
1
0.498466
0.00391597
2.11766e-15
1.60066e-11
1.89618e-11
9.01523e-12
9.14826e-13
9.07813e-15
2.69006e-17
1.80984e-18
3.22423e-20
6.07187e-20
1.10864e-19
1.90305e-19
2.9988e-19
4.46433e-19
6.39995e-19
8.75146e-19
1.14719e-18
1.47446e-18
1.87665e-18
2.37712e-18
3.01758e-18
3.857e-18
4.96085e-18
6.39168e-18
8.20087e-18
1.03858e-17
1.29236e-17
1.57603e-17
1.87874e-17
2.21154e-17
2.6245e-17
3.15544e-17
3.77721e-17
4.39692e-17
5.01361e-17
5.68099e-17
6.45604e-17
7.38694e-17
8.49066e-17
9.77852e-17
1.11816e-16
1.25728e-16
1.35168e-16
1.39865e-16
1.35883e-16
0.9146
1.31637e-18
-2.58447e-19
1.67371e-18
3.26558e-07
7.62814e-07
5.57516e-07
9.28275e-19
6.2549e-23
1.81242e-18
0.876416
1
1
0.338045
3.8617e-15
4.11597e-12
1.92442e-11
1.79432e-11
6.32604e-12
3.66808e-13
1.29158e-15
2.31516e-17
4.93315e-21
1.05297e-20
1.94549e-20
3.55285e-20
6.2097e-20
1.01234e-19
1.51295e-19
2.09898e-19
2.8277e-19
3.82774e-19
5.16154e-19
6.82377e-19
8.89896e-19
1.15947e-18
1.51747e-18
1.98793e-18
2.58975e-18
3.3389e-18
4.23845e-18
5.28723e-18
6.48645e-18
7.84969e-18
9.42073e-18
1.12451e-17
1.34015e-17
1.58735e-17
1.85515e-17
2.14358e-17
2.45141e-17
2.78721e-17
3.16209e-17
3.56671e-17
3.99778e-17
4.42297e-17
4.77315e-17
4.78531e-17
4.74516e-17
4.05364e-17
0.906429
0.0202202
7.78249e-36
3.43908e-20
3.10739e-19
2.52484e-07
5.57428e-08
2.42259e-07
6.39173e-23
0.263075
0.969657
1
1
0.196464
3.86235e-15
6.35972e-12
2.02378e-11
1.61511e-11
3.95042e-12
1.20999e-13
1.48483e-16
1.58862e-18
1.7932e-21
3.20046e-21
5.86752e-21
1.08398e-20
1.9143e-20
3.14429e-20
4.79499e-20
6.87275e-20
9.36799e-20
1.23798e-19
1.62805e-19
2.1698e-19
2.93581e-19
3.98748e-19
5.3999e-19
7.25175e-19
9.60621e-19
1.251e-18
1.59946e-18
2.00957e-18
2.48637e-18
3.03653e-18
3.66933e-18
4.39895e-18
5.24752e-18
6.22037e-18
7.29259e-18
8.42964e-18
9.60795e-18
1.08644e-17
1.22229e-17
1.35898e-17
1.48942e-17
1.59685e-17
1.63954e-17
1.52451e-17
1.40973e-17
1.01389e-17
0.775666
0.0349542
1.47394e-35
4.45047e-20
5.7739e-06
7.96719e-08
1.63211e-08
5.63684e-08
6.47197e-23
0.537924
0.998047
1
0.934837
0.0895725
3.86095e-15
9.14249e-12
2.0819e-11
1.36174e-11
2.1642e-12
3.07608e-14
1.82142e-17
2.34791e-21
1.17762e-21
1.08055e-21
1.66835e-21
3.09266e-21
5.54543e-21
9.30755e-21
1.44612e-20
2.09301e-20
2.87977e-20
3.85887e-20
5.11976e-20
6.79004e-20
9.05078e-20
1.21833e-19
1.65789e-19
2.26506e-19
3.06837e-19
4.08154e-19
5.30972e-19
6.76147e-19
8.45277e-19
1.04053e-18
1.26508e-18
1.52431e-18
1.8245e-18
2.16558e-18
2.5375e-18
2.92422e-18
3.31416e-18
3.71458e-18
4.12675e-18
4.50947e-18
4.81571e-18
4.98074e-18
4.87548e-18
4.32547e-18
3.68803e-18
2.51052e-18
0.149982
0.0333087
6.75064e-20
0.000142069
5.82963e-05
3.20612e-19
7.38028e-08
5.15749e-19
5.80127e-19
0.757333
1
1
0.686727
0.0233338
3.86164e-15
1.31981e-11
2.08457e-11
1.05652e-11
1.01253e-12
5.33728e-15
1.13864e-18
7.66226e-21
3.43809e-21
1.22896e-21
4.89584e-22
8.28238e-22
1.50527e-21
2.57116e-21
4.07862e-21
6.02508e-21
8.40337e-21
1.12998e-20
1.49623e-20
1.9818e-20
2.64558e-20
3.56822e-20
4.85782e-20
6.63575e-20
9.00748e-20
1.20412e-19
1.5772e-19
2.02315e-19
2.54661e-19
3.15373e-19
3.85318e-19
4.6598e-19
5.59178e-19
6.64807e-19
7.79093e-19
8.95609e-19
1.00853e-18
1.11846e-18
1.22573e-18
1.31647e-18
1.3718e-18
1.37394e-18
1.29731e-18
1.10963e-18
8.9837e-19
6.01023e-19
0.0109926
0.0109726
1.87505e-19
0.000155312
4.67215e-05
3.04173e-19
1.22353e-07
2.09274e-22
0.0595684
0.911712
1
1
0.473076
0.00279932
3.86062e-15
1.76809e-11
1.94517e-11
7.41863e-12
3.9915e-13
4.38084e-16
6.84602e-20
2.85757e-20
1.52664e-20
4.84696e-21
3.5341e-22
2.07846e-22
3.8276e-22
6.6553e-22
1.07611e-21
1.61837e-21
2.29024e-21
3.10668e-21
4.1222e-21
5.44172e-21
7.22259e-21
9.69108e-21
1.31581e-20
1.79849e-20
2.44929e-20
3.28814e-20
4.32402e-20
5.5651e-20
7.02501e-20
8.722e-20
1.06767e-19
1.29223e-19
1.55024e-19
1.84105e-19
2.15253e-19
2.46311e-19
2.75025e-19
3.01071e-19
3.24689e-19
3.42227e-19
3.47944e-19
3.37356e-19
3.07647e-19
2.54108e-19
1.97899e-19
1.30405e-19
0.0211791
0.0253258
1.37005e-05
0.000150031
3.19896e-06
3.02381e-19
2.46554e-09
2.06908e-22
0.464152
0.995361
1
1
0.280846
3.47177e-15
4.94851e-12
2.14576e-11
1.81363e-11
4.56645e-12
1.19135e-13
1.08171e-16
2.00932e-19
1.10262e-19
6.58063e-20
2.15727e-20
1.15681e-21
4.93186e-23
9.11069e-23
1.61066e-22
2.65376e-22
4.06291e-22
5.83084e-22
7.97622e-22
1.06088e-21
1.3967e-21
1.84302e-21
2.45582e-21
3.31401e-21
4.51319e-21
6.14157e-21
8.2536e-21
1.08709e-20
1.40104e-20
1.77046e-20
2.19975e-20
2.69265e-20
3.25471e-20
3.89417e-20
4.60791e-20
5.36136e-20
6.09275e-20
6.73173e-20
7.25933e-20
7.68762e-20
7.94019e-20
7.87792e-20
7.39747e-20
6.51969e-20
5.21136e-20
3.92299e-20
2.55374e-20
0.00653385
0.0221371
3.52147e-06
1.33695e-05
1.53775e-09
1.52273e-09
1.14568e-18
1.07645e-18
0.74591
1
1
0.998823
0.121131
3.47359e-15
8.02018e-12
2.28282e-11
1.5437e-11
2.36335e-12
2.34183e-14
4.6674e-18
6.14618e-19
4.19305e-19
2.643e-19
9.07402e-20
4.91857e-21
1.29515e-23
2.03445e-23
3.64788e-23
6.11606e-23
9.52398e-23
1.38606e-22
1.91264e-22
2.55034e-22
3.34772e-22
4.38812e-22
5.79748e-22
7.75684e-22
1.04947e-21
1.42285e-21
1.90908e-21
2.51251e-21
3.23554e-21
4.08427e-21
5.06756e-21
6.18971e-21
7.4555e-21
8.87572e-21
1.04389e-20
1.20586e-20
1.35812e-20
1.48217e-20
1.57185e-20
1.63198e-20
1.64968e-20
1.59801e-20
1.45515e-20
1.24071e-20
9.61721e-21
7.01774e-21
4.50772e-21
0.023757
0.00568439
1.82479e-05
1.5377e-06
1.50779e-06
5.30804e-06
1.14236e-18
0.104858
0.91878
1
1
0.710294
0.0257663
3.47162e-15
1.17637e-11
2.356e-11
1.24606e-11
1.03275e-12
1.71878e-15
4.82474e-18
1.92088e-18
1.51245e-18
9.85818e-19
3.5615e-19
1.99489e-20
1.22718e-23
4.36065e-24
7.7405e-24
1.3187e-23
2.08667e-23
3.07738e-23
4.28294e-23
5.72618e-23
7.49419e-23
9.75253e-23
1.27592e-22
1.68928e-22
2.26478e-22
3.05093e-22
4.07674e-22
5.34927e-22
6.86871e-22
8.64345e-22
1.06875e-21
1.29996e-21
1.557e-21
1.84024e-21
2.14635e-21
2.45614e-21
2.73638e-21
2.94519e-21
3.06764e-21
3.1183e-21
3.08185e-21
2.91541e-21
2.57782e-21
2.12855e-21
1.60214e-21
1.13403e-21
7.1649e-22
0.0552313
0.0021107
0.000306161
1.44921e-05
1.55017e-06
4.56216e-06
1.19129e-18
0.591199
1
1
1
0.439398
0.000806359
3.47337e-15
1.64796e-11
2.35781e-11
9.88112e-12
4.16559e-13
1.19586e-17
1.18547e-17
5.92764e-18
5.04307e-18
3.4087e-18
1.29866e-18
7.56512e-20
5.00045e-23
1.26044e-24
1.55163e-24
2.66275e-24
4.27677e-24
6.38794e-24
8.96439e-24
1.20161e-23
1.56771e-23
2.02448e-23
2.62035e-23
3.42749e-23
4.54351e-23
6.06661e-23
8.05404e-23
1.05137e-22
1.3434e-22
1.6819e-22
2.06844e-22
2.50055e-22
2.97247e-22
3.48062e-22
4.01715e-22
4.54434e-22
4.99964e-22
5.30054e-22
5.41603e-22
5.38431e-22
5.19715e-22
4.80116e-22
4.12673e-22
3.30204e-22
2.41538e-22
1.65822e-22
1.02665e-22
0.0552313
3.53517e-05
0.000334573
0.000201604
1.57035e-06
1.59397e-06
0.0115009
0.871606
1
1
1
0.216382
3.35813e-15
2.98416e-12
2.1235e-11
2.27838e-11
8.17602e-12
2.09617e-13
1.03205e-16
2.93059e-17
1.72338e-17
1.52828e-17
1.08646e-17
4.36299e-18
2.68205e-19
2.84619e-22
1.67126e-24
3.32066e-25
5.05775e-25
8.21039e-25
1.2411e-24
1.75559e-24
2.35908e-24
3.06767e-24
3.92942e-24
5.02729e-24
6.48804e-24
8.4874e-24
1.12074e-23
1.47502e-23
1.9116e-23
2.42591e-23
3.01597e-23
3.68215e-23
4.41621e-23
5.20109e-23
6.0226e-23
6.86431e-23
7.66116e-23
8.30928e-23
8.66799e-23
8.68093e-23
8.43274e-23
7.94105e-23
7.16171e-23
5.98685e-23
4.64386e-23
3.30186e-23
2.1973e-23
1.32855e-23
0.0531617
2.93061e-17
0.00012904
0.000175693
1.97636e-05
1.62048e-06
0.500115
1
1
1
0.877909
0.0679634
3.3634e-15
6.30664e-12
2.40863e-11
2.23866e-11
7.4824e-12
1.97349e-13
2.19867e-16
6.68299e-17
4.5734e-17
4.118e-17
3.11942e-17
1.3287e-17
8.92078e-19
1.92382e-21
5.06082e-24
1.91244e-25
9.56095e-26
1.48063e-25
2.26008e-25
3.2213e-25
4.33857e-25
5.62187e-25
7.13972e-25
9.02233e-25
1.1475e-24
1.47884e-24
1.92723e-24
2.50921e-24
3.22205e-24
4.05331e-24
4.99491e-24
6.04306e-24
7.1783e-24
8.36237e-24
9.55985e-24
1.07409e-23
1.18041e-23
1.25994e-23
1.2918e-23
1.26736e-23
1.20199e-23
1.10316e-23
9.70648e-24
7.89175e-24
5.93381e-24
4.10034e-24
2.64274e-24
1.55588e-24
0.0258797
2.92553e-17
3.07323e-17
3.44668e-05
2.0127e-05
0.0284611
0.86403
1
1
1
0.465463
3.35737e-15
5.27536e-13
1.09478e-11
2.59004e-11
2.18892e-11
9.47224e-12
1.68665e-12
3.84105e-14
1.24987e-16
1.2106e-16
9.88807e-17
7.60478e-17
3.61186e-17
2.7981e-18
1.40602e-20
1.54781e-23
4.14531e-25
3.21618e-26
2.57417e-26
3.86523e-26
5.54475e-26
7.48329e-26
9.6608e-26
1.21593e-25
1.51661e-25
1.89881e-25
2.40699e-25
3.08993e-25
3.97217e-25
5.04429e-25
6.27917e-25
7.65639e-25
9.16359e-25
1.07629e-24
1.23844e-24
1.39571e-24
1.54345e-24
1.66735e-24
1.74835e-24
1.75939e-24
1.69003e-24
1.56413e-24
1.39783e-24
1.1989e-24
9.47752e-25
6.90408e-25
4.63369e-25
2.88924e-25
1.65236e-25
0.0249259
2.92554e-17
3.30556e-06
2.49517e-05
2.0492e-05
0.576679
1
1
1
1
0.200573
3.35412e-15
2.02228e-12
1.45328e-11
2.63435e-11
2.17244e-11
1.74264e-11
8.07587e-12
1.16687e-12
1.87902e-14
4.85158e-16
2.72882e-16
1.50073e-16
9.36707e-17
8.30911e-18
9.99713e-20
4.37448e-23
1.07278e-24
4.62793e-26
5.9056e-27
6.28485e-27
8.97071e-27
1.21237e-26
1.55885e-26
1.94369e-26
2.39125e-26
2.94431e-26
3.66626e-26
4.62814e-26
5.86345e-26
7.34996e-26
9.03796e-26
1.08861e-25
1.28675e-25
1.49203e-25
1.69339e-25
1.8791e-25
2.04245e-25
2.16552e-25
2.22716e-25
2.19624e-25
2.06364e-25
1.86326e-25
1.62006e-25
1.35337e-25
1.03962e-25
7.33184e-26
4.77522e-26
2.87641e-26
1.5946e-26
0.0188226
2.92543e-17
2.30107e-05
2.32117e-05
0.185645
0.920468
1
1
1
0.755089
0.0446517
3.35716e-15
4.09704e-12
1.84869e-11
2.63591e-11
2.22306e-11
2.38639e-11
1.83471e-11
8.43634e-12
1.06654e-12
1.11876e-13
5.88877e-14
2.07994e-14
3.3489e-16
2.38712e-17
6.40467e-19
1.12843e-22
2.56679e-24
1.00902e-25
4.99709e-27
1.12099e-27
1.3708e-27
1.84643e-27
2.36374e-27
2.91891e-27
3.54016e-27
4.28321e-27
5.23244e-27
6.48506e-27
8.08278e-27
9.9846e-27
1.21096e-26
1.43858e-26
1.67678e-26
1.91653e-26
2.14245e-26
2.33813e-26
2.49534e-26
2.59338e-26
2.61253e-26
2.52098e-26
2.31329e-26
2.03636e-26
1.72175e-26
1.39989e-26
1.04428e-26
7.12305e-27
4.49772e-27
2.61319e-27
1.40171e-27
0.00180209
2.92465e-17
2.95178e-17
0.042585
0.803552
1
1
1
1
0.312876
3.64517e-15
5.16711e-13
6.97174e-12
2.09496e-11
2.60772e-11
2.39031e-11
2.65714e-11
2.49747e-11
2.1262e-11
1.01394e-11
2.99324e-12
1.91722e-12
9.99132e-13
6.00567e-14
7.73861e-17
3.48106e-18
2.63238e-22
5.5432e-24
2.04323e-25
8.92305e-27
5.04729e-28
2.10044e-28
2.65276e-28
3.37382e-28
4.12403e-28
4.92823e-28
5.85395e-28
7.00794e-28
8.51499e-28
1.04233e-27
1.26689e-27
1.5132e-27
1.77024e-27
2.03166e-27
2.28575e-27
2.51344e-27
2.69478e-27
2.82133e-27
2.87149e-27
2.83055e-27
2.66981e-27
2.3889e-27
2.04699e-27
1.68161e-27
1.33006e-27
9.62955e-28
6.34659e-28
3.8814e-28
2.1714e-28
1.12518e-28
2.88418e-17
2.96536e-17
0.00807067
0.67529
1
1
1
1
0.878191
0.0948602
3.64601e-15
1.19648e-12
8.84807e-12
2.228e-11
2.49515e-11
2.45193e-11
2.65468e-11
2.54697e-11
2.67642e-11
2.7454e-11
1.80651e-11
1.38206e-11
9.52319e-12
1.45429e-12
4.34697e-16
1.50086e-17
5.50704e-22
1.07438e-23
3.651e-25
1.54366e-26
6.68971e-28
5.24395e-29
3.67787e-29
4.541e-29
5.48936e-29
6.46094e-29
7.53045e-29
8.82631e-29
1.05008e-28
1.26064e-28
1.50528e-28
1.76772e-28
2.03348e-28
2.2944e-28
2.53715e-28
2.74048e-28
2.88271e-28
2.9582e-28
2.94604e-28
2.8389e-28
2.61503e-28
2.27939e-28
1.8981e-28
1.51194e-28
1.16234e-28
8.16383e-29
5.19539e-29
3.07534e-29
1.65396e-29
8.27092e-30
2.7646e-17
0.0373992
0.622835
1
1
1
1
1
0.350241
4.14074e-15
1.91257e-13
2.47114e-12
1.1622e-11
2.31669e-11
2.39026e-11
2.44401e-11
2.30559e-11
1.53351e-11
2.35919e-11
3.44909e-11
4.03231e-11
3.71751e-11
3.11361e-11
8.76338e-12
4.21662e-14
4.57357e-17
1.02299e-21
1.86082e-23
5.71021e-25
2.31411e-26
9.7792e-28
4.2869e-29
6.08315e-30
5.79725e-30
6.87555e-30
7.96749e-30
9.10779e-30
1.0441e-29
1.21467e-29
1.42839e-29
1.67378e-29
1.9309e-29
2.18167e-29
2.41774e-29
2.62501e-29
2.78252e-29
2.86899e-29
2.88365e-29
2.80855e-29
2.64467e-29
2.37811e-29
2.0179e-29
1.63161e-29
1.25741e-29
9.37359e-30
6.38027e-30
3.91762e-30
2.24301e-30
1.15772e-30
5.58135e-31
0.302601
0.754276
1
1
1
1
1
0.824696
0.0868568
4.16799e-15
5.01953e-13
3.42523e-12
1.33535e-11
2.27722e-11
2.26533e-11
2.31869e-11
1.20122e-11
5.40916e-12
1.14189e-11
3.09231e-11
5.02002e-11
5.43794e-11
5.12077e-11
2.10426e-11
5.46651e-13
9.43909e-17
1.67661e-21
2.88715e-23
7.88132e-25
2.99057e-26
1.24618e-27
5.1311e-29
2.556e-30
7.63058e-31
8.16038e-31
9.28702e-31
1.04109e-30
1.16702e-30
1.32663e-30
1.5264e-30
1.75314e-30
1.98426e-30
2.19945e-30
2.39063e-30
2.54516e-30
2.64431e-30
2.66916e-30
2.62443e-30
2.49753e-30
2.29664e-30
2.01484e-30
1.66344e-30
1.30515e-30
9.72105e-31
7.01111e-31
4.61266e-31
2.72842e-31
1.51037e-31
7.47076e-32
3.47277e-32
1
1
1
1
1
1
1
1
1
1
1
1
1
1
1
1
1
1
1
1
1
1
1
1
1
1
1
1
1
1
1
1
1
1
1
1
1
1
1
1
1
1
1
1
1
1
1
1
1
1
1
1
1
1
1
1
1
1
1
1
1
1
1
1
1
1
1
1
1
1
1
1
1
1
1
1
1
1
1
1
1
1
1
1
1
1
1
1
1
1
1
1
1
1
1
1
1
1
1
1
1
1
1
1
1
1
1
1
1
1
1
1
1
1
1
1
1
1
1
1
1
1
1
1
1
1
1
1
1
1
1
1
1
1
1
1
1
1
1
1
1
1
1
1
1
1
1
1
1
1
1
1
1
1
1
1
1
1
1
1
1
1
1
1
1
1
1
1
1
1
1
1
1
1
1
1
1
1
1
1
1
1
1
1
1
1
1
1
1
1
1
1
1
1
1
1
1
1
1
1
1
1
1
1
1
1
1
1
1
1
1
1
1
1
1
1
1
1
1
1
1
1
1
1
1
1
1
0.999087
0.997499
0.997389
0.996992
0.997476
0.997007
0.996725
0.995514
0.992731
0.986626
0.97442
0.951361
0.913125
0.519616
0.570989
0.602913
0.591626
0.560358
0.521628
0.490532
0.472218
0.461467
0.459628
0.454212
0.453976
0.446285
0.435413
0.4136
0.37895
0.329591
0.266496
0.193355
0.112838
3.96975e-18
0.00306121
0.00407758
0.00340909
0.00220892
0.000975147
0.000142409
1.11758e-18
1.04178e-18
1.04082e-18
1.03986e-18
1.0389e-18
1.03794e-18
1.03698e-18
1.03602e-18
1.03506e-18
1.0341e-18
1.03314e-18
1.03217e-18
1.03121e-18
7.98311e-18
4.28975e-18
4.28966e-18
4.28956e-18
4.28947e-18
4.28938e-18
4.28929e-18
4.2892e-18
4.08731e-18
3.85725e-18
3.64948e-18
3.46472e-18
3.25889e-18
2.99138e-18
2.6495e-18
2.26123e-18
1.86418e-18
1.50713e-18
1.24097e-18
1.11226e-18
5.94527e-18
6.0078e-18
6.08312e-18
5.89374e-18
5.52933e-18
5.04974e-18
4.53296e-18
4.02881e-18
3.55214e-18
3.09537e-18
2.64411e-18
2.19851e-18
1.7768e-18
1.3983e-18
1.07303e-18
8.04056e-19
5.90408e-19
4.30012e-19
3.20495e-19
2.55496e-19
3.71798e-18
3.26676e-18
3.04621e-18
2.73606e-18
2.42996e-18
2.13072e-18
1.84655e-18
1.58414e-18
1.3443e-18
1.12406e-18
9.21029e-19
7.36704e-19
5.74635e-19
4.37482e-19
3.25691e-19
2.37968e-19
1.71955e-19
1.24858e-19
9.33732e-20
7.30209e-20
2.03514e-18
1.62703e-18
1.42399e-18
1.20502e-18
1.02247e-18
8.65892e-19
7.28361e-19
6.07098e-19
5.00327e-19
4.06367e-19
3.24065e-19
2.53138e-19
1.93595e-19
1.45137e-19
1.06959e-19
7.78749e-20
5.65137e-20
4.14574e-20
3.12437e-20
2.43423e-20
9.38453e-19
7.11203e-19
5.98331e-19
4.87509e-19
4.00851e-19
3.29655e-19
2.70222e-19
2.19911e-19
1.77242e-19
1.41108e-19
1.10709e-19
8.55044e-20
6.50446e-20
4.8845e-20
3.63444e-20
2.69351e-20
2.00241e-20
1.50751e-20
1.16004e-20
9.15149e-21
3.56054e-19
2.66578e-19
2.20536e-19
1.7623e-19
1.42242e-19
1.14397e-19
9.1843e-20
7.33775e-20
5.82619e-20
4.58982e-20
3.58292e-20
2.7709e-20
2.12522e-20
1.62016e-20
1.23098e-20
9.34476e-21
7.11025e-21
5.45603e-21
4.25858e-21
3.39927e-21
1.08396e-19
8.5218e-20
7.00025e-20
5.57853e-20
4.43631e-20
3.50224e-20
2.76759e-20
2.18539e-20
1.72461e-20
1.35841e-20
1.0668e-20
8.35086e-21
6.51841e-21
5.07816e-21
3.9484e-21
3.05921e-21
2.36067e-21
1.82564e-21
1.43322e-21
1.15181e-21
2.50343e-20
2.28035e-20
1.8578e-20
1.48643e-20
1.16159e-20
9.02741e-21
7.05599e-21
5.54518e-21
4.38701e-21
3.48625e-21
2.7772e-21
2.2147e-21
1.76552e-21
1.40545e-21
1.11341e-21
8.72675e-22
6.74585e-22
5.19484e-22
4.06545e-22
3.26578e-22
3.88695e-21
4.71372e-21
3.71082e-21
3.01733e-21
2.29335e-21
1.76301e-21
1.36825e-21
1.07742e-21
8.60622e-22
6.94184e-22
5.63201e-22
4.58102e-22
3.72173e-22
3.01148e-22
2.40941e-22
1.88674e-22
1.44132e-22
1.09328e-22
8.47684e-23
6.78985e-23
3.00617e-22
5.83073e-22
4.09891e-22
3.48599e-22
2.53678e-22
1.95192e-22
1.50853e-22
1.20004e-22
9.72142e-23
7.97959e-23
6.59165e-23
5.44987e-23
4.4813e-23
3.6497e-23
2.90854e-23
2.24101e-23
1.67437e-23
1.25731e-23
9.76397e-24
7.83614e-24