/*--------------------------------*- C++ -*----------------------------------*\
| =========                 |                                                 |
| \\      /  F ield         | OpenFOAM: The Open Source CFD Toolbox           |
|  \\    /   O peration     | Version:  v1606+                                |
|   \\  /    A nd           | Web:      www.OpenFOAM.com                      |
|    \\/     M anipulation  |                                                 |
\*---------------------------------------------------------------------------*/
FoamFile
{
    version     2.0;
    format      ascii;
    class       volScalarField;
    location    "14";
    object      p_rgh;
}
// * * * * * * * * * * * * * * * * * * * * * * * * * * * * * * * * * * * * * //

dimensions      [1 -1 -2 0 0 0 0];

internalField   nonuniform List<scalar> 
5080
(
429701
429717
429751
429805
429876
429963
430060
430169
430286
430407
430533
430658
430779
430894
430999
431094
431173
431231
431264
431278
429588
429610
429648
429705
429777
429864
429963
430073
430192
430317
430445
430574
430695
430811
430917
431005
431075
431129
431165
431187
429409
429428
429465
429521
429593
429679
429776
429884
429999
430119
430240
430360
430477
430588
430691
430789
430876
430960
431033
431129
429144
429163
429200
429255
429327
429412
429509
429616
429731
429850
429971
430090
430203
430307
430402
430481
430548
430606
430663
430747
428812
428831
428867
428921
428993
429077
429174
429282
429398
429520
429644
429770
429894
430012
430122
430221
430282
430347
430325
430388
428419
428438
428473
428527
428598
428681
428777
428884
428999
429119
429241
429362
429476
429579
429672
429745
429799
429825
429842
429874
427975
427993
428028
428080
428149
428231
428324
428428
428540
428657
428776
428894
429007
429116
429212
429303
429356
429429
429429
429511
427487
427504
427538
427588
427654
427732
427822
427922
428030
428143
428261
428377
428493
428598
428701
428774
428835
428816
428884
428831
426964
426980
427011
427059
427121
427194
427278
427373
427474
427582
427690
427801
427902
428002
428081
428163
428200
428302
428249
428411
426413
426428
426456
426500
426557
426624
426701
426785
426878
426973
427072
427166
427258
427342
427429
427490
427565
427533
427667
427533
425843
425856
425881
425920
425970
426029
426095
426169
426248
426329
426410
426489
426559
426630
426677
426742
426749
426875
426806
427131
425261
425272
425294
425326
425368
425416
425471
425531
425594
425656
425718
425771
425822
425858
425904
425920
425981
425902
426074
425878
424674
424684
424700
424726
424759
424795
424836
424880
424921
424963
424994
425022
425029
425037
425011
425014
424927
425029
424837
425277
424091
424097
424109
424127
424149
424172
424198
424220
424240
424250
424253
424235
424205
424148
424095
424008
423988
423767
423946
423474
423515
423519
423525
423535
423546
423555
423562
423563
423554
423532
423490
423430
423325
423210
423042
422881
422604
422565
422092
422693
422954
422955
422955
422957
422955
422950
422936
422914
422872
422811
422725
422593
422425
422188
421921
421603
421327
420843
420884
419915
422412
422410
422405
422397
422385
422361
422329
422278
422207
422099
421961
421758
421478
421135
420684
420169
419500
418956
417872
418528
421893
421888
421877
421861
421836
421798
421740
421670
421556
421417
421208
420935
420545
420027
419379
418578
417603
416436
415896
413292
421400
421393
421376
421351
421315
421260
421186
421085
420946
420752
420505
420134
419628
418946
418007
416833
415342
413272
410697
409168
420936
420926
420904
420871
420825
420754
420663
420536
420375
420139
419835
419397
418781
417873
416782
414959
413193
409437
407474
394623
113992
72052.3
64022.3
56846.6
55355.8
53056.1
49205.3
46126.5
45848.4
46443.2
61470
126665
257514
345821
331558
268662
193150
127189
80534.5
53059.4
38550.7
31077.9
27302.2
25449.3
24602.5
24273.5
24194
24215.8
24266.7
24324.6
24385.8
24443.2
24489.8
24522.2
24538.1
24533.2
24510.2
24464.2
24396.3
24318.6
24254.6
24211.5
24186.8
24167.1
24148.3
24123.6
24090.6
24053.3
23994.6
23948.2
23919.1
23925.5
23969.7
24020.1
24123.1
24256
24394.9
24543
24615.3
24639.4
97142.7
60023.2
57537.3
54462.2
53239.1
50898.7
46179.1
41557.1
39821.4
37714
37009.2
64409.5
165436
262937
274915
232300
171206
114538
73879.6
49509.9
36503.7
30136.3
26919.5
25289.3
24544.9
24258.2
24183
24191.7
24224.2
24261.1
24303.2
24345.3
24374.8
24387.7
24392.9
24386.3
24369.9
24331.3
24269.3
24196
24143.8
24114.3
24098.9
24081.4
24060.8
24033.3
24000.5
23974.8
23925
23900.5
23883.3
23906.8
23962.5
24013.6
24118.5
24226.7
24384.9
24546.4
24637.7
24665.4
83443.5
54010.8
54217.4
52346.8
50571.6
49213.8
45454.1
41134.7
39601.8
39124.8
39333
49563.2
118390
207807
227984
199175
149855
101006
65899
45278
34625.8
29503.1
26673.7
25292.9
24709
24490.7
24422.6
24411.9
24416.2
24422.9
24438.4
24462.7
24481.5
24487.8
24480.8
24447.7
24402.9
24343.5
24269.6
24183.1
24115.3
24076.6
24055.4
24033
24007.5
23975.2
23942.8
23920.2
23878.9
23857.4
23854.1
23893.9
23952.7
24014.1
24114.1
24234.5
24393.9
24559.9
24661.5
24694.9
80255.4
52622
52854.3
52498.5
51307.6
48305.8
43598.5
41036.6
40232.4
39757.5
39586.8
44852.2
99590.8
183926
197474
173140
129825
84837.8
53542.3
36852.7
29126.7
25967.3
24897.5
24417.2
24287.4
24316.7
24372.7
24416.5
24436.4
24437.6
24437.9
24439.8
24427.7
24427.5
24418.5
24405.2
24373.2
24318.7
24236.4
24134.8
24059.1
24029.2
24015.3
23999.3
23977.9
23950.3
23924.7
23901.6
23852.1
23803.7
23806.9
23851.2
23918.3
23987.8
24080
24213.1
24416.8
24600.1
24685.3
24723.4
85488.7
54191.2
53683.6
58674.4
61692.3
56087.8
48573.3
42190.2
40088.7
39768.2
38799.4
43365.1
93230.1
169971
176134
152512
110781
65932.2
37505.7
25237.1
21343.1
20262.1
19746.3
19488.9
19492.7
19664.1
19770
19766.9
19582.5
19272.9
19069.2
19025.2
19002.7
18959.3
18889.9
18788.6
18626.1
18314.4
17733.2
16937.7
16365.4
16242.2
16226.7
16181.3
16051.7
15865
15720.5
15535.9
15072.2
14453.7
14355.7
14451.5
14638.6
14816.3
15063.5
15729.6
17066.7
18150.5
18274
18108.9
83835.6
57705.9
62122.2
69407.2
64803.2
59204.7
56015.8
50298.3
40280.9
39683.8
38063.4
41518.9
85302.6
156067
158040
134868
91475
41651.9
14274.8
4964.05
185.003
54.0372
40.3503
29.1021
21.5471
19.3911
26.506
27.0552
21.0237
11.9096
11.0489
10.3512
9.68042
8.77561
7.72657
6.6048
5.47204
4.41188
3.57869
2.96339
2.22211
1.15567
0.0802272
-0.924666
-1.73768
-2.39699
-3.04537
-3.54256
-3.69338
-3.48614
-3.65825
-3.85583
1.3133
25.0246
76.6139
164.969
313.103
547.162
818.369
918.731
93595.1
76105.4
75383.9
71390
67173.2
61977.8
58715.9
58929.5
42396.7
39193.8
37325.9
40508.3
79136.8
142317
141616
117975
65221.9
9287.09
20.5176
91.5509
78.6949
77.3245
60.2238
47.6767
38.5026
31.7682
27.1536
24.2212
22.2663
20.6293
18.9096
17.408
16.0634
14.7681
13.4693
12.1476
10.8121
9.49654
8.25446
7.12345
6.0697
5.02108
3.98938
2.9757
1.98609
1.02611
0.0907035
-0.789607
-1.59492
-2.3146
-3.18167
-4.46388
-6.65116
-9.14262
-10.7118
-11.1994
-11.1746
-11.0155
-10.5151
-9.22364
113919
93944.8
84988.4
78026.7
72343.3
67334
63969.7
65543.4
45591.6
37464.3
36420.7
39225
78752.7
129767
126330
99359.4
28288.5
724.125
137.744
166.369
111.613
71.4956
52.6323
40.8148
31.976
25.5031
21.5954
19.2761
17.8488
16.7159
15.8074
14.8887
14.0694
13.0558
11.915
10.6969
9.44105
8.19757
7.02793
5.95478
4.92618
3.88782
2.86225
1.87027
0.933036
0.0487049
-0.802532
-1.59214
-2.28659
-2.91353
-3.66046
-4.75286
-6.25185
-7.82021
-8.95135
-9.56702
-9.82783
-9.73471
-9.36454
-8.77858
124563
110323
96518.6
85501.1
78024.5
73230.5
71397.2
73371.7
48808.6
34637.2
35299.2
37324.2
80516.2
118614
112173
77314
8647.61
396.467
114.379
133.69
98.163
64.2879
47.7302
38.0519
31.1097
26.3721
22.9842
20.739
19.242
18.0662
16.9975
15.9236
14.6857
13.4561
12.1907
10.8836
9.55915
8.25711
7.02675
5.8865
4.80304
3.73868
2.70004
1.69876
0.750412
-0.144185
-0.99701
-1.78764
-2.49662
-3.15593
-3.89738
-4.86424
-6.11585
-7.46759
-8.5696
-9.28446
-9.66269
-9.69549
-9.46368
-8.90817
127789
120450
105705
91873
83027.9
78908.9
80323.1
82715.2
43239.6
30101.8
33984.6
34603.1
82919.9
109483
99926.6
48490.8
1977.48
151.731
98.6789
103.262
79.1058
55.2696
42.1975
34.4268
28.875
24.9088
22.2184
20.4151
19.147
18.1026
17.0957
16.0674
14.9401
13.7489
12.4785
11.1512
9.79828
8.45982
7.18001
5.98038
4.84731
3.7572
2.70664
1.69884
0.742071
-0.16267
-1.02218
-1.82521
-2.565
-3.26983
-4.03269
-4.96478
-6.12126
-7.35892
-8.40741
-9.12592
-9.51671
-9.57579
-9.38411
-8.85997
123617
121725
109803
95519
86186.7
82878.5
86808
74978.2
25083.7
19129.4
32093.7
29238.4
80563.3
100092
90164.9
29715.7
423.748
90.1283
91.6408
81.2929
61.4586
45.021
35.3489
29.4945
25.44
22.6292
20.7587
19.5059
18.5943
17.7988
16.975
16.0695
15.0389
13.8891
12.6338
11.3033
9.93428
8.57012
7.25382
6.00982
4.83682
3.72159
2.65807
1.64504
0.685393
-0.221467
-1.08075
-1.8879
-2.64368
-3.37376
-4.14846
-5.05358
-6.121
-7.23836
-8.2045
-8.893
-9.27785
-9.34909
-9.1891
-8.71638
116481
117716
109374
95788.7
86284.3
83308.2
76883.2
31253.7
9566.05
12900.7
26575.5
33086.7
79953.5
92631.4
83592.2
18641.3
263.903
84.6812
74.8065
61.7137
46.4308
35.0103
28.0962
24.0074
21.4577
19.8091
18.8109
18.1843
17.7166
17.2437
16.6585
15.912
14.9868
13.8979
12.6747
11.3545
9.98045
8.59926
7.25531
5.97735
4.77243
3.63427
2.55761
1.5401
0.581127
-0.322497
-1.17629
-1.98004
-2.73904
-3.47738
-4.24939
-5.11704
-6.09567
-7.10022
-7.98186
-8.63056
-9.00565
-9.08925
-8.95675
-8.52618
110036
112084
106073
92774
82997.9
76301.6
33193.5
6727.27
8045.93
9486.79
14363.9
36953.4
89308.3
90991.4
79316
10805.4
167.867
73.8728
57.3384
45.6886
34.6257
26.4608
21.4743
18.7381
17.3145
16.7346
16.5504
16.5483
16.5545
16.4394
16.123
15.5697
14.7801
13.7794
12.6084
11.3142
9.94752
8.55952
7.1976
5.89527
4.66605
3.50927
2.4221
1.40234
0.446932
-0.449642
-1.29368
-2.08814
-2.8414
-3.57604
-4.3341
-5.15907
-6.05687
-6.96241
-7.76354
-8.36626
-8.72482
-8.8151
-8.70064
-8.29794
106496
107033
101842
88326
71233.7
26493.9
6328.38
6512.62
7389.04
8114.45
8397.06
43753.8
97954.5
92709.6
67731.2
5184.61
86.1663
59.1673
43.5401
33.6599
25.6438
19.6516
15.9704
14.174
13.5976
13.7486
14.22
14.7658
15.2132
15.4491
15.4066
15.0625
14.4265
13.5325
12.4308
11.1769
9.82941
8.44554
7.07649
5.75993
4.51479
3.34581
2.2531
1.23483
0.286368
-0.599193
-1.42885
-2.20819
-2.94788
-3.66887
-4.40377
-5.1827
-6.00593
-6.8227
-7.54713
-8.10015
-8.43618
-8.52699
-8.42313
-8.03828
101007
97975.9
98044.1
65700.7
12934.8
5839.05
6052.39
6350.56
6988.73
7583.5
6625.59
53863.6
101382
95229.9
57382.7
2010.38
27.0648
41.272
32.7386
24.7009
18.7655
14.3577
11.6391
10.4845
10.4552
11.0975
12.0429
13.011
13.8207
14.3613
14.5691
14.4253
13.943
13.1629
12.1403
10.9376
9.62057
8.25218
6.88741
5.56739
4.3158
3.14257
2.0508
1.039
0.101811
-0.768097
-1.57831
-2.33663
-3.05533
-3.75363
-4.45697
-5.18617
-5.93843
-6.67384
-7.32593
-7.82874
-8.13934
-8.22722
-8.13
-7.7577
100238
94069.4
90792.9
30302.8
6088.98
5692.15
5939.74
6187.8
6681.29
7338.74
6307.92
65227.7
102598
98043.6
47105.2
483.272
5.18288
25.2104
23.7004
17.9418
13.5047
10.291
8.33976
7.65583
7.97565
8.92837
10.1643
11.411
12.4793
13.2518
13.6624
13.6904
13.3487
12.6789
11.7391
10.5959
9.32008
7.97906
6.63073
5.31891
4.07143
2.90304
1.81962
0.820256
-0.100381
-0.949475
-1.7351
-2.46676
-3.15762
-3.82522
-4.48982
-5.1661
-5.85013
-6.51051
-7.09534
-7.54992
-7.83509
-7.91941
-7.82841
-7.46859
114836
105299
93378.2
26557.5
5937.07
5675.69
5818.19
6010.58
6415.31
7225.33
6112.94
78282
104041
101374
36787.6
54.3925
8.33928
15.3162
16.4834
12.8014
9.51904
7.20901
5.88282
5.57096
6.12259
7.24959
8.63867
10.0323
11.2494
12.1684
12.7206
12.8803
12.6571
12.0889
11.2323
10.1554
8.93155
7.63029
6.31135
5.02047
3.7889
2.63541
1.5684
0.588054
-0.310247
-1.13324
-1.88939
-2.5893
-3.2465
-3.87705
-4.49761
-5.11913
-5.73777
-6.32904
-6.85228
-7.26238
-7.52426
-7.60646
-7.52344
-7.17947
119908
111818
99199
15738.5
5080.27
5483.68
5642.78
5788.1
6093.79
7252.3
5924.04
92248.7
106516
105488
26133
49.9188
16.9437
10.6285
10.9981
8.82642
6.49912
4.89697
4.08188
4.07562
4.78969
6.00309
7.44432
8.87823
10.1425
11.1245
11.7557
12.0055
11.8769
11.4
10.6267
9.62364
8.46302
7.21457
5.93875
4.68249
3.47959
2.35174
1.30964
0.355122
-0.515074
-1.30705
-2.02951
-2.69364
-3.31293
-3.90218
-4.47567
-5.04221
-5.59881
-6.12673
-6.59429
-6.9646
-7.20668
-7.28967
-7.21852
-6.89704
124135
116658
56041.1
4951.09
4888.19
5241.84
5433.61
5544.4
5619.66
6859.55
24003.9
103758
110399
109914
15660.2
37.1025
21.0482
8.04364
6.88842
5.66893
4.17005
3.15687
2.76552
3.014
3.84667
5.09256
6.51188
7.90053
9.1265
10.1003
10.7571
11.0623
11.0091
10.6165
9.92998
9.01072
7.9266
6.74539
5.52721
4.31972
3.15849
2.06717
1.05851
0.136516
-0.700288
-1.45723
-2.14302
-2.76894
-3.34806
-3.89413
-4.41981
-4.93285
-5.43155
-5.90209
-6.32012
-6.65577
-6.88215
-6.96943
-6.91514
-6.624
127363
109901
6368.16
4798.7
4903.93
5104.16
5267.05
5359.35
5339.11
5025.88
45313.4
114353
116144
97922.7
7615.46
5.55863
18.8774
5.65593
3.62529
3.08746
2.31439
1.81444
1.7815
2.24548
3.17166
4.41812
5.75857
7.02803
8.14851
9.05935
9.70217
10.0384
10.0492
9.74133
9.15055
8.32896
7.33738
6.23974
5.09479
3.95043
2.84341
1.79892
0.831792
-0.0515258
-0.850623
-1.56993
-2.21777
-2.80499
-3.34394
-3.84737
-4.32685
-4.78966
-5.23559
-5.65503
-6.02967
-6.33563
-6.55021
-6.64486
-6.61247
-6.35912
130574
49554.1
4786.96
4803.52
4877.58
5017.68
5156.07
5256.06
5369.38
4873.45
70203
122816
122858
83223.7
2773.45
-23.4176
8.97207
2.63018
0.974238
0.953136
0.788296
0.734252
1.0014
1.64501
2.66494
3.89981
5.08693
6.19536
7.18688
8.00645
8.60741
8.95222
9.01453
8.79158
8.30551
7.59547
6.713
5.71614
4.66063
3.59386
2.55304
1.56488
0.646564
-0.192944
-0.951407
-1.63218
-2.24269
-2.79279
-3.29381
-3.75754
-4.19471
-4.61239
-5.01176
-5.38672
-5.72386
-6.00446
-6.21025
-6.31389
-6.30743
-6.09776
130863
6075.52
4660.71
4770.65
4830.41
4936.88
5059.46
5170.04
5453
4796.73
97161.7
129461
129970
65677.8
498.428
-25.1212
-2.83721
-0.656843
-1.03166
-0.757306
-0.483562
-0.177116
0.323736
1.10942
2.19824
3.3108
4.37292
5.3783
6.28837
7.04574
7.59132
7.91723
8.00056
7.83905
7.44677
6.84703
6.08046
5.19614
4.24349
3.26726
2.30386
1.38097
0.518063
-0.273519
-0.989759
-1.63259
-2.20797
-2.72435
-3.1918
-3.62107
-4.02204
-4.40155
-4.76173
-5.09924
-5.40446
-5.66297
-5.86123
-5.97274
-5.99391
-5.83249
133935
4690.95
4723.35
4734.62
4773.79
4851.82
4952.26
5062.98
5575.21
4673.33
121664
136222
137406
47144.8
-5.92816
-11.2181
-7.44584
-3.25363
-2.5553
-2.08286
-1.54471
-0.982306
-0.319342
0.58489
1.66927
2.68542
3.66947
4.59822
5.42513
6.11511
6.64639
6.98486
7.10129
6.98153
6.66079
6.15277
5.49016
4.71444
3.86711
2.9875
2.10885
1.25818
0.456143
-0.284235
-0.957359
-1.56347
-2.10661
-2.5937
-3.03342
-3.43531
-3.80818
-4.15822
-4.4879
-4.7956
-5.07425
-5.31266
-5.50191
-5.61587
-5.66178
-5.55347
138736
7656.28
4734.56
4704.56
4714.81
4763.61
4831.85
4895.53
5432.87
42537.8
139761
143581
145228
28877.6
-0.258793
1.29216
-7.17898
-4.95428
-3.79974
-3.14783
-2.44719
-1.72749
-0.949079
0.088194
1.10606
2.06667
2.9877
3.84771
4.62341
5.28238
5.78398
6.10526
6.23717
6.19178
5.9585
5.55087
4.98481
4.30827
3.56165
2.77468
1.97887
1.20064
0.46069
-0.227519
-0.85759
-1.42839
-1.94211
-2.40437
-2.82255
-3.20479
-3.55847
-3.88853
-4.19696
-4.4826
-4.7397
-4.95904
-5.13507
-5.24191
-5.3024
-5.24497
124998
9993.09
4617.94
4632.33
4645.03
4679.91
4727.48
4833.43
4338.25
85732.6
151462
151648
143325
13817.2
-15.2738
4.90232
-6.76311
-6.20705
-4.91124
-4.05693
-3.23804
-2.42429
-1.5108
-0.41716
0.544494
1.46942
2.34423
3.15483
3.87902
4.4934
4.97699
5.31126
5.47923
5.4634
5.282
4.95041
4.49569
3.93611
3.301
2.6153
1.90525
1.19904
0.519576
-0.1187
-0.708662
-1.24786
-1.73712
-2.18048
-2.58397
-2.95418
-3.29654
-3.61435
-3.90859
-4.17779
-4.41672
-4.61777
-4.77778
-4.86787
-4.92838
-4.84044
28701.6
9761.44
4407.8
4540.78
4560.98
4599.2
4656.04
4969.97
4297.38
123747
159653
160078
111115
3743.12
-34.862
-1.88748
-7.43973
-7.23423
-5.87406
-4.84863
-3.93711
-3.06319
-1.98755
-0.940591
0.00629404
0.899966
1.73604
2.50431
3.19001
3.77616
4.24259
4.5713
4.75287
4.7855
4.67057
4.41719
4.03795
3.5607
3.01101
2.41498
1.79472
1.17074
0.560936
-0.0219329
-0.569549
-1.07713
-1.5433
-1.97015
-2.36184
-2.72278
-3.0562
-3.36376
-3.64554
-3.89985
-4.12223
-4.30678
-4.45183
-4.53168
-4.58381
-4.50851
5934.18
6072.31
4288.96
4421.06
4449.33
4500.44
4557.55
4881.72
14197.2
153999
167650
168574
80735.9
453.256
-27.5516
-10.899
-8.55949
-7.80806
-6.59805
-5.51288
-4.55084
-3.60129
-2.43477
-1.43929
-0.505421
0.361867
1.16523
1.89887
2.55204
3.1115
3.56307
3.89441
4.09462
4.15848
4.08943
3.89755
3.59664
3.20369
2.73747
2.22029
1.67317
1.11574
0.564224
0.0308001
-0.476078
-0.951015
-1.39179
-1.79926
-2.17591
-2.52418
-2.84559
-3.14075
-3.40922
-3.64933
-3.85741
-4.02923
-4.16403
-4.24197
-4.29593
-4.26106
7949.83
8630.65
4199.9
4315.75
4338.58
4401.87
4501.98
4281.14
85750
175703
176243
177231
50316.8
-12.1535
-11.3729
-12.2611
-9.31369
-8.11049
-7.07746
-6.03494
-5.07066
-4.0052
-2.87304
-1.89495
-0.982941
-0.140996
0.632902
1.33643
1.96261
2.50097
2.94016
3.27022
3.48322
3.57678
3.55233
3.41584
3.17794
2.85317
2.45869
2.01354
1.53599
1.04265
0.547601
0.0620355
-0.405308
-0.848218
-1.26353
-1.65081
-2.01088
-2.34456
-2.6522
-2.93376
-3.18864
-3.41521
-3.61055
-3.77136
-3.89852
-3.97534
-4.03187
-4.01918
5431.36
8147.42
4021.79
4169.13
4240.06
4313.56
4608.18
4011.23
140350
184937
185026
185824
22699.9
-18.0239
-2.38248
-11.0048
-9.72246
-8.39145
-7.40876
-6.42822
-5.48162
-4.32068
-3.26753
-2.30734
-1.42198
-0.606436
0.140185
0.817266
1.41961
1.93922
2.36771
2.69745
2.92217
3.0396
3.05095
2.96116
2.77891
2.51568
2.18554
1.80455
1.38891
0.953393
0.51048
0.070601
-0.357645
-0.767868
-1.15638
-1.52164
-1.86303
-2.18009
-2.47239
-2.73957
-2.98084
-3.19459
-3.37839
-3.52949
-3.65017
-3.72596
-3.7837
-3.78453
8850.82
4986.43
3892.19
4037.74
4130.94
4212.89
4516.17
24101.4
178361
193529
194017
138594
5022.42
-35.2063
-6.27145
-10.6226
-9.94093
-8.60379
-7.61795
-6.70114
-5.74781
-4.58458
-3.60063
-2.67291
-1.81805
-1.031
-0.311058
0.341158
0.921474
1.42426
1.84309
2.17181
2.40591
2.5438
2.58619
2.53665
2.402
2.19176
1.91788
1.59416
1.23468
0.85228
0.458018
0.0616389
-0.328542
-0.706227
-1.06739
-1.40953
-1.73083
-2.02991
-2.3059
-2.55822
-2.7859
-2.98728
-3.16031
-3.30258
-3.41743
-3.4917
-3.54941
-3.55815
15302
4180.58
3869.8
3927.81
4020.26
4183.92
3851.85
122786
202609
202591
203039
89927.9
145.782
-23.3131
-13.1187
-10.6882
-9.70287
-8.60434
-7.68059
-6.8503
-5.86985
-4.81121
-3.87098
-2.9875
-2.16823
-1.41215
-0.719622
-0.0919889
0.467253
0.954131
1.36366
1.69098
1.93268
2.08736
2.15559
2.14034
2.04701
1.8832
1.65892
1.3861
1.07702
0.742909
0.393712
0.0384961
-0.314947
-0.660661
-0.994371
-1.31276
-1.61309
-1.89339
-2.15254
-2.38975
-2.60387
-2.79319
-2.95591
-3.08991
-3.1992
-3.27135
-3.3281
-3.34128
15577.2
3643.98
3785.6
3859.13
3928.56
4189.82
5981.67
185482
211651
211739
212094
46243.4
-14.8998
-7.56658
-11.6249
-10.2563
-9.23228
-8.40783
-7.62608
-6.88592
-5.90217
-4.97017
-4.08388
-3.24996
-2.47105
-1.7487
-1.08533
-0.482798
0.0558833
0.527412
0.927599
1.25259
1.49977
1.66804
1.75797
1.77204
1.71427
1.59075
1.40998
1.18233
0.918463
0.628254
0.320765
0.00432145
-0.314007
-0.628685
-0.93521
-1.2296
-1.50853
-1.76972
-2.01186
-2.23393
-2.43456
-2.61205
-2.76479
-2.89084
-2.99462
-3.06413
-3.1193
-3.13494
15381.8
3507.95
3633.37
3730.93
3887.04
3833.22
113022
220869
220990
220962
194374
15157.7
-30.3183
-6.01941
-10.5106
-10.0224
-8.96265
-8.18908
-7.50462
-6.80455
-5.89303
-5.06359
-4.24224
-3.46095
-2.72605
-2.04017
-1.40787
-0.831267
-0.313235
0.142873
0.53323
0.854654
1.10515
1.28404
1.39197
1.43085
1.40355
1.31493
1.17231
0.984681
0.761292
0.510955
0.241949
-0.0382238
-0.323299
-0.60811
-0.887967
-1.15846
-1.41595
-1.65804
-1.88327
-2.09032
-2.27763
-2.44349
-2.58651
-2.7048
-2.80304
-2.86948
-2.92267
-2.93984
9414.68
3375.57
3497.71
3571.44
3775.1
9758.87
199761
230312
230373
230343
107781
-6.65867
-21.1747
-14.2195
-10.952
-9.68999
-8.68847
-7.94408
-7.3289
-6.63863
-5.8602
-5.10395
-4.34975
-3.62283
-2.93437
-2.28727
-1.68745
-1.13752
-0.640667
-0.200628
0.178905
0.495255
0.746949
0.933791
1.05642
1.11598
1.11451
1.05602
0.946819
0.794599
0.607441
0.393268
0.159617
-0.0868847
-0.340717
-0.596992
-0.850895
-1.09786
-1.33421
-1.55753
-1.76614
-1.95843
-2.13263
-2.28711
-2.42061
-2.5313
-2.62392
-2.68698
-2.73795
-2.75614
9289.66
3252.79
3399.3
3566
3314.85
140206
240061
240084
239711
239641
48396.4
-16.257
-4.4649
-9.97318
-9.52454
-8.80879
-8.21866
-7.6481
-7.10239
-6.44529
-5.78444
-5.10451
-4.41323
-3.73958
-3.09867
-2.49155
-1.92492
-1.40217
-0.927321
-0.504467
-0.13707
0.172609
0.423586
0.615964
0.750108
0.826551
0.846777
0.814219
0.734236
0.613326
0.458557
0.277088
0.0757203
-0.139755
-0.364427
-0.593594
-0.822442
-1.04652
-1.26231
-1.46739
-1.65983
-1.8377
-1.99909
-2.14246
-2.26666
-2.36989
-2.45682
-2.51629
-2.56488
-2.58371
7822.13
3105.55
3335.88
3423.41
48809.4
230042
249885
249648
249102
188321
11232.3
-25.7552
-4.26985
-8.90362
-9.0235
-8.36342
-7.85769
-7.37757
-6.84904
-6.26032
-5.67923
-5.07418
-4.44171
-3.81577
-3.221
-2.65396
-2.12098
-1.62639
-1.17479
-0.770367
-0.416398
-0.114835
0.133696
0.329277
0.471902
0.56173
0.6
0.589687
0.535156
0.441867
0.315974
0.163954
-0.00814155
-0.195228
-0.392808
-0.596344
-0.801218
-1.0033
-1.19936
-1.38692
-1.56372
-1.72757
-1.87649
-2.00906
-2.12419
-2.22008
-2.30131
-2.35711
-2.40323
-2.42237
3232.91
2941.92
3136.68
13727.7
209164
259730
259608
259001
258656
81396.5
-14.6566
-12.78
-10.1569
-8.85754
-8.4399
-7.93857
-7.5177
-7.10576
-6.60673
-6.08561
-5.55905
-5.01721
-4.44165
-3.85735
-3.30468
-2.77709
-2.27802
-1.81253
-1.38509
-1.00004
-0.660554
-0.368352
-0.123925
0.0725376
0.220773
0.320854
0.373983
0.382583
0.350091
0.281024
0.180776
0.055139
-0.0905679
-0.251796
-0.424301
-0.603769
-0.785966
-0.967219
-1.14455
-1.31536
-1.4771
-1.62735
-1.7642
-1.8863
-1.99263
-2.08137
-2.15697
-2.20909
-2.25268
-2.2718
2845.07
2864.5
4753.24
182823
269827
269710
269111
268358
235712
25717.6
-18.6821
-3.83713
-6.54932
-7.34568
-7.42251
-7.30302
-7.07643
-6.76368
-6.37233
-5.92093
-5.44002
-4.94482
-4.41708
-3.86921
-3.3511
-2.86295
-2.3981
-1.96246
-1.56004
-1.19533
-0.87132
-0.589606
-0.350908
-0.155736
-0.0044372
0.103232
0.168418
0.192917
0.179331
0.131381
0.0538244
-0.0482807
-0.170292
-0.308029
-0.457449
-0.614538
-0.775568
-0.937346
-1.09704
-1.25188
-1.39909
-1.53621
-1.66141
-1.77344
-1.87129
-1.9531
-2.02322
-2.07173
-2.11277
-2.13155
2477.75
12808.1
174581
280072
279950
279348
278508
278202
97975.9
10.7643
-9.46743
-11.036
-8.15909
-7.06472
-6.83039
-6.71735
-6.55089
-6.34197
-6.13493
-5.79453
-5.35719
-4.87133
-4.36886
-3.85147
-3.36288
-2.91458
-2.48439
-2.07904
-1.70239
-1.35872
-1.05094
-0.780754
-0.549321
-0.357386
-0.205149
-0.0921281
-0.0174174
0.0201947
0.0226544
-0.00694489
-0.0645068
-0.145726
-0.246515
-0.362974
-0.491256
-0.627752
-0.769274
-0.912991
-1.05611
-1.19569
-1.32889
-1.45333
-1.56732
-1.66969
-1.75938
-1.83453
-1.89939
-1.9444
-1.98285
-2.00098
84704.7
218311
290938
290780
290148
289258
288427
237947
25291.9
-24.3733
-0.677974
-5.83411
-6.44959
-6.1616
-6.12076
-6.05774
-5.89919
-5.84415
-5.85278
-5.68715
-5.31839
-4.81455
-4.31619
-3.81643
-3.35563
-2.93421
-2.53897
-2.16377
-1.8134
-1.4914
-1.20061
-0.943088
-0.720373
-0.533345
-0.381943
-0.265601
-0.183714
-0.135577
-0.119681
-0.133437
-0.173493
-0.236261
-0.318116
-0.415385
-0.524493
-0.642274
-0.765986
-0.893015
-1.02053
-1.14554
-1.26526
-1.37754
-1.48084
-1.57398
-1.65589
-1.7247
-1.78456
-1.82618
-1.86206
-1.87922
420502
420490
420463
420423
420364
420283
420172
420022
419855
419548
419294
418643
418175
416777
415828
413008
411294
404456
400719
380431
420093
420077
420047
419996
419934
419826
419738
419495
419452
418904
418903
417844
417738
415667
415276
411030
410231
400815
395728
373138
419702
419683
419649
419588
419529
419376
419347
418956
419073
418254
418520
417033
417472
414646
415099
409858
409210
400612
393595
384190
419332
419311
419276
419201
419155
418935
418968
418432
418677
417657
418191
416376
417221
414007
414363
409571
407259
402666
395922
393614
418988
418962
418932
418834
418820
418535
418633
418010
418289
417235
417661
415951
416208
413468
412376
409933
406932
405861
400254
398102
418669
418641
418612
418510
418493
418231
418259
417775
417726
417033
416615
415578
414393
413141
411564
411301
408580
408220
403596
400907
418376
418350
418313
418227
418164
417991
417840
417610
417110
416911
415604
415567
413726
414385
412517
412965
410145
409532
406151
403536
418111
418090
418046
417969
417873
417745
417475
417425
416629
416971
415337
416363
414406
415507
413315
413689
411283
410344
408097
405792
417868
417851
417810
417736
417622
417487
417212
417168
416492
416901
415617
416603
414848
415651
413859
413801
412162
411032
409391
407404
417665
417655
417613
417532
417405
417241
416998
416868
416427
416570
415789
416229
415169
415359
414271
413832
412730
411578
410172
408461
417413
417471
417465
417369
417200
416996
416762
416576
416297
416225
415831
415844
415305
415115
414465
413869
412987
411931
410633
409111
417343
417373
417358
417240
417039
416790
416532
415941
415076
414884
414488
414549
414046
413659
412710
411059
407914
402189
392016
375630
218810
240481
253907
249195
236069
219787
206686
198944
194395
193589
191282
191144
187870
183251
174027
159405
138599
112027
81243.8
47355.9
-16.043
1316.59
1755.2
1468.38
951.358
420.203
62.4631
0.992618
-0.178861
-1.58026
-3.24145
-5.32384
-7.40589
-9.45894
-11.8465
-13.8013
-15.8993
-17.5401
-16.5151
-6.60281
1.28275
1.22506
1.26385
1.68034
2.05188
2.37606
2.63337
2.8701
3.12526
3.38622
3.60511
3.81353
3.95094
4.05306
4.03648
3.86187
3.39654
2.46633
0.944772
-0.898176
-2.53296
-1.1143
-0.504663
-0.0472336
0.281564
0.576959
0.795298
0.783282
0.536818
0.128603
-0.398881
-1.00879
-1.65277
-2.28944
-2.90423
-3.43766
-3.8728
-4.16102
-4.17285
-3.55184
-0.190917
-0.11099
0.130557
0.394534
0.633032
0.839644
0.986842
1.05012
1.03052
0.940147
0.787359
0.58151
0.32918
0.0381934
-0.292723
-0.659011
-1.06267
-1.49706
-1.92848
-2.21846
-0.339837
-0.182717
-0.00528062
0.187616
0.356337
0.497183
0.585213
0.601297
0.541358
0.412908
0.227288
-0.00214648
-0.262059
-0.539553
-0.82454
-1.10533
-1.37278
-1.61498
-1.8106
-1.9221
-0.231247
-0.0537701
0.00606397
0.135283
0.23752
0.328982
0.385746
0.39779
0.361427
0.279187
0.156503
0.000161477
-0.182795
-0.385342
-0.601103
-0.823158
-1.04426
-1.25441
-1.43762
-1.57188
-0.268726
-0.010942
-0.0499459
0.0644142
0.114326
0.173493
0.205396
0.207271
0.175496
0.110189
0.0141103
-0.108432
-0.252366
-0.412184
-0.582165
-0.756065
-0.927034
-1.08704
-1.22623
-1.33479
-0.338359
-0.0104646
-0.130663
-0.0138013
-0.00532547
0.0348529
0.0498851
0.0459027
0.0191717
-0.0309972
-0.103355
-0.195364
-0.303694
-0.424493
-0.553497
-0.68597
-0.816581
-0.939617
-1.04956
-1.14184
-0.399214
-0.0623258
-0.21185
-0.107146
-0.121551
-0.0921274
-0.0886056
-0.0947751
-0.116615
-0.154501
-0.207988
-0.275602
-0.355194
-0.444141
-0.539476
-0.637948
-0.736061
-0.830506
-0.918091
-0.995879
-0.447126
-0.152713
-0.294119
-0.209409
-0.234612
-0.211945
-0.216379
-0.222008
-0.239316
-0.266771
-0.304564
-0.351907
-0.407501
-0.469691
-0.536595
-0.606403
-0.677559
-0.748267
-0.815623
-0.875384
-0.486412
-0.249117
-0.380475
-0.314805
-0.34414
-0.32835
-0.337242
-0.341905
-0.354955
-0.37319
-0.397373
-0.427083
-0.461718
-0.500467
-0.542264
-0.585866
-0.630119
-0.674239
-0.717509
-0.758842
347123
339940
326833
328328
333659
342446
352362
361066
365860
371080
369607
366487
359157
348273
329893
338476
335266
329918
322758
329827
337998
348687
357756
362697
366761
367157
363544
357972
348760
338341
364076
352819
339244
333406
336518
343392
351267
358503
363097
365497
365377
362520
357823
351205
343732
380213
369451
361211
355692
353934
355589
359248
362918
365307
366034
365106
362488
358465
353270
347360
389654
382124
376041
370925
367657
366618
367167
368023
368299
367636
365972
363291
359708
355348
350667
395954
390537
385617
381290
377830
375393
373886
372779
371569
369931
367730
364876
361496
357652
352639
400236
396176
392083
388192
384619
381539
378984
376807
374726
372431
369873
366886
359639
303846
180129
403141
399877
396332
392706
389212
386002
383100
380469
378003
375350
366573
305819
175134
15305.6
-51.1636
405045
402211
399095
395857
392603
389560
386700
384021
371848
306136
166695
9027.11
-49.2101
1.06888
11.8413
406380
403908
401243
398413
395452
392560
364667
288281
146601
2183.26
-47.0181
4.35461
10.3436
2.65326
-2.23023
407294
405305
401594
383652
333842
231792
74448
-43.4184
-30.3318
7.7854
5.40009
-0.0303548
-3.4629
-2.69341
-1.85077
348120
294621
214039
106508
1649.86
-53.8954
-5.63256
11.8701
2.9939
-1.98014
-4.6425
-3.13245
-2.17811
-1.69846
-1.51984
3014.98
-40.2597
-36.2503
-12.3278
9.95559
6.66481
1.59533
-3.18066
-5.07969
-3.59871
-2.67508
-2.16696
-1.92235
-1.74712
-1.60691
6.14787
7.47587
4.10323
0.747615
-2.27408
-5.66895
-4.07666
-3.03707
-2.89259
-2.63148
-2.36875
-2.13811
-1.94693
-1.79291
-1.67808
-2.86802
-5.63813
-6.25706
-4.65362
-2.90013
-2.41979
-2.31075
-2.39266
-2.4549
-2.37163
-2.22743
-2.07631
-1.93781
-1.82075
-1.7206
-2.6135
-2.13015
-2.2061
-2.39127
-2.35273
-2.31123
-2.27122
-2.25729
-2.25268
-2.19975
-2.11293
-2.00385
-1.88289
-1.7662
-1.67171
-2.23223
-2.27101
-2.32389
-2.28715
-2.1861
-2.14049
-2.11394
-2.10138
-2.08086
-2.02987
-1.951
-1.8612
-1.7746
-1.6928
-1.61887
-1.94613
-1.95547
-1.96839
-1.97426
-1.9585
-1.94764
-1.93567
-1.91554
-1.88773
-1.8509
-1.7988
-1.73436
-1.66569
-1.60025
-1.54437
-1.64959
-1.69526
-1.72764
-1.74611
-1.7504
-1.75078
-1.74913
-1.74016
-1.71948
-1.68807
-1.6476
-1.60227
-1.55474
-1.5072
-1.46346
-1.41282
-1.46899
-1.5103
-1.53969
-1.55834
-1.5679
-1.57083
-1.56732
-1.55657
-1.5375
-1.50947
-1.47629
-1.441
-1.40683
-1.37559
-1.21812
-1.27961
-1.32659
-1.36227
-1.3874
-1.40317
-1.41102
-1.41116
-1.40441
-1.39219
-1.37538
-1.35436
-1.33101
-1.30689
-1.28431
-1.06487
-1.12159
-1.16467