/*--------------------------------*- C++ -*----------------------------------*\
| =========                 |                                                 |
| \\      /  F ield         | OpenFOAM: The Open Source CFD Toolbox           |
|  \\    /   O peration     | Version:  2.4.0                                 |
|   \\  /    A nd           | Web:      www.OpenFOAM.org                      |
|    \\/     M anipulation  |                                                 |
\*---------------------------------------------------------------------------*/
FoamFile
{
    version     2.0;
    format      ascii;
    class       volScalarField;
    location    "0.75";
    object      p;
}
// * * * * * * * * * * * * * * * * * * * * * * * * * * * * * * * * * * * * * //

dimensions      [1 -1 -2 0 0 0 0];

internalField   nonuniform List<scalar> 
4608
(
0
0.0282089
0.0579403
0.0863501
0.147883
0.236309
0.370457
0.575602
0.943618
1.34319
1.79686
1.42122
1.95059
1.94185
1.92507
1.90747
1.88684
1.8939
1.9398
1.96023
2.3454
4.4758
7.81861
8.07708
3.55743
3.53223
3.4601
3.40242
3.42989
3.54374
3.8184
4.09241
5.27834
5.84347
8.62358
13.1751
5.54332
5.43092
5.23878
5.03502
4.84953
4.76443
4.69803
4.65955
9.22389
7.09693
8.79161
8.3007
7.82294
7.62413
7.32944
7.0176
6.74554
6.61878
6.65837
8.01843
14.8483
9.30864
11.0309
11.6082
10.371
10.1301
9.78349
9.41828
9.06282
8.8829
8.93052
14.5546
17.325
13.0496
14.042
14.5722
13.1276
12.9479
12.643
12.3436
11.946
11.7249
11.7421
19.1517
20.8806
16.8652
17.5574
18.0083
16.0154
16.0387
15.8746
15.8285
15.4726
15.2816
15.5538
23.1792
25.0984
20.3555
21.1366
21.7322
18.9034
19.2958
19.3983
19.7823
19.4691
19.3323
19.4855
21.2335
29.712
23.5044
24.7014
25.523
21.7128
22.5885
22.8512
24.02
23.6691
23.4924
24.0083
25.0409
26.409
26.8488
28.0629
29.4607
24.3309
25.7004
25.7986
27.8247
27.391
26.5278
27.4498
29.1947
31.7384
29.7115
31.9615
33.2127
22.7946
27.777
29.1832
33.1122
30.1119
26.6491
26.8942
28.7635
30.8859
31.9233
36.0074
36.672
0.328001
0.134459
0.424249
1.08159
0.531256
-0.334777
0.724908
1.23564
0.323361
-0.84016
-0.767078
-0.365109
8.34278
7.75236
7.07802
4.23363
6.3555
6.00477
8.54501
6.04021
7.70773
9.35589
7.88964
7.09251
10.8902
6.01858
5.12331
5.11146
5.79323
4.88495
5.52338
5.32692
4.48825
4.12621
5.82227
8.93809
7.89839
8.0715
8.68031
9.11807
8.79348
9.25352
8.77933
8.43777
7.27779
6.24161
5.2857
3.94724
11.7094
12.506
12.4759
12.2942
11.8247
11.2725
10.5631
10.1015
9.77883
8.34069
7.13488
5.37277
14.8259
16.1978
15.0086
15.5902
15.9764
16.2675
14.9133
13.4209
11.2655
10.7555
9.8344
8.06662
18.1162
18.6639
20.4489
22.3376
22.0041
21.1547
20.1679
18.9478
17.0901
14.7045
13.9937
12.2314
21.8664
21.9945
24.4552
26.4437
26.2049
25.5254
24.7159
23.7089
22.7924
20.7052
19.4118
18.0525
25.9389
25.9323
28.6514
30.0496
30.3843
30.0167
29.4673
28.7998
28.5627
27.7026
25.8183
25.2915
30.4774
30.6246
33.2705
33.8009
34.6855
34.482
34.1121
33.7128
34.2718
34.9801
32.8048
33.1033
34.698
36.2485
37.0858
37.7483
38.4593
38.6001
38.2768
38.034
39.2665
41.305
39.4198
40.7743
37.7494
39.003
40.3226
41.4926
41.8095
42.6355
41.7401
40.8999
40.8613
41.3907
43.2086
47.4283
5.48257
5.47506
5.45403
5.42851
5.40391
5.38039
5.3569
5.34024
5.33691
5.35522
5.40639
5.5039
7.60186
7.57259
7.56172
7.53104
7.5179
7.54207
7.61231
7.72998
7.89349
8.09879
8.34022
8.61158
9.22551
9.19659
9.16405
9.18345
9.25493
9.39935
9.63001
9.94651
10.3367
10.7778
11.2403
11.6943
11.3172
11.2777
11.2606
11.3015
11.4372
11.6939
12.0835
12.5982
13.2074
13.8611
14.5004
15.0725
13.5929
13.556
13.5721
13.6713
13.8925
14.2702
14.8138
15.5066
16.2962
17.1052
17.847
18.4539
16.0952
16.0937
16.1679
16.3494
16.6605
17.1449
17.8045
18.6172
19.5131
20.3971
21.1666
21.7502
18.8017
18.8927
19.0634
19.3601
19.7586
20.3205
21.035
21.883
22.7882
23.6571
24.3862
24.9167
21.6751
21.9562
22.2637
22.7098
23.1799
23.7751
24.4674
25.2498
26.0527
26.8061
27.4143
27.8618
24.6541
25.2827
25.748
26.3558
26.8534
27.4196
28.0104
28.63
29.2257
29.7675
30.1477
30.4457
27.6097
28.8543
29.4413
30.156
30.5824
31.0279
31.4422
31.8227
32.1469
32.4255
32.4687
32.4987
30.3983
32.6253
33.2017
33.8502
34.0321
34.2356
34.4146
34.8151
35.411
35.1403
34.4735
33.809
31.2327
36.1268
36.4704
36.8827
36.6935
36.5997
36.4793
36.4073
36.257
35.9555
35.3555
34.0705
5.66077
5.88489
6.17098
6.49722
6.91357
7.30344
7.60914
7.78862
7.82519
7.74179
7.59937
7.461
8.90699
9.22058
9.54829
9.89586
10.1408
10.3012
10.3425
10.2392
9.99721
9.66354
9.32434
9.0565
12.1157
12.4893
12.8063
13.0546
13.2259
13.2609
13.131
12.8087
12.3017
11.666
11.0419
10.5228
15.5452
15.9101
16.1752
16.3599
16.4331
16.3862
16.1715
15.7376
15.061
14.1606
13.2102
12.3737
18.8971
19.1884
19.3663
19.4685
19.508
19.463
19.2833
18.8814
18.1946
17.1646
15.9439
14.7697
22.1298
22.3363
22.4392
22.4945
22.5538
22.5881
22.546
22.2994
21.757
20.7646
19.415
17.9507
25.2437
25.4005
25.4735
25.5316
25.6516
25.8172
25.9841
25.9858
25.7259
24.94
23.6832
22.0295
28.1667
28.3313
28.4322
28.5359
28.7351
29.0534
29.472
29.7906
29.9376
29.5283
28.6455
26.9693
30.7565
30.9931
31.1776
31.3488
31.6192
32.0795
32.761
33.4388
34.0928
34.2268
34.0268
32.6162
32.8538
33.2573
33.5833
33.8402
34.143
34.6993
35.626
36.6631
37.8475
38.6388
39.3998
38.6376
34.2981
35.0667
35.597
35.9028
36.216
36.7583
37.9421
39.3009
40.8971
42.3211
44.2098
44.3442
34.8624
36.42
37.2315
37.5934
38.1033
38.9553
39.6235
41.2293
42.9832
44.7622
47.7686
49.1892
7.80245
7.81708
7.80444
7.76073
7.69041
7.62977
7.56865
7.50046
7.43249
7.37202
7.32924
7.31736
9.84806
9.81008
9.7647
9.71769
9.69243
9.66089
9.67444
9.73512
9.83687
9.97081
10.1264
10.2934
11.553
11.4989
11.4156
11.3458
11.344
11.4351
11.6156
11.8886
12.2337
12.6181
13.0018
13.3477
13.6425
13.5569
13.4677
13.4362
13.4979
13.7075
14.0696
14.5703
15.1619
15.7735
16.3276
16.7635
15.9279
15.8341
15.7609
15.7798
15.9436
16.3015
16.859
17.5844
18.3951
19.1772
19.8151
20.234
18.3999
18.3391
18.3228
18.4323
18.7127
19.22
19.9492
20.8545
21.8214
22.6997
23.344
23.6733
21.0281
21.0655
21.1565
21.4069
21.8171
22.4579
23.3058
24.3133
25.3491
26.2465
26.8439
27.0562
23.7603
24.0016
24.2541
24.6987
25.245
25.9883
26.8786
27.8824
28.8757
29.7049
30.2132
30.3088
26.5372
27.1222
27.5654
28.2382
28.9107
29.7116
30.5593
31.4469
32.2801
32.9459
33.3188
33.2989
29.2636
30.376
30.9656
31.8348
32.5866
33.3833
34.1125
34.8001
35.3913
35.8282
36.039
35.9088
31.8805
33.6954
34.2783
35.2019
35.9385
36.6575
37.2079
37.6397
37.9575
38.1572
38.2385
38.0571
33.3221
36.5986
37.0155
37.8411
38.4726
39.021
39.3204
39.4925
39.6106
39.6853
39.768
39.6386
7.34988
7.43586
7.57276
7.74279
7.98271
8.20517
8.35165
8.39227
8.32184
8.17231
8.00816
7.88626
10.464
10.6332
10.7991
10.9686
11.0459
11.0352
10.9178
10.6805
10.3426
9.96116
9.62241
9.39178
13.6308
13.8401
13.9743
14.0276
14.0059
13.851
13.5454
13.0733
12.4564
11.763
11.1351
10.6487
17.0547
17.2079
17.2476
17.2133
17.0637
16.8085
16.4007
15.798
14.9889
14.0076
13.0375
12.2315
20.4236
20.4292
20.3204
20.1533
19.9493
19.6788
19.2899
18.6987
17.8518
16.7089
15.4391
14.2844
23.7026
23.523
23.2566
22.9899
22.7722
22.5611
22.2902
21.8297
21.0941
19.9508
18.5104
17.0481
26.9194
26.5641
26.1604
25.8297
25.6361
25.5349
25.4481
25.2037
24.707
23.7231
22.3195
20.6439
30.0343
29.5399
29.0324
28.6648
28.5156
28.5474
28.6807
28.7093
28.5597
27.89
26.7825
25.0441
32.9205
32.3307
31.7559
31.3699
31.2734
31.4222
31.7765
32.104
32.3867
32.1879
31.6594
30.1116
35.4457
34.7868
34.1625
33.7693
33.7249
33.9617
34.5023
35.112
35.8577
36.2616
36.5892
35.6041
37.5456
36.8385
36.1509
35.7459
35.7307
36.0433
36.7094
37.5357
38.6759
39.7109
41.1078
41.1211
39.1505
38.4583
37.6915
37.2819
37.2918
37.6561
38.3845
39.3297
40.667
42.1039
44.5374
46.2717
-11.5722
-11.7329
-11.785
-11.7431
-11.6135
-11.4064
-11.204
-11.1149
-11.1349
-11.3344
-11.3597
-11.3162
-7.23465
-7.27037
-6.98329
-6.5194
-5.93105
-5.23786
-4.61481
-4.29673
-4.69187
-5.2642
-5.34071
-5.45701
-4.70771
-4.30004
-3.48533
-2.40382
-1.06293
0.686747
1.55847
2.39054
2.36469
2.21948
1.29316
0.446101
-2.29461
-1.42544
-0.15112
1.33844
4.53188
8.11044
8.35227
8.10788
7.87662
7.56484
7.08911
6.78376
0.20024
1.56791
3.29904
5.35219
10.1987
11.5878
11.9211
12.0522
12.0636
11.9292
11.6644
11.4095
3.14342
4.81744
6.74725
8.8218
13.2696
15.1004
15.6042
15.9753
16.2448
16.3432
16.248
16.0863
6.96033
8.71271
10.6814
12.674
15.0703
18.3684
19.1306
19.6379
20.0814
20.2911
20.278
20.2891
11.7253
13.4122
15.2469
17.128
18.3193
20.1578
22.2511
23.087
23.5904
23.8043
23.6327
23.823
17.3097
18.962
20.5686
22.3207
23.3773
23.7932
23.6556
25.2241
26.574
26.6544
26.0955
26.7898
23.4397
25.2961
26.5852
28.1087
28.9762
29.4351
30.2796
29.6258
28.6551
28.3277
26.872
29.2532
29.9412
32.3812
33.2019
34.2997
34.6404
34.8127
34.9859
35.9854
36.2552
34.7887
35.0252
31.2514
34.1664
37.9729
38.3524
38.987
38.8578
38.4725
38.0557
36.0456
35.8005
36.9726
37.3927
37.1321
-11.4052
-11.5781
-11.8299
-12.2068
-12.6771
-13.1023
-13.173
-13.0222
-12.8302
-12.7193
-12.6853
-12.7745
-5.89788
-6.43157
-7.03575
-7.78405
-8.50896
-8.81609
-9.15928
-8.68738
-8.57632
-8.66553
-8.82119
-9.13338
0.113144
-0.644093
-1.50266
-2.66622
-4.18208
-4.7623
-0.62799
-3.36839
-4.35055
-4.35203
-4.356
-4.55609
6.63386
5.06117
5.38738
5.18291
4.10371
0.494961
3.32121
4.34916
3.97715
1.9673
-0.183914
-0.828103
11.1466
10.7529
10.2068
8.60797
8.05961
7.2875
8.62642
5.20587
3.3239
3.1301
4.02107
7.66659
15.8708
15.5819
15.2226
14.9192
14.6281
13.678
12.7356
10.9141
9.2869
7.71339
4.91602
3.34993
20.2308
20.1412
20.0123
19.8825
19.7719
19.4591
18.3616
16.43
14.8498
13.1497
10.5973
7.75669
23.9325
24.0245
24.18
24.3499
24.5945
24.7931
25.0477
22.5483
20.7438
19.3843
17.5397
14.5719
26.9674
27.1835
27.495
27.9671
28.6808
29.6085
30.7738
29.7015
26.7427
26.0808
25.7689
23.1722
29.364
29.4994
29.7422
30.6276
31.6165
32.8129
34.3372
33.8928
33.7132
33.32
35.1462
33.6563
30.8085
30.5551
30.8704
32.1495
33.1728
33.7315
34.7402
35.1818
37.9051
40.1919
44.5943
44.6345
36.1965
36.4439
37.0992
35.7171
35.9659
36.6405
38.0218
39.2584
42.4489
44.6755
51.5491
53.565
32.0086
41.8935
37.6396
40.1148
42.2373
45.271
47.9109
48.0897
46.0368
44.7254
41.2125
41.2125
37.2528
42.5779
39.1397
40.8972
43.2574
45.0672
46.2639
48.4612
48.2692
45.8437
43.9558
43.367
36.6512
42.4869
40.0617
41.7656
43.42
43.9295
43.7197
43.3533
42.2645
42.7346
40.9645
44.621
38.2646
41.9542
40.2636
41.9062
43.1611
42.7834
42.3757
42.8852
42.2553
42.6634
41.6591
43.4307
39.601
41.9462
40.4928
41.7505
42.8355
42.337
41.8022
42.433
42.0431
42.506
41.9529
43.3408
40.6094
41.9348
40.5709
41.4702
42.3468
41.8099
41.2616
41.8597
41.6292
42.1757
42.0058
43.1828
41.4256
41.8623
40.4998
41.0828
41.7718
41.2418
40.7152
41.1906
41.0698
41.7014
41.8505
42.949
42.1475
41.7139
40.2777
40.6072
41.126
40.5715
40.0341
40.313
40.2964
41.018
41.4744
42.7067
42.8365
41.4349
39.7976
39.8188
40.0893
39.4199
38.9473
39.0216
39.1156
39.9209
40.619
42.1439
43.4919
40.7587
38.8302
38.8178
38.8242
38.0704
37.6388
37.4911
37.6451
38.5378
39.5127
41.5565
44.3044
40.1379
37.6419
37.595
37.5492
36.7603
36.2807
35.9304
36.15
37.084
38.1766
41.0227
49.7908
38.6829
36.2376
36.331
36.4022
35.5753
34.9685
34.4879
34.7813
35.7127
36.8503
40.5612
41.7418
39.7475
41.5155
42.1718
44.8639
43.6357
42.748
41.6469
41.7026
41.6711
44.5009
44.6516
46.4136
40.2755
42.4723
42.5007
42.1985
42.2238
42.0032
41.6119
41.9791
41.8315
44.804
43.8843
49.2384
40.973
42.7979
42.1633
42.4286
42.4342
42.4148
42.0039
42.0941
42.1609
42.3937
48.9072
46.2263
46.0114
42.7148
43.1208
43.1749
42.92
42.9761
42.3863
42.1896
42.3271
41.7608
41.8736
44.8445
47.0319
50.1865
42.7265
43.7705
43.3334
43.4836
42.6931
42.2392
42.4486
41.6728
41.8321
44.8752
43.5347
48.2879
47.037
44.3445
43.6697
43.9305
42.9069
42.1983
42.4907
41.5808
41.6811
44.9329
43.7253
46.7538
44.1773
45.151
43.9122
44.3332
43.0201
42.0311
42.4247
41.47
41.4183
44.8827
44.3929
48.2633
45.4801
45.7198
44.1447
44.7248
43.0141
41.7008
42.2396
41.3674
41.0512
44.6424
44.9795
49.8049
46.415
46.0401
44.3129
45.1261
42.8369
41.1069
41.8681
41.322
40.5816
43.926
45.0698
51.6985
47.289
45.8998
44.1002
45.3849
42.5761
40.5347
41.5386
40.9358
39.7029
42.8234
45.039
54.4286
52.313
52.3948
51.7661
47.1363
41.8556
40.8242
45.7321
53.2964
57.1939
41.4027
47.6751
63.552
56.8546
52.8356
51.2787
48.606
41.1808
37.8124
44.4005
55.8986
58.9044
35.3958
38.8513
38.335
38.3224
37.9169
37.6526
37.3139
37.0918
36.7897
36.3107
35.4555
34.8953
36.1145
40.0488
38.9421
38.8437
38.4325
38.1184
37.6576
37.3691
36.9552
36.38
35.3346
34.9121
43.1386
41.9052
39.1298
39.0988
38.7778
38.4335
37.8978
37.5455
36.9943
36.2922
35.1771
34.3705
41.0658
43.7541
43.866
39.9088
39.0374
38.7277
38.0809
37.6669
36.9649
36.0788
35.0216
34.1571
40.286
38.8449
43.4426
41.5024
38.9033
38.7929
38.2556
37.7808
36.8974
35.8314
34.7938
33.9022
40.1944
39.6056
42.943
39.962
42.9423
43.2478
42.1892
37.9968
36.8243
35.5628
34.4843
33.592
40.0037
40.1388
43.0725
40.2736
42.7601
42.0771
41.6212
38.3546
36.7596
35.282
34.1146
33.2139
39.6796
40.6108
43.242
41.5943
47.1596
45.8566
42.8075
38.3295
36.6461
34.9477
33.6854
32.7666
39.1859
41.17
43.4174
41.8606
45.3758
40.2883
42.727
38.6498
36.3959
34.5499
33.1876
32.2448
38.2466
42.0033
43.1211
41.8002
45.6413
49.6877
53.2587
38.8401
36.191
34.091
32.6017
31.638
57.6812
56.672
57.4459
56.1446
55.5981
51.3137
43.243
38.3143
36.0461
33.6125
31.9351
30.9435
57.7128
61.2075
58.9001
59.1094
51.337
47.4751
43.5629
38.6719
35.9897
33.2437
31.3571
30.3008
34.8299
37.3804
37.8635
38.5902
39.2348
39.4558
40.44
41.8694
43.5318
45.124
47.2357
46.5781
44.342
40.4224
38.5354
38.4571
39.1936
39.8826
40.7003
42.0781
43.7405
45.225
46.6848
45.9166
40.7487
41.8196
39.1493
37.9165
38.1781
39.3028
40.6108
42.1095
43.8017
45.135
46.161
45.9143
34.6418
37.3422
38.3952
37.7541
38.1738
39.2544
40.6003
42.1632
43.8877
45.1678
45.7446
45.6643
34.1606
35.4402
36.8348
37.3235
38.0173
39.269
40.6399
42.1094
43.7023
44.8995
45.3717
44.9401
33.7726
34.314
35.3405
36.7401
37.7046
39.1484
40.551
41.9318
43.4597
44.6562
45.0793
44.8143
33.3484
33.8459
34.5421
35.394
36.7707
38.7419
40.3627
41.67
43.1889
44.4631
44.9029
44.9647
32.8641
33.3326
34.1082
35.0373
36.1843
37.6583
39.3371
41.0785
42.7746
44.2724
44.8138
45.2544
32.3311
32.7895
33.6666
34.7335
35.9769
37.4709
39.12
40.86
42.3816
43.6589
44.466
45.5646
31.7661
32.2298
33.2194
34.4127
35.7889
37.3912
39.0743
40.8122
42.3375
43.6686
44.3718
45.2927
31.1705
31.6721
32.7765
34.0811
35.5922
37.3103
39.0501
40.8184
42.3745
43.716
44.4872
45.5467
30.6167
31.1586
32.3997
33.7992
35.4256
37.2402
39.0313
40.8365
42.4312
43.774
44.6211
45.8475
37.4203
39.1982
38.7208
39.2097
39.7368
40.1398
40.1862
40.1214
40.089
40.1107
40.2252
40.29
38.9448
39.9905
39.5144
39.862
40.3641
40.7035
40.5657
40.4273
40.4949
40.6152
40.561
40.4763
40.0022
40.6825
40.1579
40.3907
40.8818
41.1922
40.8596
40.8686
41.3763
41.361
41.2051
41.1944
40.79
41.269
40.7232
40.8654
41.35
41.6459
41.1285
41.1691
41.4334
41.2441
41.1464
41.411
41.1704
41.7634
41.2433
41.3225
41.7462
41.712
41.12
41.3026
41.261
40.993
41.0019
41.6296
41.739
41.414
41.1413
41.2239
41.2697
41.28
41.0223
41.2136
40.9722
40.6028
40.6712
41.7351
42.7947
41.3685
40.3766
40.8811
41.3773
42.0532
41.6059
41.0513
40.5552
40.0538
40.0949
41.2043
44.0419
44.7556
44.1803
43.3661
42.5269
43.2495
41.3007
40.7709
39.9629
39.4899
39.6929
40.2392
45.1918
45.634
44.9268
44.1274
42.6656
40.8954
40.9841
40.1133
39.3496
38.9515
39.0723
39.4209
45.5695
46.2248
45.5083
44.5768
42.9291
41.1603
40.555
39.6777
38.8687
38.3767
38.412
38.7443
45.7096
45.743
45.2534
44.6172
43.1185
41.5006
40.5178
39.3992
38.3509
37.6778
37.6267
38.0494
46.2505
46.1972
45.7293
45.1359
43.6475
41.9158
40.5563
39.1631
37.8609
36.957
36.7409
37.3602
39.8856
39.2824
38.4505
38.0886
38.1481
38.5557
39.2932
40.2542
41.5228
42.8528
44.5899
44.7187
40.1412
39.6784
38.7965
38.4934
38.6139
39.0615
39.8049
40.7561
41.9428
43.1498
44.3576
44.3134
40.2848
39.856
38.974
38.7623
38.9817
39.485
40.2405
41.1754
42.2722
43.3591
44.1957
44.3204
40.708
39.8881
38.976
38.8991
39.2638
39.84
40.6154
41.531
42.5408
43.5076
44.1132
44.372
41.418
40.4019
38.7052
38.9027
39.4728
40.1406
40.9434
41.8416
42.7745
43.6503
44.0809
44.3903
42.4041
46.0987
38.7474
38.7817
39.6141
40.3973
41.2376
42.1242
42.9877
43.7841
44.0841
44.3977
42.5718
48.1238
47.968
38.6739
39.7412
40.627
41.5104
42.393
43.1948
43.9211
44.1229
44.4192
40.9784
40.5172
39.9051
39.7487
39.8964
40.855
41.7747
42.6592
43.4074
44.0706
44.1999
44.467
40.0023
39.6259
38.8281
38.9648
40.1067
41.0857
42.0402
42.933
43.6356
44.2395
44.3143
44.5464
39.4977
39.3035
38.8984
39.1603
40.2243
41.317
42.3188
43.2287
43.894
44.4409
44.4625
44.6602
39.0232
39.017
38.8541
39.2678
40.3535
41.546
42.6157
43.5572
44.1968
44.6979
44.6526
44.8061
38.5676
38.7799
38.7672
39.2863
40.4372
41.7437
42.8931
43.8809
44.5118
44.9884
45
44.9685
38.723
40.3492
40.1006
40.343
40.0518
39.533
38.9565
37.6595
37.6345
37.9705
37.9308
36.0009
39.8524
41.1568
40.7797
40.8844
40.5139
39.9807
39.4291
38.2675
38.1513
38.3636
38.1615
36.5836
40.7516
41.6683
41.1939
41.1879
40.7652
40.1972
39.6043
38.5861
38.4005
38.4994
38.3366
37.1994
41.4445
42.0591
41.5119
41.3904
40.9021
40.2829
39.65
38.7246
38.455
38.4526
38.3228
37.5613
41.9909
42.3829
41.7805
41.5392
40.9693
40.2813
39.5857
38.7037
38.3452
38.2698
38.1938
37.7546
42.4392
42.6621
42.0159
41.6545
40.9889
40.2133
39.4295
38.5476
38.1003
37.9717
37.965
37.8049
42.8214
42.914
42.229
41.7476
40.9735
40.0919
39.1973
38.2779
37.7387
37.5715
37.6431
37.7313
43.1617
43.1537
42.43
41.8275
40.9316
39.9256
38.9014
37.9138
37.278
37.0808
37.2382
37.5555
43.4813
43.3983
42.632
41.9041
40.8705
39.7198
38.5478
37.4671
36.7347
36.5115
36.7613
37.2984
43.8033
43.6732
42.8586
41.9967
40.8031
39.4805
38.1356
36.9327
36.1129
35.871
36.2174
36.9718
44.146
44.0034
43.1383
42.1341
40.7566
39.2309
37.6823
36.3116
35.3981
35.1593
35.6102
36.5825
44.4795
44.3457
43.4418
42.3085
40.7626
39.043
37.2921
35.7204
34.6585
34.4072
34.9973
36.1761
37.6046
37.9424
38.5939
38.2891
38.4517
39.2841
40.5371
41.6821
44.2626
45.7623
50.5129
47.06
37.6833
38.3474
39.2504
39.525
39.8989
40.8857
42.035
43.0587
45.1268
46.1144
48.9361
45.6817
38.1257
38.7497
39.0951
39.6322
40.4976
41.8452
43.1014
44.0442
45.6036
46.1457
47.5825
45.8085
38.4023
39.0889
39.5467
40.2476
40.9788
41.8293
42.8461
43.8505
45.2014
45.8896
46.7182
45.4102
38.5672
39.3396
39.9343
40.7899
41.5766
42.4724
43.4165
44.2473
45.3228
45.823
46.2776
45.3953
38.6408
39.5297
40.285
41.2875
42.1546
43.0983
43.9708
44.6936
45.5191
45.8426
45.9966
45.245
38.6393
39.6719
40.6071
41.7601
42.7279
43.7242
44.5207
45.143
45.7042
45.8862
45.7699
44.8857
38.5785
39.7746
40.9054
42.2182
43.3024
44.3626
45.0847
45.6125
45.8852
45.9601
45.5748
44.5033
38.4724
39.8471
41.1876
42.6706
43.8887
45.0263
45.6818
46.1147
46.0677
46.0792
45.3741
44.1044
38.329
39.8958
41.4614
43.1274
44.5039
45.7408
46.3427
46.672
46.2626
46.2746
45.0956
43.6701
38.1491
39.9184
41.7248
43.5903
45.1525
46.5329
47.103
47.3233
46.4823
46.5454
44.4193
42.5753
37.9495
39.904
41.9334
44.0099
45.7507
47.3107
47.835
47.8376
46.392
46.6073
43.7816
53.9186
42.908
38.642
35.8027
35.8175
35.8868
35.1577
34.5908
34.1406
34.4541
35.3192
36.5661
40.2928
43.3663
40.1444
36.0897
36.1364
36.1027
35.4755
35.1119
34.831
35.1669
35.9687
37.3184
40.3931
43.3785
42.6981
36.2946
36.5737
36.4657
35.9107
35.6818
35.5712
35.98
36.7579
38.1408
40.6114
42.5251
40.5529
36.7852
37.0481
36.8959
36.4079
36.2956
36.3238
36.7685
37.5202
38.8673
40.7914
41.7473
39.415
38.7009
37.6055
37.3813
36.967
36.9754
37.1183
37.5632
38.2701
39.3466
40.4984
41.7199
40.4154
39.4918
38.0631
37.733
37.4628
37.5761
37.8204
38.0722
38.3751
39.1959
40.4478
41.6482
40.5232
37.7327
38.4106
38.1708
37.9442
37.7117
37.6513
37.8984
38.4337
39.4028
40.4885
41.5412
39.7152
38.5905
38.8402
38.4564
38.2177
38.0198
37.9556
38.229
38.7318
39.5886
40.478
41.4724
39.9605
39.5582
39.1617
38.6583
38.4419
38.2847
38.2517
38.5061
38.9558
39.7168
40.4319
41.376
39.7642
39.9816
39.3276
38.8293
38.6342
38.5062
38.4945
38.7271
39.129
39.8009
40.3514
40.9541
39.2902
40.1039
39.4731
38.972
38.7946
38.688
38.69
38.9003
39.2574
39.8441
40.2274
40.2343
39.5929
40.1456
39.5991
39.0907
38.9248
38.8321
38.8416
39.0309
39.3469
39.8497
40.0246
40.8798
47.407
43.9691
41.6176
42.2052
43.7745
41.0988
38.6962
38.3936
43.9354
51.16
53.7171
41.2898
45.1522
44.5236
42.5767
42.3505
43.2624
41.2176
39.6746
39.9202
44.2376
49.9453
52.1705
41.7132
43.7141
43.8714
42.7508
42.5226
43.0905
41.6094
40.6608
41.2966
44.8926
49.1203
51.0042
41.5648
43.6982
43.4729
42.8649
42.6561
43.0376
41.9877
41.4503
42.227
45.262
48.5262
50.1393
41.6199
43.6015
43.2339
42.9407
42.7664
43.0383
42.3111
42.0587
42.8728
45.4487
48.0679
49.4655
41.7897
43.4785
43.0897
42.9934
42.8583
43.0664
42.5819
42.5253
43.3464
45.5429
47.6965
48.9229
41.9063
43.3664
43.0129
43.0324
42.938
43.1122
42.8093
42.8891
43.7018
45.5882
47.3925
48.4788
42.005
43.2615
42.9887
43.0631
43.0115
43.1693
43.0024
43.1792
43.9727
45.6066
47.1426
48.1115
42.0877
43.1741
42.9861
43.0917
43.081
43.23
43.1676
43.4142
44.1823
45.6104
46.9367
47.8044
42.1536
43.1063
42.9932
43.1194
43.1439
43.2918
43.3114
43.6063
44.3464
45.6065
46.7653
47.5471
42.2066
43.0612
43.006
43.146
43.2007
43.3511
43.4379
43.7643
44.4749
45.6005
46.623
47.3302
42.3417
43.0423
43.0231
43.1715
43.2517
43.4083
43.5448
43.8984
44.581
45.5894
46.5043
47.1473
53.1
49.749
49.8986
51.0166
50.0095
47.5008
44.0952
39.2173
36.2354
33.4482
31.4905
30.4045
51.9629
49.8796
49.4369
50.626
49.1081
47.1719
42.4984
39.7343
36.7742
34.1403
32.2808
31.2309
51.088
49.7419
49.0673
50.0228
48.4775
46.7902
43.333
40.1771
37.3024
34.8566
33.0972
32.0617
50.3698
49.4826
48.7958
49.4075
47.9812
45.9447
43.723
40.9358
37.9335
35.545
33.8751
32.8379
49.772
49.1742
48.5585
48.859
47.5423
45.6928
43.1744
41.4866
39.3689
36.202
34.5521
33.4838
49.2676
48.8575
48.3218
48.3767
47.1595
45.4644
43.0476
40.5822
38.4487
36.7805
35.1568
34.0268
48.8373
48.5514
48.083
47.9565
46.8234
45.2517
43.0665
40.7741
38.8855
37.4065
35.6679
34.4646
48.4678
48.2649
47.8483
47.5926
46.5274
45.0582
43.0688
40.9701
39.2303
37.6556
36.0937
34.8028
48.1496
48.0022
47.6236
47.2782
46.2665
44.884
43.0542
41.123
39.4928
37.9865
36.4414
35.0583
47.875
47.7648
47.413
47.0062
46.0363
44.7272
43.0278
41.2361
39.6894
38.2361
36.7191
35.2551
47.6384
47.5523
47.2194
46.7704
45.833
44.5863
42.9938
41.3166
39.8333
38.4171
36.9378
35.4154
47.4348
47.3636
47.0438
46.5665
45.6533
44.4604
42.9557
41.3725
39.9375
38.5546
37.1111
35.4989
30.7275
31.3046
32.5446
33.9452
35.5745
37.3625
39.1191
40.8674
42.4226
43.7083
44.5789
45.756
31.5672
32.116
33.2313
34.53
36.0528
37.7021
39.3318
40.9352
42.3534
43.5274
44.3684
45.3675
32.4379
32.9653
33.9819
35.1738
36.5676
38.0624
39.5474
40.9972
42.2764
43.3488
44.1439
45.0027
33.2691
33.7788
34.6867
35.7703
37.0315
38.3821
39.7322
41.0467
42.2086
43.1965
43.9468
44.7039
34.0216
34.5343
35.3216
36.298
37.4306
38.6523
39.8831
41.0829
42.1474
43.064
43.7727
44.4487
34.6701
35.213
35.8766
36.7527
37.7668
38.8763
40.0038
41.1068
42.0902
42.9453
43.6144
44.2221
35.2201
35.8045
36.3488
37.1359
38.0457
39.06
40.1001
41.1219
42.0373
42.8388
43.4705
44.0204
35.6607
36.3091
36.7431
37.4543
38.2759
39.2111
40.1778
41.1317
41.9899
42.7445
43.3412
43.8427
35.9941
36.7343
37.0706
37.7183
38.4666
39.3366
40.242
41.1388
41.9484
42.6617
43.2265
43.6873
36.2267
37.092
37.3438
37.9381
38.6261
39.4423
40.2962
41.1447
41.9126
42.5897
43.1257
43.5524
36.4087
37.3962
37.5743
38.1223
38.7611
39.5324
40.3428
41.1501
41.8822
42.5276
43.0378
43.4358
36.7246
37.6583
37.771
38.2774
38.8762
39.61
40.3833
41.1554
41.8566
42.4744
42.9618
43.3358
46.2677
46.237
45.7803
45.1997
43.8376
42.1617
40.6696
39.1851
37.8163
36.8389
36.5181
37.1596
45.7644
45.7006
45.4035
44.8545
43.6677
42.2045
40.7996
39.4168
38.1652
37.2974
37.1378
37.5053
45.3389
45.338
45.0691
44.5459
43.5039
42.2226
40.9321
39.6686
38.5395
37.7619
37.5775
37.879
45.0077
45.0366
44.789
44.2936
43.3698
42.2358
41.0596
39.9113
38.8949
38.1932
37.9937
38.2155
44.7278
44.7689
44.5422
44.0776
43.2541
42.2443
41.178
40.1389
39.2262
38.5908
38.3864
38.5113
44.4807
44.5271
44.319
43.886
43.149
42.2465
41.2831
40.3455
39.5266
38.9475
38.7383
38.7614
44.2621
44.31
44.118
43.7156
43.0527
42.2421
41.3712
40.5243
39.7873
39.2539
39.0381
38.9608
44.0699
44.1169
43.9389
43.5647
42.9645
42.2313
41.4408
40.6719
40.004
39.5063
39.2833
39.1101
43.9018
43.9467
43.7807
43.4318
42.8837
42.2151
41.4924
40.7888
40.1776
39.7071
39.4777
39.2156
43.7555
43.7977
43.6419
43.315
42.8101
42.1948
41.5284
40.8783
40.3125
39.8622
39.6272
39.285
43.6288
43.668
43.5208
43.2128
42.7436
42.1719
41.5519
40.945
40.4151
39.9792
39.7368
39.3162
43.5197
43.5559
43.4158
43.1238
42.6839
42.148
41.5659
40.9937
40.4917
40.0654
39.8103
39.2684
38.3752
38.7675
38.8924
39.4393
40.5522
41.8357
42.9677
43.9255
44.5332
44.9731
44.98
44.9019
38.5313
38.9462
39.2097
39.7706
40.7529
41.872
42.8692
43.7168
44.2662
44.6621
44.6572
44.6196
38.7805
39.1962
39.5434
40.0903
40.9402
41.8991
42.7678
43.5201
44.0225
44.3888
44.399
44.366
39.0462
39.459
39.839
40.3543
41.0963
41.9301
42.6974
43.3734
43.8341
44.171
44.1822
44.1506
39.304
39.711
40.0908
40.5674
41.2229
41.9599
42.6467
43.2589
43.6809
43.9878
43.9933
43.9686
39.5398
39.9411
40.3027
40.7393
41.3245
41.9839
42.6049
43.1625
43.5492
43.8286
43.8302
43.8981
39.7442
40.1428
40.4786
40.8781
41.4061
42.0027
42.5689
43.0796
43.4348
43.6882
43.7006
43.8471
39.9139
40.3148
40.6233
40.991
41.4728
42.0181
42.5382
43.0088
43.3379
43.5615
43.5844
43.5123
40.0493
40.4597
40.7426
41.0845
41.5289
42.0317
42.5124
42.9489
43.2551
43.4531
43.4718
43.3951
40.1522
40.5828
40.8421
41.1632
41.577
42.0443
42.492
42.8974
43.1845
43.3626
43.3835
43.6156
40.2412
40.6912
40.9265
41.2306
41.6188
42.0563
42.4756
42.8544
43.1252
43.2903
43.3243
43.7703
40.4013
40.7916
40.9992
41.289
41.6555
42.068
42.4625
42.8187
43.0759
43.234
43.2806
43.828
44.4973
44.3568
43.4995
42.3572
40.7954
39.0455
37.2612
35.6568
34.5734
34.3171
34.9124
36.1475
44.1999
44.0872
43.3117
42.2658
40.8147
39.1854
37.5313
36.069
35.117
34.8765
35.3918
36.5403
43.9026
43.8456
43.1413
42.1926
40.8552
39.3509
37.8319
36.5
35.622
35.4326
35.9066
36.9571
43.634
43.671
43.0163
42.1509
40.9113
39.5168
38.1202
36.9006
36.0927
35.9173
36.3412
37.2938
43.4027
43.6353
42.9409
42.1445
40.9745
39.6713
38.3824
37.2576
36.5035
36.3215
36.6878
37.4335
44.0132
44.3956
43.1562
42.1046
41.0505
39.8126
38.6119
37.5634
36.8459
36.6502
36.7252
37.2493
45.951
44.5216
43.2137
41.7682
40.7997
39.8302
38.7877
37.7754
36.867
36.4181
36.7391
37.4958
45.6593
44.3606
43.156
41.7381
40.4415
39.2508
38.1881
37.259
36.6997
36.6009
37.0578
37.7299
45.357
44.1489
43.0741
41.7766
40.5573
39.3495
38.2607
37.4544
37.0109
36.9219
37.3213
37.894
45.0632
43.9586
42.9824
41.7862
40.6473
39.5169
38.5015
37.7342
37.2963
37.179
37.5164
37.9928
44.8104
43.7937
42.8912
41.7795
40.7076
39.6411
38.686
37.9526
37.5201
37.378
37.6524
38.0263
44.5709
43.6485
42.8043
41.7634
40.7477
39.734
38.8285
38.1246
37.6961
37.5326
37.7386
37.9605
37.9697
39.9453
41.9904
44.0726
45.9072
47.4037
47.5718
47.4619
46.2224
46.8129
43.7483
47.7708
38.2624
40.0866
41.908
43.7193
45.4452
46.5751
46.9351
47.0006
46.0809
46.35
43.5015
52.5655
38.5692
40.1862
41.7275
43.4389
44.9894
46.1655
46.4713
46.5962
45.9027
45.9401
43.2739
44.689
38.7523
40.0132
41.6946
43.2821
44.6885
45.7675
46.127
46.2681
45.7299
45.6308
43.4879
44.2494
38.6731
40.1488
41.7566
43.1858
44.467
45.4469
45.8362
45.9815
45.5552
45.3774
43.6621
43.9172
38.9181
40.3753
41.819
43.1156
44.2825
45.1756
45.572
45.7171
45.3754
45.1492
43.7587
43.6738
39.2463
40.5681
41.8769
43.0604
44.1253
44.9414
45.3304
45.4713
45.1914
44.9357
43.7882
43.4589
39.5321
40.7314
41.9342
43.0181
43.9916
44.7382
45.1113
45.2439
45.0067
44.7307
43.7596
43.2563
39.7834
40.8813
41.9877
42.9868
43.8779
44.5615
44.9141
45.0346
44.8248
44.5308
43.6811
43.0465
40.0157
41.0227
42.0426
42.9644
43.7811
44.408
44.7376
44.8434
44.6486
44.3346
43.5584
42.8117
40.2475
41.164
42.0982
42.9494
43.6991
44.2749
44.5807
44.6703
44.4808
44.1429
43.3987
42.5337
40.5325
41.3108
42.1542
42.9405
43.63
44.1603
44.4424
44.5151
44.3238
43.9588
43.2148
42.1964
39.9803
40.3571
40.2126
39.7024
39.1908
39.0293
38.9441
38.9565
39.1267
39.4059
39.8255
39.7222
40.5048
40.4335
40.2681
39.7796
39.2751
39.1133
39.0308
39.0431
39.1969
39.4451
39.7935
39.6897
40.9227
40.5022
40.299
39.8333
39.345
39.1806
39.0983
39.1089
39.2488
39.4724
39.7679
39.7213
41.1809
40.5724
40.3065
39.8702
39.4021
39.2343
39.1508
39.1594
39.2881
39.4928
39.7491
39.735
41.2122
40.6244
40.3069
39.896
39.4479
39.2765
39.1915
39.1985
39.3186
39.509
39.7357
39.7344
41.2487
40.6596
40.3053
39.9136
39.4834
39.3084
39.2225
39.2288
39.3428
39.5227
39.7271
39.732
41.254
40.6831
40.3024
39.9243
39.5101
39.3309
39.2448
39.2518
39.3622
39.5349
39.7229
39.7326
41.2546
40.7003
40.2984
39.9294
39.5275
39.3446
39.2593
39.2684
39.3775
39.546
39.7229
39.737
41.2514
40.7166
40.2935
39.9296
39.5358
39.3496
39.2661
39.2788
39.3889
39.5562
39.7266
39.7456
41.2573
40.7333
40.2871
39.9248
39.5353
39.3463
39.2654
39.283
39.3964
39.5656
39.7342
39.7591
41.3042
40.7499
40.278
39.9154
39.5265
39.335
39.2577
39.2815
39.4004
39.5744
39.7459
39.7783
41.3843
40.7639
40.2674
39.9044
39.513
39.3198
39.2463
39.2762
39.4014
39.5821
39.7596
39.8007
42.6685
43.0434
43.0435
43.1963
43.2975
43.4625
43.6375
44.0105
44.666
45.5787
46.4056
46.9932
42.7832
43.0458
43.065
43.2203
43.3386
43.5129
43.7181
44.1044
44.7349
45.5691
46.3237
46.8639
42.8322
43.0486
43.087
43.2433
43.3755
43.5589
43.788
44.1834
44.7912
45.561
46.2562
46.756
42.878
43.0535
43.1094
43.2652
43.4084
43.6004
43.8482
44.2499
44.8374
45.5548
46.2013
46.6668
42.9218
43.0609
43.1305
43.2854
43.4375
43.6372
43.8997
44.3057
44.8756
45.5506
46.1573
46.5942
42.9576
43.0691
43.1496
43.3038
43.4629
43.6692
43.9432
44.3522
44.9074
45.5485
46.123
46.5363
42.9836
43.0764
43.1661
43.3201
43.4847
43.6964
43.9795
44.3906
44.934
45.5484
46.0974
46.4914