/*--------------------------------*- C++ -*----------------------------------*\
| =========                 |                                                 |
| \\      /  F ield         | OpenFOAM: The Open Source CFD Toolbox           |
|  \\    /   O peration     | Version:  v1606+                                |
|   \\  /    A nd           | Web:      www.OpenFOAM.com                      |
|    \\/     M anipulation  |                                                 |
\*---------------------------------------------------------------------------*/
FoamFile
{
    version     2.0;
    format      ascii;
    class       surfaceScalarField;
    location    "1.7";
    object      meshPhi;
}
// * * * * * * * * * * * * * * * * * * * * * * * * * * * * * * * * * * * * * //

dimensions      [0 3 -1 0 0 0 0];

internalField   nonuniform List<scalar> 
5856
(
-0.00031226
6.8541e-10
-0.000312259
-4.53416e-09
-0.000312257
2.96041e-09
-0.000312262
2.26709e-09
-0.000312259
-5.2519e-10
-0.000312264
1.85614e-09
-0.000312261
-2.09666e-09
-0.000312262
3.45129e-09
-0.000312261
-2.43748e-09
-0.00031226
-1.34589e-09
-0.000312268
7.68238e-09
-3.29902e-09
-0.000312267
-0.000349002
4.9193e-09
-0.000349
-7.5697e-09
-0.000348996
2.7615e-10
-0.000348999
6.1171e-09
-0.000348993
-5.93745e-09
-0.000348995
3.12073e-09
-0.000348998
2.50275e-10
-0.000348995
1.4193e-10
-0.000348994
-4.60109e-09
-0.000348997
1.00698e-09
-0.000348992
2.40525e-09
1.85948e-09
-0.000348996
-0.000385728
-3.42415e-09
-0.000385737
3.2935e-10
-0.000385741
3.95545e-09
-0.000385729
-5.17503e-09
-0.000385743
7.7771e-09
-0.000385734
-6.92439e-09
-0.000385735
2.49615e-10
-0.000385734
1.7428e-10
-0.000385741
2.10445e-09
-0.000385739
-1.46003e-09
-0.000385736
-1.95291e-09
2.21019e-09
-0.000385734
-0.000422476
4.8148e-09
-0.00042248
5.6321e-09
-0.000422465
-1.06318e-08
-0.000422473
1.37835e-09
-0.000422467
5.7081e-10
-0.000422474
2.23315e-09
-0.000422479
4.99115e-09
-0.000422472
-7.28672e-09
-0.000422461
-6.9594e-09
-0.000422469
8.43025e-09
-0.00042247
-2.19416e-09
1.06133e-08
-0.000422479
-0.000459205
-6.805e-10
-0.000459203
5.818e-09
-0.000459207
-5.76265e-09
-0.000459211
5.906e-09
-0.000459205
-5.53497e-09
-0.000459198
-4.85534e-09
-0.000459199
5.37671e-09
-0.000459212
6.79389e-09
-0.000459216
-3.5145e-09
-0.000459207
-1.0086e-09
-0.000459208
-1.35728e-09
-1.2429e-09
-0.000459197
-0.000495948
8.6456e-09
-0.000495947
4.51345e-09
-0.000495952
-1.4486e-09
-0.000495933
-1.32431e-08
-0.000495953
1.49303e-08
-0.000495958
-1.12872e-09
-0.000495944
-9.39113e-09
-0.000495943
7.3396e-09
-0.000495953
5.44493e-09
-0.00049594
-1.36917e-08
-0.000495944
3.95331e-09
-2.9661e-09
-0.000495942
-0.000532677
-2.6428e-09
-0.000532676
2.9586e-09
-0.000532682
5.0885e-09
-0.000532701
7.121e-09
-0.000532681
-4.3665e-09
-0.00053268
-2.30148e-09
-0.000532691
1.5001e-09
-0.000532681
-2.03859e-09
-0.00053268
3.52066e-09
-0.00053269
-3.95385e-09
-0.000532692
5.38014e-09
-5.24522e-09
-0.000532691
-0.00056943
7.4785e-09
-0.000569412
-1.63912e-08
-0.00056941
1.2093e-09
-0.000569414
1.00148e-08
-0.00056942
4.164e-09
-0.000569422
2.06545e-09
-0.000569417
-3.9291e-09
-0.000569418
-2.1481e-09
-0.000569412
-1.10955e-09
-0.000569417
2.00095e-09
-0.000569407
-3.96733e-09
3.24517e-09
-0.000569416
-0.000606149
7.9287e-09
-0.000606165
-2.10545e-09
-0.000606164
-1.47235e-09
-0.000606159
5.4863e-09
-0.000606149
-6.44375e-09
-0.000606142
-8.7323e-09
-0.000606154
6.04624e-09
-0.000606149
-8.56019e-09
-0.000606152
1.08993e-09
-0.000606161
9.37172e-09
-0.000606156
-1.14683e-08
9.7627e-10
-0.000606151
-0.000642876
-1.13542e-08
-0.000642894
1.62967e-08
-0.000642892
-4.3373e-09
-0.000642876
-7.8277e-09
-0.000642894
1.23354e-08
-0.000642898
-2.0979e-09
-0.000642891
3.4716e-10
-0.000642903
7.25059e-09
-0.000642902
1.44327e-09
-0.000642876
-1.6216e-08
-0.000642892
3.98812e-09
1.59197e-09
-0.00064289
-0.000679643
-9.6707e-09
-0.000679621
-3.8002e-09
-0.000679627
1.75645e-09
-0.000679644
6.2274e-09
-0.00067963
1.026e-10
-0.000679629
-1.9269e-09
-0.000679627
-6.1145e-10
-0.000679627
7.68476e-09
-0.000679612
-1.31306e-08
-0.00067964
1.13973e-08
-0.000679625
-1.13057e-08
1.46115e-08
-0.000679639
-0.000716359
-1.01999e-08
-0.000716368
3.8775e-09
-0.000716373
8.64505e-09
-0.000716357
-1.23618e-08
-0.000716345
-1.26779e-08
-0.000716365
1.57985e-08
-0.000716364
-3.21126e-09
-0.000716365
8.12223e-09
-0.000716376
-6.36235e-10
-0.000716358
-5.83566e-09
-0.000716379
9.10002e-09
-0.000716361
-3.89978e-09
-0.00031226
-2.63695e-09
-0.000312258
-2.92545e-09
-0.00031226
3.91709e-09
-0.000312265
-1.08661e-09
-0.000312262
3.51478e-09
-0.000312268
-2.58041e-09
-0.00031226
-2.81567e-09
-0.000312264
1.25561e-09
-0.000312258
-1.39891e-09
-0.000312264
3.28927e-09
-0.000312266
-3.8158e-09
-5.429e-10
-0.000348997
-3.19544e-09
-0.000349002
1.59112e-09
-0.000348997
-1.42387e-09
-0.000349003
4.82646e-09
-0.000348996
-2.58939e-09
-0.000348998
-1.54081e-09
-0.000349003
3.69102e-09
-0.000349002
-1.37563e-09
-0.000349004
1.78015e-09
-0.000349
-1.34203e-09
-0.000348998
-5.66469e-09
1.82264e-09
-0.000385741
4.54363e-09
-0.000385731
-8.16281e-09
-0.000385733
1.42393e-09
-0.000385732
2.63362e-09
-0.000385733
-1.38051e-09
-0.000385735
-1.96577e-09
-0.000385727
-2.81735e-09
-0.000385728
-3.19113e-09
-0.000385731
6.9516e-09
-0.000385731
-2.70635e-09
-0.000385736
6.59475e-10
2.60697e-09
-0.000422461
-1.41063e-08
-0.000422476
7.12452e-09
-0.000422479
4.83715e-09
-0.000422477
1.37652e-09
-0.00042247
-8.01855e-09
-0.00042248
5.55332e-09
-0.000422478
-4.72416e-09
-0.000422475
-6.80616e-09
-0.00042247
2.18788e-09
-0.00042247
-4.77669e-09
-0.00042247
3.22959e-09
-1.64857e-09
-0.000459215
4.01917e-09
-0.000459213
5.18493e-09
-0.000459207
-2.29498e-09
-0.000459193
-1.10195e-08
-0.000459216
1.66026e-08
-0.000459198
-1.41496e-08
-0.000459206
3.71829e-09
-0.000459208
-3.46357e-09
-0.000459207
2.68319e-09
-0.000459209
-3.10611e-09
-0.000459215
7.23237e-09
-6.5394e-09
-0.000495942
3.39318e-09
-0.00049594
2.98293e-09
-0.000495943
1.32784e-09
-0.00049595
-3.14749e-09
-0.000495944
1.01187e-08
-0.00049594
-1.75413e-08
-0.000495942
7.33334e-09
-0.000495949
3.63324e-09
-0.00049594
-5.1769e-09
-0.000495946
5.62899e-09
-0.000495937
2.7709e-10
-4.94112e-09
-0.00053268
-7.12407e-09
-0.000532675
-8.45935e-10
-0.00053268
3.2012e-09
-0.000532676
-7.8122e-09
-0.00053267
2.70085e-09
-0.000532689
3.31543e-09
-0.000532689
5.79377e-09
-0.000532682
-4.09309e-09
-0.000532691
4.81539e-09
-0.000532674
-1.22899e-08
-0.00053268
5.97384e-09
1.82934e-09
-0.000569428
4.99471e-09
-0.000569423
-4.00558e-09
-0.000569416
-5.89495e-09
-0.000569425
1.95186e-09
-0.000569415
-7.32432e-09
-0.000569415
5.65853e-09
-0.000569414
6.34338e-09
-0.000569411
-8.76278e-09
-0.000569413
6.15335e-09
-0.000569431
7.6877e-09
-0.000569427
6.9521e-10
-3.27589e-09
-0.000606152
4.3506e-09
-0.000606148
-7.55314e-09
-0.000606164
1.28362e-08
-0.000606162
2.757e-10
-0.000606152
-1.70444e-08
-0.000606152
5.59357e-09
-0.000606143
-3.85067e-09
-0.000606155
2.18243e-09
-0.000606154
5.07186e-09
-0.000606146
-2.57235e-09
-0.000606148
2.66532e-09
-2.2534e-09
-0.000642888
4.97751e-09
-0.000642899
3.6934e-09
-0.000642888
3.1995e-09
-0.000642886
-4.49673e-09
-0.000642903
-2.8117e-10
-0.000642901
5.22755e-09
-0.000642901
-6.5938e-09
-0.000642896
-2.63561e-09
-0.000642891
-1.4298e-10
-0.000642894
1.95865e-09
-0.000642899
8.7193e-09
-6.8643e-09
-0.000679624
-1.13842e-08
-0.000679636
1.20514e-08
-0.000679625
-7.7639e-09
-0.000679637
7.46676e-09
-0.000679626
-1.06083e-08
-0.000679625
4.7843e-09
-0.000679625
-6.7233e-09
-0.000679634
6.6819e-09
-0.000679635
1.5695e-09
-0.000679631
-2.10885e-09
-0.000679626
8.2934e-10
8.79615e-09
-0.000716374
3.58643e-09
-0.000716357
-4.13795e-09
-0.000716363
-2.49915e-09
-0.000716359
1.6627e-09
-0.000716363
-8.68812e-09
-0.000716362
4.54361e-09
-0.000716375
6.51686e-09
-0.000716352
-1.90723e-08
-0.000716364
1.49284e-08
-0.000716368
3.74449e-09
-0.000716374
8.29668e-09
-8.04305e-09
-0.00031226
6.8541e-10
-0.000312259
-4.53416e-09
-0.000312257
2.96041e-09
-0.000312262
2.26709e-09
-0.000312259
-5.2519e-10
-0.000312264
1.85614e-09
-0.000312261
-2.09666e-09
-0.000312262
3.45129e-09
-0.000312261
-2.43748e-09
-0.00031226
-1.34589e-09
-0.000312268
7.68238e-09
-3.29902e-09
-0.000312267
-0.000349002
4.9193e-09
-0.000349
-7.5697e-09
-0.000348996
2.7615e-10
-0.000348999
6.1171e-09
-0.000348993
-5.93745e-09
-0.000348995
3.12073e-09
-0.000348998
2.50275e-10
-0.000348995
1.4193e-10
-0.000348994
-4.60109e-09
-0.000348997
1.00698e-09
-0.000348992
2.40525e-09
1.85948e-09
-0.000348996
-0.000385728
-3.42415e-09
-0.000385737
3.2935e-10
-0.000385741
3.95545e-09
-0.000385729
-5.17503e-09
-0.000385743
7.7771e-09
-0.000385734
-6.92439e-09
-0.000385735
2.49615e-10
-0.000385734
1.7428e-10
-0.000385741
2.10445e-09
-0.000385739
-1.46003e-09
-0.000385736
-1.95291e-09
2.21019e-09
-0.000385734
-0.000422476
4.8148e-09
-0.00042248
5.6321e-09
-0.000422465
-1.06318e-08
-0.000422473
1.37835e-09
-0.000422467
5.7081e-10
-0.000422474
2.23315e-09
-0.000422479
4.99115e-09
-0.000422472
-7.28672e-09
-0.000422461
-6.9594e-09
-0.000422469
8.43025e-09
-0.00042247
-2.19416e-09
1.06133e-08
-0.000422479
-0.000459205
-6.805e-10
-0.000459203
5.818e-09
-0.000459207
-5.76265e-09
-0.000459211
5.906e-09
-0.000459205
-5.53497e-09
-0.000459198
-4.85534e-09
-0.000459199
5.37671e-09
-0.000459212
6.79389e-09
-0.000459216
-3.5145e-09
-0.000459207
-1.0086e-09
-0.000459208
-1.35728e-09
-1.2429e-09
-0.000459197
-0.000495948
8.6456e-09
-0.000495947
4.51345e-09
-0.000495952
-1.4486e-09
-0.000495933
-1.32431e-08
-0.000495953
1.49303e-08
-0.000495958
-1.12872e-09
-0.000495944
-9.39113e-09
-0.000495943
7.3396e-09
-0.000495953
5.44493e-09
-0.00049594
-1.36917e-08
-0.000495944
3.95331e-09
-2.9661e-09
-0.000495942
-0.000532677
-2.6428e-09
-0.000532676
2.9586e-09
-0.000532682
5.0885e-09
-0.000532701
7.121e-09
-0.000532681
-4.3665e-09
-0.00053268
-2.30148e-09
-0.000532691
1.5001e-09
-0.000532681
-2.03859e-09
-0.00053268
3.52066e-09
-0.00053269
-3.95385e-09
-0.000532692
5.38014e-09
-5.24522e-09
-0.000532691
-0.00056943
7.4785e-09
-0.000569412
-1.63912e-08
-0.00056941
1.2093e-09
-0.000569414
1.00148e-08
-0.00056942
4.164e-09
-0.000569422
2.06545e-09
-0.000569417
-3.9291e-09
-0.000569418
-2.1481e-09
-0.000569412
-1.10955e-09
-0.000569417
2.00095e-09
-0.000569407
-3.96733e-09
3.24517e-09
-0.000569416
-0.000606149
7.9287e-09
-0.000606165
-2.10545e-09
-0.000606164
-1.47235e-09
-0.000606159
5.4863e-09
-0.000606149
-6.44375e-09
-0.000606142
-8.7323e-09
-0.000606154
6.04624e-09
-0.000606149
-8.56019e-09
-0.000606152
1.08993e-09
-0.000606161
9.37172e-09
-0.000606156
-1.14683e-08
9.7627e-10
-0.000606151
-0.000642876
-1.13542e-08
-0.000642894
1.62967e-08
-0.000642892
-4.3373e-09
-0.000642876
-7.8277e-09
-0.000642894
1.23354e-08
-0.000642898
-2.0979e-09
-0.000642891
3.4716e-10
-0.000642903
7.25059e-09
-0.000642902
1.44327e-09
-0.000642876
-1.6216e-08
-0.000642892
3.98812e-09
1.59197e-09
-0.00064289
-0.000679643
-9.6707e-09
-0.000679621
-3.8002e-09
-0.000679627
1.75645e-09
-0.000679644
6.2274e-09
-0.00067963
1.026e-10
-0.000679629
-1.9269e-09
-0.000679627
-6.1145e-10
-0.000679627
7.68476e-09
-0.000679612
-1.31306e-08
-0.00067964
1.13973e-08
-0.000679625
-1.13057e-08
1.46115e-08
-0.000679639
-0.000716359
-1.01999e-08
-0.000716368
3.8775e-09
-0.000716373
8.64505e-09
-0.000716357
-1.23618e-08
-0.000716345
-1.26779e-08
-0.000716365
1.57985e-08
-0.000716364
-3.21126e-09
-0.000716365
8.12223e-09
-0.000716376
-6.36235e-10
-0.000716358
-5.83566e-09
-0.000716379
9.10002e-09
-0.000716361
-3.89978e-09
-0.00031226
-2.63695e-09
-0.000312258
-2.92545e-09
-0.00031226
3.91709e-09
-0.000312265
-1.08661e-09
-0.000312262
3.51478e-09
-0.000312268
-2.58041e-09
-0.00031226
-2.81567e-09
-0.000312264
1.25561e-09
-0.000312258
-1.39891e-09
-0.000312264
3.28927e-09
-0.000312266
-3.8158e-09
-5.429e-10
-0.000348997
-3.19544e-09
-0.000349002
1.59112e-09
-0.000348997
-1.42387e-09
-0.000349003
4.82646e-09
-0.000348996
-2.58939e-09
-0.000348998
-1.54081e-09
-0.000349003
3.69102e-09
-0.000349002
-1.37563e-09
-0.000349004
1.78015e-09
-0.000349
-1.34203e-09
-0.000348998
-5.66469e-09
1.82264e-09
-0.000385741
4.54363e-09
-0.000385731
-8.16281e-09
-0.000385733
1.42393e-09
-0.000385732
2.63362e-09
-0.000385733
-1.38051e-09
-0.000385735
-1.96577e-09
-0.000385727
-2.81735e-09
-0.000385728
-3.19113e-09
-0.000385731
6.9516e-09
-0.000385731
-2.70635e-09
-0.000385736
6.59475e-10
2.60697e-09
-0.000422461
-1.41063e-08
-0.000422476
7.12452e-09
-0.000422479
4.83715e-09
-0.000422477
1.37652e-09
-0.00042247
-8.01855e-09
-0.00042248
5.55332e-09
-0.000422478
-4.72416e-09
-0.000422475
-6.80616e-09
-0.00042247
2.18788e-09
-0.00042247
-4.77669e-09
-0.00042247
3.22959e-09
-1.64857e-09
-0.000459215
4.01917e-09
-0.000459213
5.18493e-09
-0.000459207
-2.29498e-09
-0.000459193
-1.10195e-08
-0.000459216
1.66026e-08
-0.000459198
-1.41496e-08
-0.000459206
3.71829e-09
-0.000459208
-3.46357e-09
-0.000459207
2.68319e-09
-0.000459209
-3.10611e-09
-0.000459215
7.23237e-09
-6.5394e-09
-0.000495942
3.39318e-09
-0.00049594
2.98293e-09
-0.000495943
1.32784e-09
-0.00049595
-3.14749e-09
-0.000495944
1.01187e-08
-0.00049594
-1.75413e-08
-0.000495942
7.33334e-09
-0.000495949
3.63324e-09
-0.00049594
-5.1769e-09
-0.000495946
5.62899e-09
-0.000495937
2.7709e-10
-4.94112e-09
-0.00053268
-7.12407e-09
-0.000532675
-8.45935e-10
-0.00053268
3.2012e-09
-0.000532676
-7.8122e-09
-0.00053267
2.70085e-09
-0.000532689
3.31543e-09
-0.000532689
5.79377e-09
-0.000532682
-4.09309e-09
-0.000532691
4.81539e-09
-0.000532674
-1.22899e-08
-0.00053268
5.97384e-09
1.82934e-09
-0.000569428
4.99471e-09
-0.000569423
-4.00558e-09
-0.000569416
-5.89495e-09
-0.000569425
1.95186e-09
-0.000569415
-7.32432e-09
-0.000569415
5.65853e-09
-0.000569414
6.34338e-09
-0.000569411
-8.76278e-09
-0.000569413
6.15335e-09
-0.000569431
7.6877e-09
-0.000569427
6.9521e-10
-3.27589e-09
-0.000606152
4.3506e-09
-0.000606148
-7.55314e-09
-0.000606164
1.28362e-08
-0.000606162
2.757e-10
-0.000606152
-1.70444e-08
-0.000606152
5.59357e-09
-0.000606143
-3.85067e-09
-0.000606155
2.18243e-09
-0.000606154
5.07186e-09
-0.000606146
-2.57235e-09
-0.000606148
2.66532e-09
-2.2534e-09
-0.000642888
4.97751e-09
-0.000642899
3.6934e-09
-0.000642888
3.1995e-09
-0.000642886
-4.49673e-09
-0.000642903
-2.8117e-10
-0.000642901
5.22755e-09
-0.000642901
-6.5938e-09
-0.000642896
-2.63561e-09
-0.000642891
-1.4298e-10
-0.000642894
1.95865e-09
-0.000642899
8.7193e-09
-6.8643e-09
-0.000679624
-1.13842e-08
-0.000679636
1.20514e-08
-0.000679625
-7.7639e-09
-0.000679637
7.46676e-09
-0.000679626
-1.06083e-08
-0.000679625
4.7843e-09
-0.000679625
-6.7233e-09
-0.000679634
6.6819e-09
-0.000679635
1.5695e-09
-0.000679631
-2.10885e-09
-0.000679626
8.2934e-10
8.79615e-09
-0.000716374
3.58643e-09
-0.000716357
-4.13795e-09
-0.000716363
-2.49915e-09
-0.000716359
1.6627e-09
-0.000716363
-8.68812e-09
-0.000716362
4.54361e-09
-0.000716375
6.51686e-09
-0.000716352
-1.90723e-08
-0.000716364
1.49284e-08
-0.000716368
3.74449e-09
-0.000716374
8.29668e-09
-8.04305e-09
-0.00031226
6.8541e-10
-0.000312259
-4.53416e-09
-0.000312257
2.96041e-09
-0.000312262
2.26709e-09
-0.000312259
-5.2519e-10
-0.000312263
1.51235e-09
-0.000312261
-1.71852e-09
-0.000312262
3.45129e-09
-0.000312261
-2.43748e-09
-0.00031226
-1.34589e-09
-0.000312268
7.68238e-09
-3.29902e-09
-0.000312267
-0.000349002
4.9193e-09
-0.000349
-7.5697e-09
-0.000348996
2.7615e-10
-0.000348999
6.1171e-09
-0.000348993
-5.93745e-09
-0.000348995
3.12073e-09
-0.000348998
2.50275e-10
-0.000348995
1.4193e-10
-0.000348994
-4.60109e-09
-0.000348997
1.00698e-09
-0.000348992
2.40525e-09
1.85948e-09
-0.000348996
-0.000385728
-3.42415e-09
-0.000385737
3.2935e-10
-0.000385741
3.95545e-09
-0.000385729
-5.17503e-09
-0.000385743
7.7771e-09
-0.000385734
-6.92439e-09
-0.000385735
2.49615e-10
-0.000385734
1.7428e-10
-0.000385741
2.10445e-09
-0.000385739
-1.46003e-09
-0.000385736
-1.95291e-09
2.21019e-09
-0.000385734
-0.000422476
4.8148e-09
-0.00042248
5.6321e-09
-0.000422465
-1.06318e-08
-0.000422473
1.37835e-09
-0.000422467
5.7081e-10
-0.000422474
2.23315e-09
-0.000422479
4.99115e-09
-0.000422472
-7.28672e-09
-0.000422461
-6.9594e-09
-0.000422469
8.40398e-09
-0.00042247
-2.16841e-09
1.06133e-08
-0.000422479
-0.000459205
-6.805e-10
-0.000459203
5.818e-09
-0.000459207
-5.76265e-09
-0.000459211
5.906e-09
-0.000459205
-5.53497e-09
-0.000459198
-4.85534e-09
-0.000459199
5.37671e-09
-0.000459212
6.79389e-09
-0.000459216
-3.5145e-09
-0.000459207
-1.0086e-09
-0.000459208
-1.35728e-09
-1.2429e-09
-0.000459197
-0.000495948
8.6456e-09
-0.000495947
4.51345e-09
-0.000495952
-1.4486e-09
-0.000495933
-1.32431e-08
-0.000495953
1.49303e-08
-0.000495958
-1.12872e-09
-0.000495944
-9.39113e-09
-0.000495943
7.3396e-09
-0.000495953
5.44493e-09
-0.00049594
-1.36917e-08
-0.000495944
3.95331e-09
-2.9661e-09
-0.000495942
-0.000532677
-2.6428e-09
-0.000532676
2.9586e-09
-0.000532682
5.0885e-09
-0.000532701
7.121e-09
-0.000532681
-4.3665e-09
-0.00053268
-2.30148e-09
-0.000532691
1.5001e-09
-0.000532681
-2.03859e-09
-0.00053268
3.52066e-09
-0.00053269
-3.95385e-09
-0.000532692
5.38014e-09
-5.24522e-09
-0.000532691
-0.00056943
7.4785e-09
-0.000569412
-1.63912e-08
-0.00056941
1.2093e-09
-0.000569414
1.00148e-08
-0.00056942
4.164e-09
-0.000569422
2.06545e-09
-0.000569417
-3.9291e-09
-0.000569418
-2.1481e-09
-0.000569412
-1.10955e-09
-0.000569417
2.00095e-09
-0.000569407
-3.96733e-09
3.24517e-09
-0.000569416
-0.000606149
7.9287e-09
-0.000606165
-2.10545e-09
-0.000606164
-1.47235e-09
-0.000606159
5.4863e-09
-0.000606149
-6.44375e-09
-0.000606142
-8.7323e-09
-0.000606154
6.04624e-09
-0.000606149
-8.56019e-09
-0.000606152
1.08993e-09
-0.000606161
9.37172e-09
-0.000606156
-1.14683e-08
9.7627e-10
-0.000606151
-0.000642876
-1.13542e-08
-0.000642894
1.62967e-08
-0.000642892
-4.3373e-09
-0.000642876
-7.8277e-09
-0.000642894
1.23354e-08
-0.000642898
-2.0979e-09
-0.000642891
3.4716e-10
-0.000642903
7.25059e-09
-0.000642902
1.44327e-09
-0.000642876
-1.6216e-08
-0.000642892
3.98812e-09
1.59197e-09
-0.00064289
-0.000679643
-9.6707e-09
-0.000679621
-3.8002e-09
-0.000679627
1.75645e-09
-0.000679644
6.2274e-09
-0.00067963
1.026e-10
-0.000679629
-1.9269e-09
-0.000679627
-6.1145e-10
-0.000679627
7.68476e-09
-0.000679612
-1.31306e-08
-0.00067964
1.13973e-08
-0.000679625
-1.16388e-08
1.49162e-08
-0.000679639
-0.000716359
-1.01999e-08
-0.000716368
3.8775e-09
-0.000716373
8.64505e-09
-0.000716357
-1.23618e-08
-0.000716345
-1.26779e-08
-0.000716365
1.57985e-08
-0.000716364
-3.21126e-09
-0.000716365
8.12223e-09
-0.000716376
-6.36235e-10
-0.000716358
-5.83566e-09
-0.000716379
9.10002e-09
-0.000716361
-3.89978e-09
-0.00031226
-2.63695e-09
-0.000312258
-2.92545e-09
-0.00031226
3.91709e-09
-0.000312265
-1.08661e-09
-0.000312262
3.51478e-09
-0.000312268
-2.58041e-09
-0.00031226
-2.81567e-09
-0.000312264
1.25561e-09
-0.000312258
-1.39891e-09
-0.000312264
3.28927e-09
-0.000312266
-3.8158e-09
-5.429e-10
-0.000348997
-3.19544e-09
-0.000349002
1.59112e-09
-0.000348997
-1.42387e-09
-0.000349003
4.82646e-09
-0.000348996
-2.58939e-09
-0.000348998
-1.54081e-09
-0.000349003
3.69102e-09
-0.000349002
-1.37563e-09
-0.000349004
1.78015e-09
-0.000349
-1.34203e-09
-0.000348998
-5.66469e-09
1.82264e-09
-0.000385741
4.54363e-09
-0.000385731
-8.16281e-09
-0.000385733
1.42393e-09
-0.000385732
2.63362e-09
-0.000385733
-1.38051e-09
-0.000385735
-1.96577e-09
-0.000385727
-2.81735e-09
-0.000385728
-3.19113e-09
-0.000385731
6.9516e-09
-0.000385731
-2.70635e-09
-0.000385736
6.59475e-10
2.60697e-09
-0.000422461
-1.41063e-08
-0.000422476
7.12452e-09
-0.000422479
4.83715e-09
-0.000422477
1.37652e-09
-0.00042247
-8.01855e-09
-0.00042248
5.55332e-09
-0.000422478
-4.72416e-09
-0.000422475
-6.80616e-09
-0.00042247
2.18788e-09
-0.00042247
-4.77669e-09
-0.00042247
3.22959e-09
-1.64857e-09
-0.000459215
4.01917e-09
-0.000459213
5.18493e-09
-0.000459207
-2.29498e-09
-0.000459193
-1.10195e-08
-0.000459216
1.66026e-08
-0.000459198
-1.41496e-08
-0.000459206
3.74758e-09
-0.000459208
-3.49314e-09
-0.000459207
2.68319e-09
-0.000459209
-3.10611e-09
-0.000459215
7.23237e-09
-6.5394e-09
-0.000495942
3.39318e-09
-0.00049594
2.98293e-09
-0.000495943
1.32784e-09
-0.00049595
-3.14749e-09
-0.000495944
1.01187e-08
-0.00049594
-1.75413e-08
-0.000495942
7.33334e-09
-0.000495949
3.63324e-09
-0.00049594
-5.1769e-09
-0.000495946
5.62899e-09
-0.000495937
2.7709e-10
-4.94112e-09
-0.00053268
-7.12407e-09
-0.000532675
-8.45935e-10
-0.00053268
3.2012e-09
-0.000532676
-7.8122e-09
-0.00053267
2.70085e-09
-0.000532689
3.31543e-09
-0.000532689
5.79377e-09
-0.000532682
-4.09309e-09
-0.000532691
4.81539e-09
-0.000532674
-1.22899e-08
-0.00053268
5.97384e-09
1.82934e-09
-0.000569428
4.99471e-09
-0.000569423
-4.00558e-09
-0.000569416
-5.89495e-09
-0.000569425
1.95186e-09
-0.000569415
-7.32432e-09
-0.000569415
5.65853e-09
-0.000569414
6.34338e-09
-0.000569411
-8.76278e-09
-0.000569413
6.15335e-09
-0.000569431
7.6877e-09
-0.000569427
6.9521e-10
-3.27589e-09
-0.000606152
4.3506e-09
-0.000606148
-7.55314e-09
-0.000606164
1.28362e-08
-0.000606162
2.757e-10
-0.000606152
-1.70444e-08
-0.000606152
5.59357e-09
-0.000606143
-3.85067e-09
-0.000606155
2.18243e-09
-0.000606154
5.07186e-09
-0.000606146
-2.57235e-09
-0.000606148
2.66532e-09
-2.2534e-09
-0.000642888
4.97751e-09
-0.000642899
3.6934e-09
-0.000642888
3.1995e-09
-0.000642886
-4.49673e-09
-0.000642903
-2.8117e-10
-0.000642901
5.22755e-09
-0.000642901
-6.5938e-09
-0.000642896
-2.63561e-09
-0.000642891
-1.4298e-10
-0.000642894
1.95865e-09
-0.000642899
8.7193e-09
-6.8643e-09
-0.000679624
-1.13842e-08
-0.000679636
1.20514e-08
-0.000679625
-7.7639e-09
-0.000679637
7.46676e-09
-0.000679626
-1.06083e-08
-0.000679625
4.7843e-09
-0.000679625
-6.7233e-09
-0.000679634
6.6819e-09
-0.000679635
1.5695e-09
-0.000679631
-2.10885e-09
-0.000679626
8.2934e-10
8.79615e-09
-0.000716374
3.58643e-09
-0.000716357
-4.13795e-09
-0.000716363
-2.49915e-09
-0.000716359
1.6627e-09
-0.000716363
-8.68812e-09
-0.000716362
4.54361e-09
-0.000716375
6.56193e-09
-0.000716352
-1.91178e-08
-0.000716364
1.49284e-08
-0.000716368
3.74449e-09
-0.000716374
8.29668e-09
-8.04305e-09
-0.00031226
6.8541e-10
-0.000312259
-4.53416e-09
-0.000312257
2.96041e-09
-0.000312262
2.26709e-09
-0.000312259
-5.2519e-10
-0.000312263
1.51235e-09
-0.000312261
-1.71852e-09
-0.000312262
3.45129e-09
-0.000312261
-2.43748e-09
-0.00031226
-1.34589e-09
-0.000312268
7.68238e-09
-3.29902e-09
-0.000312267
-0.000349002
4.9193e-09
-0.000349
-7.5697e-09
-0.000348996
2.7615e-10
-0.000348999
6.1171e-09
-0.000348993
-5.93745e-09
-0.000348995
3.12073e-09
-0.000348998
2.50275e-10
-0.000348995
1.4193e-10
-0.000348994
-4.60109e-09
-0.000348997
1.00698e-09
-0.000348992
2.40525e-09
1.85948e-09
-0.000348996
-0.000385728
-3.42415e-09
-0.000385737
3.2935e-10
-0.000385741
3.95545e-09
-0.000385729
-5.17503e-09
-0.000385743
7.7771e-09
-0.000385734
-6.92439e-09
-0.000385735
2.49615e-10
-0.000385734
1.7428e-10
-0.000385741
2.10445e-09
-0.000385739
-1.46003e-09
-0.000385736
-1.95291e-09
2.21019e-09
-0.000385734
-0.000422476
4.8148e-09
-0.00042248
5.6321e-09
-0.000422465
-1.06318e-08
-0.000422473
1.37835e-09
-0.000422467
5.7081e-10
-0.000422474
2.23315e-09
-0.000422479
4.99115e-09
-0.000422472
-7.28672e-09
-0.000422461
-6.9594e-09
-0.000422469
8.43025e-09
-0.00042247
-2.19416e-09
1.06133e-08
-0.000422479
-0.000459205
-6.805e-10
-0.000459203
5.818e-09
-0.000459207
-5.76265e-09
-0.000459211
5.906e-09
-0.000459205
-5.53497e-09
-0.000459198
-4.85534e-09
-0.000459199
5.37671e-09
-0.000459212
6.79389e-09
-0.000459216
-3.5145e-09
-0.000459207
-1.0086e-09
-0.000459208
-1.35728e-09
-1.2429e-09
-0.000459197
-0.000495948
8.6456e-09
-0.000495947
4.51345e-09
-0.000495952
-1.4486e-09
-0.000495933
-1.32431e-08
-0.000495953
1.49303e-08
-0.000495958
-1.12872e-09
-0.000495944
-9.39113e-09
-0.000495943
7.3396e-09
-0.000495953
5.44493e-09
-0.00049594
-1.36917e-08
-0.000495944
3.95331e-09
-2.9661e-09
-0.000495942
-0.000532677
-2.6428e-09
-0.000532676
2.9586e-09
-0.000532682
5.0885e-09
-0.000532701
7.121e-09
-0.000532681
-4.3665e-09
-0.00053268
-2.30148e-09
-0.000532691
1.5001e-09
-0.000532681
-2.03859e-09
-0.00053268
3.52066e-09
-0.00053269
-3.95385e-09
-0.000532692
5.38014e-09
-5.24522e-09
-0.000532691
-0.00056943
7.4785e-09
-0.000569412
-1.63912e-08
-0.00056941
1.2093e-09
-0.000569414
1.00148e-08
-0.00056942
4.164e-09
-0.000569422
2.06545e-09
-0.000569417
-3.9291e-09
-0.000569418
-2.1481e-09
-0.000569412
-1.10955e-09
-0.000569417
2.00095e-09
-0.000569407
-3.96733e-09
3.24517e-09
-0.000569416
-0.000606149
7.9287e-09
-0.000606165
-2.10545e-09
-0.000606164
-1.47235e-09
-0.000606159
5.4863e-09
-0.000606149
-6.44375e-09
-0.000606142
-8.7323e-09
-0.000606154
6.04624e-09
-0.000606149
-8.56019e-09
-0.000606152
1.08993e-09
-0.000606161
9.37172e-09
-0.000606156
-1.14683e-08
9.7627e-10
-0.000606151
-0.000642876
-1.13542e-08
-0.000642894
1.62967e-08
-0.000642892
-4.3373e-09
-0.000642876
-7.8277e-09
-0.000642894
1.23354e-08
-0.000642898
-2.0979e-09
-0.000642891
3.4716e-10
-0.000642903
7.25059e-09
-0.000642902
1.44327e-09
-0.000642876
-1.6216e-08
-0.000642892
3.98812e-09
1.59197e-09
-0.00064289
-0.000679643
-9.6707e-09
-0.000679621
-3.8002e-09
-0.000679627
1.75645e-09
-0.000679644
6.2274e-09
-0.00067963
1.026e-10
-0.000679629
-1.9269e-09
-0.000679627
-6.1145e-10
-0.000679627
7.68476e-09
-0.000679612
-1.31306e-08
-0.00067964
1.13973e-08
-0.000679625
-1.13057e-08
1.46115e-08
-0.000679639
-0.000716359
-1.01999e-08
-0.000716368
3.8775e-09
-0.000716373
8.64505e-09
-0.000716357
-1.23618e-08
-0.000716345
-1.26779e-08
-0.000716365
1.57985e-08
-0.000716364
-3.21126e-09
-0.000716365
8.12223e-09
-0.000716376
-6.36235e-10
-0.000716358
-5.83566e-09
-0.000716379
9.10002e-09
-0.000716361
-3.89978e-09
-0.00031226
-2.63695e-09
-0.000312258
-2.92545e-09
-0.00031226
3.91709e-09
-0.000312265
-1.08661e-09
-0.000312262
3.51478e-09
-0.000312268
-2.58041e-09
-0.00031226
-2.81567e-09
-0.000312264
1.25561e-09
-0.000312258
-1.39891e-09
-0.000312264
3.28927e-09
-0.000312266
-3.8158e-09
-5.429e-10
-0.000348997
-3.19544e-09
-0.000349002
1.59112e-09
-0.000348997
-1.42387e-09
-0.000349003
4.82646e-09
-0.000348996
-2.58939e-09
-0.000348998
-1.54081e-09
-0.000349003
3.69102e-09
-0.000349002
-1.37563e-09
-0.000349004
1.78015e-09
-0.000349
-1.34203e-09
-0.000348998
-5.66469e-09
1.82264e-09
-0.000385741
4.54363e-09
-0.000385731
-8.16281e-09
-0.000385733
1.42393e-09
-0.000385732
2.63362e-09
-0.000385733
-1.38051e-09
-0.000385735
-1.96577e-09
-0.000385727
-2.81735e-09
-0.000385728
-3.19113e-09
-0.000385731
6.9516e-09
-0.000385731
-2.70635e-09
-0.000385736
6.59475e-10
2.60697e-09
-0.000422461
-1.41063e-08
-0.000422476
7.12452e-09
-0.000422479
4.83715e-09
-0.000422477
1.37652e-09
-0.00042247
-8.01855e-09
-0.00042248
5.55332e-09
-0.000422478
-4.72416e-09
-0.000422475
-6.80616e-09
-0.00042247
2.18788e-09
-0.00042247
-4.77669e-09
-0.00042247
3.22959e-09
-1.64857e-09
-0.000459215
4.01917e-09
-0.000459213
5.18493e-09
-0.000459207
-2.29498e-09
-0.000459193
-1.10195e-08
-0.000459216
1.66026e-08
-0.000459198
-1.41496e-08
-0.000459206
3.71829e-09
-0.000459208
-3.46357e-09
-0.000459207
2.68319e-09
-0.000459209
-3.10611e-09
-0.000459215
7.23237e-09
-6.5394e-09
-0.000495942
3.39318e-09
-0.00049594
2.98293e-09
-0.000495943
1.32784e-09
-0.00049595
-3.14749e-09
-0.000495944
1.01187e-08
-0.00049594
-1.75413e-08
-0.000495942
7.33334e-09
-0.000495949
3.63324e-09
-0.00049594
-5.1769e-09
-0.000495946
5.62899e-09
-0.000495937
2.7709e-10
-4.94112e-09
-0.00053268
-7.12407e-09
-0.000532675
-8.45935e-10
-0.00053268
3.2012e-09
-0.000532676
-7.8122e-09
-0.00053267
2.70085e-09
-0.000532689
3.31543e-09
-0.000532689
5.79377e-09
-0.000532682
-4.09309e-09
-0.000532691
4.81539e-09
-0.000532674
-1.22899e-08
-0.00053268
5.97384e-09
1.82934e-09
-0.000569428
4.99471e-09
-0.000569423
-4.00558e-09
-0.000569416
-5.89495e-09
-0.000569425
1.95186e-09
-0.000569415
-7.32432e-09
-0.000569415
5.65853e-09
-0.000569414
6.34338e-09
-0.000569411
-8.76278e-09
-0.000569413
6.15335e-09
-0.000569431
7.6877e-09
-0.000569427
6.9521e-10
-3.27589e-09
-0.000606152
4.3506e-09
-0.000606148
-7.55314e-09
-0.000606164
1.28362e-08
-0.000606162
2.757e-10
-0.000606152
-1.70444e-08
-0.000606152
5.59357e-09
-0.000606143
-3.85067e-09
-0.000606155
2.18243e-09
-0.000606154
5.07186e-09
-0.000606146
-2.57235e-09
-0.000606148
2.66532e-09
-2.2534e-09
-0.000642888
4.97751e-09
-0.000642899
3.6934e-09
-0.000642888
3.1995e-09
-0.000642886
-4.49673e-09
-0.000642903
-2.8117e-10
-0.000642901
5.22755e-09
-0.000642901
-6.5938e-09
-0.000642896
-2.63561e-09
-0.000642891
-1.4298e-10
-0.000642894
1.95865e-09
-0.000642899
8.7193e-09
-6.8643e-09
-0.000679624
-1.13842e-08
-0.000679636
1.20514e-08
-0.000679625
-7.7639e-09
-0.000679637
7.46676e-09
-0.000679626
-1.06083e-08
-0.000679625
4.7843e-09
-0.000679625
-6.7233e-09
-0.000679634
6.6819e-09
-0.000679635
1.5695e-09
-0.000679631
-2.10885e-09
-0.000679626
8.2934e-10
8.79615e-09
-0.000716374
3.58643e-09
-0.000716357
-4.13795e-09
-0.000716363
-2.49915e-09
-0.000716359
1.6627e-09
-0.000716363
-8.68812e-09
-0.000716362
4.54361e-09
-0.000716375
6.51686e-09
-0.000716352
-1.90723e-08
-0.000716364
1.49284e-08
-0.000716368
3.74449e-09
-0.000716374
8.29668e-09
-8.04305e-09
-0.000753108
7.9965e-10
0.000753098
-0.000753094
-9.4565e-09
-0.0007531
1.83741e-08
-0.000753093
-1.93471e-08
-0.000753116
9.89215e-09
-0.000753096
-4.8817e-09
-0.000753115
1.56349e-08
-0.000753095
-1.31247e-08
-0.000753099
1.58544e-09
-0.000753098
-5.28452e-09
-0.000753101
1.4266e-08
-2.09713e-08
-0.000753084
-0.000789831
2.9169e-09
0.000789831
-0.000789853
1.34523e-08
-0.000789836
4.98175e-09
-0.000789845
-1.12472e-08
-0.000789841
6.6913e-09
-0.000789837
-6.6643e-09
-0.000789837
1.3555e-08
-0.000789837
-1.37134e-08
-0.000789829
-5.02833e-09
-0.000789852
1.77995e-08
-0.000789838
1.70184e-09
-1.01676e-08
-0.000789851
-0.00082658
5.851e-09
0.000826581
-0.000826565
-7.5235e-10
-0.000826574
1.30238e-08
-0.000826567
-2.30618e-08
-0.000826564
4.09055e-09
-0.000826589
2.00527e-08
-0.000826558
-1.78873e-08
-0.00082659
2.08779e-08
-0.000826571
-2.2996e-08
-0.00082655
-5.2952e-09
-0.000826558