/*--------------------------------*- C++ -*----------------------------------*\
| =========                 |                                                 |
| \\      /  F ield         | OpenFOAM: The Open Source CFD Toolbox           |
|  \\    /   O peration     | Version:  2.4.0                                 |
|   \\  /    A nd           | Web:      www.OpenFOAM.org                      |
|    \\/     M anipulation  |                                                 |
\*---------------------------------------------------------------------------*/
FoamFile
{
    version     2.0;
    format      ascii;
    class       volVectorField;
    location    "1.3";
    object      U;
}
// * * * * * * * * * * * * * * * * * * * * * * * * * * * * * * * * * * * * * //

dimensions      [0 1 -1 0 0 0 0];

internalField   nonuniform List<vector> 
3072
(
(0.00639828 0.1336 0)
(0.0168599 0.133317 0)
(0.0267728 0.13345 -4.95659e-26)
(0.0366492 0.133723 -1.9971e-26)
(0.0465086 0.133939 6.88479e-27)
(0.0559122 0.133697 -4.23597e-26)
(0.0643265 0.132197 -5.93246e-26)
(0.0717588 0.129002 -6.6436e-26)
(0.0828574 0.123259 1.5481e-26)
(0.0931477 0.119146 -2.37288e-25)
(0.102737 0.114862 -1.21315e-25)
(0.11178 0.109728 -1.78559e-25)
(0.00565571 0.14961 9.89053e-27)
(0.0177965 0.150323 -2.82972e-27)
(0.0305965 0.151722 -4.00371e-26)
(0.0435618 0.153703 0)
(0.0559828 0.155966 -1.56026e-26)
(0.0671241 0.157793 8.96365e-26)
(0.0767208 0.158841 0)
(0.0871117 0.159302 0)
(0.102528 0.154991 0)
(0.114947 0.149859 -5.35081e-25)
(0.125552 0.144371 -1.96231e-25)
(0.134508 0.138268 1.10049e-25)
(0.00832311 0.165024 1.00394e-26)
(0.0242229 0.165325 0)
(0.0407023 0.166145 0)
(0.0572956 0.168163 1.42373e-25)
(0.0724361 0.171817 6.38587e-26)
(0.084689 0.175451 2.19173e-25)
(0.095677 0.176983 1.07717e-25)
(0.107509 0.176313 0)
(0.120896 0.172649 0)
(0.133426 0.167687 -3.10299e-25)
(0.144846 0.16218 -2.41787e-25)
(0.154521 0.156407 4.1639e-25)
(0.00932869 0.180559 2.16461e-28)
(0.0276919 0.179558 6.73716e-26)
(0.0476684 0.178112 2.14034e-26)
(0.0690787 0.177805 1.55639e-25)
(0.0875952 0.181626 1.46577e-26)
(0.0988713 0.187571 1.81044e-25)
(0.108375 0.189427 3.02578e-25)
(0.119342 0.187709 4.24731e-25)
(0.132423 0.183422 2.21663e-25)
(0.145791 0.17808 1.23948e-25)
(0.158254 0.172561 -7.56875e-25)
(0.168977 0.167219 -1.01199e-25)
(0.00929091 0.196132 0)
(0.0285686 0.194407 6.14604e-26)
(0.0499926 0.190683 1.22786e-25)
(0.0750841 0.184222 2.92116e-27)
(0.10181 0.182966 -2.2893e-25)
(0.111885 0.1928 2.79064e-25)
(0.116438 0.19673 3.32755e-25)
(0.125649 0.193272 3.46147e-25)
(0.13926 0.187929 1.02863e-25)
(0.153732 0.182028 1.32171e-25)
(0.167195 0.176424 -2.85026e-25)
(0.178642 0.171422 -6.15834e-25)
(0.00993 0.212292 -5.87867e-28)
(0.030309 0.212165 7.3569e-27)
(0.0524373 0.209733 9.75213e-35)
(0.0796384 0.202699 0)
(0.112775 0.190938 -9.58449e-26)
(0.119128 0.190589 -2.2055e-25)
(0.11937 0.193415 0)
(0.128536 0.192418 8.7387e-26)
(0.143154 0.187552 1.36865e-25)
(0.158562 0.181449 0)
(0.172615 0.175663 -6.33022e-25)
(0.184157 0.170816 -1.33124e-24)
(0.0122573 0.228566 0)
(0.0341011 0.230398 1.63727e-25)
(0.056125 0.229677 -5.31665e-25)
(0.0816202 0.225805 0)
(0.112882 0.209099 1.12334e-25)
(0.123334 0.201696 -2.70201e-25)
(0.122302 0.201727 2.69837e-25)
(0.131215 0.193103 -4.88478e-26)
(0.146709 0.186983 -1.50824e-25)
(0.161683 0.17966 -6.75655e-25)
(0.175264 0.172453 -8.01606e-26)
(0.18588 0.167068 -7.4766e-25)
(0.0160973 0.244851 0)
(0.0390512 0.248084 1.72661e-25)
(0.0604696 0.24717 -3.72195e-25)
(0.0832065 0.242922 -3.90697e-25)
(0.110369 0.229223 0)
(0.127435 0.215095 -4.35907e-25)
(0.124238 0.214025 -1.25406e-25)
(0.135535 0.20277 -2.6685e-25)
(0.151358 0.190957 -4.00708e-26)
(0.163907 0.181166 2.18283e-25)
(0.174706 0.169367 7.74393e-25)
(0.183154 0.161358 4.49e-26)
(0.0213603 0.261231 0)
(0.0435542 0.265191 1.7988e-25)
(0.0630454 0.261496 3.87442e-25)
(0.0827163 0.254571 -4.02313e-25)
(0.10464 0.241443 -7.15633e-25)
(0.120665 0.222506 0)
(0.120518 0.216473 0)
(0.131683 0.206723 0)
(0.147906 0.191078 0)
(0.157133 0.179553 6.53924e-25)
(0.166507 0.163937 1.09274e-25)
(0.173555 0.15277 9.15822e-26)
(0.0280724 0.277666 0)
(0.0456817 0.280912 1.83133e-25)
(0.0615788 0.270887 7.92904e-25)
(0.0787623 0.259896 -7.52792e-25)
(0.0983255 0.246999 -1.40884e-24)
(0.114204 0.231276 5.84695e-25)
(0.11879 0.221747 0)
(0.13226 0.213988 2.02461e-25)
(0.142234 0.195972 6.7833e-25)
(0.145296 0.175393 0)
(0.152265 0.157108 -1.1647e-24)
(0.157012 0.141179 4.60003e-26)
(0.0349003 0.291948 0)
(0.0416038 0.289654 -1.71059e-25)
(0.0528262 0.26921 -3.35199e-34)
(0.0691184 0.252381 -7.87419e-25)
(0.089507 0.237781 -6.78063e-25)
(0.106771 0.226984 -8.896e-27)
(0.1153 0.220727 2.60575e-25)
(0.121907 0.210903 3.76098e-25)
(0.123706 0.19384 6.33714e-25)
(0.128462 0.172648 9.19119e-25)
(0.132258 0.14995 -7.96467e-25)
(0.133285 0.128464 -1.10686e-24)
(0.0147089 0.280959 7.38375e-26)
(0.0192395 0.273782 3.56775e-25)
(0.0312712 0.246995 -6.01153e-25)
(0.0493587 0.22687 0)
(0.074403 0.209739 0)
(0.0940065 0.201277 -6.5359e-25)
(0.102838 0.197697 -1.27861e-25)
(0.101685 0.192693 3.66044e-25)
(0.100995 0.180651 0)
(0.102696 0.162625 8.55813e-25)
(0.105187 0.141217 0)
(0.108822 0.121505 -2.13435e-24)
(0.119842 0.103874 2.22354e-25)
(0.125901 0.0973795 1.87319e-25)
(0.128513 0.0899701 7.15403e-26)
(0.129295 0.079879 2.55382e-25)
(0.132582 0.0661405 3.68117e-26)
(0.135483 0.0564516 0)
(0.136669 0.0474201 0)
(0.136268 0.0382076 -4.7609e-26)
(0.13567 0.0284864 -3.59326e-26)
(0.137233 0.0181048 0)
(0.138025 0.0131118 0)
(0.135468 0.00648369 1.08937e-26)
(0.141135 0.131512 -1.32744e-35)
(0.144564 0.12448 0)
(0.146429 0.117697 5.95241e-25)
(0.15049 0.108438 3.13508e-25)
(0.155083 0.0922468 9.73786e-26)
(0.154115 0.0793977 -2.03922e-26)
(0.150731 0.0684289 -1.84654e-26)
(0.145887 0.0568641 7.4516e-26)
(0.142087 0.0417774 0)
(0.142459 0.0225196 0)
(0.144552 0.0165998 0)
(0.147812 0.00958881 -1.59796e-26)
(0.162174 0.150526 -3.5635e-25)
(0.168001 0.144655 2.41153e-25)
(0.172904 0.137819 3.19145e-25)
(0.17698 0.128197 -6.42875e-26)
(0.178196 0.115083 -8.73128e-26)
(0.175018 0.102018 0)
(0.170036 0.0894289 0)
(0.166083 0.0748362 2.61137e-25)
(0.164972 0.0545667 -1.32101e-25)
(0.164875 0.027449 0)
(0.163662 0.016318 0)
(0.164641 0.0057909 -1.17186e-26)
(0.177716 0.162091 -6.48199e-25)
(0.184612 0.157028 4.13239e-25)
(0.189843 0.151311 -1.9231e-26)
(0.193094 0.143918 -5.66784e-26)
(0.193613 0.134357 0)
(0.191229 0.123117 -3.02294e-25)
(0.187186 0.109743 0)
(0.182862 0.0924621 -1.46166e-25)
(0.179274 0.0692235 -1.45598e-25)
(0.175309 0.0393749 0)
(0.175496 0.0193873 5.37363e-26)
(0.179769 0.00589774 -3.99006e-26)
(0.187954 0.166915 -7.10275e-25)
(0.195238 0.16282 0)
(0.200583 0.158636 0)
(0.203881 0.153656 0)
(0.204918 0.147262 0)
(0.203739 0.138814 -1.14478e-36)
(0.200897 0.126948 3.69579e-25)
(0.197023 0.109299 -6.00482e-25)
(0.193458 0.0830772 0)
(0.191008 0.0484944 1.19601e-25)
(0.191551 0.0181536 4.60808e-26)
(0.195593 0.00411799 -8.80514e-26)
(0.193423 0.166608 6.86791e-25)
(0.20068 0.163246 6.48061e-25)
(0.206039 0.160418 8.70541e-27)
(0.209591 0.15758 -6.51178e-27)
(0.211406 0.154096 -6.89669e-25)
(0.211467 0.149088 4.09763e-25)
(0.209754 0.140906 4.59524e-25)
(0.205633 0.126647 5.4327e-26)
(0.198939 0.101451 3.16041e-25)
(0.190448 0.0625293 1.33349e-25)
(0.190496 0.0183417 9.3818e-26)
(0.205709 -0.00388644 -3.13566e-36)
(0.194361 0.162494 7.37951e-25)
(0.201174 0.159275 -3.19031e-26)
(0.206289 0.157242 0)
(0.210024 0.155821 0)
(0.212881 0.154467 -6.47707e-25)
(0.215059 0.152527 3.6844e-27)
(0.216521 0.148728 -6.87425e-25)
(0.215793 0.140316 4.42336e-25)
(0.211916 0.119945 3.89762e-25)
(0.205337 0.0770271 0)
(0.208598 0.0128767 1.87579e-25)
(0.22267 -0.0176505 6.8752e-27)
(0.190208 0.15536 -3.48205e-26)
(0.196338 0.151516 -6.3019e-25)
(0.20085 0.149792 -6.01821e-25)
(0.2043 0.148945 -2.32475e-27)
(0.208047 0.148427 5.53742e-26)
(0.212726 0.148074 -6.39342e-25)
(0.21872 0.147477 -7.5826e-25)
(0.22397 0.145204 -4.28482e-25)
(0.226568 0.132798 0)
(0.224797 0.0893437 7.20951e-26)
(0.231976 0.00865478 6.83055e-26)
(0.241122 -0.024082 -1.08581e-26)
(0.179156 0.144475 5.0518e-26)
(0.184943 0.139428 4.54991e-26)
(0.188467 0.138261 -5.21686e-25)
(0.190842 0.137746 5.4338e-25)
(0.195117 0.136898 3.64462e-26)
(0.202317 0.136294 -7.30907e-25)
(0.213406 0.136596 0)
(0.22586 0.138869 -4.44308e-25)
(0.236483 0.13652 0)
(0.241414 0.0985468 0)
(0.250775 0.0051739 0)
(0.257321 -0.0263002 1.20953e-26)
(0.160667 0.129743 -5.23033e-26)
(0.165905 0.122428 1.00573e-24)
(0.16732 0.122475 -8.56117e-25)
(0.167349 0.123153 -4.83228e-25)
(0.171756 0.120951 1.1178e-25)
(0.181259 0.118127 0)
(0.197428 0.116544 0)
(0.217591 0.120438 -7.97918e-25)
(0.236976 0.12893 0)
(0.250972 0.105176 -6.80699e-26)
(0.264093 0.00287978 1.34747e-25)
(0.271046 -0.0281842 -1.66793e-26)
(0.134669 0.111806 1.18421e-24)
(0.138237 0.100258 8.23852e-25)
(0.136972 0.0999713 -6.72877e-25)
(0.137957 0.102111 5.54059e-27)
(0.144953 0.0996801 7.06971e-25)
(0.154653 0.095522 -4.36585e-25)
(0.170612 0.0897944 3.52397e-25)
(0.193062 0.0887415 -4.82792e-25)
(0.224637 0.101452 0)
(0.264486 0.0935467 -1.03477e-24)
(0.283469 -0.00151578 4.73461e-26)
(0.283515 -0.0331246 -1.0413e-26)
(0.106299 0.101712 2.37952e-24)
(0.104425 0.0781624 0)
(0.107038 0.0739909 0)
(0.112997 0.0788269 4.60124e-25)
(0.123067 0.0803858 4.04667e-25)
(0.134621 0.0778199 -2.04654e-25)
(0.148448 0.0698038 3.34386e-25)
(0.161162 0.0612825 1.37766e-25)
(0.183265 0.0579522 -9.00714e-26)
(0.238891 0.0573276 -5.07894e-25)
(0.277175 -0.00467381 0)
(0.280365 -0.0452752 5.69438e-27)
(0.133459 -0.00608196 2.65546e-27)
(0.132781 -0.0160956 0)
(0.132149 -0.0254858 5.03553e-26)
(0.131293 -0.0347206 0)
(0.130137 -0.0439492 2.63802e-28)
(0.128615 -0.0532328 -1.03782e-26)
(0.126671 -0.0625938 0)
(0.124257 -0.0720306 2.47659e-26)
(0.121325 -0.0815179 -4.53794e-26)
(0.11782 -0.0910004 -1.31476e-25)
(0.113675 -0.100382 1.98059e-25)
(0.108821 -0.109511 2.03939e-25)
(0.149579 -0.00479629 -1.23552e-26)
(0.150061 -0.0157006 -3.21716e-27)
(0.150783 -0.0270979 5.4892e-26)
(0.151436 -0.0387132 0)
(0.151825 -0.0505371 7.78277e-27)
(0.15179 -0.0626199 2.72722e-26)
(0.151206 -0.0749907 0)
(0.149964 -0.0876212 -2.46139e-25)
(0.14797 -0.100413 3.17412e-25)
(0.145139 -0.113187 1.08173e-25)
(0.141401 -0.125687 4.73888e-25)
(0.136713 -0.137571 2.51523e-25)
(0.165092 -0.00746223 -1.0687e-26)
(0.166051 -0.0218773 0)
(0.167393 -0.0359809 1.02886e-25)
(0.168657 -0.04995 0)
(0.169502 -0.0639724 0)
(0.16971 -0.0781771 -1.82793e-25)
(0.169117 -0.0925962 3.34416e-26)
(0.167609 -0.107145 -3.87591e-25)
(0.165112 -0.121632 2.83583e-25)
(0.161599 -0.135772 0)
(0.157092 -0.149216 -8.4006e-35)
(0.15167 -0.161577 3.20816e-25)
(0.180885 -0.00966408 -2.43346e-26)
(0.182112 -0.027474 -5.55901e-26)
(0.183785 -0.0441966 1.16972e-25)
(0.185257 -0.0602682 -3.2722e-26)
(0.186086 -0.0760616 -5.6677e-26)
(0.185995 -0.0917833 -2.75343e-25)
(0.184803 -0.10747 0)
(0.182425 -0.12299 0)
(0.178851 -0.138087 -3.17447e-25)
(0.174153 -0.152437 0)
(0.168487 -0.165705 -6.86036e-25)
(0.162084 -0.17758 3.53206e-25)
(0.196609 -0.0121308 -2.75971e-26)
(0.198025 -0.0334075 -1.32813e-25)
(0.199801 -0.0525616 1.30225e-25)
(0.201173 -0.0703259 0)
(0.201611 -0.0873236 0)
(0.200813 -0.103858 -3.03993e-25)
(0.198595 -0.120003 0)
(0.194931 -0.135622 1.40135e-25)
(0.189896 -0.150431 2.07399e-27)
(0.183653 -0.164131 2.00442e-25)
(0.176475 -0.17648 -2.07582e-25)
(0.168727 -0.187309 1.93136e-25)
(0.212339 -0.014737 2.98239e-26)
(0.213897 -0.039378 -6.79382e-26)
(0.215572 -0.0606566 1.43763e-25)
(0.216581 -0.0796285 -2.42509e-25)
(0.216328 -0.0972543 8.69541e-26)
(0.214535 -0.113941 -2.39698e-34)
(0.211023 -0.129842 -1.47456e-25)
(0.205857 -0.144879 -8.9539e-25)
(0.1992 -0.15876 0)
(0.191262 -0.171228 0)
(0.182375 -0.182176 -8.99626e-25)
(0.172997 -0.191605 -3.50736e-25)
(0.228106 -0.0174852 3.41685e-27)
(0.229783 -0.0452011 1.6645e-25)
(0.231065 -0.0681929 0)
(0.231376 -0.0878125 -3.32067e-25)
(0.23008 -0.105502 -3.42563e-25)
(0.227035 -0.12174 -3.50349e-25)
(0.222034 -0.136803 -7.14014e-25)
(0.215283 -0.150788 -1.4381e-24)
(0.207058 -0.163354 8.77021e-25)
(0.197516 -0.174231 2.13787e-25)
(0.186928 -0.183471 -1.6234e-24)
(0.175785 -0.191269 -9.43749e-25)
(0.243957 -0.0204421 -7.01019e-26)
(0.245723 -0.0505805 1.642e-25)
(0.246051 -0.0747283 0)
(0.245107 -0.0943292 3.59591e-25)
(0.242223 -0.111539 -3.63622e-25)
(0.237594 -0.126797 -8.80106e-25)
(0.230877 -0.140502 -9.28073e-25)
(0.222475 -0.153151 -8.64349e-25)
(0.212896 -0.164267 5.11465e-25)
(0.202113 -0.173365 -6.88786e-25)
(0.1901 -0.18068 -1.21947e-24)
(0.17728 -0.186667 -5.00703e-25)
(0.259978 -0.0238864 -2.74435e-26)
(0.261717 -0.055046 1.66103e-25)
(0.259983 -0.0795733 3.17161e-25)
(0.256866 -0.0983443 3.83934e-25)
(0.251554 -0.114572 0)
(0.244911 -0.12841 0)
(0.236137 -0.140228 -7.23402e-25)
(0.225865 -0.151383 -8.16953e-25)
(0.215212 -0.161173 -1.55623e-25)
(0.203865 -0.168429 -6.18931e-25)
(0.191064 -0.173599 -6.23544e-25)
(0.176988 -0.177578 0)
(0.276287 -0.028184 -5.40715e-26)
(0.277553 -0.0576941 2.33537e-25)
(0.271637 -0.0815836 4.13582e-34)
(0.265058 -0.0986427 0)
(0.256283 -0.113529 -7.56605e-25)
(0.247267 -0.12568 0)
(0.236028 -0.134953 -7.91888e-25)
(0.223229 -0.144372 -8.3959e-25)
(0.211463 -0.153033 -1.24885e-24)
(0.200468 -0.158236 0)
(0.188204 -0.160814 0)
(0.173986 -0.162834 1.10595e-24)
(0.291693 -0.0327112 9.58306e-34)
(0.290758 -0.0567167 -2.14742e-25)
(0.277709 -0.0790649 -8.15454e-25)
(0.266753 -0.0937037 7.89437e-25)
(0.25399 -0.107268 -7.43324e-25)
(0.242982 -0.117801 -5.21093e-26)
(0.229386 -0.123519 5.88045e-25)
(0.212823 -0.130403 1.19627e-24)
(0.198319 -0.13743 -1.003e-24)
(0.187016 -0.139821 7.04345e-25)
(0.176415 -0.140079 -7.85057e-25)
(0.164217 -0.14067 8.49312e-25)
(0.289064 -0.0212344 -4.2973e-26)
(0.288449 -0.0449419 -1.65932e-25)
(0.270434 -0.0689784 -7.78832e-25)
(0.257433 -0.0820282 7.19245e-25)
(0.2421 -0.0953424 0)
(0.231206 -0.105296 4.82855e-25)
(0.217573 -0.106366 4.5151e-25)
(0.197014 -0.10981 1.93557e-24)
(0.17741 -0.116551 7.5528e-25)
(0.164089 -0.115842 4.54696e-25)
(0.154371 -0.115059 -5.53286e-25)
(0.144425 -0.113686 0)
(0.103191 -0.118177 -1.72722e-25)
(0.0967416 -0.126117 -1.84762e-26)
(0.0894658 -0.133076 2.98138e-25)
(0.0813286 -0.138785 -8.43119e-26)
(0.0722988 -0.142848 -1.11663e-25)
(0.0625623 -0.144933 6.36136e-26)
(0.0523997 -0.145086 -6.1169e-26)
(0.0420286 -0.143608 -3.52392e-26)
(0.0316218 -0.141001 -2.55282e-26)
(0.0213528 -0.137957 0)
(0.0114914 -0.135275 0)
(0.00274293 -0.133695 4.4474e-27)
(0.131064 -0.148435 2.60014e-25)
(0.124474 -0.157841 1.59998e-25)
(0.116955 -0.165334 6.00606e-25)
(0.108532 -0.170569 0)
(0.0993035 -0.17344 -1.43335e-25)
(0.0893459 -0.173905 0)
(0.0785985 -0.172043 8.0179e-35)
(0.0669246 -0.168217 1.12513e-25)
(0.0541494 -0.163065 -2.46184e-27)
(0.0401299 -0.157457 0)
(0.0248563 -0.152518 0)
(0.00853211 -0.149513 1.97151e-26)
(0.145461 -0.172466 2.10126e-25)
(0.138617 -0.181518 -4.89403e-25)
(0.131281 -0.188435 3.30662e-25)
(0.123558 -0.192997 0)
(0.11545 -0.195098 -3.18166e-25)
(0.106741 -0.194815 -4.28331e-26)
(0.0970314 -0.19232 9.97694e-26)
(0.0857544 -0.187922 1.22737e-25)
(0.0722254 -0.182118 -1.55447e-25)
(0.0557653 -0.175639 0)
(0.0359355 -0.169558 -5.78495e-26)
(0.0128301 -0.165611 1.20143e-26)
(0.15522 -0.187798 3.60267e-25)
(0.148177 -0.196156 -3.27738e-34)
(0.141178 -0.20252 -8.95962e-26)
(0.13432 -0.206843 -1.13233e-25)
(0.127552 -0.209094 0)
(0.120531 -0.209287 -3.41461e-25)
(0.112589 -0.207512 6.81512e-25)
(0.102756 -0.203944 2.15976e-25)
(0.0897773 -0.198862 -2.74216e-25)
(0.0722044 -0.192695 0)
(0.0486407 -0.186272 -1.62662e-25)
(0.0183765 -0.181587 -6.18979e-27)
(0.160823 -0.196524 -1.27017e-25)
(0.153165 -0.20411 2.25271e-25)
(0.146083 -0.210061 0)
(0.139719 -0.214466 0)
(0.134067 -0.217321 -3.62631e-25)
(0.128734 -0.218542 -3.57643e-25)
(0.122838 -0.218153 7.12409e-25)
(0.115117 -0.216257 0)
(0.103864 -0.212997 -1.7851e-25)
(0.086857 -0.208425 -1.75705e-25)
(0.0612737 -0.202753 -4.26624e-35)
(0.0245489 -0.197736 3.70924e-26)
(0.163655 -0.199593 -4.98066e-26)
(0.154876 -0.20633 1.45196e-25)
(0.147152 -0.211871 -8.17924e-25)
(0.140679 -0.216453 -1.00369e-25)
(0.135616 -0.220112 3.10843e-25)
(0.131666 -0.222507 7.17997e-25)
(0.127617 -0.223634 7.30425e-25)
(0.12201 -0.223719 0)
(0.11295 -0.223094 0)
(0.0978678 -0.221545 -2.00147e-25)
(0.0724421 -0.218269 2.98244e-25)
(0.0309884 -0.213959 4.47937e-26)
(0.164694 -0.197845 -1.25278e-25)
(0.154298 -0.203676 6.17888e-25)
(0.145363 -0.208769 -7.45899e-25)
(0.138134 -0.213533 7.32002e-25)
(0.133032 -0.218264 6.7504e-25)
(0.130252 -0.221883 6.46687e-25)
(0.12772 -0.224269 -4.06495e-25)
(0.123621 -0.22601 1.29536e-26)
(0.116145 -0.228175 1.75605e-26)
(0.103337 -0.230827 0)
(0.0801258 -0.231906 2.27335e-25)
(0.0368043 -0.230095 5.28972e-26)
(0.164287 -0.191589 0)
(0.151835 -0.196419 7.30781e-25)
(0.141145 -0.201018 0)
(0.132533 -0.205834 6.85755e-25)
(0.126611 -0.212283 -4.26691e-26)
(0.125353 -0.217523 -5.60186e-25)
(0.124569 -0.220922 -2.36502e-35)
(0.121339 -0.223661 0)
(0.11387 -0.22807 4.36206e-25)
(0.10215 -0.235516 2.83525e-26)
(0.082287 -0.242762 6.40528e-27)
(0.0406615 -0.245809 5.44756e-26)
(0.162248 -0.180442 -1.35068e-25)
(0.147438 -0.183987 -1.1087e-25)
(0.13441 -0.188019 6.54426e-25)
(0.123658 -0.192192 -6.82447e-25)
(0.115409 -0.201289 9.91253e-26)
(0.116686 -0.208984 -6.94833e-26)
(0.119015 -0.213401 5.97697e-25)
(0.116789 -0.216962 0)
(0.107596 -0.223008 4.36589e-25)
(0.0941712 -0.235357 0)
(0.0772858 -0.250164 -2.48508e-25)
(0.0409284 -0.260592 1.35899e-25)
(0.158303 -0.163718 0)
(0.141442 -0.165923 1.30565e-24)
(0.125871 -0.169764 1.70471e-24)
(0.112864 -0.17135 -7.83292e-25)
(0.0987718 -0.183534 -1.69017e-25)
(0.102383 -0.194127 2.81782e-25)
(0.110212 -0.198523 0)
(0.109922 -0.204193 0)
(0.0991025 -0.21263 0)
(0.0802387 -0.230104 0)
(0.0641643 -0.253463 -2.5167e-25)
(0.035777 -0.273579 1.36035e-25)
(0.15049 -0.140171 -1.66516e-25)
(0.135098 -0.142199 1.29919e-24)
(0.119023 -0.150175 -4.15444e-34)
(0.107017 -0.149837 -1.53209e-24)
(0.0799993 -0.16639 -6.10597e-25)
(0.0826519 -0.174747 -1.69747e-25)
(0.0952085 -0.173266 4.98085e-25)
(0.095442 -0.181055 0)
(0.0874851 -0.195925 8.50411e-25)
(0.06128 -0.219078 3.99733e-25)
(0.0426948 -0.250932 2.12355e-25)
(0.0235509 -0.28259 2.5075e-34)
(0.132038 -0.116155 0)
(0.119405 -0.127738 0)
(0.108148 -0.143771 -1.25054e-33)
(0.105042 -0.144811 -8.17795e-25)
(0.0754643 -0.151646 -3.95723e-25)
(0.0698883 -0.14735 0)
(0.0791867 -0.142756 4.52087e-25)
(0.0734441 -0.155866 0)
(0.0666354 -0.17995 1.19121e-24)
(0.0375751 -0.208043 2.49829e-25)
(0.0129919 -0.239468 1.39482e-25)
(-0.0076665 -0.2762 -1.99132e-26)
(-0.00608973 -0.13346 -3.79901e-37)
(-0.0160189 -0.132698 -4.61509e-27)
(-0.0252432 -0.131855 5.18438e-28)
(-0.0342516 -0.130666 5.05533e-26)
(-0.0431628 -0.129038 0)
(-0.0520102 -0.126929 -5.25437e-26)
(-0.0607971 -0.124312 0)
(-0.069514 -0.12118 -5.50031e-26)
(-0.0781423 -0.117529 -1.53109e-25)
(-0.0866515 -0.113356 -2.03035e-26)
(-0.0949895 -0.108651 -1.48268e-25)
(-0.103071 -0.103391 -1.75099e-25)
(-0.00465968 -0.149547 -3.09528e-26)
(-0.0150867 -0.149765 -4.01099e-27)
(-0.0258222 -0.149929 4.55286e-27)
(-0.0366123 -0.149764 9.97392e-26)
(-0.0474287 -0.149132 2.24207e-27)
(-0.0583006 -0.147921 1.87184e-26)
(-0.0692567 -0.146065 2.17504e-25)
(-0.0803009 -0.143534 -9.0956e-26)
(-0.0914013 -0.140316 -2.01444e-25)
(-0.102479 -0.136407 -3.04736e-25)
(-0.113396 -0.131808 -4.93349e-25)
(-0.123942 -0.126519 -4.65543e-26)
(-0.00695644 -0.165038 -2.14761e-26)
(-0.0202895 -0.165591 0)
(-0.0331711 -0.166185 0)
(-0.045734 -0.16643 1.04986e-25)
(-0.0581564 -0.166045 0)
(-0.0705763 -0.164872 3.39812e-25)
(-0.0830719 -0.162825 2.35307e-25)
(-0.0956523 -0.159872 -4.43167e-26)
(-0.108256 -0.156028 1.18769e-25)
(-0.120748 -0.15134 -6.17503e-25)
(-0.132915 -0.145887 -2.11449e-25)
(-0.144473 -0.139771 3.79383e-25)
(-0.00873727 -0.180847 4.9474e-26)
(-0.0248186 -0.18172 5.60272e-26)
(-0.039742 -0.182699 -1.16373e-25)
(-0.0538798 -0.183207 1.21271e-25)
(-0.0676054 -0.182857 0)
(-0.081172 -0.181438 5.76046e-25)
(-0.094712 -0.178837 9.4033e-26)
(-0.108244 -0.175039 0)
(-0.121688 -0.170106 5.09676e-25)
(-0.134877 -0.164178 -4.15514e-25)
(-0.14757 -0.157459 -7.83006e-26)
(-0.159467 -0.150198 -7.49417e-25)
(-0.0109179 -0.196601 5.52666e-26)
(-0.0299372 -0.197843 -1.27227e-35)
(-0.0467942 -0.199131 -2.60686e-25)
(-0.0621883 -0.199756 0)
(-0.0767694 -0.199224 3.30302e-26)
(-0.0909378 -0.197295 3.48162e-25)
(-0.104902 -0.193837 0)
(-0.118712 -0.188853 3.1123e-25)
(-0.132299 -0.182464 4.06399e-25)
(-0.145503 -0.174906 1.32997e-25)
(-0.158089 -0.166513 0)
(-0.169785 -0.157687 -6.75203e-25)
(-0.013409 -0.212364 2.95387e-26)
(-0.0353953 -0.213973 -2.17078e-25)
(-0.0539307 -0.2154 -1.44152e-25)
(-0.0701484 -0.215924 3.41753e-25)
(-0.085068 -0.214962 1.0476e-25)
(-0.0992669 -0.212296 -2.56826e-25)
(-0.113056 -0.20779 0)
(-0.126549 -0.201467 -3.35021e-25)
(-0.139717 -0.193483 9.48277e-26)
(-0.152428 -0.184141 1.40515e-25)
(-0.16447 -0.173879 -5.99762e-25)
(-0.175605 -0.163224 2.17442e-25)
(-0.0161754 -0.228131 3.55515e-26)
(-0.0409323 -0.230008 -1.36851e-25)
(-0.0607283 -0.231154 0)
(-0.0772281 -0.231132 2.7752e-25)
(-0.0919251 -0.229318 3.13992e-25)
(-0.105602 -0.225625 3.17024e-25)
(-0.118701 -0.219929 5.5413e-25)
(-0.131426 -0.21228 -7.9448e-25)
(-0.143808 -0.20283 -1.39829e-25)
(-0.155758 -0.191885 7.02587e-25)
(-0.167069 -0.17991 -1.48802e-24)
(-0.177515 -0.167485 -1.25392e-25)
(-0.0191247 -0.243884 6.75471e-26)
(-0.0460312 -0.24574 -1.764e-26)
(-0.066427 -0.245731 0)
(-0.082547 -0.244334 -3.48191e-25)
(-0.0964365 -0.240938 6.52121e-25)
(-0.109097 -0.235744 6.34923e-25)
(-0.121109 -0.228667 7.98947e-25)
(-0.132801 -0.219785 2.24647e-25)
(-0.144265 -0.209211 9.17134e-25)
(-0.155457 -0.197178 1.5947e-24)
(-0.166143 -0.184079 -5.63698e-25)
(-0.176061 -0.170424 0)
(-0.0221956 -0.259575 7.60295e-26)
(-0.049881 -0.260738 0)
(-0.069869 -0.257991 0)
(-0.0848374 -0.253919 -3.59296e-25)
(-0.09735 -0.247897 3.54037e-25)
(-0.108595 -0.24053 6.95723e-25)
(-0.119256 -0.231765 0)
(-0.129811 -0.221699 -7.82042e-26)
(-0.140419 -0.210395 5.42863e-25)
(-0.151083 -0.197968 6.49982e-25)
(-0.161499 -0.184664 6.4093e-25)
(-0.171319 -0.170788 -1.26587e-24)
(-0.0251173 -0.275 -8.6044e-26)
(-0.0510371 -0.273855 -2.48009e-26)
(-0.0693421 -0.265832 3.65703e-25)
(-0.0824878 -0.257563 7.05969e-25)
(-0.0932244 -0.247906 0)
(-0.102843 -0.237764 6.42451e-25)
(-0.112042 -0.227031 6.80876e-25)
(-0.121476 -0.215786 6.34527e-25)
(-0.131395 -0.204053 -1.25855e-24)
(-0.141898 -0.191837 0)
(-0.152531 -0.179267 1.68715e-24)
(-0.162823 -0.166384 -1.1231e-24)
(-0.0260121 -0.288299 -4.49476e-26)
(-0.0465894 -0.280979 2.96858e-26)
(-0.0625927 -0.2649 3.43059e-25)
(-0.0739386 -0.251847 6.61896e-25)
(-0.0829573 -0.238521 5.60395e-26)
(-0.0910351 -0.22572 6.15802e-25)
(-0.0990155 -0.213125 5.77817e-25)
(-0.107571 -0.200836 -5.19957e-25)
(-0.117054 -0.188859 -9.89397e-25)
(-0.127712 -0.17728 8.91935e-25)
(-0.13895 -0.166149 8.9846e-25)
(-0.150216 -0.155278 0)
(-0.0083542 -0.28322 -2.4242e-25)
(-0.0287087 -0.270357 -3.65266e-25)
(-0.0463715 -0.248198 7.07962e-27)
(-0.0582485 -0.232974 -5.08855e-25)
(-0.0665696 -0.217977 0)
(-0.0736607 -0.203771 4.02378e-25)
(-0.0807713 -0.190185 7.12968e-25)
(-0.0888599 -0.17749 -6.65915e-25)
(-0.0983488 -0.165707 -6.03027e-26)
(-0.1096 -0.155073 5.82693e-25)
(-0.121813 -0.145769 -5.48962e-25)
(-0.134377 -0.137541 -5.87566e-25)
(-0.110769 -0.0975463 -6.17975e-26)
(-0.117916 -0.0910914 -1.88036e-25)
(-0.12433 -0.0840118 1.27439e-25)
(-0.129798 -0.0762659 7.93958e-26)
(-0.134071 -0.0678244 -9.39875e-26)
(-0.136878 -0.0587583 0)
(-0.138128 -0.0492729 2.74688e-26)
(-0.13806 -0.0395661 -3.31419e-27)
(-0.137047 -0.0297815 0)
(-0.135602 -0.0200794 -4.57312e-26)
(-0.134286 -0.0107392 0)
(-0.133527 -0.00249625 0)
(-0.133836 -0.120545 -3.3875e-26)
(-0.14274 -0.113891 -4.34677e-25)
(-0.150272 -0.106551 -5.69503e-26)
(-0.156079 -0.0984928 -3.4472e-25)
(-0.15995 -0.0898073 0)
(-0.161927 -0.0804673 0)
(-0.16198 -0.0704306 -1.37164e-27)
(-0.160331 -0.0595667 -4.73588e-27)
(-0.157476 -0.0477512 0)
(-0.154116 -0.0349338 -3.4335e-26)
(-0.151115 -0.0212595 -2.88466e-26)
(-0.149328 -0.00709648 1.34227e-27)
(-0.155084 -0.13311 -2.86644e-25)
(-0.16439 -0.126021 -4.73435e-35)
(-0.172048 -0.118594 0)
(-0.177866 -0.110943 3.78319e-35)
(-0.181567 -0.102997 1.88156e-26)
(-0.183077 -0.0945238 3.66501e-26)
(-0.182595 -0.0851918 2.68806e-25)
(-0.180319 -0.0744909 0)
(-0.176649 -0.0618495 0)
(-0.172232 -0.0467974 0)
(-0.167995 -0.0292847 -5.29302e-26)
(-0.165349 -0.00991738 -1.10234e-26)
(-0.17025 -0.142664 -3.21808e-25)
(-0.179616 -0.135107 6.51468e-25)
(-0.187321 -0.12772 0)
(-0.193187 -0.120584 6.55134e-25)
(-0.197182 -0.113534 0)
(-0.19923 -0.10635 0)
(-0.199364 -0.0984201 3.11077e-25)
(-0.197656 -0.0888729 -4.9549e-26)
(-0.19428 -0.0765756 -4.58171e-26)
(-0.189668 -0.0603249 0)
(-0.184692 -0.039366 6.36441e-26)
(-0.181217 -0.0140323 4.05196e-26)
(-0.180327 -0.148854 -7.57657e-25)
(-0.189504 -0.140397 2.39417e-25)
(-0.197185 -0.132612 -4.03628e-26)
(-0.203302 -0.125622 2.67762e-25)
(-0.207881 -0.11936 3.11311e-25)
(-0.210937 -0.113498 0)
(-0.212415 -0.107339 3.39119e-25)
(-0.212223 -0.0997611 0)
(-0.210223 -0.0891116 0)
(-0.206455 -0.0732368 -1.57694e-25)
(-0.201435 -0.0500725 5.26554e-26)
(-0.197247 -0.0188352 9.08228e-26)
(-0.18562 -0.152741 -5.04032e-25)
(-0.194385 -0.142945 8.02634e-25)
(-0.201877 -0.134244 0)
(-0.208152 -0.126851 0)
(-0.213339 -0.120787 1.03984e-24)
(-0.217544 -0.115777 1.38412e-27)
(-0.220743 -0.111179 8.62498e-35)
(-0.222769 -0.105831 6.18602e-26)
(-0.22321 -0.0977803 4.20161e-25)
(-0.22162 -0.0839571 -1.78215e-25)
(-0.217788 -0.0605101 0)
(-0.213411 -0.0242425 -3.84175e-26)
(-0.186896 -0.155266 7.60777e-25)
(-0.195131 -0.143869 1.47641e-24)
(-0.202273 -0.133814 -3.54467e-26)
(-0.208495 -0.125422 -7.48372e-25)
(-0.214056 -0.118817 1.38679e-24)
(-0.219202 -0.113845 7.03386e-25)
(-0.224043 -0.110043 3.59584e-25)
(-0.22851 -0.106433 3.70041e-25)
(-0.232093 -0.101144 3.82097e-25)
(-0.233973 -0.0905824 0)
(-0.232988 -0.069125 -1.69941e-25)
(-0.229641 -0.029786 -1.72015e-25)
(-0.184965 -0.156859 6.10109e-25)
(-0.192768 -0.144018 1.23479e-24)
(-0.199557 -0.132513 6.58906e-25)
(-0.20559 -0.122765 -6.42119e-25)
(-0.211244 -0.115018 7.11438e-25)
(-0.216945 -0.109231 6.63425e-25)
(-0.222992 -0.105169 6.01315e-27)
(-0.229578 -0.10217 3.6863e-25)
(-0.236345 -0.0988304 -3.91248e-25)
(-0.242491 -0.091685 0)
(-0.245998 -0.0740772 -2.18546e-25)
(-0.2457 -0.0345556 -1.03892e-25)
(-0.180177 -0.156821 0)
(-0.187926 -0.143271 6.20284e-25)
(-0.194622 -0.13076 6.17463e-25)
(-0.200564 -0.119776 2.07373e-26)
(-0.206196 -0.110664 6.78879e-25)
(-0.212114 -0.103514 6.4036e-25)
(-0.218817 -0.0982691 -6.66288e-25)
(-0.226828 -0.0945585 0)
(-0.236138 -0.0916147 -3.83637e-25)
(-0.24653 -0.0867452 -2.49318e-26)
(-0.255621 -0.0735904 -2.37933e-25)
(-0.26104 -0.037078 4.88828e-27)
(-0.172217 -0.153352 0)
(-0.18048 -0.140328 0)
(-0.187576 -0.127838 0)
(-0.193783 -0.116316 1.15905e-24)
(-0.199562 -0.106175 8.0605e-26)
(-0.2056 -0.0976485 6.47244e-25)
(-0.212525 -0.0907751 0)
(-0.221182 -0.0853534 6.48204e-25)
(-0.231935 -0.0810827 0)
(-0.245685 -0.0762689 4.03501e-25)
(-0.26046 -0.0662095 -2.31016e-25)
(-0.274453 -0.0349875 -3.3173e-28)
(-0.160621 -0.144521 0)
(-0.169906 -0.133382 0)
(-0.177929 -0.122258 -9.9646e-25)
(-0.18489 -0.111356 9.82497e-25)
(-0.19118 -0.101068 -1.60856e-24)
(-0.197488 -0.0917065 -5.25e-25)
(-0.204435 -0.0833847 2.28486e-26)
(-0.213067 -0.0759616 6.17029e-25)
(-0.223943 -0.0691701 -6.13022e-25)
(-0.23933 -0.0618193 3.47141e-25)
(-0.258383 -0.0512121 2.16943e-25)
(-0.283127 -0.0250249 1.30865e-25)
(-0.145936 -0.129908 0)
(-0.156305 -0.121596 0)
(-0.165479 -0.112885 -8.49465e-25)
(-0.173537 -0.103785 -8.39743e-25)
(-0.180668 -0.0944785 -8.35177e-25)
(-0.187449 -0.0851816 -4.56855e-25)
(-0.194352 -0.0761254 -4.62147e-25)
(-0.202348 -0.0672152 0)
(-0.211908 -0.0578474 -4.80538e-25)
(-0.226293 -0.0463464 2.47084e-25)
(-0.245904 -0.027984 8.88348e-26)
(-0.277389 0.00228189 1.37584e-25)
(-0.1337 0.00670278 -1.08809e-26)
(-0.134526 0.0178551 0)
(-0.136404 0.0282961 0)
(-0.138373 0.0386512 1.15586e-26)
(-0.139691 0.0490159 -2.60031e-26)
(-0.139805 0.0592264 0)
(-0.138437 0.0692472 0)
(-0.136 0.079333 -6.56555e-26)
(-0.133241 0.0890375 -2.14729e-25)
(-0.12921 0.0970313 -7.79993e-26)
(-0.121812 0.103242 -1.33942e-25)
(-0.112095 0.107243 -2.06999e-25)
(-0.1501 0.00813528 1.0067e-26)
(-0.154171 0.0237926 0)
(-0.160286 0.0382967 0)
(-0.16674 0.0517637 1.16408e-25)
(-0.172275 0.0641836 -2.84712e-25)
(-0.175563 0.0754578 3.01513e-26)
(-0.174992 0.0863047 1.3947e-25)
(-0.170474 0.0994119 -4.11425e-25)
(-0.166269 0.113492 -1.91896e-25)
(-0.164669 0.117642 -5.30488e-25)
(-0.158159 0.115093 0)
(-0.145504 0.114072 -1.57736e-35)
(-0.165757 0.0152746 1.74012e-26)
(-0.171343 0.0390985 0)
(-0.179544 0.0585336 0)
(-0.188706 0.0749776 2.2642e-25)
(-0.197574 0.0886117 -2.42786e-25)
(-0.204213 0.0988662 2.66315e-25)
(-0.204661 0.105914 0)
(-0.198429 0.119189 -4.52432e-26)
(-0.191448 0.128039 3.57208e-25)
(-0.185044 0.113012 -3.85663e-25)
(-0.170597 0.103978 -2.97767e-25)
(-0.155955 0.107224 4.46616e-27)
(-0.181196 0.0220173 1.7037e-26)
(-0.185737 0.0537482 -4.40991e-26)
(-0.192687 0.0777077 0)
(-0.20085 0.0961718 1.08024e-25)
(-0.20927 0.108953 -1.08633e-25)
(-0.216785 0.114039 2.25169e-25)
(-0.221183 0.11041 0)
(-0.211941 0.122185 1.60301e-25)
(-0.203847 0.115446 -2.422e-25)
(-0.201013 0.0957282 -1.84178e-25)
(-0.190317 0.100319 1.47756e-25)
(-0.174859 0.116358 4.48895e-25)
(-0.196174 0.0264448 1.90548e-26)
(-0.197179 0.0636092 -4.72457e-26)
(-0.199186 0.0901485 -1.02684e-25)
(-0.201875 0.108203 0)
(-0.204921 0.116948 2.54868e-25)
(-0.208391 0.112744 -2.12294e-25)
(-0.211572 0.101091 -3.76287e-25)
(-0.203896 0.105767 2.1186e-25)
(-0.200498 0.0968258 0)
(-0.205806 0.0935527 0)
(-0.201966 0.10906 0)
(-0.188485 0.122777 1.24104e-24)
(-0.211241 0.0275906 -4.75389e-26)
(-0.208116 0.0668812 0)