/*--------------------------------*- C++ -*----------------------------------*\
| =========                 |                                                 |
| \\      /  F ield         | OpenFOAM: The Open Source CFD Toolbox           |
|  \\    /   O peration     | Version:  v1606+                                |
|   \\  /    A nd           | Web:      www.OpenFOAM.com                      |
|    \\/     M anipulation  |                                                 |
\*---------------------------------------------------------------------------*/
FoamFile
{
    version     2.0;
    format      ascii;
    class       volScalarField;
    location    "1.625";
    object      p;
}
// * * * * * * * * * * * * * * * * * * * * * * * * * * * * * * * * * * * * * //

dimensions      [1 -1 -2 0 0 0 0];

internalField   nonuniform List<scalar> 
3072
(
0
-0.0217901
0.0421682
0.661592
1.71972
1.26646
0.145624
0.303713
0.0861455
1.17261
1.43645
1.47675
1.3195
1.29589
1.33043
1.78273
1.38417
1.46356
1.60249
1.5877
2.79897
2.57381
2.25765
2.42219
2.55295
2.56894
2.63325
2.71682
2.85967
3.04288
3.22309
3.6503
3.8102
3.87003
4.1391
4.38713
3.88743
3.97101
4.1375
4.36906
4.61683
4.89669
5.195
5.47621
5.77606
6.07669
6.37254
6.65389
5.26769
5.44439
5.73592
6.13642
6.51259
6.91487
7.30086
7.68792
8.06902
8.42734
8.74482
9.01491
6.68334
6.96287
7.3728
8.00135
8.4968
9.03495
9.51657
9.985
10.4234
10.8136
11.1227
11.3523
8.14861
8.51554
8.94143
9.98198
10.5311
11.2249
11.779
12.3041
12.7778
13.1811
13.4523
13.6119
9.73487
10.1131
11.0736
13.7037
12.9223
13.4653
14.0548
14.6029
15.089
15.4976
15.7078
15.7631
11.575
12.0525
13.9398
19.7221
20.5492
15.8214
16.3488
16.848
17.3214
17.7364
17.8704
17.7733
13.5223
14.2723
15.9725
21.5994
20.5189
17.9887
18.4448
19.0247
19.4467
19.9226
20.1693
19.726
15.3179
16.5977
17.643
19.0869
19.6238
20.0655
20.4838
20.9396
21.3317
21.8786
21.9109
21.3257
16.7516
18.9018
20.4618
22.0002
21.8738
22.0578
22.3213
22.6799
23.1211
23.3904
23.5763
22.6487
0.576606
0.624523
0.875327
1.18487
1.51998
1.80584
2.01131
2.37561
2.84745
2.91598
2.82499
2.9094
2.56536
2.76028
3.03197
3.29062
3.51239
3.6907
3.81468
4.70139
6.76223
7.13516
6.20164
6.02415
4.62041
4.85488
5.0756
5.30398
5.48481
5.61505
5.68289
5.70833
5.78075
5.22419
6.3654
7.21705
6.90172
7.12102
7.31445
7.46903
7.58472
7.65237
7.63707
7.53356
7.33361
6.99946
6.82529
6.52571
9.23027
9.39757
9.52644
9.62206
9.68204
9.68937
9.60969
9.39707
9.05742
8.77007
8.88468
9.30108
11.508
11.5988
11.6509
11.6867
11.7058
11.6875
11.5696
11.2518
10.6549
9.83126
9.57845
9.81205
13.6864
13.6789
13.6406
13.6201
13.6343
13.6677
13.6274
13.3611
12.7288
11.6457
12.7002
14.6217
15.7422
15.6132
15.4675
15.3896
15.4379
15.6121
15.8051
15.8198
15.4917
14.7366
17.9624
22.058
17.6588
17.4017
17.0748
16.9292
17.0326
17.438
18.0024
18.4792
18.7174
18.7191
23.5833
26.9646
19.3953
19.0032
18.3609
18.1382
18.3047
19.0328
20.0734
21.1086
22.0669
23.033
26.0842
30.8764
20.8926
20.4753
19.2615
19.0747
19.3447
20.4287
21.9197
23.4586
25.0705
26.634
28.4892
34.9134
21.8771
22.0343
19.7972
21.3687
22.4481
23.2589
23.6652
25.2053
27.3101
29.6537
31.2338
35.6562
-0.976168
-1.00903
-1.0332
-1.05442
-1.07286
-1.09278
-1.11299
-1.1309
-1.14239
-1.14138
-1.12017
-1.07043
0.497533
0.473062
0.468151
0.474081
0.486799
0.509592
0.542914
0.588045
0.647655
0.724932
0.824281
0.94705
1.69598
1.6966
1.72369
1.7837
1.86861
1.97495
2.10048
2.24429
2.40611
2.58515
2.7802
2.98544
3.05103
3.07878
3.16156
3.29693
3.46927
3.67067
3.89584
4.14112
4.40275
4.67595
4.95501
5.22858
4.47946
4.55825
4.71963
4.95333
5.23022
5.53625
5.86176
6.20058
6.54613
6.89212
7.22805
7.54347
5.96695
6.12281
6.38542
6.73897
7.1318
7.54199
7.95471
8.36395
8.76243
9.14866
9.51035
9.83726
7.49642
7.76815
8.15839
8.65641
9.17351
9.67841
10.1515
10.5951
11.0032
11.3912
11.7448
12.054
9.03662
9.48958
10.0396
10.7123
11.3591
11.9421
12.4341
12.8653
13.2292
13.5794
13.8955
14.1613
10.5353
11.279
12.0235
12.906
13.6852
14.3231
14.7785
15.1426
15.4002
15.6771
15.9378
16.1377
11.8798
13.1093
14.076
15.2051
16.1228
16.7915
17.1392
17.3788
17.4676
17.6443
17.8545
17.9663
12.7441
14.8957
16.0969
17.5071
18.5791
19.2643
19.4324
19.4889
19.364
19.4341
19.6369
19.6285
12.7274
16.5967
17.9896
19.652
20.8847
21.559
21.4893
21.3007
20.9797
20.9942
21.2893
21.0996
-0.983576
-0.853474
-0.677689
-0.466053
-0.20907
0.0807512
0.337724
0.534505
0.648339
0.67018
0.603883
0.509745
1.09557
1.26907
1.46961
1.6931
1.90244
2.06533
2.18137
2.22605
2.18667
2.07352
1.8839
1.69579
3.19528
3.40755
3.61403
3.80057
3.96186
4.05944
4.07316
3.98464
3.79535
3.5585
3.26199
2.99447
5.48823
5.72897
5.94148
6.11454
6.23118
6.26746
6.19634
5.99865
5.669
5.34478
5.0175
4.81301
7.82873
8.07689
8.28443
8.44318
8.5362
8.53821
8.44444
8.18102
7.56419
7.35543
7.22077
7.62527
10.1215
10.3587
10.5534
10.7096
10.8019
10.8017
10.6706
10.4018
11.0444
11.4898
11.216
12.8215
12.3152
12.5267
12.7059
12.8756
13.0098
13.0933
13.0692
12.8284
13.2317
20.3564
18.7414
14.572
14.3823
14.5545
14.71
14.9096
15.114
15.2759
15.4496
15.5082
15.6749
19.8811
20.5774
19.1504
16.3079
16.4288
16.5441
16.7856
17.0818
17.3235
17.6716
18.2072
19.1023
19.8274
21.6597
22.2385
18.0836
18.1438
18.1901
18.4814
18.8795
19.0802
19.4639
20.5053
22.529
24.1099
23.7342
25.5403
19.7025
19.7011
19.6367
19.9991
20.5406
20.5397
21.5372
22.9582
23.7708
29.3873
25.625
30.0625
21.1486
21.1043
20.857
21.3364
22.1979
22.1378
26.1152
27.7985
27.7745
29.3767
31.2773
33.509
1.00256
0.964911
0.961202
0.978416
1.01054
1.0562
1.11405
1.18315
1.2634
1.35549
1.46072
1.58054
2.44537
2.43324
2.45555
2.50693
2.57994
2.67033
2.7751
2.89222
3.02044
3.15897
3.30718
3.4642
3.59544
3.61787
3.68618
3.79941
3.94161
4.10487
4.2837
4.47393
4.67189
4.87403
5.07668
5.27569
4.84754
4.91409
5.0525
5.24986
5.48082
5.73411
6.00128
6.27553
6.55037
6.81976
7.07801
7.31925
6.16294
6.29276
6.51906
6.81943
7.15414
7.50835
7.87045
8.23025
8.57819
8.90622
9.20856
9.4796
7.53127
7.7463
8.07711
8.49792
8.94614
9.40415
9.8598
10.2979
10.7062
11.0752
11.4025
11.6854
8.94826
9.27521
9.72549
10.2834
10.85
11.4043
11.9468
12.4488
12.8994
13.2848
13.6131
13.8854
10.4063
10.8784
11.4587
12.1676
12.8537
13.4783
14.1019
14.6479
15.123
15.4952
15.7974
16.0348
11.8949
12.5489
13.2573
14.1204
14.9284
15.5638
16.2809
16.8445
17.3374
17.6639
17.9123
18.0914
13.3902
14.2607
15.0591
16.0447
16.9808
17.5458
18.4211
18.9616
19.4934
19.742
19.9092
20.0143
14.8118
15.9373
16.707
17.7182
18.7139
19.276
20.4459
20.9036
21.5251
21.6515
21.7133
21.7509
16.0705
17.4244
18.1479
19.5715
20.5484
20.2361
22.1331
22.5801
23.39
23.3164
23.2503
23.2683
1.71584
1.86624
2.03281
2.21611
2.40986
2.59625
2.75111
2.86097
2.91621
2.91708
2.87897
2.84123
3.6287
3.79923
3.97167
4.12535
4.25374
4.35214
4.41428
4.4292
4.39292
4.31156
4.20054
4.10714
5.46625
5.64226
5.79401
5.92619
6.02212
6.06876
6.05895
5.98677
5.85412
5.67589
5.47884
5.3086
7.53718
7.72456
7.87414
7.97809
8.03001
8.02078
7.94185
7.78716
7.5588
7.27511
6.97418
6.72293
9.71406
9.90432
10.0442
10.1271
10.1485
10.1005
9.97446
9.7619
9.46064
9.08587
8.68297
8.34172
11.923
12.1076
12.2343
12.3002
12.3038
12.2387
12.0958
11.8626
11.529
11.0987
10.6149
10.1837
14.111
14.2799
14.3874
14.4373
14.4331
14.3713
14.2433
14.0336
13.722
13.2944
12.7783
12.2763
16.2335
16.3762
16.4546
16.4854
16.4787
16.4359
16.351
16.2081
15.98
15.633
15.1656
14.6403
18.2508
18.3573
18.392
18.3971
18.3889
18.3755
18.3533
18.3127
18.2244
18.0474
17.7414
17.2816
20.13
20.1894
20.1597
20.129
20.1178
20.14
20.1893
20.2689
20.3663
20.4413
20.4289
20.1939
21.8395
21.8343
21.7343
21.651
21.6414
21.6966
21.8057
22.0002
22.2701
22.6536
23.0746
23.3313
23.3545
23.2135
23.0766
22.9128
22.9113
23.0107
23.1695
23.4346
23.8221
24.4095
25.2752
26.3616
-4.82407
-5.05032
-4.50323
-2.84425
-0.782329
-1.60834
-0.854763
0.0115545
1.17858
1.63803
2.16262
1.02863
-3.73108
-3.5844
-3.13551
-2.17932
0.986418
1.42435
1.03393
0.674751
0.230472
-0.450158
-1.14097
-0.84383
-2.86717
-2.27486
-1.20926
1.84845
2.72657
2.76776
2.66696
2.466
2.19904
1.8471
1.69836
1.62242
-2.18737
-1.26072
0.561042
4.69425
4.78032
4.79578
4.70622
4.56073
4.35668
4.12652
3.94119
3.81516
-1.14431
-0.0263063
1.83212
6.49766
6.74607
6.80288
6.76761
6.70613
6.58963
6.44942
6.30149
6.16162
0.555668
1.74233
3.20381
8.04405
8.64099
8.73043
8.74028
8.79055
8.77575
8.75151
8.69671
8.62092
2.93192
4.05276
5.00429
7.06378
9.90136
10.5378
10.5286
10.7448
10.8399
10.9634
11.0397
11.074
6.05319
7.11771
8.15664
8.6327
9.66062
10.5029
11.5483
12.5272
12.7278
13.0257
13.2546
13.3709
9.68703
10.7136
11.7072
12.3813
12.9187
13.2259
13.2485
13.801
14.0732
14.9077
15.3568
15.5292
13.6188
14.7129
15.5622
16.2435
16.7153
17.0058
17.5613
17.3957
17.2967
16.5984
17.1466
17.5368
17.6133
19.0567
19.7108
20.261
20.556
20.6887
20.9396
20.9301
20.7849
21.769
19.9505
19.5151
20.5128
22.6267
23.2069
23.7329
24.023
24.0948
24.2401
24.3234
23.9442
24.601
23.6493
22.7966
-0.675395
-1.89466
-2.70923
-3.27873
-3.67928
-3.97083
-4.20259
-4.37892
-4.48421
-4.512
-4.46837
-4.35584
-0.487877
-0.60378
-1.0351
-1.30607
-1.46328
-1.58758
-1.70103
-1.79587
-1.85459
-1.81719
-1.75897
-1.69775
0.670909
0.839212
0.689964
0.601017
0.568371
0.529031
0.437514
0.442555
0.612114
0.395467
0.587057
0.661625
3.81807
3.78215
3.22877
3.25392
3.32294
3.26455
3.0172
2.80914
2.74175
2.69674
3.4218
4.34774
6.05519
5.95608
5.71393
5.82046
6.65857
6.82134
6.14872
5.66
5.4827
5.45065
7.61041
7.82471
8.53589
8.41874
8.304
8.23006
8.36368
9.96124
9.56009
8.77195
8.41827
8.05613
10.0133
10.4255
11.1019
11.0782
11.0873
11.5139
11.9278
11.6413
10.7843
12.083
11.6543
11.8847
11.0215
12.4195
13.4501
13.3718
13.3415
13.7081
14.8196
14.7979
18.1883
17.2454
15.2452
14.5904
14.8133
14.9265
15.6765
15.5446
15.6392
16.2648
19.2898
19.8039
18.2945
19.8075
18.7706
17.5789
18.4728
19.166
17.7644
17.6699
17.5326
17.8035
18.4235
19.1051
20.2533
20.3603
20.7653
20.4293
22.0063
23.1813
19.7404
19.5347
19.3524
19.7551
20.5437
21.4307
22.273
22.575
23.1778
23.6574
25.9798
27.6006
21.1805
21.0546
20.7357
21.3701
22.4006
23.31
24.4603
25.2363
25.8161
26.4893
28.802
31.93
30.6902
21.4966
22.7664
24.0446
23.4913
23.7504
23.8527
24.0951
24.613
25.0555
25.2651
24.5858
29.0244
28.5956
26.2362
25.7722
24.0141
25.1078
24.9996
25.0149
25.5641
26.0529
26.5838
27.787
29.9862
28.9921
28.0369
33.8335
34.4391
26.5483
24.8874
25.0763
25.5724
26.2714
26.0003
26.0161
31.1987
32.9682
32.629
26.4665
23.48
21.1968
24.884
33.2913
35.0359
34.9412
33.5719
33.2652
26.4682
28.783
28.6418
26.7204
26.6805
25.7452
25.9509
26.7117
27.6179
30.8889
32.882
29.0219
26.5012
33.0845
27.233
24.302
25.6671
26.7322
27.2504
27.5985
28.0006
29.2968
33.1211
28.2698
27.3759
40.0436
38.0926
38.7057
35.9988
27.5341
27.9928
27.9368
27.6372
27.6511
29.1343
32.5318
33.4605
29.2357
31.6329
36.8748
36.5839
29.909
29.0999
28.3454
27.1196
25.6919
25.4742
27.032
20.1863
21.0185
20.7503
21.4997
22.8876
23.4882
23.1728
22.5763
22.1644
22.2845
22.8424
22.3381
27.9919
25.7543
23.5347
22.884
23.357
24.2881
24.6343
23.9421
23.528
23.1217
24.3126
23.2936
25.9764
26.676
25.4794
25.046
24.9725
25.4232
26.9632
30.2738
32.6395
32.232
32.9664
34.922
29.2073
27.655
27.2693
26.9837
27.962
28.7759
29.7942
30.1902
33.297
37.6007
37.9009
35.2825
22.3746
22.3526
21.7632
22.3936
23.7378
23.6311
29.6006
29.2269
29.7441
29.492
31.2016
27.5869
23.2807
23.5231
22.1823
22.6339
23.8753
25.1964
28.3555
29.4053
30.9438
34.5243
28.8914
28.4902
34.351
31.394
33.9541
34.8576
33.5018
25.6085
27.6274
27.7041
28.0868
27.7416
26.6293
28.6858
33.4357
33.5981
32.2686
29.0995
25.9303
26.0493
27.1028
27.0363
26.2663
25.7542
26.0954
28.0596
24.5373
26.1225
26.2595
29.7143
30.9301
31.3049
26.7046
22.6766
24.7244
25.2983
26.0999
26.435
24.1377
23.1585
28.0923
32.5482
31.2273
30.0204
29.3056
32.7991
30.1196
28.7079
28.9543
29.3747
27.045
26.1887
25.056
25.6288
27.1209
27.3528
25.8206
27.8169
33.3649
31.5646
30.6024
31.2944
29.8757
28.2568
26.4081
26.6808
26.2345
26.5989
26.1936
26.4499
25.9058
27.0976
30.0641
31.182
26.0444
24.5802
24.1992
23.8652
23.9749
24.1148
24.2803
24.566
24.9054
25.4923
26.0102
26.3227
30.1474
33.3275
29.5004
24.4724
24.839
25.0243
25.1599
25.3761
25.9124
26.2554
26.3824
26.6743
32.8929
34.8139
38.7501
29.0509
25.6215
25.757
25.8224
25.9056
26.002
26.6807
27.2181
27.5619
31.0267
28.8329
27.4668
26.9292
27.5771
26.2947
26.2751
26.1921
26.0186
25.8924
26.3103
27.5926
24.4733
25.1095
25.2092
25.3673
25.5898
25.8683
26.1515
26.4672
26.5129
27.0462
26.736
27.1669
25.8509
26.2665
26.4881
26.7037
26.8941
27.1034
27.3516
27.8485
28.2854
29.0338
28.49
27.0908
26.9124
27.3638
27.5848
27.7196
27.8098
27.932
28.0726
28.5393
29.1854
30.6759
32.7447
33.519
27.9309
28.4282
28.6042
28.5956
28.4466
28.246
28.235
28.6197
29.4741
30.9534
33.2602
38.9376
28.0545
21.8236
21.4189
22.6729
23.9463
24.7155
26.1262
26.8549
27.7604
28.2047
28.7128
31.8867
31.6728
34.4827
26.8457
24.2544
25.1849
25.4061
27.1063
27.6448
29.2006
29.3623
29.6975
29.6968
30.9215
27.969
25.2862
25.9462
24.6139
25.1784
27.406
27.4477
29.8316
29.6443
30.2964
30.7204
36.2628
31.9329
25.4411
24.0799
31.1628
32.6967
34.9894
35.3673
36.3072
29.7213
30.7604
31.8441
30.6563
40.0201
37.9968
28.9793
26.0865
28.4213
29.7454
28.6366
27.3683
27.3568
27.3446
28.2939
27.7003
27.2752
25.7419
27.3662
26.7978
26.6453
26.5619
27.4805
27.4339
27.6253
27.797
28.7369
27.6221
27.1781
26.574
27.2195
27.0721
27.039
27.1153
27.5247
27.5751
27.7429
27.9229
28.6283
27.7258
27.3135
26.9908
27.275
27.2615
27.2792
27.3911
27.6005
27.6447
27.765
27.8782
28.1813
31.5627
35.111
40.3934
44.957
41.3134
34.4861
30.992
29.5817
28.3103
26.8473
27.7316
31.6763
30.7871
30.0772
35.1422
38.1386
36.8921
33.9792
32.3688
31.3584
30.6306
30.1353
30.4799
32.21
30.7932
31.5701
33.3197
34.6106
34.7911
33.6773
32.7215
32.0444
31.6559
31.4328
31.1629
30.8796
31.2658
32.4722
33.5891
34.2384
34.086
33.405
32.719
32.1277
31.6692
31.3193
31.1513
30.9925
31.9739
30.2289
29.1183
28.6962
28.4434
27.8076
27.3651
29.5006
31.5571
32.441
30.8445
30.3891
31.0366
30.2548
29.7159
29.2611
28.9568
28.6298
28.5968
29.5992
30.7036
30.9671
30.6371
30.4862
30.5434
30.1189
29.8446
29.6081
29.3425
29.1698
29.3
29.9139
30.4654
30.5583
30.4868
30.4091
30.6799
30.3613
30.1096
29.8645
29.6093
29.4626
29.5579
29.9544
30.3076
30.393
30.4054
30.3294
30.0794
29.6094
30.5603
29.478
27.6008
27.0707
26.9371
27.2753
26.3532
26.1995
26.2175
27.2031
30.1395
29.8699
30.0741
29.4037
28.3993
28.0419
27.5234
27.6757
27.3211
26.9999
26.916
27.2546
30.1027
29.8795
29.8205
29.3544
28.7173
28.3513
28.1385
28.1635
27.7928
27.5878
27.473
27.5112
30.0537
29.8381
29.6939
29.3453
28.9269
28.6488
28.4691
28.3326
28.0922
27.889
27.7522
27.7019
27.281
27.1495
27.4145
27.3236
26.7627
26.569
26.3843
26.7975
26.6298
26.6496
27.5904
28.6957
27.3229
27.3453
27.4769
27.5491
27.3662
27.1982
26.9169
26.865
26.7853
26.9959
27.5801
28.2254
27.4857
27.5457
27.649
27.6959
27.6142
27.4903
27.2378
27.0825
27.0055
27.1944
27.5488
27.9184
27.6594
27.7048
27.7637
27.7982
27.7338
27.6003
27.3711
27.1867
27.1033
27.2402
27.4542
27.6019
29.2624
28.9942
28.142
27.2712
26.8307
26.7707
26.765
26.6807
26.5085
26.3039
26.4169
27.5357
28.707
28.6538
28.1981
27.6843
27.371
27.2635
27.2382
27.2278
27.2192
27.0132
26.6109
27.4805
28.3993
28.4942
28.2396
27.9144
27.6895
27.5858
27.5535
27.5548
27.5496
27.3846
27.6108
29.7087
28.3623
28.4844
28.3013
28.0642
27.8878
27.7944
27.76
27.7571
27.7451
27.6579
29.2338
30.6631
28.3752
28.9394
29.1848
29.1903
29.006
28.7205
28.5507
28.7278
29.3868
30.07
30.8846
30.1898
28.3331
28.8255
28.9514
29.0203
28.8833
28.7637
28.9461
29.0139
28.8478
28.8707
29.1659
28.3064
29.4468
28.9669
28.6433
28.5003
28.6296
28.9784
29.2539
29.2971
29.0961
28.8756
28.6389
27.8654
29.6111
29.1466
28.8685
28.8037
28.9259
29.1946
29.3851
29.3853
29.1571
28.8153
28.4014
27.6434
28.201
26.6145
26.6741
25.1532
33.4058
31.9493
28.284
33.248
34.6618
33.6906
30.0547
30.2406
27.9956
27.5758
27.3226
26.23
26.5622
31.3402
33.3236
31.5347
29.4239
30.8579
32.4902
30.6517
28.0334
28.0506
27.8442
27.1491
27.3035
29.8775
29.6554
33.9264
31.7608
30.2029
28.5874
27.9861
28.3027
28.4031
28.2416
27.8777
28.1312
29.409
28.8233
28.3948
29.931
29.9005
28.8252
28.157
27.8318
27.4515
27.2367
27.3465
27.3657
27.3999
27.489
27.6124
27.6403
27.6981
27.6659
26.8453
27.9155
27.5662
27.3871
27.4031
27.4171
27.4467
27.5133
27.5872
27.6079
27.6399
27.643
27.2829
27.977
27.6515
27.4832
27.4481
27.4455
27.465
27.5097
27.5558
27.5768
27.6023
27.6359
27.4887
28.0125
27.7074
27.5486
27.4855
27.4668
27.4752
27.5032
27.5346
27.5577
27.585
27.6316
27.5721
28.0149
27.7372
27.5967
27.5211
27.4895
27.4875
27.5033
27.5265
27.5516
27.5842
27.6331
27.6196
27.9952
27.7469
27.6348
27.5581
27.5167
27.5048
27.5115
27.5292
27.555
27.5902
27.639
27.6503
27.9837
27.743
27.667
27.5964
27.5475
27.5266
27.5253
27.5382
27.5628
27.5972
27.6435
27.6669
27.7629
27.728
27.6946
27.6334
27.5788
27.5494
27.5409
27.5486
27.5701
27.6014
27.6432
27.6714
27.7698
27.7215
27.7192
27.6667
27.607
27.57
27.5544
27.5567
27.5736
27.6005
27.6374
27.6668
27.9191
27.7385
27.7432
27.6956
27.6299
27.5854
27.5632
27.5599
27.5718
27.5941
27.6267
27.6562
28.0366
27.7493
27.7678
27.7204
27.6465
27.5942
27.566
27.5576
27.5647
27.583
27.6129
27.6431
28.5666
27.7193
27.7849
27.739
27.6564
27.5973
27.5643
27.5518
27.5552
27.5705
27.5995
27.6315
32.8098
33.1208
33.6634
33.9695
33.7977
33.3165
32.8129
32.3629
31.9752
31.6842
31.4508
31.1775
33.2833
33.3873
33.6407
33.7699
33.6054
33.2399
32.8471
32.4851
32.1552
31.8652
31.5897
31.2795
33.3498
33.4369
33.5727
33.6115
33.45
33.1586
32.8395
32.5245
32.2287
31.9431
31.6511
31.3345
33.368
33.4311
33.4991
33.4906
33.3378
33.0894
32.8103
32.5276
32.2478
31.9681
31.6748
31.3646
33.3682
33.4102
33.4367
33.3999
33.254
33.0326
32.7791
32.515
32.2455
31.9713
31.683
31.3832
33.3588
33.3876
33.3889
33.3345
33.1934
32.9891
32.7521
32.4998
32.2377
31.9686
31.6869
31.3977
33.3483
33.3687
33.3547
33.2888
33.151
32.9579
32.7317
32.4874
32.2309
31.9663
31.6912
31.4112
33.3409
33.3553
33.3316
33.2581
33.1223
32.9365
32.7177
32.479
32.2269
31.9663
31.6967
31.4242
33.3378
33.3478
33.3174
33.2388
33.1041
32.9229
32.7089
32.4742
32.2255
31.968
31.7028
31.4357
33.3394
33.3461
33.3111
33.2286
33.094
32.9152
32.7041
32.472
32.2257
31.9704
31.7083
31.4449
33.3454
33.35
33.3118
33.2263
33.0907
32.9125
32.7025
32.4716
32.2267
31.9729
31.7126
31.4513
33.3538
33.3572
33.3168
33.2292
33.0921
32.9131
32.7029
32.4722
32.2278
31.9747
31.7153
31.4547
30.8494
30.5422
30.2788
30.0291
29.7832
29.64
29.6888
29.9455
30.2029
30.3065
30.3556
30.2568
30.954
30.6531
30.3848
30.1382
29.9094
29.7735
29.7904
29.9623
30.1591
30.2667
30.3467
30.3151
31.0176
30.7242
30.4582
30.2198
30.0099
29.8835
29.8809
29.9987
30.151
30.2616
30.3517
30.3715
31.0588
30.7749
30.5162
30.2887
30.0963
29.9788
29.9633
30.0451
30.166
30.2712
30.3619
30.4038
31.0892
30.8156
30.5663
30.3498
30.1721
30.0617
30.0374
30.0941
30.1912
30.2864
30.372
30.4215
31.1149
30.8509
30.611
30.4044
30.2382
30.1331
30.1022
30.1404
30.218
30.3012
30.3784
30.4291
31.1378
30.8822
30.6505
30.4522
30.2944
30.1928
30.1563
30.1799
30.241
30.3118
30.3795
30.4282
31.1582
30.9093
30.6842
30.4922
30.3405
30.2403
30.1987
30.2103
30.2572
30.3163
30.3749
30.4203
31.1752
30.9314
30.7111
30.5234
30.3751
30.2753
30.2287
30.2303
30.2655
30.3146
30.3657
30.4078
31.1881
30.9475
30.7303
30.5451
30.3984
30.2977
30.2465
30.24
30.266
30.3074
30.3534
30.3935
31.1965
30.9576
30.7418
30.5575
30.4108
30.3085
30.2532
30.2406
30.2598
30.2961
30.3398
30.3808
31.2006
30.9622
30.7467
30.5622
30.4148
30.3106
30.2522
30.2356
30.2508
30.2844
30.3279
30.3726
30.0296
29.7828
29.6071
29.3326
29.0271
28.8027
28.6359
28.4846
28.2667
28.0662
27.9115
27.8297
29.8471
29.6964
29.5303
29.3073
29.0678
28.8755
28.7163
28.5596
28.3624
28.1731
28.0161
27.9212
29.7043
29.5966
29.4606
29.2758
29.0778
28.9054
28.7518
28.5956
28.4143
28.2384
28.0879
27.9891
29.5971
29.5204
29.4025
29.2446
29.0736
28.9146
28.7655
28.6119
28.4437
28.2802
28.1384
28.0391
29.5161
29.4588
29.3559
29.2172
29.0642
28.9147
28.7695
28.62
28.4617
28.3087
28.1746
28.0758
29.4552
29.4103
29.3198
29.1947
29.0541
28.9116
28.7697
28.6243
28.4738
28.3291
28.2013
28.103
29.4104
29.3739
29.2926
29.1774
29.0454
28.908
28.769
28.6271
28.4828
28.3446
28.2216
28.1234
29.3791
29.3479
29.2731
29.1648
29.0387
28.9051
28.7685
28.6296
28.4899
28.3566
28.2372
28.1391
29.3592
29.3311
29.2603
29.1564
29.0342
28.9032
28.7685
28.6319
28.4957
28.366
28.249
28.1509
29.3492
29.3222
29.2532
29.1517
29.0317
28.9024
28.7691
28.6342
28.5003
28.3729
28.2576
28.1595
29.3481
29.3207
29.2515
29.1503
29.031
28.9024
28.7699
28.6361
28.5037
28.3777
28.2632
28.165
29.3535
29.324
29.2532
29.1512
29.0315
28.9029
28.7706
28.6374
28.5057
28.3803
28.266
28.1679
27.7884
27.816
27.8466
27.8579
27.7866
27.6388
27.4184
27.2281
27.14
27.2201
27.3358
27.028
27.8777
27.8873
27.8956
27.8845
27.8029
27.6477
27.4346
27.2482
27.1616
27.2175
27.3194
27.1871
27.9398
27.9323
27.922
27.8918
27.8015
27.6455
27.4438
27.2686
27.1883
27.2325
27.3344
27.3189
27.9832
27.9604
27.9344
27.8893
27.7935
27.6424
27.456
27.2973
27.2256
27.2649
27.3614
27.3922
28.0135
27.9777
27.939
27.8831
27.7854
27.6433
27.4738
27.334
27.273
27.3062
27.3932
27.4418
28.0349
27.9885
27.9399
27.8769
27.7798
27.6476
27.4975
27.3752
27.3222
27.3492
27.4247
27.4786
28.0506
27.996
27.9402
27.8724
27.7779
27.656
27.5229
27.4151
27.3672
27.3868
27.4495
27.5025
28.0626
28.0019
27.9412
27.8708
27.7794
27.6668
27.547
27.4497
27.4036
27.4146
27.4643
27.5131
28.0719
28.007
27.9432
27.8717
27.7833
27.6779
27.5674
27.4763
27.4288
27.4305
27.4682
27.5118
28.0789
28.0116
27.9463
27.8747
27.7887
27.6879
27.5824
27.4931
27.4416
27.4342
27.4623
27.5018
28.0837
28.0155
27.95
27.8792
27.7949
27.6963
27.5918
27.5004
27.4427
27.4273
27.4489
27.4871
28.0863
28.0183
27.9536
27.8839
27.8007
27.7024
27.5963
27.5006
27.4366
27.4149
27.4334
27.4731
28.7838
28.5589
28.3597
28.1671
28.0211
27.9378
27.9044
27.9027
27.9033
27.8705
29.415
30.3574
28.7741
28.5739
28.3951
28.2365
28.1145
28.0418
28.013
28.0187
28.0401
28.1078
29.248
29.9173
28.6774
28.553
28.4108
28.2826
28.1817
28.1203
28.0982
28.1129
28.1561
28.253
29.0906
29.6777
28.6144
28.5275
28.4161
28.3134
28.2308
28.181
28.1667
28.19
28.2493
28.3637
28.9069
29.5503
28.5717
28.5049
28.4167
28.3341
28.2671
28.2281
28.2221
28.2534
28.3238
28.4552
28.7891
29.4814
28.5381
28.4859
28.4151
28.3478
28.2936
28.2642
28.2659
28.3045
28.3831
28.5225
28.7773
29.4337
28.5115
28.4701
28.4122
28.3565
28.3122
28.2909
28.2995
28.3442
28.4289
28.569
28.8146
29.3677
28.4914
28.4576
28.4089
28.3613
28.3244
28.3093
28.3233
28.3732
28.463
28.6016
28.8457
29.2987
28.4769
28.448
28.4053
28.3631
28.3312
28.3203
28.3382
28.392
28.4873
28.6302
28.8665
29.2499
28.4673
28.4417
28.4017
28.3624
28.3332
28.3246
28.3443
28.4005
28.5014
28.6622
28.8905
29.173
28.4626
28.4377
28.3982
28.3595
28.3311
28.3228
28.3422
28.3983
28.5037
28.6932
28.9944
29.0847
28.4623
28.4359
28.3954
28.3558
28.3268
28.3175
28.3353
28.3896
28.4977
28.7225
29.2849
29.5268
29.6105
29.2353
29.007
28.9659
29.0745
29.2767
29.4024
29.3617
29.123
28.7567
28.3042
27.269
29.5212
29.25
29.0741
29.0488
29.1403
29.2903
29.3682
29.3019
29.0734
28.7422
28.4104
27.7582
29.4304
29.2386
29.1052
29.0894
29.163
29.2711
29.3137
29.2355
29.0313
28.7545
28.5175
28.1732
29.377
29.2311
29.1242
29.1107
29.1656
29.2399
29.257
29.1763
29.0018
28.7801
28.6112
28.427
29.3559
29.238
29.1447
29.1268
29.1623
29.2088
29.208
29.1301
28.9834
28.81
28.6902
28.589
29.3562
29.2605
29.1724
29.1451
29.1607
29.1837
29.17
29.0964
28.9744
28.8381
28.7522
28.6979
29.3687
29.2957
29.2077
29.168
29.1637
29.1668
29.1425
29.0738
28.9705
28.8607
28.7965
28.7687
29.3857
29.338
29.2478
29.1937
29.1705
29.1567
29.124
29.0588
28.9686
28.8762
28.8244
28.8104
29.4056
29.3821
29.2877
29.219
29.1788
29.151
29.1118
29.0484
28.9663
28.8839
28.838
28.83
29.4255
29.4252
29.3243
29.2406
29.1857
29.1472
29.1032
29.0406
28.9623
28.8843
28.8394
28.8331
29.4321
29.4685
29.3566
29.2566
29.1892
29.1434
29.0966
29.034
28.9563
28.8779
28.8309
28.8237
29.4308
29.502
29.3806
29.2661
29.1894
29.1396
29.0918
29.029
28.9498
28.8685
28.8178
28.8079
29.0507
28.7264
28.5204
28.3137
28.5186
29.2166
28.919
28.8643
29.4321
29.5613
28.8569
28.2727
29.1592
28.8801
28.6923
28.5661
28.709
29.1177
29.0053
29.0398
29.3339
28.995
28.8689
28.3484
29.09
28.9279
28.7894
28.7121
28.8078
29.0548
29.0319
29.0664
29.2125
28.8212
28.7699
28.4038
29.0468
28.9424
28.8442
28.7967
28.8608
29.0145
29.0276
29.0622
29.1241
28.9676
27.9947
28.4504
29.0207
28.9464
28.876
28.846
28.8894
28.9883
29.0129
29.041
29.0577
28.996
28.3132
28.3795
28.999
28.9454
28.8945
28.8747
28.9045
28.9704
28.996
29.0158
29.013
28.9606
28.6742
27.612
28.9807
28.9421
28.905
28.8913
28.912
28.9571
28.98
28.9928
28.9816
28.9346
28.8367
27.9604
28.9666
28.9384
28.9106
28.9004
28.9149
28.9467
28.9657
28.9733
28.9585
28.9178
28.8517
28.3718
28.9566
28.9349
28.913
28.9047
28.9149
28.938
28.9533
28.9568
28.9405
28.9053
28.8456
28.6655
28.9502
28.9319
28.9133
28.9056
28.9129
28.9304
28.9425
28.9429
28.9253
28.8935
28.858
28.842
28.9463
28.9297
28.912
28.9041
28.9094
28.9235
28.9331
28.9308
28.9113
28.8812
28.8652
28.9273
28.9448
28.9282
28.9101
28.9015
28.9056
28.9179
28.9261
28.9216
28.8996
28.8696
28.8661
29.0678
)
;

boundaryField
{
    rotor
    {
        type            calculated;
        value           nonuniform List<scalar> 
192
(
0
-0.0217901
0.0421682
0.661592
1.71972
1.26646
0.145624
0.303713
0.0861455
1.17261
1.43645
1.47675
0.576606
0.624523
0.875327
1.18487
1.51998
1.80584
2.01131
2.37561
2.84745
2.91598
2.82499
2.9094
-0.976168
-1.00903
-1.0332
-1.05442
-1.07286
-1.09278
-1.11299
-1.1309
-1.14239
-1.14138
-1.12017
-1.07043
-0.983576
-0.853474
-0.677689
-0.466053
-0.20907
0.0807512
0.337724
0.534505
0.648339
0.67018
0.603883
0.509745
1.00256
0.964911
0.961202
0.978416
1.01054
1.0562
1.11405
1.18315
1.2634
1.35549
1.46072
1.58054
1.71584
1.86624
2.03281
2.21611
2.40986
2.59625
2.75111
2.86097
2.91621
2.91708
2.87897
2.84123
-4.82407
-5.05032
-4.50323
-2.84425
-0.782329
-1.60834
-0.854763
0.0115545
1.17858
1.63803
2.16262
1.02863
-0.675395
-1.89466
-2.70923
-3.27873
-3.67928
-3.97083
-4.20259
-4.37892
-4.48421
-4.512
-4.46837
-4.35584
0
1.3195
2.55295
3.88743
5.26769
6.68334
8.14861
9.73487
11.575
13.5223
15.3179
16.7516
-4.35584
-1.69775
0.661625
4.34774
7.82471
10.4255
12.4195
14.9265
19.166
23.1813
27.6006
31.93
-0.976168
0.497533
1.69598
3.05103
4.47946
5.96695
7.49642
9.03662
10.5353
11.8798
12.7441
12.7274
2.9094
6.02415
7.21705
6.52571
9.30108
9.81205
14.6217
22.058
26.9646
30.8764
34.9134
35.6562
1.00256
2.44537
3.59544
4.84754
6.16294
7.53127
8.94826
10.4063
11.8949
13.3902
14.8118
16.0705
0.509745
1.69579
2.99447
4.81301
7.62527
12.8215
14.572
19.1504
22.2385
25.5403
30.0625
33.509
-4.82407
-3.73108
-2.86717
-2.18737
-1.14431
0.555668
2.93192
6.05319
9.68703
13.6188
17.6133
20.5128
2.84123
4.10714
5.3086
6.72293
8.34172
10.1837
12.2763
14.6403
17.2816
20.1939
23.3313
26.3616
)
;
    }
    stator
    {
        type            calculated;
        value           nonuniform List<scalar> 
192
(
28.5666
27.7193
27.7849
27.739
27.6564
27.5973
27.5643
27.5518
27.5552
27.5705
27.5995
27.6315
33.3538
33.3572
33.3168
33.2292
33.0921
32.9131
32.7029
32.4722
32.2278
31.9747
31.7153
31.4547
31.2006
30.9622
30.7467
30.5622
30.4148
30.3106
30.2522
30.2356
30.2508
30.2844
30.3279
30.3726
29.3535
29.324
29.2532
29.1512
29.0315
28.9029
28.7706
28.6374
28.5057
28.3803
28.266
28.1679
28.0863
28.0183
27.9536
27.8839
27.8007
27.7024
27.5963
27.5006
27.4366
27.4149
27.4334
27.4731
28.4623
28.4359
28.3954
28.3558
28.3268
28.3175
28.3353
28.3896
28.4977
28.7225
29.2849
29.5268
29.4308
29.502
29.3806
29.2661
29.1894
29.1396
29.0918
29.029
28.9498
28.8685
28.8178
28.8079
28.9448
28.9282
28.9101
28.9015
28.9056
28.9179
28.9261
28.9216
28.8996
28.8696
28.8661
29.0678
32.8098
33.2833
33.3498
33.368
33.3682
33.3588
33.3483
33.3409
33.3378
33.3394
33.3454
33.3538
26.8453
27.2829
27.4887
27.5721
27.6196
27.6503
27.6669
27.6714
27.6668
27.6562
27.6431
27.6315
30.0296
29.8471
29.7043
29.5971
29.5161
29.4552
29.4104
29.3791
29.3592
29.3492
29.3481
29.3535
30.2568
30.3151
30.3715
30.4038
30.4215
30.4291
30.4282
30.4203
30.4078
30.3935
30.3808
30.3726
28.7838
28.7741
28.6774
28.6144
28.5717
28.5381
28.5115
28.4914
28.4769
28.4673
28.4626
28.4623
27.028
27.1871
27.3189
27.3922
27.4418
27.4786
27.5025
27.5131
27.5118
27.5018
27.4871
27.4731
29.0507
29.1592
29.09
29.0468
29.0207
28.999
28.9807
28.9666
28.9566
28.9502
28.9463
28.9448
27.269
27.7582
28.1732
28.427
28.589
28.6979
28.7687
28.8104
28.83
28.8331
28.8237
28.8079
)
;
    }
    front
    {
        type            empty;
    }
    back
    {
        type            empty;
    }
}


// ************************************************************************* //
