/*--------------------------------*- C++ -*----------------------------------*\
| =========                 |                                                 |
| \\      /  F ield         | OpenFOAM: The Open Source CFD Toolbox           |
|  \\    /   O peration     | Version:  v1606+                                |
|   \\  /    A nd           | Web:      www.OpenFOAM.com                      |
|    \\/     M anipulation  |                                                 |
\*---------------------------------------------------------------------------*/
FoamFile
{
    version     2.0;
    format      ascii;
    class       volVectorField;
    location    "1.72";
    object      U;
}
// * * * * * * * * * * * * * * * * * * * * * * * * * * * * * * * * * * * * * //

dimensions      [0 1 -1 0 0 0 0];

internalField   nonuniform List<vector> 
6000
(
(-0.00165059 0.00361996 0)
(0.0145263 -0.0572337 0)
(0.00759381 -0.0592699 0)
(0.00521714 -0.0718643 0)
(0.00732848 -0.0658867 0)
(0.0239426 -0.0390957 0)
(0.0547293 -0.0343301 0)
(0.0619454 -0.0487868 0)
(0.0296692 -0.0907225 0)
(-0.000465704 -0.122881 0)
(-0.0117044 -0.124295 0)
(-0.00559094 -0.118568 0)
(0.00827604 -0.11947 0)
(0.0118511 -0.112206 0)
(0.00981385 -0.118563 0)
(0.00976443 -0.126861 0)
(-0.000317241 -0.121868 0)
(-0.0188507 -0.100165 0)
(-0.0455882 -0.0785393 0)
(-0.0477686 -0.0543069 0)
(-0.0210882 -0.0232464 0)
(-0.00382007 0.0016636 0)
(0.0209614 0.0259977 0)
(0.0522153 0.0329723 0)
(0.0734947 0.0542518 0)
(0.0684862 0.0648787 0)
(0.0221209 0.0529073 0)
(-0.0140172 -0.0241929 0)
(-0.00579569 -0.0705104 0)
(0.0120328 -6.4939e-05 0)
(0.0111544 0.600553 0)
(-0.0233487 0.682652 0)
(-0.0360239 0.692094 0)
(-0.0260857 0.693311 0)
(-0.0139491 0.671733 0)
(0.009888 0.620257 0)
(0.0562078 0.608746 0)
(0.110098 0.66821 0)
(0.13491 0.729272 0)
(0.113609 0.718082 0)
(0.0826419 0.679118 0)
(0.0618868 0.631979 0)
(0.0473761 0.640237 0)
(0.0145551 0.651723 0)
(-0.0175779 0.660318 0)
(-0.0438885 0.674884 0)
(-0.0804315 0.702289 0)
(-0.102751 0.713408 0)
(-0.109869 0.691428 0)
(-0.0888554 0.633583 0)
(-0.048343 0.61374 0)
(-0.0093269 0.603685 0)
(0.0235589 0.568497 0)
(0.0556841 0.566876 0)
(0.0890247 0.569505 0)
(0.0845863 0.651692 0)
(0.0372709 0.665654 0)
(-0.0247067 0.628365 0)
(-0.0273062 0.644801 0)
(-0.0303109 0.622565 0)
(-0.0389001 0.473028 0)
(-0.083333 0.483134 0)
(-0.0848796 0.452174 0)
(-0.0711085 0.420699 0)
(-0.0595624 0.404869 0)
(-0.0420358 0.378139 0)
(0.012503 0.342752 0)
(0.0978708 0.394835 0)
(0.175992 0.48422 0)
(0.187822 0.499249 0)
(0.183483 0.489649 0)
(0.160707 0.467966 0)
(0.103459 0.493937 0)
(0.0158832 0.53819 0)
(-0.0640054 0.51643 0)
(-0.101833 0.508746 0)
(-0.12929 0.51477 0)
(-0.149884 0.516241 0)
(-0.145428 0.453034 0)
(-0.0950973 0.364848 0)
(-0.0435786 0.36354 0)
(-0.0100437 0.365779 0)
(0.0204655 0.368366 0)
(0.0536229 0.351694 0)
(0.0708103 0.392121 0)
(0.0651234 0.525513 0)
(0.0416172 0.596409 0)
(-0.00364637 0.489636 0)
(-0.00435841 0.359837 0)
(-0.00112258 0.413119 0)
(-0.0122338 0.59928 0)
(-0.0162751 0.517167 0)
(-0.0278182 0.482382 0)
(-0.032441 0.460287 0)
(-0.0528357 0.474718 0)
(-0.0602672 0.410201 0)
(-0.0121386 0.3232 0)
(0.0689238 0.344678 0)
(0.189428 0.497669 0)
(0.247113 0.552895 0)
(0.268691 0.545831 0)
(0.266237 0.559178 0)
(0.195497 0.609965 0)
(0.0641452 0.686883 0)
(-0.072243 0.600356 0)
(-0.140286 0.566727 0)
(-0.173433 0.583934 0)
(-0.195608 0.579847 0)
(-0.185563 0.487613 0)
(-0.149947 0.363217 0)
(-0.141376 0.40038 0)
(-0.136271 0.401409 0)
(-0.101127 0.399643 0)
(-0.0450003 0.394478 0)
(-0.0208466 0.493632 0)
(0.0253233 0.636004 0)
(0.0851703 0.686857 0)
(0.105996 0.66109 0)
(0.0592386 0.467245 0)
(-0.0013041 0.511737 0)
(0.0120031 0.579952 0)
(0.0202354 0.567381 0)
(0.00164596 0.546535 0)
(0.00162793 0.491173 0)
(-0.00538362 0.475054 0)
(0.00508464 0.366509 0)
(0.0328198 0.23039 0)
(0.0875529 0.208155 0)
(0.181385 0.368495 0)
(0.285333 0.48019 0)
(0.341786 0.51436 0)
(0.35031 0.574646 0)
(0.292031 0.733621 0)
(0.166842 0.881542 0)
(-0.00920429 0.7555 0)
(-0.142502 0.613042 0)
(-0.213658 0.622119 0)
(-0.245561 0.579945 0)
(-0.231859 0.446578 0)
(-0.239245 0.3479 0)
(-0.273819 0.432177 0)
(-0.282534 0.408698 0)
(-0.251389 0.349341 0)
(-0.184774 0.342781 0)
(-0.0995444 0.432825 0)
(-0.0088924 0.492071 0)
(0.0799328 0.557746 0)
(0.130664 0.584219 0)
(0.0956609 0.569339 0)
(0.0172712 0.569241 0)
(0.00670661 0.552551 0)
(0.011171 0.544042 0)
(0.0206531 0.513217 0)
(0.0331533 0.485447 0)
(0.0410208 0.477163 0)
(0.100827 0.40568 0)
(0.136811 0.23164 0)
(0.157533 0.184397 0)
(0.194578 0.291418 0)
(0.267334 0.390848 0)
(0.337423 0.474662 0)
(0.352373 0.585846 0)
(0.302898 0.821704 0)
(0.222447 1.01864 0)
(0.0893199 0.958586 0)
(-0.0928578 0.760733 0)
(-0.221373 0.68447 0)
(-0.258873 0.601942 0)
(-0.257633 0.455853 0)
(-0.323056 0.411207 0)
(-0.359514 0.454253 0)
(-0.35321 0.390366 0)
(-0.340295 0.286842 0)
(-0.287445 0.241643 0)
(-0.199295 0.309188 0)
(-0.0793728 0.424439 0)
(0.0488716 0.533541 0)
(0.0971988 0.585045 0)
(0.080862 0.593667 0)
(0.0276262 0.586793 0)
(0.00127985 0.556653 0)
(0.0101581 0.55257 0)
(0.032177 0.523765 0)
(0.0381792 0.500631 0)
(0.0867262 0.439152 0)
(0.177102 0.312525 0)
(0.217661 0.198449 0)
(0.209537 0.182466 0)
(0.209528 0.257327 0)
(0.239366 0.338985 0)
(0.283279 0.423778 0)
(0.307507 0.586553 0)
(0.262076 0.901277 0)
(0.193802 1.08882 0)
(0.119838 1.07582 0)
(-0.0243309 0.972973 0)
(-0.161202 0.767654 0)
(-0.210586 0.61741 0)
(-0.215375 0.512444 0)
(-0.259469 0.46516 0)
(-0.306385 0.459742 0)
(-0.289794 0.380105 0)
(-0.279893 0.268257 0)
(-0.288046 0.192116 0)
(-0.272221 0.196549 0)
(-0.214432 0.277519 0)
(-0.106635 0.417943 0)
(0.0298959 0.564428 0)
(0.0594271 0.669988 0)
(0.0327076 0.677555 0)
(0.00734051 0.561544 0)
(0.0510323 0.538614 0)
(0.0787032 0.511035 0)
(0.104107 0.464779 0)
(0.151054 0.345647 0)
(0.174737 0.237195 0)
(0.18085 0.194294 0)
(0.172479 0.201919 0)
(0.172689 0.24767 0)
(0.181477 0.322665 0)
(0.208903 0.399407 0)
(0.228131 0.573851 0)
(0.222697 0.971818 0)
(0.161931 1.14953 0)
(0.102675 1.13442 0)
(0.0227315 1.10167 0)
(-0.084822 0.86472 0)
(-0.137088 0.629505 0)
(-0.143842 0.524926 0)
(-0.145073 0.480963 0)
(-0.174809 0.46971 0)
(-0.167283 0.378479 0)
(-0.177757 0.278526 0)
(-0.201928 0.218715 0)
(-0.2374 0.208411 0)
(-0.26412 0.226994 0)
(-0.237487 0.266973 0)
(-0.129313 0.406236 0)
(-0.0377463 0.628039 0)
(-0.00564972 0.691269 0)
(0.0328772 0.507197 0)
(0.106395 0.494847 0)
(0.148203 0.489701 0)
(0.173544 0.435343 0)
(0.143406 0.329608 0)
(0.116901 0.230414 0)
(0.105239 0.201634 0)
(0.0987885 0.206775 0)
(0.103798 0.239184 0)
(0.110868 0.313754 0)
(0.143289 0.370689 0)
(0.164112 0.547117 0)
(0.185996 1.00352 0)
(0.156518 1.21078 0)
(0.0974116 1.19314 0)
(0.0511858 1.16469 0)
(-0.0113722 0.94831 0)
(-0.0437384 0.648679 0)
(-0.0619069 0.526059 0)
(-0.0506286 0.477469 0)
(-0.0560044 0.463085 0)
(-0.0556979 0.382624 0)
(-0.0709033 0.303503 0)
(-0.102744 0.263684 0)
(-0.157903 0.267733 0)
(-0.21081 0.262232 0)
(-0.234228 0.258407 0)
(-0.227767 0.314854 0)
(-0.161331 0.541514 0)
(-0.0591096 0.605023 0)
(0.0595816 0.375219 0)
(0.124363 0.385751 0)
(0.136641 0.383209 0)
(0.127985 0.403113 0)
(0.085798 0.385593 0)
(0.0212779 0.273875 0)
(-0.00189964 0.209032 0)
(0.0151493 0.201768 0)
(0.0323228 0.227525 0)
(0.0535535 0.291046 0)
(0.0749331 0.356014 0)
(0.0978827 0.499388 0)
(0.124401 0.990508 0)
(0.152874 1.25851 0)
(0.10343 1.24527 0)
(0.0821711 1.21415 0)
(0.0752218 0.990891 0)
(0.0655543 0.670834 0)
(0.0454981 0.529131 0)
(0.0406796 0.481032 0)
(0.0377383 0.455592 0)
(0.0357991 0.392991 0)
(0.0308447 0.321741 0)
(0.0260542 0.290798 0)
(-0.0377739 0.330956 0)
(-0.137517 0.276821 0)
(-0.185571 0.273337 0)
(-0.189574 0.286195 0)
(-0.203533 0.426007 0)
(-0.0816333 0.428048 0)
(0.0374364 0.233055 0)
(0.0842819 0.35289 0)
(0.082155 0.368428 0)
(0.0885755 0.437821 0)
(0.065475 0.412086 0)
(-0.0143075 0.30269 0)
(-0.0779349 0.201728 0)
(-0.0547527 0.177909 0)
(-0.0146029 0.201672 0)
(0.0192521 0.263963 0)
(0.0307052 0.352748 0)
(0.0574616 0.474754 0)
(0.0513303 0.93864 0)
(0.119557 1.2968 0)
(0.106861 1.2869 0)
(0.123842 1.21653 0)
(0.165271 0.985036 0)
(0.162486 0.690793 0)
(0.129886 0.54527 0)
(0.107695 0.496202 0)
(0.0976874 0.460151 0)
(0.0958126 0.392594 0)
(0.11624 0.314902 0)
(0.0982093 0.322675 0)
(-0.0395996 0.417905 0)
(-0.108149 0.37447 0)
(-0.137514 0.296007 0)
(-0.124027 0.306983 0)
(-0.149664 0.415166 0)
(-0.0187573 0.260461 0)
(0.0123776 0.274741 0)
(0.0550697 0.470443 0)
(0.0725332 0.487712 0)
(0.102417 0.528145 0)
(0.133977 0.544691 0)
(0.102667 0.492819 0)
(0.01523 0.206354 0)
(-0.0707396 0.15461 0)
(-0.0213024 0.164753 0)
(0.019041 0.238727 0)
(0.0336145 0.354866 0)
(0.0344743 0.490181 0)
(0.0165995 0.855037 0)
(0.0514363 1.27448 0)
(0.100843 1.274 0)
(0.159316 1.15641 0)
(0.215934 0.944527 0)
(0.206615 0.714955 0)
(0.16171 0.583987 0)
(0.124951 0.525138 0)
(0.098575 0.471018 0)
(0.0948988 0.390787 0)
(0.10995 0.333447 0)
(-0.125102 0.440661 0)
(-0.191149 0.596046 0)
(-0.184658 0.447066 0)
(-0.13216 0.328868 0)
(-0.089104 0.355994 0)
(-0.0880904 0.450961 0)
(0.0313933 0.245124 0)
(0.00616346 0.248723 0)
(0.0500785 0.374233 0)
(0.0682354 0.381825 0)
(0.120027 0.406781 0)
(0.184344 0.441763 0)
(0.243076 0.476981 0)
(0.218663 0.433828 0)
(0.106935 0.182158 0)
(0.0239798 0.124765 0)
(0.0623646 0.206855 0)
(0.0731893 0.360438 0)
(0.0412011 0.542218 0)
(-0.0132005 0.858977 0)
(0.00792068 1.19618 0)
(0.0956683 1.19396 0)
(0.173697 1.08032 0)
(0.218948 0.913394 0)
(0.205449 0.744155 0)
(0.160365 0.63465 0)
(0.109151 0.56656 0)
(0.0564907 0.496011 0)
(0.039902 0.413718 0)
(-0.153045 0.508276 0)
(-0.3793 0.674051 0)
(-0.336002 0.530258 0)
(-0.213073 0.31515 0)
(-0.124934 0.223614 0)
(-0.0764941 0.303039 0)
(-0.0797072 0.368377 0)
(0.0196206 0.22746 0)
(0.0130128 0.166836 0)
(0.0520278 0.38935 0)
(0.0662475 0.357915 0)
(0.136925 0.363027 0)
(0.210836 0.380752 0)
(0.29883 0.402414 0)
(0.370786 0.412082 0)
(0.36632 0.348263 0)
(0.241951 0.185625 0)
(0.161259 0.192474 0)
(0.159815 0.37631 0)
(0.103561 0.609894 0)
(0.0436887 0.917689 0)
(0.0287148 1.11624 0)
(0.0972303 1.10007 0)
(0.165887 1.01006 0)
(0.200218 0.891793 0)
(0.18994 0.776603 0)
(0.14748 0.694684 0)
(0.0860401 0.62755 0)
(0.00881417 0.575051 0)
(-0.158982 0.556928 0)
(-0.525772 0.76277 0)
(-0.5411 0.649609 0)
(-0.346722 0.356839 0)
(-0.19529 0.185202 0)
(-0.144144 0.167571 0)
(-0.119067 0.269026 0)
(-0.108752 0.376065 0)
(0.0149621 0.14411 0)
(-0.00279063 0.135014 0)
(0.0391297 0.368238 0)
(0.0731572 0.280599 0)
(0.1401 0.267668 0)
(0.216492 0.286913 0)
(0.298162 0.303488 0)
(0.392056 0.309623 0)
(0.483517 0.324217 0)
(0.518994 0.28267 0)
(0.440591 0.219252 0)
(0.367762 0.351773 0)
(0.319587 0.626152 0)
(0.245499 0.894634 0)
(0.170793 1.00569 0)
(0.174239 0.984336 0)
(0.192275 0.927341 0)
(0.200465 0.857031 0)
(0.185439 0.781451 0)
(0.13994 0.71499 0)
(0.0551189 0.668435 0)
(-0.110414 0.69933 0)
(-0.497119 0.867693 0)
(-0.703463 0.868807 0)
(-0.521672 0.425941 0)
(-0.299485 0.159316 0)
(-0.188217 0.114186 0)
(-0.172185 0.159053 0)
(-0.146224 0.229917 0)
(-0.0885545 0.279625 0)
(0.0321669 0.0936256 0)
(-0.0171609 0.118196 0)
(0.0229162 0.319546 0)
(0.0686301 0.223011 0)
(0.127552 0.201378 0)
(0.193333 0.206118 0)
(0.269053 0.214802 0)
(0.349191 0.215141 0)
(0.44619 0.215604 0)
(0.567393 0.222902 0)
(0.672942 0.238941 0)
(0.751697 0.400364 0)
(0.84061 0.836796 0)
(0.767725 1.19968 0)
(0.638019 1.22955 0)
(0.534319 1.11148 0)
(0.451006 0.979441 0)
(0.370635 0.883884 0)
(0.272346 0.832374 0)
(0.126133 0.823561 0)
(-0.0959651 0.868885 0)
(-0.429404 1.07339 0)
(-0.769404 1.22882 0)
(-0.644751 0.72724 0)
(-0.415183 0.17949 0)
(-0.265421 0.0310705 0)
(-0.195864 0.0719842 0)
(-0.174682 0.143652 0)
(-0.126567 0.169192 0)
(-0.0518223 0.176937 0)
(0.0298724 0.090761 0)
(-0.0182484 0.128243 0)
(0.0248097 0.275999 0)
(0.0681028 0.171636 0)
(0.117242 0.145534 0)
(0.169329 0.145681 0)
(0.228452 0.150414 0)
(0.290729 0.145044 0)
(0.35718 0.126341 0)
(0.437546 0.100957 0)
(0.526985 0.0940913 0)
(0.658391 0.257039 0)
(0.914981 0.752824 0)
(1.06724 1.16431 0)
(1.1524 1.33472 0)
(1.10742 1.32231 0)
(0.967332 1.2646 0)
(0.731645 1.2078 0)
(0.434297 1.18368 0)
(0.10108 1.2215 0)
(-0.261549 1.32369 0)
(-0.614137 1.48474 0)
(-0.763163 1.29558 0)
(-0.480701 0.509206 0)
(-0.323341 0.0112078 0)
(-0.237017 -0.041806 0)
(-0.195474 0.0286382 0)
(-0.152638 0.102211 0)
(-0.0882426 0.109608 0)
(-0.0234343 0.102454 0)
(0.00915331 0.0923066 0)
(-0.0159174 0.1245 0)
(0.0337493 0.2283 0)
(0.0679795 0.132794 0)
(0.105125 0.106007 0)
(0.142789 0.0998612 0)
(0.186388 0.099502 0)
(0.232338 0.0940412 0)
(0.275931 0.0753252 0)
(0.315292 0.0376772 0)
(0.346156 -0.000514665 0)
(0.411053 0.0833116 0)
(0.643778 0.479959 0)
(0.901107 0.903955 0)
(1.13512 1.1562 0)
(1.22159 1.27535 0)
(1.15202 1.36854 0)
(0.90207 1.43054 0)
(0.545145 1.46601 0)
(0.168425 1.51493 0)
(-0.182171 1.59624 0)
(-0.470618 1.62697 0)
(-0.561687 1.21676 0)
(-0.334169 0.339692 0)
(-0.231966 -0.0881068 0)
(-0.191648 -0.0879136 0)
(-0.172429 -0.00722769 0)
(-0.117724 0.0476061 0)
(-0.0561272 0.053025 0)
(-0.0167608 0.0624532 0)
(-0.000806851 0.0887017 0)
(-0.0180939 0.118007 0)
(0.0374479 0.185333 0)
(0.0636106 0.103419 0)
(0.0902564 0.0767933 0)
(0.116363 0.0674937 0)
(0.145925 0.0634826 0)
(0.176313 0.0587531 0)
(0.202028 0.0470737 0)
(0.21429 0.0197099 0)
(0.205484 -0.0211311 0)
(0.194479 -0.0033095 0)
(0.320382 0.252805 0)
(0.555344 0.617405 0)
(0.839511 0.93119 0)
(1.03486 1.20544 0)
(1.05768 1.48502 0)
(0.868017 1.70267 0)
(0.551008 1.80029 0)
(0.221549 1.83639 0)
(-0.0587655 1.85023 0)
(-0.268649 1.75161 0)
(-0.351803 1.16303 0)
(-0.224797 0.186126 0)
(-0.146841 -0.137906 0)
(-0.145545 -0.105415 0)
(-0.130777 -0.0410376 0)
(-0.0825781 -0.00367517 0)
(-0.0421468 0.0111847 0)
(-0.0182297 0.0389907 0)
(-0.00509609 0.0803104 0)
(-0.0206751 0.114083 0)
(0.032279 0.142277 0)
(0.0555702 0.0827812 0)
(0.0738151 0.0562115 0)
(0.092158 0.045348 0)
(0.110967 0.0398864 0)
(0.128311 0.0373969 0)
(0.139958 0.0350399 0)
(0.139188 0.0268649 0)
(0.116236 0.00700084 0)
(0.0728482 -0.00192168 0)
(0.0774957 0.111899 0)
(0.238289 0.393487 0)
(0.473079 0.658038 0)
(0.719673 1.04287 0)
(0.831337 1.53442 0)
(0.72299 1.93153 0)
(0.469394 2.10251 0)
(0.204981 2.11775 0)
(-0.00733519 2.06305 0)
(-0.143792 1.86138 0)
(-0.196115 1.1646 0)
(-0.108744 0.0912966 0)
(-0.0627509 -0.140454 0)
(-0.0991569 -0.108848 0)
(-0.0865811 -0.0652625 0)
(-0.0595497 -0.0388873 0)
(-0.036539 -0.0142564 0)
(-0.0200388 0.0221349 0)
(-0.00630768 0.0691946 0)
(-0.0090684 0.112659 0)
(0.018954 0.105096 0)
(0.0441047 0.0666329 0)
(0.0583916 0.0407414 0)
(0.0719664 0.0303334 0)
(0.083087 0.026318 0)
(0.0897928 0.0284143 0)
(0.0898922 0.0342217 0)
(0.0810984 0.040646 0)
(0.057816 0.0437583 0)
(0.0192946 0.0466929 0)
(-0.0234652 0.0836669 0)
(0.00433728 0.220646 0)
(0.179264 0.42694 0)
(0.390312 0.826634 0)
(0.542093 1.5077 0)
(0.478734 2.07839 0)
(0.294646 2.32572 0)
(0.103867 2.32092 0)
(-0.041274 2.20421 0)
(-0.0974458 1.91537 0)
(-0.0702969 1.17224 0)
(-0.0120486 0.0408796 0)
(-0.0296257 -0.113314 0)
(-0.0527985 -0.0953255 0)
(-0.0563662 -0.0779183 0)
(-0.045506 -0.057221 0)
(-0.0326931 -0.030496 0)
(-0.0195457 0.00819367 0)
(-0.00846294 0.0584828 0)
(-0.0010207 0.109162 0)
(0.0119965 0.0785457 0)
(0.0344485 0.0517707 0)
(0.0481926 0.0280838 0)
(0.0586683 0.0203032 0)
(0.0645818 0.0211736 0)
(0.063768 0.0293591 0)
(0.0552914 0.0416175 0)
(0.0379409 0.0574312 0)
(0.0123163 0.0721626 0)
(-0.0202516 0.0873998 0)
(-0.0528052 0.118609 0)
(-0.0839198 0.168452 0)
(-0.0344095 0.25261 0)
(0.0949572 0.661985 0)
(0.195418 1.49718 0)
(0.134192 2.19271 0)
(0.0286282 2.48561 0)
(-0.0647974 2.46983 0)
(-0.123023 2.28438 0)
(-0.0735472 1.89585 0)
(0.0813197 1.1015 0)
(0.0453165 0.0540903 0)
(0.00797755 -0.0798511 0)
(-0.0230927 -0.0760624 0)
(-0.0405822 -0.0782526 0)
(-0.0377413 -0.065559 0)
(-0.0277597 -0.042685 0)
(-0.0170491 -0.00242413 0)
(-0.0117234 0.0663644 0)
(0.00282736 0.103885 0)
(0.0122431 0.0596046 0)
(0.0309937 0.0348867 0)
(0.045522 0.017084 0)
(0.0554441 0.0136214 0)
(0.0596547 0.0207023 0)
(0.0547062 0.0373874 0)
(0.0386952 0.0597275 0)
(0.00650878 0.087219 0)
(-0.0277561 0.101297 0)
(-0.0572656 0.119978 0)
(-0.083512 0.144358 0)
(-0.101239 0.185133 0)
(-0.112516 0.214882 0)
(-0.141579 0.58565 0)
(-0.227683 1.56729 0)
(-0.267212 2.2724 0)
(-0.260074 2.54746 0)
(-0.221629 2.52201 0)
(-0.162421 2.26058 0)
(0.00124287 1.73018 0)
(0.256879 0.991708 0)
(0.235916 0.1751 0)
(0.0763031 -0.00587648 0)
(-0.00555567 -0.032568 0)
(-0.0383557 -0.0721104 0)
(-0.0339755 -0.0697902 0)
(-0.0236638 -0.0554765 0)
(-0.00602591 0.00685036 0)
(-0.00472384 0.013745 0)
(0.00584335 0.0963463 0)
(0.0164558 0.0446196 0)
(0.0338472 0.0186534 0)
(0.0498787 0.00487206 0)
(0.0625362 0.00549035 0)
(0.069842 0.0204495 0)
(0.0646154 0.0515703 0)
(0.0394486 0.0863273 0)
(-0.023569 0.129234 0)
(-0.0758262 0.131064 0)
(-0.10221 0.148393 0)
(-0.125674 0.165692 0)
(-0.14561 0.213506 0)
(-0.211298 0.310575 0)
(-0.442341 0.730392 0)
(-0.634832 1.68162 0)
(-0.581902 2.20981 0)
(-0.443362 2.42853 0)
(-0.274133 2.4005 0)
(-0.112433 2.07952 0)
(0.108948 1.47647 0)
(0.354159 0.774401 0)
(0.328644 0.245717 0)
(0.149803 0.119289 0)
(-0.0207322 0.0599579 0)
(-0.0499604 -0.0627244 0)
(-0.0332925 -0.0770616 0)
(-0.0146166 -0.0659181 0)
(-3.62278e-05 -0.0584485 0)
(-0.00220478 0.0441576 0)
(0.00950638 0.0851346 0)
(0.0214219 0.0282749 0)
(0.0389957 0.00149376 0)
(0.0578683 -0.0107918 0)
(0.0763795 -0.0079231 0)
(0.0959883 0.0121734 0)
(0.102612 0.061092 0)
(0.0705051 0.143204 0)
(-0.0752376 0.227292 0)
(-0.140452 0.159712 0)
(-0.163198 0.166878 0)
(-0.182956 0.192422 0)
(-0.234016 0.288885 0)
(-0.469049 0.442505 0)
(-0.758672 0.981979 0)
(-0.872304 1.64237 0)
(-0.700636 1.99375 0)
(-0.472815 2.165 0)
(-0.237379 2.14109 0)
(-0.00207055 1.86801 0)
(0.216664 1.14476 0)
(0.341952 0.581605 0)
(0.277458 0.436909 0)
(0.0888382 0.387582 0)
(-0.0137757 0.137775 0)
(-0.0235266 -0.106382 0)
(-0.0345408 -0.0846263 0)
(-0.00938099 -0.107466 0)
(-0.0294681 -0.0146496 0)
(-0.0147962 0.0265832 0)
(0.0144552 0.0710262 0)
(0.0267309 0.0122896 0)
(0.042816 -0.016694 0)
(0.0641035 -0.0310434 0)
(0.0903241 -0.0316126 0)
(0.128738 -0.0202955 0)
(0.192608 0.0661282 0)
(0.22923 0.225205 0)
(0.0589799 0.380916 0)
(-0.169234 0.21085 0)
(-0.26574 0.204385 0)
(-0.389256 0.251823 0)
(-0.609426 0.45161 0)
(-0.850852 0.852847 0)
(-0.980978 1.20213 0)
(-0.929173 1.52484 0)
(-0.737214 1.78921 0)
(-0.475631 1.91416 0)
(-0.209739 1.87751 0)
(0.0602537 1.56277 0)
(0.208022 1.03261 0)
(0.179015 0.699856 0)
(0.0676527 0.642679 0)
(0.00102726 0.4534 0)
(0.0243392 0.159371 0)
(0.0290258 -0.0460484 0)
(0.00946402 -0.121221 0)
(-0.00750253 -0.0803246 0)
(-0.0197008 -0.0180459 0)
(-0.0066429 0.000921732 0)
(0.0190824 0.0452649 0)
(0.0290224 -0.000797637 0)
(0.0413191 -0.0350482 0)
(0.0621039 -0.0545717 0)
(0.0892697 -0.0690678 0)
(0.144446 -0.087299 0)
(0.222429 -0.0813469 0)
(0.323468 0.365175 0)
(0.212445 0.68099 0)
(-0.0932505 0.514859 0)
(-0.422671 0.434251 0)
(-0.716509 0.517901 0)
(-0.919962 0.687958 0)
(-1.00685 0.920508 0)
(-0.966248 1.16965 0)
(-0.835127 1.38973 0)
(-0.659002 1.54463 0)
(-0.453707 1.62576 0)
(-0.236421 1.64143 0)
(-0.0503981 1.42691 0)
(-0.00129403 1.13873 0)
(-0.0596402 0.814936 0)
(-0.0834948 0.672862 0)
(-0.0122636 0.39 0)
(0.0662335 0.105348 0)
(0.0787392 -0.041222 0)
(0.0488575 -0.07434 0)
(0.0181712 -0.0573 0)
(0.00139921 -0.0148881 0)
(0.000961525 -0.00387721 0)
(0.0077416 0.0256789 0)
(0.0237221 -0.00678828 0)
(0.0346711 -0.0516534 0)
(0.0505179 -0.073885 0)
(0.0683472 -0.105738 0)
(0.119384 -0.152577 0)
(0.12831 -0.109175 0)
(0.218422 0.322068 0)
(0.202215 0.788791 0)
(-0.0535086 0.885488 0)
(-0.465055 0.847332 0)
(-0.785938 0.776095 0)
(-0.963895 0.772036 0)
(-0.994627 0.871436 0)
(-0.917609 1.05469 0)
(-0.782606 1.27914 0)
(-0.624369 1.45951 0)
(-0.47682 1.54066 0)
(-0.341691 1.5298 0)
(-0.252082 1.37016 0)
(-0.211528 1.11316 0)
(-0.180356 0.799647 0)
(-0.0989993 0.58361 0)
(0.0390434 0.271534 0)
(0.103113 0.0622616 0)
(0.101165 -0.0253398 0)
(0.0691838 -0.0441635 0)
(0.0387084 -0.0319484 0)
(0.0159718 -0.00151577 0)
(0.00657525 0.00328729 0)
(-0.00589113 0.0170262 0)
(0.00563629 -0.0389749 0)
(0.0162465 -0.0583062 0)
(0.0254435 -0.0805712 0)
(0.035893 -0.120483 0)
(0.0515996 -0.162784 0)
(0.00879004 -0.133089 0)
(0.077466 0.232879 0)
(0.146906 0.854314 0)
(-0.000997944 1.14416 0)
(-0.362751 1.19313 0)
(-0.693495 1.03837 0)
(-0.880827 0.868318 0)
(-0.933434 0.837905 0)
(-0.884132 0.934766 0)
(-0.764784 1.11902 0)
(-0.612219 1.31227 0)
(-0.487267 1.42021 0)
(-0.392633 1.44713 0)
(-0.317359 1.32911 0)
(-0.250975 1.04517 0)
(-0.162313 0.703916 0)
(-0.0246524 0.42525 0)
(0.0989938 0.173806 0)
(0.129102 0.0495303 0)
(0.112983 -0.000937989 0)
(0.0793249 -0.0111208 0)
(0.0488683 -0.00460592 0)
(0.0243142 0.0161276 0)
(0.00962592 0.0184047 0)
(-0.0183618 0.0261496 0)
(-0.00878406 -0.0238375 0)
(-0.035671 -0.0800927 0)
(-0.0512587 -0.109379 0)
(-0.0124334 -0.1164 0)
(-0.0762697 -0.177683 0)
(-0.0797782 -0.119144 0)
(-0.0327958 0.145069 0)
(0.0959608 0.840574 0)
(0.0616186 1.37761 0)
(-0.231563 1.5071 0)
(-0.55115 1.32289 0)
(-0.774656 1.01503 0)
(-0.859354 0.853041 0)
(-0.825695 0.853182 0)
(-0.713511 0.974485 0)
(-0.569963 1.15994 0)
(-0.438959 1.29645 0)
(-0.340117 1.33133 0)
(-0.25548 1.23893 0)
(-0.166435 0.950173 0)
(-0.0596028 0.611211 0)
(0.0686186 0.282993 0)
(0.139703 0.121724 0)
(0.144431 0.0573589 0)
(0.117824 0.0288969 0)
(0.0837776 0.0224815 0)
(0.0528105 0.0243168 0)
(0.0275044 0.0363557 0)
(0.00974778 0.0372582 0)
(-0.0136242 0.0400659 0)
(-0.0142288 0.00659284 0)
(-0.0429377 -0.0383848 0)
(-0.0728883 -0.0798403 0)
(-0.094852 -0.118701 0)
(-0.116974 -0.13353 0)
(-0.13175 -0.126241 0)
(-0.0987988 0.043181 0)
(0.0426834 0.703842 0)
(0.108708 1.53888 0)
(-0.128249 1.77262 0)
(-0.432355 1.61684 0)
(-0.688505 1.20735 0)
(-0.769105 0.883007 0)
(-0.721043 0.775795 0)
(-0.629538 0.839973 0)
(-0.527272 1.02286 0)
(-0.396687 1.18104 0)
(-0.261405 1.23171 0)
(-0.130676 1.13633 0)
(-0.0289863 0.843431 0)
(0.0622699 0.486926 0)
(0.135252 0.19862 0)
(0.160222 0.104799 0)
(0.14904 0.0774124 0)
(0.11816 0.0619844 0)
(0.0844913 0.0554914 0)
(0.0539566 0.0532054 0)
(0.0285978 0.0576498 0)
(0.00935068 0.0568408 0)
(-0.00786531 0.0497968 0)
(-0.0168481 0.0180967 0)
(-0.0331403 -0.0138129 0)
(-0.0556547 -0.047649 0)
(-0.0816535 -0.0782811 0)
(-0.110734 -0.112017 0)
(-0.132952 -0.120246 0)
(-0.129507 -0.0192325 0)
(-0.00217739 0.539937 0)
(0.127842 1.63084 0)
(-0.0552367 2.01554 0)
(-0.354313 1.89638 0)
(-0.601053 1.3927 0)
(-0.640973 0.89483 0)
(-0.604127 0.688083 0)
(-0.562587 0.734697 0)
(-0.488729 0.903901 0)
(-0.358092 1.039 0)
(-0.181392 1.0863 0)
(-0.00598336 1.00466 0)
(0.117704 0.797523 0)
(0.16987 0.428712 0)
(0.175673 0.176741 0)
(0.163928 0.112961 0)
(0.145035 0.104762 0)
(0.114591 0.0955631 0)
(0.08311 0.0875118 0)
(0.0537749 0.0813464 0)
(0.0289564 0.0792395 0)
(0.0089332 0.0766398 0)
(-0.00546592 0.0605841 0)
(-0.0173158 0.0282848 0)
(-0.0293541 -0.000649948 0)
(-0.0444656 -0.0291951 0)
(-0.0635226 -0.0567259 0)
(-0.0870785 -0.0834607 0)
(-0.114328 -0.100698 0)
(-0.129114 -0.0565547 0)
(-0.0473494 0.349243 0)
(0.103869 1.66572 0)
(-0.025389 2.24608 0)
(-0.306237 2.15301 0)
(-0.513067 1.54533 0)
(-0.541865 0.891762 0)
(-0.566072 0.689963 0)
(-0.547469 0.731393 0)
(-0.476872 0.834388 0)
(-0.318327 0.861998 0)
(-0.12425 0.881042 0)
(0.0698523 0.834373 0)
(0.221126 0.703296 0)
(0.255905 0.425696 0)
(0.202212 0.207732 0)
(0.156806 0.139698 0)
(0.133843 0.133476 0)
(0.105613 0.126352 0)
(0.0785499 0.117842 0)
(0.0518702 0.108191 0)
(0.028306 0.100893 0)
(0.00857973 0.0961356 0)
(-0.0043847 0.0720285 0)
(-0.0166089 0.0399755 0)
(-0.0284291 0.0115736 0)
(-0.0409347 -0.0147149 0)
(-0.0551984 -0.0380444 0)
(-0.0736527 -0.0594316 0)
(-0.0969228 -0.0751343 0)
(-0.115732 -0.0602417 0)
(-0.0849175 0.223484 0)
(0.0258448 1.63702 0)
(-0.0212005 2.45577 0)
(-0.268526 2.37803 0)
(-0.453747 1.67283 0)
(-0.482219 0.943529 0)
(-0.491804 0.669424 0)
(-0.45821 0.663712 0)
(-0.380238 0.697632 0)
(-0.247968 0.704078 0)
(-0.0786707 0.6903 0)
(0.103228 0.65948 0)
(0.250269 0.593698 0)
(0.289302 0.441142 0)
(0.221625 0.27448 0)
(0.154077 0.182093 0)
(0.120334 0.161133 0)
(0.0941469 0.151666 0)
(0.0703024 0.142816 0)
(0.0480511 0.132583 0)
(0.0265612 0.121848 0)
(0.00801604 0.115008 0)
(-0.0044318 0.0838503 0)
(-0.0178177 0.051845 0)
(-0.029393 0.0235494 0)
(-0.0405616 -0.00264944 0)
(-0.0516136 -0.0233175 0)
(-0.0663527 -0.040082 0)
(-0.086087 -0.0528312 0)
(-0.10118 -0.048782 0)
(-0.101089 0.175447 0)
(-0.0723201 1.553 0)
(-0.049053 2.60618 0)
(-0.236087 2.56482 0)
(-0.370424 1.78195 0)
(-0.362303 0.939469 0)
(-0.358178 0.634007 0)
(-0.333878 0.610024 0)
(-0.270313 0.595904 0)
(-0.166468 0.559594 0)
(-0.0430004 0.525112 0)
(0.0837857 0.507788 0)
(0.197894 0.493852 0)
(0.259755 0.445136 0)
(0.230422 0.347328 0)
(0.158151 0.238566 0)
(0.108336 0.192983 0)
(0.0805222 0.175575 0)
(0.0588248 0.162955 0)
(0.040432 0.151755 0)
(0.0230648 0.140589 0)
(0.00673834 0.132016 0)
(-0.00575354 0.0984075 0)
(-0.021789 0.0633931 0)
(-0.032165 0.0345346 0)
(-0.0411262 0.00651678 0)
(-0.0487253 -0.0120011 0)
(-0.0610227 -0.0238533 0)
(-0.0793902 -0.032272 0)
(-0.091807 -0.0301248 0)
(-0.114532 0.189587 0)
(-0.167924 1.48963 0)
(-0.118298 2.6736 0)
(-0.196609 2.69464 0)
(-0.229096 1.83174 0)
(-0.219628 0.917403 0)
(-0.219701 0.629561 0)
(-0.212525 0.584972 0)
(-0.175883 0.536389 0)
(-0.123525 0.474914 0)
(-0.0653917 0.430137 0)
(0.000454882 0.405748 0)
(0.0762836 0.399573 0)
(0.15864 0.404058 0)
(0.192338 0.380549 0)
(0.155239 0.307816 0)
(0.100016 0.234012 0)
(0.0671798 0.199405 0)
(0.0476834 0.182344 0)
(0.0311356 0.167063 0)
(0.0175406 0.15518 0)
(0.00469939 0.145549 0)
(-0.00922175 0.114676 0)
(-0.0255896 0.0745585 0)
(-0.0345185 0.0437555 0)
(-0.0381219 0.0119332 0)
(-0.0419609 -0.00333167 0)
(-0.054633 -0.00733096 0)
(-0.0794003 -0.0070666 0)
(-0.103219 0.00125891 0)
(-0.154085 0.253972 0)
(-0.266729 1.47932 0)
(-0.192575 2.66382 0)
(-0.117962 2.70246 0)
(-0.0576528 1.80842 0)
(-0.0907684 0.907921 0)
(-0.108584 0.635863 0)
(-0.118286 0.566487 0)
(-0.109913 0.504425 0)
(-0.100807 0.442761 0)
(-0.0842533 0.393978 0)
(-0.0588702 0.359155 0)
(-0.0227765 0.336378 0)
(0.0262185 0.331515 0)
(0.0925759 0.35341 0)
(0.121384 0.339071 0)
(0.0928062 0.278986 0)
(0.0579632 0.22543 0)
(0.0377518 0.199328 0)
(0.0242615 0.180964 0)
(0.0125939 0.166812 0)
(0.00236969 0.154773 0)
(-0.0168796 0.150742 0)
(-0.029514 0.108234 0)
(-0.0333894 0.0473627 0)
(-0.0279676 0.0123264 0)
(-0.0280345 0.00425282 0)
(-0.0450777 0.0162103 0)
(-0.0884672 0.0391512 0)
(-0.165627 0.0650324 0)
(-0.248128 0.353282 0)
(-0.348918 1.52601 0)
(-0.212825 2.56825 0)
(-0.0181149 2.58932 0)
(0.112331 1.79958 0)
(0.0630592 0.965806 0)
(0.00805935 0.692338 0)
(-0.0320684 0.582056 0)
(-0.0553882 0.507251 0)
(-0.0669471 0.441351 0)
(-0.0702195 0.389971 0)
(-0.0669358 0.347625 0)
(-0.055227 0.314494 0)
(-0.0360392 0.292945 0)
(-0.0032664 0.294312 0)
(0.0494414 0.312832 0)
(0.0739239 0.301645 0)
(0.0536771 0.253118 0)
(0.0315667 0.215691 0)
(0.020013 0.191842 0)
(0.0101811 0.177617 0)
(0.000777931 0.160695 0)
(-0.0658907 0.154383 0)
(-0.0487097 0.0620734 0)
(-0.0376691 0.0314865 0)
(-0.00838715 0.00372792 0)
(-0.00773359 0.0114712 0)
(-0.0347644 0.056072 0)
(-0.091762 0.125767 0)
(-0.172385 0.176741 0)
(-0.27537 0.403725 0)
(-0.387459 1.44426 0)
(-0.187992 2.365 0)
(0.081105 2.3552 0)
(0.266191 1.69978 0)
(0.256029 1.03285 0)
(0.200069 0.745436 0)
(0.133492 0.622316 0)
(0.0519302 0.538102 0)
(-0.00369737 0.465243 0)
(-0.0412516 0.402496 0)
(-0.0593329 0.348782 0)
(-0.0625751 0.308687 0)
(-0.0577601 0.27968 0)
(-0.0445729 0.263674 0)
(-0.0160274 0.266164 0)
(0.0267091 0.282682 0)
(0.0446112 0.268487 0)
(0.0289584 0.232179 0)
(0.0190156 0.199404 0)
(0.0101824 0.188716 0)
(0.000250691 0.165341 0)
(-0.00975326 0.244675 0)
(0.00715384 0.111058 0)
(-0.00732851 -0.00818605 0)
(0.023434 -0.0128009 0)
(0.0139663 0.0263855 0)
(0.0128487 0.0845012 0)
(-0.031497 0.189219 0)
(-0.141968 0.305006 0)
(-0.278834 0.52188 0)
(-0.436961 1.34658 0)
(-0.213584 2.14568 0)
(0.143093 2.1219 0)
(0.381234 1.57317 0)
(0.434494 1.06682 0)
(0.402101 0.823029 0)
(0.348161 0.712654 0)
(0.249149 0.637246 0)
(0.12224 0.537703 0)
(0.0142407 0.454079 0)
(-0.0391669 0.370646 0)
(-0.061506 0.312772 0)
(-0.0660417 0.277155 0)
(-0.0625331 0.251279 0)
(-0.0495933 0.237759 0)
(-0.0204502 0.244664 0)
(0.0157642 0.258395 0)
(0.0263178 0.241992 0)
(0.0207698 0.204177 0)
(0.010518 0.201754 0)
(-0.000516667 0.169332 0)
(0.0704206 0.169552 0)
(0.0679272 0.146695 0)
(0.0650683 -0.0439422 0)
(0.0516309 -0.0221061 0)
(0.0574324 0.0281121 0)
(0.0657391 0.119808 0)
(0.0100097 0.272228 0)
(-0.0838516 0.471168 0)
(-0.251382 0.709294 0)
(-0.420985 1.27915 0)
(-0.217958 1.81106 0)
(0.13819 1.78168 0)
(0.376763 1.40213 0)
(0.446988 1.05417 0)
(0.436852 0.873554 0)
(0.386034 0.790475 0)
(0.311925 0.758002 0)
(0.221347 0.682461 0)
(0.108057 0.543031 0)
(-0.00418728 0.43124 0)
(-0.0499064 0.334264 0)
(-0.0702626 0.280557 0)
(-0.0729071 0.248311 0)
(-0.0678531 0.222328 0)
(-0.0508794 0.21383 0)
(-0.0192732 0.229289 0)
(0.014876 0.233483 0)
(0.0217516 0.206727 0)
(0.00729826 0.215307 0)
(-0.00197487 0.170898 0)
(0.00539886 0.0487154 0)
(0.0785415 0.154054 0)
(0.0713669 -0.0522459 0)
(0.0767211 -0.0314325 0)
(0.104254 0.0258127 0)
(0.117458 0.134723 0)
(0.0926929 0.312416 0)
(0.00954554 0.625516 0)
(-0.171473 0.918416 0)
(-0.307868 1.26036 0)
(-0.159338 1.53786 0)
(0.115232 1.49464 0)
(0.306779 1.24699 0)
(0.359953 1.02562 0)
(0.329395 0.915678 0)
(0.248764 0.855348 0)
(0.189374 0.819343 0)
(0.143278 0.774408 0)
(0.0983217 0.67529 0)
(0.0286211 0.500073 0)
(-0.0321699 0.37316 0)
(-0.0715121 0.291189 0)
(-0.08297 0.247966 0)
(-0.0813465 0.214865 0)
(-0.0705454 0.192001 0)
(-0.0462881 0.193254 0)
(-0.00769666 0.211246 0)
(0.0178709 0.205552 0)
(0.00268379 0.230335 0)
(-0.00366286 0.170862 0)
(-0.117929 0.049732 0)
(0.0756956 0.10424 0)