/*--------------------------------*- C++ -*----------------------------------*\
| =========                 |                                                 |
| \\      /  F ield         | OpenFOAM: The Open Source CFD Toolbox           |
|  \\    /   O peration     | Version:  v1606+                                |
|   \\  /    A nd           | Web:      www.OpenFOAM.com                      |
|    \\/     M anipulation  |                                                 |
\*---------------------------------------------------------------------------*/
FoamFile
{
    version     2.0;
    format      ascii;
    class       volScalarField;
    location    "1.2";
    object      ddt0(epsilon);
}
// * * * * * * * * * * * * * * * * * * * * * * * * * * * * * * * * * * * * * //

dimensions      [0 2 -4 0 0 0 0];

internalField   nonuniform List<scalar> 
11640
(
-0.0171008462892
-0.0177119977915
-0.0179776537628
-0.0180499474069
-0.0180430439869
-0.0180049087659
-0.0180108989194
-0.0180979035056
-0.0182161892784
-0.0183459930934
-0.0184810175232
-0.0184918865893
-0.0185001769466
-0.0185299600362
-0.0185705197684
-0.018581749151
-0.0185508199952
-0.0184342706393
-0.0181298419867
-0.0174520439087
-0.017724919479
-0.0237886017865
-0.026455903405
-0.0274685195134
-0.0279723574888
-0.0282723388331
-0.0282708362865
-0.0280776071448
-0.0278366523761
-0.0276140860563
-0.0274058363275
-0.02726480169
-0.0279428785773
-0.0285467205698
-0.0286754702012
-0.0282953909496
-0.0280747737374
-0.0274081582726
-0.0244749333176
-0.0180429447612
-0.017982361425
-0.0264693048684
-0.031337169277
-0.0342277592317
-0.0358567469611
-0.0363361239178
-0.0360174612271
-0.0352315647403
-0.0343025444701
-0.0332551243103
-0.032083986868
-0.034509730152
-0.0372239308399
-0.0396281629414
-0.0405945796981
-0.039141432887
-0.0359206247951
-0.0320748581591
-0.0273395994876
-0.0183315110042
-0.0180399395102
-0.027742935191
-0.0347396635583
-0.0392021762108
-0.0411847107915
-0.0414113755909
-0.0405498469484
-0.0391437556428
-0.0375812812651
-0.0356996587104
-0.0352184302476
-0.0401510415563
-0.0456682133749
-0.0512984323114
-0.0542077896551
-0.052254172028
-0.0459651407003
-0.0373162718151
-0.0285082374734
-0.0184704185475
-0.0180257126795
-0.028904152397
-0.03736709785
-0.0422287601897
-0.043804257215
-0.043198668869
-0.0413621775179
-0.0391088489395
-0.0372106172442
-0.035021944391
-0.036020740875
-0.0429539072528
-0.0516419931319
-0.0612587147145
-0.0680298677542
-0.0664733601649
-0.0571974521343
-0.0440270480617
-0.0305037270108
-0.0186472054568
-0.0180377213108
-0.0299851887243
-0.039057714158
-0.0435812100746
-0.0441910800085
-0.0420592920271
-0.0382767582288
-0.0344951622528
-0.0325460598996
-0.030852569298
-0.0331206200307
-0.040902737761
-0.0520678573179
-0.0659364836197
-0.0785997151979
-0.0796795218421
-0.0679394777008
-0.050739004321
-0.0329827519402
-0.0190426867355
-0.0181019592822
-0.0307479519474
-0.0399554216537
-0.0439223754248
-0.0432843951126
-0.038966487006
-0.0318946265653
-0.0249037600824
-0.0235283695545
-0.0228594555835
-0.0274478917087
-0.0341081860022
-0.0448255123545
-0.0628901650506
-0.0816670110615
-0.0871717207555
-0.0751139789113
-0.0550640782364
-0.0349012225083
-0.0194774023296
-0.0181886472788
-0.0311068547157
-0.0402745273085
-0.0437880485934
-0.0419934099851
-0.0362168073808
-0.0265420109313
-0.0185314835127
-0.0185567127745
-0.0199452064146
-0.0224322440336
-0.0277641192866
-0.0360638266897
-0.0559763545657
-0.0784184144748
-0.0875542138067
-0.0769542405973
-0.0564348835258
-0.0357207099779
-0.0197495864372
-0.0182879246477
-0.0313348855253
-0.0403721847804
-0.0432773841403
-0.0410902374866
-0.0350001955251
-0.0255093533131
-0.0180018259211
-0.017856417588
-0.0191858051903
-0.0221469166889
-0.0273580074637
-0.0353070627593
-0.0543619537276
-0.0766113718324
-0.0867002798812
-0.0767948347781
-0.0564555581718
-0.0359930704094
-0.0199139960303
-0.0183395127814
-0.0314078478255
-0.0402031775896
-0.0431659988127
-0.0411530810452
-0.0353658543413
-0.026194139711
-0.0186968855254
-0.018287645814
-0.0194815101641
-0.0223641812188
-0.0275999259531
-0.0353527840494
-0.054022093371
-0.075901094816
-0.0861671712241
-0.0765132531354
-0.0562190834555
-0.0361551043393
-0.0200547296105
-0.0182714004066
-0.0313374367814
-0.0401972679512
-0.0434493978342
-0.0420792449471
-0.0372839909354
-0.0290819643361
-0.0213832117266
-0.0204755355231
-0.0210848419702
-0.0238086183265
-0.0290633927592
-0.0370551841744
-0.0560506519701
-0.0767848008944
-0.0862814992801
-0.076247841631
-0.0558316726819
-0.0359603545356
-0.0201524188966
-0.0182353252964
-0.0310785718178
-0.0401928378636
-0.044144636413
-0.0440317622461
-0.0413179508452
-0.0363697687887
-0.0327913565563
-0.0309547533044
-0.0298472230082
-0.0287081578237
-0.0349784613497
-0.044963127759
-0.0617842813001
-0.0792846548243
-0.0859215865183
-0.0744191346278
-0.0545778584415
-0.0352874853072
-0.0200237608817
-0.0182384019163
-0.0304831917521
-0.0397016456916
-0.0443997808456
-0.04539292922
-0.0440238452623
-0.0410445880267
-0.0382517479748
-0.0354727962424
-0.0327536295191
-0.0354886855665
-0.0429324799872
-0.0530273792487
-0.0662826148728
-0.0781176107657
-0.0801894522148
-0.068709581824
-0.0509026526129
-0.0337417247994
-0.0197434454034
-0.0182998554311
-0.0295764987217
-0.0384651041739
-0.0437718437633
-0.0458442161744
-0.0457806077317
-0.0443387823788
-0.0425338894602
-0.0401211178026
-0.0369978953405
-0.0401759964837
-0.0469979511939
-0.0544228359211
-0.063468083077
-0.0699406814865
-0.0686355081318
-0.0587950005394
-0.0450850199663
-0.0313360320373
-0.019289185782
-0.0183448135894
-0.0286575519383
-0.036539943781
-0.0418331383973
-0.0444840015785
-0.0451420413566
-0.0443817665301
-0.0428657798442
-0.0405831420471
-0.038179924612
-0.0415935823831
-0.0465147247274
-0.0509996455719
-0.0558236129115
-0.0583780210391
-0.0559049303439
-0.0486636137092
-0.0389086466832
-0.0290627654908
-0.0189254747816
-0.018357778316
-0.0281813737716
-0.0346335231859
-0.0388386238538
-0.041401004703
-0.042368973049
-0.0419742482044
-0.0407159738533
-0.0389913837179
-0.0384968739604
-0.0408162426236
-0.0435907717791
-0.0456218896414
-0.0474555036514
-0.0476100163247
-0.0450246143441
-0.0402580307447
-0.034457483288
-0.0277225196764
-0.0187981276123
-0.0183378195661
-0.0278812538208
-0.0333710942771
-0.0360640048254
-0.0374724289662
-0.0380618944454
-0.037894458395
-0.0372539105859
-0.0369040829254
-0.0375911031086
-0.0385768297263
-0.0396402789304
-0.0399805861321
-0.04004511259
-0.039282391315
-0.0375449507187
-0.0351804254615
-0.0322540675023
-0.0271362709288
-0.0186762517435
-0.0182552463306
-0.0269498623063
-0.0315111181131
-0.0333137303784
-0.0339012278425
-0.034022387286
-0.0340344022027
-0.0341593127237
-0.0343877756589
-0.0346360325706
-0.0349315457782
-0.0351506348605
-0.0347444066835
-0.0341835780689
-0.0334969797471
-0.0327942034092
-0.0320347644421
-0.0304065990799
-0.0262353099764
-0.0184949814773
-0.0179706189267
-0.0241058393657
-0.0269185947212
-0.027861649669
-0.0280835799327
-0.0281460644462
-0.0282453942905
-0.0283911396395
-0.028535648431
-0.0287059026197
-0.0288132448529
-0.0287785028849
-0.0283844128659
-0.0279725975154
-0.0276178321959
-0.0273531609378
-0.0270769006372
-0.0262294277363
-0.0236584824346
-0.0180890732688
-0.0173364704525
-0.0179564026909
-0.0182454340598
-0.0183595174492
-0.0184214991548
-0.0184899202194
-0.0185910165447
-0.0187049268849
-0.0188265853765
-0.0189195022564
-0.0189822931313
-0.0189627836315
-0.0189123409954
-0.018879624292
-0.0188563241607
-0.0188121990764
-0.0187255709917
-0.0185566414443
-0.0181416249349
-0.0172738186221
-0.0177558339005
-0.020355098583
-0.0215796869727
-0.0219302054778
-0.021884490916
-0.0216860615841
-0.0215789080705
-0.0216404455208
-0.0217758717008
-0.0219083256599
-0.0220362738541
-0.0221924979056
-0.0223197423995
-0.0224034403861
-0.0226273143794
-0.0228918402046
-0.0228978649828
-0.0224001356205
-0.0209457332582
-0.0181850005746
-0.0204131067551
-0.0179295401472
-0.0192036623252
-0.019702557249
-0.0199537550388
-0.0201665495123
-0.0203167282928
-0.0203828087645
-0.0204169590027
-0.0204569519623
-0.0204988841842
-0.0205315181686
-0.0206059062249
-0.0206874216223
-0.0206170525534
-0.0204249711533
-0.0201211910021
-0.0194928927765
-0.0180208955585
-0.020648514425
-0.0216466091886
-0.0192235697029
-0.0208093482994
-0.0215899896543
-0.0220071022429
-0.0222465253827
-0.0223799915069
-0.022438409779
-0.0224758000406
-0.0225305678117
-0.0226128883316
-0.0231497817397
-0.0238433599463
-0.0244477807553
-0.0246161001391
-0.0239604574238
-0.0227176377921
-0.0211378288306
-0.0192186233667
-0.0219772365804
-0.0219819079495
-0.0197175485442
-0.0215010850087
-0.0223697514254
-0.0226615300375
-0.0226960400864
-0.0227709857522
-0.0228936908821
-0.0230188129769
-0.0231328506577
-0.0235044556869
-0.0247810316389
-0.0263861159058
-0.0280083015723
-0.0289192533766
-0.028231456958
-0.0259539639125
-0.0230192449166
-0.0199137888414
-0.0225730058953
-0.022024732634
-0.0198959447644
-0.0216397091453
-0.0221809455796
-0.022140436087
-0.0220622607588
-0.0221358827529
-0.0222982353159
-0.0223544416615
-0.0224765405727
-0.0231360635334
-0.0249187731301
-0.0274680923076
-0.0305178578704
-0.0329037303593
-0.032688862355
-0.0295983827385
-0.025028621338
-0.0205646232406
-0.0227818862748
-0.0221183906379
-0.0199644975786
-0.021353435392
-0.021500157176
-0.0212852914208
-0.0211479397027
-0.021237390446
-0.0212261380146
-0.0207248099908
-0.0205618034986
-0.0211867563858
-0.022948100493
-0.0261100748938
-0.0307341290737
-0.035211197324
-0.0362783478237
-0.0328793392111
-0.0269630117503
-0.0212376448332
-0.0227963428399
-0.0222692318055
-0.0199482553809
-0.0209010296624
-0.0207998965635
-0.0204981986369
-0.0204266397878
-0.0206227206978
-0.0194374936781
-0.0175093067842
-0.0172038861033
-0.0177039274968
-0.0190233590617
-0.0223421556377
-0.0285185584824
-0.035049785896
-0.0378332794086
-0.034813587991
-0.0282648958277
-0.0217318724242
-0.022830340194
-0.0223981377118
-0.0198926187368
-0.0206349593922
-0.0204253139024
-0.0201418271514
-0.0202413861032
-0.0212715149654
-0.0182237516922
-0.0154947863209
-0.0150782980637
-0.0152543393773
-0.0161016725141
-0.0186607789508
-0.0250880843116
-0.0331116586826
-0.0375210099777
-0.0352910625675
-0.0287911135836
-0.0220018341387
-0.0229033894046
-0.0225150487789
-0.0198769921962
-0.0205818281239
-0.0203861663536
-0.0201100607063
-0.02007294578
-0.0202882315951
-0.0172878572924
-0.0147231477784
-0.0143122973549
-0.0145202370344
-0.0153882058685
-0.0178353413803
-0.023968264835
-0.0321469045043
-0.0371605298377
-0.0353867945112
-0.0290376287652
-0.0221743588481
-0.0229758631391
-0.0226766745249
-0.0198720162626
-0.020565100462
-0.0203897893146
-0.0201994788596
-0.02036880701
-0.0212138369624
-0.0187552827126
-0.0159527940244
-0.0151857632509
-0.015163333204
-0.0158768038488
-0.0180160242464
-0.0239387784296
-0.0321784721181
-0.0372928408832
-0.0355907382724
-0.0292432603836
-0.0222683662972
-0.0229946136463
-0.0227988255742
-0.0198631599748
-0.0205369673256
-0.0203798285199
-0.0202725453209
-0.0207526901525
-0.0231335527359
-0.022918559795
-0.0195853425015
-0.01796163519
-0.0173666279211
-0.0175387908466
-0.0192324389914
-0.0250987428042
-0.0331043509928
-0.037858949801
-0.0358849965572
-0.0293972124457
-0.0223109580515
-0.0228805450086
-0.0228068702717
-0.0197731611114
-0.0203706462576
-0.0201537296148
-0.0200474262204
-0.0203663706498
-0.0211307969198
-0.0238411687244
-0.0221999523038
-0.0209072114591
-0.0200318064549
-0.0205282622329
-0.0227478051832
-0.0283542877298
-0.0350105476251
-0.0382923860054
-0.0356333374695
-0.0291140123754
-0.022160222537
-0.0226888755556
-0.0227975718585
-0.019652586266
-0.0201794207009
-0.0198489778408
-0.0196433969297
-0.0199325567786
-0.02048808937
-0.0210980461042
-0.0211847872632
-0.0211472140916
-0.0219500790198
-0.0236268879229
-0.0265122262011
-0.0311145540254
-0.0356776427632
-0.0370736780616
-0.0339095732153
-0.0279357963352
-0.0217269268455
-0.0226019468831
-0.0227011105184
-0.0196040694985
-0.0202225718983
-0.0198742611122
-0.0195414822604
-0.0196985892759
-0.0202227881069
-0.0207945418646
-0.0212829020698
-0.0216670324616
-0.0230358194395
-0.024979866975
-0.0276322934336
-0.0309735757813
-0.0336673561339
-0.0338061250229
-0.0308538878285
-0.0261394806176
-0.0211822474668
-0.0224660126547
-0.022682386053
-0.0196880361269
-0.0205249754034
-0.0203280679572
-0.0199416587515
-0.0199214276821
-0.0203083679525
-0.0208378161288
-0.021304969271
-0.0217723288625
-0.0231945689302
-0.0247938010238
-0.0267152282855
-0.0287920267213
-0.0301745909085
-0.0298196666486
-0.0276596701499
-0.0244623406853
-0.0207963645672
-0.0222587692574
-0.0227001706106
-0.0198202248551
-0.0209602619872
-0.0210218351609
-0.0207474137797
-0.0206512708625
-0.0208632889291
-0.0212140053328
-0.0215442370569
-0.0220596529693
-0.0230995748405
-0.0240824264299
-0.0251574841238
-0.0262267512227
-0.0268161495195
-0.0264741295568
-0.02527779473
-0.0234728972038
-0.0206392233852
-0.0221111876306
-0.0226198888264
-0.0198130264548
-0.0211812572155
-0.0215753809142
-0.0214542218154
-0.0213386027311
-0.0214124897239
-0.0216064907798
-0.0218841090066
-0.0223452042342
-0.0229292536585
-0.0233926591274
-0.0238342939455
-0.0242479392607
-0.0244867994112
-0.0244293204777
-0.0240482234696
-0.0229989224946
-0.0205033603465
-0.0219248515693
-0.0221728595029
-0.0193809382133
-0.0207218275378
-0.0212983722409
-0.0214340921593
-0.0214272971207
-0.0214867975366
-0.0216648705262
-0.021902607851
-0.0221763541297
-0.0224584025581
-0.0226230394555
-0.0227497860454
-0.022878591218
-0.0230094063812
-0.0230862987545
-0.0229383796068
-0.0221440953495
-0.0199382945347
-0.0214705561784
-0.0207875734494
-0.0179872480011
-0.0191661739968
-0.0196415777729
-0.0197892207891
-0.0198630491576
-0.0199588556802
-0.0200860255849
-0.0202291051201
-0.0203684249419
-0.0204695687669
-0.0204920362273
-0.0205060563708
-0.0205189457785
-0.0205440091535
-0.0205711428227
-0.020500486391
-0.0199594461529
-0.0182448158231
-0.020203112575
-0.018137771661
-0.0207211451492
-0.0220449048262
-0.0225414041913
-0.0227063439435
-0.0227817589885
-0.0228405237096
-0.0228924923312
-0.0229367488964
-0.0229547452229
-0.0229114641817
-0.0227661325628
-0.0225885241362
-0.0224372498518
-0.0223344147433
-0.0222322542373
-0.0220768263873
-0.0216341896678
-0.0203394025303
-0.0175037288142
-0.0194111616425
-0.0238508876429
-0.0261403751192
-0.0268738928158
-0.0268528145882
-0.0265641440587
-0.0264106268348
-0.0264729059196
-0.026638605932
-0.0267969040298
-0.0269423394138
-0.0271085053852
-0.0272729285439
-0.0274274689257
-0.027670626492
-0.0279209865232
-0.0277552610816
-0.0267195565172
-0.0240491487628
-0.019505994686
-0.0239350518088
-0.0200253646591
-0.0211397317303
-0.0216623491716
-0.0219393287077
-0.0221353329948
-0.0222837153727
-0.0223825932227
-0.0224608579359
-0.0225361620975
-0.0225994034971
-0.022629782975
-0.0226418950009
-0.0226251522362
-0.0225709922626
-0.0224774751348
-0.0222074707794
-0.0215483727356
-0.0201194163838
-0.0235266203185
-0.026240884817
-0.0211663188911
-0.0221162373855
-0.022687669277
-0.0230177864679
-0.0232273462703
-0.0233640258452
-0.0234545713982
-0.0235145487749
-0.02358168691
-0.0236411139261
-0.0237004346749
-0.0237839871734
-0.0238445943993
-0.0237882428009
-0.0234804909293
-0.0229749401523
-0.0222361372337
-0.0210427280873
-0.0258966411358
-0.0269629508647
-0.021642511958
-0.0225662478796
-0.0230901765826
-0.0233457795509
-0.0234901753544
-0.0236162197193
-0.0237482800813
-0.0237703740714
-0.0238314061688
-0.023930472498
-0.024153777277
-0.0245149425992
-0.0248347424845
-0.0250012556394
-0.0247260495075
-0.0239148154929
-0.022830883332
-0.0215480182658
-0.0270153507442
-0.0270465582625
-0.0217782571519
-0.0225904083366
-0.0230010865633
-0.0231660392731
-0.0232645801603
-0.0234738228404
-0.0238040170483
-0.0235424007614
-0.0234636156717
-0.0235303124373
-0.0238875569137
-0.024654445431
-0.0252741568616
-0.0258823766249
-0.0257985646941
-0.0248386937293
-0.0233021285502
-0.0217357430374
-0.0275275413442
-0.0270770692295
-0.0217785181177
-0.0224315719103
-0.0227351287705
-0.0227984383558
-0.022921597955
-0.0235323947882
-0.0244721103118
-0.0230008472269
-0.0224116942212
-0.0222721890648
-0.022636635319
-0.0242560992233
-0.0250663796157
-0.0261964293317
-0.0265641058939
-0.025558005083
-0.0236996443456
-0.021772745186
-0.0278144492439
-0.0271749955601
-0.0217299793393
-0.0222365128778
-0.0223829180827
-0.022446020439
-0.022831743557
-0.0247964138844
-0.0252304395667
-0.0192052687706
-0.0173535451806
-0.0168348586244
-0.0170488703296
-0.020777142949
-0.024218961644
-0.025861357079
-0.0267603470394
-0.0259147568257
-0.023893408502
-0.0217657891513
-0.0280775910162
-0.0272838976688
-0.0217670450095
-0.022112176175
-0.0222009312014
-0.0222709908202
-0.0230148394235
-0.0303261278116
-0.0322385160417
-0.0205233642921
-0.020291329176
-0.0222786069261
-0.0253376908667
-0.0354787206769
-0.0225502844689
-0.0249661206631
-0.026519016054
-0.0260020777357
-0.0240094818281
-0.0218269241721
-0.0283061190941
-0.0274024726153
-0.0218325496649
-0.0221341315299
-0.0222033104379
-0.0222099304012
-0.022548220369
-0.0270024055507
-0.034684002728
-0.0219471760385
-0.0210757118804
-0.0223782913631
-0.0246618224649
-0.0325685601424
-0.0206426996132
-0.0241550254624
-0.0263362185104
-0.0260737635735
-0.0241368174848
-0.0219097565793
-0.0284883066523
-0.0275572171423
-0.0218744473329
-0.0221571149559
-0.0222404787818
-0.0223009910987
-0.0228968313124
-0.0288758944884
-0.0392598203861
-0.0262202309685
-0.0246923718988
-0.0252850234925
-0.0271375745545
-0.0342362108283
-0.0206645642372
-0.024148229806
-0.026387875428
-0.0261899453217
-0.0242355213298
-0.0219140867755
-0.0285856150619
-0.0277035394086
-0.0218970644423
-0.022158285968
-0.0222405540396
-0.0223472927505
-0.0233453235676
-0.0338509814174
-0.0605279086249
-0.0450134457781
-0.0421698215925
-0.0413936514593
-0.0415514843853
-0.0458863393854
-0.0218879786903
-0.0247236841407
-0.0266626024181
-0.026347229739
-0.0243086666674
-0.0218750054599
-0.0285099641631
-0.0277226061094
-0.0218243192157
-0.0219930392708
-0.0219952577378
-0.0219991612628
-0.0220595972708
-0.0227512810963
-0.030913329801
-0.028116091684
-0.0253802960481
-0.0229313086764
-0.0212611028358
-0.0216765331896
-0.0232615022651
-0.0254602504037
-0.0267875688055
-0.0262187829133
-0.024161736908
-0.0217374575094
-0.0282324905887
-0.0277204945811
-0.0216877746191
-0.0217033047951
-0.0215563057251
-0.0214905875384
-0.0215716865878
-0.0216603566556
-0.0220545056075
-0.0221654019847
-0.0219400779119
-0.0216871184084
-0.0215740489296
-0.0223267911227
-0.024095871415
-0.0256531793715
-0.0263021987676
-0.0255463123372
-0.0237066121607
-0.0215350226339
-0.0279756093004
-0.027622376518
-0.0216128922504
-0.0215245335764
-0.0212339407903
-0.0210190588364
-0.0210264407401
-0.0211543323032
-0.0213358079597
-0.0215582712997
-0.0216891967367
-0.0218797123942
-0.0222522202177
-0.0229285647973
-0.0239636554615
-0.0249123037283
-0.0252108723015
-0.024569349988
-0.0231898738437
-0.0214151151876
-0.0276785354697
-0.0275482128613
-0.0216814817623
-0.0215761472573
-0.0212098910993
-0.0208632945649
-0.0207299753674
-0.02079573558
-0.0209669459987
-0.0211625896655
-0.0213390132275
-0.0216380457028
-0.0220344285193
-0.0225698270264
-0.0232350393635
-0.0238420151231
-0.0240518229851
-0.023728042397
-0.0228836600031
-0.0214475246082
-0.0273755533086
-0.0275264131474
-0.0218199627018
-0.021868371783
-0.0215391001751
-0.0211494924841
-0.0209278845487
-0.0209191841466
-0.0210482924571
-0.0212113335377
-0.021382078068
-0.0216435490624
-0.0219229501968
-0.0222591624992
-0.0226694574113
-0.0230798986306
-0.0233451284975
-0.0233593778881
-0.0229150215164
-0.0215757043356
-0.0271501231654
-0.0272961349672
-0.0218153457517
-0.022124997499
-0.0220380576802
-0.0217085470311
-0.0214612553008
-0.0213968913282
-0.0214662761084
-0.0215769695828
-0.0217204441334
-0.0219046764972
-0.0220827432302
-0.0222680407175
-0.0225093187727
-0.0228287859568
-0.0231712913067
-0.0233806647393
-0.0230129926028
-0.0216052805625
-0.0268777662732
-0.0263523158075
-0.0213637853748
-0.0218870453817
-0.0220946026789
-0.0220372339095
-0.0218955786294
-0.0218245217057
-0.0218564142927
-0.0219353159075
-0.0220310602318
-0.0221403666361
-0.0222161908144
-0.0223020220605
-0.0224427680538
-0.0226771170486
-0.0229431497657
-0.0230265796421
-0.0225781115035
-0.0211771074293
-0.0260754764975
-0.0238244621291
-0.0200305768319
-0.0209259145329
-0.021291639862
-0.0213606684484
-0.0213461362212
-0.0213398248378
-0.021358377751
-0.0213930611433
-0.0214299789894
-0.0214344051149
-0.0214268271655
-0.0214297638577
-0.0214588609963
-0.0215307907296
-0.0216320268236
-0.0216455428164
-0.021220810349
-0.019821910221
-0.0239221681188
-0.0194837528079
-0.023692815245
-0.0260725887102
-0.0270638133041
-0.0274374336157
-0.0276144340354
-0.0277586084235
-0.0278938018753
-0.0280212800242
-0.0281120411283
-0.0281692179613
-0.0280046407969
-0.0277800234191
-0.027585064163
-0.0274421942892
-0.0273262728627
-0.0270982672311
-0.0263227287544
-0.0241305674187
-0.01965705138
-0.0198825126361
-0.0255176454646
-0.0286387606356
-0.0297347836512
-0.0297895763468
-0.0294751553063
-0.0292963474485
-0.0293451324494
-0.029504358803
-0.0296625092265
-0.0297966855096
-0.0299415633985
-0.0300919767011
-0.0302795184346
-0.0304829449398
-0.0306904896809
-0.0303801313108
-0.0288828288988
-0.0253432963867
-0.0197760755375
-0.0256217057362
-0.0212153886666
-0.0223159690647
-0.022881294588
-0.0231796542738
-0.0233592036484
-0.0234967723598
-0.023614223438
-0.0237218942874
-0.0238213649206
-0.0238998897774
-0.0239519996021
-0.0239854238995
-0.0239760048731
-0.0239318953542
-0.0238333004455
-0.0235169245305
-0.0227649242961
-0.0212164771773
-0.0246428707916
-0.0287644984494
-0.0223479971311
-0.0230041742112
-0.0234982793859
-0.0237995932222
-0.0239954466931
-0.024128919115
-0.0242315646437
-0.0242954653262
-0.0243614261894
-0.0244126569235
-0.0244088624228
-0.0243802108142
-0.0242988529785
-0.0241804929358
-0.0239663314554
-0.0236503486028
-0.023082653786
-0.0220969731843
-0.0277025688576
-0.029846454254
-0.0228537462029
-0.0233801242893
-0.0237822225866
-0.0240080743351
-0.0241578056454
-0.024316638285
-0.0245091051239
-0.0245070906844
-0.0245494079867
-0.0246007958619
-0.0246184347216
-0.024684403004
-0.0245450287089
-0.0244175670243
-0.0242090847289
-0.0238534227896
-0.0233495301383
-0.0225964201902
-0.0292111370457
-0.0299876650399
-0.022995279855
-0.0233964270083
-0.0236925770814
-0.0238448050414
-0.0240029547997
-0.0244106708883
-0.0250913424026
-0.0247591642004
-0.0246996068385
-0.0247207282662
-0.0248440584448
-0.0252759511057
-0.0246800490639
-0.0244662227366
-0.0243132477967
-0.0239520581325
-0.0233743129836
-0.0227274193799
-0.0299085445999
-0.0299526618875
-0.0229743634703
-0.0232421481512
-0.0234538140562
-0.0236053584939
-0.0239192773264
-0.0251704554914
-0.0279619486862
-0.0262077487329
-0.0259474504423
-0.0260078226733
-0.0264817147528
-0.0285310073191
-0.0253759670547
-0.0244325280813
-0.0242858473548
-0.0239237246263
-0.0232851106442
-0.0226417290453
-0.0303269477194
-0.0299815364426
-0.0229029164585
-0.0230457961462
-0.0231989505706
-0.0233611965037
-0.0240924027491
-0.028053622623
-0.0442844245045
-0.033889822939
-0.0345319085567
-0.0366331937273
-0.0395232216689
-0.0496793051621
-0.0274910835895
-0.0244194534606
-0.0241394651302
-0.0237947493282
-0.0231633484705
-0.0225011675141
-0.0307157683703
-0.0300461811795
-0.0228980347149
-0.0229723374311
-0.0230508525975
-0.023173432807
-0.023954239952
-0.0334892402419
-0.0470185697176
-0.025148396477
-0.0240431365403
-0.0237504759422
-0.0231222438923
-0.0224476214555
-0.0310784279811
-0.0301476101107
-0.023014349445
-0.0230212255168
-0.0230704033575
-0.0230585872554
-0.0232487650499
-0.0358617715115
-0.0444692322181
-0.0245096370259
-0.0239483325782
-0.0237825610542
-0.0231706308225
-0.0224918552502
-0.0313714873602
-0.0302748395176
-0.023096093516
-0.0230641254693
-0.0231083878178
-0.0231444545068
-0.0238318015745
-0.0409819576716
-0.0465351878772
-0.0247132582007
-0.0239482874694
-0.0238077520051
-0.0231887688429
-0.0224635035525
-0.0315345808859
-0.0304398074912
-0.0231312266186
-0.0230797911182
-0.0231133540581
-0.0231956965868
-0.0249217976897
-0.0581369955874
-0.0589557544161
-0.0255384801013
-0.02403630621
-0.0238516660421
-0.0231807029596
-0.0223705340369
-0.0315045119268
-0.0305004017709
-0.0230671491601
-0.0229159059244
-0.0228619106498
-0.0227615466846
-0.0223643629972
-0.0194745597351
-0.0458081509434
-0.0422396253287
-0.041231440296
-0.0420846806087
-0.0453633233847
-0.0525876938074
-0.0258805144036
-0.0237832235795
-0.0238023529382
-0.0236620145182
-0.023012880325
-0.0221947153481
-0.0311809279756
-0.0305084060806
-0.0229378502438
-0.0226096490444
-0.0224095429012
-0.0222824272954
-0.0221398728371
-0.021369896973
-0.0203152482728
-0.0213430725605
-0.0215012161328
-0.0213743890047
-0.0213385395451
-0.0217001859782
-0.0228784596906
-0.0231269747751
-0.0233220343682
-0.0232065520804
-0.022705325645
-0.0219985903016
-0.0308376569346
-0.0304112620531
-0.0228751553534
-0.0223831104405
-0.0220157569035
-0.0217671092056
-0.021660576557
-0.0215512524908
-0.0214622375896
-0.021711783062
-0.0218025319075
-0.021740495263
-0.0216964591351
-0.0218590846769
-0.0222098058684
-0.0225156013682
-0.022748971659
-0.0227844631967
-0.0225145784934
-0.0219473334762
-0.0304921541311
-0.0302577227784
-0.0229509573888
-0.0223720772596
-0.02187755066
-0.0214814971837
-0.0212633656864
-0.0211875745775
-0.0212263360718
-0.0213392398911
-0.0213982070395
-0.0214111131415
-0.0214438366622
-0.0215609958401
-0.021757875012
-0.0220541375832
-0.0223778538931
-0.0226215113524
-0.0225771035339
-0.0220770776004
-0.0301648756329
-0.030160790223
-0.0230901195378
-0.0226180131205
-0.0220967830959
-0.0216305894079
-0.0213292024714
-0.0212118395214
-0.021240539918
-0.0213157770357
-0.0213625980442
-0.0214014823944
-0.0214470186803
-0.0215420308094
-0.021717576112
-0.0220269413014
-0.0224454345395
-0.0228406066783
-0.0229102007768
-0.0223030955806
-0.0299454482075
-0.029746195711
-0.0230648417227
-0.022881365382
-0.0225754743411
-0.0221465702266
-0.0218244418655
-0.021677333216
-0.0216700855477
-0.0217055174561
-0.0217407921821
-0.0217912980004
-0.0218492312247
-0.0219290930903
-0.022089169037
-0.0224007996664
-0.0228519428748
-0.0232731194321
-0.023223276903
-0.022406984491
-0.0296162508824
-0.0283934215977
-0.0225463258222
-0.0227138891448
-0.0227629361197
-0.0226236466166
-0.0224163651164
-0.0222800157713
-0.0222464763384
-0.0222573030065
-0.0222787155161
-0.0222995144425
-0.0223223093787
-0.0223689494275
-0.0224897937457
-0.0227425544765
-0.0230726800943
-0.0232650924924
-0.0230036137561
-0.02204192337
-0.0285567155486
-0.0250424337167
-0.0211097232209
-0.0219529441031
-0.0223075770555
-0.0223617810492
-0.0223196262272
-0.0222764631052
-0.0222543077635
-0.0222470182705
-0.0222409057681
-0.0222008552208
-0.0221655782091
-0.02214908913
-0.0221757498058
-0.0222674025343
-0.0224087867712
-0.0224730012613
-0.0221026099915
-0.0208403396511
-0.0257329611951
-0.0197483073846
-0.0248539241854
-0.0279634166762
-0.0293627602354
-0.0299310810238
-0.0302069435995
-0.030420486658
-0.0306197450213
-0.0308094403338
-0.0309602227651
-0.0310622518633
-0.0308373478669
-0.0305920498374
-0.030393366654
-0.0302589441414
-0.0301675239575
-0.0298990563491
-0.0288595297197
-0.0259954538678
-0.0204904617168
-0.0200262447229
-0.0263141611553
-0.0299730234257
-0.031336396811
-0.0314540813836
-0.0311257471994
-0.0309192682603
-0.0309547843983
-0.0311077177339
-0.0312561319089
-0.0313744620017
-0.0314936299659
-0.0316236749063
-0.0318210511242
-0.0319727518957
-0.0321245245914
-0.0316559147192
-0.0298653603698
-0.0258088919995
-0.0198051049919
-0.0264301129281
-0.0217882945665
-0.0229040462411
-0.0235083964441
-0.0238234423593
-0.0239876398056
-0.0241091267414
-0.0242321064521
-0.0243564829701
-0.024468384684
-0.0245516227271
-0.0246128773636
-0.0246529456086
-0.0246385308613
-0.0245915861618
-0.0244734812179
-0.0241163560576
-0.0232917513919
-0.0216294984642
-0.0249409708858
-0.0301180839868
-0.0229413778582
-0.0234481824263
-0.0239072706503
-0.0241873078371
-0.0243632357625
-0.0244802786782
-0.0245793167733
-0.0246429877494
-0.0247078161698
-0.0247567656506
-0.0247689885194
-0.0247355125369
-0.0246094044099
-0.0244483862375
-0.024236571205
-0.0239515025418
-0.0234097002881
-0.0224859573846
-0.0283387170947
-0.0314607419794
-0.023485690457
-0.0238016629521
-0.0241389300257
-0.0243394322081
-0.0244775313332
-0.024632217587
-0.0248230611286
-0.0247946458032
-0.0248247046578
-0.0248750598552
-0.0248797099533
-0.0249011436719
-0.0245939009928
-0.0243362857359
-0.0241430674558
-0.0239135170914
-0.0235710622996
-0.0229897244849
-0.030079393488
-0.0316280105174
-0.0236461014168
-0.0238267921101
-0.0240583044942
-0.0241924746357
-0.0243678326351
-0.0248231389417
-0.0255082882868
-0.0250423925459
-0.0249535767647
-0.025029906374
-0.0252128961899
-0.0256691760676
-0.0246920830631
-0.0241376979139
-0.0239027567622
-0.0237165049179
-0.0234787643627
-0.0231275207191
-0.0309077016504
-0.0315020587639
-0.0236174894014
-0.0236815008852
-0.0238329915976
-0.0239651552104
-0.024360838449
-0.0256503083515
-0.0284550260213
-0.0262707969861
-0.0258999227546
-0.0261091740662
-0.0270017397645
-0.029670916518
-0.0256740341671
-0.0240378001852
-0.023637595329
-0.0234570424208
-0.0232381623183
-0.0230312950515
-0.0314253209004
-0.0314416923976
-0.0235319510809
-0.0234728767115
-0.0235915748087
-0.0237843865423
-0.0245927566785
-0.0284144958715
-0.0442915917955
-0.0322960451839
-0.0316213960134
-0.0329436280435
-0.0364932323367
-0.050567222315
-0.0277714163672
-0.0240329033017
-0.0233727771417
-0.0231603921407
-0.0229785987326
-0.022864820663
-0.0319138149432
-0.0314556092518
-0.0235199737733
-0.0234047843562
-0.023452685178
-0.0235878262561
-0.0242990653842
-0.0297532916499
-0.0407539486477
-0.0246152772406