/*--------------------------------*- C++ -*----------------------------------*\
| =========                 |                                                 |
| \\      /  F ield         | OpenFOAM: The Open Source CFD Toolbox           |
|  \\    /   O peration     | Version:  v1606+                                |
|   \\  /    A nd           | Web:      www.OpenFOAM.com                      |
|    \\/     M anipulation  |                                                 |
\*---------------------------------------------------------------------------*/
FoamFile
{
    version     2.0;
    format      ascii;
    class       volScalarField;
    location    "0.39";
    object      epsilon.air;
}
// * * * * * * * * * * * * * * * * * * * * * * * * * * * * * * * * * * * * * //

dimensions      [0 2 -3 0 0 0 0];

internalField   nonuniform List<scalar> 
6000
(
133.585
16.6734
10.7856
10.0895
9.94942
9.91211
9.89288
9.87282
9.86577
9.85865
9.85171
9.85518
9.86689
9.88083
9.88991
9.89001
9.88017
9.86619
9.8562
9.85394
9.86317
9.8727
9.88
9.89827
9.91626
9.94855
10.086
10.7841
16.6703
133.564
77.8646
24.4617
14.9372
12.5229
11.7908
11.5156
11.3596
11.2394
11.1846
11.1428
11.1043
11.1137
11.1642
11.2284
11.2764
11.2698
11.2188
11.1577
11.1184
11.1165
11.1562
11.1988
11.254
11.3755
11.5323
11.7934
12.5157
14.9303
24.4624
77.841
46.0765
21.4744
14.5493
12.3322
11.5618
11.2484
11.0627
10.8933
10.7344
10.5824
10.4558
10.3783
10.3489
10.3514
10.3618
10.3592
10.3476
10.3485
10.3858
10.4704
10.601
10.7559
10.9172
11.0884
11.2722
11.5781
12.3427
14.5557
21.4771
46.04
33.4089
18.397
14.329
12.8551
12.3812
12.1477
11.8873
11.5536
11.1888
10.8235
10.5087
10.2701
10.1158
10.0444
10.0212
10.021
10.0463
10.124
10.2869
10.5336
10.8566
11.2283
11.5986
11.938
12.2013
12.4331
12.9008
14.3686
18.4236
33.3189
27.7315
17.139
15.1769
14.9006
14.8463
14.5149
13.9823
13.2647
12.4495
11.6228
10.9352
10.4533
10.1401
9.96906
9.89684
9.89888
9.97709
10.1579
10.4838
10.9804
11.6837
12.5218
13.345
14.0708
14.6156
14.9644
15.0138
15.2645
17.208
27.685
29.6172
18.8948
18.4894
18.5922
17.8528
16.9442
16.037
14.9497
13.7195
12.3746
11.2214
10.4356
9.94557
9.65704
9.52731
9.53211
9.67297
9.97544
10.484
11.2953
12.4741
13.8223
15.0473
16.1418
17.0745
18.0372
18.8254
18.7129
19.0095
29.5394
42.5161
24.4295
21.4649
20.0138
18.6592
17.4644
16.3176
15.1477
13.9986
12.7277
11.3393
10.304
9.64098
9.25324
9.07725
9.08499
9.27793
9.68679
10.3783
11.4513
12.8645
14.116
15.2482
16.4301
17.6254
18.9174
20.3946
21.934
24.7899
42.1743
66.2234
28.2301
21.3904
19.4542
18.2073
16.6786
15.2142
14.0305
13.1956
12.5116
11.3869
10.2296
9.45603
8.98799
8.77179
8.78306
9.02331
9.52057
10.3329
11.5385
12.6614
13.3261
14.1597
15.3722
16.9003
18.5292
19.9108
22.0069
29.0885
65.2712
79.6248
28.4491
20.8726
19.1602
17.7714
15.6322
13.9486
12.8249
12.163
11.8505
11.3373
10.1541
9.28591
8.76638
8.52102
8.53605
8.81321
9.37025
10.2891
11.5082
12.001
12.3215
13.0026
14.177
15.9562
18.2253
19.7188
21.5823
29.5407
80.8223
79.6369
28.1767
20.8674
19.4989
17.4152
14.887
13.2018
12.1434
11.4873
11.1143
10.9198
10.0168
9.04343
8.51302
8.25809
8.27704
8.57107
9.14568
10.1783
11.0831
11.2766
11.6748
12.3648
13.4874
15.2936
18.0017
20.1292
21.5686
29.2094
82.6511
75.8096
27.8973
21.2595
20.191
17.2236
14.6833
13.1117
12.1027
11.3758
10.7939
10.3672
9.71877
8.74307
8.20288
7.95138
7.97291
8.26784
8.85913
9.89285
10.534
10.9775
11.5867
12.3543
13.43
15.1223
17.8582
20.8826
21.92
28.8635
79.4141
69.4458
27.5978
22.0172
20.8336
17.4034
15.1663
13.7428
12.7253
11.8998
11.1413
10.3533
9.46295
8.5119
7.94093
7.68575
7.70799
8.00828
8.63478
9.63765
10.544
11.3494
12.1326
12.9981
14.0746
15.5962
18.0055
21.5384
22.5666
28.5122
72.4531
63.2974
26.8279
22.3407
21.4039
18.4767
16.7216
15.3207
14.1228
13.182
12.2846
11.079
9.6642
8.54653
7.92872
7.6455
7.66971
8.00234
8.6795
9.86143
11.3142
12.5275
13.4402
14.419
15.6665
17.1279
18.9988
22.0448
22.7623
27.6452
65.4947
55.3403
25.2612
22.3828
22.544
21.4912
20.12
18.1296
16.3451
15.238
14.2649
12.5423
10.5161
9.01462
8.23202
7.88904
7.91709
8.31729
9.17345
10.763
12.8463
14.56
15.5266
16.6781
18.5142
20.5276
21.904
23.0202
22.7216
25.9311
57.1034
45.0295
23.6756
23.0712
25.0912
27.6028
26.2673
22.3822
19.2198
17.6754
16.6373
14.2196
11.9166
10.1718
9.11309
8.65492
8.69159
9.22602
10.383
12.2369
14.6389
17.0214
17.9964
19.6107
22.8472
26.7428
27.8544
25.3039
23.3191
24.1562
46.5108
41.5288
24.4363
26.4255
31.5602
37.2914
34.8179
28.0947
22.3777
19.6634
18.3845
16.1555
13.7628
11.8436
10.6088
10.0644
10.1137
10.7605
12.1194
14.1566
16.6372
18.821
20.0498
22.8527
28.6588
35.1669
37.4168
31.5048
26.5353
24.7996
42.5912
45.628
29.5087
34.1623
40.1484
44.5082
40.4277
31.6646
24.5561
21.3368
19.6969
17.0374
14.6515
12.7708
11.5487
11.0074
11.0618
11.7159
13.0732
15.0702
17.5456
20.2599
21.7843
25.0761
32.1913
40.8313
44.5904
39.9293
34.0613
29.586
46.4268
62.8005
38.115
39.1045
41.3014
41.6768
37.2792
29.5211
23.7123
21.3918
20.2221
17.3083
14.5396
12.6605
11.4861
10.9513
11.004
11.6464
12.9354
14.932
17.839
20.7334
21.7851
24.1736
30.082
37.6759
41.7101
41.1963
38.9858
37.9793
62.8594
83.9183
41.1271
37.4919
36.6368
35.2318
31.5006
25.8598
21.5732
19.8753
18.9579
16.6381
13.9817
12.1476
11.0337
10.5206
10.5675
11.1761
12.389
14.3329
17.0795
19.2968
20.1362
21.909
26.2102
31.7157
35.2465
36.6232
37.4569
41.0691
83.8656
86.0469
39.8652
33.3614
31.2821
29.6112
26.9012
22.962
19.508
17.9967
17.4794
15.7388
13.3055
11.5337
10.4686
9.97416
10.0126
10.5854
11.7317
13.592
16.0662
17.6681
18.1438
19.74
23.2319
27.0727
29.6593
31.3245
33.4069
39.8801
86.1487
82.9318
37.1782
29.8126
27.2696
25.5869
23.6808
20.8255
17.8523
16.3787
16.0994
14.8864
12.6745
10.9404
9.90472
9.42874
9.45927
9.99807
11.0987
12.9014
15.121
16.1973
16.4618
18.0346
21.0403
23.7452
25.6125
27.3211
29.904
37.3009
83.1193
75.5032
34.1756
27.0169
24.3074
22.7601
21.3621
19.246
16.5953
15.0605
14.8945
14.0647
12.0449
10.3631
9.356
8.89565
8.91838
9.42604
10.4823
12.2123
14.2112
14.9165
15.0867
16.6728
19.2775
21.3324
22.7306
24.3416
27.1463
34.3697
75.8596
65.3823
31.1391
24.7165
22.0733
20.6793
19.5721
17.862
15.5062
13.9297
13.7912
13.211
11.3834
9.78056
8.81157
8.36797
8.3838
8.86048
9.86362
11.4957
13.2827
13.7522
13.9001
15.4909
17.7652
19.4387
20.5912
22.0868
24.8623
31.3574
65.9143
56.0138
28.6695
22.7717
20.2841
19.0049
18.0209
16.5366
14.4536
12.8977
12.8121
12.3786
10.6677
9.17732
8.26079
7.83843
7.84862
8.29221
9.23049
10.7358
12.3911
12.7229
12.8173
14.3552
16.3511
17.823
18.8791
20.2807
22.9202
28.8906
56.6209
47.2894
25.9767
20.9432
18.718
17.5181
16.5449
15.1674
13.3422
11.8745
11.8014
11.5117
9.94083
8.55761
7.70231
7.30605
7.3116
7.7195
8.58599
9.97045
11.4742
11.6787
11.7531
13.1815
14.9286
16.3113
17.3719
18.7019
21.0885
26.2387
47.9229
39.7342
22.9761
19.0657
17.2021
16.0855
15.0634
13.733
12.154
10.8338
10.7756
10.563
9.16393
7.91698
7.13765
6.77342
6.77527
7.14321
7.92421
9.15956
10.4852
10.6248
10.682
11.9513
13.4707
14.8164
15.9281
17.1759
19.2039
23.2593
40.3105
33.5665
19.9672
17.1347
15.668
14.6299
13.5452
12.2529
10.9031
9.78019
9.73225
9.56978
8.36391
7.26556
6.57217
6.24496
6.24402
6.56875
7.25618
8.33327
9.46377
9.56758
9.6113
10.684
11.9888
13.2966
14.4682
15.6374
17.2552
20.2282
34.0653
28.7015
17.1804
15.2578
14.1479
13.1384
11.9974
10.7754
9.64112
8.73626
8.69189
8.56415
7.56016
6.61389
6.0128
5.72612
5.72329
6.00329
6.59384
7.51393
8.44959
8.53023
8.56421
9.4254
10.5238
11.7551
12.9746
14.1047
15.3533
17.4127
29.1301
25.1335
14.8821
13.5132
12.631
11.6315
10.4682
9.36657
8.42932
7.73541
7.68289
7.57063
6.77543
5.97959
5.46873
5.2232
5.21932
5.45593
5.95485
6.72279
7.45883
7.53713
7.57534
8.23002
9.13705
10.2459
11.4746
12.5806
13.5877
15.0779
25.4607
22.4202
13.0308
11.9329
11.1457
10.1382
8.99896
8.05963
7.31433
6.81669
6.75658
6.65473
6.01417
5.36366
4.94588
4.74233
4.73803
4.93288
5.3344
5.95662
6.54949
6.63012
6.67684
7.13809
7.85426
8.79511
9.98649
11.0891
11.9853
13.1909
22.6477
20.1313
11.4934
10.4691
9.69066
8.67384
7.61761
6.85654
6.31941
6.00197
5.93428
5.78662
5.31121
4.79129
4.45412
4.28848
4.28405
4.43913
4.76348
5.25337
5.69522
5.82787
5.88065
6.16117
6.67341
7.44059
8.53253
9.62415
10.4931
11.6046
20.2205
17.8502
10.1239
9.07478
8.25641
7.27828
6.38737
5.78303
5.43323
5.28928
5.22868
5.04442
4.65802
4.26098
3.994
3.86253
3.85685
3.97814
4.23107
4.60588
4.9681
5.13795
5.18337
5.29809
5.62796
6.22867
7.13942
8.17954
9.07241
10.2104
17.8385
15.5963
8.97679
7.75404
6.89647
5.9912
5.29096
4.85929
4.67455
4.65849
4.61515
4.41998
4.09744
3.78577
3.57459
3.46935
3.46447
3.55972
3.75859
4.05228
4.35437
4.53403
4.56271
4.55781
4.72215
5.1507
5.86288
6.80652
7.73181
9.04023
15.5118
13.2994
7.93383
6.51815
5.60146
4.8764
4.35513
4.06119
4.0276
4.09163
4.06634
3.88306
3.61375
3.36727
3.19966
3.11567
3.11119
3.18586
3.34229
3.57336
3.82413
3.99047
4.00278
3.92499
3.94276
4.22651
4.75813
5.5088
6.4728
7.95122
13.1557
10.9515
6.78258
5.26716
4.50338
3.94591
3.53347
3.40048
3.471
3.58148
3.56862
3.41348
3.19368
2.99807
2.86533
2.79863
2.79461
2.85292
2.97554
3.15732
3.36014
3.49814
3.49921
3.37941
3.29792
3.41665
3.83067
4.41485
5.2048
6.73682
10.7833
8.58531
5.36616
4.21196
3.59303
3.10775
2.85505
2.85971
2.99665
3.11698
3.1121
2.99378
2.82443
2.67169
2.56636
2.51305
2.50956
2.55535
2.65175
2.79314
2.94832
3.05144
3.04491
2.91722
2.76986
2.75241
2.99678
3.49904
4.14747
5.28537
8.42673
6.68176
4.18311
3.28825
2.74345
2.40442
2.32244
2.4182
2.58671
2.6915
2.69274
2.6122
2.49212
2.37879
2.29679
2.25363
2.25023
2.28649
2.36139
2.46653
2.57626
2.64527
2.63364
2.52095
2.34318
2.23516
2.3039
2.64792
3.21149
4.11254
6.56546
5.10114
3.20479
2.43341
2.02139
1.85606
1.90468
2.06883
2.22668
2.3102
2.31775
2.26947
2.19172
2.11396
2.05462
2.02208
2.01919
2.04593
2.09959
2.17122
2.24173
2.28204
2.26604
2.17468
2.0089
1.83239
1.77203
1.93456
2.35963
3.14159
5.00828
3.75512
2.38674
1.75062
1.45991
1.44778
1.60152
1.79448
1.92428
1.98675
1.99808
1.97352
1.92851
1.88048
1.84184
1.81979
1.81758
1.8352
1.86943
1.91272
1.95243
1.97122
1.95305
1.88307
1.74642
1.54696
1.38325
1.3909
1.69071
2.33305
3.68758
2.73735
1.74912
1.24453
1.07681
1.1626
1.4067
1.58846
1.68239
1.72471
1.73683
1.72815
1.70596
1.67942
1.65656
1.64291
1.64125
1.65157
1.67102
1.69395
1.71223
1.71663
1.69894
1.64958
1.55003
1.3674
1.11842
1.02801
1.19865
1.70841
2.69404
2.04719
1.25956
0.873723
0.845901
1.00089
1.2633
1.42165
1.48545
1.51357
1.52711
1.5291
1.52166
1.50926
1.49716
1.4894
1.48813
1.49331
1.50274
1.51234
1.51691
1.51171
1.49395
1.46021
1.39336
1.23752
0.972204
0.812876
0.841068
1.22965
2.01981
1.45935
0.857605
0.635909
0.713848
0.923913
1.13248
1.27049
1.32038
1.34361
1.36058
1.36989
1.37131
1.36761
1.36225
1.35824
1.35718
1.35905
1.36219
1.36367
1.36004
1.3485
1.32874
1.30175
1.25157
1.11654
0.906642
0.695547
0.616046
0.838853
1.43653
1.07992
0.595955
0.536102
0.67356
0.871169
1.03003
1.13979
1.1831
1.20875
1.23041
1.24418
1.25022
1.251
1.24928
1.24729
1.24628
1.24623
1.24594
1.24322
1.23547
1.22032
1.19736
1.16953
1.12652
1.01965
0.862101
0.667643
0.531204
0.589347
1.06519
1.01038
0.523069
0.534907
0.67231
0.831528
0.961758
1.03782
1.07278
1.10522
1.13086
1.14612
1.1533
1.15541
1.15492
1.15363
1.15251
1.15158
1.14997
1.146
1.13743
1.12159
1.0962
1.06346
1.02758
0.953965
0.827148
0.670121
0.534724
0.527633
1.00935
1.13116
0.552168
0.570244
0.692592
0.814308
0.899547
0.949832
0.991308
1.03023
1.05632
1.06999
1.07563
1.07677
1.07582
1.07428
1.07292
1.0718
1.07029
1.0671
1.06029
1.04683
1.02247
0.985217
0.943376
0.894818
0.81332
0.696989
0.57675
0.5628
1.15113
1.6269
0.676325
0.668676
0.744707
0.793769
0.842733
0.890812
0.939358
0.978457
1.0011
1.01081
1.01305
1.01174
1.00922
1.00683
1.00515
1.00422
1.00364
1.0025
0.99914
0.990523
0.971447
0.936448
0.889068
0.841192
0.795436
0.755151
0.685252
0.699835
1.70107
2.11707
0.851577
0.759558
0.765209
0.777341
0.812499
0.861498
0.909232
0.943677
0.960665
0.964892
0.962544
0.957856
0.953209
0.949682
0.947635
0.947088
0.947837
0.94938
0.950441
0.948222
0.937158
0.909829
0.865396
0.81644
0.781143
0.771136
0.775242
0.879615
2.18862
2.26329
0.953316
0.80947
0.778033
0.778836
0.805773
0.851322
0.894952
0.922894
0.932751
0.930148
0.922153
0.913584
0.906613
0.901889
0.899505
0.899407
0.901599
0.906034
0.912118
0.9176
0.916946
0.900997
0.863207
0.81576
0.785124
0.78337
0.818852
0.978624
2.28795
2.25482
1.04232
0.846912
0.795717
0.78673
0.81088
0.856026
0.895053
0.91399
0.91496
0.904366
0.89031
0.877835
0.868618
0.862778
0.860102
0.860473
0.864092
0.871404
0.882666
0.896731
0.908171
0.905475
0.874481
0.82582
0.796746
0.802398
0.857585
1.06988
2.25962
2.1616
1.08967
0.867377
0.808121
0.802713
0.831556
0.876576
0.904413
0.911512
0.902504
0.884343
0.865094
0.849394
0.838286
0.831482
0.828566
0.82941
0.834405
0.844446
0.860589
0.882927
0.907245
0.921576
0.905415
0.855326
0.819166
0.818654
0.877687
1.10705
2.14178
1.9022
1.07319
0.866768
0.822303
0.836025
0.881055
0.921934
0.923433
0.909194
0.890711
0.867134
0.844603
0.826892
0.814437
0.806871
0.803769
0.805089
0.81139
0.823876
0.844225
0.873285
0.908085
0.939311
0.948669
0.913264
0.862054
0.839156
0.87837
1.0809
1.86966
1.62623
0.999076
0.859065
0.855104
0.905732
0.96276
0.968346
0.938333
0.910361
0.881064
0.852281
0.827658
0.809015
0.795873
0.787821
0.784643
0.786481
0.794034
0.8086
0.831911
0.865433
0.908753
0.950045
0.970347
0.975149
0.936122
0.883328
0.879252
0.99866
1.64613
1.50501
0.925265
0.874755
0.927179
1.00617
1.0222
0.989108
0.958386
0.917135
0.875629
0.840038
0.813898
0.795013
0.781645
0.773396
0.77032
0.772808
0.78168
0.798154
0.82355
0.858875
0.906557
0.968622
1.00078
1.00301
1.01017
0.974084
0.915763
0.958879
1.58011
1.54001
0.946535
0.947107
1.0393
1.05643
1.0355
1.01833
0.977571
0.922028
0.870494
0.830481
0.80339
0.78432
0.770875
0.762645
0.759885
0.763203
0.773557
0.792111
0.819754
0.856457
0.902825
0.968167
1.05035
1.07
1.04818
1.06791
1.04058
1.01919
1.67879
1.87147
1.08909
1.11325
1.09424
1.07739
1.07396
1.05053
0.980189
0.919087
0.864463
0.823263
0.79551
0.776108
0.762593
0.754515
0.752222
0.756452
0.768321
0.789047
0.819382
0.858323
0.905229
0.965468
1.0481
1.15005
1.17432
1.13637
1.16306
1.23338
2.2027
3.01665
1.45538
1.21395
1.15085
1.1509
1.12621
1.04397
0.970546
0.910719
0.857489
0.81717
0.789158
0.769441
0.755872
0.747997
0.746191
0.751263
0.764481
0.78717
0.820089
0.862619
0.912178
0.970279
1.04468
1.1389
1.2295
1.3039
1.29005
1.54197
3.57569
4.55
1.75283
1.3367
1.24329
1.17276
1.1014
1.02089
0.955245
0.898781
0.849303
0.811002
0.783333
0.76354
0.749985
0.742303
0.740892
0.746612
0.760891
0.785269
0.820974
0.86772
0.922228
0.981115
1.04845
1.13124
1.22518
1.32334
1.44289
1.80663
4.54655
5.03154
1.94007
1.43699
1.2642
1.15725
1.07435
1.00385
0.940787
0.886369
0.840388
0.804362
0.777511
0.757938
0.744508
0.737001
0.735866
0.742017
0.757084
0.782937
0.821426
0.873168
0.935206
0.999596
1.06179
1.13333
1.21714
1.32239
1.47396
1.86702
4.49759
4.75562
1.93499
1.47192
1.27091
1.14619
1.06227
0.990755
0.927486
0.874656
0.831432
0.797478
0.771644
0.752519
0.739348
0.732065
0.731192
0.737722
0.753502
0.78078
0.822246
0.879664
0.952348
1.02979
1.09393
1.15039
1.21942
1.31545
1.47469
1.8947
4.10198
4.04931
1.93978
1.47857
1.28397
1.15074
1.05942
0.981583
0.916713
0.86464
0.823226
0.79085
0.765971
0.747416
0.734667
0.727784
0.727381
0.73457
0.751447
0.780654
0.825043
0.888721
0.972636
1.06996
1.15559
1.19937
1.23744
1.30803
1.45921
1.87632
3.50801
3.47713
1.88476
1.48353
1.30002
1.16594
1.06235
0.976841
0.909343
0.857004
0.816397
0.784955
0.760806
0.74285
0.730696
0.724501
0.724974
0.733428
0.751951
0.783213
0.831741
0.902171
0.996509
1.10402
1.21919
1.29646
1.29396
1.3143
1.41866
1.77702
2.95149
2.98592
1.79351
1.47773
1.30522
1.17997
1.06508
0.974623
0.904885
0.851727
0.811132
0.780024
0.756329
0.738938
0.727508
0.722268
0.723999
0.734141
0.754818
0.789514
0.84227
0.917193
1.01802
1.1439
1.24675
1.34754
1.38624
1.35806
1.37206
1.58348
2.54703
2.98074
1.68539
1.43543
1.32765
1.17461
1.06189
0.972036
0.901787
0.848008
0.80709
0.775948
0.752481
0.735569
0.724875
0.720715
0.724006
0.736264
0.760002
0.798144
0.854306
0.931656
1.03251
1.16572
1.31702
1.37641
1.4384
1.46168
1.40191
1.449
2.24893
3.23259
1.67845
1.43283
1.30749
1.15735
1.0524
0.966669
0.897912
0.844507
0.803688
0.772598
0.749269
0.732677
0.722581
0.719433
0.724263
0.738824
0.765376
0.806731
0.865786
0.944525
1.04381
1.17042
1.35126
1.50654
1.48824
1.52717
1.53621
1.49219
2.31505
3.66151
1.71208
1.41037
1.26022
1.13057
1.03556
0.956667
0.8918
0.840518
0.800725
0.770063
0.74685
0.730316
0.720497
0.718083
0.72427
0.740835
0.769961
0.814073
0.875242
0.954521
1.05222
1.17302
1.33637
1.54292
1.66095
1.60893
1.63076
1.68592
2.86892
3.5774
1.66866
1.35774
1.20861
1.09745
1.01354
0.942773
0.883819
0.836449
0.799019
0.769428
0.746221
0.729225
0.719084
0.716901
0.724076
0.742212
0.773598
0.820134
0.882912
0.96198
1.05713
1.17085
1.31553
1.49798
1.66563
1.79345
1.72766
1.98737
4.3153
3.25841
1.60901
1.29422
1.15458
1.06099
0.987944
0.926734
0.875679
0.834272
0.800189
0.771686
0.748237
0.730452
0.719636
0.717223
0.724767
0.744186
0.777554
0.826556
0.890992
0.969231
1.05983
1.16476
1.28945
1.4408
1.6043
1.75251
1.83691
2.16396
5.10103
2.79703
1.55574
1.23125
1.10163
1.02211
0.961239
0.911349
0.870581
0.836523
0.806424
0.77981
0.755574
0.735956
0.723673
0.720606
0.728446
0.749132
0.784705
0.836649
0.903587
0.981117
1.06484
1.15665
1.26171
1.38319
1.51718
1.65353
1.79758
2.16044
4.99419
2.3929
1.44246
1.15887
1.04876
0.98367
0.936709
0.900674
0.872703
0.846675
0.822477
0.79867
0.772657
0.749755
0.735021
0.730779
0.738798
0.760909
0.79916
0.854704
0.925902
1.00387
1.07756
1.1548
1.2366
1.33089
1.4365
1.55455
1.70749
2.09691
4.47929
2.07586
1.29239
1.07995
0.996712
0.949257
0.91901
0.90129
0.8857
0.870792
0.852497
0.829864
0.801279
0.774649
0.756753
0.750736
0.758761
0.782619
0.82379
0.882873
0.959141
1.04012
1.10403
1.164
1.22318
1.28728
1.36502
1.46083
1.60877
2.00017
3.70584
1.81602
1.1485
1.00271
0.949017
0.923356
0.916563
0.916666
0.919094
0.911184
0.887295
0.861864
0.832398
0.803708
0.782079
0.773587
0.781587
0.808154
0.853606
0.915983
0.992186
1.07432
1.13989
1.19478
1.23355
1.26387
1.30522
1.37168
1.49048
1.81842
2.9931
1.59522
1.02046
0.931741
0.912013
0.917729
0.935611
0.96424
0.968636
0.941954
0.905251
0.88031
0.856759
0.825796
0.800621
0.789825
0.797829
0.826801
0.876371
0.942436
1.01429
1.08229
1.15356
1.23688
1.28297
1.27945
1.2715
1.29019
1.36411
1.59089
2.46059
1.41794
0.916144
0.87633
0.901485
0.944309
1.00081
1.029
0.997021
0.948869
0.913872
0.896118
0.873244
0.835653
0.807802
0.795773
0.803705
0.833852
0.885329
0.954867
1.03295
1.09501
1.15463
1.2471
1.3399
1.34991
1.28893
1.24216
1.24422
1.36836
2.0556
1.29861
0.843883
0.863261
0.931898
1.0366
1.09838
1.06258
1.00084
0.958161
0.937414
0.927242
0.887002
0.838897
0.809188
0.796761
0.804603
0.834805
0.886388
0.958866
1.05652
1.13582
1.17282
1.24187
1.33749
1.41639
1.3726
1.25468
1.17449
1.18559
1.76137
1.31722
0.852564
0.896428
1.02589
1.15007
1.1592
1.0712
1.01248
0.989308
0.989335
0.966394
0.89554
0.84228
0.812355
0.799991
0.807805
0.837625
0.888296
0.959615
1.06687
1.19314
1.2346
1.26216
1.32152
1.40623
1.44462
1.34264
1.18947
1.1364
1.69846
1.54836
0.934871
0.992351
1.13382
1.20882
1.16955
1.08719
1.0534
1.06124
1.05508
0.983041
0.901704
0.85006
0.820753
0.808823
0.816655
0.845681
0.894545
0.962545
1.06171
1.19823
1.31874
1.34897
1.35367
1.39229
1.44966
1.4679
1.28453
1.20013
1.89397
2.25203
1.14652
1.13364
1.19289
1.23573
1.18499
1.13156
1.14159
1.15196
1.07817
0.988896
0.913248
0.863864
0.834701
0.823062
0.830806
0.858826
0.905754
0.970467
1.06131
1.18583
1.31858
1.46023
1.48699
1.45087
1.46495
1.49564
1.4418
1.42108
2.59903
3.39393
1.50801
1.27174
1.25674
1.27812
1.23106
1.21788
1.23543
1.16452
1.07655
0.996503
0.928544
0.880263
0.850367
0.838446
0.845822
0.872839
0.918259
0.980936
1.06427
1.17291
1.29476
1.43236
1.5812
1.62509
1.55917
1.5525
1.56684
1.89772
4.19738
4.49915
1.81603
1.40782
1.36979
1.36731
1.34232
1.30984
1.2308
1.14895
1.07525
1.00547
0.94311
0.895282
0.864443
0.851972
0.858942
0.885323
0.929739
0.990425
1.06728
1.16074
1.26466
1.37854
1.51497
1.6415
1.72887
1.73657
1.72645
2.16068
5.42375
5.19037
1.98946
1.58104
1.55415
1.5342
1.47782
1.32433
1.21539
1.14058
1.07581
1.01316
0.954912
0.907389
0.875534
0.862369
0.869157
0.895564
0.939664
0.998543
1.06947
1.14976
1.23664
1.3333
1.44749
1.58242
1.71185
1.81347
1.85921
2.25741
5.73427
5.18585
2.07081
1.70738
1.69656
1.64128
1.49313
1.32965
1.21517
1.13966
1.07976
1.02245
0.966715
0.91874
0.885352
0.871193
0.878055
0.905438
0.950526
1.00873
1.07503
1.14517
1.21635
1.29591
1.39513
1.51613
1.64767
1.76579
1.8485
2.24632
5.50572
4.92183
2.1011
1.75467
1.70969
1.62381
1.47995
1.32742
1.21733
1.14611
1.09279
1.04031
0.985316
0.934982
0.898677
0.882811
0.889768
0.918876
0.966626
1.0263
1.08965
1.15185
1.21095
1.27245
1.35195
1.45305
1.56365
1.66828
1.78961
2.19606
4.87438
4.47462
2.09336
1.74449
1.66863
1.57044
1.44289
1.31807
1.22592
1.1672
1.12324
1.07399
1.01556
0.959761
0.919625
0.902001
0.908354
0.937745
0.987741
1.0514
1.11784
1.17574
1.22378
1.26936
1.32326
1.39664
1.48233
1.57154
1.70007
2.10766
4.17612
3.92952
2.03361
1.69194
1.58988
1.4997
1.40136
1.31436
1.25062
1.21288
1.17523
1.11859
1.05006
0.989574
0.948535
0.930193
0.934967
0.961453
1.00794
1.07108
1.14323
1.21273
1.26238
1.28944
1.31808
1.35568
1.40904
1.47668
1.59071
1.94709
3.45411
3.2604
1.88144
1.58621
1.49842
1.43311
1.37464
1.33021
1.30464
1.27743
1.22104
1.14764
1.07615
1.01877
0.978712
0.959274
0.962182
0.985719
1.02603
1.07914
1.14508
1.22281
1.30159
1.3443
1.34552
1.34637
1.35343
1.38311
1.45707
1.71742
2.7573
2.60371
1.64477
1.44726
1.40446
1.38624
1.38324
1.38545
1.37693
1.31329
1.22717
1.1539
1.09314
1.04137
1.00117
0.980805
0.98256
1.00484
1.04254
1.08533
1.13848
1.20982
1.29966
1.39369
1.42393
1.3853
1.34211
1.31148
1.32119
1.4652
2.21302
2.10105
1.40517
1.31766
1.33891
1.391
1.44387
1.47449
1.40989
1.30487
1.21893
1.15598
1.10587
1.05501
1.01342
0.992254
0.993552
1.01621
1.05561
1.09476
1.13469
1.1929
1.27813
1.38905
1.50283
1.49895
1.39446
1.29666
1.2286
1.25922
1.83723
1.81962
1.24074
1.25146
1.34519
1.46351
1.56487
1.52241
1.39368
1.28535
1.21222
1.16061
1.11436
1.06016
1.01671
0.994867
0.995867
1.01907
1.06116
1.10418
1.13756
1.18357
1.25624
1.36115
1.5056
1.61722
1.53875
1.34849
1.21968
1.17206
1.7121
1.81964
1.22249
1.27595
1.42647
1.61154
1.65243
1.50841
1.36507
1.27313
1.21231
1.16538
1.11576
1.05841
1.01438
0.992463
0.993196
1.01613
1.05924
1.10857
1.14444
1.18253
1.2423
1.33319
1.47344
1.64301
1.66778
1.48328
1.28491
1.20909
1.813
2.04617
1.31393
1.39128
1.59758
1.73281
1.64661
1.46913
1.34645
1.26913
1.2157
1.16788
1.11136
1.05183
1.00849
0.987038
0.987313
1.00897
1.05129
1.1051
1.15071
1.18699
1.23633
1.31419
1.43225
1.60792
1.72842
1.65566
1.4515
1.38261
2.25864
2.75224
1.57729
1.59712
1.77107
1.78841
1.62056
1.44663
1.33985
1.27306
1.22225
1.16533
1.10162
1.04336
1.00358
0.983693
0.983476
1.00248
1.04035
1.09464
1.15004
1.19689
1.24008
1.30614
1.41288
1.58489
1.7552
1.77749
1.68902
1.71939
3.21332
3.86308
1.92034
1.82744
1.85659
1.82661
1.62559
1.44639
1.3454
1.28478
1.22499
1.15844
1.09205
1.03954
1.00424
0.985873
0.985316
1.00195
1.03388
1.08221
1.14268
1.20134
1.25295
1.3113
1.41456
1.60137
1.81529
1.85676
1.92734
2.12579
4.45704
4.89191
2.32527
2.02178
1.93873
1.85531
1.62444
1.45574
1.36409
1.29495
1.22256
1.15088
1.08902
1.04308
1.01157
0.99507
0.994025
1.00798
1.03564
1.07604
1.1316
1.19664
1.2629
1.33022
1.42534
1.59906
1.83996
1.91385
2.04998
2.47416
5.41966
5.43259
2.53921
2.11458
1.99961
1.84675
1.61659
1.48697
1.39295
1.3016
1.2202
1.14988
1.09478
1.05485
1.0274
1.01259
1.01103
1.02231
1.04528
1.07974
1.12769
1.19063
1.26677
1.35881
1.45844
1.58842
1.82198
1.95998
2.08915
2.56365
5.62983
5.40681
2.5582
2.14739
2.04391
1.8507
1.65084
1.56245
1.43116
1.314
1.22446
1.15799
1.10936
1.07306
1.04785
1.03421
1.03217
1.04141
1.06147
1.09173
1.13393
1.19322
1.27592
1.39394
1.53612
1.62622
1.81635
1.98259
2.09463
2.51801
5.36292
5.33788
2.57334
2.18389
2.08061
1.88175
1.76827
1.6502
1.47391
1.33316
1.23932
1.17451
1.12718
1.0927
1.06951
1.05721
1.05465
1.06175
1.07913
1.10721
1.14767
1.20578
1.29276
1.42833
1.6117
1.7357
1.83392
2.00238
2.10686
2.48343
5.0441
5.42698
2.62491
2.2573
2.10326
1.9936
1.9151
1.71538
1.50353
1.35451
1.25718
1.19124
1.14397
1.11055
1.08901
1.07806
1.0749
1.07978
1.09495
1.12165
1.16209
1.22115
1.31069
1.44993
1.64958
1.8415
1.92039
2.0136
2.1546
2.49839
5.06109
6.06633
2.74298
2.29216
2.16977
2.12638
1.96423
1.72023
1.51079
1.36682
1.27193
1.20554
1.15698
1.12323
1.10195
1.09143
1.08741
1.09076
1.10516
1.13215
1.1738
1.23341
1.32049
1.45265
1.64382
1.85695
2.02047
2.07154
2.18088
2.5894
5.3879
6.44166
2.78254
2.33042
2.24645
2.12628
1.92458
1.69084
1.50056
1.36941
1.28102
1.21454
1.16158
1.12441
1.10112
1.08882
1.08439
1.08856
1.10414
1.13363
1.17934
1.23961
1.32089
1.44118
1.61086
1.81596
2.00527
2.14048
2.23407
2.65481
5.98582
6.20813
2.71637
2.30113
2.18586
2.01929
1.81406
1.6203
1.47039
1.36076
1.27955
1.21267
1.15597
1.11544
1.08889
1.07298
1.06846
1.07526
1.09342
1.12613
1.17497
1.23562
1.31037
1.40994
1.54328
1.71332
1.90048
2.07261
2.21024
2.6055
5.9208
5.32388
2.48798
2.12231
1.96623
1.80889
1.65926
1.52691
1.41872
1.33402
1.26221
1.19831
1.13967
1.0952
1.06594
1.04833
1.0441
1.05266
1.0728
1.10828
1.15846
1.21576
1.28105
1.35871
1.45585
1.57337
1.70856
1.86107
2.0301
2.39781
5.19863
4.00818
2.09469
1.78602
1.67492
1.58614
1.50543
1.42656
1.35233
1.28501
1.22171
1.16607
1.1135
1.06901
1.03954
1.02247
1.01841
1.02695
1.04748
1.08255
1.12706
1.17563
1.2323
1.29353
1.36104
1.43147
1.50398
1.58663
1.69607
1.99028
3.79367
2.77326
1.67128
1.46059
1.41406
1.39718
1.37179
1.33037
1.27838
1.22357
1.1701
1.12283
1.07931
1.03925
1.01198
0.996491
0.992659
1.00035
1.0193
1.05058
1.08735
1.12778
1.17432
1.22226
1.26979
1.30777
1.32958
1.34229
1.37997
1.56977
2.58752
1.93172
1.28403
1.18976
1.21999
1.25714
1.26366
1.23896
1.20254
1.16102
1.12005
1.07993
1.04186
1.00804
0.983833
0.970036
0.966492
0.973312
0.990132
1.01648
1.04827
1.08243
1.11721
1.15089
1.18267
1.2078
1.20286
1.16548
1.12998
1.20845
1.81986
1.53046
1.01973
1.02164
1.09961
1.1562
1.16367
1.15052
1.13089
1.10493
1.07367
1.04077
1.00667
0.97741
0.955249
0.942736
0.939547
0.945734
0.961444
0.984091
1.01202
1.03992
1.06632
1.08651
1.10222
1.11433
1.11016
1.05956
0.983661
0.976559
1.48929
1.46315
0.916031
0.944721
1.02116
1.06151
1.0733
1.07317
1.06542
1.04821
1.02478
0.999751
0.972215
0.947191
0.927155
0.915449
0.91265
0.91864
0.932705
0.951069
0.972609
0.993628
1.01358
1.02758
1.03376
1.03347
1.02312
0.988961
0.920253
0.898736
1.45609
1.56971
0.930567
0.922219
0.959158
0.988468
1.00193
1.00396
0.997709
0.98465
0.968967
0.952867
0.934375
0.91559
0.899628
0.889122
0.886665
0.892062
0.90228
0.914796
0.928242
0.941134
0.954684
0.96631
0.971718
0.970296
0.960133
0.935226
0.905022
0.920546
1.58129
1.98502
1.00371
0.920225
0.920846
0.929687
0.936898
0.93978
0.934907
0.925074
0.915524
0.90622
0.895403
0.883053
0.872367
0.863855
0.861818
0.865733
0.871116
0.878704
0.886205
0.893334
0.901855
0.910944
0.914809
0.911558
0.905749
0.900575
0.906144
1.00401
2.02744
2.40279
1.08381
0.909937
0.879109
0.878825
0.885333
0.888662
0.885445
0.878558
0.87259
0.867082
0.861365
0.852822
0.846325
0.84002
0.838491
0.840733
0.843299
0.8482
0.85184
0.855879
0.861134
0.867365
0.869887
0.866163
0.860588
0.862752
0.895547
1.0737
2.40236
2.43332
1.08135
0.891465
0.848651
0.843653
0.847543
0.849218
0.846636
0.842475
0.839051
0.836175
0.834569
0.829993
0.824565
0.819701
0.818608
0.820094
0.822951
0.824306
0.82465
0.826386
0.829144
0.832922
0.835365
0.833843
0.830481
0.836466
0.880296
1.06928
2.40417
2.39642
1.08846
0.888051
0.835876
0.824242
0.82133
0.818757
0.816043
0.814002
0.812982
0.812829
0.814779
0.815226
0.810557
0.806211
0.805439
0.807169
0.809782
0.806873
0.804139
0.803519
0.804051
0.805884
0.808747
0.811932
0.815864
0.82878
0.879925
1.07823
2.37205
2.45472
1.12059
0.901968
0.840042
0.81737
0.80432
0.797583
0.794714
0.794034
0.794839
0.797079
0.802101
0.806917
0.804777
0.80098
0.800581
0.802584
0.802718
0.79608
0.790604
0.787935
0.786839
0.7875
0.790722
0.798326
0.812796
0.836271
0.89866
1.11629
2.44969
2.7226
1.21203
0.950094
0.860253
0.820732
0.800982
0.79079
0.785974
0.784727
0.785881
0.789281
0.796059
0.803638
0.804637
0.801683
0.801539
0.80322
0.800647
0.791764
0.784795
0.781311
0.780153
0.781691
0.787125
0.797988
0.818557
0.861019
0.955323
1.22389
2.7721
3.61958
1.43095
1.02959
0.897385
0.841426
0.813717
0.7986
0.790379
0.787207
0.787301
0.790255
0.796838
0.80472
0.807431
0.805944
0.806094
0.806846
0.802631
0.793721
0.787053
0.78422
0.784354
0.78817
0.79755
0.814292
0.844148
0.902082
1.03965
1.46513
3.83804
4.91112
1.64594
1.13149
0.972317
0.899343
0.855343
0.827918
0.811538
0.803255
0.800096
0.800754
0.805501
0.812093
0.81575
0.815855
0.816252
0.815973
0.811339
0.804166
0.799568
0.799375
0.803222
0.81281
0.831399
0.862202
0.910341
0.987276
1.15071
1.67949
5.13291
5.48865
1.80218
1.28643
1.12045
1.01742
0.942237
0.891903
0.861271
0.843363
0.833382
0.829101
0.829712
0.833053
0.835923
0.836862
0.837441
0.836936
0.833857
0.830527
0.830628
0.835888
0.847305
0.867387
0.901408
0.956851
1.0387
1.14851
1.31864
1.85672
5.58866
5.22351
2.21464
1.60975
1.37159
1.21051
1.08143
0.994833
0.945785
0.914838
0.896003
0.885346
0.880336
0.87917
0.879743
0.880414
0.881166
0.881579
0.881627
0.88345
0.889442
0.901612
0.922598
0.95668
1.01059
1.10607
1.24704
1.41805
1.66995
2.30703
5.2748
4.02705
2.27613
1.88241
1.69432
1.47275
1.26988
1.13247
1.0608
1.01793
0.993116
0.978384
0.969642
0.965284
0.963554
0.963206
0.96403
0.965839
0.968764
0.974326
0.984612
1.00137
1.02898
1.07607
1.15508
1.30726
1.52787
1.75599
1.93232
2.32525
4.0079
2.42691
1.89956
1.77611
1.78361
1.65014
1.45623
1.29551
1.20877
1.16089
1.13656
1.12161
1.11075
1.10396
1.10088
1.10022
1.10093
1.10306
1.10766
1.11605
1.12876
1.14591
1.17318
1.2263