/*--------------------------------*- C++ -*----------------------------------*\
| =========                 |                                                 |
| \\      /  F ield         | OpenFOAM: The Open Source CFD Toolbox           |
|  \\    /   O peration     | Version:  v1606+                                |
|   \\  /    A nd           | Web:      www.OpenFOAM.com                      |
|    \\/     M anipulation  |                                                 |
\*---------------------------------------------------------------------------*/
FoamFile
{
    version     2.0;
    format      ascii;
    class       volScalarField;
    location    "0.39";
    object      p;
}
// * * * * * * * * * * * * * * * * * * * * * * * * * * * * * * * * * * * * * //

dimensions      [1 -1 -2 0 0 0 0];

internalField   nonuniform List<scalar> 
6000
(
107795
107795
107796
107797
107796
107795
107793
107792
107791
107790
107789
107789
107789
107789
107789
107789
107789
107789
107790
107790
107791
107792
107794
107795
107797
107799
107800
107800
107799
107798
107726
107724
107722
107719
107716
107713
107710
107708
107706
107704
107704
107703
107702
107701
107701
107701
107702
107702
107703
107704
107706
107707
107710
107712
107716
107719
107723
107725
107727
107729
107677
107677
107674
107668
107662
107656
107650
107646
107643
107642
107642
107641
107640
107639
107638
107638
107639
107641
107642
107643
107643
107644
107647
107651
107658
107665
107672
107678
107681
107682
107610
107604
107594
107580
107565
107554
107546
107543
107540
107539
107538
107536
107534
107532
107531
107531
107532
107534
107536
107538
107539
107540
107543
107547
107554
107567
107583
107598
107609
107615
107539
107527
107502
107484
107476
107474
107474
107474
107473
107471
107469
107467
107466
107465
107464
107464
107465
107466
107467
107469
107472
107474
107475
107475
107475
107477
107485
107505
107530
107544
107470
107447
107428
107426
107430
107437
107442
107446
107446
107445
107444
107442
107442
107441
107441
107441
107441
107442
107443
107444
107446
107447
107446
107443
107437
107430
107426
107429
107450
107474
107412
107392
107392
107397
107406
107416
107424
107430
107433
107433
107432
107431
107430
107429
107429
107429
107429
107430
107431
107432
107433
107433
107430
107424
107415
107405
107397
107392
107394
107415
107364
107361
107367
107374
107384
107395
107406
107414
107420
107422
107421
107420
107419
107418
107418
107418
107418
107419
107420
107422
107422
107420
107414
107405
107394
107383
107374
107366
107361
107366
107329
107335
107342
107351
107360
107371
107383
107393
107403
107410
107411
107409
107407
107406
107406
107406
107407
107407
107409
107411
107410
107402
107393
107382
107370
107359
107349
107340
107334
107329
107305
107310
107316
107326
107334
107344
107355
107367
107379
107392
107399
107398
107396
107395
107395
107395
107395
107396
107398
107399
107392
107378
107365
107353
107342
107332
107323
107314
107308
107302
107283
107286
107290
107299
107307
107314
107324
107336
107350
107367
107383
107386
107385
107384
107384
107384
107384
107385
107387
107383
107366
107349
107335
107323
107313
107305
107296
107287
107283
107279
107259
107261
107264
107271
107278
107283
107291
107302
107316
107335
107358
107370
107372
107372
107372
107372
107372
107372
107370
107357
107334
107315
107301
107290
107282
107275
107268
107260
107257
107255
107234
107235
107237
107240
107244
107247
107254
107264
107276
107292
107316
107341
107351
107353
107354
107354
107353
107351
107341
107315
107291
107275
107263
107252
107245
107242
107237
107234
107232
107231
107209
107209
107209
107204
107199
107200
107210
107221
107229
107236
107255
107285
107309
107318
107321
107321
107318
107309
107285
107255
107236
107228
107220
107209
107199
107198
107202
107207
107206
107205
107177
107176
107173
107157
107136
107139
107160
107172
107172
107158
107172
107197
107225
107243
107250
107250
107244
107225
107197
107172
107159
107174
107172
107159
107138
107137
107157
107171
107174
107174
107127
107126
107116
107091
107072
107077
107093
107112
107112
107104
107104
107109
107119
107130
107136
107136
107130
107119
107110
107105
107106
107114
107113
107093
107078
107073
107093
107116
107124
107125
107065
107062
107054
107046
107044
107048
107057
107073
107078
107079
107076
107075
107076
107077
107078
107078
107077
107076
107076
107077
107080
107079
107073
107057
107048
107044
107047
107055
107062
107065
107030
107030
107029
107030
107033
107037
107043
107055
107064
107067
107067
107065
107064
107064
107063
107063
107064
107064
107065
107067
107068
107064
107054
107042
107036
107033
107030
107030
107030
107031
107021
107022
107023
107025
107027
107029
107034
107043
107054
107059
107060
107059
107059
107058
107058
107058
107058
107059
107059
107060
107059
107053
107042
107033
107029
107027
107025
107023
107022
107021
107018
107018
107019
107020
107022
107023
107026
107034
107045
107051
107052
107052
107052
107052
107052
107052
107052
107052
107052
107052
107051
107044
107033
107026
107023
107022
107021
107019
107019
107018
107015
107015
107015
107016
107017
107017
107019
107025
107036
107043
107045
107045
107046
107046
107046
107046
107046
107046
107045
107045
107043
107035
107025
107019
107017
107017
107016
107016
107015
107015
107011
107011
107011
107012
107012
107012
107013
107018
107028
107036
107038
107038
107039
107039
107039
107039
107039
107039
107038
107038
107035
107027
107017
107014
107013
107012
107012
107012
107011
107011
107007
107007
107007
107007
107007
107008
107008
107011
107020
107028
107030
107031
107032
107032
107032
107032
107032
107032
107031
107030
107028
107019
107011
107009
107008
107008
107007
107007
107007
107007
107003
107003
107003
107002
107003
107003
107003
107005
107012
107021
107023
107024
107024
107025
107025
107025
107025
107025
107024
107023
107021
107012
107006
107004
107003
107003
107003
107003
107003
107003
106998
106998
106998
106998
106998
106998
106999
107000
107006
107014
107016
107017
107017
107018
107018
107018
107018
107017
107017
107016
107014
107006
107001
106999
106999
106999
106998
106998
106999
106999
106993
106993
106993
106993
106993
106994
106994
106995
107000
107007
107009
107010
107010
107010
107010
107010
107010
107010
107010
107009
107007
107000
106996
106995
106994
106994
106994
106994
106994
106994
106988
106988
106988
106988
106989
106989
106989
106990
106994
106999
107002
107002
107002
107003
107003
107003
107003
107002
107002
107001
106999
106994
106991
106990
106989
106989
106989
106989
106989
106989
106983
106983
106983
106983
106984
106984
106984
106985
106988
106992
106994
106994
106995
106995
106995
106995
106995
106995
106994
106994
106992
106988
106985
106985
106985
106984
106984
106984
106984
106984
106978
106978
106978
106978
106978
106979
106979
106979
106981
106984
106986
106986
106987
106987
106987
106987
106987
106987
106986
106986
106984
106982
106980
106979
106979
106979
106979
106979
106979
106979
106972
106973
106973
106973
106973
106973
106973
106973
106974
106976
106978
106978
106979
106979
106979
106979
106979
106979
106978
106978
106977
106975
106974
106973
106974
106974
106974
106974
106973
106973
106966
106967
106967
106967
106967
106967
106966
106966
106967
106968
106970
106971
106971
106971
106971
106971
106971
106971
106971
106970
106969
106967
106967
106967
106967
106968
106968
106968
106968
106967
106960
106961
106961
106960
106960
106959
106959
106959
106959
106960
106961
106962
106963
106963
106963
106963
106963
106963
106963
106961
106960
106959
106960
106960
106960
106961
106961
106961
106962
106961
106954
106954
106953
106953
106952
106952
106951
106950
106949
106950
106951
106953
106954
106954
106955
106955
106955
106954
106953
106952
106950
106950
106951
106952
106953
106953
106954
106954
106955
106955
106946
106946
106945
106944
106944
106943
106942
106940
106938
106938
106940
106942
106943
106944
106944
106944
106944
106943
106942
106940
106938
106938
106940
106942
106944
106945
106945
106946
106947
106947
106937
106937
106936
106935
106934
106933
106930
106926
106924
106923
106925
106927
106929
106931
106931
106931
106931
106929
106927
106925
106923
106924
106927
106930
106933
106935
106936
106937
106938
106938
106927
106926
106925
106924
106922
106919
106914
106909
106905
106903
106905
106907
106910
106912
106913
106913
106912
106910
106907
106904
106903
106905
106909
106914
106919
106923
106924
106925
106927
106928
106913
106912
106911
106909
106905
106900
106893
106885
106879
106877
106877
106879
106883
106886
106887
106887
106886
106883
106879
106877
106876
106879
106885
106892
106900
106906
106909
106911
106913
106914
106895
106894
106891
106887
106881
106873
106862
106851
106844
106840
106839
106840
106843
106845
106846
106846
106845
106843
106840
106839
106840
106843
106850
106861
106872
106881
106887
106892
106895
106896
106871
106868
106862
106855
106844
106831
106817
106806
106798
106793
106790
106789
106789
106789
106790
106789
106789
106788
106788
106789
106792
106797
106804
106816
106829
106843
106854
106862
106868
106871
106832
106827
106818
106806
106791
106775
106761
106750
106742
106737
106733
106730
106727
106726
106725
106725
106725
106726
106728
106731
106735
106741
106749
106759
106773
106789
106804
106817
106827
106832
106777
106771
106758
106743
106728
106712
106700
106690
106683
106676
106670
106665
106662
106659
106657
106657
106658
106660
106664
106668
106674
106680
106688
106697
106709
106725
106740
106756
106769
106776
106707
106700
106687
106674
106661
106648
106636
106628
106620
106612
106604
106598
106593
106589
106587
106587
106588
106591
106596
106602
106609
106617
106625
106633
106645
106657
106670
106684
106697
106704
106627
106621
106613
106602
106593
106583
106573
106565
106555
106544
106535
106527
106521
106517
106515
106515
106516
106520
106525
106533
106542
106552
106561
106570
106579
106589
106598
106609
106617
106623
106544
106541
106537
106530
106522
106515
106509
106499
106485
106472
106461
106452
106446
106442
106440
106439
106441
106445
106451
106459
106469
106482
106495
106505
106512
106518
106525
106533
106537
106539
106460
106461
106460
106456
106450
106447
106440
106425
106407
106393
106381
106373
106367
106363
106361
106361
106363
106367
106372
106380
106391
106404
106421
106437
106444
106447
106452
106456
106457
106456
106376
106380
106381
106381
106380
106373
106359
106339
106321
106308
106298
106290
106285
106282
106281
106281
106282
106285
106290
106297
106306
106319
106336
106355
106371
106378
106379
106378
106377
106373
106292
106297
106300
106303
106298
106283
106263
106244
106229
106218
106210
106205
106201
106199
106198
106198
106199
106202
106205
106211
106218
106228
106242
106259
106280
106296
106302
106299
106296
106290
106206
106211
106213
106211
106198
106179
106160
106143
106132
106125
106121
106117
106115
106114
106113
106113
106114
106116
106119
106122
106127
106133
106142
106156
106174
106193
106208
106212
106211
106206
106116
106118
106115
106104
106087
106068
106052
106040
106034
106031
106030
106029
106029
106028
106028
106028
106028
106030
106031
106033
106034
106036
106039
106048
106063
106081
106099
106111
106117
106116
106023
106019
106008
105992
105973
105955
105943
105938
105937
105938
105940
105941
105942
105941
105941
105941
105942
105942
105943
105944
105943
105941
105938
105939
105950
105967
105986
106002
106014
106019
105923
105913
105898
105879
105859
105845
105842
105846
105849
105852
105854
105855
105855
105854
105854
105853
105854
105854
105855
105856
105855
105851
105845
105840
105842
105853
105873
105891
105905
105914
105816
105805
105789
105767
105751
105747
105754
105762
105768
105771
105771
105771
105769
105767
105765
105765
105764
105765
105767
105769
105770
105768
105764
105759
105752
105752
105762
105780
105795
105804
105707
105698
105680
105663
105658
105664
105675
105683
105689
105691
105689
105685
105682
105678
105675
105674
105674
105674
105677
105681
105685
105689
105690
105687
105679
105670
105666
105672
105687
105695
105603
105594
105581
105578
105585
105592
105600
105606
105610
105610
105604
105598
105592
105587
105583
105581
105580
105581
105583
105588
105596
105606
105614
105614
105609
105600
105587
105579
105582
105591
105503
105498
105501
105510
105519
105525
105529
105530
105528
105523
105515
105507
105499
105494
105489
105486
105484
105484
105486
105490
105498
105510
105524
105534
105536
105527
105514
105503
105494
105493
105411
105417
105431
105446
105456
105459
105456
105449
105440
105431
105421
105412
105404
105397
105392
105388
105386
105385
105386
105388
105394
105403
105417
105432
105446
105449
105440
105428
105412
105406
105329
105339
105358
105374
105383
105382
105370
105357
105345
105335
105324
105314
105306
105299
105293
105289
105286
105284
105283
105283
105285
105291
105300
105314
105330
105345
105354
105347
105332
105324
105253
105264
105279
105284
105285
105280
105269
105257
105245
105234
105223
105213
105204
105197
105191
105187
105183
105181
105178
105176
105175
105175
105179
105190
105205
105223
105239
105250
105250
105240
105176
105184
105181
105176
105173
105170
105162
105152
105141
105130
105119
105109
105100
105094
105088
105083
105080
105077
105074
105070
105066
105061
105057
105061
105074
105094
105114
105131
105144
105145
105084
105079
105067
105058
105060
105058
105053
105044
105033
105022
105012
105002
104994
104987
104982
104978
104975
104972
104970
104966
104960
104951
104941
104934
104940
104960
104984
105005
105022
105032
104970
104959
104944
104943
104950
104950
104944
104935
104924
104912
104902
104893
104885
104879
104874
104871
104869
104867
104866
104864
104860
104851
104838
104825
104819
104829
104854
104879
104897
104909
104851
104838
104833
104841
104846
104843
104834
104823
104811
104800
104789
104781
104774
104768
104765
104762
104761
104761
104762
104763
104763
104760
104751
104739
104726
104721
104729
104753
104773
104784
104738
104735
104742
104749
104746
104736
104722
104709
104696
104685
104675
104667
104661
104656
104653
104651
104650
104652
104654
104658
104663
104669
104670
104664
104653
104639
104631
104635
104654
104665
104633
104639
104655
104656
104642
104624
104607
104592
104579
104568
104559
104551
104546
104542
104539
104538
104538
104540
104543
104549
104558
104569
104582
104588
104582
104568
104552
104540
104544
104554
104541
104549
104558
104549
104528
104507
104489
104474
104460
104449
104441
104434
104430
104427
104425
104424
104425
104427
104430
104436
104446
104460
104478
104498
104505
104497
104481
104467
104457
104456
104451
104458
104450
104431
104408
104387
104369
104353
104340
104329
104321
104316
104313
104312
104311
104311
104312
104313
104316
104321
104330
104344
104364
104387
104409
104418
104410
104398
104381
104373
104351
104349
104331
104308
104285
104265
104246
104230
104217
104207
104201
104199
104198
104199
104200
104200
104200
104200
104201
104204
104211
104224
104243
104266
104292
104315
104327
104320
104305
104297
104237
104226
104206
104184
104162
104141
104122
104106
104093
104084
104081
104082
104086
104089
104092
104093
104092
104090
104087
104087
104091
104101
104118
104141
104167
104194
104217
104228
104226
104216
104112
104099
104080
104059
104038
104017
103997
103979
103967
103961
103962
103968
103976
103983
103988
103989
103988
103983
103977
103971
103970
103977
103992
104014
104040
104067
104093
104115
104128
104125
103984
103973
103956
103936
103914
103892
103870
103852
103842
103841
103847
103859
103871
103881
103888
103890
103888
103882
103872
103861
103852
103854
103865
103886
103912
103941
103968
103993
104012
104020
103860
103851
103835
103816
103793
103768
103746
103731
103728
103733
103742
103758
103773
103785
103793
103795
103793
103786
103775
103760
103748
103744
103746
103761
103786
103815
103844
103870
103891
103904
103743
103735
103719
103699
103674
103650
103633
103630
103636
103645
103656
103669
103684
103695
103702
103705
103704
103698
103688
103675
103664
103655
103648
103648
103664
103692
103723
103749
103770
103783
103633
103625
103609
103587
103562
103545
103543
103551
103562
103573
103582
103591
103602
103609
103614
103617
103617
103615
103609
103600
103594
103584
103571
103560
103560
103577
103605
103633
103653
103664
103530
103522
103505
103484
103467
103465
103473
103485
103495
103505
103514
103519
103523
103526
103528
103530
103532
103534
103534
103532
103528
103518
103505
103492
103482
103481
103497
103523
103544
103554
103434
103425
103412
103399
103396
103402
103411
103420
103429
103438
103445
103447
103445
103443
103442
103443
103446
103451
103458
103462
103461
103453
103442
103431
103421
103412
103411
103425
103442
103452
103345
103340
103337
103336
103341
103346
103352
103357
103364
103370
103373
103370
103362
103355
103352
103352
103355
103362
103373
103385
103390
103387
103380
103372
103364
103356
103347
103347
103352
103359
103265
103268
103276
103287
103290
103292
103294
103297
103300
103301
103295
103283
103271
103262
103256
103255
103258
103265
103278
103294
103308
103317
103319
103316
103310
103302
103295
103287
103278
103276
103190
103198
103215
103234
103241
103238
103237
103237
103234
103223
103205
103187
103172
103162
103156
103154
103156
103163
103174
103191
103211
103233
103250
103255
103254
103249
103242
103228
103208
103200
103117
103125
103145
103165
103176
103177
103175
103171
103154
103128
103104
103084
103068
103057
103051
103048
103049
103055
103065
103081
103102
103128
103155
103178
103187
103182
103173
103156
103136
103127
103044
103052
103066
103077
103088
103101
103098
103079
103050
103020
102995
102975
102960
102950
102943
102940
102940
102944
102952
102966
102986
103011
103039
103068
103089
103095
103088
103074
103063
103053
102968
102977
102982
102986
102997
103004
102991
102963
102933
102905
102881
102863
102851
102842
102837
102833
102832
102833
102838
102849
102866
102890
102917
102945
102971
102987
102992
102989
102985
102976
102888
102892
102893
102897
102902
102892
102869
102841
102812
102785
102766
102753
102746
102741
102737
102733
102730
102728
102728
102734
102746
102767
102793
102822
102849
102871
102886
102893
102895
102892
102799
102801
102801
102802
102793
102773
102746
102717
102689
102668
102655
102650
102649
102649
102648
102644
102639
102633
102629
102628
102633
102647
102670
102699
102728
102754
102776
102791
102799
102801
102710
102709
102705
102696
102678
102654
102625
102595
102571
102559
102557
102559
102563
102566
102567
102564
102559
102551
102544
102538
102535
102539
102554
102580
102610
102639
102664
102685
102699
102706
102620
102614
102603
102587
102565
102537
102506
102482
102470
102470
102474
102480
102486
102490
102492
102490
102485
102478
102470
102463
102457
102452
102454
102469
102497
102528
102555
102579
102597
102608
102526
102516
102501
102481
102455
102424
102399
102388
102391
102397
102403
102408
102414
102418
102420
102419
102415
102409
102402
102397
102390
102383
102375
102375
102391
102419
102450
102475
102494
102506
102429
102418
102401
102378
102349
102323
102313
102317
102325
102332
102337
102341
102345
102349
102350
102350
102347
102342
102337
102333
102327
102320
102311
102302
102302
102319
102349
102376
102394
102405
102333
102323
102306
102281
102254
102243
102247
102255
102263
102269
102273
102276
102279
102282
102283
102282
102281
102278
102274
102270
102266
102260
102252
102243
102235
102237
102257
102283
102301
102311
102243
102234
102217
102194
102182
102183
102191
102198
102204
102208
102210
102213
102215
102216
102216
102216
102216
102215
102212
102210
102206
102202
102196
102189
102182
102177
102181
102198
102215
102224
102159
102151
102137
102126
102126
102131
102137
102141
102145
102148
102149
102151
102151
102151
102151
102151
102152
102153
102152
102150
102148
102145
102142
102137
102132
102128
102123
102128
102137
102145
102082
102076
102073
102073
102077
102080
102083
102084
102086
102088
102089
102090
102088
102087
102086
102086
102088
102091
102093
102092
102090
102088
102087
102086
102084
102082
102077
102072
102070
102074
102011
102012
102019
102030
102032
102030
102029
102028
102028
102029
102031
102029
102025
102021
102019
102020
102023
102028
102033
102035
102033
102032
102033
102035
102038
102041
102037
102022
102014
102011
101947
101950
101963
101984
101988
101980
101974
101971
101971
101972
101971
101965
101958
101953
101950
101951
101954
101960
101969
101976
101977
101977
101977
101981
101989
101997
101992
101974
101960
101954
101889
101895
101907
101920
101927
101922
101916
101914
101914
101913
101906
101895
101886
101880
101877
101877
101881
101888
101898
101910
101918
101921
101921
101923
101931
101933
101927
101920
101908
101899
101830
101837
101843
101844
101849
101855
101855
101856
101854
101846
101832
101819
101808
101802
101798
101798
101802
101809
101820
101835
101850
101860
101863
101862
101863
101856
101852
101853
101849
101842
101764
101768
101769
101768
101777
101787
101792
101793
101785
101768
101751
101737
101726
101719
101715
101715
101719
101727
101738
101752
101769
101787
101798
101799
101793
101783
101775
101776
101777
101775
101690
101692
101691
101697
101710
101720
101727
101720
101702
101683
101666
101652
101642
101635
101631
101631
101635
101641
101652
101666
101683
101702
101721
101730
101724
101715
101702
101696
101698
101698
101609
101610
101617
101630
101644
101653
101651
101635
101615
101596
101580
101568
101559
101554
101551
101551
101554
101559
101567
101579
101594
101613
101632
101649
101653
101646
101632
101620
101615
101618
101534
101537
101550
101564
101576
101577
101564
101546
101526
101509
101497
101490
101485
101482
101481
101481
101483
101485
101490
101497
101507
101523
101542
101560
101573
101575
101565
101552
101540
101538
101475
101481
101491
101501
101502
101492
101476
101457
101440
101428
101422
101420
101419
101418
101417
101417
101418
101419
101421
101423
101428
101438
101454
101471
101487
101498
101499
101490
101479
101473
101424
101428
101433
101433
101422
101407
101390
101374
101362
101356
101355
101355
101355
101355
101355
101355
101355
101355
101356
101355
101356
101361
101372
101386
101402
101416
101427
101429
101425
101419
101371
101373
101369
101356
101340
101324
101309
101299
101293
101292
101291
101292
101292
101293
101293
101293
101293
101293
101292
101292
101293
101294
101298
101307
101319
101334
101349
101362
101367
101365
101311
101307
101292
101275
101258
101245
101237
101233
101232
101232
101231
101230
101231
101232
101232
101232
101232
101232
101231
101232
101233
101232
101233
101236
101242
101253
101268
101284
101298
101303
101237
101226
101210
101193
101179
101174
101172
101172
101173
101173
101173
101171
101171
101171
101171
101171
101172
101172
101172
101174
101174
101174
101173
101172
101172
101175
101186
101202
101217
101227
101149
101139
101125
101113
101110
101111
101114
101115
101116
101116
101116
101113
101111
101111
101111
101111
101112
101112
101115
101117
101117
101117
101116
101113
101109
101106
101107
101118
101131
101140
101060
101053
101045
101044
101048
101054
101059
101062
101062
101061
101059
101056
101052
101051
101050
101050
101051
101053
101057
101060
101062
101062
101061
101057
101051
101044
101039
101038
101045
101052
100976
100971
100974
100982
100991
100998
101003
101006
101006
101005
101002
100998
100993
100990
100989
100989
100990
100993
100998
101002
101004
101005
101003
101000
100994
100986
100976
100967
100963
100968
100899
100901
100911
100922
100932
100938
100941
100943
100944
100943
100940
100937
100931
100928
100926
100926
100927
100931
100936
100938
100940
100939
100937
100934
100931
100926
100916
100904
100894
100892
100833
100840
100852
100861
100864
100866
100867
100869
100872
100873
100873
100872
100868
100864
100862
100862
100863
100867
100870
100870
100869
100866
100862
100859
100857
100856
100853
100844
100832
100825
100769
100778
100784
100785
100785
100786
100788
100792
100796
100799
100802
100803
100802
100798
100796
100796
100797
100800
100800
100798
100794
100790
100785
100780
100777
100776
100776
100775
100770
100761
100701
100704
100704
100703
100703
100705
100709
100714
100718
100723
100728
100731
100732
100729
100728
100727
100728
100730
100727
100723
100718
100712
100707
100701
100697
100694
100694
100695
100695
100692
100621
100621
100620
100619
100621
100625
100630
100636
100641
100646
100651
100655
100658
100657
100656
100655
100656
100655
100652
100647
100641
100635
100629
100624
100618
100613
100611
100611
100611
100611
100535
100534
100533
100536
100542
100548
100553
100559
100564
100569
100574
100578
100581
100582
100581
100580
100580
100579
100575
100569
100564
100559
100553
100548
100542
100535
100529
100524
100524
100524
100442
100442
100448
100456
100465
100472
100478
100483
100487
100491
100495
100499
100502
100503
100503
100503
100502
100500
100496
100491
100487
100482
100478
100473
100467
100459
100451
100441
100432
100430
100340
100353
100367
100380
100390
100398
100404
100408
100411
100413
100415
100418
100421
100422
100423
100422
100421
100419
100415
100412
100410
100407
100404
100399
100394
100386
100376
100362
100345
100333
100264
100278
100295
100309
100319
100325
100331
100334
100336
100336
100336
100336
100338
100340
100340
100340
100339
100336
100334
100333
100333
100332
100331
100327
100322
100315
100305
100292
100275
100261
100221
100224
100235
100243
100250
100255
100260
100262
100262
100259
100256
100255
100255
100256
100256
100256
100255
100254
100253
100254
100256
100259
100259
100257
100252
100247
100240
100232
100223
100220
100192
100187
100184
100184
100186
100187
100191
100192
100188
100182
100177
100174
100173
100173
100173
100172
100172
100172
100173
100176
100181
100187
100190
100189
100185
100184
100183
100183
100187
100192
100163
100155
100142
100132
100127
100125
100126
100123
100116
100108
100102
100097
100095
100093
100092
100092
100093
100094
100097
100101
100107
100115
100122
100124
100123
100126
100132
100142
100155
100163
100123
100112
100098
100083
100073
100065
100057
100050
100044
100040
100036
100033
100030
100027
100026
100026
100028
100030
100033
100036
100040
100044
100050
100057
100064
100072
100083
100098
100112
100123
100061
100050
100043
100033
100025
100019
100014
100011
100010
100009
100008
100007
100006
100006
100005
100005
100006
100006
100007
100008
100009
100010
100011
100014
100019
100025
100033
100043
100049
100060
100014
100011
100009
100007
100005
100004
100003
100002
100002
100002
100002
100002
100002
100002
100002
100002
100002
100002
100002
100002
100002
100002
100002
100003
100004
100005
100007
100009
100011
100014
100003
100002
100002
100002
100002
100002
100002
100002
100002
100002
100002
100002
100002
100002
100002
100002
100002
100002
100002
100002
100002
100002
100002
100002
100002
100002
100002
100002
100002
100003
100002
100002
100002
100002
100002
100002
100002
100002
100002
100002
100002
100002
100002
100002
100002
100002
100002
100002
100002
100002
100002
100002
100002
100002
100002
100002
100002
100002
100002
100002
100002
100002
100002
100002
100002
100002
100002
100002
100002
100002
100002
100002
100002
100002
100002
100002
100002
100002
100002
100002
100002
100002
100002
100002
100002
100002
100002
100002
100002
100002
100002
100002
100002
100002
100002
100002
100002
100002
100002
100002
100002
100002
100002
100002
100002
100002
100002
100002
100002
100002
100002
100002
100002
100002
100002
100002
100002
100002
100002
100002
100002
100002
100002
100002
100002
100002
100002
100002
100002
100002
100002
100002
100002
100002
100002
100002
100002
100002
100002
100002
100002
100002
100002
100002
100002
100002
100002
100002
100002
100002
100002
100002
100002
100002
100002
100002
100002
100002
100002
100002
100002
100002
100002
100002
100002
100002
100002
100002
100002
100002
100002
100002
100002
100002
100002
100002
100002
100002
100002
100002
100002
100002
100002
100002
100002
100002
100002
100002
100002
100002
100002
100002
100002
100002
100002
100002
100002
100002
100002
100002
100002
100002
100002
100002
100002
100002
100002
100002
100002
100002
100002
100002
100002
100002
100002
100002
100002
100002
100002
100002
100002
100002
100002
100002
100002
100002
100002
100002
100002
100002
100002
100002
100002
100002
100002
100002
100002
100002
100002
100002
100002
100002
100002
100002
100002
100002
100002
100002
100002
100002
100002
100002
100002
100002
100002
100002
100002
100002
100002
100002
100002
100002
100002
100002
100002
100002
100002
100002
100002
100002
100002
100002
100002
100002
100002
100002
100002
100002
100002
100002
100002
100002
100002
100002
100002
100002
100002
100002
100002
100002
100002
100002
100002
100002
100002
100002
100002
100002
100002
100002
100002
100002
100002
100002
100002
100002
100002
100002
100002
100002
100002
100002
100002
100002
100002
100002
100002
100002
100002
100002
100002
100002
100002
100002
100002
100002
100002
100002
100002
100002
100002
100002
100002
100002
100002
100002
100002
100002
100002
100002
100002
100002
100002
100002
100002
100002
100002
100002
100002
100002
100002
100002
100002
100002
100002
100002
100002
100002
100002
100002
100002
100002
100002
100002
100002
100002
100002
100002
100002
100002
100002
100002
100002
100002
100002
100002
100002
100002
100002
100002
100002
100002
100002
100002
100002
100002
100002
100002
100002
100002
100002
100002
100002
100002
100002
100002
100002
100002
100002
100002
100002
100002
100002
100002
100002
100002
100002
100002
100002
100002
100002
100002
100002
100002
100002
100002
100002
100002
100002
100002
100002
100002
100002
100002
100002
100002
100002
100002
100002
100002
100002
100002
100002
100002
100002
100002
100002
100002
100002
100002
100002
100002
100002
100002
100002
100002
100002
100002
100002
100002
100002
100002
100002
100002
100002
100002
100002
100002
100002
100002
100002
100002
100002
100002
100002
100002
100002
100002
100002
100002
100002
100002
100002
100002
100002
100002
100002
100002
100002
100002
100002
100002
100002
100002
100002
100002
100002
100002
100002
100002
100002
100002
100002
100002
100002
100002
100002
100002
100002
100002
100002
100002
100002