/*--------------------------------*- C++ -*----------------------------------*\
| =========                 |                                                 |
| \\      /  F ield         | OpenFOAM: The Open Source CFD Toolbox           |
|  \\    /   O peration     | Version:  v1606+                                |
|   \\  /    A nd           | Web:      www.OpenFOAM.com                      |
|    \\/     M anipulation  |                                                 |
\*---------------------------------------------------------------------------*/
FoamFile
{
    version     2.0;
    format      ascii;
    class       volScalarField;
    location    "0.39";
    object      p_rgh;
}
// * * * * * * * * * * * * * * * * * * * * * * * * * * * * * * * * * * * * * //

dimensions      [1 -1 -2 0 0 0 0];

internalField   nonuniform List<scalar> 
6000
(
107819
107821
107823
107824
107823
107822
107820
107819
107818
107817
107817
107816
107816
107816
107816
107816
107816
107816
107817
107817
107818
107819
107821
107823
107824
107826
107827
107827
107825
107822
107799
107797
107795
107794
107792
107789
107787
107786
107784
107782
107781
107781
107780
107779
107779
107779
107780
107781
107781
107782
107783
107785
107787
107790
107792
107795
107797
107799
107801
107803
107810
107813
107813
107810
107804
107797
107791
107788
107785
107784
107784
107783
107782
107781
107780
107780
107781
107783
107784
107785
107785
107786
107789
107793
107800
107807
107814
107817
107817
107814
107805
107802
107792
107778
107764
107751
107741
107737
107734
107734
107735
107734
107731
107728
107726
107726
107728
107731
107734
107736
107734
107734
107737
107742
107753
107766
107782
107797
107807
107810
107794
107781
107757
107723
107695
107675
107667
107665
107661
107660
107660
107656
107652
107648
107645
107645
107648
107652
107657
107660
107660
107662
107665
107667
107676
107696
107725
107761
107787
107800
107781
107756
107672
107631
107619
107620
107622
107622
107618
107607
107599
107595
107592
107589
107587
107588
107590
107592
107595
107599
107608
107618
107623
107623
107621
107620
107632
107675
107761
107788
107779
107678
107589
107584
107602
107627
107642
107647
107637
107614
107597
107595
107595
107594
107594
107594
107594
107595
107596
107597
107615
107638
107648
107643
107628
107603
107584
107591
107687
107786
107779
107604
107579
107586
107626
107674
107704
107715
107701
107663
107618
107610
107609
107608
107608
107608
107608
107609
107610
107619
107666
107702
107716
107704
107674
107626
107587
107580
107611
107794
107685
107586
107582
107605
107674
107741
107778
107793
107792
107764
107676
107624
107623
107622
107622
107622
107622
107623
107624
107681
107769
107793
107792
107776
107739
107671
107603
107582
107590
107719
107605
107578
107584
107643
107732
107796
107832
107852
107869
107884
107796
107661
107637
107636
107636
107636
107636
107637
107662
107805
107888
107870
107850
107828
107792
107727
107638
107584
107578
107624
107578
107581
107592
107701
107799
107845
107880
107904
107941
107988
107946
107749
107668
107658
107657
107657
107658
107668
107755
107955
107989
107941
107901
107876
107840
107792
107692
107587
107581
107580
107582
107584
107605
107783
107889
107906
107944
107976
108023
108068
108064
107893
107748
107715
107711
107711
107714
107750
107902
108069
108068
108022
107974
107941
107903
107881
107768
107595
107584
107582
107585
107586
107628
107874
108000
107997
108030
108067
108097
108117
108123
108042
107892
107830
107824
107823
107829
107894
108049
108124
108118
108097
108065
108028
107996
107994
107852
107613
107587
107586
107611
107607
107689
107922
108073
108084
108109
108121
108129
108136
108131
108131
108057
108004
107997
107997
108004
108060
108134
108132
108136
108129
108120
108108
108083
108068
107903
107673
107605
107609
107695
107697
107798
107976
108100
108106
108127
108139
108139
108125
108136
108155
108167
108161
108160
108159
108162
108169
108156
108136
108126
108141
108139
108126
108105
108098
107962
107783
107691
107690
107774
107805
107900
107949
107820
107921
108126
108145
108040
107730
107858
107981
108045
108074
108092
108091
108072
108041
107976
107849
107746
108057
108146
108126
107903
107821
107943
107887
107797
107769
107676
107698
107727
107611
107358
107459
107720
107873
107666
107453
107419
107482
107560
107615
107647
107646
107611
107554
107476
107420
107468
107686
107883
107709
107446
107358
107616
107718
107691
107674
107390
107374
107328
107237
107211
107320
107550
107690
107609
107469
107332
107304
107304
107312
107318
107318
107312
107304
107305
107339
107490
107625
107690
107536
107309
107209
107240
107327
107371
107391
107166
107158
107152
107159
107197
107310
107537
107695
107698
107549
107368
107308
107299
107298
107298
107298
107299
107299
107311
107378
107571
107716
107688
107515
107298
107196
107160
107153
107158
107166
107116
107121
107135
107163
107205
107291
107504
107733
107797
107630
107414
107330
107312
107312
107314
107315
107313
107315
107334
107425
107647
107815
107725
107476
107281
107204
107164
107135
107121
107116
107118
107123
107143
107177
107214
107277
107458
107763
107900
107712
107459
107357
107335
107335
107339
107340
107337
107339
107362
107471
107732
107915
107750
107436
107271
107212
107178
107143
107122
107117
107119
107130
107157
107192
107220
107274
107427
107775
107995
107805
107508
107385
107361
107360
107365
107366
107362
107363
107390
107523
107830
108001
107755
107410
107270
107218
107193
107157
107128
107119
107123
107140
107172
107202
107225
107279
107412
107769
108063
107903
107564
107413
107386
107386
107391
107392
107388
107389
107419
107582
107928
108056
107747
107401
107275
107223
107201
107172
107138
107122
107136
107154
107185
107208
107230
107286
107412
107761
108106
107995
107623
107444
107412
107413
107419
107420
107415
107416
107451
107642
108015
108095
107740
107406
107284
107229
107207
107184
107152
107133
107154
107168
107195
107214
107239
107300
107424
107756
108146
108073
107676
107477
107441
107442
107449
107450
107445
107445
107484
107694
108091
108135
107739
107420
107300
107239
107213
107193
107165
107151
107173
107180
107204
107225
107256
107324
107448
107764
108186
108143
107722
107512
107474
107474
107481
107482
107477
107478
107520
107740
108156
108175
107753
107447
107325
107257
107224
107203
107177
107169
107190
107190
107214
107239
107280
107357
107486
107783
108226
108200
107777
107553
107510
107509
107515
107516
107511
107514
107560
107794
108207
108214
107777
107488
107359
107281
107239
107212
107188
107186
107205
107205
107226
107260
107311
107399
107537
107810
108266
108243
107842
107601
107551
107548
107554
107555
107551
107555
107609
107855
108247
108254
107815
107540
107402
107313
107260
107224
107203
107200
107217
107225
107246
107289
107353
107452
107601
107865
108273
108265
107905
107658
107600
107594
107598
107599
107596
107604
107665
107916
108271
108280
107867
107605
107456
107356
107290
107245
107224
107211
107227
107254
107277
107331
107409
107520
107680
107940
108288
108276
107966
107725
107658
107649
107651
107651
107651
107663
107734
107978
108281
108287
107942
107685
107525
107413
107334
107279
107254
107222
107239
107292
107325
107390
107481
107604
107776
108028
108315
108293
108035
107811
107733
107717
107716
107717
107721
107740
107822
108047
108297
108313
108031
107783
107611
107487
107395
107329
107293
107234
107258
107342
107390
107467
107572
107708
107892
108129
108351
108326
108121
107922
107834
107809
107804
107806
107815
107843
107934
108133
108328
108348
108134
107902
107718
107581
107474
107395
107343
107255
107293
107405
107473
107565
107684
107836
108029
108246
108404
108383
108234
108063
107971
107936
107927
107930
107943
107981
108076
108244
108385
108402
108252
108042
107850
107696
107574
107479
107407
107293
107354
107489
107577
107686
107824
107995
108191
108382
108492
108479
108380
108242
108150
108107
108093
108096
108116
108162
108256
108389
108482
108494
108391
108207
108014
107840
107697
107584
107491
107357
107451
107603
107709
107837
107999
108187
108381
108542
108622
108616
108559
108462
108380
108331
108309
108312
108338
108391
108475
108570
108623
108628
108555
108401
108210
108020
107853
107718
107608
107456
107592
107761
107881
108031
108216
108420
108605
108732
108786
108789
108764
108712
108656
108614
108589
108590
108616
108664
108723
108775
108798
108795
108745
108625
108445
108241
108051
107893
107770
107600
107790
107973
108104
108272
108483
108702
108865
108946
108974
108979
108976
108962
108943
108927
108918
108919
108932
108952
108972
108986
108988
108983
108956
108880
108725
108510
108297
108121
107985
107800
108061
108237
108375
108560
108794
109008
109117
109148
109155
109155
109161
109167
109176
109185
109190
109192
109192
109188
109179
109171
109163
109161
109153
109125
109025
108820
108588
108398
108254
108074
108393
108536
108675
108863
109080
109231
109275
109277
109276
109272
109278
109288
109300
109311
109318
109320
109316
109308
109297
109287
109280
109282
109281
109280
109242
109102
108891
108701
108557
108408
108727
108837
108957
109094
109236
109283
109313
109318
109325
109324
109330
109339
109348
109354
109358
109359
109356
109351
109344
109336
109330
109329
109322
109318
109289
109249
109117
108981
108859
108741
108998
109091
109150
109196
109272
109273
109312
109324
109338
109346
109356
109364
109371
109374
109376
109376
109374
109371
109366
109358
109349
109341
109328
109317
109276
109279
109208
109168
109111
109008
109194
109251
109229
109236
109288
109247
109276
109314
109347
109365
109377
109383
109386
109388
109388
109388
109387
109386
109382
109376
109365
109348
109319
109285
109245
109291
109243
109245
109268
109202
109303
109303
109273
109219
109283
109237
109228
109310
109367
109390
109397
109398
109398
109397
109396
109395
109396
109396
109396
109394
109387
109366
109317
109229
109233
109286
109232
109281
109301
109313
109333
109293
109300
109206
109273
109232
109235
109346
109404
109413
109411
109407
109404
109401
109399
109398
109399
109402
109405
109408
109409
109400
109349
109239
109227
109269
109193
109293
109286
109337
109313
109292
109295
109193
109191
109233
109324
109414
109433
109425
109416
109408
109403
109399
109397
109397
109398
109401
109406
109412
109420
109428
109412
109330
109232
109180
109180
109283
109277
109317
109262
109296
109281
109180
109226
109335
109429
109450
109437
109421
109409
109401
109395
109392
109390
109390
109391
109394
109399
109406
109416
109431
109444
109430
109344
109229
109168
109269
109272
109267
109222
109291
109281
109250
109357
109442
109457
109438
109418
109401
109392
109386
109382
109380
109379
109379
109380
109383
109386
109391
109399
109412
109431
109449
109446
109375
109267
109271
109263
109211
109199
109300
109322
109382
109445
109444
109425
109407
109385
109373
109369
109367
109366
109366
109366
109366
109367
109368
109370
109371
109375
109382
109399
109415
109433
109449
109404
109335
109290
109190
109172
109334
109394
109433
109421
109402
109384
109353
109334
109333
109338
109344
109347
109349
109351
109352
109352
109352
109351
109348
109345
109340
109347
109372
109391
109409
109426
109409
109349
109184
109183
109379
109410
109395
109376
109354
109301
109254
109250
109273
109299
109317
109327
109333
109335
109337
109337
109336
109332
109324
109309
109285
109263
109272
109334
109363
109382
109398
109389
109223
109256
109384
109370
109351
109322
109242
109142
109133
109151
109198
109258
109293
109309
109316
109320
109321
109321
109320
109316
109304
109275
109219
109149
109068
109184
109291
109337
109355
109369
109290
109309
109345
109329
109304
109187
109040
108997
109105
109120
109144
109234
109278
109294
109301
109304
109305
109305
109305
109302
109292
109261
109173
109046
108966
108960
109077
109266
109313
109328
109313
109311
109307
109289
109155
108925
108888
108972
109080
109128
109148
109230
109270
109283
109286
109287
109288
109288
109289
109290
109287
109268
109188
109044
108970
108870
108862
109011
109255
109288
109296
109281
109271
109153
108848
108755
108793
108951
109078
109158
109180
109237
109265
109271
109270
109269
109268
109269
109270
109274
109279
109279
109245
109133
109012
108883
108871
108838
108999
109233
109261
109249
109128
108856
108726
108736
108775
108967
109116
109194
109209
109242
109255
109255
109252
109249
109247
109246
109247
109251
109259
109270
109273
109243
109167
108998
108892
108826
108851
108955
109216
109153
108817
108839
108786
108812
108849
109057
109181
109215
109221
109236
109240
109236
109230
109226
109223
109220
109220
109222
109227
109239
109253
109267
109258
109197
109095
108869
108868
108821
109063
108960
108799
108846
108950
109039
109063
109160
109209
109214
109215
109221
109219
109212
109206
109200
109196
109192
109189
109188
109189
109195
109208
109225
109239
109253
109230
109115
108972
108802
108911
108775
108786
109021
109136
109157
109163
109190
109201
109199
109200
109200
109194
109186
109178
109172
109166
109161
109156
109151
109146
109143
109147
109163
109184
109199
109217
109221
109147
108962
108867
108794
109019
109157
109152
109150
109160
109173
109178
109178
109178
109174
109166
109157
109148
109141
109135
109129
109122
109114
109102
109086
109071
109069
109107
109138
109158
109177
109194
109127
108928
108953
109123
109111
109080
109096
109127
109146
109154
109155
109152
109145
109134
109124
109116
109109
109103
109097
109090
109080
109063
109031
108985
108928
108945
109035
109094
109118
109139
109153
109012
109065
109071
109033
108915
109040
109100
109126
109132
109130
109122
109111
109099
109089
109081
109074
109069
109065
109061
109053
109037
109001
108915
108779
108671
108755
108964
109056
109082
109100
109065
109013
108989
108723
108758
109014
109091
109111
109108
109099
109086
109072
109060
109050
109042
109037
109034
109033
109033
109032
109025
108999
108918
108739
108508
108378
108560
108919
109025
109046
109053
108967
108605
108611
108759
109036
109093
109090
109075
109059
109043
109028
109015
109006
108999
108995
108994
108996
109000
109006
109012
109009
108971
108802
108543
108353
108339
108454
108913
108995
109007
108824
108571
108690
108897
109067
109079
109056
109032
109012
108995
108980
108967
108958
108951
108948
108948
108951
108957
108968
108982
108997
109000
108939
108700
108429
108327
108312
108505
108882
108965
108629
108542
108848
109018
109062
109040
109009
108983
108962
108943
108927
108914
108904
108899
108896
108897
108900
108908
108920
108936
108958
108983
108990
108918
108688
108400
108300
108286
108464
108878
108597
108715
108969
109031
109017
108988
108957
108930
108907
108887
108869
108855
108845
108840
108838
108839
108843
108851
108863
108882
108907
108937
108964
108978
108916
108699
108388
108347
108330
108669
108645
108900
108993
108988
108965
108931
108901
108874
108848
108824
108804
108789
108781
108779
108779
108780
108782
108788
108798
108816
108844
108879
108914
108940
108960
108909
108713
108509
108314
108495
108740
108931
108956
108934
108907
108873
108843
108813
108781
108752
108729
108717
108715
108719
108722
108724
108723
108723
108725
108739
108768
108807
108849
108885
108911
108934
108893
108747
108493
108458
108806
108901
108901
108880
108848
108816
108782
108743
108699
108660
108636
108637
108650
108665
108675
108677
108673
108661
108648
108646
108667
108715
108770
108819
108854
108882
108903
108868
108724
108493
108805
108854
108847
108824
108792
108757
108710
108646
108574
108523
108507
108545
108587
108620
108639
108645
108634
108608
108567
108530
108512
108576
108659
108736
108792
108825
108853
108872
108821
108578
108778
108806
108797
108772
108738
108687
108599
108463
108343
108300
108312
108436
108527
108585
108614
108621
108609
108568
108487
108387
108261
108334
108453
108609
108711
108770
108799
108825
108823
108692
108749
108762
108751
108725
108673
108570
108360
108119
108042
108059
108122
108325
108482
108562
108595
108605
108593
108548
108430
108247
108026
108059
108111
108340
108574
108697
108748
108774
108793
108741
108724
108726
108711
108670
108557
108302
107940
107865
107920
108024
108038
108247
108466
108549
108584
108595
108588
108545
108421
108151
108004
107991
107892
107921
108240
108558
108697
108729
108748
108735
108701
108694
108671
108558
108245
107886
107744
107857
107944
108028
108063
108246
108469
108547
108576
108587
108586
108558
108443
108155
108051
108008
107886
107705
107751
108160
108564
108689
108710
108715
108676
108666
108568
108239
107708
107656
107740
107865
107948
108052
108142
108312
108502
108554
108571
108579
108585
108577
108509
108254
108160
108060
107877
107701
107570
107585
108172
108577
108677
108688
108656
108557
108306
107718
107533
107583
107744
107842
107947
108099
108278
108447
108543
108562
108566
108571
108579
108587
108570
108456
108328
108127
107894
107695
107569
107561
107616
108243
108580
108664
108563
108224
108127
107729
107538
107563
107734
107810
107983
108238
108455
108543
108565
108561
108556
108556
108564
108579
108592
108574
108508
108325
107991
107748
107610
107563
107556
107956
108301
108578
108403
108118
108139
108019
107768
107594
107742
107864
108181
108462
108559
108570
108557
108541
108531
108529
108534
108549
108572
108592
108591
108535
108328
107971
107733
107736
107770
108109
108032
108400
108271
108108
108240
108371
108142
107717
107860
108187
108477
108574
108575
108549
108522
108502
108490
108486
108490
108504
108528
108557
108584
108601
108562
108398
108171
107984
108037
108239
108022
108187
108106
108099
108356
108350
108067
108030
108268
108510
108585
108566
108538
108502
108469
108445
108429
108423
108426
108439
108464
108499
108537
108569
108597
108578
108479
108324
108235
108228
108038
108028
108045
108237
108377
108193
108089
108372
108535
108579
108549
108520
108478
108429
108388
108358
108339
108329
108331
108344
108373
108415
108467
108514
108546
108574
108567
108496
108382
108308
108199
108014
108079
108345
108356
108188
108336
108533
108555
108527
108497
108452
108382
108318
108272
108240
108219
108207
108203
108210
108237
108286
108357
108430
108489
108521
108548
108542
108482
108399
108311
108033
108056
108354
108348
108342
108502
108528
108503
108473
108420
108323
108225
108164
108134
108120
108111
108097
108075
108054
108048
108081
108166
108289
108398
108467
108498
108524
108517
108470
108373
108047
108040
108373
108414
108475
108504
108480
108450
108388
108247
108078
107995
107994
108024
108052
108067
108050
108002
107934
107863
107833
107866
108012
108232
108377
108450
108479
108504
108500
108429
108109
108091
108414
108470
108482
108461
108432
108367
108173
107896
107764
107782
107865
107962
108042
108068
108051
107993
107873
107762
107668
107630
107651
107890
108205
108371
108437
108465
108488
108461
108233
108217
108444
108466
108446
108420
108359
108126
107747
107547
107583
107677
107803
107945
108043
108081
108067
107998
107860
107724
107635
107553
107470
107491
107833
108206
108381
108430
108455
108460
108336
108327
108446
108437
108414
108364
108117
107639
107378
107439
107565
107663
107773
107946
108052
108094
108083
108014
107862
107701
107621
107556
107438
107309
107361
107787
108228
108398
108426
108444
108381
108376
108428
108412
108383
108130
107560
107227
107292
107448
107576
107654
107761
107954
108063
108102
108095
108034
107877
107688
107595
107573
107458
107293
107116
107185
107756
108287
108402
108421
108401
108397
108409
108391
108211
107463
107049
107159
107328
107490
107591
107644
107764
107968
108072
108107
108104
108054
107904
107679
107590
107579
107497
107327
107115
106924
106988
107998
108343
108404
108412
108404
108395
108294
107760
107046
107051
107190
107394
107539
107606
107612
107784
107990
108083
108113
108112
108073
107945
107697
107576
107576
107534
107376
107140
106928
106924
107395
108126
108360
108403
108396
108327
108000
107160
107052
107054
107239
107429
107553
107589
107610
107839
108027
108099
108122
108123
108097
108006
107772
107570
107549
107538
107417
107197
106933
106932
107001
107800
108163
108364
108338
108047
107678
107229
107062
107070
107278
107428
107525
107545
107677
107944
108081
108125
108141
108142
108128
108079
107918
107645
107513
107503
107417
107256
106984
107105
107241
107384
107731
108216
108147
107672
107685
107811
107422
107155
107252
107387
107458
107599
107862
108075
108145
108166
108174
108176
108170
108152
108080
107860
107593
107457
107377
107253
107138
107628
107916
107497
107485
107997
107938
107679
107922
108143
107834
107328
107251
107336
107519
107818
108089
108185
108205
108211
108213
108214
108214
108212
108196
108106
107850
107553
107368
107253
107388
107956
108127
107973
107634
107763
108008
107999
108134
108134
107673
107361
107247
107422
107785
108112
108228
108243
108239
108234
108230
108230
108234
108241
108249
108241
108145
107856
107495
107254
107512
107768
108120
108135
108090
107905
108122
108126
108127
107905
107430
107341
107338
107750
108134
108261
108260
108246
108232
108221
108215
108214
108219
108230
108246
108261
108272
108180
107855
107434
107488
107524
107902
108125
108125
108123
108115
108116
108045
107473
107414
107354
107715
108147
108277
108260
108243
108215
108178
108150
108128
108126
108142
108169
108205
108242
108264
108283
108202
107860
107525
107525
107522
108055
108113
108114
108100
108089
107574
107427
107464
107696
108149
108277
108259
108239
108182
108104
108029
107971
107928
107925
107957
108009
108080
108160
108227
108263
108282
108213
107862
107597
107511
107570
108088
108099
107682
107550
107362
107420
107756
108146
108275
108257
108233
108145
108024
107915
107829
107776
107720
107723
107765
107811
107888
107993
108114
108214
108260
108278
108208
107889
107515
107491
107589
107955
106984
107133
107361
107691
108143
108271
108256
108230
108119
107958
107840
107780
107711
107678
107631
107638
107674
107705
107765
107823
107926
108083
108208
108258
108273
108199
107821
107489
107240
107199
106969
107131
107611
108116
108269
108255
108229
108104
107911
107707
107681
107721
107669
107632
107619
107618
107631
107667
107715
107687
107686
107881
108068
108206
108257
108271
108176
107755
107281
107045
107016
107496
108075
108272
108257
108232
108100
107902
107668
107446
107510
107660
107643
107604
107612
107608
107601
107642
107661
107532
107447
107660
107879
108067
108214
108258
108272
108143
107651
107103
107391
108034
108275
108260
108239
108099
107891
107734
107457
107423
107422
107555
107617
107587
107590
107593
107584
107622
107565
107433
107433
107474
107735
107874
108071
108226
108260
108276
108097
107485
107918
108254
108263
108245
108089
107848
107717
107559
107424
107424
107424
107452
107587
107580
107578
107580
107582
107599
107473
107435
107435
107435
107572
107730
107832
108065
108241
108263
108262
107970
108180
108261
108246
108068
107748
107615
107532
107440
107428
107428
107434
107438
107545
107578
107579
107583
107584
107560
107463
107456
107439
107439
107497
107577
107625
107718
108045
108246
108260
108191
108249
108242
108052
107569
107533
107539
107551
107499
107459
107457
107499
107447
107489
107571
107584
107584
107585
107516
107491
107542
107481
107503
107572
107607
107575
107550
107544
108029
108243
108250
108233
108087
107519
107525
107537
107643
107720
107708
107632
107602
107631
107499
107490
107552
107582
107584
107568
107517
107574
107684
107653
107713
107788
107789
107697
107558
107530
107522
108078
108233
108096
107538
107516
107568
107795
107947
107987
107957
107878
107810
107777
107617
107489
107533
107577
107582
107547
107527
107704
107820
107861
107934
107999
108028
107993
107846
107614
107519
107523
108085
107745
107541
107736
107972
108126
108146
108111
108069
108021
107958
107893
107761
107527
107533
107579
107583
107545
107582
107828
107923
107986
108036
108071
108110
108149
108146
108013
107777
107527
107739
107745
107908
108140
108218
108203
108142
108095
108065
108054
108027
107980
107882
107628
107551
107603
107601
107559
107690
107927
108001
108038
108051
108059
108086
108137
108194
108216
108155
107930
107740
108000
108207
108209
108209
108150
108088
108055
108044
108044
108050
108037
107964
107751
107602
107650
107640
107608
107804
107997
108049
108050
108037
108032
108039
108070
108132
108203
108204
108203
108023
108194
108194
108193
108162
108038
108013
108004
108011
108028
108053
108066
108015
107839
107676
107705
107691
107683
107878
108041
108072
108049
108016
107995
107985
107992
108009
108134
108188
108189
108188
108176
108175
108146
108010
107949
107960
107976
107985
108012
108053
108080
108044
107893
107750
107757
107743
107755
107924
108066
108082
108047
108000
107972
107964
107944
107930
107976
108116
108169
108169
108152
108151
107877
107902
107918
107954
107971
107971
108001
108051
108083
108060
107932
107813
107806
107794
107816
107957
108078
108083
108045
107990
107960
107962
107944
107910
107890
107852
108144
108143
107997
107892
107860
107874
107936
107964
107970
107955
107994
108048
108071
108062
107959
107862
107850
107840
107862
107978
108074
108071
108043
107982
107943
107962
107959
107932
107873
107836
107838
107815
106150
107579
107875
107899
107956
107962
107961
107948
107990
108044
108057
108049
107974
107897
107884
107877
107896
107985
108057
108059
108040
107979
107936
107953
107958
107952
107903
107885
107502
105853
104781
106285
107766
107922
107953
107953
107953
107945
107999
108038
108036
108020
107974
107921
107909
107905
107920
107980
108023
108036
108038
107988
107933
107945
107947
107950
107919
107729
106135
104724
104858
105220
106503
107537
107823
107814
107951
107961
108023
108026
107994
107969
107946
107921
107913
107911
107919
107949
107969
107992
108024
108016
107950
107944
107796
107799
107503
106409
105163
104843
105919
105791
106085
106652
107147
107317
107924
108024
108017
107986
107911
107886
107897
107896
107891
107891
107896
107897
107882
107904
107983
108011
108017
107902
107262
107092
106611
106055
105776
105921
107499
107060
106620
106565
106756
106864
107411
107772
107892
107756
107585
107463
107373
107274
107214
107216
107282
107385
107471
107583
107762
107908
107763
107359
106801
106706
106544
106619
107069
107500
107780
107157
106881
106308
106013
105543
104951
104646
104772
104878
104794
104397
103919
103608
103477
103478
103620
103951
104452
104848
104933
104814
104632
104917
105509
105978
106295
106884
107162
107781
106186
104838
104733
103957
103187
102351
101496
101055
100927
100977
100991
100812
100613
100514
100477
100477
100516
100623
100838
101024
101004
100940
101056
101500
102358
103182
103944
104722
104829
106185
101960
101284
101200
100914
100603
100351
100170
100092
100057
100052
100052
100039
100027
100022
100020
100020
100022
100027
100040
100054
100054
100058
100093
100173
100356
100606
100909
101190
101275
101956
100200
100113
100093
100067
100040
100022
100012
100008
100007
100006
100006
100006
100006
100006
100006
100006
100006
100006
100006
100006
100006
100007
100008
100012
100022
100040
100066
100091
100111
100199
100012
100008
100007
100007
100006
100006
100006
100006
100006
100006
100006
100006
100006
100006
100006
100006
100006
100006
100006
100006
100006
100006
100006
100006
100006
100006
100007
100007
100008
100012
100006
100006
100006
100006
100006
100006
100006
100006
100006
100006
100006
100006
100006
100006
100006
100006
100006
100006
100006
100006
100006
100006
100006
100006
100006
100006
100006
100006
100006
100006
100006
100006
100006
100006
100006
100006
100006
100006
100006
100006
100006
100006
100006
100006
100006
100006
100006
100006
100006
100006
100006
100006
100006
100006
100006
100006
100006
100006
100006
100006
100006
100006
100006
100006
100006
100006
100006
100006
100006
100006
100006
100006
100006
100006
100006
100006
100006
100006
100006
100006
100006
100006
100006
100006
100006
100006
100006
100006
100006
100006
100006
100006
100006
100006
100006
100006
100006
100006
100006
100006
100006
100006
100006
100006
100006
100006
100006
100006
100006
100006
100006
100006
100006
100006
100006
100006
100006
100006
100006
100006
100006
100006
100006
100006
100006
100006
100006
100006
100006
100006
100006
100006
100006
100006
100006
100006
100006
100006
100006
100006
100006
100006
100006
100006
100006
100006
100006
100006
100006
100006
100006
100006
100006
100006
100006
100006
100006
100006
100006
100006
100006
100006
100006
100006
100006
100006
100006
100006
100006
100006
100006
100006
100006
100006
100006
100006
100006
100006
100006
100006
100006
100006
100006
100006
100006
100006
100006
100006
100006
100006
100006
100006
100006
100006
100006
100006
100006
100006
100006
100006
100006
100006
100006
100006
100006
100006
100006
100006
100006
100006
100006
100006
100006
100006
100006
100006
100006
100006
100006
100006
100006
100006
100006
100006
100006
100006
100006
100006
100006
100006
100006
100006
100006
100006
100006
100006
100006
100006
100006
100006
100006
100006
100006
100006
100006
100006
100006
100006
100006
100006
100006
100006
100006
100006
100006
100006
100006
100006
100006
100006
100006
100006
100006
100006
100006
100006
100006
100006
100006
100006
100006
100006
100006
100006
100006
100006
100006
100006
100006
100006
100006
100006
100006
100006
100006
100006
100006
100006
100006
100006
100006
100006
100006
100006
100006
100006
100006
100006
100006
100006
100006
100006
100006
100006
100006
100006
100006
100006
100006
100006
100006
100006
100006
100006
100006
100006
100006
100006
100006
100006
100006
100006
100006
100006
100006
100006
100006
100006
100006
100006
100006
100006
100006
100006
100006
100006
100006
100006
100006
100006
100006
100006
100006
100006
100006
100006
100006
100006
100006
100006
100006
100006
100006
100006
100006
100006
100006
100006
100006
100006
100006
100006
100006
100006
100006
100006
100006
100006
100006
100006
100006
100006
100006
100006
100006
100006
100006
100006
100006
100006
100006
100006
100006
100006
100006
100006
100006
100006
100006
100006
100006
100006
100006
100006
100006
100006
100006
100006
100006
100006
100006
100006
100006
100006
100006
100006
100006
100006
100006
100006
100006
100006