/*--------------------------------*- C++ -*----------------------------------*\
| =========                 |                                                 |
| \\      /  F ield         | OpenFOAM: The Open Source CFD Toolbox           |
|  \\    /   O peration     | Version:  v1606+                                |
|   \\  /    A nd           | Web:      www.OpenFOAM.com                      |
|    \\/     M anipulation  |                                                 |
\*---------------------------------------------------------------------------*/
FoamFile
{
    version     2.0;
    format      ascii;
    class       volVectorField;
    location    "0.39";
    object      U;
}
// * * * * * * * * * * * * * * * * * * * * * * * * * * * * * * * * * * * * * //

dimensions      [0 1 -1 0 0 0 0];

internalField   nonuniform List<vector> 
6000
(
(-0.0166411 -0.00925663 0)
(-0.0132313 -0.0895845 0)
(-0.0051938 -0.0974854 0)
(0.00100075 -0.095178 0)
(0.00431274 -0.0871029 0)
(0.00609673 -0.074957 0)
(0.00813592 -0.0619263 0)
(0.0113151 -0.0593691 0)
(0.0148969 -0.065671 0)
(0.0160728 -0.0736171 0)
(0.0162039 -0.080403 0)
(0.0148052 -0.0822885 0)
(0.0118009 -0.0836258 0)
(0.0074818 -0.0848016 0)
(0.0022503 -0.0865898 0)
(-0.00335168 -0.0852675 0)
(-0.00876438 -0.0836839 0)
(-0.0131544 -0.0828569 0)
(-0.0158494 -0.0826759 0)
(-0.0172312 -0.0808014 0)
(-0.0170011 -0.0724621 0)
(-0.0163895 -0.063421 0)
(-0.0137079 -0.056651 0)
(-0.0106597 -0.0607916 0)
(-0.008773 -0.0757749 0)
(-0.00668116 -0.0864048 0)
(-0.00209386 -0.0947273 0)
(0.00436018 -0.0971858 0)
(0.0130615 -0.0879381 0)
(0.0172139 -0.00923966 0)
(0.0427574 0.63032 0)
(0.0498897 0.686314 0)
(0.0385536 0.697088 0)
(0.0227303 0.703781 0)
(0.0167708 0.701929 0)
(0.0124574 0.700092 0)
(0.0130675 0.691925 0)
(0.0152034 0.686811 0)
(0.0189076 0.694636 0)
(0.0192807 0.701369 0)
(0.020387 0.706426 0)
(0.0214469 0.709514 0)
(0.0197113 0.712806 0)
(0.0139322 0.71603 0)
(0.00457853 0.718113 0)
(-0.00624981 0.717936 0)
(-0.0149261 0.715469 0)
(-0.0200019 0.712059 0)
(-0.021579 0.709873 0)
(-0.0212204 0.706389 0)
(-0.0208466 0.701496 0)
(-0.0208814 0.695358 0)
(-0.0178309 0.687091 0)
(-0.0159228 0.691811 0)
(-0.0158059 0.7017 0)
(-0.0200904 0.699885 0)
(-0.0250428 0.700544 0)
(-0.0396883 0.697105 0)
(-0.0502029 0.684448 0)
(-0.0430295 0.630653 0)
(0.00336314 0.420119 0)
(0.0373773 0.43437 0)
(0.0477829 0.448629 0)
(0.0348653 0.456371 0)
(0.025186 0.45697 0)
(0.0181507 0.456795 0)
(0.0154321 0.455605 0)
(0.0121853 0.446204 0)
(0.0134376 0.44807 0)
(0.0126095 0.448854 0)
(0.0170631 0.446151 0)
(0.022604 0.453037 0)
(0.0225206 0.462689 0)
(0.0170423 0.471482 0)
(0.00643874 0.477899 0)
(-0.00646255 0.477349 0)
(-0.0165984 0.470744 0)
(-0.0218939 0.461486 0)
(-0.0218917 0.45297 0)
(-0.0159949 0.446669 0)
(-0.0120422 0.449445 0)
(-0.0134833 0.449151 0)
(-0.0131647 0.447247 0)
(-0.0173144 0.455342 0)
(-0.020013 0.457155 0)
(-0.026284 0.456111 0)
(-0.0370573 0.45519 0)
(-0.0502543 0.448105 0)
(-0.0385467 0.433617 0)
(-0.00383231 0.421031 0)
(0.0176193 0.437726 0)
(0.0613129 0.472732 0)
(0.0666451 0.529553 0)
(0.0430609 0.545617 0)
(0.0170094 0.519857 0)
(-0.00206465 0.482814 0)
(-0.00362079 0.468717 0)
(0.00867824 0.449276 0)
(0.0228547 0.455233 0)
(0.0247451 0.457198 0)
(0.0260729 0.447678 0)
(0.027664 0.454987 0)
(0.0245951 0.464224 0)
(0.0177642 0.473144 0)
(0.00696218 0.480623 0)
(-0.00574016 0.480095 0)
(-0.0160913 0.472463 0)
(-0.0228658 0.463991 0)
(-0.0259389 0.454879 0)
(-0.02432 0.448025 0)
(-0.0236393 0.459452 0)
(-0.0220845 0.458159 0)
(-0.00737808 0.452008 0)
(0.00483184 0.470156 0)
(0.00321614 0.482399 0)
(-0.0167012 0.517093 0)
(-0.0453402 0.544416 0)
(-0.0700415 0.526585 0)
(-0.0641887 0.469725 0)
(-0.0189569 0.436868 0)
(0.0272426 0.374244 0)
(0.0774473 0.429137 0)
(0.0510191 0.494473 0)
(-0.0286023 0.499336 0)
(-0.0834888 0.492378 0)
(-0.0978036 0.484035 0)
(-0.071005 0.467306 0)
(-0.017462 0.441268 0)
(0.0402202 0.462223 0)
(0.0720493 0.47146 0)
(0.0683273 0.459828 0)
(0.0511737 0.471629 0)
(0.0355745 0.489447 0)
(0.021571 0.507292 0)
(0.00772025 0.522849 0)
(-0.00648346 0.521514 0)
(-0.0204243 0.506005 0)
(-0.0344457 0.488849 0)
(-0.0501154 0.471316 0)
(-0.0677273 0.461728 0)
(-0.0714137 0.47412 0)
(-0.0382619 0.464475 0)
(0.0210164 0.442697 0)
(0.0751675 0.469351 0)
(0.101629 0.486695 0)
(0.0848843 0.494844 0)
(0.0269477 0.502168 0)
(-0.0540872 0.493403 0)
(-0.0797679 0.425076 0)
(-0.027954 0.370061 0)
(0.0415872 0.313784 0)
(0.0396025 0.398083 0)
(-0.0577601 0.607781 0)
(-0.22081 0.690264 0)
(-0.325328 0.648533 0)
(-0.320695 0.544479 0)
(-0.23404 0.467078 0)
(-0.112807 0.420608 0)
(0.0136807 0.447977 0)
(0.109927 0.520064 0)
(0.130517 0.578923 0)
(0.0994763 0.602775 0)
(0.0644585 0.61786 0)
(0.0350255 0.630896 0)
(0.0109491 0.64312 0)
(-0.0104397 0.642335 0)
(-0.0351817 0.629755 0)
(-0.0649124 0.616982 0)
(-0.100279 0.602198 0)
(-0.130733 0.57983 0)
(-0.107366 0.519268 0)
(-0.00857763 0.447824 0)
(0.118249 0.419906 0)
(0.23882 0.467533 0)
(0.324085 0.546717 0)
(0.326344 0.652529 0)
(0.21793 0.695466 0)
(0.0500733 0.604518 0)
(-0.0445962 0.393887 0)
(-0.0431543 0.31018 0)
(-0.011884 0.260429 0)
(-0.0710235 0.538111 0)
(-0.316237 0.919276 0)
(-0.496867 0.874346 0)
(-0.543499 0.656567 0)
(-0.464151 0.425129 0)
(-0.339982 0.292483 0)
(-0.201541 0.233086 0)
(-0.0652841 0.268405 0)
(0.0681527 0.391541 0)
(0.142153 0.526976 0)
(0.127511 0.571981 0)
(0.08704 0.585398 0)
(0.0486202 0.590389 0)
(0.0153899 0.592929 0)
(-0.0150464 0.592803 0)
(-0.0488163 0.590247 0)
(-0.0877162 0.585422 0)
(-0.128633 0.571669 0)
(-0.141021 0.525468 0)
(-0.0616657 0.387263 0)
(0.0742204 0.267898 0)
(0.208949 0.234172 0)
(0.345218 0.295489 0)
(0.465962 0.430168 0)
(0.54104 0.664054 0)
(0.488767 0.886416 0)
(0.298694 0.926504 0)
(0.0593601 0.519269 0)
(0.00401708 0.251436 0)
(-0.104735 0.291561 0)
(-0.284883 0.878528 0)
(-0.515288 1.03713 0)
(-0.579861 0.908465 0)
(-0.528963 0.576467 0)
(-0.410812 0.292714 0)
(-0.302966 0.153099 0)
(-0.205683 0.103253 0)
(-0.121749 0.136751 0)
(-0.00306996 0.251674 0)
(0.131027 0.470653 0)
(0.158709 0.587839 0)
(0.112199 0.618395 0)
(0.0643818 0.625997 0)
(0.0211615 0.627468 0)
(-0.0206637 0.627475 0)
(-0.064128 0.626051 0)
(-0.112227 0.618449 0)
(-0.159144 0.586982 0)
(-0.126197 0.464001 0)
(0.012361 0.243328 0)
(0.131389 0.136615 0)
(0.213827 0.106285 0)
(0.309551 0.158787 0)
(0.415593 0.30199 0)
(0.528785 0.590736 0)
(0.571403 0.924504 0)
(0.499777 1.04973 0)
(0.24998 0.856905 0)
(0.0901806 0.271341 0)
(-0.186703 0.546561 0)
(-0.440567 1.07168 0)
(-0.547483 1.11652 0)
(-0.546984 0.872529 0)
(-0.420779 0.449029 0)
(-0.30066 0.174195 0)
(-0.235844 0.0654301 0)
(-0.176614 0.0366777 0)
(-0.135191 0.0561111 0)
(-0.0583694 0.111427 0)
(0.0633292 0.354211 0)
(0.162797 0.617789 0)
(0.125278 0.669402 0)
(0.0705347 0.677111 0)
(0.0229433 0.676033 0)
(-0.0228131 0.676184 0)
(-0.070708 0.677524 0)
(-0.125997 0.66952 0)
(-0.162318 0.615308 0)
(-0.05577 0.339227 0)
(0.0642808 0.10262 0)
(0.142422 0.056793 0)
(0.183804 0.0405553 0)
(0.243165 0.0722111 0)
(0.308747 0.184752 0)
(0.427796 0.469486 0)
(0.548179 0.901229 0)
(0.541399 1.13714 0)
(0.419177 1.07238 0)
(0.172309 0.474932 0)
(-0.205383 0.93409 0)
(-0.436683 1.20777 0)
(-0.508587 1.17626 0)
(-0.448913 0.754339 0)
(-0.304944 0.329498 0)
(-0.226446 0.10883 0)
(-0.189948 0.0218902 0)
(-0.151313 0.00385554 0)
(-0.125462 0.0225253 0)
(-0.0744084 0.0386429 0)
(-0.0239129 0.198569 0)
(0.104946 0.579949 0)
(0.121655 0.721319 0)
(0.0690392 0.731082 0)
(0.0216573 0.725303 0)
(-0.0216388 0.725545 0)
(-0.0696942 0.731618 0)
(-0.123461 0.72084 0)
(-0.101691 0.572089 0)
(0.0293397 0.182256 0)
(0.0767178 0.0324787 0)
(0.129361 0.0208544 0)
(0.157364 0.00618235 0)
(0.197604 0.0273005 0)
(0.235611 0.118075 0)
(0.316721 0.349034 0)
(0.46231 0.790717 0)
(0.512278 1.19776 0)
(0.449583 1.21912 0)
(0.211238 0.850821 0)
(-0.12196 1.23736 0)
(-0.331172 1.30777 0)
(-0.416364 1.2168 0)
(-0.327018 0.612931 0)
(-0.22585 0.238451 0)
(-0.172213 0.0737452 0)
(-0.152589 -0.00811624 0)
(-0.120685 -0.0231577 0)
(-0.0923805 -0.0069201 0)
(-0.0625308 0.0253571 0)
(-0.0637655 0.127103 0)
(-0.00928329 0.479868 0)
(0.0671476 0.743344 0)
(0.0444224 0.783303 0)
(0.012913 0.775037 0)
(-0.0129965 0.775939 0)
(-0.0458678 0.785398 0)
(-0.0688585 0.742433 0)
(0.0138867 0.465077 0)
(0.0647946 0.114326 0)
(0.0647161 0.020234 0)
(0.0944165 -0.0100201 0)
(0.124757 -0.0225659 0)
(0.158631 -0.00406515 0)
(0.180911 0.0801172 0)
(0.238831 0.253874 0)
(0.345013 0.64932 0)
(0.427452 1.24561 0)
(0.35002 1.29931 0)
(0.144335 1.19677 0)
(-0.0334494 1.39393 0)
(-0.211016 1.42726 0)
(-0.300988 1.24467 0)
(-0.204591 0.489951 0)
(-0.169587 0.181343 0)
(-0.127837 0.052166 0)
(-0.113924 -0.034514 0)
(-0.0807431 -0.0543378 0)
(-0.0535084 -0.0268316 0)
(-0.0530498 0.033185 0)
(-0.0732264 0.134752 0)
(-0.0974798 0.407952 0)
(-0.0413461 0.714243 0)
(-0.0104274 0.802321 0)
(-0.00580291 0.792591 0)
(0.00447039 0.793994 0)
(0.00813124 0.805775 0)
(0.0417995 0.710103 0)
(0.0969975 0.391268 0)
(0.0725828 0.12468 0)
(0.05339 0.0265427 0)
(0.0551812 -0.0314873 0)
(0.0832952 -0.0556393 0)
(0.117786 -0.0326086 0)
(0.134252 0.0547111 0)
(0.178958 0.190884 0)
(0.220798 0.523884 0)
(0.312802 1.28565 0)
(0.219037 1.40605 0)
(0.045215 1.36593 0)
(0.00173946 1.49565 0)
(-0.0867407 1.5446 0)
(-0.116557 1.2798 0)
(-0.0899831 0.437477 0)
(-0.110394 0.167324 0)
(-0.0997031 0.0396204 0)
(-0.0828336 -0.057768 0)
(-0.0594679 -0.076115 0)
(-0.0540295 -0.0288486 0)
(-0.0691156 0.0578657 0)
(-0.107657 0.180147 0)
(-0.150173 0.393296 0)
(-0.148281 0.658355 0)
(-0.0735946 0.767714 0)
(-0.0247652 0.75949 0)
(0.0226319 0.761053 0)
(0.0719725 0.770518 0)
(0.149776 0.65183 0)
(0.148093 0.378952 0)
(0.106692 0.169829 0)
(0.0685741 0.0496986 0)
(0.0548997 -0.0343583 0)
(0.0610869 -0.0782917 0)
(0.085011 -0.0573008 0)
(0.103857 0.0402269 0)
(0.11232 0.171132 0)
(0.10016 0.469461 0)
(0.125913 1.32818 0)
(0.0947829 1.52198 0)
(0.00246393 1.4757 0)
(0.0121517 1.5298 0)
(0.0322098 1.60684 0)
(0.11902 1.25572 0)
(0.0471899 0.501592 0)
(-0.0161626 0.180882 0)
(-0.0404435 0.0456003 0)
(-0.0512336 -0.064784 0)
(-0.046829 -0.0824381 0)
(-0.0538684 -0.0211491 0)
(-0.0885144 0.0975019 0)
(-0.151618 0.243533 0)
(-0.204956 0.415471 0)
(-0.198084 0.58521 0)
(-0.112693 0.671914 0)
(-0.0347165 0.674874 0)
(0.0328374 0.675991 0)
(0.112315 0.673157 0)
(0.197844 0.578617 0)
(0.202449 0.404393 0)
(0.148351 0.233209 0)
(0.0851967 0.0879515 0)
(0.0530258 -0.0286519 0)
(0.0474011 -0.0850487 0)
(0.0520038 -0.0647459 0)
(0.0412338 0.0475021 0)
(0.0149948 0.181298 0)
(-0.0489701 0.533687 0)
(-0.109892 1.29695 0)
(-0.0184976 1.59063 0)
(-0.0103421 1.51139 0)
(0.0100665 1.4632 0)
(0.106024 1.49422 0)
(0.265132 1.15738 0)
(0.261114 0.622259 0)
(0.120845 0.284243 0)
(0.0181034 0.105977 0)
(-0.0325404 -0.0507529 0)
(-0.0328259 -0.0798946 0)
(-0.0279214 0.00399892 0)
(-0.0920394 0.189041 0)
(-0.189922 0.331036 0)
(-0.213254 0.4469 0)
(-0.188064 0.539878 0)
(-0.11718 0.600124 0)
(-0.0370312 0.612279 0)
(0.0362217 0.612811 0)
(0.117926 0.600127 0)
(0.188369 0.534637 0)
(0.211446 0.435691 0)
(0.182659 0.319314 0)
(0.0844176 0.175378 0)
(0.0261076 -0.00654627 0)
(0.0334381 -0.0817383 0)
(0.0324193 -0.0505618 0)
(-0.0214849 0.110421 0)
(-0.127074 0.288355 0)
(-0.264496 0.649272 0)
(-0.256824 1.18447 0)
(-0.0934509 1.48865 0)
(-0.00904398 1.45196 0)
(0.00890355 1.38216 0)
(0.117705 1.31469 0)
(0.290216 1.01163 0)
(0.343127 0.657523 0)
(0.230139 0.396608 0)
(0.0304605 0.181243 0)
(-0.038405 -0.0529315 0)
(-0.0337125 -0.0988212 0)
(-0.012495 -0.0192504 0)
(-0.0189122 0.279204 0)
(-0.141056 0.312655 0)
(-0.173647 0.406428 0)
(-0.149377 0.472134 0)
(-0.0977607 0.518225 0)
(-0.0341704 0.534174 0)
(0.0334519 0.5336 0)
(0.0969312 0.516168 0)
(0.144816 0.469208 0)
(0.170762 0.399921 0)
(0.135211 0.318774 0)
(0.0157967 0.26913 0)
(0.0111832 -0.0344074 0)
(0.0354179 -0.0990434 0)
(0.0364904 -0.0510339 0)
(-0.0322483 0.200503 0)
(-0.228608 0.393266 0)
(-0.347664 0.67406 0)
(-0.28513 1.02901 0)
(-0.112135 1.31414 0)
(-0.0100492 1.37958 0)
(0.0341252 1.24841 0)
(0.136756 1.06941 0)
(0.246844 0.792553 0)
(0.221345 0.620702 0)
(-0.0333556 0.768679 0)
(-0.289874 0.372451 0)
(-0.240612 -0.0295613 0)
(-0.165107 -0.134248 0)
(-0.105958 -0.0866884 0)
(0.025586 0.371947 0)
(0.0767559 0.527456 0)
(-0.00238574 0.50889 0)
(-0.0510035 0.464548 0)
(-0.0507806 0.440131 0)
(-0.0212596 0.420371 0)
(0.0150739 0.421145 0)
(0.0429979 0.444344 0)
(0.0381326 0.474135 0)
(-0.0150366 0.469693 0)
(-0.0930026 0.529117 0)
(-0.0277716 0.336281 0)
(0.108632 -0.112168 0)
(0.163346 -0.130539 0)
(0.23809 -0.0195786 0)
(0.259707 0.338388 0)
(0.0157048 0.777787 0)
(-0.228282 0.623548 0)
(-0.244617 0.806026 0)
(-0.135305 1.07287 0)
(-0.0354677 1.24505 0)
(0.0337589 1.24017 0)
(0.056203 1.10834 0)
(-0.00187246 1.00092 0)
(-0.230866 1.06413 0)
(-0.418591 0.997863 0)
(-0.427999 0.426399 0)
(-0.395276 -0.0954905 0)
(-0.334363 -0.277784 0)
(-0.266933 -0.154746 0)
(-0.0985 0.11094 0)
(0.0749202 0.467969 0)
(0.10302 0.590703 0)
(0.0636497 0.616206 0)
(0.0289201 0.61498 0)
(0.00264339 0.609076 0)
(-0.0194658 0.609459 0)
(-0.0452627 0.617168 0)
(-0.0773831 0.621116 0)
(-0.118955 0.587526 0)
(-0.0846192 0.456756 0)
(0.0996926 0.0735725 0)
(0.267557 -0.174164 0)
(0.33455 -0.274545 0)
(0.401314 -0.066141 0)
(0.41961 0.456585 0)
(0.394953 1.00367 0)
(0.215418 1.05557 0)
(-0.000386391 1.00958 0)
(-0.0548748 1.11553 0)
(-0.0336699 1.2313 0)
(-0.0446994 1.41869 0)
(-0.192805 1.31926 0)
(-0.35805 1.21542 0)
(-0.458326 1.11387 0)
(-0.411014 0.88873 0)
(-0.345232 0.359414 0)
(-0.341503 -0.100817 0)
(-0.320002 -0.306032 0)
(-0.270243 -0.30431 0)
(-0.168307 -0.0513324 0)
(-0.0275597 0.302874 0)
(0.0455549 0.502724 0)
(0.0403004 0.534289 0)
(0.021696 0.517045 0)
(0.00089013 0.501649 0)
(-0.0183307 0.502274 0)
(-0.037385 0.519135 0)
(-0.0526271 0.536581 0)
(-0.0541035 0.493251 0)
(0.0266746 0.281101 0)
(0.1665 -0.0901147 0)
(0.263119 -0.324565 0)
(0.313841 -0.302258 0)
(0.345301 -0.0720568 0)
(0.34626 0.387256 0)
(0.403771 0.891856 0)
(0.451882 1.10324 0)
(0.356033 1.2148 0)
(0.196382 1.32403 0)
(0.0462262 1.41336 0)
(-0.0815755 1.45858 0)
(-0.232789 1.35842 0)
(-0.328725 1.22134 0)
(-0.331499 1.04894 0)
(-0.247968 0.79206 0)
(-0.231648 0.3674 0)
(-0.258869 -0.0873404 0)
(-0.248733 -0.334187 0)
(-0.224703 -0.377575 0)
(-0.172323 -0.166091 0)
(-0.0744986 0.210589 0)
(-0.00950365 0.476633 0)
(0.00397273 0.547392 0)
(0.000595327 0.539149 0)
(-0.00522409 0.520037 0)
(-0.0090137 0.519656 0)
(-0.0126888 0.537082 0)
(-0.0119394 0.542714 0)
(0.00565449 0.462883 0)
(0.0754021 0.184899 0)
(0.169652 -0.195354 0)
(0.212804 -0.393099 0)
(0.237047 -0.331074 0)
(0.24397 -0.0737014 0)
(0.222353 0.392231 0)
(0.243175 0.796205 0)
(0.328097 1.03663 0)
(0.32905 1.21622 0)
(0.237223 1.36322 0)
(0.0824113 1.45772 0)
(-0.0622102 1.59533 0)
(-0.17278 1.45688 0)
(-0.198119 1.24627 0)
(-0.162028 0.997311 0)
(-0.111487 0.745558 0)
(-0.123935 0.394646 0)
(-0.177566 -0.0462471 0)
(-0.177506 -0.33568 0)
(-0.169125 -0.41183 0)
(-0.153653 -0.231951 0)
(-0.0914492 0.147177 0)
(-0.0417094 0.444793 0)
(-0.0222615 0.535757 0)
(-0.0137494 0.536184 0)
(-0.00795502 0.518578 0)
(-0.00162073 0.516101 0)
(0.00563252 0.531498 0)
(0.0165527 0.527871 0)
(0.038258 0.429469 0)
(0.0907262 0.120003 0)
(0.149881 -0.257122 0)
(0.158094 -0.422439 0)
(0.167712 -0.329298 0)
(0.167481 -0.0204582 0)
(0.111817 0.410133 0)
(0.110993 0.744411 0)
(0.161783 0.983051 0)
(0.200232 1.23651 0)
(0.176784 1.46275 0)
(0.0615987 1.59571 0)
(-0.0343553 1.69098 0)
(-0.0873099 1.49648 0)
(-0.0653184 1.22228 0)
(-0.0369428 0.958708 0)
(-0.0224577 0.737014 0)
(-0.0380791 0.424076 0)
(-0.100734 0.0137078 0)
(-0.113759 -0.322017 0)
(-0.114039 -0.424299 0)
(-0.123382 -0.274272 0)
(-0.0887919 0.104283 0)
(-0.0535325 0.419754 0)
(-0.0340219 0.520292 0)
(-0.0204872 0.524897 0)
(-0.0085823 0.50895 0)
(0.00279181 0.505985 0)
(0.0150912 0.519299 0)
(0.0294891 0.51105 0)
(0.0499195 0.40354 0)
(0.0871174 0.0755892 0)
(0.118123 -0.295981 0)
(0.104225 -0.430173 0)
(0.106325 -0.314365 0)
(0.0906727 0.0298353 0)
(0.0338065 0.431126 0)
(0.0263379 0.733834 0)
(0.0404891 0.944644 0)
(0.0684683 1.21023 0)
(0.0912327 1.50602 0)
(0.0350134 1.69124 0)
(0.00332266 1.72868 0)
(0.000776642 1.49172 0)
(0.0327384 1.19329 0)
(0.0390771 0.950519 0)
(0.0306302 0.744358 0)
(0.0184472 0.44801 0)
(-0.0328819 0.0612422 0)
(-0.0624322 -0.292019 0)
(-0.067546 -0.415705 0)
(-0.0894522 -0.297432 0)
(-0.0803818 0.0743639 0)
(-0.0613621 0.399196 0)
(-0.0384077 0.505036 0)
(-0.0226071 0.511484 0)
(-0.00838331 0.495488 0)
(0.00484688 0.493625 0)
(0.0190397 0.505642 0)
(0.0350107 0.495391 0)
(0.0584054 0.382609 0)
(0.0785107 0.0454823 0)
(0.0835766 -0.315699 0)
(0.0592347 -0.419061 0)
(0.054928 -0.282075 0)
(0.0237349 0.07355 0)
(-0.0190571 0.450079 0)
(-0.0253632 0.737364 0)
(-0.0331835 0.938431 0)
(-0.0289695 1.18128 0)
(0.00324798 1.50163 0)
(0.00316356 1.73319 0)
(0.0336971 1.69635 0)
(0.0778398 1.46489 0)
(0.0873579 1.17828 0)
(0.0771256 0.963218 0)
(0.0624637 0.760258 0)
(0.0570862 0.468383 0)
(0.0232097 0.102414 0)
(-0.0156145 -0.249932 0)
(-0.0266538 -0.398065 0)
(-0.0605146 -0.304222 0)
(-0.0755708 0.0934033 0)
(-0.0569083 0.380093 0)
(-0.0363337 0.487062 0)
(-0.0206979 0.495845 0)
(-0.00721313 0.48199 0)
(0.00516236 0.479567 0)
(0.0185313 0.489889 0)
(0.0341061 0.477138 0)
(0.0551775 0.363245 0)
(0.0727136 0.0626503 0)
(0.0537944 -0.318184 0)
(0.017182 -0.399323 0)
(0.00831311 -0.240252 0)
(-0.0311652 0.107113 0)
(-0.0570323 0.463602 0)
(-0.0575721 0.750664 0)
(-0.0709404 0.951924 0)
(-0.08346 1.16886 0)
(-0.0729012 1.4705 0)
(-0.0269327 1.70799 0)
(0.0564026 1.60841 0)
(0.106721 1.44304 0)
(0.0983033 1.18823 0)
(0.0863491 0.979081 0)
(0.0790761 0.7676 0)
(0.0867065 0.475227 0)
(0.0690581 0.131726 0)
(0.0251591 -0.202666 0)
(0.0128182 -0.370364 0)
(-0.034814 -0.291536 0)
(-0.0565092 0.0828576 0)
(-0.0398873 0.36576 0)
(-0.0275838 0.472922 0)
(-0.0154804 0.483157 0)
(-0.00512029 0.470608 0)
(0.00419391 0.468388 0)
(0.0142142 0.477444 0)
(0.0260248 0.463098 0)
(0.0386678 0.349503 0)
(0.0525011 0.0565461 0)
(0.0270445 -0.300727 0)
(-0.0220143 -0.371273 0)
(-0.0324143 -0.194003 0)
(-0.0751544 0.132936 0)
(-0.087359 0.465336 0)
(-0.0761944 0.754327 0)
(-0.0817816 0.968012 0)
(-0.0945642 1.17976 0)
(-0.102349 1.44615 0)
(-0.0531527 1.62742 0)
(0.0525977 1.52238 0)
(0.0947615 1.43277 0)
(0.086051 1.19876 0)
(0.0833161 0.988936 0)
(0.0913206 0.760136 0)
(0.112251 0.469484 0)
(0.108044 0.153057 0)
(0.0644877 -0.153586 0)
(0.0469241 -0.335789 0)
(-0.010388 -0.265143 0)
(-0.0392939 0.0883535 0)
(-0.0276634 0.359256 0)
(-0.0192468 0.462917 0)
(-0.0101703 0.47365 0)
(-0.00310134 0.462379 0)
(0.00274864 0.460405 0)
(0.00920954 0.468415 0)
(0.0176575 0.453509 0)
(0.0259997 0.34366 0)
(0.0344375 0.0655145 0)
(0.0024107 -0.272975 0)
(-0.0558302 -0.335622 0)
(-0.0722302 -0.148596 0)
(-0.11271 0.149451 0)
(-0.113345 0.456842 0)
(-0.0910728 0.744228 0)
(-0.0815117 0.976168 0)
(-0.083669 1.19003 0)
(-0.0939494 1.43748 0)
(-0.050105 1.54181 0)
(0.0198153 1.45951 0)
(0.0671826 1.41117 0)
(0.0683164 1.19281 0)
(0.0806857 0.979821 0)
(0.104913 0.737491 0)
(0.135304 0.453984 0)
(0.1404 0.164794 0)
(0.100797 -0.105025 0)
(0.0768768 -0.293015 0)
(0.0111767 -0.22864 0)
(-0.0226533 0.0984187 0)
(-0.0155178 0.356097 0)
(-0.0110683 0.4561 0)
(-0.00513966 0.4676 0)
(-0.00119455 0.457446 0)
(0.00136792 0.455886 0)
(0.00438482 0.462763 0)
(0.00952227 0.447253 0)
(0.0140986 0.341274 0)
(0.0180691 0.078064 0)
(-0.0180118 -0.233431 0)
(-0.0841696 -0.292391 0)
(-0.107585 -0.102906 0)
(-0.14399 0.158684 0)
(-0.137941 0.440561 0)
(-0.107804 0.721098 0)
(-0.0823339 0.965885 0)
(-0.0697349 1.1865 0)
(-0.0662225 1.4151 0)
(-0.0158105 1.48164 0)
(-0.0113112 1.4342 0)
(0.0321725 1.38739 0)
(0.0576335 1.18842 0)
(0.083109 0.952563 0)
(0.122931 0.703592 0)
(0.159436 0.431376 0)
(0.167736 0.17148 0)
(0.13525 -0.0586668 0)
(0.105193 -0.2445 0)
(0.0318204 -0.181935 0)
(-0.00638108 0.106587 0)
(-0.00617331 0.3573 0)
(-0.00586105 0.453342 0)
(-0.0015106 0.463756 0)
(0.00047602 0.455775 0)
(0.000943786 0.45486 0)
(0.00119905 0.461076 0)
(0.00410108 0.4448 0)
(0.00472163 0.34324 0)
(0.00204376 0.0904439 0)
(-0.0376748 -0.185807 0)
(-0.110332 -0.242992 0)
(-0.141218 -0.0608123 0)
(-0.171812 0.164716 0)
(-0.163605 0.418289 0)
(-0.127645 0.687172 0)
(-0.0871473 0.937622 0)
(-0.0626341 1.17889 0)
(-0.0306544 1.38356 0)
(0.011522 1.45958 0)
(-0.0272979 1.44331 0)
(-0.000474584 1.33629 0)
(0.0597165 1.1577 0)
(0.0980309 0.911891 0)
(0.147269 0.66306 0)
(0.186373 0.408973 0)
(0.19111 0.180388 0)
(0.165007 -0.0206601 0)
(0.126007 -0.185001 0)
(0.0484058 -0.127586 0)
(0.00907504 0.121513 0)
(-0.000527671 0.357137 0)
(-0.00775892 0.451054 0)
(-0.00121464 0.461007 0)
(0.00161289 0.456245 0)
(0.00238347 0.455919 0)
(0.00100075 0.463167 0)
(0.00410363 0.443013 0)
(-0.00210972 0.343692 0)
(-0.0136578 0.10814 0)
(-0.0545369 -0.130797 0)
(-0.132252 -0.18537 0)
(-0.171511 -0.0215315 0)
(-0.197517 0.173351 0)
(-0.193024 0.396425 0)
(-0.154224 0.646923 0)
(-0.104231 0.897089 0)
(-0.064382 1.14694 0)
(-0.000618391 1.33114 0)
(0.0261449 1.46868 0)
(-0.0314343 1.47312 0)
(-0.0164047 1.28059 0)
(0.0653694 1.10133 0)
(0.121545 0.860623 0)
(0.177897 0.61538 0)
(0.219808 0.383359 0)
(0.213943 0.186135 0)
(0.185945 0.0117334 0)
(0.140044 -0.12052 0)
(0.0602626 -0.0671211 0)
(0.0158892 0.140299 0)
(0.00766178 0.395265 0)
(0.00215291 0.442156 0)
(-0.00114243 0.454713 0)
(0.00334304 0.45374 0)
(0.00640515 0.452314 0)
(0.000284393 0.456027 0)
(-0.0109293 0.43109 0)
(-0.0118942 0.380357 0)
(-0.0206267 0.128604 0)
(-0.0662474 -0.0693815 0)
(-0.146616 -0.119705 0)
(-0.193338 0.0107336 0)
(-0.221009 0.179379 0)
(-0.226637 0.371145 0)
(-0.185296 0.59882 0)
(-0.12849 0.843711 0)
(-0.0699752 1.0881 0)
(0.0137172 1.27391 0)
(0.0283212 1.49727 0)
(-0.0237474 1.5069 0)
(-0.0126872 1.21718 0)
(0.0816081 1.03115 0)
(0.149459 0.797536 0)
(0.206215 0.568115 0)
(0.237823 0.364084 0)
(0.230389 0.232948 0)
(0.204116 0.0468731 0)
(0.147038 -0.0503802 0)
(0.0672073 -0.000989197 0)
(0.0135481 0.165417 0)
(0.00922078 0.379749 0)
(0.0196053 0.476109 0)
(0.0123971 0.446628 0)
(0.00370054 0.445654 0)
(-0.00606435 0.445844 0)
(-0.0136341 0.494471 0)
(-0.0207362 0.463681 0)
(-0.0110808 0.364661 0)
(-0.0178622 0.155668 0)
(-0.0730715 -0.00232604 0)
(-0.153471 -0.0488601 0)
(-0.211291 0.0459292 0)
(-0.237865 0.225009 0)
(-0.244224 0.351881 0)
(-0.213143 0.551738 0)
(-0.156081 0.779369 0)
(-0.0867998 1.01501 0)
(0.00723735 1.21049 0)
(0.0188019 1.52606 0)
(-0.0018435 1.52784 0)
(0.0143102 1.15068 0)
(0.110935 0.95057 0)
(0.181532 0.732461 0)
(0.23462 0.52792 0)
(0.243589 0.349007 0)
(0.238088 0.232401 0)
(0.217779 0.0873498 0)
(0.150627 0.0249349 0)
(0.0714988 0.0698668 0)
(0.0125472 0.200179 0)
(-0.00228426 0.36868 0)
(0.0142189 0.458864 0)
(0.0156816 0.479613 0)
(0.00134887 0.48273 0)
(-0.0151138 0.481391 0)
(-0.0184326 0.480726 0)
(-0.00879958 0.447918 0)
(0.00180518 0.356929 0)
(-0.0164946 0.193066 0)
(-0.077057 0.0695565 0)
(-0.15661 0.0271765 0)
(-0.22391 0.0866613 0)
(-0.244875 0.224646 0)
(-0.249405 0.336721 0)
(-0.239766 0.511502 0)
(-0.186984 0.714155 0)
(-0.116658 0.934739 0)
(-0.0219636 1.14522 0)
(-0.00486742 1.54084 0)
(0.0329399 1.5136 0)
(0.0598205 1.08455 0)
(0.150957 0.872149 0)
(0.217362 0.672597 0)
(0.247534 0.490102 0)
(0.250768 0.381027 0)
(0.249428 0.237487 0)
(0.220713 0.135451 0)
(0.152757 0.101999 0)
(0.0756681 0.142644 0)
(0.0157807 0.241128 0)
(-0.00731381 0.369301 0)
(-0.00118239 0.447977 0)
(0.00370234 0.473967 0)
(-8.31963e-05 0.480242 0)
(-0.00606276 0.479575 0)
(-0.00589339 0.473745 0)
(0.00157537 0.440404 0)
(0.0053829 0.360441 0)
(-0.0197946 0.236264 0)
(-0.0805152 0.143004 0)
(-0.157491 0.104273 0)
(-0.224822 0.134912 0)
(-0.254141 0.229891 0)
(-0.255843 0.36657 0)
(-0.251385 0.473749 0)
(-0.221554 0.655132 0)
(-0.156683 0.858042 0)
(-0.0679464 1.08086 0)
(-0.0389305 1.51829 0)
(0.0668415 1.45004 0)
(0.108328 1.01781 0)
(0.195643 0.803535 0)
(0.230708 0.618256 0)
(0.246493 0.512232 0)
(0.261374 0.358235 0)
(0.259166 0.251191 0)
(0.218196 0.188652 0)
(0.152173 0.176603 0)
(0.0797786 0.212847 0)
(0.0222706 0.284527 0)
(-0.00521428 0.377403 0)
(-0.00619531 0.442741 0)
(-0.00159894 0.472453 0)
(-0.000474341 0.483372 0)
(-0.000995015 0.481429 0)
(0.0008597 0.469288 0)
(0.00509527 0.436468 0)
(0.00226618 0.370625 0)
(-0.0262088 0.280866 0)
(-0.0836245 0.213117 0)
(-0.155016 0.17821 0)
(-0.21997 0.187662 0)
(-0.260814 0.244486 0)
(-0.264463 0.344595 0)
(-0.250423 0.494302 0)
(-0.234257 0.602373 0)
(-0.200481 0.791459 0)
(-0.114231 1.01447 0)
(-0.0707997 1.44539 0)
(0.0917107 1.3441 0)
(0.150036 0.946673 0)
(0.213063 0.742518 0)
(0.229889 0.638559 0)
(0.257125 0.471509 0)
(0.274463 0.349854 0)
(0.257373 0.27779 0)
(0.211848 0.243735 0)
(0.148999 0.245626 0)
(0.0833344 0.277205 0)
(0.0305661 0.327755 0)
(0.000779476 0.391353 0)
(-0.0070876 0.441385 0)
(-0.00497788 0.468808 0)
(-0.00142891 0.480085 0)
(0.00135946 0.479237 0)
(0.00413036 0.465636 0)
(0.00547311 0.435844 0)
(-0.00302454 0.385443 0)
(-0.0333232 0.324169 0)
(-0.0854868 0.276368 0)
(-0.149487 0.245877 0)
(-0.210887 0.242158 0)
(-0.256188 0.272031 0)
(-0.275016 0.338264 0)
(-0.260119 0.45483 0)
(-0.233858 0.621351 0)
(-0.216665 0.731664 0)
(-0.152842 0.942611 0)
(-0.0928826 1.33899 0)
(0.109272 1.21414 0)
(0.157423 0.865792 0)
(0.213207 0.757132 0)
(0.24315 0.586757 0)
(0.273636 0.446795 0)
(0.273093 0.356129 0)
(0.246267 0.312091 0)
(0.198342 0.299497 0)
(0.140174 0.308886 0)
(0.0832143 0.334304 0)
(0.0375695 0.368821 0)
(0.00911298 0.41066 0)
(-0.0024493 0.44541 0)
(-0.00406816 0.467454 0)
(-0.00150074 0.477938 0)
(0.00290655 0.477015 0)
(0.00556934 0.46487 0)
(0.00319811 0.44086 0)
(-0.00983311 0.405433 0)
(-0.0392618 0.365041 0)
(-0.0845813 0.331927 0)
(-0.140145 0.307038 0)
(-0.19683 0.29652 0)
(-0.244191 0.306859 0)
(-0.272064 0.346681 0)
(-0.274905 0.432381 0)
(-0.246329 0.570253 0)
(-0.216296 0.743938 0)
(-0.156756 0.859096 0)
(-0.105827 1.20516 0)
(0.0999397 1.06001 0)
(0.152795 0.847734 0)
(0.224919 0.688263 0)
(0.261979 0.553213 0)
(0.270213 0.441836 0)
(0.253324 0.375403 0)
(0.218106 0.353206 0)
(0.171293 0.353141 0)
(0.121865 0.363593 0)
(0.0768983 0.381439 0)
(0.0409595 0.403554 0)
(0.0175299 0.429683 0)
(0.00633217 0.452075 0)
(0.00327396 0.467445 0)
(0.00356404 0.475278 0)
(0.0045184 0.47506 0)
(0.0034304 0.466572 0)
(-0.0017304 0.449914 0)
(-0.015323 0.42686 0)
(-0.0403645 0.400865 0)
(-0.0769274 0.378806 0)
(-0.12166 0.360695 0)
(-0.170588 0.349367 0)
(-0.217306 0.348157 0)
(-0.252919 0.367481 0)
(-0.270969 0.429228 0)
(-0.263904 0.537523 0)
(-0.227478 0.674057 0)
(-0.153636 0.837043 0)
(-0.0990116 1.05934 0)
(0.0958324 0.963991 0)
(0.168251 0.748493 0)
(0.242552 0.637498 0)
(0.26203 0.541567 0)
(0.249939 0.453986 0)
(0.218091 0.406618 0)
(0.178326 0.396265 0)
(0.13732 0.39885 0)
(0.09905 0.40559 0)
(0.0667027 0.416757 0)
(0.0401456 0.429974 0)
(0.0216698 0.445432 0)
(0.0107505 0.458439 0)
(0.00586184 0.467255 0)
(0.00454208 0.47166 0)
(0.0045258 0.47149 0)
(0.002952 0.466721 0)
(-0.00269466 0.457411 0)
(-0.0151752 0.444418 0)
(-0.0354015 0.428832 0)
(-0.0633967 0.415167 0)
(-0.0966343 0.403195 0)
(-0.135344 0.395501 0)
(-0.176596 0.391841 0)
(-0.216707 0.399736 0)
(-0.249346 0.442684 0)
(-0.262301 0.526619 0)
(-0.24342 0.623139 0)
(-0.169035 0.73778 0)
(-0.0967535 0.956931 0)
(0.0971734 0.798993 0)
(0.187962 0.669212 0)
(0.241702 0.604976 0)
(0.249871 0.546026 0)
(0.227889 0.47997 0)
(0.183894 0.445042 0)
(0.142234 0.434289 0)
(0.10733 0.433581 0)
(0.0782208 0.434516 0)
(0.0554888 0.440861 0)
(0.0363402 0.448431 0)
(0.022475 0.457458 0)
(0.0134658 0.465044 0)
(0.00835233 0.470501 0)
(0.00556269 0.473318 0)
(0.00359035 0.473282 0)
(0.000715605 0.470403 0)
(-0.00467928 0.464852 0)
(-0.0142775 0.457401 0)
(-0.0290249 0.448253 0)
(-0.0493849 0.440226 0)
(-0.0734659 0.432821 0)
(-0.103341 0.430477 0)
(-0.138205 0.429692 0)
(-0.17926 0.438382 0)
(-0.223592 0.469778 0)
(-0.248048 0.531955 0)
(-0.24063 0.591221 0)
(-0.186757 0.65815 0)
(-0.0966128 0.794576 0)
(0.0879275 0.653534 0)
(0.176272 0.599825 0)
(0.224256 0.580891 0)
(0.23216 0.552617 0)
(0.209061 0.510136 0)
(0.16173 0.491946 0)
(0.114022 0.472429 0)
(0.08314 0.462574 0)
(0.0615074 0.456192 0)
(0.0461459 0.458166 0)
(0.0333763 0.462221 0)
(0.0236835 0.467632 0)
(0.0164937 0.472437 0)
(0.0111237 0.476076 0)
(0.00681246 0.477999 0)
(0.0028526 0.478029 0)
(-0.00153515 0.476213 0)
(-0.00709413 0.47275 0)
(-0.0146111 0.468249 0)
(-0.0248128 0.462942 0)
(-0.038442 0.458617 0)
(-0.0550742 0.455483 0)
(-0.0775256 0.459616 0)
(-0.107835 0.466948 0)
(-0.154251 0.485126 0)
(-0.202454 0.501821 0)
(-0.227673 0.54115 0)
(-0.22301 0.567514 0)
(-0.175669 0.588531 0)
(-0.0871756 0.650756 0)
(0.0743696 0.53178 0)
(0.143929 0.536496 0)
(0.188932 0.553666 0)
(0.19163 0.563563 0)
(0.163547 0.542149 0)
(0.130082 0.54511 0)
(0.0871777 0.511768 0)
(0.0636429 0.48702 0)
(0.0502034 0.471741 0)
(0.0411111 0.469508 0)
(0.0330855 0.471641 0)
(0.025875 0.475343 0)
(0.0193497 0.47891 0)
(0.0133454 0.481686 0)
(0.00768102 0.483176 0)
(0.00214611 0.483236 0)
(-0.00351165 0.481921 0)
(-0.00951626 0.479435 0)
(-0.0160791 0.476297 0)
(-0.0234548 0.472978 0)
(-0.0319944 0.470952 0)
(-0.0421915 0.472162 0)
(-0.0566347 0.483989 0)
(-0.0797195 0.504537 0)
(-0.122912 0.53815 0)
(-0.158535 0.535147 0)
(-0.188084 0.554402 0)
(-0.186826 0.543902 0)
(-0.144566 0.525584 0)
(-0.0759826 0.528712 0)
(0.0548858 0.440313 0)
(0.0936253 0.48812 0)
(0.125724 0.53915 0)
(0.10671 0.590757 0)
(0.0886785 0.566246 0)
(0.0772017 0.582955 0)
(0.0602089 0.539469 0)
(0.0502033 0.497874 0)
(0.0462133 0.47858 0)
(0.0420365 0.475871 0)
(0.0361594 0.478434 0)
(0.0293425 0.482167 0)
(0.0222431 0.485606 0)
(0.0151499 0.488171 0)
(0.00816083 0.489517 0)
(0.00125944 0.489553 0)
(-0.00561709 0.488336 0)
(-0.0124976 0.486042 0)
(-0.0193222 0.483066 0)
(-0.0259018 0.479938 0)
(-0.0318084 0.477949 0)
(-0.0365851 0.480281 0)
(-0.0413088 0.495985 0)
(-0.053079 0.532978 0)
(-0.0725341 0.579204 0)
(-0.0859595 0.560931 0)
(-0.106023 0.582442 0)