/*--------------------------------*- C++ -*----------------------------------*\
| =========                 |                                                 |
| \\      /  F ield         | OpenFOAM: The Open Source CFD Toolbox           |
|  \\    /   O peration     | Version:  v1606+                                |
|   \\  /    A nd           | Web:      www.OpenFOAM.com                      |
|    \\/     M anipulation  |                                                 |
\*---------------------------------------------------------------------------*/
FoamFile
{
    version     2.0;
    format      ascii;
    class       volScalarField;
    location    "5.3";
    object      epsilon;
}
// * * * * * * * * * * * * * * * * * * * * * * * * * * * * * * * * * * * * * //

dimensions      [0 2 -3 0 0 0 0];

internalField   nonuniform List<scalar> 
11640
(
0.000142182740202
0.000187963860766
0.000219811197159
0.000238598888269
0.000247998063404
0.000250726891522
0.000249330358357
0.00024604971856
0.000242258727736
0.000238406551094
0.0002349134741
0.000232682635673
0.000232466089119
0.00023363627891
0.000234189837093
0.000231407765249
0.000222772003769
0.000205092063521
0.0001751424216
0.000133102608306
0.000189495256543
0.0003978222314
0.000532137303424
0.00061211061826
0.00065607288648
0.0006749662538
0.000676475214525
0.000667732007778
0.000656475835444
0.000646305272624
0.000639604520165
0.000643100146281
0.000652319593902
0.000661403301298
0.000661584640111
0.000643389944599
0.000599944051434
0.000520339872217
0.000385063772122
0.000176642776227
0.000221799301753
0.000532499944454
0.000741940358687
0.000875894667613
0.000951805539536
0.000979913621838
0.000972493947999
0.000947308817115
0.000919283803263
0.000892966079297
0.000878114879049
0.000893733486095
0.000918181318947
0.000944683363558
0.000957107015241
0.000934947134992
0.000862336124401
0.00072940644293
0.000519412386874
0.000206495962576
0.000240469267116
0.000614593950796
0.000880197215802
0.00105293950428
0.00114181273111
0.00115906382805
0.00112651085594
0.00107393088804
0.0010233115649
0.000978365188882
0.00095991887397
0.000991435595875
0.00103689487604
0.00109135291768
0.001130706142
0.0011221746167
0.00103961791629
0.000868124977047
0.00060108523052
0.00022407579733
0.000251228687873
0.000664493937136
0.000965139600929
0.00115371967082
0.00123475167779
0.00122230802615
0.0011486578795
0.00106081057262
0.000985205049018
0.000922893636292
0.000905222925305
0.000950407101857
0.00101847190668
0.00111162711056
0.00119508495798
0.00121926870679
0.00114645389004
0.000958883549949
0.00065312636055
0.000234866769988
0.000257465209721
0.000689845823719
0.00100354516004
0.00118719115803
0.0012400974433
0.00117678047314
0.00103887912751
0.000904450394797
0.000807756243779
0.000735933691453
0.000720841233402
0.000767822133279
0.000855170679655
0.0010058159612
0.00116027684285
0.00123819699355
0.00119349568195
0.00100794113254
0.000684112758438
0.000242335603266
0.000259019943736
0.000694507776762
0.00100455345044
0.00116920069926
0.00118042063337
0.00104779673444
0.000820776575215
0.000633975443809
0.000533822849768
0.000473994598544
0.000472453701792
0.000506613979679
0.000597751178144
0.000806835102313
0.00105376915031
0.00120034905833
0.00119474271184
0.0010233369246
0.000697039303383
0.000246485687119
0.000256604002699
0.000686750321358
0.000985292308065
0.00112754880729
0.00109904030514
0.000904909835477
0.000605670032454
0.000408906714402
0.000326464790916
0.000289167964957
0.000282567721616
0.00030633182658
0.000393302832579
0.000622309071971
0.000944786259075
0.00114796542953
0.0011762003876
0.00102009214822
0.000697818167385
0.000247284940121
0.000252924842967
0.000678477704027
0.000968348276195
0.00109624466983
0.00104570320819
0.000822418337526
0.000501055828752
0.000309797233012
0.000233498454423
0.000206191030726
0.000203610677158
0.00022879784293
0.00031590646011
0.000540696188377
0.000891468781692
0.00112219732706
0.0011683543961
0.00101960580249
0.000698802897523
0.000247590197761
0.000250312487983
0.000677731449913
0.000967620371326
0.00109272895779
0.00103750498807
0.000806042972197
0.000475224958832
0.000280210847256
0.00020644404958
0.000185244160793
0.000186789074421
0.000214981745397
0.00030788259636
0.000543156202613
0.000907421872384
0.00114344280629
0.00118900115982
0.00103479657895
0.00070672407819
0.000248786035917
0.000249176716545
0.000686531865703
0.000985294637641
0.00112156013852
0.00108091286015
0.000865130338687
0.000536679919473
0.000325676473496
0.000251069674527
0.000229612749308
0.000232842443022
0.000268078036645
0.000373496108303
0.000635448296105
0.000999038869727
0.00121639792494
0.00124125915128
0.00106785601348
0.000723274432285
0.000251337902651
0.000248291187846
0.00070053366609
0.00101659717333
0.00117684355886
0.00117579809451
0.00102180101274
0.000761570624097
0.000552623036092
0.000472246633544
0.000438359206199
0.000428506759492
0.000490172738028
0.000626996493638
0.000894438974631
0.00118364914967
0.00133948732673
0.00131825118225
0.0011125179084
0.000744375883878
0.000253913723689
0.000245559068267
0.000710489682899
0.00104494741431
0.00123525393901
0.00128401271173
0.00120945391271
0.00105197857473
0.000905861193659
0.000829507805329
0.000785412459846
0.000795743795885
0.00089033869886
0.00102766136979
0.00122135977238
0.00140094080717
0.00147182208665
0.00139220150565
0.00115033873031
0.000760867288191
0.000254776647728
0.000240758838405
0.000709456233242
0.00105422471504
0.00127129440517
0.00136613931068
0.00136056588955
0.00128999712343
0.00121087734643
0.00115707418639
0.00112220913561
0.00115047938833
0.00124649852659
0.00135681825201
0.00147866652795
0.00156618014763
0.00156164961308
0.00143105163172
0.00116300022958
0.00076611982348
0.000253649857335
0.000236203700268
0.000696630267086
0.00103508503171
0.00126513854193
0.00139448377067
0.00143990834882
0.00142906066736
0.00139894969275
0.00137357488623
0.00135834405606
0.00139330099483
0.00146762159676
0.00154294825591
0.00160907768287
0.00163364874801
0.00157678247373
0.00141571404634
0.00114272910878
0.000758574469006
0.000251470954609
0.000230543733174
0.000672083756247
0.000985695072842
0.00120425971904
0.00134584230969
0.0014210807517
0.00144825836866
0.00145156383295
0.00145003184006
0.00145160060852
0.00148432838913
0.00153123836928
0.00157285355653
0.00159852672453
0.00158391711324
0.0015028495383
0.00133999997507
0.00108971355229
0.000735650418966
0.000247066910868
0.00021977305851
0.000623135288787
0.000905066235597
0.00109048105494
0.00121529014802
0.00129310760999
0.00133489720667
0.00135535689191
0.00136811407077
0.0013822588295
0.0014069084874
0.00143109591126
0.00144918769577
0.00145210628746
0.00142284496396
0.00134515148475
0.00120809569195
0.00099739595062
0.000682968777806
0.000236137061421
0.000200685403492
0.000532227641267
0.000763880468639
0.000915907901972
0.00101245303525
0.00107217633735
0.00110859194462
0.0011311527113
0.00114671173053
0.00116164801031
0.00117566012863
0.00118742892613
0.00119456124229
0.00119104115062
0.0011662104203
0.00110892110792
0.00100599397429
0.000839291227234
0.000582886891896
0.000214810883653
0.000170695132562
0.000386054276217
0.000534420045403
0.000631757763902
0.000694042985748
0.000732630354303
0.000755681631333
0.00076965519499
0.00077942984814
0.000787592216234
0.000795020410677
0.000801529154589
0.000805823850573
0.00080381507528
0.000789853653237
0.000756047893187
0.000691809304622
0.000585259989436
0.000419549970432
0.000180079937921
0.00013034986595
0.000173026385847
0.000204341817454
0.00022466921492
0.00023755976535
0.000245492905798
0.000250361960893
0.000253464989753
0.000255635718086
0.000257399524161
0.000259020349442
0.000260396578483
0.000261353745887
0.000260997921383
0.000258374028308
0.000251619648441
0.000238596104994
0.000216300992682
0.000181074790915
0.000133511654449
0.000196123174236
0.000308046084158
0.000387184440093
0.000433135787602
0.000455193324118
0.00046277953665
0.000464252024709
0.000464019477045
0.000463994073185
0.000464519440941
0.000464950908681
0.000463981469418
0.000463046138675
0.000462624701079
0.000460307111744
0.0004511501758
0.000427671187668
0.000380586504108
0.000300479706596
0.000189300800617
0.000310996202042
0.000414232656518
0.000508855128998
0.000567472975815
0.000597597017244
0.000608982458738
0.000609500481647
0.000604721139428
0.000598932672062
0.000594447185416
0.000592298830757
0.00059381411278
0.000598292735267
0.00060294893267
0.000602627169287
0.000590373399696
0.000558869842026
0.00049949008399
0.000404860129566
0.0003028410433
0.000391428128463
0.000510653398468
0.000628067576321
0.000704751580429
0.00074577160908
0.000759159775241
0.000754022402663
0.000740519750701
0.000726288036971
0.000714997653367
0.000710131013275
0.000716334527248
0.000728486672865
0.000742215843892
0.000748959954834
0.00073697221239
0.000695838917448
0.000618418997683
0.00050094252751
0.000382069554109
0.00043636096863
0.000571663988983
0.000708926869587
0.000799832847729
0.000844996865943
0.000851923789243
0.000834009955088
0.000806874574495
0.000781171980596
0.000761793559104
0.000755448521149
0.000768159872125
0.000791291434585
0.000819586996148
0.000840561024951
0.00083638179106
0.000792018352824
0.000700036871351
0.000562152279141
0.00042722940593
0.000455528380095
0.000605034139744
0.000756243490366
0.000853574803492
0.000893953190304
0.000885989645083
0.000847967355115
0.000802894907863
0.000763738736512
0.000736565947855
0.000729820754146
0.000748495337428
0.000784448369156
0.000832636887308
0.000876160990833
0.000888800441376
0.000849693284525
0.000750532917279
0.000597199788203
0.000448205655328
0.000459108665292
0.000618346148619
0.000775880452322
0.000870991420662
0.000897628260106
0.000864664981056
0.000795816667535
0.000727512127323
0.000673216000009
0.000640218782929
0.000633370099568
0.000654619402943
0.000705033579928
0.000780811087449
0.000858956910669
0.000898898568793
0.000873964698308
0.000775664386323
0.000614028065462
0.000455090714315
0.000455212358035
0.000618301108994
0.000774991354909
0.000861033382105
0.000866597919969
0.000797713355074
0.000680528662928
0.000576624628995
0.000503984337257
0.000474423186405
0.00047268948878
0.000495019040017
0.000565451883096
0.00067645781744
0.000801961223966
0.000877549898389
0.000872997310916
0.000781959347392
0.000618919528247
0.000455601245428
0.000449944277907
0.000612215798881
0.00076422521615
0.000838946841299
0.000822947112808
0.000718446617564
0.000551661907478
0.000409509897691
0.000334209245765
0.0003154004347
0.000313949484919
0.000332745064094
0.000414665881709
0.00056768586646
0.00073942731181
0.000846715710574
0.000861112894613
0.000778752286992
0.000617913499817
0.000454339829445
0.000446561778195
0.000607229459768
0.000755542152878
0.000822421729437
0.000792019981785
0.000663234806574
0.000462002731769
0.000305199352218
0.000232466646379
0.000216909797657
0.000217442185709
0.000235660534587
0.00031750055498
0.000490563509826
0.000698976898192
0.000828696069098
0.000855232076835
0.000777883569351
0.000618204356953
0.000454855574846
0.000447182472361
0.000608013552844
0.000756663358613
0.000822570054867
0.000789284986744
0.000655507256793
0.000447646469013
0.0002872024736
0.000214388374819
0.00020093503611
0.000201935538491
0.000219197736127
0.00030415810483
0.000488811138401
0.000706727273222
0.000840028626082
0.000866610492497
0.000786865881823
0.000623958190676
0.00045860151849
0.0004531124399
0.000615812690878
0.000769552560466
0.000842553434759
0.000819435781054
0.000701448417363
0.00051695163727
0.000362261397167
0.000287725174936
0.000275174939721
0.000276234879759
0.000294041927217
0.000384101154482
0.000571496531797
0.000768782169977
0.000884757077756
0.000897847436293
0.000807334623288
0.000636305426176
0.000466682777611
0.000463545509583
0.0006285785166
0.000790958972725
0.000877903109427
0.00087706721093
0.00079396673291
0.000659247730083
0.000542042020078
0.000474647227266
0.000456336238218
0.000455694516019
0.00048627166189
0.000579527056791
0.000726986580303
0.000875216398819
0.000956131283822
0.000943420799195
0.000835262103751
0.000653066248047
0.000478464196184
0.000476614092913
0.000641281360079
0.000812123733576
0.000915807067166
0.000942801144057
0.000901848001655
0.000821033840342
0.000746099705614
0.000700136197935
0.000683146709659
0.000692540897377
0.000737208550711
0.000812520743253
0.00090723701998
0.000996386858616
0.00103187133971
0.000987509584487
0.000860309729375
0.000668800674317
0.000492187608191
0.000487975018587
0.000648108251187
0.000823191555175
0.000941316928637
0.00099470707404
0.000992135113779
0.000955655383358
0.000914902378069
0.000886529042668
0.000874525530203
0.000888826177984
0.000931470852772
0.000987503474968
0.00104698814367
0.00108975580018
0.00108447702665
0.00101235524252
0.00087172489851
0.000677603442839
0.000503468625655
0.000491166048855
0.00064437702107
0.00081686651427
0.000941755631097
0.00101446831093
0.00104098505007
0.00103685630875
0.00102177529859
0.00100903823271
0.0010047894576
0.0010203547576
0.00105288748966
0.00108918807461
0.00111989447677
0.00112855152799
0.00109457082158
0.00100608350983
0.000862852205934
0.000674565774249
0.000506186573111
0.000479847846661
0.00062588485169
0.000789176982842
0.000910077633751
0.000989493833197
0.0010327598416
0.00104939329442
0.00105223224717
0.00105191332283
0.00105452671948
0.00106808981028
0.001087986056
0.00110626063807
0.00111549671855
0.0011028322494
0.00105507618975
0.000964858421433
0.000830860290091
0.000654890419377
0.000494803871908
0.000448477263541
0.00058603032128
0.000736480994459
0.000845379067855
0.000918818188221
0.000964226473956
0.000988752399931
0.0010007095042
0.00100760066234
0.00101450030616
0.00102430018009
0.0010341735163
0.00104058916807
0.00103789700985
0.00101724209142
0.000969911797402
0.000889875062986
0.000771567939179
0.000611703109265
0.000462265655146
0.000391968452391
0.000516574324898
0.000648933177558
0.000743751325312
0.00080635715132
0.000845373215446
0.000868472379781
0.000881858502151
0.000890318435465
0.000897099525627
0.000902977574895
0.000907335179041
0.000908307689863
0.000901999423652
0.000882498557652
0.000843106948083
0.000776895594525
0.000676306744506
0.000537021942575
0.000402177936336
0.000304630497313
0.000413346573209
0.000520521303987
0.000595999552107
0.000645431152071
0.000676150993982
0.000694345452039
0.000704906120628
0.000711378938798
0.000715876125543
0.000719249913426
0.000721374096354
0.000721000424363
0.000715367978721
0.00070032639119
0.000670462920165
0.000619241406235
0.000539611407694
0.00042661069935
0.000308938814538
0.000189517668028
0.000308082983136
0.000397698135982
0.000457812932159
0.000496720141853
0.000521108315961
0.000535643934777
0.000544181171423
0.000548915544136
0.000551764260341
0.000553315768949
0.000553484938943
0.000551704190649
0.000545849355799
0.000533202656248
0.000509309755709
0.000469147142479
0.00040556805629
0.000310648526284
0.000188028053694
0.000245614542517
0.000422736953614
0.000549965399794
0.00062559094093
0.000663693957217
0.000678152342878
0.000681045258836
0.000679232297779
0.000677177969586
0.000676484923886
0.000677045221566
0.000677981546177
0.000679904784273
0.000681570546966
0.000677907607732
0.000661185215401
0.000620621442323
0.000542648950874
0.000413200479189
0.000235797915039
0.000426839946848
0.00049655853155
0.000592367566193
0.000655380858864
0.000688685397863
0.00070137038922
0.00070200634475
0.000696995659545
0.000690963608489
0.000686599474387
0.000684953366873
0.000686262545231
0.000690104367936
0.000693815970263
0.000692234078432
0.000678081340861
0.00064318714497
0.000579519283737
0.000484357171558
0.000416754458276
0.00055607015818
0.000594590343091
0.000692262649971
0.000760370613663
0.000796934174203
0.000808643362028
0.000804212576103
0.000792740212256
0.000780673313626
0.00077184021551
0.00076842522079
0.000771729536102
0.000780148747634
0.000789750925812
0.000793783804323
0.000782537591304
0.000746445844303
0.000678890913547
0.000582276896549
0.000545511371688
0.000630507374406
0.000659394804703
0.000763537927091
0.000837003435894
0.000873644923369
0.000879110411055
0.000864899857884
0.000843608306704
0.00082303212156
0.000808740813768
0.000804070970042
0.000811043095086
0.000826997629629
0.000846159249235
0.000860139690489
0.000855913094441
0.000821369513884
0.000750032642445
0.000647676678195
0.000621093613618
0.000664626474606
0.000694095585503
0.000804200482264
0.000879624686933
0.000911103267944
0.000904986830773
0.000876506504616
0.000843251177657
0.000811399682328
0.000791224912144
0.000786363033127
0.000798569824174
0.000825728420931
0.000857232755374
0.000885713090619
0.000893364688129
0.000864553592281
0.000792193922393
0.000684468698115
0.000658273274429
0.000673126422646
0.000706683393455
0.000819579832542
0.000892120970695
0.000912925437653
0.000889051870124
0.000841122502825
0.000797635715061
0.000746612110856
0.000719462888211
0.000715077783903
0.000734473322441
0.000782587978814
0.000825966583601
0.000874433444815
0.000899656213456
0.000881251966032
0.000811587532279
0.000701022160239
0.000671935967427
0.00066888937942
0.000705518974032
0.000817345030944
0.000882753725311
0.000888352200239
0.000841291362236
0.000769412415546
0.00074349667822
0.00063161313567
0.000593842282791
0.000594730636064
0.000623909315336
0.000732007476088
0.000769536679041
0.000838180020275
0.000884571290398
0.000879838449919
0.000815994306731
0.00070556130068
0.000674376040725
0.000662037633508
0.000699034631648
0.000807369905642
0.000864098200973
0.00085407762721
0.000786430529777
0.000719076128719
0.000690493799249
0.000512587425795
0.000487264228623
0.000482227121304
0.000512432534838
0.000740132818737
0.000729523575091
0.000801770803136
0.000863817131217
0.000871720029432
0.000814180907402
0.000705371636722
0.000673257594092
0.000658375096809
0.000694376693543
0.000799982885417
0.000850445767374
0.00082783147924
0.000733214064387
0.000586394386522
0.000436385856701
0.00027471343763
0.000247198154953
0.000249646028167
0.000284414648775
0.000486189966353
0.000612625545891
0.000762831460776
0.000850518057865
0.000868845399017
0.000815221273862
0.000707062466446
0.000675279424056
0.000661547735507
0.000696053668581
0.000802036950579
0.000852369580122
0.000828748389684
0.000732237806605
0.000580601200732
0.000429709377555
0.000266941752721
0.00024005101328
0.000239663482194
0.000268832752153
0.000469312829071
0.000615994124574
0.000774117607509
0.000863286475497
0.000880920540468
0.000825241159979
0.000714640410502
0.000682888942542
0.000673195832018
0.000705288815917
0.00081523549294
0.000872359689507
0.000860602093586
0.000790319685234
0.00071473929869
0.000648498374814
0.000466813379908
0.000449756278289
0.000453143850629
0.000474429113191
0.000695119506625
0.000751193276505
0.000842045843837
0.000905592158493
0.000910097983939
0.000845667583017
0.0007291838736
0.000697553018827
0.000692241666328
0.000720240466636
0.000836465750736
0.000904988052471
0.000910673017689
0.000862542486914
0.000795507278078
0.000775604308304
0.00066645968369
0.000637834364415
0.000630761037349
0.000659043848794
0.000783216345757
0.000849198094502
0.000921315290098
0.000964362004533
0.000950580373981
0.000873089406771
0.000748743089489
0.000718282891175
0.000714273436889
0.00073618229569
0.000858754185923
0.000940660826988
0.000967428717098
0.000946891892393
0.000904427384595
0.000871350512494
0.00082883657205
0.000815616672215
0.000824653218506
0.000859210237406
0.000920237953868
0.000965891532816
0.00101124444327
0.00102703155189
0.000991526193447
0.00089981501547
0.000768296509235
0.000740667382331
0.000731625766606
0.000746554766299
0.000872982329911
0.000966582333302
0.00101339581032
0.00101909241037
0.00100124940506
0.000980212131628
0.000961085936073
0.000955588490104
0.000966637951421
0.000994353443736
0.0010316113921
0.00106387908812
0.00108471694118
0.00107472088361
0.00101947726952
0.000916417438041
0.00078103646765
0.000757452787615
0.000734068347363
0.000744550228592
0.000870945381642
0.000971045004675
0.00103285055917
0.00105959589033
0.00106303850538
0.0010574162096
0.00105155482042
0.00105209467824
0.00106320816371
0.00108319120959
0.00110529759885
0.00112112656252
0.00112096426855
0.00109134007536
0.00102290806568
0.000914540514931
0.000779711157287
0.000759001963995
0.000712891460393
0.000724117853891
0.000847044315205
0.000946768180951
0.00101483480404
0.00105416513078
0.00107225409802
0.00107886676022
0.00108203211461
0.00108699960898
0.00109675392632
0.0011092336656
0.00111984858263
0.00112239960818
0.00110825706805
0.00106792524537
0.000995023695715
0.000888206673977
0.000757812308363
0.000736537261854
0.000659610427009
0.000679290723513
0.000797147065958
0.000891786064617
0.000957903511944
0.00099992280473
0.00102394671167
0.00103688380071
0.00104490466639
0.00105210960341
0.00105980515675
0.00106686594925
0.00107042437163
0.00106564530347
0.00104570950885
0.00100353498153
0.000933615475687
0.000832955587703
0.00070902235677
0.000679919788985
0.000566011879771
0.000604324825058
0.000716890004833
0.000805172339057
0.000866225816699
0.00090547890731
0.000929278120042
0.000943398629299
0.00095246497583
0.000959248918359
0.000964788963245
0.000968610547493
0.000968730378838
0.000961394049908
0.00094128728324
0.00090230862425
0.000838506964112
0.000745478131336
0.000627653612659
0.000580086444212
0.000422612468802
0.000499507663101
0.00060998289722
0.000692341291254
0.00074810044229
0.000783646386259
0.000805277144451
0.000818208673562
0.000826220768073
0.000831648996776
0.00083554432186
0.000837692573333
0.000836528112629
0.000829014393162
0.000810639868389
0.000775681948702
0.000717697989283
0.00063069693253
0.000514402283755
0.000428075449814
0.000235591335122
0.000427118282221
0.000573940144155
0.000673671142487
0.000739384579863
0.000781181810934
0.000806705824042
0.000821739949908
0.00083074086377
0.000835929829829
0.000838778808293
0.000839040035985
0.000835104521851
0.000824217084364
0.000800977197756
0.000759327083318
0.000690652573777
0.000584769113653
0.000430096959533
0.000234817928908
0.000279022530333
0.000508728812418
0.000676353371858
0.000777920197129
0.000830721466452
0.000851330372046
0.00085441782942
0.000849489199682
0.000843910918859
0.000840850520018
0.000840994600023
0.000843814319917
0.000849051089323
0.000853758482363
0.000849909610977
0.000826765584054
0.000770923308072
0.000666609892608
0.000496178681223
0.000265363477476
0.00051372420121
0.000571397039505
0.000674340198502
0.000744511074282
0.000782560279754
0.000797197998909
0.000797732388578
0.000791611312322
0.000784384373638
0.00077933713452
0.000777781427271
0.000779708919319
0.00078428957601
0.000788365983925
0.00078606037957
0.000769291371476
0.000729308951758
0.000658472799123
0.000556443506417
0.000500762386669
0.000683874731247
0.000676834757569
0.000767322773927
0.000833964838841
0.000870325439797
0.000882141807387
0.000878071234812
0.000866958572638
0.000855127439964
0.000846886070672
0.000844223735387
0.000847536514953
0.000855640456313
0.000864261620492
0.000867019610378
0.000854669816774
0.000818116532593
0.000751833293576
0.000662384865987
0.000670950426573
0.000784475848952
0.000748507171467
0.000836579623915
0.000902880101558
0.000936629829528
0.000942254490071
0.000930224364353
0.000911505571691
0.000892392613384
0.00087979502006
0.000876382635304
0.000882996436704
0.000897879667427
0.000913904902314
0.000924734346603
0.000919183670127
0.000886614013075
0.000821978009967
0.000735331233721
0.000773422691029
0.000832898039476
0.000787264170869
0.000876098860104
0.000941377461011
0.000969687417742
0.000966040075004
0.000944234248665
0.000918694865709
0.000888320753197
0.000870149197701
0.000866720774425
0.000879074973359
0.000905941845788
0.000928977845267
0.000949687474609
0.000953536903841
0.000926948856116
0.000864148036168
0.000777134479868
0.000826205803006
0.000847084941994
0.000801440160271
0.000890826506825
0.000952741466317
0.000972652084587
0.000957400387715
0.000929290438637
0.000920328625664
0.000859946029839
0.000831936671274
0.000828951428148
0.000851763584271
0.000911754437268
0.000918444103758
0.000946054696394
0.000961603287299
0.000943435510319
0.000884027231064
0.000796523675675
0.000847493311508
0.000843561397022
0.000800599201347
0.000888711342037
0.000944838506413
0.000954468374816
0.000930705107306
0.000938245705066
0.00134736962925
0.00108424452927
0.0010229402438
0.00101447415216
0.00105858683358
0.00131799379946
0.000937679530363
0.000928651990709
0.000952717431949
0.000944224072312
0.000889694629811
0.000802782555886
0.000853032475131
0.000835795526339
0.000794136401157
0.000879460079748
0.000928649378507
0.000928193794795
0.000910181696206
0.00127256964722
0.00133926030944
0.000929908087726
0.000940584174293
0.000939658385752
0.000889954575606
0.000804189853806
0.00085341130301
0.00083209323441
0.000789814755848
0.000872940903683
0.000916789856728
0.000904754616394
0.000853442452935
0.000969668797526
0.00105110968728
0.000887066053039
0.000931130417067
0.00093981553564
0.000893231925606
0.000807746233519
0.000857659304615
0.000837737917961
0.00079246555959
0.000875938950678
0.000920141216964
0.000908323499745
0.000857267311448
0.000967472079492
0.00106699975269
0.000904437447326
0.000947493538265
0.000954392901288
0.000905477797877
0.00081778184425
0.000869628494112
0.000854529731596
0.000803400414449
0.000890005484799
0.000940771673667
0.00094203476241
0.000928859675082
0.00128423120966
0.00143036396959
0.000987979811433
0.000992505217953
0.000985160304166
0.000927968335754
0.000835413903787
0.000890833492199
0.000880443947758
0.000820549311965
0.000911921930975
0.000972203970509
0.000985871152235
0.000970123115473
0.000996254763912
0.00142833004772
0.00119373771414
0.00117383776038
0.00119473167667
0.00127564563761
0.00162281486179
0.00106887414305
0.00103438658014
0.00104588698452
0.00102522081108
0.000957072195233
0.000858393204602
0.000919473106264
0.000909156393403
0.000838932566042
0.00093533243808
0.00100680278111
0.00103634276289
0.00103303467002
0.00102566965693
0.00104611167211
0.000998810132701
0.000985793704096
0.000997415218055
0.00103301947261
0.00109893858663
0.0010890842382
0.00110130194359
0.00110171854495
0.00106522246142
0.000985452273283
0.000881110122421
0.00094908350659
0.000929947613254
0.000851022969481
0.00095118279253
0.00103286767599
0.00107823227224
0.00109182910909
0.00108920811134
0.00108513744471
0.00107144725203
0.00106918512407
0.00108098268311
0.0011053851686
0.00113682311839
0.00115354793653
0.00116102809554
0.00114520906854
0.00109346764503
0.0010038223743
0.000895836491209
0.000969423423692
0.000929918782388
0.000848696001675
0.00095058766873
0.00103903946006
0.00109701110067
0.00112633343034
0.00113669342495
0.00113895413365
0.00113824951738
0.00114213605442
0.0011533401543
0.00117020749475
0.00118771082374
0.00119705419339
0.00119174358903
0.00116152383235
0.00109863981613
0.00100313873196
0.00089407274654
0.000967968164613
0.000898544605782
0.000824830046108
0.000926980528442
0.0010175473525
0.00108195647377
0.00112153955484
0.00114265265362
0.00115329885286
0.00115985865011
0.00116713814256
0.00117687541156
0.00118776930543
0.00119616095647
0.00119616120587
0.00118055446124
0.00114141302985
0.00107332421129
0.00097663264147
0.000868334228522
0.000934075426572
0.000825528786669
0.00077345820189
0.000876146692904
0.000965941689984
0.00103102476455
0.00107384071148
0.00109977820719
0.00111505405867
0.00112515366817
0.00113363505913
0.00114166189342
0.00114848416462
0.00115138393078
0.00114566055563
0.00112504990376
0.00108312452169
0.00101506559487
0.00092003413292
0.000812084065785
0.000855806657639
0.000700165574389
0.000689875687129
0.000796371796906
0.000885450043831
0.000949259480505
0.000991508015668
0.00101797073504
0.00103430655027
0.00104505573407
0.00105301483864
0.00105933742964
0.00106356735738
0.00106353416442
0.00105533283069
0.0010336168034
0.000992368655751
0.000926131528437
0.000832256513665
0.000720374543147
0.000721010674758
0.00051000285784
0.00057690587957
0.000697002591232
0.000789447473679
0.000853539639448
0.000895348144366
0.000921467578704
0.000937529577526
0.00094774583202
0.00095474493418
0.000959746581018
0.00096245761167
0.000960987985483
0.000951809707693
0.00092986727203
0.000888867147799
0.000822057909925
0.000723876464812
0.000596649826091
0.000518891805608
0.000264685025287
0.000515449844817
0.000709995399171
0.000843635946365
0.000932790392929
0.000990172241364
0.00102566350474
0.00104727601124
0.00106019917581
0.00106827959025
0.00107257497679
0.00107343105031
0.00106812632456
0.00105261996852
0.00102046784937
0.000962641365465
0.000868920244105
0.000726358046366
0.000520922012161
0.000265484540643
0.000305125506926
0.000577063094838
0.00077834909126
0.000902110487743
0.000967639228852
0.000993252740508
0.000995204952892
0.000986485293493
0.000977211190898
0.00097153623677
0.000970898283469
0.000975211615461
0.000983657808766
0.000991824912235
0.000988703377896
0.000960465297937
0.000891903688674
0.000765060223591
0.000560767136398
0.000287339417321
0.000582760649985
0.000635330665505
0.000747137928619
0.0008249901497
0.000867885609301
0.000884324281574
0.000884264057841
0.000876377234623
0.000867326445657
0.000861094520092
0.000859355738682
0.000862068370394
0.000867856258492
0.000872858118481
0.000870288296408
0.000851131835022
0.000806089425248
0.000727673189712
0.000617101429368
0.000566579426896
0.000787090348937
0.000749919641417
0.0008389677647
0.000907246690775
0.000945059333286
0.000957421083071
0.000953084851831
0.0009410721268
0.000928147901328
0.00091936505441
0.000916932850882
0.000920965463302
0.000929888110103
0.000938701590978
0.000940910066668
0.000927229168352
0.000888773742705
0.000820808449595
0.000732754908044
0.000771260820487
0.000910069196907
0.000829345198077
0.000909802833966
0.00097392604201
0.00100732650034
0.00101345599082
0.00100214316587
0.000983483195607
0.000963386215677
0.000950430999587
0.000947604156919
0.000955248482686