/*--------------------------------*- C++ -*----------------------------------*\
| =========                 |                                                 |
| \\      /  F ield         | OpenFOAM: The Open Source CFD Toolbox           |
|  \\    /   O peration     | Version:  2.4.0                                 |
|   \\  /    A nd           | Web:      www.OpenFOAM.org                      |
|    \\/     M anipulation  |                                                 |
\*---------------------------------------------------------------------------*/
FoamFile
{
    version     2.0;
    format      ascii;
    class       volScalarField;
    location    "5.875";
    object      p_rgh;
}
// * * * * * * * * * * * * * * * * * * * * * * * * * * * * * * * * * * * * * //

dimensions      [1 -1 -2 0 0 0 0];

internalField   nonuniform List<scalar> 
4608
(
0
-0.0350011
-0.0463464
-0.0517242
-0.00325962
0.00970338
0.0404494
0.0288956
0.0612019
0.127256
0.185897
0.278597
2.08169
2.05911
2.06633
2.12916
2.18552
2.25967
2.3288
2.49186
2.54826
2.60574
2.70896
2.81205
3.68914
3.71898
3.79187
3.93154
4.07596
4.23408
4.42276
4.66946
4.74042
4.91203
5.07517
5.22526
5.62397
5.69639
5.8481
6.05428
6.31244
6.57383
6.86092
7.23096
7.36774
7.63857
7.86052
8.06375
7.73597
7.86614
8.10453
8.45324
8.76335
9.13074
9.49823
9.87297
10.2399
10.542
10.9909
11.2697
10.0421
10.2406
10.5655
11.0939
11.412
11.8864
12.361
12.8386
13.3001
13.7144
14.1512
14.4644
12.5456
12.8267
13.2691
13.8327
14.2543
14.8054
15.3701
15.9543
16.547
17.018
17.3839
17.7406
15.2427
15.6439
16.2182
16.7965
17.2546
17.8384
18.4543
19.1388
19.9034
20.3975
20.9174
21.0992
18.1289
18.7368
19.2954
19.943
20.4308
20.9853
22.2758
22.9434
23.3988
23.7761
24.0177
24.3456
21.1557
22.1056
22.7263
23.3977
23.7011
24.1723
24.9895
26.4265
27.3937
28.0137
28.1012
27.9486
24.1855
25.7251
26.3433
26.9621
26.896
27.1191
28.1175
29.0563
29.6151
30.1576
30.3528
30.4069
26.4919
29.1438
29.6368
30.1313
29.5476
29.1955
30.5418
31.7289
32.4275
33.0529
33.0499
32.6468
0.442338
0.422462
0.506963
0.615775
0.712564
0.791654
0.845628
0.895324
0.961585
0.901994
0.906819
1.12061
2.91426
3.02239
3.08387
3.11185
3.10992
3.07829
3.04985
3.21354
2.95733
2.91827
2.91427
2.80083
5.35057
5.4338
5.49904
5.51243
5.46564
5.36012
5.20624
5.22295
5.35777
4.95866
4.71789
4.92647
8.24921
8.3763
8.42334
8.39789
8.28694
8.08824
7.79902
7.428
6.9466
7.23393
6.68452
7.10936
11.3881
11.5182
11.5647
11.5319
11.3912
11.1422
10.7696
10.2582
9.63229
8.89961
9.7754
8.97629
14.7079
14.8187
14.8407
14.8184
14.6938
14.4707
14.1345
13.6599
13.08
12.4101
14.3854
14.1133
17.9895
18.1276
18.1097
18.1129
18.015
17.862
17.6425
17.3067
16.8709
16.2645
16.3427
18.2307
21.2597
21.2704
21.2727
21.2668
21.189
21.1311
21.0873
20.974
20.7868
20.3641
20.1411
22.1717
24.4268
24.5466
24.712
24.4232
24.1417
24.1472
24.3102
24.4825
24.6263
24.4953
24.3113
23.5593
27.4097
27.3378
27.1549
27.0079
26.7341
26.7668
27.1874
27.7198
28.2856
28.5854
28.77
28.2225
30.1121
29.8709
29.6311
29.3949
28.9085
28.8248
29.5648
30.5339
31.5784
32.3972
33.2633
33.2283
32.1829
31.8561
31.5604
31.2485
30.4888
30.0636
31.4998
32.8975
34.2941
35.4321
37.2083
38.3952
1.37461
1.35027
1.32681
1.29417
1.63864
1.38754
1.44974
1.50147
1.42345
1.90058
1.78532
1.71738
3.50268
3.46608
3.4578
3.54272
3.50245
3.57165
3.61893
3.79929
3.95572
4.07117
4.18842
4.29782
5.16501
5.16282
5.19724
5.29716
5.38277
5.46971
6.75104
6.33328
6.33954
6.51163
6.65598
6.77531
7.21762
7.2426
7.33857
7.4838
7.69208
8.06819
8.93952
9.16598
9.10642
9.30022
9.47907
9.64267
9.40695
9.48181
9.68363
9.99173
10.2559
10.7734
11.6788
11.9847
11.9256
12.1529
12.4019
12.6245
11.8102
11.939
12.3055
12.6395
13.0206
13.4897
14.5024
15.0317
14.7491
15.0993
15.4266
15.7076
14.4125
14.6217
15.078
15.4494
15.9381
16.4271
16.9358
17.415
17.7938
18.1919
18.5437
18.8497
17.1877
17.5607
18.04
18.5115
19.0585
19.5934
20.1037
20.5734
20.9841
21.3634
21.696
21.9963
20.1106
20.6935
21.203
21.7831
22.3594
22.9024
23.3908
23.8218
24.2112
24.5618
24.831
25.1113
23.1477
23.978
24.5302
25.216
25.7773
26.2796
26.7059
27.059
27.3571
27.6322
27.8214
28.0666
26.1612
27.4814
28.0109
28.6914
29.1723
29.5748
29.9004
30.1226
30.3083
30.4936
30.5781
30.8059
28.275
30.7808
31.1925
31.835
32.2194
32.4939
32.7304
32.7791
32.8537
32.9298
32.9138
33.166
1.78301
1.85569
1.95405
2.07342
2.2137
2.32902
2.41883
2.46971
2.47885
2.46251
2.43295
2.39948
4.39655
4.44869
4.94197
5.00933
4.713
4.70421
4.6979
4.62929
4.51836
4.40699
4.29436
4.19976
7.10143
7.27637
7.30732
7.37686
7.28534
7.03126
7.03508
6.76781
6.67178
6.37674
6.12182
5.98344
9.79855
9.90624
10.0331
10.306
9.94116
9.85694
9.71616
9.44541
9.48218
9.29915
8.53531
8.34326
12.8154
12.9634
13.0468
13.0523
12.9925
12.8602
12.6375
12.3
11.9237
11.8076
11.2922
10.6848
15.9356
16.1085
16.2137
16.2382
16.1904
16.0487
15.7962
15.4254
14.9374
14.2945
13.7598
13.2489
19.0915
19.2798
19.399
19.4409
19.4135
19.3096
19.0981
18.7719
18.3008
17.6432
16.9395
16.2103
22.2235
22.4071
22.5281
22.5756
22.5637
22.5176
22.4086
22.2081
21.8722
21.3217
20.622
20.1049
25.2946
25.4353
25.5403
25.574
25.5539
25.581
25.605
25.5982
25.5147
25.2259
24.7462
25.114
28.2004
28.2963
28.3799
28.3796
28.288
28.3924
28.5785
28.8061
29.0714
29.1774
29.1377
29.8702
30.8866
30.8977
30.946
30.9523
30.6547
30.8266
31.2127
31.6823
32.3526
32.9118
33.4935
33.9926
33.2319
33.1478
33.0966
33.0794
32.5202
32.7376
33.3999
34.0664
35.1322
36.057
37.395
38.0351
-0.421947
-0.443483
-0.464372
-0.489033
-0.532812
-0.643543
-0.14526
0.0468916
0.523634
-0.272595
0.277407
0.311584
1.73667
1.71596
1.69846
1.66963
1.72594
1.80054
1.76365
2.02047
2.15826
2.22185
2.78968
2.13059
3.30012
3.2864
3.42226
3.42809
3.55062
3.59943
3.86898
4.04045
4.23813
4.51535
4.37531
4.49398
5.48012
5.44707
5.61811
6.12376
5.81072
6.02657
6.27895
6.53472
6.93082
7.31507
7.10023
7.32711
7.86164
7.86209
8.19085
9.23319
8.23962
8.53791
8.86328
9.20236
9.7082
10.2318
10.1295
10.4101
10.3942
10.4734
11.142
11.8547
10.9195
11.2642
11.6469
12.0482
12.4601
12.8873
13.2386
13.5703
12.9023
13.0846
13.7894
14.4257
13.8695
14.2088
14.5911
15.0205
15.4744
15.9169
16.3376
16.7188
15.6221
15.9095
16.185
16.5971
16.8726
17.2395
17.633
18.0515
18.5123
18.9493
19.3934
19.7898
18.5757
18.9826
19.2994
19.7245
20.0555
20.4153
20.7793
21.1815
21.5437
21.9287
22.3737
22.7578
21.7008
22.3506
22.6634
23.0808
23.3928
23.7033
23.9866
24.2528
24.6212
24.9576
25.2924
25.6195
24.8836
25.9457
26.1573
26.5106
26.7558
26.9886
27.1495
27.3151
27.5633
27.7527
28.1169
28.4151
27.6022
29.537
29.5384
29.7325
29.8987
30.001
29.9936
30.0587
30.2922
30.4613
30.7589
31.0678
0.329648
0.286566
-0.225799
-0.183202
-0.139932
-0.12007
-0.125102
-0.199271
-0.23582
-0.0557831
-0.840152
-0.610847
2.17697
2.24521
2.27979
2.27295
2.23645
2.17456
2.10248
2.00182
1.74843
1.62861
1.60226
1.53613
4.593
4.65373
4.67056
4.64543
4.54462
4.37648
4.28561
4.2174
3.75097
3.80539
3.79528
3.46862
7.50506
7.61501
7.64374
7.58574
7.427
7.16717
6.83149
6.92914
7.75912
6.15308
5.68657
5.7591
10.64
10.7934
10.8609
10.8118
10.6561
10.3842
10.0171
9.92626
10.2615
9.77941
8.87921
7.84767
13.8543
14.0571
14.1679
14.1618
14.0446
13.7991
13.4411
12.9662
12.5767
12.313
11.8623
10.2971
17.0432
17.2901
17.4505
17.509
17.4495
17.2731
16.9248
16.4632
15.8965
15.0695
13.9655
13.2989
20.1396
20.4177
20.627
20.7402
20.7504
20.6639
20.4186
20.0179
19.5211
18.8377
18.082
16.8442
23.1137
23.4055
23.6602
23.8201
23.9092
23.8702
23.758
23.4837
23.174
22.6855
22.1655
21.3185
25.9613
26.2444
26.5424
26.7287
26.8848
26.9061
26.9077
26.8298
26.8379
26.8064
29.97
26.6043
28.6905
28.9378
29.2854
29.4669
29.6817
29.7609
29.8629
29.9001
30.3675
30.7049
32.6486
35.4013
31.3195
31.504
31.909
32.0302
32.2986
32.2906
32.4885
32.5797
33.3048
34.1139
36.4366
44.9299
2.03636
1.58026
1.58693
-0.218305
-0.642844
-0.711917
-0.708669
-0.685233
-0.641756
-0.593942
-0.535484
-0.478011
1.32343
1.2304
1.27261
1.1881
1.20513
1.2942
1.41523
1.54008
1.66889
1.79866
1.94328
2.08053
2.73132
2.75816
2.82704
2.91955
3.06371
3.23196
3.43304
3.63452
3.85617
4.05628
4.25295
4.41158
4.6517
4.79085
4.80664
5.01175
5.26185
5.53905
5.91542
6.16962
6.47015
6.76283
7.03411
7.27617
6.63152
6.85134
6.97831
7.30101
7.67722
8.07271
8.55176
8.94376
9.3118
9.68444
10.0291
10.3355
8.72439
8.97052
9.32238
9.78749
10.3246
10.8501
11.371
11.9073
12.3197
12.749
13.1503
13.5038
10.9491
11.3356
11.822
12.4304
13.192
13.8426
14.446
14.9749
15.4635
15.9157
16.3214
16.6951
13.2757
13.8512
14.4903
15.613
16.5632
17.0437
17.6818
18.2487
18.6882
19.0882
19.4897
19.8669
15.6549
16.5016
17.429
18.6396
20.1831
20.8443
21.0853
21.6062
21.9333
22.2201
22.5395
22.8856
17.9565
19.0815
20.5982
22.132
23.0479
24.1476
24.5899
24.9679
25.1142
25.207
25.4517
25.7579
20.145
21.0612
23.7223
25.5469
26.8312
27.7418
27.947
28.1631
28.0975
27.8822
28.0912
28.3799
21.9269
21.4342
26.4345
28.7546
29.6309
30.5781
30.7062
30.8762
30.7989
30.0722
30.4122
30.6707
-0.415924
-0.351252
-0.284776
-0.24312
-0.104702
0.739786
1.24038
1.02646
0.951739
0.863028
0.686357
0.713974
2.15855
2.24806
2.29754
2.30903
2.28712
2.31256
2.34737
2.1658
2.31308
2.72691
2.06188
2.01248
4.55426
4.65727
4.71368
4.74954
4.72162
4.65444
4.54565
4.35348
4.11586
3.76911
4.42419
4.50721
7.47883
7.63004
7.73102
7.74062
7.68551
7.5556
7.34869
7.06517
6.69757
6.85812
6.2391
5.92771
10.5932
10.7873
10.9099
10.9374
10.8833
10.7258
10.4622
10.0886
9.61364
9.13452
9.46184
9.78357
13.809
14.0454
14.2008
14.2971
14.2425
14.0656
13.7868
13.3688
12.813
12.1234
11.3552
10.8402
17.028
17.2935
17.4727
17.5862
17.5551
17.4281
17.1741
16.779
16.2463
15.4871
14.5957
13.5476
20.1826
20.4507
20.6427
20.7402
20.7416
20.6477
20.4846
20.1789
19.7899
19.1342
18.3117
17.2009
23.2103
23.4689
23.6459
23.7287
23.7246
23.6616
23.5904
23.4454
23.3055
22.9092
22.4524
21.4286
26.0479
26.2951
26.4365
26.4701
26.4602
26.398
26.4307
26.4563
26.6342
26.6088
26.8597
26.1043
28.6481
28.8569
28.9504
28.9215
28.8577
28.8067
28.9255
29.0912
29.5911
29.9701
30.8945
31.0852
30.9106
31.0931
31.146
30.9844
30.9197
30.8342
31.0186
31.2363
31.9711
32.6033
34.3614
36.1734
30.6144
31.6746
31.6501
31.813
32.364
30.2851
32.2317
33.3018
34.0175
34.6535
34.44
33.9759
31.6027
32.5877
32.476
32.5276
32.1471
38.5278
36.7954
35.0498
34.895
35.5009
35.2427
34.6952
32.5371
33.3135
33.1254
33.1524
32.7477
32.7252
38.2814
37.6563
35.8609
36.2332
35.827
35.3135
33.2701
33.9504
33.6861
33.6973
33.3702
33.8425
37.0354
38.259
37.0968
37.3499
36.4228
35.7668
33.8729
34.5407
34.2157
34.1971
33.9652
34.4663
37.2656
38.7596
38.0001
38.7499
37.9052
36.426
34.46
35.1244
34.7293
34.6702
34.4889
34.8781
37.5149
39.3945
38.8612
40.1004
39.8148
37.8294
36.3484
36.0401
35.4075
35.1153
34.9953
35.3082
37.4058
40.0861
39.6273
41.4349
41.3323
40.0352
35.384
37.6316
36.5132
35.5431
35.487
35.6932
37.0942
40.8073
40.3136
42.6411
43.0257
43.5019
35.8097
38.058
38.2135
35.8772
35.936
36.0942
37.1023
40.9856
40.9372
43.5938
44.5286
44.6713
36.1195
37.6224
38.7355
37.3081
36.2959
36.5218
36.7145
39.5511
41.2778
44.0787
44.6987
40.5637
36.4632
37.3812
37.7807
38.1752
36.9639
36.7879
36.787
38.3083
40.1612
43.8658
45.0575
40.6425
36.7504
37.9936
38.0295
37.1901
37.3946
38.0732
37.0922
38.4655
43.0069
45.2145
45.205
39.679
33.3388
32.9206
32.6614
32.0863
31.9128
34.2106
35.2772
35.1809
35.6174
36.5105
37.683
37.6084
33.9416
33.481
33.2501
32.5844
32.4827
39.1452
38.5327
36.774
36.3312
36.7437
37.5273
37.0387
34.427
33.943
33.7435
33.1767
33.216
35.4498
38.5672
37.5733
37.3129
37.5086
37.765
36.7802
34.7997
34.35
34.1819
33.7283
33.7969
35.9363
38.586
38.11
38.0135
38.0429
38.1014
37.4648
35.0779
34.71
34.586
34.2361
34.2806
35.8184
38.8964
38.5809
38.5714
38.445
38.376
38.1691
35.3194
35.0312
34.9511
34.7677
34.81
35.6717
39.1069
38.997
39.0612
38.7382
38.634
38.8803
35.5025
35.3192
35.2893
35.3231
35.3687
35.8227
39.0584
39.4104
39.5475
38.92
38.616
39.5608
35.7652
35.577
35.6006
35.9097
35.9379
35.8619
38.502
39.768
40.0762
38.9476
38.5047
40.4051
37.2069
35.9104
35.9099
36.5543
36.5223
35.728
37.1884
39.8246
40.7206
38.7551
38.1687
41.3397
35.8301
36.2109
36.1775
37.2756
37.0961
36.0133
36.5045
38.4868
40.5365
38.0826
37.4473
42.2544
36.7378
36.114
36.393
38.1068
37.6472
36.099
36.6027
38.2284
41.1729
45.8141
46.574
42.5058
36.6147
36.4089
36.4031
39.1141
38.1112
37.21
36.5029
38.0471
41.6678
45.4973
43.5488
42.1736
32.1947
33.3147
33.2938
33.7017
33.9906
34.1403
34.3801
34.2799
34.3195
34.3155
34.233
34.5631
33.3365
34.1457
34.0665
34.5357
34.8112
34.9652
35.2696
35.0718
35.1224
35.0434
34.942
35.32
33.7223
34.3407
34.66
34.9762
35.1505
35.3835
35.7192
35.2072
35.3094
35.1225
35.1613
35.7591
35.3827
35.4677
35.8171
36.0815
36.0791
36.3016
36.8199
35.7095
35.8233
35.5056
35.7467
36.7468
37.0435
36.5604
36.9315
37.2891
37.128
37.3996
38.1422
36.5318
36.8797
36.2692
36.664
38.0591
38.5027
37.4732
37.9245
38.4596
37.996
38.4382
39.4152
37.144
37.843
36.8347
37.4681
39.3601
39.8813
38.2511
38.8194
39.6512
38.6874
39.4905
40.6804
37.5295
38.7692
37.1623
38.1535
40.6936
41.283
38.9134
39.6254
40.9058
39.17
40.629
41.986
37.6763
39.7519
37.1962
38.7288
42.1489
42.8208
39.452
40.335
42.2309
39.6476
41.8787
43.2096
37.5484
40.892
36.817
39.1463
43.7219
44.0817
39.5591
40.4784
43.2058
39.7985
43.7294
44.4723
36.3578
41.4414
35.3008
38.9658
45.5632
45.1621
38.9345
39.9316
43.4962
43.9682
45.8362
46.7294
47.8521
48.0815
49.8066
51.2598
51.1405
43.768
38.6049
40.3687
45.4249
40.861
42.3623
44.4868
44.8295
46.3502
45.6264
49.6594
49.5392
34.6501
34.5016
34.3745
34.3008
33.654
34.0251
35.5759
35.5825
36.6885
37.5825
38.4501
38.5392
35.4404
35.2363
34.9493
34.574
34.147
35.393
37.8507
37.0669
37.5514
37.946
38.6051
38.5753
35.6587
35.3054
35.0581
34.6517
35.0291
36.3787
39.9496
38.3142
38.7755
38.2053
38.53
38.2639
36.7394
36.3948
36.0794
35.668
35.5308
32.377
36.0704
38.0885
40.2094
39.5335
38.8216
37.1009
38.0798
37.4921
36.9278
36.1598
35.691
37.7362
39.5409
39.932
39.6934
40.179
39.3593
37.2829
39.3342
38.428
37.569
36.65
36.059
37.7049
41.4556
41.4649
41.3933
40.3171
39.9242
37.4709
40.5446
39.2245
38.0384
37.141
37.0538
37.3332
41.71
41.9564
43.108
41.0341
40.5993
37.4022
41.7993
39.9155
38.4159
37.5009
37.7057
37.5437
42.1398
42.526
44.2756
42.0795
41.1691
36.9877
43.0749
40.5414
38.7266
37.7384
38.2386
36.8702
42.4854
43.1376
45.5117
43.1466
41.3742
36.0722
44.964
41.7665
39.1479
37.8614
38.681
35.919
42.647
43.8114
47.0148
46.0628
41.9796
34.2068
46.9734
50.1873
45.6205
37.6307
38.9861
34.8427
42.3165
44.5471
48.5208
47.4198
55.6535
45.4601
46.9844
49.586
51.9728
38.3025
37.9605
33.4224
38.9967
45.1031
49.8769
47.3386
37.972
36.7814
31.6838
32.3505
31.7964
31.9648
31.9179
31.963
31.8358
31.8488
32.0528
32.2064
32.6324
32.9845
33.3336
33.5892
33.2023
33.1511
33.1322
33.0726
33.0884
33.1588
33.3221
33.2778
33.763
34.235
34.0646
34.291
34.0788
34.0179
34.0745
34.3084
34.7686
34.9321
34.7891
34.3967
34.8343
35.4202
33.7379
34.5082
35.0947
35.3003
35.4728
35.8856
36.4384
36.5217
36.4044
36.0239
36.1138
36.4598
34.7918
35.5645
36.8271
37.1247
37.3477
37.5606
37.9769
37.9325
37.8488
37.3309
36.884
36.6348
35.6916
36.4771
38.513
38.8708
38.9917
39.0421
39.3404
39.1909
39.1203
38.4499
37.7464
36.8229
36.2618
37.1989
40.1883
40.5782
40.5256
40.41
40.5468
40.3013
40.2476
39.5006
39.113
38.4202
36.5049
37.7507
41.931
42.3173
41.9888
41.7206
41.5977
41.2818
41.2346
40.3823
40.2811
39.6278
36.4272
38.2825
43.8142
44.1241
43.3823
43.0175
42.4744
42.1482
42.0662
41.0588
41.2079
40.5952
36.0377
38.4711
46.209
46.6166
45.0913
44.3707
43.0862
42.9208
42.7071
41.497
41.9381
41.3826
35.3949
38.3376
48.7888
48.8479
46.2888
45.8363
43.3241
43.674
43.089
41.6543
42.5045
41.9524
35.3268
36.9208
52.0279
52.0381
47.7283
47.5882
42.8494
44.5182
43.1428
41.6815
43.8256
42.3676
33.1554
33.2813
33.7778
33.8368
34.1355
33.9999
34.2302
34.2466
34.9722
35.8753
37.7005
38.9601
34.3408
34.4179
34.988
34.9771
35.295
35.0685
35.3095
35.2409
35.9449
36.8081
38.1035
38.8779
35.4478
35.4814
36.1436
36.0539
36.3863
36.0576
36.3072
36.1205
36.7915
37.5237
38.372
39.1957
36.4302
36.4515
37.2376
37.0724
37.4244
36.976
37.2201
36.8988
37.5146
38.0575
38.5776
39.3981
37.122
37.295
38.2457
37.9945
38.3933
37.8152
38.0332
37.5651
38.1226
38.4546
38.6721
39.4301
37.8513
38.6019
39.0695
38.819
39.3105
38.5943
38.7467
38.1185
38.6056
38.7509
38.6321
39.4123
39.4097
39.5829
39.2919
39.0478
40.0141
39.2378
39.4185
38.6407
38.9967
38.9126
38.4392
39.3713
40.1541
38.8103
39.5489
39.7168
40.933
39.8822
40.4213
39.8156
40.0951
38.9784
38.0239
39.3176
40.7185
39.801
40.8805
40.9038
42.6194
41.3267
41.5201
40.6947
46.7472
49.8648
38.5698
39.2561
41.5592
41.1712
42.2774
42.1066
44.4229
42.8619
42.4072
40.392
44.4306
49.2897
41.0942
39.1728
42.0532
42.3616
43.0513
43.1235
46.2988
44.1097
43.0684
40.1911
43.896
37.4711
37.1195
38.3388
42.61
43.961
44.2676
43.7323
47.5771
44.8177
42.899
52.6018
49.2712
37.499
36.9081
41.9971
35.0466
47.4124
34.3524
33.1455
32.1586
32.1377
32.4431
32.6225
33.1613
33.1743
32.0144
32.0926
32.9982
39.2518
36.9966
34.9338
33.7697
33.0499
33.2041
33.5431
34.1354
33.8983
32.9498
32.8434
34.6352
37.3108
35.9356
36.0596
35.1106
34.54
34.4371
34.3648
35.1761
35.6029
33.8429
33.6097
35.8337
37.7378
36.6161
36.9831
36.2423
35.7559
35.5846
35.1297
34.1615
34.7037
34.1568
34.4227
36.683
38.0134
37.2482
37.4214
37.2111
36.764
36.5867
36.1529
35.1715
35.257
35.0716
35.5756
37.3182
38.2937
37.9258
37.7493
37.8847
37.6354
37.4589
37.0681
36.3005
36.2335
36.1677
36.6774
37.7542
38.5959
38.51
38.1942
38.0959
38.3645
38.2217
37.879
37.2497
37.1067
37.1296
37.6508
38.0128
38.8767
39.0592
38.7394
38.1462
38.5538
38.9373
38.612
38.0352
37.8621
37.9577
38.4779
38.0756
39.1881
39.5692
39.0765
39.4624
38.3222
38.784
38.9496
38.6184
38.4662
38.6086
39.1064
37.9438
39.4486
40.0918
39.2348
39.4215
39.6575
38.5805
38.4637
38.1859
38.2304
38.5072
38.9537
37.5323
39.753
40.6504
39.4863
40.7131
39.809
39.0601
38.7079
38.2066
38.1479
38.434
38.9228
42.8351
39.9356
41.0777
39.5532
40.8087
41.0602
39.0661
38.6376
38.3201
38.5298
38.6494
38.9669
32.3299
32.4163
32.4547
32.1925
32.1454
32.191
33.5973
34.0685
33.5673
33.6807
35.0216
35.0317
33.1564
33.1894
33.2457
32.8779
32.8696
34.3425
34.5491
34.8789
35.9797
35.4016
35.15
34.9902
33.86
33.8377
33.942
33.46
33.5246
33.6626
33.8256
34.1276
34.2714
34.6827
35.2806
35.2629
34.6118
34.4137
34.5598
33.9482
34.1161
34.1251
34.2375
34.5412
34.6866
35.0309
35.4279
35.512
36.0254
35.9718
35.3285
34.3415
34.6726
34.6463
34.6867
34.9371
35.0323
35.3339
35.5897
35.6538
37.4024
37.8064
37.0174
34.7346
35.19
35.1101
35.1024
35.2746
35.3043
35.5899
35.6279
36.2849
38.6902
39.308
41.6511
35.4654
35.6747
35.5222
35.492
35.5489
35.5203
35.8155
35.7289
35.8058
39.672
40.4886
46.0378
38.3891
36.1909
35.8923
35.8676
35.7465
35.6981
36.0113
35.8448
35.906
40.2379
40.3653
39.239
38.2055
36.8693
36.2065
36.2472
35.8339
35.8557
36.1844
35.9621
36.0063
39.8745
39.7126
38.1729
36.5739
36.9913
36.6807
36.7051
35.7271
36.015
36.3416
36.0658
36.1436
39.9321
39.9496
39.8833
37.7077
37.6853
36.8131
39.1652
37.9788
36.2145
36.4896
36.1489
36.2584
40.2052
40.2784
38.5954
36.6237
37.8889
37.0218
37.0472
37.3719
36.5205
37.222
36.4002
36.3528
37.045
38.2252
38.2255
37.5728
37.12
37.017
37.396
38.4011
41.7346
45.7881
38.9195
36.5676
37.2775
37.9028
38.1532
37.7533
37.4268
37.3562
37.6339
38.2933
39.0962
38.086
41.6228
40.1307
37.5626
37.995
38.147
37.89
37.6583
37.609
37.8001
38.2287
38.6494
37.1927
33.8348
34.8713
37.7587
38.0827
38.1768
38.0073
37.8352
37.7944
37.9154
38.1844
38.3627
37.0242
34.6932
35.1229
37.9341
38.1587
38.2166
38.1033
37.9722
37.9325
37.9964
38.1441
38.149
36.9767
35.3193
35.4167
38.0588
38.2148
38.2568
38.1798
38.0773
38.0349
38.0521
38.1045
37.9926
36.9741
35.7652
35.6466
38.1563
38.2672
38.293
38.2391
38.1562
38.1087
38.0872
38.0657
37.8766
36.9903
36.079
35.8185
38.2339
38.31
38.3232
38.2834
38.2129
38.159
38.1059
38.0276
37.7882
37.0099
36.295
35.9372
38.2932
38.3433
38.3469
38.3148
38.2517
38.1907
38.1118
37.9902
37.7185
37.025
36.4395
36.0093
38.3379
38.3684
38.3643
38.3354
38.2761
38.208
38.1082
37.9534
37.6614
37.0323
36.5313
36.046
38.3712
38.3868
38.3761
38.3474
38.2892
38.2142
38.0976
37.9177
37.6132
37.0315
36.5835
36.0546
38.3956
38.3997
38.3833
38.3528
38.294
38.2126
38.0825
37.8835
37.5719
37.0251
36.605
35.988
36.2781
36.9014
46.7161
44.2487
42.0609
36.7415
36.7986
38.1046
40.7426
53.249
51.5853
42.9251
36.2794
36.8103
38.0322
42.8706
42.3671
37.1806
37.3509
38.4927
38.6797
40.1145
40.322
42.6153
36.1712
37.017
37.8291
37.676
37.6889
38.4796
37.7415
38.4224
38.6613
39.8952
40.1107
40.1116
36.3282
37.2071
37.8863
37.8942
37.7306
37.6228
38.0564
38.6276
38.8793
39.8208
40.0746
40.0052
36.5512
37.387
37.9778
38.1037
37.9068
37.9195
38.2933
38.7885
39.0377
39.7834
40.0432
40.0566
36.7551
37.5539
38.0777
38.2637
38.0867
38.1443
38.4824
38.9166
39.1593
39.7647
40.0124
40.07
36.9421
37.7105
38.1769
38.3891
38.2469
38.3244
38.6283
39.0159
39.2509
39.7524
39.9804
40.0527
37.1087
37.8595
38.2694
38.4882
38.3824
38.4694
38.7411
39.0901
39.3173
39.7398
39.9447
40.0199
37.251
38.0015
38.3536
38.5667
38.4931
38.5849
38.8284
39.1445
39.3635
39.7247
39.906
39.9786
37.3689
38.1371
38.4297
38.6288
38.5838
38.6762
38.8961
39.1835
39.394
39.7066
39.8662
39.9338
37.4912
38.2687
38.4982
38.6776
38.6562
38.7481
38.9484
39.2108
39.4127
39.6863
39.827
39.8888
37.7401
38.3974
38.5579
38.7154
38.713
38.8042
38.9886
39.2293
39.4228
39.6646
39.7896
39.8457
43.3749
38.1808
40.3278
45.8272
52.2481
45.9127
45.203
43.4394
39.8011
44.1653
49.2709
50.8137
42.5288
38.5332
39.7576
38.1288
42.0073
50.2293
50.2218
47.3339
43.7082
48.1106
48.9292
52.2751
38.3896
38.5596
39.4852
38.7421
40.4372
37.8096
36.3302
41.614
45.3679
44.3585
40.8431
33.9786
38.4316
38.4332
39.3946
39.0279
40.0235
38.3462
37.5139
40.5698
39.7699
42.2068
39.6584
35.3232
38.665
38.6302
39.3525
39.2207
39.8264
38.6748
38.0695
39.9913
39.4209
40.8086
38.9312
35.8866
38.8755
38.791
39.3295
39.3562
39.7149
38.9264
38.4713
39.9408
39.5515
40.3435
38.7762
36.3131
39.0445
38.9317
39.3319
39.4477
39.6543
39.1147
38.7704
39.8909
39.6206
40.0315
38.7111
36.6573
39.178
39.0522
39.3462
39.5062
39.6236
39.2552
38.9888
39.8402
39.6389
39.783
38.6695
36.9316
39.2812
39.1523
39.366
39.542
39.6065
39.3563
39.1438
39.788
39.6253
39.5861
38.6444
37.1489
39.36
39.2344
39.3872
39.5625
39.5956
39.4265
39.2544
39.735
39.5934
39.4319
38.6298
37.3241
39.4191
39.301
39.4076
39.5727
39.5871
39.4731
39.3308
39.6824
39.5514
39.3108
38.6206
37.4938
39.4627
39.3545
39.4262
39.5762
39.5794
39.5021
39.3819
39.632
39.5053
39.2156
38.611
37.5677
47.6037
47.4266
40.0967
39.6402
38.3805
38.5934
50.7671
53.833
51.9593
49.2007
40.7458
40.4107
50.9839
48.4663
42.8133
39.8668
38.8966
38.9258
45.0362
50.8014
53.3156
49.0599
42.1637
38.5005
34.1314
35.6515
35.6307
39.1728
38.8463
38.9146
42.7183
42.8663
40.0471
39.8386
37.6638
43.9609
35.5322
36.1582
36.3452
38.5694
38.6513
38.9924
41.3833
44.7256
42.3173
41.4257
37.9784
36.6454
36.2168
36.6782
37.0333
38.5708
38.6155
39.0342
40.3852
43.2863
42.4319
43.0024
38.1454
39.5007
36.7189
37.0864
37.4918
38.5835
38.5362
39.0819
39.725
43.016
42.7719
43.3311
38.3797
38.8948
37.1046
37.4118
37.8002
38.5967
38.5674
39.1998
39.59
44.26
43.4164
43.6705
43.7169
38.285
37.4019
37.6693
38.0135
38.6092
38.5772
39.0754
39.3198
40.5754
42.8567
43.5607
42.6791
38.6922
37.6301
37.8721
38.1642
38.624
38.6016
38.9917
39.0793
43.1517
42.316
42.4075
39.1649
38.3138
37.8044
38.0325
38.2738
38.6415
38.6416
38.9699
39.2156
39.6364
44.0581
41.4911
39.1348
38.7279
37.9486
38.1643
38.3567
38.6603
38.6885
38.993
39.2783
39.4626
43.7321
41.8509
39.6046
39.097
38.1315
38.2755
38.4215
38.6799
38.7361
39.0268
39.3132
39.6235
43.2976
41.8605
40.0097
39.4578
35.6257
36.3757
54.2643
57.5657
58.3365
58.0905
59.058
57.6238
53.5229
42.645
43.3553
45.0025
43.43
49.4768
59.5998
58.5572
56.7652
56.549
55.9029
55.4207
49.9523
41.8901
42.8906
42.1509
45.1022
41.9086
39.1496
40.8168
42.8399
42.4289
46.6669
43.4713
42.8729
44.1452
42.6728
42.1898
38.9365
41.2062
39.1455
41.3591
42.6113
42.8336
45.3693
43.281
42.5514
41.8071
42.5573
42.1782
39.6428
41.3157
39.3364
41.6765
42.5293
43.0344
44.464
43.0268
42.5125
41.9526
42.4553
42.1522
39.8499
41.4681
39.6455
41.8838
42.487
43.0816
43.7825
42.7013
42.4669
42.0736
42.3664
42.1184
39.9549
41.4871
39.9804
42.0226
42.4644
43.0461
43.2153
42.3833
42.4156
42.1463
42.2823
42.0832
40.0326
41.435
40.2933
42.1228
42.4549
42.9703
42.9498
42.9968
42.8398
42.3453
42.3705
42.1561
40.1569
41.3842
40.5719
42.2024
42.456
42.8389
42.7316
43.5853
42.8327
42.4725
42.4884
42.2776
40.2892
41.3572
40.8186
42.2723
42.4803
42.6092
42.4804
43.3897
42.7955
42.4992
42.4815
42.3293
40.4153
41.354
41.0391
42.3337
42.5398
42.3362
42.6856
43.1978
42.7528
42.512
42.4728
42.3598
40.5414
41.3715
41.2386
42.3878
42.4216
42.0474
42.9522
43.0654
42.7084
42.5171
42.4618
42.3235
52.9299
54.6157
55.8304
52.6543
48.16
45.5185
45.1055
45.8157
40.3484
37.4483
37.6825
36.7376
41.507
41.0645
39.2352
50.928
48.3281
45.4652
43.9402
46.2133
41.3811
37.6479
38.045
37.4998
41.4906
41.099
39.911
41.9866
42.5184
45.0058
44.2042
43.0068
41.8923
38.4515
38.3165
38.0456
41.5351
41.1706
40.4043
41.8087
42.576
44.176
44.3757
42.5548
42.4443
38.9777
38.6694
38.4544
41.5886
41.269
40.8951
42.0304
42.5682
43.3742
42.8991
42.7097
42.558
39.5278
38.9622
38.7863
41.6409
41.369
41.2846
42.1979
42.58
43.0612
42.1791
43.5479
41.9146
41.5113
38.9941
39.0999
41.6914
41.4612
41.5921
42.3238
42.5495
43.1177
42.1066
44.2063
41.6359
42.1598
39.8295
39.3865
41.7392
41.5518
41.8363
42.4182
42.532
42.972
42.2944
42.3343
44.5473
40.5473
39.4239
39.63
41.7528
41.6417
42.0282
42.4901
42.515
42.8118
42.3077
41.833
43.8197
42.4691
39.6465
39.84
41.9867
41.6201
42.1962
42.5465
42.4918
42.6921
42.2859
41.771
42.1777
42.4541
39.9079
39.9914
42.4211
41.3003
42.3804
42.5836
42.462
42.592
42.221
41.7296
41.5868
41.3352
40.0517
40.0911
42.7708
41.7494
42.5656
42.5905
42.4265
42.5021
42.1607
41.6948
41.2394
40.6588
39.8434
40.0491
38.2119
41.8756
42.1372
42.3473
40.9152
40.1143
39.2568
38.8182
38.4098
38.4573
38.5999
39.0082
38.6179
40.0029
43.0471
41.3716
40.6871
40.1028
39.4175
38.9047
38.6301
38.6201
38.7141
39.0054
38.8774
39.548
38.6152
39.7781
40.5574
40.065
39.56
39.1222
38.8506
38.7787
38.8185
38.9755
39.0812
39.6429
39.0736
39.7951
40.3098
40.1086
39.6787
39.303
39.0308
38.9103
38.8983
38.9223
39.2766
39.7958
39.4131
39.9201
40.2375
40.0945
39.7815
39.4526
39.1739
39.0126
38.9544
38.8463
39.3779
39.5474
39.2545
39.9345
40.2353
40.1242
39.8712
39.5752
39.2898
39.0907
38.9889
38.7507
39.5266
39.897
39.7003
39.9899
40.2521
40.1441
39.9464
39.6744
39.3688
39.1399
39.0043
38.6404
39.6505
39.6168
39.7442
40.069
40.2789
40.1634
40.0078
39.7497
39.4256
39.1713
39.0061
38.5236
39.7814
39.7901
39.8549
40.1774
40.2802
40.1839
40.0478
39.7957
39.4605
39.189
39.0069
38.4089
39.8892
39.9138
39.9257
40.2285
40.3338
40.1963
40.0908
39.8317
39.4804
39.2113
39.0793
38.6295
39.9718
40.021
40.2072
40.1054
40.5247
40.3862
40.1276
39.8571
39.4969
39.1799
39.1385
38.9725
40.0097
40.0882
40.4355
40.6435
40.2742
40.3896
40.1648
39.885
39.4656
39.0479
39.0893
38.7127
40.133
40.2187
42.3759
41.234
39.1077
37.4652
37.8388
38.0766
36.9112
36.5699
36.5521
36.5903
39.7894
39.9284
39.0232
41.0244
40.1632
38.3585
38.1002
37.6201
38.497
39.5095
36.9133
36.9693
39.5975
39.7344
39.0718
38.1568
40.9023
38.4381
38.5255
37.6832
37.6797
37.5819
37.1851
37.3143
39.4387
39.6238
39.2868
38.8725
41.1917
38.9916
38.6182
37.7713
37.6871
37.5909
37.4294
37.5959
39.2919
39.5618
39.418
39.2887
41.6509
39.4552
38.6116
37.8802
37.8406
37.7748
37.666
37.8264
39.1557
39.5268
39.5579
39.5654
40.7124
41.5414
38.1689
37.9551
37.9693
37.9327
37.855
37.988
39.0305
39.5119
39.7103
39.7143
40.4386
41.7802
39.5834
38.0281
38.0832
38.0643
38.0031
38.1129
38.9014
39.5361
39.8385
39.9394
40.2147
40.1964
39.3823
38.1363
38.1814
38.171
38.125
38.2104
38.7988
39.5726
39.9788
40.1503
40.2856
40.0116
38.3535
38.2376
38.2709
38.2564
38.2194
38.2841
39.4214
39.4423
40.1101
40.3128
40.3363
40.001
38.5128
38.3384
38.3496
38.3241
38.2923
38.3389
40.0015
39.3041
40.2345
40.4287
40.3677
40.0028
38.6608
38.4275
38.4131
38.3761
38.3461
38.3788
40.1674
39.6482
39.8634
40.5147
40.3859
39.9992
38.7982
38.5094
38.4618
38.4147
38.3853
38.4072
38.4134
38.4084
38.3866
38.3532
38.2929
38.2057
38.0649
37.8519
37.5369
37.0175
36.6113
35.6023
38.4268
38.4136
38.3866
38.35
38.2879
38.1956
38.0466
37.8235
37.5085
37.0138
36.6364
35.8151
38.4483
38.4441
38.4329
38.3981
38.3095
38.184
38.0287
37.7989
37.4863
37.0159
36.6713
36.0386
38.408
38.4081
38.3931
38.3614
38.2861
38.1756
38.0123
37.7782
37.4699
37.0229
36.7071
36.1994
38.4126
38.408
38.3895
38.3534
38.2739
38.1619
37.9981
37.7616
37.4584
37.0333
36.7386
36.3163
38.4157
38.4076
38.3862
38.3472
38.2667
38.1525
37.9862
37.7487
37.4504
37.0457
36.7666
36.405
38.4183
38.4071
38.3834
38.342
38.2608
38.1449
37.977
37.7395
37.4454
37.0576
36.7905
36.4714
38.4198
38.4067
38.3812
38.3381
38.2564
38.1394
37.9706
37.7335
37.443
37.068
36.8089
36.5182
38.4219
38.4067
38.3799
38.3356
38.2537
38.1361
37.9671
37.7305
37.4425
37.0764
36.8211
36.5472
38.4241
38.4071
38.3794
38.3347
38.2529
38.1354
37.9664
37.7305
37.4435
37.0825
36.8271
36.559
38.4265
38.4081
38.3798
38.3353
38.2541
38.1372
37.9686
37.7332
37.446
37.0861
36.8274
36.5544
38.4287
38.4092
38.3808
38.337
38.2564
38.1404
37.9726
37.7375
37.4494
37.0871
36.8243
36.5373
38.2644
38.5119
38.6072
38.7442
38.7572
38.8478
39.0195
39.2413
39.4268
39.6425
39.7547
39.806
38.4686
38.5883
38.6448
38.7653
38.7911
38.8815
39.043
39.2486
39.4267
39.6209
39.7231
39.7701
38.5271
38.6308
38.6716
38.7804
38.817
38.9075
39.0609
39.2526
39.4239
39.6006
39.6948
39.7386
38.5603
38.6548
38.6901
38.7907
38.8365
38.9275
39.0744
39.2545
39.4196
39.582
39.6701
39.7113
38.5876
38.6693
38.7026
38.7977
38.8513
38.9427
39.0846
39.2549
39.4147
39.5654
39.6489
39.6883
38.6076
38.6781
38.7111
38.8022
38.8624
38.9544
39.0923
39.2544
39.4097
39.551
39.6312
39.6692
38.6201
38.6831
38.7168
38.805
38.8706
38.9633
39.0981
39.2536
39.405