/*--------------------------------*- C++ -*----------------------------------*\
| =========                 |                                                 |
| \\      /  F ield         | OpenFOAM: The Open Source CFD Toolbox           |
|  \\    /   O peration     | Version:  v1606+                                |
|   \\  /    A nd           | Web:      www.OpenFOAM.com                      |
|    \\/     M anipulation  |                                                 |
\*---------------------------------------------------------------------------*/
FoamFile
{
    version     2.0;
    format      ascii;
    class       volScalarField;
    location    "0.75";
    object      alpha.water;
}
// * * * * * * * * * * * * * * * * * * * * * * * * * * * * * * * * * * * * * //

dimensions      [0 0 0 0 0 0 0];

internalField   nonuniform List<scalar> 
2268
(
1
1
1
1
1
1
1
1
1
1
1
1
1
1
1
0.999811
0.974194
0.953473
0.973132
0.997843
0.997843
0.997708
0.997074
1
1
1
1
1
1
1
1
1
1
1
1
1
1
1
0.999999
0.988826
0.953494
0.94816
0.964135
0.968413
0.968822
0.996407
1
1
1
1
1
1
1
1
1
1
1
1
1
1
1
1
0.999993
0.98807
0.948062
0.941922
0.941919
0.943604
0.999158
1
1
1
1
1
1
1
1
1
1
1
1
1
1
1
1
1
1
0.99502
0.978091
0.950142
0.999358
0.999933
1
1
1
1
1
1
1
1
1
1
1
1
1
1
1
1
1
1
1
1
1
1
1
1
1
1
1
1
1
1
1
1
1
1
1
1
1
1
1
1
1
1
1
1
1
0.999988
1
1
1
1
1
1
1
1
1
1
1
1
1
1
1
1
1
1
1
1
1
1
0.999958
1
1
0.985334
0.968984
0.946468
0.92949
0.944179
0.996187
1
1
1
1
1
1
1
1
1
1
1
1
1
1
0.999961
0.974262
0.999762
0.999891
0.999505
0.952513
0.906279
0.912965
0.723035
0.71364
0.911773
0.911829
0.911776
0.911728
0.909475
0.902468
0.90089
0.902631
0.902629
0.829324
0.974454
0.999891
0.999895
0.999968
0.999971
0.999971
0.999971
0.807426
0.7285
0.911773
0.911874
0.768514
0.612741
0.518853
0.478304
0.515082
0.716273
0.896396
0.910836
0.974487
0.999844
0.999861
0.99995
0.999811
0.999971
0.974875
0.901639
0.902123
0.806107
0.218504
0.0940676
0.095526
0.112667
0.22152
0.140742
0.0909986
0.337139
0.910038
0.977018
0.997928
0.839271
0.928166
0.998776
0.999971
0.96219
0.965891
0.828078
0.228639
0.0217061
0.0358278
0.0822009
0.614355
0.803951
0.770429
0.14833
0.0478578
0.397046
0.994483
0.966069
0.664004
0.808452
0.998596
0.999963
0.99993
0.967153
0.506774
0.0134151
0.016485
0.0273711
0.257267
0.803632
0.80326
0.804233
0.294698
0.0384563
0.0382889
0.994483
0.681586
0.664004
0.854514
0.998812
0.999885
0.999774
0.790305
0.0208817
0.00742204
0.0125833
0.0539259
0.635547
0.80148
0.804004
0.801533
0.727925
0.071698
0.0382889
0.838364
0.65953
0.719229
0.961418
0.998968
0.999643
0.985947
0.538657
0.00540575
0.00503737
0.00891627
0.0664125
0.798201
0.798217
0.80148
0.798631
0.797245
0.103968
0.0837133
0.685069
0.808707
0.896938
0.730532
0.934953
0.999068
0.915469
0.255695
0.00215433
0.00350379
0.00590911
0.0682682
0.798566
0.798052
0.810053
0.797833
0.790708
0.119562
0.460199
0.429437
0.400524
0.376388
0.384609
0.455726
0.604791
0.77645
0.908631
0.977773
1
1
1
1
1
1
1
1
1
1
1
0.999999
0.999999
0.999978
0.054304
0.0369842
0.0580086
0.0797509
0.106312
0.160613
0.255317
0.368705
0.492176
0.630372
0.770395
0.857521
0.891717
0.913969
0.953561
0.977952
0.986182
0.987046
0.993837
0.999982
0.997978
0.992293
0.994873
8.6105e-05
6.16713e-06
3.95348e-06
5.18605e-06
4.97084e-06
7.91431e-06
0.000552362
0.00676778
0.0229217
0.0778232
0.173841
0.25751
0.303744
0.347192
0.422933
0.501911
0.561988
0.630522
0.678011
0.647595
0.510472
0.430685
0.46056
9.44211e-06
9.90315e-07
3.57357e-07
3.81732e-07
2.20319e-07
4.94424e-06
3.12478e-05
3.10574e-07
3.37426e-06
3.81893e-05
0.0264429
0.0850276
0.0968374
0.0798038
0.0861137
0.228898
0.358307
0.359797
0.125171
0.00609279
0.000751489
0.000746032
0.00074556
1.14128e-06
3.24265e-07
9.17931e-08
5.82347e-08
3.22045e-08
3.48463e-08
9.00019e-09
7.19592e-08
2.83048e-07
2.77151e-06
0.000325084
0.00485025
0.00800452
0.00523404
0.00213347
0.00253207
0.0187642
0.152345
0.229054
0.075594
0.000744216
0.000742273
0.000741926
3.08353e-07
1.5943e-07
2.8266e-08
8.08716e-09
2.26017e-09
1.33216e-09
6.0718e-10
3.75423e-09
2.00941e-08
2.68145e-05
0.000140831
9.86649e-05
8.85317e-05
0.000134654
0.000346107
0.00103463
0.0850555
0.40319
0.415066
0.390156
0.023897
0.000739554
0.000741454
4.22221e-07
4.93552e-07
2.09262e-08
3.98316e-09
5.17233e-10
1.46218e-10
1.06928e-10
2.4774e-09
3.55611e-09
7.48789e-07
5.07276e-05
0.000108555
7.47681e-05
2.82595e-05
0.000113527
0.000406187
0.0252009
0.287212
0.418205
0.421343
0.196658
0.000751002
0.00074111
1.76032e-07
7.12533e-07
1.10686e-07
3.88679e-10
3.61749e-10
8.26616e-11
2.63602e-11
2.04805e-09
2.16747e-08
2.36595e-08
1.02058e-06
2.40079e-05
2.57176e-05
8.81263e-06
3.29079e-05
0.00013025
0.00071243
0.0991189
0.421343
0.42568
0.385085
0.00779201
0.000788467
1.19668e-08
4.19166e-07
1.6289e-07
8.3931e-09
3.86913e-11
3.54089e-11
1.02443e-11
4.79098e-10
5.98843e-08
1.39424e-07
8.38549e-07
4.60665e-07
5.09609e-08
1.10248e-06
5.21729e-06
3.35284e-05
0.000133371
0.00937464
0.235303
0.430017
0.433663
0.390475
0.103171
1.54205e-09
5.85947e-09
5.71769e-08
1.53957e-08
9.62372e-10
2.5897e-11
9.07201e-12
8.95167e-12
1.05423e-07
4.95257e-07
8.20214e-07
6.20176e-09
1.20226e-08
1.59e-07
2.21163e-06
1.95123e-05
2.69678e-05
3.02883e-05
0.000236947
0.21029
0.431709
0.451138
0.451138
2.76821e-10
2.80201e-10
1.64509e-10
4.28044e-09
1.06915e-09
5.60962e-11
8.11965e-12
8.48056e-12
1.01383e-07
3.00944e-07
2.22324e-07
3.74954e-09
5.0699e-09
2.30828e-08
2.35308e-07
4.23451e-06
2.712e-05
8.82463e-06
1.9748e-05
8.55646e-05
0.00682994
0.322106
0.451138
7.02215e-11
8.89406e-11
3.93366e-11
1.90748e-10
2.58384e-10
2.96531e-11
7.79239e-12
4.41394e-10
3.36486e-08
6.81278e-09
6.14177e-10
3.49001e-09
3.85818e-09
3.41182e-09
2.31463e-08
2.1419e-07
1.19763e-06
8.20112e-06
1.03152e-05
1.91437e-05
6.31838e-06
-2.8134e-05
0.0807002
3.24861e-11
3.83053e-11
2.49932e-11
1.2301e-11
1.02123e-11
2.38678e-12
1.1546e-11
5.52012e-10
8.71123e-11
7.4055e-11
3.04569e-10
3.11586e-09
3.68648e-09
1.41166e-09
3.02896e-09
8.4878e-09
1.10221e-08
3.30317e-05
0.000294979
0.000141935
1.65855e-06
1.6825e-06
1.55395e-06
9.50843e-12
9.41686e-12
4.31111e-12
1.00628e-12
1.35987e-13
2.07926e-13
1.61315e-11
2.98298e-10
4.53433e-11
5.016e-11
2.78532e-10
2.70377e-09
3.0218e-09
1.15184e-09
1.35004e-09
1.90461e-09
3.61304e-10
1.35679e-08
0.000454768
0.00160215
0.000241825
1.16369e-06
1.17e-06
6.48237e-12
3.94872e-12
9.5078e-13
-3.06664e-12
-7.03257e-12
4.40135e-14
1.74458e-11
7.34984e-11
3.91246e-11
3.88982e-11
2.01972e-10
1.65449e-09
1.54503e-09
9.6572e-10
1.54119e-09
5.54296e-10
1.04269e-10
8.87054e-10
0.000336309
0.00163334
0.00134294
1.16369e-06
1.1529e-06
3.15597e-12
1.84386e-12
-1.0639e-12
-5.68012e-12
-7.7434e-12
8.7503e-13
1.64742e-11
2.36682e-11
2.43318e-11
2.42864e-11
9.80725e-11
5.21009e-10
3.85615e-10
5.5819e-10
1.52145e-09
3.34902e-10
2.67983e-11
9.40261e-11
2.67102e-05
0.00144407
0.00188714
0.00110104
1.17e-06
1.13757e-12
4.81931e-13
-1.62594e-12
-5.23987e-12
-5.86365e-12
1.45389e-12
1.30993e-11
1.87334e-11
2.00307e-11
2.07921e-11
3.01863e-11
7.79305e-11
5.37999e-11
1.69459e-10
8.53981e-10
2.64342e-10
1.86062e-11
-7.31353e-11
1.08698e-09
0.00015125
0.00186656
0.00200745
0.00174669
2.04675e-13
1.97356e-14
-1.3274e-12
-3.73419e-12
-3.69327e-12
1.51974e-12
9.21632e-12
1.31295e-11
1.43912e-11
1.53828e-11
1.31972e-11
9.05272e-12
4.53274e-12
2.14874e-11
1.89913e-10
1.31679e-10
1.67041e-11
-1.98742e-14
-2.28812e-09
8.00322e-08
0.00013462
0.00113716
0.00197888
-1.22013e-13
-7.43996e-14
-8.51788e-13
-2.28039e-12
-2.0468e-12
1.249e-12
5.88106e-12
8.3082e-12
9.39926e-12
1.04029e-11
9.86438e-12
6.55441e-12
2.80604e-12
1.24067e-12
1.38646e-11
3.31425e-11
1.62455e-11
-1.12791e-12
-1.14394e-11
4.3602e-09
2.00624e-07
7.42819e-06
0.000308882
-1.76735e-13
-6.31035e-14
-4.7115e-13
-1.24228e-12
-1.01994e-12
8.7467e-13
3.44483e-12
4.85489e-12
5.6906e-12
6.54628e-12
6.22325e-12
3.51247e-12
-6.88162e-14
-5.41546e-13
7.2904e-13
4.25856e-12
1.11357e-11
1.30428e-12
-2.01131e-11
-7.70087e-10
7.68403e-09
1.56256e-08
2.90945e-08
-1.39647e-13
-3.71179e-14
-2.33091e-13
-6.15495e-13
-4.60374e-13
5.42801e-13
1.86729e-12
2.63913e-12
3.21281e-12
3.85235e-12
3.69341e-12
1.69685e-12
-1.20485e-12
-2.36496e-12
-6.5962e-13
2.10206e-12
6.86583e-12
5.07427e-12
5.34228e-12
6.11066e-11
9.18375e-10
1.31042e-09
8.40588e-10
-8.90549e-14
-1.85542e-14
-1.0508e-13
-2.80202e-13
-1.87935e-13
3.05302e-13
9.42832e-13
1.34271e-12
1.69937e-12
2.12539e-12
2.08577e-12
8.3989e-13
-1.18591e-12
-2.44963e-12
-1.77065e-12
1.90987e-13
3.65463e-12
4.44233e-12
4.95642e-12
1.11612e-11
5.09248e-11
6.40715e-11
3.46799e-11
-5.01042e-14
-8.40061e-15
-4.36226e-14
-1.17849e-13
-6.8633e-14
1.57906e-13
4.46095e-13
6.42961e-13
8.45731e-13
1.1013e-12
1.11986e-12
4.50751e-13
-7.65913e-13
-1.72334e-12
-1.59511e-12
-4.41484e-13
1.71435e-12
3.39797e-12
3.8845e-12
5.16786e-12
1.22037e-11
1.22515e-11
1.00433e-11
-2.57601e-14
-3.55051e-15
-1.67805e-14
-4.59075e-14
-2.18158e-14
7.58682e-14
1.98927e-13
2.91365e-13
3.97718e-13
5.37019e-13
5.6955e-13
2.57001e-13
-3.75804e-13
-9.49311e-13
-9.99623e-13
-4.29935e-13
7.46635e-13
2.05967e-12
3.25417e-12
3.90437e-12
5.41192e-12
5.78532e-12
6.73566e-12
-1.23101e-14
-1.42483e-15
-6.00327e-15
-1.65702e-14
-5.61234e-15
3.41219e-14
8.40771e-14
1.25617e-13
1.7749e-13
2.47041e-13
2.73536e-13
1.4591e-13
-1.41654e-13
-4.27988e-13
-4.92202e-13
-2.4783e-13
3.18449e-13
1.0881e-12
1.91305e-12
3.09302e-12
4.69651e-12
5.04969e-12
5.91864e-12
-5.51703e-15
-5.48269e-16
-2.00134e-15
-5.53359e-15
-8.67119e-16
1.44522e-14
3.38595e-14
5.17745e-14
7.54659e-14
1.07525e-13
1.23871e-13
7.83319e-14
-3.68121e-14
-1.59378e-13
-1.97438e-13
-1.03372e-13
1.39718e-13
5.19976e-13
9.94527e-13
1.64512e-12
2.56975e-12
3.43077e-12
4.6532e-12
-2.33012e-15
-2.03296e-16
-6.2218e-16
-1.70324e-15
1.67179e-16
5.7922e-15
1.30526e-14
2.04788e-14
3.06673e-14
4.44104e-14
5.28995e-14
3.88254e-14
-2.09709e-15
-4.79064e-14
-6.44949e-14
-3.10087e-14
6.37219e-14
2.29712e-13
4.69411e-13
8.20075e-13
1.34955e-12
2.08459e-12
3.12776e-12
-9.29886e-16
-7.27492e-17
-1.80307e-16
-4.79675e-16
2.28758e-16
2.20484e-15
4.83282e-15
7.79095e-15
1.19332e-14
1.74475e-14
2.13274e-14
1.76599e-14
4.67367e-15
-1.04814e-14
-1.63476e-14
-5.01971e-15
2.92698e-14
9.55669e-14
2.04851e-13
3.82349e-13
6.72409e-13
1.12548e-12
1.80104e-12
-3.5114e-16
-2.5108e-17
-4.86304e-17
-1.21876e-16
1.32466e-16
7.9924e-16
1.72176e-15
2.85189e-15
4.44763e-15
6.52909e-15
8.12808e-15
7.3847e-15
3.68805e-15
-8.02272e-16
-2.55103e-15
1.176e-15
1.30222e-14
3.81006e-14
8.45949e-14
1.68001e-13
3.1429e-13
5.57474e-13
9.51973e-13
-1.25565e-16
-8.34487e-18
-1.21668e-17
-2.71295e-17
5.96345e-17
2.76321e-16
5.90239e-16
1.00304e-15
1.58588e-15
2.3276e-15
2.93079e-15
2.85107e-15
1.90378e-15
6.98181e-16
2.51964e-16
1.46684e-15
5.48623e-15
1.47773e-14
3.39039e-14
7.13794e-14
1.41694e-13
2.66818e-13
4.89274e-13
-4.25361e-17
-2.66673e-18
-2.80693e-18
-4.90957e-18
2.32612e-17
9.11658e-17
1.9442e-16
3.38062e-16
5.39785e-16
7.89751e-16
1.00004e-15
1.02077e-15
8.01512e-16
5.04115e-16
4.07119e-16
8.04728e-16
2.1766e-15
5.63651e-15
1.34712e-14
3.01457e-14
6.37393e-14
1.2819e-13
2.52036e-13
-1.36519e-17
-8.18288e-19
-5.90746e-19
-5.31162e-19
8.18357e-18
2.86972e-17
6.13863e-17
1.08842e-16
1.74917e-16
2.54621e-16
3.22779e-16
3.40172e-16
2.94078e-16
2.25424e-16
2.0833e-16
3.39898e-16
8.165e-16
2.12553e-15
5.36511e-15
1.28444e-14
2.90732e-14
6.25051e-14
1.30644e-13
-4.15074e-18
-2.40768e-19
-1.11048e-19
7.79703e-20
2.64805e-18
8.61317e-18
1.853e-17
3.33761e-17
5.38321e-17
7.78652e-17
9.84764e-17
1.05822e-16
9.68909e-17
8.16824e-17
7.98144e-17
1.2378e-16
2.91701e-16
7.91749e-16
2.13697e-15
5.49982e-15
1.33444e-14
3.05282e-14
6.70204e-14
-1.19517e-18
-6.78228e-20
-1.7759e-20
7.42258e-20
7.97001e-19
2.46326e-18
5.33529e-18
9.72611e-18
1.57058e-17
2.2553e-17
2.83797e-17
3.07999e-17
2.91419e-17
2.58086e-17
2.6053e-17
4.07582e-17
9.98976e-17
2.89598e-16
8.41118e-16
2.32736e-15
6.03593e-15
1.45985e-14
3.32746e-14
-3.25804e-19
-1.82619e-20
-2.06763e-21
3.08762e-20
2.24767e-19
6.71019e-19
1.46311e-18
2.69019e-18
4.34021e-18
6.18236e-18
7.72386e-18
8.40454e-18
8.08433e-18
7.34159e-18
7.60609e-18
1.24653e-17
3.2936e-17
1.03168e-16
3.2244e-16
9.55841e-16
2.63841e-15
6.71588e-15
1.57816e-14
-8.40555e-20
-4.6925e-21
-2.07502e-23
1.00766e-20
5.97203e-20
1.74165e-19
3.81983e-19
7.06228e-19
1.13627e-18
1.60429e-18
1.98632e-18
2.15499e-18
2.08385e-18
1.91394e-18
2.03807e-18
3.60465e-18
1.04765e-17
3.55326e-17
1.19052e-16
3.76461e-16
1.10294e-15
2.95306e-15
7.14999e-15
-2.05204e-20
-1.14852e-21
8.59969e-23
2.87371e-21
1.50193e-20
4.31179e-20
9.50072e-20
1.76158e-19
2.82192e-19
3.94594e-19
4.83406e-19
5.20657e-19
5.02162e-19
4.62815e-19
5.10099e-19
9.98303e-19
3.21729e-18
1.17729e-17
4.20882e-17
1.41533e-16
4.40038e-16
1.24252e-15
3.11148e-15
-4.74139e-21
-2.67304e-22
3.57944e-23
7.46574e-22
3.59108e-21
1.0201e-20
2.25507e-20
4.18384e-20
6.6635e-20
9.2206e-20
1.1161e-19
1.18941e-19
1.13782e-19
1.04811e-19
1.20952e-19
2.67171e-19
9.53729e-19
3.74324e-18
1.42233e-17
5.07997e-17
1.67811e-16
5.0077e-16
1.30051e-15
-1.03769e-21
-5.90871e-23
1.06671e-23
1.80578e-22
8.19905e-22
2.31229e-21
5.12105e-21
9.48884e-21
1.50066e-20
2.05331e-20
2.45271e-20
2.57942e-20
2.43787e-20
2.24205e-20
2.75045e-20
6.94703e-20
2.72776e-19
1.14155e-18
4.59869e-18
1.74383e-17
6.11938e-17
1.92487e-16
5.16637e-16
-2.15459e-22
-1.23894e-23
2.74384e-24
4.12276e-23
1.79552e-22
5.03708e-22
1.11609e-21
2.06196e-21
3.23462e-21
4.3731e-21
5.14946e-21
5.33329e-21
4.96643e-21
4.56615e-21
6.06092e-21
1.75951e-20
7.52642e-20
3.34255e-19
1.42558e-18
5.73295e-18
2.12852e-17
6.99203e-17
1.91972e-16
-4.25574e-23
-2.47351e-24
6.45457e-25
8.96886e-24
3.78691e-23
1.05775e-22
2.34183e-22
4.30764e-22
6.69664e-22
8.93988e-22
1.03678e-21
1.05584e-21
9.67038e-22
8.91864e-22
1.30445e-21
4.34076e-21
2.00313e-20
9.40949e-20
4.24316e-19
1.80343e-18
7.02372e-18
2.37626e-17
6.58364e-17
-8.01985e-24
-4.64306e-25
1.43422e-25
1.87456e-24
7.73072e-24
2.15012e-23
4.75135e-23
8.68992e-23
1.33758e-22
1.76172e-22
2.00999e-22
2.00937e-22
1.80739e-22
1.68156e-22
2.76605e-22
1.04979e-21
5.1922e-21
2.57782e-20
1.22806e-19
5.48882e-19
2.2183e-18
7.61916e-18
2.10078e-17
0.999877
0.999817
0.999733
0.999507
0.995854
0.985166
0.941698
0.850443
0.477605
0.407448
0.261537
0.099613
0.000742154
0.000744531
0.000744474
0.000741972
0.000744168
0.000741253
0.000741795
0.00073869
0.000740724
0.00074624
0.000736643
0.000737884
0.00074111
0.00100114
0.00265731
0.000920309
0.000852941
0.00120504
0.0051013
0.0652976
0.0862042
0.0336381
0.0481945
0.316013
0.451161
0.360577
0.227332
0.409248
0.446825
0.431391
0.352699
0.263493
0.187973
1.01813e-05
1.71801e-05
2.11889e-05
2.43032e-06
5.58257e-06
1.74851e-05
4.67876e-05
8.34112e-05
0.000119883
0.000120209
0.000119883
1.17e-06
2.54541e-06
5.70099e-06
7.59355e-06
1.19175e-06
6.27139e-06
8.2398e-06
8.18065e-06
0.000422186
9.81851e-06
0.000359085
0.000723378
0.00198348
0.00198348
0.00198348
0.00197769
0.000397986
0.000321575
0.000533472
0.000768683
3.42272e-07
4.02751e-08
9.52417e-09
8.51345e-10
3.99332e-08
6.30066e-08
3.48666e-08
3.22147e-10
1.08685e-09
1.26593e-09
8.2218e-10
9.90303e-11
2.03807e-11
2.57401e-11
2.38077e-11
2.55237e-11
8.90946e-12
1.0451e-11
1.21751e-11
1.42843e-11
6.52594e-12
7.48382e-12
8.79522e-12
1.03559e-11
5.35411e-12
6.25295e-12
7.35396e-12
8.62637e-12
3.66927e-12
4.31066e-12
5.0768e-12
5.99069e-12
2.14233e-12
2.54811e-12
3.0597e-12
3.73433e-12
1.15491e-12
1.40564e-12
1.7477e-12
2.2506e-12
6.07467e-13
7.60921e-13
9.89177e-13
1.36116e-12
3.20108e-13
4.14081e-13
5.67507e-13
8.41954e-13
1.6928e-13
2.26478e-13
3.28369e-13
5.24188e-13
8.81994e-14
1.21706e-13
1.85711e-13
3.14535e-13
4.42711e-14
6.27435e-14
9.99392e-14
1.77002e-13
2.11884e-14
3.08702e-14
5.12993e-14
9.4702e-14
9.72138e-15
1.47453e-14
2.59286e-14
5.04138e-14
4.3331e-15
7.03614e-15
1.34199e-14
2.78463e-14
1.89383e-15
3.4104e-15
7.1575e-15
1.5774e-14
8.08556e-16
1.6478e-15
3.75324e-15
8.57551e-15
3.31765e-16
7.58218e-16
1.81654e-15
4.18993e-15
1.28124e-16
3.18269e-16
7.78537e-16
1.77994e-15
4.69069e-17
1.22175e-16
2.98568e-16
6.64435e-16
0.965025
0.964418
0.898029
0.370262
0.545885
0.992728
0.783609
0.0350385
0.00141669
0.00253147
0.0104486
0.397396
0.799042
0.799199
0.789253
0.732532
0.506346
0.124042
0.466569
0.771236
0.640874
0.0946868
0.173949
0.545649
0.989474
0.671673
0.00145778
0.00125319
0.00142595
0.0877841
0.761889
0.797744
0.749528
0.34624
0.173129
0.177492
0.155635
0.466569
0.00119724
0.0676788
0.0800741
0.657006
0.936678
0.970981
0.485134
0.00126873
0.00120536
0.00126323
0.201133
0.781457
0.793438
0.339725
0.0299522
0.0298398
0.0299988
0.142456
0.432119
0.000739615
0.000778082
0.0103262
0.0894207
0.773704
0.965133
0.441874
0.00120536
0.00119842
0.00122285
0.212182
0.774951
0.733103
0.17241
0.0298444
0.0299988
0.030752
0.0407536
0.331844
0.000738815
0.000748019
0.00080947
0.0071799
0.485934
0.958327
0.545631
0.00119881
0.00120192
0.00119928
0.0953102
0.618336
0.365253
0.218598
0.0318681
0.030752
0.0318329
0.0527454
0.604357
0.000738331
0.000782458
0.000779165
0.000825884
0.146189
0.693075
0.687117
0.197314
0.00120192
0.00120757
0.023112
0.0774663
0.0263038
0.411576
0.45338
0.408029
0.450424
0.547912
0.851854
0.000740445
0.00271589
0.000825884
0.00172457
0.00204778
0.229793
0.678602
0.568791
0.00136623
0.00129369
0.00160656
0.0201708
0.00966583
0.235873
0.734038
0.835404
0.893366
0.897463
0.897463
0.180485
0.253331
0.128082
0.00184233
0.00215443
0.0026082
0.204975
0.590972
0.302051
0.00145327
0.00202191
0.0266503
0.00939029
0.014966
0.123107
0.205783
0.393222
0.827756
0.897463
0.413295
0.413734
0.413298
0.0997059
0.0024351
0.00253858
0.00272696
0.606567
0.724382
0.248162
0.0860917
0.0785364
0.00829101
2.15508e-05
8.92867e-06
2.15458e-05
0.000213459
0.211283
0.897067
0.413734
0.413295
0.408468
0.388956
0.131838
0.123695
0.546627
0.724382
0.724382
0.724382
0.637437
0.292533
0.00128538
8.93162e-06
7.58459e-06
5.23697e-06
3.73021e-05
0.0184637
0.664731
0.22115
0.15341
0.138735
0.19901
0.505245
0.703583
0.723447
0.723017
0.701431
0.576974
0.415616
0.222518
0.00789798
7.58459e-06
6.1745e-06
9.43978e-07
-5.52925e-07
0.00831457
0.0381482
2.40391e-05
1.56186e-05
2.20251e-06
9.2291e-06
0.0826238
0.290159
0.386498
0.32064
0.196711
0.0783552
0.0167871
0.0217015
0.00839345
2.2863e-05
5.74464e-06
8.00154e-07
-3.03157e-07
1.74001e-06
0.000136067
5.80355e-05
1.98476e-05
8.04349e-07
5.17407e-07
-3.05456e-06
0.0010713
0.00237892
0.00029268
6.55838e-05
6.92903e-05
3.29775e-05
2.34294e-05
0.00127428
2.3287e-05
1.62575e-05
3.80235e-07
-4.41962e-09
0.000653304
0.0263881
0.000118368
5.10328e-05
5.80701e-07
4.24819e-07
5.7422e-08
1.37713e-08
1.51746e-05
9.80225e-07
1.25419e-05
2.92202e-05
2.9791e-05
1.63925e-05
9.41633e-06
3.90495e-05
1.19064e-05
6.80656e-10
7.55988e-16
0.000225564
0.0305096
7.66276e-06
3.48952e-06
5.56674e-07
6.13551e-08
1.34787e-08
5.76884e-09
2.35422e-09
3.79574e-07
1.31641e-05
3.0774e-05
3.11383e-05
1.78991e-05
9.33648e-06
8.57628e-10
8.85343e-10
1.01206e-09
1.44096e-09
1.46764e-09
0.0153223
3.39033e-05
8.34767e-05
6.70145e-05
2.10903e-05
8.21921e-08
3.7624e-09
1.91651e-09
8.02237e-10
7.91274e-10
7.90115e-10
7.92449e-10
7.94333e-10
7.98305e-10
8.07753e-10
8.35941e-10
9.68321e-10
1.63211e-09
1.48762e-09
0.0434409
0.000637075
0.000498966
0.000448386
0.000219069
2.44469e-05
1.39536e-09
8.02642e-10
7.91528e-10
7.90122e-10
7.89729e-10
7.90141e-10
7.91909e-10
8.14037e-10
1.15286e-09
2.30347e-09
2.29814e-09
1.84457e-09
1.53594e-09
0.0817729
0.000960786
0.000220301
0.00022841
0.000238753
6.94891e-05
5.76884e-07
1.08674e-09
7.92391e-10
7.86217e-10
7.89557e-10
8.17138e-10
1.2634e-09
1.70048e-09
5.88513e-09
9.84136e-09
5.26889e-09
1.92807e-09
1.60731e-09
0.081816
0.00011203
1.52332e-10
2.60836e-10
3.50993e-10
2.29939e-05
8.24413e-06
2.9649e-09
9.59129e-10
7.82996e-10
7.77335e-10
8.32192e-10
1.42271e-09
1.84403e-09
8.52719e-09
1.24849e-08
7.95399e-09
2.54179e-09
1.71574e-09
0.0818208
1.13897e-10
1.06876e-10
1.87183e-10
3.20184e-10
3.38081e-10
3.80594e-10
2.89422e-08
1.04942e-08
8.36781e-10
7.68535e-10
7.67875e-10
9.35846e-10
9.46063e-10
5.05301e-09
1.19908e-08
8.11541e-09
9.93875e-08
2.69868e-09
0.0818601
3.4102e-11
9.41709e-11
3.36701e-10
4.97157e-10
4.76204e-10
4.91108e-10
5.06215e-10
9.81194e-10
1.27971e-09
8.00655e-10
7.33142e-10
7.38431e-10
8.84458e-10
3.59804e-09
1.17992e-08
9.15643e-09
2.0273e-05
7.97468e-07
0.0818775
3.11968e-11
1.02666e-10
4.47272e-10
5.65866e-10
5.70508e-10
5.72477e-10
5.53217e-10
5.61541e-10
5.93815e-10
5.93627e-10
5.93726e-10
6.91847e-10
6.64454e-07
3.04188e-07
1.23714e-08
1.71607e-06
3.49503e-05
5.23174e-07
0.0818573
2.83212e-11
3.43131e-11
8.72586e-11
2.17514e-10
3.73637e-10
5.91703e-10
6.28171e-10
6.1169e-10
5.93394e-10
5.92783e-10
5.95465e-10
3.17901e-09
7.1374e-06
5.18316e-06
6.76936e-08
2.34226e-05
3.49326e-05
4.29307e-07
0.0817843
1.86756e-11
2.34124e-11
3.67818e-11
9.79565e-11
2.95269e-10
6.00026e-10
6.28211e-10
5.94572e-10
5.84338e-10
5.87867e-10
5.56303e-10
5.26661e-06
8.69974e-06
8.59351e-06
2.96747e-06
3.48136e-05
3.49467e-05
3.57068e-07
0.0816408
1.41833e-11
1.95141e-11
3.50359e-11
1.10704e-10
3.38165e-10
5.6923e-10
5.29232e-10
5.01515e-10
4.98101e-10
5.74901e-10
3.26023e-06
8.69974e-06
8.69974e-06
7.73761e-06
5.24444e-06
3.4584e-05
1.25684e-05
3.3669e-07
0.081552
1.21051e-11
1.7273e-11
3.52474e-11
1.20809e-10
3.59779e-10
3.67502e-10
2.05747e-10
2.07741e-10
3.47949e-10
1.20172e-09
7.12941e-06
8.6685e-06
8.69981e-06
3.46257e-06
2.21775e-06
3.42836e-05
3.3669e-07
3.36952e-07
0.0812795
9.1851e-12
1.51229e-11
2.8275e-11
9.16906e-11
2.08298e-10
1.66868e-10
4.63459e-11
2.79849e-09
1.47325e-07
7.09414e-07
8.65812e-07
5.46315e-06
5.81778e-06
1.22309e-06
8.87043e-07
2.71683e-05
5.06285e-07
3.3669e-07
0.0640014
6.8885e-12
1.27962e-11
2.10726e-11
5.20711e-11
9.29863e-11
5.69317e-11
4.30314e-11
1.98202e-07
5.19001e-07
3.50356e-07
1.84765e-07
1.81735e-07
1.79397e-07
1.77966e-07
1.73837e-07
5.82194e-08
5.82195e-08
1.01458e-05
0.00141033
5.21045e-12
1.05261e-11
1.92973e-11
3.56139e-11
3.33521e-11
3.40991e-11
3.66684e-11
3.15694e-07
5.155e-07
3.28053e-07
1.90119e-07
1.84765e-07
1.81735e-07
3.84915e-07
1.08314e-06
8.55804e-08
5.82194e-08
6.62347e-05
4.8554e-05
4.13387e-12
9.78193e-12
1.8072e-11
2.4824e-11
1.5562e-11
2.72877e-10
1.39018e-09
2.75566e-08
4.80177e-08
1.40116e-06
8.55195e-07
1.97219e-06
2.4938e-06
5.27402e-06
7.07742e-06
1.57873e-07
5.93026e-08
7.48378e-05
4.76203e-05
3.24663e-12
7.96993e-12
1.38977e-11
1.83189e-11
1.23189e-11
2.1179e-09
1.97418e-09
2.15053e-10
3.51988e-08
1.739e-06
2.4005e-05
3.26445e-05
3.52006e-05
2.79186e-05
4.56893e-06
6.07065e-08
6.02877e-08
7.49482e-05
4.37524e-05
2.33741e-12
5.68505e-12
9.59133e-12
1.22314e-11
9.72316e-12
2.08639e-09
1.42536e-09
2.09595e-10
6.52766e-08
1.06338e-06
3.82547e-05
3.86323e-05
3.86323e-05
3.86323e-05
3.25363e-06
6.19401e-08
6.07064e-08
2.69453e-05
3.8556e-05
1.50034e-12
3.58487e-12
6.04536e-12
7.81701e-12
7.43007e-12
5.24349e-11
2.54982e-10
2.10118e-10
2.47888e-08
5.04223e-10
3.94047e-06
3.00493e-05
3.2269e-05
6.20815e-06
1.27206e-11
8.53557e-08
6.19304e-08
7.3101e-08
0.000633237
8.65232e-13
2.03423e-12
3.493e-12
4.673e-12
3.83235e-12
1.55844e-10
5.33514e-10
2.90174e-10
8.45325e-12
5.02424e-10
3.89455e-11
2.75376e-11
1.76479e-11
1.25744e-11
1.20681e-11
1.56396e-09
4.45785e-07
3.13769e-07
0.00112731
4.648e-13
1.06979e-12
1.87349e-12
2.56069e-12
2.59189e-12
1.54068e-10
1.72022e-10
5.79787e-11
8.0654e-12
1.31961e-09
1.87517e-09
8.49385e-10
7.45376e-10
3.54764e-10
6.6474e-12
9.54916e-06
1.53375e-05
2.65207e-06
0.00112731
2.43921e-13
5.37478e-13
9.38413e-13
1.2579e-12
1.87271e-12
2.32723e-12
2.72279e-12
6.87976e-12
7.4895e-12
9.59558e-13
2.89318e-09
3.58202e-09
3.58193e-09
1.67586e-09
7.68722e-13
2.09649e-05
2.09904e-05
1.97282e-06
0.00112623
1.27639e-13
2.58551e-13
4.27928e-13
5.39281e-13
7.76989e-13
1.74823e-12
2.14071e-12
5.79913e-12
5.38878e-12
9.28441e-13
1.02951e-09
2.42897e-09
2.43313e-09
6.76193e-10
1.16484e-17
1.59603e-05
2.09953e-05
1.97128e-06
0.000354549
6.43677e-14
1.15342e-13
1.70344e-13
1.88618e-13
2.55152e-13
6.8475e-13
7.71043e-13
2.00071e-12
2.1316e-12
8.89389e-13
-1.07356e-10
-2.88409e-10
-3.76798e-10
-2.9154e-10
-1.05211e-10
9.41624e-07
2.09875e-05
4.52133e-06
1.98988e-08
2.94922e-14
4.58619e-14
5.77956e-14
5.37049e-14
5.4464e-14
1.86044e-13
1.65274e-13
2.51875e-13
2.82421e-13
9.2333e-14
-5.54541e-11
-1.3732e-10
-1.40838e-10
-8.66516e-11
-2.48099e-11
-2.03395e-12
8.66374e-06
3.46935e-06
8.42592e-09
1.17648e-14
1.58107e-14
1.66403e-14
1.25121e-14
8.70163e-15
2.71663e-14
1.68753e-14
5.12085e-15
5.50768e-16
-3.49344e-16
-9.8155e-12
-1.97219e-11
-1.49379e-11
-6.9019e-12
-1.65272e-12
-1.77057e-13
-8.27756e-15
-7.86142e-17
8.32016e-09
4.00879e-15
4.63647e-15
4.03205e-15
2.35475e-15
1.04974e-15
2.25515e-15
7.86649e-16
4.10264e-17
-7.82918e-17
-4.91014e-17
-1.87225e-17
-7.17688e-18
-2.39884e-18
-6.25961e-19
-1.05874e-19
-8.65854e-21
-5.66746e-22
-3.26806e-23
-6.69811e-25
1.14911e-15
1.08877e-15
7.48457e-16
3.12042e-16
7.81712e-17
1.09887e-16
8.19187e-18
-1.24064e-18
-3.92948e-19
-6.45218e-20
-8.47284e-21
-1.17745e-21
-1.62638e-22
-1.77096e-23
-1.55195e-24
-7.32291e-26
-4.50968e-27
-3.64332e-28
-5.66265e-30
)
;

boundaryField
{
    leftWall
    {
        type            zeroGradient;
    }
    rightWall
    {
        type            zeroGradient;
    }
    lowerWall
    {
        type            zeroGradient;
    }
    atmosphere
    {
        type            inletOutlet;
        inletValue      uniform 0;
        value           nonuniform List<scalar> 
46
(
-8.01985e-24
-4.64306e-25
1.43422e-25
1.87456e-24
7.73072e-24
2.15012e-23
4.75135e-23
8.68992e-23
1.33758e-22
1.76172e-22
2.00999e-22
2.00937e-22
1.80739e-22
1.68156e-22
2.76605e-22
1.04979e-21
5.1922e-21
2.57782e-20
1.22806e-19
5.48882e-19
2.2183e-18
7.61916e-18
2.10078e-17
4.69069e-17
1.22175e-16
2.98568e-16
0
0
0
0
0
0
0
0
0
0
0
0
0
0
0
0
0
0
0
0
)
;
    }
    defaultFaces
    {
        type            empty;
    }
}


// ************************************************************************* //
