/*--------------------------------*- C++ -*----------------------------------*\
| =========                 |                                                 |
| \\      /  F ield         | OpenFOAM: The Open Source CFD Toolbox           |
|  \\    /   O peration     | Version:  v1606+                                |
|   \\  /    A nd           | Web:      www.OpenFOAM.com                      |
|    \\/     M anipulation  |                                                 |
\*---------------------------------------------------------------------------*/
FoamFile
{
    version     2.0;
    format      ascii;
    class       surfaceScalarField;
    location    "0.75";
    object      phi;
}
// * * * * * * * * * * * * * * * * * * * * * * * * * * * * * * * * * * * * * //

dimensions      [0 3 -1 0 0 0 0];

internalField   nonuniform List<scalar> 
4432
(
-3.99817e-06
3.99817e-06
-8.35332e-06
4.35515e-06
-1.1904e-05
3.55067e-06
-1.50111e-05
3.10712e-06
-1.73796e-05
2.3685e-06
-1.77202e-05
3.40582e-07
-1.57609e-05
-1.95928e-06
-1.28733e-05
-2.88764e-06
-1.06907e-05
-2.1826e-06
-9.70887e-06
-9.81806e-07
-9.71584e-06
6.9755e-09
-1.04462e-05
7.30361e-07
-1.16342e-05
1.188e-06
-1.32009e-05
1.56672e-06
-1.50372e-05
1.83626e-06
-1.64643e-05
1.42709e-06
-1.72097e-05
7.45425e-07
-1.96141e-05
2.40443e-06
-2.47308e-05
5.11663e-06
-2.78946e-05
3.1638e-06
-2.356e-05
-4.33458e-06
-1.23846e-05
-1.11753e-05
-1.23846e-05
-5.53551e-06
9.53368e-06
-9.96788e-06
8.78752e-06
-1.31911e-05
6.77389e-06
-1.61268e-05
6.04286e-06
-1.8296e-05
4.53769e-06
-1.85306e-05
5.75215e-07
-1.64797e-05
-4.01026e-06
-1.33105e-05
-6.05684e-06
-1.08359e-05
-4.65718e-06
-9.66043e-06
-2.15726e-06
-9.40057e-06
-2.52878e-07
-9.64125e-06
9.71035e-07
-1.01924e-05
1.73912e-06
-1.10429e-05
2.41725e-06
-1.24104e-05
3.20375e-06
-1.47972e-05
3.81389e-06
-1.85287e-05
4.47696e-06
-2.25618e-05
6.43746e-06
-2.45284e-05
7.08327e-06
-2.23049e-05
9.40327e-07
-1.65809e-05
-1.00586e-05
-8.66655e-06
-1.90897e-05
-2.10512e-05
-4.84335e-06
1.4377e-05
-8.64221e-06
1.25864e-05
-1.18672e-05
9.99885e-06
-1.52769e-05
9.45261e-06
-1.80563e-05
7.31708e-06
-1.86496e-05
1.16852e-06
-1.68376e-05
-5.82223e-06
-1.39077e-05
-8.98683e-06
-1.14762e-05
-7.08865e-06
-1.02227e-05
-3.41078e-06
-9.92946e-06
-5.46077e-07
-1.00218e-05
1.06338e-06
-1.01121e-05
1.8294e-06
-9.97372e-06
2.27888e-06
-9.7034e-06
2.93343e-06
-9.97283e-06
4.08332e-06
-1.13592e-05
5.8633e-06
-1.2836e-05
7.91431e-06
-1.24695e-05
6.71671e-06
-1.007e-05
-1.45916e-06
-6.70451e-06
-1.34241e-05
-2.9648e-06
-2.28294e-05
-2.4016e-05
-3.49957e-06
1.78766e-05
-6.63499e-06
1.57218e-05
-9.69147e-06
1.30553e-05
-1.27972e-05
1.25584e-05
-1.51034e-05
9.62325e-06
-1.57003e-05
1.76536e-06
-1.46917e-05
-6.83076e-06
-1.3182e-05
-1.04965e-05
-1.18661e-05
-8.4046e-06
-1.10129e-05
-4.26399e-06
-1.08057e-05
-7.53279e-07
-1.09794e-05
1.23713e-06
-1.10844e-05
1.9344e-06
-1.0774e-05
1.96849e-06
-9.87584e-06
2.03524e-06
-8.49785e-06
2.70533e-06
-6.76661e-06
4.13207e-06
-4.46472e-06
5.61242e-06
-1.56515e-06
3.81713e-06
1.04796e-06
-4.07228e-06
1.81143e-06
-1.41875e-05
1.55049e-06
-2.25685e-05
-2.24655e-05
-1.73401e-06
1.96106e-05
-3.71327e-06
1.7701e-05
-5.91169e-06
1.52537e-05
-7.82116e-06
1.44679e-05
-8.80089e-06
1.0603e-05
-9.02047e-06
1.98495e-06
-9.37969e-06
-6.47154e-06
-1.03778e-05
-9.4984e-06
-1.13921e-05
-7.39031e-06
-1.17572e-05
-3.89894e-06
-1.1864e-05
-6.46442e-07
-1.20366e-05
1.40973e-06
-1.20859e-05
1.98368e-06
-1.17012e-05
1.58383e-06
-1.07488e-05
1.08285e-06
-9.11842e-06
1.07492e-06
-6.48202e-06
1.49567e-06
-2.61177e-06
1.74217e-06
1.68172e-06
-4.76349e-07
4.66605e-06
-7.05661e-06
4.70227e-06
-1.42238e-05
3.10115e-06
-2.09673e-05
-1.93643e-05
4.50882e-07
1.91597e-05
2.74141e-07
1.78778e-05
-5.70001e-07
1.60979e-05
-1.02089e-06
1.49187e-05
-4.08589e-07
9.99068e-06
-1.18482e-07
1.69484e-06
-2.46717e-06
-4.12285e-06
-6.4726e-06
-5.49297e-06
-1.01434e-05
-3.71951e-06
-1.21856e-05
-1.85671e-06
-1.29482e-05
1.16134e-07
-1.31977e-05
1.65928e-06
-1.31164e-05
1.90238e-06
-1.25224e-05
9.89837e-07
-1.13828e-05
-5.6841e-08
-9.8041e-06
-5.03743e-07
-7.5708e-06
-7.37625e-07
-4.32553e-06
-1.50311e-06
-5.19542e-07
-4.28234e-06
2.51391e-06
-1.00901e-05
3.19594e-06
-1.49058e-05
2.60124e-06
-2.03726e-05
-1.67631e-05
2.406e-06
1.67537e-05
4.17432e-06
1.61095e-05
5.79112e-06
1.44811e-05
7.75153e-06
1.29583e-05
9.10903e-06
8.63318e-06
7.67389e-06
3.12998e-06
2.63145e-06
9.19594e-07
-3.73286e-06
8.71345e-07
-9.02696e-06
1.57459e-06
-1.23564e-05
1.4727e-06
-1.39347e-05
1.69448e-06
-1.44368e-05
2.16134e-06
-1.42433e-05
1.70891e-06
-1.33611e-05
1.07637e-07
-1.18664e-05
-1.55153e-06
-1.01369e-05
-2.23323e-06
-8.11998e-06
-2.75458e-06
-5.56212e-06
-4.06097e-06
-2.60307e-06
-7.24139e-06
-2.44772e-08
-1.26687e-05
1.29066e-06
-1.62209e-05
1.82146e-06
-2.09034e-05
-1.49416e-05
4.50344e-06
1.22503e-05
9.49754e-06
1.11154e-05
1.3524e-05
1.04546e-05
1.59475e-05
1.05348e-05
1.49114e-05
9.66927e-06
9.46403e-06
8.57735e-06
1.92359e-06
8.46003e-06
-4.67015e-06
7.46509e-06
-9.17319e-06
6.07762e-06
-1.21451e-05
4.4446e-06
-1.41921e-05
3.74152e-06
-1.52899e-05
3.25908e-06
-1.53521e-05
1.7711e-06
-1.43409e-05
-9.03522e-07
-1.24952e-05
-3.3972e-06
-1.05622e-05
-4.16624e-06
-8.5491e-06
-4.76769e-06
-6.20216e-06
-6.40791e-06
-3.44868e-06
-9.99488e-06
-8.94297e-07
-1.5223e-05
1.17182e-06
-1.8287e-05
2.20552e-06
-2.19371e-05
-1.27361e-05
-1.98254e-05
1.98254e-05
-4.4528e-05
2.47025e-05
-4.7015e-05
2.48708e-06
-3.41012e-05
-1.29139e-05
-1.67102e-05
-1.7391e-05
9.73075e-06
-2.64409e-05
2.82316e-05
-1.85008e-05
2.30661e-05
5.16542e-06
4.95904e-07
2.25702e-05
-4.55269e-05
4.60228e-05
-9.30649e-05
4.7538e-05
-0.000122327
2.92623e-05
-0.000133263
1.09356e-05
-0.000120215
-1.30477e-05
-8.06503e-05
-3.95648e-05
-4.49939e-05
-3.56564e-05
-2.57149e-05
-1.9279e-05
-9.08641e-07
-2.48062e-05
-9.08636e-07
-2.72476e-05
4.70731e-05
-4.00708e-05
3.75257e-05
-3.38606e-05
-3.72312e-06
-2.06152e-05
-2.61593e-05
-3.83257e-06
-3.41736e-05
1.65765e-05
-4.68499e-05
2.91877e-05
-3.1112e-05
8.31631e-06
2.60368e-05
-4.8291e-05
7.91775e-05
-0.000104583
0.000102315
-0.000142716
8.56709e-05
-0.000168123
5.46695e-05
-0.000176391
1.92029e-05
-0.000139988
-4.945e-05
-6.92978e-05
-0.000110255
-3.183e-05
-7.31242e-05
-3.40177e-05
-1.70915e-05
-2.3556e-05
-3.52679e-05
-2.44646e-05
-2.12585e-05
6.83316e-05
-2.66842e-05
4.29514e-05
-1.88842e-05
-1.15232e-05
-7.44876e-06
-3.75947e-05
4.97003e-06
-4.65924e-05
1.75715e-05
-5.94514e-05
1.15059e-05
-2.50465e-05
-2.94361e-05
6.69788e-05
-9.14798e-05
0.000141221
-0.000174241
0.000185076
-0.000273009
0.000184439
-0.000304601
8.62618e-05
-0.000224473
-6.09256e-05
-8.74519e-05
-0.000186471
1.54617e-05
-0.000213169
9.24333e-05
-0.000150096
5.85677e-05
1.67742e-05
-1.31192e-05
3.64191e-05
-3.75838e-05
-1.05595e-05
7.88911e-05
-9.92759e-06
4.23195e-05
-1.83826e-06
-1.96125e-05
6.58932e-06
-4.60223e-05
9.82322e-06
-4.98263e-05
8.42339e-06
-5.80516e-05
-1.53861e-05
-1.23698e-06
-6.41331e-05
0.000115726
-0.000140531
0.000217619
-0.000260722
0.000305267
-0.000315349
0.000239065
-0.000225363
-3.72431e-06
-0.000106588
-0.0001797
-1.70485e-05
-0.00027601
1.58039e-05
-0.000246021
5.95465e-05
-0.000193838
0.000119957
-4.36359e-05
4.32068e-05
0.000113169
5.62298e-06
9.78268e-07
7.79128e-05
1.01983e-05
3.30995e-05
1.66028e-05
-2.6017e-05
2.23045e-05
-5.1724e-05
1.33537e-05
-4.08755e-05
-7.13797e-06
-3.75599e-05
-4.51035e-05
3.67285e-05
-0.000103334
0.000173956
-0.000206631
0.000320917
-0.000294852
0.000393488
-0.000255151
0.000199364
-0.000141242
-0.000117633
-3.93187e-05
-0.000281623
4.617e-06
-0.000319946
1.91064e-05
-0.000260511
2.79947e-05
-0.000202727
7.55449e-05
-9.11861e-05
3.6357e-05
0.000152357
4.19799e-05
1.01879e-05
6.7725e-05
2.51348e-05
1.81526e-05
3.69631e-05
-3.78453e-05
3.83405e-05
-5.31015e-05
1.70536e-05
-1.95886e-05
-1.79407e-05
-2.5656e-06
-6.30717e-05
8.18595e-05
-0.000130922
0.000241806
-0.000234745
0.00042474
-0.000249496
0.00040824
-0.000154792
0.00010466
-5.3778e-05
-0.000218647
-5.27554e-06
-0.000330126
6.97705e-06
-0.000332198
1.5456e-05
-0.00026899
1.92178e-05
-0.000206488
3.98593e-05
-0.000111828
-1.16558e-05
0.000203872
3.03241e-05
1.71986e-05
5.05263e-05
3.78481e-05
-2.49696e-06
5.27391e-05
-5.27362e-05
4.83951e-05
-4.87575e-05
1.89742e-05
9.83229e-06
-2.453e-05
4.09386e-05
-7.50021e-05
0.000132332
-0.000153424
0.000320228
-0.000230854
0.00050217
-0.000195249
0.000372635
-9.73948e-05
6.80503e-06
-2.17784e-05
-0.000294263
-2.51413e-07
-0.000351653
2.6486e-06
-0.000335099
1.00982e-05
-0.000276439
1.6032e-05
-0.000212422
1.40872e-05
-0.000109883
-3.27063e-05
0.000250665
-2.38213e-06
2.69285e-05
2.35979e-05
4.72361e-05
-2.28046e-05
5.6013e-05
-6.15132e-05
4.77987e-05
-4.05432e-05
1.6658e-05
4.0973e-05
-2.66003e-05
8.41969e-05
-7.76279e-05
0.000183359
-0.000160622
0.000403221
-0.000203038
0.000544587
-0.000148169
0.000317766
-6.26294e-05
-7.87351e-05
-1.78188e-05
-0.000339074
-5.0128e-06
-0.000364459
-3.16135e-06
-0.00033695
3.19109e-06
-0.000282792
7.95607e-06
-0.000217187
-1.39528e-05
-8.79739e-05
-3.17303e-05
0.000268443
-3.41124e-05
2.67608e-08
1.22235e-05
-4.8796e-06
1.60217e-05
-9.8563e-06
1.54313e-05
-1.51495e-05
1.5828e-05
-2.11249e-05
1.56447e-05
-2.62748e-05
1.37273e-05
-2.84884e-05
1.06737e-05
-2.87575e-05
7.73415e-06
-2.81172e-05
5.43732e-06
-2.84851e-05
4.81253e-06
-3.05158e-05
5.77218e-06
-3.24469e-05
5.19019e-06
-3.19705e-05
1.2947e-06
-2.81032e-05
-4.77076e-06
-2.30726e-05
-8.42782e-06
-1.97772e-05
-7.46165e-06
-1.70399e-05
-7.50495e-06
-1.29385e-05
-1.05094e-05
-6.6967e-06
-1.62366e-05
5.28041e-07
-2.24478e-05
7.3677e-06
-2.51267e-05
1.07137e-05
-2.52832e-05
-2.03159e-05
1.82935e-05
-9.83512e-05
0.000110575
-0.000103531
2.12017e-05
-9.78568e-05
9.75699e-06
-9.37778e-05
1.1749e-05
-9.13497e-05
1.32166e-05
-8.84993e-05
1.08769e-05
-8.35622e-05
5.73652e-06
-7.68404e-05
1.01237e-06
-6.40261e-05
-7.37699e-06
-4.99117e-05
-9.30192e-06
-4.21197e-05
-2.01979e-06
-3.76201e-05
6.9061e-07
-3.29375e-05
-3.38791e-06
-2.70388e-05
-1.06695e-05
-2.18231e-05
-1.36435e-05
-1.90539e-05
-1.02308e-05
-1.82949e-05
-8.26391e-06
-1.62724e-05
-1.25319e-05
-1.05812e-05
-2.19278e-05
-1.93343e-06
-3.10955e-05
5.11002e-06
-3.21701e-05
6.77825e-06
-2.69514e-05
-2.15798e-05
8.04219e-06
-8.50973e-05
0.000195672
-0.000153648
8.97528e-05
-0.000223315
7.94237e-05
-0.000280089
6.85234e-05
-0.000314621
4.77482e-05
-0.0003282
2.44556e-05
-0.000325781
3.3182e-06
-0.000300779
-2.39906e-05
-0.000256445
-5.17103e-05
-0.000204499
-6.12483e-05
-0.00017629
-3.02291e-05
-0.000166822
-8.77667e-06
-0.000158864
-1.13466e-05
-0.000147388
-2.21446e-05
-0.00013382
-2.72115e-05
-0.000119709
-2.43418e-05
-0.000107704
-2.02694e-05
-9.5039e-05
-2.5197e-05
-7.59375e-05
-4.10293e-05
-4.60701e-05
-6.0963e-05
-1.4911e-05
-6.33292e-05
1.05008e-05
-5.23631e-05
-4.12035e-05
3.01244e-05
-7.03393e-05
0.000266011
-0.000144183
0.000163597
-0.000211828
0.000147069
-0.000264134
0.000120829
-0.000311793
9.54069e-05
-0.000360651
7.33141e-05
-0.000401403
4.407e-05
-0.000420977
-4.41713e-06
-0.000416761
-5.59262e-05
-0.000409173
-6.88364e-05
-0.00039045
-4.89521e-05
-0.000362892
-3.63341e-05
-0.000341323
-3.29157e-05
-0.000329613
-3.38546e-05
-0.000317203
-3.96211e-05
-0.000290489
-5.10564e-05
-0.000261334
-4.94247e-05
-0.000230058
-5.64725e-05
-0.000177014
-9.40731e-05
-5.81659e-05
-0.000179811
9.25893e-05
-0.000214084
0.000217239
-0.000177013
-0.000132041
0.000308077
-4.87774e-05
0.000314789
-0.000103897
0.000218716
-0.000138161
0.000181333
-0.000153195
0.000135863
-0.000156428
9.86394e-05
-0.000161473
7.83591e-05
-0.000176056
5.86527e-05
-0.000207562
2.70893e-05
-0.000241373
-2.21152e-05
-0.000254853
-5.53564e-05
-0.000264983
-3.88225e-05
-0.000280298
-2.10191e-05
-0.000313887
6.74166e-07
-0.000364243
1.65007e-05
-0.000390424
-1.34404e-05
-0.000370704
-7.07758e-05
-0.000312244
-0.000107885
-0.000254934
-0.000113783
-0.000220384
-0.000128622
-0.000215956
-0.00018424
-0.000197549
-0.000232491
-0.000161929
-0.000212633
-0.000195734
-9.82364e-05
-2.26395e-05
0.000337428
-5.80382e-05
0.000254115
-6.55458e-05
0.00018884
-6.16177e-05
0.000131935
-4.94492e-05
8.64709e-05
-3.88797e-05
6.77896e-05
-3.84999e-05
5.82729e-05
-6.40379e-05
5.26273e-05
-0.000123702
3.75487e-05
-0.000199652
2.05943e-05
-0.000255858
1.73832e-05
-0.000300173
2.32962e-05
-0.000339021
3.95213e-05
-0.000356986
3.44664e-05
-0.000353434
-1.69928e-05
-0.000329216
-9.49936e-05
-0.000278505
-0.000158596
-0.000235821
-0.000156467
-0.000221018
-0.000143425
-0.000256349
-0.000148909
-0.000317298
-0.000171541
-0.000383043
-0.000146889
-0.000155646
-0.000423131
1.21924e-05
0.000325236
-1.02629e-05
0.00027657
-1.391e-05
0.000192487
-2.48822e-06
0.000120514
2.31614e-06
8.16666e-05
3.61728e-06
6.64884e-05
-3.22694e-07
6.22129e-05
-1.3588e-05
6.58926e-05
-4.97735e-05
7.37341e-05
-0.000106776
7.7597e-05
-0.000167939
7.85462e-05
-0.00022219
7.75472e-05
-0.000262779
8.01094e-05
-0.000293561
6.52483e-05
-0.00031579
5.23639e-06
-0.000327546
-8.32376e-05
-0.000313217
-0.000172925
-0.000271656
-0.000198029
-0.000238834
-0.000176247
-0.000243132
-0.000144611
-0.000300293
-0.000114381
-0.000389376
-5.78068e-05
-7.42722e-05
-0.000470749
4.76278e-05
0.000277608
3.91295e-05
0.000285069
3.40698e-05
0.000197547
3.27342e-05
0.000121849
3.05778e-05
8.3823e-05
2.24871e-05
7.45791e-05
9.63937e-06
7.50607e-05
-4.20511e-06
7.9737e-05
-2.1397e-05
9.09261e-05
-4.83483e-05
0.000104548
-8.45164e-05
0.000114714
-0.0001257
0.000118731
-0.000164613
0.000119022
-0.000203325
0.000103961
-0.000247009
4.892e-05
-0.000284943
-4.53041e-05
-0.000310638
-0.00014723
-0.000294213
-0.000214454
-0.000266532
-0.000203928
-0.000248153
-0.000162989
-0.000248881
-0.000113653
-0.000236624
-7.00637e-05
-5.70346e-05
-0.000253861
5.79064e-05
0.000219702
7.56516e-05
0.000267323
7.21248e-05
0.000201074
6.16504e-05
0.000132324
4.87089e-05
9.67646e-05
3.34688e-05
8.98193e-05
1.59977e-05
9.25318e-05
-3.75901e-07
9.61106e-05
-1.21118e-05
0.000102662
-2.33183e-05
0.000115755
-3.82981e-05
0.000129694
-5.85397e-05
0.000138973
-8.27845e-05
0.000143267
-0.000116598
0.000137774
-0.000171554
0.000103876
-0.000239406
2.25482e-05
-0.000294869
-9.17662e-05
-0.000313564
-0.00019576
-0.00028673
-0.000230762
-0.000250583
-0.000199136
-0.000213909
-0.000150328
-0.000177186
-0.000106786
-8.62177e-05
-0.000148003
4.12149e-05
0.000178487
7.51477e-05
0.000233391
8.28189e-05
0.000193403
7.23332e-05
0.000142809
5.47669e-05
0.000114331
3.69157e-05
0.00010767
2.01217e-05
0.000109326
4.79457e-06
0.000111438
-6.30107e-06
0.000113758
-1.29037e-05
0.000122357
-1.80287e-05
0.000134819
-2.40903e-05
0.000145034
-3.29238e-05
0.0001521
-5.11578e-05
0.000156008
-9.39967e-05
0.000146714
-0.000170315
9.88669e-05
-0.000255881
-6.20112e-06
-0.000313883
-0.000137757
-0.00032798
-0.000216665
-0.00028711
-0.000240006
-0.000234216
-0.000203222
-0.000182199
-0.000158802
-0.000122888
-0.000145529
1.68302e-05
0.000161657
5.24758e-05
0.000197745
6.84557e-05
0.000177423
6.3782e-05
0.000147483
4.94853e-05
0.000128628
3.48118e-05
0.000122344
2.19575e-05
0.00012218
1.02227e-05
0.000123173
6.09292e-07
0.000123371
-5.063e-06
0.00012803
-7.01004e-06
0.000136766
-7.3152e-06
0.000145339
-8.04282e-06
0.000152828
-1.34962e-05
0.000161461
-3.4636e-05
0.000167854
-8.61163e-05
0.000150347
-0.000171703
7.9385e-05
-0.000268062
-4.13977e-05
-0.0003263
-0.000158426
-0.000343938
-0.000222369
-0.000314548
-0.000232612
-0.00025624
-0.000217111
-0.000170746
-0.000208381
3.04831e-06
0.000158609
3.07612e-05
0.000170032
4.69651e-05
0.000161219
4.72986e-05
0.00014715
3.9516e-05
0.00013641
3.07651e-05
0.000131095
2.29211e-05
0.000130024
1.55123e-05
0.000130581
8.3578e-06
0.000130525
3.72218e-06
0.000132665
2.52982e-06
0.000137959
3.47388e-06
0.000144395
4.97136e-06
0.00015133
5.72802e-06
0.000160705
7.9877e-07
0.000172784
-2.3462e-05
0.000174608
-8.03459e-05
0.000136269
-0.000166874
4.51307e-05
-0.000263801
-6.14999e-05
-0.000343668
-0.000142502
-0.000371924
-0.000204355
-0.000363078
-0.000225957
-0.000213145
-0.00032068
7.23542e-07
0.000157885
1.83768e-05
0.000152379
3.03852e-05
0.000149211
3.32277e-05
0.000144307
3.09863e-05
0.000138652
2.74521e-05
0.000134629
2.39266e-05
0.000133549
2.03905e-05
0.000134118
1.63366e-05
0.000134579
1.31236e-05
0.000135878
1.2191e-05
0.000138891
1.30121e-05
0.000143574
1.44393e-05
0.000149903
1.65581e-05
0.000158586
1.89172e-05
0.000170425
1.21816e-05
0.000181344
-2.16614e-05
0.000170112
-8.27942e-05
0.000106264
-0.000157268
1.29733e-05
-0.00024571
-5.40594e-05
-0.000345361
-0.000104704
-0.000436738
-0.000134581
-0.000139794
-0.000510089
2.50116e-06
0.000155384
1.28665e-05
0.000142014
2.09584e-05
0.000141119
2.47735e-05
0.000140492
2.58191e-05
0.000137606
2.56018e-05
0.000134846
2.50486e-05
0.000134103
2.43773e-05
0.000134789
2.31507e-05
0.000135806
2.18967e-05
0.000137132
2.15661e-05
0.000139222
2.22897e-05
0.000142851
2.35219e-05
0.000148671
2.54106e-05
0.000156697
2.8943e-05
0.000166892
3.03759e-05
0.000179911
1.24437e-05
0.000188044
-4.2339e-05
0.000161046
-0.000107667
7.83014e-05
-0.000172642
1.09153e-05
-0.00026048
-1.68666e-05
-0.000361721
-3.33397e-05
-6.45893e-05
-0.000436925
3.90331e-06
0.000151481
1.0605e-05
0.000135312
1.65061e-05
0.000135218
2.06013e-05
0.000136397
2.31957e-05
0.000135012
2.47895e-05
0.000133253
2.60554e-05
0.000132837
2.72717e-05
0.000133573
2.82004e-05
0.000134877
2.88869e-05
0.000136446
2.96694e-05
0.000138439
3.0859e-05
0.000141661
3.25064e-05
0.000147023
3.46601e-05
0.000154543
3.79623e-05
0.00016359
4.22436e-05
0.000175629
3.79828e-05
0.000192305
9.00011e-07
0.000198129
-6.69696e-05
0.000146171
-0.000124224
6.81702e-05
-0.00017455
3.3459e-05
-0.000239719
3.1829e-05
9.4198e-06
-0.000313728
4.28349e-06
0.000147197
9.52008e-06
0.000130076
1.45047e-05
0.000130233
1.8635e-05
0.000132266
2.18973e-05
0.000131749
2.44726e-05
0.000130678
2.68216e-05
0.000130488
2.92149e-05
0.000131179
3.1593e-05
0.000132499
3.38443e-05
0.000134194
3.59608e-05
0.000136323
3.81905e-05
0.000139431
4.09291e-05
0.000144285
4.43713e-05
0.000151101
4.8656e-05
0.000159305
5.47619e-05
0.000169523
6.1401e-05
0.000185665
5.35696e-05
0.00020596
2.91123e-06
0.000196829
-5.99602e-05
0.000131042
-9.90214e-05
7.25201e-05
-0.000119439
5.22463e-05
4.41158e-05
-0.000154135
4.31129e-06
0.000142886
8.88251e-06
0.000125505
1.34983e-05
0.000125618
1.76197e-05
0.000128145
2.12155e-05
0.000128154
2.43775e-05
0.000127515
2.74082e-05
0.000127457
3.05369e-05
0.000128051
3.3821e-05
0.000129215
3.71811e-05
0.000130834
4.05503e-05
0.000132954
4.41e-05
0.000135882
4.8302e-05
0.000140083
5.35796e-05
0.000145823
6.00471e-05
0.000152838
6.84753e-05
0.000161095
8.11908e-05
0.00017295
9.53204e-05
0.000191831
8.60013e-05
0.000206148
4.05543e-05
0.000176489
-5.5402e-06
0.000118615
-2.48171e-05
7.15232e-05
4.20918e-05
-2.2793e-05
4.32551e-06
0.000138561
8.5112e-06
0.000121319
1.29267e-05
0.000121202
1.70481e-05
0.000124024
2.08594e-05
0.000124342
2.44196e-05
0.000123955
2.79212e-05
0.000123956
3.15437e-05
0.000124428
3.54001e-05
0.000125359
3.95046e-05
0.00012673
4.38701e-05
0.000128588
4.86593e-05
0.000131093
5.42914e-05
0.000134451
6.12896e-05
0.000138825
6.9992e-05
0.000144136
8.09246e-05
0.000150162
9.63857e-05
0.000157489
0.000119996
0.00016822
0.000144035
0.000182109
0.000141994
0.00017853
0.00011741
0.000143198
9.63823e-05
9.2551e-05
4.48906e-05
9.35835e-05
4.36458e-06
0.000134196
8.32212e-06
0.000117361
1.2598e-05
0.000116926
1.6726e-05
0.000119896
2.06901e-05
0.000120378
2.4535e-05
0.00012011
2.83876e-05
0.000120103
3.23796e-05
0.000120436
3.66372e-05
0.000121101
4.12502e-05
0.000122117
4.6319e-05
0.000123519
5.20343e-05
0.000125377
5.87427e-05
0.000127742
6.69256e-05
0.000130642
7.70605e-05
0.000134001
8.96379e-05
0.000137585
0.000105967
0.00014116
0.000129482
0.000144706
0.000162657
0.000148934
0.000193273
0.000147914
0.000207433
0.000129038
0.000206612
9.3372e-05
4.75293e-05
0.000203973
4.38317e-06
0.000129813
8.22402e-06
0.000113521
1.24007e-05
0.000112749
1.65344e-05
0.000115762
2.06018e-05
0.000116311
2.46455e-05
0.000116067
2.8757e-05
0.000115992
3.30356e-05
0.000116157
3.75981e-05
0.000116539
4.2567e-05
0.000117148
4.80864e-05
0.000118
5.43584e-05
0.000119105
6.16662e-05
0.000120434
7.03894e-05
0.000121919
8.09711e-05
0.000123419
9.38718e-05
0.000124684
0.000109756
0.000125275
0.00013007
0.000124392
0.000157692
0.000121312
0.000191051
0.000114555
0.000220925
9.91633e-05
0.000241927
7.23707e-05
3.40033e-05
0.000255452
4.36146e-06
0.000125451
8.14628e-06
0.000109736
1.22489e-05
0.000108647
1.63799e-05
0.000111631
2.05076e-05
0.000112183
2.46762e-05
0.000111898
2.89602e-05
0.000111708
3.34409e-05
0.000111677
3.82188e-05
0.000111761
4.34161e-05
0.000111951
4.91781e-05
0.000112238
5.56893e-05
0.000112594
6.31743e-05
0.000112949
7.19078e-05
0.000113186
8.22124e-05
0.000113114
9.44354e-05
0.000112461
0.000108932
0.000110779
0.000126008
0.000107316
0.00014637
0.00010095
0.000170285
9.06397e-05
0.000194688
7.47609e-05
0.000214612
5.24467e-05
2.28072e-05
0.000225808
4.30577e-06
0.000121145
8.05078e-06
0.00010599
1.20865e-05
0.000104611
1.61989e-05
0.000107518
2.0347e-05
0.000108035
2.4575e-05
0.00010767
2.89485e-05
0.000107334
3.35373e-05
0.000107088
3.84273e-05
0.000106871
4.3724e-05
0.000106654
4.9553e-05
0.000106409
5.60625e-05
0.000106085
6.34207e-05
0.000105591
7.18148e-05
0.000104792
8.14441e-05
0.000103485
9.25076e-05
0.000101398
0.000105159
9.81267e-05
0.000119357
9.3118e-05
0.00013478
8.5527e-05
0.000150878
7.45417e-05
0.000166272
5.93663e-05
0.000178626
4.00934e-05
1.64919e-05
0.000184941
4.22564e-06
0.00011692
7.9223e-06
0.000102294
1.18834e-05
0.00010065
1.59543e-05
0.000103447
2.00849e-05
0.000103904
2.43148e-05
0.00010344
2.87017e-05
0.000102948
3.33072e-05
0.000102482
3.82035e-05
0.000101975
4.34762e-05
0.000101381
4.92242e-05
0.000100661
5.55575e-05
9.97514e-05
6.25924e-05
9.85562e-05
7.04465e-05
9.69375e-05
7.92246e-05
9.4707e-05
8.90047e-05
9.16178e-05
9.97944e-05
8.73371e-05
0.00011145
8.1462e-05
0.000123517
7.34599e-05
0.000135219
6.28399e-05
0.000145421
4.91645e-05
0.000152875
3.26395e-05
1.33993e-05
0.000155967
4.12634e-06
0.000112793
7.75698e-06
9.86629e-05
1.16267e-05
9.67801e-05
1.56297e-05
9.94444e-05
1.9706e-05
9.98281e-05
2.38871e-05
9.92594e-05
2.82233e-05
9.86113e-05
3.27674e-05
9.79384e-05
3.75784e-05
9.71636e-05
4.27237e-05
9.62359e-05
4.82764e-05
9.51082e-05
5.43127e-05
9.37151e-05
6.09068e-05
9.19621e-05
6.81222e-05
8.97222e-05
7.59992e-05
8.683e-05
8.4538e-05
8.30791e-05
9.36615e-05
7.82136e-05
0.00010318
7.19436e-05
0.000112698
6.39421e-05
0.000121596
5.39414e-05
0.000129005
4.17559e-05
0.000134036
2.76083e-05
1.16387e-05
0.000135796
4.01066e-06
0.000108783
7.55603e-06
9.51175e-05
1.13138e-05
9.30223e-05
1.52208e-05
9.55373e-05
1.92082e-05
9.58408e-05
2.32972e-05
9.51704e-05
2.75305e-05
9.4378e-05
3.19519e-05
9.35169e-05
3.6608e-05
9.25074e-05
4.15497e-05
9.12942e-05
4.68282e-05
8.98297e-05
5.24928e-05
8.80505e-05
5.85848e-05
8.58702e-05
6.5129e-05
8.3178e-05
7.21233e-05
7.98357e-05
7.95237e-05
7.56787e-05
8.72174e-05
7.05199e-05
9.50025e-05
6.41585e-05
0.000102547
5.63974e-05
0.000109393
4.70956e-05
0.000114951
3.6198e-05
0.000118626
2.3933e-05
1.04023e-05
0.000119863
3.8814e-06
0.000104901
7.3228e-06
9.16761e-05
1.09483e-05
8.93969e-05
1.47322e-05
9.17534e-05
1.85989e-05
9.19741e-05
2.25593e-05
9.12099e-05
2.66482e-05
9.0289e-05
3.09006e-05
8.92645e-05
3.53524e-05
8.80555e-05
4.00398e-05
8.66069e-05
4.49963e-05
8.48733e-05
5.02502e-05
8.27965e-05
5.58187e-05
8.03018e-05
6.17009e-05
7.72959e-05
6.78685e-05
7.36681e-05
7.42552e-05
6.92919e-05
8.07407e-05
6.40344e-05
8.71365e-05
5.77628e-05
9.3171e-05
5.03628e-05
9.84981e-05
4.17685e-05
0.000102713
3.19826e-05
0.000105428
2.12182e-05
9.55478e-06
0.000106276
3.74245e-06
0.000101159
7.06168e-06
8.8357e-05
1.05375e-05
8.5921e-05
1.41734e-05
8.81175e-05
1.78918e-05
8.82558e-05
2.16934e-05
8.74082e-05
2.56051e-05
8.63774e-05
2.96545e-05
8.5215e-05
3.38684e-05
8.38416e-05
3.82702e-05
8.22051e-05
4.28797e-05
8.02637e-05
4.77095e-05
7.79667e-05
5.27599e-05
7.52514e-05
5.80135e-05
7.20423e-05
6.34285e-05
6.82531e-05
6.89305e-05
6.379e-05
7.44044e-05
5.85605e-05
7.96863e-05
5.24809e-05
8.4559e-05
4.54901e-05
8.876e-05
3.75674e-05
9.19996e-05
2.8743e-05
9.40176e-05
1.92002e-05
8.99685e-06
9.45755e-05
3.59869e-06
9.756e-05
6.77724e-06
8.51784e-05
1.00902e-05
8.2608e-05
1.35574e-05
8.46504e-05
1.71044e-05
8.47087e-05
2.07232e-05
8.37893e-05
2.44328e-05
8.26678e-05
2.82553e-05
8.13924e-05
3.22088e-05
7.9888e-05
3.63074e-05
7.81065e-05
4.05603e-05
7.60108e-05
4.49685e-05
7.35584e-05
4.95212e-05
7.06986e-05
5.41921e-05
6.73714e-05
5.89334e-05
6.35117e-05
6.36714e-05
5.9052e-05
6.8302e-05
5.393e-05
7.26872e-05
4.80957e-05
7.66555e-05
4.15219e-05
8.00083e-05
3.42146e-05
8.25353e-05
2.6216e-05
8.40569e-05
1.76785e-05
8.63994e-06
8.44138e-05
3.45611e-06
9.41039e-05
6.47373e-06
8.21608e-05
9.61404e-06
7.94677e-05
1.28965e-05
8.13679e-05
1.62553e-05
8.13498e-05
1.96733e-05
8.03712e-05
2.31637e-05
7.91773e-05
2.67431e-05
7.78129e-05
3.0423e-05
7.62081e-05
3.42103e-05
7.43192e-05
3.81065e-05
7.21147e-05
4.21049e-05
6.956e-05
4.61885e-05
6.6615e-05
5.03261e-05
6.32338e-05
5.44696e-05
5.93682e-05
5.85502e-05
5.49714e-05
6.2477e-05
5.00032e-05
6.6136e-05
4.44367e-05
6.93919e-05
3.82659e-05
7.20949e-05
3.15116e-05
7.40906e-05
2.42203e-05
7.52527e-05
1.65164e-05
8.42038e-06
7.54723e-05
3.3222e-06
9.07817e-05
6.15581e-06
7.93272e-05
9.11366e-06
7.65098e-05
1.22015e-05
7.828e-05
1.53611e-05
7.819e-05
1.85667e-05
7.71656e-05
2.18275e-05
7.59166e-05
2.51551e-05
7.44852e-05
2.85558e-05
7.28074e-05
3.20314e-05
7.08436e-05
3.55783e-05
6.85678e-05
3.91849e-05
6.59534e-05
4.2831e-05
6.29689e-05
4.64846e-05
5.95802e-05
5.00997e-05
5.57531e-05
5.36149e-05
5.14562e-05
5.69524e-05
4.66657e-05
6.0019e-05
4.13701e-05
6.27088e-05
3.55761e-05
6.4908e-05
2.93124e-05
6.65025e-05
2.26259e-05
6.74012e-05
1.56177e-05
8.29534e-06
6.75264e-05
3.2042e-06
8.75775e-05
5.83049e-06
7.67008e-05
8.59227e-06
7.3748e-05
1.14804e-05
7.53919e-05
1.4435e-05
7.52354e-05
1.74222e-05
7.41784e-05
2.04486e-05
7.28901e-05
2.3522e-05
7.14118e-05
2.66449e-05
6.96845e-05
2.98156e-05
6.76728e-05
3.30268e-05
6.53565e-05
3.62649e-05
6.27153e-05
3.95084e-05
5.97253e-05
4.27264e-05
5.63622e-05
4.58772e-05
5.26023e-05
4.89071e-05
4.84263e-05
5.1751e-05
4.38218e-05
5.43336e-05
3.87874e-05
5.65725e-05
3.33372e-05
5.83819e-05
2.75031e-05
5.96772e-05
2.13306e-05
6.03932e-05
1.49018e-05
8.21346e-06
6.04752e-05
3.10468e-06
8.44728e-05
5.507e-06
7.42985e-05
8.0547e-06
7.12003e-05
1.07389e-05
7.27076e-05
1.34851e-05
7.24891e-05
1.62516e-05
7.1412e-05
1.90431e-05
7.00985e-05
2.18647e-05
6.85903e-05
2.47167e-05
6.68325e-05
2.75949e-05
6.47946e-05
3.04899e-05
6.24614e-05
3.33872e-05
5.98181e-05
3.62655e-05
5.68469e-05
3.90964e-05
5.35313e-05
4.18428e-05
4.98559e-05
4.44591e-05
4.58099e-05
4.68918e-05
4.13891e-05
4.9081e-05
3.65982e-05
5.09636e-05
3.14547e-05
5.2476e-05
2.59909e-05
5.35576e-05
2.02491e-05
5.41629e-05
1.42966e-05
8.12171e-06
5.42547e-05
3.0194e-06
8.14534e-05
5.19184e-06
7.2126e-05
7.50656e-06
6.88856e-05
9.9796e-06
7.02345e-05
1.25138e-05
6.99549e-05
1.50579e-05
6.88678e-05
1.76152e-05
6.75412e-05
2.01895e-05
6.6016e-05
2.27799e-05
6.42421e-05
2.53805e-05
6.2194e-05
2.79808e-05
5.98612e-05
3.05659e-05
5.72329e-05
3.31158e-05
5.42969e-05
3.56048e-05
5.10422e-05
3.80007e-05
4.74599e-05
4.02655e-05
4.35451e-05
4.23559e-05
3.92987e-05
4.42251e-05
3.4729e-05
4.58255e-05
2.98544e-05
4.71116e-05
2.47047e-05
4.80422e-05
1.93186e-05
4.85877e-05
1.37512e-05
7.98487e-06
4.87246e-05
2.94007e-06
7.85133e-05
4.88418e-06
7.01819e-05
6.94894e-06
6.68208e-05
9.19978e-06
6.79837e-05
1.1516e-05
6.76387e-05
1.3834e-05
6.65497e-05
1.61561e-05
6.52191e-05
1.84857e-05
6.36864e-05
2.08214e-05
6.19064e-05
2.31563e-05
5.98591e-05
2.54789e-05
5.75386e-05
2.77749e-05
5.49369e-05
3.00254e-05
5.20463e-05
3.22075e-05
4.88601e-05
3.42936e-05
4.53737e-05
3.62521e-05
4.15866e-05
3.80483e-05
3.75025e-05
3.96457e-05
3.31316e-05
4.1009e-05
2.8491e-05
4.21064e-05
2.36074e-05
4.29108e-05
1.85144e-05
4.34043e-05
1.32577e-05
7.81706e-06
4.35722e-05
2.85812e-06
7.56551e-05
4.57824e-06
6.84618e-05
6.37715e-06
6.50219e-05
8.39252e-06
6.59683e-05
1.04806e-05
6.55507e-05
1.25642e-05
6.44662e-05
1.46455e-05
6.31378e-05
1.67277e-05
6.16041e-05
1.88094e-05
5.98248e-05
2.08822e-05
5.77863e-05
2.29346e-05
5.54862e-05
2.49524e-05
5.29191e-05
2.69181e-05
5.00805e-05
2.88113e-05
4.69669e-05
3.06081e-05
4.35769e-05
3.2282e-05
3.99126e-05
3.38048e-05
3.59797e-05
3.51477e-05
3.17886e-05
3.62842e-05
2.73545e-05
3.71916e-05
2.27001e-05
3.78518e-05
1.78542e-05
3.82544e-05
1.28551e-05
7.68273e-06
3.83888e-05
2.76265e-06
7.28925e-05
4.26833e-06
6.69561e-05
5.78641e-06
6.35039e-05
7.55145e-06
6.42032e-05
9.39639e-06
6.37057e-05
1.12324e-05
6.26301e-05
1.30628e-05
6.13074e-05
1.48892e-05
5.97777e-05
1.671e-05
5.8004e-05
1.85158e-05
5.59805e-05
2.02946e-05
5.37074e-05
2.20327e-05
5.11809e-05
2.37141e-05
4.8399e-05
2.53201e-05
4.53609e-05
2.68296e-05
4.20673e-05
2.82202e-05
3.8522e-05
2.94683e-05
3.47316e-05
3.05509e-05
3.07061e-05
3.14473e-05
2.64582e-05
3.21405e-05
2.2007e-05
3.26173e-05
1.73775e-05
3.28723e-05
1.26002e-05
7.65836e-06
3.28967e-05
2.6388e-06
7.02537e-05
3.94756e-06
6.56474e-05
5.17541e-06
6.22761e-05
6.67583e-06
6.27028e-05
8.25966e-06
6.21219e-05
9.83398e-06
6.10558e-05
1.14014e-05
5.97399e-05
1.29617e-05
5.82174e-05
1.45122e-05
5.64535e-05
1.6042e-05
5.44508e-05
1.75395e-05
5.22099e-05
1.89918e-05
4.97286e-05
2.03839e-05
4.70069e-05
2.16987e-05
4.4046e-05
2.29177e-05
4.08483e-05
2.40216e-05
3.74181e-05
2.49908e-05
3.37624e-05
2.58068e-05
2.98902e-05
2.64536e-05
2.58114e-05
2.69182e-05
2.15426e-05
2.71917e-05
1.71041e-05
2.72736e-05
1.25184e-05
7.7735e-06
2.71586e-05
2.47559e-06
6.77782e-05
3.6006e-06
6.45225e-05
4.54325e-06
6.13335e-05
5.77176e-06
6.14742e-05
7.08033e-06
6.08133e-05
8.38366e-06
5.97525e-05
9.68051e-06
5.84431e-05
1.09688e-05
5.69291e-05
1.2244e-05
5.51783e-05
1.34938e-05
5.3201e-05
1.47081e-05
5.09956e-05
1.58747e-05
4.8562e-05
1.69801e-05
4.59015e-05
1.80088e-05
4.30174e-05
1.89448e-05
3.99122e-05
1.97722e-05