/*--------------------------------*- C++ -*----------------------------------*\
| =========                 |                                                 |
| \\      /  F ield         | OpenFOAM: The Open Source CFD Toolbox           |
|  \\    /   O peration     | Version:  v1606+                                |
|   \\  /    A nd           | Web:      www.OpenFOAM.com                      |
|    \\/     M anipulation  |                                                 |
\*---------------------------------------------------------------------------*/
FoamFile
{
    version     2.0;
    format      ascii;
    class       volScalarField;
    location    "1.13";
    object      nut.air;
}
// * * * * * * * * * * * * * * * * * * * * * * * * * * * * * * * * * * * * * //

dimensions      [0 2 -1 0 0 0 0];

internalField   nonuniform List<scalar> 
6000
(
0.000529053
0.00490717
0.00781883
0.00847639
0.0086949
0.00880659
0.0088595
0.0088832
0.00890385
0.0089232
0.00894303
0.00896071
0.00897299
0.00898206
0.00898668
0.00898427
0.00897608
0.00896073
0.00894113
0.00892428
0.00891114
0.00890224
0.00888963
0.00884628
0.00878413
0.00868642
0.00847371
0.00781017
0.00489555
0.000529205
0.000449135
0.00325004
0.00615726
0.00782653
0.00865256
0.009075
0.00930414
0.0094377
0.0095487
0.0096563
0.00975389
0.00982426
0.009866
0.00988791
0.00988592
0.00986191
0.00982
0.00976084
0.00969556
0.00963324
0.00956872
0.00951149
0.00943725
0.00929599
0.00904903
0.0086278
0.00781004
0.00610263
0.0031935
0.000444
0.000396126
0.00277554
0.00543623
0.00720688
0.00827456
0.008935
0.00940017
0.00974247
0.010011
0.0102353
0.010415
0.0105412
0.0106161
0.0106484
0.0106465
0.0106159
0.0105582
0.0104687
0.0103506
0.0102097
0.0100489
0.0098602
0.00962614
0.00934066
0.0089428
0.00830567
0.007186
0.00532361
0.00267977
0.000387842
0.00036409
0.00252287
0.00500539
0.00692923
0.00822367
0.00905976
0.00970671
0.0102723
0.010752
0.0111638
0.0115042
0.0117702
0.0119611
0.012063
0.0120827
0.0120402
0.0119324
0.0117479
0.0115005
0.011207
0.0108824
0.0105263
0.0101269
0.00970679
0.00916259
0.00823596
0.00680365
0.00482567
0.0023611
0.000354488
0.000333045
0.00226594
0.00464958
0.00664765
0.00818712
0.00933539
0.0102296
0.0110213
0.0117245
0.0123433
0.0128651
0.0132912
0.0136301
0.0138852
0.0140139
0.0139694
0.0137313
0.0133586
0.0129276
0.0124904
0.0120107
0.0114762
0.0109122
0.0102677
0.00938713
0.00817857
0.00654033
0.00448074
0.00209605
0.000318746
0.000305587
0.00207683
0.00440083
0.00648054
0.00818151
0.00960991
0.0108026
0.0118371
0.0127994
0.0136645
0.0144234
0.0151219
0.0156623
0.0159295
0.0159808
0.0158741
0.0156233
0.0152404
0.0147226
0.0140586
0.0133199
0.0125541
0.0117774
0.0107683
0.00957743
0.00816586
0.00644106
0.00431252
0.00198541
0.000286526
0.00028111
0.00202454
0.00438518
0.00651066
0.00834704
0.00996418
0.0114747
0.0127721
0.0140239
0.0152167
0.0162972
0.0169975
0.017312
0.0173651
0.0172592
0.017081
0.0168532
0.0165835
0.0162181
0.0156556
0.0148471
0.0138291
0.0126917
0.011306
0.00992091
0.0083902
0.00661059
0.00450649
0.0021221
0.000271631
0.000275082
0.0022139
0.00466941
0.00685974
0.00881927
0.0105797
0.0123403
0.0139788
0.0155605
0.0169552
0.017791
0.0181283
0.0182012
0.0181531
0.0180056
0.0177908
0.0175425
0.01728
0.0169742
0.0165983
0.0159883
0.0149723
0.0136106
0.0120647
0.0106043
0.00897687
0.00710343
0.00490042
0.00236297
0.000274239
0.000282299
0.00251529
0.00526374
0.00764179
0.00970037
0.0115854
0.0134627
0.0154179
0.0170729
0.0180784
0.0184984
0.0186668
0.0187159
0.0186374
0.0184587
0.0182287
0.0179787
0.0177112
0.0173924
0.0170205
0.0164816
0.0155942
0.0143452
0.0129487
0.0115122
0.00981613
0.00782506
0.0054481
0.00267834
0.000287497
0.000303445
0.00292278
0.00596868
0.00857581
0.0107736
0.0127505
0.0146201
0.0164849
0.0178722
0.0185387
0.0188457
0.0190136
0.0190576
0.018954
0.0187591
0.0185437
0.0183148
0.0180562
0.0177317
0.0173022
0.0166705
0.0158562
0.0148603
0.0137127
0.0123756
0.010665
0.00856623
0.00600079
0.00296182
0.000307135
0.000327335
0.00321674
0.0065754
0.00941437
0.0117179
0.0137166
0.0154759
0.017006
0.0180299
0.0187006
0.0190992
0.0192819
0.0192865
0.0191746
0.0190082
0.018814
0.0185917
0.0183388
0.0180191
0.017576
0.0169177
0.0161554
0.0152894
0.0143055
0.0130477
0.011353
0.00918999
0.00647963
0.00320483
0.000325423
0.000349092
0.00348774
0.00709889
0.0100629
0.0124146
0.0144105
0.0160723
0.0173016
0.0181584
0.0188265
0.0193212
0.0195006
0.0194522
0.0193403
0.0191968
0.0190162
0.018793
0.0185317
0.0182293
0.0177942
0.0171137
0.0163874
0.0156347
0.0147534
0.0135291
0.0118374
0.00966585
0.0068797
0.00343447
0.000342553
0.000368648
0.00374768
0.00750891
0.0105178
0.012906
0.014924
0.0165245
0.017561
0.0182918
0.018946
0.0194998
0.0196867
0.0195885
0.0194701
0.0193377
0.0191667
0.0189333
0.0186427
0.0183352
0.0179225
0.0173223
0.0166358
0.0158934
0.0150657
0.0138606
0.0121505
0.00997599
0.00718288
0.00363996
0.000357328
0.000384077
0.00396574
0.00779764
0.0108337
0.0132658
0.0152946
0.0168227
0.0177502
0.0184304
0.0190372
0.019599
0.0198459
0.0197247
0.0195845
0.0194457
0.0192806
0.0190493
0.0187309
0.0183586
0.0179247
0.017377
0.0167409
0.0160348
0.0152309
0.0140646
0.0123612
0.0101699
0.00736397
0.00376613
0.000367176
0.000395275
0.00409274
0.00797999
0.0110578
0.0135224
0.0155029
0.0169469
0.0178428
0.0185019
0.0190783
0.0196265
0.0199941
0.0199076
0.019727
0.0195609
0.0193987
0.0192013
0.0188844
0.0184015
0.0178774
0.017341
0.0167387
0.0160731
0.0152799
0.0141531
0.0124936
0.0103022
0.00746898
0.00382812
0.000371392
0.000405291
0.00417476
0.00811758
0.0112243
0.0136727
0.0155652
0.0169499
0.0178658
0.0185552
0.0191445
0.0196634
0.0201286
0.0202081
0.0199755
0.019728
0.0195696
0.0194537
0.0191617
0.0186419
0.0179972
0.0173777
0.0167723
0.0161018
0.015303
0.0141763
0.0125678
0.0103888
0.00754767
0.00387332
0.000373445
0.00041704
0.00422436
0.00827448
0.0114003
0.0137496
0.0155623
0.0169136
0.0178568
0.0185783
0.0192271
0.0197981
0.0203512
0.0207386
0.0204176
0.019985
0.0197738
0.0197599
0.0195741
0.0191677
0.0184916
0.0177069
0.0170041
0.0162424
0.0153731
0.0142334
0.0126493
0.0105119
0.00763593
0.00386679
0.000377148
0.000429206
0.00430593
0.00859342
0.0117074
0.0138949
0.0156352
0.01695
0.0179371
0.018699
0.0193809
0.0200009
0.020579
0.020994
0.0207581
0.0201628
0.0198457
0.0197455
0.0195802
0.0192924
0.0187891
0.0180873
0.0173242
0.0164702
0.0155122
0.014308
0.0127457
0.0107167
0.0078373
0.0039252
0.000384435
0.000439941
0.00451815
0.00871615
0.0116367
0.0138342
0.0156015
0.0169802
0.0180672
0.0188447
0.019477
0.0200311
0.0204734
0.0206696
0.0205258
0.0200767
0.0197052
0.0194993
0.0192514
0.0189212
0.0184799
0.0178785
0.0171532
0.0163136
0.0153197
0.0140809
0.0125099
0.0105227
0.00780834
0.00396614
0.000392235
0.000453482
0.00448093
0.00848127
0.0112994
0.0134867
0.0152522
0.01669
0.0178185
0.018649
0.0192802
0.01973
0.0199855
0.0200686
0.019987
0.0197136
0.0193862
0.01911
0.01878
0.0183712
0.0178724
0.0172837
0.0165912
0.0157724
0.0147796
0.0135701
0.012077
0.0101718
0.00760464
0.00398085
0.000395908
0.000458703
0.00435661
0.00817863
0.0109445
0.0130695
0.0147682
0.0161504
0.0172559
0.0180918
0.0187068
0.0191058
0.0193062
0.0193925
0.0193531
0.0191948
0.0189466
0.0186475
0.0182494
0.0177757
0.0172263
0.0166031
0.015903
0.0150998
0.0141555
0.01302
0.0116243
0.00982376
0.0073522
0.00393312
0.000393464
0.000450711
0.00428516
0.0079436
0.0106176
0.0126666
0.0142896
0.0155887
0.0166205
0.0174159
0.0179995
0.0183777
0.0185842
0.0186828
0.0186745
0.0186078
0.0184339
0.0181231
0.0176917
0.0171831
0.0166026
0.0159558
0.0152451
0.0144536
0.0135522
0.0124905
0.0111854
0.00946915
0.00707839
0.00377137
0.000380995
0.000438621
0.00416031
0.00769991
0.0102891
0.0122645
0.0138143
0.0150287
0.0159816
0.0167132
0.0172529
0.0176114
0.0178228
0.017934
0.0179779
0.0179856
0.0178767
0.0175817
0.0171396
0.0166169
0.0160237
0.0153651
0.014648
0.0138672
0.0130013
0.0119953
0.0107494
0.00908783
0.00676358
0.00357166
0.000362568
0.000419318
0.00396079
0.00738945
0.00991245
0.0118302
0.0133197
0.0144563
0.0153163
0.0159731
0.0164643
0.0168041
0.0170203
0.0171695
0.0172951
0.0173684
0.0172921
0.0170137
0.0165875
0.0160726
0.0154833
0.0148271
0.0141162
0.0133501
0.0125093
0.0115397
0.0103327
0.00870236
0.0064367
0.00337268
0.000347681
0.000403214
0.00374959
0.00706182
0.00951943
0.0113704
0.0127812
0.0138342
0.0146132
0.0151933
0.0156371
0.0159653
0.0162173
0.0164443
0.0166348
0.0167458
0.0166876
0.016435
0.0160432
0.0155568
0.0149907
0.0143547
0.0136615
0.0129138
0.0120943
0.0111447
0.00994823
0.00833281
0.00612437
0.00319146
0.000335218
0.000390253
0.00355204
0.0067474
0.0091595
0.0109592
0.0122904
0.0132461
0.0139128
0.0144044
0.0148083
0.0151536
0.0154744
0.0157868
0.016038
0.0161697
0.0161212
0.0159033
0.0155588
0.0151162
0.0145882
0.0139849
0.0133175
0.0125889
0.0117789
0.0108229
0.0096089
0.00799302
0.00583342
0.00302424
0.000323309
0.000377286
0.00336952
0.00645579
0.00883931
0.0106212
0.0119177
0.0128187
0.0133967
0.0137845
0.0141361
0.0145116
0.0149166
0.015306
0.0155777
0.0156969
0.0156479
0.0154614
0.0151633
0.0147692
0.0142866
0.0137217
0.0130804
0.0123603
0.0115364
0.0105478
0.00930235
0.0076837
0.00556914
0.00287199
0.000311858
0.00036424
0.00320419
0.00619258
0.00855021
0.0103356
0.0116459
0.0125655
0.0131633
0.013545
0.0138753
0.0142621
0.0146841
0.0150432
0.0152612
0.0153403
0.0152846
0.0151169
0.0148516
0.0144954
0.0140503
0.0135165
0.0128927
0.0121703
0.0113235
0.0103021
0.00903094
0.00741171
0.00533718
0.0027379
0.000301259
0.00035171
0.00305362
0.00596361
0.00830397
0.0101091
0.0114612
0.0124349
0.0131018
0.0135591
0.0139323
0.0143008
0.0146477
0.0149124
0.015062
0.0150995
0.0150326
0.0148724
0.0146253
0.0142921
0.0138699
0.013354
0.0127377
0.0120084
0.0111413
0.0100935
0.00880183
0.0071822
0.00514113
0.00262404
0.000291823
0.000341059
0.00290503
0.00577115
0.00811848
0.00996969
0.0113926
0.0124483
0.0131957
0.0137158
0.0141092
0.0144386
0.0147005
0.0148859
0.0149778
0.0149795
0.0148965
0.0147337
0.014492
0.0141678
0.0137546
0.0132442
0.0126264
0.0118863
0.0109997
0.00992875
0.00861877
0.00699725
0.00498209
0.00253105
0.000283754
0.00033212
0.00278804
0.0056361
0.00802166
0.00995879
0.0114886
0.0126553
0.013484
0.014033
0.0144026
0.014676
0.0148619
0.014979
0.0150196
0.0149861
0.0148813
0.014706
0.0144575
0.0141293
0.0137123
0.0131962
0.0125683
0.0118123
0.0109048
0.00981121
0.00848302
0.00685688
0.00485958
0.00245861
0.00027717
0.000324811
0.0027146
0.00559038
0.00806374
0.0101301
0.0117704
0.0129944
0.0138619
0.0144404
0.0148039
0.0150159
0.0151436
0.0152004
0.0151922
0.0151213
0.0149885
0.0147912
0.0145244
0.01418
0.0137476
0.0132151
0.0125688
0.0117914
0.0108601
0.00974261
0.00839472
0.00675996
0.00477217
0.00240588
0.000272127
0.000319656
0.0027113
0.00569443
0.00829563
0.0104641
0.0121341
0.0133311
0.014211
0.0148604
0.0152513
0.0154499
0.0155344
0.0155429
0.0154898
0.0153799
0.0152127
0.0149849
0.0146899
0.0143187
0.0138606
0.0133026
0.0126302
0.011826
0.0108672
0.00972355
0.00835336
0.00670492
0.00471788
0.00237154
0.000268646
0.000318802
0.00277396
0.00592313
0.00866848
0.0108667
0.0124417
0.0136034
0.0144875
0.015188
0.0156703
0.0159262
0.0160066
0.0159849
0.015894
0.0157452
0.01554
0.0152752
0.0149442
0.0145382
0.0140464
0.013456
0.012752
0.0119162
0.0109267
0.00975413
0.0083585
0.00669089
0.00469428
0.00235106
0.000266958
0.000323158
0.00297771
0.0063783
0.00915068
0.0111751
0.0126849
0.0138515
0.0147596
0.0154711
0.0160222
0.0163525
0.0164754
0.0164589
0.0163504
0.0161715
0.0159296
0.0156244
0.0152513
0.0148031
0.0142704
0.0136418
0.0129033
0.0120375
0.0110199
0.00982106
0.00840166
0.00671388
0.0047021
0.00234926
0.000266796
0.000337764
0.0033393
0.00683039
0.00946482
0.0113908
0.0128966
0.0140772
0.0150097
0.0157526
0.016377
0.0168403
0.0170072
0.0169832
0.0168487
0.0166379
0.0163628
0.0160249
0.0156196
0.0151393
0.0145742
0.0139127
0.0131399
0.0122378
0.0111848
0.00995222
0.00850088
0.00678272
0.00474283
0.00236355
0.00026749
0.000364457
0.00361281
0.00706929
0.0096757
0.0116279
0.013176
0.0144098
0.0153821
0.0161503
0.016797
0.0173006
0.0175607
0.0175711
0.0174334
0.0172001
0.0168925
0.016516
0.0160678
0.0155428
0.0149329
0.0142278
0.0134139
0.0124743
0.011387
0.0101227
0.00864144
0.00689319
0.00481997
0.00240043
0.000270008
0.000391697
0.00368437
0.00714705
0.00981038
0.011844
0.01345
0.0147116
0.0157251
0.0165395
0.0171986
0.0177377
0.0180715
0.0180994
0.0179607
0.017716
0.0173866
0.0169813
0.0165013
0.015942
0.0152969
0.0145569
0.0137099
0.0127392
0.0116225
0.0103295
0.00881929
0.00703865
0.00492645
0.00245631
0.000274793
0.000404826
0.00367094
0.0071429
0.00985824
0.0119471
0.0136174
0.0149395
0.0160038
0.0168732
0.0175783
0.0181593
0.0185557
0.0186132
0.0184752
0.0182213
0.0178759
0.0174493
0.0169439
0.0163566
0.0156819
0.0149122
0.0140363
0.0130378
0.0118942
0.0105746
0.00903619
0.00722192
0.00506523
0.00253211
0.000281117
0.000406435
0.00362315
0.0070155
0.00973619
0.0118815
0.0136286
0.0150541
0.0162107
0.017153
0.0179311
0.0185684
0.0190125
0.0191199
0.0189858
0.0187237
0.0183646
0.0179207
0.0173952
0.0167858
0.0160871
0.0152924
0.0143915
0.0133685
0.0122007
0.010856
0.00928991
0.00744062
0.00523439
0.00262716
0.000289178
0.000405481
0.00342145
0.006646
0.0094001
0.0117044
0.0136165
0.0151817
0.0164508
0.0174699
0.0182956
0.0189692
0.0194767
0.019641
0.0195079
0.0192331
0.0188599
0.0184008
0.0178594
0.0172328
0.0165149
0.0156995
0.0147771
0.0137323
0.0125419
0.0111731
0.00957877
0.00769253
0.00543159
0.00273999
0.000299081
0.000396853
0.00310165
0.00632826
0.0092857
0.0117939
0.0138412
0.015488
0.0168128
0.0178755
0.018717
0.0193934
0.0199394
0.0201838
0.020052
0.0197587
0.0193695
0.0188965
0.0183425
0.0177029
0.0169701
0.0161375
0.0151962
0.0141311
0.0129189
0.0115256
0.00990154
0.00797557
0.00565459
0.00286934
0.000310842
0.0003718
0.00267367
0.00621865
0.00946038
0.01213
0.0142665
0.0159474
0.0172798
0.0183479
0.0191974
0.0198755
0.0204168
0.020733
0.0206132
0.0203021
0.019898
0.0194135
0.0188499
0.018201
0.0174572
0.0166105
0.0156522
0.0145675
0.013333
0.0119137
0.0102576
0.00828821
0.00590116
0.00301144
0.000324608
0.000360052
0.00266456
0.00650633
0.00996839
0.0127512
0.0149131
0.0165641
0.0178539
0.0188926
0.019735
0.0204108
0.0209407
0.0212797
0.02118
0.0208595
0.0204462
0.0199544
0.0193847
0.0187305
0.0179795
0.0171214
0.0161475
0.0150432
0.0137852
0.0123381
0.0106475
0.00863108
0.00617273
0.0031681
0.000340476
0.000368592
0.00303174
0.00723434
0.0108767
0.0136535
0.0157535
0.0173241
0.0185353
0.0195173
0.0203287
0.020993
0.0215162
0.021839
0.0217535
0.0214298
0.0210135
0.0205194
0.0199475
0.0192922
0.0185385
0.0176717
0.0166832
0.0155588
0.0142759
0.0127989
0.0110718
0.00900628
0.00647323
0.0033435
0.000358619
0.000395168
0.00372872
0.00832683
0.0119092
0.014606
0.0166408
0.0181565
0.0192865
0.0202054
0.0209741
0.0216243
0.022136
0.0224256
0.0223378
0.0220131
0.0215991
0.0211081
0.0205382
0.0198867
0.0191341
0.0182608
0.0172582
0.0161131
0.0148037
0.0132949
0.01153
0.00941522
0.00680718
0.00354253
0.000379308
0.000444715
0.00443353
0.00919073
0.0127016
0.0153654
0.0174195
0.0189704
0.02006
0.0209268
0.0216623
0.022297
0.0227854
0.0230338
0.0229305
0.0226077
0.0222017
0.0217204
0.0211587
0.0205156
0.019765
0.0188858
0.017869
0.0167021
0.0153644
0.013822
0.0120188
0.00985699
0.00717774
0.00377109
0.000402544
0.000526409
0.00480059
0.00964856
0.0132359
0.0160237
0.0181659
0.0197281
0.0208198
0.0216716
0.0223775
0.022988
0.0234454
0.0236505
0.0235276
0.023211
0.02282
0.0223563
0.0218097
0.0211774
0.0204276
0.0195411
0.0185087
0.0173185
0.0159506
0.0143726
0.0125308
0.0103277
0.00758377
0.00403206
0.000428999
0.00058715
0.00520027
0.00991727
0.013791
0.0168046
0.0190468
0.0205793
0.0216611
0.022475
0.0231275
0.0236798
0.0241082
0.0242701
0.0241261
0.0238221
0.0234521
0.0230137
0.0224889
0.0218666
0.021114
0.0202167
0.0191664
0.0179505
0.0165506
0.0149371
0.0130528
0.0108108
0.00802459
0.00433641
0.000461581
0.000608603
0.00530744
0.0102308
0.0145186
0.0178431
0.0201435
0.0215899
0.0226371
0.0233845
0.0239428
0.0244005
0.0247714
0.0249002
0.024733
0.0244428
0.0240959
0.0236891
0.0231908
0.0225727
0.0218106
0.0208978
0.0198261
0.0185814
0.0171521
0.0154954
0.0135678
0.0112974
0.00848188
0.00469203
0.000499237
0.000609578
0.00534711
0.0106073
0.0153697
0.0189774
0.0213624
0.0227793
0.0237515
0.0244216
0.0248715
0.0252041
0.0254682
0.0255613
0.0253642
0.025073
0.0247496
0.0243766
0.0239051
0.0232787
0.0224977
0.0215639
0.0204668
0.0191921
0.01773
0.0160275
0.0140663
0.0117687
0.00892572
0.00504574
0.000555343
0.000615295
0.00545765
0.0110443
0.0161884
0.019944
0.0224262
0.0240581
0.0249945
0.0255871
0.025944
0.026143
0.0262608
0.0262645
0.0260241
0.025714
0.0254072
0.0250633
0.0246091
0.023958
0.0231498
0.0221902
0.0210632
0.0197562
0.0182534
0.0165154
0.0145264
0.0122386
0.00952035
0.00551983
0.000656144
0.000630084
0.00575105
0.0116918
0.0169623
0.0207312
0.0232653
0.025176
0.0263026
0.0268535
0.0271472
0.0272114
0.0271741
0.0270258
0.0267114
0.0263548
0.0260512
0.0257201
0.0252575
0.0245741
0.0237379
0.0227509
0.02159
0.0202441
0.018695
0.0169122
0.0149285
0.012616
0.00983418
0.00570764
0.000715653
0.000653166
0.00630371
0.0125175
0.017744
0.0214658
0.0240266
0.0260489
0.0275068
0.0281966
0.0283596
0.0283113
0.028217
0.0278551
0.0273901
0.0269561
0.0266327
0.02629
0.0258057
0.0250956
0.0242384
0.0232253
0.0220277
0.0206342
0.0190217
0.0171717
0.0151049
0.0127577
0.00984575
0.00570318
0.000717145
0.000697051
0.00678263
0.0133105
0.018492
0.0221367
0.0247091
0.0267748
0.028436
0.0294846
0.0297765
0.0296211
0.0292607
0.0286165
0.0279574
0.0274636
0.0271191
0.0267282
0.0262252
0.0255063
0.0246376
0.0236023
0.0223668
0.0209231
0.0192379
0.0172983
0.0151084
0.0126762
0.00972162
0.00559766
0.000706512
0.000751406
0.00715936
0.0138834
0.0190201
0.0226342
0.0252376
0.0272688
0.0288999
0.0298984
0.0302617
0.03017
0.0297166
0.0289403
0.0282585
0.0278058
0.0274705
0.0270389
0.026501
0.0257996
0.0249306
0.0238782
0.022607
0.0211113
0.0193419
0.0172941
0.015021
0.0125487
0.00962151
0.0055134
0.000688176
0.000776563
0.00741448
0.014247
0.019333
0.0229584
0.025547
0.0274654
0.0288975
0.029817
0.030183
0.0300368
0.029566
0.0289138
0.0283493
0.0279296
0.0276066
0.0272314
0.0267075
0.0259994
0.0251267
0.0240589
0.0227602
0.0212204
0.0193848
0.017258
0.0149709
0.0125162
0.00956345
0.00539441
0.000670919
0.000792252
0.00762853
0.014475
0.0194819
0.0230745
0.0255802
0.0273562
0.028643
0.0294764
0.0297739
0.0295279
0.0291352
0.0286616
0.0282573
0.0279132
0.0275979
0.0273332
0.026827
0.0261076
0.0252323
0.0241571
0.0228444
0.0212681
0.0193774
0.0172391
0.0150078
0.0125568
0.0094753
0.00522547
0.000654674
0.000812546
0.00776304
0.0145614
0.0194487
0.0229332
0.0253335
0.026983
0.0281442
0.0288276
0.0290811
0.0287897
0.0285114
0.0282428
0.0279748
0.0277644
0.0276351
0.0273474
0.0268303
0.0261378
0.0252714
0.0241924
0.0228745
0.0212639
0.0193475
0.0172723
0.0151004
0.0125853
0.00929982
0.0049923
0.000639055
0.000827828
0.00773724
0.0144507
0.0192127
0.0225394
0.0248317
0.0263863
0.0274296
0.0280016
0.0282494
0.0281715
0.0277959
0.0277007
0.0276316
0.0276482
0.027534
0.0272896
0.0267709
0.0261039
0.0252557
0.0241821
0.0228671
0.0212471
0.0193574
0.0173875
0.0152452
0.0125561
0.00907817
0.00471792
0.000621271
0.000828796
0.00758443
0.0141029
0.0187216
0.021932
0.0241447
0.0256251
0.0265395
0.0270738
0.0273516
0.0274836
0.0274328
0.0272857
0.0273587
0.0274135
0.0273472
0.0271067
0.0266019
0.0259976
0.025177
0.0241361
0.0228351
0.0212267
0.0194463
0.017587
0.0153801
0.0125041
0.0088766
0.00448456
0.000602105
0.000822827
0.00726336
0.0135508
0.0180401
0.0211496
0.0232886
0.0246887
0.0255509
0.026079
0.0264155
0.0266557
0.0268145
0.0268632
0.0269826
0.0270598
0.0270212
0.0268025
0.0263437
0.0257981
0.0250397
0.0240683
0.0228054
0.0212753
0.0196725
0.0178736
0.0155373
0.0125207
0.00878383
0.00434802
0.000583438
0.000807737
0.00690324
0.0129048
0.0172322
0.0202293
0.0222815
0.0236032
0.0244506
0.0250118
0.0254193
0.0257499
0.0260093
0.0262052
0.0264011
0.0265583
0.0265753
0.0263931
0.0260384
0.0255582
0.024887
0.0239906
0.0227971
0.0214512
0.0200054
0.0181722
0.0157407
0.0126534
0.00884679
0.0043515
0.000568554
0.000787286
0.00654678
0.0122277
0.0163447
0.0191967
0.0211192
0.0223871
0.0232393
0.02386
0.0243546
0.0247718
0.0251067
0.0253724
0.0256485
0.0259119
0.0260192
0.025905
0.0256809
0.0252889
0.0247285
0.023905
0.0228666
0.021776
0.0203863
0.0185094
0.0160216
0.0129083
0.0090616
0.00448291
0.000558964
0.000766271
0.00621865
0.0115571
0.015404
0.0180407
0.0198179
0.0210318
0.0219295
0.022632
0.0232295
0.0237322
0.0241318
0.0244458
0.024771
0.0251304
0.0253438
0.0253557
0.0252673
0.0250084
0.0245546
0.0238748
0.0230952
0.0221506
0.0207645
0.0188411
0.0163488
0.0132375
0.00937205
0.00469294
0.00055566
0.000746099
0.00592835
0.0108918
0.014392
0.0167547
0.0183793
0.0195736
0.0205433
0.0213579
0.0220631
0.0226492
0.0231128
0.0234764
0.0238325
0.0242786
0.0246034
0.0247783
0.0248444
0.0247398
0.0244343
0.0239353
0.0234016
0.0224718
0.0211
0.0191529
0.0166822
0.0135857
0.00970773
0.00491462
0.000556629
0.000729107
0.00566145
0.0101919
0.0132642
0.0153376
0.0168414
0.0180698
0.0191323
0.0200708
0.0208808
0.0215468
0.022083
0.0225133
0.0229007
0.0234163
0.0238456
0.0241905
0.0244406
0.0244969
0.0243774
0.024098
0.0236481
0.0227489
0.0213856
0.0194524
0.0170025
0.0139178
0.0100159
0.00514814
0.000560271
0.000712701
0.00536029
0.00937428
0.0119955
0.013822
0.0152798
0.0165763
0.0177574
0.0188084
0.0197145
0.0204657
0.0210771
0.0215928
0.0220223
0.0225532
0.0230846
0.0236234
0.0240451
0.024294
0.0243708
0.0242613
0.0238648
0.0230189
0.021638
0.0197518
0.0173155
0.0142237
0.0102791
0.00530114
0.000567441
0.000698194
0.00497466
0.00838615
0.0106016
0.0122822
0.013769
0.0151591
0.0164502
0.017604
0.0185962
0.01943
0.020132
0.0207322
0.0212327
0.0216903
0.0223338
0.0230656
0.0236637
0.0241148
0.0243846
0.0244315
0.0241179
0.0233064
0.0219219
0.0200302
0.017601
0.0144923
0.0104929
0.00541626
0.000574824
0.000675321
0.00437058
0.00719359
0.00914744
0.0108021
0.0123642
0.0138546
0.015238
0.016473
0.0175393
0.0184508
0.0192396
0.0199254
0.0204829
0.0208484
0.0216038
0.0225092
0.0233145
0.0239862
0.0244541
0.0246686
0.0244032
0.0236002
0.0222392
0.0203752
0.0179184
0.0147635
0.0106868
0.00549058
0.000581359
0.000645441
0.00344902
0.00587575
0.00774058
0.00945041
0.0110956
0.012666
0.0141218
0.0154207
0.0165498
0.017532
0.0184009
0.0191676
0.0198135
0.0203129
0.0208953
0.0219529
0.023004
0.0239221
0.0245993
0.024951
0.0246717
0.0238719
0.0225307
0.0206941
0.0182629
0.0150759
0.010894
0.00556045
0.00058728
0.000604541
0.0024991
0.00463259
0.0064955
0.00826925
0.00997691
0.0116039
0.0131098
0.0144534
0.0156316
0.0166705
0.0176003
0.0184392
0.0191932
0.0198417
0.0203418
0.0214073
0.0227316
0.0239134
0.0248747
0.0252003
0.024866
0.0240778
0.0227683
0.020972
0.0185621
0.0153571
0.0110946
0.00563532
0.000592976
0.000555266
0.00181398
0.00367617
0.00550927
0.00730714
0.00903869
0.0106822
0.0122012
0.013563
0.0147669
0.0158369
0.0168078
0.0177138
0.0185755
0.0193638
0.020058
0.0210398
0.0225727
0.0240407
0.0250565
0.0252692
0.0249201
0.0241739
0.0229189
0.0211815
0.018817
0.0156211
0.0113053
0.00572646
0.000598859
0.000503746
0.00142194
0.00305737
0.004824
0.00659267
0.00828788
0.00989366
0.0113854
0.0127355
0.0139418
0.0150297
0.0160401
0.0170133
0.0179797
0.0189019
0.0198446
0.0209745
0.0225487
0.0241194
0.0249991
0.0251421
0.0248112
0.0241281
0.0229558
0.0213061
0.0190078
0.0158499
0.011516
0.00583937
0.000605474
0.000453204
0.00118996
0.0026993
0.0044042
0.00609685
0.00770373
0.00923117
0.0106646
0.0119792
0.0131737
0.0142747
0.0153219
0.0163686
0.0173981
0.01841
0.0195074
0.0208486
0.0224911
0.0239828
0.0247445
0.0248684
0.0245879
0.0239691
0.0229294
0.0213426
0.0191317
0.0160314
0.0117116
0.00597219
0.000613691
0.000405467
0.00107468
0.00254856
0.00418161
0.0057609
0.00725097
0.00867826
0.0100356
0.0113002
0.0124742
0.0135851
0.0146823
0.0157808
0.0168483
0.017915
0.0190927
0.0205334
0.0222701
0.0236926
0.024399
0.0245261
0.0243098
0.023754
0.0228484
0.0213434
0.0191971
0.0161664
0.0118799
0.00611315
0.000624062
0.00036416
0.00109761
0.00255135
0.00407403
0.00551463
0.00688354
0.00820757
0.00948343
0.0106934
0.0118465
0.0129812
0.0141225
0.0152578
0.0163616
0.0174615
0.0186687
0.020237
0.0220302
0.0233824
0.0240046
0.0241627
0.0240161
0.0235437
0.0227117
0.0213304
0.0192498
0.0162735
0.0120246
0.00624483
0.000636056
0.000333021
0.00123319
0.00260579
0.0039976
0.00531503
0.00656153
0.00779203
0.00899347
0.0101564
0.0113044
0.0124626
0.0136407
0.0148057
0.0159281
0.017046
0.0183413
0.0199704
0.0217733
0.0230496
0.0236251
0.0238078
0.0237229
0.0233324
0.0225637
0.0213119
0.0192871
0.0163621
0.0121506
0.00635367
0.000648904
0.000311556
0.00134841
0.00264174
0.00391668
0.00512117
0.00626332
0.00741297
0.0085578
0.00969682
0.0108466
0.0120271
0.0132313
0.0144149
0.0155495
0.0166931
0.0180395
0.0197533
0.0215527
0.0227432
0.0232708
0.0234623
0.023426
0.0231071
0.0224092
0.0212683
0.0193211
0.0164459
0.0122602
0.00643368
0.000660953
0.000293353
0.00141124
0.00264822
0.00382314
0.00492266
0.00597848
0.00706319
0.0081809
0.00930623
0.0104679
0.0116711
0.0128899
0.0140724
0.0151975
0.0163807
0.0178089
0.019632
0.0214111
0.022493
0.022957
0.0231388
0.0231098
0.0228475
0.0222634
0.0212178
0.0193774
0.0165436
0.0123643
0.00649619
0.000672501
0.000278253
0.00142549
0.0026295
0.00371428
0.00471983
0.00570594
0.00675256
0.00785761
0.00898829
0.0101687
0.0113886
0.0126075
0.0137775
0.0149178
0.0161439
0.0176876
0.0196307
0.021364
0.0223184
0.0227007
0.0228357
0.0227758
0.0225378
0.0220336
0.0211005
0.0194285
0.016658
0.0124691
0.00654808
0.000683181
0.000265253
0.00141735
0.00258759
0.00358806
0.00451705
0.00545362
0.00648465
0.0075982
0.00874557
0.00994432
0.0111708
0.0123782
0.0135348
0.0146898
0.016011
0.0177172
0.0197615
0.021391
0.0221871
0.0224868
0.0225359
0.0223944
0.0221074
0.0216685
0.0208541
0.0193854
0.0167434
0.0125648
0.00659626
0.000693091
0.000253677
0.00138353
0.00251618
0.00344536
0.00431981
0.00522895
0.00626721
0.00740638
0.00857525
0.0097853
0.0110044
0.0121894
0.0133447
0.0145519
0.0160138
0.0179223
0.0200097
0.0214618
0.0220677
0.0222791
0.0222189
0.0219621
0.0215718
0.0211326
0.0204605
0.0191969
0.0167497
0.012648
0.00663782
0.000702607
0.000242601
0.0013113
0.00240942
0.00328957
0.00413273
0.00503735
0.00610732
0.00728151
0.00846972
0.009679
0.0108748
0.012042
0.0132084
0.0145153
0.0161704
0.0182547
0.0202756
0.0214706
0.0219121
0.0220378
0.0218629
0.0214726
0.0209352
0.0204218
0.0198541
0.0187965
0.0166392
0.0127093
0.00667478
0.000711964
0.000231134
0.0012029
0.00227154
0.00312649
0.00396137
0.00488541
0.0060091
0.00721849
0.00841623
0.009609
0.0107799
0.0119323
0.0131468
0.0145991
0.0164651
0.0186443
0.0204689
0.021355
0.0216704
0.0217279
0.021451
0.0209255
0.0202135
0.019568
0.0189985
0.0181641
0.0163456
0.0126931
0.006701
0.000721289
0.000218875
0.00108033
0.00211543
0.00296314
0.00381175
0.00478245
0.00597046
0.00720392
0.00839514
0.00956474
0.0107158
0.0118849
0.013193
0.0148328
0.0168841
0.0190408
0.0205253
0.0211145
0.0213508
0.021354
0.020983
0.0203179
0.0194259
0.0185896
0.0179814
0.0172952
0.0158045
0.0125364
0.00670046
0.000731215
0.000205817
0.000963362
0.00195732
0.00280906
0.00369168
0.00473433
0.00598478
0.00722085
0.00839122
0.00953957
0.0106926
0.0119233
0.013374
0.0152252
0.017404
0.0193579
0.0203966
0.0207589
0.0209318
0.0208565
0.0204061
0.0196451
0.0186053
0.0175775
0.0168274
0.0161658
0.0149828
0.0121768
0.00664215
0.000739781
0.000192039
0.000858264
0.00181102
0.0026778
0.00361594
0.00474612
0.00604701
0.00725221
0.00840222
0.00954492
0.0107343
0.0120695
0.0137184
0.0157702
0.0179389
0.0195036
0.0201316
0.0203787
0.0204801
0.0203259
0.0197914
0.0189449
0.0177836
0.0165733
0.0156042
0.0148684
0.013872
0.0115275
0.00647744
0.000748769
0.000177612
0.000766451
0.00168961
0.00259049
0.00360967
0.00484119
0.00612473
0.00731008
0.00845008
0.00961106
0.0108764
0.0123677
0.01424
0.0164173
0.0183823
0.0194473
0.0197984
0.0199792
0.0200088
0.0197609
0.0191514
0.0182283
0.0169841
0.0156204
0.0144083
0.0134829
0.0126304
0.0105243
0.00611598
0.000749899
0.000162683
0.000689962
0.00160949
0.00257852
0.00371404
0.00498232
0.00623918
0.00740376
0.00855807
0.00977675
0.011162
0.0128573
0.0149284
0.0170831
0.0186265
0.0192257
0.0194436
0.0195743
0.0195309
0.0191892
0.0185105
0.0175069
0.0162177
0.0147669
0.0133398
0.012154
0.0109946
0.00941764
0.00553587
0.000747455
0.000147508
0.000632546
0.00159817
0.00268965
0.00391786
0.00520343
0.00640696
0.00756242
0.00875338
0.0100683
0.0116174
0.0135281
0.0157126
0.0176277
0.0186196
0.0189208
0.0190874
0.0191693
0.019055
0.0186268
0.017883
0.0168027
0.0154793
0.0139723
0.0123888
0.0108626
0.00945426
0.00794508
0.0046287
0.000738527
0.00013267
0.000607371
0.0017085
0.00295101
0.00421546
0.00545545
0.00663163
0.00780628
0.00906712
0.0105083
0.0122454
0.0143279
0.0164492
0.017895
0.0184077
0.0185929
0.0187325
0.0187648
0.0185848
0.0180821
0.0172812
0.0161349
0.0147689
0.0132304
0.0115368
0.00971781
0.00797591
0.00626132
0.00353379
0.00071774
0.000119123
0.000654635
0.00197417
0.0032804
0.00455508
0.00574953
0.00692668
0.008151
0.00950701
0.0110912
0.013002
0.0151514
0.0169904
0.0178683
0.018117
0.018267
0.0183779
0.018361
0.0181246
0.0175637
0.0167185
0.0155289
0.014129
0.0125692
0.0108533
0.00880751
0.00670567
0.00477688
0.00254558
0.000677507
0.000109512
0.000834341
0.00233947
0.00367214
0.00490021
0.00608297
0.00729578
0.00859469
0.010065
0.0117988
0.0138173
0.0158542
0.0172178
0.0176483
0.0178075
0.0179426
0.018022
0.0179603
0.0176781
0.0170801
0.0162059
0.0150025
0.0135912
0.0119912
0.0102307
0.00813274
0.00583675
0.00374565
0.0017978
0.000624574
0.000109527
0.0011736
0.00279345
0.00407101
0.005263
0.00646488
0.00773785
0.00913105
0.0107257
0.01258
0.0146077
0.0163516
0.0171601
0.0173716
0.0175019
0.0176188
0.0176661
0.017567
0.017251
0.0166325
0.0157495
0.0145639
0.0131811
0.0116012