/*--------------------------------*- C++ -*----------------------------------*\
| =========                 |                                                 |
| \\      /  F ield         | OpenFOAM: The Open Source CFD Toolbox           |
|  \\    /   O peration     | Version:  v1606+                                |
|   \\  /    A nd           | Web:      www.OpenFOAM.com                      |
|    \\/     M anipulation  |                                                 |
\*---------------------------------------------------------------------------*/
FoamFile
{
    version     2.0;
    format      ascii;
    class       volScalarField;
    location    "1.42";
    object      p;
}
// * * * * * * * * * * * * * * * * * * * * * * * * * * * * * * * * * * * * * //

dimensions      [1 -1 -2 0 0 0 0];

internalField   nonuniform List<scalar> 
6000
(
106167
106167
106166
106163
106161
106160
106159
106158
106159
106162
106162
106161
106159
106159
106161
106164
106167
106168
106166
106160
106155
106150
106147
106148
106152
106159
106167
106174
106178
106180
106120
106116
106108
106099
106089
106080
106075
106073
106071
106069
106067
106066
106068
106072
106074
106075
106074
106074
106073
106069
106063
106058
106060
106071
106085
106099
106113
106124
106133
106137
106094
106089
106079
106065
106049
106036
106025
106019
106014
106007
105999
105998
106006
106014
106018
106018
106014
106013
106015
106013
106005
106002
106010
106025
106045
106065
106083
106097
106108
106112
106066
106060
106047
106030
106012
105993
105975
105958
105947
105937
105931
105930
105935
105945
105951
105950
105946
105945
105947
105949
105950
105956
105968
105985
106006
106028
106048
106063
106075
106080
106031
106026
106014
105999
105980
105958
105936
105917
105904
105897
105894
105893
105894
105897
105902
105904
105903
105902
105903
105906
105913
105921
105933
105950
105969
105989
106007
106020
106026
106029
105970
105968
105966
105959
105943
105924
105904
105888
105879
105875
105873
105872
105871
105872
105875
105878
105879
105879
105879
105882
105887
105893
105901
105914
105928
105941
105951
105957
105955
105954
105897
105898
105902
105903
105899
105888
105874
105863
105857
105854
105854
105854
105855
105856
105857
105860
105861
105861
105861
105862
105865
105868
105872
105879
105884
105887
105890
105888
105880
105873
105823
105827
105835
105841
105845
105847
105842
105836
105833
105833
105834
105837
105839
105841
105842
105843
105844
105844
105843
105842
105843
105844
105846
105845
105839
105831
105828
105812
105793
105784
105744
105754
105769
105779
105788
105800
105807
105809
105808
105811
105815
105819
105823
105826
105827
105828
105828
105827
105825
105823
105822
105822
105821
105812
105795
105778
105764
105742
105730
105725
105672
105681
105699
105716
105728
105748
105768
105779
105783
105787
105794
105800
105805
105807
105809
105810
105810
105809
105806
105803
105802
105801
105794
105775
105747
105724
105709
105697
105691
105690
105613
105616
105627
105645
105658
105682
105717
105741
105753
105760
105768
105774
105778
105780
105782
105784
105786
105786
105785
105782
105780
105774
105757
105722
105684
105658
105649
105651
105652
105653
105560
105559
105558
105565
105573
105596
105644
105686
105709
105721
105729
105731
105732
105732
105735
105740
105746
105751
105753
105752
105747
105731
105695
105642
105596
105564
105547
105571
105589
105598
105506
105498
105482
105459
105452
105487
105545
105600
105636
105655
105659
105658
105658
105661
105663
105667
105675
105685
105694
105695
105684
105652
105600
105544
105490
105450
105439
105464
105502
105522
105448
105435
105407
105377
105366
105379
105428
105481
105517
105537
105545
105557
105568
105576
105578
105576
105575
105580
105588
105591
105576
105543
105494
105440
105407
105396
105396
105405
105431
105453
105399
105383
105358
105342
105336
105336
105346
105364
105382
105394
105410
105439
105471
105488
105489
105477
105462
105457
105459
105458
105448
105427
105400
105383
105376
105377
105379
105381
105393
105408
105363
105349
105333
105327
105325
105324
105323
105325
105330
105335
105342
105353
105370
105381
105381
105371
105362
105359
105363
105367
105370
105368
105365
105364
105364
105366
105368
105369
105373
105381
105339
105329
105321
105320
105320
105319
105318
105317
105318
105320
105323
105327
105330
105331
105330
105327
105326
105326
105330
105335
105342
105347
105351
105354
105355
105356
105357
105358
105360
105363
105324
105319
105315
105315
105315
105315
105314
105314
105315
105316
105317
105318
105318
105317
105316
105314
105315
105316
105319
105324
105331
105337
105341
105344
105346
105347
105347
105348
105348
105349
105314
105312
105311
105311
105311
105311
105310
105310
105311
105311
105312
105311
105310
105309
105308
105307
105307
105309
105311
105316
105321
105328
105332
105335
105337
105338
105338
105338
105337
105336
105308
105307
105307
105307
105307
105307
105306
105306
105306
105306
105306
105304
105302
105300
105298
105298
105299
105300
105303
105307
105312
105318
105322
105324
105326
105328
105327
105326
105324
105323
105300
105300
105302
105303
105303
105303
105302
105302
105302
105301
105299
105297
105293
105290
105288
105288
105289
105291
105293
105297
105302
105308
105312
105314
105316
105316
105315
105313
105310
105309
105290
105291
105295
105297
105298
105298
105298
105297
105296
105295
105292
105289
105284
105279
105277
105277
105279
105280
105283
105287
105292
105298
105302
105304
105305
105304
105302
105298
105293
105290
105279
105281
105286
105289
105291
105292
105292
105291
105290
105288
105285
105280
105273
105268
105266
105266
105268
105269
105273
105277
105281
105285
105289
105291
105291
105290
105287
105283
105277
105273
105268
105270
105275
105280
105283
105285
105286
105285
105283
105280
105276
105269
105261
105256
105254
105255
105256
105258
105261
105265
105268
105271
105273
105275
105275
105273
105270
105266
105262
105259
105256
105258
105262
105268
105274
105277
105278
105277
105274
105270
105265
105256
105248
105243
105242
105243
105244
105246
105249
105252
105253
105253
105255
105255
105255
105254
105252
105249
105247
105245
105242
105244
105248
105254
105261
105267
105269
105268
105265
105260
105252
105242
105234
105231
105230
105230
105231
105233
105236
105237
105234
105232
105232
105232
105232
105231
105231
105230
105230
105229
105223
105226
105230
105236
105244
105252
105258
105258
105254
105246
105237
105226
105220
105218
105217
105217
105218
105219
105221
105219
105212
105208
105205
105204
105203
105204
105205
105207
105208
105209
105199
105201
105206
105212
105219
105227
105234
105239
105237
105229
105218
105210
105205
105204
105204
105204
105204
105205
105205
105199
105188
105179
105174
105171
105169
105170
105172
105175
105178
105180
105165
105168
105172
105177
105181
105184
105190
105198
105206
105205
105198
105193
105191
105190
105191
105191
105190
105189
105186
105177
105162
105147
105137
105131
105129
105129
105131
105133
105135
105138
105121
105124
105128
105128
105125
105124
105127
105136
105151
105168
105174
105175
105176
105177
105178
105177
105175
105172
105167
105154
105132
105110
105094
105085
105080
105080
105081
105083
105085
105085
105068
105071
105071
105064
105056
105051
105053
105063
105081
105109
105139
105150
105157
105161
105163
105161
105157
105152
105144
105126
105095
105065
105044
105030
105024
105024
105026
105029
105030
105030
105011
105011
105005
104993
104979
104969
104969
104981
105001
105032
105076
105109
105126
105136
105142
105141
105134
105127
105114
105089
105048
105010
104982
104965
104960
104961
104967
104972
104976
104976
104953
104950
104938
104920
104895
104872
104878
104894
104916
104945
104988
105037
105068
105089
105104
105109
105102
105090
105071
105036
104986
104942
104908
104886
104882
104893
104905
104916
104923
104925
104898
104892
104875
104844
104798
104779
104789
104807
104830
104856
104890
104935
104975
105006
105026
105038
105040
105028
105003
104958
104906
104862
104823
104794
104787
104811
104842
104862
104874
104877
104849
104841
104815
104771
104745
104738
104739
104746
104756
104773
104794
104825
104864
104899
104904
104897
104915
104919
104897
104859
104818
104779
104747
104735
104733
104746
104780
104813
104830
104834
104808
104798
104764
104737
104726
104725
104723
104723
104726
104731
104738
104748
104762
104780
104776
104770
104774
104777
104771
104757
104739
104724
104715
104714
104714
104717
104734
104770
104792
104798
104777
104766
104739
104724
104720
104720
104719
104718
104718
104718
104720
104722
104726
104729
104728
104725
104722
104720
104716
104712
104708
104705
104706
104707
104708
104707
104713
104733
104760
104767
104749
104741
104727
104718
104717
104717
104716
104716
104715
104715
104716
104716
104717
104716
104715
104712
104709
104706
104703
104701
104701
104701
104702
104702
104703
104702
104703
104713
104736
104744
104724
104724
104718
104714
104714
104713
104713
104712
104712
104712
104712
104712
104711
104709
104707
104705
104703
104701
104699
104698
104697
104697
104697
104698
104698
104697
104697
104705
104717
104726
104709
104712
104711
104709
104709
104709
104709
104708
104708
104708
104707
104707
104705
104703
104700
104698
104697
104696
104695
104694
104693
104693
104693
104693
104693
104693
104693
104696
104705
104711
104701
104704
104705
104704
104704
104704
104704
104704
104703
104703
104702
104701
104699
104696
104693
104692
104691
104690
104690
104689
104689
104689
104689
104689
104689
104689
104689
104690
104697
104699
104694
104697
104699
104698
104698
104698
104698
104698
104697
104697
104696
104695
104692
104689
104686
104686
104685
104685
104684
104684
104684
104684
104684
104684
104684
104684
104684
104685
104688
104690
104688
104692
104692
104691
104692
104692
104692
104691
104691
104690
104689
104687
104685
104682
104680
104679
104679
104679
104679
104679
104679
104679
104679
104679
104679
104679
104679
104679
104681
104682
104683
104685
104684
104684
104684
104684
104684
104684
104684
104683
104682
104679
104677
104674
104673
104673
104673
104673
104673
104673
104673
104674
104674
104674
104674
104674
104674
104674
104675
104676
104678
104677
104674
104675
104675
104675
104675
104675
104675
104675
104673
104671
104669
104667
104667
104667
104667
104667
104667
104667
104668
104668
104668
104669
104669
104669
104669
104668
104669
104669
104664
104663
104663
104665
104665
104665
104666
104666
104666
104665
104664
104663
104661
104660
104660
104660
104661
104661
104661
104661
104662
104662
104662
104663
104663
104663
104663
104663
104663
104661
104645
104647
104650
104653
104655
104655
104655
104656
104656
104656
104656
104655
104654
104653
104653
104654
104654
104654
104654
104655
104655
104655
104656
104656
104656
104656
104656
104656
104655
104652
104627
104630
104635
104640
104642
104643
104644
104646
104647
104648
104648
104647
104646
104646
104646
104646
104647
104647
104647
104648
104648
104648
104649
104649
104649
104649
104649
104649
104646
104641
104607
104611
104617
104623
104627
104630
104633
104635
104638
104639
104640
104639
104639
104639
104639
104639
104639
104639
104640
104640
104640
104640
104641
104640
104641
104640
104640
104638
104633
104627
104583
104586
104593
104600
104607
104613
104618
104622
104626
104629
104631
104632
104631
104631
104631
104631
104631
104631
104631
104631
104632
104632
104632
104632
104631
104630
104628
104623
104615
104608
104551
104555
104562
104571
104582
104592
104599
104605
104610
104615
104620
104623
104623
104623
104622
104621
104622
104622
104621
104622
104622
104622
104622
104622
104620
104617
104611
104601
104589
104582
104508
104511
104520
104533
104549
104563
104573
104580
104586
104592
104600
104608
104613
104614
104613
104612
104611
104611
104611
104612
104612
104612
104611
104609
104604
104596
104584
104569
104554
104546
104451
104455
104466
104482
104500
104517
104530
104537
104542
104549
104560
104576
104591
104600
104602
104601
104600
104600
104600
104600
104600
104598
104594
104588
104577
104562
104544
104526
104510
104501
104383
104388
104400
104417
104434
104445
104450
104453
104457
104466
104484
104510
104542
104567
104581
104585
104585
104585
104584
104582
104579
104573
104564
104548
104529
104508
104488
104471
104458
104449
104308
104315
104326
104335
104336
104332
104328
104328
104334
104349
104374
104408
104451
104495
104530
104548
104555
104556
104554
104549
104540
104525
104505
104481
104456
104435
104416
104403
104394
104389
104230
104235
104236
104227
104213
104199
104189
104189
104198
104219
104251
104290
104334
104382
104430
104466
104486
104493
104491
104482
104465
104443
104419
104395
104372
104352
104336
104323
104317
104315
104143
104140
104126
104106
104083
104063
104052
104054
104068
104092
104127
104168
104213
104258
104302
104341
104368
104382
104383
104375
104360
104341
104321
104300
104281
104264
104249
104238
104231
104229
104043
104031
104011
103985
103959
103944
103944
103952
103967
103989
104018
104056
104098
104139
104176
104210
104235
104251
104256
104253
104244
104232
104217
104201
104186
104172
104159
104149
104142
104140
103934
103921
103899
103873
103858
103860
103869
103880
103894
103911
103932
103961
103994
104027
104058
104086
104107
104122
104130
104131
104128
104120
104110
104099
104087
104076
104066
104057
104050
104048
103828
103817
103798
103785
103787
103796
103805
103816
103829
103842
103857
103876
103899
103923
103947
103968
103986
104000
104008
104012
104011
104007
104001
103993
103985
103977
103970
103963
103957
103954
103733
103724
103719
103722
103729
103735
103743
103753
103764
103773
103783
103794
103807
103823
103840
103856
103870
103882
103890
103894
103896
103894
103891
103886
103881
103875
103870
103865
103861
103857
103649
103652
103660
103671
103673
103676
103681
103688
103695
103700
103704
103708
103715
103725
103736
103747
103758
103767
103774
103778
103781
103781
103780
103778
103774
103771
103768
103765
103762
103759
103576
103584
103607
103623
103619
103613
103614
103618
103620
103620
103619
103618
103621
103625
103632
103639
103647
103654
103659
103664
103667
103668
103668
103668
103666
103665
103664
103662
103661
103659
103513
103527
103548
103558
103552
103544
103543
103543
103538
103533
103528
103524
103523
103525
103528
103532
103537
103542
103546
103550
103553
103555
103556
103557
103557
103556
103556
103557
103557
103556
103451
103465
103469
103470
103469
103467
103465
103459
103449
103440
103433
103427
103424
103423
103423
103425
103428
103431
103434
103437
103439
103442
103443
103444
103445
103446
103447
103448
103450
103451
103371
103372
103372
103373
103382
103384
103379
103367
103354
103343
103334
103327
103322
103319
103318
103317
103318
103319
103321
103323
103326
103328
103330
103331
103332
103334
103335
103337
103339
103341
103264
103262
103261
103273
103291
103295
103284
103268
103253
103241
103232
103224
103218
103214
103211
103208
103207
103207
103208
103209
103211
103213
103215
103217
103218
103220
103221
103223
103225
103227
103148
103140
103147
103170
103189
103193
103177
103160
103146
103135
103126
103119
103113
103107
103102
103098
103095
103093
103093
103094
103096
103098
103100
103101
103103
103104
103105
103107
103109
103111
103022
103026
103042
103065
103078
103073
103058
103045
103035
103026
103019
103012
103005
102999
102993
102986
102981
102978
102977
102978
102980
102982
102983
102984
102985
102986
102987
102989
102991
102993
102913
102928
102948
102958
102953
102943
102933
102926
102920
102915
102910
102904
102898
102890
102882
102873
102865
102861
102860
102862
102864
102866
102867
102867
102866
102867
102867
102868
102870
102871
102833
102846
102849
102837
102822
102809
102805
102805
102805
102805
102802
102797
102790
102781
102770
102758
102748
102743
102744
102748
102750
102751
102750
102748
102746
102744
102744
102744
102746
102747
102761
102754
102732
102706
102683
102674
102678
102686
102692
102695
102695
102690
102683
102672
102659
102644
102634
102632
102635
102639
102641
102638
102633
102628
102623
102619
102617
102617
102618
102619
102660
102636
102601
102565
102547
102547
102559
102573
102583
102589
102590
102586
102578
102566
102551
102537
102535
102538
102540
102541
102536
102527
102516
102505
102495
102489
102486
102485
102486
102488
102522
102496
102458
102429
102433
102441
102453
102468
102481
102488
102489
102486
102477
102464
102449
102445
102453
102457
102456
102449
102433
102414
102394
102375
102360
102352
102349
102349
102351
102353
102381
102354
102325
102327
102343
102354
102360
102372
102384
102391
102393
102389
102380
102367
102356
102362
102375
102377
102370
102351
102324
102294
102264
102236
102216
102205
102204
102209
102214
102218
102256
102231
102230
102247
102265
102276
102276
102283
102293
102300
102301
102296
102287
102276
102271
102283
102293
102291
102273
102242
102206
102167
102127
102093
102071
102058
102058
102066
102075
102083
102155
102151
102161
102175
102191
102199
102195
102199
102207
102213
102213
102209
102200
102191
102193
102206
102209
102196
102167
102128
102085
102039
101999
101971
101955
101943
101936
101937
101943
101953
102086
102087
102097
102108
102118
102121
102118
102120
102126
102130
102130
102125
102118
102111
102118
102128
102122
102096
102058
102014
101967
101925
101901
101893
101883
101869
101854
101843
101836
101839
102024
102025
102034
102040
102045
102045
102045
102045
102048
102050
102049
102046
102040
102037
102046
102051
102032
101995
101950
101903
101860
101837
101837
101840
101833
101815
101795
101778
101761
101753
101963
101963
101968
101971
101973
101972
101973
101972
101974
101974
101972
101968
101964
101964
101975
101972
101939
101893
101844
101799
101768
101769
101785
101797
101788
101762
101739
101719
101698
101687
101899
101899
101900
101902
101902
101899
101902
101901
101900
101898
101896
101892
101888
101892
101901
101885
101842
101791
101741
101701
101687
101704
101727
101733
101713
101698
101680
101658
101636
101621
101832
101834
101832
101832
101830
101827
101829
101827
101825
101821
101819
101817
101815
101822
101823
101791
101742
101688
101639
101608
101607
101629
101644
101626
101608
101597
101590
101581
101568
101552
101763
101767
101765
101762
101759
101755
101754
101751
101747
101743
101743
101742
101742
101745
101734
101692
101640
101586
101540
101514
101519
101536
101538
101509
101488
101477
101472
101474
101478
101473
101688
101694
101694
101690
101685
101682
101678
101674
101669
101665
101664
101664
101664
101657
101635
101591
101538
101485
101442
101420
101425
101433
101424
101391
101366
101351
101344
101347
101356
101366
101604
101609
101610
101606
101604
101605
101602
101600
101591
101585
101584
101582
101579
101564
101536
101491
101439
101387
101347
101330
101328
101326
101312
101278
101249
101227
101213
101210
101215
101221
101503
101504
101504
101507
101515
101524
101529
101528
101513
101503
101502
101499
101491
101472
101440
101395
101343
101293
101256
101241
101233
101224
101206
101174
101141
101113
101087
101071
101064
101062
101396
101385
101390
101401
101418
101440
101456
101455
101438
101422
101421
101419
101407
101383
101348
101302
101252
101205
101171
101154
101142
101128
101107
101076
101043
101008
100974
100942
100909
100888
101283
101281
101290
101301
101316
101356
101382
101391
101372
101350
101352
101346
101329
101300
101260
101212
101161
101118
101088
101070
101055
101038
101015
100987
100955
100916
100876
100835
100795
100781
101240
101239
101242
101245
101254
101272
101311
101334
101313
101297
101294
101284
101259
101224
101178
101123
101066
101023
100994
100979
100964
100948
100927
100903
100873
100836
100798
100766
100752
100749
101229
101228
101228
101229
101232
101235
101249
101267
101261
101256
101251
101235
101201
101157
101103
101036
100965
100917
100886
100875
100867
100856
100840
100818
100792
100767
100751
100744
100742
100741
101223
101222
101223
101223
101224
101224
101225
101227
101228
101225
101219
101197
101153
101100
101035
100951
100877
100830
100809
100799
100791
100782
100772
100759
100748
100742
100739
100739
100740
100740
101216
101216
101216
101216
101216
101216
101214
101211
101210
101205
101197
101167
101113
101051
100975
100881
100819
100789
100775
100766
100759
100752
100745
100740
100738
100737
100737
100738
100739
100739
101209
101209
101208
101208
101207
101205
101203
101200
101197
101191
101183
101143
101080
101010
100929
100843
100794
100773
100762
100755
100749
100744
100741
100738
100738
100737
100737
100738
100738
100738
101200
101200
101199
101197
101195
101193
101190
101188
101185
101178
101165
101117
101050
100976
100895
100821
100779
100763
100755
100750
100747
100743
100740
100738
100737
100737
100737
100737
100737
100737
101192
101191
101189
101186
101182
101179
101176
101171
101164
101160
101144
101094
101025
100949
100872
100806
100770
100756
100748
100745
100743
100741
100739
100737
100736
100736
100736
100736
100736
100736
101183
101181
101178
101173
101168
101163
101157
101150
101141
101142
101126
101073
101004
100929
100853
100793
100763
100751
100743
100741
100740
100738
100737
100736
100735
100735
100734
100735
100735
100735
101176
101172
101166
101159
101152
101144
101134
101124
101115
101114
101103
101053
100987
100912
100836
100779
100755
100746
100739
100738
100737
100736
100735
100734
100734
100733
100733
100733
100734
100734
101170
101161
101153
101143
101131
101118
101105
101092
101080
101071
101069
101035
100973
100897
100819
100767
100749
100741
100735
100735
100734
100733
100733
100732
100732
100732
100732
100732
100732
100732
101151
101147
101134
101119
101103
101086
101069
101053
101039
101027
101019
100999
100954
100878
100800
100758
100747
100736
100733
100732
100732
100731
100730
100730
100730
100730
100730
100730
100731
100731
101098
101108
101102
101084
101064
101044
101025
101009
100994
100980
100964
100951
100920
100833
100773
100750
100738
100731
100730
100730
100729
100728
100728
100728
100728
100728
100728
100728
100729
100729
101037
101049
101046
101033
101013
100993
100976
100962
100948
100933
100913
100887
100841
100775
100745
100732
100727
100727
100727
100727
100726
100725
100725
100725
100725
100725
100726
100726
100726
100726
100978
100990
100986
100972
100953
100937
100924
100913
100900
100881
100852
100808
100756
100733
100725
100724
100724
100724
100723
100723
100723
100722
100721
100721
100721
100722
100722
100722
100723
100723
100933
100947
100940
100920
100897
100881
100872
100863
100849
100826
100792
100745
100724
100720
100720
100721
100720
100720
100720
100719
100719
100719
100718
100717
100717
100718
100718
100718
100719
100719
100924
100922
100909
100882
100851
100832
100824
100815
100798
100773
100738
100720
100717
100718
100718
100717
100717
100716
100716
100716
100715
100715
100715
100714
100713
100713
100714
100714
100714
100715
100905
100903
100886
100855
100815
100792
100783
100771
100751
100728
100716
100713
100714
100714
100714
100714
100713
100712
100712
100711
100711
100711
100711
100710
100709
100709
100709
100710
100710
100710
100865
100861
100851
100825
100784
100761
100749
100733
100720
100712
100710
100711
100711
100711
100711
100710
100710
100709
100708
100707
100707
100707
100707
100707
100706
100705
100705
100705
100706
100706
100826
100817
100816
100786
100751
100733
100722
100713
100708
100708
100708
100708
100708
100708
100708
100707
100706
100705
100704
100704
100704
100704
100704
100703
100703
100702
100701
100701
100702
100702
100801
100783
100776
100749
100726
100714
100708
100706
100706
100706
100706
100706
100706
100705
100705
100704
100703
100702
100701
100701
100700
100700
100700
100700
100699
100699
100698
100698
100698
100698
100792
100771
100754
100726
100710
100706
100705
100704
100704
100704
100704
100703
100703
100702
100701
100700
100699
100699
100698
100698
100697
100697
100697
100697
100696
100696
100695
100695
100695
100695
100803
100777
100734
100716
100707
100705
100704
100703
100702
100702
100701
100701
100700
100699
100698
100697
100696
100695
100695
100695
100694
100694
100694
100694
100694
100693
100692
100692
100692
100692
100765
100760
100729
100711
100705
100703
100702
100701
100700
100699
100698
100698
100697
100696
100695
100693
100693
100692
100692
100692
100691
100691
100691
100691
100691
100690
100690
100689
100689
100689
100717
100720
100716
100706
100703
100701
100699
100698
100697
100696
100695
100695
100693
100692
100691
100690
100690
100689
100689
100689
100688
100688
100688
100688
100688
100687
100687
100687
100686
100686
100685
100683
100689
100695
100699
100698
100697
100695
100694
100693
100692
100691
100690
100689
100688
100687
100686
100686
100686
100686
100685
100685
100685
100685
100685
100685
100684
100684
100684
100684
100664
100660
100665
100679
100692
100695
100694
100692
100691
100690
100689
100687
100686
100685
100684
100684
100683
100683
100683
100683
100683
100682
100682
100682
100682
100682
100681
100681
100681
100681
100650
100648
100650
100661
100681
100690
100690
100688
100687
100686
100685
100683
100682
100681
100681
100680
100680
100680
100680
100680
100680
100679
100679
100679
100679
100679
100679
100678
100678
100678
100641
100640
100640
100646
100667
100684
100686
100684
100683
100681
100680
100679
100678
100677
100677
100677
100677
100677
100677
100677
100676
100676
100676
100675
100676
100676
100676
100675
100675
100675
100635
100635
100635
100637
100652
100676
100682
100680
100678
100677
100676
100675
100674
100673
100673
100673
100673
100673
100673
100673
100673
100673
100672
100672
100672
100673
100673
100672
100672
100672
100630
100630
100630
100631
100641
100665
100677
100676
100673
100672
100671
100670
100669
100669
100669
100669
100670
100670
100670
100670
100669
100669
100669
100669
100669
100669
100670
100669
100669
100669
100626
100626
100627
100626
100632
100652
100670
100671
100668
100667
100666
100665
100664
100665
100665
100665
100666
100666
100666
100666
100666
100665
100665
100665
100665
100666
100666
100666
100666
100666
100622
100621
100623
100622
100626
100641
100662
100666
100663
100661
100660
100659
100659
100660
100660
100661
100661
100661
100662
100662
100662
100662
100661
100661
100661
100662
100663
100663
100663
100663
100618
100617
100618
100618
100620
100632
100652
100661
100658
100655
100654
100654
100654
100654
100655
100656
100656
100657
100657
100658
100658
100658
100658
100657
100658
100658
100659
100660
100660
100660
100613
100613
100613
100613
100614
100624
100640
100654
100652
100649
100648
100647
100647
100648
100649
100650
100651
100652
100653
100653
100653
100654
100654
100654
100654
100654
100655
100656
100657
100656
100607
100607
100607
100607
100609
100616
100628
100646
100646
100641
100640
100640
100640
100641
100642
100644
100645
100647
100648
100648
100649
100650
100650
100650
100650
100650
100651
100652
100653
100653
100600
100599
100599
100600
100602
100608
100617
100636
100638
100633
100631
100631
100631
100633
100635
100637
100639
100641
100642
100644
100645
100645
100646
100646
100646
100646
100647
100648
100649
100649
100592
100592
100591
100591
100594
100600
100607
100623
100626
100622
100620
100620
100621
100623
100625
100628
100631
100634
100636
100638
100640
100641
100642
100642
100642
100642
100643
100644
100645
100645
100585
100584
100582
100581
100583
100589
100592
100608
100611
100608
100607
100607
100609
100611
100615
100619
100623
100627
100630
100633
100635
100636
100638
100638
100638
100638
100639
100639
100640
100641
100577
100576
100573
100570
100569
100573
100575
100589
100588
100588
100588
100591
100594
100598
100603
100608
100614
100619
100623
100627
100630
100632
100633
100634
100634
100635
100635
100635
100635
100636
100560
100565
100561
100557
100553
100553
100554
100563
100557
100560
100564
100570
100575
100582
100589
100595
100603
100610
100616
100621
100624
100627
100629
100630
100630
100631
100631
100631
100631
100631
100532
100539
100542
100539
100532
100529
100528
100521
100519
100525
100533
100543
100552
100562
100573
100583
100591
100600
100608
100614
100618
100622
100624
100625
100626
100627
100627
100627
100627
100627
100503
100511
100512
100510
100504
100496
100488
100471
100479
100487
100497
100511
100525
100540
100555
100569
100581
100590
100599
100606
100612
100616
100619
100621
100622
100623
100623
100623
100623
100623
100479
100488
100484
100476
100469
100457
100442
100437
100443
100451
100460
100474
100492
100514
100535
100553
100569
100581
100590
100598
100605
100610
100613
100616
100617
100619
100619
100620
100620
100620
100464
100470
100462
100448
100436
100425
100416
100418
100420
100423
100428
100437
100453
100478
100508
100534
100554
100570
100581
100589
100597
100603
100607
100610
100612
100614
100615
100616
100616
100617
100459
100457
100445
100429
100416
100407
100406
100407
100407
100407
100407
100410
100418
100438
100473
100508
100536
100557
100570
100579
100588
100595
100600
100604
100606
100608
100610
100611
100612
100612
100446
100447
100435
100419
100406
100399
100400
100401
100401
100399
100397
100397
100398
100406
100432
100475
100513
100540
100558
100569
100578
100586
100593
100597
100600
100602
100604
100606
100607
100607
100430
100430
100427
100410
100398
100396
100397
100397
100397
100395
100394
100392
100391
100392
100403
100438
100483
100520
100543
100557
100567
100576
100584
100589
100593
100596
100598
100600
100601
100601
100417
100414
100410
100400
100395
100394
100394
100394
100394
100393
100392
100391
100390
100389
100391
100408
100450
100495
100526
100543
100555
100565
100574
100581
100585
100589
100591
100593
100594
100595
100406
100404
100399
100394
100392
100392
100392
100391
100391
100391
100390
100390
100389
100388
100388
100394
100420
100467
100506
100528
100542
100554
100563
100571
100576
100580
100583
100585
100587
100587
100399
100397
100394
100391
100390
100390
100389
100389
100389
100389
100389
100388
100388
100388
100387
100389
100404
100442
100485
100512
100529
100541
100552
100560
100566
100571
100574
100576
100578
100578
100393
100392
100391
100389
100388
100388
100387
100387
100387
100387
100387
100387
100387
100386
100386
100386
100395
100423
100464
100496
100515
100528
100540