/*--------------------------------*- C++ -*----------------------------------*\
| =========                 |                                                 |
| \\      /  F ield         | OpenFOAM: The Open Source CFD Toolbox           |
|  \\    /   O peration     | Version:  v1606+                                |
|   \\  /    A nd           | Web:      www.OpenFOAM.com                      |
|    \\/     M anipulation  |                                                 |
\*---------------------------------------------------------------------------*/
FoamFile
{
    version     2.0;
    format      ascii;
    class       volScalarField;
    location    "1.42";
    object      pMean;
}
// * * * * * * * * * * * * * * * * * * * * * * * * * * * * * * * * * * * * * //

dimensions      [1 -1 -2 0 0 0 0];

internalField   nonuniform List<scalar> 
6000
(
107571
107571
107571
107571
107570
107570
107570
107570
107570
107570
107570
107570
107570
107570
107570
107570
107570
107570
107570
107570
107570
107570
107570
107571
107571
107572
107573
107574
107574
107574
107500
107500
107499
107498
107497
107497
107497
107497
107497
107497
107497
107497
107498
107498
107498
107498
107498
107498
107498
107498
107498
107498
107498
107498
107498
107500
107501
107502
107503
107502
107452
107453
107452
107452
107452
107452
107451
107451
107452
107452
107452
107452
107452
107453
107453
107453
107453
107453
107453
107453
107453
107453
107452
107452
107453
107453
107454
107454
107455
107454
107398
107397
107397
107397
107397
107398
107398
107398
107398
107399
107400
107400
107400
107400
107400
107400
107400
107401
107401
107401
107400
107400
107399
107398
107398
107398
107398
107398
107398
107398
107345
107345
107345
107345
107346
107346
107346
107347
107347
107347
107348
107349
107349
107349
107350
107350
107350
107350
107350
107349
107349
107348
107347
107346
107346
107345
107345
107344
107344
107344
107294
107293
107294
107294
107295
107295
107296
107296
107296
107296
107297
107297
107297
107298
107299
107299
107299
107298
107298
107298
107298
107297
107296
107295
107294
107293
107293
107292
107292
107292
107242
107242
107242
107243
107244
107244
107246
107247
107246
107246
107245
107245
107245
107246
107247
107247
107247
107246
107246
107246
107246
107246
107245
107243
107242
107242
107241
107240
107240
107241
107190
107188
107188
107189
107191
107193
107194
107196
107196
107196
107195
107194
107193
107194
107195
107195
107194
107194
107194
107194
107194
107194
107193
107191
107189
107188
107188
107187
107187
107189
107136
107134
107133
107135
107137
107139
107142
107144
107145
107145
107144
107143
107142
107143
107144
107143
107142
107142
107142
107142
107142
107141
107139
107137
107134
107133
107132
107132
107133
107136
107080
107078
107078
107080
107082
107085
107089
107092
107092
107092
107093
107093
107093
107093
107094
107093
107093
107092
107091
107090
107090
107088
107086
107082
107079
107077
107076
107076
107077
107079
107024
107023
107023
107024
107027
107031
107035
107038
107039
107039
107040
107042
107043
107043
107044
107045
107044
107042
107041
107040
107038
107036
107033
107028
107024
107020
107019
107020
107022
107023
106968
106967
106967
106968
106970
106976
106981
106984
106985
106985
106987
106989
106990
106992
106994
106995
106995
106994
106992
106990
106987
106984
106981
106976
106970
106965
106963
106963
106965
106967
106911
106910
106910
106910
106913
106920
106926
106929
106931
106931
106932
106933
106935
106938
106941
106943
106944
106944
106943
106940
106937
106933
106930
106924
106918
106912
106908
106908
106909
106910
106855
106854
106854
106855
106859
106865
106871
106875
106877
106878
106878
106879
106881
106884
106888
106889
106890
106893
106894
106891
106887
106883
106878
106873
106866
106861
106856
106855
106855
106856
106801
106800
106800
106802
106806
106811
106817
106821
106824
106826
106827
106828
106829
106832
106834
106836
106837
106839
106841
106839
106836
106832
106827
106821
106815
106810
106806
106803
106803
106803
106748
106748
106749
106750
106754
106758
106762
106767
106771
106775
106777
106778
106780
106781
106782
106783
106783
106784
106785
106784
106782
106778
106773
106768
106763
106759
106756
106753
106752
106751
106697
106697
106698
106700
106701
106703
106707
106713
106719
106724
106727
106729
106730
106730
106731
106730
106728
106728
106728
106727
106725
106721
106716
106712
106709
106706
106704
106701
106699
106699
106644
106644
106646
106647
106648
106649
106652
106659
106667
106673
106677
106678
106679
106678
106677
106676
106673
106671
106670
106669
106666
106661
106656
106652
106650
106649
106648
106646
106644
106643
106591
106591
106591
106592
106593
106594
106598
106604
106612
106620
106624
106625
106624
106624
106622
106619
106617
106615
106614
106612
106607
106600
106594
106590
106588
106586
106586
106586
106585
106584
106536
106536
106535
106535
106536
106539
106544
106550
106557
106564
106569
106569
106568
106566
106563
106561
106559
106558
106558
106555
106549
106540
106533
106528
106524
106522
106521
106521
106522
106521
106478
106477
106477
106478
106481
106486
106492
106498
106504
106509
106513
106513
106510
106507
106504
106501
106501
106501
106501
106497
106490
106481
106473
106466
106461
106457
106456
106455
106455
106455
106416
106417
106419
106423
106427
106433
106439
106445
106451
106455
106459
106459
106455
106450
106445
106443
106442
106442
106440
106436
106428
106419
106410
106402
106395
106391
106389
106388
106388
106388
106350
106353
106357
106364
106370
106376
106382
106388
106394
106400
106404
106403
106399
106393
106388
106384
106383
106381
106377
106371
106362
106352
106342
106334
106327
106322
106320
106319
106319
106320
106282
106285
106290
106297
106304
106310
106316
106322
106331
106338
106343
106343
106339
106333
106327
106323
106320
106317
106312
106303
106292
106281
106271
106263
106255
106251
106250
106249
106250
106251
106211
106213
106218
106224
106231
106237
106243
106249
106259
106270
106277
106278
106274
106269
106264
106259
106255
106250
106243
106231
106218
106207
106197
106189
106183
106179
106179
106180
106180
106181
106138
106139
106143
106148
106154
106159
106165
106172
106181
106192
106202
106206
106205
106202
106197
106192
106187
106181
106171
106157
106143
106131
106123
106117
106112
106110
106110
106111
106112
106113
106065
106065
106068
106071
106075
106080
106085
106092
106100
106111
106122
106130
106132
106130
106126
106122
106116
106109
106096
106080
106065
106055
106049
106046
106044
106043
106044
106045
106046
106046
105993
105993
105994
105995
105998
106002
106006
106012
106019
106028
106040
106050
106057
106057
106054
106050
106044
106035
106019
106002
105987
105978
105975
105975
105976
105977
105978
105980
105982
105981
105921
105922
105921
105920
105921
105924
105928
105932
105937
105945
105957
105969
105979
105982
105981
105976
105970
105958
105940
105922
105909
105901
105900
105902
105905
105909
105912
105915
105917
105917
105849
105849
105847
105845
105844
105845
105848
105852
105856
105863
105874
105888
105900
105906
105906
105901
105893
105879
105860
105843
105832
105825
105824
105827
105832
105838
105843
105848
105851
105852
105774
105773
105770
105767
105765
105764
105766
105770
105775
105782
105793
105806
105819
105828
105829
105825
105815
105800
105782
105768
105758
105752
105751
105753
105759
105766
105773
105779
105784
105786
105697
105696
105692
105688
105684
105682
105684
105688
105695
105703
105714
105727
105740
105749
105752
105748
105738
105724
105709
105697
105689
105685
105683
105683
105688
105695
105703
105710
105715
105718
105620
105618
105614
105609
105604
105603
105606
105612
105619
105627
105638
105651
105663
105672
105675
105671
105663
105652
105640
105632
105627
105624
105621
105620
105621
105627
105635
105642
105648
105650
105543
105541
105536
105531
105528
105529
105534
105541
105549
105557
105566
105578
105589
105597
105600
105597
105590
105582
105574
105570
105568
105566
105563
105561
105559
105562
105568
105575
105580
105583
105466
105463
105458
105455
105455
105460
105467
105476
105484
105492
105499
105509
105519
105527
105529
105526
105521
105516
105512
105511
105510
105509
105507
105504
105501
105501
105504
105510
105514
105516
105390
105386
105381
105381
105385
105393
105404
105414
105424
105431
105436
105443
105452
105459
105462
105461
105457
105455
105453
105453
105453
105453
105451
105448
105444
105441
105443
105446
105449
105451
105317
105313
105311
105313
105320
105332
105343
105355
105365
105372
105376
105381
105388
105395
105399
105399
105397
105396
105395
105396
105396
105396
105394
105391
105387
105384
105382
105383
105386
105387
105254
105251
105253
105256
105263
105274
105286
105298
105308
105315
105318
105321
105327
105333
105337
105338
105338
105338
105338
105338
105339
105338
105336
105334
105331
105327
105323
105323
105324
105325
105201
105201
105204
105209
105214
105221
105232
105242
105251
105258
105261
105262
105266
105271
105275
105278
105278
105279
105279
105280
105280
105279
105278
105276
105273
105270
105266
105264
105263
105264
105154
105155
105160
105163
105166
105170
105177
105186
105194
105200
105203
105204
105205
105209
105214
105217
105219
105219
105220
105221
105221
105220
105218
105216
105214
105211
105208
105206
105204
105204
105107
105109
105113
105116
105118
105119
105121
105127
105133
105139
105143
105144
105145
105148
105154
105158
105160
105161
105161
105161
105161
105160
105158
105156
105154
105151
105149
105146
105144
105144
105058
105060
105062
105063
105062
105061
105061
105063
105069
105075
105080
105083
105085
105088
105093
105098
105101
105101
105101
105101
105100
105099
105097
105094
105092
105089
105087
105085
105083
105083
105005
105006
105005
105003
105000
104997
104996
104997
105002
105009
105016
105020
105023
105028
105033
105039
105041
105042
105041
105041
105040
105037
105035
105032
105030
105027
105024
105022
105021
105021
104948
104947
104943
104938
104934
104930
104928
104930
104935
104943
104950
104957
104961
104967
104973
104979
104982
104982
104982
104981
104979
104976
104972
104969
104967
104964
104962
104959
104959
104959
104886
104883
104878
104872
104866
104862
104861
104863
104869
104877
104885
104893
104899
104905
104912
104919
104921
104921
104922
104921
104919
104914
104910
104906
104903
104901
104899
104897
104897
104898
104821
104817
104811
104805
104799
104795
104796
104799
104805
104814
104822
104831
104838
104844
104852
104858
104861
104861
104862
104861
104858
104854
104848
104844
104840
104837
104836
104835
104836
104836
104758
104753
104747
104741
104737
104735
104737
104741
104747
104754
104762
104770
104777
104784
104791
104798
104800
104802
104803
104802
104798
104793
104788
104782
104777
104774
104773
104773
104774
104775
104697
104693
104688
104683
104681
104681
104683
104687
104692
104698
104705
104711
104718
104725
104732
104738
104741
104743
104744
104742
104739
104734
104727
104721
104716
104713
104711
104711
104712
104713
104640
104637
104633
104631
104630
104630
104632
104636
104640
104645
104650
104655
104660
104667
104673
104679
104682
104683
104685
104683
104679
104674
104668
104661
104656
104652
104650
104650
104650
104651
104587
104585
104583
104581
104580
104581
104583
104585
104588
104592
104597
104600
104604
104610
104615
104620
104623
104624
104626
104624
104620
104614
104608
104602
104597
104592
104590
104589
104589
104589
104537
104535
104534
104532
104532
104533
104534
104536
104538
104540
104543
104546
104549
104553
104558
104562
104564
104565
104566
104564
104560
104555
104549
104544
104538
104533
104530
104528
104528
104528
104487
104487
104486
104485
104485
104485
104486
104486
104487
104488
104490
104492
104494
104497
104501
104503
104505
104506
104506
104504
104499
104494
104490
104485
104480
104475
104470
104468
104467
104467
104437
104437
104437
104437
104437
104437
104436
104435
104435
104436
104436
104437
104439
104441
104444
104445
104445
104446
104445
104442
104438
104434
104430
104426
104421
104416
104412
104409
104407
104407
104387
104387
104388
104388
104388
104387
104385
104383
104382
104382
104382
104382
104383
104384
104386
104386
104385
104385
104384
104380
104375
104371
104368
104365
104361
104358
104354
104350
104348
104347
104335
104336
104337
104337
104336
104334
104332
104329
104328
104327
104327
104326
104326
104327
104327
104326
104325
104324
104321
104316
104311
104307
104304
104302
104300
104297
104295
104292
104289
104288
104282
104283
104284
104282
104281
104278
104275
104273
104272
104271
104270
104269
104269
104268
104267
104265
104262
104260
104256
104251
104246
104242
104238
104236
104235
104235
104235
104233
104231
104230
104228
104228
104228
104225
104222
104220
104218
104216
104215
104214
104213
104212
104210
104208
104206
104203
104199
104196
104191
104186
104181
104176
104171
104168
104167
104169
104171
104172
104172
104171
104173
104172
104169
104166
104163
104161
104160
104160
104158
104157
104155
104152
104151
104148
104145
104141
104136
104131
104126
104121
104116
104110
104104
104100
104098
104100
104104
104107
104110
104110
104116
104114
104109
104106
104104
104103
104103
104103
104101
104098
104095
104092
104090
104087
104083
104078
104073
104067
104062
104056
104050
104044
104037
104032
104029
104031
104034
104039
104044
104045
104057
104053
104050
104047
104047
104048
104047
104045
104042
104037
104033
104030
104028
104024
104020
104015
104009
104003
103997
103991
103985
103978
103971
103965
103961
103961
103965
103970
103975
103978
103996
103994
103992
103992
103993
103992
103989
103985
103980
103974
103969
103965
103962
103959
103954
103950
103944
103937
103931
103925
103919
103912
103905
103899
103895
103894
103897
103901
103906
103909
103937
103936
103937
103938
103938
103935
103929
103922
103916
103910
103904
103899
103895
103892
103888
103883
103877
103871
103865
103859
103854
103848
103842
103836
103831
103829
103830
103833
103837
103840
103880
103882
103885
103885
103882
103875
103866
103858
103850
103843
103837
103832
103828
103824
103820
103815
103809
103803
103797
103793
103788
103783
103779
103775
103771
103767
103766
103767
103770
103772
103825
103828
103831
103829
103821
103811
103801
103791
103782
103775
103769
103764
103760
103755
103751
103746
103740
103734
103729
103725
103722
103719
103716
103714
103711
103708
103705
103705
103706
103707
103770
103772
103771
103765
103756
103744
103733
103722
103714
103707
103701
103696
103691
103686
103681
103676
103670
103664
103660
103657
103654
103652
103651
103651
103650
103649
103647
103645
103645
103645
103711
103711
103706
103697
103687
103675
103663
103653
103644
103638
103632
103627
103622
103617
103611
103605
103599
103594
103590
103587
103585
103584
103584
103585
103586
103588
103588
103587
103586
103586
103647
103644
103636
103626
103616
103604
103593
103582
103575
103569
103563
103558
103552
103546
103541
103534
103528
103523
103520
103517
103515
103514
103514
103516
103519
103523
103526
103528
103527
103527
103576
103572
103564
103554
103543
103532
103521
103512
103505
103499
103493
103488
103481
103475
103469
103463
103456
103452
103449
103446
103444
103443
103444
103447
103451
103457
103462
103465
103466
103466
103503
103499
103491
103481
103470
103459
103449
103441
103435
103429
103423
103417
103410
103404
103398
103391
103385
103381
103377
103375
103372
103372
103373
103376
103382
103389
103395
103400
103403
103404
103430
103426
103418
103408
103397
103387
103378
103372
103366
103359
103352
103345
103339
103333
103327
103320
103314
103310
103307
103304
103302
103301
103302
103306
103312
103320
103327
103333
103337
103339
103357
103353
103346
103336
103326
103317
103309
103303
103297
103289
103282
103275
103269
103263
103257
103251
103245
103241
103238
103235
103233
103232
103233
103237
103243
103250
103258
103265
103269
103271
103287
103283
103275
103266
103257
103249
103242
103236
103229
103222
103214
103207
103201
103195
103190
103184
103179
103175
103171
103168
103165
103165
103166
103169
103174
103181
103189
103196
103200
103202
103218
103214
103207
103199
103191
103184
103177
103171
103164
103156
103149
103142
103135
103130
103125
103120
103116
103112
103107
103103
103101
103099
103099
103102
103106
103112
103119
103126
103130
103133
103151
103148
103141
103134
103128
103121
103114
103108
103101
103094
103086
103079
103073
103068
103063
103058
103054
103050
103046
103041
103037
103034
103033
103035
103039
103045
103052
103057
103061
103064
103087
103083
103079
103073
103066
103059
103052
103045
103039
103032
103026
103019
103013
103008
103003
102998
102993
102989
102985
102980
102974
102970
102968
102969
102973
102979
102986
102991
102995
102997
103024
103022
103019
103013
103006
102998
102990
102983
102977
102972
102966
102960
102954
102948
102943
102937
102932
102928
102923
102917
102911
102906
102904
102906
102910
102916
102922
102928
102932
102934
102963
102962
102959
102953
102945
102936
102928
102922
102917
102912
102906
102900
102894
102889
102883
102877
102871
102866
102861
102855
102848
102844
102843
102845
102850
102856
102862
102868
102872
102873
102904
102902
102899
102892
102883
102874
102866
102861
102856
102852
102846
102840
102834
102828
102822
102815
102809
102803
102798
102792
102787
102785
102785
102788
102793
102799
102805
102811
102814
102816
102844
102842
102837
102829
102821
102813
102806
102801
102796
102791
102786
102780
102774
102768
102761
102754
102748
102742
102736
102732
102729
102728
102730
102733
102737
102743
102750
102755
102758
102760
102783
102781
102774
102767
102760
102753
102748
102743
102737
102732
102726
102720
102713
102707
102700
102693
102687
102681
102677
102674
102674
102674
102676
102679
102683
102689
102695
102700
102703
102704
102722
102720
102713
102707
102701
102695
102690
102685
102679
102672
102666
102659
102653
102647
102640
102633
102626
102621
102619
102618
102619
102620
102623
102626
102630
102635
102640
102645
102648
102649
102662
102659
102654
102649
102644
102639
102633
102628
102621
102613
102606
102599
102593
102587
102580
102573
102567
102563
102562
102563
102565
102567
102571
102574
102578
102582
102586
102590
102593
102595
102603
102601
102597
102593
102588
102584
102578
102571
102563
102555
102548
102541
102534
102527
102520
102514
102509
102507
102507
102509
102512
102515
102519
102523
102527
102530
102533
102536
102539
102541
102546
102544
102541
102537
102533
102528
102522
102515
102506
102498
102490
102482
102475
102469
102462
102456
102452
102452
102453
102455
102459
102463
102468
102472
102475
102478
102481
102484
102486
102488
102490
102488
102486
102482
102477
102472
102466
102458
102450
102441
102433
102425
102417
102411
102404
102399
102397
102397
102399
102402
102406
102411
102416
102420
102424
102427
102430
102433
102435
102436
102434
102433
102430
102426
102421
102416
102409
102401
102393
102385
102376
102368
102360
102353
102347
102344
102342
102343
102346
102349
102354
102359
102364
102369
102373
102376
102379
102382
102384
102385
102379
102378
102375
102371
102365
102360
102353
102345
102337
102329
102320
102312
102304
102298
102292
102290
102289
102291
102293
102297
102302
102307
102313
102318
102322
102326
102329
102332
102334
102335
102325
102323
102320
102315
102310
102304
102297
102289
102282
102274
102266
102258
102251
102244
102239
102238
102238
102239
102242
102246
102250
102256
102261
102266
102271
102275
102279
102283
102285
102287
102272
102270
102267
102261
102255
102248
102242
102235
102229
102222
102214
102206
102199
102193
102189
102188
102188
102190
102192
102196
102200
102205
102211
102216
102221
102225
102230
102234
102236
102238
102219
102217
102213
102208
102201
102195
102189
102183
102177
102170
102163
102156
102149
102143
102140
102140
102140
102142
102144
102148
102152
102156
102161
102166
102171
102176
102180
102185
102188
102189
102167
102165
102161
102155
102150
102144
102138
102133
102128
102121
102114
102107
102101
102096
102094
102094
102094
102096
102098
102101
102104
102108
102113
102118
102123
102128
102132
102136
102139
102140
102115
102112
102109
102105
102100
102094
102089
102085
102080
102074
102067
102060
102054
102050
102048
102048
102049
102051
102053
102055
102058
102061
102065
102070
102075
102080
102084
102087
102090
102092
102064
102062
102060
102056
102052
102047
102042
102038
102033
102027
102021
102014
102008
102004
102003
102004
102005
102006
102008
102010
102012
102015
102019
102023
102028
102032
102036
102039
102042
102043
102014
102013
102011
102008
102005
102000
101996
101992
101987
101982
101975
101968
101962
101960
101959
101959
101960
101961
101963
101965
101967
101970
101974
101977
101981
101985
101988
101991
101993
101994
101966
101965
101964
101961
101958
101954
101950
101946
101941
101936
101929
101923
101918
101915
101915
101915
101916
101917
101919
101921
101923
101925
101928
101932
101935
101937
101940
101943
101944
101945
101919
101919
101917
101915
101912
101908
101904
101900
101895
101890
101884
101878
101874
101871
101871
101871
101872
101873
101875
101876
101878
101881
101884
101886
101889
101891
101893
101895
101896
101897
101872
101872
101871
101869
101866
101862
101858
101854
101849
101844
101838
101833
101830
101828
101827
101827
101828
101829
101831
101832
101834
101836
101839
101841
101843
101845
101846
101847
101848
101849
101825
101825
101824
101822
101819
101816
101812
101807
101803
101798
101793
101788
101786
101785
101784
101784
101785
101786
101787
101788
101790
101792
101794
101796
101798
101799
101800
101800
101801
101801
101778
101778
101776
101774
101772
101768
101765
101761
101757
101752
101747
101744
101742
101741
101740
101741
101741
101742
101743
101745
101746
101748
101750
101751
101752
101753
101753
101754
101754
101753
101731
101730
101729
101726
101724
101722
101719
101716
101712
101708
101704
101701
101700
101699
101699
101699
101700
101701
101702
101703
101704
101706
101707
101708
101708
101708
101708
101708
101708
101707
101684
101683
101682
101680
101678
101676
101674
101672
101669
101665
101663
101661
101660
101659
101659
101659
101660
101661
101662
101663
101664
101665
101666
101666
101665
101665
101665
101664
101664
101664
101638
101637
101635
101633
101632
101631
101630
101629
101627
101624
101622
101621
101620
101620
101620
101621
101621
101622
101623
101624
101625
101625
101625
101625
101624
101623
101622
101622
101621
101621
101593
101592
101590
101588
101587
101587
101586
101586
101585
101584
101583
101582
101581
101582
101582
101583
101583
101584
101585
101586
101586
101586
101586
101585
101583
101582
101581
101580
101580
101580
101549
101548
101546
101544
101544
101544
101544
101544
101544
101544
101544
101544
101544
101544
101544
101545
101546
101547
101547
101548
101548
101548
101547
101546
101544
101542
101541
101539
101539
101539
101506
101505
101504
101502
101502
101503
101503
101504
101504
101505
101505
101506
101506
101507
101507
101508
101509
101509
101510
101511
101511
101510
101509
101508
101506
101504
101502
101500
101499
101499
101464
101463
101463
101462
101462
101463
101463
101464
101465
101466
101467
101468
101469
101470
101470
101471
101472
101472
101473
101473
101473
101473
101472
101470
101468
101466
101464
101462
101461
101460
101424
101424
101424
101424
101424
101424
101425
101425
101427
101429
101430
101431
101432
101433
101433
101434
101435
101436
101436
101436
101436
101436
101435
101433
101431
101429
101427
101425
101423
101423
101385
101386
101386
101386
101386
101386
101387
101388
101389
101391
101392
101394
101395
101396
101397
101397
101398
101399
101399
101400
101399
101399
101398
101396
101395
101393
101391
101389
101387
101387
101348
101348
101349
101348
101348
101348
101349
101350
101352
101354
101355
101357
101358
101359
101360
101361
101361
101362
101363
101363
101363
101362
101361
101360
101358
101357
101355
101354
101352
101351
101310
101311
101311
101311
101311
101311
101312
101313
101315
101317
101318
101320
101321
101322
101323
101324
101325
101326
101326
101326
101326
101325
101324
101323
101322
101321
101320
101319
101317
101317
101272
101273
101273
101273
101274
101274
101275
101276
101278
101280
101281
101283
101285
101286
101287
101288
101289
101289
101290
101290
101289
101288
101288
101287
101286
101285
101284
101284
101283
101283
101234
101235
101236
101236
101237
101237
101238
101240
101241
101243
101244
101246
101248
101249
101251
101252
101253
101253
101253
101253
101253
101252
101252
101251
101251
101250
101250
101249
101249
101249
101197
101197
101198
101199
101200
101201
101202
101203
101205
101206
101208
101210
101211
101213
101215
101216
101217
101217
101217
101217
101217
101216
101216
101216
101215
101215
101215
101215
101215
101215
101160
101160
101161
101161
101163
101164
101166
101167
101168
101170
101171
101173
101175
101177
101179
101180
101181
101182
101182
101182
101182
101181
101181
101181
101181
101181
101181
101181
101181
101181
101123
101123
101124
101125
101126
101128
101130
101131
101133
101134
101136
101138
101140
101142
101143
101145
101146
101147
101147
101147
101147
101146
101146
101146
101147
101147
101148
101148
101148
101148
101087
101087
101088
101089
101091
101093
101095
101096
101097
101099
101101
101103
101105
101107
101109
101110
101111
101112
101112
101112
101112
101112
101112
101112
101113
101114
101115
101115
101115
101116
101053
101052
101053
101054
101055
101058
101060
101062
101063
101065
101066
101068
101070
101073
101074
101076
101077
101078
101078
101078
101078
101077
101077
101078
101079
101080
101082
101083
101083
101084
101019
101018
101018
101019
101021
101023
101026
101028
101029
101031
101032
101034
101037
101039
101041
101042
101043
101044
101044
101044
101043
101043
101044
101044
101045
101047
101049
101051
101052
101052
100985
100984
100985
100985
100987
100989
100992
100994
100996
100997
100999
101001
101004
101006
101008
101009
101010
101010
101010
101010
101010
101010
101010
101011
101012
101014
101016
101018
101019
101020
100951
100951
100951
100952
100953
100956
100958
100961
100963
100965
100967
100970
100972
100974
100976
100977
100978
100978
100977
100977
100977
100977
100977
100978
100979
100981
100983
100985
100987
100988
100917
100917
100918
100918
100920
100923
100926
100929
100931
100933
100936
100938
100941
100943
100945
100946
100946
100946
100946
100945
100945
100945
100945
100946
100947
100948
100950
100952
100954
100955
100884
100884
100884
100885
100888
100891
100895
100898
100900
100903
100905
100908
100910
100912
100914
100915
100915
100915
100915
100914
100914
100914
100914
100915
100915
100916
100918
100920
100922
100922
100852
100852
100852
100854
100856
100860
100864
100868
100870
100873
100875
100878
100880
100882
100883
100884
100885
100885
100884
100884
100884
100884
100884
100885
100885
100885
100886
100888
100889
100890
100821
100820
100821
100823
100825
100829
100834
100838
100841
100843
100846
100848
100850
100852
100853
100854
100855
100855
100854
100854
100855
100855
100855
100855
100855
100855
100856
100857
100858
100859
100789
100790
100791
100792
100795
100799
100804
100808
100811
100814
100817
100819
100821
100822
100824
100825
100825
100825
100825
100825
100826
100826
100826
100826
100826
100826
100826
100827
100828
100829
100758
100759
100761
100763
100766
100770
100774
100778
100781
100784
100787
100790
100792
100793
100794
100795
100796
100796
100796
100797
100797
100798
100798
100798
100798
100797
100797
100798
100799
100800
100729
100729
100731
100734
100737
100740
100745
100748
100751
100754
100758
100760
100763
100764
100765
100766
100767
100767
100768
100769
100770
100770
100770
100770
100770
100769
100769
100769
100770
100771
100700
100700
100702
100705
100708
100711
100715
100719
100721
100724
100728
100731
100734
100735
100737
100738
100738
100739
100741
100741
100742
100742
100742
100742
100742
100741
100741
100741
100742
100742
100672
100672
100674
100676
100679
100682
100686
100689
100692
100695
100699
100702
100705
100707
100708
100709
100711
100712
100713
100714
100715
100715
100715
100715
100714
100714
100714
100714
100714
100714
100645
100645
100646
100648
100651
100654
100657
100659
100663
100666
100670
100673
100676
100678
100680
100682
100683
100685
100686
100687
100688
100688
100688
100688
100688
100687
100687
100687
100687
100687
100619
100620
100620
100622
100624
100626
100629
100632
100635
100638
100642
100645
100648
100651
100653
100655
100657
100658
100660
100661
100661
100662
100662
100662
100662
100661
100661
100660
100660
100660
100594
100595
100596
100596
100598
100600
100603
100606
100609
100612
100615
100618
100621
100624
100627
100629
100630
100632
100634
100635
100635
100636
100636
100637
100636
100636
100635
100635
100634
100634
100570
100570
100572
100572
100574
100576
100578
100582
100584
100587
100590
100592
100595
100598
100600
100603
100605
100607
100608
100609
100610
100611
100611
100612
100612
100611
100611
100610
100609
100609
100546
100547
100548
100549
100550
100552
100555
100558
100561
100564
100566
100567
100569
100572
100574
100577
100579
100581
100583
100584
100585
100586
100587
100587
100587
100587
100586
100585
100584
100584
100522
100522
100524
100526
100528
100530
100532
100535
100538
100541
100542
100543
100545
100546
100548
100551
100554
100557
100559
100560
100561
100562
100563
100563
100563
100563
100562
100560
100559
100559
100498
100499
100501
100503
100505
100507
100510
100513
100516
100518
100519
100520
100521
100522
100523
100526
100529
100532
100534
100536
100537
100538
100539
100540
100539
100539
100537
100536
100535
100535
100476
100477
100478
100481
100483
100485
100488
100491
100493
100496
100497
100498
100498
100498
100499
100501
100504
100507
100510
100512
100513
100515
100516
100516
100516
100515
100514
100513
100512
100512
100454
100455
100457
100459
100461
100464
100467
100469
100471
100473
100475
100475
100475
100475
100476
100477
100479
100483
100485
100488
100490
100491
100492
100493
100493
100492
100491
100491
100490
100490
100433
100434
100436
100438
100440
100443
100445
100447
100450
100451
100453
100453
100453
100453
100453
100454
100455
100458
100461
100464
100466
100468