/*--------------------------------*- C++ -*----------------------------------*\
| =========                 |                                                 |
| \\      /  F ield         | OpenFOAM: The Open Source CFD Toolbox           |
|  \\    /   O peration     | Version:  v1606+                                |
|   \\  /    A nd           | Web:      www.OpenFOAM.com                      |
|    \\/     M anipulation  |                                                 |
\*---------------------------------------------------------------------------*/
FoamFile
{
    version     2.0;
    format      ascii;
    class       volVectorField;
    location    "1.42";
    object      U.particlesMean;
}
// * * * * * * * * * * * * * * * * * * * * * * * * * * * * * * * * * * * * * //

dimensions      [0 1 -1 0 0 0 0];

internalField   nonuniform List<vector> 
6000
(
(-0.00719697 -0.336169 0)
(0.000397867 -0.368973 0)
(0.0115201 -0.373767 0)
(0.0168439 -0.385102 0)
(0.0180624 -0.399487 0)
(0.0156944 -0.413693 0)
(0.0128659 -0.425757 0)
(0.0084099 -0.432822 0)
(0.00421302 -0.43272 0)
(0.000916647 -0.437948 0)
(-0.0023368 -0.441306 0)
(-0.00403462 -0.445337 0)
(-0.00533959 -0.448023 0)
(-0.00667337 -0.451484 0)
(-0.00800593 -0.451717 0)
(-0.00939869 -0.451349 0)
(-0.0105865 -0.450672 0)
(-0.011767 -0.451058 0)
(-0.0134661 -0.457006 0)
(-0.0160204 -0.454989 0)
(-0.0197025 -0.446736 0)
(-0.0238824 -0.432318 0)
(-0.0275501 -0.421612 0)
(-0.0307072 -0.411626 0)
(-0.0325674 -0.397233 0)
(-0.0322308 -0.381444 0)
(-0.0267426 -0.364543 0)
(-0.016684 -0.355274 0)
(-0.00257079 -0.35541 0)
(0.00614895 -0.330066 0)
(0.0177576 0.0316132 0)
(0.013067 0.0512323 0)
(0.0261093 0.0518033 0)
(0.037252 0.0581106 0)
(0.0430849 0.0654629 0)
(0.0398294 0.0694319 0)
(0.0266814 0.0666145 0)
(0.0120743 0.0646904 0)
(0.00200644 0.0638006 0)
(-0.0017579 0.0627165 0)
(-0.00483049 0.0637838 0)
(-0.00754545 0.0639486 0)
(-0.00968859 0.0592809 0)
(-0.0121061 0.0557292 0)
(-0.0131888 0.0518911 0)
(-0.0129321 0.0513031 0)
(-0.0127708 0.0530249 0)
(-0.0129418 0.0548976 0)
(-0.0144856 0.0618517 0)
(-0.0194059 0.0667103 0)
(-0.0263503 0.0652448 0)
(-0.0341329 0.0674174 0)
(-0.0468877 0.07066 0)
(-0.0574468 0.0677433 0)
(-0.0595076 0.0611683 0)
(-0.0536406 0.0555302 0)
(-0.0397101 0.0481779 0)
(-0.0250211 0.0462507 0)
(-0.011618 0.0507515 0)
(-0.0172966 0.0342329 0)
(0.00402476 -0.0452095 0)
(0.00607714 -0.0593503 0)
(0.0194611 -0.0637397 0)
(0.0293276 -0.057644 0)
(0.0384027 -0.0426762 0)
(0.0408366 -0.0235336 0)
(0.0334477 -0.0146556 0)
(0.0200835 -0.0168927 0)
(0.0104417 -0.0279409 0)
(0.00395483 -0.0346345 0)
(-0.00130387 -0.0396936 0)
(-0.00502391 -0.0423254 0)
(-0.00882166 -0.0415058 0)
(-0.0126787 -0.0412406 0)
(-0.0138293 -0.0429666 0)
(-0.0143072 -0.0443973 0)
(-0.0155478 -0.045438 0)
(-0.0183523 -0.0450068 0)
(-0.0221527 -0.0408456 0)
(-0.0266703 -0.035888 0)
(-0.0338932 -0.0277682 0)
(-0.0411521 -0.0195601 0)
(-0.0488909 -0.0165278 0)
(-0.0555753 -0.0254846 0)
(-0.0548155 -0.0425157 0)
(-0.0443048 -0.0584342 0)
(-0.0307923 -0.0665093 0)
(-0.0201835 -0.0672546 0)
(-0.00707206 -0.0594391 0)
(-0.00617515 -0.0467504 0)
(0.010024 -0.0533084 0)
(0.00781049 -0.0611455 0)
(0.0119679 -0.0595108 0)
(0.0149895 -0.0515705 0)
(0.0268935 -0.0375207 0)
(0.0340691 -0.0205398 0)
(0.0364551 -0.00854367 0)
(0.0314591 -0.00762709 0)
(0.0243427 -0.0106584 0)
(0.0155506 -0.0115846 0)
(0.00694154 -0.0129296 0)
(-0.00213284 -0.0128166 0)
(-0.0104214 -0.0146335 0)
(-0.0135354 -0.0220452 0)
(-0.0121111 -0.0293647 0)
(-0.0100384 -0.0296432 0)
(-0.0101345 -0.0243362 0)
(-0.0155071 -0.0176592 0)
(-0.0254008 -0.0129975 0)
(-0.0353502 -0.0112683 0)
(-0.0427162 -0.00912572 0)
(-0.0476953 -0.00649838 0)
(-0.0505436 -0.00632342 0)
(-0.0513339 -0.0187436 0)
(-0.0430465 -0.0406083 0)
(-0.0290891 -0.0565469 0)
(-0.0190384 -0.0646535 0)
(-0.0147123 -0.0661498 0)
(-0.0108396 -0.0638812 0)
(-0.00910581 -0.055843 0)
(0.0056901 -0.0711701 0)
(0.00366643 -0.0781957 0)
(0.00547532 -0.0778053 0)
(0.00555512 -0.0746234 0)
(0.0143202 -0.061433 0)
(0.0249087 -0.0432715 0)
(0.0323345 -0.0246432 0)
(0.0349719 -0.0181237 0)
(0.0313943 -0.0185323 0)
(0.0237553 -0.0191004 0)
(0.0147147 -0.0193807 0)
(0.00263711 -0.0187838 0)
(-0.00686699 -0.0249921 0)
(-0.0100049 -0.040411 0)
(-0.00676385 -0.0513371 0)
(-0.00242269 -0.0506774 0)
(-0.00116528 -0.0404155 0)
(-0.0062221 -0.0268888 0)
(-0.0184375 -0.0176274 0)
(-0.0308378 -0.0179641 0)
(-0.0384162 -0.0189782 0)
(-0.0422406 -0.0179492 0)
(-0.0451746 -0.0215069 0)
(-0.043086 -0.0401263 0)
(-0.0339965 -0.0683885 0)
(-0.0210717 -0.0843731 0)
(-0.0105206 -0.0892017 0)
(-0.00816059 -0.0853195 0)
(-0.00562954 -0.0819667 0)
(-0.00512308 -0.0738074 0)
(0.00309706 -0.0743306 0)
(-0.00092395 -0.0776013 0)
(-0.00168158 -0.0810468 0)
(0.00222296 -0.0830502 0)
(0.00823393 -0.0727469 0)
(0.019185 -0.0543856 0)
(0.0270449 -0.0351072 0)
(0.0344288 -0.0239204 0)
(0.0327588 -0.0175628 0)
(0.0256429 -0.0172086 0)
(0.015478 -0.019872 0)
(0.00242789 -0.0242889 0)
(-0.00569785 -0.0360421 0)
(-0.00673376 -0.0518054 0)
(-0.00296077 -0.0631873 0)
(0.00384914 -0.0622239 0)
(0.00741699 -0.0496706 0)
(0.00449177 -0.0345029 0)
(-0.00324918 -0.0232238 0)
(-0.0146001 -0.0182694 0)
(-0.0262361 -0.0161731 0)
(-0.0364859 -0.0174646 0)
(-0.0415298 -0.0261104 0)
(-0.037068 -0.0494357 0)
(-0.0267069 -0.0779452 0)
(-0.0144031 -0.0934675 0)
(-0.00607683 -0.0958418 0)
(-0.000769549 -0.0883728 0)
(-0.000882557 -0.0810424 0)
(-0.00254734 -0.0759895 0)
(-0.00184813 -0.0665179 0)
(-0.00432601 -0.0771401 0)
(-0.00437894 -0.0852204 0)
(-0.000219686 -0.0892962 0)
(0.00861025 -0.0853084 0)
(0.0190457 -0.0629461 0)
(0.0250693 -0.0410077 0)
(0.0344199 -0.0289736 0)
(0.033824 -0.0161436 0)
(0.0238541 -0.0144249 0)
(0.0136951 -0.0188258 0)
(0.00317322 -0.0241996 0)
(-0.00199308 -0.0371949 0)
(-0.00252294 -0.0562956 0)
(0.000575285 -0.0696029 0)
(0.00706584 -0.0689959 0)
(0.0111223 -0.0550937 0)
(0.0101087 -0.0365831 0)
(0.00456322 -0.022805 0)
(-0.00399971 -0.0174232 0)
(-0.0151217 -0.0128912 0)
(-0.0268139 -0.0143872 0)
(-0.0344196 -0.0279659 0)
(-0.029105 -0.0540394 0)
(-0.0213449 -0.0842566 0)
(-0.0119714 -0.0989584 0)
(-0.00394552 -0.101076 0)
(0.00139778 -0.0924529 0)
(0.00216089 -0.0815874 0)
(0.00128831 -0.0694359 0)
(-0.00174474 -0.057693 0)
(-0.00352874 -0.0698056 0)
(-0.00360649 -0.0802513 0)
(0.0027434 -0.0891755 0)
(0.0107581 -0.0874442 0)
(0.0179436 -0.068454 0)
(0.0211477 -0.0420762 0)
(0.026122 -0.0293549 0)
(0.0276832 -0.0130556 0)
(0.0202111 -0.0059839 0)
(0.00865761 -0.0112852 0)
(0.00337819 -0.0202793 0)
(0.00342928 -0.0354621 0)
(0.00393593 -0.0569429 0)
(0.00494176 -0.0708677 0)
(0.00764246 -0.0706153 0)
(0.0114656 -0.0582984 0)
(0.013103 -0.0376324 0)
(0.0128161 -0.0228439 0)
(0.00703628 -0.0107261 0)
(-0.00452273 -0.00415561 0)
(-0.0155386 -0.00914609 0)
(-0.0215802 -0.0264645 0)
(-0.0199847 -0.0527287 0)
(-0.0158387 -0.083326 0)
(-0.0120316 -0.0988032 0)
(-0.00917197 -0.0993062 0)
(-0.00149118 -0.0894108 0)
(0.000713935 -0.076031 0)
(0.000934166 -0.0616021 0)
(-0.00202036 -0.052551 0)
(0.000296405 -0.0611913 0)
(0.0013635 -0.0743074 0)
(0.00670435 -0.0866047 0)
(0.0100118 -0.0857194 0)
(0.0139373 -0.070149 0)
(0.0128783 -0.0401676 0)
(0.0151394 -0.0232616 0)
(0.019844 -0.00919726 0)
(0.0192113 0.00155219 0)
(0.0063603 0.00348581 0)
(0.00207477 -0.0104472 0)
(0.00723914 -0.0323569 0)
(0.0100585 -0.0546794 0)
(0.00984108 -0.0683041 0)
(0.00853224 -0.0683689 0)
(0.0108992 -0.0563558 0)
(0.0121357 -0.0321057 0)
(0.0149213 -0.0161522 0)
(0.0140886 0.00243141 0)
(0.00446114 0.0112712 0)
(-0.00706069 -0.00164769 0)
(-0.00761133 -0.0241698 0)
(-0.00548516 -0.0518178 0)
(-0.00683517 -0.0803484 0)
(-0.0117066 -0.096059 0)
(-0.0137111 -0.0964889 0)
(-0.00793295 -0.0849141 0)
(-0.0031294 -0.0696875 0)
(0.0015423 -0.0585898 0)
(0.00150586 -0.0482831 0)
(0.00743979 -0.0541179 0)
(0.0108732 -0.0659034 0)
(0.0124877 -0.080584 0)
(0.0100894 -0.0811646 0)
(0.00857333 -0.0634836 0)
(0.00548694 -0.0343442 0)
(0.00872177 -0.0191611 0)
(0.0133938 -0.00408393 0)
(0.0185508 0.0106415 0)
(0.0120994 0.0108538 0)
(0.0117409 -0.00233911 0)
(0.0140233 -0.0267375 0)
(0.0131218 -0.0509651 0)
(0.012198 -0.0677294 0)
(0.00840558 -0.0678476 0)
(0.00917427 -0.0533068 0)
(0.00883658 -0.0270857 0)
(0.0176414 -0.00624706 0)
(0.016987 0.0141387 0)
(0.00858094 0.0189169 0)
(0.00661878 0.00537255 0)
(0.00633907 -0.0225963 0)
(0.00973118 -0.0486398 0)
(0.00612806 -0.072614 0)
(-0.0067504 -0.0896272 0)
(-0.0160753 -0.0908598 0)
(-0.0135958 -0.0778987 0)
(-0.00794877 -0.062121 0)
(-0.000742533 -0.0523395 0)
(0.00276926 -0.0464677 0)
(0.0105997 -0.052852 0)
(0.0176687 -0.0648532 0)
(0.0210747 -0.0780181 0)
(0.00890306 -0.078298 0)
(0.00240641 -0.0557818 0)
(0.00114453 -0.0303893 0)
(0.00651065 -0.0164247 0)
(0.00811206 -0.000835697 0)
(0.0159436 0.0197251 0)
(0.0136974 0.0205974 0)
(0.0109732 0.00450446 0)
(0.0166422 -0.0265612 0)
(0.0219107 -0.0508275 0)
(0.0166907 -0.064292 0)
(0.00769261 -0.0652857 0)
(0.00739286 -0.0506056 0)
(0.00882835 -0.0256006 0)
(0.0205588 0.00204333 0)
(0.0154433 0.0162347 0)
(0.0151412 0.020843 0)
(0.0206222 0.00576317 0)
(0.0184438 -0.0174491 0)
(0.0224571 -0.041386 0)
(0.0179202 -0.0632946 0)
(0.00168456 -0.0832244 0)
(-0.0153691 -0.0885524 0)
(-0.0159838 -0.0753071 0)
(-0.0105851 -0.060621 0)
(-0.00255079 -0.0498883 0)
(0.00451749 -0.0474598 0)
(0.010916 -0.0554888 0)
(0.0184768 -0.0666581 0)
(0.0231962 -0.0781562 0)
(0.0097605 -0.0762747 0)
(-0.0041666 -0.0582318 0)
(-0.00228484 -0.0364728 0)
(0.00122585 -0.0175982 0)
(0.00624263 -0.000837667 0)
(0.0131538 0.0200009 0)
(0.0160081 0.0218325 0)
(0.0104652 0.00447357 0)
(0.0147311 -0.0278712 0)
(0.0207888 -0.0509734 0)
(0.0184036 -0.0616584 0)
(0.00986756 -0.0591828 0)
(0.00674252 -0.0449408 0)
(0.00908171 -0.0240751 0)
(0.0213588 0.00309092 0)
(0.0165586 0.0187203 0)
(0.0161815 0.0220294 0)
(0.0232349 0.00525552 0)
(0.024009 -0.0184228 0)
(0.0244861 -0.0403483 0)
(0.0224078 -0.0590831 0)
(0.00819397 -0.0779862 0)
(-0.0104479 -0.0863044 0)
(-0.013176 -0.0756052 0)
(-0.00899644 -0.0635742 0)
(-0.00370684 -0.0518004 0)
(0.00444934 -0.0504454 0)
(0.00823637 -0.0596846 0)
(0.0151606 -0.0707665 0)
(0.0179149 -0.0812342 0)
(0.00522868 -0.0723735 0)
(-0.00665379 -0.0590332 0)
(-0.00615341 -0.0362924 0)
(0.000355975 -0.0147322 0)
(0.00377049 0.00249239 0)
(0.00969448 0.0253719 0)
(0.01182 0.0276108 0)
(0.00830871 0.00540662 0)
(0.0114242 -0.0250209 0)
(0.0189234 -0.0479693 0)
(0.016364 -0.0569809 0)
(0.00848977 -0.055749 0)
(0.00743634 -0.0462813 0)
(0.0163467 -0.0285353 0)
(0.0237934 0.00507803 0)
(0.0170328 0.0244484 0)
(0.0182484 0.0260599 0)
(0.0288797 0.00655145 0)
(0.0296419 -0.017152 0)
(0.0275358 -0.0410256 0)
(0.0272112 -0.0594652 0)
(0.0102886 -0.0738 0)
(-0.00474999 -0.0823446 0)
(-0.0089284 -0.0770547 0)
(-0.00555332 -0.0673631 0)
(-0.00300026 -0.0546427 0)
(0.00327019 -0.0518997 0)
(0.00514954 -0.0618366 0)
(0.0102843 -0.0715166 0)
(0.00954594 -0.0791387 0)
(-6.43468e-05 -0.0681485 0)
(-0.00763515 -0.0575913 0)
(-0.00329343 -0.0399771 0)
(0.000514184 -0.0180051 0)
(0.00101511 -0.00154492 0)
(0.00666227 0.0220718 0)
(0.0151916 0.0260783 0)
(0.014564 0.00446735 0)
(0.0140702 -0.0269396 0)
(0.0225371 -0.0462581 0)
(0.0176805 -0.0541159 0)
(0.00638683 -0.052922 0)
(0.0025906 -0.047097 0)
(0.0120302 -0.0338001 0)
(0.0165969 0.00441881 0)
(0.015609 0.0283926 0)
(0.0189139 0.0281444 0)
(0.0279247 0.00801294 0)
(0.031608 -0.0171907 0)
(0.0293945 -0.0381437 0)
(0.0289479 -0.0554819 0)
(0.0131128 -0.0700052 0)
(-5.99717e-05 -0.0748997 0)
(-0.00445514 -0.0746031 0)
(-0.00253366 -0.0679341 0)
(-0.0011189 -0.0536202 0)
(0.00238888 -0.0501992 0)
(0.00353516 -0.0615504 0)
(0.0067989 -0.067374 0)
(0.00290221 -0.0735466 0)
(-0.00785084 -0.0616659 0)
(-0.00875518 -0.054738 0)
(-0.00329269 -0.0398456 0)
(-0.00374875 -0.0199524 0)
(-0.00299786 -0.00197686 0)
(0.0033364 0.020496 0)
(0.0156563 0.0236091 0)
(0.0216696 -0.000294962 0)
(0.0226822 -0.0293398 0)
(0.0290941 -0.0431403 0)
(0.0236883 -0.0515369 0)
(0.0127907 -0.0517108 0)
(0.00349285 -0.0482444 0)
(0.00656616 -0.0409366 0)
(0.00691924 0.00601598 0)
(0.0117085 0.0334897 0)
(0.0144022 0.0350525 0)
(0.0195116 0.0138365 0)
(0.024633 -0.0151225 0)
(0.0231171 -0.0342435 0)
(0.0274663 -0.0510039 0)
(0.0159825 -0.0645601 0)
(0.00679676 -0.0698415 0)
(0.00146637 -0.0685027 0)
(0.000988461 -0.0648106 0)
(5.97128e-05 -0.0500606 0)
(0.00107537 -0.0465749 0)
(0.00145436 -0.0584386 0)
(0.0062259 -0.0623846 0)
(0.00513007 -0.0697609 0)
(-0.00501388 -0.0586971 0)
(-0.00600335 -0.0511406 0)
(-0.010241 -0.0364007 0)
(-0.0107536 -0.0182956 0)
(-0.00659472 0.000884539 0)
(0.0014967 0.0188705 0)
(0.0172929 0.0203909 0)
(0.0287739 -0.00514826 0)
(0.0254393 -0.0342324 0)
(0.0300174 -0.047321 0)
(0.0338501 -0.0516179 0)
(0.0246003 -0.0528295 0)
(0.0171196 -0.0516804 0)
(0.00865116 -0.0459007 0)
(0.00319327 -0.00012696 0)
(0.0102045 0.0331195 0)
(0.00946846 0.0399728 0)
(0.013585 0.0207826 0)
(0.0135864 -0.00827701 0)
(0.0125387 -0.0285355 0)
(0.0220262 -0.0475589 0)
(0.0172774 -0.0585296 0)
(0.0129901 -0.0580488 0)
(0.0053447 -0.0618386 0)
(0.00387745 -0.057526 0)
(0.00117048 -0.0431901 0)
(9.89657e-05 -0.0420171 0)
(0.000338263 -0.0532416 0)
(0.0048488 -0.0599602 0)
(0.00337981 -0.065287 0)
(-0.00593261 -0.0566187 0)
(-0.00300193 -0.051669 0)
(-0.00896932 -0.0387146 0)
(-0.0184239 -0.0161394 0)
(-0.0113135 0.00737972 0)
(-0.000142984 0.0228361 0)
(0.0167402 0.0240019 0)
(0.0323299 0.00374712 0)
(0.0436702 -0.0336148 0)
(0.0321029 -0.0408282 0)
(0.0380391 -0.0442559 0)
(0.0338891 -0.0500705 0)
(0.0332685 -0.0500291 0)
(0.016185 -0.0477074 0)
(0.0058826 -0.00380182 0)
(0.0077021 0.0391695 0)
(0.0105607 0.0463454 0)
(0.0164394 0.0240417 0)
(0.0124908 -0.00372024 0)
(0.0136729 -0.0260645 0)
(0.0147485 -0.0513862 0)
(0.0100201 -0.0565992 0)
(0.00636748 -0.0486087 0)
(0.00278704 -0.0494359 0)
(0.000607953 -0.0508396 0)
(-0.000483008 -0.0351774 0)
(0.00099405 -0.0427947 0)
(0.00390389 -0.0545752 0)
(0.00931415 -0.056135 0)
(0.00453383 -0.0557358 0)
(-0.00859985 -0.0545767 0)
(-0.00893014 -0.0571145 0)
(-0.0156486 -0.0414326 0)
(-0.0199362 -0.0184183 0)
(-0.0140633 0.0120013 0)
(-0.00317104 0.0252353 0)
(0.0160106 0.0225382 0)
(0.0345297 0.0055495 0)
(0.0506378 -0.0251474 0)
(0.046058 -0.0407858 0)
(0.0462833 -0.0466507 0)
(0.0432999 -0.046082 0)
(0.0459261 -0.0466978 0)
(0.0276505 -0.0462345 0)
(0.00654668 0.000387958 0)
(0.0102559 0.0353718 0)
(0.0152399 0.0426555 0)
(0.0220797 0.0230478 0)
(0.0215961 -0.00264633 0)
(0.01946 -0.0273649 0)
(0.00993639 -0.0491489 0)
(0.00114206 -0.0472778 0)
(-0.00606338 -0.0372342 0)
(-0.00570941 -0.0385397 0)
(-0.00473419 -0.0459897 0)
(-0.0045234 -0.0305919 0)
(0.00168086 -0.0389106 0)
(0.00679759 -0.0649847 0)
(0.00656681 -0.0603938 0)
(0.00520497 -0.0485508 0)
(-0.00828722 -0.0508391 0)
(-0.0109068 -0.0595769 0)
(-0.0203011 -0.0531688 0)
(-0.0241505 -0.0262004 0)
(-0.0172139 0.00304055 0)
(-0.0064896 0.014286 0)
(0.0144943 0.0102648 0)
(0.0354366 -0.00673765 0)
(0.0501291 -0.0359166 0)
(0.0572966 -0.0526093 0)
(0.0576816 -0.0589925 0)
(0.0508526 -0.05004 0)
(0.0494576 -0.0496745 0)
(0.0346423 -0.0370853 0)
(0.0096654 5.65387e-05 0)
(0.0186439 0.0254347 0)
(0.0235512 0.0276932 0)
(0.0336404 0.0145849 0)
(0.0307106 -0.0145154 0)
(0.0192115 -0.0409911 0)
(0.0011917 -0.0494475 0)
(-0.00906448 -0.0390984 0)
(-0.0162487 -0.0348016 0)
(-0.0118895 -0.0418757 0)
(-0.00992586 -0.0445823 0)
(-0.00894076 -0.0290688 0)
(0.00211293 -0.0298673 0)
(0.00983985 -0.0592359 0)
(0.00426931 -0.0713101 0)
(-0.00306378 -0.0623015 0)
(-0.015265 -0.0625181 0)
(-0.0234897 -0.0731493 0)
(-0.033594 -0.0702492 0)
(-0.0325255 -0.0485472 0)
(-0.018927 -0.0236451 0)
(-0.0046135 -0.0160281 0)
(0.0159228 -0.0222781 0)
(0.0329621 -0.0381319 0)
(0.050366 -0.0686692 0)
(0.0564537 -0.0790234 0)
(0.0588691 -0.0744959 0)
(0.0543304 -0.0606343 0)
(0.0477722 -0.0483762 0)
(0.0353597 -0.0312326 0)
(0.01891 -0.00104139 0)
(0.0294732 0.0196035 0)
(0.0318597 0.020625 0)
(0.0401749 0.00380108 0)
(0.0316494 -0.036234 0)
(0.0171548 -0.056157 0)
(0.00292388 -0.0575474 0)
(-0.00883964 -0.0492782 0)
(-0.0159874 -0.0495811 0)
(-0.0160723 -0.0582919 0)
(-0.016902 -0.0535703 0)
(-0.0149591 -0.0383104 0)
(0.00699877 -0.0322189 0)
(0.00875157 -0.0636336 0)
(-0.00276977 -0.0835786 0)
(-0.0130274 -0.0820149 0)
(-0.021414 -0.0805642 0)
(-0.0280541 -0.0776591 0)
(-0.037184 -0.0791524 0)
(-0.0369329 -0.0806924 0)
(-0.0214957 -0.0621502 0)
(-0.00481117 -0.050793 0)
(0.0134582 -0.0521283 0)
(0.0307482 -0.0698113 0)
(0.0411625 -0.095595 0)
(0.0441206 -0.103147 0)
(0.0482018 -0.0892834 0)
(0.0462938 -0.0728237 0)
(0.0394383 -0.0456919 0)
(0.0312556 -0.0264792 0)
(0.0210388 -0.00774394 0)
(0.0280847 0.0125376 0)
(0.0366992 0.00477223 0)
(0.0304226 -0.0147428 0)
(0.0290035 -0.0332466 0)
(0.0165337 -0.0515539 0)
(0.00443906 -0.0576577 0)
(-0.00430197 -0.0668732 0)
(-0.00770004 -0.0765728 0)
(-0.0119325 -0.0822889 0)
(-0.0186648 -0.075333 0)
(-0.0154479 -0.0611926 0)
(0.0117146 -0.0746047 0)
(0.00336014 -0.0954302 0)
(-0.0144933 -0.088755 0)
(-0.0227873 -0.0703422 0)
(-0.0260165 -0.0650038 0)
(-0.028476 -0.0598063 0)
(-0.0299272 -0.0726408 0)
(-0.0317983 -0.0925262 0)
(-0.0297805 -0.0938902 0)
(-0.0139039 -0.0750168 0)
(0.00459214 -0.0664882 0)
(0.020425 -0.0790684 0)
(0.0302692 -0.105076 0)
(0.0365671 -0.110621 0)
(0.0443078 -0.0961749 0)
(0.0403748 -0.0786935 0)
(0.0313805 -0.0420639 0)
(0.0261797 -0.017994 0)
(0.0222426 -0.00526857 0)
(0.0266008 0.00453424 0)
(0.0270291 -0.00302026 0)
(0.0219227 -0.0141751 0)
(0.0205643 -0.0275681 0)
(0.0107243 -0.0473673 0)
(0.00578667 -0.0584549 0)
(0.00387432 -0.0682648 0)
(0.0028215 -0.0802799 0)
(-0.000132057 -0.0935018 0)
(-0.00683658 -0.104641 0)
(-0.0119502 -0.0952751 0)
(0.00332903 -0.0947153 0)
(-0.00524082 -0.0979897 0)
(-0.0122585 -0.0806453 0)
(-0.0161252 -0.0633008 0)
(-0.0196037 -0.055676 0)
(-0.0190628 -0.0536836 0)
(-0.0184827 -0.0664678 0)
(-0.0220504 -0.0843243 0)
(-0.0278086 -0.093496 0)
(-0.0281965 -0.0916104 0)
(-0.00677724 -0.0806297 0)
(0.0115733 -0.084792 0)
(0.0242166 -0.104767 0)
(0.0318069 -0.105004 0)
(0.0366938 -0.0914765 0)
(0.0310017 -0.0682449 0)
(0.0234853 -0.0403008 0)
(0.0226651 -0.012677 0)
(0.0247237 -0.00436465 0)
(0.0239501 -0.00574202 0)
(0.0211446 -0.00559399 0)
(0.017024 -0.0127747 0)
(0.0148466 -0.0229508 0)
(0.00927518 -0.0434176 0)
(0.00602488 -0.0600372 0)
(0.00735829 -0.0670054 0)
(0.00666854 -0.0776041 0)
(0.00557713 -0.0910439 0)
(0.00350862 -0.106081 0)
(-0.00506219 -0.109145 0)
(-0.00127652 -0.090861 0)
(-0.00880456 -0.089 0)
(-0.0115483 -0.0728823 0)
(-0.0147014 -0.0565864 0)
(-0.013045 -0.0518576 0)
(-0.0094198 -0.0531069 0)
(-0.00767945 -0.0618837 0)
(-0.00987832 -0.0764027 0)
(-0.0165074 -0.0861726 0)
(-0.0228231 -0.0873248 0)
(-0.0158781 -0.0816445 0)
(0.00428402 -0.0840037 0)
(0.0149377 -0.0989725 0)
(0.020671 -0.0983246 0)
(0.0253718 -0.0842424 0)
(0.0227659 -0.05519 0)
(0.015547 -0.0320244 0)
(0.0211608 -0.0118679 0)
(0.0295024 -0.00328658 0)
(0.0244484 -0.00917015 0)
(0.0166924 -0.00728548 0)
(0.0113009 -0.0133182 0)
(0.00880355 -0.0216543 0)
(0.00533095 -0.0441252 0)
(0.000185583 -0.0621901 0)
(0.00548889 -0.0634896 0)
(0.00967114 -0.070638 0)
(0.00820247 -0.084617 0)
(0.00583425 -0.0968415 0)
(0.000525846 -0.103086 0)
(-0.000339786 -0.0793914 0)
(-0.00653076 -0.0784679 0)
(-0.0120768 -0.064248 0)
(-0.0104177 -0.0525097 0)
(-0.00259039 -0.0516618 0)
(0.00242459 -0.0552904 0)
(0.00401568 -0.0599376 0)
(-0.00131819 -0.0712455 0)
(-0.00846512 -0.079419 0)
(-0.0128414 -0.0831749 0)
(-0.0178707 -0.0868944 0)
(-0.012332 -0.0887473 0)
(0.000610453 -0.093527 0)
(0.00946845 -0.0891087 0)
(0.0140261 -0.0722993 0)
(0.00908929 -0.047841 0)
(0.00693332 -0.0249147 0)
(0.0182546 -0.00984422 0)
(0.0300288 -0.00410676 0)
(0.0279043 -0.00796473 0)
(0.0175687 -0.00807218 0)
(0.0097686 -0.0115581 0)
(0.00714531 -0.0206115 0)
(0.00450559 -0.0385842 0)
(0.000617338 -0.058705 0)
(1.34353e-05 -0.0648255 0)
(0.00762105 -0.0667955 0)
(0.00970446 -0.0767006 0)
(0.00337003 -0.0887159 0)
(0.0020915 -0.09266 0)
(-0.00246399 -0.0728248 0)
(-0.0077516 -0.065291 0)
(-0.00937622 -0.0559486 0)
(1.01415e-05 -0.0533603 0)
(0.00914345 -0.0561292 0)
(0.0114286 -0.0569221 0)
(0.0130585 -0.0602266 0)
(0.0105891 -0.0637613 0)
(6.52061e-05 -0.0749236 0)
(-0.00742297 -0.0779175 0)
(-0.0132199 -0.0790525 0)
(-0.0167568 -0.0830285 0)
(-0.0107946 -0.0891829 0)
(-0.00035241 -0.0834218 0)
(0.00116048 -0.0601422 0)
(-0.00230346 -0.0421979 0)
(0.00245731 -0.0208306 0)
(0.0158391 -0.00906919 0)
(0.028675 -0.00520221 0)
(0.0308871 -0.00778799 0)
(0.0234331 -0.00982943 0)
(0.012178 -0.0128172 0)
(0.0103159 -0.0193851 0)
(0.00521877 -0.0321625 0)
(0.00187107 -0.0484948 0)
(-0.00523922 -0.0642028 0)
(0.000411203 -0.0653145 0)
(0.00889245 -0.0696103 0)
(0.0050979 -0.0759894 0)
(0.00297401 -0.0816288 0)
(-0.0100545 -0.0633842 0)
(-0.00320156 -0.0560238 0)
(0.00034528 -0.0566009 0)
(0.0146021 -0.0594894 0)
(0.0201313 -0.0586902 0)
(0.0204747 -0.0581398 0)
(0.0187105 -0.0612169 0)
(0.0185704 -0.0550282 0)
(0.00676206 -0.0688893 0)
(-0.00198223 -0.0761351 0)
(-0.0110916 -0.0752831 0)
(-0.0161583 -0.0778706 0)
(-0.0164043 -0.0831081 0)
(-0.0111501 -0.0777444 0)
(-0.00773941 -0.0580953 0)
(-0.00706185 -0.0443216 0)
(0.00206235 -0.0192345 0)
(0.0151152 -0.0091588 0)
(0.0278356 -0.00693217 0)
(0.0315103 -0.00866978 0)
(0.0298494 -0.0109344 0)
(0.02154 -0.0102459 0)
(0.0149636 -0.0156191 0)
(0.00307674 -0.0251249 0)
(0.00456693 -0.0335111 0)
(-0.000622625 -0.0539084 0)
(-0.00653514 -0.0673653 0)
(0.00169549 -0.0695406 0)
(0.00269012 -0.0663965 0)
(0.0063745 -0.0694526 0)
(-0.0132612 -0.0476457 0)
(-0.0051691 -0.0481807 0)
(0.00486284 -0.0598055 0)
(0.0171335 -0.0597672 0)
(0.0215097 -0.0555909 0)
(0.0210275 -0.0543224 0)
(0.0198211 -0.0584372 0)
(0.0212067 -0.0515921 0)
(0.0125738 -0.05853 0)
(0.000187754 -0.0710463 0)
(-0.0106597 -0.0715295 0)
(-0.0176024 -0.0733551 0)
(-0.0182043 -0.0756858 0)
(-0.0177246 -0.0765492 0)
(-0.0125303 -0.0592768 0)
(-0.0116571 -0.0486127 0)
(0.00157443 -0.0191935 0)
(0.0145954 -0.0114831 0)
(0.02568 -0.0107146 0)
(0.0311309 -0.00860055 0)
(0.0305779 -0.00886006 0)
(0.0299178 -0.00839123 0)
(0.0203877 -0.0115675 0)
(0.0014016 -0.0176883 0)
(0.00392121 -0.02468 0)
(0.00204785 -0.0389674 0)
(-0.00457499 -0.0585575 0)
(-0.00402992 -0.0695419 0)
(-0.00139664 -0.0635656 0)
(0.00630063 -0.0559616 0)
(-0.0045548 -0.0300686 0)
(-0.000134215 -0.0458951 0)
(0.00534326 -0.05605 0)
(0.0132055 -0.0583608 0)
(0.015726 -0.0506027 0)
(0.0142091 -0.0486582 0)
(0.0139044 -0.0547841 0)
(0.0142853 -0.054785 0)
(0.0116936 -0.0540561 0)
(0.0014439 -0.0678719 0)
(-0.0111688 -0.0684972 0)
(-0.0195524 -0.0713739 0)
(-0.0208716 -0.0713658 0)
(-0.0212672 -0.0743465 0)
(-0.0180323 -0.0579781 0)
(-0.0111026 -0.050339 0)
(0.000873946 -0.0212743 0)
(0.0132979 -0.0163229 0)
(0.022614 -0.0142302 0)
(0.0272781 -0.00932128 0)
(0.0279373 -0.00631353 0)
(0.0286811 -0.00526292 0)
(0.0255727 -0.00855605 0)
(0.00515998 -0.0127221 0)
(0.00317598 -0.0203961 0)
(0.00202353 -0.0315751 0)
(-0.00446845 -0.0525134 0)
(-0.0049047 -0.0678223 0)
(-0.00593656 -0.0680779 0)
(-0.00178532 -0.0490943 0)
(0.00354246 -0.0303776 0)
(0.00378417 -0.0455419 0)
(0.00634763 -0.0516495 0)
(0.00956895 -0.0514427 0)
(0.0106589 -0.0446073 0)
(0.0101384 -0.0439327 0)
(0.00888091 -0.0499471 0)
(0.00546235 -0.0536071 0)
(0.00312385 -0.0500372 0)
(-0.00381733 -0.0648784 0)
(-0.0133271 -0.0670327 0)
(-0.0220646 -0.0688469 0)
(-0.0243802 -0.0698671 0)
(-0.0231762 -0.074351 0)
(-0.0221689 -0.0633862 0)
(-0.0112092 -0.0513916 0)
(-0.00135363 -0.0265762 0)
(0.010379 -0.0224239 0)
(0.0172926 -0.0186272 0)
(0.0207085 -0.0116727 0)
(0.0239894 -0.00519925 0)
(0.0231161 -0.00296626 0)
(0.0256053 -0.00614443 0)
(0.00712587 -0.0125914 0)
(0.00274109 -0.018687 0)
(0.00119248 -0.0285129 0)
(-0.00385995 -0.0468773 0)
(-0.00719118 -0.0676532 0)
(-0.00847771 -0.0727604 0)
(-0.00749889 -0.0586875 0)
(0.00836678 -0.0357322 0)
(0.00708144 -0.0500822 0)
(0.0058566 -0.0528004 0)
(0.00730588 -0.0487574 0)
(0.00958673 -0.0427084 0)
(0.0095752 -0.0416433 0)
(0.00740552 -0.0436249 0)
(-0.00150631 -0.0522408 0)
(-0.00708926 -0.0530674 0)
(-0.0110987 -0.0664774 0)
(-0.0163795 -0.0755016 0)
(-0.0255556 -0.0701469 0)
(-0.0282137 -0.0706552 0)
(-0.0274357 -0.0770519 0)
(-0.0277572 -0.0724316 0)
(-0.0177152 -0.0525095 0)
(-0.00649199 -0.0310483 0)
(0.00463535 -0.0293517 0)
(0.0112495 -0.0237858 0)
(0.0131204 -0.0169202 0)
(0.0156214 -0.0159456 0)
(0.0170545 -0.00421873 0)
(0.0187101 -0.00311036 0)
(0.00884155 -0.0085616 0)
(0.00213892 -0.0179172 0)
(-0.000892001 -0.0278512 0)
(-0.00588259 -0.0471132 0)
(-0.0112354 -0.0691782 0)
(-0.0100259 -0.0786867 0)
(-0.0102789 -0.0659519 0)
(0.010525 -0.0479089 0)
(0.00909265 -0.0568122 0)
(0.00668194 -0.0540949 0)
(0.00750945 -0.0475812 0)
(0.00756492 -0.0419564 0)
(0.00764027 -0.0408829 0)
(0.0030915 -0.0433262 0)
(-0.00553902 -0.0499662 0)
(-0.0140305 -0.0568913 0)
(-0.0182182 -0.0678776 0)
(-0.0186578 -0.083158 0)
(-0.0273492 -0.084817 0)
(-0.0323818 -0.0746813 0)
(-0.0311467 -0.0798103 0)
(-0.0326174 -0.0780781 0)
(-0.0281666 -0.0601636 0)
(-0.01336 -0.0410032 0)
(-0.000112411 -0.0392465 0)
(0.00737133 -0.0377959 0)
(0.00714068 -0.0396018 0)
(0.0073065 -0.0190514 0)
(0.0123647 0.000420889 0)
(0.0139982 0.00341787 0)
(0.0154275 -0.00245255 0)
(0.00533818 -0.0127757 0)
(-0.00128689 -0.0261201 0)
(-0.00715879 -0.0464199 0)
(-0.0122492 -0.0700372 0)
(-0.0110112 -0.0830689 0)
(-0.0115015 -0.0751504 0)
(0.0105574 -0.0581442 0)
(0.00936274 -0.0592663 0)
(0.00671442 -0.0525071 0)
(0.00582048 -0.0457019 0)
(0.00475076 -0.0416967 0)
(0.0051635 -0.0388345 0)
(-0.00147985 -0.0379715 0)
(-0.0118287 -0.0450292 0)
(-0.0217869 -0.056227 0)
(-0.0244013 -0.0697229 0)
(-0.0219972 -0.0868605 0)
(-0.0269769 -0.0927794 0)
(-0.0353173 -0.0903143 0)
(-0.036173 -0.083098 0)
(-0.0364711 -0.0802886 0)
(-0.031248 -0.0677478 0)
(-0.0207514 -0.0555478 0)
(-0.00421142 -0.0598597 0)
(-0.000467786 -0.0684463 0)
(-0.00211583 -0.0498451 0)
(0.00240416 -0.01754 0)
(0.00854729 0.00836431 0)
(0.0113897 0.0154285 0)
(0.0160533 0.0068707 0)
(0.0168006 -0.00426392 0)
(0.0030108 -0.0195525 0)
(-0.00681674 -0.0449039 0)
(-0.0107376 -0.0704948 0)
(-0.0108497 -0.087156 0)
(-0.0120446 -0.0830921 0)
(0.01097 -0.0654242 0)
(0.00975761 -0.0608988 0)
(0.00694325 -0.0537324 0)
(0.00387194 -0.0448898 0)
(-0.000322979 -0.0412116 0)
(-0.00255657 -0.0336513 0)
(-0.00810484 -0.0288638 0)
(-0.0177006 -0.0369313 0)
(-0.0254962 -0.0538952 0)
(-0.0286385 -0.0681206 0)
(-0.0239139 -0.0891398 0)
(-0.027377 -0.0938767 0)
(-0.034967 -0.093758 0)
(-0.0391021 -0.0890059 0)
(-0.0390476 -0.0832689 0)
(-0.033013 -0.0727599 0)
(-0.0222387 -0.0708514 0)
(-0.0161214 -0.110112 0)
(-0.0163515 -0.0922345 0)
(-0.0114297 -0.0554746 0)
(-0.00510917 -0.0178755 0)
(0.00420638 0.0138904 0)
(0.00716366 0.0243198 0)
(0.0151576 0.0180485 0)
(0.0215841 0.00340999 0)
(0.0152406 -0.0101773 0)
(-0.000616847 -0.0403181 0)
(-0.0101984 -0.0727431 0)
(-0.0106572 -0.0903549 0)
(-0.0112252 -0.0903668 0)
(0.0134249 -0.0745686 0)
(0.00963835 -0.0660995 0)
(0.00791376 -0.0551947 0)
(0.00524258 -0.0429683 0)
(-0.00665233 -0.0383265 0)
(-0.0134462 -0.030453 0)
(-0.0154943 -0.0274041 0)
(-0.0190444 -0.0385008 0)
(-0.0318494 -0.0606112 0)
(-0.0329647 -0.0706073 0)
(-0.0255618 -0.0919163 0)
(-0.0281645 -0.0953511 0)
(-0.0351403 -0.0953974 0)
(-0.0399304 -0.0912183 0)
(-0.0410684 -0.0866425 0)
(-0.0348088 -0.0799356 0)
(-0.0258221 -0.0956465 0)
(-0.026275 -0.129927 0)
(-0.0308455 -0.106139 0)
(-0.0230091 -0.0649222 0)
(-0.0158612 -0.0204279 0)
(-0.00492963 0.0155187 0)
(0.00121851 0.0305279 0)
(0.0139091 0.0266759 0)
(0.0224341 0.0156977 0)
(0.0203264 -0.00528161 0)
(0.0137226 -0.0316049 0)
(-0.00912926 -0.0685395 0)
(-0.0116707 -0.0885246 0)
(-0.0107705 -0.0964421 0)
(0.0129619 -0.0858102 0)
(0.00821016 -0.0714004 0)
(0.00748325 -0.0543024 0)
(0.00201155 -0.0350313 0)
(-0.0152374 -0.0275994 0)
(-0.016466 -0.0227931 0)
(-0.0156147 -0.0409299 0)
(-0.018517 -0.0746392 0)
(-0.0332372 -0.1008 0)
(-0.037088 -0.0976556 0)
(-0.0320751 -0.100049 0)
(-0.0278373 -0.0958767 0)
(-0.0340883 -0.0954417 0)
(-0.0395341 -0.0919875 0)
(-0.0416026 -0.0880366 0)
(-0.0365169 -0.0840534 0)
(-0.0276915 -0.112253 0)
(-0.0351519 -0.148215 0)
(-0.0423871 -0.112016 0)
(-0.0329813 -0.0784723 0)
(-0.0261289 -0.0266328 0)
(-0.0142681 0.0117365 0)
(-0.00297832 0.0292596 0)
(0.0145731 0.036606 0)
(0.0240168 0.031019 0)
(0.020916 0.00245058 0)
(0.0051353 -0.0385464 0)
(-0.0109001 -0.0671384 0)
(-0.0113438 -0.0871203 0)
(-0.010205 -0.0987556 0)
(0.00674669 -0.101578 0)
(0.00689595 -0.0755305 0)
(0.00212798 -0.0507936 0)
(-0.00505994 -0.0248064 0)
(-0.013613 -0.0201644 0)
(-0.0109884 -0.0361521 0)
(-0.0221801 -0.063761 0)
(-0.016813 -0.107757 0)
(-0.0199692 -0.135276 0)
(-0.0309007 -0.129175 0)
(-0.0313815 -0.109465 0)
(-0.0251375 -0.0942269 0)
(-0.0311182 -0.0921509 0)
(-0.0374168 -0.0891821 0)
(-0.0406905 -0.0854123 0)
(-0.0377208 -0.0842646 0)
(-0.0293907 -0.118165 0)
(-0.0420743 -0.156737 0)
(-0.0484896 -0.110326 0)
(-0.039511 -0.0798132 0)
(-0.0331316 -0.0280473 0)
(-0.0183792 0.0096804 0)
(-0.00698885 0.0297053 0)
(0.0122 0.0397086 0)
(0.0225993 0.0346042 0)
(0.015226 0.0011119 0)
(-0.00513499 -0.0448956 0)
(-0.0103384 -0.066019 0)
(-0.011201 -0.0911324 0)
(-0.0102092 -0.105677 0)
(-0.000766043 -0.109426 0)
(0.000127629 -0.0784561 0)
(-0.0108426 -0.0424952 0)
(-0.0209064 -0.027733 0)
(-0.0193334 -0.0432516 0)
(-0.014194 -0.074195 0)
(-0.0120764 -0.116181 0)
(-0.00624411 -0.154895 0)
(-0.00214105 -0.175718 0)
(-0.0123647 -0.156005 0)
(-0.0221485 -0.109698 0)
(-0.0187964 -0.0882143 0)
(-0.0243491 -0.0859264 0)
(-0.0318276 -0.0839498 0)
(-0.0362903 -0.081855 0)
(-0.0362445 -0.082828 0)
(-0.0268125 -0.1247 0)
(-0.0461925 -0.161879 0)
(-0.0562691 -0.111013 0)
(-0.0494937 -0.0804127 0)
(-0.0380732 -0.0333485 0)
(-0.0227887 0.0107843 0)
(-0.0102679 0.0310179 0)
(0.00983609 0.0395845 0)
(0.0253863 0.0375989 0)
(0.0218165 0.0107914 0)
(0.00156563 -0.0363035 0)
(-0.00582011 -0.0647669 0)