/*--------------------------------*- C++ -*----------------------------------*\
| =========                 |                                                 |
| \\      /  F ield         | OpenFOAM: The Open Source CFD Toolbox           |
|  \\    /   O peration     | Version:  v1606+                                |
|   \\  /    A nd           | Web:      www.OpenFOAM.com                      |
|    \\/     M anipulation  |                                                 |
\*---------------------------------------------------------------------------*/
FoamFile
{
    version     2.0;
    format      ascii;
    class       volScalarField;
    location    "0.51";
    object      pMean;
}
// * * * * * * * * * * * * * * * * * * * * * * * * * * * * * * * * * * * * * //

dimensions      [1 -1 -2 0 0 0 0];

internalField   nonuniform List<scalar> 
6000
(
108922
108922
108922
108922
108922
108921
108920
108920
108919
108918
108917
108917
108916
108916
108916
108916
108916
108916
108917
108918
108918
108919
108920
108921
108921
108922
108922
108923
108923
108922
108853
108853
108853
108853
108853
108853
108852
108851
108851
108850
108849
108848
108847
108847
108847
108847
108847
108848
108848
108849
108850
108851
108852
108852
108853
108853
108853
108854
108854
108853
108805
108806
108806
108806
108806
108806
108805
108805
108804
108803
108802
108801
108800
108800
108800
108800
108800
108801
108801
108802
108803
108804
108805
108806
108806
108806
108806
108806
108806
108805
108752
108752
108752
108752
108752
108752
108751
108750
108749
108748
108747
108747
108746
108746
108746
108746
108746
108746
108747
108748
108748
108749
108750
108751
108752
108752
108752
108752
108752
108752
108699
108698
108698
108698
108698
108697
108696
108695
108694
108693
108692
108692
108691
108691
108691
108691
108691
108692
108692
108693
108693
108694
108696
108697
108698
108698
108698
108698
108699
108700
108645
108644
108643
108642
108641
108641
108641
108640
108639
108638
108637
108637
108636
108636
108636
108636
108636
108637
108637
108637
108638
108640
108641
108641
108641
108642
108642
108643
108644
108646
108589
108586
108583
108582
108582
108583
108584
108584
108584
108583
108582
108581
108581
108581
108581
108581
108581
108582
108582
108582
108584
108584
108585
108584
108583
108582
108582
108584
108587
108589
108528
108523
108519
108517
108518
108521
108523
108525
108526
108526
108525
108524
108525
108525
108525
108525
108525
108525
108525
108526
108527
108526
108525
108523
108521
108518
108517
108519
108524
108528
108460
108454
108450
108449
108452
108456
108461
108464
108466
108467
108466
108466
108466
108467
108467
108467
108467
108466
108466
108467
108467
108466
108464
108461
108456
108452
108449
108450
108454
108461
108387
108383
108381
108382
108386
108392
108398
108402
108405
108407
108408
108408
108409
108410
108410
108410
108410
108409
108409
108409
108408
108405
108403
108398
108392
108386
108382
108381
108384
108388
108318
108316
108315
108317
108322
108329
108337
108343
108346
108349
108352
108353
108353
108355
108356
108356
108355
108353
108353
108352
108349
108346
108343
108337
108329
108322
108317
108315
108316
108318
108253
108251
108251
108254
108259
108268
108276
108283
108288
108291
108296
108298
108299
108300
108301
108301
108300
108299
108299
108296
108291
108288
108283
108276
108267
108259
108253
108250
108251
108252
108190
108188
108189
108192
108198
108206
108216
108224
108230
108234
108240
108245
108246
108247
108248
108248
108247
108247
108245
108240
108234
108229
108224
108216
108206
108197
108191
108188
108188
108190
108131
108130
108129
108131
108137
108146
108156
108165
108172
108177
108184
108191
108194
108195
108196
108196
108195
108194
108191
108184
108177
108171
108165
108155
108145
108136
108130
108129
108129
108130
108075
108074
108073
108074
108078
108085
108096
108106
108113
108120
108128
108136
108141
108142
108143
108143
108142
108141
108136
108127
108120
108113
108105
108095
108084
108076
108073
108073
108074
108075
108022
108022
108020
108018
108019
108025
108035
108046
108054
108061
108069
108078
108084
108087
108088
108088
108087
108084
108077
108068
108061
108053
108045
108034
108024
108019
108018
108020
108021
108022
107970
107969
107967
107964
107963
107965
107973
107984
107993
108001
108007
108015
108023
108028
108029
108029
108027
108023
108014
108006
108000
107992
107982
107972
107964
107962
107964
107966
107968
107969
107916
107915
107912
107910
107907
107906
107910
107919
107930
107938
107944
107949
107956
107963
107965
107965
107962
107956
107948
107943
107937
107929
107918
107909
107906
107906
107909
107912
107914
107916
107860
107859
107856
107853
107849
107848
107849
107855
107865
107874
107880
107883
107887
107892
107895
107895
107892
107886
107883
107880
107874
107863
107854
107849
107848
107849
107853
107856
107859
107860
107803
107801
107798
107794
107791
107789
107791
107795
107802
107810
107816
107819
107821
107824
107826
107825
107823
107821
107819
107816
107810
107801
107795
107791
107789
107791
107794
107798
107801
107803
107744
107741
107738
107734
107732
107732
107735
107738
107743
107750
107755
107758
107760
107761
107762
107762
107761
107760
107758
107755
107749
107743
107738
107735
107733
107733
107734
107738
107741
107743
107683
107681
107678
107676
107676
107677
107679
107682
107686
107690
107695
107698
107700
107700
107701
107701
107700
107700
107698
107695
107690
107686
107682
107679
107677
107676
107676
107678
107681
107683
107623
107621
107619
107618
107620
107621
107623
107624
107627
107630
107634
107636
107637
107638
107639
107639
107638
107637
107636
107633
107630
107627
107624
107623
107621
107620
107619
107619
107621
107623
107563
107561
107561
107562
107563
107564
107564
107564
107565
107567
107570
107572
107573
107574
107574
107574
107574
107573
107572
107570
107567
107565
107564
107564
107564
107563
107562
107561
107561
107563
107503
107502
107504
107505
107505
107504
107503
107501
107501
107502
107504
107506
107506
107507
107507
107507
107507
107506
107505
107504
107502
107500
107501
107502
107504
107505
107505
107504
107503
107503
107443
107444
107446
107446
107445
107442
107438
107435
107434
107434
107436
107437
107438
107438
107439
107439
107438
107438
107437
107435
107434
107433
107435
107438
107442
107445
107447
107446
107445
107444
107384
107385
107386
107385
107381
107375
107370
107366
107364
107364
107365
107366
107367
107368
107369
107369
107368
107367
107366
107365
107363
107363
107365
107369
107375
107381
107385
107387
107386
107384
107323
107325
107324
107319
107313
107305
107299
107294
107292
107291
107293
107295
107296
107297
107298
107298
107297
107296
107294
107292
107291
107291
107294
107298
107305
107312
107319
107324
107325
107323
107259
107260
107256
107249
107241
107232
107225
107220
107217
107217
107219
107222
107224
107226
107227
107226
107226
107224
107221
107219
107217
107217
107220
107225
107232
107240
107248
107256
107260
107259
107192
107190
107183
107175
107166
107157
107149
107144
107141
107142
107145
107148
107152
107154
107155
107155
107153
107151
107148
107145
107141
107141
107143
107149
107156
107165
107174
107183
107189
107191
107119
107115
107108
107099
107089
107080
107072
107067
107065
107067
107071
107075
107079
107081
107083
107082
107081
107079
107075
107071
107066
107065
107066
107071
107079
107088
107098
107107
107114
107118
107042
107038
107030
107021
107011
107001
106994
106990
106990
106993
106998
107003
107007
107009
107010
107010
107009
107006
107003
106998
106993
106990
106990
106993
107000
107010
107020
107030
107037
107041
106964
106960
106952
106942
106932
106923
106918
106917
106919
106922
106927
106931
106935
106937
106938
106938
106937
106934
106931
106926
106922
106918
106917
106918
106922
106931
106941
106951
106959
106963
106885
106880
106872
106863
106854
106848
106846
106847
106850
106853
106857
106860
106863
106864
106865
106865
106864
106862
106860
106856
106853
106850
106847
106845
106847
106853
106862
106872
106880
106884
106806
106801
106793
106785
106779
106776
106777
106780
106783
106785
106787
106789
106790
106791
106792
106792
106791
106790
106788
106786
106785
106782
106779
106777
106776
106778
106784
106793
106800
106805
106727
106722
106716
106710
106707
106708
106710
106713
106715
106717
106717
106717
106717
106718
106718
106717
106717
106717
106716
106716
106716
106715
106713
106710
106707
106707
106710
106715
106722
106726
106649
106646
106641
106639
106639
106641
106644
106646
106647
106646
106645
106644
106643
106643
106643
106642
106642
106643
106643
106644
106645
106646
106646
106644
106641
106639
106638
106641
106645
106649
106574
106571
106570
106570
106572
106575
106577
106578
106576
106574
106572
106569
106568
106567
106566
106566
106566
106567
106568
106571
106573
106575
106577
106576
106575
106572
106569
106569
106571
106573
106500
106499
106500
106503
106506
106507
106508
106506
106503
106499
106495
106492
106490
106489
106488
106488
106489
106490
106491
106494
106498
106501
106505
106507
106507
106505
106502
106500
106499
106500
106427
106428
106431
106435
106437
106437
106435
106430
106425
106421
106417
106413
106411
106410
106409
106409
106410
106410
106412
106415
106419
106424
106429
106433
106436
106436
106434
106431
106428
106427
106354
106356
106361
106364
106364
106362
106357
106350
106344
106339
106335
106332
106330
106329
106329
106329
106329
106330
106331
106334
106338
106343
106349
106355
106361
106363
106363
106360
106356
106354
106281
106283
106286
106287
106285
106280
106273
106266
106259
106254
106251
106249
106248
106248
106247
106247
106248
106248
106249
106251
106254
106258
106265
106272
106280
106285
106287
106286
106283
106281
106206
106208
106208
106205
106201
106194
106186
106178
106171
106168
106166
106165
106164
106164
106164
106164
106164
106164
106165
106166
106167
106171
106177
106185
106193
106200
106205
106208
106208
106206
106127
106128
106125
106120
106113
106104
106095
106087
106082
106080
106079
106079
106079
106079
106079
106079
106080
106079
106079
106079
106080
106082
106087
106095
106104
106112
106120
106125
106128
106127
106043
106042
106037
106030
106022
106012
106003
105996
105992
105991
105991
105991
105992
105992
105993
105993
105993
105993
105993
105992
105992
105993
105997
106003
106012
106022
106030
106037
106042
106043
105953
105951
105945
105937
105928
105918
105910
105905
105902
105902
105902
105903
105903
105904
105904
105905
105905
105905
105904
105904
105904
105904
105907
105911
105919
105928
105938
105946
105951
105953
105860
105857
105850
105841
105832
105823
105817
105814
105812
105812
105812
105812
105813
105814
105814
105814
105815
105815
105815
105814
105814
105815
105816
105819
105824
105832
105842
105850
105857
105860
105764
105760
105752
105743
105735
105728
105724
105722
105721
105720
105720
105721
105721
105722
105722
105722
105723
105723
105723
105723
105724
105724
105725
105726
105729
105736
105744
105753
105760
105764
105665
105661
105654
105646
105638
105634
105631
105630
105629
105628
105628
105628
105628
105628
105629
105629
105629
105630
105630
105631
105632
105633
105634
105634
105635
105639
105646
105653
105661
105665
105566
105562
105555
105548
105543
105540
105539
105538
105536
105535
105534
105534
105534
105534
105534
105535
105535
105535
105536
105538
105539
105541
105542
105542
105542
105543
105548
105554
105561
105565
105467
105463
105457
105452
105448
105447
105446
105445
105444
105442
105441
105440
105440
105440
105439
105439
105440
105440
105441
105443
105445
105448
105449
105449
105449
105448
105450
105455
105461
105465
105367
105364
105359
105355
105354
105353
105353
105352
105351
105349
105347
105346
105345
105344
105343
105343
105343
105344
105345
105347
105350
105353
105355
105357
105356
105355
105354
105357
105360
105364
105268
105265
105262
105260
105261
105261
105261
105259
105257
105255
105253
105251
105249
105248
105247
105246
105246
105246
105247
105249
105252
105256
105260
105263
105264
105263
105261
105260
105261
105263
105170
105168
105167
105168
105170
105170
105168
105165
105163
105161
105158
105155
105152
105150
105148
105147
105147
105147
105147
105149
105151
105155
105161
105166
105170
105171
105169
105166
105164
105164
105074
105074
105076
105078
105079
105077
105073
105069
105066
105064
105061
105057
105054
105051
105049
105047
105046
105046
105046
105046
105048
105050
105056
105063
105071
105076
105076
105073
105069
105068
104980
104981
104985
104986
104985
104980
104975
104971
104968
104965
104961
104957
104953
104950
104948
104946
104944
104943
104943
104942
104942
104943
104946
104953
104963
104973
104978
104978
104974
104972
104885
104887
104890
104889
104885
104879
104874
104871
104868
104865
104860
104855
104851
104848
104845
104842
104841
104839
104838
104837
104836
104836
104836
104840
104849
104861
104872
104877
104877
104875
104790
104791
104790
104785
104778
104774
104772
104770
104767
104762
104757
104752
104747
104744
104740
104738
104736
104735
104733
104732
104730
104728
104727
104727
104733
104743
104757
104768
104774
104774
104689
104688
104682
104675
104671
104671
104671
104669
104664
104658
104652
104646
104642
104638
104635
104632
104631
104629
104628
104627
104625
104622
104618
104616
104618
104626
104639
104652
104664
104667
104582
104577
104569
104565
104567
104569
104569
104565
104559
104552
104545
104539
104534
104531
104528
104526
104524
104523
104522
104521
104520
104517
104513
104508
104508
104512
104522
104535
104547
104554
104469
104463
104458
104460
104466
104468
104466
104459
104451
104443
104436
104430
104426
104422
104420
104418
104417
104417
104416
104416
104416
104414
104411
104407
104403
104404
104410
104421
104431
104438
104357
104354
104356
104362
104366
104365
104359
104349
104339
104331
104324
104319
104316
104313
104311
104310
104310
104309
104310
104311
104312
104314
104313
104311
104307
104304
104304
104311
104318
104324
104251
104253
104261
104266
104265
104258
104247
104235
104225
104217
104212
104207
104205
104203
104202
104201
104201
104201
104202
104204
104207
104212
104216
104218
104216
104212
104207
104208
104211
104215
104152
104157
104166
104166
104157
104144
104131
104119
104109
104102
104098
104095
104094
104093
104092
104092
104092
104092
104093
104095
104100
104106
104114
104121
104124
104122
104117
104113
104112
104113
104058
104063
104065
104057
104043
104027
104013
104001
103992
103987
103984
103983
103982
103982
103982
103982
103982
103983
103983
103985
103989
103996
104006
104017
104026
104030
104028
104023
104019
104017
103962
103963
103955
103941
103924
103907
103893
103882
103875
103872
103871
103871
103872
103872
103873
103873
103873
103873
103873
103874
103877
103883
103893
103906
103919
103929
103934
103933
103929
103925
103856
103852
103838
103821
103803
103787
103774
103764
103759
103758
103759
103760
103762
103764
103765
103766
103766
103765
103764
103764
103765
103768
103777
103790
103805
103820
103831
103837
103836
103834
103741
103732
103717
103700
103683
103668
103656
103649
103646
103646
103648
103652
103655
103658
103660
103660
103660
103659
103657
103655
103654
103656
103662
103673
103688
103705
103721
103732
103737
103737
103621
103611
103597
103581
103565
103552
103542
103537
103536
103537
103541
103546
103550
103554
103557
103558
103557
103555
103552
103548
103546
103547
103551
103559
103571
103588
103605
103620
103630
103633
103500
103492
103479
103465
103451
103441
103434
103431
103431
103433
103437
103443
103449
103453
103456
103457
103456
103454
103450
103446
103442
103442
103444
103450
103459
103473
103489
103505
103518
103524
103384
103377
103366
103354
103343
103336
103332
103331
103332
103334
103338
103344
103350
103355
103358
103359
103359
103356
103352
103347
103344
103343
103344
103347
103353
103364
103377
103392
103404
103412
103273
103267
103259
103250
103242
103238
103236
103237
103239
103241
103245
103250
103255
103259
103262
103263
103263
103261
103257
103254
103252
103251
103250
103251
103254
103261
103271
103283
103294
103301
103169
103164
103158
103152
103148
103146
103146
103148
103151
103153
103156
103158
103162
103165
103167
103168
103168
103167
103165
103164
103163
103163
103161
103161
103162
103165
103171
103180
103188
103194
103070
103067
103064
103061
103060
103059
103061
103063
103066
103067
103068
103069
103070
103071
103072
103073
103074
103074
103074
103075
103076
103076
103075
103074
103074
103075
103078
103083
103088
103092
102977
102976
102976
102976
102976
102976
102977
102978
102980
102980
102980
102979
102978
102977
102977
102978
102979
102980
102981
102984
102986
102987
102987
102987
102988
102989
102991
102993
102994
102995
102888
102889
102893
102894
102894
102893
102892
102892
102891
102891
102889
102886
102884
102882
102881
102881
102882
102884
102886
102890
102893
102895
102896
102899
102901
102903
102904
102906
102904
102903
102802
102805
102809
102810
102809
102807
102804
102801
102799
102797
102794
102791
102788
102785
102784
102784
102784
102786
102789
102792
102795
102798
102801
102806
102810
102814
102817
102818
102817
102815
102717
102719
102721
102722
102720
102716
102711
102707
102704
102701
102698
102694
102690
102687
102685
102684
102685
102686
102689
102692
102695
102698
102703
102709
102716
102722
102727
102729
102728
102728
102629
102630
102630
102628
102625
102620
102615
102610
102606
102603
102599
102595
102591
102587
102585
102584
102584
102585
102587
102590
102593
102597
102603
102609
102617
102625
102632
102636
102637
102636
102537
102537
102534
102530
102526
102521
102516
102511
102507
102502
102498
102494
102490
102487
102484
102483
102482
102483
102485
102487
102491
102496
102502
102509
102517
102526
102533
102538
102541
102542
102443
102441
102436
102431
102426
102421
102417
102411
102406
102401
102396
102392
102388
102385
102383
102381
102381
102381
102382
102385
102389
102394
102402
102409
102418
102426
102433
102438
102443
102445
102347
102344
102339
102334
102329
102324
102318
102311
102305
102299
102294
102290
102286
102284
102282
102280
102279
102279
102280
102283
102287
102294
102302
102311
102319
102327
102333
102339
102344
102347
102252
102249
102245
102240
102235
102229
102221
102213
102205
102198
102193
102189
102186
102183
102182
102180
102180
102180
102181
102183
102188
102195
102204
102213
102222
102230
102236
102242
102247
102249
102159
102157
102153
102149
102142
102134
102125
102115
102107
102100
102094
102090
102087
102085
102084
102083
102082
102082
102084
102087
102092
102099
102107
102117
102126
102135
102142
102148
102152
102154
102068
102066
102063
102057
102049
102039
102029
102020
102011
102004
101998
101994
101991
101990
101989
101988
101988
101988
101990
101993
101998
102004
102012
102021
102031
102040
102049
102055
102059
102061
101978
101977
101973
101965
101955
101945
101935
101925
101917
101910
101905
101901
101899
101898
101897
101897
101897
101898
101899
101902
101907
101912
101919
101928
101937
101947
101956
101964
101968
101970
101889
101887
101882
101872
101862
101851
101841
101833
101825
101819
101815
101812
101810
101809
101809
101809
101809
101810
101812
101815
101818
101823
101829
101836
101845
101855
101864
101873
101878
101880
101801
101798
101790
101780
101769
101759
101750
101742
101737
101732
101729
101726
101725
101724
101724
101724
101725
101725
101727
101730
101733
101736
101741
101747
101754
101764
101773
101782
101789
101792
101712
101708
101700
101690
101679
101670
101662
101656
101652
101649
101646
101644
101643
101643
101642
101643
101643
101644
101645
101647
101650
101653
101656
101661
101667
101675
101684
101693
101700
101705
101623
101619
101611
101601
101592
101584
101578
101574
101571
101569
101567
101565
101564
101564
101564
101564
101564
101565
101566
101568
101570
101572
101575
101579
101583
101589
101598
101606
101613
101617
101536
101532
101525
101517
101510
101504
101499
101496
101494
101492
101490
101489
101488
101487
101487
101487
101488
101489
101490
101491
101493
101495
101498
101501
101504
101509
101516
101522
101528
101532
101451
101447
101442
101438
101433
101428
101425
101421
101419
101417
101415
101414
101413
101412
101412
101412
101413
101414
101415
101416
101418
101420
101423
101426
101430
101434
101438
101442
101445
101449
101369
101366
101364
101362
101360
101357
101353
101349
101346
101344
101342
101340
101339
101338
101338
101338
101339
101340
101341
101343
101345
101347
101351
101355
101359
101362
101364
101365
101367
101369
101291
101290
101290
101289
101288
101286
101283
101279
101275
101272
101269
101268
101266
101266
101265
101265
101266
101267
101268
101270
101273
101276
101280
101284
101289
101291
101292
101292
101292
101292
101217
101217
101218
101218
101217
101215
101212
101208
101204
101200
101198
101196
101195
101194
101193
101194
101194
101195
101196
101198
101201
101204
101209
101214
101218
101220
101220
101221
101220
101219
101146
101147
101148
101148
101147
101145
101141
101138
101133
101130
101127
101125
101124
101123
101123
101123
101123
101124
101125
101127
101130
101134
101139
101143
101147
101149
101150
101151
101149
101149
101077
101078
101079
101079
101077
101074
101070
101066
101062
101059
101056
101055
101053
101053
101053
101053
101053
101054
101055
101057
101060
101063
101068
101072
101076
101079
101080
101081
101080
101079
101007
101009
101009
101009
101007
101003
100999
100995
100992
100989
100987
100985
100984
100983
100983
100983
100984
100985
100986
100987
100990
100993
100997
101001
101005
101008
101010
101011
101011
101009
100937
100939
100939
100937
100935
100932
100929
100925
100922
100920
100918
100917
100916
100915
100915
100915
100916
100917
100918
100919
100921
100924
100927
100930
100933
100937
100939
100940
100940
100939
100869
100869
100869
100868
100866
100863
100862
100860
100858
100856
100855
100854
100853
100853
100853
100853
100853
100854
100855
100856
100857
100859
100861
100863
100865
100867
100869
100870
100870
100870
100804
100804
100803
100802
100801
100800
100800
100800
100799
100798
100797
100797
100796
100796
100796
100796
100797
100797
100798
100799
100800
100801
100801
100801
100802
100802
100803
100804
100805
100805
100743
100742
100741
100740
100740
100740
100742
100743
100744
100744
100744
100744
100743
100743
100744
100744
100744
100744
100745
100745
100746
100746
100745
100744
100742
100741
100741
100742
100743
100744
100684
100683
100682
100682
100683
100685
100688
100690
100692
100693
100693
100693
100693
100693
100693
100693
100694
100694
100694
100694
100694
100693
100692
100689
100687
100684
100683
100683
100684
100685
100627
100626
100626
100627
100630
100633
100637
100640
100642
100644
100644
100645
100645
100645
100645
100645
100645
100645
100646
100646
100645
100644
100641
100638
100635
100631
100628
100627
100627
100628
100573
100573
100574
100576
100580
100584
100588
100592
100594
100596
100597
100598
100598
100598
100598
100598
100598
100599
100599
100598
100597
100596
100593
100589
100585
100581
100578
100575
100574
100574
100523
100523
100525
100529
100534
100538
100542
100545
100548
100550
100551
100552
100552
100552
100552
100552
100553
100553
100553
100552
100551
100549
100546
100543
100539
100535
100530
100527
100524
100524
100476
100477
100481
100486
100490
100493
100497
100501
100503
100505
100506
100507
100507
100507
100508
100508
100508
100508
100508
100507
100506
100504
100501
100498
100494
100490
100486
100482
100478
100477
100434
100436
100440
100444
100447
100450
100454
100457
100459
100461
100462
100463
100463
100463
100464
100464
100464
100464
100464
100463
100462
100460
100457
100454
100451
100447
100444
100440
100436
100435
100395
100396
100400
100403
100406
100409
100411
100414
100416
100418
100419
100420
100420
100420
100420
100420
100421
100421
100420
100420
100418
100417
100414
100411
100409
100406
100403
100400
100396
100395
100357
100358
100361
100363
100366
100368
100370
100372
100374
100376
100377
100378
100378
100378
100378
100378
100378
100378
100378
100377
100376
100374
100372
100370
100368
100365
100363
100360
100358
100357
100320
100321
100323
100324
100326
100328
100329
100331
100333
100334
100336
100337
100337
100337
100337
100337
100337
100337
100337
100336
100334
100332
100331
100329
100328
100326
100324
100322
100320
100320
100285
100285
100286
100287
100288
100290
100290
100291
100293
100294
100296
100297
100298
100298
100298
100298
100298
100298
100297
100296
100294
100292
100291
100290
100289
100288
100286
100285
100284
100284
100251
100251
100251
100252
100253
100253
100253
100254
100255
100257
100258
100259
100260
100261
100261
100261
100261
100260
100259
100258
100256
100255
100254
100253
100253
100252
100251
100250
100250
100250
100219
100218
100218
100219
100219
100219
100219
100219
100220
100221
100223
100224
100225
100225
100225
100225
100225
100225
100224
100223
100221
100220
100219
100219
100219
100219
100218
100218
100218
100219
100189
100188
100188
100188
100188
100187
100187
100187
100188
100189
100190
100191
100192
100192
100193
100193
100192
100192
100191
100190
100189
100188
100187
100187
100187
100188
100188
100188
100188
100189
100162
100161
100160
100160
100160
100159
100159
100159
100159
100160
100161
100161
100162
100162
100162
100162
100162
100162
100161
100161
100160
100159
100159
100159
100159
100160
100160
100161
100161
100162
100137
100136
100135
100135
100134
100134
100133
100133
100133
100133
100134
100134
100134
100135
100135
100135
100135
100134
100134
100134
100133
100133
100133
100133
100134
100134
100135
100135
100136
100137
100115
100113
100113
100112
100111
100111
100110
100110
100110
100109
100109
100109
100110
100110
100110
100110
100110
100110
100109
100109
100109
100110
100110
100110
100111
100111
100112
100113
100114
100115
100095
100093
100092
100091
100091
100090
100089
100089
100088
100088
100087
100088
100088
100088
100088
100088
100088
100088
100088
100088
100088
100088
100089
100090
100090
100091
100092
100092
100093
100095
100076
100074
100074
100073
100072
100071
100071
100070
100070
100069
100069
100070
100070
100070
100070
100070
100070
100070
100070
100070
100070
100070
100070
100071
100072
100072
100073
100074
100074
100076
100058
100057
100057
100056
100055
100055
100054
100054
100054
100054
100054
100055
100055
100055
100055
100055
100055
100055
100055
100055
100054
100054
100054
100054
100055
100055
100056
100057
100057
100058
100042
100041
100041
100041
100041
100041
100041
100041
100041
100042
100042
100042
100042
100042
100042
100042
100042
100042
100042
100042
100042
100041
100041
100041
100041
100041
100041
100041
100041
100042
100028
100028
100028
100028
100029
100030
100030
100030
100030
100031
100031
100031
100031
100031
100031
100031
100031
100031
100031
100031
100031
100030
100030
100030
100030
100029
100028
100028
100027
100028
100018
100017
100018
100019
100020
100020
100021
100021
100021
100021
100022
100022
100022
100022
100022
100022
100022
100022
100022
100022
100021
100021
100021
100021
100020
100019
100018
100018
100017
100017
100010
100010
100010
100011
100012
100013
100013
100014
100014
100014
100014
100014
100014
100015
100015
100015
100014
100014
100014
100014
100014
100014
100014
100013
100013
100012
100011
100010
100010
100010
100005
100005
100005
100006
100007
100007
100008
100008
100008
100008
100009
100009
100009
100009
100009
100009
100009
100009
100009
100009
100008
100008
100008
100008
100007
100007
100006
100005
100005
100005
100003
100003
100003
100003
100004
100004
100004
100004
100005
100005
100005
100005
100005
100005
100005
100005
100005
100005
100005
100005
100005
100004
100004
100004
100004
100004
100003
100003
100003
100003
100002
100002
100002
100002
100002
100003
100003
100003
100003
100003
100003
100003
100003
100003
100003
100003
100003
100003
100003
100003
100003
100003
100003
100003
100002
100002
100002
100002
100002
100002
100002
100002
100002
100002
100002
100002
100002
100002
100002
100002
100002
100002
100002
100002
100002
100002
100002
100002
100002
100002
100002
100002
100002
100002
100002
100002
100002
100002
100002
100002
100002
100002
100002
100002
100002
100002
100002
100002
100002
100002
100002
100002
100002
100002
100002
100002
100002
100002
100002
100002
100002
100002
100002
100002
100002
100002
100002
100002
100002
100002
100002
100002
100002
100002
100002
100002
100002
100002
100002
100002
100002
100002
100002
100002
100002
100002
100002
100002
100002
100002
100002
100002
100002
100002
100002
100002
100002
100002
100002
100002
100002
100002
100002
100002
100002
100002
100002
100002
100002
100002
100002
100002
100002
100002
100002
100002
100002
100002
100002
100002
100002
100002
100002
100002
100002
100002
100002
100002
100002
100002
100002
100002
100002
100002
100002
100002
100002
100002
100002
100002
100002
100002
100002
100002
100002
100002
100002
100002
100002
100002
100002
100002
100002
100002
100002
100002
100002
100002
100002
100002
100002
100002
100002
100002
100002
100002
100002
100002
100002
100002
100002
100002
100002
100002
100002
100002
100002
100002
100002
100002
100002
100002
100002
100002
100002
100002
100002
100002
100002
100002
100002
100002
100002
100002
100002
100002
100002
100002
100002
100002
100002
100002
100002
100002
100002
100002
100002
100002
100002
100002
100002
100002
100002
100002
100002
100002
100002
100002
100002
100002
100002
100002
100002
100002
100002
100002
100002
100002
100002
100002
100002
100002
100002
100002
100002
100002
100002
100002
100002
100002
100002
100002
100002
100002
100002
100002
100002
100002
100002
100002
100002
100002
100002
100002
100002
100002
100002
100002
100002
100002
100002
100002
100002
100002
100002
100002
100002
100002
100002
100002
100002
100002
100002
100002
100002
100002
100002
100002
100002
100002
100002
100002
100002
100002
100002
100002
100002
100002
100002
100002
100002
100002
100002
100002
100002
100002
100002
100002
100002
100002
100002
100002
100002
100002
100002
100002
100002
100002
100002
100002
100002
100002
100002
100002
100002
100002
100002
100002
100002
100002
100002
100002
100002
100002
100002
100002
100002
100002
100002
100002
100002
100002