/*--------------------------------*- C++ -*----------------------------------*\
| =========                 |                                                 |
| \\      /  F ield         | OpenFOAM: The Open Source CFD Toolbox           |
|  \\    /   O peration     | Version:  v1606+                                |
|   \\  /    A nd           | Web:      www.OpenFOAM.com                      |
|    \\/     M anipulation  |                                                 |
\*---------------------------------------------------------------------------*/
FoamFile
{
    version     2.0;
    format      ascii;
    class       volVectorField;
    location    "0.51";
    object      U.particles;
}
// * * * * * * * * * * * * * * * * * * * * * * * * * * * * * * * * * * * * * //

dimensions      [0 1 -1 0 0 0 0];

internalField   nonuniform List<vector> 
6000
(
(-0.0120238 -0.478331 0)
(-0.00115621 -0.531048 0)
(0.00968609 -0.5089 0)
(0.0264632 -0.499792 0)
(0.0417736 -0.507358 0)
(0.0543744 -0.515249 0)
(0.0625557 -0.515197 0)
(0.0677581 -0.516427 0)
(0.0682845 -0.523101 0)
(0.0650736 -0.535969 0)
(0.059324 -0.548555 0)
(0.0512548 -0.555323 0)
(0.039085 -0.556881 0)
(0.0232135 -0.555081 0)
(0.00599782 -0.554548 0)
(-0.0115879 -0.55382 0)
(-0.0291961 -0.553996 0)
(-0.0444809 -0.556263 0)
(-0.0556877 -0.555558 0)
(-0.0632315 -0.548076 0)
(-0.068365 -0.534303 0)
(-0.0704162 -0.521015 0)
(-0.0691112 -0.514057 0)
(-0.063037 -0.514342 0)
(-0.0546461 -0.515385 0)
(-0.0421977 -0.505292 0)
(-0.0265896 -0.496163 0)
(-0.00960231 -0.507052 0)
(0.000826168 -0.531258 0)
(0.012248 -0.480194 0)
(0.0278708 -0.037139 0)
(0.012743 0.0158392 0)
(0.0125016 0.00387515 0)
(0.0205113 -0.019004 0)
(0.0320026 -0.0325764 0)
(0.0449086 -0.040976 0)
(0.0627699 -0.0442193 0)
(0.080476 -0.0388754 0)
(0.0964758 -0.028041 0)
(0.102888 -0.0139516 0)
(0.0982529 -0.0013337 0)
(0.0867052 0.00384488 0)
(0.0656918 -0.00138155 0)
(0.0399861 -0.0101398 0)
(0.0112934 -0.0129189 0)
(-0.0186471 -0.0144625 0)
(-0.0469238 -0.0110148 0)
(-0.0717837 0.000907716 0)
(-0.0918663 0.00519919 0)
(-0.102827 -0.00192118 0)
(-0.106094 -0.0159327 0)
(-0.0985104 -0.0304944 0)
(-0.0818693 -0.0416884 0)
(-0.0632499 -0.0456383 0)
(-0.045294 -0.0417549 0)
(-0.0324555 -0.0338394 0)
(-0.0206742 -0.0203719 0)
(-0.0121067 0.00352578 0)
(-0.0122022 0.0168352 0)
(-0.027194 -0.0397294 0)
(-0.00749174 -0.171647 0)
(-0.000901271 -0.14487 0)
(0.0050853 -0.146974 0)
(0.0119824 -0.154367 0)
(0.0241394 -0.161494 0)
(0.0426835 -0.165895 0)
(0.06703 -0.163575 0)
(0.0903596 -0.157682 0)
(0.110629 -0.144041 0)
(0.120785 -0.124517 0)
(0.117832 -0.105205 0)
(0.102381 -0.0854789 0)
(0.0779881 -0.0690785 0)
(0.0484939 -0.0611661 0)
(0.0142394 -0.0589814 0)
(-0.0224656 -0.0598263 0)
(-0.0559421 -0.0634125 0)
(-0.0845389 -0.0723883 0)
(-0.10775 -0.0882416 0)
(-0.121272 -0.107784 0)
(-0.12296 -0.126735 0)
(-0.111826 -0.146077 0)
(-0.0909777 -0.160242 0)
(-0.0669907 -0.165862 0)
(-0.0420849 -0.167302 0)
(-0.023146 -0.162389 0)
(-0.0110655 -0.154817 0)
(-0.00415378 -0.14714 0)
(0.0024626 -0.144104 0)
(0.00822841 -0.17005 0)
(-0.000132402 -0.146997 0)
(0.0028435 -0.142088 0)
(0.00137957 -0.13915 0)
(0.00712837 -0.13215 0)
(0.0214454 -0.135096 0)
(0.0449819 -0.138794 0)
(0.0722259 -0.137404 0)
(0.0995855 -0.126865 0)
(0.124406 -0.107361 0)
(0.142036 -0.0812268 0)
(0.138017 -0.0610097 0)
(0.116816 -0.0556407 0)
(0.0840981 -0.0524922 0)
(0.050138 -0.0491503 0)
(0.014118 -0.0468494 0)
(-0.0233972 -0.0473304 0)
(-0.0582099 -0.0507763 0)
(-0.0911396 -0.0550205 0)
(-0.12226 -0.0578943 0)
(-0.140619 -0.0638001 0)
(-0.142494 -0.0845051 0)
(-0.123723 -0.110409 0)
(-0.0982409 -0.129706 0)
(-0.0708349 -0.139853 0)
(-0.0435657 -0.140908 0)
(-0.019452 -0.137284 0)
(-0.00472578 -0.133531 0)
(0.000493472 -0.139467 0)
(-0.00168685 -0.1419 0)
(0.000386572 -0.147642 0)
(-0.00613692 -0.135417 0)
(-0.000991963 -0.125541 0)
(0.00448966 -0.112704 0)
(0.00524134 -0.120898 0)
(0.0273683 -0.125036 0)
(0.0474842 -0.125596 0)
(0.0674849 -0.120649 0)
(0.0902166 -0.107976 0)
(0.11508 -0.0865383 0)
(0.136827 -0.0569499 0)
(0.150849 -0.0236183 0)
(0.133408 -0.00312946 0)
(0.0939878 0.00373653 0)
(0.0514282 0.00383023 0)
(0.0134152 0.00350065 0)
(-0.0230563 0.00312915 0)
(-0.0601435 0.00237644 0)
(-0.101278 0.00126715 0)
(-0.138041 -0.00639255 0)
(-0.15244 -0.0280585 0)
(-0.136042 -0.0610263 0)
(-0.113806 -0.0900924 0)
(-0.0884186 -0.110882 0)
(-0.0657605 -0.122976 0)
(-0.0458808 -0.127913 0)
(-0.0259828 -0.127684 0)
(-0.00369449 -0.124249 0)
(-0.00210705 -0.116087 0)
(0.00255711 -0.12625 0)
(0.0068259 -0.136382 0)
(-0.00245721 -0.080522 0)
(-0.00516864 -0.0655613 0)
(-6.74556e-05 -0.0724137 0)
(0.011281 -0.0697164 0)
(0.0236853 -0.0694588 0)
(0.0374922 -0.0706609 0)
(0.0530058 -0.0680973 0)
(0.0719251 -0.0590721 0)
(0.0976264 -0.0406852 0)
(0.119411 -0.01168 0)
(0.146441 0.0184296 0)
(0.142371 0.0542328 0)
(0.105192 0.0694807 0)
(0.056371 0.0698777 0)
(0.0139538 0.0652794 0)
(-0.024306 0.0650371 0)
(-0.0660378 0.0686137 0)
(-0.112715 0.0666732 0)
(-0.146351 0.0511185 0)
(-0.146401 0.013148 0)
(-0.118847 -0.0165452 0)
(-0.0963228 -0.0448705 0)
(-0.0706184 -0.0623619 0)
(-0.0518223 -0.0707208 0)
(-0.0363388 -0.0731182 0)
(-0.0227599 -0.0719361 0)
(-0.0109942 -0.0726154 0)
(0.000955103 -0.0765379 0)
(0.00672451 -0.0688708 0)
(0.00388048 -0.0832201 0)
(0.0271143 0.00063132 0)
(0.0052983 -0.0152231 0)
(-0.000191268 -0.0371653 0)
(-0.00362662 -0.0225262 0)
(-0.00535113 -0.0165447 0)
(0.0119935 -0.0193347 0)
(0.0301112 -0.0203112 0)
(0.0484955 -0.0124323 0)
(0.0717085 0.00521941 0)
(0.0975639 0.0334474 0)
(0.127576 0.0708897 0)
(0.137308 0.123315 0)
(0.105032 0.14497 0)
(0.0580667 0.147382 0)
(0.014127 0.13996 0)
(-0.0254125 0.139891 0)
(-0.0689915 0.146027 0)
(-0.113307 0.141248 0)
(-0.141797 0.115416 0)
(-0.126224 0.0648357 0)
(-0.096828 0.0285489 0)
(-0.0704644 0.00123417 0)
(-0.047662 -0.0154908 0)
(-0.0294182 -0.0228661 0)
(-0.0111865 -0.0214337 0)
(0.00642104 -0.0190365 0)
(0.0057179 -0.0254553 0)
(0.00216342 -0.0392536 0)
(-0.0049755 -0.0161014 0)
(-0.0248931 -0.00424533 0)
(0.0301678 0.034263 0)
(0.0113841 -0.019265 0)
(0.00578355 -0.00522472 0)
(-0.00168064 0.00527925 0)
(-0.00924817 0.0122496 0)
(-0.017228 0.0255215 0)
(-0.00411964 0.0289498 0)
(0.0185304 0.031633 0)
(0.0413583 0.0495252 0)
(0.070923 0.0816144 0)
(0.103397 0.12375 0)
(0.13311 0.181746 0)
(0.102823 0.232018 0)
(0.0562875 0.236866 0)
(0.0132471 0.229144 0)
(-0.0254236 0.229238 0)
(-0.0682206 0.234962 0)
(-0.114322 0.225977 0)
(-0.137425 0.168482 0)
(-0.102349 0.114289 0)
(-0.0701557 0.0741836 0)
(-0.040299 0.0444286 0)
(-0.0176892 0.0279834 0)
(0.0061567 0.0261706 0)
(0.0211134 0.0183627 0)
(0.0165721 0.0034412 0)
(0.00978742 -0.00243037 0)
(0.00174916 -0.0109414 0)
(-0.0068517 -0.0223918 0)
(-0.0342281 0.0478156 0)
(9.99188e-05 -0.0118538 0)
(-0.00279005 0.000130148 0)
(-0.00744191 0.0100653 0)
(-0.0124273 0.019485 0)
(-0.0183473 0.0272942 0)
(-0.0239221 0.0337713 0)
(-0.0278881 0.0493764 0)
(-0.0198587 0.0658212 0)
(0.01152 0.0800402 0)
(0.0490355 0.112693 0)
(0.08747 0.160908 0)
(0.127874 0.230722 0)
(0.104659 0.318812 0)
(0.0482375 0.341069 0)
(0.0102517 0.333335 0)
(-0.0222602 0.33337 0)
(-0.0602353 0.339625 0)
(-0.120086 0.304173 0)
(-0.130938 0.211361 0)
(-0.0872363 0.145952 0)
(-0.0474789 0.10157 0)
(-0.0101723 0.0719718 0)
(0.0224759 0.0603553 0)
(0.0325805 0.0350979 0)
(0.0326716 0.0188768 0)
(0.0275321 0.0140502 0)
(0.0214603 0.00869383 0)
(0.0158277 0.00218089 0)
(0.00980187 -0.00442302 0)
(0.00496811 -0.012988 0)
(-0.00142254 -0.00211681 0)
(-0.00879914 0.00786968 0)
(-0.016437 0.0185615 0)
(-0.0247462 0.0276157 0)
(-0.032262 0.0341993 0)
(-0.0374368 0.0388168 0)
(-0.0402326 0.0450676 0)
(-0.042789 0.0664646 0)
(-0.0205165 0.0853967 0)
(0.0293799 0.117851 0)
(0.0773571 0.169173 0)
(0.116808 0.255331 0)
(0.103628 0.375278 0)
(0.0395923 0.449067 0)
(0.00209063 0.447339 0)
(-0.0126728 0.447276 0)
(-0.062276 0.438804 0)
(-0.120332 0.347055 0)
(-0.118892 0.230657 0)
(-0.076986 0.15023 0)
(-0.0267008 0.103291 0)
(0.0240812 0.0741879 0)
(0.0465672 0.0494544 0)
(0.0463409 0.0274424 0)
(0.0440672 0.0224595 0)
(0.0392823 0.0197619 0)
(0.0316962 0.0157393 0)
(0.0226665 0.00975545 0)
(0.0135216 0.0023452 0)
(0.00386075 -0.00424133 0)
(-0.00325216 0.00486886 0)
(-0.0145847 0.0164233 0)
(-0.0266112 0.0273445 0)
(-0.0386638 0.0355961 0)
(-0.0489534 0.0402502 0)
(-0.0554893 0.0425136 0)
(-0.0583787 0.0444719 0)
(-0.0587451 0.0497061 0)
(-0.0471179 0.0587864 0)
(0.00716145 0.0966294 0)
(0.0470378 0.165603 0)
(0.0625546 0.265643 0)
(0.0613407 0.385219 0)
(0.0314835 0.509527 0)
(-0.0107099 0.542649 0)
(0.004632 0.542152 0)
(-0.0501922 0.485526 0)
(-0.0714478 0.355977 0)
(-0.0655616 0.238393 0)
(-0.0465187 0.143895 0)
(-0.00421204 0.0768656 0)
(0.0540085 0.0428941 0)
(0.0627604 0.0325143 0)
(0.0622789 0.0277546 0)
(0.059783 0.026529 0)
(0.0535958 0.0256055 0)
(0.0432613 0.02316 0)
(0.0304932 0.0180082 0)
(0.017178 0.0106304 0)
(0.00435052 0.00268934 0)
(-0.00602509 0.00936985 0)
(-0.0222214 0.023939 0)
(-0.0389333 0.0355659 0)
(-0.0541556 0.043004 0)
(-0.0666223 0.0453097 0)
(-0.0746072 0.0444497 0)
(-0.077825 0.0428412 0)
(-0.077678 0.0413477 0)
(-0.0652011 0.0433189 0)
(-0.0328565 0.0862526 0)
(-0.0165528 0.166543 0)
(-0.0120875 0.260049 0)
(-0.0179899 0.389255 0)
(-0.0303693 0.534483 0)
(-0.0192497 0.582834 0)
(0.0174721 0.58088 0)
(0.0218972 0.510031 0)
(0.0124669 0.357772 0)
(0.00592431 0.227468 0)
(0.0148115 0.141749 0)
(0.0352043 0.0623088 0)
(0.0710334 0.0262786 0)
(0.0803657 0.0264246 0)
(0.079983 0.0278361 0)
(0.0769055 0.0294308 0)
(0.0692844 0.0307046 0)
(0.0566438 0.030007 0)
(0.0405165 0.0256469 0)
(0.0229733 0.0179126 0)
(0.00631485 0.00714627 0)
(-0.00783918 0.0125842 0)
(-0.0290531 0.0303318 0)
(-0.0518068 0.0429919 0)
(-0.0704834 0.0503004 0)
(-0.084967 0.049597 0)
(-0.0942891 0.0446507 0)
(-0.09788 0.0394981 0)
(-0.097487 0.035272 0)
(-0.0898135 0.0392551 0)
(-0.0768534 0.0830811 0)
(-0.0702068 0.163039 0)
(-0.0732201 0.237922 0)
(-0.0714375 0.35983 0)
(-0.0396052 0.522184 0)
(-0.0184261 0.556948 0)
(0.017382 0.555428 0)
(0.0344021 0.504219 0)
(0.0842289 0.315575 0)
(0.0639483 0.206938 0)
(0.0653633 0.1369 0)
(0.0772342 0.0580567 0)
(0.0931002 0.0228183 0)
(0.099011 0.0223064 0)
(0.0987983 0.0266634 0)
(0.0954758 0.0309167 0)
(0.0866132 0.0350875 0)
(0.0719742 0.036619 0)
(0.0512317 0.032785 0)
(0.0272025 0.0246205 0)
(0.00756525 0.0106909 0)
(-0.00663049 0.0169471 0)
(-0.0255605 0.0377931 0)
(-0.0729302 0.0529553 0)
(-0.0946008 0.0575919 0)
(-0.107089 0.0520901 0)
(-0.114968 0.0428542 0)
(-0.11794 0.0345299 0)
(-0.117211 0.0294993 0)
(-0.113785 0.0333696 0)
(-0.113509 0.0667444 0)
(-0.119168 0.135053 0)
(-0.0621538 -0.0661332 0)
(-0.0270392 0.0319424 0)
(-0.00153967 0.276453 0)
(-0.00817525 0.321076 0)
(0.00443441 0.320527 0)
(-0.00668691 0.252474 0)
(0.0293937 -0.0204899 0)
(0.0833508 0.0244203 0)
(0.115136 0.105669 0)
(0.112504 0.044453 0)
(0.114766 0.0192772 0)
(0.117794 0.0185748 0)
(0.117984 0.0243563 0)
(0.11556 0.0309786 0)
(0.108699 0.0372675 0)
(0.09541 0.042256 0)
(0.0705698 0.0419158 0)
(0.0226665 0.0323827 0)
(0.00634291 0.0157171 0)
(-0.0207658 0.0295502 0)
(-0.0225597 0.082086 0)
(-0.121778 0.0870338 0)
(-0.12975 0.0692953 0)
(-0.132173 0.0526179 0)
(-0.135096 0.0392107 0)
(-0.136378 0.0278957 0)
(-0.134629 0.0204105 0)
(-0.132869 0.0187788 0)
(-0.134774 0.027159 0)
(-0.117137 -0.184331 0)
(-0.0615158 -0.281698 0)
(-0.0567782 -0.137222 0)
(0.0181436 -0.00247242 0)
(0.00645254 0.0254829 0)
(-0.0129603 0.0249544 0)
(-0.0133904 -0.0138943 0)
(0.0554508 -0.1734 0)
(0.069466 -0.292856 0)
(0.112802 -0.084939 0)
(0.131129 0.0111865 0)
(0.131289 0.00878959 0)
(0.133613 0.0132821 0)
(0.13573 0.021231 0)
(0.135678 0.0299088 0)
(0.133024 0.0382604 0)
(0.12715 0.0554781 0)
(0.122548 0.0899177 0)
(0.0199442 0.0833298 0)
(0.0201008 0.0282197 0)
(-0.0861318 0.0584057 0)
(-0.203273 -0.0323166 0)
(-0.256156 -0.0590804 0)
(-0.261401 0.00770345 0)
(-0.167059 0.0559444 0)
(-0.15333 0.0334739 0)
(-0.150337 0.0215798 0)
(-0.147734 0.00740285 0)
(-0.146893 -0.00377075 0)
(-0.15053 -0.018907 0)
(-0.146818 -0.213995 0)
(-0.0919505 -0.27477 0)
(-0.0832342 -0.138548 0)
(-0.0317772 0.0139752 0)
(0.00845309 0.0155004 0)
(-0.0101143 0.0172088 0)
(0.0440039 0.00598509 0)
(0.0859362 -0.154404 0)
(0.102872 -0.286221 0)
(0.139131 -0.128913 0)
(0.140186 -0.028252 0)
(0.140835 -0.00750931 0)
(0.144632 0.00568137 0)
(0.149273 0.0192927 0)
(0.154326 0.0280741 0)
(0.167028 0.0448456 0)
(0.261669 -0.0162439 0)
(0.248046 -0.0574223 0)
(0.191281 -0.0265151 0)
(0.0852336 0.0572325 0)
(-0.0887994 0.0236067 0)
(-0.176037 -0.0339105 0)
(-0.18018 -0.117954 0)
(-0.210447 -0.140385 0)
(-0.270721 -0.112574 0)
(-0.173496 0.0264586 0)
(-0.157838 0.0159441 0)
(-0.15272 -0.00676679 0)
(-0.150494 -0.0314005 0)
(-0.161075 -0.0765762 0)
(-0.169202 -0.19533 0)
(-0.110629 -0.262409 0)
(-0.101595 -0.118813 0)
(-0.0926375 0.138562 0)
(-0.00329725 0.179707 0)
(0.00824402 0.178137 0)
(0.107632 0.129599 0)
(0.108688 -0.13619 0)
(0.123613 -0.271025 0)
(0.156329 -0.129789 0)
(0.14329 -0.0663432 0)
(0.140149 -0.0244023 0)
(0.146547 0.000797252 0)
(0.15591 0.0191291 0)
(0.174523 0.026328 0)
(0.247604 -0.115755 0)
(0.189712 -0.130423 0)
(0.168349 -0.104193 0)
(0.165995 -0.0257583 0)
(0.0908297 0.0185438 0)
(-0.0381347 0.0528589 0)
(-0.071766 0.0895486 0)
(-0.0301794 0.0667329 0)
(-0.0103682 0.0159466 0)
(-0.129123 -0.0926925 0)
(-0.18128 -0.0452239 0)
(-0.15491 0.0124034 0)
(-0.140976 -0.0104309 0)
(-0.134914 -0.0524197 0)
(-0.141314 -0.114171 0)
(-0.157751 -0.195872 0)
(-0.123497 -0.264787 0)
(-0.0973811 -0.145025 0)
(-0.144297 0.235311 0)
(-0.015587 0.294939 0)
(0.0286045 0.292297 0)
(0.149693 0.214937 0)
(0.0870609 -0.173953 0)
(0.126978 -0.240086 0)
(0.135152 -0.152385 0)
(0.122523 -0.0857758 0)
(0.123676 -0.0334354 0)
(0.134103 0.00403923 0)
(0.15064 0.0244303 0)
(0.176413 -0.0281495 0)
(0.098415 -0.0673693 0)
(-0.0225575 0.0413236 0)
(0.0196002 0.0805641 0)
(0.0688201 0.0878691 0)
(0.0434517 0.041484 0)
(-0.00613349 0.102214 0)
(-0.0076736 0.131901 0)
(0.0406788 0.127273 0)
(0.141858 0.127176 0)
(0.134821 0.101767 0)
(-0.0811748 0.083247 0)
(-0.100652 0.031145 0)
(-0.106459 -0.00139981 0)
(-0.0995038 -0.0584336 0)
(-0.102262 -0.127022 0)
(-0.11681 -0.199781 0)
(-0.124193 -0.243353 0)
(-0.137066 -0.188945 0)
(-0.160626 0.159162 0)
(-0.0287509 0.297739 0)
(0.0396699 0.296637 0)
(0.161081 0.102933 0)
(0.112174 -0.202397 0)
(0.101663 -0.218467 0)
(0.0961735 -0.159973 0)
(0.0894767 -0.0926933 0)
(0.0922443 -0.0317622 0)
(0.102183 0.0159289 0)
(0.0926147 0.0491676 0)
(0.0724154 0.0923813 0)
(-0.132177 0.0987598 0)
(-0.147481 0.111033 0)
(-0.0430593 0.0959538 0)
(0.00840678 0.118048 0)
(0.00912395 0.0877483 0)
(0.0139776 0.13287 0)
(0.03514 0.133512 0)
(0.0936362 0.00322646 0)
(0.155963 0.0156562 0)
(0.228091 0.0127997 0)
(0.228957 -0.0888089 0)
(0.0399761 0.0148723 0)
(-0.0486122 0.00311269 0)
(-0.043198 -0.0624581 0)
(-0.0586468 -0.132402 0)
(-0.0832446 -0.202525 0)
(-0.120507 -0.271206 0)
(-0.180504 -0.31693 0)
(-0.11287 -0.0733084 0)
(-0.0363245 0.00901484 0)
(0.0477247 0.00958777 0)
(0.111536 -0.102566 0)
(0.181808 -0.298529 0)
(0.0832882 -0.239112 0)
(0.0534467 -0.158433 0)
(0.0446839 -0.0928351 0)
(0.0433023 -0.0322987 0)
(0.0485898 0.00564727 0)
(-0.0251959 0.042033 0)
(-0.217614 -0.159598 0)
(-0.22571 -0.0729181 0)
(-0.153954 -0.0790573 0)
(-0.0975889 -0.0669332 0)
(-0.0394309 0.118484 0)
(-0.0153767 0.123019 0)
(0.0347413 0.102059 0)
(0.084456 0.0548067 0)
(0.117608 -0.279652 0)
(0.141698 -0.407254 0)
(0.158558 -0.457193 0)
(0.0982808 -0.540528 0)
(0.0523646 -0.555745 0)
(0.0337856 -0.719154 0)
(0.00304065 -0.681206 0)
(-0.0169413 -0.23103 0)
(-0.0508731 -0.284435 0)
(-0.0592033 -0.655539 0)
(-0.0414601 -0.712374 0)
(-0.0416997 -0.525479 0)
(-0.0173049 -0.449518 0)
(0.0205069 -0.452297 0)
(0.0402286 -0.546974 0)
(0.0388819 -0.731798 0)
(0.0440547 -0.560969 0)
(0.0153259 -0.219881 0)
(0.0021557 -0.186807 0)
(-0.0193369 -0.7423 0)
(-0.0393002 -0.740691 0)
(-0.0396025 -0.57092 0)
(-0.0641085 -0.591744 0)
(-0.121862 -0.521158 0)
(-0.117656 -0.474729 0)
(-0.115299 -0.341505 0)
(-0.091528 0.0100703 0)
(-0.037918 0.0708306 0)
(0.0301319 -0.255449 0)
(0.0809399 -0.393856 0)
(0.0464508 -0.528638 0)
(0.0143768 -0.575321 0)
(0.00911585 -0.608349 0)
(0.0142972 -0.658413 0)
(0.0319279 -0.71264 0)
(0.0639831 -0.777551 0)
(0.0688056 -0.877485 0)
(0.0245815 -0.928795 0)
(-0.0330708 -0.924338 0)
(-0.0461722 -0.886779 0)
(-0.034652 -0.794509 0)
(-0.0211026 -0.690712 0)
(-0.00703891 -0.651847 0)
(0.00558425 -0.654644 0)
(0.0190978 -0.700275 0)
(0.0304899 -0.806509 0)
(0.0423475 -0.891283 0)
(0.0236593 -0.926108 0)
(-0.0325459 -0.931181 0)
(-0.0757268 -0.878279 0)
(-0.0694177 -0.782321 0)
(-0.0339607 -0.723546 0)
(-0.011136 -0.671909 0)
(-0.00180987 -0.622938 0)
(-0.00150419 -0.591624 0)
(-0.0277652 -0.553353 0)
(-0.0687215 -0.452052 0)
(-0.0288185 -0.312071 0)
(6.47745e-05 -0.473263 0)
(-0.0147051 -0.547066 0)
(-0.0233766 -0.567484 0)
(-0.0183836 -0.588772 0)
(-0.00348982 -0.618445 0)
(0.0223161 -0.65555 0)
(0.0576296 -0.695532 0)
(0.0881279 -0.74773 0)
(0.120086 -0.838219 0)
(0.0887629 -0.924254 0)
(0.0212567 -0.935614 0)
(-0.0171954 -0.894088 0)
(-0.0204697 -0.81049 0)
(-0.0163609 -0.720215 0)
(-0.00562402 -0.690752 0)
(0.00321429 -0.692745 0)
(0.013341 -0.726908 0)
(0.0156525 -0.819621 0)
(0.0113256 -0.897068 0)
(-0.0334603 -0.936638 0)
(-0.0968742 -0.918237 0)
(-0.122434 -0.835424 0)
(-0.0886619 -0.757038 0)
(-0.059757 -0.703819 0)
(-0.0275366 -0.661196 0)
(0.00308522 -0.625432 0)
(0.0203238 -0.592989 0)
(0.0288016 -0.570377 0)
(0.0218871 -0.553345 0)
(0.00136839 -0.477352 0)
(-0.0223792 -0.461984 0)
(-0.0450031 -0.53506 0)
(-0.0349723 -0.534561 0)
(-0.0128952 -0.556961 0)
(0.0154941 -0.591728 0)
(0.041913 -0.638372 0)
(0.0718853 -0.688932 0)
(0.110114 -0.74343 0)
(0.132712 -0.817406 0)
(0.105886 -0.8891 0)
(0.0464382 -0.906264 0)
(0.000573718 -0.873032 0)
(-0.00164576 -0.802489 0)
(-0.00614377 -0.724177 0)
(-0.00423305 -0.694856 0)
(0.00170792 -0.696641 0)
(0.00272312 -0.729676 0)
(-0.00167155 -0.808576 0)
(-0.00524294 -0.876737 0)
(-0.0579506 -0.907649 0)
(-0.112536 -0.88821 0)
(-0.139077 -0.821453 0)
(-0.113282 -0.748034 0)
(-0.0744011 -0.697358 0)
(-0.0437274 -0.648794 0)
(-0.0196345 -0.598907 0)
(0.0106604 -0.560875 0)
(0.0335003 -0.532264 0)
(0.0505537 -0.527457 0)
(0.0284684 -0.448661 0)
(-0.00604551 -0.402467 0)
(-0.0299203 -0.481926 0)
(-0.0157374 -0.513507 0)
(0.00364343 -0.546137 0)
(0.0297821 -0.584912 0)
(0.0602233 -0.624942 0)
(0.0981704 -0.678672 0)
(0.120279 -0.722295 0)
(0.156394 -0.78486 0)
(0.141249 -0.875872 0)
(0.082699 -0.890867 0)
(0.0251437 -0.858579 0)
(0.010238 -0.793286 0)
(0.000996105 -0.717285 0)
(-0.000599238 -0.690121 0)
(-0.00143899 -0.691623 0)
(-0.00335811 -0.722445 0)
(-0.0142853 -0.799768 0)
(-0.0322567 -0.861118 0)
(-0.0945885 -0.893228 0)
(-0.148438 -0.874503 0)
(-0.153438 -0.786624 0)
(-0.12333 -0.733355 0)
(-0.101121 -0.68551 0)
(-0.0641738 -0.632738 0)
(-0.0327972 -0.590969 0)
(-0.00526208 -0.5507 0)
(0.0163145 -0.514489 0)
(0.0257971 -0.479825 0)
(0.0013013 -0.395862 0)
(-0.00558891 -0.376422 0)
(-0.0273023 -0.456346 0)
(-0.00692677 -0.483538 0)
(0.0206328 -0.524287 0)
(0.0497226 -0.567407 0)
(0.0791894 -0.614864 0)
(0.10704 -0.662796 0)
(0.141699 -0.707916 0)
(0.171187 -0.772558 0)
(0.146803 -0.83922 0)
(0.0930277 -0.865773 0)
(0.0340931 -0.836473 0)
(0.0180106 -0.775274 0)
(0.0074012 -0.705772 0)
(0.00141628 -0.681321 0)
(-0.00290371 -0.682707 0)
(-0.0093441 -0.710508 0)
(-0.0217718 -0.781746 0)
(-0.0417972 -0.839581 0)
(-0.104219 -0.867739 0)
(-0.154029 -0.840785 0)
(-0.174624 -0.775929 0)
(-0.142422 -0.713742 0)
(-0.110424 -0.671912 0)
(-0.0809879 -0.621424 0)
(-0.0527779 -0.574585 0)
(-0.0236355 -0.52911 0)
(0.00438173 -0.484288 0)
(0.0252488 -0.449078 0)
(0.00500238 -0.364908 0)
(0.00237729 -0.33566 0)
(-0.0133155 -0.42093 0)
(0.00602975 -0.467642 0)
(0.0337739 -0.512118 0)
(0.0643197 -0.553669 0)
(0.0943737 -0.601539 0)
(0.127494 -0.64552 0)
(0.154875 -0.699508 0)
(0.173092 -0.738527 0)
(0.174231 -0.81062 0)
(0.118955 -0.836285 0)
(0.0534789 -0.80923 0)
(0.0286263 -0.756157 0)
(0.0123381 -0.691248 0)
(0.00331396 -0.667647 0)
(-0.004219 -0.669042 0)
(-0.0137677 -0.695723 0)
(-0.03225 -0.762176 0)
(-0.0601235 -0.812003 0)
(-0.126323 -0.837925 0)
(-0.1747 -0.807995 0)
(-0.173348 -0.745655 0)
(-0.158004 -0.706951 0)
(-0.128636 -0.651092 0)
(-0.098404 -0.608546 0)
(-0.0671667 -0.559385 0)
(-0.0366276 -0.516712 0)
(-0.00773548 -0.469824 0)
(0.0130366 -0.417579 0)
(-0.00290632 -0.327644 0)
(0.00318926 -0.303284 0)
(-0.00980462 -0.393958 0)
(0.0181535 -0.448175 0)
(0.0489928 -0.495097 0)
(0.0807831 -0.540425 0)
(0.109132 -0.582497 0)
(0.142194 -0.632872 0)
(0.161189 -0.67266 0)
(0.192089 -0.720523 0)
(0.182921 -0.789162 0)
(0.137118 -0.812625 0)
(0.0663754 -0.78651 0)
(0.0340257 -0.735092 0)
(0.0153304 -0.672191 0)
(0.00428241 -0.650876 0)
(-0.00557996 -0.652356 0)
(-0.017424 -0.676868 0)
(-0.0383927 -0.741434 0)
(-0.074375 -0.789172 0)
(-0.145406 -0.814059 0)
(-0.187259 -0.792145 0)
(-0.191145 -0.724823 0)
(-0.163178 -0.679399 0)
(-0.145645 -0.639842 0)
(-0.110649 -0.588737 0)
(-0.0836842 -0.545049 0)
(-0.0517242 -0.498254 0)
(-0.020948 -0.449566 0)
(0.00855675 -0.390794 0)
(-0.00423186 -0.293935 0)
(0.00807106 -0.26959 0)
(-0.000980885 -0.371145 0)
(0.0294784 -0.432062 0)
(0.0624665 -0.480962 0)
(0.0942149 -0.524264 0)
(0.125066 -0.567443 0)
(0.151533 -0.609438 0)
(0.177978 -0.654852 0)
(0.190686 -0.699045 0)
(0.187423 -0.753485 0)
(0.143348 -0.779624 0)
(0.0756037 -0.755017 0)
(0.0392784 -0.710895 0)
(0.01776 -0.65178 0)
(0.00504727 -0.630843 0)
(-0.0067346 -0.632209 0)
(-0.0205779 -0.655817 0)
(-0.0430371 -0.715379 0)
(-0.0802818 -0.756282 0)
(-0.146215 -0.779889 0)
(-0.188114 -0.754134 0)
(-0.193369 -0.705605 0)
(-0.180252 -0.659921 0)
(-0.152715 -0.615034 0)
(-0.128001 -0.57245 0)
(-0.0965858 -0.529096 0)
(-0.0650844 -0.483968 0)
(-0.0321266 -0.432875 0)
(-0.00156879 -0.367881 0)
(-0.00956022 -0.260057 0)
(0.0149851 -0.236158 0)
(0.00854474 -0.347779 0)
(0.0415852 -0.415481 0)
(0.075695 -0.466823 0)
(0.108602 -0.506917 0)
(0.136349 -0.547526 0)
(0.163845 -0.589789 0)
(0.182712 -0.63037 0)
(0.200401 -0.673954 0)
(0.197492 -0.725685 0)
(0.155814 -0.748051 0)
(0.0844543 -0.723054 0)
(0.0426116 -0.682585 0)
(0.0195044 -0.627838 0)
(0.00546431 -0.608715 0)
(-0.00768187 -0.609937 0)
(-0.0231906 -0.631243 0)
(-0.0468576 -0.685379 0)
(-0.0906629 -0.725465 0)
(-0.161974 -0.749125 0)
(-0.199931 -0.72793 0)
(-0.200856 -0.677888 0)
(-0.184363 -0.638216 0)
(-0.16645 -0.596003 0)
(-0.137888 -0.553071 0)
(-0.110742 -0.511114 0)
(-0.0780666 -0.46996 0)
(-0.0438232 -0.415659 0)
(-0.0112923 -0.344095 0)
(-0.0160289 -0.226471 0)
(0.0192051 -0.203153 0)
(0.0186675 -0.32651 0)
(0.0528468 -0.40261 0)
(0.0885165 -0.45179 0)
(0.121084 -0.491696 0)
(0.148505 -0.526699 0)
(0.173763 -0.565786 0)
(0.190425 -0.607921 0)
(0.202563 -0.645748 0)
(0.198801 -0.695139 0)
(0.161205 -0.716395 0)
(0.0914137 -0.691935 0)
(0.0452547 -0.652299 0)
(0.0209429 -0.601178 0)
(0.0059138 -0.582734 0)
(-0.00792438 -0.583635 0)
(-0.0244076 -0.603461 0)
(-0.049099 -0.652974 0)
(-0.0972403 -0.694356 0)
(-0.166203 -0.716765 0)
(-0.200993 -0.697067 0)
(-0.2049 -0.651605 0)
(-0.19278 -0.612492 0)
(-0.175017 -0.571849 0)
(-0.15022 -0.532188 0)
(-0.122755 -0.495618 0)
(-0.0904516 -0.454494 0)
(-0.0549564 -0.404251 0)
(-0.0202805 -0.324502 0)
(-0.0194857 -0.19484 0)
(0.0261642 -0.169642 0)
(0.0306425 -0.3069 0)
(0.066715 -0.388612 0)
(0.102355 -0.438521 0)
(0.134123 -0.471489 0)
(0.160791 -0.503949 0)
(0.181683 -0.540747 0)
(0.196274 -0.577969 0)
(0.205951 -0.620159 0)
(0.200194 -0.663184 0)
(0.165576 -0.678788 0)
(0.0956821 -0.657255 0)
(0.0462034 -0.618758 0)
(0.0211439 -0.572796 0)
(0.00618842 -0.555465 0)
(-0.00663763 -0.556072 0)
(-0.0226545 -0.574447 0)
(-0.0492911 -0.618845 0)
(-0.101769 -0.659186 0)
(-0.170649 -0.68 0)
(-0.202543 -0.666034 0)
(-0.207903 -0.625496 0)
(-0.198308 -0.584746 0)
(-0.18279 -0.546068 0)
(-0.161434 -0.50876 0)
(-0.135285 -0.475439 0)
(-0.103596 -0.441373 0)
(-0.068659 -0.389401 0)
(-0.0330572 -0.304571 0)
(-0.0275018 -0.161342 0)
(0.0365815 -0.141019 0)
(0.0448887 -0.29345 0)
(0.0816842 -0.378237 0)
(0.116342 -0.422618 0)
(0.146857 -0.452294 0)
(0.170007 -0.479318 0)
(0.188746 -0.511518 0)
(0.200228 -0.552002 0)
(0.206123 -0.591581 0)
(0.199311 -0.630306 0)
(0.167212 -0.64311 0)
(0.0991007 -0.622698 0)
(0.0475278 -0.583551 0)
(0.0216351 -0.541367 0)
(0.00701075 -0.524458 0)
(-0.00449144 -0.524769 0)
(-0.0197696 -0.542554 0)
(-0.049337 -0.584837 0)
(-0.105662 -0.623888 0)
(-0.172761 -0.644809 0)
(-0.202497 -0.632657 0)
(-0.208188 -0.596398 0)
(-0.201253 -0.559098 0)
(-0.188895 -0.518953 0)
(-0.170128 -0.484089 0)
(-0.146923 -0.455409 0)
(-0.11658 -0.42493 0)
(-0.0820894 -0.379685 0)
(-0.0464979 -0.293245 0)
(-0.0375829 -0.134774 0)
(0.0476737 -0.127468 0)
(0.0662131 -0.280152 0)
(0.0983355 -0.363616 0)
(0.129627 -0.404877 0)
(0.157029 -0.428639 0)
(0.17944 -0.450104 0)
(0.193644 -0.483047 0)
(0.201144 -0.520313 0)
(0.205275 -0.558529 0)
(0.198413 -0.594343 0)
(0.167073 -0.605237 0)
(0.0994293 -0.58478 0)
(0.0474008 -0.549101 0)
(0.0216351 -0.510351 0)
(0.0082016 -0.493454 0)
(-0.00176346 -0.493455 0)
(-0.0160162 -0.51081 0)
(-0.0468438 -0.550747 0)
(-0.104816 -0.58518 0)
(-0.171889 -0.60675 0)
(-0.200656 -0.597485 0)
(-0.206975 -0.564737 0)
(-0.202369 -0.527155 0)
(-0.192759 -0.489504 0)
(-0.177939 -0.456088 0)
(-0.156681 -0.432022 0)
(-0.129027 -0.407365 0)
(-0.0978895 -0.365272 0)
(-0.0659692 -0.280976 0)
(-0.0484306 -0.124172 0)
(0.0661125 -0.138386 0)
(0.088048 -0.277779 0)
(0.115288 -0.351959 0)
(0.142349 -0.386609 0)
(0.167527 -0.404432 0)
(0.186302 -0.421619 0)
(0.196693 -0.449185 0)
(0.201943 -0.488586 0)
(0.203702 -0.528099 0)
(0.195757 -0.559667 0)
(0.166302 -0.566541 0)
(0.0992096 -0.545524 0)
(0.0467614 -0.513491 0)
(0.0214191 -0.477402 0)
(0.00955006 -0.460792 0)
(0.000566755 -0.460293 0)
(-0.0127875 -0.476113 0)
(-0.0426648 -0.511398 0)
(-0.100494 -0.544917 0)
(-0.169393 -0.56707 0)
(-0.197335 -0.562298 0)
(-0.204926 -0.533318 0)
(-0.201935 -0.496513 0)
(-0.194802 -0.457172 0)
(-0.183996 -0.426157 0)
(-0.165752 -0.407112 0)
(-0.140882 -0.38802 0)
(-0.11342 -0.352622 0)
(-0.0870403 -0.278128 0)
(-0.0660787 -0.136979 0)
(0.0761615 -0.178147 0)
(0.0974246 -0.282024 0)
(0.127424 -0.338366 0)
(0.151078 -0.364649 0)
(0.173439 -0.375675 0)
(0.190145 -0.386927 0)
(0.196793 -0.415116 0)
(0.200255 -0.455314 0)
(0.201798 -0.492975 0)
(0.194794 -0.521675 0)
(0.168008 -0.526371 0)
(0.100967 -0.50857 0)
(0.0454718 -0.476959 0)
(0.0194328 -0.443918 0)
(0.00951206 -0.428216 0)
(0.00237168 -0.427644 0)
(-0.00878594 -0.44172 0)
(-0.0375606 -0.472082 0)
(-0.0969624 -0.506205 0)
(-0.16734 -0.526057 0)
(-0.194166 -0.524424 0)
(-0.20138 -0.499154 0)
(-0.199343 -0.46378 0)
(-0.19392 -0.423578 0)
(-0.186482 -0.392519 0)
(-0.171122 -0.377996 0)
(-0.14905 -0.365735 0)
(-0.125065 -0.338199 0)
(-0.0960369 -0.280396 0)
(-0.0756009 -0.173816 0)
(0.0694259 -0.219525 0)
(0.0983325 -0.289039 0)
(0.13183 -0.326403 0)
(0.154753 -0.343011 0)
(0.176274 -0.346101 0)
(0.190939 -0.354366 0)
(0.19529 -0.379245 0)
(0.19929 -0.421056 0)
(0.20048 -0.458534 0)
(0.193885 -0.483064 0)
(0.167395 -0.485573 0)
(0.0992765 -0.465514 0)
(0.0423468 -0.434927 0)
(0.0155012 -0.408585 0)
(0.00730389 -0.39444 0)
(0.00319008 -0.39416 0)
(-0.00424634 -0.407084 0)
(-0.0308611 -0.433107 0)
(-0.0899431 -0.460612 0)
(-0.163043 -0.483485 0)
(-0.191842 -0.483807 0)
(-0.198771 -0.463638 0)
(-0.197167 -0.429633 0)
(-0.191746 -0.388543 0)
(-0.186702 -0.358787 0)
(-0.173391 -0.347913 0)
(-0.152568 -0.343021 0)
(-0.129302 -0.325058 0)
(-0.0971608 -0.285122 0)
(-0.0696166 -0.210688 0)
(0.0503539 -0.259883 0)
(0.0909256 -0.301036 0)
(0.128467 -0.314964 0)
(0.152719 -0.319939 0)
(0.173558 -0.314614 0)
(0.188323 -0.320344 0)
(0.193316 -0.343482 0)
(0.199395 -0.387075 0)
(0.201097 -0.422719 0)
(0.194449 -0.442474 0)
(0.167202 -0.442629 0)
(0.0968789 -0.423346 0)
(0.0397473 -0.395826 0)
(0.0135404 -0.37396 0)
(0.0063869 -0.358079 0)
(0.00290257 -0.35787 0)
(-0.00224448 -0.371358 0)
(-0.0270802 -0.390906 0)
(-0.0845503 -0.418326 0)
(-0.159208 -0.439034 0)
(-0.190281 -0.442209 0)
(-0.19731 -0.42749 0)
(-0.195789 -0.396009 0)
(-0.189174 -0.353248 0)
(-0.183969 -0.324412 0)
(-0.171033 -0.31573 0)
(-0.150767 -0.319259 0)
(-0.126347 -0.31255 0)
(-0.0905515 -0.294706 0)
(-0.0513027 -0.247902 0)
(0.0423838 -0.284987 0)
(0.0809339 -0.312006 0)
(0.118458 -0.303744 0)
(0.144802 -0.296163 0)
(0.166088 -0.283799 0)
(0.184232 -0.286983 0)
(0.193276 -0.311231 0)
(0.202048 -0.354723 0)
(0.203536 -0.387079 0)
(0.196318 -0.400968 0)
(0.165938 -0.398596 0)
(0.0944551 -0.378733 0)
(0.0388047 -0.352727 0)
(0.0147157 -0.330859 0)
(0.00838337 -0.31989 0)
(0.00279148 -0.319314 0)
(-0.00347868 -0.328832 0)
(-0.0261319 -0.349115 0)
(-0.080359 -0.372955 0)
(-0.154582 -0.393571 0)
(-0.190358 -0.399371 0)
(-0.197928 -0.390663 0)
(-0.197076 -0.363259 0)
(-0.188741 -0.321211 0)
(-0.180245 -0.291178 0)
(-0.164186 -0.284233 0)
(-0.143414 -0.295092 0)
(-0.117324 -0.300767 0)
(-0.0807745 -0.304685 0)
(-0.0423343 -0.27248 0)
(0.0450933 -0.296226 0)
(0.0726621 -0.31256 0)
(0.103715 -0.290982 0)
(0.131662 -0.273359 0)
(0.155857 -0.256411 0)
(0.181046 -0.257042 0)
(0.196656 -0.284785 0)
(0.207646 -0.32542 0)
(0.208576 -0.351792 0)
(0.200888 -0.3598 0)
(0.167511 -0.354412 0)
(0.0966363 -0.334154 0)
(0.0409432 -0.30885 0)
(0.014659 -0.287632 0)
(0.00729899 -0.279283 0)
(0.00321479 -0.278922 0)
(-0.00291002 -0.285536 0)
(-0.0270804 -0.304463 0)
(-0.081866 -0.328149 0)
(-0.153826 -0.34836 0)
(-0.193429 -0.357155 0)
(-0.201619 -0.354095 0)
(-0.201662 -0.332766 0)
(-0.192007 -0.294141 0)
(-0.177868 -0.260877 0)
(-0.154543 -0.255154 0)
(-0.130893 -0.271211 0)
(-0.103796 -0.28748 0)
(-0.0736404 -0.306216 0)
(-0.0455671 -0.284502 0)
(0.0452028 -0.298877 0)
(0.0587981 -0.297586 0)
(0.0890875 -0.273445 0)
(0.118202 -0.253251 0)
(0.146476 -0.238018 0)
(0.179498 -0.236609 0)
(0.202355 -0.265453 0)