/*--------------------------------*- C++ -*----------------------------------*\
| =========                 |                                                 |
| \\      /  F ield         | OpenFOAM: The Open Source CFD Toolbox           |
|  \\    /   O peration     | Version:  v1606+                                |
|   \\  /    A nd           | Web:      www.OpenFOAM.com                      |
|    \\/     M anipulation  |                                                 |
\*---------------------------------------------------------------------------*/
FoamFile
{
    version     2.0;
    format      ascii;
    class       volScalarField;
    location    "0.45";
    object      p;
}
// * * * * * * * * * * * * * * * * * * * * * * * * * * * * * * * * * * * * * //

dimensions      [1 -1 -2 0 0 0 0];

internalField   nonuniform List<scalar> 
6000
(
107905
107905
107906
107906
107906
107905
107903
107900
107897
107893
107889
107885
107883
107881
107880
107880
107881
107883
107886
107890
107893
107897
107901
107903
107905
107906
107906
107906
107905
107905
107849
107850
107852
107855
107857
107857
107856
107852
107848
107842
107836
107832
107828
107826
107825
107825
107826
107829
107832
107837
107843
107849
107853
107856
107857
107857
107855
107853
107850
107849
107816
107818
107822
107826
107829
107830
107828
107825
107819
107813
107806
107801
107797
107795
107794
107794
107795
107797
107801
107807
107814
107820
107826
107829
107830
107829
107827
107822
107819
107816
107781
107784
107789
107794
107795
107793
107789
107784
107779
107772
107766
107760
107756
107754
107754
107754
107755
107757
107761
107767
107774
107780
107786
107791
107794
107796
107794
107789
107784
107780
107745
107749
107753
107753
107746
107736
107726
107717
107710
107703
107698
107694
107691
107690
107690
107690
107691
107692
107695
107700
107706
107712
107719
107728
107738
107747
107754
107753
107749
107745
107703
107704
107699
107681
107661
107643
107626
107611
107598
107587
107577
107569
107570
107572
107574
107574
107573
107572
107572
107580
107591
107601
107614
107630
107646
107664
107683
107700
107705
107703
107636
107628
107602
107574
107552
107531
107509
107484
107460
107439
107419
107408
107408
107412
107417
107417
107414
107410
107411
107424
107444
107466
107490
107514
107535
107556
107578
107606
107631
107639
107521
107503
107477
107452
107432
107407
107377
107357
107343
107329
107316
107308
107303
107300
107301
107301
107301
107304
107310
107319
107333
107347
107362
107383
107414
107438
107458
107482
107509
107527
107379
107363
107339
107314
107295
107288
107287
107289
107289
107285
107279
107273
107268
107266
107265
107265
107266
107269
107274
107281
107287
107291
107291
107289
107291
107300
107322
107346
107369
107385
107248
107223
107199
107193
107201
107217
107235
107250
107261
107264
107263
107259
107256
107254
107253
107253
107255
107256
107260
107264
107265
107261
107250
107235
107217
107202
107195
107204
107229
107252
107134
107115
107114
107127
107147
107170
107193
107214
107231
107243
107249
107248
107245
107244
107243
107243
107244
107245
107249
107249
107243
107230
107213
107191
107168
107145
107124
107112
107116
107138
107065
107062
107071
107087
107108
107131
107154
107176
107197
107217
107232
107237
107234
107233
107232
107232
107233
107234
107237
107232
107215
107195
107173
107151
107128
107104
107082
107066
107058
107064
107028
107033
107041
107054
107073
107094
107116
107137
107161
107185
107211
107224
107223
107222
107221
107221
107222
107223
107223
107209
107183
107158
107134
107112
107091
107069
107049
107036
107028
107024
107005
107010
107014
107023
107040
107060
107079
107100
107123
107150
107183
107208
107212
107210
107210
107210
107210
107213
107207
107179
107146
107119
107096
107076
107055
107035
107018
107009
107005
107000
106985
106987
106988
106993
107006
107025
107043
107061
107082
107110
107146
107188
107199
107198
107198
107198
107199
107200
107185
107141
107106
107078
107057
107038
107020
107000
106987
106983
106982
106980
106964
106964
106964
106964
106971
106987
107001
107017
107037
107063
107099
107149
107179
107183
107183
107183
107183
107177
107142
107094
107059
107032
107012
106996
106981
106965
106960
106960
106960
106960
106943
106943
106942
106939
106937
106940
106948
106964
106986
107012
107041
107079
107128
107151
107155
107155
107149
107121
107071
107036
107007
106981
106959
106943
106935
106933
106936
106939
106940
106940
106923
106922
106920
106913
106901
106886
106878
106901
106930
106957
106972
106978
107014
107054
107068
107067
107050
107007
106973
106969
106953
106925
106894
106876
106884
106898
106911
106917
106920
106920
106897
106895
106890
106878
106855
106841
106839
106851
106876
106907
106916
106910
106913
106921
106927
106926
106920
106911
106908
106915
106903
106872
106847
106838
106839
106853
106875
106887
106892
106893
106860
106856
106848
106838
106827
106825
106826
106830
106846
106873
106881
106882
106879
106880
106880
106880
106879
106879
106881
106880
106871
106843
106829
106826
106825
106827
106836
106845
106852
106857
106826
106823
106821
106819
106818
106820
106821
106823
106831
106850
106863
106868
106868
106868
106868
106868
106868
106868
106868
106862
106849
106831
106823
106822
106820
106819
106818
106820
106822
106825
106812
106812
106812
106813
106815
106816
106817
106818
106823
106836
106851
106857
106859
106859
106860
106860
106859
106859
106857
106851
106836
106823
106818
106817
106816
106815
106813
106813
106812
106812
106808
106809
106809
106810
106811
106812
106813
106814
106818
106828
106841
106847
106850
106851
106851
106851
106851
106850
106848
106841
106828
106818
106814
106814
106813
106812
106810
106810
106809
106809
106806
106806
106806
106807
106808
106809
106810
106810
106813
106821
106833
106839
106841
106842
106843
106843
106842
106841
106839
106833
106821
106813
106810
106810
106809
106808
106807
106807
106806
106806
106803
106803
106803
106804
106804
106805
106806
106807
106808
106815
106825
106831
106833
106834
106834
106834
106834
106833
106831
106825
106815
106808
106807
106806
106805
106805
106804
106804
106803
106803
106800
106800
106800
106800
106801
106802
106802
106803
106804
106809
106818
106823
106825
106826
106826
106826
106826
106825
106823
106818
106809
106804
106803
106803
106802
106801
106801
106800
106800
106800
106796
106796
106797
106797
106798
106798
106799
106799
106800
106804
106812
106816
106817
106818
106819
106819
106818
106818
106816
106812
106804
106801
106800
106799
106798
106798
106797
106797
106797
106797
106793
106793
106793
106794
106794
106794
106795
106796
106796
106800
106806
106809
106810
106811
106811
106811
106811
106810
106809
106806
106800
106797
106796
106795
106795
106794
106794
106794
106793
106793
106789
106789
106790
106790
106790
106791
106791
106792
106792
106795
106800
106802
106803
106804
106804
106804
106804
106803
106802
106800
106795
106793
106792
106792
106791
106791
106790
106790
106790
106790
106785
106785
106786
106786
106786
106787
106787
106788
106788
106790
106794
106796
106796
106797
106797
106797
106797
106796
106796
106794
106791
106789
106788
106788
106787
106787
106787
106786
106786
106786
106781
106781
106782
106782
106782
106783
106783
106783
106784
106785
106788
106789
106790
106790
106790
106790
106790
106789
106789
106788
106786
106784
106784
106783
106783
106783
106783
106782
106782
106782
106777
106777
106778
106778
106778
106778
106778
106779
106779
106780
106782
106782
106782
106783
106783
106783
106782
106782
106782
106782
106781
106779
106779
106779
106779
106779
106778
106778
106778
106778
106773
106773
106773
106773
106773
106774
106774
106774
106774
106775
106775
106775
106775
106775
106775
106775
106775
106775
106776
106776
106775
106775
106775
106774
106774
106774
106774
106774
106774
106774
106769
106769
106769
106769
106769
106769
106769
106769
106769
106769
106769
106768
106768
106768
106768
106768
106768
106768
106769
106769
106770
106770
106769
106769
106769
106769
106769
106769
106769
106769
106764
106764
106764
106764
106764
106763
106763
106763
106763
106763
106762
106761
106761
106760
106759
106759
106760
106761
106761
106762
106763
106764
106764
106764
106764
106764
106765
106765
106765
106765
106759
106759
106759
106758
106758
106758
106757
106757
106757
106756
106755
106753
106753
106752
106752
106752
106752
106753
106753
106755
106757
106758
106758
106758
106758
106759
106759
106760
106760
106760
106754
106754
106753
106752
106752
106751
106751
106750
106750
106748
106746
106745
106745
106744
106744
106744
106744
106745
106745
106747
106749
106751
106751
106752
106752
106753
106753
106754
106754
106755
106748
106747
106746
106745
106745
106744
106744
106743
106742
106740
106737
106735
106735
106735
106735
106735
106735
106735
106735
106737
106740
106743
106744
106745
106745
106746
106746
106747
106748
106749
106740
106740
106738
106737
106737
106736
106736
106735
106733
106729
106725
106724
106724
106724
106724
106724
106724
106724
106724
106726
106729
106733
106736
106737
106737
106738
106738
106739
106740
106741
106731
106730
106729
106728
106728
106727
106727
106725
106721
106716
106711
106710
106710
106710
106710
106710
106710
106709
106709
106711
106716
106721
106726
106728
106728
106729
106729
106730
106731
106732
106720
106720
106719
106718
106717
106717
106716
106713
106706
106699
106693
106691
106691
106692
106692
106692
106692
106691
106691
106693
106698
106706
106713
106717
106719
106718
106719
106719
106720
106721
106708
106707
106707
106706
106706
106706
106703
106696
106686
106677
106671
106668
106668
106668
106668
106668
106668
106667
106667
106670
106676
106685
106695
106703
106707
106707
106707
106708
106708
106708
106695
106694
106694
106694
106694
106693
106687
106675
106660
106649
106641
106638
106637
106637
106637
106637
106636
106636
106636
106640
106647
106658
106672
106686
106693
106695
106695
106695
106695
106695
106682
106682
106682
106682
106682
106677
106665
106646
106628
106614
106605
106600
106598
106597
106596
106596
106595
106596
106598
106602
106611
106624
106642
106662
106676
106682
106683
106682
106682
106682
106667
106667
106668
106668
106665
106654
106633
106607
106586
106570
106560
106553
106548
106546
106544
106544
106544
106545
106548
106554
106564
106579
106599
106626
106650
106664
106668
106668
106667
106666
106645
106647
106647
106645
106634
106611
106580
106551
106528
106512
106500
106491
106486
106482
106480
106479
106479
106481
106485
106492
106502
106517
106539
106567
106601
106628
106642
106646
106646
106644
106613
106614
106610
106599
106574
106539
106504
106476
106454
106437
106425
106417
106411
106407
106405
106404
106404
106406
106410
106416
106427
106441
106462
106489
106523
106560
106589
106604
106610
106609
106558
106554
106540
106514
106479
106443
106412
106387
106367
106352
106341
106334
106328
106324
106322
106321
106321
106322
106326
106332
106342
106355
106372
106395
106424
106459
106496
106525
106542
106548
106461
106451
106429
106399
106366
106335
106309
106289
106273
106261
106252
106245
106240
106236
106234
106233
106233
106234
106238
106243
106251
106261
106275
106293
106315
106343
106375
106405
106427
106438
106333
106324
106302
106273
106244
106219
106200
106186
106175
106166
106159
106153
106148
106145
106143
106141
106142
106143
106146
106150
106156
106164
106174
106185
106200
106219
106245
106272
106293
106301
106205
106193
106170
106143
106118
106100
106089
106081
106075
106069
106064
106059
106055
106052
106049
106048
106048
106049
106051
106055
106060
106065
106071
106077
106083
106092
106112
106137
106159
106170
106077
106062
106039
106013
105995
105987
105983
105980
105978
105974
105969
105965
105960
105957
105954
105952
105951
105952
105954
105957
105962
105966
105970
105972
105972
105973
105980
106002
106024
106039
105947
105932
105909
105888
105883
105888
105889
105887
105884
105880
105875
105870
105864
105860
105856
105854
105853
105853
105854
105857
105862
105867
105871
105872
105870
105864
105857
105869
105890
105905
105819
105806
105788
105785
105791
105801
105802
105799
105794
105787
105780
105773
105767
105761
105757
105754
105751
105751
105752
105754
105758
105764
105771
105775
105774
105767
105752
105748
105759
105774
105700
105689
105687
105697
105710
105715
105716
105711
105702
105692
105683
105675
105667
105660
105655
105651
105647
105646
105645
105647
105650
105657
105665
105674
105680
105676
105664
105650
105645
105652
105593
105594
105603
105615
105627
105627
105624
105616
105605
105593
105583
105573
105564
105557
105551
105545
105541
105538
105536
105536
105538
105543
105552
105564
105577
105584
105581
105567
105551
105547
105498
105507
105524
105535
105539
105533
105524
105515
105502
105490
105479
105468
105459
105451
105444
105438
105432
105428
105425
105422
105422
105425
105432
105444
105461
105479
105491
105484
105466
105457
105412
105421
105440
105446
105439
105429
105419
105408
105395
105383
105371
105361
105351
105343
105336
105329
105323
105317
105312
105307
105304
105303
105308
105318
105336
105358
105381
105392
105384
105375
105327
105337
105338
105334
105327
105318
105309
105298
105285
105273
105262
105251
105242
105233
105226
105219
105212
105206
105200
105193
105186
105181
105180
105187
105204
105228
105254
105280
105294
105288
105232
105229
105218
105215
105212
105206
105197
105185
105173
105161
105149
105139
105130
105122
105114
105108
105102
105096
105089
105081
105071
105060
105052
105052
105066
105092
105121
105149
105174
105182
105114
105102
105096
105099
105099
105093
105083
105071
105058
105046
105035
105025
105016
105008
105002
104996
104991
104987
104981
104973
104963
104949
104935
104926
104931
104952
104984
105014
105038
105055
104988
104983
104986
104991
104988
104979
104967
104954
104941
104929
104918
104909
104900
104893
104888
104883
104880
104877
104874
104870
104863
104852
104838
104826
104818
104823
104848
104879
104903
104918
104867
104872
104884
104884
104876
104863
104849
104836
104823
104811
104800
104791
104783
104777
104772
104769
104767
104766
104766
104767
104767
104764
104756
104745
104732
104723
104726
104749
104773
104785
104762
104767
104780
104774
104760
104745
104730
104716
104703
104691
104680
104671
104664
104658
104654
104651
104651
104652
104654
104659
104666
104673
104676
104670
104657
104643
104631
104633
104649
104662
104668
104674
104674
104660
104642
104625
104609
104595
104581
104569
104559
104550
104543
104538
104534
104533
104533
104534
104539
104546
104556
104571
104586
104591
104584
104570
104554
104539
104539
104548
104573
104577
104562
104541
104521
104503
104487
104472
104459
104447
104436
104428
104422
104417
104415
104413
104413
104416
104420
104428
104440
104457
104477
104497
104506
104497
104481
104466
104454
104451
104467
104460
104440
104419
104398
104380
104364
104349
104335
104323
104313
104306
104301
104298
104296
104295
104295
104296
104300
104308
104320
104337
104359
104383
104406
104416
104408
104395
104378
104369
104345
104332
104314
104294
104275
104257
104240
104224
104210
104198
104190
104185
104183
104181
104181
104180
104179
104179
104181
104186
104197
104213
104235
104260
104287
104311
104323
104317
104303
104294
104214
104202
104186
104168
104150
104132
104115
104098
104084
104074
104068
104066
104068
104070
104071
104070
104068
104065
104063
104065
104073
104087
104108
104134
104161
104188
104212
104224
104224
104215
104084
104075
104061
104044
104027
104008
103990
103972
103958
103950
103948
103952
103958
103963
103967
103967
103963
103958
103951
103947
103950
103961
103981
104006
104034
104063
104089
104111
104125
104124
103959
103952
103939
103923
103905
103885
103864
103846
103834
103830
103833
103843
103853
103862
103868
103869
103865
103857
103846
103837
103833
103838
103854
103879
103908
103937
103965
103990
104009
104017
103840
103833
103821
103805
103786
103763
103741
103725
103718
103721
103729
103742
103756
103767
103775
103777
103774
103765
103752
103739
103731
103729
103735
103755
103783
103814
103843
103869
103889
103902
103727
103720
103708
103691
103669
103645
103626
103619
103624
103632
103641
103653
103667
103679
103686
103690
103688
103681
103669
103657
103648
103640
103636
103642
103664
103694
103724
103750
103770
103783
103619
103613
103601
103582
103560
103540
103533
103538
103549
103559
103567
103575
103586
103596
103603
103606
103606
103602
103594
103585
103578
103569
103559
103552
103558
103580
103610
103636
103655
103666
103517
103511
103498
103481
103464
103459
103464
103473
103484
103492
103499
103503
103511
103517
103523
103526
103528
103527
103524
103518
103514
103506
103495
103483
103476
103481
103503
103529
103548
103558
103421
103415
103404
103393
103389
103397
103406
103414
103422
103428
103432
103435
103439
103442
103444
103447
103450
103454
103456
103455
103452
103444
103434
103424
103414
103407
103412
103431
103448
103457
103331
103325
103321
103321
103330
103342
103352
103358
103362
103366
103368
103369
103368
103366
103365
103366
103370
103377
103386
103391
103390
103383
103375
103366
103357
103349
103342
103348
103358
103366
103247
103245
103250
103261
103277
103294
103302
103303
103304
103305
103305
103303
103296
103288
103283
103282
103285
103293
103306
103319
103323
103321
103316
103310
103303
103295
103288
103284
103280
103283
103174
103176
103187
103201
103222
103245
103255
103249
103246
103243
103240
103229
103214
103202
103194
103191
103193
103201
103214
103231
103244
103254
103255
103253
103249
103242
103237
103229
103215
103210
103108
103113
103126
103140
103160
103178
103189
103187
103182
103175
103160
103140
103121
103107
103098
103093
103094
103101
103112
103129
103148
103169
103185
103191
103189
103186
103181
103167
103148
103141
103046
103052
103064
103079
103091
103096
103101
103109
103103
103085
103061
103037
103018
103004
102994
102989
102989
102994
103005
103021
103041
103064
103089
103110
103119
103116
103107
103093
103079
103070
102983
102991
103001
103011
103011
103009
103013
103014
102999
102975
102950
102928
102909
102896
102886
102881
102880
102884
102893
102907
102927
102951
102977
103004
103024
103031
103023
103013
103006
102997
102918
102925
102931
102929
102924
102922
102920
102907
102885
102860
102836
102815
102799
102787
102778
102773
102772
102774
102780
102792
102810
102834
102860
102887
102912
102928
102932
102928
102925
102919
102845
102850
102848
102842
102835
102828
102815
102793
102768
102744
102722
102705
102693
102684
102678
102673
102671
102671
102673
102681
102695
102716
102743
102771
102797
102818
102832
102837
102837
102835
102764
102765
102759
102750
102740
102724
102704
102679
102653
102631
102615
102605
102599
102595
102592
102588
102585
102583
102582
102583
102589
102604
102627
102655
102683
102707
102727
102740
102746
102747
102679
102677
102668
102655
102638
102617
102593
102567
102544
102529
102522
102520
102520
102520
102518
102516
102513
102510
102506
102503
102502
102505
102520
102544
102572
102599
102622
102639
102652
102657
102593
102586
102573
102556
102535
102511
102485
102461
102447
102443
102444
102447
102449
102451
102450
102449
102446
102443
102439
102434
102429
102425
102427
102442
102467
102494
102519
102539
102555
102564
102503
102493
102477
102457
102434
102408
102384
102369
102367
102371
102375
102379
102382
102383
102384
102383
102380
102377
102374
102369
102363
102357
102351
102353
102369
102394
102420
102441
102457
102468
102408
102397
102381
102361
102336
102312
102296
102293
102298
102305
102309
102313
102315
102317
102317
102317
102315
102312
102309
102305
102299
102293
102286
102281
102284
102302
102325
102347
102362
102371
102312
102302
102288
102267
102245
102228
102224
102228
102235
102241
102245
102247
102249
102251
102251
102251
102250
102248
102245
102242
102238
102232
102225
102219
102215
102221
102237
102257
102271
102279
102219
102211
102197
102179
102164
102160
102164
102169
102174
102179
102182
102183
102184
102185
102185
102185
102185
102184
102183
102181
102178
102174
102168
102163
102158
102155
102160
102173
102186
102192
102131
102124
102112
102101
102099
102105
102109
102113
102116
102118
102119
102119
102119
102120
102120
102120
102120
102120
102120
102120
102119
102117
102114
102110
102106
102100
102096
102100
102106
102112
102048
102041
102036
102037
102045
102054
102059
102059
102058
102058
102057
102056
102055
102055
102055
102055
102055
102056
102057
102058
102059
102059
102060
102061
102057
102049
102041
102037
102035
102037
101970
101968
101973
101981
101992
102005
102011
102005
101999
101996
101994
101992
101991
101990
101990
101990
101991
101992
101993
101995
101997
101999
102005
102012
102010
102000
101990
101981
101973
101970
101904
101909
101918
101929
101940
101950
101955
101947
101938
101932
101929
101928
101927
101926
101926
101926
101927
101928
101929
101930
101932
101936
101946
101957
101958
101949
101939
101928
101918
101914
101850
101856
101866
101878
101886
101887
101884
101879
101871
101866
101864
101864
101864
101863
101863
101864
101865
101866
101866
101866
101867
101872
101882
101889
101893
101895
101888
101877
101868
101862
101798
101805
101814
101821
101820
101814
101809
101809
101804
101802
101802
101803
101803
101802
101802
101803
101804
101806
101807
101806
101806
101810
101814
101817
101822
101830
101833
101827
101818
101811
101745
101752
101755
101752
101746
101739
101738
101739
101741
101741
101743
101744
101743
101743
101743
101744
101745
101748
101750
101750
101749
101749
101749
101749
101750
101757
101764
101768
101766
101760
101689
101688
101683
101677
101671
101668
101671
101675
101680
101684
101686
101686
101684
101683
101683
101684
101686
101690
101693
101695
101694
101691
101688
101685
101681
101682
101689
101697
101703
101704
101618
101613
101607
101601
101597
101600
101607
101615
101622
101627
101627
101625
101623
101621
101621
101622
101624
101628
101633
101637
101638
101635
101629
101622
101615
101611
101613
101620
101627
101633
101538
101534
101529
101525
101528
101537
101547
101557
101564
101566
101564
101560
101557
101555
101555
101556
101558
101561
101566
101572
101576
101576
101571
101561
101552
101543
101538
101541
101547
101552
101457
101452
101450
101455
101464
101476
101487
101497
101500
101498
101494
101491
101488
101486
101486
101486
101488
101492
101496
101501
101507
101511
101509
101501
101491
101480
101470
101464
101465
101470
101376
101376
101381
101391
101404
101416
101426
101431
101430
101427
101423
101420
101417
101416
101415
101416
101418
101421
101424
101429
101434
101438
101440
101437
101429
101419
101408
101397
101391
101390
101311
101314
101323
101334
101345
101354
101359
101360
101358
101356
101352
101349
101347
101345
101345
101345
101347
101350
101353
101357
101361
101365
101366
101366
101364
101358
101348
101339
101330
101326
101259
101264
101271
101279
101285
101288
101289
101289
101288
101286
101283
101280
101278
101276
101275
101276
101278
101280
101284
101288
101291
101294
101295
101294
101294
101293
101290
101284
101278
101272
101209
101214
101218
101220
101220
101219
101219
101220
101220
101218
101215
101212
101209
101208
101207
101207
101209
101212
101215
101219
101223
101225
101225
101223
101223
101225
101227
101227
101225
101220
101157
101158
101157
101154
101151
101150
101151
101152
101153
101151
101147
101144
101142
101140
101139
101140
101141
101143
101147
101151
101155
101157
101156
101154
101153
101154
101157
101161
101164
101164
101094
101090
101087
101084
101082
101082
101084
101085
101085
101083
101079
101076
101074
101072
101071
101072
101073
101075
101078
101081
101086
101088
101088
101087
101084
101084
101085
101088
101091
101097
101018
101015
101015
101013
101013
101016
101018
101018
101017
101013
101009
101007
101005
101004
101004
101004
101004
101006
101008
101011
101015
101018
101020
101021
101018
101015
101014
101015
101014
101018
100942
100942
100944
100945
100947
100951
100951
100949
100945
100943
100941
100938
100937
100937
100936
100936
100937
100938
100939
100942
100944
100946
100950
100954
100954
100949
100945
100944
100942
100942
100871
100873
100875
100879
100884
100885
100881
100877
100874
100874
100873
100871
100870
100870
100870
100870
100870
100871
100872
100874
100874
100874
100877
100883
100887
100886
100881
100876
100875
100873
100808
100809
100811
100815
100817
100814
100808
100804
100804
100806
100807
100806
100805
100804
100805
100805
100806
100806
100807
100808
100807
100805
100805
100809
100815
100820
100818
100814
100811
100810
100746
100749
100751
100752
100747
100740
100735
100735
100737
100740
100741
100742
100741
100741
100741
100741
100742
100743
100743
100743
100741
100738
100736
100736
100741
100748
100754
100754
100751
100748
100685
100689
100687
100681
100672
100665
100663
100666
100670
100674
100677
100678
100679
100678
100678
100679
100680
100680
100679
100678
100675
100671
100667
100664
100666
100673
100682
100689
100690
100687
100624
100623
100615
100604
100596
100592
100594
100598
100604
100609
100614
100616
100617
100617
100616
100617
100618
100618
100617
100614
100610
100604
100599
100595
100594
100597
100605
100616
100623
100625
100555
100549
100539
100530
100526
100527
100529
100534
100539
100545
100550
100554
100555
100555
100554
100555
100556
100555
100554
100550
100545
100540
100535
100531
100527
100527
100530
100539
100549
100555
100479
100473
100465
100462
100463
100465
100469
100472
100477
100481
100486
100490
100492
100493
100492
100492
100493
100492
100489
100486
100481
100477
100473
100469
100465
100463
100462
100465
100473
100479
100405
100402
100398
100399
100402
100405
100408
100412
100415
100418
100422
100425
100428
100430
100429
100430
100429
100427
100425
100421
100418
100415
100412
100409
100405
100402
100399
100398
100401
100405
100336
100337
100338
100339
100342
100345
100348
100350
100352
100354
100357
100360
100363
100366
100366
100366
100365
100362
100359
100356
100354
100352
100350
100348
100345
100342
100339
100338
100337
100336
100271
100274
100280
100280
100283
100285
100286
100287
100288
100290
100292
100295
100298
100301
100302
100302
100300
100297
100294
100292
100289
100288
100286
100285
100284
100282
100280
100279
100274
100271
100209
100212
100217
100219
100220
100221
100222
100223
100224
100226
100227
100229
100232
100234
100236
100236
100233
100231
100228
100226
100225
100223
100222
100221
100220
100219
100218
100216
100211
100208
100143
100146
100149
100152
100154
100156
100158
100159
100160
100161
100162
100163
100165
100167
100168
100168
100166
100164
100162
100161
100160
100159
100158
100156
100155
100153
100150
100148
100145
100142
100071
100069
100076
100081
100087
100091
100094
100096
100097
100097
100097
100097
100097
100098
100098
100098
100097
100097
100097
100096
100096
100096
100094
100093
100089
100085
100079
100074
100067
100068
100016
100016
100019
100022
100027
100032
100035
100037
100037
100037
100036
100035
100034
100033
100032
100032
100033
100034
100035
100035
100036
100036
100035
100034
100030
100026
100021
100018
100015
100015
100003
100003
100004
100004
100006
100007
100007
100008
100008
100008
100008
100007
100007
100007
100006
100006
100007
100007
100007
100007
100008
100008
100008
100007
100006
100005
100004
100004
100003
100003
100002
100002
100002
100002
100002
100002
100002
100002
100002
100002
100002
100002
100002
100002
100002
100002
100002
100002
100002
100002
100002
100002
100002
100002
100002
100002
100002
100002
100002
100002
100002
100002
100002
100002
100002
100002
100002
100002
100002
100002
100002
100002
100002
100002
100002
100002
100002
100002
100002
100002
100002
100002
100002
100002
100002
100002
100002
100002
100002
100002
100002
100002
100002
100002
100002
100002
100002
100002
100002
100002
100002
100002
100002
100002
100002
100002
100002
100002
100002
100002
100002
100002
100002
100002
100002
100002
100002
100002
100002
100002
100002
100002
100002
100002
100002
100002
100002
100002
100002
100002
100002
100002
100002
100002
100002
100002
100002
100002
100002
100002
100002
100002
100002
100002
100002
100002
100002
100002
100002
100002
100002
100002
100002
100002
100002
100002
100002
100002
100002
100002
100002
100002
100002
100002
100002
100002
100002
100002
100002
100002
100002
100002
100002
100002
100002
100002
100002
100002
100002
100002
100002
100002
100002
100002
100002
100002
100002
100002
100002
100002
100002
100002
100002
100002
100002
100002
100002
100002
100002
100002
100002
100002
100002
100002
100002
100002
100002
100002
100002
100002
100002
100002
100002
100002
100002
100002
100002
100002
100002
100002
100002
100002
100002
100002
100002
100002
100002
100002
100002
100002
100002
100002
100002
100002
100002
100002
100002
100002
100002
100002
100002
100002
100002
100002
100002
100002
100002
100002
100002
100002
100002
100002
100002
100002
100002
100002
100002
100002
100002
100002
100002
100002
100002
100002
100002
100002
100002
100002
100002
100002
100002
100002
100002
100002
100002
100002
100002
100002
100002
100002
100002
100002
100002
100002
100002
100002
100002
100002
100002
100002
100002
100002
100002
100002
100002
100002
100002
100002
100002
100002
100002
100002
100002
100002
100002
100002
100002
100002
100002
100002
100002
100002
100002
100002
100002
100002
100002
100002
100002
100002
100002
100002
100002
100002
100002
100002
100002
100002
100002
100002
100002
100002
100002
100002
100002
100002
100002
100002
100002
100002
100002
100002
100002
100002
100002
100002
100002
100002
100002
100002
100002
100002
100002
100002
100002
100002
100002
100002
100002
100002
100002
100002
100002
100002
100002
100002
100002
100002
100002
100002
100002
100002
100002
100002
100002
100002
100002
100002
100002
100002
100002
100002
100002
100002
100002
100002
100002
100002
100002
100002
100002
100002
100002
100002
100002
100002
100002
100002
100002
100002
100002
100002
100002
100002
100002
100002
100002
100002
100002
100002
100002
100002
100002
100002
100002
100002
100002
100002
100002
100002
100002
100002
100002
100002
100002
100002
100002
100002
100002
100002
100002
100002
100002
100002
100002
100002
100002
100002
100002
100002
100002
100002
100002