/*--------------------------------*- C++ -*----------------------------------*\
| =========                 |                                                 |
| \\      /  F ield         | OpenFOAM: The Open Source CFD Toolbox           |
|  \\    /   O peration     | Version:  v1606+                                |
|   \\  /    A nd           | Web:      www.OpenFOAM.com                      |
|    \\/     M anipulation  |                                                 |
\*---------------------------------------------------------------------------*/
FoamFile
{
    version     2.0;
    format      ascii;
    class       volScalarField;
    location    "0.45";
    object      Theta.particles;
}
// * * * * * * * * * * * * * * * * * * * * * * * * * * * * * * * * * * * * * //

dimensions      [0 2 -2 0 0 0 0];

internalField   nonuniform List<scalar> 
6000
(
0.0013944
0.000982566
0.000996754
0.000987544
0.000914867
0.000809609
0.000726583
0.000691153
0.000713498
0.000765523
0.000802616
0.000820483
0.000828259
0.000840162
0.000857631
0.000856405
0.000838979
0.000829261
0.000820593
0.000804326
0.000765933
0.000720083
0.000696986
0.000730625
0.000823315
0.00092293
0.000986156
0.000984191
0.000969578
0.00147787
0.000231697
0.000239991
0.000232305
0.000221167
0.000207711
0.000199177
0.00019596
0.00019906
0.000209839
0.000223311
0.000233367
0.0002388
0.000240665
0.000240943
0.000241668
0.000241567
0.000240678
0.000240031
0.000238566
0.000233136
0.000222826
0.000209741
0.000198758
0.000195478
0.000199402
0.000207563
0.000220502
0.000231803
0.000239957
0.000233555
0.000237323
0.000233129
0.000210592
0.000180979
0.000163593
0.000159615
0.000160505
0.000165845
0.000172388
0.000180638
0.000190204
0.000196506
0.000197202
0.000195464
0.000193335
0.000193237
0.00019506
0.000197417
0.000196226
0.000189464
0.000179866
0.000171296
0.00016494
0.000160005
0.00015941
0.0001638
0.000181258
0.000212027
0.000236258
0.000238655
0.000213389
0.00020873
0.000180304
0.000154414
0.000144223
0.000142167
0.000144751
0.000151813
0.000163549
0.000178303
0.000192407
0.000199071
0.000196954
0.000192784
0.000189832
0.00018979
0.000192237
0.000197029
0.000198293
0.000190978
0.000176868
0.000162414
0.000150793
0.000143862
0.000141884
0.000143983
0.000154223
0.000181443
0.000211173
0.000216274
0.000217615
0.000198757
0.000171529
0.000154264
0.000145519
0.000151341
0.000161342
0.000172038
0.000182125
0.000191776
0.000205106
0.000218376
0.000215043
0.000207097
0.000202258
0.000202204
0.000206426
0.000214992
0.00021712
0.000203042
0.000189848
0.000179941
0.00016928
0.000158499
0.000149233
0.000144506
0.000152746
0.000171393
0.000200752
0.000221014
0.000227541
0.000201714
0.000177423
0.000175804
0.000181438
0.000192337
0.000203362
0.000223663
0.00024727
0.000267587
0.000283677
0.000289671
0.000279443
0.000269356
0.000264489
0.000264259
0.000268399
0.000277975
0.000286583
0.000277828
0.000260943
0.000240129
0.000217777
0.000198703
0.000188111
0.000177975
0.000172169
0.00017536
0.000202339
0.000232158
0.000233355
0.000227583
0.000218138
0.000213139
0.000223958
0.000244272
0.000325194
0.000473281
0.000603482
0.000744104
0.000844672
0.000767434
0.000685169
0.000547639
0.000483326
0.000481189
0.000539173
0.000676173
0.000754374
0.000819819
0.000703332
0.000573015
0.000446687
0.000302485
0.000234132
0.000217683
0.000208036
0.000213713
0.000224356
0.000237402
0.000253192
0.00025435
0.000248583
0.000259854
0.00035175
0.00056355
0.000738361
0.000683807
0.000627337
0.000671703
0.000820338
0.000883793
0.000951038
0.000941791
0.000915755
0.000915249
0.000942236
0.000950694
0.000884548
0.000822019
0.000679495
0.000639846
0.000695024
0.000733906
0.000524215
0.000316751
0.000250613
0.000243472
0.000252676
0.000252506
0.000245438
0.00025424
0.00030461
0.000584899
0.000880159
0.000733341
0.000468953
0.000335248
0.000266274
0.000246949
0.000310445
0.000488492
0.000563598
0.000576723
0.000567947
0.000570141
0.00058265
0.000564595
0.000481094
0.000307047
0.000251758
0.000274023
0.000346214
0.000496996
0.000786204
0.000855401
0.00051071
0.000284584
0.000251387
0.000246058
0.000224291
0.000287076
0.000754046
0.000994374
0.000603294
0.000410587
0.000311293
0.00023812
0.000178337
0.000148003
0.000179946
0.000349105
0.000455279
0.000483279
0.00047562
0.000476782
0.000485215
0.000452917
0.000333033
0.000174872
0.000150989
0.000183481
0.000244907
0.000320146
0.00042704
0.000658451
0.00106294
0.000678169
0.00026774
0.000223273
0.000186403
0.000611425
0.00086934
0.000572064
0.000438517
0.000339336
0.000264521
0.000204437
0.000158213
0.000125774
0.000128379
0.000254388
0.000424764
0.000474468
0.00047154
0.000472499
0.000474827
0.000418967
0.000231277
0.000124085
0.000128553
0.000163375
0.000211074
0.000273146
0.000350769
0.000452281
0.000598232
0.000936188
0.000560084
0.000176323
0.000470669
0.000604946
0.000658248
0.000507901
0.00034865
0.000261591
0.000212507
0.000176445
0.00014887
0.000122553
0.000106295
0.000153367
0.000393367
0.000462113
0.000468962
0.000469916
0.000460882
0.000383085
0.000139842
0.000103443
0.000123919
0.00015261
0.00018178
0.000218853
0.00027117
0.000365042
0.00052528
0.000684626
0.000611344
0.000398541
0.000651441
0.000633662
0.00070574
0.000409188
0.000261192
0.000198867
0.000170526
0.000151205
0.000136467
0.000118066
9.84139e-05
0.000118401
0.000336604
0.000436756
0.000456261
0.000456951
0.000431966
0.000316333
0.000110668
9.62698e-05
0.000116758
0.000137626
0.000154476
0.000174719
0.000204563
0.000273603
0.00042792
0.000733444
0.000626048
0.000624893
0.000669648
0.000689069
0.000630411
0.000334896
0.000198345
0.000151779
0.000136512
0.000126732
0.00011769
0.000106159
9.64322e-05
0.000111477
0.000240166
0.000406606
0.000436088
0.000436196
0.000397061
0.000208457
0.000110437
9.67563e-05
0.000105502
0.00011755
0.000127947
0.000138694
0.000154951
0.000207261
0.000353427
0.00064635
0.000690989
0.000649809
0.000693541
0.000655328
0.000576047
0.000301017
0.000156145
0.000113575
0.000106539
0.000103346
9.79115e-05
9.56327e-05
0.000104924
0.00013825
0.000192004
0.000350047
0.000387919
0.000387418
0.000337767
0.000183166
0.000136278
0.00010438
9.60014e-05
9.77334e-05
0.000103212
0.000107094
0.00011543
0.000160857
0.000314835
0.000576606
0.000651448
0.0006756
0.000672433
0.000588467
0.00055641
0.00027945
0.000120466
9.29615e-05
8.88661e-05
8.7086e-05
8.58651e-05
9.08962e-05
0.000107603
0.00015385
0.000233804
0.000264152
0.00028333
0.000282808
0.00025956
0.000236196
0.000145967
0.000106185
9.07129e-05
8.61454e-05
8.78751e-05
9.07122e-05
9.35445e-05
0.000123515
0.000291516
0.000548258
0.000579028
0.000661149
0.00062701
0.00049996
0.000482408
0.000295874
0.000124764
0.000104084
0.00012779
0.000101513
8.8875e-05
9.29475e-05
0.000120431
0.000182569
0.000266034
0.000330221
0.000328306
0.000331975
0.000331731
0.000247877
0.000179404
0.000117174
9.20652e-05
9.00013e-05
0.000105522
0.00014298
0.000105956
0.00013603
0.000301913
0.000472911
0.000491514
0.000617833
0.000572769
0.00043586
0.000422307
0.000323075
0.000340851
0.000859875
0.000651608
0.000198469
0.000105613
0.000111253
0.000251573
0.000736567
0.000775722
0.00130234
0.00132195
0.00134553
0.00131903
0.000787696
0.000755593
0.000241734
0.000105984
0.000110607
0.000222434
0.00107416
0.00104718
0.000363513
0.00034173
0.000428897
0.000434969
0.00056258
0.000648685
0.000735109
0.00090501
0.00120845
0.00193258
0.00212747
0.00174721
0.00127459
0.000302608
0.000242566
0.00100213
0.00106613
0.00167851
0.0017132
0.00167173
0.00165596
0.00169858
0.00166773
0.00101828
0.000967576
0.000222147
0.0003694
0.00138507
0.00170348
0.00223464
0.00210828
0.00135898
0.000990088
0.000761463
0.000641552
0.001062
0.00161275
0.00202934
0.00254607
0.00189138
0.00115287
0.000806242
0.000830418
0.00129792
0.000885931
0.000419776
0.000434223
0.000653732
0.000724407
0.000743885
0.000740096
0.000713286
0.00062835
0.000412662
0.000420605
0.000902289
0.00123355
0.000735455
0.00077822
0.00110898
0.00178557
0.00247441
0.00200982
0.0016075
0.00106241
0.00160938
0.00145334
0.00137385
0.00122907
0.00102164
0.000920298
0.000732163
0.000442305
0.00037825
0.000376635
0.000185569
0.000304562
0.000484228
0.000545137
0.000546843
0.000544932
0.000539499
0.000472212
0.000289208
0.000181468
0.000398735
0.000332339
0.000443247
0.000731066
0.000915374
0.00101205
0.00118588
0.00132282
0.00142621
0.00161319
0.00229933
0.0012872
0.00107163
0.000992162
0.000959973
0.000891869
0.00072575
0.000426452
0.000218006
0.000192281
0.000162006
0.000255626
0.000435449
0.000498022
0.000496365
0.000494406
0.000492646
0.000424052
0.00023131
0.000159322
0.00018968
0.000213804
0.000430435
0.000719685
0.000885848
0.000960252
0.000996326
0.00107441
0.00129415
0.00234038
0.00260032
0.00121779
0.00104691
0.000985784
0.000943596
0.000839642
0.000656688
0.000423823
0.000198467
0.000165002
0.00013888
0.000200086
0.000388793
0.000455417
0.000456844
0.00045455
0.000448971
0.000376584
0.000187711
0.000136226
0.000162875
0.000202763
0.000422607
0.000648109
0.000826679
0.00093811
0.000992485
0.00105386
0.00122633
0.0026491
0.00241977
0.00116527
0.00104352
0.000984229
0.000912404
0.000779742
0.000605724
0.000408714
0.000192544
0.000138634
0.000121311
0.000170879
0.000348239
0.000414483
0.000417782
0.000415778
0.000409154
0.000338057
0.000163892
0.000119119
0.000138005
0.000192782
0.000405219
0.000592704
0.000768081
0.000902236
0.000984579
0.0010519
0.00117158
0.00247631
0.00217453
0.00110742
0.00104066
0.000976512
0.000865427
0.000721431
0.000551718
0.000380773
0.000181577
0.000121872
0.00010884
0.000154771
0.000316566
0.000378267
0.000381702
0.00037978
0.000373363
0.000307927
0.000148335
0.000106662
0.000120571
0.000181671
0.000376651
0.000539574
0.000704601
0.000851832
0.000972346
0.00104595
0.00111865
0.00221933
0.0018832
0.00108902
0.00103525
0.000950876
0.000818664
0.000668529
0.000501829
0.000353535
0.00017208
0.000101816
9.53976e-05
0.000142396
0.000291665
0.000346528
0.000349962
0.000348172
0.000342062
0.000283672
0.000136376
9.38013e-05
0.000100453
0.00017262
0.000346382
0.000490485
0.000653441
0.000803917
0.000941463
0.00103242
0.00110166
0.00191956
0.00171577
0.00108594
0.00100985
0.000913556
0.000772992
0.00061412
0.000461089
0.000320958
0.000162532
8.99842e-05
8.47583e-05
0.000132556
0.000269674
0.000317954
0.000321608
0.000319947
0.000313742
0.000261965
0.000127205
8.43613e-05
8.88325e-05
0.000163715
0.000313763
0.000447752
0.000598742
0.000757914
0.000901218
0.00100327
0.00109599
0.00175753
0.00162617
0.00106568
0.00097425
0.000868546
0.000717773
0.000566817
0.000419914
0.000292206
0.000154404
8.13064e-05
7.80516e-05
0.000124577
0.000250184
0.000292885
0.000296965
0.000295409
0.000288898
0.00024262
0.000119271
7.75023e-05
7.94589e-05
0.000154236
0.000286087
0.000408533
0.000550058
0.000699956
0.000856164
0.000970115
0.00107212
0.00166165
0.00152991
0.00102408
0.000925585
0.000807843
0.000663482
0.000518795
0.000385439
0.000268601
0.000142635
7.39773e-05
7.30953e-05
0.00011672
0.000230789
0.000270494
0.000275552
0.000274104
0.000266727
0.000223624
0.000111468
7.23467e-05
7.31186e-05
0.000142689
0.000260761
0.00037362
0.000504126
0.000646624
0.000792102
0.000919457
0.00103421
0.00156044
0.00141568
0.00100595
0.000871241
0.000745714
0.000606797
0.000473874
0.000350333
0.000242829
0.00013143
6.99178e-05
6.97967e-05
0.000110084
0.00021378
0.000252048
0.000258073
0.000257001
0.000248594
0.000207554
0.000105457
6.91411e-05
6.89858e-05
0.000130324
0.00023566
0.000338503
0.000458286
0.00058997
0.00072977
0.000860881
0.00101718
0.00144429
0.00135202
0.000975159
0.00080565
0.000683134
0.000556648
0.000433856
0.000321254
0.000222354
0.00012019
6.6431e-05
6.66522e-05
0.000104884
0.000199205
0.00023615
0.000242838
0.000241709
0.000232814
0.00019368
0.000100556
6.56994e-05
6.56133e-05
0.000118522
0.000214423
0.00031002
0.000419552
0.000540246
0.000666699
0.000793738
0.000980103
0.00138674
0.00129179
0.00092325
0.000739294
0.000620943
0.00050698
0.000396794
0.000294579
0.000202268
0.000107918
6.36447e-05
6.45631e-05
9.98702e-05
0.00018604
0.000222046
0.000229127
0.000227429
0.000217778
0.000178213
9.53229e-05
6.33016e-05
6.26759e-05
0.000105064
0.000194311
0.000283316
0.000383475
0.000493078
0.000607713
0.000729021
0.000924165
0.00132016
0.00124358
0.00087129
0.000677002
0.000567184
0.000465152
0.000364762
0.000270708
0.000184285
0.000101492
6.19705e-05
6.28915e-05
9.32742e-05
0.000167192
0.000206613
0.000215193
0.000213529
0.000202418
0.000149932
8.93538e-05
6.17173e-05
6.09998e-05
9.84579e-05
0.000176349
0.000259872
0.000351951
0.000452148
0.000555578
0.000668649
0.000873585
0.00126626
0.00118742
0.000816378
0.000616531
0.000517188
0.000427878
0.000337105
0.000250113
0.000168139
9.52366e-05
6.13611e-05
6.22851e-05
8.83888e-05
0.000138425
0.000187827
0.000198955
0.000197502
0.000183844
0.000135283
8.47854e-05
6.13325e-05
6.04109e-05
9.20219e-05
0.000160453
0.00023992
0.000325395
0.000416467
0.000507764
0.000610654
0.000817087
0.00119863
0.0010921
0.0007512
0.000562814
0.000476428
0.000398279
0.000313765
0.000230485
0.000150779
8.83146e-05
6.10815e-05
6.21522e-05
8.39278e-05
0.000130011
0.00016237
0.000177101
0.000175613
0.000155274
0.000127319
8.12951e-05
6.13756e-05
6.0232e-05
8.5511e-05
0.000143373
0.000220932
0.000302628
0.000387632
0.000468114
0.000558105
0.000749208
0.00108937
0.000951693
0.000679119
0.000516623
0.000444059
0.000375205
0.000293607
0.000211323
0.000129642
8.23318e-05
6.14838e-05
6.26104e-05
8.11718e-05
0.000120979
0.000142466
0.000149068
0.000148232
0.000140971
0.000117899
7.93496e-05
6.22222e-05
6.08176e-05
8.00882e-05
0.00012333
0.00020199
0.000282666
0.000364646
0.000435968
0.000511504
0.000675188
0.000941788
0.000801892
0.000610996
0.000478377
0.000418083
0.000356749
0.000275903
0.000189579
0.000116812
7.78123e-05
6.22675e-05
6.35847e-05
7.97921e-05
0.000112705
0.000133533
0.00014141
0.000141043
0.000132734
0.000110677
7.84337e-05
6.35211e-05
6.21092e-05
7.6151e-05
0.000112311
0.000179985
0.000264173
0.000345735
0.000409517
0.000471463
0.000604765
0.00079488
0.000661424
0.000543225
0.00044496
0.000397005
0.000341707
0.000257349
0.00016164
0.000104034
7.4223e-05
6.39037e-05
6.59304e-05
8.01512e-05
0.000107637
0.000126135
0.000133714
0.000133188
0.00012496
0.000105996
7.94829e-05
6.64109e-05
6.43346e-05
7.34651e-05
0.000100205
0.000150461
0.000243842
0.000329324
0.000387741
0.00043828
0.000537311
0.000656427
0.000550675
0.000470964
0.000415463
0.000378466
0.000326077
0.000232451
0.0001361
9.22868e-05
7.2283e-05
6.6916e-05
6.94232e-05
8.14519e-05
0.000103158
0.000118283
0.000124648
0.000123989
0.000116887
0.000101448
8.07102e-05
6.99834e-05
6.79431e-05
7.24775e-05
8.96113e-05
0.000128049
0.000216182
0.000312482
0.000369056
0.000409016
0.00046608
0.000547901
0.000462291
0.000413249
0.000382605
0.00035796
0.000307501
0.000199121
0.000117913
8.35162e-05
7.22525e-05
7.04394e-05
7.28966e-05
8.27021e-05
9.90987e-05
0.000110876
0.000115993
0.000115318
0.000109446
9.73716e-05
8.17594e-05
7.30338e-05
7.12709e-05
7.298e-05
8.19777e-05
0.000110003
0.000178165
0.000292888
0.000348827
0.000376379
0.000409827
0.000461835
0.000380905
0.000356789
0.000348708
0.00033339
0.000284872
0.000175129
0.000104512
7.88039e-05
7.30379e-05
7.35912e-05
7.61379e-05
8.38787e-05
9.55838e-05
0.00010427
0.000108151
0.000107578
0.000102942
9.39536e-05
8.28324e-05
7.59237e-05
7.4081e-05
7.37645e-05
7.79652e-05
9.72484e-05
0.000159557
0.000267483
0.00032532
0.00034402
0.000354648
0.000382433
0.00030027
0.000297136
0.000307575
0.000299186
0.000244115
0.00015229
9.5518e-05
7.74055e-05
7.4536e-05
7.63614e-05
7.88781e-05
8.45604e-05
9.23068e-05
9.82801e-05
0.000100981
0.000100521
9.70909e-05
9.07832e-05
8.33719e-05
7.82912e-05
7.63717e-05
7.51562e-05
7.7094e-05
8.96628e-05
0.000137648
0.000222067
0.000291162
0.000302353
0.000293329
0.000302183
0.000224817
0.000233965
0.000249992
0.000238093
0.000189113
0.000130011
9.23928e-05
7.8841e-05
7.64508e-05
7.78458e-05
7.98059e-05
8.36289e-05
8.83137e-05
9.21751e-05
9.39868e-05
9.3625e-05
9.12024e-05
8.70185e-05
8.2466e-05
7.89959e-05
7.74146e-05
7.6505e-05
7.82148e-05
8.81811e-05
0.000120286
0.000177296
0.000228221
0.000245335
0.000232617
0.000227423
0.000197714
0.000205518
0.00020554
0.000186231
0.000148498
0.000114141
9.19206e-05
8.24801e-05
8.00633e-05
7.98383e-05
8.07938e-05
8.30297e-05
8.5798e-05
8.82511e-05
8.96023e-05
8.96032e-05
8.83254e-05
8.61336e-05
8.3627e-05
8.16852e-05
8.08527e-05
8.10056e-05
8.22073e-05
8.93036e-05
0.000109431
0.000142781
0.00018399
0.000205184
0.000204762
0.000200417
0.000202439
0.000195953
0.000182384
0.000161591
0.000137887
0.000116438
0.000100093
9.70021e-05
9.40134e-05
9.30345e-05
9.36139e-05
9.52113e-05
9.73301e-05
9.93269e-05
0.000100617
0.000100911
0.0001002
9.87926e-05
9.72849e-05
9.61646e-05
9.58525e-05
9.67833e-05
9.96354e-05
0.000102676
0.000114998
0.000137123
0.000161986
0.000182355
0.000195649
0.000204892
0.000225119
0.00018395
0.000176462
0.000158149
0.000139726
0.000126972
0.000123674
0.000117591
0.000113611
0.000111806
0.000111401
0.000111839
0.000112705
0.000113624
0.000114244
0.00011436
0.000113977
0.00011331
0.00011272
0.000112559
0.000113231
0.000115258
0.000119394
0.00012625
0.000132499
0.000141126
0.000161984
0.000180465
0.000184737
0.000228116
0.000269557
0.000186357
0.000178089
0.000160426
0.000156942
0.000152546
0.000143099
0.000135149
0.000129691
0.00012638
0.00012467
0.000123988
0.00012389
0.000124028
0.000124139
0.00012408
0.000123854
0.000123615
0.000123638
0.000124287
0.000126014
0.000129446
0.000135277
0.000144006
0.000155376
0.000163521
0.0001648
0.000183485
0.00019277
0.000273301
0.000293195
0.000193891
0.000184247
0.000184861
0.000178486
0.000167649
0.000156685
0.000147492
0.000140554
0.000135917
0.000133152
0.00013169
0.000131026
0.000130763
0.000130645
0.000130538
0.000130439
0.000130481
0.000130925
0.000132155
0.000134667
0.000139133
0.000146248
0.000156295
0.000168863
0.000182383
0.000192513
0.000195551
0.000204565
0.000301875
0.000287678
0.000211201
0.000201366
0.000197169
0.000187875
0.000177007
0.000165595
0.000155469
0.000147492
0.000141926
0.000138467
0.000136543
0.000135599
0.000135186
0.000135029
0.000134985
0.00013504
0.000135305
0.000136025
0.000137573
0.000140463
0.000145416
0.00015317
0.000163948
0.000176993
0.00019071
0.0002021
0.000208855
0.000219546
0.000294605
0.000261988
0.000210751
0.0002039
0.000199882
0.000193085
0.000183952
0.000171234
0.000159842
0.000151093
0.000145122
0.000141485
0.000139488
0.000138567
0.000138247
0.00013822
0.00013834
0.000138573
0.000139003
0.000139828
0.000141379
0.000144167
0.000148953
0.000156637
0.000167749
0.000181871
0.000196916
0.000204469
0.000209003
0.000215912
0.000257913
0.000240594
0.000209004
0.000203475
0.000200557
0.000196076
0.000187585
0.000172326
0.000159792
0.00015109
0.000145637
0.000142654
0.000141156
0.000140632
0.000140628
0.00014088
0.00014125
0.000141694
0.000142253
0.000143048
0.000144301
0.000146415
0.000150101
0.000156662
0.000167061
0.000181464
0.000202649
0.000206197
0.000207778
0.0002135
0.000240847
0.00022354
0.000207062
0.000202275
0.000202038
0.000192613
0.000178299
0.000165556
0.000154028
0.000147547
0.000143958
0.000142459
0.000142119
0.000142336
0.000142826
0.000143449
0.000144125
0.000144824
0.000145549
0.000146323
0.000147201
0.000148313
0.000150204
0.00015419
0.000161985
0.0001763
0.000193159
0.000207881
0.00020597
0.000211673
0.000225457
0.000205588
0.000202381
0.000198984
0.00020376
0.000176565
0.000159276
0.000155015
0.000146853
0.000143049
0.00014215
0.000142587
0.000143372
0.000144283
0.000145231
0.000146195
0.000147168
0.000148155
0.000149146
0.000150098
0.000150922
0.000151512
0.000151983
0.000153087
0.000156987
0.000169538
0.000176989
0.00020427
0.000205165
0.00020699
0.000208056
0.000189712
0.000194201
0.000193186
0.000184616
0.000165124
0.000158776
0.00015123
0.000146388
0.000143202
0.000143271
0.000144368
0.000145714
0.000146911
0.00014806
0.0001492
0.000150381
0.000151631
0.00015295
0.000154285
0.000155488
0.000156328
0.000156629
0.000156783
0.000157977
0.000161865
0.000178072
0.000189122
0.000194434
0.000200789
0.00019342
0.000174896
0.000180086
0.000159972
0.000176807
0.000169885
0.000156281
0.000155073
0.000152586
0.0001479
0.000147303
0.000148057
0.000149111
0.000150169
0.000151225
0.000152348
0.000153591
0.000155001
0.000156604
0.00015837
0.000160158
0.000161677
0.000162596
0.000163164
0.000164123
0.000163535
0.000172927
0.0001811
0.000180457
0.000191404
0.000179587
0.000159384
0.000177678
0.000166251
0.000161584
0.00016898
0.000156134
0.000158646
0.000158738
0.000154182
0.000152408
0.000152398
0.000152919
0.00015361
0.000154418
0.000155372
0.000156523
0.000157942
0.000159703
0.000161835
0.000164254
0.000166624
0.0001685
0.00016976
0.000170835
0.000170928
0.000168211
0.000183144
0.000181403
0.000189891
0.00015926
0.00015511
0.000172122
0.000179264
0.000165831
0.000170569
0.000161757
0.000161844
0.000162004
0.00015867
0.000156739
0.000156339
0.000156492
0.000156848
0.000157351
0.000158024
0.00015893
0.000160181
0.000161938
0.000164322
0.000167359
0.00017081
0.000174066
0.000176428
0.00017773
0.000178626
0.000178993
0.000186318
0.000188392
0.000164461
0.000169692
0.000186578
0.000143173
0.000186299
0.00019298
0.000173601
0.000166953
0.000165233
0.000164237
0.000161773
0.000160234
0.000159767
0.000159695
0.000159753
0.00015991
0.000160197
0.000160697
0.000161564
0.000163035
0.000165386
0.000168904
0.00017368
0.000179023
0.000183435
0.000185853
0.000186321
0.000187707
0.000190573
0.000187234
0.000169991
0.000193604
0.000190855
0.000185414
0.000193579
0.000188205
0.000175853
0.000169737
0.000167397
0.000165952
0.000164259
0.00016323
0.000162818
0.000162582
0.000162359
0.00016214
0.000161953
0.000161867
0.000161999
0.000162731
0.000164523
0.000167972
0.000173655
0.000181543
0.000189791
0.00019591
0.000195453
0.000194706
0.000195777
0.000195103
0.00020051
0.000209786
0.000205644
0.000220084
0.000199891
0.00018439
0.000174059
0.000169496
0.000168238
0.000167452
0.000166547
0.00016596
0.000165617
0.000165251
0.000164784
0.000164213
0.000163535
0.000162775
0.000162073
0.000161568
0.000161837
0.000163827
0.000169103
0.000178064
0.000190529
0.000205825
0.000205673
0.000202433
0.000199933
0.000201264
0.000207263
0.000217339
0.000214952
0.000226238
0.00018791
0.000176449
0.000170019
0.00016853
0.000168947
0.000169059
0.00016878
0.00016851
0.000168226
0.000167796
0.000167185
0.000166378
0.000165336
0.00016402
0.000162459
0.000160561
0.000158572
0.000157238
0.000158514
0.000164631
0.000176391
0.000193013
0.000206639
0.000207337
0.000202368
0.000200139
0.000204414
0.000212465
0.000210186
0.000216671
0.00017847
0.000170403
0.000167615
0.000168683
0.000170125
0.000170752
0.000170873
0.000170846
0.000170675
0.00017029
0.000169678
0.00016882
0.000167657
0.00016611
0.00016401
0.00016133
0.000157833
0.000153647
0.000149169
0.00014726
0.000154376
0.000168176
0.000180201
0.000202606
0.000200173
0.000196116
0.000196687
0.000201645
0.000186405
0.000185997
0.000193258
0.000171218
0.000168401
0.000169723
0.00017136
0.000172321
0.000172768
0.000172994
0.000173007
0.000172762
0.000172255
0.000171474
0.000170382
0.000168926
0.000166987
0.000164256
0.000160488
0.000155614
0.000149844
0.00014306
0.000145086
0.000157648
0.000175399
0.000177163
0.000192862
0.000189134
0.00018787
0.000185711
0.000183231
0.000162656
0.000180308
0.000170589
0.000169534
0.000170987
0.000172737
0.000173923
0.000174652
0.000175113
0.000175293
0.000175162
0.000174727
0.000174006
0.000173036
0.000171794
0.000170154
0.000167904
0.000164841
0.000160639
0.000155732
0.000151697
0.000146146
0.000161445
0.000168433
0.000177761
0.000172687
0.000172369
0.000179238
0.000172999
0.000197028
0.000168737
0.00017509
0.000171502
0.000170955
0.000172636
0.000174504
0.000175771
0.000176666
0.000177264
0.000177489
0.000177306
0.000176752
0.000175934
0.000174986
0.000173964
0.00017275
0.000171224
0.000169107
0.000166112
0.000162747
0.000161271
0.000161818
0.000160118
0.000172917
0.000172339
0.000173887
0.000148915
0.000169391
0.000158428
0.000203536
0.000189797
0.00017876
0.000173963
0.000173194
0.000174767
0.000176454
0.000177745
0.00017873
0.000179343
0.000179408
0.000178871
0.00017782
0.000176549
0.000175409
0.000174597
0.000174086
0.000173633
0.000172772
0.000171249
0.000169353
0.000168617
0.00017064
0.000170474
0.000176254
0.00017584
0.000168418
0.000170239
0.000166191
0.000140125
0.000208465
0.000194995
0.000181853
0.000176979
0.000175826
0.000176785
0.000178297
0.000179683
0.000180774
0.000181276
0.000180879
0.000179476
0.000177389
0.000175296
0.000173734
0.000173032
0.000173332
0.000174239
0.000175204
0.000175499
0.00017507
0.000174546
0.000175519
0.000178339
0.000179294
0.00018056
0.000173846
0.000178392
0.000157392
0.000147458
0.00020756
0.000192207
0.00018195
0.000178036
0.000177156
0.00017814
0.000179854
0.000181563
0.000182873
0.000183118
0.000181823
0.000178882
0.000175164
0.000171726
0.000169495
0.000168913
0.000170038
0.000172574
0.000175714
0.000178261
0.00017944
0.000179431
0.000179783
0.000181036
0.000183266
0.000182755
0.000180415
0.000175408
0.0001509
0.000178498
0.000199646
0.000186913
0.000179618
0.000176787
0.000177002
0.000178835
0.000181168
0.000183645
0.000185348
0.000185102
0.000182283
0.000177038
0.000171196
0.000166299
0.000163301
0.00016263
0.000164241
0.000168324
0.000174054
0.000179355
0.00018271
0.000183546
0.000183251
0.00018331
0.000183233
0.000184043
0.00018295
0.000172839
0.000176719
0.000188072
0.000187336
0.000180338
0.000175167
0.000173983
0.000175697
0.000178803
0.000182545
0.00018626
0.000188377
0.000186844
0.000181812
0.000173944
0.000166231
0.000160088
0.000156319
0.000155176
0.000157045
0.000161948
0.000169691
0.000177665
0.000184321
0.000186495
0.000186398
0.0001848
0.000183354
0.000182023
0.000181528
0.000179156
0.000179518
0.00019677
0.000176757
0.000172997
0.000169653
0.000170292
0.000173497
0.00017835
0.000184127
0.000188518
0.000189343
0.000184515
0.000178024
0.000168487
0.000159721
0.000153129
0.000148983
0.000147303
0.000148631
0.000153531
0.000161473
0.00017033
0.000179238
0.000184199
0.000187467
0.000186138
0.000183015
0.000180005
0.000178095
0.000177918
0.000181492
0.000188749
0.000166977
0.000165108
0.000163693
0.000165749
0.000170753
0.0001779
0.000184347
0.000184276
0.000177054
0.000169814
0.000166104
0.000157653
0.000150365
0.000144826
0.000141133
0.000139202
0.000139491
0.000142882
0.000150251
0.000156438
0.000165018
0.000168828
0.000179177
0.00018536
0.000182295
0.000177725
0.000174339
0.00017358
0.000177679
0.000185696
0.000157661
0.00015692
0.000157187
0.000160523
0.000167192
0.000176395
0.000175029
0.00016468
0.00015882
0.0001534
0.000148338
0.000144682
0.000139455
0.000135823
0.000133338
0.000131606
0.000130829
0.000132421
0.000137691
0.000144197
0.000153299
0.000152244
0.000161334
0.000173332
0.000179812
0.000175214
0.000170214
0.000167672
0.000170123
0.000175813
0.000148593
0.000148593
0.000150093
0.000154207
0.000161458
0.000168403
0.000155685
0.000158653
0.000155526
0.000145647
0.000139299
0.000135398
0.000129954
0.000127609
0.000126513
0.000125298
0.00012385
0.000123627
0.000128857
0.000137775
0.00014897
0.000151078
0.000157785
0.000155967
0.000162906
0.000171198
0.000164729
0.00016035
0.000159975
0.000161953
0.000139726
0.000140441
0.00014231
0.000145639
0.000147833
0.000159636
0.000169646
0.000162855
0.000146724
0.000138255
0.000136403
0.000128953
0.000122176
0.000121149
0.000121584
0.000121195
0.000119529
0.000117638
0.000120939
0.000135718
0.00014035
0.000145615
0.000156956
0.000165358
0.000151008
0.000157565
0.00015712
0.000151372
0.000148604
0.000148287
0.000131522
0.000133105
0.000133613
0.000131891
0.000132809
0.000169386
0.000174031
0.00015657
0.000138921
0.000132071
0.000131211
0.000123004
0.000116107
0.00011727
0.000119515
0.000120346
0.000119168
0.000116928
0.000116613
0.000134167
0.00013878
0.000136303
0.000149789
0.000166492
0.000173797
0.00015558
0.000144972
0.000139988
0.000137426
0.000135596
0.000123962
0.000127265
0.000123762
0.000127803
0.000149105
0.000150677
0.000158479
0.000145998
0.000131502
0.000127383
0.000128785
0.000117346
0.000114494
0.000118153
0.000121329
0.000123
0.000122819
0.000122101
0.000123505
0.000130237
0.000138878
0.000138437
0.000140808
0.000155831
0.000174257
0.000178161
0.000137928
0.000123697
0.000126917
0.000124507
0.00011658
0.000125246
0.000132916
0.000162615
0.000150721
0.00013738
0.000134343
0.000137953
0.0001284
0.00012806
0.000121465
0.00012111
0.000121743
0.000124859
0.000127765
0.000129613
0.000130462
0.000131539
0.000135609
0.000141459
0.000135543
0.000136237
0.000147729
0.000152393
0.000161611
0.000158652
0.000160668
0.000114462
0.00011896
0.000115953
0.000110082
0.000146223
0.000154626
0.000150012
0.000145234
0.000157692
0.000175474
0.000144525
0.00013611
0.000125874
0.000129576
0.000134782
0.000134698
0.000135895
0.000137629
0.000139009
0.000140088
0.000141711
0.000145578
0.000150298
0.000144287
0.000142092
0.000142675
0.000158309
0.000173768
0.000159707
0.000149305
0.000134613
0.000129005
0.000110537
0.000121185
0.000149938
0.000161366
0.00014285
0.000128446
0.000155807
0.000220273
0.000171184
0.000145568
0.000143809
0.000149383
0.000149
0.000147018
0.000147034
0.000147779
0.000148754
0.000149851
0.000151322
0.000153859
0.000157007
0.000157022
0.00015506
0.000153423
0.000158908
0.000173187
0.000183935
0.000181717
0.000154487
0.000128739
0.000129927
0.000160712
0.000139491
0.000145414
0.000130262
0.00013658
0.000147204
0.00016429
0.000178258
0.000165258
0.000163691
0.00016237
0.000158957
0.000156791
0.000156179
0.000156385
0.000157074
0.000158219
0.000159648
0.000161458
0.000163569
0.000165059
0.000166154
0.000166561
0.000165581
0.000173517
0.000183078
0.000174549
0.000148757
0.000130283
0.000169648
0.000178721
0.000140786
0.000132116
0.000137483
0.000140869
0.000141704
0.000150378
0.000169281
0.000173236
0.000171292
0.00016799
0.000165307
0.00016323
0.000162188
0.00016188
0.000162383
0.000163753
0.000165644
0.000167697
0.000169538
0.00017085
0.000171591
0.00017296
0.000174627
0.000173198
0.000172521
0.000163197
0.000145495
0.000146606
0.000178492
0.000180983