/*--------------------------------*- C++ -*----------------------------------*\
| =========                 |                                                 |
| \\      /  F ield         | OpenFOAM: The Open Source CFD Toolbox           |
|  \\    /   O peration     | Version:  v1606+                                |
|   \\  /    A nd           | Web:      www.OpenFOAM.com                      |
|    \\/     M anipulation  |                                                 |
\*---------------------------------------------------------------------------*/
FoamFile
{
    version     2.0;
    format      ascii;
    class       volVectorField;
    location    "0.45";
    object      U.particles;
}
// * * * * * * * * * * * * * * * * * * * * * * * * * * * * * * * * * * * * * //

dimensions      [0 1 -1 0 0 0 0];

internalField   nonuniform List<vector> 
6000
(
(-0.00563765 -0.450362 0)
(-0.00712358 -0.524666 0)
(-0.0141177 -0.520761 0)
(-0.0128205 -0.519381 0)
(-0.00634954 -0.508765 0)
(0.00521912 -0.492723 0)
(0.0177536 -0.475913 0)
(0.0290252 -0.468958 0)
(0.0356699 -0.472379 0)
(0.0372937 -0.481217 0)
(0.0341409 -0.485891 0)
(0.0276337 -0.486502 0)
(0.0195577 -0.487059 0)
(0.011672 -0.487955 0)
(0.0036308 -0.490121 0)
(-0.0055488 -0.489378 0)
(-0.014406 -0.487227 0)
(-0.0220678 -0.486001 0)
(-0.0292118 -0.486578 0)
(-0.0355551 -0.485931 0)
(-0.0384918 -0.480049 0)
(-0.0370715 -0.471928 0)
(-0.0307186 -0.468536 0)
(-0.0190241 -0.476355 0)
(-0.00610499 -0.494945 0)
(0.00521365 -0.509251 0)
(0.0121757 -0.518198 0)
(0.0140164 -0.519151 0)
(0.00942068 -0.524065 0)
(0.00841981 -0.458487 0)
(0.0321671 0.00408242 0)
(0.0162398 0.0463566 0)
(0.00267533 0.0367426 0)
(-0.00684654 0.0253111 0)
(-0.00346093 0.0224392 0)
(0.00695874 0.028047 0)
(0.0223035 0.0337798 0)
(0.0369414 0.0413291 0)
(0.0482273 0.0440362 0)
(0.0495913 0.0442027 0)
(0.0455551 0.044732 0)
(0.0368551 0.0449841 0)
(0.026965 0.0446877 0)
(0.0162411 0.0428627 0)
(0.00458698 0.0412492 0)
(-0.0074434 0.0411388 0)
(-0.0185474 0.0422106 0)
(-0.0286562 0.0428027 0)
(-0.0386092 0.0446501 0)
(-0.0477507 0.0448292 0)
(-0.0517226 0.0436141 0)
(-0.0501926 0.0416197 0)
(-0.0389756 0.0387351 0)
(-0.023701 0.0329459 0)
(-0.00801991 0.0268718 0)
(0.00277046 0.0214747 0)
(0.00684215 0.0244046 0)
(-0.0024589 0.0369425 0)
(-0.0164408 0.0475857 0)
(-0.0319744 -0.00127095 0)
(-0.00608325 -0.064016 0)
(0.00381261 -0.0177835 0)
(1.96223e-05 -0.0067672 0)
(-0.00720618 -0.0066077 0)
(-0.00130823 -0.01179 0)
(0.0121981 -0.00921846 0)
(0.0299963 -0.000316814 0)
(0.0447882 0.00931744 0)
(0.054323 0.0296823 0)
(0.0529527 0.0473621 0)
(0.046052 0.0550941 0)
(0.0363855 0.0585322 0)
(0.0259628 0.0600515 0)
(0.0156723 0.0599958 0)
(0.00461855 0.0612019 0)
(-0.00706368 0.0610772 0)
(-0.0172842 0.0596401 0)
(-0.0272494 0.0578195 0)
(-0.0380364 0.057854 0)
(-0.0475416 0.0549808 0)
(-0.0544271 0.0469651 0)
(-0.055814 0.0300809 0)
(-0.0466129 0.00882583 0)
(-0.0314415 -0.00208528 0)
(-0.012696 -0.010147 0)
(0.00137518 -0.0130412 0)
(0.00720621 -0.00879042 0)
(0.000276384 -0.00949882 0)
(-0.00316486 -0.0194748 0)
(0.00618804 -0.0648901 0)
(-0.00037931 0.00465875 0)
(0.00970383 0.0273007 0)
(0.00973864 0.0465552 0)
(0.00425773 0.0637268 0)
(-0.00142646 0.0536099 0)
(0.0131765 0.038779 0)
(0.0376169 0.0369229 0)
(0.0601639 0.0525757 0)
(0.0722561 0.0831806 0)
(0.069401 0.115715 0)
(0.0526549 0.136939 0)
(0.0327618 0.14268 0)
(0.0182383 0.140118 0)
(0.00964486 0.13677 0)
(0.00290522 0.137083 0)
(-0.004607 0.136723 0)
(-0.0109337 0.135765 0)
(-0.0192111 0.138601 0)
(-0.0338602 0.141576 0)
(-0.0533556 0.135719 0)
(-0.0692924 0.114386 0)
(-0.0718672 0.0823271 0)
(-0.0598739 0.0512408 0)
(-0.0375563 0.0351968 0)
(-0.0132091 0.0372898 0)
(0.00166749 0.0517164 0)
(-0.00378913 0.0615691 0)
(-0.00921178 0.0439144 0)
(-0.0089207 0.0249361 0)
(0.000562842 0.00248789 0)
(0.00742578 0.0416913 0)
(0.0294196 0.0799135 0)
(0.019366 0.116427 0)
(-0.0125097 0.0940212 0)
(-0.00942961 0.0591543 0)
(0.00720258 0.0354586 0)
(0.0273837 0.0327343 0)
(0.0473324 0.0506669 0)
(0.0631039 0.0865097 0)
(0.0692349 0.13019 0)
(0.0629429 0.17134 0)
(0.0427948 0.193801 0)
(0.0202988 0.191491 0)
(0.00730907 0.180764 0)
(0.00151581 0.175157 0)
(-0.00271973 0.17478 0)
(-0.00831295 0.179822 0)
(-0.0211238 0.190168 0)
(-0.0436225 0.192387 0)
(-0.0633377 0.169248 0)
(-0.068828 0.12845 0)
(-0.0621469 0.0857545 0)
(-0.0462911 0.050355 0)
(-0.0264861 0.0325138 0)
(-0.00644847 0.0350414 0)
(0.00944322 0.0583226 0)
(0.0118267 0.0917195 0)
(-0.0191735 0.112584 0)
(-0.0283983 0.0770006 0)
(-0.00667205 0.0394595 0)
(0.0293047 0.0894218 0)
(0.0290581 0.132246 0)
(-0.00277191 0.135145 0)
(-0.0127416 0.0981505 0)
(-0.0103182 0.0601069 0)
(-0.00259541 0.0313326 0)
(0.00914086 0.0219877 0)
(0.020552 0.0346947 0)
(0.0335523 0.0720368 0)
(0.0450068 0.124399 0)
(0.0465742 0.177671 0)
(0.0382589 0.207389 0)
(0.0255991 0.205819 0)
(0.014073 0.189015 0)
(0.00416496 0.179374 0)
(-0.00511687 0.179095 0)
(-0.0150159 0.188243 0)
(-0.0265802 0.204716 0)
(-0.0390998 0.206112 0)
(-0.0468396 0.174648 0)
(-0.0444655 0.121199 0)
(-0.0326805 0.0713291 0)
(-0.0200127 0.0358221 0)
(-0.00885675 0.023715 0)
(0.00269179 0.0328091 0)
(0.00992358 0.0606702 0)
(0.0121059 0.0977065 0)
(0.00245309 0.132274 0)
(-0.0295212 0.130324 0)
(-0.0290053 0.0887878 0)
(0.0485024 0.0986918 0)
(0.0185433 0.148411 0)
(-0.000574544 0.138352 0)
(-0.0100161 0.104122 0)
(-0.0167854 0.0524409 0)
(-0.0210245 0.00699917 0)
(-0.0106554 -0.00706723 0)
(-0.00857974 -0.00397083 0)
(-0.00244719 0.0189156 0)
(0.0162068 0.0634875 0)
(0.0403113 0.13026 0)
(0.0511716 0.18343 0)
(0.0419007 0.191708 0)
(0.0261425 0.175414 0)
(0.00776916 0.165927 0)
(-0.00833946 0.165887 0)
(-0.0267355 0.175333 0)
(-0.0428546 0.191682 0)
(-0.0511676 0.183867 0)
(-0.0373836 0.130954 0)
(-0.0152904 0.0663723 0)
(0.00139061 0.0242961 0)
(0.00731064 0.00127087 0)
(0.0107824 -0.00351666 0)
(0.019446 0.0122965 0)
(0.0146663 0.0560136 0)
(0.00791654 0.105196 0)
(-0.00123247 0.137368 0)
(-0.0202975 0.148596 0)
(-0.05103 0.0991119 0)
(0.0185827 0.0737432 0)
(0.010064 0.13696 0)
(-0.0052394 0.1364 0)
(-0.0235153 0.089255 0)
(-0.031176 0.0216103 0)
(-0.0552955 -0.0387144 0)
(-0.0767153 -0.123644 0)
(-0.0701183 -0.211857 0)
(-0.0530071 -0.248712 0)
(-0.00245715 -0.265981 0)
(0.0357584 -0.253595 0)
(0.0794683 -0.169237 0)
(0.072064 -0.115653 0)
(0.0471732 -0.0474707 0)
(0.014636 -0.0228141 0)
(-0.014453 -0.02177 0)
(-0.0470838 -0.0433294 0)
(-0.0726005 -0.112437 0)
(-0.0792928 -0.167891 0)
(-0.0329774 -0.245667 0)
(0.00481088 -0.248045 0)
(0.0533856 -0.233953 0)
(0.0695675 -0.195516 0)
(0.0726751 -0.104504 0)
(0.0497876 -0.0286899 0)
(0.0293434 0.0279303 0)
(0.0193077 0.093557 0)
(0.000771629 0.137616 0)
(-0.0138117 0.138276 0)
(-0.0225743 0.077868 0)
(0.00207593 0.0676709 0)
(-0.00578901 0.127833 0)
(-0.0198341 0.123067 0)
(-0.0535301 0.0702447 0)
(-0.0977646 -0.0625015 0)
(-0.140247 -0.240279 0)
(-0.174822 -0.375275 0)
(-0.131625 -0.396656 0)
(-0.0945469 -0.392366 0)
(-0.044904 -0.384133 0)
(-0.00392095 -0.361096 0)
(0.0541228 -0.286042 0)
(0.0696027 -0.261009 0)
(0.0515076 -0.259358 0)
(0.0158139 -0.259666 0)
(-0.0161386 -0.25932 0)
(-0.0523683 -0.258472 0)
(-0.0705756 -0.259588 0)
(-0.0522164 -0.287875 0)
(0.00561854 -0.362279 0)
(0.0484426 -0.382586 0)
(0.0968806 -0.389392 0)
(0.134416 -0.391745 0)
(0.173025 -0.360684 0)
(0.132348 -0.21391 0)
(0.0861416 -0.033925 0)
(0.0445092 0.0765045 0)
(0.0130492 0.126092 0)
(0.000311227 0.129717 0)
(-0.00581299 0.0676624 0)
(-0.00612033 0.0609695 0)
(-0.0156572 0.123938 0)
(-0.0672913 0.0950971 0)
(-0.1629 -0.11216 0)
(-0.235522 -0.307474 0)
(-0.211195 -0.369218 0)
(-0.191747 -0.39356 0)
(-0.14956 -0.392943 0)
(-0.120016 -0.374242 0)
(-0.0810865 -0.356587 0)
(-0.0376224 -0.336133 0)
(0.0147544 -0.272191 0)
(0.0525803 -0.234076 0)
(0.0403226 -0.234184 0)
(0.0119263 -0.234633 0)
(-0.0123594 -0.234592 0)
(-0.0411004 -0.234278 0)
(-0.0527605 -0.233306 0)
(-0.0109411 -0.277438 0)
(0.0386366 -0.340011 0)
(0.0851155 -0.356216 0)
(0.122711 -0.373222 0)
(0.152239 -0.390581 0)
(0.193297 -0.389477 0)
(0.213675 -0.363259 0)
(0.227999 -0.283281 0)
(0.145936 -0.0768888 0)
(0.0490321 0.111728 0)
(0.00906597 0.126077 0)
(0.0039799 0.0621771 0)
(-0.0140497 0.0567 0)
(-0.0306177 0.104644 0)
(-0.248381 -0.0924868 0)
(-0.246644 -0.248312 0)
(-0.236272 -0.329766 0)
(-0.199917 -0.366881 0)
(-0.184322 -0.384479 0)
(-0.149672 -0.381618 0)
(-0.12787 -0.35873 0)
(-0.100416 -0.328689 0)
(-0.0605696 -0.305666 0)
(-0.0232666 -0.231965 0)
(0.0293279 -0.185755 0)
(0.0231388 -0.187316 0)
(0.00573156 -0.186402 0)
(-0.00677763 -0.186187 0)
(-0.024841 -0.187214 0)
(-0.0294334 -0.186033 0)
(0.0259507 -0.242534 0)
(0.0600198 -0.309166 0)
(0.102882 -0.330394 0)
(0.13036 -0.358943 0)
(0.15232 -0.380143 0)
(0.185158 -0.382208 0)
(0.202787 -0.364063 0)
(0.240376 -0.3231 0)
(0.24942 -0.239485 0)
(0.236214 -0.0655671 0)
(0.0147073 0.115563 0)
(0.0118938 0.0572487 0)
(-0.0988033 0.0653079 0)
(-0.208352 0.0169513 0)
(-0.240702 -0.115048 0)
(-0.222358 -0.221249 0)
(-0.218429 -0.307191 0)
(-0.18742 -0.353362 0)
(-0.172881 -0.370228 0)
(-0.150586 -0.367832 0)
(-0.131405 -0.343669 0)
(-0.112229 -0.308376 0)
(-0.0727712 -0.275347 0)
(-0.0531218 -0.208883 0)
(-0.00212438 -0.142643 0)
(0.00832018 -0.138436 0)
(-0.000333218 -0.137812 0)
(-0.00134568 -0.137653 0)
(-0.0106431 -0.138307 0)
(0.00329556 -0.145247 0)
(0.0513882 -0.216608 0)
(0.0707611 -0.280243 0)
(0.112849 -0.311995 0)
(0.132498 -0.346077 0)
(0.152057 -0.368224 0)
(0.173472 -0.369307 0)
(0.191334 -0.35138 0)
(0.2218 -0.302192 0)
(0.225071 -0.216736 0)
(0.249714 -0.104654 0)
(0.188053 0.0354883 0)
(0.0892148 0.0693762 0)
(-0.134028 0.0490933 0)
(-0.230902 0.0268835 0)
(-0.210832 -0.0799235 0)
(-0.187186 -0.187791 0)
(-0.19389 -0.273851 0)
(-0.177168 -0.327264 0)
(-0.167321 -0.35025 0)
(-0.148621 -0.355226 0)
(-0.128678 -0.334557 0)
(-0.111025 -0.294658 0)
(-0.0662302 -0.251304 0)
(-0.0682123 -0.182363 0)
(-0.0438936 -0.0984962 0)
(-0.0069888 -0.0849065 0)
(-0.00655014 -0.087585 0)
(0.00496236 -0.0872775 0)
(0.00477207 -0.0848705 0)
(0.0466553 -0.102687 0)
(0.0650468 -0.194391 0)
(0.0678777 -0.259546 0)
(0.110759 -0.299878 0)
(0.128631 -0.337138 0)
(0.148303 -0.355592 0)
(0.167167 -0.34954 0)
(0.18104 -0.324366 0)
(0.195688 -0.270583 0)
(0.189656 -0.181057 0)
(0.217208 -0.0819994 0)
(0.232999 0.0319705 0)
(0.134677 0.0534413 0)
(-0.100419 0.0886644 0)
(-0.199838 0.0678305 0)
(-0.177472 -0.0392163 0)
(-0.149997 -0.137298 0)
(-0.168103 -0.229903 0)
(-0.168766 -0.284896 0)
(-0.161398 -0.321267 0)
(-0.148532 -0.334943 0)
(-0.126251 -0.323829 0)
(-0.100641 -0.287152 0)
(-0.0632552 -0.240951 0)
(-0.0701172 -0.164638 0)
(-0.0873236 -0.0627021 0)
(-0.0233175 -0.0306113 0)
(-0.0121176 -0.0381717 0)
(0.0104976 -0.0379516 0)
(0.0223081 -0.0306085 0)
(0.0900382 -0.0670728 0)
(0.0684106 -0.179995 0)
(0.0665252 -0.249294 0)
(0.0986644 -0.293663 0)
(0.123756 -0.326816 0)
(0.145942 -0.335948 0)
(0.160586 -0.320848 0)
(0.171573 -0.280272 0)
(0.167283 -0.229978 0)
(0.148499 -0.131786 0)
(0.182956 -0.0407123 0)
(0.206952 0.0693616 0)
(0.109275 0.0855656 0)
(-0.0333798 0.175419 0)
(-0.129565 0.147279 0)
(-0.12811 0.061772 0)
(-0.105143 -0.0745915 0)
(-0.138355 -0.179814 0)
(-0.159863 -0.222877 0)
(-0.156499 -0.282798 0)
(-0.145486 -0.310617 0)
(-0.120695 -0.314689 0)
(-0.0883914 -0.286435 0)
(-0.0609226 -0.230527 0)
(-0.0513855 -0.146532 0)
(-0.125832 -0.00743228 0)
(-0.0466722 0.033237 0)
(-0.0158864 0.0167924 0)
(0.0136569 0.0173568 0)
(0.0496561 0.0341111 0)
(0.119052 -0.014274 0)
(0.0364472 -0.159776 0)
(0.0597029 -0.240336 0)
(0.0845243 -0.294001 0)
(0.116256 -0.319314 0)
(0.142726 -0.313438 0)
(0.154001 -0.283264 0)
(0.160572 -0.219369 0)
(0.130957 -0.177843 0)
(0.104041 -0.0768849 0)
(0.132782 0.059542 0)
(0.136478 0.148401 0)
(0.0437069 0.172327 0)
(0.00465701 0.24656 0)
(-0.0488128 0.256604 0)
(-0.0348045 0.212901 0)
(-0.0678309 -0.00506903 0)
(-0.0878684 -0.12736 0)
(-0.14504 -0.147736 0)
(-0.151443 -0.234728 0)
(-0.137447 -0.283994 0)
(-0.114569 -0.304717 0)
(-0.0803662 -0.282981 0)
(-0.0541727 -0.226613 0)
(-0.0255848 -0.140514 0)
(-0.0927476 0.0275181 0)
(-0.0969501 0.104104 0)
(-0.0164853 0.104244 0)
(0.0149344 0.106574 0)
(0.100359 0.0981496 0)
(0.0654544 -0.00392848 0)
(0.0194891 -0.154182 0)
(0.0483684 -0.235571 0)
(0.0745378 -0.290586 0)
(0.10913 -0.311477 0)
(0.13438 -0.287122 0)
(0.147299 -0.231499 0)
(0.135576 -0.144985 0)
(0.0847781 -0.121973 0)
(0.0616279 0.0111628 0)
(0.0337711 0.215229 0)
(0.0535279 0.257195 0)
(0.0014011 0.241551 0)
(0.0117341 0.300783 0)
(0.0122344 0.342987 0)
(0.072988 0.333208 0)
(0.0691253 0.215687 0)
(-0.0444623 0.000397798 0)
(-0.0669789 -0.120669 0)
(-0.096938 -0.212442 0)
(-0.110145 -0.259425 0)
(-0.104151 -0.282712 0)
(-0.0889976 -0.268994 0)
(-0.0809398 -0.218772 0)
(-0.0795716 -0.135976 0)
(-0.0842256 -0.000914518 0)
(-0.139311 0.200132 0)
(-0.0285003 0.21648 0)
(0.0316843 0.217555 0)
(0.14343 0.194138 0)
(0.0758476 -0.0289403 0)
(0.0730269 -0.149531 0)
(0.074793 -0.228543 0)
(0.0827467 -0.27721 0)
(0.0979503 -0.291052 0)
(0.10251 -0.265581 0)
(0.0882755 -0.213209 0)
(0.0569964 -0.121341 0)
(0.0280716 0.0156381 0)
(-0.0832996 0.234485 0)
(-0.0730651 0.333737 0)
(-0.00908639 0.337297 0)
(-0.009254 0.295337 0)
(0.00975564 0.333887 0)
(0.0363525 0.361701 0)
(0.117219 0.373842 0)
(0.191686 0.314042 0)
(0.220374 0.07778 0)
(0.0749122 -0.055038 0)
(-0.0446852 -0.185535 0)
(-0.0892703 -0.238941 0)
(-0.0893593 -0.271539 0)
(-0.0880993 -0.270086 0)
(-0.0995698 -0.218724 0)
(-0.128802 -0.138229 0)
(-0.135958 0.0179187 0)
(-0.0997252 0.0669915 0)
(-0.0263844 0.0481127 0)
(0.0322379 0.0424217 0)
(0.0997584 0.0582752 0)
(0.136666 0.00906138 0)
(0.122485 -0.151982 0)
(0.0925777 -0.229804 0)
(0.0836903 -0.27789 0)
(0.0865822 -0.281943 0)
(0.0864092 -0.249719 0)
(0.0436481 -0.195334 0)
(-0.122102 -0.0356779 0)
(-0.238842 0.0841633 0)
(-0.195462 0.312458 0)
(-0.112231 0.364385 0)
(-0.0347549 0.350608 0)
(-0.00989316 0.329332 0)
(0.0119147 0.329887 0)
(0.0469014 0.304967 0)
(0.128369 0.29407 0)
(0.238197 0.230116 0)
(0.231931 -0.0882003 0)
(0.161444 -0.308381 0)
(0.0337658 -0.421353 0)
(-0.0592322 -0.280367 0)
(-0.0655505 -0.28088 0)
(-0.0622041 -0.294937 0)
(-0.0770793 -0.312947 0)
(-0.0418744 -0.474835 0)
(-0.036506 -0.376286 0)
(-0.0105345 -0.408502 0)
(-0.00475108 -0.403052 0)
(0.00565624 -0.405757 0)
(0.00985859 -0.415604 0)
(0.0286373 -0.409691 0)
(0.0360816 -0.492181 0)
(0.0719266 -0.319719 0)
(0.0635644 -0.300331 0)
(0.067921 -0.296319 0)
(0.0516452 -0.313033 0)
(-0.0468549 -0.551355 0)
(-0.156098 -0.369688 0)
(-0.227183 -0.108388 0)
(-0.235882 0.207928 0)
(-0.124326 0.266879 0)
(-0.0476602 0.28661 0)
(-0.013274 0.324291 0)
(0.0233421 0.205481 0)
(0.0634103 0.0118095 0)
(0.116344 -0.105266 0)
(0.162587 -0.199824 0)
(0.105797 -0.449819 0)
(0.0834669 -0.578215 0)
(0.0963874 -0.675388 0)
(0.0796062 -0.732844 0)
(-0.0018959 -0.464872 0)
(-0.034907 -0.407573 0)
(-0.0083491 -0.758654 0)
(0.000105249 -0.676431 0)
(0.00337783 -0.605348 0)
(0.000752275 -0.58794 0)
(-7.49702e-05 -0.586316 0)
(-0.000738965 -0.587389 0)
(-0.00172007 -0.590633 0)
(-0.00434493 -0.610427 0)
(-0.000838484 -0.682816 0)
(0.00602484 -0.76112 0)
(0.0387438 -0.40128 0)
(-0.00058332 -0.515119 0)
(-0.0889533 -0.748961 0)
(-0.100753 -0.675948 0)
(-0.0821694 -0.587702 0)
(-0.0978073 -0.472597 0)
(-0.150461 -0.239463 0)
(-0.111015 -0.146331 0)
(-0.0641816 -0.0143155 0)
(-0.0258914 0.193307 0)
(0.0305142 -0.116324 0)
(0.0492867 -0.300215 0)
(0.0573573 -0.407799 0)
(0.0473444 -0.489482 0)
(0.0489684 -0.548377 0)
(0.0751749 -0.594183 0)
(0.121517 -0.639296 0)
(0.131779 -0.759082 0)
(0.0776092 -0.817161 0)
(0.00179014 -0.801265 0)
(-0.0116467 -0.765011 0)
(-0.00711847 -0.68262 0)
(-0.00084431 -0.621161 0)
(0.000867988 -0.605586 0)
(0.000384794 -0.60667 0)
(-0.000994004 -0.607099 0)
(-0.00140973 -0.606759 0)
(0.000494763 -0.624442 0)
(0.00621502 -0.68765 0)
(0.00834485 -0.76854 0)
(-0.008264 -0.804155 0)
(-0.0858704 -0.820541 0)
(-0.143916 -0.756158 0)
(-0.119868 -0.641996 0)
(-0.0774644 -0.59845 0)
(-0.048717 -0.552854 0)
(-0.0444271 -0.497469 0)
(-0.0527085 -0.422178 0)
(-0.0482505 -0.313032 0)
(-0.0302918 -0.128881 0)
(0.0146039 -0.342551 0)
(0.0300998 -0.411178 0)
(0.0257919 -0.457237 0)
(0.0312868 -0.495167 0)
(0.0548198 -0.53005 0)
(0.0864451 -0.577161 0)
(0.12961 -0.630783 0)
(0.156351 -0.706861 0)
(0.13381 -0.783499 0)
(0.0478185 -0.781707 0)
(0.00500678 -0.745356 0)
(-0.00152655 -0.667109 0)
(-0.000579086 -0.604907 0)
(0.00106313 -0.587609 0)
(0.00027487 -0.588071 0)
(-0.00120133 -0.588752 0)
(-0.00191206 -0.589541 0)
(-0.000309678 -0.608592 0)
(-0.00106441 -0.674228 0)
(-0.00839813 -0.74935 0)
(-0.0574129 -0.784997 0)
(-0.138489 -0.783171 0)
(-0.156171 -0.70968 0)
(-0.131812 -0.636198 0)
(-0.0863284 -0.584086 0)
(-0.0563639 -0.534921 0)
(-0.0318775 -0.496517 0)
(-0.0234148 -0.459433 0)
(-0.0281411 -0.411914 0)
(-0.0125605 -0.3457 0)
(0.00588753 -0.375724 0)
(0.0236631 -0.40448 0)
(0.0198799 -0.435412 0)
(0.039624 -0.476536 0)
(0.0630033 -0.518531 0)
(0.0970249 -0.567567 0)
(0.135393 -0.616091 0)
(0.17384 -0.685458 0)
(0.14738 -0.762647 0)
(0.0734781 -0.764604 0)
(0.0186779 -0.722827 0)
(0.00692225 -0.654596 0)
(0.0024914 -0.589801 0)
(0.00266868 -0.570831 0)
(0.000923005 -0.570069 0)
(-0.00184671 -0.570642 0)
(-0.00361657 -0.57257 0)
(-0.00364118 -0.593485 0)
(-0.00904542 -0.660487 0)
(-0.0220375 -0.725798 0)
(-0.0801994 -0.766439 0)
(-0.15208 -0.762291 0)
(-0.175803 -0.685471 0)
(-0.137107 -0.621756 0)
(-0.0989014 -0.571924 0)
(-0.0645126 -0.523958 0)
(-0.0405387 -0.481331 0)
(-0.0196178 -0.437743 0)
(-0.0208801 -0.405079 0)
(-0.00456177 -0.371174 0)
(0.00202324 -0.360378 0)
(0.0178826 -0.385072 0)
(0.0230379 -0.416539 0)
(0.0481274 -0.459318 0)
(0.0741656 -0.505995 0)
(0.10532 -0.557335 0)
(0.147129 -0.604378 0)
(0.179852 -0.661171 0)
(0.160166 -0.726449 0)
(0.0970867 -0.732923 0)
(0.033565 -0.695886 0)
(0.0158903 -0.6343 0)
(0.00720749 -0.572269 0)
(0.00505482 -0.553842 0)
(0.00171116 -0.553163 0)
(-0.00261384 -0.553836 0)
(-0.00588463 -0.555868 0)
(-0.00819262 -0.575786 0)
(-0.0174976 -0.638635 0)
(-0.0367033 -0.698637 0)
(-0.10371 -0.734296 0)
(-0.164674 -0.725419 0)
(-0.181835 -0.662731 0)
(-0.148646 -0.609025 0)
(-0.107597 -0.563801 0)
(-0.0760902 -0.511498 0)
(-0.0495813 -0.464133 0)
(-0.0240468 -0.418642 0)
(-0.0170165 -0.38368 0)
(-0.000992138 -0.353952 0)
(-0.00770922 -0.343514 0)
(0.0116473 -0.361022 0)
(0.0281553 -0.397501 0)
(0.0562823 -0.444763 0)
(0.0835387 -0.493127 0)
(0.116348 -0.541736 0)
(0.155532 -0.591217 0)
(0.184973 -0.63497 0)
(0.177293 -0.693801 0)
(0.124269 -0.707798 0)
(0.0509944 -0.670469 0)
(0.0248665 -0.612209 0)
(0.0120992 -0.551755 0)
(0.00792291 -0.533667 0)
(0.0027821 -0.532458 0)
(-0.00350165 -0.533103 0)
(-0.00861962 -0.535495 0)
(-0.0130538 -0.555085 0)
(-0.0267815 -0.616238 0)
(-0.0550537 -0.672253 0)
(-0.131255 -0.708252 0)
(-0.181546 -0.694301 0)
(-0.187891 -0.637557 0)
(-0.158021 -0.59456 0)
(-0.118292 -0.546356 0)
(-0.0860649 -0.497783 0)
(-0.0581583 -0.449044 0)
(-0.030064 -0.401002 0)
(-0.0106971 -0.35969 0)
(0.00822464 -0.336962 0)
(-0.0143193 -0.318416 0)
(0.0045513 -0.33981 0)
(0.0334776 -0.379811 0)
(0.062152 -0.429119 0)
(0.0916075 -0.473497 0)
(0.125293 -0.527245 0)
(0.163514 -0.570001 0)
(0.192925 -0.612891 0)
(0.18463 -0.664356 0)
(0.140725 -0.673955 0)
(0.0646861 -0.639679 0)
(0.0317564 -0.58751 0)
(0.0156326 -0.530458 0)
(0.0101855 -0.512816 0)
(0.00373029 -0.511117 0)
(-0.00406914 -0.511687 0)
(-0.0106809 -0.514478 0)
(-0.0167131 -0.533462 0)
(-0.03417 -0.590747 0)
(-0.0698782 -0.640958 0)
(-0.147305 -0.674293 0)
(-0.188643 -0.663746 0)
(-0.19521 -0.615894 0)
(-0.165918 -0.574805 0)
(-0.127205 -0.531265 0)
(-0.0937676 -0.477216 0)
(-0.0642621 -0.433677 0)
(-0.0352432 -0.382789 0)
(-0.00238766 -0.3408 0)
(0.0124388 -0.311437 0)
(-0.00842321 -0.28939 0)
(-0.00177262 -0.328142 0)
(0.0355892 -0.366029 0)
(0.067252 -0.411413 0)
(0.0990482 -0.460367 0)
(0.134121 -0.509979 0)
(0.17309 -0.553251 0)
(0.197098 -0.591223 0)
(0.1914 -0.628976 0)
(0.150805 -0.639006 0)
(0.0743461 -0.605409 0)
(0.036812 -0.559269 0)
(0.019181 -0.505233 0)
(0.0124786 -0.488389 0)
(0.00459024 -0.48631 0)
(-0.00494354 -0.486806 0)
(-0.0131309 -0.48977 0)
(-0.0207119 -0.507774 0)
(-0.0397947 -0.562008 0)
(-0.0809214 -0.607281 0)
(-0.158441 -0.63996 0)
(-0.196244 -0.628809 0)
(-0.199843 -0.592415 0)
(-0.174767 -0.557198 0)
(-0.136178 -0.515608 0)
(-0.101279 -0.465033 0)
(-0.0689992 -0.413998 0)
(-0.0369038 -0.368681 0)
(0.00200038 -0.3304 0)
(0.00456733 -0.282006 0)
(0.00447856 -0.262988 0)
(-0.000132523 -0.314776 0)
(0.0388848 -0.348283 0)
(0.0739323 -0.396323 0)
(0.10892 -0.443196 0)
(0.144861 -0.492398 0)
(0.179859 -0.530067 0)
(0.201732 -0.561461 0)
(0.196557 -0.596141 0)
(0.159585 -0.603872 0)
(0.0814545 -0.57032 0)
(0.0405661 -0.53051 0)
(0.0225858 -0.480376 0)
(0.0144682 -0.463905 0)
(0.00518565 -0.461051 0)
(-0.00580458 -0.461483 0)
(-0.0154584 -0.465104 0)
(-0.0245234 -0.482496 0)
(-0.0438464 -0.532335 0)
(-0.0881953 -0.57227 0)
(-0.166405 -0.603708 0)
(-0.199583 -0.59655 0)
(-0.203621 -0.56529 0)
(-0.182204 -0.533937 0)
(-0.146678 -0.496528 0)
(-0.111181 -0.447697 0)
(-0.0752897 -0.400394 0)
(-0.0398335 -0.349414 0)
(-0.00342279 -0.313866 0)
(-0.00717913 -0.255916 0)
(0.00898468 -0.233076 0)
(0.00487827 -0.293911 0)
(0.042295 -0.333372 0)
(0.081592 -0.380999 0)
(0.11793 -0.427729 0)
(0.153619 -0.472713 0)
(0.188143 -0.507783 0)
(0.204458 -0.537384 0)
(0.198188 -0.561697 0)
(0.164973 -0.564099 0)
(0.086389 -0.53292 0)
(0.0436911 -0.49576 0)
(0.0267794 -0.450892 0)
(0.0168703 -0.435387 0)
(0.00591957 -0.432191 0)
(-0.00667702 -0.432478 0)
(-0.0179725 -0.436308 0)
(-0.0287195 -0.452434 0)
(-0.0470175 -0.496393 0)
(-0.0923432 -0.534242 0)
(-0.170572 -0.563874 0)
(-0.201154 -0.561679 0)
(-0.206478 -0.538865 0)
(-0.189319 -0.51211 0)
(-0.155293 -0.477826 0)
(-0.119962 -0.432424 0)
(-0.0830904 -0.385207 0)
(-0.042823 -0.335575 0)
(-0.00669714 -0.292806 0)
(-0.0108677 -0.226329 0)
(0.0166641 -0.199378 0)
(0.0112653 -0.267674 0)
(0.0477625 -0.315806 0)
(0.0882916 -0.363993 0)
(0.126153 -0.408134 0)
(0.162261 -0.450654 0)
(0.193547 -0.481373 0)
(0.207583 -0.504036 0)
(0.201226 -0.524768 0)
(0.168873 -0.524104 0)
(0.0903327 -0.495439 0)
(0.0461293 -0.457177 0)
(0.0297406 -0.419446 0)
(0.0185354 -0.40525 0)
(0.00643122 -0.401826 0)
(-0.00710578 -0.402112 0)
(-0.0194674 -0.406022 0)
(-0.031445 -0.420843 0)
(-0.0498587 -0.458261 0)
(-0.0967943 -0.496725 0)
(-0.174317 -0.524289 0)
(-0.203514 -0.524984 0)
(-0.208599 -0.506916 0)
(-0.194843 -0.484754 0)
(-0.163386 -0.455228 0)
(-0.128027 -0.413246 0)
(-0.0901018 -0.368979 0)
(-0.0499195 -0.319641 0)
(-0.013021 -0.267085 0)
(-0.0203674 -0.191935 0)
(0.0259489 -0.166304 0)
(0.0169409 -0.248348 0)
(0.0584712 -0.301969 0)
(0.0994703 -0.348256 0)
(0.136807 -0.389043 0)
(0.171432 -0.426359 0)
(0.199753 -0.452325 0)
(0.209345 -0.472499 0)
(0.202818 -0.486788 0)
(0.169414 -0.482815 0)
(0.0929643 -0.453153 0)
(0.0481598 -0.417066 0)
(0.0307537 -0.385582 0)
(0.0190927 -0.372302 0)
(0.00658523 -0.368934 0)
(-0.00722659 -0.3692 0)
(-0.0198813 -0.373065 0)
(-0.032484 -0.3871 0)
(-0.0521718 -0.419026 0)
(-0.0989431 -0.454166 0)
(-0.174177 -0.482479 0)
(-0.204743 -0.486932 0)
(-0.210471 -0.474106 0)
(-0.20073 -0.45561 0)
(-0.172986 -0.429989 0)
(-0.138714 -0.392786 0)
(-0.101276 -0.351571 0)
(-0.0602055 -0.303897 0)
(-0.0193438 -0.24816 0)
(-0.0280644 -0.160001 0)
(0.0345386 -0.132998 0)
(0.0276877 -0.224459 0)
(0.0680313 -0.281115 0)
(0.109016 -0.326188 0)
(0.146306 -0.365136 0)
(0.180149 -0.399608 0)
(0.204732 -0.422418 0)
(0.211073 -0.437827 0)
(0.204561 -0.447749 0)
(0.169674 -0.439854 0)
(0.0953962 -0.410972 0)
(0.0501003 -0.382024 0)
(0.0309563 -0.351528 0)
(0.0191028 -0.337682 0)
(0.00654512 -0.334158 0)
(-0.00722002 -0.334577 0)
(-0.019789 -0.338751 0)
(-0.0327373 -0.354153 0)
(-0.0540039 -0.382738 0)
(-0.100645 -0.411834 0)
(-0.173112 -0.439752 0)
(-0.205449 -0.448044 0)
(-0.211099 -0.439855 0)
(-0.205025 -0.425563 0)
(-0.180997 -0.403544 0)
(-0.147868 -0.369087 0)
(-0.110949 -0.329418 0)
(-0.0702687 -0.283218 0)
(-0.0299632 -0.224323 0)
(-0.0366914 -0.127926 0)
(0.0447555 -0.104494 0)
(0.0389128 -0.20246 0)
(0.0800589 -0.261808 0)
(0.120746 -0.304745 0)
(0.15691 -0.340165 0)
(0.187998 -0.370049 0)
(0.208401 -0.388294 0)
(0.211432 -0.400043 0)
(0.204513 -0.404998 0)
(0.166087 -0.393878 0)
(0.0952118 -0.366668 0)
(0.0499175 -0.337347 0)
(0.0302989 -0.314523 0)
(0.0186373 -0.301262 0)
(0.00635551 -0.297638 0)
(-0.00717168 -0.29792 0)
(-0.0201002 -0.302146 0)
(-0.032164 -0.319995 0)
(-0.0530936 -0.338442 0)
(-0.0994085 -0.367023 0)
(-0.168358 -0.393389 0)
(-0.205062 -0.405094 0)
(-0.211434 -0.401402 0)
(-0.208717 -0.390703 0)
(-0.188968 -0.373031 0)
(-0.158221 -0.343409 0)
(-0.12245 -0.307223 0)
(-0.0821298 -0.262988 0)
(-0.0415929 -0.201756 0)
(-0.0471664 -0.100867 0)
(0.0563694 -0.0835214 0)
(0.0515847 -0.180901 0)
(0.092032 -0.239391 0)
(0.132076 -0.278762 0)
(0.166783 -0.31093 0)
(0.195137 -0.337242 0)
(0.211705 -0.352344 0)
(0.212742 -0.360617 0)
(0.204942 -0.361516 0)
(0.16278 -0.3473 0)
(0.0949732 -0.32109 0)
(0.0485949 -0.295156 0)
(0.0279092 -0.276551 0)
(0.0173511 -0.262851 0)
(0.00580903 -0.259338 0)
(-0.00670942 -0.259457 0)
(-0.0192792 -0.263429 0)
(-0.0301591 -0.274951 0)
(-0.0513238 -0.295818 0)
(-0.0984193 -0.321066 0)
(-0.164122 -0.346544 0)
(-0.205007 -0.361479 0)
(-0.212762 -0.361814 0)
(-0.211819 -0.354579 0)
(-0.195848 -0.340081 0)
(-0.167801 -0.313751 0)
(-0.133331 -0.280869 0)
(-0.0936881 -0.240373 0)
(-0.0540357 -0.181037 0)
(-0.0585614 -0.0834456 0)
(0.0672153 -0.0738156 0)
(0.0645674 -0.161691 0)
(0.103947 -0.215437 0)
(0.142915 -0.25052 0)
(0.175626 -0.278846 0)
(0.200531 -0.301615 0)
(0.213765 -0.313548 0)
(0.213824 -0.318707 0)
(0.204131 -0.315456 0)
(0.159096 -0.298233 0)
(0.0938767 -0.273276 0)
(0.0463328 -0.248491 0)
(0.0236756 -0.230178 0)
(0.0135341 -0.222445 0)
(0.00414671 -0.218798 0)
(-0.00588447 -0.219169 0)
(-0.0155806 -0.22367 0)
(-0.0255456 -0.231283 0)
(-0.0485754 -0.24922 0)
(-0.0967019 -0.273129 0)
(-0.160141 -0.297559 0)
(-0.204391 -0.315433 0)
(-0.214179 -0.319973 0)
(-0.214112 -0.315605 0)
(-0.201222 -0.304294 0)
(-0.17637 -0.28146 0)
(-0.143613 -0.252362 0)
(-0.104616 -0.216319 0)
(-0.0656305 -0.162169 0)
(-0.0681005 -0.0761731 0)
(0.0758378 -0.0704319 0)
(0.0764896 -0.142828 0)
(0.114526 -0.189664 0)
(0.152237 -0.219684 0)
(0.182788 -0.243889 0)
(0.204161 -0.263057 0)
(0.213938 -0.272216 0)
(0.213522 -0.274677 0)
(0.201158 -0.265865 0)
(0.15292 -0.246068 0)
(0.090415 -0.222683 0)
(0.0434056 -0.19932 0)
(0.020507 -0.181882 0)
(0.0106597 -0.17399 0)
(0.00280475 -0.172089 0)
(-0.00383586 -0.172536 0)
(-0.0106481 -0.174984 0)
(-0.0208423 -0.183054 0)
(-0.0457426 -0.200222 0)
(-0.0938573 -0.22297 0)
(-0.155373 -0.246123 0)
(-0.20246 -0.266278 0)
(-0.214728 -0.276034 0)
(-0.214881 -0.27436 0)
(-0.204705 -0.265778 0)
(-0.183227 -0.246169 0)
(-0.15254 -0.221192 0)
(-0.114442 -0.190461 0)
(-0.0757442 -0.143321 0)
(-0.0749617 -0.0721987 0)
(0.0818809 -0.0670152 0)
(0.0870106 -0.123892 0)
(0.122641 -0.163254 0)
(0.159476 -0.187132 0)
(0.18815 -0.205924 0)
(0.205183 -0.220344 0)
(0.210755 -0.227223 0)
(0.209872 -0.225357 0)
(0.193297 -0.211641 0)
(0.144172 -0.191445 0)
(0.0855323 -0.170477 0)
(0.0404592 -0.148744 0)
(0.0190641 -0.131743 0)
(0.0117623 -0.122527 0)
(0.00624125 -0.11866 0)
(-0.000206727 -0.118306 0)
(-0.00759537 -0.121859 0)
(-0.0175534 -0.131557 0)
(-0.0416296 -0.148978 0)
(-0.0882262 -0.170663 0)
(-0.147051 -0.191756 0)
(-0.195905 -0.212495 0)
(-0.212427 -0.226951 0)
(-0.212873 -0.229818 0)
(-0.205879 -0.223733 0)
(-0.188029 -0.208359 0)
(-0.159294 -0.188576 0)
(-0.122145 -0.163899 0)
(-0.0854033 -0.124196 0)
(-0.0804037 -0.0674469 0)
(0.0821435 -0.0641738 0)
(0.093522 -0.108381 0)
(0.128691 -0.137858 0)
(0.165287 -0.15184 0)
(0.191415 -0.16308 0)
(0.202462 -0.173732 0)
(0.205327 -0.179622 0)
(0.204248 -0.172593 0)
(0.184546 -0.155287 0)
(0.137479 -0.135977 0)
(0.0817318 -0.116593 0)
(0.0377506 -0.095639 0)
(0.0155626 -0.0786617 0)
(0.00819557 -0.0693959 0)
(0.00528088 -0.0657033 0)
(0.00308285 -0.0653897 0)
(-0.000658925 -0.0684909 0)
(-0.00969794 -0.0773637 0)
(-0.0346297 -0.0942292 0)
(-0.0811804 -0.115547 0)
(-0.138416 -0.135703 0)
(-0.186357 -0.155807 0)
(-0.206932 -0.174075 0)
(-0.207707 -0.182565 0)
(-0.203298 -0.177655 0)
(-0.190781 -0.166053 0)
(-0.164551 -0.153221 0)
(-0.127728 -0.138144 0)
(-0.0922637 -0.107915 0)
(-0.081561 -0.0634883 0)
(0.0631474 -0.0604314 0)
(0.0973958 -0.0939159 0)
(0.137578 -0.11318 0)
(0.168837 -0.114311 0)
(0.192012 -0.116302 0)
(0.198382 -0.123812 0)
(0.200559 -0.126127 0)
(0.198757 -0.114876 0)
(0.175744 -0.0963467 0)
(0.129967 -0.0783269 0)
(0.0763256 -0.0601784 0)
(0.0337077 -0.0404316 0)
(0.0117334 -0.0243249 0)
(0.00506841 -0.0153635 0)
(0.00426912 -0.0116828 0)
(0.00483827 -0.0113565 0)
(0.00377344 -0.0142422 0)
(-0.00349634 -0.0224681 0)
(-0.026633 -0.0378125 0)
(-0.0708078 -0.057363 0)
(-0.12648 -0.0762593 0)
(-0.174402 -0.09526 0)
(-0.199904 -0.115396 0)
(-0.202163 -0.128701 0)
(-0.198828 -0.127974 0)
(-0.190736 -0.119485 0)
(-0.168204 -0.11519 0)
(-0.135857 -0.112867 0)
(-0.0964951 -0.0931401 0)
(-0.0630675 -0.0572474 0)
(0.0541757 -0.070225 0)
(0.0986609 -0.082737 0)
(0.137782 -0.0813466 0)
(0.167269 -0.070995 0)
(0.1881 -0.0629952 0)
(0.196121 -0.0704289 0)
(0.198256 -0.0704468 0)
(0.193353 -0.0566845 0)
(0.165246 -0.0359506 0)
(0.120689 -0.0192726 0)
(0.0711022 -0.00286903 0)
(0.0321922 0.0148318 0)
(0.0114711 0.0295887 0)
(0.00481698 0.038234 0)
(0.00424456 0.0419541 0)
(0.00519998 0.0422797 0)
(0.00445692 0.0393497 0)
(-0.00249171 0.0315572 0)
(-0.0235457 0.0179266 0)
(-0.0627102 0.00107858 0)
(-0.11316 -0.0154381 0)
(-0.15924 -0.0327781 0)
(-0.189966 -0.0548089 0)
(-0.19661 -0.0718868 0)
(-0.194602 -0.0741398 0)
(-0.186711 -0.0666299 0)
(-0.167055 -0.0726919 0)
(-0.136969 -0.081867 0)
(-0.0974849 -0.0799609 0)
(-0.0537183 -0.0653216 0)
(0.0497203 -0.077631 0)
(0.0947919 -0.0686568 0)
(0.128274 -0.0417672 0)
(0.165699 -0.029762 0)