/*--------------------------------*- C++ -*----------------------------------*\
| =========                 |                                                 |
| \\      /  F ield         | OpenFOAM: The Open Source CFD Toolbox           |
|  \\    /   O peration     | Version:  v1606+                                |
|   \\  /    A nd           | Web:      www.OpenFOAM.com                      |
|    \\/     M anipulation  |                                                 |
\*---------------------------------------------------------------------------*/
FoamFile
{
    version     2.0;
    format      ascii;
    class       volVectorField;
    location    "0.45";
    object      U.particlesMean;
}
// * * * * * * * * * * * * * * * * * * * * * * * * * * * * * * * * * * * * * //

dimensions      [0 1 -1 0 0 0 0];

internalField   nonuniform List<vector> 
6000
(
(-0.00729403 -0.306307 0)
(-0.00510645 -0.339244 0)
(-0.00277644 -0.33905 0)
(-0.00206092 -0.340794 0)
(-0.000318503 -0.341628 0)
(0.00129093 -0.341586 0)
(0.00411257 -0.344301 0)
(0.00591086 -0.348918 0)
(0.00699672 -0.355132 0)
(0.00665906 -0.360437 0)
(0.00591244 -0.3629 0)
(0.00522934 -0.363786 0)
(0.00411093 -0.366734 0)
(0.00285755 -0.368625 0)
(0.00092844 -0.369561 0)
(-0.00118364 -0.368885 0)
(-0.00267136 -0.367681 0)
(-0.00388583 -0.365735 0)
(-0.0046797 -0.364395 0)
(-0.00595169 -0.363675 0)
(-0.00697879 -0.359889 0)
(-0.00712861 -0.354024 0)
(-0.00591397 -0.347689 0)
(-0.00378675 -0.343199 0)
(-0.0010288 -0.34191 0)
(0.000537221 -0.340612 0)
(0.00233888 -0.339686 0)
(0.00332844 -0.337846 0)
(0.00608901 -0.337887 0)
(0.00791778 -0.30755 0)
(0.0108414 0.0334992 0)
(-0.00159652 0.0587429 0)
(-0.00219207 0.0559907 0)
(-0.00756794 0.0570039 0)
(-0.00661363 0.0534747 0)
(-0.00442551 0.0498101 0)
(-0.00104238 0.0458683 0)
(0.00173711 0.043785 0)
(0.00422068 0.0434441 0)
(0.00525189 0.0440208 0)
(0.00547778 0.0438247 0)
(0.00500048 0.0428275 0)
(0.00406304 0.0429692 0)
(0.00250547 0.0424523 0)
(0.000854815 0.0424593 0)
(-0.000802824 0.0423104 0)
(-0.00245403 0.0427304 0)
(-0.00380163 0.0421502 0)
(-0.00475282 0.0431287 0)
(-0.00516392 0.0440784 0)
(-0.00495082 0.043714 0)
(-0.00403817 0.0436536 0)
(-0.0018296 0.0436841 0)
(0.00111171 0.0458952 0)
(0.00466593 0.0502332 0)
(0.0069574 0.0528115 0)
(0.00824773 0.0562223 0)
(0.00325145 0.0556077 0)
(0.00242095 0.0584869 0)
(-0.0104561 0.0333601 0)
(-0.00556942 -0.0109299 0)
(-0.00622002 -0.020308 0)
(-0.00417502 -0.0197177 0)
(-0.0090819 -0.0234866 0)
(-0.00581155 -0.0291071 0)
(-0.0032433 -0.0304783 0)
(8.94613e-05 -0.0300611 0)
(0.00229282 -0.030409 0)
(0.00415439 -0.0295904 0)
(0.00462232 -0.0290833 0)
(0.0047612 -0.0302406 0)
(0.00419023 -0.03047 0)
(0.00324444 -0.0299611 0)
(0.00210347 -0.0297811 0)
(0.000846994 -0.0291397 0)
(-0.000579779 -0.0294499 0)
(-0.00189887 -0.0298183 0)
(-0.00302493 -0.0304757 0)
(-0.00415798 -0.0303315 0)
(-0.00443571 -0.0296057 0)
(-0.00423836 -0.0288479 0)
(-0.003858 -0.0292413 0)
(-0.00222961 -0.0301969 0)
(6.20383e-06 -0.0305308 0)
(0.00372256 -0.0304313 0)
(0.00659067 -0.0292684 0)
(0.00991502 -0.0241247 0)
(0.00515604 -0.0204172 0)
(0.00682145 -0.019698 0)
(0.00562922 -0.00986363 0)
(-0.00211768 -0.00535902 0)
(-0.00802711 -0.0208094 0)
(-0.0111779 -0.0199609 0)
(-0.0144345 -0.026237 0)
(-0.0107769 -0.0334599 0)
(-0.00521441 -0.0369633 0)
(0.00189535 -0.0358587 0)
(0.0069853 -0.0327804 0)
(0.0092958 -0.0279354 0)
(0.00833379 -0.0232176 0)
(0.00613625 -0.0209463 0)
(0.00390168 -0.0197791 0)
(0.00214054 -0.0195443 0)
(0.00108526 -0.0196945 0)
(0.000491988 -0.0196073 0)
(-7.52034e-05 -0.0196284 0)
(-0.000706993 -0.0197839 0)
(-0.00179788 -0.0196634 0)
(-0.0037259 -0.0197993 0)
(-0.00589253 -0.02087 0)
(-0.00807881 -0.0231675 0)
(-0.00899322 -0.0277556 0)
(-0.00655441 -0.0327436 0)
(-0.00142327 -0.0365593 0)
(0.00604732 -0.0375 0)
(0.0119214 -0.034009 0)
(0.015507 -0.0267675 0)
(0.012233 -0.020317 0)
(0.00863005 -0.0198727 0)
(0.00220268 -0.00426604 0)
(-0.00211842 -0.00832914 0)
(-0.0165011 -0.0258145 0)
(-0.0231968 -0.0295248 0)
(-0.0245378 -0.0464988 0)
(-0.0190939 -0.061066 0)
(-0.0100256 -0.0691921 0)
(0.000894442 -0.0684917 0)
(0.0100385 -0.0636181 0)
(0.0158204 -0.0555708 0)
(0.0169913 -0.0475869 0)
(0.0142798 -0.0428678 0)
(0.00989768 -0.0406206 0)
(0.00573837 -0.0400038 0)
(0.00285548 -0.0404291 0)
(0.00100857 -0.040604 0)
(-0.00050816 -0.0406814 0)
(-0.00244425 -0.0405255 0)
(-0.00542274 -0.0401106 0)
(-0.00967967 -0.0405438 0)
(-0.0140474 -0.04256 0)
(-0.0167516 -0.0474055 0)
(-0.0153978 -0.0552867 0)
(-0.00925492 -0.0633912 0)
(-5.33126e-05 -0.0690245 0)
(0.0110459 -0.0697881 0)
(0.0202014 -0.0616164 0)
(0.025636 -0.0469808 0)
(0.0242608 -0.0297877 0)
(0.0173579 -0.0243251 0)
(0.00240975 -0.00655477 0)
(-0.00335492 -0.00564117 0)
(-0.0269022 -0.0196087 0)
(-0.035807 -0.0352103 0)
(-0.0357603 -0.0625086 0)
(-0.0280177 -0.0812734 0)
(-0.0150064 -0.0912633 0)
(-0.000697256 -0.0896971 0)
(0.0116483 -0.0820424 0)
(0.0207272 -0.0705706 0)
(0.0261893 -0.0612772 0)
(0.025975 -0.0544511 0)
(0.0208335 -0.0515622 0)
(0.0140539 -0.050694 0)
(0.00785547 -0.0512321 0)
(0.00268684 -0.0517736 0)
(-0.00209477 -0.0517431 0)
(-0.00742716 -0.0511551 0)
(-0.0137875 -0.0505891 0)
(-0.0206952 -0.0513267 0)
(-0.0257169 -0.0540693 0)
(-0.0257647 -0.0609556 0)
(-0.020044 -0.0702658 0)
(-0.0106828 -0.0819334 0)
(0.00167673 -0.090431 0)
(0.0161432 -0.0919695 0)
(0.029167 -0.0819844 0)
(0.036905 -0.0630731 0)
(0.036623 -0.0352669 0)
(0.0273956 -0.0173624 0)
(0.00321741 -0.0030195 0)
(-0.0131376 0.00752108 0)
(-0.0385834 -0.0162929 0)
(-0.0449605 -0.0426752 0)
(-0.0424967 -0.0737069 0)
(-0.0341811 -0.0964292 0)
(-0.0201273 -0.109143 0)
(-0.00436138 -0.109623 0)
(0.0124014 -0.100601 0)
(0.0246332 -0.0846228 0)
(0.0330333 -0.0704324 0)
(0.0354523 -0.0598282 0)
(0.031096 -0.0538006 0)
(0.0229415 -0.0526409 0)
(0.0133964 -0.0533984 0)
(0.0045241 -0.0545885 0)
(-0.00388216 -0.0544932 0)
(-0.0129005 -0.0532195 0)
(-0.0226691 -0.0524519 0)
(-0.0310301 -0.0536568 0)
(-0.0351948 -0.0597002 0)
(-0.0326216 -0.0705035 0)
(-0.0237988 -0.0848791 0)
(-0.0111889 -0.101076 0)
(0.00561333 -0.110307 0)
(0.0212438 -0.109663 0)
(0.0350282 -0.0965664 0)
(0.043009 -0.0732734 0)
(0.0451861 -0.0419942 0)
(0.0384795 -0.0135177 0)
(0.0126934 0.0103127 0)
(-0.00617009 0.0203435 0)
(-0.0372036 -0.00394035 0)
(-0.0426779 -0.039128 0)
(-0.0399839 -0.074009 0)
(-0.032572 -0.102469 0)
(-0.0209122 -0.119656 0)
(-0.00695172 -0.123172 0)
(0.00943919 -0.11353 0)
(0.0220391 -0.0943884 0)
(0.0329735 -0.0772209 0)
(0.0375029 -0.0642679 0)
(0.0366896 -0.0557732 0)
(0.0286428 -0.0549606 0)
(0.0175499 -0.0557555 0)
(0.00592814 -0.056929 0)
(-0.00518197 -0.0567966 0)
(-0.0168763 -0.055505 0)
(-0.0281226 -0.0546201 0)
(-0.0362721 -0.0555292 0)
(-0.0368113 -0.0642637 0)
(-0.0322693 -0.0774915 0)
(-0.0210732 -0.095076 0)
(-0.00834271 -0.114316 0)
(0.00807663 -0.123834 0)
(0.0218431 -0.11998 0)
(0.0331049 -0.102423 0)
(0.0403094 -0.0732096 0)
(0.0422731 -0.0377604 0)
(0.0366782 -0.00123464 0)
(0.0059424 0.0236224 0)
(-0.00220611 0.0290209 0)
(-0.0291222 0.00813389 0)
(-0.0339791 -0.0307526 0)
(-0.0320581 -0.0716477 0)
(-0.0291272 -0.104433 0)
(-0.0182481 -0.124994 0)
(-0.0073466 -0.128954 0)
(0.00796569 -0.118154 0)
(0.0195131 -0.0963625 0)
(0.0295168 -0.0735907 0)
(0.0317519 -0.0538503 0)
(0.0336235 -0.0420048 0)
(0.0275897 -0.0406875 0)
(0.0173744 -0.0424064 0)
(0.00588972 -0.0440485 0)
(-0.00532635 -0.0439411 0)
(-0.0168526 -0.0421721 0)
(-0.0271298 -0.04031 0)
(-0.033053 -0.0417843 0)
(-0.0309452 -0.0538102 0)
(-0.0289275 -0.0741773 0)
(-0.018696 -0.0971602 0)
(-0.00709471 -0.119096 0)
(0.00825324 -0.129772 0)
(0.018956 -0.125515 0)
(0.0294574 -0.104144 0)
(0.0321972 -0.0705311 0)
(0.0334572 -0.0289786 0)
(0.0286267 0.0105159 0)
(0.00208913 0.031871 0)
(0.000864573 0.0416467 0)
(-0.0183532 0.0251644 0)
(-0.0211479 -0.016514 0)
(-0.0203995 -0.0625688 0)
(-0.0188886 -0.0980162 0)
(-0.011361 -0.121556 0)
(-0.00382876 -0.127449 0)
(0.00767897 -0.116793 0)
(0.0166308 -0.0926229 0)
(0.0249432 -0.06679 0)
(0.0246974 -0.0424741 0)
(0.0275179 -0.0269971 0)
(0.0243456 -0.0225329 0)
(0.0156936 -0.0238271 0)
(0.00526236 -0.0253658 0)
(-0.00487905 -0.0252675 0)
(-0.0152989 -0.0236482 0)
(-0.0239358 -0.0221828 0)
(-0.0267508 -0.0268413 0)
(-0.0240551 -0.0428526 0)
(-0.0243893 -0.0674347 0)
(-0.0160358 -0.0935222 0)
(-0.00703866 -0.117811 0)
(0.00435211 -0.128212 0)
(0.0117552 -0.1221 0)
(0.0190923 -0.097747 0)
(0.0201226 -0.0616331 0)
(0.0203502 -0.014603 0)
(0.0174695 0.0278346 0)
(-0.000713921 0.0446772 0)
(0.00285807 0.0506419 0)
(-0.010536 0.0340037 0)
(-0.00700391 -0.00735268 0)
(-0.00416927 -0.0572414 0)
(-0.00567461 -0.0918603 0)
(-0.00139939 -0.116342 0)
(0.00126199 -0.124468 0)
(0.00876533 -0.114641 0)
(0.0145365 -0.0898585 0)
(0.0186792 -0.0611044 0)
(0.0179985 -0.0354417 0)
(0.0175727 -0.0135223 0)
(0.0183356 -0.00620026 0)
(0.0120626 -0.00666572 0)
(0.00405182 -0.00785496 0)
(-0.00378197 -0.00775263 0)
(-0.0118288 -0.00646648 0)
(-0.0179963 -0.00594883 0)
(-0.0168064 -0.0140098 0)
(-0.0177516 -0.0366793 0)
(-0.0180562 -0.0624069 0)
(-0.0140621 -0.091041 0)
(-0.00840974 -0.115664 0)
(-0.0012011 -0.125029 0)
(0.00137029 -0.116431 0)
(0.00534274 -0.0919638 0)
(0.00348508 -0.0572125 0)
(0.00641531 -0.0062641 0)
(0.00941461 0.0361166 0)
(-0.00271587 0.0532856 0)
(0.00526306 0.0544424 0)
(-0.00304085 0.038178 0)
(0.00876409 0.00143583 0)
(0.0142247 -0.0513018 0)
(0.00923151 -0.0889232 0)
(0.0108611 -0.113116 0)
(0.00842218 -0.119663 0)
(0.0105633 -0.111882 0)
(0.0124056 -0.0898724 0)
(0.0129642 -0.0630841 0)
(0.0112351 -0.0345192 0)
(0.00756766 -0.00739719 0)
(0.00872745 0.0046916 0)
(0.00673806 0.0063406 0)
(0.00214696 0.00573454 0)
(-0.00213827 0.00580571 0)
(-0.00671 0.0064591 0)
(-0.00831168 0.0046691 0)
(-0.00752691 -0.00836194 0)
(-0.0115887 -0.0359216 0)
(-0.0127278 -0.0648371 0)
(-0.0121527 -0.0912043 0)
(-0.0103912 -0.112711 0)
(-0.00859419 -0.12025 0)
(-0.0112468 -0.113656 0)
(-0.0101238 -0.0889955 0)
(-0.0151516 -0.0511225 0)
(-0.00931901 0.00244956 0)
(0.00335274 0.0393589 0)
(-0.00481252 0.0565675 0)
(0.0097667 0.055738 0)
(0.00654598 0.039707 0)
(0.0245912 0.00756262 0)
(0.031621 -0.0466391 0)
(0.0272904 -0.086682 0)
(0.0240118 -0.110099 0)
(0.0166401 -0.115004 0)
(0.0120857 -0.10599 0)
(0.0100354 -0.0871022 0)
(0.0076747 -0.0637566 0)
(0.00575556 -0.0328403 0)
(-0.000922782 -0.0034784 0)
(-0.00295504 0.0130416 0)
(0.000707619 0.0168486 0)
(3.63882e-05 0.0167674 0)
(-0.000296224 0.0167841 0)
(-0.000937231 0.016807 0)
(0.00325629 0.0126315 0)
(0.000216695 -0.00532973 0)
(-0.0059535 -0.0347815 0)
(-0.00755206 -0.0655822 0)
(-0.00982686 -0.0884073 0)
(-0.012013 -0.106535 0)
(-0.0169982 -0.115192 0)
(-0.0244252 -0.110085 0)
(-0.0286599 -0.0866187 0)
(-0.0324916 -0.045775 0)
(-0.0253319 0.00816072 0)
(-0.00590784 0.0404396 0)
(-0.0090958 0.0572802 0)
(0.0145097 0.0564474 0)
(0.0155699 0.0394735 0)
(0.0401232 0.0125132 0)
(0.0484098 -0.0406592 0)
(0.0453687 -0.0852305 0)
(0.0374098 -0.107059 0)
(0.0250712 -0.109115 0)
(0.0142091 -0.0998632 0)
(0.00823005 -0.0837521 0)
(0.00414521 -0.063401 0)
(0.000413912 -0.032964 0)
(-0.00515438 -0.0040903 0)
(-0.0119268 0.0164569 0)
(-0.00447658 0.0226396 0)
(-0.00169715 0.0233947 0)
(0.00129391 0.0233766 0)
(0.00422409 0.0225317 0)
(0.011979 0.0157151 0)
(0.0046202 -0.00639655 0)
(-0.000377699 -0.0349824 0)
(-0.00424967 -0.0650398 0)
(-0.00827548 -0.0847345 0)
(-0.0144101 -0.100257 0)
(-0.0256166 -0.109178 0)
(-0.0380793 -0.107096 0)
(-0.0466406 -0.0851266 0)
(-0.0498476 -0.038766 0)
(-0.0408284 0.0132085 0)
(-0.0150142 0.0398714 0)
(-0.0139744 0.0574613 0)
(0.018614 0.054635 0)
(0.0235807 0.035139 0)
(0.0540963 0.0131151 0)
(0.0634452 -0.0371132 0)
(0.059868 -0.0848229 0)
(0.0491534 -0.102629 0)
(0.0314221 -0.102377 0)
(0.0138345 -0.0920288 0)
(0.0042236 -0.0788138 0)
(-0.00175424 -0.0617653 0)
(-0.00761935 -0.0330199 0)
(-0.011159 -0.00547404 0)
(-0.0182592 0.0161106 0)
(-0.00987283 0.0248197 0)
(-0.00315222 0.0261181 0)
(0.00268784 0.0260949 0)
(0.00984432 0.0246767 0)
(0.0174533 0.0150167 0)
(0.0102289 -0.00765578 0)
(0.00710087 -0.0351275 0)
(0.00112591 -0.0632863 0)
(-0.00478125 -0.0797934 0)
(-0.0143964 -0.0921124 0)
(-0.0322554 -0.102207 0)
(-0.0500407 -0.102339 0)
(-0.061532 -0.0846232 0)
(-0.0645308 -0.0356645 0)
(-0.0546482 0.0133926 0)
(-0.0232709 0.0351484 0)
(-0.018513 0.0553555 0)
(0.022148 0.0486806 0)
(0.0297547 0.0260534 0)
(0.0642973 0.00688461 0)
(0.0741165 -0.0349195 0)
(0.0717619 -0.0836859 0)
(0.057392 -0.0974401 0)
(0.0338836 -0.0932551 0)
(0.010423 -0.0834197 0)
(-0.0020147 -0.0752501 0)
(-0.00860226 -0.0608531 0)
(-0.0149611 -0.0353107 0)
(-0.0168317 -0.0109289 0)
(-0.0197773 0.00873867 0)
(-0.0152465 0.0192955 0)
(-0.00442824 0.0222737 0)
(0.00362534 0.0222664 0)
(0.0148524 0.0185524 0)
(0.0180012 0.00680824 0)
(0.0157068 -0.0131213 0)
(0.0137736 -0.0373657 0)
(0.00758326 -0.0620312 0)
(0.00124911 -0.0757201 0)
(-0.0111043 -0.0833741 0)
(-0.0350481 -0.093321 0)
(-0.0586321 -0.0976171 0)
(-0.0732495 -0.0824145 0)
(-0.0759853 -0.0322231 0)
(-0.0646554 0.00664744 0)
(-0.0296834 0.0254092 0)
(-0.0224183 0.0489853 0)
(0.0256778 0.0382249 0)
(0.0341857 0.0100363 0)
(0.0691417 -0.00672588 0)
(0.0851621 -0.0331992 0)
(0.0819164 -0.079941 0)
(0.0622761 -0.0933383 0)
(0.0345545 -0.0851882 0)
(0.00761329 -0.0748259 0)
(-0.00586661 -0.0702957 0)
(-0.0116963 -0.0586795 0)
(-0.0166383 -0.0390823 0)
(-0.0193702 -0.0164201 0)
(-0.0180461 -0.00234976 0)
(-0.0147411 0.00619427 0)
(-0.00475383 0.00958087 0)
(0.0038623 0.00934737 0)
(0.0138536 0.00517944 0)
(0.0165694 -0.00438059 0)
(0.0179315 -0.0187031 0)
(0.0148802 -0.0414266 0)
(0.0104143 -0.0593874 0)
(0.00485537 -0.0704915 0)
(-0.00853081 -0.0745417 0)
(-0.0358205 -0.0851377 0)
(-0.0640171 -0.0936436 0)
(-0.0836042 -0.0792882 0)
(-0.0858978 -0.0324656 0)
(-0.0689257 -0.00769889 0)
(-0.0342054 0.00864371 0)
(-0.025996 0.038187 0)
(0.0288957 0.024279 0)
(0.0379935 -0.00968653 0)
(0.0676961 -0.0255751 0)
(0.0849521 -0.043734 0)
(0.0854655 -0.0805789 0)
(0.0678562 -0.0950088 0)
(0.0350308 -0.0796489 0)
(0.00644194 -0.0663 0)
(-0.00705741 -0.0635279 0)
(-0.0113723 -0.0557281 0)
(-0.0133896 -0.0446783 0)
(-0.0152293 -0.0283043 0)
(-0.0125092 -0.0177839 0)
(-0.00750188 -0.0210422 0)
(-0.00300136 -0.0212862 0)
(0.00185162 -0.0218076 0)
(0.00625534 -0.0218369 0)
(0.011426 -0.0186662 0)
(0.0135466 -0.0304937 0)
(0.0116703 -0.0461184 0)
(0.00985788 -0.0562706 0)
(0.00579148 -0.0629694 0)
(-0.00772755 -0.0665213 0)
(-0.0366585 -0.0822872 0)
(-0.0695909 -0.0958816 0)
(-0.0857314 -0.0804955 0)
(-0.0849066 -0.0445417 0)
(-0.0670546 -0.0272299 0)
(-0.0381041 -0.0113804 0)
(-0.0291598 0.0240696 0)
(0.0318915 0.00830579 0)
(0.0419141 -0.0312366 0)
(0.0644297 -0.0468699 0)
(0.0781468 -0.0591126 0)
(0.0759746 -0.0812576 0)
(0.0651204 -0.0912809 0)
(0.0400609 -0.090565 0)
(0.00957678 -0.0645885 0)
(-0.00557663 -0.0549212 0)
(-0.00861628 -0.0528744 0)
(-0.0084563 -0.0455842 0)
(-0.00575091 -0.0395552 0)
(-0.00455306 -0.0323417 0)
(-0.00301475 -0.0305911 0)
(-0.00147105 -0.0299469 0)
(0.00019479 -0.0301354 0)
(0.00168681 -0.0311146 0)
(0.00315893 -0.0332232 0)
(0.00435652 -0.040783 0)
(0.00700706 -0.0462407 0)
(0.00706543 -0.0529627 0)
(0.00395564 -0.0551463 0)
(-0.011956 -0.0682328 0)
(-0.0421079 -0.091958 0)
(-0.0657172 -0.091349 0)
(-0.0757146 -0.0824297 0)
(-0.077617 -0.0611068 0)
(-0.0638242 -0.0491544 0)
(-0.041878 -0.0328903 0)
(-0.0321531 0.00794036 0)
(0.0345975 -0.013373 0)
(0.0440477 -0.0479564 0)
(0.0606663 -0.0600897 0)
(0.0683243 -0.065633 0)
(0.0667655 -0.0701926 0)
(0.0600868 -0.0684465 0)
(0.0425776 -0.0674661 0)
(0.0191239 -0.066983 0)
(0.00100583 -0.0548803 0)
(-0.00515832 -0.0459064 0)
(-0.00510098 -0.0372675 0)
(-0.00404836 -0.0237012 0)
(-0.00269232 -0.0170022 0)
(-0.00158933 -0.0153108 0)
(-0.000809317 -0.0152143 0)
(-0.000267349 -0.0153208 0)
(0.000476018 -0.015618 0)
(0.0015052 -0.017535 0)
(0.00280231 -0.0245671 0)
(0.00373526 -0.0383587 0)
(0.00363757 -0.0459715 0)
(-0.00346524 -0.057956 0)
(-0.0219235 -0.0680634 0)
(-0.0444665 -0.0674047 0)
(-0.0606185 -0.0686658 0)
(-0.066809 -0.0707479 0)
(-0.0678025 -0.067149 0)
(-0.0602185 -0.0613979 0)
(-0.0438225 -0.0487574 0)
(-0.0347848 -0.0136452 0)
(0.0341396 -0.0322943 0)
(0.0431174 -0.0503782 0)
(0.0564856 -0.053686 0)
(0.0615102 -0.0517878 0)
(0.0614208 -0.047659 0)
(0.0553283 -0.040365 0)
(0.0422794 -0.0394667 0)
(0.0273396 -0.0448722 0)
(0.010784 -0.042566 0)
(0.00126806 -0.0325879 0)
(-0.000682223 -0.0179979 0)
(-0.000669238 -0.00384096 0)
(8.61314e-05 0.00370504 0)
(0.000374577 0.00598694 0)
(-1.76902e-05 0.0063058 0)
(-0.000786553 0.00622327 0)
(-0.00124546 0.00576263 0)
(-0.00107753 0.00324561 0)
(-0.000486113 -0.00463016 0)
(-0.000767588 -0.0189849 0)
(-0.00319612 -0.0336809 0)
(-0.0137029 -0.0437845 0)
(-0.0303636 -0.0457598 0)
(-0.0441668 -0.0401902 0)
(-0.0555891 -0.0403338 0)
(-0.0613887 -0.0479542 0)
(-0.0612867 -0.0522446 0)
(-0.0562304 -0.053957 0)
(-0.0429901 -0.0501381 0)
(-0.0339605 -0.0321024 0)
(0.0288727 -0.0395701 0)
(0.0421771 -0.0414884 0)
(0.0526682 -0.0366192 0)
(0.0568226 -0.0299385 0)
(0.0536663 -0.0193781 0)
(0.0498267 -0.0105952 0)
(0.0476291 -0.0179104 0)
(0.0381486 -0.0259161 0)
(0.0220402 -0.0239716 0)
(0.00974338 -0.013442 0)
(0.00577468 0.00137755 0)
(0.00426297 0.0161556 0)
(0.00372073 0.0244056 0)
(0.00272161 0.0273372 0)
(0.000866575 0.0280079 0)
(-0.00142186 0.027927 0)
(-0.00335755 0.0271208 0)
(-0.00451649 0.0239911 0)
(-0.00531643 0.0154768 0)
(-0.00721906 0.000533303 0)
(-0.0118699 -0.0144025 0)
(-0.0249707 -0.024888 0)
(-0.041102 -0.0271453 0)
(-0.0499443 -0.0197821 0)
(-0.0505853 -0.0118999 0)
(-0.0531317 -0.0196545 0)
(-0.0564735 -0.0302719 0)
(-0.0524847 -0.0365164 0)
(-0.042048 -0.0408558 0)
(-0.0284964 -0.0389754 0)
(0.0260923 -0.0411769 0)
(0.0369406 -0.0300005 0)
(0.0490198 -0.0175064 0)
(0.048304 -0.00418556 0)
(0.0444154 0.00709963 0)
(0.0527257 0.00663572 0)
(0.0587343 -0.00475792 0)
(0.0515478 -0.00946282 0)
(0.0350685 -0.00564778 0)
(0.0197236 0.00611919 0)
(0.0130785 0.0215348 0)
(0.00976591 0.0369485 0)
(0.00772419 0.0459207 0)
(0.00522771 0.0494487 0)
(0.00179106 0.0504817 0)
(-0.00212377 0.0504368 0)
(-0.00564913 0.0493005 0)
(-0.00831309 0.0456064 0)
(-0.0106261 0.0363983 0)
(-0.0143397 0.0209077 0)
(-0.0217483 0.00560553 0)
(-0.0377753 -0.00656358 0)
(-0.0541383 -0.010519 0)
(-0.0610092 -0.00661799 0)
(-0.0548374 0.0038118 0)
(-0.0448737 0.00587043 0)
(-0.0476019 -0.00457842 0)
(-0.0490539 -0.017087 0)
(-0.0366842 -0.0294616 0)
(-0.0255261 -0.0401976 0)
(0.0194741 -0.038599 0)
(0.0319766 -0.0159367 0)
(0.0390691 0.00473299 0)
(0.0358993 0.021049 0)
(0.0449039 0.0235379 0)
(0.0635546 0.0121674 0)
(0.0708178 0.00594333 0)
(0.0646334 0.00597063 0)
(0.0475587 0.0126524 0)
(0.0295084 0.0267234 0)
(0.0199471 0.0423738 0)
(0.0149909 0.0580963 0)
(0.0114422 0.0675238 0)
(0.00752714 0.0716009 0)
(0.00262381 0.0729989 0)
(-0.00276992 0.0729456 0)
(-0.0077499 0.0714751 0)
(-0.0118105 0.0672651 0)
(-0.0155968 0.0576614 0)
(-0.020898 0.0418731 0)
(-0.0312194 0.0261546 0)
(-0.0497863 0.0121122 0)
(-0.0666235 0.00501941 0)
(-0.0725771 0.00415943 0)
(-0.0659066 0.00911027 0)
(-0.0468782 0.0213466 0)
(-0.0358875 0.0200277 0)
(-0.0375998 0.00471114 0)
(-0.0328341 -0.0150367 0)
(-0.0186038 -0.0373271 0)
(0.00966451 -0.0294294 0)
(0.0288831 -0.00110268 0)
(0.0236428 0.0290348 0)
(0.0320348 0.0369125 0)
(0.0571277 0.0265792 0)
(0.0757324 0.0157272 0)
(0.0801173 0.016662 0)
(0.0741171 0.0218759 0)
(0.057514 0.0319234 0)
(0.0377649 0.0473981 0)
(0.0259059 0.0636248 0)
(0.0196805 0.0797824 0)
(0.0148543 0.0897554 0)
(0.0096327 0.0943486 0)
(0.00339944 0.0960618 0)
(-0.00332492 0.0960377 0)
(-0.00961493 0.0942571 0)
(-0.0149496 0.0895626 0)
(-0.0199884 0.0794462 0)
(-0.0265401 0.0632986 0)
(-0.0390897 0.0470785 0)
(-0.0592074 0.03144 0)
(-0.0756542 0.0212811 0)
(-0.0814136 0.0155352 0)
(-0.077222 0.0137296 0)
(-0.0598063 0.0230383 0)
(-0.0337612 0.0350704 0)
(-0.0236186 0.0286438 0)
(-0.0283951 9.85109e-05 0)
(-0.0094752 -0.0277237 0)
(0.00261634 -0.0136149 0)
(0.0153862 0.0269582 0)
(0.0167438 0.0457153 0)
(0.044702 0.0380449 0)
(0.0723917 0.0227669 0)
(0.0834917 0.023537 0)
(0.0866492 0.0296632 0)
(0.0808799 0.038543 0)
(0.0644398 0.0508963 0)
(0.0438375 0.0680236 0)
(0.0302022 0.085026 0)
(0.0230066 0.101368 0)
(0.0171347 0.111812 0)
(0.0110112 0.116917 0)
(0.00390636 0.118969 0)
(-0.00365886 0.11894 0)
(-0.0108141 0.116861 0)
(-0.017036 0.111671 0)
(-0.0231045 0.101118 0)
(-0.0306592 0.0849588 0)
(-0.0449315 0.0677638 0)
(-0.0657523 0.050666 0)
(-0.0819048 0.0379384 0)
(-0.0876062 0.0286878 0)
(-0.0844331 0.0221683 0)
(-0.0737521 0.0205825 0)
(-0.0474718 0.0345605 0)
(-0.0181311 0.0438463 0)
(-0.0159596 0.0281271 0)
(-0.00243481 -0.0122485 0)
(-0.00938935 0.00631177 0)
(0.0111182 0.0491477 0)
(0.0303879 0.0440996 0)
(0.0628268 0.0285452 0)
(0.0785671 0.0282427 0)
(0.0878444 0.0342262 0)
(0.0904685 0.0436244 0)
(0.0842846 0.0555253 0)
(0.0683446 0.0705122 0)
(0.0474931 0.0888882 0)
(0.032544 0.107227 0)
(0.0244593 0.123152 0)
(0.0179439 0.134043 0)
(0.0113808 0.139509 0)
(0.00398124 0.141758 0)
(-0.00379062 0.141749 0)
(-0.0112169 0.139457 0)
(-0.0178409 0.133921 0)
(-0.0244979 0.122914 0)
(-0.0329421 0.107071 0)
(-0.0483915 0.0887546 0)
(-0.0693066 0.0703333 0)
(-0.0850217 0.0552501 0)
(-0.091044 0.0429368 0)
(-0.0884651 0.0330862 0)
(-0.079369 0.0267897 0)
(-0.0643697 0.0263209 0)
(-0.0331193 0.0411072 0)
(-0.0118029 0.0488741 0)
(0.0102605 0.00867777 0)
(-0.0104253 0.0359602 0)
(0.0177778 0.051481 0)
(0.0479008 0.0350373 0)
(0.0681002 0.0317972 0)
(0.0812121 0.0368124 0)
(0.0897381 0.0461769 0)
(0.0916392 0.0588545 0)
(0.0854178 0.0734482 0)
(0.070269 0.0901538 0)
(0.0495836 0.109746 0)
(0.0334558 0.128746 0)
(0.0243583 0.144706 0)
(0.0174201 0.155922 0)
(0.0108431 0.161434 0)
(0.00376851 0.163643 0)
(-0.00356755 0.163608 0)
(-0.0106219 0.161337 0)
(-0.0171906 0.155757 0)
(-0.0242005 0.144453 0)
(-0.0336122 0.128618 0)
(-0.0501398 0.109558 0)
(-0.0707082 0.0900634 0)
(-0.0856176 0.0731124 0)
(-0.0918067 0.0583088 0)
(-0.0898919 0.0453149 0)
(-0.0815073 0.0356742 0)
(-0.0686203 0.0303163 0)
(-0.0491814 0.0327362 0)
(-0.0190752 0.048554 0)
(0.00874278 0.0385246 0)
(0.00746936 0.0558088 0)
(0.0269577 0.0411996 0)
(0.0520488 0.0358859 0)
(0.0692205 0.0386992 0)
(0.0813924 0.0471891 0)
(0.0891624 0.0593949 0)
(0.0904646 0.0747209 0)
(0.0841492 0.091394 0)
(0.0700131 0.110096 0)
(0.0497149 0.130818 0)
(0.0326175 0.150812 0)
(0.0226423 0.166195 0)
(0.0157581 0.176989 0)
(0.00974264 0.181962 0)
(0.00346119 0.18391 0)
(-0.00306479 0.183873 0)
(-0.00933864 0.181844 0)
(-0.0153314 0.176818 0)
(-0.0222356 0.166011 0)
(-0.0325278 0.150675 0)
(-0.0500179 0.130724 0)
(-0.0701587 0.110026 0)
(-0.084131 0.0912456 0)
(-0.0903664 0.0742924 0)
(-0.0891067 0.0587173 0)
(-0.0814873 0.0464171 0)
(-0.0694464 0.03777 0)
(-0.0524547 0.03477 0)
(-0.027896 0.0397757 0)
(-0.00990586 0.0560493 0)
(0.0197359 0.0532835 0)
(0.0296725 0.0433968 0)
(0.0519936 0.0412431 0)
(0.0684077 0.0471464 0)
(0.0799213 0.0582071 0)
(0.0867481 0.0728534 0)
(0.0872104 0.0907149 0)
(0.0808264 0.109718 0)
(0.0673345 0.130308 0)
(0.0472371 0.152518 0)
(0.0291054 0.172936 0)
(0.0191547 0.186926 0)
(0.0135105 0.196324 0)
(0.00844533 0.200609 0)
(0.00306393 0.202345 0)
(-0.00255563 0.20229 0)
(-0.00794795 0.200464 0)
(-0.0130354 0.196111 0)
(-0.0187487 0.186878 0)
(-0.0289956 0.172905 0)
(-0.0474983 0.152473 0)
(-0.0674723 0.130268 0)
(-0.080762 0.109522 0)
(-0.087073 0.0903273 0)
(-0.0865435 0.07221 0)
(-0.0798222 0.0574614 0)
(-0.0684146 0.0463353 0)
(-0.0521905 0.0404555 0)
(-0.030333 0.0427968 0)
(-0.0212904 0.0526554 0)
(0.0240749 0.0531313 0)
(0.0301523 0.0465613 0)
(0.0511695 0.0466065 0)
(0.0666849 0.0554779 0)
(0.0770591 0.0694902 0)
(0.0824909 0.0868532 0)
(0.0820136 0.107152 0)
(0.0751151 0.128668 0)
(0.0615527 0.151893 0)
(0.040997 0.175799 0)
(0.0230004 0.195043 0)
(0.0151174 0.206608 0)
(0.0109604 0.213616 0)
(0.00694185 0.217388 0)
(0.00255397 0.219011 0)
(-0.00206909 0.218956 0)
(-0.00649781 0.217246 0)
(-0.0106063 0.213353 0)
(-0.0149719 0.2063 0)
(-0.0231295 0.194911 0)
(-0.0410965 0.175959 0)
(-0.061594 0.151984 0)
(-0.0750518 0.128561 0)
(-0.081902 0.106783 0)
(-0.0823334 0.08627 0)
(-0.0769525 0.0688122 0)
(-0.0666199 0.0547335 0)
(-0.051136 0.0459811 0)
(-0.0305623 0.0461881 0)
(-0.0248103 0.0525527 0)
(0.0253329 0.0526766 0)
(0.0303676 0.0498689 0)
(0.0500096 0.0524156 0)
(0.0642572 0.0641636 0)
(0.0731691 0.0809568 0)
(0.0771644 0.100795 0)
(0.0753858 0.124041 0)
(0.067015 0.149758 0)
(0.0521072 0.17697 0)
(0.0319204 0.201119 0)
(0.0176403 0.214086 0)
(0.0116308 0.222684 0)
(0.00839476 0.228739 0)
(0.00540572 0.232393 0)
(0.00201186 0.234027 0)
(-0.0016123 0.233975 0)
(-0.00506349 0.232253 0)
(-0.00818644 0.228449 0)
(-0.0116883 0.222336 0)
(-0.0180242 0.213695 0)
(-0.0321041 0.201122 0)
(-0.0519581 0.177323 0)
(-0.066699 0.149859 0)
(-0.0751121 0.123756 0)
(-0.0769081 0.100173 0)
(-0.0730002 0.0802343 0)
(-0.0641602 0.0634006 0)
(-0.0499823 0.0517288 0)
(-0.0304842 0.0494092 0)
(-0.0254877 0.0521963 0)
(0.0254086 0.0517989 0)
(0.0304709 0.0524138 0)
(0.0487519 0.0580257 0)
(0.061273 0.072893 0)
(0.0686458 0.0922122 0)
(0.0710359 0.115533 0)
(0.0671113 0.144681 0)
(0.0564037 0.176278 0)
(0.040899 0.204024 0)
(0.0239626 0.223817 0)
(0.0138805 0.22968 0)
(0.00887312 0.236784 0)
(0.00629039 0.242126 0)
(0.00414444 0.2458 0)
(0.00158731 0.247524 0)
(-0.00118105 0.24749 0)
(-0.00381675 0.245688 0)
(-0.00609213 0.241788 0)
(-0.0089216 0.236385 0)
(-0.0142181 0.229174 0)
(-0.0241705 0.223283 0)
(-0.0404933 0.204272 0)
(-0.0558518 0.176638 0)
(-0.0665663 0.144632 0)
(-0.0705921 0.115097 0)
(-0.0683536 0.0914637 0)
(-0.0610986 0.0721262 0)
(-0.0487209 0.0573376 0)
(-0.0305302 0.051993 0)
(-0.0254401 0.0514607 0)
(0.0251022 0.0500009 0)
(0.0304856 0.0545169 0)
(0.0470987 0.0637384 0)
(0.0576619 0.0816162 0)
(0.0637079 0.104047 0)
(0.0638149 0.134464 0)
(0.0560455 0.17086 0)
(0.0440054 0.204245 0)
(0.030664 0.227471 0)
(0.017995 0.239779 0)
(0.0109919 0.242393 0)
(0.00683089 0.248723 0)
(0.00484363 0.254086 0)
(0.00334934 0.25784 0)
(0.00140377 0.259741 0)
(-0.000744212 0.259758 0)
(-0.00279659 0.257851 0)
(-0.0045235 0.254066 0)
(-0.00680638 0.248441 0)
(-0.0111553 0.241863 0)
(-0.018009 0.238989 0)
(-0.0302318 0.227293 0)
(-0.0432146 0.20439 0)
(-0.0553209 0.171123 0)
(-0.0631106 0.134312 0)
(-0.0632512 0.103523 0)
(-0.0573364 0.0808785 0)
(-0.0469323 0.0631652 0)
(-0.0305154 0.0541422 0)
(-0.0251351 0.0495578 0)
(0.0246069 0.0470576 0)
(0.0301069 0.0561168 0)
(0.0446098 0.0695602 0)
(0.0538735 0.0906003 0)
(0.0573727 0.120504 0)
(0.0527467 0.159234 0)
(0.0426331 0.198143 0)
(0.0324707 0.226692 0)
(0.0225833 0.243499 0)
(0.0145663 0.250816 0)
(0.00933241 0.252772 0)
(0.00557909 0.259048 0)
(0.00367214 0.264738 0)
(0.00250326 0.268635 0)
(0.00118813 0.270643 0)
(-0.000358705 0.270673 0)
(-0.00187023 0.268649 0)
(-0.00314726 0.264602 0)
(-0.00514261 0.258746 0)
(-0.00909513 0.252247 0)
(-0.0142893 0.24999 0)
(-0.0220164 0.243005 0)
(-0.0317054 0.226492 0)
(-0.0417293 0.198226 0)
(-0.0519426 0.159401 0)
(-0.0568108 0.120204 0)
(-0.0534787 0.0899705 0)
(-0.0442614 0.0689625 0)
(-0.029912 0.05581 0)
(-0.0244088 0.0466547 0)
(0.0235828 0.0435353 0)
(0.028806 0.0575234 0)
(0.0413226 0.0752986 0)
(0.0486425 0.10435 0)
(0.046667 0.142663 0)
(0.0387562 0.186158 0)
(0.0300636 0.220326 0)
(0.0228336 0.242409 0)
(0.0177531 0.253518 0)
(0.0128715 0.258528 0)
(0.00829856 0.261363 0)
(0.00519005 0.268094 0)
(0.00348764 0.274279 0)
(0.00235716 0.278747 0)
(0.00115906 0.28102 0)
(0.000105548 0.281011 0)
(-0.00100797 0.278735 0)
(-0.00226184 0.274231 0)
(-0.00433368 0.267905 0)
(-0.00783202 0.260965 0)
(-0.0125423 0.257799 0)
(-0.017471 0.252679 0)
(-0.0222729 0.241813 0)
(-0.029466 0.219898 0)
(-0.0379531 0.186127 0)
(-0.0460054 0.142793 0)
(-0.0482545 0.103877 0)
(-0.0410548 0.074755 0)
(-0.0284459 0.0571663 0)
(-0.0231873 0.0434751 0)
(0.0214457 0.0402288 0)
(0.0268696 0.0588726 0)
(0.0359411 0.0862125 0)
(0.0384853 0.123437 0)
(0.032535 0.169013 0)
(0.0250073 0.208676 0)
(0.0191454 0.23572 0)
(0.0162298 0.251957 0)
(0.0148387 0.258804 0)
(0.011799 0.264402 0)
(0.00802259 0.268521 0)
(0.00561687 0.275788 0)
(0.00429221 0.28254 0)
(0.00343265 0.287641 0)
(0.00222942 0.290429 0)
(0.000770386 0.290599 0)
(-0.000782717 0.288048 0)
(-0.00218603 0.282957 0)
(-0.00410368 0.276019 0)
(-0.0070408 0.268464 0)
(-0.0112469 0.264074 0)
(-0.0146807 0.258147 0)
(-0.016319 0.25109 0)
(-0.0190576 0.234947 0)
(-0.0248645 0.208081 0)
(-0.0319848 0.168872 0)
(-0.0379572 0.12327 0)
(-0.0357827 0.0858366 0)
(-0.0267504 0.0585808 0)
(-0.0210739 0.0404184 0)
(0.0161761 0.0378294 0)
(0.0256186 0.0618405 0)
(0.0268472 0.100413 0)
(0.0254582 0.147324 0)
(0.0184064 0.191047 0)
(0.0133372 0.223771 0)
(0.0112612 0.244581 0)
(0.0122929 0.256172 0)
(0.0133358 0.262186 0)
(0.0120407 0.268775 0)
(0.00922405 0.274493 0)
(0.00687019 0.282487 0)
(0.00509808 0.289888 0)
(0.00382206 0.295336 0)
(0.00257053 0.298269 0)
(0.00126612 0.298471 0)
(-0.000184592 0.2959 0)
(-0.00184206 0.290649 0)
(-0.00417819 0.283276 0)
(-0.00716941 0.275103 0)
(-0.0106291 0.269226 0)
(-0.0126074 0.262268 0)
(-0.0122818 0.2556 0)
(-0.0115006 0.243653 0)
(-0.0136275 0.222847 0)
(-0.0185674 0.190386 0)
(-0.0252284 0.146959 0)
(-0.0265675 0.100178 0)
(-0.0255763 0.0618852 0)
(-0.015971 0.0380963 0)
(0.00761689 0.0373192 0)
(0.020566 0.0697609 0)
(0.0158367 0.117544 0)
(0.0104493 0.169402 0)
(0.00418291 0.209312 0)
(0.00459699 0.23379 0)
(0.00840748 0.246915 0)
(0.0136526 0.255381 0)
(0.0152617 0.262904 0)
(0.0145839 0.271344 0)
(0.011829 0.279485 0)
(0.00873732 0.288618 0)
(0.00621568 0.296664 0)
(0.00439052 0.302414 0)
(0.00283923 0.305499 0)
(0.00136969 0.305724 0)
(-0.000260999 0.303077 0)
(-0.00227254 0.297631 0)
(-0.00510496 0.289793 0)
(-0.00862918 0.280702 0)
(-0.0119329 0.272621 0)
(-0.013239 0.263944 0)
(-0.0124257 0.255673 0)
(-0.00810522 0.246264 0)
(-0.00479713 0.232718 0)
(-0.0050072 0.207987 0)
(-0.0123114 0.168025 0)
(-0.0162295 0.117089 0)