/*--------------------------------*- C++ -*----------------------------------*\
| =========                 |                                                 |
| \\      /  F ield         | OpenFOAM: The Open Source CFD Toolbox           |
|  \\    /   O peration     | Version:  v1606+                                |
|   \\  /    A nd           | Web:      www.OpenFOAM.com                      |
|    \\/     M anipulation  |                                                 |
\*---------------------------------------------------------------------------*/
FoamFile
{
    version     2.0;
    format      ascii;
    class       volScalarField;
    location    "1.68";
    object      alpha.air;
}
// * * * * * * * * * * * * * * * * * * * * * * * * * * * * * * * * * * * * * //

dimensions      [0 0 0 0 0 0 0];

internalField   nonuniform List<scalar> 
6000
(
0.564143
0.564143
0.564143
0.564143
0.564143
0.564143
0.564144
0.564235
0.587784
0.603112
0.60299
0.60299
0.610022
0.606546
0.593976
0.592499
0.592499
0.592499
0.593182
0.56282
0.562816
0.562814
0.562812
0.56281
0.562808
0.562807
0.562809
0.572175
0.572194
0.572195
0.585952
0.585199
0.578948
0.586133
0.591378
0.595951
0.608988
0.63617
0.644184
0.644184
0.642919
0.643691
0.647172
0.64681
0.647074
0.6356
0.632251
0.634578
0.634587
0.628872
0.604457
0.597065
0.589542
0.589504
0.590871
0.607856
0.651992
0.682657
0.632102
0.63974
0.659496
0.640958
0.608399
0.58648
0.560094
0.546807
0.54129
0.5658
0.589413
0.606766
0.629841
0.641952
0.646772
0.644222
0.635002
0.629546
0.621331
0.607713
0.596246
0.579481
0.577381
0.588821
0.6153
0.628197
0.643785
0.675159
0.689488
0.689476
0.679047
0.682682
0.671574
0.671572
0.671567
0.648065
0.610615
0.582723
0.536562
0.515286
0.535373
0.546393
0.609053
0.646699
0.64679
0.64672
0.642239
0.639354
0.625814
0.587027
0.556402
0.547682
0.577605
0.615982
0.645654
0.660344
0.676476
0.689421
0.689447
0.689439
0.689406
0.689366
0.671564
0.671562
0.671552
0.671547
0.665186
0.636832
0.557748
0.484786
0.4894
0.494319
0.566055
0.637937
0.646719
0.64679
0.643512
0.643264
0.62559
0.569187
0.512591
0.528374
0.58563
0.604107
0.60773
0.613679
0.628186
0.662438
0.687753
0.689406
0.689366
0.689327
0.671553
0.671551
0.671547
0.671536
0.658716
0.629065
0.556347
0.470345
0.466428
0.478266
0.512975
0.602906
0.639968
0.640729
0.630807
0.634266
0.609104
0.538751
0.483955
0.514761
0.577539
0.546349
0.525911
0.525747
0.537859
0.576873
0.619954
0.655977
0.674417
0.677242
0.634692
0.636037
0.625837
0.607015
0.583617
0.554231
0.513315
0.466065
0.466026
0.470225
0.478369
0.538939
0.596921
0.60503
0.59254
0.597562
0.565405
0.494984
0.470803
0.490802
0.549513
0.500739
0.500738
0.500737
0.500738
0.500734
0.514704
0.555677
0.593299
0.603315
0.54566
0.543041
0.522979
0.50078
0.498556
0.498563
0.516407
0.473268
0.466064
0.466442
0.472285
0.484556
0.525878
0.540591
0.5362
0.535756
0.503109
0.464042
0.461681
0.46901
0.50935
0.500741
0.500744
0.525167
0.504598
0.500738
0.500735
0.500739
0.500738
0.500793
0.488358
0.488362
0.488368
0.51895
0.548089
0.584162
0.617327
0.611917
0.512663
0.470772
0.46871
0.468789
0.47658
0.484731
0.486462
0.482369
0.465061
0.458612
0.458621
0.460015
0.48472
0.532877
0.621819
0.674677
0.644421
0.602387
0.550913
0.503789
0.500744
0.500743
0.501476
0.550112
0.607111
0.65926
0.691117
0.710095
0.720062
0.727064
0.692194
0.596939
0.500581
0.47448
0.465812
0.464208
0.464218
0.460624
0.458625
0.45859
0.458624
0.458628
0.511544
0.662606
0.73241
0.736548
0.736598
0.705323
0.667514
0.634815
0.610456
0.588791
0.659599
0.71001
0.730426
0.741785
0.742287
0.742406
0.742534
0.751919
0.758507
0.755515
0.688121
0.605306
0.550075
0.504382
0.474718
0.459606
0.459592
0.459925
0.460972
0.480533
0.616665
0.728635
0.736543
0.736559
0.736548
0.706475
0.684732
0.683093
0.683016
0.680193
0.7271
0.741714
0.741723
0.741715
0.739867
0.726812
0.715361
0.72615
0.758623
0.802482
0.822113
0.803346
0.764709
0.706705
0.63424
0.568088
0.527746
0.521414
0.548934
0.627856
0.71129
0.736059
0.736239
0.736541
0.721281
0.67065
0.638643
0.644973
0.682555
0.637404
0.695302
0.725571
0.720755
0.719416
0.709749
0.682079
0.657052
0.666894
0.717464
0.793001
0.850726
0.871428
0.86896
0.854746
0.827911
0.791468
0.752628
0.737343
0.760069
0.786879
0.775398
0.739305
0.715509
0.707511
0.681857
0.62133
0.586946
0.599981
0.646345
0.54483
0.636862
0.685184
0.672356
0.667554
0.653958
0.625421
0.599028
0.600422
0.651977
0.759049
0.845504
0.87831
0.879453
0.879007
0.878144
0.877565
0.875381
0.871685
0.873676
0.866437
0.830435
0.759158
0.689753
0.650205
0.621219
0.564164
0.542252
0.559867
0.569556
0.480166
0.585359
0.629578
0.607449
0.599502
0.58842
0.570177
0.552701
0.550373
0.585137
0.700822
0.821563
0.873481
0.879515
0.879618
0.88156
0.886799
0.889207
0.889254
0.889347
0.888452
0.870972
0.810918
0.703117
0.599877
0.543026
0.505591
0.508547
0.512196
0.478205
0.449292
0.537018
0.570742
0.549102
0.54048
0.53283
0.525511
0.519486
0.519522
0.532282
0.627123
0.771777
0.856859
0.876763
0.877777
0.881277
0.887773
0.889231
0.889264
0.889226
0.889168
0.888298
0.862448
0.754787
0.575172
0.484107
0.473449
0.480897
0.464477
0.447887
0.446664
0.500444
0.524107
0.508618
0.502982
0.49885
0.496997
0.496493
0.497921
0.504265
0.552167
0.695022
0.818512
0.862464
0.868822
0.875118
0.884694
0.889208
0.889217
0.889193
0.889117
0.889047
0.884119
0.795084
0.550436
0.478385
0.463135
0.460564
0.448547
0.446663
0.446656
0.475211
0.490914
0.485102
0.482457
0.479865
0.478556
0.478368
0.4796
0.484365
0.50256
0.598819
0.74508
0.823263
0.84069
0.849778
0.864908
0.88058
0.889189
0.889119
0.889076
0.889061
0.886695
0.781082
0.508775
0.489271
0.46164
0.452929
0.446761
0.446657
0.446657
0.460404
0.469935
0.470009
0.468523
0.466167
0.464021
0.462628
0.462722
0.465878
0.472995
0.516407
0.636513
0.742283
0.773123
0.783571
0.808304
0.845037
0.876432
0.886404
0.88851
0.888142
0.876098
0.703176
0.482588
0.489325
0.462783
0.449107
0.446671
0.446692
0.446854
0.453217
0.458022
0.459363
0.458059
0.455438
0.452932
0.451207
0.450912
0.453311
0.45729
0.469632
0.529293
0.61938
0.648615
0.656656
0.707036
0.780776
0.840074
0.866439
0.873509
0.870178
0.830828
0.586256
0.468933
0.46775
0.45522
0.447454
0.446992
0.475138
0.566335
0.450185
0.452131
0.452715
0.451093
0.448645
0.446936
0.446218
0.446239
0.449262
0.45235
0.455646
0.47101
0.508222
0.513401
0.521414
0.618082
0.719749
0.784529
0.820288
0.829687
0.816579
0.724155
0.516393
0.461729
0.452855
0.45015
0.450061
0.476996
0.590908
0.653605
0.449464
0.449813
0.449246
0.447433
0.446217
0.446214
0.446224
0.450176
0.452201
0.454154
0.455985
0.460354
0.465025
0.488197
0.556045
0.635785
0.699706
0.743348
0.767892
0.769642
0.739484
0.607058
0.542707
0.547232
0.496857
0.456501
0.466575
0.559065
0.652499
0.657198
0.449444
0.449414
0.447819
0.446316
0.446221
0.449848
0.451387
0.475201
0.466879
0.462965
0.460685
0.460374
0.472904
0.620912
0.707845
0.725432
0.731826
0.744858
0.746887
0.735922
0.696037
0.621361
0.667632
0.683156
0.610445
0.528009
0.536054
0.591118
0.621241
0.621992
0.450118
0.449972
0.447793
0.44656
0.45034
0.507408
0.619501
0.642823
0.601812
0.511509
0.473951
0.479161
0.624887
0.775242
0.820709
0.824666
0.808095
0.790937
0.777957
0.764638
0.741148
0.729944
0.756476
0.72693
0.647653
0.568135
0.552674
0.561522
0.577124
0.573731
0.452585
0.452658
0.449657
0.449983
0.47448
0.626851
0.773859
0.830781
0.840079
0.735385
0.645794
0.640718
0.736047
0.806473
0.84326
0.860999
0.864749
0.857592
0.846508
0.836593
0.822155
0.805346
0.76231
0.696434
0.61545
0.557297
0.537598
0.536388
0.549272
0.541298
0.458024
0.481499
0.460476
0.458654
0.522609
0.654271
0.776377
0.876419
0.915123
0.8997
0.837584
0.778761
0.765576
0.788644
0.826652
0.859144
0.879007
0.884085
0.884085
0.878974
0.854266
0.799853
0.727709
0.637573
0.567196
0.532839
0.52437
0.525416
0.534314
0.524084
0.472725
0.497377
0.487437
0.497034
0.534791
0.58933
0.714848
0.863183
0.915123
0.915123
0.901979
0.837628
0.774841
0.761657
0.791078
0.839667
0.874828
0.884085
0.884085
0.8774
0.834542
0.753009
0.656068
0.573618
0.528277
0.514738
0.514803
0.518003
0.524829
0.513993
0.478385
0.501373
0.50141
0.504211
0.506068
0.534455
0.639525
0.807452
0.912345
0.915123
0.913463
0.867037
0.787266
0.748377
0.755936
0.809094
0.861934
0.880144
0.876182
0.84896
0.773397
0.666462
0.575485
0.522944
0.504822
0.502979
0.505525
0.509681
0.515815
0.505012
0.46622
0.482008
0.485026
0.487488
0.488679
0.498281
0.55698
0.709668
0.883531
0.915123
0.913112
0.88084
0.807389
0.748267
0.739829
0.785013
0.835645
0.854512
0.843283
0.789074
0.681131
0.577167
0.517147
0.495651
0.491401
0.492526
0.495959
0.499891
0.504912
0.494549
0.454276
0.462008
0.468008
0.472655
0.476485
0.481221
0.49843
0.596833
0.808948
0.909353
0.906316
0.883762
0.826099
0.760344
0.739583
0.758631
0.789387
0.802804
0.783211
0.70915
0.599381
0.516901
0.486914
0.481373
0.481001
0.482673
0.486269
0.489813
0.493109
0.484266
0.449528
0.452793
0.457004
0.461207
0.465193
0.469135
0.475811
0.51285
0.695882
0.879482
0.887622
0.876929
0.836642
0.772106
0.72097
0.709471
0.724866
0.733284
0.703979
0.63241
0.547279
0.490504
0.47417
0.471509
0.472144
0.473985
0.477218
0.480481
0.482574
0.47586
0.448637
0.448995
0.450691
0.452908
0.455506
0.458869
0.465185
0.478806
0.593864
0.811987
0.855369
0.856561
0.832139
0.755944
0.669015
0.647819
0.650607
0.641402
0.607114
0.557903
0.514228
0.485971
0.471608
0.466069
0.465849
0.46732
0.469837
0.472628
0.47406
0.469458
0.448634
0.448642
0.448648
0.449016
0.44984
0.452207
0.456949
0.461213
0.527652
0.720148
0.809444
0.820244
0.798701
0.705393
0.596237
0.564493
0.552909
0.536031
0.514557
0.499582
0.493965
0.487607
0.475239
0.466266
0.462809
0.463039
0.464475
0.466429
0.467372
0.46437
0.448645
0.45153
0.448658
0.44865
0.448661
0.449978
0.45418
0.454658
0.484383
0.631667
0.749251
0.760058
0.719536
0.611939
0.504993
0.476943
0.46688
0.461477
0.45936
0.461661
0.470193
0.481078
0.478904
0.46907
0.462592
0.460635
0.460732
0.461511
0.461863
0.45993
0.451687
0.466227
0.453341
0.448709
0.448754
0.467228
0.479498
0.477462
0.47967
0.562946
0.676917
0.668661
0.593517
0.49132
0.443115
0.435003
0.433558
0.433478
0.436292
0.440809
0.448725
0.461764
0.471315
0.468906
0.462731
0.459008
0.457744
0.457243
0.456908
0.455658
0.466591
0.580757
0.50373
0.49119
0.523709
0.545191
0.549929
0.543759
0.49221
0.537445
0.595893
0.549036
0.47069
0.435672
0.435176
0.435089
0.435499
0.432057
0.431683
0.431719
0.435912
0.443808
0.4552
0.461924
0.460293
0.45675
0.45504
0.453431
0.452367
0.451375
0.536539
0.673587
0.609404
0.570381
0.570035
0.566794
0.574232
0.574232
0.561461
0.547211
0.513397
0.45489
0.435791
0.435571
0.439666
0.463745
0.46983
0.45188
0.432367
0.431248
0.431278
0.43454
0.441691
0.450404
0.454312
0.45333
0.453303
0.450929
0.449295
0.447904
0.591214
0.673596
0.649505
0.584693
0.536609
0.515588
0.525
0.544886
0.565037
0.529346
0.449842
0.435838
0.435615
0.439407
0.475171
0.515552
0.515576
0.512417
0.452749
0.433246
0.43122
0.431245
0.434511
0.440592
0.446763
0.449505
0.453115
0.450617
0.449636
0.447093
0.562425
0.627886
0.604402
0.536416
0.484384
0.471528
0.478999
0.508811
0.564998
0.471195
0.435922
0.435621
0.435833
0.462981
0.51554
0.515582
0.515556
0.515568
0.482671
0.444901
0.431724
0.430999
0.431597
0.434395
0.439399
0.445152
0.453003
0.4524
0.461339
0.447036
0.519267
0.54008
0.525747
0.475911
0.453791
0.455982
0.466575
0.494724
0.50511
0.437538
0.43567
0.435865
0.448691
0.493716
0.515567
0.515469
0.504954
0.481087
0.47574
0.448858
0.43321
0.430938
0.430931
0.431416
0.433779
0.439544
0.452744
0.457361
0.515148
0.449614
0.507269
0.475519
0.4624
0.447434
0.444175
0.445698
0.451326
0.462771
0.441521
0.435737
0.435899
0.446519
0.492686
0.514376
0.50834
0.499587
0.4739
0.454102
0.453928
0.448959
0.434406
0.430914
0.430895
0.430888
0.431045
0.433998
0.445944
0.468452
0.589144
0.449806
0.507279
0.451167
0.444869
0.442813
0.441531
0.440578
0.438892
0.438752
0.435848
0.435951
0.454239
0.547989
0.599219
0.554402
0.505656
0.474264
0.454142
0.453977
0.45412
0.479361
0.457739
0.432308
0.431439
0.430896
0.430883
0.430926
0.436858
0.472212
0.593729
0.501359
0.507239
0.446368
0.444894
0.445175
0.452077
0.461981
0.452058
0.448051
0.439782
0.448217
0.599987
0.736423
0.747836
0.669946
0.581629
0.534974
0.504388
0.491573
0.494858
0.604714
0.604855
0.452341
0.447929
0.432222
0.430889
0.430885
0.431136
0.462014
0.593476
0.573901
0.477071
0.446339
0.446619
0.458895
0.551277
0.668507
0.663283
0.565172
0.476853
0.582243
0.762683
0.81907
0.818024
0.782908
0.729396
0.692146
0.666515
0.661023
0.673099
0.750089
0.790877
0.65489
0.485608
0.455615
0.431055
0.430881
0.430924
0.440901
0.522369
0.563108
0.475939
0.449585
0.484781
0.637371
0.755027
0.815088
0.833846
0.814953
0.771396
0.797995
0.804969
0.821583
0.821268
0.810085
0.793464
0.784306
0.792183
0.803659
0.829894
0.851673
0.900241
0.899093
0.773646
0.614217
0.457373
0.431047
0.430891
0.431046
0.453773
0.508869
0.569975
0.555392
0.688897
0.78287
0.809461
0.82778
0.871015
0.92008
0.937404
0.91551
0.848178
0.836065
0.83153
0.825952
0.829399
0.843928
0.87859
0.896494
0.917165
0.925131
0.945646
0.953121
0.940059
0.882328
0.650153
0.452733
0.431077
0.430951
0.436812
0.472729
0.622778
0.673468
0.768443
0.78996
0.795706
0.829592
0.89511
0.947528
0.963323
0.954306
0.912643
0.888566
0.882149
0.881734
0.892666
0.912807
0.939105
0.947764
0.954033
0.955866
0.957682
0.956485
0.953668
0.945627
0.877721
0.629149
0.455161
0.431138
0.434889
0.486116
0.61662
0.712306
0.758032
0.760867
0.788904
0.85568
0.926825
0.960679
0.965761
0.963903
0.952631
0.94121
0.938409
0.940185
0.945925
0.954743
0.962189
0.963659
0.963425
0.961685
0.959223
0.955924
0.952447
0.948228
0.92794
0.773989
0.512069
0.432925
0.435028
0.485671
0.612024
0.709982
0.719929
0.729012
0.792602
0.895675
0.952986
0.965748
0.965759
0.965628
0.964282
0.962187
0.961658
0.962658
0.963982
0.965442
0.965814
0.965824
0.964479
0.961837
0.958683
0.954995
0.951109
0.946924
0.933125
0.812907
0.538191
0.439039
0.437689
0.485721
0.612071
0.690786
0.678517
0.696226
0.813016
0.932675
0.964465
0.965759
0.965762
0.965774
0.965788
0.96575
0.96576
0.965816
0.965829
0.965814
0.965828
0.965747
0.963956
0.961275
0.958009
0.954175
0.950059
0.945953
0.934535
0.817405
0.528396
0.440456
0.449564
0.48579
0.638927
0.662335
0.632026
0.674364
0.848845
0.95279
0.965759
0.965761
0.965511
0.965688
0.965797
0.965804
0.965811
0.965824
0.965813
0.965825
0.965812
0.965307
0.96317
0.960471
0.957316
0.953517
0.949348
0.945376
0.93655
0.837929
0.547423
0.444345
0.456848
0.464822
0.666949
0.642221
0.595086
0.667099
0.871785
0.957298
0.965758
0.965615
0.964735
0.965539
0.965791
0.965802
0.965812
0.965812
0.965823
0.965812
0.965758
0.964552
0.96235
0.959751
0.956837
0.953148
0.94868
0.944689
0.93844
0.87336
0.646555
0.477906
0.500388
0.488107
0.67852
0.635543
0.574781
0.664831
0.874513
0.954405
0.965513
0.965094
0.963509
0.965076
0.965708
0.965471
0.9658
0.965811
0.965805
0.965604
0.965091
0.96372
0.961732
0.959309
0.956449
0.952718
0.947972
0.94414
0.939342
0.883769
0.715968
0.604743
0.677235
0.572332
0.678554
0.638281
0.568198
0.649089
0.849574
0.94756
0.964799
0.964757
0.962208
0.963993
0.96501
0.964566
0.965333
0.965562
0.965197
0.964843
0.964127
0.962968
0.961155
0.958767
0.955901
0.952392
0.947563
0.943668
0.939785
0.888345
0.693401
0.64497
0.706587
0.626697
0.678513
0.647001
0.562389
0.614828
0.82046
0.943477
0.964591
0.964687
0.961175
0.96227
0.963641
0.96334
0.964289
0.964563
0.963887
0.963743
0.963165
0.962122
0.960438
0.95819
0.955455
0.952165
0.94713
0.943211
0.939744
0.893072
0.669977
0.634054
0.706587
0.618939
0.672047
0.646716
0.549465
0.593627
0.810772
0.943331
0.965278
0.964706
0.960603
0.960519
0.962074
0.962169
0.962906
0.96305
0.962257
0.962553
0.962163
0.961177
0.959643
0.95756
0.954921
0.95181
0.946832
0.943077
0.93944
0.890159
0.653346
0.627855
0.706586
0.586355
0.637629
0.613544
0.533507
0.58916
0.818863
0.947347
0.965376
0.964795
0.960415
0.959396
0.960649
0.961177
0.961637
0.961766
0.960726
0.961357
0.961064
0.960159
0.958734
0.956876
0.954419
0.951438
0.94655
0.942819
0.93917
0.888427
0.640615
0.615123
0.683309
0.549895
0.589695
0.573022
0.526005
0.616485
0.859483
0.953791
0.965342
0.964934
0.960664
0.95897
0.959383
0.960205
0.960713
0.961113
0.959598
0.960222
0.959997
0.959195
0.957892
0.956275
0.953925
0.951066
0.946348
0.942779
0.93952
0.887899
0.633238
0.586571
0.611915
0.493699
0.547161
0.555044
0.526078
0.692196
0.904215
0.959151
0.96534
0.965095
0.96152
0.958942
0.958373
0.959112
0.960114
0.960945
0.958968
0.959142
0.959073
0.958346
0.957125
0.955668
0.953457
0.950849
0.946315
0.942978
0.940102
0.891529
0.632033
0.546645
0.51326
0.465333
0.526896
0.553313
0.533978
0.755636
0.927622
0.96162
0.965308
0.965205
0.962642
0.959448
0.957817
0.957906
0.95974
0.960918
0.958769
0.958208
0.958339
0.957667
0.956555
0.955219
0.95316
0.950791
0.946319
0.943504
0.940922
0.897449
0.651284
0.500454
0.470142
0.465331
0.526895
0.563803
0.549978
0.777935
0.933426
0.962044
0.965308
0.965223
0.963294
0.960333
0.957667
0.956874
0.959432
0.960893
0.958792
0.957606
0.957765
0.957131
0.956166
0.954945
0.95309
0.95094
0.946616
0.944585
0.941623
0.903421
0.683343
0.473501
0.465344
0.465337
0.526929
0.56376
0.558936
0.774843
0.932352
0.961513
0.965278
0.964997
0.963348
0.960784
0.957742
0.956288
0.958932
0.960874
0.958866
0.957318
0.957269
0.956685
0.955865
0.954779
0.953118
0.951152
0.947027
0.945695
0.941911
0.908254
0.722704
0.465427
0.465348
0.465343
0.526951
0.563774
0.559607
0.731644
0.919057
0.958056
0.964152
0.96444
0.962714
0.960347
0.957715
0.956031
0.957998
0.960136
0.958871
0.957084
0.956646
0.956117
0.955481
0.954547
0.953151
0.951299
0.947279
0.946264
0.941773
0.908659
0.76034
0.513233
0.465386
0.476857
0.509545
0.563718
0.525863
0.683934
0.889046
0.948786
0.96167
0.963405
0.960953
0.958197
0.956387
0.955434
0.956366
0.958079
0.958008
0.956508
0.955638
0.955133
0.954663
0.953945
0.952966
0.951273
0.947248
0.946269
0.938959
0.8827
0.733215
0.569206
0.539663
0.524723
0.482011
0.530563
0.498634
0.644527
0.842039
0.932143
0.957688
0.961416
0.957825
0.953933
0.95302
0.953247
0.95357
0.954775
0.955503
0.954809
0.953881
0.95336
0.952944
0.952445
0.951901
0.950127
0.945669
0.943793
0.93088
0.848521
0.670868
0.577312
0.580199
0.535409
0.467335
0.485652
0.491576
0.613501
0.784839
0.911249
0.95212
0.957367
0.953036
0.948236
0.948107
0.948909
0.949278
0.950389
0.951497
0.951588
0.95099
0.950498
0.95009
0.949669
0.949296
0.946762
0.941226
0.936918
0.915155
0.804534
0.620806
0.556899
0.580131
0.545439
0.467328
0.46748
0.485487
0.583436
0.730002
0.893819
0.945669
0.951276
0.946296
0.941319
0.941971
0.943121
0.943847
0.945213
0.946646
0.947225
0.947006
0.94669
0.946322
0.945816
0.945241
0.941395
0.934383
0.926176
0.894478
0.761929
0.571306
0.556045
0.580101
0.549736
0.467398
0.467815
0.505408
0.559209
0.694504
0.883885
0.938963
0.944056
0.937555
0.932883
0.934515
0.936362
0.938043
0.939858
0.941479
0.942385
0.942421
0.942331
0.942078
0.941439
0.940396
0.935348
0.926895
0.914725
0.875137
0.731527
0.551052
0.551301
0.580129
0.527924
0.511003
0.527669
0.530338
0.556723
0.687976
0.878539
0.9317
0.935477
0.926614
0.922481
0.925276
0.928487
0.931827
0.93435
0.936244
0.937362
0.937619
0.937665
0.937479
0.936806
0.935189
0.929598
0.920165
0.905551
0.863495
0.722346
0.536106
0.534637
0.557398
0.494961
0.512239
0.534369
0.534374
0.534526
0.690081
0.871847
0.921981
0.924432
0.913409
0.909567
0.913135
0.918928
0.924635
0.928253
0.930686
0.931986
0.932448
0.932527
0.932285
0.931548
0.929322
0.923872
0.914138
0.898473
0.857609
0.720073
0.529414
0.508982
0.493104
0.465221
0.495521
0.534377
0.523927
0.511357
0.679692
0.858629
0.908076
0.90965
0.897987
0.893944
0.898109
0.908103
0.916751
0.921836
0.924785
0.926245
0.926772
0.926818
0.926432
0.925287
0.922542
0.917324
0.907863
0.890719
0.849369
0.711772
0.519081
0.475012
0.463155
0.461327
0.469816
0.494875
0.501666
0.503517
0.673468
0.843284
0.888173
0.888078
0.879206
0.875041
0.880628
0.896226
0.908578
0.915294
0.918688
0.920236
0.920797
0.92066
0.919869
0.917978
0.914515
0.909145
0.89969
0.879486
0.832062
0.697824
0.516969
0.462845
0.462798
0.465571
0.457672
0.468064
0.476044
0.496048
0.681688
0.82419
0.858217
0.858579
0.854893
0.851182
0.860447
0.883095
0.899853
0.908306
0.912109
0.913717
0.914243
0.91368
0.912181
0.90919
0.904165
0.897386
0.887245
0.864329
0.804155
0.669702
0.51951
0.477437
0.483163
0.483184
0.456665
0.458106
0.465088
0.533975
0.687129
0.788383
0.8152
0.821381
0.823124
0.823174
0.839574
0.870051
0.890603
0.900499
0.904554
0.906164
0.90645
0.905151
0.902538
0.897841
0.890444
0.880586
0.86834
0.84239
0.76233
0.599448
0.496503
0.496243
0.492331
0.471922
0.460895
0.461164
0.495804
0.584147
0.676086
0.732218
0.758463
0.772433
0.781619
0.791986
0.820133
0.857095
0.880378
0.891119
0.895187
0.89663
0.896375
0.893984
0.889644
0.882452
0.871584
0.856734
0.839544
0.809513
0.718055
0.562699
0.474683
0.470761
0.463768
0.455983
0.484178
0.508522
0.54904
0.583194
0.627796
0.659478
0.686409
0.709607
0.730648
0.757763
0.80107
0.842794
0.867986
0.87907
0.882784
0.883743
0.882639
0.878637
0.871738
0.861161
0.845617
0.823893
0.797394
0.760942
0.680811
0.553917
0.46862
0.458274
0.455502
0.455337
0.527737
0.542205
0.549109
0.554118
0.558723
0.575117
0.605646
0.639372
0.67113
0.713531
0.776528
0.826082
0.852617
0.86318
0.866052
0.866251
0.863791
0.857441
0.8471
0.832322
0.810911
0.779686
0.73882
0.69242
0.632083
0.547946
0.486389
0.45899
0.455352
0.455333
0.532135
0.532388
0.519447
0.503778
0.496606
0.510651
0.538145
0.559271
0.584248
0.636885
0.732539
0.805887
0.832899
0.841427
0.843476
0.842494
0.838023
0.828705
0.81415
0.793945
0.76488
0.721727
0.66442
0.606885
0.56611
0.534493
0.510357
0.481529
0.465235
0.455356
0.519259
0.494644
0.477705
0.472495
0.474853
0.496049
0.516338
0.514007
0.516769
0.523734
0.622576
0.757309
0.802611
0.810548
0.812272
0.809718
0.802529
0.789562
0.769753
0.742473
0.704613
0.651761
0.586729
0.529321
0.505615
0.5071
0.507786
0.502983
0.497645
0.470453
0.483809
0.464298
0.464472
0.472072
0.483646
0.507153
0.517787
0.511218
0.487997
0.472221
0.501779
0.663663
0.749877
0.766025
0.767511
0.763242
0.752705
0.735308
0.709734
0.675515
0.632048
0.580075
0.52767
0.491085
0.477291
0.479192
0.489281
0.498227
0.498096
0.490553
0.462013
0.462066
0.471934
0.483646
0.502464
0.51775
0.517751
0.498975
0.461236
0.4566
0.470943
0.5808
0.673188
0.700992
0.701951
0.696108
0.683225
0.662618
0.634053
0.598392
0.559181
0.52318
0.497929
0.4841
0.473183
0.467019
0.468676
0.476941
0.48859
0.491313
0.461204
0.470741
0.477266
0.498182
0.51304
0.517722
0.506248
0.459996
0.448088
0.456488
0.482525
0.523076
0.582402
0.609787
0.611937
0.607355
0.595919
0.577715
0.554468
0.528915
0.506069
0.491368
0.485517
0.482256
0.474586
0.466962
0.462292
0.461856
0.466372
0.483007
0.464662
0.482026
0.473034
0.495605
0.512871
0.490443
0.457209
0.44114
0.448064
0.467661
0.481501
0.475157
0.49781
0.51329
0.517673
0.517525
0.512732
0.504388
0.494831
0.48618
0.479865
0.476772
0.477565
0.479492
0.475822
0.46885
0.463966
0.461821
0.461724
0.46702
0.480157
0.482153
0.472814
0.477714
0.471899
0.448587
0.437111
0.441012
0.452087
0.464568
0.457883
0.448937
0.454033
0.457933
0.461125
0.463394
0.464426
0.464678
0.464949
0.465718
0.466524
0.467159
0.469519
0.474002
0.474718
0.470336
0.466408
0.464517
0.461753
0.464199
0.483532
0.474076
0.460215
0.45228
0.441288
0.434294
0.435596
0.441442
0.448333
0.448676
0.442394
0.442394
0.444263
0.44525
0.446499
0.447862
0.449258
0.450712
0.452402
0.454599
0.45697
0.45885
0.461301
0.466096
0.470389
0.46935
0.467251
0.467162
0.466674
0.467535
0.482501
0.456695
0.444012
0.436581
0.432458
0.432669
0.435824
0.440348
0.442316
0.442347
0.442329
0.442837
0.444291
0.444592
0.444783
0.445034
0.44535
0.445756
0.446457
0.447807
0.449804
0.451897
0.454171
0.458
0.463116
0.465572
0.465664
0.467027
0.470972
0.47636
0.473135
0.442464
0.433799
0.431057
0.431093
0.433264
0.437216
0.441137
0.443255
0.442926
0.444095
0.445529
0.445294
0.444858
0.444656
0.444515
0.444342
0.444022
0.443737
0.443872
0.444893
0.446546
0.448556
0.451462
0.455688
0.459473
0.461584
0.464443
0.469739
0.477772
0.455336
0.434029
0.429786
0.42982
0.432131
0.43779
0.445514
0.45032
0.453601
0.454658
0.453698
0.451111
0.447584
0.4455
0.444596
0.444283
0.444154
0.443844
0.443109
0.442224
0.442036
0.442774
0.444255
0.446496
0.44973
0.453288
0.456222
0.460061
0.46797
0.477637
0.439217
0.430126
0.429601
0.431138
0.440057
0.458373
0.47434
0.480308
0.480954
0.477207
0.467037
0.457148
0.449894
0.445948
0.444371
0.443956
0.444011
0.443972
0.44338
0.442247
0.440968
0.440535
0.441125
0.442675
0.445132
0.448087
0.450938
0.454941
0.464706
0.477571
0.431751
0.42943
0.429653
0.440553
0.473836
0.504054
0.512042
0.512747
0.505824
0.492617
0.474298
0.458908
0.449896
0.445602
0.443819
0.443428
0.443795
0.44428
0.444175
0.442941
0.441187
0.439738
0.439202
0.43982
0.441515
0.443852
0.446296
0.449816
0.459424
0.477552
0.4294
0.429476
0.439154
0.480521
0.528576
0.533713
0.528891
0.519344
0.505815
0.489594
0.471766
0.45734
0.448852
0.444693
0.443007
0.442738
0.443465
0.44467
0.445528
0.444747
0.442301
0.440054
0.438515
0.437989
0.438726
0.44038
0.442335
0.445123
0.453146
0.476595
0.42946
0.438629
0.47902
0.545215
0.549371
0.538165
0.527718
0.518371
0.502435
0.481891
0.466253
0.454135
0.447122
0.443602
0.442144
0.441981
0.443024
0.44501
0.447331
0.448133
0.445106
0.441446
0.438923
0.4373
0.436838
0.437579
0.43895
0.441041
0.447481
0.470649
0.437627
0.47948
0.54477
0.575
0.549368
0.536829
0.525954
0.514897
0.493169
0.472935
0.459986
0.45091
0.445556
0.442643
0.441327
0.441187
0.442436
0.44518
0.449507
0.453575
0.451966
0.445075
0.440756
0.437833
0.436086
0.435574
0.436105
0.437493
0.442787
0.462463
0.460735
0.561718
0.570619
0.575062
0.546966
0.533126
0.523086
0.506937
0.480948
0.464552
0.45469
0.448296
0.444247
0.441801
0.440545
0.440324
0.441595
0.445002
0.45181
0.460841
0.470674
0.453846
0.445763
0.440342
0.436841
0.434734
0.434013
0.434475
0.43843
0.454016
0.47539
0.586454
0.571273
0.574949
0.542301
0.529297
0.521809
0.492159
0.469467
0.457415
0.450561
0.446085
0.443022
0.440988
0.439778
0.439387
0.440417
0.444149
0.45303
0.469422
0.492397
0.47009
0.455038
0.446856
0.440373
0.435733
0.433121
0.432706
0.434575
0.445123
0.488074
0.586473
0.572857
0.574877
0.53821
0.526738
0.51484
0.476018
0.459931
0.451755
0.447196
0.444055
0.441774
0.440143
0.439024
0.438441
0.438967
0.442267
0.451855
0.47727
0.492416
0.474984
0.460077
0.455682
0.449065
0.440681
0.434281
0.432641
0.432693
0.437336
0.508581
0.583621
0.57366
0.574808
0.540975
0.527462
0.494872
0.463003
0.452384
0.447335
0.444315
0.442118
0.440466
0.439225
0.438271
0.43757
0.437494
0.439664
0.448307
0.47671
0.4864
0.462701
0.453234
0.456728
0.459057
0.453389
0.441474
0.432733
0.432616
0.432888
0.496287
0.557252
0.552108
0.568868
0.538286
0.510463
0.469298
0.452653
0.446853
0.44383
0.441797
0.440267
0.439105
0.438213
0.437481
0.436799
0.436284
0.437079
0.443133
0.4685
0.472358
0.454224
0.446366
0.452393
0.460441
0.463833
0.461899
0.441244
0.432674
0.432602
0.482069
0.511101
0.497781
0.51542
0.501687
0.474063
0.452958
0.446056
0.442954
0.441005
0.439583
0.438517
0.437722
0.437119
0.436617
0.436086
0.435437
0.435189
0.438001
0.452229
0.460804
0.45785
0.446318
0.446329
0.455002
0.463931
0.465019
0.464967
0.442129
0.432654
0.470476
0.461197
0.453844
0.460553
0.458037
0.449977
0.444751
0.441959
0.44005
0.438643
0.437612
0.436877
0.436358
0.435982
0.435682
0.435357
0.43484
0.434208
0.434718
0.440197
0.450946
0.457845
0.448499
0.444491
0.44777
0.457474
0.465016
0.465101
0.464936
0.437737
0.461221
0.451953
0.451964
0.451925
0.444409
0.442227
0.440895
0.439182
0.437674
0.436568
0.435826
0.435349
0.435046
0.434852
0.434715
0.434575
0.434294
0.43375
0.433315
0.434764
0.440851
0.451337
0.449388
0.444444
0.444787
0.449347
0.459367
0.465023
0.465066
0.452247
0.451976
0.45197
0.453714
0.464771
0.447855
0.441733
0.438664
0.436779
0.435472
0.43465
0.434183
0.433937
0.43382
0.433774
0.433763
0.433759
0.433685
0.43339
0.43289
0.432771
0.434717
0.441046
0.446127
0.444041
0.443904
0.44581
0.451173
0.461794
0.465028
0.4651
0.452016
0.455808
0.493457
0.484476
0.453432
0.440513
0.435986
0.434175
0.433304
0.432875
0.432704
0.432678
0.432722
0.432794
0.432872
0.432953
0.433011
0.432944
0.432651
0.432268
0.432351
0.43457
0.439341
0.44131
0.442379
0.444263
0.44701
0.453896
0.463904
0.464955
0.452135
0.52829
0.545097
0.489461
0.450987
0.436772
0.432539
0.431605
0.431416
0.431403
0.431498
0.431667
0.431845
0.431989
0.432103
0.432215
0.432327
0.432398
0.432329
0.432089
0.431816
0.432141
0.434132
0.436762
0.439133
0.442013
0.444854
0.448928
0.458931
0.464918
0.472935
0.545025
0.544972
0.490474
0.443521
0.431385
0.429285
0.429675
0.430139
0.43044
0.430759
0.431089
0.431356
0.43152
0.431607
0.431661
0.431718
0.431816
0.431875
0.431832
0.431669
0.431571
0.432001
0.433273
0.435303
0.438439
0.442065
0.445906
0.454331
0.464898
0.498576
0.544965
0.516012
0.483414
0.435019
0.426142
0.426828
0.428422
0.429422
0.430028
0.430596
0.431084
0.431391
0.431538
0.431547
0.431448
0.431349
0.431329
0.431369
0.431424
0.431424
0.431371
0.431406
0.431707
0.432663
0.434875
0.438349
0.442454
0.450082
0.464724
0.480266
0.529644
0.469275
0.449853
0.42595
0.423081
0.42559
0.427853
0.429147
0.43008
0.430883
0.431519
0.431886
0.431966
0.431839
0.431606
0.431361
0.431109
0.430981
0.430964
0.431025
0.431079
0.43111
0.431142
0.431406
0.432538
0.434996
0.438648
0.445331
0.461615
0.464539
0.479991
0.443461
0.428526
0.422447
0.423024
0.425787
0.427929
0.429356
0.430737
0.43209
0.433025
0.433407
0.433293
0.432847
0.432265
0.431692
0.431228
0.430882
0.430659
0.430608
0.430671
0.430753
0.430779
0.430814
0.431294
0.432775
0.435562
0.441161
0.455618
0.464357
0.44942
0.430303
0.422618
0.422406
0.423753
0.426335
0.428394
0.430507
0.433053
0.435276
0.436486
0.436667
0.436081
0.435024
0.433802
0.432648
0.431727
0.431071
0.430657
0.430384
0.430314
0.430358
0.430397
0.430385
0.430551
0.431384
0.433435
0.43816
0.449691
0.464302
0.435239
0.423942
0.42169
0.422386