/*--------------------------------*- C++ -*----------------------------------*\
| =========                 |                                                 |
| \\      /  F ield         | OpenFOAM: The Open Source CFD Toolbox           |
|  \\    /   O peration     | Version:  v1606+                                |
|   \\  /    A nd           | Web:      www.OpenFOAM.com                      |
|    \\/     M anipulation  |                                                 |
\*---------------------------------------------------------------------------*/
FoamFile
{
    version     2.0;
    format      ascii;
    class       volScalarField;
    location    "1.68";
    object      p_rgh;
}
// * * * * * * * * * * * * * * * * * * * * * * * * * * * * * * * * * * * * * //

dimensions      [1 -1 -2 0 0 0 0];

internalField   nonuniform List<scalar> 
6000
(
107793
107793
107797
107802
107808
107814
107817
107815
107811
107809
107807
107803
107799
107798
107801
107804
107807
107808
107809
107814
107814
107810
107802
107792
107780
107765
107751
107743
107746
107744
107749
107753
107762
107771
107781
107790
107796
107795
107794
107791
107786
107780
107776
107774
107774
107778
107783
107787
107789
107790
107789
107782
107772
107760
107748
107733
107717
107708
107716
107713
107726
107735
107749
107766
107788
107808
107827
107830
107825
107818
107802
107791
107785
107783
107786
107789
107796
107807
107814
107817
107807
107789
107767
107753
107739
107722
107715
107714
107714
107712
107724
107724
107724
107736
107758
107781
107821
107851
107853
107851
107818
107793
107788
107786
107787
107789
107798
107821
107838
107835
107809
107782
107763
107750
107738
107728
107724
107721
107720
107719
107730
107729
107729
107728
107733
107754
107809
107867
107878
107884
107847
107802
107792
107789
107791
107791
107803
107837
107869
107852
107809
107797
107793
107788
107777
107754
107736
107733
107731
107731
107738
107738
107737
107737
107745
107765
107814
107876
107886
107889
107883
107827
107798
107796
107803
107801
107819
107864
107893
107865
107815
107837
107849
107847
107840
107817
107790
107766
107753
107751
107777
107774
107780
107792
107805
107820
107839
107869
107870
107879
107897
107871
107829
107824
107834
107830
107854
107900
107903
107880
107826
107856
107844
107835
107842
107859
107866
107848
107824
107817
107858
107856
107865
107870
107851
107825
107784
107813
107833
107849
107869
107892
107875
107868
107873
107874
107897
107913
107896
107880
107833
107812
107777
107736
107764
107794
107831
107869
107890
107898
107889
107874
107848
107788
107737
107682
107637
107634
107740
107801
107828
107858
107878
107885
107889
107894
107902
107889
107872
107857
107816
107725
107611
107554
107590
107648
107724
107801
107828
107841
107824
107756
107679
107610
107566
107537
107519
107501
107532
107637
107752
107797
107827
107848
107860
107869
107865
107854
107842
107830
107753
107562
107481
107482
107488
107534
107590
107639
107678
107711
107631
107564
107536
107519
107515
107510
107502
107478
107453
107441
107515
107613
107681
107746
107796
107822
107823
107819
107812
107787
107613
107477
107477
107486
107496
107545
107584
107594
107599
107608
107560
107539
107538
107536
107535
107548
107555
107525
107461
107380
107335
107348
107394
107471
107570
107661
107717
107725
107687
107584
107481
107465
107480
107492
107526
107609
107666
107666
107617
107687
107629
107582
107588
107588
107599
107635
107663
107631
107533
107399
107296
107252
107248
107262
107296
107346
107402
107424
107391
107357
107387
107459
107515
107544
107597
107702
107766
107755
107690
107851
107748
107667
107687
107693
107710
107750
107781
107762
107657
107464
107309
107245
107236
107230
107225
107220
107220
107224
107221
107237
107302
107430
107561
107648
107711
107818
107864
107844
107835
107986
107863
107784
107822
107833
107847
107870
107889
107878
107800
107582
107357
107258
107241
107235
107226
107212
107204
107201
107201
107203
107236
107346
107547
107750
107870
107948
107950
107952
108021
108073
107978
107914
107953
107965
107973
107978
107978
107967
107932
107744
107462
107295
107252
107244
107233
107215
107209
107206
107205
107205
107207
107257
107465
107820
108010
108039
108031
108070
108106
108109
108073
108025
108053
108060
108062
108058
108051
108041
108024
107926
107635
107380
107286
107269
107251
107227
107213
107210
107208
107208
107209
107219
107402
107905
108060
108096
108105
108133
108139
108139
108147
108113
108122
108123
108123
108121
108116
108111
108101
108067
107865
107550
107378
107336
107312
107275
107236
107213
107211
107211
107212
107218
107449
108036
108078
108138
108157
108170
108169
108166
108201
108178
108175
108174
108175
108176
108176
108176
108173
108166
108081
107815
107573
107500
107471
107409
107319
107243
107219
107214
107216
107246
107644
108141
108117
108174
108202
108204
108199
108187
108240
108227
108221
108220
108222
108224
108225
108227
108226
108228
108217
108092
107882
107810
107786
107656
107474
107329
107266
107250
107260
107358
107945
108212
108203
108228
108241
108236
108163
107937
108272
108265
108260
108260
108261
108259
108256
108255
108252
108256
108266
108249
108169
108157
108130
107880
107624
107463
107376
107356
107392
107628
108141
108255
108269
108274
108270
108197
107903
107745
108300
108297
108295
108294
108289
108279
108270
108255
108254
108260
108272
108278
108275
108206
108019
107817
107663
107559
107502
107503
107586
107934
108076
108047
108181
108288
108264
108016
107767
107756
108328
108326
108327
108324
108314
108287
108264
108193
108218
108242
108267
108284
108252
107836
107599
107560
107558
107536
107541
107578
107689
107884
107740
107694
107895
108126
108107
107955
107874
107873
108357
108357
108359
108355
108332
108152
107811
107736
107852
108118
108244
108250
107837
107408
107283
107278
107334
107392
107437
107480
107549
107577
107500
107586
107814
108044
108088
108065
108022
108032
108384
108384
108390
108384
108301
107827
107376
107200
107169
107484
107761
107794
107524
107325
107223
107175
107168
107194
107231
107264
107310
107363
107496
107695
107936
108106
108161
108163
108124
108149
108404
108333
108398
108402
108194
107773
107388
107072
106949
106996
107193
107387
107446
107390
107282
107187
107128
107115
107118
107137
107218
107391
107619
107899
108112
108210
108228
108219
108189
108220
108390
108311
108344
108315
108191
108015
107608
107125
106955
106954
106998
107213
107430
107489
107406
107256
107146
107119
107122
107147
107289
107556
107870
108130
108263
108292
108281
108263
108236
108270
108398
108321
108324
108320
108321
108235
107889
107324
106970
106959
106965
107124
107402
107547
107537
107367
107194
107136
107152
107247
107504
107864
108162
108323
108363
108351
108329
108306
108280
108314
108464
108411
108406
108405
108413
108397
108209
107683
107076
106963
106970
107084
107346
107564
107608
107460
107290
107229
107271
107462
107839
108195
108385
108435
108426
108402
108376
108352
108329
108362
108527
108503
108488
108482
108484
108489
108454
108117
107353
106987
106998
107079
107290
107536
107625
107568
107465
107421
107494
107761
108150
108428
108507
108498
108473
108447
108419
108396
108378
108407
108559
108551
108544
108542
108547
108558
108566
108462
107789
107101
107069
107109
107261
107508
107711
107767
107717
107688
107797
108056
108354
108535
108560
108539
108511
108483
108456
108433
108419
108440
108570
108573
108578
108585
108598
108614
108626
108619
108203
107364
107195
107190
107285
107585
107930
108021
108016
108052
108177
108347
108480
108548
108567
108557
108532
108507
108482
108461
108448
108462
108571
108575
108588
108605
108627
108648
108667
108701
108486
107732
107376
107335
107424
107800
108239
108368
108413
108473
108540
108565
108544
108526
108539
108545
108535
108516
108496
108478
108467
108476
108566
108556
108582
108605
108633
108657
108675
108723
108666
108093
107618
107580
107753
108195
108624
108722
108747
108748
108729
108685
108613
108529
108504
108517
108522
108512
108499
108486
108479
108483
108545
108479
108548
108595
108627
108581
108559
108608
108666
108365
107907
107958
108282
108699
108851
108837
108811
108789
108758
108717
108660
108579
108510
108496
108502
108502
108496
108489
108485
108487
108477
107973
108325
108408
108293
108225
108230
108287
108563
108426
108220
108447
108778
108863
108786
108724
108690
108695
108695
108689
108661
108615
108548
108500
108490
108492
108489
108488
108487
108489
108173
107559
107856
108052
108078
108116
108102
108122
108205
108313
108518
108787
108817
108732
108632
108471
108425
108504
108606
108621
108623
108607
108569
108520
108491
108485
108476
108480
108482
108487
107935
107561
107676
107985
108224
108338
108309
108226
108140
108336
108717
108744
108673
108573
108351
108149
108145
108159
108445
108549
108567
108571
108558
108529
108497
108479
108457
108462
108461
108474
108078
107777
107889
108211
108456
108516
108483
108345
108085
108544
108673
108607
108529
108345
108084
108095
108105
108110
108264
108443
108512
108523
108528
108522
108503
108478
108439
108437
108386
108461
108276
108187
108254
108481
108565
108538
108480
108346
108308
108606
108546
108463
108335
108107
108025
108051
108126
108255
108265
108379
108454
108474
108487
108499
108502
108485
108427
108404
108117
108443
108298
108466
108521
108565
108548
108519
108482
108424
108524
108493
108407
108264
108007
107927
108002
108085
108241
108345
108324
108322
108390
108422
108441
108464
108487
108495
108453
108349
107750
108445
108244
108529
108537
108510
108477
108454
108450
108440
108431
108372
108190
107668
107409
107664
107954
108154
108278
108277
108257
108097
108202
108354
108388
108425
108460
108494
108494
108335
107722
108193
108191
108496
108467
108415
108324
108237
108273
108285
108314
108223
107401
106685
106629
107042
107516
107775
107945
108012
107984
107391
107380
108192
108253
108375
108432
108479
108521
108397
107724
107825
108310
108449
108396
108272
107740
107094
107110
107627
108085
107512
106549
106251
106259
106445
106729
106928
107063
107090
107020
106605
106383
107109
108026
108214
108401
108464
108517
108512
108105
107887
108279
108393
108156
107290
106633
106293
106179
106271
106502
106357
106327
106241
106244
106304
106390
106435
106387
106321
106175
106057
105792
105795
106482
107361
108242
108447
108511
108560
108473
108180
107742
107805
107033
106496
106339
106227
105974
105692
105592
105714
106093
106163
106189
106219
106197
106112
105916
105814
105699
105656
105543
105501
105573
105897
107200
108325
108507
108559
108558
108371
107450
107152
106599
106469
106427
106222
105841
105539
105447
105497
105733
105870
105906
105908
105844
105729
105579
105530
105495
105486
105477
105485
105501
105547
105936
107364
108384
108569
108574
108293
107511
106948
106676
106652
106478
106079
105661
105463
105433
105443
105506
105571
105587
105576
105542
105491
105449
105441
105443
105454
105470
105490
105511
105536
105655
106556
108095
108584
108595
108306
107571
106986
106922
106859
106471
105851
105509
105433
105433
105433
105440
105451
105454
105447
105439
105431
105429
105430
105439
105455
105475
105497
105521
105547
105630
106347
107991
108596
108618
108333
107608
107128
107198
107082
106364
105634
105442
105434
105434
105433
105432
105432
105431
105431
105430
105431
105431
105432
105443
105460
105480
105504
105530
105556
105626
106339
108105
108649
108600
108375
107481
107334
107517
107246
106160
105515
105435
105435
105436
105434
105433
105433
105432
105432
105432
105432
105432
105436
105449
105467
105487
105511
105537
105563
105618
106231
108048
108696
108623
108570
107341
107495
107788
107326
106030
105489
105436
105437
105442
105436
105435
105434
105434
105434
105434
105434
105434
105442
105456
105473
105492
105515
105544
105570
105610
106023
107469
108562
108418
108496
107301
107576
107963
107377
106025
105510
105438
105441
105451
105441
105436
105438
105435
105435
105435
105436
105440
105449
105462
105477
105496
105520
105552
105577
105608
105967
107053
107785
107321
108000
107335
107598
108054
107518
106201
105558
105444
105444
105461
105449
105442
105445
105440
105438
105440
105443
105447
105455
105467
105483
105502
105525
105557
105583
105609
105947
107229
107552
107151
107677
107370
107579
108142
107787
106411
105588
105446
105446
105469
105462
105452
105454
105448
105446
105450
105451
105455
105462
105473
105489
105507
105529
105563
105589
105613
105925
107417
107659
107175
107763
107450
107620
108279
107974
106494
105592
105443
105446
105474
105475
105464
105464
105459
105458
105463
105461
105463
105470
105481
105495
105513
105534
105568
105594
105618
105954
107566
107738
107202
108022
107725
107890
108441
108051
106457
105567
105443
105447
105477
105484
105476
105472
105469
105468
105475
105471
105473
105479
105489
105501
105518
105539
105573
105599
105624
105976
107693
107865
107391
108316
108104
108219
108547
107904
106189
105525
105444
105447
105477
105489
105486
105481
105477
105474
105485
105480
105482
105487
105496
105508
105524
105544
105578
105603
105626
105990
107785
108107
107925
108761
108456
108397
108600
107404
105882
105489
105445
105447
105473
105491
105496
105490
105483
105477
105491
105490
105490
105495
105504
105514
105530
105549
105581
105605
105626
105974
107835
108440
108676
109024
108656
108460
108597
106976
105721
105474
105447
105448
105466
105490
105502
105501
105487
105479
105494
105498
105497
105502
105510
105520
105535
105552
105585
105605
105624
105942
107737
108832
109052
109092
108709
108431
108531
106839
105685
105473
105449
105449
105463
105485
105505
105511
105492
105481
105496
105505
105504
105508
105515
105524
105538
105554
105586
105601
105623
105907
107540
109095
109157
109159
108758
108478
108515
106887
105699
105479
105451
105453
105465
105484
105507
105518
105497
105483
105498
105509
105509
105514
105520
105528
105540
105555
105586
105597
105625
105880
107280
109223
109228
109230
108807
108523
108560
107244
105808
105508
105461
105459
105472
105489
105509
105522
105507
105490
105500
105513
105516
105520
105525
105532
105543
105557
105588
105596
105631
105885
107023
108923
109297
109208
108993
108569
108873
107646
106049
105583
105482
105468
105487
105508
105522
105529
105522
105508
105508
105520
105526
105530
105534
105539
105547
105560
105592
105600
105657
106096
107260
108541
108775
108892
109267
108881
109143
107994
106432
105718
105516
105486
105514
105544
105551
105549
105546
105536
105530
105535
105543
105546
105550
105554
105558
105572
105607
105623
105725
106377
107783
108522
108500
108856
109448
109300
109259
108283
106907
105891
105562
105520
105554
105593
105593
105587
105583
105574
105565
105564
105568
105572
105575
105578
105581
105602
105647
105681
105857
106745
108220
108732
108543
108822
109512
109512
109370
108572
107377
106040
105617
105571
105612
105652
105646
105637
105630
105619
105607
105602
105603
105605
105608
105612
105617
105649
105706
105773
106032
107113
108666
108785
108585
108833
109573
109573
109264
108819
107699
106131
105675
105633
105687
105726
105712
105696
105681
105666
105652
105644
105644
105644
105646
105651
105660
105702
105772
105873
106200
107389
108880
108872
108628
109060
109262
109126
109107
108887
107786
106186
105740
105708
105783
105817
105793
105766
105737
105715
105699
105689
105687
105686
105688
105693
105707
105754
105833
105956
106309
107494
109056
109060
108863
109387
109300
109112
109118
109125
107802
106253
105826
105806
105900
105932
105902
105852
105802
105771
105750
105738
105734
105733
105735
105741
105760
105806
105889
106023
106371
107542
109165
109330
109460
109697
109492
109158
109256
109375
107924
106378
105951
105938
106039
106074
106038
105950
105875
105830
105804
105792
105787
105786
105789
105799
105823
105868
105949
106097
106455
107644
109308
109681
109777
109791
109768
109551
109500
109497
108011
106524
106131
106133
106211
106247
106198
106061
105952
105892
105862
105848
105843
105844
105851
105867
105898
105944
106027
106204
106620
107797
109381
109846
109839
109810
109929
109840
109779
109616
107970
106705
106405
106403
106436
106469
106386
106184
106035
105959
105925
105910
105905
105910
105924
105950
105995
106055
106145
106348
106883
108077
109408
109771
109710
109704
109989
109981
109930
109323
107949
107041
106802
106748
106733
106733
106585
106310
106124
106034
105998
105983
105980
105992
106015
106058
106124
106213
106323
106556
107277
108744
109662
109649
109675
109855
109996
110000
109697
108903
108074
107569
107334
107208
107126
107032
106775
106437
106224
106126
106088
106075
106077
106099
106139
106204
106303
106439
106595
106868
107702
109118
109909
109928
109982
110048
109820
109602
109239
108939
108542
108260
108018
107808
107616
107367
106966
106579
106346
106243
106209
106200
106210
106247
106311
106408
106552
106752
106996
107332
108070
109236
110010
110087
110101
110097
109443
109315
109264
109234
109209
109070
108794
108487
108196
107803
107213
106747
106498
106399
106372
106370
106393
106453
106549
106687
106887
107179
107561
107992
108549
109323
109880
110117
110138
110132
109425
109430
109566
109730
109815
109697
109450
109266
109044
108555
107650
106952
106695
106614
106594
106603
106646
106733
106871
107062
107337
107745
108285
108823
109195
109472
109678
109932
110072
110159
109567
109810
109981
110042
110032
109844
109666
109709
109709
109669
108731
107434
106996
106919
106903
106927
106996
107120
107309
107570
107931
108434
109051
109587
109792
109751
109720
109745
109783
110037
109922
110114
110117
110051
109950
109737
109651
109738
109994
110184
109932
108362
107521
107364
107349
107390
107492
107661
107907
108236
108652
109146
109638
109969
110076
110033
109912
109807
109794
109861
110138
110138
110046
109940
109767
109631
109650
109860
110262
110344
110247
109192
108288
108016
108008
108065
108190
108390
108666
109008
109379
109712
109932
110038
110118
110156
110122
110026
109899
109865
110142
110050
109997
109799
109663
109631
109765
110250
110392
110341
110123
109766
109198
108934
108915
108961
109071
109245
109465
109702
109906
110022
110048
110049
110098
110153
110183
110176
110124
109953
110099
109931
110039
109826
109663
109905
110257
110428
110377
110210
110113
110229
110038
109901
109864
109864
109906
109978
110056
110118
110153
110153
110113
110065
110076
110125
110157
110168
110164
110108
109930
109919
110029
109997
110071
110316
110435
110403
110310
110215
110325
110455
110440
110425
110404
110383
110366
110350
110328
110297
110262
110228
110177
110105
110073
110097
110120
110127
110149
110122
109878
109987
110140
110232
110351
110422
110411
110361
110313
110340
110437
110467
110477
110491
110492
110484
110468
110445
110414
110374
110329
110288
110240
110168
110102
110093
110098
110085
110081
110070
109866
110143
110277
110354
110394
110389
110359
110324
110325
110352
110379
110401
110414
110433
110447
110453
110452
110444
110429
110403
110368
110329
110288
110230
110158
110115
110099
110072
110021
109961
109935
110258
110343
110363
110355
110327
110287
110258
110254
110282
110298
110313
110344
110373
110392
110403
110409
110411
110410
110401
110381
110352
110317
110273
110214
110160
110124
110083
110018
109928
110086
110306
110339
110325
110287
110218
110137
110097
110082
110097
110139
110200
110268
110315
110342
110356
110362
110365
110370
110375
110370
110355
110330
110297
110252
110203
110161
110110
110017
109908
110217
110304
110294
110258
110145
109940
109773
109724
109740
109809
109952
110093
110201
110267
110300
110315
110318
110319
110323
110331
110340
110340
110329
110306
110273
110233
110195
110144
110031
109885
110256
110271
110249
110109
109733
109407
109334
109347
109446
109617
109847
110044
110168
110235
110268
110281
110280
110274
110271
110281
110296
110309
110312
110303
110281
110251
110219
110176
110065
109861
110248
110235
110109
109637
109110
109069
109140
109265
109437
109639
109859
110041
110154
110215
110244
110253
110246
110230
110216
110219
110242
110265
110281
110287
110278
110258
110234
110201
110110
109846
110225
110110
109646
108906
108875
109017
109150
109272
109469
109717
109909
110059
110151
110200
110223
110229
110217
110190
110158
110141
110169
110209
110238
110257
110263
110256
110241
110217
110145
109885
110126
109644
108906
108572
108877
109032
109169
109308
109569
109811
109968
110079
110147
110186
110205
110208
110192
110155
110098
110041
110051
110128
110178
110213
110234
110242
110238
110225
110167
109945
109874
108715
108620
108577
108908
109077
109202
109398
109705
109899
110016
110093
110142
110172
110187
110189
110172
110127
110040
109925
109802
109993
110086
110148
110188
110214
110225
110223
110182
110006
109726
108440
108622
108583
108967
109124
109216
109568
109833
109972
110050
110100
110135
110157
110170
110173
110158
110111
110000
109800
109526
109781
109952
110040
110111
110164
110196
110205
110188
110070
109600
108448
108611
108589
109020
109156
109298
109753
109936
110026
110073
110104
110126
110141
110152
110156
110148
110107
109991
109688
109508
109709
109873
109910
109975
110067
110141
110165
110168
110118
109377
108491
108610
108594
108991
109149
109533
109900
110013
110060
110086
110103
110115
110125
110132
110138
110137
110112
110011
109675
109562
109837
109932
109871
109826
109880
110015
110120
110126
110125
109537
108814
108876
108669
109027
109353
109831
110009
110059
110079
110090
110097
110102
110106
110110
110115
110121
110113
110045
109747
109702
109907
109983
109893
109779
109722
109734
109975
110080
110084
109700
109361
109526
109310
109464
109778
110005
110062
110078
110083
110085
110086
110085
110085
110085
110088
110095
110101
110073
109908
109803
109825
109949
109934
109814
109690
109661
109651
109923
110039
109804
109929
110017
109935
109954
110029
110065
110075
110077
110076
110073
110068
110064
110060
110058
110058
110063
110072
110071
110010
109878
109784
109885
109922
109870
109738
109630
109615
109607
109934
109857
109972
109964
109960
110049
110063
110062
110063
110063
110059
110053
110045
110038
110032
110027
110024
110026
110033
110042
110028
109955
109822
109835
109885
109871
109804
109668
109583
109570
109721
109902
109893
109855
109718
109935
110009
110036
110044
110043
110036
110026
110016
110006
109998
109992
109988
109986
109990
109998
110003
109981
109902
109833
109850
109844
109812
109736
109591
109538
109531
109833
109764
109282
109409
109809
109972
110018
110025
110018
110006
109993
109980
109968
109959
109952
109947
109944
109945
109950
109957
109959
109933
109872
109842
109823
109793
109752
109657
109521
109502
109776
108798
108587
109307
109800
109974
110012
110004
109987
109969
109952
109936
109923
109913
109906
109902
109899
109898
109900
109905
109912
109910
109887
109853
109821
109781
109740
109683
109550
109467
109480
108556
108567
109267
109862
109998
110001
109972
109944
109921
109900
109883
109869
109860
109854
109851
109850
109849
109851
109854
109859
109864
109861
109847
109822
109782
109734
109682
109570
109430
109137
108538
108926
109335
109936
110017
109976
109927
109890
109861
109837
109817
109804
109796
109792
109793
109795
109797
109800
109803
109807
109811
109815
109815
109807
109781
109738
109684
109584
109391
109363
108721
109509
109738
110006
109999
109928
109868
109824
109790
109763
109742
109729
109723
109723
109727
109732
109739
109746
109751
109755
109760
109765
109769
109771
109761
109733
109688
109602
109389
109522
109332
109792
109952
109983
109930
109855
109794
109748
109707
109672
109648
109637
109636
109642
109652
109664
109676
109686
109696
109703
109709
109714
109720
109726
109726
109712
109680
109610
109421
109443
109653
109884
109947
109905
109845
109772
109711
109654
109597
109552
109527
109520
109528
109544
109565
109587
109606
109623
109636
109647
109656
109663
109670
109678
109683
109678
109657
109599
109448
109362
109754
109881
109875
109825
109752
109681
109605
109514
109425
109380
109361
109369
109393
109426
109462
109498
109529
109554
109573
109588
109601
109611
109620
109629
109637
109639
109626
109578
109456
109358
109772
109836
109793
109733
109658
109568
109421
109221
109067
109118
109136
109178
109230
109286
109343
109397
109444
109480
109508
109528
109543
109556
109568
109579
109589
109596
109591
109553
109452
109458
109758
109757
109714
109644
109552
109384
108958
108701
108690
108773
108889
108982
109068
109146
109221
109292
109355
109405
109442
109468
109486
109503
109517
109529
109540
109550
109552
109525
109445
109525
109698
109680
109635
109550
109402
108933
108669
108668
108661
108648
108743
108870
108975
109059
109129
109199
109266
109329
109378
109412
109435
109452
109467
109481
109492
109502
109508
109492
109435
109519
109617
109609
109556
109430
109171
108634
108636
108756
108717
108638
108730
108853
108954
109027
109074
109104
109146
109227
109298
109352
109386
109405
109420
109434
109447
109457
109464
109455
109418
109494
109546
109542
109460
109246
108863
108597
108624
109001
108969
108743
108754
108864
108958
108998
108996
108907
108866
108995
109132
109250
109318
109353
109373
109389
109404
109416
109423
109418
109394
109460
109484
109472
109253
108859
108623
108566
108842
109192
109105
108771
108777
108883
108954
108955
108826
108563
108558
108579
108777
109023
109187
109276
109316
109340
109362
109379
109388
109387
109371
109412
109411
109300
108707
108619
108618
108692
109092
109163
109011
108611
108737
108888
108918
108879
108541
108537
108545
108565
108626
108757
108984
109157
109241
109286
109320
109346
109363
109366
109355
109355
109283
109054
108611
108622
108744
108963
109135
109119
108794
108365
108694
108881
108884
108708
108514
108626
108753
108823
108843
108869
108976
109086
109172
109236
109284
109321
109348
109359
109351
109256
109092
108825
108570
108679
108958
109100
109094
109073
108290
108111
108671
108874
108848
108554
108574
108843
108987
109033
109031
109018
109034
109052
109120
109191
109254
109305
109343
109364
109355
109041
108846
108734
108541
108859
109077
109070
109059
109013
107677
107949
108703
108864
108756
108524
108780
108990
108982
108956
108909
108829
108871
108816
108979
109115
109214
109296
109341
109368
109353
108580
106931
108498
108622
109048
109047
109038
109015
108700
107528
108019
108782
108847
108702
108668
108930
108941
108881
108734
108482
108190
108302
108316
108708
109001
109151
109291
109326
109346
109311
106403
104726
106947
108832
109026
109021
108988
108859
107693
107496
108298
108860
108836
108709
108841
108888
108847
108671
108373
108067
108057
108052
108380
108691
108823
108994
109252
109297
109320
109186
105221
104705
105346
108415
109021
108979
108606
107668
107132
107559
108564
108847
108814
108761
108823
108819
108683
108453
108241
108073
108038
108253
108534
108576
107780
108456
109097
109270
109304
108902
106359
104853
105640
107827
108983
108512
107367
107184
107110
107941
108740
108822
108771
108732
108741
108664
108488
108353
108273
108280
108262
107987
107257
105978
104173
106189
108471
109257
109293
108392
108171
106041
106825
107616
107900
107220
107006
107106
107531
108501
108747
108754
108686
108657
108599
108501
108456
108436
108390
107855
106278
104121
102738
101822
101715
104528
108098
109254
109252
107800
108525
107743
107624
106627
104998
105335
106892
107762
108339
108602
108654
108657
108647
108636
108586
108437
108115
107300
105582
103340
101663
101004
100793
100715
101076
103947
107858
109211
109244
107784
108501
108495
107681
104042
102099
102791
105340
107411
108167
108303
108189
107923
107509
107038
106379
105373
103971
102413
101319
100821
100660
100631
100629
100636
100865
103333
107620
109122
109272
107809
108498
108496
106356
102302
101128
101193
101995
103561
104587
104593
104046
103304
102698
102217
101727
101276
100925
100715
100641
100626
100625
100626
100627
100632
100750
102569
107329
109113
109302
107837
108616
108192
104104
101788
101014
100796
100776
100934
101077
101055
100940
100819
100747
100700
100662
100637
100626
100624
100625
100626
100625
100626
100627
100636
100699
101631
106296
109061
109347
107885
107311
105021
103012
101930
101183
100775
100644
100625
100624
100622
100624
100627
100625
100624
100624
100624
100625
100625
100626
100626
100626
100626
100632
100650
100686
100963
103951
108780
109415
108484
105057
103643
103090
102296
101372
100820
100644
100620
100618
100617
100622
100627
100626
100625
100625
100625
100625
100626
100627
100628
100629
100631
100641
100664
100693
100750
102171
107119
109257
107956
104553
103544
103426
102598
101534
100861
100645
100625
100624
100624
100628
100630
100627
100626
100626
100626
100626
100627
100630
100635
100639
100641
100650
100675
100707
100703
101351
104775
108317
106736
104493
103565
103622
102889
101731
100887
100640
100633
100634
100635
100637
100635
100631
100627
100627
100627
100628
100630
100637
100647
100651
100653
100660
100684
100723
100695
101093
103559
106616
106065
104477
103591
103781
103178
101963
100917
100635
100638
100644
100645
100648
100646
100640
100633
100630
100632
100634
100637
100648
100660
100664
100666
100672
100695
100740
100694
101038
103366
105746
105995
104454
103612
103952
103460
102218
100955
100635
100641
100656
100656
100661
100660
100654
100646
100640
100641
100645
100649
100658
100671
100678
100681
100687
100709
100755
100695
101060
103472
105711
105959
104443
103637
104132
103744
102463
100980
100635
100643
100671
100669
100677
100677
100671
100663
100655
100656
100660
100662
100669
100683
100692
100696
100703
100724
100767
100698
101176
103571
105520
105924
104450
103667
104370
104053
102663
100984
100635
100644
100692
100686
100696
100696
100690
100681
100673
100673
100677
100677
100682
100694
100704
100710
100718
100740
100776
100712
101348
103676
105304
105895
104471
103742
104668
104394
102808
100974
100635
100645
100720
100707
100717
100717
100711
100702
100694
100692
100694
100693
100696
100706
100715
100724
100734
100758
100784
100729
101589
103775
105083
105856
104503
103845
105023
104738
102908
100969
100635
100651
100752
100733
100739
100741
100735
100724
100715
100711
100711
100709
100711
100719
100727
100739