/*--------------------------------*- C++ -*----------------------------------*\
| =========                 |                                                 |
| \\      /  F ield         | OpenFOAM: The Open Source CFD Toolbox           |
|  \\    /   O peration     | Version:  v1606+                                |
|   \\  /    A nd           | Web:      www.OpenFOAM.com                      |
|    \\/     M anipulation  |                                                 |
\*---------------------------------------------------------------------------*/
FoamFile
{
    version     2.0;
    format      ascii;
    class       volScalarField;
    location    "1.69";
    object      nut.air;
}
// * * * * * * * * * * * * * * * * * * * * * * * * * * * * * * * * * * * * * //

dimensions      [0 2 -1 0 0 0 0];

internalField   nonuniform List<scalar> 
6000
(
0.0005276
0.00489682
0.00781757
0.00848571
0.00868312
0.00876862
0.00881698
0.00885789
0.00887412
0.0088865
0.00890014
0.00891543
0.00893143
0.00893768
0.00892349
0.00890584
0.00889908
0.00889441
0.00888604
0.00888041
0.00886161
0.00884862
0.0088346
0.00881302
0.00877498
0.00870198
0.00852372
0.00782024
0.00487249
0.000528034
0.000452196
0.00324814
0.00610732
0.00774439
0.00850945
0.00888024
0.00909104
0.00924555
0.00935454
0.00945223
0.00954232
0.0096055
0.00964719
0.00965561
0.00963368
0.00961699
0.00957786
0.00952233
0.00945615
0.00942439
0.00937324
0.00932175
0.00926158
0.00915196
0.00895861
0.00859396
0.00779752
0.00615271
0.00323389
0.000451318
0.000400167
0.00279817
0.00536021
0.00708493
0.00808341
0.00866825
0.00904387
0.00932359
0.00950486
0.00961418
0.00969391
0.00975734
0.00978303
0.00979456
0.00981239
0.00980454
0.00976678
0.00973977
0.00974128
0.00970572
0.00965494
0.00959882
0.00948971
0.00927017
0.00889977
0.00830915
0.00726619
0.00553431
0.00290736
0.000397098
0.000363572
0.00250844
0.00481411
0.00660157
0.00781141
0.00856452
0.00905648
0.00942489
0.00967594
0.00983041
0.00997022
0.0100661
0.0101093
0.0101428
0.010183
0.01019
0.0101604
0.0101272
0.0100889
0.0100459
0.00999851
0.00989299
0.00967084
0.0093038
0.0087584
0.00795716
0.0067756
0.0050368
0.00268355
0.000364087
0.000335526
0.00231173
0.00442435
0.00617012
0.00751072
0.00844203
0.00909306
0.00957975
0.00991395
0.0101233
0.0102841
0.0104153
0.0105021
0.010558
0.0106035
0.0106278
0.010619
0.0105895
0.010538
0.0104748
0.0103835
0.0101383
0.00976933
0.00925657
0.0085488
0.00761759
0.0063771
0.00469233
0.00250852
0.000339828
0.000315412
0.00214422
0.00413388
0.00582803
0.00720025
0.00827972
0.00914203
0.00982873
0.0103086
0.0105996
0.0107416
0.0108149
0.0109127
0.0109972
0.0110576
0.0111052
0.0111383
0.0111844
0.0111714
0.011079
0.0108737
0.010485
0.00998454
0.00933643
0.00846149
0.00730935
0.00594408
0.00429677
0.00230355
0.000318559
0.000292528
0.00191428
0.00380552
0.00551049
0.00699599
0.00827727
0.00936649
0.01025
0.0108829
0.0112593
0.011413
0.01145
0.0115231
0.0116132
0.0116788
0.0117549
0.0118641
0.0119385
0.0119418
0.0117697
0.0114768
0.0110946
0.0105917
0.00985475
0.00875891
0.00730726
0.00562702
0.00384945
0.00196744
0.000293345
0.00026329
0.00166609
0.00360028
0.00547579
0.00719749
0.0087494
0.0100389
0.0109654
0.0116302
0.0120567
0.0122713
0.0123146
0.0123689
0.0124739
0.0125802
0.0126786
0.0127871
0.0128701
0.0128591
0.012666
0.0123414
0.0120478
0.011669
0.0109649
0.00968391
0.00789884
0.00585808
0.00374485
0.00168819
0.00026181
0.000243199
0.00169387
0.00388901
0.00608307
0.00812915
0.00984572
0.0111323
0.0119906
0.0126077
0.013049
0.0132995
0.013384
0.0134489
0.0135636
0.0136834
0.0137837
0.0138948
0.0139941
0.0139699
0.0137939
0.0135106
0.0132723
0.0129633
0.0122283
0.0109296
0.00910047
0.00683573
0.00424924
0.00172862
0.000249207
0.000254534
0.00212196
0.00484752
0.00724202
0.00917758
0.0107745
0.012063
0.0130703
0.0138066
0.0142869
0.0145548
0.0146783
0.0147341
0.0148338
0.0149736
0.0151063
0.0152357
0.0153051
0.0152518
0.0150765
0.0148077
0.0145653
0.0140915
0.0131141
0.0117864
0.010012
0.00779328
0.00517619
0.00217015
0.000264854
0.000298198
0.00263225
0.00542533
0.00776133
0.0096467
0.0112427
0.0126216
0.0138533
0.0149159
0.0156838
0.0160855
0.0162583
0.0163312
0.0164175
0.016546
0.0166659
0.0167528
0.0167666
0.0166823
0.0164795
0.0161689
0.0157834
0.0149407
0.0138117
0.0124081
0.0106238
0.00841621
0.00572813
0.00257049
0.000292481
0.000308079
0.00276113
0.00557765
0.0079249
0.00983551
0.0114816
0.0129644
0.0143413
0.0156016
0.0166741
0.0174075
0.0177622
0.0179905
0.0181203
0.0182432
0.018343
0.0183915
0.0183711
0.0182709
0.0180367
0.0176357
0.016827
0.0157606
0.0145666
0.0131287
0.0113197
0.0090503
0.00624976
0.002945
0.000306228
0.000304062
0.0027536
0.00560185
0.00798363
0.00992541
0.0116214
0.0131868
0.0146729
0.0160473
0.0171446
0.0179688
0.0186334
0.0190347
0.0193547
0.0196347
0.0198528
0.019952
0.0199591
0.0198688
0.0196126
0.0189837
0.0178539
0.0166749
0.0154291
0.0139639
0.0120952
0.00972523
0.0067393
0.0032411
0.000332845
0.000304634
0.00285281
0.00570886
0.00811029
0.0100975
0.0118511
0.0134754
0.0150024
0.0164184
0.0175913
0.0183976
0.0188675
0.0193586
0.0198858
0.0203384
0.0207792
0.0210184
0.0211102
0.0210458
0.0207325
0.0200188
0.0189223
0.0177166
0.0163981
0.0148216
0.012838
0.0103697
0.00725618
0.00357632
0.000362438
0.000308516
0.00295656
0.00585119
0.00831138
0.0103684
0.0121785
0.0138316
0.0153641
0.0167724
0.0179654
0.0187795
0.0192501
0.0196968
0.020172
0.0206267
0.0211662
0.0214986
0.0216616
0.0216243
0.0213101
0.0207158
0.0198627
0.0187826
0.0173806
0.0156233
0.0135131
0.0109758
0.00780909
0.00393522
0.000380441
0.00031447
0.00305365
0.00602849
0.0085637
0.0107047
0.0125738
0.0142408
0.0157472
0.0171024
0.0182535
0.0191123
0.0196645
0.0200616
0.0204975
0.0208987
0.0213705
0.0217121
0.0219078
0.0218733
0.0216137
0.0211754
0.020548
0.0196479
0.0182169
0.0163223
0.0141097
0.0115111
0.00826282
0.00418706
0.00039232
0.000322024
0.00315186
0.00624684
0.00888031
0.0110886
0.0129887
0.0146655
0.0161418
0.0174399
0.0185303
0.0193875
0.0200111
0.0204455
0.0208196
0.0211608
0.0215705
0.0219006
0.0220943
0.0221005
0.0218804
0.0215313
0.0210233
0.0202253
0.0187882
0.0168462
0.0145997
0.0119332
0.0085748
0.00432248
0.000403713
0.000330998
0.00326492
0.00647565
0.00919806
0.0114791
0.013415
0.0150834
0.016543
0.0177958
0.0188331
0.019646
0.0202792
0.0207505
0.0211168
0.0214142
0.0217446
0.0220426
0.022237
0.0222777
0.0221476
0.0218179
0.0213514
0.0205591
0.0191103
0.0171715
0.0149569
0.0122468
0.00879611
0.00442452
0.000415095
0.000341517
0.00338894
0.00672118
0.00952209
0.0118609
0.0138369
0.0155253
0.0169652
0.0181878
0.0191889
0.0199505
0.0205387
0.0210125
0.0213711
0.0216489
0.02191
0.0221431
0.0223072
0.0223656
0.0222511
0.0219616
0.0215391
0.0207045
0.0192612
0.017385
0.0151953
0.012467
0.00895958
0.00451313
0.000425072
0.000353429
0.00352505
0.00698262
0.00986973
0.0122706
0.0142874
0.0160004
0.0174531
0.018658
0.0196238
0.0203537
0.0208885
0.0213168
0.0216638
0.0219212
0.0221212
0.0222563
0.0223193
0.022326
0.0222122
0.0219576
0.0215846
0.0207396
0.0193224
0.0175224
0.0153473
0.0126018
0.00906849
0.00462354
0.000422094
0.000366991
0.00367206
0.00727029
0.0102656
0.0127458
0.0148158
0.0165588
0.0180236
0.0192295
0.0201858
0.0209016
0.0214022
0.0217783
0.0220886
0.0223393
0.0224693
0.0224369
0.0223456
0.0222424
0.0221135
0.021895
0.021534
0.020743
0.0193937
0.0176389
0.0154482
0.0126559
0.00904559
0.00454529
0.000421926
0.000381908
0.0038312
0.00759501
0.0107281
0.0133147
0.0154584
0.0172466
0.0187349
0.019929
0.020866
0.0216004
0.0221495
0.0225619
0.0228824
0.0230787
0.0230538
0.0228071
0.0225325
0.0223269
0.0221375
0.0219427
0.0215599
0.0207968
0.0195278
0.0178033
0.0155651
0.0126605
0.00889798
0.00442613
0.000428479
0.000397643
0.00400162
0.00795611
0.0112566
0.0139807
0.0162365
0.0181104
0.0196425
0.0208029
0.0216854
0.0224055
0.0229861
0.0234713
0.0238763
0.024067
0.0238601
0.0234616
0.0230671
0.0227268
0.0224666
0.0222439
0.0217821
0.0210141
0.0197612
0.0180366
0.0157415
0.0126939
0.00889255
0.00439037
0.000430934
0.000413221
0.00417851
0.00833645
0.0118231
0.0147249
0.0171558
0.0190982
0.0206439
0.0217835
0.022624
0.023305
0.0238409
0.0242773
0.0246478
0.024738
0.024533
0.0241407
0.0237139
0.0233218
0.0230274
0.022711
0.0221278
0.0211591
0.0198334
0.0181231
0.0158653
0.012856
0.00907404
0.00448333
0.000436231
0.000427274
0.00435143
0.00870234
0.0123751
0.0154801
0.0180347
0.0200471
0.0215333
0.0226887
0.02357
0.0242018
0.0246275
0.0248782
0.0249671
0.0249657
0.0248419
0.0245564
0.0241722
0.0237846
0.023434
0.0229869
0.0222121
0.021113
0.0197567
0.0180765
0.0158936
0.0129847
0.00922825
0.00459975
0.000443211
0.00043951
0.00449921
0.00900646
0.0128249
0.0160548
0.0186188
0.0205732
0.0220454
0.0232712
0.0243156
0.0250002
0.0253001
0.0252702
0.0251512
0.0250508
0.0249042
0.024641
0.0242617
0.023849
0.0234056
0.0228656
0.0220392
0.0209449
0.0196126
0.0179512
0.0158012
0.0129628
0.00926423
0.00464932
0.00044801
0.000452916
0.00459735
0.00921672
0.01315
0.0163768
0.0189313
0.0208541
0.0223408
0.0235724
0.0246463
0.0253937
0.0256885
0.0255661
0.0253079
0.025088
0.0248707
0.0245816
0.0241832
0.023718
0.0232045
0.0225961
0.0217751
0.0207254
0.0194143
0.0177666
0.0156334
0.0128428
0.00920584
0.0046366
0.000448945
0.000465216
0.0047339
0.00944033
0.0133663
0.0165487
0.0190902
0.0210396
0.0225542
0.0237751
0.0247746
0.0254896
0.025826
0.0257781
0.0254532
0.0251238
0.0248214
0.0244979
0.0240705
0.0235465
0.0229925
0.0223413
0.0215256
0.0204882
0.0191933
0.0175508
0.0154302
0.0126742
0.00908683
0.00458594
0.000447158
0.000475795
0.00483587
0.00959015
0.0134943
0.0166309
0.0191451
0.0211299
0.0226949
0.0239144
0.0248286
0.0254687
0.0258419
0.0258818
0.0255764
0.0251662
0.0247877
0.0244307
0.0239729
0.0234247
0.0228177
0.0221378
0.0213151
0.0202854
0.0189904
0.0173431
0.0152288
0.0124946
0.00894956
0.00451996
0.0004431
0.000480361
0.00489227
0.00966373
0.0135512
0.0166473
0.0191309
0.0211307
0.0227367
0.0239785
0.0248278
0.0253956
0.0257858
0.0258906
0.0256563
0.0252079
0.0247744
0.0243586
0.0238793
0.0233212
0.0226923
0.0220016
0.0211769
0.0201404
0.0188313
0.0171713
0.0150513
0.0123251
0.00881401
0.00445111
0.000438288
0.000483389
0.00492033
0.00968491
0.0135556
0.0166263
0.0190812
0.0210674
0.0226783
0.0239588
0.024763
0.0252615
0.0256552
0.0258064
0.0256309
0.0252042
0.0247382
0.0242851
0.0237986
0.0232393
0.0226078
0.0219217
0.0211056
0.0200605
0.01873
0.0170464
0.0149081
0.0121777
0.00869165
0.00438661
0.000433671
0.000486629
0.00493223
0.0096767
0.0135288
0.0165827
0.0190197
0.0209838
0.0225741
0.0238645
0.0246343
0.0250787
0.0254577
0.0256396
0.0255005
0.0251207
0.024683
0.0242167
0.0237115
0.0231546
0.0225453
0.0218894
0.0210993
0.0200505
0.0186922
0.0169743
0.0148064
0.0120615
0.00858988
0.0043314
0.000430036
0.000490188
0.00493807
0.00965563
0.013487
0.0165296
0.018957
0.020907
0.0224692
0.0237247
0.0244816
0.0248843
0.0252363
0.0254058
0.0253002
0.0250042
0.0246107
0.024147
0.0236438
0.0231181
0.0225564
0.0219255
0.0211504
0.0201014
0.0187162
0.0169591
0.0147532
0.011984
0.0085144
0.00428821
0.000427906
0.000494381
0.00494111
0.00962419
0.0134383
0.0164742
0.0188982
0.0208478
0.0223995
0.0236047
0.0243456
0.0247146
0.0250261
0.0251567
0.0250818
0.0248889
0.024613
0.0242228
0.0237641
0.0232697
0.0227239
0.0220767
0.0212626
0.0201947
0.0187871
0.016993
0.014747
0.0119483
0.00847323
0.00426577
0.000427477
0.000499857
0.00491145
0.00956533
0.0133797
0.0164183
0.0188479
0.0208146
0.0223877
0.0235896
0.0243111
0.0246482
0.0249038
0.0249681
0.0249091
0.0249213
0.0248218
0.0245433
0.0241558
0.0236685
0.0230723
0.0223343
0.0214269
0.0203097
0.0188807
0.0170557
0.0147772
0.0119515
0.00846067
0.00425578
0.000428331
0.00050892
0.00475961
0.00943645
0.0132908
0.016365
0.018813
0.0208064
0.0224261
0.0236602
0.0243581
0.0246683
0.0248423
0.0248475
0.024976
0.0252433
0.0252855
0.0250669
0.0246719
0.0241477
0.0234852
0.022663
0.0216579
0.0204543
0.018986
0.0171446
0.014839
0.0119846
0.00847508
0.00426365
0.000431324
0.000524118
0.0046794
0.00924914
0.013115
0.0162995
0.018874
0.0209485
0.022603
0.0238487
0.02452
0.0248028
0.0248959
0.0249945
0.0254114
0.0258026
0.025894
0.0256948
0.0253058
0.024744
0.0240246
0.0231255
0.0220222
0.0207082
0.0191536
0.0172632
0.0149266
0.0120484
0.00851996
0.00429049
0.000436176
0.00052947
0.00477351
0.00916159
0.0129483
0.0162031
0.0189079
0.0210983
0.0228209
0.0240821
0.0247392
0.0250337
0.0251925
0.0255752
0.0261209
0.0264851
0.0265007
0.0262869
0.0259078
0.0253385
0.0245809
0.0236279
0.0224634
0.0210608
0.0194003
0.0174327
0.0150508
0.01214
0.00858249
0.0043198
0.000442361
0.000528525
0.00466864
0.00892806
0.0127193
0.0161007
0.0189182
0.0211832
0.0229311
0.0241774
0.0248361
0.0252715
0.0257626
0.0263582
0.0268857
0.0270776
0.0269382
0.0266577
0.0263631
0.0258926
0.0251635
0.0241839
0.022967
0.0214998
0.0197526
0.017689
0.0152301
0.0122611
0.00864823
0.00432825
0.000448811
0.000512023
0.00442908
0.00867833
0.0126014
0.0161304
0.0190274
0.0213139
0.0230236
0.0242132
0.0249895
0.0257565
0.0264959
0.0271525
0.0275175
0.0274919
0.0272236
0.0269633
0.0267504
0.0264126
0.0257487
0.0247862
0.0235438
0.0220242
0.0202052
0.0180463
0.0154831
0.0124147
0.00869231
0.00428342
0.000457363
0.000486345
0.00421996
0.00872877
0.0128233
0.0163641
0.0192539
0.0215192
0.0231913
0.0243903
0.0254848
0.0264559
0.0273432
0.0278898
0.0280396
0.027885
0.027686
0.027546
0.0272968
0.0269282
0.0263293
0.0254262
0.024191
0.0226377
0.0207552
0.0185048
0.0158234
0.012615
0.00872829
0.00421558
0.000467604
0.000479683
0.00426045
0.00905865
0.0132677
0.016774
0.0196359
0.0218881
0.0235851
0.0249553
0.0262076
0.0273357
0.0281741
0.0285913
0.0286187
0.0284994
0.0284345
0.0283069
0.028039
0.0276134
0.0270202
0.0261655
0.0249433
0.0233613
0.0214103
0.0190643
0.01626
0.0128893
0.00885756
0.00430167
0.000471885
0.000491107
0.00446569
0.00949206
0.0138345
0.0173753
0.0202503
0.0225243
0.0243036
0.0258147
0.0271017
0.0281936
0.0289865
0.0293399
0.0293437
0.0293239
0.029272
0.029153
0.0288779
0.028433
0.0278409
0.0270652
0.0258402
0.0242216
0.0221794
0.0197188
0.0167896
0.0132698
0.0091056
0.00449127
0.000477958
0.000512849
0.00475054
0.00994321
0.0145227
0.0182413
0.0210729
0.0232813
0.0250868
0.0265941
0.0278717
0.0289308
0.0297295
0.0301329
0.0302244
0.0301705
0.0301157
0.0299818
0.0296789
0.029211
0.0285995
0.027914
0.0267728
0.0251852
0.0230514
0.0204629
0.0173924
0.0137402
0.00943566
0.00468518
0.000488255
0.000530555
0.00481937
0.0104096
0.0151707
0.0190101
0.0219258
0.0241083
0.0257215
0.0271201
0.028413
0.0295004
0.0302536
0.0306974
0.0308951
0.0308871
0.0307543
0.0305376
0.0301883
0.0297253
0.0292268
0.0285381
0.0274757
0.0259388
0.0238852
0.0212674
0.0180473
0.014247
0.0098401
0.00491153
0.000492082
0.000525308
0.00468611
0.0104297
0.0152322
0.0190192
0.0219625
0.0242102
0.0258902
0.0273004
0.0285542
0.0295684
0.0303118
0.0308098
0.0310997
0.0312166
0.0311394
0.0308926
0.0305074
0.0299929
0.0293252
0.0284718
0.0274358
0.0260998
0.0243835
0.0219377
0.0187211
0.0147184
0.0101414
0.00498931
0.000500375
0.000553476
0.00453536
0.0100928
0.014902
0.018788
0.0216957
0.0238444
0.0255275
0.0269659
0.0281945
0.0291999
0.0299674
0.0305097
0.0308481
0.0309985
0.0309613
0.0307372
0.0303308
0.0297396
0.0289692
0.0280571
0.0269775
0.0256842
0.0241495
0.0221172
0.0192018
0.0151453
0.0103405
0.00501
0.000512328
0.000587137
0.00485822
0.0103286
0.0150877
0.0189362
0.0216392
0.023572
0.0251649
0.0265321
0.0276947
0.0286803
0.0294704
0.0300412
0.0304042
0.0305678
0.0305377
0.0303169
0.029903
0.0292983
0.0285118
0.0275652
0.0264558
0.0251556
0.0236456
0.021804
0.0192053
0.0154265
0.0104459
0.00498599
0.000518357
0.00060558
0.00539022
0.0110231
0.0157685
0.0193278
0.0217128
0.0234321
0.0249126
0.0261941
0.027296
0.0282322
0.0289941
0.0295591
0.0299281
0.0301013
0.0300801
0.0298643
0.0294521
0.028846
0.0280561
0.0270908
0.0259643
0.0246616
0.0231826
0.0214081
0.0189871
0.0153686
0.0103638
0.00483067
0.000514923
0.000613955
0.00581553
0.0117319
0.0164718
0.0197129
0.0218107
0.0233727
0.0247365
0.0259293
0.0269613
0.0278378
0.0285551
0.0290958
0.0294556
0.0296289
0.0296126
0.0294029
0.0289975
0.0283989
0.0276137
0.0266444
0.0255111
0.0242094
0.0227483
0.0210396
0.0186697
0.0150949
0.0101114
0.00454737
0.000504542
0.000617236
0.00608158
0.0122573
0.0169747
0.0200017
0.0219087
0.0233344
0.0245929
0.0257067
0.0266712
0.0274883
0.0281548
0.0286623
0.029003
0.0291686
0.0291525
0.0289488
0.0285535
0.0279677
0.0271926
0.0262286
0.0250921
0.0237844
0.0223243
0.0206705
0.0182796
0.0147049
0.00981433
0.00434549
0.000493393
0.000619954
0.00619368
0.0125366
0.0172585
0.0201733
0.0219564
0.0232777
0.0244554
0.0255053
0.0264114
0.0271728
0.0277906
0.028262
0.0285784
0.0287309
0.0287118
0.0285133
0.02813
0.0275602
0.0268003
0.025848
0.0247122
0.0233927
0.0219084
0.0202639
0.0179397
0.0143402
0.00956164
0.00435794
0.000498573
0.000622613
0.00621959
0.0126313
0.0173944
0.020268
0.0219696
0.0232025
0.0243177
0.0253153
0.0261715
0.0268846
0.0274588
0.0278945
0.0281848
0.0283217
0.0282976
0.0281039
0.0277339
0.027182
0.0264417
0.0255075
0.0243816
0.0230592
0.0215477
0.0198561
0.0176346
0.0142124
0.00960791
0.0046076
0.00053234
0.000623977
0.00623022
0.0126668
0.0174649
0.0203144
0.0219418
0.0231141
0.02418
0.0251334
0.0259467
0.0266189
0.0271551
0.0275576
0.0278226
0.0279438
0.0279144
0.027725
0.0273679
0.0268351
0.026118
0.0252092
0.0241055
0.0227992
0.0212908
0.0195698
0.0174245
0.0142699
0.00988178
0.0049184
0.00054425
0.000626788
0.00626526
0.0127341
0.0175261
0.0203201
0.021885
0.0230157
0.0240412
0.0249554
0.0257322
0.02637
0.0268741
0.0272477
0.0274903
0.0275968
0.0275619
0.0273764
0.0270318
0.0265188
0.0258278
0.0249495
0.0238767
0.0226011
0.021121
0.0194326
0.0173837
0.0143466
0.0100505
0.00504772
0.000552293
0.000633502
0.00642929
0.0129113
0.0175949
0.0202786
0.0217898
0.0228992
0.0238925
0.0247732
0.0255199
0.0261299
0.026608
0.0269583
0.0271824
0.0272765
0.0272367
0.027055
0.0267225
0.0262295
0.0255653
0.0247189
0.0236821
0.0224452
0.021008
0.0193779
0.0174269
0.0144943
0.0102089
0.0051434
0.000568224
0.000644124
0.00659394
0.0131275
0.0176175
0.0201482
0.0216385
0.0227459
0.0237179
0.0245734
0.0252981
0.0258878
0.026347
0.0266805
0.0268907
0.0269756
0.0269324
0.026755
0.0264345
0.0259608
0.0253225
0.0245077
0.0235077
0.0223112
0.020922
0.0193563
0.017496
0.0146783
0.0104064
0.00524172
0.000582349
0.000651581
0.00669153
0.0132532
0.0175249
0.0199256
0.0214223
0.0225394
0.0235019
0.0243435
0.025055
0.0256331
0.0260811
0.0264046
0.0266058
0.0266857
0.0266417
0.0264697
0.026161
0.0257054
0.025091
0.0243057
0.0233398
0.0221824
0.0208423
0.0193404
0.0175664
0.0148706
0.0106815
0.00541476
0.000585186
0.000653417
0.00675109
0.0132048
0.0173128
0.019644
0.0211491
0.0222775
0.0232387
0.0240755
0.024783
0.0253576
0.0258022
0.026122
0.0263198
0.0263987
0.0263571
0.0261918
0.0258948
0.0254558
0.0248624
0.0241035
0.023167
0.0220445
0.0207487
0.0193054
0.0176113
0.015056
0.0110212
0.00561651
0.000566341
0.000651071
0.00669912
0.0130083
0.0170253
0.0193282
0.020836
0.0219696
0.0229314
0.0237687
0.0244789
0.0250567
0.0255045
0.0258267
0.0260262
0.0261082
0.0260721
0.025915
0.0256295
0.0252056
0.0246302
0.0238934
0.0229808
0.0218873
0.0206272
0.0192304
0.0175956
0.0151421
0.0112088
0.0056504
0.000545487
0.000647551
0.00652848
0.0127058
0.0166958
0.0189986
0.0205011
0.02163
0.0225899
0.0234292
0.024145
0.0247303
0.0251859
0.0255145
0.0257204
0.0258091
0.0257813
0.0256339
0.0253601
0.0249497
0.0243899
0.0236712
0.0227775
0.0217066
0.0204735
0.0191048
0.0174966
0.0150866
0.0111719
0.00546575
0.000532118
0.000640077
0.00632027
0.0123533
0.0163637
0.0186814
0.0201657
0.0212771
0.0222294
0.0230684
0.0237888
0.0243823
0.0248472
0.0251844
0.0253993
0.025498
0.025481
0.0253446
0.0250828
0.0246851
0.0241397
0.023436
0.0225585
0.0215067
0.0202944
0.0189377
0.017321
0.014924
0.0110251
0.00527976
0.000515995
0.000627571
0.006117
0.0120117
0.0160559
0.0183901
0.0198503
0.0209323
0.0218686
0.0227013
0.0234212
0.0240197
0.0244924
0.0248382
0.0250632
0.0251734
0.0251687
0.0250448
0.0247955
0.0244105
0.0238789
0.0231898
0.0223295
0.0212981
0.0201069
0.018758
0.0171158
0.0147117
0.0108099
0.00516662
0.000505303
0.000611492
0.00592006
0.0117039
0.0157713
0.0181246
0.0195668
0.0206118
0.0215227
0.0223419
0.0230546
0.0236518
0.0241279
0.024481
0.0247155
0.0248369
0.0248449
0.0247342
0.024498
0.0241262
0.0236091
0.0229365
0.022097
0.0210918
0.0199313
0.0186086
0.016944
0.0144808
0.0105705
0.00514214
0.000506726
0.000593251
0.00580951
0.0114653
0.0155034
0.017883
0.0193127
0.0203184
0.0211988
0.0219988
0.022698
0.0232875
0.0237616
0.024119
0.0243616
0.0244927
0.0245121
0.0244145
0.0241918
0.0238342
0.0233336
0.0226809
0.0218677
0.0208969
0.0197771
0.0184927
0.016841
0.0143073
0.0103557
0.00512972
0.000510916
0.000566159
0.0057428
0.011265
0.0152426
0.0176514
0.0190693
0.0200428
0.0208954
0.0216737
0.0223547
0.0229318
0.0233998
0.0237581
0.0240063
0.0241453
0.0241745
0.0240887
0.0238795
0.0235378
0.0230562
0.0224279
0.021647
0.0207176
0.0196446
0.0184006
0.0167662
0.014184
0.0101814
0.0050702
0.000503847
0.00054029
0.0055966
0.0109983
0.0149533
0.0174038
0.0188178
0.0197709
0.0206047
0.0213612
0.0220221
0.0225845
0.0230445
0.0234012
0.0236525
0.0237976
0.023835
0.0237597
0.023564
0.0232392
0.0227795
0.0221796
0.0214353
0.02055
0.0195229
0.0183141
0.0166952
0.0140634
0.0100345
0.00501029
0.000497293
0.000521462
0.00540386
0.0106906
0.0146425
0.0171246
0.0185386
0.01949
0.0203139
0.0210512
0.0216936
0.0222421
0.0226943
0.0230483
0.0233007
0.0234501
0.0234944
0.0234287
0.0232459
0.0229386
0.0225023
0.0219325
0.0212257
0.0203821
0.0193971
0.0182187
0.0166114
0.0139679
0.00993961
0.00495473
0.000495325
0.000512563
0.00526515
0.0104063
0.0143258
0.0168175
0.018229
0.0191885
0.0200083
0.0207319
0.0213612
0.0219001
0.0223468
0.0226978
0.0229499
0.0231022
0.023152
0.0230948
0.0229242
0.0226336
0.0222202
0.0216789
0.0210063
0.0201987
0.0192492
0.0180974
0.0165111
0.0138865
0.00987684
0.00490435
0.00049272
0.000514245
0.00518178
0.010129
0.0140055
0.0164894
0.0178885
0.0188576
0.019679
0.0203966
0.0210201
0.0215558
0.0220009
0.0223489
0.0225995
0.0227529
0.0228067
0.0227564
0.0225962
0.0223204
0.0219266
0.0214093
0.0207641
0.0199848
0.0190622
0.0179329
0.0163672
0.0137996
0.00988419
0.00493012
0.000475172
0.000506157
0.0050518
0.0098678
0.0136805
0.016124
0.0175136
0.0184971
0.0193269
0.0200462
0.0206709
0.0212104
0.0216576
0.0220027
0.0222499
0.0224021
0.0224575
0.0224117
0.0222594
0.0219953
0.0216167
0.0211174
0.0204915
0.0197329
0.0188274
0.0177126
0.0161575
0.0136326
0.00977616
0.00486086
0.000455723
0.000493725
0.00493711
0.00965528
0.0133647
0.0157308
0.0171108
0.0181152
0.0189586
0.0196869
0.020319
0.0208672
0.0213178
0.0216587
0.0219001
0.0220485
0.0221029
0.0220589
0.0219114
0.0216553
0.0212876
0.0208012
0.0201894
0.0194456
0.0185513
0.0174406
0.0158775
0.0133702
0.00956798
0.00472662
0.00044269
0.000477491
0.00482993
0.00944843
0.0130265
0.0153067
0.0166884
0.0177199
0.0185858
0.0193282
0.0199722
0.0205314
0.0209837
0.021317
0.0215492
0.0216905
0.0217407
0.0216954
0.0215495
0.0212984
0.0209383
0.020462
0.0198614
0.0191299
0.0182473
0.0171374
0.015562
0.0130701
0.00935304
0.00462155
0.000438471
0.00046345
0.0047258
0.00924212
0.0126432
0.0148463
0.0162587
0.0173304
0.0182246
0.0189843
0.019643
0.0202108
0.020659
0.0209791
0.0211974
0.0213276
0.0213699
0.02132
0.021173
0.0209246
0.0205704
0.0201035
0.0195141
0.0187941
0.0179228
0.016816
0.0152206
0.0127064
0.00909488
0.00455378
0.000437526
0.000453037
0.00462594
0.00902198
0.0122571
0.0143937
0.01585
0.0169669
0.0178857
0.0186638
0.0193357
0.019906
0.0203426
0.0206439
0.0208435
0.0209585
0.0209898
0.0209328
0.0207829
0.0205358
0.0201869
0.0197295
0.0191513
0.0184399
0.0175717
0.0164605
0.0148563
0.0123412
0.00882008
0.00442823
0.000424493
0.000446463
0.0045236
0.00873265
0.0118146
0.0139387
0.0154613
0.0166267
0.0175764
0.018374
0.0190471
0.0196074
0.0200278
0.0203066
0.0204842
0.0205815
0.0205997
0.0205344
0.0203805
0.020134
0.0197903
0.0193429
0.0187767
0.0180725
0.0172011
0.0160728
0.0144626
0.0120026
0.00857509
0.00430956
0.000412428
0.000440923
0.00434678
0.00833943
0.0113228
0.0134875
0.0150846
0.0163112
0.0172982
0.0181039
0.0187598
0.0193019
0.0197035
0.0199588
0.0201133
0.020193
0.0201987
0.020125
0.0199666
0.0197205
0.019382
0.0189438
0.01839
0.0176994
0.0168237
0.0156751
0.0140632
0.0116805
0.00836524
0.00420726
0.000404608
0.000427659
0.00412641
0.00790705
0.010834
0.0130532
0.0147306
0.0160089
0.0170128
0.0178138
0.018451
0.0189776
0.0193565
0.0195877
0.0197216
0.0197878
0.0197841
0.0197037
0.0195409
0.0192955
0.018962
0.0185327
0.0179935
0.0173153
0.0164273
0.0152455
0.0136377
0.0113427
0.00816153
0.00411585
0.000400635
0.000406485
0.00391023
0.00753884
0.0104315
0.0126821
0.0143996
0.0157052
0.0167175
0.0175031
0.0181023
0.0186036
0.0189613
0.0191765
0.0193006
0.0193608
0.0193515
0.0192669
0.019101
0.018858
0.0185315
0.0181124
0.0175823
0.0169004
0.0159946
0.0147762
0.0131439
0.0109146
0.00789335
0.0040098
0.000397347
0.000387
0.00377814
0.00731533
0.0101539
0.0123842
0.0140888
0.01539
0.0163929
0.0171743
0.0177415
0.0181742
0.0185006
0.0187182
0.0188505
0.0189095
0.0188958
0.018809
0.0186481
0.0184107
0.0180906
0.0176782
0.0171497
0.016463
0.0155368
0.0142764
0.0126052
0.0104065
0.00751935
0.00384975
0.000389655
0.000378539
0.0037023
0.00716618
0.00992771
0.0120947
0.0137525
0.0150264
0.0160216
0.0167909
0.0173562
0.0177393
0.0180187
0.0182377
0.0183812
0.0184364
0.018417
0.0183288
0.018175
0.0179446
0.0176313
0.0172245
0.0166989
0.0160061
0.0150655
0.0137855
0.0120936
0.00990123
0.00709315
0.00361579
0.000374203
0.000376331
0.0036378
0.00699559
0.00965205
0.0117258
0.0133302
0.0145781
0.0155541
0.016354
0.0169679
0.0173437
0.0175599
0.0177501
0.0178838
0.0179294
0.0179061
0.0178193
0.0176704
0.0174514
0.0171514
0.0167544
0.0162313
0.0155324
0.0145878
0.0133154
0.0116398
0.00948464
0.00674997
0.00341201
0.000352243
0.00037521
0.00353105
0.00673215
0.00926176
0.0112504
0.0127928
0.014012
0.0150644
0.0159359
0.0165684
0.0169369
0.0171002
0.0172316
0.0173337
0.017377
0.0173604
0.0172854
0.0171501
0.0169469
0.0166616
0.0162735
0.0157497
0.0150436
0.0140997
0.0128508
0.0112211
0.00913357
0.00649516
0.00327326
0.000335011
0.000369676
0.0033299
0.00636107
0.00879145
0.0106786
0.0122062
0.013508
0.0146133
0.0154797
0.0160756
0.0164316
0.0166275
0.0167328
0.0168039
0.016846
0.0168375
0.0167732
0.0166491
0.0164558
0.0161767
0.0157865
0.0152519
0.0145353
0.0135962
0.0123784
0.0108069
0.00880358
0.00628327
0.00318137
0.000324257
0.000356576
0.00304567
0.00590812
0.00827154
0.0101663
0.0117437
0.0130778
0.0141618
0.0149842
0.0155506
0.0159415
0.0161977
0.0163303
0.0163976
0.0164256
0.0164067
0.0163344
0.0162008
0.0159942
0.0156971
0.0152858
0.0147316
0.0140045
0.0130733
0.01189
0.01038
0.00846205
0.00605824
0.00308654
0.000317527
0.000334815
0.00280545
0.00551774
0.00783695
0.00976148
0.0113711
0.0127002
0.0137559
0.0145562
0.0151303
0.0155442
0.0158241
0.015986
0.0160664
0.0160851
0.0160468
0.0159499
0.0157878
0.0155495
0.0152192
0.0147779
0.0142021
0.0134645
0.0125377
0.0113833
0.00993181
0.00809511
0.0057983
0.00296856
0.000309331
0.000313119
0.0025772
0.00522748
0.00753261
0.00947445
0.0110923
0.0124086
0.0134466
0.0142392
0.0148207
0.0152323
0.0155048
0.0156658
0.0157423
0.0157485
0.0156904
0.0155684
0.0153779
0.0151094
0.0147493
0.0142814
0.0136859
0.0129383
0.0120115
0.0108736
0.00946776
0.00770638
0.00550832
0.00281298
0.000297825
0.000294393
0.00241654
0.00505972
0.00736758
0.00931886
0.0109341
0.0122324
0.013249
0.0140258
0.0145897
0.0149752
0.01522
0.0153594
0.0154165
0.0154034
0.0153252
0.0151819
0.0149693
0.0146784
0.0142966
0.0138088
0.0131974
0.0124411
0.011514
0.010386
0.00901087
0.00731254
0.00520701
0.00264678
0.000285586
0.000281441
0.00237626
0.00503531
0.0073607
0.00931617
0.0109046
0.0121577
0.0131264
0.0138584
0.0143771
0.0147233
0.0149341
0.0150455
0.0150801
0.0150483
0.0149537
0.0147951
0.0145675
0.0142623
0.0138671
0.0133668
0.0127447
0.0119819
0.0110554
0.00993618
0.00858351
0.00693451
0.00491166
0.0024841
0.000274006
0.000276855
0.00244855
0.00516652
0.00751565
0.00942241
0.0109155
0.0120609
0.0129412
0.0136122
0.014094
0.0144206
0.0146102
0.0147032
0.014724
0.0146816
0.0145783
0.014412
0.0141774
0.013866
0.0134653
0.0129593
0.0123322
0.0115668
0.0106423
0.00953197
0.00819828
0.00658817
0.00463569
0.00232729
0.000262451
0.000277978
0.00255468
0.00536064
0.00768667
0.00946052
0.0108
0.0118439
0.0126592
0.0132865
0.0137387
0.0140508
0.0142342
0.0143265
0.0143475
0.0143051
0.0142017
0.0140355
0.0138016
0.0134921
0.0130937
0.0125894
0.0119623
0.0111992
0.0102798
0.00917913
0.00786263
0.00628332
0.00438833
0.00218266
0.000249243
0.000284117
0.00273628
0.00559974
0.00778146
0.00936361
0.0105905
0.0115699
0.0123421
0.0129302
0.0133519
0.0136485
0.0138313
0.0139312
0.0139604
0.0139249
0.0138275
0.0136673
0.0134403
0.013139
0.0127507
0.0122568
0.0116357
0.0108806
0.0099714
0.0088829
0.00758255
0.00602598
0.00416866
0.00202022
0.000235462
0.000297899
0.00287934
0.00565484
0.00766857
0.00915371
0.0103372
0.0112713
0.0119999
0.0125427
0.012944
0.0132298
0.0134202
0.0135323
0.0135732
0.013548
0.0134597
0.0133082
0.013091
0.0128012
0.0124261
0.011948
0.0113476
0.01061
0.00971878
0.00864746
0.00736422
0.00582542
0.00399287
0.00188112
0.000223045
0.000310687
0.00287781
0.00551069
0.00743404
0.00888298
0.0100327
0.0109283
0.0116167
0.0121272
0.0125197
0.0128084
0.0130124
0.0131392
0.0131938
0.0131806
0.0131024
0.0129599
0.0127513
0.0124714
0.0121081
0.0116504
0.0110813
0.0103775
0.00951836
0.00847404
0.00721187
0.00569045
0.00387709
0.00179478
0.000212936
0.000315351
0.00279152
0.00525807
0.0071286
0.00854854
0.00967026
0.010535
0.0111824
0.0116877
0.0120858
0.0123921
0.0126145
0.0127586
0.0128287
0.0128287
0.0127612
0.0126263
0.0124231
0.0121478
0.011793
0.011351
0.0108157
0.010163
0.00935495
0.00835496
0.007124
0.005623
0.00382524
0.00176394
0.000205267
0.000315315
0.00270155
0.00496415