/*--------------------------------*- C++ -*----------------------------------*\
| =========                 |                                                 |
| \\      /  F ield         | OpenFOAM: The Open Source CFD Toolbox           |
|  \\    /   O peration     | Version:  2.4.0                                 |
|   \\  /    A nd           | Web:      www.OpenFOAM.org                      |
|    \\/     M anipulation  |                                                 |
\*---------------------------------------------------------------------------*/
FoamFile
{
    version     2.0;
    format      ascii;
    class       surfaceScalarField;
    location    "0.95";
    object      phiAlpha;
}
// * * * * * * * * * * * * * * * * * * * * * * * * * * * * * * * * * * * * * //

dimensions      [0 3 -1 0 0 0 0];

internalField   nonuniform List<scalar> 
5952
(
-1.31112e-22
5.72113e-24
-2.6313e-21
9.67523e-22
-1.08152e-20
3.93456e-21
-1.40948e-19
9.37685e-21
-2.09662e-18
8.73738e-20
-1.40109e-17
1.00298e-18
-3.90341e-17
5.23185e-18
-4.49014e-09
1.79153e-09
-6.45364e-09
-6.99821e-09
-7.80379e-09
6.01412e-09
-1.75044e-09
-3.75073e-09
-8.36223e-11
-1.86682e-08
-5.5401e-21
4.79375e-22
-5.20329e-20
1.60712e-20
-2.78058e-19
8.32484e-20
-5.02462e-19
3.03746e-19
-3.40592e-18
4.1353e-19
-1.35994e-17
2.2186e-18
7.54537e-12
-7.5454e-12
-1.64301e-07
3.59072e-08
-2.01849e-07
3.17778e-08
-2.50921e-07
5.38581e-08
-2.01849e-09
-1.08293e-11
-5.37069e-11
-6.64875e-10
-4.08657e-20
3.34379e-21
-1.73856e-18
2.21091e-19
-3.33707e-19
4.08354e-18
-7.59658e-19
8.22991e-19
-9.42062e-18
8.35317e-19
-2.47794e-17
7.81537e-18
-1.69995e-08
7.44822e-10
-1.0139e-07
4.57168e-08
-1.34909e-07
6.39404e-08
-7.35795e-10
4.13118e-08
-7.46624e-10
6.70985e-18
3.95287e-11
-1.32976e-09
-8.55637e-20
1.38075e-20
-2.55276e-18
5.02334e-19
-1.30785e-17
6.96964e-18
-2.56389e-12
2.03312e-13
1.79015e-12
3.38452e-12
1.79012e-12
2.14956e-17
-1.17515e-08
7.48353e-11
-1.28247e-07
3.87964e-08
-1.38524e-07
7.57032e-08
-6.66669e-10
1.75263e-08
-6.66669e-10
1.48305e-17
1.28222e-10
-6.66e-10
-4.48917e-19
9.56964e-20
-4.44506e-18
2.53107e-18
-7.50184e-17
7.12255e-17
-8.76781e-13
1.21e-13
1.32048e-14
7.20879e-13
-1.77653e-16
1.37204e-14
-2.29192e-09
2.36676e-09
-1.53375e-07
3.18889e-08
-1.01025e-07
5.67224e-08
-4.425e-17
1.03142e-09
-4.90431e-17
1.53757e-17
1.28222e-10
-6.74707e-17
-2.2387e-18
1.08401e-18
-1.23413e-17
1.11148e-17
-3.40387e-14
1.16508e-14
2.30497e-14
-1.39517e-14
7.43539e-13
9.80955e-17
-2.02901e-10
4.21713e-09
-2.60311e-08
5.62402e-08
-3.38793e-08
6.49468e-08
-1.98497e-08
1.13887e-08
-1.77623e-08
4.96489e-09
-1.26307e-08
8.4262e-09
2.70833e-09
-2.42509e-09
-1.56014e-16
1.45206e-16
-2.37915e-15
6.38521e-16
-2.33158e-15
1.15433e-16
-8.81617e-17
7.60338e-17
-3.6693e-16
8.53324e-17
-1.92148e-08
1.98024e-08
-3.27145e-08
8.30793e-08
-5.28505e-09
8.1388e-08
-3.40221e-10
5.10712e-10
-1.76378e-09
6.59884e-11
-7.44669e-09
4.55028e-09
4.27547e-09
-6.22002e-09
-4.128e-17
2.1337e-13
-7.6894e-17
1.50666e-16
-9.98625e-17
1.22502e-16
-1.15908e-16
8.66812e-17
-3.97996e-16
6.28589e-17
-5.2486e-08
9.97555e-09
-3.89063e-08
6.96079e-08
-1.57536e-08
5.81271e-08
-3.04968e-10
1.25548e-08
-2.48997e-11
5.26698e-12
5.64021e-10
-4.51462e-11
-8.77344e-11
1.34529e-09
-2.2365e-12
1.23175e-12
-7.54443e-17
7.86322e-12
-9.12017e-17
1.62684e-16
-1.35225e-13
1.35195e-13
8.16887e-13
4.53681e-14
-4.28223e-09
-5.1018e-11
-1.26812e-08
1.01596e-10
-1.09717e-08
7.24629e-09
2.57217e-10
2.99294e-09
-1.14874e-12
3.0133e-11
1.14068e-11
4.00332e-11
-1.10063e-10
6.00374e-11
5.36512e-14
4.10764e-13
7.92485e-12
1.03556e-14
-4.30737e-11
1.38363e-10
-8.2117e-11
3.25646e-10
2.52354e-11
3.49063e-11
1.29203e-10
3.07663e-11
2.30799e-10
9.59803e-18
2.0235e-09
6.45269e-11
3.33959e-09
-2.63534e-11
3.70542e-09
1.74844e-10
3.98736e-09
3.43599e-10
1.4319e-10
3.1486e-09
-1.08442e-18
4.10766e-13
7.64554e-18
1.03467e-14
1.82805e-17
1.38363e-10
2.6452e-17
3.25645e-10
6.73989e-17
3.49063e-11
1.11572e-16
3.07662e-11
1.94964e-16
5.9738e-16
-1.07433e-12
6.56014e-11
1.07636e-10
1.9655e-09
1.16605e-09
2.43054e-11
1.21876e-09
7.65422e-11
4.09076e-10
2.02214e-10
1.35706e-08
-7.72093e-08
2.06564e-07
-1.88439e-07
5.02099e-07
-3.23409e-07
7.48619e-07
-1.8185e-07
9.37627e-07
-2.84249e-07
8.89371e-07
-3.64056e-07
6.74107e-07
-1.23723e-07
3.36018e-07
-9.22951e-08
3.57892e-08
-6.25224e-08
5.82613e-16
3.57347e-08
6.54557e-12
1.48776e-10
2.42682e-09
-9.81555e-09
-1.75157e-08
-1.15247e-09
-4.76327e-10
-6.07403e-10
-4.76327e-10
-2.95535e-18
-6.53587e-10
-1.9339e-09
1.22868e-09
-6.18964e-09
-7.56551e-09
6.32533e-09
-3.58358e-09
-1.65538e-11
-3.35947e-09
6.82846e-09
-2.30233e-10
-1.63792e-09
-1.87287e-11
-3.40983e-10
-6.40309e-14
-7.28115e-11
-6.48948e-14
-2.9333e-10
-1.6738e-10
5.83386e-11
-1.11351e-10
5.83386e-11
-3.61646e-18
-5.39151e-09
-1.4365e-17
-1.02568e-08
-2.64424e-17
-2.62939e-09
-1.53869e-09
1.28527e-08
-5.4843e-09
8.12539e-09
1.00837e-08
1.19822e-09
4.1124e-09
-4.46793e-09
3.30658e-09
-6.32591e-09
2.27165e-09
-1.32411e-08
-5.72243e-10
-1.57755e-11
-2.33873e-17
-3.03226e-18
-1.8951e-17
-8.05221e-18
-1.63746e-17
-1.6942e-17
-1.99284e-17
-2.2888e-17
-1.53869e-09
-2.37892e-17
-7.91997e-09
-1.6395e-09
-2.32384e-09
-4.52582e-09
3.49502e-08
-1.1335e-08
3.49898e-08
8.7937e-09
1.33693e-08
4.04112e-11
1.08909e-08
-2.47439e-17
4.03711e-12
-3.33173e-17
-4.52212e-18
-4.46992e-17
-2.68112e-17
-4.70264e-17
-3.72755e-17
-4.30543e-17
-8.69173e-17
-1.09384e-17
-7.02275e-17
-1.80485e-09
-3.73549e-17
4.26032e-09
-1.61152e-08
1.97543e-09
-1.03646e-08
-4.53569e-09
3.20373e-08
-1.07775e-08
1.8231e-08
-3.05806e-08
-3.32578e-17
4.03698e-12
-7.83666e-17
-5.01079e-18
-6.47889e-17
-3.7686e-16
-1.03426e-16
-2.56774e-17
-5.6293e-17
-2.63799e-16
-1.18846e-17
-1.0747e-15
1.46091e-17
-6.38486e-17
9.72246e-08
-3.94292e-08
2.05921e-07
-1.31492e-08
1.57925e-07
2.24658e-07
6.79594e-08
1.89047e-07
-2.44124e-09
-6.04823e-16
3.48441e-10
-6.43003e-16
-6.72526e-18
-4.96024e-15
-2.63186e-15
-3.6341e-16
-3.08886e-14
-4.84046e-16
-3.2155e-16
-1.239e-17
-2.52492e-15
4.47675e-17
-1.21006e-16
1.45251e-07
-7.99534e-08
4.18267e-07
-6.65213e-08
3.72491e-07
3.24166e-07
1.936e-07
3.67939e-07
1.91158e-07
-5.10625e-10
2.28461e-10
-1.32514e-15
-5.10624e-10
-2.53696e-14
-2.62698e-15
-8.11651e-15
9.10409e-15
-6.8472e-16
-8.02733e-15
-2.57011e-17
-2.914e-15
1.98713e-17
-1.62801e-16
1.26619e-07
-7.28253e-08
4.23159e-07
-1.94612e-07
3.51336e-07
3.95989e-07
1.6946e-07
5.49815e-07
3.60618e-07
1.14788e-09
-3.58608e-10
-4.01751e-12
-1.25628e-10
-2.9058e-14
-4.01762e-12
3.17817e-14
2.82189e-13
-1.21871e-16
1.71542e-15
-2.9757e-17
-1.85643e-15
-5.46302e-17
-1.28517e-16
-7.43124e-09
-1.03697e-08
2.25415e-07
-2.9699e-07
2.35438e-07
3.85966e-07
1.16425e-07
6.68828e-07
4.77043e-07
1.02333e-10
-8.13405e-10
5.49881e-12
-3.633e-12
1.0193e-11
3.52359e-13
1.44572e-13
1.06933e-11
4.01867e-16
1.47694e-13
-4.58663e-18
-4.51126e-17
-5.45611e-17
-7.06355e-17
-1.03697e-08
-1.20298e-16
-2.09864e-07
-8.96341e-08
5.2421e-08
1.23682e-07
5.52663e-08
6.65983e-07
5.28543e-07
1.07768e-10
-4.72826e-10
7.01788e-12
-6.23637e-11
4.56524e-12
-2.52004e-11
1.00977e-10
-5.79087e-10
3.5702e-16
1.27459e-11
4.98439e-17
2.31173e-17
-1.46497e-17
-1.43128e-17
-7.49677e-17
-5.86371e-17
-1.27219e-07
-1.27327e-09
5.86895e-10
-5.10189e-08
6.40266e-08
6.02543e-07
5.89456e-07
2.83932e-10
7.57296e-11
2.54717e-10
3.89445e-11
9.126e-11
1.79774e-12
4.55054e-09
-3.08811e-16
2.37425e-10
1.26829e-09
7.88875e-17
2.37425e-10
3.50518e-17
2.94933e-17
-6.2117e-18
-1.68873e-17
-8.66361e-10
-4.06905e-10
1.37628e-08
-2.70592e-10
2.07984e-07
3.1501e-07
7.9744e-07
3.31426e-13
-4.93729e-09
1.25485e-13
4.25958e-11
4.53664e-14
2.47783e-12
1.67248e-15
-1.67705e-14
1.12565e-07
3.05126e-09
3.57699e-07
6.00593e-07
2.41491e-07
6.62469e-07
3.84893e-09
2.04366e-07
1.01149e-09
-2.13128e-09
1.35873e-09
-2.01876e-10
4.32318e-07
-7.45662e-09
1.23833e-06
1.06374e-29
-1.46336e-28
7.21582e-27
-3.87116e-26
1.41415e-25
-4.83221e-25
4.94051e-25
-1.09638e-24
3.48121e-25
-2.98276e-26
6.8028e-26
2.53268e-26
3.82045e-27
1.35088e-26
-1.32153e-21
1.83906e-23
-2.60106e-20
2.32656e-21
-2.22995e-19
2.21738e-20
-1.36462e-18
1.27265e-19
5.6887e-19
-5.68326e-18
4.07465e-30
-1.51091e-27
2.87925e-26
-3.60232e-25
6.92508e-25
-4.31066e-24
2.32723e-24
-8.63292e-24
-5.25593e-25
2.60863e-24
-6.77514e-21
1.22181e-22
-2.25242e-19
1.54924e-20
-2.65883e-18
2.8678e-19
-1.58552e-17
2.39804e-18
-5.30673e-17
1.10167e-17
-1.10396e-16
2.92531e-17
4.81764e-17
-3.19875e-16
1.43463e-28
-2.95397e-26
-7.79677e-25
-2.20455e-24
-1.79203e-23
-1.24726e-23
-7.60698e-22
2.202e-23
-2.97737e-20
1.10656e-21
-4.77492e-19
4.12152e-20
-4.13011e-18
5.9211e-19
-2.03528e-17
4.45742e-18
-6.30295e-17
1.8875e-17
-1.40934e-16
4.9739e-17
-2.84733e-16
9.31624e-17
1.53524e-16
-6.83453e-16
-1.81744e-24
8.08123e-27
-8.27621e-23
1.92205e-24
-1.7703e-21
6.68149e-23
-2.72103e-20
1.5168e-21
-2.96976e-19
2.59786e-20
-2.37479e-18
3.09628e-19
-1.27535e-17
2.60694e-18
-4.4796e-17
1.39863e-17
-1.05914e-16
4.66662e-17
-1.81738e-16
1.00442e-16
-2.58461e-16
1.50748e-16
1.79243e-16
-3.65144e-16
-4.7507e-23
1.83546e-24
-1.3897e-21
1.14665e-22
-1.50967e-20
1.55971e-21
-1.15709e-19
1.29242e-20
-7.75643e-19
9.5168e-20
-4.30746e-18
6.84255e-19
-1.81119e-17
4.33265e-18
-5.44906e-17
2.04261e-17
-1.15668e-16
6.50496e-17
-1.78814e-16
1.36919e-16
-2.18079e-16
1.96009e-16
2.06983e-16
-2.38599e-16
-3.60974e-22
3.81278e-23
-5.96715e-21
1.11464e-21
-4.11742e-20
7.83399e-21
-2.15603e-19
3.63636e-20
-1.04033e-18
1.62484e-19
-4.46777e-18
7.70538e-19
-1.58756e-17
3.91897e-18
-4.34967e-17
1.76692e-17
-8.80919e-17
5.94713e-17
-1.32801e-16
1.37741e-16
-1.55864e-16
2.13504e-16
2.3063e-16
-1.56177e-16
-1.06781e-21
2.30078e-22
-1.19e-20
3.83219e-21
-5.98378e-20
1.76271e-20
-2.33021e-19
5.67069e-20
-8.60722e-19
1.74485e-19
-2.9546e-18
5.26651e-19
-9.00578e-18
2.05966e-18
-2.23943e-17
9.10027e-18
-4.16764e-17
3.45409e-17
-5.86648e-17
9.8043e-17
-6.77721e-17
1.86096e-16
2.3298e-16
-6.92334e-17
-4.1266e-21
2.93368e-21
-1.82033e-20
1.68787e-20
-5.03945e-20
3.09867e-20
-1.46343e-19
5.65179e-20
-4.38101e-19
1.34097e-19
-1.19151e-18
2.36177e-19
-2.99013e-18
5.79721e-19
-6.21109e-18
2.46285e-18
-6.57765e-18
1.09368e-17
3.43055e-18
4.45836e-17
1.88738e-17
1.16002e-16
1.87736e-16
2.98675e-17
-7.2749e-19
6.56445e-19
-2.25387e-18
3.50201e-18
-2.57202e-18
5.01581e-18
-5.96193e-18
4.85066e-18
-3.76e-19
1.23867e-17
-2.49332e-19
2.61157e-19
-4.42008e-19
6.19003e-20
-3.14709e-19
2.99187e-19
1.60116e-18
1.7973e-18
1.29384e-17
1.14606e-17
4.39194e-17
4.694e-17
1.07183e-16
8.3193e-17
-4.00914e-19
4.0036e-18
4.66443e-20
2.73748e-18
7.13091e-19
8.37074e-17
3.14252e-19
5.46126e-18
9.74396e-20
1.27958e-17
4.61699e-20
4.9942e-19
5.40833e-18
-7.08538e-18
1.38387e-17
4.54776e-20
9.52961e-18
-8.65794e-20
1.18504e-17
1.02006e-18
3.22543e-17
1.16544e-17
4.35907e-17
7.14843e-17
3.59954e-23
4.00356e-18
1.3292e-19
2.6046e-18
2.03488e-08
-1.32193e-08
2.96363e-08
-9.27773e-08
1.60606e-08
2.87378e-07
2.73542e-08
7.87439e-08
2.18285e-09
-3.23384e-08
6.21217e-17
2.18285e-09
5.8247e-17
-3.75647e-18
6.14082e-17
-3.51208e-17
4.7182e-17
1.06009e-17
2.47237e-17
7.09632e-17
8.17026e-08
-1.92387e-08
2.60553e-07
-4.36581e-08
9.44327e-07
-2.598e-07
1.59782e-06
-2.86524e-07
1.95829e-06
1.8789e-07
2.13751e-06
1.24993e-07
9.98273e-07
-1.03405e-07
7.01478e-07
3.05786e-07
7.96231e-07
8.93943e-08
3.3564e-07
-4.98494e-07
6.67954e-09
8.85793e-09
8.67065e-17
6.67954e-09
-1.4493e-17
1.75075e-18
-3.88984e-17
2.62969e-17
-1.09884e-16
5.41028e-18
-2.25313e-16
7.19469e-18
-2.00041e-16
-6.53573e-19
-1.47952e-16
1.1521e-16
-9.78411e-17
-7.6505e-17
-5.37339e-17
-8.17113e-17
-2.23556e-17
-6.35307e-17
-5.46516e-18
-3.75292e-17
-1.18278e-21
-2.49869e-18
-4.18401e-20
-2.79714e-15
1.07261e-16
-1.47352e-14
1.8004e-15
-1.05741e-14
2.19616e-15
4.61231e-15
6.0541e-16
-9.27864e-14
-7.61628e-15
-1.32606e-11
-5.08296e-12
-1.28265e-11
-2.45875e-11
-1.60403e-12
-2.15845e-11
-2.56558e-13
-3.44254e-12
-5.35848e-16
-1.75854e-12
-2.65304e-19
-1.20076e-18
-3.13799e-19
-1.83442e-15
2.87602e-16
-2.16156e-15
5.57914e-16
9.58899e-16
4.05672e-16
1.50077e-15
2.28605e-17
-3.62597e-11
-1.69048e-12
-1.29911e-10
-2.53634e-11
-1.13451e-10
-4.32252e-11
-7.46508e-11
-5.8208e-11
-1.89265e-11
-3.79e-11
-1.75803e-17
-4.04297e-12
-5.18221e-19
-1.88069e-17
-1.46665e-18
-5.25991e-16
2.00693e-16
-5.44332e-16
2.11399e-16
-3.54207e-16
1.37461e-16
-4.10771e-16
3.58846e-17
-1.13347e-10
-2.59759e-13
-1.29845e-10
-1.24693e-11
-1.45599e-10
-2.50878e-11
-1.57645e-10
-4.97803e-11
-3.82998e-11
-4.06599e-12
-1.05473e-12
-6.98794e-12
-1.46343e-18
-1.05479e-12
-1.60239e-17
-2.5916e-16
1.83166e-16
-2.65997e-16
1.47729e-16
-2.60902e-16
9.78353e-17
-2.92381e-16
4.31535e-17
-5.52447e-12
-6.07577e-18
-2.84028e-11
-5.82663e-17
-2.3464e-11
-1.65599e-16
-1.87445e-13
-5.06205e-16
-4.25325e-12
-1.86262e-16
-6.86986e-12
-5.13777e-12
-1.91655e-13
-3.62337e-11
-1.91708e-13
-1.51133e-16
1.92027e-16
-1.49275e-16
1.39677e-16
-1.44767e-16
9.07291e-17
-1.25926e-16
4.33738e-17
-1.33191e-16
3.9049e-19
-1.35546e-16
-4.44294e-17
-1.32274e-16
-1.6818e-16
-1.72773e-16
-4.66474e-16
-1.24976e-16
-2.79356e-16
-8.96653e-12
-1.18565e-12
-1.07722e-11
-9.77534e-11
-9.61537e-11
-6.6882e-17
2.05841e-16
-6.57802e-17
1.45717e-16
-6.71276e-17
9.1214e-17
-7.3407e-17
4.70319e-17
-9.51616e-17
8.70696e-18
-1.88988e-16
-3.23372e-17
-3.65282e-16
-6.13173e-16
-1.70125e-16
-4.69148e-15
-1.84929e-16
-2.24681e-16
-1.1855e-12
-4.20976e-16
-3.82506e-11
-3.43165e-11
-1.34405e-10
2.48271e-17
2.01129e-16
1.09081e-17
1.56776e-16
-8.61219e-19
9.66906e-17
-6.18627e-18
4.60529e-17
-1.90139e-17
1.12256e-17
-2.27745e-16
-6.39437e-18
-3.13664e-15
-9.14058e-18
-2.56412e-15
-1.73938e-14
1.34856e-15
-4.65578e-13
-2.60145e-14
2.62822e-14
-1.68928e-11
-9.70832e-13
-2.21359e-16
1.03409e-16
1.48034e-16
9.52535e-17
1.39298e-16
7.21632e-17
9.72392e-17
4.69142e-17
4.93611e-17
2.31154e-17
1.22937e-17
1.11058e-17
-2.70644e-18
3.78758e-18
-8.20606e-18
4.40668e-14
-1.46412e-17
-1.15535e-14
-1.63778e-12
-7.82065e-16
-1.65464e-11
-2.11791e-17
-9.71666e-13
-2.42539e-16
1.08131e-16
8.06406e-17
1.20548e-16
9.3229e-17
1.08045e-16
7.55776e-17
8.08083e-17
4.30751e-17
4.92601e-17
1.41463e-17
2.29868e-17
-5.75066e-19
1.45323e-17
-1.45665e-17
3.87627e-17
-5.3699e-17
6.75956e-12
-1.97452e-17
7.04811e-12
-4.40954e-11
1.58361e-13
-2.76195e-10
1.58091e-13
9.25641e-17
4.52954e-17
1.03557e-16
5.45968e-17
9.8454e-17
4.74601e-17
7.8898e-17
2.92666e-17
5.31136e-17
1.13248e-17
3.09376e-17
6.80814e-19
5.74111e-17
-2.97414e-17
1.01473e-16
-2.23156e-16
1.49261e-16
-1.05502e-17
1.76953e-10
-3.36351e-11
1.44471e-10
-6.8767e-10
-1.23593e-10
3.37124e-17
1.52223e-17
8.62988e-18
7.95935e-17
8.70448e-18
4.71366e-17
8.7633e-18
2.93057e-17
1.86201e-17
3.12643e-18
3.60456e-17
9.95076e-19
3.592e-16
-1.08902e-17
7.77032e-16
-3.71612e-17
7.39423e-16
-3.30525e-17
3.12372e-11
-2.27811e-16
5.81953e-10
-1.26376e-16
5.44746e-11
2.60836e-31
-5.6546e-30
4.10395e-28
-3.34777e-27
1.13141e-26
-5.4179e-26
4.46796e-26
-1.6804e-25
2.77759e-26
-9.59458e-26
5.18697e-27
2.71181e-28
9.03132e-28
2.86183e-28
3.81608e-25
5.65908e-25
-5.16097e-22
1.65173e-22
-4.23498e-21
1.25459e-21
-1.38909e-20
3.75264e-21
7.49684e-21
-3.1526e-20
3.76852e-30
-1.41736e-28
4.95349e-27
-5.00808e-26
1.30056e-25
-7.13012e-25
6.30929e-25
-2.75986e-24
7.64888e-25
-3.29496e-24
2.9366e-24
2.4689e-24
-8.61119e-22
4.78084e-22
-1.04203e-20
4.83112e-21
-3.83149e-20
1.60917e-20
-9.45119e-20
3.60179e-20
-1.86114e-19
6.3296e-20
9.28996e-20
-3.14539e-19
6.6393e-29
-2.89362e-27
2.70516e-26
-4.29539e-25
5.11697e-25
-5.20618e-24
2.49919e-24
-2.36871e-23
8.34465e-25
7.88927e-24
-2.17951e-21
8.53118e-22
-1.43366e-20
6.95689e-21
-4.96939e-20
2.59235e-20
-1.23618e-19
6.37583e-20
-2.4902e-19
1.21111e-19
-4.3168e-19
1.90947e-19
2.5811e-19
-6.66172e-19
-2.22029e-26
-4.51052e-26
-8.72678e-25
-2.95836e-24
-1.68279e-23
-2.69522e-23
-2.86281e-22
-2.86068e-23
-2.18982e-21
4.00622e-22
-1.04402e-20
4.1974e-21
-3.50754e-20
1.96714e-20
-9.07102e-20
5.83701e-20
-1.92777e-19
1.27942e-19
-3.51926e-19
2.25927e-19
-5.686e-19
3.36865e-19
4.33823e-19
-8.30039e-19
-1.3125e-24
-5.04611e-26
-3.62808e-23
-3.09597e-24
-3.50749e-22
-7.18471e-24
-1.82975e-21
1.04562e-22
-6.67808e-21
1.38418e-21
-1.94519e-20
8.30675e-21
-4.81274e-20
3.15312e-20
-1.04082e-19
8.52966e-20
-1.99092e-19
1.78234e-19
-3.39421e-19
3.04175e-19
-5.20339e-19
4.38889e-19
5.45363e-19
-7.25099e-19
-1.2959e-23
6.90749e-25
-2.07884e-22
1.63851e-23
-1.22065e-21
1.04186e-22
-4.26095e-21
4.61378e-22
-1.11344e-20
2.26835e-21
-2.40902e-20
1.00585e-20
-4.64964e-20
3.48367e-20
-8.42973e-20
9.23728e-20
-1.45136e-19
1.92943e-19
-2.33052e-19
3.28416e-19
-3.42378e-19
4.67535e-19
5.65111e-19
-4.56557e-19
-5.01275e-23
7.23927e-24
-5.1761e-22
1.0159e-22
-2.22346e-21
3.85138e-22
-6.12582e-21
8.49523e-22
-1.29064e-20
2.214e-21
-2.22465e-20
7.89027e-21
-3.28463e-20
2.73699e-20
-4.496e-20
7.66121e-20
-6.29811e-20
1.68992e-19
-9.27799e-20
2.98796e-19
-1.34893e-19
4.32344e-19
5.1826e-19
-1.79977e-19
-8.93893e-23
2.41364e-23
-6.73337e-22
2.19394e-22
-2.31845e-21
5.97647e-22
-5.38705e-21
8.34933e-22
-9.75943e-21
1.11007e-21
-1.38559e-20
3.28463e-21
-1.34822e-20
1.38469e-20
-3.86927e-21
4.67237e-20
1.05918e-20
1.20235e-19
2.6844e-20
2.32114e-19
3.67815e-20
3.54531e-19
4.38285e-19
3.29224e-20
-7.27548e-23
3.36767e-23
-3.80987e-22
1.9993e-22
-1.2174e-20
3.8879e-22
-1.62434e-18
3.84709e-21
-4.67161e-21
-9.84899e-17
-2.41938e-21
-1.76452e-19
2.51692e-21
3.21483e-21
1.65284e-20
2.07712e-20
4.65864e-20
6.77255e-20
9.12753e-20
1.50985e-19
1.39212e-19
2.53484e-19
3.34015e-19
1.73455e-19
-8.51433e-20
7.88311e-21
-1.9256e-18
2.70818e-19
1.6906e-19
3.38388e-18
2.23426e-15
-1.23604e-14
4.45363e-15
-4.10368e-13
9.83874e-18
4.43335e-15
1.19237e-17
-6.01602e-18
1.10163e-18
2.67133e-19
1.42137e-19
7.33951e-20
1.23268e-19
9.07707e-20
1.77065e-19
1.57507e-19
2.25698e-19
2.32567e-19
4.7978e-24
7.87827e-21
2.39166e-23
2.70889e-19
7.82365e-18
-4.44684e-18
4.18903e-12
7.68756e-14
7.33338e-12
8.7664e-14
5.99448e-12
-2.87672e-12
7.26711e-13
-1.87316e-12
4.0811e-17
7.2668e-13
5.42353e-19
4.62014e-17
2.26574e-18
2.96838e-17
5.57463e-19
2.95136e-19
1.78496e-19
2.93928e-19
7.08438e-10
-3.19563e-09
3.21746e-11
-8.98069e-09
6.33061e-17
3.21745e-11
1.19138e-16
7.67446e-14
2.80484e-12
-2.71638e-12
6.8257e-11
-1.63698e-12
7.08256e-11
1.13944e-12
1.78782e-11
4.57923e-12
7.23192e-13
7.23525e-12
1.86545e-14
9.8036e-13
2.87979e-19
1.86539e-14
2.94459e-19
1.26558e-19
-5.78436e-20
1.15512e-20
-9.18388e-20
1.43856e-20
-1.30668e-19
1.41987e-20
-1.70107e-19
9.53408e-21
-2.05073e-19
-6.94701e-22
-2.05095e-19
-4.28547e-20
-1.70767e-19
-8.1619e-20
-1.12073e-19
-1.07403e-19
-4.99487e-20
-1.08423e-19
-9.48075e-21
-7.85065e-20
-1.81887e-23
-3.01328e-20
-4.37657e-22
-4.73004e-19
1.16238e-19
-6.45241e-19
1.22651e-19
-8.06651e-19
1.02294e-19
-9.28396e-19
4.97242e-20
-9.74192e-19
-4.34015e-20
-9.33864e-19
-1.77018e-19
-7.99844e-19
-3.13253e-19
-5.83738e-19
-4.2348e-19
-3.26508e-19
-4.65647e-19
-1.05166e-19
-3.94125e-19
-3.00898e-21
-2.05496e-19
-1.64242e-20
-9.33793e-19
3.01463e-19
-1.20402e-18
2.99027e-19
-1.43963e-18
2.34618e-19
-1.60375e-18
1.03366e-19
-1.675e-18
-8.73956e-20
-1.65041e-18
-3.19485e-19
-1.50621e-18
-5.78589e-19
-1.21919e-18
-8.36548e-19
-7.97542e-19
-1.01998e-18
-3.34431e-19
-9.95708e-19
-2.77131e-20
-6.4396e-19
-1.05319e-19
-1.11182e-18
4.84989e-19
-1.3841e-18
4.63528e-19
-1.6193e-18
3.55729e-19
-1.79635e-18
1.62919e-19
-1.91578e-18
-8.64766e-20
-1.98954e-18
-3.63045e-19
-1.97423e-18
-7.12929e-19
-1.79119e-18
-1.14525e-18
-1.35811e-18
-1.59199e-18
-7.0045e-19
-1.81213e-18
-1.06653e-19
-1.41425e-18
-3.50911e-19
-9.30722e-19
5.86915e-19
-1.11872e-18
5.41867e-19
-1.28395e-18
4.09716e-19
-1.43402e-18
2.03511e-19
-1.58199e-18
-4.44302e-20
-1.76781e-18
-2.76964e-19
-1.9552e-18
-6.24105e-19
-2.03487e-18
-1.17056e-18
-1.8123e-18
-1.9372e-18
-1.13738e-18
-2.64233e-18
-2.61155e-19
-2.4892e-18
-8.26002e-19
-5.55299e-19
5.82833e-19
-6.28217e-19
5.10016e-19
-6.86855e-19
3.67772e-19
-7.64959e-19
1.89389e-19
-8.86219e-19
-6.032e-21
-1.10416e-18
-1.30581e-19
-1.42559e-18
-3.69675e-19
-1.78249e-18
-8.84627e-19
-1.92871e-18
-1.88064e-18
-1.48792e-18
-3.21585e-18
-4.65034e-19
-3.71156e-18
-1.55407e-18
-2.11825e-19
5.14785e-19
-2.18497e-19
4.17922e-19
-2.06327e-19
2.67831e-19
-2.08422e-19
1.23367e-19
-2.69458e-19
1.19657e-20
-4.0957e-19
-2.83182e-20
-6.85563e-19
-1.25521e-19
-1.13484e-18
-4.66522e-19
-1.59582e-18
-1.46577e-18
-1.56586e-18
-3.34276e-18
-6.39826e-19
-4.82196e-18
-2.4777e-18
1.55228e-20
4.37024e-19
-4.80227e-21
3.40016e-19
-1.16895e-20
1.91651e-19
-7.88991e-21
6.44286e-20
-1.79479e-20
5.7343e-21
-4.84839e-20
-7.61038e-21
-1.47781e-19
-3.10705e-20
-4.221e-19
-1.88657e-19
-9.07063e-19
-9.80928e-19
-1.243e-18
-3.06207e-18
-6.76119e-19
-5.55004e-18
-3.4374e-18
1.79531e-19
3.47128e-19
1.53158e-19
2.7782e-19
1.04607e-19
1.60842e-19
5.35918e-20
5.79658e-20
2.00953e-20
8.27945e-21
9.41515e-21
-1.02796e-20
1.09543e-20
-3.51514e-20
1.80639e-20
-1.78834e-19
-7.81299e-20
-8.51489e-19
-4.81119e-19
-2.67845e-18
-4.58884e-19
-5.71241e-18
-4.16712e-18
2.60416e-19
2.52684e-19
2.45608e-19
2.18256e-19
1.93825e-19
1.41133e-19
1.29349e-19
6.44515e-20
8.00412e-20
1.68516e-20
5.10209e-20
-8.54276e-21
5.34514e-20
-4.95913e-20
1.35559e-19
-2.53349e-19
3.22575e-19
-1.01932e-18
3.90489e-19
-2.76065e-18
1.29342e-19
-5.58911e-18
-4.29176e-18
2.85037e-19
1.77317e-19
2.79017e-19
1.60678e-19
2.43257e-19
1.15316e-19
1.9066e-19
6.24325e-20
1.41804e-19
2.12248e-20
1.08784e-19
-7.56738e-21
1.58721e-19
-1.13114e-19
4.35588e-19
-5.38649e-19
1.04089e-18
-1.66066e-18
1.56952e-18
-3.38714e-18
1.28563e-18
-5.51568e-18
-3.25796e-18
3.23294e-19
1.43752e-19
3.22064e-19
1.33643e-19
2.91544e-19
9.99955e-20
2.44251e-19
5.78571e-20
1.94524e-19
2.11677e-20
2.17412e-19
-4.61801e-20
6.15349e-19
-5.15693e-19
1.64552e-18
-1.65857e-18
3.3827e-18
-3.65331e-18
4.85127e-18
-5.25256e-18
4.53732e-18
-5.69281e-18
9.36675e-19
-1.32506e-08
1.32506e-08
-5.47399e-08
4.14894e-08
-1.12146e-07
5.74058e-08
-1.70984e-07
5.88379e-08
-2.19197e-07
4.82137e-08
-2.50821e-07
3.16237e-08
-2.66057e-07
1.52358e-08
-2.65605e-07
-4.51606e-10
-2.56897e-07
-8.70778e-09
-2.46168e-07
-1.07295e-08
-2.35468e-07
-1.07004e-08
-1.61399e-08
-2.19324e-07
-5.79705e-08
7.1221e-08
-1.7988e-07
1.63399e-07
-3.28683e-07
2.06209e-07
-4.72359e-07
2.02515e-07
-5.84257e-07
1.60111e-07
-6.52215e-07
9.9582e-08
-6.75352e-07
3.83726e-08
-6.64528e-07
-1.12759e-08
-6.39963e-07
-3.31885e-08
-6.13594e-07
-3.67108e-08
-5.94291e-07
-2.98294e-08
-4.0727e-08
-5.697e-07
-9.21109e-08
1.63332e-07
-2.86593e-07
3.57881e-07
-5.18358e-07
4.37974e-07
-7.35335e-07
4.19491e-07
-8.90516e-07
3.15293e-07
-9.71488e-07
1.80554e-07
-9.88192e-07
5.50769e-08
-9.58059e-07
-4.14094e-08
-8.97242e-07
-8.58588e-08
-8.4226e-07
-9.45039e-08
-7.94608e-07
-7.46703e-08
-4.71302e-08
-7.9624e-07
-1.21337e-07
2.84669e-07
-3.69755e-07
6.063e-07
-6.67066e-07
7.35284e-07
-9.46975e-07
6.994e-07
-1.12179e-06
4.90106e-07
-1.19233e-06
2.511e-07
-1.18797e-06
5.07099e-08
-1.11656e-06
-1.12815e-07
-1.01842e-06
-1.84001e-07
-9.04087e-07
-2.0941e-07
-8.15633e-07
-1.66286e-07
-1.17971e-07
-7.44792e-07
-1.20284e-07
4.04952e-07
-3.71033e-07
8.57049e-07
-6.73225e-07
1.03748e-06
-9.41127e-07
9.67303e-07
-9.20923e-07
4.25224e-07
-8.50922e-07
1.01761e-07
-8.80932e-07
1.07646e-08
-9.52956e-07
-3.87542e-08
-9.75803e-07
-1.54344e-07
-8.31209e-07
-3.54646e-07
-7.07737e-07
-2.89758e-07
-2.27958e-07
-5.9775e-07
-8.32174e-08
4.8817e-07
-2.67567e-07
1.0414e-06
-4.87472e-07
1.25738e-06
-4.00434e-07
8.30359e-07
-1.00814e-07
1.86768e-08
-1.53321e-08
7.7044e-17
1.48791e-10
1.05895e-17
-3.86054e-08
-1.9908e-17
-2.28811e-07
-4.30151e-17
-4.83704e-07
-2.01868e-08
-6.20511e-07
-9.16266e-08
-2.37716e-07
-5.86218e-07
-2.1135e-08
5.09305e-07
-8.43367e-08
1.1046e-06
-1.45557e-07
1.31481e-06
-1.93549e-08
6.1377e-07
-4.91774e-17
-6.78106e-10
-3.49136e-17
6.99051e-17
-4.0308e-17
2.35722e-17
-4.81845e-17
-4.75205e-18
-6.13955e-17
-1.90292e-17
-2.01868e-08
-2.7348e-17
-1.30527e-07
-2.20976e-17
-4.16417e-17
-2.70381e-07
4.34041e-08
4.65901e-07
1.31317e-07
1.01669e-06
2.55214e-07
1.19091e-06
6.65731e-08
6.96908e-07
5.64641e-17
4.696e-08
2.53967e-17
9.35473e-17
-1.52984e-18
4.44079e-17
-1.65894e-17
1.16276e-17
-3.13436e-17
3.05307e-18
-3.06018e-17
-1.78619e-17
-3.48065e-17
-2.25825e-17
-2.84981e-17
-4.32606e-17
6.42153e-08
4.01686e-07
2.54085e-07
8.26817e-07
5.03251e-07
9.41748e-07
3.84611e-07
7.35526e-07
1.15758e-08
3.32552e-07
7.65457e-17
1.15758e-08
4.58302e-17
6.26013e-17
3.11088e-17
1.91102e-17
5.86696e-18
2.59814e-17
-5.33792e-18
-7.05405e-18
-1.34602e-17
-1.12072e-17
-2.10023e-17
-1.77566e-17
6.78409e-08
3.33845e-07
3.35786e-07
5.58872e-07
7.0844e-07
5.69094e-07
9.9428e-07
4.49686e-07
3.67587e-07
8.02624e-07
2.58503e-08
2.48163e-07
7.87125e-17
2.58503e-08
7.13887e-17
2.58602e-17
5.18961e-17
4.16222e-17
5.82266e-17
-1.46089e-17
3.39006e-17
2.27182e-19
-6.6921e-18
2.10392e-17
1.64158e-07
1.69687e-07
5.24993e-07
1.98037e-07
8.86533e-07
2.07554e-07
1.0815e-06
2.54721e-07
1.16578e-06
7.18338e-07
5.41745e-07
5.64843e-07
5.45718e-08
4.63877e-07
4.97071e-08
-7.72592e-08
-8.18292e-11
4.97889e-08
7.78226e-09
-6.44809e-08
6.49067e-17
7.78226e-09
4.58621e-18
4.9088e-17
3.05993e-07
-1.09192e-17
7.17769e-07
-1.15856e-18
1.37493e-06
-3.34139e-19
1.62382e-06
1.698e-07
1.5292e-06
8.12957e-07
1.49031e-06
6.03736e-07
1.44302e-06
5.70117e-07
1.55257e-06
-3.73912e-07
1.75509e-06
2.64182e-08
2.22767e-06
-2.48319e-07
9.99798e-07
6.06849e-07
5.24219e-07
3.92947e-07
-2.04132e-07
-1.51289e-08
-1.8176e-07
-2.23723e-08
-1.53233e-07
-2.85269e-08
-1.60979e-07
7.74603e-09
-1.71496e-07
1.05172e-08
-1.61273e-07
-9.99587e-09
-1.32485e-07
-2.87948e-08
-9.50136e-08
-3.7527e-08
-5.87056e-08
-3.63301e-08
-2.95638e-08
-2.91431e-08
-9.74983e-09
-1.9814e-08
-9.74973e-09
-5.4538e-07
-3.60543e-08
-5.12187e-07
-3.88652e-08
-4.82617e-07
-3.72222e-08
-5.15046e-07
3.48564e-08
-5.20313e-07
1.57458e-08
-4.75924e-07
-7.55128e-08
-3.86532e-07
-1.18187e-07
-2.88961e-07
-1.34526e-07
-1.95289e-07
-1.30003e-07
-1.13571e-07
-1.10861e-07
-4.32147e-08
-9.01702e-08
-5.2965e-08
-7.88966e-07
-1.38292e-08
-5.21087e-07
-2.47417e-08
-5.34709e-07
-2.36552e-08
-5.08543e-07
8.75866e-09
-7.16049e-07
-6.85915e-08
-6.39967e-07
-1.51594e-07
-5.34531e-07
-2.23624e-07
-3.92842e-07
-2.69503e-07
-2.84665e-07
-2.26758e-07
-1.91965e-07
-1.9669e-07
-9.43738e-08
-1.87572e-07
-1.47339e-07
-4.63328e-07
-4.64987e-08
-4.58556e-07
-2.95884e-08
-4.64745e-07
-1.73911e-08
-5.12267e-07
8.78264e-09
-7.28706e-07
-7.64308e-08
-6.93205e-07
-1.87095e-07
-6.17751e-07
-2.99077e-07
-4.79575e-07
-4.02599e-07
-2.6205e-07
-4.0365e-07
-1.37023e-07
-2.7707e-07
-1.0441e-07
-1.94027e-07
-2.37772e-07
-4.44589e-07
-1.9966e-07
-3.00793e-07
-8.00321e-08
-4.08152e-07
1.75094e-07
-7.312e-07
1.04364e-07
-7.02523e-07
-1.05107e-07
-6.8756e-07
-2.02058e-07
-6.74078e-07
-3.12559e-07
-6.16765e-07
-4.59913e-07
-4.3034e-07
-5.77851e-07
-1.90047e-07
-5.28048e-07
-1.92365e-08
-3.80397e-07
-2.18962e-07
-4.67587e-07
-3.18292e-07
-4.18845e-07
-1.17491e-07
-3.13596e-07
1.01447e-07
-2.90738e-07
6.62532e-08
-3.68374e-07
-2.74717e-08
-4.65459e-07
-1.04973e-07
-5.61971e-07
-2.16046e-07
-6.17401e-07
-4.04479e-07
-5.8714e-07
-6.08108e-07
-3.94133e-07
-7.38088e-07
-1.22612e-07
-6.7374e-07
-3.41574e-07
-3.82487e-07
-2.25779e-08
-3.64547e-07
-6.34221e-08
-2.09152e-07
-4.20308e-08
-1.05912e-07
-3.46091e-08
-1.29537e-07
-3.84674e-09
-2.02338e-07
-3.21726e-08
-3.24391e-07
-9.39892e-08
-4.41023e-07
-2.87853e-07
-4.87959e-07
-5.61192e-07
-3.72778e-07
-8.52211e-07
-9.53038e-08
-9.4543e-07
-5.45706e-07
-2.25779e-08
-2.63502e-17
-8.576e-08
-2.06082e-17
-8.16537e-08
-1.90973e-17
-5.24397e-08
-6.7714e-09
8.79386e-09
-2.62819e-08
5.04645e-08
-6.29982e-08
-2.00126e-08
-2.35088e-08
-1.51877e-07
-1.5599e-07
-2.88793e-07
-4.24279e-07
-2.94542e-07
-8.42221e-07
-1.24135e-07
-1.12596e-06
-6.69841e-07
-1.90208e-17
-2.82033e-17
-1.7037e-17
-2.26135e-17
-1.62456e-17
-1.98673e-17
-6.7714e-09
-1.68605e-17
-5.92699e-09
-1.07345e-17
1.38317e-07
-1.6226e-17
2.31733e-07
-4.48338e-08
1.69254e-07
-9.35135e-08
-1.56437e-08
-2.39384e-07
-1.3447e-07
-7.25081e-07
-1.00664e-07
-1.17043e-06
-7.69174e-07
1.76454e-17
-2.93245e-17
1.54011e-17
-2.99597e-17
1.20297e-17
-1.6047e-17
6.47708e-18
-6.58617e-18
1.96235e-18
-6.21966e-18
5.76206e-18
-2.00258e-17
1.07735e-07
-8.19733e-09
3.60971e-07
-1.13855e-07
2.38675e-07
-1.15486e-07
4.93424e-08
-5.35133e-07
1.27931e-08
-1.14674e-06
-7.37889e-07
7.63009e-17
-7.05713e-17
8.3286e-17
-7.14421e-17
5.51215e-17
-1.02077e-17
2.66095e-17
2.26488e-18
1.06595e-17
7.96162e-18
-1.30368e-17
6.13933e-18
-8.17804e-09
-1.92886e-11
9.55026e-08
-6.34062e-08
3.96681e-07
-1.02647e-07
4.40449e-07
-4.11974e-07
3.05984e-07
-9.95202e-07
-4.56525e-07
4.27157e-07
-2.61961e-07
6.81666e-08
-4.01221e-07
8.75466e-09
-5.73415e-08
6.15893e-17
8.75466e-09
4.49048e-17
2.46577e-17
2.92626e-17
2.177e-17
9.41022e-09
2.46639e-08
9.8581e-08
-2.06737e-07
6.38284e-07
-4.65542e-07
1.62919e-06
-8.27219e-07
1.27552e-06
-6.22868e-07
8.01112e-07
3.55337e-06
1.9139e-09
-3.67637e-06
3.60355e-06
-1.57359e-07
3.77967e-06
-2.73702e-07
4.38193e-06
-3.90401e-07
4.78496e-06
-4.25994e-07
4.79642e-06
-2.70903e-07
4.58584e-06
-5.13724e-08
4.44167e-06
6.20109e-09
4.22801e-06
1.03215e-07
3.50214e-06
3.76289e-07
2.96906e-06
4.73728e-07
9.41032e-08
2.17069e-06
4.44896e-06
-6.29372e-09
-5.57865e-06
3.31895e-06
-3.73265e-07
3.59367e-06
-5.5831e-07
3.78864e-06
-5.75486e-07
5.59088e-06
-4.07801e-07
5.98592e-06
-5.33116e-08
5.77321e-06
1.61342e-07
5.1603e-06
1.98769e-07
5.04801e-06
2.87857e-07
4.88281e-06
5.95365e-07
4.89824e-06
6.84568e-07
3.48074e-07
4.68676e-06
6.74769e-06
-1.589e-07
-6.58212e-06
6.21855e-06
-4.8398e-07
4.05061e-06
-7.77308e-07
4.2284e-06
-7.65026e-07
5.14961e-06
-4.45509e-07
6.58448e-06
-7.77178e-08
6.53342e-06
2.12402e-07
6.37503e-06
3.57156e-07
6.10504e-06
5.24706e-07
5.9024e-06
8.06956e-07
5.65012e-06
9.49523e-07
8.24612e-07
5.19326e-06
7.16537e-06
-5.68534e-06
-2.81536e-07
7.31018e-06
-6.28798e-07
7.35853e-06
-8.25655e-07
7.13318e-06
-7.08488e-07
6.76897e-06
-3.67954e-07
6.76113e-06
1.37493e-08
6.83577e-06
3.03409e-07