/*--------------------------------*- C++ -*----------------------------------*\
| =========                 |                                                 |
| \\      /  F ield         | OpenFOAM: The Open Source CFD Toolbox           |
|  \\    /   O peration     | Version:  v1606+                                |
|   \\  /    A nd           | Web:      www.OpenFOAM.com                      |
|    \\/     M anipulation  |                                                 |
\*---------------------------------------------------------------------------*/
FoamFile
{
    version     2.0;
    format      ascii;
    class       volScalarField;
    location    "0.65";
    object      alpha.water;
}
// * * * * * * * * * * * * * * * * * * * * * * * * * * * * * * * * * * * * * //

dimensions      [0 0 0 0 0 0 0];

internalField   nonuniform List<scalar> 
2268
(
1
1
1
1
1
1
1
1
1
1
1
1
1
1
1
1
1
1
0.999999
0.979368
0.952638
0.960464
0.99743
1
1
1
1
1
1
1
1
1
1
1
1
1
1
1
1
1
1
1
0.995392
0.96161
0.958558
0.997445
1
1
1
1
1
1
1
1
1
1
1
1
1
1
1
1
1
1
1
1
0.995878
0.958571
0.99743
1
1
1
1
1
1
1
1
1
1
1
1
1
1
1
1
1
1
1
1
0.999988
0.990487
0.999152
1
1
1
1
1
1
1
1
1
1
1
1
1
1
1
1
1
1
1
1
1
1
0.999768
1
1
1
1
1
1
1
1
1
1
1
1
1
1
1
1
1
1
1
1
1
1
0.99965
1
1
1
1
1
1
1
1
1
1
1
1
1
1
1
1
1
1
1
1
1
0.999999
0.99954
1
0.983714
0.977609
0.983387
0.994525
0.999953
1
1
1
1
1
1
1
1
1
1
1
1
1
1
1
1
0.99954
0.064697
0.31405
0.789093
0.789765
0.782778
0.819801
0.926801
0.979684
0.995211
0.997641
0.997826
0.99806
0.998819
0.998894
0.978995
0.956187
0.947916
0.936767
0.912536
0.0641694
0.275631
0.258613
0.0440555
0.0148902
0.0541171
0.232508
0.519669
0.777963
0.927102
0.989128
0.998819
0.999078
0.999101
0.999101
0.999101
0.999096
0.999037
0.995116
0.0366249
0.123467
0.0349208
2.5606e-05
2.36383e-06
4.21324e-06
1.85183e-05
9.09257e-05
0.00203967
0.162244
0.590799
0.900456
0.998183
0.999096
0.999104
0.999096
0.998098
0.998691
0.996091
0.00723414
0.00729753
0.00520681
6.40522e-05
1.82136e-06
1.31716e-06
1.38191e-06
3.58639e-06
-2.05664e-06
0.000229791
0.00214372
0.177589
0.734369
0.99905
0.999097
0.999049
0.995298
0.956983
0.929815
0.00642937
0.0040923
0.00188838
0.000744418
1.32716e-06
1.0893e-06
6.39365e-07
7.24989e-07
2.82583e-06
4.06153e-05
0.000292229
0.00201012
0.223587
0.895895
0.99905
0.998886
0.998679
0.927466
0.866201
0.349057
0.0261177
0.00408967
0.00586898
0.00211699
-1.7612e-06
3.60855e-07
4.31924e-07
1.02255e-06
5.3686e-06
2.561e-05
0.000335493
0.0402805
0.611637
0.99888
0.998746
0.998744
0.983257
0.866201
0.999888
0.65158
0.0606907
0.00149842
0.000102193
3.0551e-07
3.18578e-07
3.46864e-07
3.81095e-07
7.26611e-07
5.84799e-06
6.69713e-05
0.00078996
0.267347
0.997739
0.998744
0.998718
0.990425
0.866203
0.999915
0.665573
0.085649
0.000785245
2.6934e-05
2.46372e-07
2.9891e-07
2.77878e-07
2.45149e-07
3.47719e-07
1.67422e-06
1.6781e-05
0.000251298
0.118787
0.910729
0.998715
0.998534
0.992482
0.866221
0.390032
0.407672
0.436411
0.476721
0.53653
0.612218
0.693267
0.77824
0.859148
0.927175
0.975854
1
1
1
1
1
1
1
1
1
1
1
0.999807
-6.99762e-10
-5.15286e-10
-3.052e-10
1.8164e-05
0.000197421
0.00752728
0.0334387
0.0759093
0.139595
0.231306
0.360338
0.536438
0.72574
0.87927
0.984474
1
1
1
1
1
1
1
0.999992
-9.46211e-10
-1.23933e-09
-1.55691e-09
-1.35746e-11
1.55957e-08
1.36685e-07
3.36161e-07
8.25398e-07
1.83061e-06
3.66712e-06
7.06342e-06
0.00631913
0.042945
0.131602
0.280964
0.533788
0.855966
0.996726
0.995866
0.999996
0.999996
0.999994
0.999988
-7.76077e-10
-1.15765e-09
-2.03046e-09
-4.71061e-12
-4.50356e-11
-3.61853e-10
4.46403e-13
-1.55027e-11
1.33189e-08
3.59698e-08
8.69196e-08
3.86332e-07
1.1376e-06
1.58036e-06
1.59714e-06
0.00820668
0.0510008
0.161988
0.37342
0.727574
0.893177
0.922653
0.981072
-4.56946e-10
-7.10598e-10
-1.40409e-09
-1.89221e-09
-3.43174e-09
-6.22225e-09
-1.12902e-08
-1.48065e-10
-4.80773e-11
-2.77582e-12
-9.23257e-12
4.56757e-09
1.35789e-08
1.71434e-08
1.11032e-08
-8.91402e-14
5.48685e-13
2.36901e-13
1.25288e-13
1.25288e-13
0.0422339
0.160235
0.406519
-2.14123e-10
-3.12928e-10
-6.67898e-10
-9.61114e-10
-1.58943e-09
-3.89994e-09
-8.17407e-09
-1.37355e-08
-1.8746e-08
-2.07109e-08
-1.47509e-08
-2.1467e-12
1.01945e-10
1.40176e-10
1.08066e-10
2.16074e-10
8.56152e-09
6.08024e-10
1.41478e-12
2.44025e-13
-4.3789e-13
-1.01625e-09
-9.40051e-10
-8.36044e-11
-1.10548e-10
-2.38201e-10
-3.61572e-10
-4.88571e-10
-6.18371e-10
-7.98074e-10
-1.15858e-09
-1.86904e-09
-3.00592e-09
-4.1797e-09
-3.11247e-09
-2.01423e-13
4.39153e-13
6.18238e-13
7.37082e-13
1.94806e-10
1.21191e-10
5.0997e-11
6.40834e-12
-5.18175e-12
-3.572e-09
-4.4572e-09
-2.72274e-11
-3.22653e-11
-6.728e-11
-1.07317e-10
-1.51228e-10
-1.97579e-10
-2.4571e-10
-3.00705e-10
-3.74561e-10
-4.94887e-10
-6.88972e-10
-8.31185e-10
-5.82801e-10
-4.48799e-10
-3.9533e-10
-3.25131e-10
-3.04674e-10
-3.20031e-10
-2.62339e-10
-1.58668e-10
-7.42939e-11
-2.79365e-11
-2.59037e-11
-7.51367e-12
-7.88485e-12
-1.57602e-11
-2.64311e-11
-3.85267e-11
-5.1254e-11
-6.42977e-11
-7.76067e-11
-9.30657e-11
-1.12612e-10
-1.38871e-10
-1.69591e-10
-1.77174e-10
-1.75925e-10
-1.71386e-10
-1.57326e-10
-1.39581e-10
-1.17539e-10
-9.41618e-11
-7.00817e-11
-4.47477e-11
-2.25916e-11
-7.59805e-12
-1.84068e-12
-1.71472e-12
-3.24933e-12
-5.80481e-12
-8.73398e-12
-1.16347e-11
-1.43657e-11
-1.68848e-11
-1.9164e-11
-2.16536e-11
-2.46266e-11
-2.7938e-11
-3.02401e-11
-3.0717e-11
-2.89089e-11
-2.40674e-11
-1.63252e-11
-6.33027e-12
4.28757e-12
1.42224e-11
2.3881e-11
3.26276e-11
3.96712e-11
-4.48824e-13
-3.81977e-13
-6.85965e-13
-1.29099e-12
-1.98425e-12
-2.57243e-12
-3.00175e-12
-3.26084e-12
-3.34248e-12
-3.19924e-12
-2.86751e-12
-2.38764e-12
-1.68408e-12
-6.46719e-13
8.13236e-13
2.82582e-12
5.5598e-12
9.11427e-12
1.33895e-11
1.82327e-11
2.39099e-11
3.18608e-11
4.50333e-11
-1.21453e-13
-9.95499e-14
-1.73448e-13
-3.28593e-13
-4.85521e-13
-5.85681e-13
-6.09481e-13
-5.51593e-13
-4.19099e-13
-1.96506e-13
1.21901e-13
5.18028e-13
9.77889e-13
1.51493e-12
2.13002e-12
2.80875e-12
3.55241e-12
4.41926e-12
5.50794e-12
6.87368e-12
8.50111e-12
1.04426e-11
1.31475e-11
-3.48189e-14
-2.85728e-14
-4.88484e-14
-8.76226e-14
-1.18818e-13
-1.26441e-13
-1.0664e-13
-5.57934e-14
2.06939e-14
1.26076e-13
2.55468e-13
4.02425e-13
5.61461e-13
7.35736e-13
9.36815e-13
1.17725e-12
1.46767e-12
1.81711e-12
2.24021e-12
2.76355e-12
3.43246e-12
4.31373e-12
5.50791e-12
-9.3186e-15
-7.64307e-15
-1.2689e-14
-2.0934e-14
-2.52623e-14
-2.18884e-14
-9.90603e-15
1.19254e-14
4.19242e-14
8.09697e-14
1.26677e-13
1.78214e-13
2.35679e-13
3.0197e-13
3.82519e-13
4.84391e-13
6.15824e-13
7.86752e-13
1.01268e-12
1.31758e-12
1.73578e-12
2.31267e-12
3.12192e-12
-2.15375e-15
-1.73296e-15
-2.74912e-15
-4.10275e-15
-4.1796e-15
-2.1341e-15
2.40526e-15
9.99426e-15
2.0251e-14
3.33871e-14
5.02071e-14
6.95241e-14
9.12058e-14
1.16956e-13
1.49725e-13
1.93535e-13
2.54846e-13
3.45244e-13
4.82938e-13
6.972e-13
1.02576e-12
1.51413e-12
2.26179e-12
-4.10907e-16
-3.18068e-16
-4.73167e-16
-6.15335e-16
-4.33223e-16
2.75012e-16
1.68759e-15
4.02419e-15
7.32793e-15
1.18596e-14
1.75453e-14
2.42246e-14
3.22217e-14
4.21816e-14
5.5793e-14
7.59541e-14
1.08746e-13
1.66248e-13
2.71043e-13
4.60595e-13
7.79912e-13
1.28534e-12
2.15283e-12
-6.03353e-17
-4.39469e-17
-5.90212e-17
-5.77147e-17
1.44493e-17
2.11056e-16
6.00098e-16
1.26385e-15
2.26864e-15
3.6684e-15
5.47213e-15
7.68835e-15
1.04671e-14
1.42662e-14
2.00564e-14
2.99943e-14
4.96336e-14
9.12689e-14
1.81091e-13
3.66579e-13
7.02423e-13
1.26913e-12
2.3846e-12
-6.01423e-18
-3.94381e-18
-4.03278e-18
6.95159e-19
1.99151e-17
6.78735e-17
1.65517e-16
3.39107e-16
6.15564e-16
1.01799e-15
1.56184e-15
2.27365e-15
3.23395e-15
4.65303e-15
7.1023e-15
1.23078e-14
2.49147e-14
5.68613e-14
1.37323e-13
3.23726e-13
6.83623e-13
1.33455e-12
2.79682e-12
-2.98152e-19
-1.29921e-19
1.59253e-19
1.49742e-18
5.73974e-18
1.63195e-17
3.87224e-17
8.04417e-17
1.50336e-16
2.57659e-16
4.12133e-16
6.30036e-16
9.53337e-16
1.50888e-15
2.6906e-15
5.70734e-15
1.42077e-14
3.93303e-14
1.11656e-13
2.96176e-13
6.78751e-13
1.41839e-12
3.26103e-12
1.89238e-21
1.38054e-20
8.0853e-20
3.46489e-19
1.17025e-18
3.28645e-18
7.96706e-18
1.71304e-17
3.33326e-17
5.96917e-17
1.00316e-16
1.63359e-16
2.73224e-16
5.13802e-16
1.17366e-15
3.22838e-15
9.875e-15
3.10817e-14
9.52932e-14
2.70578e-13
6.68084e-13
1.48095e-12
3.64411e-12
2.94083e-22
2.13348e-21
1.28688e-20
5.69107e-20
1.98934e-19
5.80427e-19
1.4667e-18
3.29365e-18
6.69995e-18
1.25796e-17
2.24285e-17
4.02047e-17
8.04289e-17
2.00276e-16
6.20624e-16
2.1632e-15
7.73407e-15
2.69335e-14
8.7712e-14
2.5675e-13
6.51632e-13
1.50353e-12
3.83218e-12
3.52792e-23
2.6426e-22
1.68846e-21
7.89301e-21
2.91096e-20
8.94369e-20
2.37445e-19
5.59013e-19
1.19244e-18
2.36857e-18
4.62355e-18
9.91915e-18
2.69891e-17
9.52669e-17
3.86302e-16
1.60521e-15
6.43136e-15
2.40025e-14
8.14314e-14
2.45176e-13
6.4446e-13
1.53867e-12
3.77443e-12
2.98567e-24
2.42977e-23
1.7e-22
8.62076e-22
3.42182e-21
1.12401e-20
3.17388e-20
7.92737e-20
1.80347e-19
3.93513e-19
9.23504e-19
2.77842e-18
1.13221e-17
5.42844e-17
2.66453e-16
1.25099e-15
5.4378e-15
2.14185e-14
7.51053e-14
2.31682e-13
6.27955e-13
1.53514e-12
3.57026e-12
1.45318e-25
1.42105e-24
1.14996e-23
6.6005e-23
2.92178e-22
1.05848e-21
3.27155e-21
8.94483e-21
2.28049e-20
6.09583e-20
2.09422e-19
1.01134e-18
5.86095e-18
3.46184e-17
1.93562e-16
9.93157e-16
4.59312e-15
1.88868e-14
6.82977e-14
2.15695e-13
5.98001e-13
1.47942e-12
3.2989e-12
4.5276e-27
5.71693e-26
5.52223e-25
3.67112e-24
1.84955e-23
7.54327e-23
2.61885e-22
8.2203e-22
2.64427e-21
1.09715e-20
6.5657e-20
4.73538e-19
3.43729e-18
2.32968e-17
1.43321e-16
7.88527e-16
3.83857e-15
1.63919e-14
6.10089e-14
1.97285e-13
5.56027e-13
1.38241e-12
3.01525e-12
1.04479e-28
1.67756e-27
1.92271e-26
1.4854e-25
8.61598e-25
4.0466e-24
1.66247e-23
6.91675e-23
3.77535e-22
2.98969e-21
2.78047e-20
2.53668e-19
2.12296e-18
1.59242e-17
1.0583e-16
6.18083e-16
3.15113e-15
1.39479e-14
5.33971e-14
1.76542e-13
5.04851e-13
1.2574e-12
2.73098e-12
1.49598e-30
3.21849e-29
4.50325e-28
4.15409e-27
2.87527e-26
1.67792e-25
1.00319e-24
8.15559e-24
9.24795e-23
1.14939e-21
1.34717e-20
1.41811e-19
1.31947e-18
1.07665e-17
7.65977e-17
4.72763e-16
2.52016e-15
1.15605e-14
4.55177e-14
1.53671e-13
4.45233e-13
1.11187e-12
2.42554e-12
1.40239e-32
4.16845e-31
7.26554e-30
8.35742e-29
7.81732e-28
7.89794e-27
1.10352e-25
1.89914e-24
3.23305e-23
4.96093e-22
6.68543e-21
7.84912e-20
7.99534e-19
7.04159e-18
5.34345e-17
3.48158e-16
1.94124e-15
9.23556e-15
3.74113e-14
1.28916e-13
3.78294e-13
9.50549e-13
2.08578e-12
9.69001e-35
4.21659e-33
9.95197e-32
1.80991e-30
3.74306e-29
9.61596e-28
2.523e-26
5.94587e-25
1.21334e-23
2.12863e-22
3.20677e-21
4.14587e-20
4.5944e-19
4.35605e-18
3.52485e-17
2.42733e-16
1.4183e-15
7.01256e-15
2.92813e-14
1.03196e-13
3.07608e-13
7.81391e-13
1.72901e-12
5.30495e-37
4.20007e-35
2.21272e-33
1.11982e-31
5.21868e-30
2.06401e-28
6.79985e-27
1.87405e-25
4.35024e-24
8.5474e-23
1.4255e-21
2.02024e-20
2.43241e-19
2.48489e-18
2.14924e-17
1.56963e-16
9.65098e-16
4.98244e-15
2.15602e-14
7.82133e-14
2.38739e-13
6.19204e-13
1.3945e-12
6.78809e-39
1.6484e-36
1.99919e-34
1.61863e-32
9.6993e-31
4.54688e-29
1.72283e-27
5.38002e-26
1.40081e-24
3.06176e-23
5.6383e-22
8.76154e-21
1.14885e-19
1.26961e-18
1.18004e-17
9.19917e-17
5.99727e-16
3.26142e-15
1.47767e-14
5.58588e-14
1.7722e-13
4.77842e-13
1.11885e-12
4.09087e-40
1.58271e-37
2.47062e-35
2.37899e-33
1.64523e-31
8.78082e-30
3.75809e-28
1.31798e-26
3.83474e-25
9.32108e-24
1.89961e-22
3.25046e-21
4.66932e-20
5.62391e-19
5.66719e-18
4.76497e-17
3.3334e-16
1.93602e-15
9.3325e-15
3.74626e-14
1.26381e-13
3.64496e-13
9.22538e-13
3.23258e-41
1.49747e-38
2.68626e-36
2.93041e-34
2.28328e-32
1.36994e-30
6.58339e-29
2.58925e-27
8.43405e-26
2.28977e-24
5.19715e-23
9.87168e-22
1.5686e-20
2.08224e-19
2.30426e-18
2.12026e-17
1.61814e-16
1.0227e-15
5.3582e-15
2.34033e-14
8.63246e-14
2.74955e-13
7.80682e-13
2.33421e-42
1.17127e-39
2.29545e-37
2.75732e-35
2.38397e-33
1.59749e-31
8.61461e-30
3.81293e-28
1.39939e-26
4.28e-25
1.09314e-23
2.3324e-22
4.1547e-21
6.16979e-20
7.62315e-19
7.8188e-18
6.64352e-17
4.67262e-16
2.7261e-15
1.32906e-14
5.49742e-14
1.97711e-13
6.39055e-13
1.49039e-43
7.06217e-41
1.41873e-38
1.81505e-36
1.71418e-34
1.27713e-32
7.74971e-31
3.88906e-29
1.62519e-27
5.67053e-26
1.65295e-24
4.02363e-23
8.17073e-22
1.38218e-20
1.9443e-19
2.26989e-18
2.19564e-17
1.7588e-16
1.16935e-15
6.49829e-15
3.06066e-14
1.24842e-13
4.53719e-13
7.77098e-45
3.00878e-42
5.7398e-40
7.51049e-38
7.60873e-36
6.28058e-34
4.31327e-32
2.48229e-30
1.19859e-28
4.85085e-27
1.64284e-25
4.64852e-24
1.09735e-22
2.15803e-21
3.52987e-20
4.79398e-19
5.39709e-18
5.03229e-17
3.8901e-16
2.50427e-15
1.35497e-14
6.24987e-14
2.50238e-13
2.69948e-46
7.77676e-44
1.31152e-41
1.68167e-39
1.7925e-37
1.63578e-35
1.28313e-33
8.60348e-32
4.89351e-30
2.34559e-28
9.43008e-27
3.17011e-25
8.89342e-24
2.07908e-22
4.04475e-21
6.53858e-20
8.76909e-19
9.74434e-18
8.97083e-17
6.85752e-16
4.37726e-15
2.35487e-14
1.08078e-13
4.46004e-48
9.17447e-46
1.30298e-43
1.58427e-41
1.75362e-39
1.77728e-37
1.61983e-35
1.29658e-33
8.93028e-32
5.21657e-30
2.56145e-28
1.05204e-26
3.60523e-25
1.02947e-23
2.44713e-22
4.83713e-21
7.9402e-20
1.08097e-18
1.21971e-17
1.14182e-16
8.90208e-16
5.8226e-15
3.23096e-14
2.04552e-50
2.96068e-48
3.48082e-46
3.97913e-44
4.60657e-42
5.30935e-40
5.83071e-38
5.81926e-36
5.08214e-34
3.78796e-32
2.37561e-30
1.24481e-28
5.43363e-27
1.97368e-25
5.96303e-24
1.49775e-22
3.12474e-21
5.40879e-20
7.76014e-19
9.22698e-18
9.10489e-17
7.48091e-16
5.14701e-15
9.82462e-54
1.01575e-51
1.00729e-49
1.11871e-47
1.42529e-45
1.99724e-43
2.85728e-41
3.86465e-39
4.65419e-37
4.8047e-35
4.16659e-33
3.00745e-31
1.80077e-29
8.93748e-28
3.67687e-26
1.25379e-24
3.54222e-23
8.28532e-22
1.60343e-20
2.56745e-19
3.40478e-18
3.7449e-17
3.42e-16
3.74465e-57
3.14296e-57
2.87801e-55
3.55742e-53
5.88664e-51
1.2002e-48
2.69371e-46
5.94963e-44
1.1867e-41
2.02945e-39
2.90046e-37
3.42814e-35
3.34015e-33
2.68191e-31
1.77518e-29
9.68656e-28
4.35459e-26
1.61083e-24
4.8972e-23
1.22339e-21
2.51638e-20
4.27841e-19
6.0247e-18
7.67593e-60
1.34438e-69
1.85795e-67
4.54165e-65
1.76595e-62
9.58691e-60
6.21298e-57
4.10149e-54
2.45263e-51
1.2452e-48
5.21685e-46
1.7857e-43
4.98269e-41
1.13367e-38
2.10438e-36
3.18735e-34
3.93715e-32
3.96291e-30
3.24907e-28
2.17339e-26
1.19338e-24
5.43938e-23
2.06997e-21
0.999671
0.999671
0.999671
0.999955
0.999988
0.999924
0.999946
0.999963
0.999987
0.999924
0.999945
0.999963
0.999919
0.999868
0.999897
0.999931
0.650352
0.754094
0.812394
0.872007
7.19594e-16
6.08343e-08
0.0305592
0.121479
4.5723e-14
9.25892e-14
2.56601e-09
4.59966e-07
-1.03457e-09
-2.64635e-09
-9.20377e-13
2.3172e-09
-2.23588e-11
-1.03769e-10
-1.35122e-10
-4.35535e-11
4.17902e-11
4.18112e-11
4.01928e-11
3.91978e-11
5.38755e-11
6.65734e-11
8.69809e-11
1.2176e-10
1.5341e-11
1.83279e-11
2.34872e-11
3.26364e-11
6.29099e-12
7.22501e-12
8.52771e-12
1.05859e-11
3.61056e-12
4.17338e-12
4.85619e-12
5.73124e-12
2.69931e-12
3.20683e-12
3.8106e-12
4.54174e-12
2.65e-12
3.24437e-12
3.96833e-12
4.86285e-12
3.02214e-12
3.82601e-12
4.85252e-12
6.20712e-12
3.63869e-12
4.77509e-12
6.29478e-12
8.4363e-12
4.33828e-12
5.89519e-12
8.04645e-12
1.10602e-11
4.93693e-12
6.91782e-12
9.71964e-12
1.32379e-11
5.29701e-12
7.62236e-12
1.10057e-11
1.45727e-11
5.39803e-12
7.95678e-12
1.18332e-11
1.55307e-11
5.37811e-12
8.12204e-12
1.24712e-11
1.86752e-11
5.34801e-12
8.29974e-12
1.307e-11
2.22141e-11
5.32548e-12
8.39227e-12
1.32021e-11
2.2384e-11
5.19096e-12
8.09611e-12
1.2406e-11
2.01264e-11
4.81796e-12
7.29283e-12
1.0794e-11
1.6762e-11
4.21141e-12
6.1558e-12
8.80829e-12
1.3118e-11
3.49163e-12
4.96088e-12
6.92167e-12
9.97259e-12
2.83278e-12
3.97866e-12
5.49442e-12
7.74611e-12
2.35688e-12
3.36826e-12
4.68964e-12
6.51604e-12
2.13417e-12
3.28468e-12
4.91782e-12
7.15811e-12
2.06334e-12
3.51044e-12
5.78055e-12
9.1231e-12
1.93619e-12
3.64738e-12
6.64242e-12
1.15573e-11
1.52356e-12
3.08244e-12
6.02991e-12
1.13124e-11
8.89872e-13
1.82336e-12
3.57188e-12
6.74268e-12
4.29804e-13
9.37686e-13
1.9103e-12
3.67065e-12
1.54717e-13
3.91988e-13
9.20176e-13
1.99208e-12
2.9992e-14
8.81683e-14
2.37916e-13
6.02704e-13
2.60415e-15
9.50891e-15
3.15143e-14
1.00368e-13
7.00887e-17
3.70676e-16
1.7526e-15
8.11601e-15
6.38814e-20
8.60241e-19
1.11229e-17
1.70988e-16
0.999949
0.335165
0.0535391
0.000672144
1.37594e-05
3.45403e-07
2.53424e-07
2.46502e-07
2.26796e-07
2.07031e-07
2.04105e-07
2.84762e-06
8.65986e-05
0.0816765
0.862662
0.998433
0.998092
0.994972
0.86643
0.993182
0.197887
0.0172866
0.000251437
0.000423336
6.36825e-05
3.32451e-07
2.18122e-07
2.0707e-07
1.98079e-07
1.88297e-07
2.37115e-07
3.75582e-06
0.202377
0.847061
0.990826
0.97219
0.993639
0.893127
0.99989
0.645526
0.000223268
9.5468e-05
0.000544537
0.000544575
0.000343666
2.88333e-05
2.05204e-07
1.87865e-07
1.70072e-07
1.43322e-07
1.07508e-05
0.498273
0.846094
0.719749
0.666078
0.89967
0.905105
0.998992
0.974863
0.196536
7.37525e-05
6.90649e-05
0.000227382
0.000308815
0.000115336
8.86951e-07
1.76873e-07
1.29957e-07
-5.21608e-08
0.0791259
0.687603
0.813459
0.58152
0.58225
0.851531
0.905105
0.987238
0.998224
0.863693
0.068695
2.41131e-05
8.90583e-06
1.77399e-05
3.17258e-05
7.28396e-06
1.30141e-07
1.09742e-07
-2.68665e-06
0.615842
0.738833
0.582062
0.58152
0.671622
0.900741
0.904498
0.517546
0.998224
0.998226
0.801681
0.169148
4.63758e-06
2.04665e-06
3.42973e-07
7.45767e-07
1.21185e-07
1.21184e-07
0.229392
0.741564
0.730233
0.583089
0.645045
0.898756
0.899918
0.89211
2.53358e-05
0.196625
0.767164
0.935294
0.894076
0.488958
0.0848445
1.78529e-07
1.32178e-07
1.30291e-07
0.0416864
0.794162
0.742332
0.596606
0.685303
0.634682
0.490362
0.886541
0.875919
3.09845e-07
2.36132e-05
0.0881037
0.601813
0.871435
0.855808
0.740974
0.382121
0.0327397
0.136318
0.748165
0.864964
0.563159
0.645273
0.764285
0.311261
0.0376153
0.370952
0.878848
2.03032e-09
2.85578e-07
2.37874e-05
0.0240909
0.287138
0.688581
0.7876
0.7876
0.710369
0.82287
0.867162
0.695978
0.598138
0.787779
0.677705
0.0376153
0.0368891
0.0456444
0.759553
-5.08392e-11
4.16801e-09
4.64308e-07
1.75688e-05
0.000307413
0.107558
0.403769
0.63436
0.782437
0.82414
0.800241
0.471285
0.78297
0.787779
0.388164
0.0385159
0.0361926
0.0361167
0.0923328
4.65687e-11
1.11812e-10
1.06268e-08
5.94022e-07
1.35333e-05
0.000187482
0.00517068
0.080972
0.217109
0.31248
0.228376
0.306255
0.487131
0.353776
0.384064
0.244454
0.157195
0.0360038
0.0360109
3.62812e-11
2.00664e-11
2.87334e-10
1.81278e-08
6.01077e-07
9.9278e-06
4.43687e-05
0.000231644
0.000502828
0.000651635
0.000610244
0.0447085
0.00391864
0.0467636
0.254483
0.310604
0.319972
0.0798323
0.0360109
1.46016e-11
1.23994e-11
2.03944e-11
6.02664e-10
2.28372e-08
6.05857e-07
3.78379e-06
1.97793e-05
4.81196e-05
7.44327e-05
0.000131134
0.000298145
0.000741754
0.0212231
0.140477
0.296167
0.342133
0.347177
0.159501
8.36495e-12
1.15152e-11
1.24941e-11
3.68436e-11
9.42319e-10
3.41279e-08
7.86567e-07
5.33643e-06
1.01581e-05
2.07021e-05
6.67583e-05
0.000142914
0.00055753
0.00125276
0.00198256
0.025835
0.208078
0.393206
0.393206
6.94801e-12
1.05332e-11
1.62164e-11
1.71438e-11
8.82347e-11
3.17813e-09
1.99512e-06
1.0929e-05
2.63161e-06
7.81722e-06
2.11348e-05
5.50933e-05
0.000220239
0.00682348
0.0277807
0.0448987
0.0468955
0.194159
0.393206
7.95866e-12
1.26353e-11
2.11417e-11
2.04537e-11
5.05284e-11
4.87735e-09
4.17401e-06
8.0393e-06
3.78147e-07
2.04264e-06
6.44404e-06
2.88052e-05
0.000115566
0.00944717
0.11889
0.132676
0.0950172
0.0887137
0.355497
1.1183e-11
1.71309e-11
2.53792e-11
2.48741e-11
1.08428e-10
4.15791e-07
3.63486e-06
1.09266e-06
1.01565e-07
4.19087e-07
6.37506e-06
1.9859e-05
3.11309e-06
0.00224543
0.0848719
0.133595
0.13332
0.0826291
0.0373256
1.69325e-11
2.28713e-11
3.26145e-11
3.10549e-11
3.40301e-09
3.58827e-07
6.58318e-07
2.52082e-08
1.85651e-08
1.89969e-07
3.59877e-06
5.14335e-06
1.90088e-08
1.01369e-06
0.00460218
0.124599
0.133595
0.127927
0.0315589
2.46877e-11
2.85862e-11
4.07829e-11
3.82682e-11
5.28658e-09
7.20216e-08
9.26418e-09
4.91593e-09
4.3538e-09
1.03648e-07
8.45823e-07
1.90076e-08
1.30364e-08
1.90081e-08
1.01374e-06
0.0108372
0.132944
0.083314
0.0315589
3.89937e-11
3.4847e-11
4.868e-11
9.63864e-11
1.55685e-09
8.50405e-10
1.53422e-09
1.80185e-09
2.00898e-09
2.36999e-08
3.25751e-08
1.12521e-08
6.70093e-09
1.01144e-08
1.99679e-07
2.49162e-06
0.054774
0.124958
0.0316488
6.49415e-11
4.44131e-11
5.7052e-11
1.52023e-10
1.82291e-10
2.48985e-10
5.12991e-10
1.01896e-09
1.26175e-09
7.81852e-09
1.22814e-08
8.61987e-09
6.07175e-09
-3.12436e-08
1.79967e-06
5.63375e-06
3.96135e-05
0.168753
0.0323857
1.08458e-10
5.61187e-11
6.00217e-11
3.20536e-10
1.8565e-10
1.86201e-10
2.80681e-10
8.68719e-10
1.03828e-09
5.22253e-09
7.85752e-09
8.52276e-09
6.04373e-09
3.57616e-05
6.07916e-05
5.59037e-06
0.000322995
0.168755
0.0388173
1.37157e-10
6.97694e-11
7.4355e-11
9.73391e-10
1.11255e-09
3.86865e-10
3.34937e-10
7.36611e-10
1.15074e-09
6.32672e-09
5.55585e-09
5.28196e-09
5.49288e-09
0.000168798
0.000165638
4.06512e-06
6.76612e-06
0.165551
0.157756
1.11009e-10
1.14373e-10
1.82946e-10
3.3978e-09
7.83215e-09
2.35063e-09
4.37845e-10
5.80415e-10
2.05337e-09
8.74005e-09
5.27954e-09
5.26305e-09
3.61638e-05
0.000177369
0.000126399
2.09129e-06
0.00537948
0.177737
0.18203
7.33799e-11
1.86237e-10
3.37102e-10
5.50939e-09
1.33904e-08
7.5069e-09
7.4187e-10
5.98277e-10
4.16187e-09
9.01256e-09
5.26562e-09
5.26307e-09
9.2545e-05
0.000177369
4.40486e-05
1.37987e-06
0.114097
0.182235
0.182174
4.79192e-11
1.79334e-10
3.34974e-10
4.41088e-09
1.39896e-08
1.4863e-08
2.8258e-09
2.76083e-09
6.6203e-09
9.00319e-09
5.27745e-09
5.26385e-09
9.62372e-05
0.000177369
2.60128e-05
9.68752e-07
0.180499
0.181892
0.182004
3.16094e-11
1.33493e-10
2.63993e-10
1.97591e-09
1.16039e-08
1.48628e-08
1.23613e-08
2.87084e-09
8.53013e-09
6.05961e-09
5.27825e-09
7.22954e-06
0.000107278
8.13048e-05
2.40273e-06
8.83109e-07
0.072843
0.182253
0.17349
2.24779e-11
5.94688e-11
2.5417e-10
1.53127e-09
5.66814e-09
1.37029e-08
1.52046e-08
2.96106e-08
1.83963e-08
5.28289e-09
5.27981e-09
1.5233e-05
7.75642e-05
1.85143e-05
8.74568e-07
8.63107e-07
8.63894e-07
0.180375
0.138017
1.58884e-11
3.88544e-11
2.89899e-10
1.91745e-09
3.40973e-09
3.59399e-09
9.32256e-09
3.60889e-08
2.86001e-08
5.28296e-09
5.27779e-09
1.45668e-05
7.00263e-06
9.9677e-07
8.59475e-07
8.61055e-07
8.6324e-07
0.15771
0.138072
1.16538e-11
2.6078e-11
2.81113e-10
1.95974e-09
2.21654e-09
1.36532e-08
8.81949e-09
3.60207e-08
2.15402e-08
5.27824e-09
5.28233e-09
8.26136e-07
9.09942e-07
1.45986e-06
8.84671e-07
8.6324e-07
8.64031e-07
0.0524626
0.141153
9.29144e-12
1.99139e-11
1.7252e-10
1.29528e-09
1.1402e-09
7.07704e-08
1.18421e-08
1.26167e-08
5.62652e-09
5.61112e-09
4.73283e-07
2.28836e-06
4.04499e-06
3.39724e-06
8.99448e-07
8.85739e-07
8.82738e-07
0.00124079
0.141153
9.97581e-12
2.01718e-11
5.82856e-11
3.43512e-10
8.48578e-11
4.87476e-08
6.81231e-09
6.40138e-09
6.25731e-09
3.53374e-07
4.29914e-06
4.32154e-06
4.29014e-06
1.92169e-06
1.02458e-06
1.05935e-06
2.78429e-06
1.99208e-06
0.110926
1.341e-11
2.91176e-11
6.75309e-11
1.14516e-10
8.31492e-11
8.47319e-11
2.67032e-06
6.04084e-06
5.54207e-06
4.00018e-06
2.56763e-06
1.9202e-06
1.79234e-06
1.81543e-06
3.93374e-05
6.32614e-05
1.16956e-05
1.97057e-06
0.0163158
1.85967e-11
4.54209e-11
1.5238e-10
1.84677e-10
8.31004e-11
8.31017e-11
6.17129e-06
8.74268e-06
8.74195e-06
5.2788e-06
1.7943e-06
1.7884e-06
1.7943e-06
0.000119525
0.000461523
0.00019832
5.58278e-06
2.67902e-06
0.029427
1.98168e-11
5.37371e-11
2.7343e-10
4.04393e-10
8.93445e-11
8.69764e-11
1.49556e-06
7.68954e-06
8.51037e-06
7.60967e-06
1.88218e-06
1.79382e-06
0.000355066
0.000465289
0.000462809
0.000205637
7.41601e-07
9.91964e-05
0.0551396
1.2284e-11
3.58864e-11
2.47652e-10
4.74121e-10
1.8005e-10
9.17037e-11
8.79245e-11
5.83413e-07
4.73165e-07
4.15198e-08
0.000120489
0.000447832
0.000465349
0.000465046
0.000410016
2.285e-05
6.85678e-08
0.000558401
0.0551396
6.78015e-12
2.03703e-11
1.04673e-10
4.56796e-10
5.65754e-10
9.46902e-11
9.7523e-11
2.32936e-09
2.21775e-09
2.27555e-08
6.2904e-05
0.000463985
0.000464598
0.000465046
7.7187e-05
4.33398e-08
2.24223e-09
0.0018957
0.0297772
3.93138e-12
1.18855e-11
3.39323e-11
2.82094e-10
7.00835e-10
5.58621e-10
9.3894e-09
3.06914e-09
1.15557e-09
1.04991e-06
1.31935e-06
7.87883e-05
9.89356e-05
3.29494e-05
-8.69235e-11
4.86238e-10
4.76611e-10
0.000974009
3.77688e-10
1.41949e-12
5.23891e-12
1.65276e-11
5.98433e-11
4.95699e-10
7.85961e-10
1.20002e-08
6.65237e-09
1.04829e-09
1.76921e-07
1.21763e-09
8.59072e-09
1.07408e-09
1.3533e-10
1.68819e-10
4.44938e-10
4.7585e-10
3.77685e-10
3.77685e-10
3.08753e-13
1.57347e-12
6.29033e-12
2.2954e-11
1.30943e-10
4.99537e-10
5.77323e-09
4.0216e-09
1.0284e-09
9.89746e-11
1.34436e-11
2.50155e-11
6.78712e-11
8.32554e-11
2.24283e-10
5.90393e-10
6.50023e-10
3.85674e-10
3.99977e-10
3.80423e-14
2.97794e-13
1.64808e-12
7.49075e-12
2.25258e-11
1.54246e-10
2.51366e-10
7.36473e-10
5.09042e-10
3.52803e-11
1.71822e-11
7.46578e-12
5.39998e-11
8.64655e-11
4.27315e-10
6.66185e-10
6.65882e-10
4.63765e-10
1.52204e-09
2.34978e-15
3.55302e-14
2.89362e-13
1.70618e-12
8.12736e-12
1.78563e-11
1.95719e-11
4.76983e-11
6.93166e-11
3.02835e-11
1.65731e-11
5.47102e-12
4.57367e-12
5.69544e-12
4.27599e-11
1.63876e-10
1.65879e-10
2.15784e-10
1.3513e-09
)
;

boundaryField
{
    leftWall
    {
        type            zeroGradient;
    }
    rightWall
    {
        type            zeroGradient;
    }
    lowerWall
    {
        type            zeroGradient;
    }
    atmosphere
    {
        type            inletOutlet;
        inletValue      uniform 0;
        value           nonuniform List<scalar> 
46
(
7.67593e-60
0
0
0
0
0
0
0
0
0
0
0
0
0
0
0
0
0
0
0
0
0
0
0
0
0
1.70988e-16
2.34978e-15
3.55302e-14
2.89362e-13
1.70618e-12
8.12736e-12
1.78563e-11
1.95719e-11
4.76983e-11
6.93166e-11
3.02835e-11
1.65731e-11
5.47102e-12
4.57367e-12
5.69544e-12
0
0
0
0
1.3513e-09
)
;
    }
    defaultFaces
    {
        type            empty;
    }
}


// ************************************************************************* //
