/*--------------------------------*- C++ -*----------------------------------*\
| =========                 |                                                 |
| \\      /  F ield         | OpenFOAM: The Open Source CFD Toolbox           |
|  \\    /   O peration     | Version:  v1606+                                |
|   \\  /    A nd           | Web:      www.OpenFOAM.com                      |
|    \\/     M anipulation  |                                                 |
\*---------------------------------------------------------------------------*/
FoamFile
{
    version     2.0;
    format      ascii;
    class       volScalarField;
    location    "0.65";
    object      p_rgh;
}
// * * * * * * * * * * * * * * * * * * * * * * * * * * * * * * * * * * * * * //

dimensions      [1 -1 -2 0 0 0 0];

internalField   nonuniform List<scalar> 
2268
(
537.179
535.704
540.419
548.906
560.233
573.303
587.954
604.21
622.109
641.592
662.517
684.674
707.79
731.625
755.873
780.177
804.181
827.375
849.08
867.018
878.731
887.122
901.336
537.024
534.895
538.809
547.38
558.63
571.764
586.59
603.073
621.21
640.908
662.013
684.332
707.618
731.701
756.241
780.964
805.536
829.451
851.869
870.804
880.246
882.986
898.192
535.472
533.794
538.275
546.377
557.388
570.447
585.337
601.977
620.328
640.25
661.568
684.095
707.645
731.94
756.777
781.853
806.831
831.16
853.843
873.211
885.614
881.103
897.467
533.451
532.471
537.589
545.573
556.397
569.316
584.168
600.88
619.396
639.531
661.083
683.852
707.638
732.221
757.35
782.719
807.978
832.508
855.247
874.433
887.846
886.942
899.655
531.51
531.283
536.825
544.8
555.427
568.18
582.917
599.634
618.284
638.627
660.431
683.479
707.546
732.44
757.887
783.56
809.106
833.833
856.707
876.006
890.108
892.377
903.858
529.473
530.302
535.865
543.857
554.323
566.884
581.442
598.117
616.899
637.463
659.55
682.919
707.308
732.55
758.363
784.404
810.343
835.376
858.577
878.396
893.222
897.788
910.428
527.001
528.98
534.361
542.358
552.74
565.172
579.566
596.14
615.09
635.947
658.414
682.194
706.94
732.557
758.776
785.261
811.724
837.208
860.949
881.73
897.905
905.141
919.751
523.815
520.089
522.323
532.373
547.184
561.851
576.298
592.775
612.081
633.519
656.735
681.25
706.473
732.512
759.152
786.122
813.187
839.252
863.732
885.864
904.16
915.031
931.191
669.626
550.565
466.457
416.033
384.555
385.118
401.662
414.697
423.884
439.353
469.308
520.783
661.654
932.802
1252
1486.07
1589.7
1579.29
1501.96
636.052
498.702
391.045
339.509
329.856
334.126
351.916
380.272
404.181
417.609
439.827
476.12
594.449
843.156
1155.22
1398.36
1524.33
1545.72
1494.36
586.439
442.869
347.21
331.242
329.112
328.634
327.529
327.119
327.086
347.313
404.01
439.541
526.051
751.763
1063.34
1314.5
1461.02
1512.97
1478.49
565.107
415.487
336.824
329.784
329.592
328.812
327.846
327.466
327.43
327.323
326.539
344.39
455.89
676.559
994.009
1253.8
1410.8
1473.46
1444.7
557.501
413.701
339.653
329.877
329.962
328.833
327.801
327.376
327.346
327.504
327.556
325.335
366.211
615.325
942.818
1209.08
1367.84
1430.87
1404.65
662.965
408.079
337.048
330.896
330.84
328.646
327.698
327.278
327.238
327.366
327.557
327.439
336.823
538.894
909.714
1176.02
1328.14
1408.33
1376.17
820.234
575.639
343.112
326.319
329.028
328.204
327.474
327.154
327.157
327.298
327.513
327.695
327.301
437.417
896.512
1153.29
1293.95
1373.38
1346.15
780.262
584.375
345.388
325.32
327.93
327.692
327.182
326.998
327.075
327.266
327.484
327.633
328.25
387.902
866.498
1139.67
1266.54
1341.13
1316.81
232.362
243.137
261.05
286.059
322.688
369.668
422.259
479.863
538.105
592.68
640.448
678.244
704.797
731.954
759.524
787.337
815.447
842.509
868.257
892.741
914.836
931.973
950.51
0.470228
0.507845
0.550563
0.597832
0.773817
6.15507
24.9176
55.6998
101.869
168.426
262.23
391.058
533.037
654.954
748.567
787.819
819.178
847.331
873.847
900.818
925.701
947.404
968
0.497646
0.489843
0.48809
0.494321
0.506513
0.528444
0.541818
0.536469
0.521119
0.510679
0.545186
6.02525
37.1456
111.899
237.681
450.575
723.219
854.092
877.698
911.222
938.209
962.234
986.345
0.463214
0.46757
0.481295
0.491282
0.496103
0.490502
0.478911
0.468749
0.46082
0.459214
0.472485
0.500934
0.477386
0.375125
0.324602
8.20653
49.3378
155.765
358.736
698.943
866.02
912.69
994.96
0.455773
0.455711
0.461953
0.467815
0.473466
0.472928
0.468452
0.463082
0.457526
0.453469
0.450029
0.434256
0.405254
0.385921
0.390954
0.389589
0.32849
0.187903
0.1038
0.182379
46.3854
175.897
446.789
0.437897
0.438951
0.442375
0.446296
0.449686
0.450433
0.448651
0.445378
0.441218
0.436818
0.431279
0.419112
0.399928
0.383103
0.372862
0.35928
0.337991
0.325186
0.325323
0.342871
0.338776
0.278186
0.271734
0.420832
0.421555
0.4235
0.425896
0.427726
0.428047
0.426718
0.424129
0.420595
0.416308
0.410821
0.402063
0.388805
0.373865
0.360423
0.346173
0.329705
0.315898
0.3148
0.328601
0.343353
0.349989
0.378997
0.403368
0.403853
0.404915
0.406214
0.40709
0.406992
0.405772
0.403551
0.400436
0.396425
0.3912
0.38389
0.37399
0.362724
0.351817
0.340875
0.32948
0.320409
0.319052
0.328499
0.344151
0.363857
0.399874
0.385916
0.386077
0.386539
0.387107
0.38736
0.386962
0.385774
0.383793
0.381022
0.377399
0.372714
0.366588
0.358937
0.350461
0.342086
0.334042
0.326681
0.321792
0.322111
0.329161
0.341612
0.359154
0.38604
0.368728
0.368509
0.368512
0.368578
0.368405
0.367774
0.366567
0.364734
0.362236
0.359007
0.354924
0.349833
0.343771
0.337165
0.330607
0.324532
0.319511
0.316698
0.317523
0.322762
0.332047
0.345087
0.36264
0.351908
0.351348
0.35096
0.350654
0.350175
0.349359
0.34811
0.346368
0.344081
0.341191
0.337626
0.333333
0.328375
0.323035
0.31773
0.312886
0.309024
0.306884
0.30726
0.310575
0.316668
0.325068
0.335301
0.335537
0.334674
0.333954
0.333353
0.332638
0.331671
0.330372
0.328681
0.326548
0.323923
0.320759
0.317038
0.312824
0.308309
0.303795
0.299627
0.296202
0.29399
0.293428
0.294712
0.297681
0.301786
0.30618
0.319634
0.318524
0.317527
0.316677
0.315769
0.314671
0.313313
0.311642
0.30961
0.307171
0.30429
0.300956
0.297215
0.293197
0.28911
0.285206
0.281762
0.279062
0.27733
0.276616
0.276726
0.277125
0.276924
0.304192
0.302899
0.301678
0.300618
0.29954
0.298321
0.296895
0.295215
0.293235
0.290912
0.288208
0.285109
0.281637
0.277873
0.273947
0.270027
0.266284
0.262872
0.259883
0.257278
0.254857
0.252149
0.248357
0.289188
0.28778
0.286389
0.285151
0.283921
0.282584
0.281081
0.279369
0.277402
0.275133
0.272522
0.269542
0.26619
0.262505
0.258559
0.254445
0.25025
0.246034
0.2418
0.237459
0.23282
0.227507
0.220856
0.2746
0.273137
0.27163
0.270247
0.268879
0.267427
0.26584
0.264076
0.262089
0.259831
0.25725
0.254306
0.250973
0.247252
0.243169
0.238761
0.234051
0.22903
0.223637
0.21775
0.211191
0.203676
0.194662
0.260406
0.258939
0.257365
0.255869
0.25438
0.252818
0.251139
0.249307
0.247277
0.244995
0.242402
0.239441
0.236063
0.232237
0.227952
0.223201
0.217964
0.212188
0.205769
0.198557
0.190378
0.181014
0.170006
0.246588
0.245155
0.243557
0.24198
0.24039
0.238725
0.236951
0.235039
0.232945
0.230614
0.22798
0.224969
0.221511
0.217545
0.213026
0.207917
0.202167
0.195698
0.188387
0.180067
0.170561
0.159688
0.147032
0.233132
0.23176
0.230169
0.228541
0.226871
0.225115
0.22325
0.221249
0.219077
0.216678
0.21398
0.2109
0.207346
0.20323
0.198476
0.193017
0.186781
0.179678
0.171583
0.162328
0.151743
0.139662
0.12569
0.220029
0.218731
0.21717
0.215518
0.213791
0.211959
0.210009
0.207921
0.205662
0.20318
0.200405
0.197244
0.193591
0.189334
0.184367
0.178593
0.171917
0.16424
0.155446
0.145382
0.133895
0.120831
0.105812
0.207272
0.206053
0.204539
0.202883
0.201119
0.199231
0.197209
0.195038
0.192692
0.190122
0.18726
0.184013
0.180265
0.175887
0.170746
0.164714
0.157672
0.149505
0.140102
0.129332
0.117069
0.10318
0.0873021
0.194858
0.193716
0.192257
0.190614
0.188834
0.186907
0.184828
0.182587
0.180159
0.177502
0.174552
0.171218
0.167382
0.162905
0.157636
0.151418
0.144103
0.135558
0.125665
0.114309
0.101391
0.0868073
0.0702145
0.182787
0.181716
0.180314
0.178697
0.176916
0.174968
0.172851
0.170554
0.168057
0.16532
0.162287
0.15887
0.154955
0.1504
0.145043
0.138707
0.131218
0.12242
0.11218
0.100389
0.0869661
0.0718368
0.0546825
0.171055
0.17005
0.168704
0.167122
0.165354
0.163403
0.161264
0.158931
0.156381
0.15358
0.150474
0.146983
0.142999
0.138383
0.13297
0.126571
0.118995
0.110063
0.0996245
0.0875618
0.0738075
0.0583116
0.040782
0.15966
0.158714
0.157423
0.15588
0.154139
0.1522
0.15006
0.14771
0.145129
0.142283
0.139123
0.135573
0.131534
0.126874
0.121429
0.115009
0.107413
0.0984457
0.0879384
0.0757606
0.0618489
0.0461727
0.0284733
0.148598
0.147707
0.146467
0.144969
0.143263
0.141351
0.139228
0.136883
0.134295
0.13143
0.12824
0.124655
0.120583
0.1159
0.110449
0.104044
0.0964796
0.0875526
0.0770813
0.0649219
0.0510074
0.0353205
0.0176535
0.137863
0.137023
0.135831
0.134381
0.132721
0.130849
0.12876
0.126442
0.123872
0.121016
0.117826
0.114237
0.110164
0.105489
0.100064
0.0937112
0.0862266
0.0774042
0.0670545
0.0550245
0.0412369
0.0256842
0.00823775
0.127446
0.126654
0.12551
0.124111
0.122504
0.120685
0.118648
0.116379
0.113853
0.111035
0.107878
0.104322
0.100284
0.0956579
0.0903027
0.0840474
0.0766951
0.0680413
0.0578939
0.0460928
0.0325569
0.0172901
0.000166587
0.117339
0.11659
0.115494
0.114149
0.112603
0.11085
0.108881
0.106681
0.104223
0.101473
0.0983841
0.0948997
0.0909426
0.086412
0.0811771
0.0750749
0.0679165
0.0595029
0.0496435
0.0381756
0.025014
0.0101706
-0.00649567
0.107529
0.106821
0.105773
0.104487
0.103008
0.101331
0.0994454
0.0973334
0.094968
0.0923139
0.0893281
0.0859551
0.0821232
0.0777387
0.0726796
0.0667925
0.0598976
0.0518044
0.0423275
0.0313047
0.0186471
0.00436537
-0.0116724
0.0980056
0.0973366
0.0963374
0.0951116
0.0937053
0.0921144
0.0903251
0.0883192
0.0860685
0.0835384
0.0806877
0.0774636
0.0737999
0.0696106
0.0647831
0.0591745
0.0526163
0.0449281
0.0359327
0.0254721
0.0134563
-0.000107734
-0.0153408
0.0887552
0.0881218
0.0871704
0.0860063
0.0846784
0.0831817
0.0815016
0.0796184
0.0775032
0.0751226
0.0724365
0.0693953
0.0659389
0.0619898
0.0574459
0.0521759
0.0460241
0.0388224
0.0304045
0.0206208
0.00938423
-0.00330135
-0.0175505
0.0797634
0.0791566
0.0782503
0.0771488
0.0759046
0.074511
0.072953
0.0712083
0.0692481
0.0670397
0.0645441
0.0617156
0.0585009
0.0548316
0.0506167
0.0457378
0.0400533
0.0334093
0.0256534
0.0166492
0.00631653
-0.0053424
-0.0184404
0.0710135
0.0704127
0.0695473
0.068511
0.0673572
0.0660777
0.0646553
0.0630649
0.0612775
0.0592606
0.0569773
0.054387
0.0514433
0.0480872
0.0442387
0.0397932
0.0346242
0.0285942
0.0215678
0.0134249
0.00409636
-0.00641541
-0.0182179
0.0624855
0.0618558
0.0610254
0.0600607
0.059008
0.0578565
0.0565841
0.0551628
0.0535633
0.051754
0.0497013
0.0473704
0.0447223
0.0417062
0.038253
0.0342723
0.029654
0.0242787
0.0180292
0.0108038
0.002547
-0.00673492
-0.0171373
0.0541572
0.0534481
0.0526443
0.051763
0.0508276
0.0498208
0.0487133
0.0474746
0.0460755
0.044487
0.0426804
0.040627
0.0382938
0.0356379
0.0326009
0.029107
0.0250633
0.0203683
0.0149233
0.00864514
0.00149393
-0.00651602
-0.0154615
0.0460072
0.0451496
0.0443601
0.0435797
0.0427847
0.0419422
0.041015
0.0399709
0.0387827
0.0374259
0.035878
0.0341157
0.0321116
0.0298305
0.0272251
0.0242337
0.0207795
0.0167778
0.0121471
0.00682313
0.000783032
-0.00594875
-0.0134259
0.0380133
0.036917
0.0361225
0.0354688
0.0348462
0.0341918
0.0334604
0.0326207
0.0316509
0.0305335
0.0292524
0.0277901
0.0261256
0.0242314
0.0220706
0.0195934
0.016737
0.0134321
0.00961427
0.00523735
0.000294647
-0.00517929
-0.0112115
0.0301543
0.028698
0.0278637
0.0273951
0.0269983
0.0265595
0.026035
0.0254034
0.0246534
0.0237773
0.0227668
0.0216108
0.0202946
0.0187974
0.0170907
0.0151351
0.0128807
0.0102733
0.00726412
0.0038219
-4.76999e-05
-0.00429951
-0.00892757
0.0224071
0.0204187
0.0194844
0.0193844
0.0193195
0.0191185
0.0187928
0.0183565
0.0178164
0.017176
0.0164341
0.0155851
0.0146193
0.0135217
0.0122712
0.0108384
0.00918629
0.00727509
0.00506962
0.00254954
-0.000271322
-0.00333636
-0.00659662
0.0143435
0.0119623
0.0109193
0.0115485
0.0119115
0.0119172
0.0117443
0.0114701
0.01112
0.0107047
0.0102267
0.00968305
0.00906725
0.00836913
0.00757433
0.00666384
0.00561422
0.00440083
0.00300234
0.00140708
-0.000368926
-0.00225958
-0.00415173
0.00548059
0.0032136
0.00223661
0.00340079
0.00386625
0.00394378
0.00389033
0.00378519
0.00365364
0.00350492
0.00334069
0.00315868
0.00295453
0.00272237
0.00245504
0.00214459
0.00178231
0.00135961
0.000870451
0.000315536
-0.000285873
-0.00086854
-0.00121739
979.484
984.181
980.043
961.891
984.86
991.137
991.3
980.947
1000.07
1007.61
1013.78
1018.37
1034.86
1047.98
1059.3
1069.72
718.07
837.497
910.124
984.739
0.709961
1.72183
40.0854
151.743
0.4618
0.545402
0.628566
0.659176
0.448383
0.460894
0.428319
0.43547
0.416189
0.432189
0.439056
0.445873
0.37807
0.387541
0.395714
0.401729
0.342584
0.346726
0.350687
0.353221
0.307564
0.30731
0.306775
0.305739
0.273944
0.270345
0.266086
0.261753
0.242203
0.236254
0.229368
0.222542
0.212332
0.204749
0.196128
0.187647
0.1842
0.175357
0.165526
0.15596
0.157841
0.147865
0.137012
0.126608
0.133425
0.122408
0.110562
0.0993248
0.110981
0.0991179
0.0863672
0.0742613
0.0903144
0.0778574
0.0644123
0.0515282
0.0712129
0.0583628
0.0444676
0.0310224
0.053637
0.0404985
0.0263283
0.01255
0.0377122
0.0243484
0.0100096
-0.00392294
0.0235569
0.0100499
-0.00436288
-0.0183078
0.0111677
-0.0023612
-0.0167236
-0.0305387
0.000441103
-0.0129681
-0.0271238
-0.0406483
-0.00873163
-0.0218898
-0.0356806
-0.0487477
-0.0164129
-0.0292086
-0.0425041
-0.0549694
-0.0225751
-0.0349359
-0.0476479
-0.0594109
-0.0271587
-0.0390266
-0.0511055
-0.0621191
-0.030109
-0.041413
-0.0528204
-0.0630926
-0.0314448
-0.0420993
-0.0527963
-0.0622943
-0.0312878
-0.0411749
-0.0510739
-0.0597832
-0.029855
-0.0388518
-0.0478468
-0.0557076
-0.027432
-0.0354269
-0.0434034
-0.05033
-0.0243297
-0.031241
-0.0381051
-0.0440169
-0.0208342
-0.026621
-0.0323213
-0.0371697
-0.017168
-0.0218271
-0.0263599
-0.0301485
-0.0134543
-0.0169992
-0.0203961
-0.0231874
-0.0097008
-0.0121264
-0.0144017
-0.0162819
-0.00578274
-0.00691257
-0.00775934
-0.0087461
-0.000933972
-0.000280508
0.000885074
-1.24128e-05
861.921
483.08
348.6
326.536
327.034
327.042
326.745
326.753
326.954
327.227
327.462
327.614
328.705
378.906
877.872
1135.11
1239.72
1304.93
1278.67
948.765
449.714
338.858
327.013
326.929
326.706
326.518
326.628
326.918
327.23
327.481
327.66
328.46
468.667
952.886
1159.92
1213.54
1282.34
1268.88
1028.3
814.197
326.307
327.031
327.238
327.152
326.916
326.803
327.054
327.322
327.549
327.767
327.985
716.565
1031.86
994.308
994.383
1219.59
1276.09
1088.24
1134
495.748
326.338
326.9
327.072
327.188
327.141
327.237
327.44
327.661
327.721
396.443
924.454
1067.71
898.283
930.753
1204.08
1296.48
1124.68
1191.3
1150.71
389.395
326.393
326.876
327.043
327.153
327.297
327.513
327.94
326.859
926.832
1035.43
894.94
919.379
1034.73
1287.57
1326.05
629.127
1216.99
1291.52
1172.84
508.195
326.64
326.828
326.99
327.196
327.414
326.965
568.837
1095.94
1097.56
942.202
1017.51
1322.97
1332.36
1348.49
0.488577
258.574
1012.36
1303.34
1352.42
912.58
429.283
326.997
326.823
325.629
357.097
1242.11
1168.62
1005.85
1113.77
1039.63
860.539
1374.19
1375.78
0.490152
0.382803
124.47
860.932
1290.69
1353.52
1282.44
837.452
368.406
494.864
1269.67
1411.77
1022.23
1136.86
1278.6
636.603
258.124
727.875
1451.46
0.471362
0.525474
0.290774
36.3417
443.635
1084.21
1294.76
1373.57
1316.74
1453.52
1494.13
1274.99
1154.68
1423.68
1234.31
254.777
256.736
261.704
1371.01
0.413332
0.459299
0.530612
0.250693
0.00107266
178.148
677.715
1082.77
1366.57
1457.77
1454.71
956.689
1506.03
1522.66
861.556
269.904
254.031
245.857
331.348
0.355632
0.362725
0.38076
0.359406
0.339259
0.272677
8.22936
143.369
393.258
579.979
449.661
620.531
977.495
792.772
885.583
633.222
465.39
243.642
237.688
0.303224
0.295116
0.277802
0.249228
0.251406
0.287396
0.0831811
-0.117725
0.0720471
1.32357
4.00592
96.5465
31.5928
160.892
601.316
744.698
775.96
323.77
239.103
0.255494
0.244126
0.223773
0.190715
0.165379
0.168886
0.160167
0.181901
0.186405
0.324084
0.733989
3.46962
10.2706
58.5612
332.919
706.67
826.216
854.539
482.271
0.213219
0.20017
0.1826
0.158483
0.133886
0.113178
0.0975056
0.127055
0.195014
0.390449
0.767763
1.72191
4.9199
11.8945
31.9439
124.294
550.06
969.301
974.775
0.176164
0.16172
0.145402
0.127139
0.109381
0.0906554
0.0723772
0.0810672
0.0891588
0.22039
0.365348
0.435803
1.68166
20.4286
83.5103
156.239
184.173
530.909
985.234
0.142995
0.127415
0.111024
0.0937809
0.0761017
0.0552207
0.0346793
-0.000862985
-0.0812502
-0.16249
-0.394537
-0.939978
-1.02165
22.5468
294.158
351.331
283.791
274.447
911.62
0.112458
0.0956235
0.0781374
0.0591192
0.036608
0.00634124
-0.0357371
-0.127122
-0.272958
-0.510201
-0.919398
-1.58609
-2.27243
3.4994
218.371
356.669
371.552
251.288
125.357
0.0839549
0.0655217
0.0460383
0.0236939
-0.00537196
-0.0480879
-0.118778
-0.239085
-0.432713
-0.736339
-1.18206
-1.77946
-2.36389
-2.50081
10.9592
337.683
373.893
366.299
107.724
0.0575005
0.0371022
0.0150629
-0.0113088
-0.0468637
-0.100653
-0.187394
-0.325563
-0.539182
-0.851341
-1.26672
-1.74025
-2.11492
-2.22858
-1.85537
29.3175
377.026
248.476
106.147
0.0333338
0.0107124
-0.0138576
-0.0442799
-0.0851287
-0.145868
-0.239811
-0.383247
-0.593008
-0.8792
-1.23085
-1.58964
-1.84046
-1.90458
-1.75963
-1.4045
159.415
372.76
106.391
0.011657
-0.0127839
-0.0402578
-0.0739363
-0.118077
-0.181715
-0.276107
-0.413485
-0.60347
-0.846321
-1.12402
-1.38718
-1.55897
-1.61375
-1.54504
-1.34284
-1.2611
512.643
109.713
-0.00761138
-0.0335189
-0.062979
-0.0986439
-0.14469
-0.208118
-0.297655
-0.421593
-0.584092
-0.779812
-0.989016
-1.17277
-1.28581
-1.22296
-1.12314
-1.13735
-0.388036
530.283
134.156
-0.0244856
-0.0512815
-0.0818741
-0.118497
-0.164565
-0.225326
-0.307015
-0.414728
-0.549115
-0.702441
-0.855781
-0.979045
-1.05401
-0.530963
-0.496724
-0.850853
-1.29233
539.234
526.774
-0.0389296
-0.0659762
-0.0968192
-0.133278
-0.177936
-0.234597
-0.307422
-0.399262
-0.508926
-0.6285
-0.741682
-0.826344
-0.757474
-0.28278
-0.347371
-0.525721
17.5191
601.128
629.067
-0.0509202
-0.0776154
-0.10788
-0.143179
-0.185397
-0.237212
-0.301327
-0.379191
-0.469021
-0.564141
-0.652373
-0.719659
-0.439649
-0.138651
-0.486316
-0.401071
400.776
640.73
653.923
-0.060507
-0.0863286
-0.115323
-0.148683
-0.187761
-0.234396
-0.290391
-0.356465
-0.431086
-0.509476
-0.584071
-0.648971
-0.351883
-0.0669632
-0.53698
-0.629131
658.417
664.15
676.556
-0.0678158
-0.0923318
-0.119519
-0.150377
-0.185888
-0.227317
-0.275815
-0.331932
-0.394649
-0.461222
-0.527942
-0.56795
-0.256302
-0.393249
-0.701093
-1.09223
275.042
687.867
664.648
-0.0730129
-0.0958842
-0.120866
-0.148827
-0.180557
-0.216876
-0.25853
-0.305843
-0.358636
-0.415587
-0.475492
-0.481588
-0.305231
-0.596009
-0.745219
-0.982262
-1.21034
701.375
543.065
-0.0762588
-0.0972497
-0.119761
-0.14457
-0.172385
-0.203798
-0.239142
-0.278588
-0.322386
-0.370176
-0.421642
-0.41921
-0.505404
-0.580274
-0.624279
-0.641252
-0.809107
633.072
556.682
-0.0776773
-0.0966644
-0.116583
-0.138125
-0.161986
-0.188577
-0.218126
-0.250469
-0.286048
-0.324805
-0.366746
-0.408251
-0.452966
-0.493007
-0.52214
-0.50604
-0.642196
217.197
584.788
-0.0773401
-0.094309
-0.111659
-0.129988
-0.149984
-0.171771
-0.196148
-0.222201
-0.250347
-0.280698
-0.311445
-0.3388
-0.368019
-0.40844
-0.454692
-0.480254
-0.568884
4.35551
603.527
-0.0752691
-0.0902945
-0.105234
-0.120573
-0.136978
-0.154653
-0.174055
-0.194457
-0.216149
-0.23757
-0.244218
-0.269108
-0.295195
-0.334294
-0.372879
-0.398678
-0.390005
-0.449407
489.349
-0.0715086
-0.0846939
-0.0974588
-0.110158
-0.123409
-0.13763
-0.14053
-0.140922
-0.159441
-0.182709
-0.204268
-0.220318
-0.234297
-0.252415
-0.109497
-0.0174643
-0.213578
-0.274037
73.5732
-0.0661599
-0.0776084
-0.0884377
-0.0988865
-0.109498
-0.120671
-0.103637
-0.10364
-0.115582
-0.14215
-0.164635
-0.166463
-0.173336
0.354923
1.93483
0.728723
-0.107056
-0.122013
137.239
-0.0594539
-0.0692325
-0.0783089
-0.0868516
-0.0953213
-0.104106
-0.106183
-0.0860122
-0.0914756
-0.102716
-0.130653
-0.131803
1.54263
2.05474
2.05641
0.88647
-0.0119091
0.444225
264.049
-0.0517522
-0.0598789
-0.0673298
-0.0742338
-0.0809979
-0.0879832
-0.0953459
-0.100497
-0.110135
-0.120999
0.466358
2.06848
2.1379
2.13787
1.90247
0.0807233
0.0556215
2.79686
270.979
-0.0434798
-0.0499872
-0.0559077
-0.0613611
-0.0667306
-0.0723613
-0.0783796
-0.0851214
-0.0938606
-0.105687
0.197373
2.2076
2.20913
2.22203
0.303401
-0.0219441
0.02136
9.56713
150.949
-0.0350623
-0.0400477
-0.0445622
-0.0487281
-0.0529076
-0.057418
-0.0622554
-0.0676623
-0.0745248
-0.079372
-0.092115
0.29651
0.403229
0.0721102
-0.0809295
-0.0671734
-0.083285
4.87942
-0.383746
-0.0268306
-0.030511
-0.0338484
-0.0369544
-0.0401544
-0.0437165
-0.0475044
-0.0514552
-0.0557926
-0.0605984
-0.0690059
-0.0742294
-0.0737442
-0.0716807
-0.0741908
-0.0889527
-0.128738
-0.180027
-0.162045
-0.0189164
-0.0218063
-0.0244974
-0.0270511
-0.0297184
-0.03267
-0.0356727
-0.0383183
-0.0403572
-0.0421051
-0.0438445
-0.0442572
-0.0429508
-0.042168
-0.0511502
-0.0722608
-0.101824
-0.115121
-0.0581095
-0.0111342
-0.0144106
-0.0176301
-0.0208193
-0.0240452
-0.0272392
-0.0299903
-0.031601
-0.0314813
-0.029426
-0.0254096
-0.0191247
-0.0114914
-0.000618719
-0.0113675
-0.0381238
-0.0626292
-0.0680007
-0.022528
-0.00360318
-0.00747359
-0.0113183
-0.0153187
-0.0193043
-0.0229136
-0.0255556
-0.026443
-0.0247972
-0.020052
-0.0117764
0.0012854
0.0231714
0.0542991
0.0490394
-0.00106835
-0.0298044
-0.0500656
-0.0152994
)
;

boundaryField
{
    leftWall
    {
        type            fixedFluxPressure;
        gradient        uniform 0;
        value           nonuniform List<scalar> 
50
(
537.179
537.024
535.472
533.451
531.51
529.473
527.001
523.815
232.362
0.470228
0.497646
0.463214
0.455773
0.437897
0.420832
0.403368
0.385916
0.368728
0.351908
0.335537
0.319634
0.304192
0.289188
0.2746
0.260406
0.246588
0.233132
0.220029
0.207272
0.194858
0.182787
0.171055
0.15966
0.148598
0.137863
0.127446
0.117339
0.107529
0.0980056
0.0887552
0.0797634
0.0710135
0.0624855
0.0541572
0.0460072
0.0380133
0.0301543
0.0224071
0.0143435
0.00548059
)
;
    }
    rightWall
    {
        type            fixedFluxPressure;
        gradient        uniform 0;
        value           nonuniform List<scalar> 
50
(
1501.96
1494.36
1478.49
1444.7
1404.65
1376.17
1346.15
1316.81
1278.67
1268.88
1276.09
1296.48
1326.05
1348.49
1375.78
1451.46
1371.01
331.348
237.688
239.103
482.271
974.775
985.234
911.62
125.357
107.724
106.147
106.391
109.713
134.156
526.774
629.067
653.923
676.556
664.648
543.065
556.682
584.788
603.527
489.349
73.5732
137.239
264.049
270.979
150.949
-0.383746
-0.162045
-0.0581095
-0.022528
-0.0152994
)
;
    }
    lowerWall
    {
        type            fixedFluxPressure;
        gradient        uniform 0;
        value           nonuniform List<scalar> 
62
(
537.179
535.704
540.419
548.906
560.233
573.303
587.954
604.21
622.109
641.592
662.517
684.674
707.79
731.625
755.873
780.177
804.181
827.375
849.08
867.018
878.731
887.122
901.336
901.336
898.192
897.467
899.655
903.858
910.428
919.751
931.191
979.484
984.181
980.043
961.891
669.626
636.052
586.439
565.107
557.501
662.965
820.234
780.262
669.626
550.565
466.457
416.033
384.555
385.118
401.662
414.697
423.884
439.353
469.308
520.783
661.654
932.802
1252
1486.07
1589.7
1579.29
1501.96
)
;
    }
    atmosphere
    {
        type            totalPressure;
        rho             rho;
        psi             none;
        gamma           1;
        p0              uniform 0;
        value           nonuniform List<scalar> 
46
(
0
-0.000208902
-0.000534176
-0.000707825
-0.000804858
-0.000856692
-0.000878892
-0.000879119
-0.000861647
-0.000829487
-0.000785334
-0.000731924
-0.000672109
-0.000608764
-0.000544598
-0.00048188
-0.000422112
-0.000365676
-0.000311475
-0.000256732
-0.000197604
-0.000131847
-6.39814e-05
-2.17646e-05
-5.89559e-06
0
0
0
0
0
0
0
0
0
0
0
0
0
0
0
0
-0.00122737
-0.00470975
-0.00807029
-0.00602531
0
)
;
    }
    defaultFaces
    {
        type            empty;
    }
}


// ************************************************************************* //
