/*--------------------------------*- C++ -*----------------------------------*\
| =========                 |                                                 |
| \\      /  F ield         | OpenFOAM: The Open Source CFD Toolbox           |
|  \\    /   O peration     | Version:  v1606+                                |
|   \\  /    A nd           | Web:      www.OpenFOAM.com                      |
|    \\/     M anipulation  |                                                 |
\*---------------------------------------------------------------------------*/
FoamFile
{
    version     2.0;
    format      ascii;
    class       volScalarField;
    location    "5.6";
    object      p;
}
// * * * * * * * * * * * * * * * * * * * * * * * * * * * * * * * * * * * * * //

dimensions      [1 -1 -2 0 0 0 0];

internalField   nonuniform List<scalar> 
11640
(
5101.52619312
5102.16485761
5103.28644582
5104.90160651
5106.82055434
5109.04526236
5111.77816506
5114.94215311
5118.2976322
5121.69239681
5125.05501951
5128.32913894
5131.4679286
5134.32607784
5136.66285977
5138.48392321
5140.12014178
5141.56679971
5142.58025691
5143.09848498
5101.76676041
5102.41670499
5103.38461743
5104.23761083
5105.03584712
5106.59365835
5109.48988468
5113.45044829
5117.7814662
5122.13295361
5126.43497819
5130.63627371
5134.69725079
5138.28252446
5140.67762196
5141.62977353
5141.82523986
5142.26150274
5143.02977593
5143.53391813
5102.23130521
5102.68186129
5102.36659699
5100.84357612
5099.72148693
5100.80381284
5104.56313687
5110.14767978
5116.2950354
5122.42436941
5128.46984157
5134.39510966
5140.17299067
5145.2809446
5148.44763783
5148.85961066
5147.05139197
5144.88645809
5144.14312957
5144.37465019
5102.87441298
5102.23419639
5099.004352
5094.54294414
5092.02894979
5093.29642048
5098.46275395
5106.08436674
5114.41288529
5122.65748884
5130.76441152
5138.73390909
5146.5573476
5153.58666556
5158.08570021
5158.67755106
5155.48657162
5150.39487536
5146.63981361
5145.6360231
5103.37723944
5100.6630694
5094.1509367
5087.4821888
5084.28169324
5086.24302406
5093.03114364
5102.61585732
5112.94801978
5123.07599063
5132.99046275
5142.75884205
5152.4202249
5161.29310733
5167.33820011
5168.68434863
5164.88380493
5157.67829638
5150.73820048
5147.6316538
5103.68506855
5098.79979622
5089.88496475
5081.86067188
5078.5417397
5081.45508964
5089.79182215
5100.91398841
5112.68015196
5123.9976772
5135.04673676
5145.93970948
5156.78353753
5166.9623658
5174.40766403
5176.82420684
5173.02581773
5164.64813087
5155.45638806
5150.3241829
5104.31809054
5098.02689332
5087.88466928
5079.24182842
5076.04316109
5079.71493522
5089.18808958
5101.20423568
5113.5894038
5125.04475525
5136.27052553
5147.42225469
5158.80884416
5170.01665647
5178.51667478
5181.92027482
5178.4608762
5169.62178178
5159.39279092
5153.05462064
5105.47890849
5098.77844916
5088.3189838
5079.53370324
5076.41769734
5080.38778629
5090.39992135
5103.05111394
5115.41209573
5126.30047978
5137.1516856
5147.77026166
5159.323861
5171.34717355
5180.90779626
5184.69224385
5181.49679581
5172.68782266
5162.28892819
5155.671113
5106.93528348
5100.2228709
5089.75956416
5080.96425486
5077.83874826
5081.79159901
5091.82475321
5104.64613881
5116.87043887
5127.28765684
5138.07073315
5148.27348136
5160.30549027
5172.75676567
5182.77653079
5186.87176324
5183.90128597
5175.248783
5164.94659944
5158.37738814
5108.4941149
5101.76607785
5091.28016568
5082.44590768
5079.25937507
5083.13739033
5093.01620955
5105.73986079
5117.78999049
5128.42466531
5139.12881431
5149.78815838
5161.98696832
5174.69040657
5184.94617927
5189.29200829
5186.52373931
5178.01280911
5167.80689127
5161.28815611
5110.14546225
5103.39848627
5092.87963098
5083.98650138
5080.70076719
5084.42350742
5093.94675026
5106.19583909
5118.14110916
5129.26181541
5140.46831075
5151.77959079
5164.25484465
5177.0328779
5187.41926056
5191.95941365
5189.33851662
5180.94260039
5170.81540383
5164.33892646
5112.02760631
5105.58820501
5095.30025685
5086.46243672
5083.02060828
5086.39425058
5095.27467563
5106.89147804
5118.69436736
5130.3788235
5142.17835227
5154.20753011
5166.80210991
5179.36689795
5189.40237562
5193.79940209
5191.22532518
5183.07351519
5173.33626188
5167.28031259
5114.35538469
5109.15966166
5099.97531058
5091.64315742
5088.00368966
5090.57439965
5098.43592855
5109.1246998
5120.56148862
5132.12057452
5143.90725819
5155.94162675
5168.2766179
5180.1394016
5189.24013937
5192.97248712
5190.37257786
5182.92599542
5174.48765653
5169.80098087
5116.89382458
5113.82781163
5106.95338869
5099.90634254
5096.36005643
5098.02865741
5104.56789355
5114.0784427
5124.48792822
5135.06964327
5145.85679998
5156.84912006
5168.00399459
5178.49108699
5186.18686011
5189.03862146
5186.61820883
5180.59232026
5174.59248769
5172.0635413
5119.03733419
5118.14876949
5114.53519938
5109.6702868
5106.8214238
5107.86743155
5112.96696203
5120.74086131
5129.43669273
5138.36162489
5147.48450959
5156.75409171
5166.0891779
5174.73696803
5180.90777481
5183.11896687
5181.43351213
5177.6570893
5174.93878709
5174.51005307
5120.69166912
5121.07131469
5120.54565365
5118.66522286
5117.26456844
5118.22325448
5122.08593701
5128.03462306
5134.78456323
5141.77950081
5148.95983614
5156.24899871
5163.54522838
5170.26034575
5175.09956103
5177.17108052
5176.91729076
5176.10591762
5176.29281165
5176.98038701
5122.11033288
5122.76495707
5123.78076203
5124.55835472
5125.21158504
5126.76678865
5129.92188981
5134.41736208
5139.52556443
5144.88318738
5150.41490796
5156.02976138
5161.61789347
5166.79650043
5170.84335184
5173.43761296
5175.13896344
5176.71935208
5178.19799726
5179.10147567
5123.25537912
5123.91303002
5125.17626243
5126.98536948
5129.11884927
5131.58768175
5134.73269325
5138.55684694
5142.80447115
5147.30215116
5151.96459414
5156.69317942
5161.37444851
5165.81349809
5169.73450949
5173.02556263
5175.86773404
5178.22197476
5179.87801354
5180.76940312
5124.06162674
5124.71798956
5125.98760799
5127.83744633
5130.23618734
5133.14081998
5136.50097754
5140.25962553
5144.34594991
5148.6807567
5153.17344581
5157.720557
5162.20664986
5166.5070741
5170.49676066
5174.05159886
5177.05728506
5179.41719507
5181.05745569
5181.92290392
5124.48283136
5125.13313438
5126.40434675
5128.26614971
5130.68223982
5133.61181076
5137.00249069
5140.79185964
5144.91439212
5149.28322554
5153.80515105
5158.37444516
5162.87533415
5167.18451389
5171.17530418
5174.72636135
5177.72498518
5180.0724636
5181.69017592
5182.5234113
4774.75457323
4775.3916388
4776.51686506
4778.07844535
4779.67172928
4781.46204004
4784.08088028
4787.45210238
4791.11026789
4794.80706216
4798.47139053
4802.04807709
4805.48903025
4808.58231254
4810.89004451
4812.37554767
4813.72877396
4815.13457951
4816.16758439
4816.70110353
4774.97154693
4775.64347833
4776.24864181
4775.77361848
4774.64045467
4774.89003237
4777.866547
4782.92646132
4788.63096354
4794.35542756
4800.02961393
4805.60469352
4811.03858538
4815.76413019
4818.37761097
4818.28150686
4816.86128654
4816.16477552
4816.61810001
4817.14174117
4775.42787888
4775.49852673
4772.90481748
4767.15147333
4762.0765864
4761.44618961
4766.2537932
4774.66291888
4784.07780442
4793.46968547
4802.7764985
4811.96287669
4820.9996621
4828.96274042
4833.324203
4832.30568071
4826.91051425
4820.90353064
4818.12439844
4817.99295067
4775.99557001
4773.29105673
4764.36558604
4752.68608171
4744.90174014
4744.75855568
4752.47794913
4765.00973093
4778.82508802
4792.53718142
4806.10368374
4819.52809016
4832.79788578
4844.74023743
4851.91525325
4851.38719425
4843.30816744
4831.38159002
4822.25581734
4819.36643576
4775.91803777
4768.53160842
4752.95744098
4736.9410006
4727.93312617
4729.34851184
4740.3830101
4756.81487217
4774.57494599
4792.10801625
4809.40081547
4826.54169008
4843.55351526
4859.21931898
4869.55858585
4870.62418175
4861.40272392
4845.21775867
4829.48676553
4821.94273947
4775.22680811
4763.27637397
4742.97040502
4724.3732498
4715.33683882
4718.89778847
4733.10494047
4752.51392742
4772.92370153
4792.828522
4812.39868824
4831.80321783
4851.11539117
4869.36604798
4882.56772643
4885.85534127
4876.69695191
4858.06534127
4837.67695687
4825.66330209
4775.14234238
4760.43827608
4737.76515889
4718.06438421
4709.42985667
4714.72284183
4731.19390322
4752.27153172
4773.62544346
4794.09280492
4814.11636129
4834.12056527
4854.26517485
4874.2879428
4889.45379407
4894.73442235
4886.15569927
4866.54906208
4843.8881087
4829.15819679
4776.10672289
4760.65008876
4737.39563889
4717.46447158
4709.03123321
4714.95221695
4732.41492301
4754.93859519
4775.94559596
4795.31748015
4814.83476809
4833.96113463
4854.25015956
4875.77154778
4892.53358337
4898.49954794
4890.30924482
4870.61514435
4847.47039101
4832.03591654
4777.57175336
4762.10534812
4738.84491485
4718.90020392
4710.44713033
4716.32852392
4733.76080816
4756.61317915
4777.32138992
4796.35629959
4815.62650807
4834.75615639
4855.18413426
4877.13363025
4894.42027415
4900.68711571
4892.73664089
4873.20992168
4850.1757418
4834.79017278
4779.14211405
4763.66108738
4740.37816271
4720.39177924
4711.87232544
4717.67793182
4734.96180296
4757.65960726
4778.28831227
4797.44754842
4816.85684866
4836.26565932
4856.89248924
4879.07539816
4896.62673089
4903.12598909
4895.38508446
4876.01505334
4853.08073788
4837.74723742
4780.80830305
4765.30938535
4741.99468645
4721.94569786
4713.314172
4718.96178536
4735.8771339
4757.8526075
4778.53990152
4798.13725891
4818.00890025
4838.13440979
4859.21153901
4881.34329098
4899.1361856
4905.83277184
4898.24135155
4878.98888827
4856.1382012
4840.84795396
4782.929683
4768.15841652
4745.41187284
4725.56853408
4716.68607582
4721.61656846
4737.297132
4757.68677791
4778.2982026
4798.83943142
4819.56441706
4840.59856734
4862.2230879
4883.71728367
4900.75460264
4906.96884051
4899.29522203
4880.36315482
4858.15676408
4843.64367179
4786.01535727
4773.97156945
4753.60228025
4734.88054432
4725.62110345
4728.81652546
4742.41203586
4761.17662867
4781.14336424
4801.2327208
4821.60643257
4842.2539386
4863.237656
4883.3441021
4898.3286125
4902.90473176
4894.8826005
4877.08384269
4857.27172663
4845.5135336
4789.56521695
4782.08343131
4766.47853468
4750.4021572
4741.2839357
4742.50836252
4753.27698093
4769.58466307
4787.37220174
4805.3551155
4823.55767053
4841.9683015
4860.54953334
4877.8880969
4889.88692771
4892.36579716
4884.35383636
4869.10182996
4854.01742575
4846.82607051
4792.2910963
4789.51369025
4780.58456265
4768.91926055
4761.1453333
4760.99717133
4768.72835429
4781.41403956
4795.57281808
4809.97709567
4824.5900247
4839.35508033
4854.18722872
4867.76746221
4876.54863264
4877.46101631
4870.61462849
4859.65572516
4851.21546176
4848.72019686
4794.06998612
4794.07395791
4791.52560584
4785.8538623
4780.90267333
4780.43653012
4785.49214133
4794.30434117
4804.3319576
4814.61274085
4825.08450402
4835.66776831
4846.2602939
4855.82670574
4861.75313038
4862.16121691
4857.98846838
4852.94779035
4850.86768662
4851.13840366
4795.51826921
4796.1809024
4796.87733457
4796.53432372
4795.60696093
4796.15158995
4799.55190537
4805.21079352
4811.7197299
4818.48297669
4825.42336778
4832.44777075
4839.44571066
4845.75992224
4849.90941366
4851.21276196
4850.99676314
4851.26582658
4852.39471936
4853.28669688
4796.69070034
4797.35557886
4798.63344778
4800.40054645
4802.26073707
4804.4171854
4807.56135973
4811.65001244
4816.23346227
4821.07095615
4826.07525032
4831.14594591
4836.16797051
4840.85201394
4844.6902208
4847.5716729
4850.10711841
4852.42509497
4854.091493
4854.97347898
4797.52016345
4798.18389176
4799.46709367
4801.33840152
4803.7669952
4806.71019555
4810.11740817
4813.92851101
4818.07235237
4822.46904887
4827.02560831
4831.63682735
4836.18648018
4840.54821208
4844.5934992
4848.19553193
4851.2399299
4853.62528998
4855.27717599
4856.13879435
4797.95854648
4798.61766985
4799.90379181
4801.78653375
4804.23149053
4807.19602452
4810.62929562
4814.46973601
4818.64459749
4823.07015881
4827.65174656
4832.28311138
4836.84534418
4841.21379579
4845.25931649
4848.85872572
4851.8949118
4854.26986586
4855.9039653
4856.73937505
4447.64245437
4448.27105264
4449.41532702
4450.94059758
4452.42496917
4454.15482312
4456.81767876
4460.2971525
4464.08205193
4467.90778892
4471.7029686
4475.4118862
4478.98510916
4482.19842017
4484.57325848
4486.03215064
4487.31531687
4488.71198095
4489.77992642
4490.33605852
4447.84519308
4448.53200896
4448.97555937
4448.16644184
4446.73500627
4446.92134071
4450.03112815
4455.36361833
4461.37308462
4467.40257522
4473.38097942
4479.25980694
4484.99412119
4489.9883023
4492.74343447
4492.57004204
4490.88838899
4489.9056278
4490.2427657
4490.78894215
4448.30851574
4448.18122472
4445.04590944
4438.68506125
4433.30878602
4432.73360682
4437.86062973
4446.74005717
4456.64486778
4466.5203433
4476.30526322
4485.96514328
4495.46525242
4503.85439242
4508.49940605
4507.51007894
4501.81654863
4495.22832652
4491.94475598
4491.66347583
4448.78439043
4445.49608244
4435.66948158
4423.3600428
4415.40051569
4415.50111978
4423.73848198
4436.88004173
4451.36876713
4465.6958526
4479.86586716
4493.8824327
4507.71962213
4520.19658048
4527.78655062
4527.42440536
4519.12920152
4506.57486635
4496.57732132
4493.15309922
4448.46909326
4440.12550911
4423.52322939
4406.95763172
4397.97406159
4399.89646585
4411.67190097
4428.82629613
4447.30935167
4465.51359675
4483.42973415
4501.17446835
4518.7422478
4534.971885
4545.8504998
4547.27714857
4537.9740061
4521.20630521
4504.4580447
4496.00901997
4447.52624838
4434.36007669
4413.02595493
4393.9969979
4385.24048658
4389.71343428
4405.07937564
4425.42909962
4446.51087497
4466.91962743
4486.92489917
4506.73513638
4526.35392591
4544.95786197
4558.87675482
4562.8584022
4553.77877215
4534.6349052
4513.22056617
4500.04715646
4447.30635409
4431.26110665
4407.57147842
4387.52301512
4379.34891084
4385.94206054
4404.07342409
4426.48704194
4448.33699892
4468.99147237
4489.0368568
4509.13262713
4529.16901464
4549.32540607
4565.48652924
4571.85745055
4563.49582204
4543.46058086
4519.78091991
4503.74618237
4448.24063017
4431.41550841
4407.15168493
4386.89695879
4378.9603546
4386.28232711
4405.28922866
4431.33317037
4451.8926329
4470.18606668
4488.2977416
4506.2022541
4525.85262284
4550.24682936
4568.44434153
4575.61756452
4567.76145384
4547.67071341
4523.51487638
4506.73678883
4449.71691409
4432.88508047
4408.61380976
4388.33953948
4380.35838994
4387.60386794
4406.42625162
4433.23071005
4453.20683289
4470.76125405
4488.56715178
4506.01511992
4525.97511369
4551.31391748
4570.3353747
4577.84570938
4570.25409566
4550.34260096
4526.30360268
4509.5746786
4451.30498628
4434.46094055
4410.16662781
4389.84791343
4381.79555921
4388.96175365
4407.67558759
4434.03455687
4454.04951362
4471.7491213
4489.53534612
4507.25665637
4527.67476576
4553.01718323
4572.58568182
4580.37201687
4572.98446047
4553.2304373
4529.2993629
4512.62315984
4452.99733135
4436.13645928
4411.80888733
4391.42281725
4383.25224701
4390.24146741
4408.58856266
4433.10266606
4453.38432557
4471.89823779
4490.49974688
4509.39318923
4530.52484544
4555.64869968
4575.16344852
4583.11918184
4575.91210838
4556.29175882
4532.45169104
4515.82061012
4455.19193742
4439.09524819
4415.331481
4395.12250318
4386.64185597
4392.73714642
4409.42654506
4429.91897064
4450.49323062
4471.25806811
4492.17910981
4513.46756345
4535.5727745
4558.43172038
4576.96137007
4584.32486762
4577.00916825
4557.6976076
4534.5036116
4518.6813756
4458.46062537
4445.23389484
4423.83738619
4404.66545595
4395.61761713
4399.56959381
4413.9067636
4433.17152032
4453.49405587
4474.11259609
4495.05010169
4516.2944396
4537.9395762
4558.93243165
4574.95945271
4580.32230148
4572.4999358
4554.25798532
4533.45313713
4520.51768691
4462.31841431
4453.92335644
4437.30080613
4420.67511963
4411.5545134
4413.23162455
4424.61862041
4441.55733839
4459.96171324
4478.6245174
4497.53130503
4516.66139389
4535.97494663
4554.05235365
4566.74273153
4569.6649638
4561.64593784
4545.86405163
4529.78964015
4521.67689367
4465.33620395
4462.01747973
4452.217534
4439.93937074
4431.99418826
4432.07738211
4440.28922711
4453.56914248
4468.35182206
4483.41052978
4498.6966743
4514.14515148
4529.66361656
4543.89422384
4553.18864496
4554.33425959
4547.32924715
4535.78143326
4526.47627042
4523.42038195
4467.25951199
4467.10849506
4464.05355489
4457.80805583
4452.58265006
4452.18646271
4457.57599962
4466.86598323
4477.410162
4488.22264779
4499.23746253
4510.37007885
4521.51231153
4531.5868287
4537.86887036
4538.36075732
4533.93239488
4528.32929629
4525.73214972
4525.82500028
4468.76906638
4469.44891574
4470.02486936
4469.395892
4468.22045437
4468.71289995
4472.29196095
4478.26299854
4485.12283816
4492.24808088
4499.558804
4506.95827028
4514.33163431
4520.98431662
4525.33634848
4526.60879211
4526.15343245
4526.12848992
4527.13233175
4528.03184878
4469.99508162
4470.67690317
4471.98359026
4473.73714972
4475.53254416
4477.67909242
4480.91906345
4485.16653292
4489.93146324
4494.96013579
4500.16310205
4505.43655497
4510.66199691
4515.529839
4519.48326006
4522.36523407
4524.84609838
4527.16551491
4528.87053215
4529.75943631
4470.86612757
4471.54654438
4472.85827711
4474.76912529
4477.25098906
4480.2611619
4483.74751307
4487.64943497
4491.89513164
4496.40257649
4501.07695312
4505.81035269
4510.48219271
4514.963361
4519.11973911
4522.82093686
4525.94619236
4528.39071886
4530.07901025
4530.95028775
4471.33312682
4472.00815897
4473.32287023
4475.24705258
4477.74579532
4480.77604703
4484.28708907
4488.2166968
4492.49081577
4497.02496809
4501.72162526
4506.4713336
4511.153305
4515.63713069
4519.79144415
4523.48703702
4526.60458282
4529.03979535
4530.71176679
4531.56217104
4120.17264818
4120.80147386
4121.96881899
4123.50937573
4124.99822898
4126.75245199
4129.47796879
4133.04086987
4136.91825369
4140.84025016
4144.73542647
4148.54662683
4152.22277877
4155.53767302
4158.00206707
4159.52639988
4160.85677943
4162.3042265
4163.42124419
4164.00494529
4120.36907975
4121.06069547
4121.48068541
4120.60976682
4119.14948422
4119.34992148
4122.56788551
4128.03288871
4134.18892466
4140.36520006
4146.49091054
4152.51715914
4158.3959302
4163.52511425
4166.38217439
4166.25572055
4164.56863461
4163.56433159
4163.90925878
4164.47852353
4120.82122098
4120.65398626
4117.38761313
4110.90456646
4105.50437072
4105.0227925
4110.33202565
4119.38036568
4129.50280708
4139.57864744
4149.55702341
4159.405774
4169.08176199
4177.63287408
4182.40098696
4181.47395376
4175.7588617
4169.07170369
4165.69421167
4165.39034362
4121.26139846
4117.8295021
4107.79323597
4095.37384096
4087.45030917
4087.72342419
4096.20884071
4109.57760646
4124.39203008
4138.94807072
4153.34577681
4167.57632062
4181.59325778
4194.23166161
4201.95259274
4201.66839209
4193.35514122
4180.68627032
4170.50339479
4166.9576337
4120.87480729
4112.2930431
4095.46385124
4078.83203556
4069.97004586
4072.16998008
4084.28503826
4101.72054794
4120.54460941
4139.05157789
4157.21365123
4175.18219746
4192.88615925
4209.22765543
4220.24239679
4221.76799603
4212.45689714
4195.57743297
4178.60814555
4169.9482286
4119.86444846
4106.39674528
4084.84798484
4065.80713184
4057.27655973
4062.20524746
4078.14319901
4098.96296311
4120.44291775
4141.17874055
4161.42243792
4181.41964036
4200.99066605
4219.36615071
4233.44385218
4237.52038702
4228.46261193
4209.22181805
4187.57605839
4174.14496033
4119.61141924
4103.2352938
4079.34186887
4059.31361827
4051.40678528
4058.53834649
4077.25891359
4100.35135868
4123.11631627
4144.35793974
4164.83257686
4185.18302134
4204.86248631
4223.68890169
4240.07668053
4246.69569703
4238.30667387
4218.20804293
4194.31250287
4177.98008321
4120.54539748
4103.38565693
4078.92461129
4058.69848299
4050.99973114
4058.7090175
4077.89465466
4224.9001466
4243.12121793
4250.51536277
4242.70528165
4222.54545013
4198.17907078
4181.09349694
4122.03815732
4104.87513555
4080.40596104
4060.15511302
4052.38476764
4059.9844885
4078.82021693
4226.29482717
4245.1562361
4252.8200325
4245.28659501
4225.32909218
4201.08904619
4184.05602398
4123.65506395
4106.47984274
4081.98721876
4061.6905377
4053.85390524
4061.40304741
4080.05040507
4228.3092347
4247.47192022
4255.42421314
4248.14275011
4228.34207884
4204.21674914
4187.23973599
4125.38795259
4108.19574137
4083.66635118
4063.29582519
4055.3490304
4062.81055293
4080.99559898
4230.35391086
4250.06796332
4258.2669784
4251.19300624
4231.53612562
4207.50830131
4190.58039354
4127.64820472
4111.23032641
4087.2597576
4067.05135277
4058.7793819
4065.3425524
4082.07669285
4101.52094552
4121.72830575
4142.90746239
4164.44310277
4186.39649099
4209.15468483
4232.62724878
4251.77773391
4259.56413635
4252.40912307
4233.06691394
4209.68905833
4193.5796775
4131.0248732
4117.51337333
4095.90162108
4076.69555188
4067.80379481
4072.06338823
4086.62157027
4105.8657213
4126.25147631
4147.08560921
4168.27780085
4189.88070288
4211.90991388
4233.42337892
4249.96427918
4255.66676107
4247.982162
4229.70375259
4208.71869508
4195.52776782
4135.0341773
4126.42586975
4109.58653208
4092.89164112
4083.8692547
4085.77098443
4097.37905515
4114.52468821
4133.13456104
4152.09687419
4171.34036332
4190.83209059
4210.50771505
4228.93552828
4241.94561752
4245.08897353
4237.15662952
4221.3224288
4205.07101694
4196.76329965
4138.21152877
4134.77558038
4124.79068644
4112.41621779
4104.51124818
4104.74968112
4113.16836099
4126.68353053
4141.71497343
4157.06671132
4172.67213271
4188.45612197
4204.31505303
4218.86732018
4228.42757078
4229.74486784
4222.79835815
4211.19006129
4201.73363672
4198.5691528
4140.25759952
4140.09247123
4136.94269409
4130.60126195
4125.37878166
4125.08848121
4130.6572624
4140.17049587
4150.95631189
4162.03403091
4173.33117546
4184.75659865
4196.19464189
4206.54805295
4213.05616223
4213.68991708
4209.30419711
4203.64583667
4200.97456466
4201.05494621
4141.86178281
4142.57231745
4143.15454522
4142.49964432
4141.32565127
4141.88754708
4145.60571006
4151.76188457
4158.82816531
4166.17720292
4173.72545668
4181.37104373
4188.99315491
4195.88113719
4200.42398057
4201.81494881
4201.40558629
4201.38415159
4202.41256166
4203.34993392
4143.16966748
4143.88090467
4145.23182332
4147.02873969
4148.87107599
4151.0962759
4154.45347499
4158.84740197
4163.7771566
4168.98592892
4174.3812995
4179.85496734
4185.28320105
4190.34568011
4194.46727729
4197.47400698
4200.04382274
4202.44348697
4204.21756511
4205.1428932
4144.1026309
4144.81065976
4146.16590386
4148.13539445
4150.69386766
4153.798673
4157.39655782
4161.42754554
4165.81784712
4170.48463084
4175.32939884
4180.24067172
4185.09230631
4189.74952599
4194.07253814
4197.92328843
4201.17522907
4203.71700711
4205.47107568
4206.37596843
4144.60918486
4145.30739048
4146.66421405
4148.64880045
4151.22554131
4154.35186698
4157.97618159
4162.03531449
4166.45517603
4171.14826329
4176.01510607
4180.94081801
4185.80052286
4190.45844041
4194.77582769
4198.61939882
4201.86130888
4204.39227033
4206.12801265
4207.00814233
3792.34450029
3792.97777622
3794.17441735
3795.76031808
3797.3074552
3799.13028954
3801.93592875
3805.58579844
3809.55629699
3813.57748134
3817.57788135
3821.498655
3825.2872966
3828.71823624
3831.29900311
3832.93759993
3834.37293004
3835.90846222
3837.08975426
3837.70711218
3792.54680532
3793.2307398
3793.68017831
3792.86023157
3791.46458142
3791.74548326
3795.05683553
3800.61922198
3806.87713938
3813.15933133
3819.39456843
3825.53187563
3831.52135912
3836.76110052
3839.72725252
3839.70861868
3838.1225377
3837.20504354
3837.61134632
3838.20973851
3792.96256532
3792.82753791
3789.58221393
3783.15268958
3777.82036234
3777.48965183
3782.89603542
3792.0603155
3802.29868033
3812.4948711
3822.58810829
3832.5474043
3842.32388417
3850.97024873
3855.83024618
3854.99647996
3849.36986191
3842.76455303
3839.44843864
3839.17321257
3793.39185953
3789.98377101
3779.98055882
3767.63251011
3759.82174802
3760.25468042
3768.91025355
3782.4373626
3797.35585461
3812.07216384
3826.59512205
3840.93344758
3855.02511147
3867.72475502
3875.5080181
3875.29450978
3867.0476794
3854.45052101
3844.32800187
3840.81502491
3792.99267138
3784.43186887
3767.65020298
3751.11943777
3742.4149961
3744.82200189
3757.14910989
3774.74598673
3793.80443035
3812.46361322
3830.77393178
3848.85177951
3866.58243308
3882.91795085
3893.96422237
3895.52471559
3886.2516968
3869.43391795
3852.52282952
3843.90294428
3791.97301003
3778.52798569
3757.04377862
3738.13683672
3729.81210202
3735.02196643
3751.28129965
3772.36612038
3794.17528919
3815.17906463
3835.57354035
3855.66303994
3875.14418621
3893.31454979
3907.36875497
3911.42554164
3902.3616703
3883.18642494
3861.59351217
3848.22348016
3791.71812735
3775.36917487
3751.55226723
3731.67707824
3723.98548167
3731.4151394
3750.67223894
3774.27858985
3797.67096753
3819.400936
3840.05999175
3860.68359195
3880.02420036
3897.74878298
3914.16646896
3920.71643429
3912.28125697
3892.28783614
3868.46280405
3852.19494207
3792.66059324
3775.53364372
3751.15841748
3731.09915558
3723.60857475
3731.6442938
3751.51225437
3898.41852706
3917.12204458
3924.6596375
3916.85651946
3896.76873961
3872.4791204
3855.46075568
3794.17625453
3777.04765504
3752.66722215
3732.58414599
3725.01275491
3732.94238747
3752.46368482
3899.72073703
3919.19035016
3927.05912446
3919.60463671
3899.70526708
3875.55160438
3858.59150999
3795.82987471
3778.69057198
3754.28596158
3734.1564515
3726.52068631
3734.40221605
3753.68811026
3901.90590677
3921.63932042
3929.7945946
3922.59029456
3902.88367702
3878.85603397
3861.9571698
3797.61625269
3780.45865454
3756.01198666
3735.79609706
3728.0348147
3735.80449149
3754.29211272
3904.35580319
3924.4017367
3932.78581867
3925.81110244
3906.2585032
3882.33497389
3865.48983372
3799.95313453
3783.56837716
3759.67417337
3739.60382497
3731.49465699
3738.27119315
3754.94840441
3773.57126366
3793.61790596
3815.04116756
3836.94497544
3859.39852331
3882.76370784
3906.75998702
3926.27140778
3934.24769667
3927.21006456
3907.97833214
3884.70958478
3868.68517928
3803.42899235
3789.95065503
3768.40572264
3749.31816166
3740.57834582
3745.00176019
3759.58011594
3778.68835706
3798.97134651
3820.10044458
3841.61582799
3863.55426055
3885.92463582
3907.80372812
3924.62050029
3930.50880783
3922.95839433
3904.80297679
3883.9337836
3870.82719354
3807.55990711
3798.98688103
3782.20934477
3765.61953966
3756.74426587
3758.8166906
3770.53936074
3787.76990257
3806.48087759
3825.66169303
3845.16274557
3864.93165223
3884.88064117
3903.56144969
3916.78450358
3920.09702055
3912.3073294
3896.60738282
3880.47630874
3872.24757657
3810.87211147
3807.47430454
3797.54801567
3785.26343973
3777.48523984
3777.87646391
3786.43717682
3800.0962471
3815.28290633
3830.83963608
3846.67993698
3862.71610418
3878.83159391
3893.62891843
3903.40147947
3904.89976398
3898.11414265
3886.65201858
3877.31493262
3874.22143432
3813.05643219
3812.93211168
3809.84105213
3803.58104247
3798.47015618
3798.31919991
3804.03830205
3813.71569478
3824.68032504
3835.96607884
3847.4924252
3859.15979427
3870.84332016
3881.43393983
3888.15838315
3888.98697302
3884.77655171
3879.26796285
3876.70825014
3876.85174367
3814.79185952
3815.54326189
3816.18541387
3815.60893169
3814.53804427
3815.22878839
3819.09558606
3825.41991413
3832.67305718
3840.23178315
3848.00770012
3855.89237617
3863.75741362
3870.88288292
3875.64858145
3877.24347783
3877.01361583
3877.13684577
3878.26818439
3879.26584667
3816.21287828
3816.96298944
3818.37286434
3820.24799776
3822.19103927
3824.54053536
3828.04432299
3832.60692183
3837.72629894
3843.14533705
3848.76765119
3854.47906392
3860.14903185
3865.44916392
3869.79610465
3873.00807651
3875.7541452
3878.29270952
3880.16583274
3881.14840203
3817.2305575
3817.97484307
3819.38752477
3821.43525256
3824.09492778
3827.32390829
3831.06895794
3835.2696605
3839.85118706
3844.72881043
3849.80016457
3854.94801114
3860.03988271
3864.93284561
3869.47946041
3873.53275754
3876.95767092
3879.63537221
3881.48451762
3882.44128178
3817.78984751
3818.51802703
3819.93006383
3821.99368475
3824.67263372
3827.92511531
3831.69826862
3835.9287576
3840.54126112
3845.44613604
3850.53959216
3855.70160001
3860.79966485
3865.69198019
3870.23065817
3874.27462681
3877.68740569
3880.35150458
3882.17792876
3883.10349639
3464.15360659
3464.7962355
3466.0292874
3467.67054794
3469.28839455
3471.19418081
3474.09597795
3477.85044612
3481.93308315
3486.07639643
3490.20675162
3494.26648681
3498.20133127
3501.78342508
3504.5161147
3506.30380162
3507.87420852
3509.52202444
3510.78428367
3511.44313848
3464.35749712
3465.03959169
3465.52885452
3464.76897148
3463.45183254
3463.82391814
3467.24627342
3472.92452782
3479.30319856
3485.71410147
3492.08406722
3498.362257
3504.49632576
3509.88433813
3512.99714986
3513.12232023
3511.66867546
3510.86302226
3511.34756384
3511.98316929
3464.73517807
3464.63244774
3461.4134921
3455.06226035
3449.83975637
3449.60022237
3455.15650748
3464.45663148
3474.82964293
3485.1654255
3495.4000079
3505.50101352
3515.41543961
3524.19974484
3529.19341485
3528.49060067
3522.98557351
3516.48810484
3513.25088112
3513.01331364
3465.1420208
3461.76539798
3451.80218581
3439.53944852
3431.85895474
3432.46596382
3441.32441024
3454.98565686
3470.05731154
3484.93486806
3499.60591935
3514.08398795
3528.29597272
3541.1094596
3549.00566617
3548.90533703
3540.76220835
3528.26549027
3518.2220012
3514.7512541
3464.72116193
3456.19021498
3439.46570901
3423.0522004
3414.52679335
3417.1701758
3429.72563862
3447.46021556
3466.76101835
3485.57330477
3504.04122819
3522.25188443
3540.07181928
3556.48237733
3567.62374697
3569.27654204
3560.08805234
3543.3651341
3526.53345338
3517.96375979
3463.68471617
3450.27221149
3428.86612175
3410.11467005
3402.02297229
3407.54190017
3424.11575593
3445.36936241
3467.44371819
3488.66670532
3509.20953334
3529.4059073
3548.90202503
3567.05451869
3581.19558186
3585.34620142
3576.32559521
3557.25447533
3535.73889199
3522.44012917
3463.42587424
3447.11352835
3423.39125788
3403.70127632
3396.27485557
3404.05608475
3423.80413542
3447.42240998
3471.15621623
3493.17801454
3513.89892782
3534.60189845
3553.88175127
3571.38963843
3588.06485511
3594.78183795
3586.3370152
3566.50043886
3542.77460629
3526.5870192
3464.37287484
3447.29046249
3423.02679694
3403.18256008
3395.99448302
3404.52747414
3425.48696156
3571.28092493