/*--------------------------------*- C++ -*----------------------------------*\
| =========                 |                                                 |
| \\      /  F ield         | OpenFOAM: The Open Source CFD Toolbox           |
|  \\    /   O peration     | Version:  v1606+                                |
|   \\  /    A nd           | Web:      www.OpenFOAM.com                      |
|    \\/     M anipulation  |                                                 |
\*---------------------------------------------------------------------------*/
FoamFile
{
    version     2.0;
    format      ascii;
    class       volScalarField;
    location    "1.14";
    object      alpha.air;
}
// * * * * * * * * * * * * * * * * * * * * * * * * * * * * * * * * * * * * * //

dimensions      [0 0 0 0 0 0 0];

internalField   nonuniform List<scalar> 
6000
(
0.551691
0.551691
0.551692
0.551692
0.551692
0.553731
0.595118
0.620601
0.624227
0.624553
0.616361
0.611829
0.60975
0.606944
0.607352
0.607205
0.60707
0.610419
0.629596
0.631246
0.628908
0.608495
0.570284
0.549737
0.549736
0.549735
0.549735
0.549735
0.549735
0.549735
0.551986
0.5554
0.561923
0.574023
0.595707
0.626594
0.629803
0.629852
0.62993
0.630103
0.630004
0.630177
0.630011
0.630197
0.630249
0.630508
0.630983
0.631158
0.631259
0.631162
0.631258
0.631156
0.631211
0.612407
0.586961
0.570615
0.556092
0.553084
0.549893
0.549969
0.569577
0.555524
0.537093
0.537206
0.537058
0.56826
0.597891
0.611316
0.603707
0.60117
0.604199
0.604363
0.597864
0.587212
0.578831
0.575806
0.577517
0.588059
0.596523
0.601053
0.603691
0.598764
0.576786
0.542019
0.531109
0.53137
0.531583
0.548472
0.560798
0.564562
0.653304
0.638753
0.605596
0.559928
0.536385
0.536346
0.553184
0.574493
0.562843
0.55227
0.553665
0.549793
0.535881
0.516797
0.503684
0.501617
0.507604
0.525637
0.541959
0.550106
0.553484
0.544319
0.515777
0.515577
0.530848
0.563588
0.596288
0.623795
0.64544
0.647016
0.69178
0.691798
0.689015
0.655723
0.595647
0.535935
0.517669
0.51841
0.509826
0.499484
0.495758
0.48817
0.48509
0.485218
0.485169
0.485271
0.485255
0.485336
0.485339
0.487959
0.493324
0.488177
0.488139
0.527048
0.61014
0.655561
0.680638
0.689787
0.68979
0.689788
0.691768
0.691769
0.691772
0.691744
0.682371
0.608788
0.517591
0.484998
0.485123
0.484861
0.485125
0.484985
0.485169
0.485096
0.48522
0.485161
0.485279
0.485262
0.485346
0.485351
0.485448
0.485508
0.496306
0.622727
0.682745
0.689778
0.689781
0.689784
0.689785
0.689785
0.687041
0.691762
0.691744
0.691732
0.691705
0.675694
0.570083
0.485105
0.484779
0.485085
0.484859
0.485134
0.517786
0.577367
0.630007
0.653654
0.624955
0.577256
0.53382
0.493395
0.485512
0.485569
0.580347
0.673851
0.682821
0.679057
0.67256
0.66917
0.673199
0.660817
0.650173
0.665998
0.66986
0.677158
0.690439
0.680558
0.613226
0.484783
0.485069
0.484712
0.534992
0.637294
0.715098
0.738292
0.743006
0.743321
0.742986
0.73373
0.721593
0.685548
0.595181
0.565698
0.654374
0.68691
0.66405
0.632888
0.620704
0.618922
0.62875
0.606908
0.59443
0.617446
0.614823
0.627883
0.658714
0.664149
0.621757
0.510046
0.484655
0.6079
0.741399
0.776017
0.776036
0.757972
0.728449
0.724384
0.731242
0.75075
0.784263
0.808562
0.793499
0.735734
0.721717
0.701111
0.6421
0.583132
0.567172
0.57256
0.58512
0.562138
0.551915
0.578383
0.567362
0.574418
0.609718
0.638786
0.637378
0.619063
0.667489
0.793299
0.803478
0.789564
0.759066
0.719241
0.67691
0.679215
0.693418
0.728532
0.777804
0.828101
0.859752
0.816035
0.77488
0.731158
0.648796
0.568057
0.547589
0.550691
0.558899
0.537744
0.529833
0.559099
0.553896
0.556626
0.586772
0.625629
0.670824
0.738826
0.81513
0.845561
0.803431
0.756972
0.708309
0.671874
0.635861
0.644851
0.658866
0.6964
0.764286
0.833323
0.861831
0.838539
0.807921
0.76555
0.671606
0.58223
0.547527
0.547385
0.546887
0.525248
0.518998
0.550532
0.553913
0.569185
0.594893
0.628107
0.700403
0.800738
0.851097
0.853732
0.79057
0.698414
0.647623
0.631172
0.607052
0.608932
0.61504
0.655339
0.74954
0.839483
0.861564
0.850166
0.8286
0.788654
0.683484
0.59804
0.564445
0.557619
0.544721
0.518095
0.511481
0.544986
0.566115
0.587866
0.60109
0.626642
0.718396
0.826273
0.853622
0.853414
0.786004
0.648066
0.584057
0.585946
0.566675
0.557962
0.55458
0.593273
0.726532
0.843909
0.861619
0.858601
0.843279
0.798878
0.669531
0.588328
0.582207
0.568593
0.546051
0.512296
0.500849
0.53545
0.563478
0.580538
0.582555
0.612403
0.735194
0.83943
0.853413
0.853604
0.800441
0.634504
0.5275
0.533002
0.516103
0.501099
0.497163
0.529574
0.67426
0.828926
0.861578
0.861605
0.850011
0.799267
0.635682
0.558264
0.558752
0.550934
0.536451
0.502053
0.486236
0.510785
0.525037
0.528673
0.534395
0.58506
0.745657
0.84516
0.853576
0.853386
0.813941
0.678083
0.499229
0.484966
0.475951
0.465376
0.466663
0.484043
0.585543
0.76068
0.842763
0.845777
0.838387
0.774096
0.592929
0.510438
0.505149
0.504123
0.504755
0.484368
0.474791
0.476416
0.473478
0.473084
0.487556
0.544044
0.728818
0.832784
0.842011
0.839982
0.808379
0.709755
0.510105
0.464125
0.464109
0.4641
0.464131
0.464143
0.484363
0.650418
0.761127
0.782049
0.781152
0.690741
0.533264
0.471492
0.465754
0.465337
0.472434
0.471104
0.472948
0.46131
0.461294
0.461324
0.46132
0.489357
0.658083
0.770288
0.790711
0.788089
0.767356
0.703761
0.589633
0.490629
0.464138
0.464173
0.554763
0.562309
0.567425
0.600066
0.663049
0.698271
0.686367
0.586265
0.472104
0.463675
0.46367
0.463635
0.463652
0.473648
0.480888
0.461297
0.461367
0.513339
0.481819
0.484114
0.55672
0.669636
0.708812
0.706971
0.697873
0.694524
0.695194
0.724657
0.578609
0.62146
0.7324
0.766123
0.755348
0.697957
0.6785
0.688501
0.651093
0.599068
0.576024
0.569016
0.546283
0.463719
0.463642
0.478333
0.493779
0.461867
0.596059
0.762953
0.719842
0.651279
0.5994
0.64113
0.672397
0.671413
0.671414
0.694556
0.824442
0.867362
0.736345
0.673723
0.759093
0.830949
0.839432
0.822708
0.780323
0.761946
0.736828
0.743774
0.786404
0.790208
0.769653
0.638668
0.471607
0.478336
0.500096
0.556029
0.799351
0.86769
0.861383
0.839581
0.786546
0.750278
0.75276
0.74714
0.749585
0.809968
0.910761
0.89181
0.770007
0.664287
0.738975
0.821771
0.844018
0.845254
0.845133
0.840843
0.840135
0.851319
0.853542
0.853542
0.828005
0.767091
0.585483
0.473897
0.488205
0.659933
0.82996
0.867739
0.867734
0.865163
0.878132
0.882408
0.883562
0.882299
0.887894
0.912661
0.912784
0.887341
0.767959
0.650139
0.71012
0.793341
0.827007
0.839495
0.847735
0.855687
0.857245
0.857245
0.851135
0.830526
0.790129
0.730026
0.630836
0.503211
0.517954
0.667092
0.790705
0.834514
0.84079
0.840746
0.872598
0.911912
0.929876
0.931411
0.931441
0.931441
0.910745
0.856999
0.754172
0.634964
0.672708
0.749263
0.787015
0.807634
0.824622
0.836331
0.840989
0.836507
0.815612
0.770519
0.710606
0.645176
0.584605
0.536491
0.535391
0.61372
0.706211
0.761644
0.782254
0.792687
0.83765
0.895381
0.926368
0.931441
0.931442
0.920799
0.876033
0.801036
0.697481
0.611753
0.651565
0.704619
0.7366
0.757513
0.775191
0.787995
0.792487
0.78037
0.743998
0.683961
0.616922
0.559502
0.524426
0.518491
0.516452
0.536195
0.598032
0.656625
0.69293
0.725058
0.78042
0.848521
0.898828
0.918617
0.91703
0.883442
0.810662
0.728528
0.642682
0.586972
0.613638
0.650506
0.675057
0.693117
0.707828
0.717528
0.71778
0.697649
0.653097
0.593305
0.537583
0.502459
0.487476
0.491489
0.489883
0.485591
0.512845
0.550972
0.585559
0.622465
0.681256
0.7635
0.83581
0.869564
0.86409
0.812964
0.729953
0.646661
0.578107
0.547467
0.559989
0.581775
0.59853
0.612602
0.623928
0.630208
0.625877
0.601702
0.559846
0.516917
0.488874
0.47728
0.472389
0.474643
0.474707
0.466339
0.472074
0.483834
0.499992
0.522262
0.563554
0.639304
0.723424
0.768345
0.76341
0.709077
0.626766
0.555777
0.514831
0.50281
0.50549
0.514136
0.522828
0.531418
0.538395
0.541564
0.535764
0.517497
0.494221
0.477775
0.470288
0.467368
0.465961
0.468213
0.468465
0.457172
0.455831
0.456499
0.458516
0.464113
0.479225
0.518208
0.578657
0.620356
0.621389
0.580175
0.523991
0.486969
0.472206
0.468737
0.468391
0.47071
0.474057
0.477822
0.481033
0.482447
0.479908
0.474007
0.468471
0.464871
0.462743
0.461906
0.462115
0.465105
0.46279
0.449497
0.445684
0.44383
0.44208
0.441056
0.44163
0.448364
0.466537
0.486201
0.490822
0.475513
0.459265
0.452849
0.451483
0.451545
0.452271
0.453765
0.455675
0.457712
0.45957
0.460876
0.461284
0.460869
0.459967
0.458918
0.458131
0.458079
0.45918
0.462938
0.455341
0.442325
0.438124
0.436062
0.434034
0.432457
0.431805
0.431852
0.431947
0.434154
0.436364
0.436716
0.43811
0.440372
0.442308
0.443908
0.445485
0.447129
0.448871
0.450653
0.452348
0.453783
0.454786
0.455242
0.455204
0.454887
0.454684
0.455103
0.456804
0.461145
0.446404
0.436196
0.432801
0.431459
0.430385
0.430425
0.431786
0.432513
0.432757
0.433424
0.433797
0.434298
0.435126
0.436508
0.438127
0.439818
0.441507
0.443158
0.444812
0.446474
0.448083
0.449533
0.450678
0.451395
0.451694
0.451758
0.451924
0.452676
0.454796
0.459541
0.438167
0.431876
0.43008
0.43007
0.430391
0.434146
0.440562
0.442846
0.440468
0.437738
0.4361
0.435406
0.43533
0.43549
0.436198
0.437338
0.438762
0.440266
0.441794
0.443338
0.444862
0.446288
0.447496
0.44837
0.448894
0.44921
0.44962
0.450606
0.453016
0.458012
0.432742
0.42999
0.429964
0.430478
0.437534
0.458361
0.478041
0.478036
0.464941
0.450707
0.442399
0.438308
0.43642
0.435748
0.435756
0.436071
0.436963
0.438173
0.43951
0.44091
0.44233
0.443703
0.444928
0.445896
0.446568
0.447054
0.44763
0.448777
0.451375
0.456465
0.430155
0.429921
0.430324
0.438931
0.470432
0.521795
0.537439
0.526612
0.503359
0.475335
0.453951
0.443424
0.438667
0.436589
0.435802
0.435705
0.43597
0.436751
0.437816
0.439029
0.440314
0.441602
0.442801
0.443807
0.44457
0.445172
0.445863
0.447118
0.449813
0.45484
0.429329
0.429973
0.438523
0.472848
0.540028
0.558737
0.558114
0.554052
0.534409
0.503186
0.470679
0.450692
0.44188
0.438005
0.436302
0.4357
0.435546
0.435865
0.436589
0.437568
0.438687
0.43986
0.440997
0.441999
0.44281
0.44349
0.444263
0.445583
0.448289
0.453097
0.42998
0.438829
0.467749
0.544199
0.558655
0.558188
0.558578
0.557352
0.548849
0.520928
0.487586
0.459605
0.445671
0.439706
0.437066
0.435898
0.435452
0.435378
0.435734
0.43644
0.437365
0.438398
0.439443
0.440408
0.441232
0.441959
0.442789
0.444139
0.446776
0.451218
0.438435
0.4729
0.521552
0.558232
0.55812
0.558552
0.558085
0.557621
0.552842
0.535799
0.499925
0.469358
0.449756
0.441412
0.437844
0.436233
0.435487
0.435157
0.435175
0.435584
0.436292
0.437164
0.438093
0.43899
0.439798
0.440546
0.441406
0.442754
0.44525
0.449195
0.458725
0.534227
0.542222
0.558006
0.55823
0.558044
0.557279
0.556896
0.552209
0.549849
0.515244
0.477285
0.45393
0.442976
0.438466
0.436516
0.435581
0.435067
0.434838
0.434953
0.435425
0.43612
0.436913
0.437717
0.43848
0.439222
0.440088
0.441399
0.443691
0.447036
0.477963
0.538749
0.538989
0.55396
0.545618
0.546715
0.549581
0.550094
0.54669
0.54977
0.538252
0.485585
0.45893
0.444487
0.438905
0.436644
0.435651
0.435063
0.434635
0.434499
0.434729
0.435235
0.435875
0.436564
0.437256
0.437963
0.438807
0.440047
0.442076
0.444755
0.496921
0.537481
0.530941
0.540485
0.520906
0.521072
0.519132
0.518572
0.52146
0.538797
0.538862
0.501205
0.465808
0.446282
0.439293
0.436632
0.435633
0.435081
0.434533
0.434174
0.434171
0.434483
0.434959
0.435513
0.436107
0.436752
0.43754
0.438671
0.440386
0.442376
0.497227
0.531863
0.509275
0.525612
0.514302
0.48524
0.464461
0.465378
0.464217
0.495899
0.536406
0.527674
0.472417
0.448441
0.439722
0.436555
0.435535
0.4351
0.434518
0.433937
0.433724
0.43384
0.434143
0.434546
0.435018
0.435568
0.436266
0.437244
0.438605
0.439926
0.508842
0.517374
0.495495
0.474714
0.460831
0.442736
0.437654
0.441184
0.443506
0.455156
0.520676
0.534076
0.476232
0.450187
0.439969
0.436364
0.435336
0.4351
0.434559
0.43378
0.433356
0.433284
0.433409
0.433646
0.433973
0.434397
0.434962
0.435741
0.436717
0.43743
0.505433
0.473193
0.449207
0.436189
0.431006
0.429404
0.433295
0.439809
0.445852
0.451692
0.501812
0.533851
0.481183
0.451488
0.439825
0.435971
0.435007
0.435073
0.434673
0.433706
0.433048
0.432791
0.432737
0.432797
0.432955
0.433213
0.433596
0.434121
0.434693
0.434903
0.475111
0.437336
0.425178
0.424937
0.425168
0.42935
0.434737
0.441129
0.448356
0.453675
0.487613
0.527481
0.493829
0.454048
0.439496
0.435371
0.434537
0.435018
0.434881
0.433715
0.432795
0.432339
0.432099
0.431969
0.431929
0.431971
0.4321
0.432298
0.432448
0.432291
0.448667
0.42506
0.424883
0.424937
0.426744
0.431801
0.435647
0.440112
0.446626
0.453898
0.476476
0.515769
0.513687
0.458033
0.439123
0.434637
0.433971
0.435027
0.435232
0.433797
0.432588
0.431906
0.431461
0.431108
0.430812
0.430563
0.430358
0.430164
0.429883
0.429445
0.429393
0.424908
0.424958
0.427234
0.43931
0.442884
0.438147
0.438192
0.441642
0.450439
0.467198
0.515978
0.52933
0.460729
0.438533
0.43382
0.433416
0.435202
0.43582
0.434007
0.43242
0.431458
0.430755
0.430112
0.429493
0.428897
0.428312
0.427695
0.426958
0.426191
0.424925
0.42499
0.430491
0.466092
0.488343
0.482224
0.449524
0.438857
0.437611
0.444176
0.46448
0.522232
0.533577
0.460594
0.437369
0.432894
0.433065
0.435783
0.436766
0.43437
0.43228
0.430955
0.429925
0.428936
0.427951
0.426978
0.425997
0.424945
0.423732
0.42259
0.424983
0.434401
0.492324
0.544181
0.542878
0.527187
0.474608
0.443818
0.437185
0.439616
0.469503
0.535636
0.53366
0.459041
0.43562
0.431953
0.433116
0.437059
0.438185
0.434899
0.432136
0.430363
0.428951
0.427586
0.426214
0.424854
0.423477
0.422049
0.420448
0.41903
0.430777
0.519884
0.562393
0.556748
0.537769
0.528386
0.501279
0.452782
0.437162
0.437591
0.477808
0.538771
0.53144
0.4552
0.433646
0.43173
0.433632
0.439383
0.440285
0.435584
0.431928
0.429633
0.427816
0.426044
0.424253
0.422522
0.420836
0.41936
0.417844
0.41655
0.464029
0.588465
0.562882
0.533138
0.510062
0.518742
0.509213
0.458157
0.437086
0.437117
0.483055
0.538776
0.526625
0.449445
0.431995
0.431732
0.434986
0.443467
0.443423
0.436321
0.43154
0.428695
0.42647
0.424238
0.422029
0.420147
0.41872
0.417697
0.417061
0.416465
0.502195
0.588521
0.541451
0.500096
0.494326
0.507027
0.508167
0.462689
0.437063
0.436931
0.47841
0.538772
0.526131
0.444541
0.43175
0.431759
0.437587
0.451201
0.44797
0.436711
0.430782
0.42747
0.424838
0.422137
0.419795
0.418643
0.418626
0.41891
0.420695
0.417962
0.513776
0.574196
0.497105
0.479058
0.494146
0.516063
0.501854
0.46674
0.43691
0.436996
0.463504
0.534188
0.53006
0.441943
0.431736
0.431783
0.442856
0.471207
0.453867
0.436264
0.429469
0.425898
0.422901
0.419998
0.418641
0.418621
0.419813
0.428309
0.440307
0.435969
0.520769
0.556345
0.471857
0.472235
0.518335
0.560373
0.505741
0.470202
0.438973
0.436798
0.447151
0.51005
0.527566
0.440066
0.431727
0.432999
0.454555
0.521575
0.460428
0.434867
0.42763
0.424035
0.42089
0.418648
0.418615
0.4189
0.433474
0.45389
0.499751
0.488246
0.530305
0.553618
0.471841
0.471707
0.548757
0.636106
0.547462
0.476585
0.44651
0.436942
0.436918
0.473561
0.509005
0.437081
0.431708
0.436984
0.477699
0.521621
0.463576
0.432806
0.425459
0.422133
0.419365
0.418625
0.418751
0.432936
0.480049
0.56993
0.67115
0.667903
0.521454
0.540516
0.471674
0.47159
0.569885
0.706208
0.65161
0.509752
0.45212
0.437442
0.437408
0.447051
0.471428
0.432597
0.431712
0.444992
0.501162
0.521577
0.463719
0.430165
0.422978
0.420474
0.418692
0.418696
0.427053
0.47752
0.557239
0.705948
0.849813
0.881717
0.504274
0.504562
0.47156
0.471553
0.597998
0.76087
0.759755
0.623197
0.480965
0.439145
0.438867
0.454054
0.446667
0.43177
0.431939
0.479807
0.511159
0.521618
0.464153
0.426769
0.420175
0.418989
0.418703
0.420683
0.446798
0.513603
0.636304
0.807409
0.935673
0.966794
0.557291
0.533633
0.472141
0.516515
0.681276
0.80592
0.830025
0.797829
0.757206
0.619537
0.522122
0.50635
0.444256
0.431987
0.440941
0.54936
0.51982
0.514129
0.459692
0.422704
0.41771
0.418072
0.419479
0.429089
0.467679
0.542429
0.696544
0.87663
0.970587
0.986039
0.747806
0.727374
0.681942
0.768478
0.812456
0.858466
0.893045
0.932706
0.930161
0.780391
0.589869
0.504101
0.440488
0.431755
0.445619
0.549413
0.577849
0.531516
0.462229
0.419595
0.416236
0.417706
0.422511
0.437855
0.483366
0.587722
0.771888
0.934358
0.984134
0.989591
0.930912
0.936829
0.937152
0.951928
0.935951
0.933552
0.956036
0.979948
0.9681
0.807353
0.568015
0.475347
0.440327
0.432024
0.444428
0.491961
0.706962
0.601972
0.47487
0.417644
0.416176
0.41787
0.42717
0.456228
0.512591
0.65859
0.862044
0.970086
0.98795
0.990024
0.987073
0.989874
0.991202
0.99102
0.98618
0.982468
0.986085
0.988366
0.980599
0.881665
0.571004
0.464829
0.445534
0.443637
0.488135
0.700064
0.793768
0.674572
0.47844
0.416356
0.416162
0.417614
0.432108
0.471806
0.5602
0.753699
0.935343
0.983002
0.988531
0.989998
0.99318
0.993873
0.994241
0.994242
0.993717
0.99244
0.991251
0.988805
0.983422
0.963645
0.825482
0.52402
0.460374
0.510558
0.705242
0.79375
0.793767
0.693702
0.483756
0.416351
0.41617
0.418141
0.439821
0.488484
0.627252
0.8579
0.97256
0.985127
0.98745
0.988973
0.993614
0.994036
0.994242
0.994241
0.99402
0.992721
0.990053
0.985826
0.980221
0.972841
0.956364
0.873327
0.715997
0.741897
0.791036
0.793749
0.793753
0.647158
0.458878
0.416294
0.416182
0.421996
0.454348
0.525714
0.737211
0.9441
0.981956
0.984844
0.985678
0.986886
0.993672
0.994041
0.994241
0.994168
0.993286
0.990614
0.985668
0.979692
0.974415
0.967712
0.959887
0.943003
0.882598
0.8167
0.793095
0.777519
0.718473
0.539817
0.437208
0.416269
0.416237
0.429908
0.467003
0.607663
0.874167
0.977723
0.98404
0.984536
0.984766
0.985145
0.993679
0.99399
0.994118
0.993598
0.991144
0.985651
0.9778
0.970767
0.966773
0.961676
0.954256
0.942875
0.903312
0.811556
0.758555
0.731888
0.628882
0.476483
0.424989
0.41631
0.420654
0.442467
0.510696
0.750246
0.955779
0.984622
0.985125
0.984566
0.984679
0.984511
0.993656
0.993836
0.993613
0.991886
0.986728
0.977255
0.965981
0.95853
0.956341
0.953231
0.946693
0.930181
0.887574
0.791369
0.727751
0.689634
0.560524
0.449327
0.420936
0.417823
0.42649
0.45823
0.614817
0.89129
0.980284
0.986216
0.986386
0.985098
0.985074
0.984486
0.993567
0.993457
0.992182
0.987869
0.978459
0.963998
0.949885
0.942974
0.942504
0.94108
0.934358
0.915022
0.871028
0.784738
0.703501
0.637663
0.506423
0.436403
0.420293
0.420106
0.437291
0.50483
0.770983
0.957713
0.984322
0.986714
0.987353
0.986266
0.98573
0.984568
0.993335
0.992443
0.988626
0.979772
0.964511
0.945419
0.930708
0.925171
0.925779
0.925123
0.916794
0.893669
0.856577
0.787117
0.693529
0.594571
0.472123
0.427862
0.42034
0.423967
0.45886
0.624236
0.887281
0.975441
0.984653
0.986767
0.987555
0.987156
0.986122
0.98491
0.992677
0.989755
0.981011
0.965595
0.944429
0.923874
0.911456
0.907807
0.90844
0.907216
0.896424
0.87217
0.847484
0.810479
0.685408
0.551024
0.45296
0.423886
0.420396
0.432019
0.492886
0.719549
0.931471
0.979258
0.984357
0.986489
0.987555
0.987377
0.986182
0.985101
0.990716
0.983407
0.967215
0.944707
0.921007
0.904009
0.896459
0.894886
0.895449
0.892659
0.879986
0.859005
0.844592
0.835726
0.671856
0.517516
0.443598
0.423461
0.422648
0.441936
0.523718
0.767868
0.951508
0.981568
0.984217
0.986146
0.987437
0.987302
0.986042
0.985061
0.985208
0.970976
0.946627
0.919915
0.900593
0.891582
0.889251
0.889357
0.890023
0.8863
0.873893
0.857884
0.853143
0.854606
0.69331
0.50752
0.44039
0.425023
0.425939
0.450339
0.551721
0.810964
0.96776
0.984406
0.984889
0.986088
0.987355
0.987229
0.985843
0.984874
0.972274
0.951767
0.922169
0.899102
0.889875
0.888215
0.888215
0.889206
0.890305
0.886764
0.8792
0.875206
0.872395
0.869154
0.811222
0.549654
0.443038
0.42664
0.428659
0.455692
0.588968
0.867274
0.980477
0.987484
0.986877
0.986922
0.98758
0.987267
0.985751
0.984679
0.949514
0.927756
0.902231
0.890175
0.888215
0.888215
0.892297
0.898913
0.90061
0.898782
0.895575
0.891355
0.883535
0.876021
0.855309
0.595429
0.448353
0.427705
0.431439
0.464914
0.672217
0.930481
0.988022
0.990099
0.989459
0.988822
0.988531
0.987693
0.985795
0.984635
0.920895
0.905524
0.894092
0.890415
0.891452
0.897805
0.906149
0.911746
0.912246
0.910188
0.905558
0.897632
0.887066
0.877411
0.859708
0.656581
0.451934
0.430218
0.437289
0.503989
0.791869
0.969065
0.990984
0.991786
0.99157
0.991075
0.990205
0.988706
0.986136
0.984635
0.898956
0.894433
0.895419
0.900216
0.90727
0.912149
0.915432
0.917154
0.916912
0.914098
0.90791
0.8988
0.887776
0.875895
0.858128
0.770563
0.497221
0.441212
0.455071
0.651132
0.907463
0.984568
0.991834
0.992608
0.992818
0.992749
0.99192
0.990067
0.986912
0.984635
0.892693
0.894472
0.907186
0.917445
0.920377
0.918355
0.917507
0.91748
0.917277
0.914183
0.907161
0.896827
0.884396
0.870266
0.848566
0.799608
0.651371
0.530096
0.598356
0.804531
0.953878
0.98775
0.991912
0.992838
0.993342
0.993469
0.99302
0.991333
0.987943
0.984644
0.892694
0.90841
0.924673
0.928478
0.925073
0.919131
0.916166
0.915939
0.91413
0.90928
0.900535
0.889282
0.878107
0.865821
0.840266
0.77944
0.690951
0.611975
0.692378
0.866661
0.966562
0.987911
0.991385
0.992769
0.993459
0.99349
0.993448
0.99221
0.988982
0.985326
0.905138
0.925846
0.934216
0.932191
0.925829
0.916849
0.910921
0.909117
0.906307
0.900565
0.891308
0.881912
0.874021
0.862891
0.832825
0.756598
0.657825
0.635901
0.728185
0.894714
0.970423
0.985396
0.989582
0.992117
0.993343
0.993492
0.993489
0.99269
0.989905
0.986539
0.924816
0.934183
0.935236
0.932857
0.924991
0.912647
0.904006
0.900304
0.897209
0.891799
0.883764
0.877303
0.872006
0.860266
0.82476
0.737324
0.628601
0.627775
0.752822
0.916777
0.969657
0.979904
0.985988
0.990562
0.992928
0.993489
0.993488
0.992948
0.990692
0.98793
0.934057
0.935236
0.935233
0.932481
0.921775
0.907471
0.897184
0.892332
0.889328
0.88447
0.878151
0.874151
0.870112
0.85658
0.813351
0.717571
0.609289
0.626556
0.783839
0.925047
0.960004
0.970757
0.980263
0.987885
0.992036
0.993386
0.993488
0.993103
0.991351
0.989229
0.935235
0.935234
0.935236
0.929978
0.916522
0.901644
0.890637
0.885389
0.882618
0.87806
0.87302
0.870846
0.866705
0.850089
0.798377
0.696692
0.598576
0.633304
0.81401
0.926715
0.945473
0.957273
0.971557
0.983593
0.990428
0.993022
0.993488
0.993193
0.991886
0.990298
0.935234
0.935235
0.934873
0.925577
0.910396
0.895243
0.884097
0.878817
0.87616
0.87188
0.867676
0.866046
0.861354
0.839663
0.779671
0.676238
0.598517
0.655249
0.840759
0.919159
0.927963
0.939443
0.958527
0.976811
0.987813
0.992309
0.993382
0.993223
0.992299
0.9911
0.935233
0.935229
0.931701
0.92011
0.903995
0.888282
0.876997
0.871894
0.86943
0.865485
0.862053
0.860304
0.853154
0.825647
0.757804
0.657523
0.598522
0.694615
0.869821
0.912082
0.911288
0.918806
0.939647
0.96629
0.983808
0.991165
0.993135
0.993221
0.992583
0.991658
0.934473
0.93314
0.926517
0.913906
0.89708
0.880445
0.868856
0.864201
0.862135
0.858864
0.856067
0.853596
0.842381
0.806319
0.731873
0.647658
0.626894
0.74901
0.892123
0.90845
0.898979
0.898953
0.915068
0.950619
0.977806
0.98945
0.992768
0.993206
0.992738
0.992018
0.93118
0.92849
0.920333
0.90688
0.889213
0.871278
0.859421
0.855716
0.85421
0.851853
0.849604
0.845174
0.827096
0.77978
0.704323
0.64574
0.662459
0.810213
0.913891
0.908029
0.890997
0.883202
0.889413
0.928723
0.968674
0.986883
0.992238
0.993151
0.992799
0.992228
0.925429
0.922075
0.91337
0.899114
0.880407
0.861121
0.8491
0.846504
0.845654
0.843855
0.841543
0.833061
0.804238
0.74553
0.67736
0.645895
0.71358
0.871162
0.928845
0.911836
0.888741
0.872964
0.870625
0.902336
0.954424
0.982792
0.991421
0.99304
0.992813
0.992331
0.918545
0.914901
0.906123
0.891245
0.871247
0.850775
0.838748
0.836721
0.835977
0.834056
0.830293
0.81559
0.773078
0.705378
0.658356
0.672783
0.786557
0.912963
0.933233
0.917429
0.891442
0.869243
0.862564
0.878783
0.933295
0.975779
0.990025
0.992866
0.992813
0.992365
0.911291
0.907612
0.898965
0.883477
0.861783
0.840237
0.828406
0.826408
0.825072
0.822138
0.815178
0.790473
0.733192
0.668433
0.653927
0.708178
0.856829
0.931901
0.933233
0.920699
0.897587
0.870051
0.862025
0.865553
0.908383
0.963619
0.987404
0.992582
0.99281
0.992368
0.903747
0.90041
0.891613
0.874928
0.851175
0.828964
0.817694
0.815383
0.81308
0.808183
0.794653
0.755252
0.688904
0.642711
0.654021
0.772565
0.90923
0.935578
0.932793
0.921126
0.903647
0.876554
0.862025
0.862025
0.887577
0.94574
0.982367
0.991964
0.992793
0.992351
0.895948
0.893104
0.883344
0.864614
0.839033
0.816886
0.806683
0.803539
0.799405
0.790499
0.765157
0.709051
0.646881
0.637949
0.693892
0.852227
0.93189
0.935564
0.929281
0.918434
0.906869
0.887199
0.862025
0.862025
0.87464
0.926146
0.973458
0.990266
0.992648
0.992264
0.88774
0.885087
0.873632
0.852426
0.825726
0.804157
0.794867
0.7898
0.781491
0.764228
0.723157
0.658034
0.619431
0.638059
0.773695
0.910466
0.935294
0.933319
0.923564
0.91364
0.90763
0.899963
0.880804
0.862941
0.8701
0.909357
0.960057
0.98594
0.991852
0.991878
0.8787
0.875738
0.862415
0.838895
0.811136
0.789493
0.779517
0.770445
0.75491
0.72598
0.670321
0.609639
0.613407
0.696668
0.867041
0.9333
0.935281
0.929234
0.918009
0.910046
0.907814
0.908604
0.901322
0.883522
0.876815
0.898118
0.942224
0.976499
0.988705
0.990251
0.868388
0.864628
0.849411
0.823932
0.79431
0.769836
0.756505
0.742111
0.718931
0.67808
0.616364
0.580889
0.623173
0.800431
0.921437
0.936997
0.934139
0.925025
0.914356
0.909087
0.909136
0.914776
0.91657
0.903379
0.889923
0.894047
0.922376
0.958555
0.978768
0.984395
0.856222
0.851498
0.834012
0.806345
0.772877
0.743149
0.726072
0.706643
0.675366
0.62255
0.565965
0.574855
0.702621
0.895547
0.936803
0.937001
0.932202
0.922133
0.912988
0.909096
0.911625
0.919537
0.926736
0.921002
0.903777
0.895038
0.907319
0.931464
0.955239
0.968279
0.841802
0.8362
0.815701
0.784262
0.744971
0.71094
0.689933
0.663454
0.621214
0.566616
0.538624
0.596265
0.824444
0.933743
0.939445
0.936967
0.930555
0.920767
0.913006
0.911173
0.914754
0.922072
0.932751
0.93549
0.92137
0.903713
0.903174
0.906395
0.920457
0.938492
0.825257
0.81861
0.793665
0.755362
0.711029
0.673803
0.645629
0.609984
0.56104
0.522142
0.534633
0.699795
0.914206
0.940955
0.93976
0.936655
0.92983
0.920534
0.914937
0.915098
0.917243
0.923269
0.936493
0.945086
0.940668
0.922446
0.903305
0.898789
0.898827
0.908136
0.806733
0.798057
0.765717
0.718193
0.670989
0.629843
0.593172
0.554495
0.514506
0.507486
0.579496
0.848507
0.939105
0.942123
0.939863
0.936476
0.929782
0.921836
0.918158
0.918158
0.918489
0.924316
0.939032
0.950283
0.952927
0.943413
0.921795
0.906669
0.898787
0.89638
0.785205
0.771709
0.728233
0.673373
0.623967
0.580972
0.542671
0.513789
0.494104
0.507583
0.721321
0.932153
0.944345
0.942323
0.940026
0.936896
0.930865
0.924582
0.921145
0.919566
0.918983
0.925624
0.941295
0.952946
0.957968
0.956174
0.945415
0.930404
0.914835
0.905702
0.756997
0.735053
0.680358
0.622233
0.574091
0.535876
0.506889
0.493723
0.493852
0.580496
0.876221
0.944724
0.944728
0.942565
0.940898
0.938385
0.933179
0.927521
0.923199
0.920166
0.919331
0.926965
0.943038
0.954225
0.959492
0.960959
0.95889
0.952669
0.941564
0.930072
0.717653
0.686673
0.626011
0.569253
0.530703
0.505139
0.490599
0.487709
0.495296
0.738656
0.939251
0.945279
0.944754
0.943269
0.942801
0.940746
0.935717
0.929714
0.924284
0.920482
0.919709
0.927986
0.944021
0.954747
0.959857
0.962335
0.963726
0.963782
0.960586
0.954365
0.668373
0.631189
0.571082
0.525179
0.502918
0.492152
0.487396
0.487399
0.573663
0.878829
0.945287
0.945279
0.944783
0.944924
0.9453
0.943056
0.937648
0.931051
0.924783
0.920657
0.92001
0.928671
0.944485
0.954976
0.95998
0.962663
0.965058
0.967517
0.968643
0.967664
0.615316
0.575859
0.525167
0.499235
0.492121
0.489915
0.487396
0.493339
0.728828
0.930571
0.945281
0.945303
0.94534
0.947338
0.947584
0.944626
0.938735
0.93186
0.925186
0.920827
0.920262
0.929002
0.944639
0.955082
0.960078
0.96282
0.965368
0.968497
0.971354
0.972677
0.564256
0.531325
0.498426
0.490154
0.489777
0.489913
0.487398
0.558704
0.853342
0.939188
0.945225
0.945335
0.947022
0.949517
0.949021
0.945359
0.939207
0.932528
0.925888
0.921241
0.920622
0.929033
0.944199
0.95482
0.960104
0.962924
0.965493
0.968754
0.972294
0.974523
0.523274
0.509263
0.489158
0.488611
0.488433
0.487289
0.488028
0.68764
0.901587
0.939344
0.944487
0.946097
0.948947
0.95012
0.949631
0.945551
0.939348
0.933163
0.926874
0.921889
0.920952
0.928418
0.94256
0.95365
0.959682
0.962926
0.96554
0.96879
0.972608
0.97546
0.501549
0.506001
0.487018
0.487204
0.486987
0.483823
0.525103
0.785901
0.912858
0.93748
0.944216
0.94736
0.950133
0.950145
0.949744
0.94548
0.939346
0.933566
0.927572
0.922298
0.921035
0.926873
0.940095
0.95167
0.95861
0.962562
0.965495
0.968787
0.972705
0.976119
0.497724
0.507479
0.485953
0.484443
0.486364
0.48383
0.605366
0.828513
0.913007
0.934727
0.944569
0.948383
0.950156
0.950126
0.949648
0.944958
0.938874
0.933612
0.927655
0.922217
0.920392
0.925156
0.937774
0.949463
0.957141
0.961734
0.96514
0.968687
0.972751
0.976706
0.497709
0.507365
0.484825
0.482304
0.483425
0.485624
0.666211
0.83854
0.905397
0.932579
0.945213
0.949079
0.950138
0.950132
0.949106
0.943407
0.936989
0.931514
0.924779
0.9192
0.917804
0.924283
0.936253
0.947402
0.955446
0.960536
0.964382
0.968294
0.972716
0.977088
0.49779
0.507379
0.483069
0.478705
0.475023
0.509383
0.690381
0.834943
0.893716
0.931309
0.945773
0.94955
0.950129
0.95012
0.947654
0.939986
0.931522
0.923228
0.914989
0.91094
0.914196
0.924213
0.935739
0.945851
0.953637
0.958913
0.963162
0.967593
0.972625
0.977107
0.485895
0.507358
0.479344
0.474084
0.470436
0.534293
0.690813
0.806488
0.881765
0.930199
0.9461
0.949826
0.95012
0.949959
0.944627
0.932886
0.919425
0.906725
0.898778
0.900482
0.912218
0.925143
0.936028
0.945108
0.951987
0.95694
0.961417
0.96653
0.972471
0.977111
0.469812
0.47627
0.472059
0.470403
0.470438
0.540305
0.651695
0.75939
0.866797
0.928298
0.946278
0.949971
0.950125
0.948823
0.938455
0.919694
0.899915
0.88606
0.882497
0.894269
0.912247
0.927115
0.937067
0.944866
0.950574
0.954836
0.959299
0.965165
0.972206
0.977096
0.469797
0.469799
0.469783
0.469786
0.484416
0.535156
0.597146
0.70449
0.842538
0.924649
0.946388
0.95001
0.950098
0.945428
0.92726
0.900193
0.877874
0.868531
0.87423
0.893315
0.914323
0.92918
0.938081
0.944634
0.949224
0.952783
0.957063
0.963602
0.971781
0.977085
0.469814
0.469793
0.469797
0.47981
0.504562
0.520851
0.554373
0.645798
0.80712
0.919038
0.94647