/*--------------------------------*- C++ -*----------------------------------*\
| =========                 |                                                 |
| \\      /  F ield         | OpenFOAM: The Open Source CFD Toolbox           |
|  \\    /   O peration     | Version:  v1606+                                |
|   \\  /    A nd           | Web:      www.OpenFOAM.com                      |
|    \\/     M anipulation  |                                                 |
\*---------------------------------------------------------------------------*/
FoamFile
{
    version     2.0;
    format      ascii;
    class       volScalarField;
    location    "1.35";
    object      alpha.particles;
}
// * * * * * * * * * * * * * * * * * * * * * * * * * * * * * * * * * * * * * //

dimensions      [0 0 0 0 0 0 0];

internalField   nonuniform List<scalar> 
6000
(
0.440829
0.440829
0.440829
0.440828
0.427046
0.399781
0.400481
0.40048
0.378302
0.354162
0.355172
0.371594
0.381394
0.381395
0.381395
0.381225
0.379936
0.375082
0.368156
0.393864
0.405389
0.40539
0.401376
0.425997
0.441837
0.447041
0.447306
0.447306
0.447306
0.447306
0.428351
0.410465
0.39745
0.376033
0.350628
0.349231
0.349265
0.348408
0.347313
0.347307
0.347251
0.347321
0.349793
0.352225
0.351447
0.350726
0.350713
0.350673
0.3507
0.350715
0.351644
0.352629
0.352665
0.352612
0.378254
0.400293
0.421557
0.431505
0.434209
0.43894
0.473531
0.473774
0.46892
0.442424
0.404608
0.37594
0.358316
0.353629
0.347371
0.34731
0.347325
0.349204
0.350629
0.353825
0.354972
0.354072
0.352598
0.350716
0.350714
0.350749
0.35077
0.361052
0.375228
0.40913
0.455747
0.47909
0.481949
0.481944
0.472188
0.462555
0.459231
0.474044
0.487854
0.488197
0.466181
0.42621
0.368338
0.347433
0.347383
0.347359
0.347324
0.351779
0.358154
0.360502
0.363422
0.362082
0.356463
0.350727
0.350749
0.35077
0.350805
0.372505
0.41239
0.471254
0.513636
0.513629
0.480096
0.438675
0.412034
0.405121
0.369022
0.393527
0.429442
0.489514
0.497776
0.497502
0.421482
0.361003
0.348751
0.352948
0.369155
0.395225
0.406357
0.403706
0.405263
0.405512
0.399141
0.384105
0.375577
0.368542
0.370955
0.409638
0.471886
0.516257
0.516426
0.478311
0.395748
0.34907
0.330656
0.329338
0.302781
0.304899
0.322904
0.389608
0.484961
0.497776
0.495021
0.415876
0.384054
0.396171
0.433682
0.469182
0.482484
0.477859
0.476889
0.478556
0.4757
0.4618
0.449568
0.438579
0.440004
0.471558
0.515342
0.516541
0.516269
0.387072
0.329838
0.328441
0.328439
0.328437
0.302796
0.302807
0.302823
0.304559
0.364079
0.484927
0.51584
0.484492
0.45597
0.469586
0.503112
0.516258
0.516461
0.516391
0.516495
0.516354
0.516379
0.516257
0.516304
0.515136
0.513782
0.516254
0.516541
0.516301
0.476295
0.364511
0.331945
0.328442
0.328441
0.328439
0.302809
0.302823
0.302838
0.302855
0.32246
0.408448
0.516081
0.516205
0.512981
0.516348
0.516338
0.516464
0.516412
0.516536
0.516417
0.516499
0.516356
0.51638
0.516261
0.516422
0.516274
0.51654
0.516303
0.516638
0.422253
0.389936
0.36999
0.351889
0.342898
0.339615
0.317242
0.318139
0.321607
0.331124
0.352175
0.39781
0.512633
0.516214
0.516343
0.516329
0.516457
0.516405
0.516549
0.516451
0.516599
0.50741
0.492655
0.473564
0.449448
0.439274
0.466953
0.508219
0.513282
0.419533
0.362552
0.413839
0.432777
0.413391
0.392925
0.384403
0.364333
0.368107
0.380005
0.398351
0.398411
0.394795
0.451725
0.51619
0.515849
0.486302
0.451486
0.407077
0.369056
0.345671
0.3175
0.292117
0.269519
0.246712
0.227084
0.22384
0.250755
0.296202
0.30566
0.249527
0.264007
0.38882
0.464767
0.467532
0.446582
0.437205
0.416578
0.42236
0.439385
0.446011
0.408796
0.331456
0.2929
0.358439
0.30249
0.262461
0.244548
0.226947
0.208287
0.194037
0.17931
0.164698
0.146148
0.137801
0.136361
0.139214
0.151869
0.173604
0.178262
0.169356
0.180313
0.308202
0.449291
0.481664
0.469583
0.468931
0.442057
0.445438
0.457478
0.446732
0.349944
0.205084
0.141843
0.147114
0.140021
0.161006
0.189768
0.199963
0.195408
0.186238
0.17344
0.158837
0.136128
0.136119
0.136113
0.137161
0.154078
0.169184
0.16504
0.161882
0.161753
0.225994
0.396211
0.481638
0.470218
0.480023
0.446363
0.445445
0.457446
0.418093
0.257034
0.118719
0.0944161
0.0967127
0.118555
0.159845
0.196642
0.211026
0.209432
0.200648
0.18732
0.167408
0.139939
0.136127
0.136119
0.145029
0.170958
0.186178
0.173663
0.161891
0.161874
0.18468
0.348872
0.479727
0.470228
0.483276
0.449782
0.445609
0.458935
0.409517
0.20233
0.0944247
0.0946634
0.0977768
0.121475
0.162027
0.203826
0.228594
0.229731
0.220757
0.205895
0.178434
0.147512
0.136131
0.138331
0.157926
0.193092
0.214676
0.192468
0.161894
0.161886
0.174862
0.310097
0.478322
0.470227
0.483376
0.459718
0.445706
0.469967
0.425614
0.176431
0.0946674
0.0944789
0.102447
0.128378
0.16843
0.212554
0.243411
0.246177
0.23764
0.219306
0.186415
0.155897
0.139913
0.145088
0.172884
0.216287
0.244139
0.21632
0.171898
0.161886
0.174062
0.286785
0.471552
0.471979
0.483435
0.474676
0.445701
0.478133
0.434266
0.166028
0.0944965
0.0946948
0.108583
0.138328
0.179347
0.224841
0.259435
0.26397
0.253504
0.228702
0.191881
0.163099
0.149419
0.15584
0.187704
0.239051
0.273579
0.24497
0.195429
0.168942
0.182345
0.282737
0.460479
0.489996
0.484888
0.488374
0.45553
0.481742
0.431659
0.168218
0.0946989
0.094847
0.116237
0.150454
0.193957
0.242564
0.278821
0.283158
0.268325
0.236633
0.196008
0.169305
0.160777
0.168552
0.203186
0.262115
0.302937
0.278539
0.230477
0.196598
0.208696
0.294086
0.449859
0.502246
0.497559
0.503823
0.474203
0.487031
0.409712
0.181196
0.101919
0.100909
0.127604
0.166718
0.215113
0.267159
0.301993
0.302851
0.281956
0.243843
0.199552
0.175283
0.171647
0.183047
0.222735
0.287944
0.333788
0.320354
0.280445
0.248257
0.254399
0.312881
0.431358
0.522415
0.522483
0.519092
0.505078
0.497534
0.37807
0.198533
0.120762
0.118619
0.147478
0.193152
0.248295
0.30059
0.327872
0.32239
0.29467
0.251271
0.203983
0.182467
0.183194
0.201553
0.252188
0.327987
0.385796
0.380074
0.346906
0.319003
0.312704
0.335999
0.407534
0.507083
0.529718
0.524317
0.524366
0.510322
0.357799
0.21585
0.151782
0.151227
0.183518
0.238379
0.299271
0.343932
0.356009
0.342039
0.309742
0.260859
0.211347
0.192765
0.198185
0.23032
0.303986
0.399393
0.453231
0.44623
0.422627
0.399614
0.379291
0.370685
0.392967
0.44266
0.514308
0.518965
0.516172
0.480129
0.366214
0.250633
0.198698
0.2029
0.24541
0.311105
0.368871
0.394035
0.389189
0.363953
0.331242
0.275168
0.22438
0.208951
0.222043
0.280199
0.383837
0.476051
0.505198
0.503985
0.492983
0.476259
0.447961
0.413882
0.397351
0.404045
0.427585
0.515509
0.464505
0.457663
0.408425
0.320881
0.27138
0.283477
0.340205
0.407435
0.445553
0.44714
0.428875
0.394029
0.362685
0.297183
0.245388
0.234945
0.263823
0.354235
0.466079
0.521614
0.533722
0.537024
0.534905
0.528076
0.509908
0.469163
0.420489
0.40428
0.404357
0.518168
0.457674
0.457725
0.469494
0.430698
0.378693
0.396606
0.451455
0.494632
0.50684
0.498486
0.475134
0.436998
0.402655
0.329652
0.275965
0.275494
0.329075
0.437312
0.51997
0.540746
0.546177
0.549521
0.550419
0.549101
0.543883
0.52394
0.474062
0.424023
0.410301
0.531145
0.480108
0.479515
0.521969
0.516214
0.485919
0.50058
0.525387
0.536697
0.538059
0.533136
0.517848
0.486009
0.447708
0.372152
0.317946
0.333308
0.410408
0.506253
0.542755
0.546618
0.549886
0.553399
0.555857
0.556097
0.555558
0.550681
0.527929
0.475921
0.435315
0.545071
0.529487
0.530877
0.545271
0.536457
0.535207
0.54077
0.543197
0.544483
0.547049
0.546116
0.54129
0.524113
0.489561
0.419042
0.372307
0.40476
0.487736
0.540657
0.544375
0.545909
0.548927
0.553207
0.556853
0.556902
0.556877
0.556878
0.551968
0.524895
0.472665
0.546631
0.546588
0.546612
0.546526
0.536275
0.535563
0.54111
0.542619
0.543957
0.547929
0.54831
0.54779
0.541891
0.519748
0.461814
0.433207
0.475605
0.531824
0.541221
0.541365
0.541855
0.544626
0.549154
0.552167
0.556814
0.55691
0.556882
0.556872
0.547071
0.497427
0.546641
0.546669
0.546561
0.546536
0.53903
0.535658
0.539466
0.540964
0.541789
0.545425
0.548304
0.548312
0.546617
0.535606
0.495992
0.491054
0.52327
0.537995
0.539263
0.538691
0.540281
0.541418
0.534705
0.503586
0.520876
0.556684
0.556908
0.556878
0.555516
0.50589
0.546667
0.546589
0.478238
0.417422
0.488045
0.537306
0.540879
0.540849
0.520036
0.510734
0.546371
0.548306
0.54697
0.541925
0.522871
0.532474
0.536454
0.536824
0.533554
0.524844
0.503376
0.452824
0.361011
0.269631
0.288465
0.462577
0.55663
0.556903
0.556802
0.509711
0.540319
0.451234
0.285519
0.216081
0.258893
0.356171
0.4163
0.393642
0.33102
0.313629
0.443034
0.548077
0.544228
0.542409
0.539964
0.478221
0.42502
0.402151
0.374084
0.328392
0.262252
0.185573
0.127149
0.0997166
0.109228
0.230235
0.486301
0.556748
0.556821
0.516649
0.467956
0.36147
0.228884
0.150119
0.128111
0.145906
0.171131
0.155243
0.120783
0.114221
0.192468
0.384608
0.534941
0.542156
0.419725
0.232328
0.172226
0.154681
0.135504
0.113032
0.0925848
0.0790131
0.0752327
0.0752251
0.0799095
0.112704
0.307562
0.546995
0.556718
0.520427
0.470857
0.361626
0.217557
0.137331
0.107052
0.101829
0.102473
0.0888841
0.0700999
0.0691825
0.0971878
0.177725
0.30758
0.348018
0.183569
0.105456
0.0898769
0.0844884
0.0798559
0.0753288
0.0737392
0.0737391
0.0742422
0.077636
0.0834688
0.097507
0.203152
0.471179
0.556565
0.509769
0.490596
0.366448
0.198706
0.131976
0.104353
0.0964413
0.0928776
0.0798153
0.0683338
0.0683708
0.0921787
0.141175
0.185915
0.195943
0.132439
0.0990154
0.0884932
0.0844385
0.0812001
0.0777971
0.0763864
0.0762601
0.0780861
0.0835164
0.09006
0.100342
0.178059
0.401064
0.531844
0.496662
0.490626
0.370583
0.189398
0.133282
0.10786
0.0945375
0.0852664
0.0746063
0.0683708
0.0683533
0.0930912
0.140175
0.18197
0.186984
0.135313
0.103784
0.0930253
0.0890437
0.0863177
0.0831446
0.0816575
0.0814027
0.0837291
0.0892516
0.0960568
0.106238
0.174577
0.380412
0.497312
0.496373
0.49065
0.368688
0.199191
0.159283
0.127897
0.0964183
0.0790705
0.0707894
0.0683507
0.0697575
0.0933521
0.135857
0.17694
0.187901
0.142
0.109797
0.0980115
0.0941081
0.0914738
0.0883653
0.0868276
0.086598
0.0889189
0.0944579
0.101675
0.113209
0.177993
0.388596
0.481087
0.496292
0.490678
0.362702
0.237791
0.20957
0.167145
0.105273
0.0770065
0.0694018
0.0683768
0.0735009
0.0940159
0.132994
0.175483
0.188579
0.148984
0.115736
0.102398
0.098042
0.0957096
0.0928023
0.0913576
0.0913373
0.0938058
0.0996101
0.107427
0.120872
0.187868
0.400118
0.498071
0.499634
0.490695
0.358311
0.285511
0.263727
0.208305
0.119422
0.0776952
0.0695305
0.0712208
0.0790726
0.0954716
0.128755
0.17346
0.198238
0.16356
0.124467
0.107663
0.101945
0.0996963
0.0970231
0.0957185
0.0960323
0.0988473
0.105061
0.11369
0.129331
0.197397
0.406918
0.514211
0.508773
0.488688
0.371116
0.334365
0.30535
0.228229
0.131127
0.0801495
0.0702663
0.0761517
0.0857127
0.0979528
0.124686
0.170279
0.210377
0.184548
0.137927
0.115971
0.107312
0.104433
0.101765
0.100328
0.100896
0.104071
0.110787
0.120443
0.138497
0.206502
0.40422
0.514277
0.5121
0.450749
0.406646
0.380223
0.334706
0.230168
0.13601
0.0853121
0.07401
0.0827763
0.0944934
0.103596
0.124148
0.167969
0.215199
0.201469
0.152954
0.127226
0.115452
0.111183
0.108138
0.105938
0.106309
0.109611
0.116855
0.127776
0.14861
0.222035
0.408697
0.506595
0.503603
0.443495
0.430024
0.415337
0.364708
0.239568
0.142803
0.0967532
0.0856692
0.0946305
0.107671
0.115996
0.132452
0.173011
0.218007
0.21141
0.16598
0.13915
0.125894
0.120255
0.116654
0.113599
0.113299
0.116207
0.123776
0.136122
0.160162
0.246799
0.432534
0.487705
0.499198
0.4546
0.456467
0.44944
0.383987
0.256684
0.16246
0.119918
0.10857
0.115004
0.126184
0.134505
0.148786
0.184364
0.224807
0.221614
0.178729
0.151894
0.137868
0.131138
0.12704
0.123794
0.12308
0.125285
0.132722
0.146445
0.174073
0.270685
0.450895
0.505058
0.508963
0.473957
0.47855
0.477034
0.409092
0.288299
0.197633
0.156021
0.142786
0.143429
0.150595
0.157404
0.169729
0.200545
0.235185
0.231588
0.191372
0.166373
0.152162
0.144581
0.139928
0.136763
0.13615
0.138149
0.145371
0.160336
0.191958
0.292663
0.460449
0.518953
0.521448
0.489633
0.494684
0.493559
0.436816
0.333605
0.251776
0.208239
0.18889
0.181032
0.181783
0.184327
0.193862
0.220948
0.249767
0.243266
0.206016
0.183419
0.169623
0.16152
0.156392
0.153415
0.153393
0.156025
0.163778
0.180258
0.216382
0.313044
0.461687
0.53058
0.530941
0.493304
0.499058
0.494732
0.457477
0.38777
0.324059
0.279974
0.251201
0.232303
0.22312
0.21895
0.224519
0.246886
0.268541
0.258185
0.225885
0.205019
0.191805
0.183376
0.177993
0.175308
0.176451
0.180983
0.190817
0.21021
0.250529
0.335223
0.463131
0.533896
0.533921
0.493411
0.499211
0.491067
0.469649
0.439488
0.405019
0.370101
0.336122
0.306134
0.283609
0.268461
0.266885
0.281081
0.293362
0.279864
0.253632
0.234426
0.221616
0.21283
0.207374
0.205106
0.208349
0.216693
0.231141
0.255467
0.298229
0.369643
0.474871
0.521141
0.533921
0.493429
0.499254
0.490469
0.486305
0.486196
0.479657
0.464462
0.438407
0.404389
0.369536
0.340631
0.327143
0.327913
0.328426
0.312834
0.292067
0.274954
0.26252
0.253529
0.248337
0.246764
0.253315
0.26766
0.289401
0.319253
0.360861
0.417736
0.488355
0.504931
0.533927
0.493428
0.501422
0.505158
0.516173
0.525344
0.528315
0.525753
0.514438
0.494287
0.465218
0.432009
0.406389
0.391088
0.378471
0.361316
0.344041
0.328962
0.317079
0.308417
0.303957
0.303542
0.313981
0.335021
0.364067
0.396319
0.429704
0.464025
0.49703
0.505281
0.519904
0.497647
0.518551
0.53073
0.538975
0.542189
0.542099
0.535122
0.528895
0.527643
0.522499
0.507033
0.485939
0.464244
0.44336
0.424706
0.409227
0.395993
0.385146
0.377267
0.373555
0.374368
0.387045
0.411051
0.441058
0.46758
0.48582
0.496983
0.505139
0.510522
0.511178
0.517268
0.537945
0.54279
0.542764
0.542711
0.533568
0.523737
0.521904
0.523535
0.526549
0.527657
0.527068
0.518946
0.504835
0.488882
0.475192
0.464298
0.455518
0.449255
0.446565
0.447979
0.458638
0.476771
0.4963
0.510281
0.516811
0.517443
0.515221
0.51661
0.511336
0.53756
0.543036
0.542879
0.5419
0.526328
0.505069
0.502562
0.506839
0.513181
0.521834
0.527665
0.530476
0.533817
0.534041
0.528001
0.519463
0.511926
0.506091
0.502298
0.501079
0.502711
0.507815
0.514535
0.520972
0.526412
0.529939
0.530438
0.527668
0.526288
0.513487
0.54547
0.542997
0.526454
0.525967
0.49267
0.481304
0.483283
0.496632
0.506138
0.514758
0.521857
0.526911
0.532345
0.53806
0.539336
0.5364
0.532269
0.528974
0.52715
0.526811
0.527512
0.528586
0.529579
0.530815
0.533352
0.536223
0.537843
0.537411
0.53657
0.521125
0.543997
0.508203
0.501426
0.501565
0.494827
0.478733
0.478585
0.489645
0.501936
0.509205
0.514923
0.51979
0.527438
0.538022
0.542632
0.542342
0.539876
0.53756
0.536312
0.536012
0.5362
0.536501
0.536634
0.536858
0.538185
0.54027
0.541949
0.542499
0.541517
0.526498
0.523619
0.501431
0.501422
0.50711
0.540764
0.511479
0.479763
0.482898
0.498168
0.50615
0.509709
0.512791
0.521012
0.537429
0.545116
0.545952
0.54424
0.542353
0.541313
0.541031
0.541131
0.541309
0.541398
0.541507
0.542226
0.543572
0.544922
0.545504
0.543156
0.526482
0.501512
0.50145
0.51821
0.551903
0.563106
0.548435
0.500347
0.481638
0.493951
0.503265
0.505231
0.505807
0.519158
0.537679
0.547625
0.548889
0.5475
0.545957
0.545132
0.544899
0.544954
0.545072
0.545154
0.54525
0.545641
0.546459
0.547523
0.548176
0.545403
0.527462
0.501557
0.537085
0.561162
0.566174
0.564209
0.550241
0.515504
0.481495
0.4912
0.501486
0.502824
0.50281
0.520546
0.540315
0.550276
0.551234
0.550021
0.548856
0.548273
0.548105
0.548129
0.548197
0.548244
0.548298
0.54848
0.548932
0.549746
0.550495
0.54796
0.530182
0.533273
0.566109
0.566256
0.566264
0.560833
0.536905
0.512504
0.480038
0.490872
0.49834
0.49973
0.505952
0.52645
0.545657
0.552488
0.552902
0.55199
0.551245
0.550897
0.550798
0.550806
0.550832
0.550831
0.550815
0.550839
0.551009
0.551542
0.552238
0.550079
0.53383
0.563404
0.566275
0.566298
0.566153
0.545845
0.518117
0.494209
0.480015
0.488062
0.49283
0.500817
0.518349
0.53808
0.550478
0.553994
0.554123
0.553628
0.553271
0.553122
0.553087
0.55309
0.553081
0.55303
0.552935
0.55282
0.552758
0.552982
0.553462
0.551574
0.537504
0.566287
0.566303
0.566177
0.547396
0.511261
0.500733
0.481976
0.480013
0.482482
0.496169
0.514017
0.534826
0.547568
0.55346
0.555094
0.555221
0.555101
0.555037
0.555036
0.555057
0.555065
0.55503
0.554932
0.554762
0.554522
0.554259
0.554173
0.554357
0.552679
0.540818
0.566298
0.566188
0.550499
0.509421
0.494845
0.485944
0.481024
0.480222
0.491747
0.512407
0.532613
0.546523
0.552726
0.555312
0.556137
0.556364
0.556491
0.556607
0.556709
0.556778
0.556798
0.55675
0.556616
0.556381
0.556033
0.555588
0.55521
0.555059
0.553559
0.543728
0.566152
0.548137
0.505241
0.503111
0.495098
0.485902
0.48723
0.491679
0.51209
0.532049
0.545943
0.552754
0.555562
0.556758
0.557266
0.557565
0.557813
0.558026
0.558194
0.558305
0.558347
0.558301
0.558148
0.557866
0.557429
0.556826
0.556168
0.555655
0.554256
0.546219
0.527469
0.493985
0.503482
0.512454
0.502441
0.490689
0.498538
0.51017
0.531808
0.545816
0.553105
0.55623
0.557502
0.558093
0.558455
0.558765
0.559056
0.559317
0.559531
0.559683
0.559755
0.559729
0.55958
0.559275
0.558777
0.558044
0.557128
0.556223
0.554781
0.548247
0.383981
0.434432
0.522696
0.525466
0.517275
0.50649
0.511034
0.526895
0.545147
0.55363
0.557184
0.558531
0.559027
0.559299
0.559566
0.559863
0.560174
0.560474
0.560736
0.560937
0.561053
0.561066
0.560946
0.560652
0.560129
0.559308
0.558173
0.55686
0.55518
0.549782
0.332956
0.344154
0.474425
0.525522
0.525541
0.520808
0.524372
0.541101
0.553658
0.558315
0.559711
0.559967
0.560002
0.560108
0.560353
0.560691
0.561068
0.561443
0.561784
0.562062
0.562249
0.562323
0.56226
0.562014
0.561516
0.560667
0.559379
0.557681
0.555565
0.550843
0.332956
0.332957
0.361192
0.471415
0.526239
0.528226
0.538413
0.552101
0.559138
0.560934
0.56081
0.560285
0.560061
0.560211
0.560593
0.561105
0.561636
0.562147
0.562614
0.563012
0.563313
0.563488
0.563513
0.563354
0.562935
0.562136
0.560796
0.558798
0.556103
0.551535
0.332957
0.332957
0.332958
0.385151
0.506285
0.535086
0.550524
0.559218
0.561962
0.561529
0.560396
0.55959
0.559435
0.559802
0.560473
0.561236
0.561967
0.56263
0.563225
0.563752
0.564192
0.56451
0.564668
0.564637
0.564353
0.563686
0.562423
0.560282
0.556991
0.552061
0.340152
0.34721
0.335324
0.388476
0.498954
0.544869
0.558951
0.562557
0.562127
0.560325
0.5581
0.557226
0.557672
0.558889
0.560291
0.561496
0.562427
0.563169
0.563798
0.564367
0.56489
0.565339
0.56566
0.565797
0.565698
0.565245
0.564195
0.562125
0.558399
0.552712
0.378472
0.4013
0.378499
0.434061
0.519137
0.556156
0.562592
0.562588
0.560197
0.555661
0.552627
0.553678
0.556153
0.559315
0.561441
0.562764
0.563611
0.564185
0.564644
0.565083
0.565543
0.566016
0.566448
0.566758
0.566872
0.566692
0.565982
0.564214
0.560377
0.553835
0.450827
0.476502
0.455318
0.497706
0.546627
0.562614
0.562663
0.560754
0.551114
0.546014
0.547291
0.553307
0.559239
0.562945
0.564828
0.565597
0.565868
0.565937
0.565981
0.566099
0.566333
0.56668
0.567093
0.567492
0.567787
0.567889
0.567599
0.566344
0.562806
0.555744
0.515729
0.526951
0.513288
0.536715
0.558825
0.562877
0.562534
0.547699
0.539485
0.5402
0.550845
0.560609
0.566569
0.568613
0.568925
0.56868
0.568265
0.567838
0.567502
0.567311
0.567291
0.567433
0.567714
0.568078
0.568439
0.568735
0.568846
0.568242
0.565405
0.558539
0.51851
0.541935
0.539291
0.551468
0.562472
0.562851
0.555293
0.53918
0.539425
0.548771
0.562113
0.570017
0.572378
0.571981
0.570903
0.569812
0.569037
0.56854
0.56823
0.568064
0.568027
0.568112
0.568328
0.568625
0.568942
0.569267
0.569602
0.569645
0.567816
0.561975
0.505584
0.542579
0.550945
0.558449
0.564159
0.5627
0.540712
0.539309
0.547431
0.561706
0.571805
0.575164
0.57394
0.571334
0.569372
0.568096
0.567453
0.567246
0.567322
0.567555
0.567873
0.56827
0.56871
0.5691
0.569427
0.569674
0.570018
0.570456
0.569682
0.565495
0.494907
0.540152
0.556369
0.562359
0.564758
0.559574
0.540707
0.542678
0.558323
0.571339
0.57666
0.575638
0.571606
0.566824
0.563766
0.562472
0.562297
0.562837
0.563854
0.565099
0.566362
0.567505
0.568466
0.569256
0.569834
0.570141
0.570443
0.570953
0.57091
0.568366
0.494837
0.535695
0.558284
0.564333
0.564773
0.557009
0.541752
0.548963
0.567487
0.577168
0.577151
0.57268
0.559871
0.551303
0.549107
0.549247
0.550425
0.552641
0.555497
0.55864
0.561724
0.564488
0.566796
0.568609
0.569852
0.57062
0.571069
0.571513
0.571713
0.57042
0.496874
0.535199
0.559246
0.564779
0.564835
0.555167
0.545146
0.557785
0.574284
0.579731
0.576581
0.55393
0.516164
0.514489
0.518919
0.524628
0.529181
0.534031
0.539474
0.545416
0.551417
0.556997
0.561793
0.565735
0.568776
0.570662
0.571775
0.57239
0.572642
0.572155
0.509549
0.541071
0.560802
0.564802
0.564788
0.556075
0.549532
0.565002
0.578982
0.579917
0.56513
0.492739
0.492502
0.492641
0.492508
0.499374
0.506987
0.513109
0.519233
0.526309
0.534086
0.542463
0.550648
0.558069
0.564302
0.569029
0.571796
0.573371
0.573878
0.573784
0.530034
0.552425
0.56135
0.564706
0.564868
0.558452
0.55537
0.569506
0.581184
0.580047
0.541143
0.492517
0.492645
0.492731
0.492659
0.49263
0.496589
0.502059
0.506637
0.511589
0.517123
0.524065
0.532339
0.542439
0.551057
0.560995
0.568439
0.572778
0.57433
0.574344
0.544961
0.552536
0.557697
0.562208
0.564789
0.56121
0.561439
0.572702
0.581224
0.574936
0.519177
0.492649
0.508892
0.512163
0.502524
0.494773
0.497746
0.502949
0.506974
0.508521
0.509795
0.511815
0.514607
0.519059
0.519971
0.533947
0.551296
0.565915
0.573281
0.574341
0.545675
0.544912
0.550175
0.557491
0.562462
0.562382
0.56552
0.575026
0.581304
0.57255
0.505828
0.492519
0.520013
0.552904
0.545463
0.514328
0.502828
0.505646
0.508578
0.509626
0.509309
0.507709
0.505093
0.501951
0.502149
0.502021
0.510089
0.543384
0.563673
0.574255
0.537456
0.532179
0.544992
0.553352
0.557083
0.560932
0.567195
0.576615
0.582092
0.573258
0.505915
0.513664
0.558793
0.572234
0.563934
0.528824
0.511694
0.509827
0.510805
0.51108
0.510333
0.508624
0.505895
0.502161
0.502015
0.502163
0.502085
0.526079
0.541878
0.56378
0.520599
0.527924
0.548042
0.551742
0.549439
0.555417
0.566455
0.577284
0.582118
0.575418
0.516273
0.534953
0.576161
0.573316
0.535094
0.521206
0.515984
0.513606
0.513124
0.512816
0.512783
0.512619
0.511402
0.50337
0.502173
0.502873
0.506334
0.512662
0.48598
0.526216
0.520678
0.536789
0.551118
0.549668
0.535873
0.532501
0.562155
0.576265
0.582189
0.573019
0.547892
0.562875
0.581061
0.564459
0.511094
0.514962
0.5171
0.516301
0.515138
0.51449
0.514235
0.513967
0.509225
0.503545
0.50743
0.507534
0.500045
0.4245
0.293712
0.328908
0.520682
0.54338
0.551103
0.54599
0.513516
0.505741
0.551136
0.572672
0.582295
0.578325
0.57252
0.581632
0.58154
0.538197
0.511087
0.513648
0.517147
0.517925
0.517174
0.516131
0.514009
0.510748
0.509278
0.509228
0.508632
0.471012
0.359516
0.191583
0.0836325
0.0947721
0.520692
0.545185
0.55116
0.540467
0.505793
0.505948
0.53456
0.566368
0.582401
0.586574
0.588093
0.589322
0.576373
0.504494
0.510942
0.516372
0.518004
0.520645
0.520769
0.520846
0.520938
0.521793
0.521708
0.490376
0.368548
0.22247
0.0985436
0.0317073
0.0115247
0.0137921
0.521135
0.544723
0.551087
0.532652
0.506211
0.505779
0.515155
0.556562
0.58138
0.589576
0.589522
0.589574
0.567111
0.489601
0.498186
0.502332
0.504637
0.512075
0.514026
0.510659
0.498675
0.474672
0.371409
0.191437
0.0782885
0.028459
0.00885946
0.00348639
0.00277684
0.00334875
0.525339
0.542333
0.546569
0.533453
0.519468
0.505987
0.507798
0.54695
0.58018
0.589475
0.589923
0.573123
0.421098
0.311593
0.319748
0.331959
0.353852
0.374222
0.37097
0.339296
0.253585
0.153016
0.0876658
0.0466382
0.0166248
0.00492161
0.00231449
0.00213298
0.00235141
0.00281764
0.52812
0.534383
0.53556
0.537895
0.537821
0.537932
0.537986
0.547906
0.57644
0.589943
0.589435
0.551446
0.344005
0.14614
0.0837996
0.0837633
0.0952303
0.1029
0.0961903
0.0724024
0.0390253
0.0307366
0.0497031
0.0515542
0.022616
0.00616735
0.00254598
0.00213449
0.00238358
0.00284774
0.534305
0.532368
0.534041
0.448341
0.287925
0.297935
0.38885
0.543691
0.56913
0.589421
0.59017
0.562924
0.385521
0.128606
0.0246638
0.0146142
0.015253
0.0155365
0.0146641
0.01303
0.0122727
0.0192288
0.0452141
0.0598178
0.0393677
0.0138202
0.00466672
0.00266858
0.00268136
0.00309464
0.481051
0.43856
0.282388
0.15486
0.126646
0.154338
0.194942
0.296498
0.475749
0.589636
0.589331
0.561597
0.413901
0.127266
0.0169523
0.00970214
0.00963509
0.00967952
0.00985257
0.0102404
0.0110877
0.0149743
0.0327385
0.0598179
0.0563632
0.0302858
0.0111238
0.00505484
0.00400209
0.00417524
0.154284
0.119427
0.0939575
0.0880827
0.113333
0.144324
0.161645
0.234966
0.440986
0.574456
0.581935
0.55536
0.352312
0.069182
0.0116505
0.00960867
0.00961305
0.00961585
0.00980786
0.0102096
0.0108271
0.0124674
0.0207461
0.0526975
0.0573271
0.0469412
0.0235432
0.0117888
0.00840813
0.00768361
0.0910275
0.0633735
0.0717913
0.0832236
0.114246
0.147755
0.179506
0.277189
0.443867
0.562714
0.559858
0.445951
0.134437
0.0177947
0.00966013
0.00961044
0.00961241
0.00961746
0.00982477
0.0102469
0.0107687
0.0114402
0.0137982
0.0270981
0.0570669
0.0526152
0.0380689
0.0245958
0.0187085
0.0160342
0.0908509
0.0623839
0.0715743
0.079431
0.110285
0.144879
0.186141
0.317657
0.449262
0.514623
0.436275
0.17946
0.0275463
0.00995814
0.00960841
0.0096112
0.00961322
0.00963748
0.00988743
0.0103335
0.0107817
0.0110877
0.0115055
0.0142393
0.0325117
0.0454473
0.0457326
0.0390336
0.0334448
0.0292016
0.0935223
0.0623524
0.0694478
0.0750495
0.101603
0.135612
0.19027
0.331135
0.444725
0.437583
0.284769
0.0677454
0.0124585
0.00961045
0.00961128
0.00961297
0.00961585
0.00967239
0.00997457
0.0104298
0.0107965
0.0109209
0.0108238
0.0108429
0.0147803
0.0301189
0.0457239
0.0457268
0.043035
0.0406852
0.0966371
0.0623901
0.0665503
0.0729489
0.094289
0.128524
0.194125
0.332357
0.434982
0.39614
0.209681
0.0396004
0.0102395
0.00961567
0.0096139
0.00961569
0.00964516
0.00974003
0.0100809
0.0105218
0.0108021
0.0108239
0.0104908
0.00986765
0.00979201
0.0156155
0.0336058
0.041214
0.0434053
0.0440592
0.0996296
0.0624042
0.0657087
0.0722777
0.0913674
0.126442
0.197573
0.322411
0.392836
0.350119
0.182272
0.0330571
0.00997446
0.00962019
0.00961764
0.00962893
0.00971464
0.00987086
0.0102364
0.0106167
0.0108021
0.0107536
0.0103009
0.00929914
0.0083435
0.00908978
0.0169188
0.0258416
0.033748
0.0390244
0.101375
0.0624466
0.0672219
0.073585
0.0908641
0.12675
0.201183
0.31005
0.356694
0.322946
0.175874
0.0329516
0.010192
0.00962608
0.00962685
0.00975914
0.00986607
0.0101013
0.0104764
0.0107534
0.0108408
0.0107259
0.0101321
0.00894865
0.00767096
0.00707303
0.00867399
0.012935
0.0202398
0.028807
0.103272
0.0626682
0.0722516
0.0803045
0.0965072
0.132879
0.207619
0.305931
0.339283
0.31486
0.184554
0.0397232
0.0107776
0.00974547
0.00988878
0.010102
0.0101739
0.0104875
0.0108475
0.0110069
0.010994
0.0107538
0.0100013
0.00867748
0.00730112
0.00658824
0.00673157
0.00814139
0.0123133
0.0191883
0.106802
0.0668811
0.0814964
0.0927306
0.110112
0.147858
0.2221
0.308182
0.332429
0.316345
0.219387
0.0526963
0.0119278
0.0103085
0.0105973
0.0107921
0.0108126
0.0111727
0.0114545
0.0114921
0.0113402
0.0108791
0.00993777
0.00847781
0.007113
0.00657306
0.00657151
0.00712125
0.00960279
0.0135183
0.112351
0.0764975
0.0941744
0.108254
0.127671
0.168008
0.24417
0.322994
0.331592
0.336554
0.260591
0.062308
0.0135495
0.0116362
0.0119995
0.0120994
0.0120659
0.012366
0.0124988
0.0123665
0.0119704
0.0112093
0.0099763
0.00839403
0.00703725
0.00657239
0.0065764
0.00690813
0.00874691
0.0112642
0.126947
0.0925864
0.113078
0.129085
0.149161
0.190323
0.267738
0.344802
0.344286
0.374555
0.290358
0.0638029
0.0154591
0.0138711
0.0144205
0.0144455
0.0142921
0.0143606
0.0142154
0.0138155
0.0130796
0.0119302
0.0102854
0.00843423
0.00702235
0.00657641
0.0065773
0.00683363
0.00842411
0.0105123
0.173449
0.121736
0.145669
0.16024
0.177845
0.215687
0.288803
0.364937
0.369531
0.422909
0.302058
0.054232
0.0175546
0.0170125
0.0181217
0.0181967
0.0177963
0.0174232
0.0167933
0.0160068
0.0149484
0.0133827
0.0112163
0.00882753
0.00713532
0.0065776
0.00657899
0.00681862
0.00833769
0.010265
0.289619
0.180604
0.203212
0.206698
0.216942
0.247717
0.309251
0.378332
0.396111
0.46512
0.295148
0.0437506
0.019917
0.0208333
0.0229038
0.0231942
0.0225285
0.0215363
0.0202585
0.0190707
0.0178405
0.0160235
0.0132778
0.0100592
0.0076643
0.00669998
0.00658943
0.00688696
0.00836873
0.0102137
0.500219
0.314065
0.297881
0.272949
0.270764
0.290424
0.332539
0.38689
0.413427
0.488596
0.259697
0.039607
0.0229488
0.024749
0.0279433
0.02865
0.027864
0.026179
0.024252
0.0228796
0.0217912
0.0201278
0.0169374
0.0126717
0.00915023
0.00740663
0.00700437
0.00731203
0.00867825
0.0103598
0.563948
0.528038
0.431552
0.367698
0.34266
0.345505
0.363075
0.395919
0.418587
0.49513
0.243315
0.0394324
0.0263902
0.0282786
0.0324367
0.0336431
0.0328774
0.0304236
0.0279671
0.0267641
0.0262576
0.0252211
0.0221026
0.0169961
0.0122441
0.0094573
0.00858314
0.00883579
0.00999292
0.0111894
0.564148
0.564066
0.550844
0.490343
0.435393
0.409489
0.40397
0.41033
0.419329
0.495313
0.242514
0.0460749
0.0299314
0.0314179
0.0361438
0.0377951
0.0369931
0.0336516
0.0307082
0.0297351
0.0299419
0.0296954
0.0275231
0.0226154
0.0171788
0.0135354
0.0121645
0.0124784
0.0134931
0.0137817
0.552776
0.564184
0.56414
0.557995
0.521496
0.479559
0.452842
0.435737
0.41989
0.492571
0.29834
0.0628304
0.0338961
0.0343545
0.0391912
0.041323
0.0403042
0.0360655
0.0325231
0.0313736
0.0317414
0.0318505
0.0311038
0.0280427
0.0230928
0.0193578
0.017794
0.0184787
0.0197648
0.0191471
0.500365
0.564025
0.564213
0.564099
0.555777
0.532839
0.502497
0.475857
0.422965
0.479202
0.39506
0.098098
0.0387838
0.0372592
0.0417432
0.0445054
0.0433749
0.0384121
0.0340642
0.0322036
0.0320539
0.0320625
0.0320625
0.0313353
0.028111
0.0250972
0.0238009
0.0249814
0.0270176
0.0266401
0.500028
0.557367
0.564104
0.564188
0.561942
0.554163
0.538727
0.514794
0.447811
0.476725
0.462054
0.150382
0.0458758
0.0401353
0.0439017
0.0474577
0.0467429
0.0415145
0.0362925
0.0331145
0.0319572
0.0320448
0.0320625
0.0320625
0.0305732
0.0285886
0.0276701
0.0289859
0.0317137
0.0330847
0.499596
0.543279
0.558859
0.561644
0.561871
0.560845
0.55648
0.542019
0.493281
0.489505
0.493944
0.20836
0.0564638
0.0429668
0.0456089
0.0500473
0.0502854