/*--------------------------------*- C++ -*----------------------------------*\
| =========                 |                                                 |
| \\      /  F ield         | OpenFOAM: The Open Source CFD Toolbox           |
|  \\    /   O peration     | Version:  v1606+                                |
|   \\  /    A nd           | Web:      www.OpenFOAM.com                      |
|    \\/     M anipulation  |                                                 |
\*---------------------------------------------------------------------------*/
FoamFile
{
    version     2.0;
    format      ascii;
    class       volScalarField;
    location    "1.35";
    object      alphat.air;
}
// * * * * * * * * * * * * * * * * * * * * * * * * * * * * * * * * * * * * * //

dimensions      [1 -1 -1 0 0 0 0];

internalField   nonuniform List<scalar> 
6000
(
0.000364504
0.00326251
0.00530106
0.00579833
0.00600346
0.00613059
0.00617393
0.00619645
0.00623828
0.00627712
0.00626657
0.00623029
0.00621127
0.00621313
0.00621581
0.00621814
0.00622703
0.00624748
0.00626282
0.006221
0.00619307
0.00617074
0.00614302
0.00606127
0.00597495
0.00589555
0.00574967
0.00530064
0.00333565
0.000363243
0.000275486
0.00196547
0.00372984
0.00478649
0.0053059
0.00559727
0.00581563
0.00589786
0.005898
0.00586886
0.00583898
0.0058407
0.00586055
0.00587646
0.00588171
0.00588266
0.00588951
0.00591332
0.00594264
0.00596276
0.0059398
0.0058412
0.00573408
0.005616
0.00545327
0.00521221
0.00474529
0.00374195
0.00199401
0.000276306
0.000233427
0.00167817
0.00328864
0.00437522
0.00500836
0.00537835
0.00563615
0.00575085
0.00578107
0.00579059
0.00579321
0.00579953
0.00581175
0.00582324
0.00582579
0.00582814
0.00583681
0.00585255
0.00586539
0.00585685
0.0058168
0.00570994
0.00559878
0.00545802
0.0052292
0.00488245
0.00428922
0.00324772
0.00166139
0.000237063
0.000220862
0.00161701
0.00307437
0.00410533
0.00478709
0.00522042
0.00553221
0.00572265
0.00581549
0.00585094
0.00586629
0.00587207
0.0058797
0.00588915
0.00589196
0.00589204
0.00589514
0.00589675
0.00588582
0.0058544
0.00579325
0.00567542
0.00553201
0.00533975
0.00505928
0.00464062
0.00399714
0.00297491
0.00155206
0.00022306
0.000216169
0.00155989
0.00293731
0.00392684
0.00461881
0.00511054
0.00545032
0.0056986
0.00584618
0.00592136
0.00595361
0.00597383
0.00599018
0.00600164
0.00600541
0.0059999
0.00598649
0.00596323
0.00592284
0.00586457
0.00577952
0.00565478
0.00547577
0.00523809
0.00491607
0.00448528
0.00378536
0.0027415
0.00140901
0.000208925
0.000204863
0.0014206
0.00277471
0.00383924
0.00458099
0.00507297
0.00543219
0.00570616
0.00588674
0.00600756
0.00607786
0.00612537
0.00615707
0.00616946
0.00617129
0.00615982
0.00613182
0.00608662
0.00602479
0.00593838
0.00582153
0.00567631
0.00547172
0.00518122
0.00481354
0.00432564
0.0035696
0.0025237
0.00126285
0.000192952
0.000190269
0.00127919
0.00258189
0.00370311
0.00455478
0.00511358
0.00550229
0.00580559
0.00601125
0.00616849
0.006302
0.00640823
0.00648091
0.00650584
0.00651127
0.0065002
0.00646188
0.00638725
0.0062826
0.00614791
0.00598564
0.00579294
0.00552691
0.00520317
0.004819
0.00418214
0.00336776
0.00234992
0.00115327
0.000179716
0.000177956
0.00117326
0.0024466
0.00356693
0.00448466
0.00519266
0.00566394
0.00601463
0.00628004
0.00650403
0.00670063
0.00685801
0.00695669
0.00700417
0.00701786
0.00701058
0.00697488
0.0069041
0.00680197
0.00663145
0.00637122
0.00605274
0.00570859
0.00539751
0.00496866
0.00414041
0.00323681
0.00222697
0.00105833
0.000165651
0.000164956
0.00110841
0.00238407
0.00350804
0.00448771
0.00533766
0.00595414
0.0063457
0.0066824
0.00699126
0.00728073
0.00753487
0.00772281
0.00782982
0.00788089
0.00788277
0.007838
0.00773684
0.00757358
0.00733643
0.00699726
0.00656475
0.00612362
0.00577448
0.00523337
0.0043418
0.00332721
0.00224885
0.00103346
0.000155374
0.00015765
0.0011339
0.00246672
0.00363127
0.00472494
0.0057156
0.0064874
0.00690917
0.00733833
0.00771525
0.00802079
0.00825649
0.00842263
0.00851616
0.00854643
0.0085125
0.0084177
0.00825486
0.00802745
0.00774633
0.00739438
0.00695096
0.00647637
0.0060569
0.00547254
0.00470593
0.00364025
0.00243184
0.00109408
0.000155079
0.000160116
0.0012487
0.00275534
0.00406621
0.00527857
0.00631707
0.00708651
0.00753112
0.00791094
0.00820614
0.00842338
0.00857975
0.00868811
0.00873768
0.00873175
0.00866862
0.00854414
0.00834763
0.00808974
0.00778383
0.00741938
0.00699983
0.0065729
0.00616251
0.00566321
0.00504744
0.00404687
0.00274875
0.00126507
0.000162738
0.000174056
0.00147374
0.00315172
0.00460646
0.00586142
0.00676177
0.00739557
0.00781411
0.00808216
0.00830896
0.00849487
0.0086331
0.0087242
0.00875663
0.00874635
0.00868101
0.00854905
0.00834258
0.00806961
0.00774789
0.00738321
0.00698616
0.00660092
0.00623992
0.00577901
0.00525565
0.00439355
0.00305743
0.00146208
0.000177834
0.000194799
0.00168324
0.00351355
0.00506096
0.00622219
0.00692185
0.00741755
0.00778978
0.00804877
0.00826996
0.00846132
0.00861566
0.00872021
0.008769
0.00876469
0.00870274
0.00856755
0.00835873
0.00808144
0.00775534
0.00739321
0.00700752
0.00664099
0.00628159
0.00584637
0.00534447
0.0046123
0.00334241
0.00166095
0.000190118
0.000210917
0.00189211
0.0038149
0.0053779
0.00641715
0.00697419
0.00739951
0.00773999
0.00800484
0.00822945
0.00843283
0.00860616
0.00873443
0.00880262
0.00880858
0.00874993
0.00860851
0.00839261
0.00812079
0.00780679
0.00745108
0.0070676
0.00669763
0.00633358
0.00591124
0.00542237
0.00475269
0.00356425
0.00183474
0.000199483
0.000223499
0.00207017
0.00405079
0.00558203
0.00651685
0.00699545
0.00738109
0.00771037
0.0079725
0.00819341
0.00840627
0.00860398
0.00876188
0.00885824
0.00888018
0.00882218
0.00866977
0.00844331
0.00818025
0.00788358
0.00754186
0.00715688
0.00677169
0.00638943
0.00596753
0.00547172
0.00482391
0.00371159
0.00196878
0.000206478
0.000233074
0.00220406
0.00421484
0.00570007
0.00655603
0.00698892
0.00735639
0.00768047
0.0079349
0.00815402
0.00838082
0.00860587
0.0087972
0.00892337
0.0089632
0.00890679
0.00874787
0.00851982
0.0082704
0.00799146
0.00765252
0.00725771
0.00684979
0.00644392
0.00601046
0.00549571
0.00484614
0.00378939
0.00205109
0.000211787
0.000239493
0.00229344
0.00431575
0.00574818
0.00654099
0.00695998
0.00732221
0.00763859
0.00788523
0.0081099
0.00835764
0.00861396
0.00884149
0.00899698
0.00905479
0.00899929
0.00883866
0.00861962
0.00838141
0.00811656
0.0077798
0.0073641
0.00692477
0.00648584
0.00603271
0.00549926
0.00484007
0.00380744
0.00209271
0.000215746
0.000242965
0.00234318
0.00436952
0.00574334
0.00648212
0.0069071
0.00727067
0.00757987
0.00782278
0.00806405
0.00834116
0.00863412
0.00889581
0.00907558
0.00914803
0.00909814
0.00893638
0.00872951
0.00850387
0.00824882
0.00790295
0.00746903
0.0069947
0.00652058
0.00603877
0.00549482
0.00481265
0.00378444
0.00211065
0.000217682
0.000242737
0.00237284
0.00439172
0.00569904
0.00639061
0.00682841
0.00719358
0.00749845
0.0077526
0.00802617
0.00834326
0.00867517
0.00896238
0.00915906
0.00924189
0.00919057
0.00903453
0.00884241
0.00863019
0.00837833
0.00801712
0.00756579
0.0070602
0.00654545
0.0060324
0.0054706
0.00475744
0.00372453
0.0020886
0.000218756
0.000240878
0.00236583
0.00435867
0.00561137
0.00627548
0.00672961
0.00708519
0.00739716
0.00768969
0.00801445
0.00838107
0.00874692
0.00904681
0.00924659
0.00932946
0.00927316
0.00913274
0.00895365
0.00874812
0.00847276
0.00811085
0.00766432
0.00714377
0.00658871
0.00602266
0.00541494
0.00466578
0.00361908
0.00203112
0.000222569
0.000240744
0.00233898
0.00426254
0.00546732
0.0061341
0.00660674
0.0069769
0.00731875
0.00766573
0.00805758
0.00847181
0.00885569
0.00915294
0.00934426
0.00942264
0.00936219
0.0092267
0.00906042
0.00885703
0.00857368
0.0082233
0.00778654
0.00726279
0.00667349
0.00604064
0.00535526
0.00454534
0.00347043
0.00193863
0.000220808
0.000241579
0.00227155
0.00410438
0.00528059
0.00597143
0.00646725
0.00687451
0.00727433
0.00770962
0.00817685
0.00862399
0.00900261
0.00928267
0.00945878
0.00952751
0.00945823
0.00932175
0.00916648
0.00895323
0.00868982
0.00836182
0.00794107
0.00741223
0.00679746
0.0061121
0.0053315
0.00442729
0.00330861
0.00182517
0.000213148
0.000237197
0.00216649
0.0039092
0.00506248
0.00580083
0.00634769
0.00682823
0.00733147
0.00786657
0.00837355
0.00882843
0.00918526
0.00943982
0.00959901
0.00965589
0.00958425
0.00945522
0.00928651
0.00907495
0.00885123
0.00856586
0.00815691
0.00762861
0.00698847
0.00624125
0.00538288
0.00437741
0.00317967
0.0017133
0.000202076
0.000227882
0.00205938
0.00372138
0.00489011
0.00571699
0.00635022
0.0069435
0.00754338
0.00812542
0.00866032
0.0090844
0.00940705
0.00963279
0.00977304
0.00981762
0.00974365
0.00961152
0.00944574
0.0092748
0.00908979
0.0088005
0.00838973
0.00786036
0.00721365
0.00643825
0.00551882
0.00443336
0.00314909
0.00164948
0.000190822
0.00021638
0.00197477
0.00359922
0.0048298
0.00576795
0.00651674
0.00719305
0.00787204
0.00849511
0.0089982
0.00938598
0.00967393
0.00987115
0.00999192
0.0100262
0.0099509
0.00981662
0.00966852
0.00954396
0.00935727
0.00906023
0.00864621
0.00811369
0.00745973
0.00666264
0.00571331
0.00457345
0.00320508
0.00161673
0.000185178
0.000207979
0.00188763
0.00354037
0.00484418
0.00588228
0.00675933
0.00756526
0.00827882
0.0088857
0.00936877
0.00971939
0.00997525
0.0101522
0.0102595
0.010289
0.0102146
0.0100864
0.00997517
0.00985822
0.00965089
0.00933602
0.00891627
0.00838876
0.00775803
0.00695302
0.00595843
0.00475875
0.00331138
0.00162188
0.000185312
0.000205478
0.0017894
0.0035107
0.0049205
0.00607305
0.00706552
0.00792431
0.00867074
0.00930339
0.00977888
0.0100811
0.0102956
0.010455
0.0105587
0.0105915
0.0105243
0.010421
0.0103355
0.0101945
0.00995619
0.00961862
0.00918441
0.00864904
0.00805166
0.00730173
0.00630397
0.00499945
0.00343519
0.00164344
0.000187679
0.000207979
0.00170484
0.00357512
0.0050293
0.00619934
0.00727428
0.00824546
0.00907566
0.00974605
0.0102208
0.0104787
0.0106259
0.0107616
0.0108598
0.0109072
0.0108694
0.0108021
0.0107074
0.0105241
0.0102438
0.00987483
0.00941492
0.00888806
0.00831386
0.0076191
0.00662325
0.00529324
0.00357723
0.00165297
0.000191728
0.000217202
0.00156565
0.00353318
0.00503082
0.00633533
0.0075057
0.00856313
0.00947627
0.0101782
0.0106373
0.0108451
0.0109471
0.0110369
0.0111303
0.0112179
0.0112485
0.0112065
0.0110728
0.0108464
0.0105263
0.0101155
0.00959928
0.00898748
0.00830648
0.00759041
0.00672336
0.00544535
0.00372832
0.00167902
0.000197467
0.000227835
0.00169361
0.0035631
0.00505964
0.0064103
0.00766567
0.00877803
0.00969867
0.0103732
0.0108248
0.0110886
0.0111792
0.011203
0.0112977
0.0114279
0.0115176
0.0114383
0.011259
0.0109862
0.0106119
0.0101303
0.00954159
0.0088613
0.00813197
0.00737022
0.00657212
0.0054465
0.00382624
0.00174879
0.000203177
0.000242745
0.00197324
0.00381502
0.00525671
0.00652798
0.00772262
0.00882258
0.00969561
0.0103278
0.0107748
0.0110843
0.0112591
0.0113405
0.011403
0.0114985
0.0114936
0.0113787
0.0111809
0.0108896
0.0104971
0.00999825
0.00940079
0.00872103
0.007982
0.00720444
0.00639772
0.00538677
0.00386103
0.00187365
0.000209651
0.000253664
0.00222262
0.00411204
0.00552712
0.00673753
0.00784418
0.00885487
0.00965628
0.0102489
0.0106902
0.0110065
0.0112036
0.0113198
0.0113852
0.0114249
0.0113741
0.0112395
0.0110322
0.0107424
0.0103569
0.00987074
0.00928727
0.00862253
0.00789442
0.00712192
0.00631537
0.00536847
0.00394216
0.00199947
0.000218613
0.000259626
0.00239669
0.00435872
0.00578607
0.00695405
0.00797823
0.00890346
0.00963239
0.0101877
0.0106168
0.0109342
0.0111271
0.0112322
0.0112995
0.0113214
0.0112552
0.0111094
0.0108974
0.0106087
0.0102316
0.00976111
0.00919822
0.00855727
0.00785111
0.0070964
0.00630841
0.00541118
0.00408253
0.00213872
0.000225843
0.000262553
0.00246907
0.00450523
0.00598648
0.0071631
0.00813275
0.00895399
0.00961346
0.0101321
0.0105395
0.0108455
0.0110353
0.0111336
0.0111926
0.0112078
0.0111375
0.0109874
0.0107732
0.0104884
0.0101223
0.0096696
0.00913019
0.00851478
0.00783306
0.00710151
0.00633984
0.00548075
0.00420676
0.0022511
0.000230047
0.000263097
0.00248028
0.00457575
0.00612386
0.00732126
0.0082591
0.00899715
0.00959453
0.0100754
0.0104532
0.0107355
0.0109182
0.0110177
0.0110716
0.0110823
0.0110133
0.0108645
0.0106527
0.010375
0.0100224
0.00958932
0.00907444
0.0084846
0.00782772
0.00711846
0.00637788
0.00554311
0.0042974
0.00232167
0.000230993
0.000261623
0.00245021
0.00460722
0.00623532
0.00745688
0.00835916
0.00903383
0.00957429
0.010014
0.0103578
0.0106153
0.0107892
0.0108883
0.0109362
0.0109426
0.0108772
0.0107333
0.0105277
0.0102604
0.0099239
0.00951206
0.00902252
0.00845826
0.00782699
0.00714061
0.00641577
0.00558906
0.0043538
0.00235505
0.000229684
0.000259128
0.00242391
0.00463928
0.0063351
0.00756572
0.0084249
0.00905224
0.00954596
0.00994378
0.0102504
0.0104808
0.0106436
0.0107436
0.0107893
0.0107911
0.0107287
0.0105911
0.0103937
0.0101392
0.00982065
0.00943169
0.00896812
0.00843019
0.00782518
0.00716036
0.00644575
0.00562028
0.00438338
0.0023635
0.000228447
0.000252397
0.00244848
0.00470195
0.00642705
0.00763895
0.00846369
0.00904566
0.00949678
0.00985257
0.0101232
0.0103281
0.0104833
0.0105856
0.0106334
0.0106341
0.0105707
0.0104392
0.0102506
0.0100093
0.00970929
0.00934378
0.0089069
0.00839619
0.00781765
0.00717361
0.00646883
0.00563436
0.00438719
0.00236109
0.000228089
0.00024811
0.00246675
0.00474401
0.00647186
0.00765001
0.00844023
0.00899243
0.00940905
0.00972683
0.00996923
0.010159
0.010308
0.0104132
0.0104666
0.0104698
0.0104082
0.0102808
0.0101004
0.00987194
0.00958946
0.00924623
0.00883561
0.00835253
0.00780033
0.00717639
0.00648003
0.00563463
0.00435909
0.00232421
0.000226753
0.000245941
0.00246801
0.00475243
0.0064596
0.00759632
0.00834906
0.00888084
0.00927039
0.00956352
0.00979253
0.00997693
0.0101251
0.0102337
0.0102914
0.0102981
0.0102398
0.0101164
0.0099446
0.00972816
0.00946157
0.00913839
0.00875218
0.00829615
0.00776964
0.00716533
0.00647585
0.00561993
0.00432267
0.00229409
0.000222934
0.00024374
0.00244284
0.00470421
0.00637254
0.00747254
0.00819853
0.00871503
0.00908939
0.00937298
0.00960028
0.00978733
0.0099382
0.0100501
0.010113
0.0101225
0.0100671
0.00994664
0.0097826
0.00957686
0.00932429
0.0090191
0.0086552
0.00822478
0.00772278
0.00713723
0.00645176
0.00558146
0.00426832
0.00225924
0.000219158
0.000240454
0.0023882
0.00459263
0.00621256
0.00729056
0.00800416
0.00851151
0.00888055
0.00916631
0.00940112
0.00959659
0.0097535
0.00986749
0.00993278
0.00994175
0.00988555
0.00977037
0.00961383
0.00941729
0.0091765
0.00888675
0.0085423
0.00813503
0.00765567
0.00708618
0.00640539
0.00552318
0.00420109
0.0022189
0.000215982
0.000235508
0.00230813
0.00442719
0.00599168
0.00705583
0.00777534
0.00828661
0.00866305
0.0089602
0.00920536
0.0094088
0.00957136
0.00968899
0.00975372
0.00975708
0.00969722
0.00958745
0.00943764
0.00924883
0.00901791
0.00874075
0.00841177
0.00802269
0.00756241
0.00701205
0.00633751
0.00544658
0.00412099
0.00217147
0.000213998
0.000228718
0.00220967
0.00422877
0.00573188
0.00678837
0.00752451
0.00805222
0.00844823
0.0087609
0.00901652
0.00922549
0.00939067
0.00950999
0.00957278
0.00957017
0.00950753
0.00940138
0.00925688
0.00907436
0.00885175
0.00858504
0.00826857
0.00789358
0.00744911
0.00691404
0.00624088
0.00534244
0.00401525
0.00210857
0.000213332
0.00022082
0.00210168
0.00401338
0.00545734
0.00651218
0.00727431
0.00783025
0.00824819
0.00857482
0.0088371
0.00904799
0.00921293
0.00932973
0.00938746
0.00938027
0.00931768
0.00921377
0.00907275
0.00889503
0.00867871
0.00841999
0.00811322
0.00774864
0.00731288
0.00678064
0.00610313
0.00519361
0.00387561
0.00203619
0.000212142
0.000212001
0.00198879
0.00380063
0.00520296
0.006264
0.00705702
0.00764741
0.0080879
0.00841983
0.00867764
0.00888188
0.0090398
0.00914897
0.00919954
0.00918954
0.00912874
0.00902664
0.00888734
0.00871188
0.00849894
0.0082449
0.00794382
0.00758416
0.00714909
0.00661178
0.00592323
0.00500091
0.00370864
0.00195497
0.000208036
0.000201976
0.00189055
0.00363349
0.00501538
0.0060832
0.00689986
0.00751538
0.00797165
0.00830646
0.00855523
0.00874177
0.00888248
0.00897704
0.00901841
0.00900601
0.0089465
0.00884532
0.00870616
0.0085308
0.00831867
0.00806609
0.00776656
0.0074063
0.00696498
0.006414
0.00570761
0.00477402
0.00351341
0.0018516
0.000201171
0.000193788
0.00181656
0.00353257
0.00490056
0.00596968
0.00679666
0.00742223
0.00788105
0.00821804
0.008462
0.00863763
0.0087604
0.00883486
0.00886251
0.00884566
0.00878517
0.00868257
0.00854101
0.00836261
0.00814734
0.00789178
0.00758847
0.00722226
0.00677071
0.00620266
0.00547702
0.00453554
0.00330721
0.00173618
0.000193248
0.000190002
0.00178447
0.00349221
0.00485104
0.00590587
0.00671919
0.00733114
0.00778676
0.00812469
0.00837074
0.00854811
0.00866573
0.00873056
0.00874781
0.00872335
0.00865834
0.00855225
0.00840614
0.00822159
0.00799856
0.00773364
0.0074199
0.00704218
0.00657718
0.00599338
0.00525285
0.00430906
0.0031091
0.00161707
0.000184372
0.000189975
0.00180829
0.00350139
0.00483028
0.00584429
0.00662537
0.00722673
0.00767977
0.00801943
0.00827101
0.00845436
0.00857609
0.00864043
0.00865356
0.00862522
0.00855675
0.00844702
0.00829596
0.00810424
0.00787134
0.00759399
0.00726506
0.00687043
0.00638905
0.00579244
0.0050456
0.00410913
0.00293944
0.00151397
0.000174844
0.000193416
0.00182911
0.00350302
0.00477886
0.00572836
0.0065018
0.00711192
0.00757104
0.00791295
0.00816805
0.00835525
0.00848182
0.00854815
0.00855926
0.00852843
0.00845795
0.00834575
0.00819081
0.00799289
0.00775096
0.00746154
0.00711734
0.00670623
0.00621048
0.00560545
0.00485956
0.00393741
0.00280203
0.00143704
0.000167062
0.000197811
0.00182952
0.00344039
0.00465579
0.00554252
0.00629774
0.00695778
0.00745024
0.00780481
0.00806494
0.00825397
0.00838177
0.00844852
0.00845861
0.00842614
0.00835461
0.00824094
0.00808316
0.00788045
0.00763133
0.00733223
0.0069764
0.00655323
0.00604735
0.00543737
0.00469541
0.00378948
0.00268658
0.00137405
0.000160883
0.00019914
0.00176725
0.0032883
0.00448571
0.00542636
0.00613082
0.0067804
0.00732021
0.00769691
0.00796379
0.00815341
0.00827862
0.00834035
0.00835013
0.00831869
0.00824819
0.00813451
0.00797535
0.00776966
0.00751579
0.00721016
0.00684652
0.00641533
0.00590292
0.00529048
0.00455317
0.00366193
0.0025854
0.00131344
0.000154991
0.000195323
0.00164542
0.00314686
0.00437556
0.00534302
0.00605993
0.00667411
0.00721222
0.00759677
0.00786443
0.0080504
0.00816991
0.00822532
0.00823416
0.008208
0.00814117
0.00802927
0.00787051
0.00766394
0.00740779
0.00709852
0.00673027
0.0062943
0.00577827
0.00516531
0.00443288
0.00355421
0.00249835
0.00125569
0.000149531
0.000186159
0.0015847
0.00307896
0.00432138
0.00530913
0.00604484
0.00662531
0.00713952
0.00750857
0.00776747
0.00794319
0.00804888
0.00810065
0.00811538
0.00809725
0.00803568
0.00792717
0.00777065
0.00756525
0.0073091
0.00699869
0.00662849
0.00619042
0.00567315
0.00506128
0.004334
0.0034663
0.00242762
0.0012089
0.000144652
0.000184251
0.00157246
0.00308239
0.00434485
0.00531851
0.00605124
0.00661654
0.00708322
0.00742341
0.00766218
0.0078199
0.0079128
0.00796995
0.00799843
0.00798872
0.00793319
0.00782952
0.00767698
0.00747463
0.00722046
0.00691103
0.00654108
0.00610306
0.00558644
0.00497695
0.00425514
0.0033972
0.00237337
0.00117528
0.000140511
0.00018496
0.00160595
0.00314709
0.00441265
0.00534357
0.00603011
0.00658586
0.00700823
0.00731723
0.00752756
0.00766901
0.0077713
0.0078449
0.00788525
0.00788346
0.00783471
0.00773726
0.00759026
0.00739255
0.00714202
0.00683528
0.00646732
0.00603101
0.00551647
0.00491028
0.00419409
0.00334488
0.00233382
0.00115306
0.00013712
0.000187498
0.00168929
0.00327417
0.00447365
0.00534008
0.00599469
0.00650393
0.00688624
0.00716123
0.00736048
0.00751308
0.00763503
0.00772437
0.00777519
0.00778185
0.00774101
0.00765109
0.00751096
0.00731921
0.00707362
0.00677088
0.00640618
0.00597275
0.00546123
0.00485885
0.00414811
0.00330658
0.00230618
0.00113929
0.000134423
0.000196857
0.00181345
0.00336493
0.00447048
0.0052872
0.00589794
0.00635913
0.00671398
0.00697811
0.00718791
0.00736101
0.00750185
0.00760563
0.00766771
0.00768424
0.00765272
0.00757157
0.00743943
0.00725468
0.00701502
0.0067172
0.00635658
0.00592669
0.0054186
0.00482006
0.00411428
0.00327925
0.00228751
0.00113142
0.00013235
0.000214857
0.00182864
0.00332069
0.00437106
0.00515704
0.00573174
0.00616966
0.00651046
0.00678182
0.00701194
0.00720803
0.00736808
0.00748761
0.00756289
0.00759116
0.00757046
0.00749925
0.00737607
0.00719914
0.00696613
0.00667379
0.00631764
0.00589146
0.00538668
0.00479152
0.00408978
0.0032599
0.00227502
0.00112751
0.000130821
0.000216355
0.00172575
0.00308879
0.00415377
0.00493648
0.0055031
0.00593674
0.00627938
0.00657105
0.00682875
0.00705083
0.00723283
0.00737066
0.00746149
0.00750342
0.007495
0.00743486
0.00732149
0.00715306
0.00692716
0.00664057
0.00628891
0.00586618
0.00536411
0.00477136
0.00407233
0.00324597
0.00226634
0.00112598
0.000129759
0.000208242
0.00153548
0.00283735
0.00385205
0.00464301
0.00521882
0.00566073
0.00602275
0.00634717
0.00663877
0.00689067
0.0070976
0.00725621
0.0073647
0.00742205
0.0074273
0.00737931
0.0072766
0.00711725
0.0068988
0.00661801
0.00627058
0.00585068
0.00535034
0.00475863
0.00406055
0.00323577
0.00225961
0.00112525
0.000129105
0.000193908
0.00139031
0.00261626
0.00355606
0.00429298
0.00488407
0.00534806
0.00575004
0.00611762
0.00644765
0.00673194
0.00696555
0.00714641
0.00727403
0.00734821
0.00736846
0.00733376
0.00724258
0.00709291
0.00688219
0.00660715
0.00626357
0.00584571
0.00534586
0.00475353
0.00405431
0.00322885
0.00225379
0.00112312
0.000128834
0.000184388
0.00129089
0.00235841
0.00319669
0.00387278
0.00449548
0.00501542
0.00547604
0.00589366
0.00626393
0.00658091
0.00684113
0.00704425
0.00719153
0.00728359
0.00732007
0.00729983
0.00722112
0.00708172
0.00687896
0.00660953
0.00626937
0.00585279
0.00535226
0.00475761
0.00405506
0.00322625
0.00224953
0.00112089
0.000128724
0.000173698
0.0011858
0.00213233
0.0028358
0.00345513
0.00410858
0.00469837
0.00522286
0.00569014
0.00609866
0.00644407
0.00672685
0.0069511
0.0071185
0.00723016
0.00728466
0.00728036
0.00721511
0.00708649
0.0068917
0.00662724
0.00628852
0.00587106
0.00536794
0.00476941
0.00406224
0.00322882
0.00224858
0.00111945
0.000128735
0.000163566
0.00108017
0.00190228
0.00251466
0.00311163
0.00379289
0.00443773
0.00501459
0.00552342
0.00595939
0.00632315
0.00662374
0.00686789
0.00705872
0.00719353
0.00726896
0.00728055
0.00722739
0.00710819
0.00692043
0.00666091
0.0063258
0.00590928
0.0054041
0.0048006
0.00408585
0.0032432
0.00225397
0.00111949
0.000128972
0.000153872
0.00098271
0.00172014
0.00229753
0.00290718
0.00359516
0.00426251
0.00487176
0.00539875
0.0058438
0.00621742
0.00653678
0.00681051
0.00703174
0.00719107
0.0072853
0.00731311
0.00727312
0.00716415
0.00698358
0.00672818
0.00639417
0.00597589
0.00546601
0.00485485
0.00412956
0.00327373
0.00226984
0.00112362
0.000129464
0.000146698
0.000905359
0.00162037
0.00220255
0.00282424
0.0035036
0.00418096
0.00478946
0.00531037
0.00575182
0.00614095
0.00649649
0.00680334
0.00705214
0.00723556
0.00735181
0.0073944
0.00736419
0.00725979
0.00708051
0.00682451
0.00648789
0.00606525
0.00554926
0.00492994
0.00419388
0.00332379
0.00230137
0.00113338
0.000130399
0.000145231
0.000883119
0.0015823
0.00218591
0.00282234
0.00350221
0.00417428
0.00476387
0.00526441
0.00571239
0.00613678
0.00652805
0.00687105
0.00714954
0.00735573
0.00748589
0.00753714
0.00750999
0.00740565
0.00722374
0.00696281
0.00661977
0.00618968
0.00566518
0.00503583
0.00428724
0.00340044
0.00235461
0.00115507
0.000131989
0.000144573
0.000856185
0.00156066
0.00220796
0.00288051
0.00357648
0.00422923
0.00479283
0.00528996
0.00576833
0.00623147
0.00666394
0.00703849
0.00733774
0.00755608
0.00769285
0.00774763
0.00771927
0.00761059
0.00742173
0.00715189
0.00679876
0.0063578
0.00582159
0.00517929
0.00441534
0.00350857
0.0024344
0.00119379
0.000134574
0.00014308
0.000800775
0.00154321
0.00226317
0.00298438
0.00368399
0.0043242
0.00489
0.00541742
0.00593627
0.0064378
0.0068964
0.00729343
0.00760347
0.00782805
0.0079667
0.00802099
0.00798943
0.00787505
0.00767808
0.00739797
0.00703276
0.00657827
0.00602724
0.00536839
0.0045848
0.00365294
0.00254373
0.00125128
0.000138488
0.000140135
0.000735936
0.00154411
0.00235575
0.00312846
0.00386809
0.00451903
0.00510076
0.00565415
0.00619162
0.00670166
0.0071818
0.00759506
0.00790793
0.00813385
0.00827468
0.00833041
0.00830006
0.00818533
0.00798563
0.00769985
0.00732571
0.00685889
0.00629191
0.00561297
0.00480436
0.00383995
0.00268558
0.0013273
0.000143988
0.000135736
0.000684813
0.0015992
0.0025055
0.00338005
0.00415289
0.00480686
0.0053819
0.00592445
0.00645219
0.00697148
0.00745805
0.00785501
0.00816188
0.00839501
0.00855115
0.00862244
0.00860825
0.00850894
0.00832217
0.0080451
0.00767389
0.00720321
0.00662454
0.0059252
0.005086
0.0040794
0.00286588
0.00142306
0.000151277
0.000130078
0.000684503
0.00171849
0.00278208
0.00372232
0.00448812
0.00511458
0.00566558
0.00618521
0.00668719
0.00719655
0.00765677
0.00800791
0.0082995
0.00854515
0.00873325
0.0088394
0.00886202
0.00880021
0.00865057
0.00840682
0.00806111
0.00760529
0.00702834
0.00631591
0.00544473
0.00438543
0.00309517
0.00154334
0.000160828
0.00012613
0.000755561
0.00199444
0.00317207
0.00409932
0.00482927
0.00542735
0.00595093
0.00643621
0.00690216
0.00735983
0.00777661
0.00806749
0.00832762
0.00859689
0.00883081
0.0089843
0.00905399
0.00904176
0.00894475
0.00875405
0.00845791
0.0080426
0.00749035
0.00678277
0.00588944
0.00477466
0.00338831
0.00169611
0.000173202
0.000128473
0.000969736
0.00244117
0.00359719
0.00449067
0.0051927
0.00576993
0.00627312
0.00672848
0.00715175
0.00755118
0.00788765
0.00807701
0.00829392
0.00857844
0.00888647
0.00910744
0.00923107
0.00927078
0.00922724
0.00909155
0.00885024
0.00848614
0.00797452
0.00728788
0.00639788
0.00524625
0.00375947
0.00189736
0.000189011
0.000139879
0.00138442
0.00289691
0.00402432
0.00490713
0.00560494
0.00618133
0.00667894
0.0071151
0.00750144
0.00784324
0.00809363
0.00822832
0.00838181
0.00863165
0.00898178
0.00927764
0.00945476
0.00954207
0.00954645
0.00945864
0.00926287
0.00893942
0.0084616
0.00779765
0.00691698
0.00575441
0.00419294
0.002157
0.000211631
0.000164155
0.00173025
0.00327675
0.00444585
0.00536578
0.00609266
0.00668726
0.00719354
0.00762455
0.00799054
0.00830953
0.0084736
0.00859136
0.00880227
0.00905463
0.00933804
0.00959538
0.00978906
0.00990466
0.00994381
0.00989225
0.00973021
0.00943504
0.00898116
0.00833118
0.00743911
0.00623981
0.00462548
0.0024311
0.000239624
0.000190368
0.00192472
0.00359822
0.00488482
0.00588369
0.00666481
0.00728706
0.00781406
0.00825441
0.00861885
0.00891246
0.00910872
0.00926755
0.00949904
0.00975678
0.00995595
0.0101228
0.0102801
0.0103947
0.0104486
0.0104173
0.0102752
0.00999773
0.00955873
0.00890785
0.00798996
0.00674022
0.00504434
0.00269548
0.000276003
0.000213832
0.00207141
0.00392317
0.00535818
0.00645298
0.00729325
0.00795576
0.00851706
0.00898785
0.00937353
0.00967859
0.00993623
0.0101684
0.0103949
0.0106548
0.0107334
0.0108246
0.0109316
0.0110244
0.0110738
0.0110479
0.0109132
0.010644
0.0102032
0.00953238
0.00856206
0.0072374
0.0053924
0.00287479
0.000317517
0.00023692
0.00224178
0.00427347
0.00585625
0.00703555
0.00793538
0.00866043
0.00926634
0.00978071
0.0102137
0.0105865
0.0109209
0.0112203
0.0114573
0.0116434
0.0116459
0.0116787
0.0117309
0.0117854
0.0118128
0.0117751
0.0116308
0.0113513
0.0108959
0.0102202
0.00919702
0.00774399
0.00572491
0.00301395
0.000334712
0.000258768
0.00241956
0.00463736
0.00635156
0.00761362
0.00858955
0.00938299
0.0100276
0.0105869
0.0110811
0.0115402
0.0119772
0.0123781
0.0126425
0.0127063
0.012686
0.0126657
0.0126548
0.0126559
0.0126453
0.0125773
0.0123924
0.0120781
0.0116215
0.010901
0.009786
0.00817325
0.00597754
0.00308246
0.000332503
0.000278734
0.00259148
0.00500526
0.00684039
0.00818642
0.00923681
0.0100853
0.0107667
0.0113672
0.0119189
0.0124578
0.0130267
0.0135743
0.0138814
0.0139032
0.0138375
0.0137474
0.0136605
0.0135968
0.0135363
0.0134256
0.0131804
0.0128085
0.0122741
0.0114098
0.0101607
0.00843122
0.00612936
0.00314898
0.000332296
0.000297886
0.00276549
0.00537072
0.00733269
0.00876784
0.0098779
0.010748
0.0114621
0.0121
0.0126995
0.0133233
0.0140282
0.0146283
0.0150058
0.0150104
0.0148812
0.0147153
0.0145611
0.0144326
0.0143093
0.0141483
0.0138695
0.0133722
0.012631
0.0116344
0.0103152
0.00855031
0.00621866
0.00320481
0.000335261
0.000318575
0.00295385
0.0057676
0.00787921
0.00939208
0.0105359
0.0114089
0.0121194
0.012768
0.013402
0.0140946
0.0148579
0.015458
0.0157815
0.0157404
0.0155494
0.0153384
0.0151549
0.0149884
0.0148133
0.014577
0.0141969
0.0136049
0.0127818
0.0117227
0.0103598
0.00856924
0.00621648
0.00319875
0.000340272
0.000338166
0.00318722
0.00629111
0.00854806
0.0101156
0.0111928
0.0120013
0.0126728
0.0133408
0.0139731
0.0147041
0.0154344
0.01592
0.0161055
0.0159892
0.0157773
0.0155994
0.0154254
0.0152449
0.0150375
0.0147607
0.0143574
0.0137485
0.0128775
0.0117508
0.010326
0.00849554
0.00612403
0.00313583
0.000340618
0.000361943
0.00353868
0.00674028
0.00897436
0.0104839
0.0115889
0.0124639
0.0131946
0.0137722
0.0143664
0.0151643
0.0158651
0.0162475
0.0163746
0.0162215
0.0159624
0.0157365
0.0155588
0.015392
0.0151853
0.0149057
0.0145017
0.0138892
0.012978
0.0117693
0.0102531
0.008351
0.00596391
0.00303731
0.000338977
0.000388212
0.00370348
0.00680249
0.0089656
0.0104935
0.0116596
0.0126133
0.0134341
0.0140294
0.0146622
0.0155231
0.0162147
0.0165519
0.0166317
0.0164255
0.0161366
0.0158958
0.0156893
0.0154897
0.0152803
0.0150115
0.0146107
0.0140055
0.0130916
0.011813
0.0101925
0.00816532
0.00573002
0.00285388
0.000334138
0.000384
0.00360231
0.00658226
0.00874167
0.0103266
0.0115626
0.0125824
0.0134777
0.0142196
0.014978
0.0158889
0.0165248
0.0169001
0.0168514
0.0166097
0.0163028
0.0160383
0.015807
0.0155931
0.0153608
0.015066
0.0146617
0.0140677
0.0131809
0.0118891
0.0101796
0.0080061
0.00546057
0.00259314
0.000324921
0.000364898
0.0033562
0.00621094
0.00837919
0.0100353
0.0113564
0.0124548
0.0134412
0.0144024
0.0153817
0.0163124
0.0169216
0.0171017
0.0169792
0.0167457
0.0164447
0.0161691
0.0159161
0.0156755
0.0154196