/*--------------------------------*- C++ -*----------------------------------*\
| =========                 |                                                 |
| \\      /  F ield         | OpenFOAM: The Open Source CFD Toolbox           |
|  \\    /   O peration     | Version:  v1606+                                |
|   \\  /    A nd           | Web:      www.OpenFOAM.com                      |
|    \\/     M anipulation  |                                                 |
\*---------------------------------------------------------------------------*/
FoamFile
{
    version     2.0;
    format      ascii;
    class       volScalarField;
    location    "1.35";
    object      alpha.air;
}
// * * * * * * * * * * * * * * * * * * * * * * * * * * * * * * * * * * * * * //

dimensions      [0 0 0 0 0 0 0];

internalField   nonuniform List<scalar> 
6000
(
0.559171
0.559171
0.559171
0.559172
0.572954
0.600219
0.599519
0.59952
0.621698
0.645838
0.644828
0.628406
0.618606
0.618605
0.618605
0.618775
0.620064
0.624918
0.631844
0.606136
0.594611
0.59461
0.598624
0.574003
0.558163
0.552959
0.552694
0.552694
0.552694
0.552694
0.571649
0.589535
0.60255
0.623967
0.649372
0.650769
0.650735
0.651592
0.652687
0.652693
0.652749
0.652679
0.650207
0.647775
0.648553
0.649274
0.649287
0.649327
0.6493
0.649285
0.648356
0.647371
0.647335
0.647388
0.621746
0.599707
0.578443
0.568495
0.565791
0.56106
0.526469
0.526226
0.53108
0.557576
0.595392
0.62406
0.641684
0.646371
0.652629
0.65269
0.652675
0.650796
0.649371
0.646175
0.645028
0.645928
0.647402
0.649284
0.649286
0.649251
0.64923
0.638948
0.624772
0.59087
0.544253
0.52091
0.518051
0.518056
0.527812
0.537445
0.540769
0.525956
0.512146
0.511803
0.533819
0.57379
0.631662
0.652567
0.652617
0.652641
0.652676
0.648221
0.641846
0.639498
0.636578
0.637918
0.643537
0.649273
0.649251
0.64923
0.649195
0.627495
0.58761
0.528746
0.486364
0.486371
0.519904
0.561325
0.587966
0.594879
0.630978
0.606473
0.570558
0.510486
0.502224
0.502498
0.578518
0.638997
0.651249
0.647052
0.630845
0.604775
0.593643
0.596294
0.594737
0.594488
0.600859
0.615895
0.624423
0.631458
0.629045
0.590362
0.528114
0.483743
0.483574
0.521689
0.604252
0.65093
0.669344
0.670662
0.697219
0.695101
0.677096
0.610392
0.515039
0.502224
0.504979
0.584124
0.615946
0.603829
0.566318
0.530818
0.517516
0.522141
0.523111
0.521444
0.5243
0.5382
0.550432
0.561421
0.559996
0.528442
0.484658
0.483459
0.483731
0.612928
0.670162
0.671559
0.671561
0.671563
0.697204
0.697193
0.697177
0.695441
0.635921
0.515073
0.48416
0.515508
0.54403
0.530414
0.496888
0.483742
0.483539
0.483609
0.483505
0.483646
0.483621
0.483743
0.483696
0.484864
0.486218
0.483746
0.483459
0.483699
0.523705
0.635489
0.668055
0.671558
0.671559
0.671561
0.697191
0.697177
0.697162
0.697145
0.67754
0.591552
0.483919
0.483795
0.487019
0.483652
0.483662
0.483536
0.483588
0.483464
0.483583
0.483501
0.483644
0.48362
0.483739
0.483578
0.483726
0.48346
0.483697
0.483362
0.577747
0.610064
0.63001
0.648111
0.657102
0.660385
0.682758
0.681861
0.678393
0.668876
0.647825
0.60219
0.487367
0.483786
0.483657
0.483671
0.483543
0.483595
0.483451
0.483549
0.483401
0.49259
0.507345
0.526436
0.550552
0.560726
0.533047
0.491781
0.486718
0.580467
0.637448
0.586161
0.567223
0.586609
0.607075
0.615597
0.635667
0.631893
0.619995
0.601649
0.601589
0.605205
0.548275
0.48381
0.484151
0.513698
0.548514
0.592923
0.630944
0.654329
0.6825
0.707883
0.730481
0.753288
0.772916
0.77616
0.749245
0.703798
0.69434
0.750473
0.735993
0.61118
0.535233
0.532468
0.553418
0.562795
0.583422
0.57764
0.560615
0.553989
0.591204
0.668544
0.7071
0.641561
0.69751
0.737539
0.755452
0.773053
0.791713
0.805963
0.82069
0.835302
0.853852
0.862199
0.863639
0.860786
0.848131
0.826396
0.821738
0.830644
0.819687
0.691798
0.550709
0.518336
0.530417
0.531069
0.557943
0.554562
0.542522
0.553268
0.650056
0.794916
0.858157
0.852886
0.859979
0.838994
0.810232
0.800037
0.804592
0.813762
0.82656
0.841163
0.863872
0.863881
0.863887
0.862839
0.845922
0.830816
0.83496
0.838118
0.838247
0.774006
0.603789
0.518362
0.529782
0.519977
0.553637
0.554555
0.542554
0.581907
0.742966
0.881281
0.905584
0.903287
0.881445
0.840155
0.803358
0.788974
0.790568
0.799352
0.81268
0.832592
0.860061
0.863873
0.863881
0.854971
0.829042
0.813822
0.826337
0.838109
0.838126
0.81532
0.651128
0.520273
0.529772
0.516724
0.550218
0.554391
0.541065
0.590483
0.79767
0.905575
0.905337
0.902223
0.878525
0.837973
0.796174
0.771406
0.770269
0.779243
0.794105
0.821566
0.852488
0.863869
0.861669
0.842074
0.806908
0.785324
0.807532
0.838106
0.838114
0.825138
0.689903
0.521678
0.529773
0.516624
0.540282
0.554294
0.530033
0.574386
0.823569
0.905333
0.905521
0.897553
0.871622
0.83157
0.787446
0.756589
0.753823
0.76236
0.780694
0.813585
0.844103
0.860087
0.854912
0.827116
0.783713
0.755861
0.78368
0.828102
0.838114
0.825938
0.713215
0.528448
0.528021
0.516565
0.525324
0.554299
0.521867
0.565734
0.833972
0.905504
0.905305
0.891417
0.861672
0.820653
0.775159
0.740565
0.73603
0.746496
0.771298
0.808119
0.836901
0.850581
0.84416
0.812296
0.760949
0.726421
0.75503
0.804571
0.831058
0.817655
0.717263
0.539521
0.510004
0.515112
0.511626
0.54447
0.518258
0.568341
0.831782
0.905301
0.905153
0.883763
0.849546
0.806043
0.757436
0.721179
0.716842
0.731675
0.763367
0.803992
0.830695
0.839223
0.831448
0.796814
0.737885
0.697063
0.721461
0.769523
0.803402
0.791304
0.705914
0.550141
0.497754
0.502441
0.496177
0.525797
0.512969
0.590288
0.818804
0.898081
0.899091
0.872396
0.833282
0.784887
0.732841
0.698007
0.697149
0.718044
0.756157
0.800448
0.824717
0.828353
0.816953
0.777265
0.712056
0.666212
0.679646
0.719555
0.751743
0.745601
0.687119
0.568642
0.477585
0.477517
0.480908
0.494922
0.502466
0.62193
0.801467
0.879238
0.881381
0.852522
0.806848
0.751705
0.69941
0.672128
0.67761
0.70533
0.748729
0.796017
0.817533
0.816806
0.798447
0.747812
0.672013
0.614204
0.619926
0.653094
0.680997
0.687296
0.664001
0.592466
0.492917
0.470282
0.475683
0.475634
0.489678
0.642201
0.78415
0.848218
0.848773
0.816482
0.761621
0.700729
0.656068
0.643991
0.657961
0.690258
0.739141
0.788653
0.807235
0.801815
0.76968
0.696014
0.600607
0.546769
0.55377
0.577373
0.600386
0.620709
0.629315
0.607033
0.55734
0.485692
0.481035
0.483828
0.519871
0.633786
0.749367
0.801302
0.7971
0.75459
0.688895
0.631129
0.605965
0.610811
0.636047
0.668758
0.724832
0.77562
0.791049
0.777957
0.719801
0.616163
0.523949
0.494802
0.496015
0.507017
0.523741
0.552039
0.586118
0.602649
0.595955
0.572415
0.484491
0.535495
0.542337
0.591575
0.679119
0.72862
0.716523
0.659795
0.592565
0.554447
0.55286
0.571125
0.605971
0.637315
0.702817
0.754612
0.765055
0.736177
0.645765
0.533921
0.478386
0.466278
0.462976
0.465095
0.471924
0.490092
0.530837
0.579511
0.59572
0.595643
0.481832
0.542326
0.542275
0.530506
0.569302
0.621307
0.603394
0.548545
0.505368
0.49316
0.501514
0.524866
0.563002
0.597345
0.670348
0.724035
0.724506
0.670925
0.562688
0.48003
0.459254
0.453823
0.450479
0.449581
0.450899
0.456117
0.47606
0.525938
0.575977
0.589699
0.468855
0.519892
0.520485
0.478031
0.483786
0.514081
0.49942
0.474613
0.463303
0.461941
0.466864
0.482152
0.513991
0.552292
0.627848
0.682054
0.666692
0.589592
0.493747
0.457245
0.453382
0.450114
0.446601
0.444143
0.443903
0.444442
0.449319
0.472071
0.524079
0.564685
0.454929
0.470513
0.469123
0.454729
0.463543
0.464793
0.45923
0.456803
0.455517
0.452951
0.453884
0.45871
0.475887
0.510439
0.580958
0.627693
0.59524
0.512264
0.459343
0.455625
0.454091
0.451073
0.446793
0.443147
0.443098
0.443123
0.443122
0.448032
0.475105
0.527335
0.453369
0.453412
0.453388
0.453474
0.463725
0.464437
0.45889
0.457381
0.456043
0.452071
0.45169
0.45221
0.458109
0.480252
0.538186
0.566793
0.524395
0.468176
0.458779
0.458635
0.458145
0.455374
0.450846
0.447833
0.443186
0.44309
0.443118
0.443128
0.452929
0.502573
0.453359
0.453331
0.453439
0.453464
0.46097
0.464342
0.460534
0.459036
0.458211
0.454575
0.451696
0.451688
0.453383
0.464394
0.504008
0.508946
0.47673
0.462005
0.460737
0.461309
0.459719
0.458582
0.465295
0.496414
0.479124
0.443316
0.443092
0.443122
0.444484
0.49411
0.453333
0.453411
0.521762
0.582578
0.511955
0.462694
0.459121
0.459151
0.479964
0.489266
0.453629
0.451694
0.45303
0.458075
0.477129
0.467526
0.463546
0.463176
0.466446
0.475156
0.496624
0.547176
0.638989
0.730369
0.711535
0.537423
0.44337
0.443097
0.443198
0.490289
0.459681
0.548766
0.714481
0.783919
0.741107
0.643829
0.5837
0.606358
0.66898
0.686371
0.556966
0.451923
0.455772
0.457591
0.460036
0.521779
0.57498
0.597849
0.625916
0.671608
0.737748
0.814427
0.872851
0.900283
0.890772
0.769765
0.513699
0.443252
0.443179
0.483351
0.532044
0.63853
0.771116
0.849881
0.871889
0.854094
0.828869
0.844757
0.879217
0.885779
0.807532
0.615392
0.465059
0.457844
0.580275
0.767672
0.827774
0.845319
0.864496
0.886968
0.907415
0.920987
0.924767
0.924775
0.920091
0.887296
0.692438
0.453005
0.443282
0.479573
0.529143
0.638374
0.782443
0.862669
0.892948
0.898171
0.897527
0.911116
0.9299
0.930817
0.902812
0.822275
0.69242
0.651982
0.816431
0.894544
0.910123
0.915512
0.920144
0.924671
0.926261
0.926261
0.925758
0.922364
0.916531
0.902493
0.796848
0.528821
0.443435
0.490231
0.509404
0.633552
0.801294
0.868024
0.895647
0.903559
0.907122
0.920185
0.931666
0.931629
0.907821
0.858825
0.814085
0.804057
0.867561
0.900985
0.911507
0.915562
0.9188
0.922203
0.923614
0.92374
0.921914
0.916484
0.90994
0.899658
0.821941
0.598936
0.468156
0.503338
0.509374
0.629417
0.810602
0.866718
0.89214
0.905463
0.914734
0.925394
0.931629
0.931647
0.906909
0.859825
0.81803
0.813016
0.864687
0.896216
0.906975
0.910956
0.913682
0.916855
0.918343
0.918597
0.916271
0.910748
0.903943
0.893762
0.825423
0.619588
0.502688
0.503627
0.50935
0.631312
0.800809
0.840717
0.872103
0.903582
0.92093
0.929211
0.931649
0.930243
0.906648
0.864143
0.82306
0.812099
0.858
0.890203
0.901989
0.905892
0.908526
0.911635
0.913172
0.913402
0.911081
0.905542
0.898325
0.886791
0.822007
0.611404
0.518913
0.503708
0.509322
0.637298
0.762209
0.79043
0.832855
0.894727
0.922994
0.930598
0.931623
0.926499
0.905984
0.867006
0.824517
0.811421
0.851016
0.884264
0.897602
0.901958
0.90429
0.907198
0.908642
0.908663
0.906194
0.90039
0.892573
0.879128
0.812132
0.599882
0.501929
0.500366
0.509305
0.641689
0.714489
0.736273
0.791695
0.880578
0.922305
0.93047
0.928779
0.920927
0.904528
0.871245
0.82654
0.801762
0.83644
0.875533
0.892337
0.898055
0.900304
0.902977
0.904281
0.903968
0.901153
0.894939
0.88631
0.870669
0.802603
0.593082
0.485789
0.491227
0.511312
0.628884
0.665635
0.69465
0.771771
0.868873
0.91985
0.929734
0.923848
0.914287
0.902047
0.875314
0.829721
0.789623
0.815452
0.862073
0.884029
0.892688
0.895567
0.898235
0.899672
0.899104
0.895929
0.889213
0.879557
0.861503
0.793498
0.59578
0.485723
0.4879
0.549251
0.593354
0.619777
0.665294
0.769832
0.86399
0.914688
0.92599
0.917224
0.905507
0.896404
0.875852
0.832031
0.784801
0.798531
0.847046
0.872774
0.884548
0.888817
0.891862
0.894062
0.893691
0.890389
0.883145
0.872224
0.85139
0.777965
0.591303
0.493405
0.496397
0.556505
0.569976
0.584663
0.635292
0.760432
0.857197
0.903247
0.914331
0.90537
0.892329
0.884004
0.867548
0.826989
0.781993
0.78859
0.83402
0.86085
0.874106
0.879745
0.883346
0.886401
0.886701
0.883793
0.876224
0.863878
0.839838
0.753201
0.567466
0.512295
0.500802
0.5454
0.543533
0.55056
0.616013
0.743316
0.83754
0.880082
0.89143
0.884996
0.873816
0.865495
0.851214
0.815636
0.775193
0.778386
0.821271
0.848106
0.862132
0.868862
0.87296
0.876206
0.87692
0.874715
0.867278
0.853555
0.825927
0.729315
0.549105
0.494942
0.491037
0.526043
0.52145
0.522966
0.590908
0.711701
0.802367
0.843979
0.857214
0.856571
0.849405
0.842596
0.830271
0.799455
0.764815
0.768412
0.808628
0.833627
0.847838
0.855419
0.860072
0.863237
0.86385
0.861851
0.854629
0.839664
0.808042
0.707337
0.539551
0.481047
0.478552
0.510367
0.505316
0.506441
0.563184
0.666395
0.748224
0.791761
0.81111
0.818968
0.818217
0.815673
0.806138
0.779052
0.750233
0.756734
0.793984
0.816581
0.830377
0.83848
0.843608
0.846585
0.846607
0.843975
0.836222
0.819742
0.783618
0.686956
0.538313
0.46942
0.469059
0.506696
0.500942
0.505268
0.542523
0.61223
0.675941
0.720026
0.748799
0.767697
0.77688
0.78105
0.775481
0.753114
0.731459
0.741815
0.774115
0.794981
0.808195
0.816624
0.822007
0.824692
0.823549
0.819017
0.809183
0.78979
0.749471
0.664777
0.536869
0.466104
0.466079
0.506589
0.500789
0.508933
0.530351
0.560512
0.594981
0.629899
0.663878
0.693866
0.716391
0.731539
0.733115
0.718919
0.706638
0.720136
0.746368
0.765574
0.778384
0.78717
0.792626
0.794894
0.791651
0.783307
0.768859
0.744533
0.701771
0.630357
0.525129
0.478859
0.466079
0.506571
0.500746
0.509531
0.513695
0.513804
0.520343
0.535538
0.561593
0.595611
0.630464
0.659369
0.672857
0.672087
0.671574
0.687166
0.707933
0.725046
0.73748
0.746471
0.751663
0.753236
0.746685
0.73234
0.710599
0.680747
0.639139
0.582264
0.511645
0.495069
0.466073
0.506572
0.498578
0.494842
0.483827
0.474656
0.471685
0.474247
0.485562
0.505713
0.534782
0.567991
0.593611
0.608912
0.621529
0.638684
0.655959
0.671038
0.682921
0.691583
0.696043
0.696458
0.686019
0.664979
0.635933
0.603681
0.570296
0.535975
0.50297
0.494719
0.480096
0.502353
0.481449
0.46927
0.461025
0.457811
0.457901
0.464878
0.471105
0.472357
0.477501
0.492967
0.514061
0.535756
0.55664
0.575294
0.590773
0.604007
0.614854
0.622733
0.626445
0.625632
0.612955
0.588949
0.558942
0.53242
0.51418
0.503017
0.494861
0.489478
0.488822
0.482732
0.462055
0.45721
0.457236
0.457289
0.466432
0.476263
0.478096
0.476465
0.473451
0.472343
0.472932
0.481054
0.495165
0.511118
0.524808
0.535702
0.544482
0.550745
0.553435
0.552021
0.541362
0.523229
0.5037
0.489719
0.483189
0.482557
0.484779
0.48339
0.488664
0.46244
0.456964
0.457121
0.4581
0.473672
0.494931
0.497438
0.493161
0.486819
0.478166
0.472335
0.469524
0.466183
0.465959
0.471999
0.480537
0.488074
0.493909
0.497702
0.498921
0.497289
0.492185
0.485465
0.479028
0.473588
0.470061
0.469562
0.472332
0.473712
0.486513
0.45453
0.457003
0.473546
0.474033
0.50733
0.518696
0.516717
0.503368
0.493862
0.485242
0.478143
0.473089
0.467655
0.46194
0.460664
0.4636
0.467731
0.471026
0.47285
0.473189
0.472488
0.471414
0.470421
0.469185
0.466648
0.463777
0.462157
0.462589
0.46343
0.478875
0.456003
0.491797
0.498574
0.498435
0.505173
0.521267
0.521415
0.510355
0.498064
0.490795
0.485077
0.48021
0.472562
0.461978
0.457368
0.457658
0.460124
0.46244
0.463688
0.463988
0.4638
0.463499
0.463366
0.463142
0.461815
0.45973
0.458051
0.457501
0.458483
0.473502
0.476381
0.498569
0.498578
0.49289
0.459236
0.488521
0.520237
0.517102
0.501832
0.49385
0.490291
0.487209
0.478988
0.462571
0.454884
0.454048
0.45576
0.457647
0.458687
0.458969
0.458869
0.458691
0.458602
0.458493
0.457774
0.456428
0.455078
0.454496
0.456844
0.473518
0.498488
0.49855
0.48179
0.448097
0.436894
0.451565
0.499653
0.518362
0.506049
0.496735
0.494769
0.494193
0.480842
0.462321
0.452375
0.451111
0.4525
0.454043
0.454868
0.455101
0.455046
0.454928
0.454846
0.45475
0.454359
0.453541
0.452477
0.451824
0.454597
0.472538
0.498443
0.462915
0.438838
0.433826
0.435791
0.449759
0.484496
0.518505
0.5088
0.498514
0.497176
0.49719
0.479454
0.459685
0.449724
0.448766
0.449979
0.451144
0.451727
0.451895
0.451871
0.451803
0.451756
0.451702
0.45152
0.451068
0.450254
0.449505
0.45204
0.469818
0.466727
0.433891
0.433744
0.433736
0.439167
0.463095
0.487496
0.519962
0.509128
0.50166
0.50027
0.494048
0.47355
0.454343
0.447512
0.447098
0.44801
0.448755
0.449103
0.449202
0.449194
0.449168
0.449169
0.449185
0.449161
0.448991
0.448458
0.447762
0.449921
0.46617
0.436596
0.433725
0.433702
0.433847
0.454155
0.481883
0.505791
0.519985
0.511938
0.50717
0.499183
0.481651
0.46192
0.449522
0.446006
0.445877
0.446372
0.446729
0.446878
0.446913
0.44691
0.446919
0.44697
0.447065
0.44718
0.447242
0.447018
0.446538
0.448426
0.462496
0.433713
0.433697
0.433823
0.452604
0.488739
0.499267
0.518024
0.519987
0.517518
0.503831
0.485983
0.465174
0.452432
0.44654
0.444906
0.444779
0.444899
0.444963
0.444964
0.444943
0.444935
0.44497
0.445068
0.445238
0.445478
0.445741
0.445827
0.445643
0.447321
0.459182
0.433702
0.433812
0.449501
0.490579
0.505155
0.514056
0.518976
0.519778
0.508253
0.487593
0.467387
0.453477
0.447274
0.444688
0.443863
0.443636
0.443509
0.443393
0.443291
0.443222
0.443202
0.44325
0.443384
0.443619
0.443967
0.444412
0.44479
0.444941
0.446441
0.456272
0.433848
0.451863
0.494759
0.496889
0.504902
0.514098
0.51277
0.508321
0.48791
0.467951
0.454057
0.447246
0.444438
0.443242
0.442734
0.442435
0.442187
0.441974
0.441806
0.441695
0.441653
0.441699
0.441852
0.442134
0.442571
0.443174
0.443832
0.444345
0.445744
0.453781
0.472531
0.506015
0.496518
0.487546
0.497559
0.509311
0.501462
0.48983
0.468192
0.454184
0.446895
0.44377
0.442498
0.441907
0.441545
0.441235
0.440944
0.440683
0.440469
0.440317
0.440245
0.440271
0.44042
0.440725
0.441223
0.441956
0.442872
0.443777
0.445219
0.451753
0.616019
0.565568
0.477304
0.474534
0.482725
0.49351
0.488966
0.473105
0.454853
0.44637
0.442816
0.441469
0.440973
0.440701
0.440434
0.440137
0.439826
0.439526
0.439264
0.439063
0.438947
0.438934
0.439054
0.439348
0.439871
0.440692
0.441827
0.44314
0.44482
0.450218
0.667044
0.655846
0.525575
0.474478
0.474459
0.479192
0.475628
0.458899
0.446342
0.441685
0.440289
0.440033
0.439998
0.439892
0.439647
0.439309
0.438932
0.438557
0.438216
0.437938
0.437751
0.437677
0.43774
0.437986
0.438484
0.439333
0.440621
0.442319
0.444435
0.449157
0.667044
0.667043
0.638808
0.528585
0.473761
0.471774
0.461587
0.447899
0.440862
0.439066
0.43919
0.439715
0.439939
0.439789
0.439407
0.438895
0.438364
0.437853
0.437386
0.436988
0.436687
0.436512
0.436487
0.436646
0.437065
0.437864
0.439204
0.441202
0.443897
0.448465
0.667043
0.667043
0.667042
0.614849
0.493715
0.464914
0.449476
0.440782
0.438038
0.438471
0.439604
0.44041
0.440565
0.440198
0.439527
0.438764
0.438033
0.43737
0.436775
0.436248
0.435808
0.43549
0.435332
0.435363
0.435647
0.436314
0.437577
0.439718
0.443009
0.447939
0.659848
0.65279
0.664676
0.611524
0.501046
0.455131
0.441049
0.437443
0.437873
0.439675
0.4419
0.442774
0.442328
0.441111
0.439709
0.438504
0.437573
0.436831
0.436202
0.435633
0.43511
0.434661
0.43434
0.434203
0.434302
0.434755
0.435805
0.437875
0.441601
0.447288
0.621528
0.5987
0.621501
0.565939
0.480863
0.443844
0.437408
0.437412
0.439803
0.444339
0.447373
0.446322
0.443847
0.440685
0.438559
0.437236
0.436389
0.435815
0.435356
0.434917
0.434457
0.433984
0.433552
0.433242
0.433128
0.433308
0.434018
0.435786
0.439623
0.446165
0.549173
0.523498
0.544682
0.502294
0.453373
0.437386
0.437337
0.439246
0.448886
0.453986
0.452709
0.446693
0.440761
0.437055
0.435172
0.434403
0.434132
0.434063
0.434019
0.433901
0.433667
0.43332
0.432907
0.432508
0.432213
0.432111
0.432401
0.433656
0.437194
0.444256
0.484271
0.473049
0.486712
0.463285
0.441175
0.437123
0.437466
0.452301
0.460515
0.4598
0.449155
0.439391
0.433431
0.431387
0.431075
0.43132
0.431735
0.432162
0.432498
0.432689
0.432709
0.432567
0.432286
0.431922
0.431561
0.431265
0.431154
0.431758
0.434595
0.441461
0.48149
0.458065
0.460709
0.448532
0.437528
0.437149
0.444707
0.46082
0.460575
0.451229
0.437887
0.429983
0.427622
0.428019
0.429097
0.430188
0.430963
0.43146
0.43177
0.431936
0.431973
0.431888
0.431672
0.431375
0.431058
0.430733
0.430398
0.430355
0.432184
0.438025
0.494416
0.457421
0.449055
0.441551
0.435841
0.4373
0.459288
0.460691
0.452569
0.438294
0.428195
0.424836
0.42606
0.428666
0.430628
0.431904
0.432547
0.432754
0.432678
0.432445
0.432127
0.43173
0.43129
0.4309
0.430573
0.430326
0.429982
0.429544
0.430318
0.434505
0.505093
0.459848
0.443631
0.437641
0.435242
0.440426
0.459293
0.457322
0.441677
0.428661
0.42334
0.424362
0.428394
0.433176
0.436234
0.437528
0.437703
0.437163
0.436146
0.434901
0.433638
0.432495
0.431534
0.430744
0.430166
0.429859
0.429557
0.429047
0.42909
0.431634
0.505163
0.464305
0.441716
0.435667
0.435227
0.442991
0.458248
0.451037
0.432513
0.422832
0.422849
0.42732
0.440129
0.448697
0.450893
0.450753
0.449575
0.447359
0.444503
0.44136
0.438276
0.435512
0.433204
0.431391
0.430148
0.42938
0.428931
0.428487
0.428287
0.42958
0.503126
0.464801
0.440754
0.435221
0.435165
0.444833
0.454854
0.442215
0.425716
0.420269
0.423419
0.44607
0.483836
0.485511
0.481081
0.475372
0.470819
0.465969
0.460526
0.454584
0.448583
0.443003
0.438207
0.434265
0.431224
0.429338
0.428225
0.42761
0.427358
0.427845
0.490451
0.458929
0.439198
0.435198
0.435212
0.443925
0.450468
0.434998
0.421018
0.420083
0.43487
0.507261
0.507498
0.507359
0.507492
0.500626
0.493013
0.486891
0.480767
0.473691
0.465914
0.457537
0.449352
0.441931
0.435698
0.430971
0.428204
0.426629
0.426122
0.426216
0.469966
0.447575
0.43865
0.435294
0.435132
0.441548
0.44463
0.430494
0.418816
0.419953
0.458857
0.507483
0.507355
0.507269
0.507341
0.50737
0.503411
0.497941
0.493363
0.488411
0.482877
0.475935
0.467661
0.457561
0.448943
0.439005
0.431561
0.427222
0.42567
0.425656
0.455039
0.447464
0.442303
0.437792
0.435211
0.43879
0.438561
0.427298
0.418776
0.425064
0.480823
0.507351
0.491108
0.487837
0.497476
0.505227
0.502254
0.497051
0.493026
0.491479
0.490205
0.488185
0.485393
0.480941
0.480029
0.466053
0.448704
0.434085
0.426719
0.425659
0.454325
0.455088
0.449825
0.442509
0.437538
0.437618
0.43448
0.424974
0.418696
0.42745
0.494172
0.507481
0.479987
0.447096
0.454537
0.485672
0.497172
0.494354
0.491422
0.490374
0.490691
0.492291
0.494907
0.498049
0.497851
0.497979
0.489911
0.456616
0.436327
0.425745
0.462544
0.467821
0.455008
0.446648
0.442917
0.439068
0.432805
0.423385
0.417908
0.426742
0.494085
0.486336
0.441207
0.427766
0.436066
0.471176
0.488306
0.490173
0.489195
0.48892
0.489667
0.491376
0.494105
0.497839
0.497985
0.497837
0.497915
0.473921
0.458122
0.43622
0.479401
0.472076
0.451958
0.448258
0.450561
0.444583
0.433545
0.422716
0.417882
0.424582
0.483727
0.465047
0.423839
0.426684
0.464906
0.478794
0.484016
0.486394
0.486876
0.487184
0.487217
0.487381
0.488598
0.49663
0.497827
0.497127
0.493666
0.487338
0.51402
0.473784
0.479322
0.463211
0.448882
0.450332
0.464127
0.467499
0.437845
0.423735
0.417811
0.426981
0.452108
0.437125
0.418939
0.435541
0.488906
0.485038
0.4829
0.483699
0.484862
0.48551
0.485765
0.486033
0.490775
0.496455
0.49257
0.492466
0.499955
0.5755
0.706288
0.671092
0.479318
0.45662
0.448897
0.45401
0.486484
0.494259
0.448864
0.427328
0.417705
0.421675
0.42748
0.418368
0.41846
0.461803
0.488913
0.486352
0.482853
0.482075
0.482826
0.483869
0.485991
0.489252
0.490722
0.490772
0.491368
0.528988
0.640484
0.808417
0.916368
0.905228
0.479308
0.454815
0.44884
0.459533
0.494207
0.494052
0.46544
0.433632
0.417599
0.413426
0.411907
0.410678
0.423627
0.495506
0.489058
0.483628
0.481996
0.479355
0.479231
0.479154
0.479062
0.478207
0.478292
0.509624
0.631452
0.77753
0.901456
0.968293
0.988475
0.986208
0.478865
0.455277
0.448913
0.467348
0.493789
0.494221
0.484845
0.443438
0.41862
0.410424
0.410478
0.410426
0.432889
0.510399
0.501814
0.497668
0.495363
0.487925
0.485974
0.489341
0.501325
0.525328
0.628591
0.808563
0.921711
0.971541
0.991141
0.996514
0.997223
0.996651
0.474661
0.457667
0.453431
0.466547
0.480532
0.494013
0.492202
0.45305
0.41982
0.410525
0.410077
0.426877
0.578902
0.688407
0.680252
0.668041
0.646148
0.625778
0.62903
0.660704
0.746415
0.846984
0.912334
0.953362
0.983375
0.995078
0.997686
0.997867
0.997649
0.997182
0.47188
0.465617
0.46444
0.462105
0.462179
0.462068
0.462014
0.452094
0.42356
0.410057
0.410565
0.448554
0.655995
0.85386
0.9162
0.916237
0.90477
0.8971
0.90381
0.927598
0.960975
0.969263
0.950297
0.948446
0.977384
0.993833
0.997454
0.997866
0.997616
0.997152
0.465695
0.467632
0.465959
0.551659
0.712075
0.702065
0.61115
0.456309
0.43087
0.410579
0.40983
0.437076
0.614479
0.871394
0.975336
0.985386
0.984747
0.984464
0.985336
0.98697
0.987727
0.980771
0.954786
0.940182
0.960632
0.98618
0.995333
0.997331
0.997319
0.996905
0.518949
0.56144
0.717612
0.84514
0.873354
0.845662
0.805058
0.703502
0.524251
0.410364
0.410669
0.438403
0.586099
0.872734
0.983048
0.990298
0.990365
0.99032
0.990147
0.98976
0.988912
0.985026
0.967261
0.940182
0.943637
0.969714
0.988876
0.994945
0.995998
0.995825
0.845716
0.880573
0.906042
0.911917
0.886667
0.855676
0.838355
0.765034
0.559014
0.425544
0.418065
0.44464
0.647688
0.930818
0.988349
0.990391
0.990387
0.990384
0.990192
0.98979
0.989173
0.987533
0.979254
0.947303
0.942673
0.953059
0.976457
0.988211
0.991592
0.992316
0.908972
0.936626
0.928209
0.916776
0.885754
0.852245
0.820494
0.722811
0.556133
0.437286
0.440142
0.554049
0.865563
0.982205
0.99034
0.99039
0.990388
0.990383
0.990175
0.989753
0.989231
0.98856
0.986202
0.972902
0.942933
0.947385
0.961931
0.975404
0.981291
0.983966
0.909149
0.937616
0.928426
0.920569
0.889715
0.855121
0.813859
0.682343
0.550738
0.485377
0.563725
0.82054
0.972454
0.990042
0.990392
0.990389
0.990387
0.990363
0.990113
0.989666
0.989218
0.988912
0.988495
0.985761
0.967488
0.954553
0.954267
0.960966
0.966555
0.970798
0.906478
0.937648
0.930552
0.92495
0.898397
0.864388
0.80973
0.668865
0.555275
0.562417
0.715231
0.932255
0.987541
0.99039
0.990389
0.990387
0.990384
0.990328
0.990025
0.98957
0.989203
0.989079
0.989176
0.989157
0.98522
0.969881
0.954276
0.954273
0.956965
0.959315
0.903363
0.93761
0.93345
0.927051
0.905711
0.871476
0.805875
0.667643
0.565018
0.60386
0.790319
0.9604
0.989761
0.990384
0.990386
0.990384
0.990355
0.99026
0.989919
0.989478
0.989198
0.989176
0.989509
0.990132
0.990208
0.984384
0.966394
0.958786
0.956595
0.955941
0.90037
0.937596
0.934291
0.927722
0.908633
0.873558
0.802427
0.677589
0.607164
0.649881
0.817728
0.966943
0.990026
0.99038
0.990382
0.990371
0.990285
0.990129
0.989764
0.989383
0.989198
0.989246
0.989699
0.990701
0.991657
0.99091
0.983081
0.974158
0.966252
0.960976
0.898625
0.937553
0.932778
0.926415
0.909136
0.87325
0.798817
0.68995
0.643306
0.677054
0.824126
0.967048
0.989808
0.990374
0.990373
0.990241
0.990134
0.989899
0.989524
0.989247
0.989159
0.989274
0.989868
0.991051
0.992329
0.992927
0.991326
0.987065
0.97976
0.971193
0.896728
0.937332
0.927748
0.919695
0.903493
0.867121
0.792381
0.694069
0.660717
0.68514
0.815446
0.960277
0.989222
0.990255
0.990111
0.989898
0.989826
0.989512
0.989153
0.988993
0.989006
0.989246
0.989999
0.991323
0.992699
0.993412
0.993268
0.991859
0.987687
0.980812
0.893198
0.933119
0.918504
0.907269
0.889888
0.852142
0.7779
0.691818
0.667571
0.683655
0.780613
0.947304
0.988072
0.989692
0.989403
0.989208
0.989187
0.988827
0.988546
0.988508
0.98866
0.989121
0.990062
0.991522
0.992887
0.993427
0.993428
0.992879
0.990397
0.986482
0.887649
0.923502
0.905826
0.891746
0.872329
0.831992
0.75583
0.677006
0.668408
0.663446
0.739409
0.937692
0.986451
0.988364
0.988
0.987901
0.987934
0.987634
0.987501
0.987634
0.98803
0.988791
0.990024
0.991606
0.992963
0.993428
0.993424
0.993092
0.991253
0.988736
0.873053
0.907414
0.886922
0.870915
0.850839
0.809677
0.732262
0.655198
0.655714
0.625445
0.709642
0.936197
0.984541
0.986129
0.98558
0.985555
0.985708
0.985639
0.985785
0.986184
0.98692
0.98807
0.989715
0.991566
0.992978
0.993424
0.993423
0.993166
0.991576
0.989488
0.826551
0.878264
0.854331
0.83976
0.822155
0.784313
0.711197
0.635063
0.630469
0.577091
0.697942
0.945768
0.982445
0.982987
0.981878
0.981803
0.982204
0.982577
0.983207
0.983993
0.985052
0.986617
0.988784
0.991172
0.992865
0.993422
0.993421
0.993181
0.991662
0.989735
0.710381
0.819396
0.796788
0.793302
0.783058
0.752283
0.690749
0.621668
0.603889
0.53488
0.704852
0.956249
0.980083
0.979167
0.977096
0.976806
0.977472
0.978464
0.979742
0.980929
0.98216
0.983977
0.986722
0.989941
0.992336
0.9933
0.993411
0.993113
0.991631
0.989786
0.499781
0.685935
0.702119
0.727051
0.729236
0.709576
0.667461
0.61311
0.586573
0.511404
0.740303
0.960393
0.977051
0.975251
0.972057
0.97135
0.972136
0.973821
0.975748
0.97712
0.978209
0.979872
0.983063
0.987328
0.99085
0.992593
0.992996
0.992688
0.991322
0.98964
0.436052
0.471962
0.568448
0.632302
0.65734
0.654495
0.636925
0.604081
0.581413
0.50487
0.756685
0.960568
0.97361
0.971721
0.967563
0.966357
0.967123
0.969576
0.972033
0.973236
0.973742
0.974779
0.977897
0.983004
0.987756
0.990543
0.991417
0.991164
0.990007
0.988811
0.435852
0.435934
0.449156
0.509657
0.564607
0.590511
0.59603
0.58967
0.580671
0.504687
0.757486
0.953925
0.970069
0.968582
0.963856
0.962205
0.963007
0.966348
0.969292
0.970265
0.970058
0.970305
0.972477
0.977385
0.982821
0.986465
0.987836
0.987522
0.986507
0.986218
0.447224
0.435816
0.43586
0.442005
0.478504
0.520441
0.547158
0.564263
0.58011
0.507429
0.70166
0.93717
0.966104
0.965646
0.960809
0.958677
0.959696
0.963934
0.967477
0.968626
0.968259
0.968149
0.968896
0.971957
0.976907
0.980642
0.982206
0.981521
0.980235
0.980853
0.499635
0.435975
0.435787
0.435901
0.444223
0.467161
0.497503
0.524143
0.577035
0.520798
0.60494
0.901902
0.961216
0.962741
0.958257
0.955495
0.956625
0.961588
0.965936
0.967796
0.967946
0.967938
0.967938
0.968665
0.971889
0.974903
0.976199
0.975019
0.972982
0.97336
0.499972
0.442633
0.435896
0.435812
0.438058
0.445837
0.461273
0.485206
0.552189
0.523275
0.537946
0.849618
0.954124
0.959865
0.956098
0.952542
0.953257
0.958485
0.963707
0.966886
0.968043
0.967955
0.967937
0.967938
0.969427
0.971411
0.97233
0.971014
0.968286
0.966915
0.500404
0.456721
0.441141
0.438356
0.438129
0.439155
0.44352
0.457981
0.506719
0.510495
0.506056
0.79164
0.943536
0.957033
0.954391
0.949953
0.949715
0.954306
0.96003
0.96472
0.968047
0.969144
0.968846
0.9685
0.969135
0.970468
0.971237
0.970083
0.967154
0.964387
0.500588
0.471313
0.466141
0.456842
0.442701
0.439192
0.439167
0.442293
0.46249
0.490164
0.489706
0.736004
0.93077
0.954265
0.953137
0.948194
0.946683
0.94964
0.954999
0.960482
0.966239
0.969845
0.971353
0.971488
0.970928
0.97137
0.971961
0.971234
0.968353
0.964394
0.500824
0.503772
0.618134
0.591408
0.482392
0.46951
0.439989
0.43962
0.446405
0.47847
0.475292
0.692278
0.921915
0.951835
0.952016
0.947594
0.944671
0.945607
0.949628
0.954581
0.961542
0.968594
0.972425
0.974169
0.974162
0.973867
0.974166
0.974017
0.971194
0.965497
0.609179
0.73413
0.790084
0.758421
0.641366
0.581021