/*--------------------------------*- C++ -*----------------------------------*\
| =========                 |                                                 |
| \\      /  F ield         | OpenFOAM: The Open Source CFD Toolbox           |
|  \\    /   O peration     | Version:  v1606+                                |
|   \\  /    A nd           | Web:      www.OpenFOAM.com                      |
|    \\/     M anipulation  |                                                 |
\*---------------------------------------------------------------------------*/
FoamFile
{
    version     2.0;
    format      ascii;
    class       volVectorField;
    location    "1.35";
    object      U.air;
}
// * * * * * * * * * * * * * * * * * * * * * * * * * * * * * * * * * * * * * //

dimensions      [0 1 -1 0 0 0 0];

internalField   nonuniform List<vector> 
6000
(
(0.00828124 0.248343 0)
(0.04646 0.194398 0)
(0.0736856 0.183032 0)
(0.110821 0.164656 0)
(0.116308 0.15917 0)
(0.0873921 0.15629 0)
(0.0727157 0.129704 0)
(0.0747375 0.126532 0)
(0.0708775 0.153574 0)
(0.0386002 0.199686 0)
(-0.00549077 0.21875 0)
(-0.0297122 0.195394 0)
(-0.0263694 0.177971 0)
(-0.0100894 0.175939 0)
(0.00310258 0.180408 0)
(0.00697531 0.1859 0)
(0.000557559 0.188271 0)
(-0.0193796 0.192373 0)
(-0.0628893 0.203235 0)
(-0.0957509 0.162029 0)
(-0.107707 0.155445 0)
(-0.122634 0.168587 0)
(-0.148843 0.188328 0)
(-0.176657 0.173974 0)
(-0.156801 0.192695 0)
(-0.091131 0.219586 0)
(-0.0251601 0.244095 0)
(0.0179761 0.266754 0)
(0.0251428 0.270395 0)
(0.0195055 0.294608 0)
(0.00233205 0.972552 0)
(-0.00839885 1.00939 0)
(0.021008 0.961765 0)
(0.0655123 0.955583 0)
(0.111156 1.01613 0)
(0.134402 1.02322 0)
(0.111392 1.02638 0)
(0.0508409 1.03041 0)
(-0.000288121 1.03629 0)
(-0.0238858 1.02129 0)
(-0.0162264 0.997437 0)
(-0.000379352 0.972474 0)
(0.00379069 0.948389 0)
(0.000879764 0.943162 0)
(-0.00204872 0.949717 0)
(-0.00137933 0.961767 0)
(-0.0034962 0.983771 0)
(-0.015587 1.00904 0)
(-0.0307457 1.02853 0)
(-0.0651941 1.03456 0)
(-0.14284 1.04221 0)
(-0.230679 1.03296 0)
(-0.264668 1.01211 0)
(-0.247821 0.981398 0)
(-0.14971 0.876254 0)
(-0.0274087 0.868511 0)
(0.0494005 0.914566 0)
(0.0814481 0.985282 0)
(0.0715684 1.07057 0)
(0.0158117 1.08327 0)
(-0.0514672 0.907634 0)
(-0.11322 0.826857 0)
(-0.114084 0.724564 0)
(-0.0918729 0.656371 0)
(-0.0143583 0.667282 0)
(0.0916828 0.716302 0)
(0.120711 0.792383 0)
(0.0690683 0.813048 0)
(0.0108693 0.817767 0)
(-0.0245624 0.797557 0)
(-0.0384276 0.762501 0)
(-0.0294325 0.726846 0)
(-0.00941153 0.725789 0)
(-0.00399375 0.733222 0)
(-0.00538759 0.739847 0)
(-0.00210251 0.747136 0)
(-0.00043252 0.759821 0)
(-0.0106429 0.791058 0)
(-0.0369158 0.818396 0)
(-0.075244 0.846262 0)
(-0.146972 0.889441 0)
(-0.21909 0.854929 0)
(-0.236615 0.775155 0)
(-0.161464 0.624053 0)
(-0.0193137 0.518877 0)
(0.10135 0.588886 0)
(0.151086 0.736394 0)
(0.135887 0.848189 0)
(0.0913266 0.939842 0)
(0.0295953 0.978495 0)
(-0.0452638 1.0521 0)
(-0.133943 0.990127 0)
(-0.204758 0.913057 0)
(-0.240126 0.794001 0)
(-0.193437 0.722938 0)
(-0.0738632 0.702155 0)
(0.0449255 0.836248 0)
(0.0559141 0.9137 0)
(-0.00208436 0.898651 0)
(-0.0531123 0.857359 0)
(-0.0743638 0.805008 0)
(-0.0547757 0.748841 0)
(-0.0133545 0.73301 0)
(0.0104759 0.756344 0)
(0.0116152 0.763058 0)
(0.0111762 0.767953 0)
(0.00881538 0.792515 0)
(-0.00410956 0.839773 0)
(-0.0271369 0.870519 0)
(-0.0601881 0.913718 0)
(-0.100189 0.970916 0)
(-0.12764 0.909657 0)
(-0.0911686 0.780581 0)
(0.00296637 0.621821 0)
(0.115452 0.535479 0)
(0.181886 0.659279 0)
(0.168451 0.834955 0)
(0.100689 0.940722 0)
(0.0343925 1.01218 0)
(0.0117078 1.02176 0)
(-0.0174555 1.05076 0)
(-0.0686275 0.981425 0)
(-0.1794 0.932993 0)
(-0.272828 0.811205 0)
(-0.296121 0.704994 0)
(-0.20989 0.612325 0)
(-0.0771397 0.740358 0)
(0.0173129 0.924495 0)
(0.00212677 0.946957 0)
(-0.0377553 0.8836 0)
(-0.0334387 0.784441 0)
(0.0110578 0.699776 0)
(0.0525592 0.708394 0)
(0.0660748 0.769173 0)
(0.0541741 0.793856 0)
(0.0312404 0.800833 0)
(0.00821344 0.817704 0)
(-0.013888 0.861899 0)
(-0.023824 0.891984 0)
(-0.0346814 0.942887 0)
(-0.0223247 0.998499 0)
(0.000777761 0.914607 0)
(0.0411309 0.744356 0)
(0.100296 0.562751 0)
(0.184275 0.484927 0)
(0.16218 0.654911 0)
(0.0558991 0.857283 0)
(-0.0294151 0.960103 0)
(-0.041642 0.997883 0)
(-0.00713561 0.99367 0)
(0.0188836 1.01453 0)
(0.040443 1.014 0)
(-0.00145653 1.00768 0)
(-0.110723 0.863156 0)
(-0.232441 0.713086 0)
(-0.284174 0.619685 0)
(-0.185624 0.655559 0)
(-0.0574537 0.884804 0)
(0.0141681 0.966562 0)
(0.0510765 0.89003 0)
(0.0913503 0.762186 0)
(0.121608 0.70028 0)
(0.12209 0.735356 0)
(0.109155 0.817303 0)
(0.0899103 0.857485 0)
(0.0592864 0.873448 0)
(0.0200816 0.893012 0)
(-0.0181631 0.929637 0)
(-0.0444963 0.938703 0)
(-0.0438735 0.967626 0)
(0.00331449 0.992497 0)
(0.0699329 0.919029 0)
(0.100064 0.763014 0)
(0.106378 0.59286 0)
(0.0891638 0.482448 0)
(-0.0140003 0.761764 0)
(-0.140212 0.914679 0)
(-0.156995 0.896736 0)
(-0.104429 0.877636 0)
(-0.0273138 0.873827 0)
(0.030208 0.883829 0)
(0.105747 0.890817 0)
(0.160189 0.927991 0)
(0.123742 0.945645 0)
(-0.0314271 0.815531 0)
(-0.159934 0.614406 0)
(-0.179785 0.616935 0)
(-0.07243 0.828848 0)
(0.0504436 0.926549 0)
(0.141696 0.874772 0)
(0.18275 0.782918 0)
(0.177911 0.765328 0)
(0.151559 0.823096 0)
(0.127802 0.902359 0)
(0.114195 0.948144 0)
(0.0931817 0.979323 0)
(0.0592158 1.01455 0)
(0.0205029 1.05576 0)
(-0.0240095 1.06499 0)
(-0.0583549 1.05491 0)
(-0.033076 1.0183 0)
(0.0360615 0.936099 0)
(0.0784345 0.825418 0)
(0.0470822 0.670569 0)
(-0.134038 0.635742 0)
(-0.345009 0.860973 0)
(-0.333286 0.863898 0)
(-0.22292 0.813461 0)
(-0.134274 0.7867 0)
(-0.0370255 0.789733 0)
(0.0429675 0.801548 0)
(0.138005 0.806209 0)
(0.218565 0.850855 0)
(0.302345 0.89962 0)
(0.294025 0.919698 0)
(0.106875 0.752627 0)
(-0.0375144 0.621387 0)
(-0.00706606 0.794279 0)
(0.0764871 0.896168 0)
(0.154651 0.900096 0)
(0.181523 0.877762 0)
(0.167547 0.902133 0)
(0.146459 0.975412 0)
(0.135264 1.05547 0)
(0.138233 1.10785 0)
(0.140371 1.15084 0)
(0.132132 1.1958 0)
(0.110615 1.24197 0)
(0.0549084 1.2662 0)
(-0.0438958 1.23995 0)
(-0.101592 1.12911 0)
(-0.0561131 0.987329 0)
(0.053815 0.902299 0)
(-0.0288079 0.845381 0)
(-0.40012 0.977899 0)
(-0.638975 0.91738 0)
(-0.513834 0.742576 0)
(-0.318931 0.68879 0)
(-0.179804 0.681726 0)
(-0.0507961 0.696497 0)
(0.0533475 0.705054 0)
(0.175558 0.710986 0)
(0.298042 0.748704 0)
(0.459303 0.807415 0)
(0.565643 0.947282 0)
(0.438794 0.993163 0)
(0.157118 0.778027 0)
(0.0488425 0.85116 0)
(0.0926522 0.959201 0)
(0.140198 0.997498 0)
(0.164385 0.974523 0)
(0.159369 0.978046 0)
(0.128429 1.00739 0)
(0.119984 1.03515 0)
(0.130419 1.05236 0)
(0.13345 1.06629 0)
(0.125744 1.08506 0)
(0.104975 1.11658 0)
(0.060361 1.14819 0)
(-0.0149792 1.13591 0)
(-0.0725107 1.00839 0)
(-0.0644772 0.854244 0)
(-0.0263279 0.811218 0)
(-0.183161 1.00325 0)
(-0.595054 1.25608 0)
(-0.746409 0.886231 0)
(-0.605603 0.586011 0)
(-0.381098 0.528232 0)
(-0.208616 0.552166 0)
(-0.0609404 0.57769 0)
(0.058329 0.593704 0)
(0.193369 0.591865 0)
(0.349868 0.605142 0)
(0.564971 0.661633 0)
(0.721438 0.927085 0)
(0.672268 1.21371 0)
(0.295248 1.02566 0)
(0.0863062 0.873159 0)
(0.0796876 0.902186 0)
(0.0524544 0.879775 0)
(0.0453218 0.832586 0)
(0.0542233 0.849316 0)
(0.0526971 0.892802 0)
(0.0780882 0.910982 0)
(0.12005 0.96207 0)
(0.138108 1.01177 0)
(0.108005 1.07517 0)
(0.0425859 1.14422 0)
(-0.0219905 1.21209 0)
(-0.073768 1.19762 0)
(-0.113578 1.02106 0)
(-0.129619 0.810581 0)
(-0.189769 0.817735 0)
(-0.36538 1.2299 0)
(-0.549313 1.39042 0)
(-0.624825 0.808155 0)
(-0.588222 0.430348 0)
(-0.394981 0.369162 0)
(-0.219504 0.432551 0)
(-0.067942 0.469582 0)
(0.0618167 0.498563 0)
(0.203004 0.482046 0)
(0.376034 0.453847 0)
(0.594978 0.502291 0)
(0.733544 0.824215 0)
(0.677588 1.28703 0)
(0.394786 1.23751 0)
(0.106828 0.814948 0)
(-0.0350994 0.875618 0)
(-0.126747 0.905133 0)
(-0.134152 0.860292 0)
(-0.103332 0.862564 0)
(-0.0553611 0.888166 0)
(0.00464542 0.812051 0)
(0.0445544 0.844354 0)
(0.0653662 0.90054 0)
(0.0206282 0.998194 0)
(-0.0609367 1.04158 0)
(-0.111921 1.04834 0)
(-0.13264 1.00941 0)
(-0.142332 0.87625 0)
(-0.172606 0.75396 0)
(-0.261916 0.848182 0)
(-0.310674 1.17232 0)
(-0.297438 1.31092 0)
(-0.379152 0.794806 0)
(-0.476853 0.296594 0)
(-0.370628 0.214588 0)
(-0.21184 0.305485 0)
(-0.0696841 0.344587 0)
(0.06383 0.381209 0)
(0.20908 0.353604 0)
(0.377638 0.289415 0)
(0.569464 0.319107 0)
(0.60801 0.695238 0)
(0.564217 1.35991 0)
(0.343429 1.38326 0)
(0.0539692 1.05524 0)
(-0.206608 0.957936 0)
(-0.281451 0.786965 0)
(-0.240017 0.626906 0)
(-0.175539 0.604562 0)
(-0.0961363 0.592503 0)
(-0.0392499 0.617748 0)
(-0.00935114 0.682911 0)
(0.0160653 0.781317 0)
(-0.0100473 0.947926 0)
(-0.0732092 0.99168 0)
(-0.129902 0.995064 0)
(-0.163104 0.946488 0)
(-0.149797 0.794769 0)
(-0.13552 0.704599 0)
(-0.157043 0.811229 0)
(-0.149129 1.04607 0)
(-0.0718047 1.17084 0)
(-0.188773 0.899558 0)
(-0.296844 0.250403 0)
(-0.298575 0.0844454 0)
(-0.173049 0.184042 0)
(-0.0583494 0.222034 0)
(0.0579474 0.257334 0)
(0.188158 0.220695 0)
(0.327592 0.121163 0)
(0.461631 0.139248 0)
(0.457825 0.660907 0)
(0.294179 1.31266 0)
(0.135639 1.40085 0)
(-0.0274349 1.17554 0)
(-0.182325 0.943042 0)
(-0.19469 0.690724 0)
(-0.183045 0.535557 0)
(-0.156576 0.556118 0)
(-0.0903701 0.573886 0)
(-0.0425621 0.628322 0)
(-0.0192766 0.653466 0)
(-0.00943205 0.781712 0)
(-0.0164344 0.989709 0)
(-0.0684273 1.06163 0)
(-0.141252 1.06267 0)
(-0.175397 0.961112 0)
(-0.135967 0.766745 0)
(-0.0941735 0.679254 0)
(-0.0576319 0.7921 0)
(-0.0258231 0.994107 0)
(0.0341719 1.10002 0)
(-0.0126626 0.909962 0)
(-0.124982 0.28216 0)
(-0.187242 0.00290605 0)
(-0.113909 0.0890859 0)
(-0.0384186 0.124741 0)
(0.0381727 0.145908 0)
(0.135652 0.11067 0)
(0.218896 -0.00840455 0)
(0.279037 0.00280348 0)
(0.275709 0.7156 0)
(0.0986355 1.36522 0)
(0.0102863 1.41273 0)
(-0.0459246 1.24489 0)
(-0.0927753 0.967815 0)
(-0.0863214 0.681557 0)
(-0.102964 0.575063 0)
(-0.0857739 0.498778 0)
(-0.0382253 0.510578 0)
(0.00176949 0.581487 0)
(0.00762279 0.694861 0)
(-0.00878702 0.787819 0)
(-0.025141 1.01512 0)
(-0.0725904 1.12814 0)
(-0.142623 1.11002 0)
(-0.151481 0.949253 0)
(-0.11382 0.721134 0)
(-0.0696779 0.668281 0)
(-0.00165478 0.726701 0)
(0.0493883 0.953522 0)
(0.0992725 1.06478 0)
(0.0961356 0.945141 0)
(-0.00645599 0.368965 0)
(-0.0810249 -0.0278356 0)
(-0.0560295 0.0317091 0)
(-0.0167369 0.0663007 0)
(0.0160611 0.0722594 0)
(0.0764181 0.0420301 0)
(0.108592 -0.0768806 0)
(0.121899 -0.058501 0)
(0.0975548 0.719826 0)
(0.000913199 1.40405 0)
(-0.0352525 1.45473 0)
(-0.0522432 1.27218 0)
(-0.0335238 0.968347 0)
(-0.0169241 0.679076 0)
(-0.0219807 0.562926 0)
(-0.00303149 0.46414 0)
(0.0257984 0.486548 0)
(0.048133 0.569699 0)
(0.0421277 0.706469 0)
(0.00262288 0.817625 0)
(-0.0424932 1.05294 0)
(-0.0894665 1.18951 0)
(-0.12859 1.14537 0)
(-0.127898 0.931897 0)
(-0.117047 0.737073 0)
(-0.0598668 0.587414 0)
(0.0117934 0.712971 0)
(0.0866427 0.893323 0)
(0.140893 1.02644 0)
(0.172766 0.957519 0)
(0.0986533 0.45734 0)
(0.0127203 -0.0171307 0)
(-0.00837645 0.00657539 0)
(0.00468102 0.0430878 0)
(-0.00326273 0.0305079 0)
(0.03163 0.00627885 0)
(0.0350977 -0.101866 0)
(0.0315265 -0.0632928 0)
(-0.00493059 0.767859 0)
(-0.0502287 1.4271 0)
(-0.0561001 1.46355 0)
(-0.0420186 1.24833 0)
(0.0147434 0.935335 0)
(0.0440231 0.664082 0)
(0.0565068 0.54935 0)
(0.0753411 0.442455 0)
(0.0884828 0.469259 0)
(0.0942155 0.570563 0)
(0.0721014 0.747018 0)
(0.0081129 0.882162 0)
(-0.0634719 1.10778 0)
(-0.101524 1.22362 0)
(-0.104028 1.15461 0)
(-0.112031 0.923054 0)
(-0.106628 0.692774 0)
(-0.0507933 0.519086 0)
(0.0136048 0.629745 0)
(0.0992828 0.806018 0)
(0.172109 0.981073 0)
(0.228054 0.94447 0)
(0.182985 0.535305 0)
(0.0955539 0.0550378 0)
(0.0310381 0.0154862 0)
(0.025989 0.0495327 0)
(-0.0188419 0.015481 0)
(-0.00268589 -0.0156934 0)
(-0.0110281 -0.104911 0)
(-0.0307248 -0.0362443 0)
(-0.0906226 0.788479 0)
(-0.0791975 1.43176 0)
(-0.0542583 1.45314 0)
(-0.00614671 1.19343 0)
(0.0728534 0.882679 0)
(0.105021 0.639121 0)
(0.123274 0.523545 0)
(0.143367 0.43152 0)
(0.141512 0.468285 0)
(0.12893 0.58539 0)
(0.094489 0.796287 0)
(0.00825803 0.965493 0)
(-0.083581 1.16858 0)
(-0.114648 1.24084 0)
(-0.104933 1.1548 0)
(-0.108534 0.979504 0)
(-0.076453 0.650857 0)
(-0.0343309 0.475688 0)
(0.00839243 0.559711 0)
(0.096273 0.772004 0)
(0.182451 0.895766 0)
(0.278099 0.982798 0)
(0.266329 0.606489 0)
(0.137271 0.15426 0)
(0.0526083 0.0507018 0)
(0.0374942 0.0787868 0)
(-0.0270126 0.0226218 0)
(-0.0305892 -0.030142 0)
(-0.0391371 -0.0926788 0)
(-0.0783832 0.0394677 0)
(-0.183117 0.80371 0)
(-0.125255 1.39819 0)
(-0.0463859 1.40255 0)
(0.041558 1.12269 0)
(0.126363 0.825132 0)
(0.173114 0.659368 0)
(0.194491 0.500268 0)
(0.199159 0.435681 0)
(0.17845 0.484749 0)
(0.148919 0.613651 0)
(0.108049 0.851374 0)
(0.00310708 1.06492 0)
(-0.10231 1.22706 0)
(-0.121901 1.24762 0)
(-0.123064 1.13515 0)
(-0.0971434 0.932415 0)
(-0.0275557 0.600224 0)
(0.000426244 0.446949 0)
(0.0163857 0.509734 0)
(0.0860483 0.678645 0)
(0.193998 0.853344 0)
(0.319746 0.91823 0)
(0.354678 0.710251 0)
(0.186773 0.322524 0)
(0.0670682 0.112274 0)
(0.029254 0.119373 0)
(-0.0256036 0.0482855 0)
(-0.050363 -0.0304529 0)
(-0.0664199 -0.071342 0)
(-0.121848 0.150363 0)
(-0.275618 0.835107 0)
(-0.18195 1.32014 0)
(-0.0447896 1.3118 0)
(0.0836003 1.03964 0)
(0.163747 0.761942 0)
(0.221324 0.615557 0)
(0.246816 0.494619 0)
(0.224652 0.46384 0)
(0.184069 0.517962 0)
(0.142843 0.651253 0)
(0.0960373 0.909259 0)
(-0.00651708 1.22586 0)
(-0.106512 1.28529 0)
(-0.136748 1.25939 0)
(-0.143259 1.17807 0)
(-0.0583341 0.852387 0)
(0.0305572 0.548461 0)
(0.0305006 0.448768 0)
(0.00925052 0.503323 0)
(0.039676 0.615303 0)
(0.146088 0.73919 0)
(0.295601 0.826146 0)
(0.380861 0.779534 0)
(0.293392 0.513722 0)
(0.106369 0.232587 0)
(0.0137377 0.185006 0)
(-0.0250992 0.0833991 0)
(-0.0680316 0.00159816 0)
(-0.107868 -0.00620143 0)
(-0.222684 0.312053 0)
(-0.340822 0.906748 0)
(-0.19914 1.20318 0)
(-0.0391842 1.18008 0)
(0.0984357 0.935337 0)
(0.195591 0.74378 0)
(0.249258 0.587457 0)
(0.253324 0.518252 0)
(0.213267 0.512247 0)
(0.158048 0.563864 0)
(0.111845 0.689559 0)
(0.0648744 0.965463 0)
(-0.00748023 1.30671 0)
(-0.0900314 1.3357 0)
(-0.152422 1.26886 0)
(-0.116714 1.10741 0)
(0.022276 0.74729 0)
(0.0660249 0.534686 0)
(0.0268519 0.498907 0)
(-0.0104384 0.532589 0)
(-0.00535402 0.586189 0)
(0.0687656 0.64782 0)
(0.197509 0.717323 0)
(0.316024 0.748454 0)
(0.321642 0.6351 0)
(0.190479 0.408742 0)
(0.0242246 0.261254 0)
(-0.0227716 0.124584 0)
(-0.0878479 0.068246 0)
(-0.196768 0.126281 0)
(-0.322169 0.444015 0)
(-0.342721 0.879132 0)
(-0.180454 1.08301 0)
(-0.0279456 1.11702 0)
(0.118282 0.881857 0)
(0.206654 0.683002 0)
(0.23409 0.59163 0)
(0.212606 0.562989 0)
(0.164243 0.566634 0)
(0.105702 0.615581 0)
(0.0646181 0.722391 0)
(0.0248642 1.02052 0)
(-0.0297696 1.37679 0)
(-0.0965045 1.4639 0)
(-0.128255 1.33031 0)
(-0.0180165 0.998283 0)
(0.0861479 0.68858 0)
(0.0742392 0.587596 0)
(0.0300602 0.570831 0)
(-0.0168153 0.575653 0)
(-0.0300384 0.584313 0)
(0.00275373 0.591548 0)
(0.0856453 0.617965 0)
(0.199953 0.666151 0)
(0.263287 0.65564 0)
(0.215358 0.540096 0)
(0.0723308 0.381583 0)
(-0.0258162 0.170828 0)
(-0.127681 0.192882 0)
(-0.280467 0.302183 0)
(-0.357703 0.541435 0)
(-0.289617 0.807671 0)
(-0.136987 1.02227 0)
(0.0211492 0.987792 0)
(0.143729 0.808239 0)
(0.183 0.687071 0)
(0.170813 0.635215 0)
(0.133323 0.616097 0)
(0.0859541 0.616257 0)
(0.038746 0.662152 0)
(0.0102954 0.747894 0)
(-0.0196388 1.0726 0)
(-0.0592511 1.43386 0)
(-0.0821832 1.49134 0)
(-0.0192338 1.27238 0)
(0.104739 0.910587 0)
(0.129877 0.717712 0)
(0.106193 0.66066 0)
(0.0509991 0.636741 0)
(-0.000276096 0.618287 0)
(-0.029202 0.599416 0)
(-0.0333026 0.574082 0)
(-0.00706896 0.554643 0)
(0.0614881 0.570155 0)
(0.147743 0.613762 0)
(0.160504 0.58818 0)
(0.0708822 0.508448 0)
(-0.0391538 0.226545 0)
(-0.105052 0.313284 0)
(-0.224358 0.405488 0)
(-0.223593 0.536545 0)
(-0.154266 0.74647 0)
(-0.0372556 0.961246 0)
(0.080839 0.938813 0)
(0.135915 0.829315 0)
(0.13308 0.749363 0)
(0.0947811 0.700162 0)
(0.0470505 0.670145 0)
(0.00424605 0.659196 0)
(-0.0276143 0.694561 0)
(-0.0413714 0.769633 0)
(-0.056685 1.11124 0)
(-0.0638471 1.47361 0)
(-0.024631 1.48115 0)
(0.107128 1.19801 0)
(0.187084 0.902453 0)
(0.198568 0.782308 0)
(0.153533 0.735807 0)
(0.0861428 0.70072 0)
(0.028246 0.665982 0)
(-0.0148344 0.629177 0)
(-0.0426845 0.585647 0)
(-0.0535662 0.539852 0)
(-0.0384717 0.51365 0)
(0.0194469 0.540011 0)
(0.0758808 0.59101 0)
(0.0495924 0.592584 0)
(-0.0342855 0.278996 0)
(-0.0620567 0.354409 0)
(-0.0901854 0.453222 0)
(-0.0881583 0.549476 0)
(-0.0765307 0.764118 0)
(0.00329199 0.970782 0)
(0.0829286 0.963312 0)
(0.112878 0.888435 0)
(0.0859548 0.820744 0)
(0.0332289 0.765705 0)
(-0.0173641 0.723639 0)
(-0.058082 0.700541 0)
(-0.0802331 0.720198 0)
(-0.0841337 0.791769 0)
(-0.0849289 1.13156 0)
(-0.0465321 1.48029 0)
(0.0722617 1.4252 0)
(0.211799 1.14579 0)
(0.280965 0.937035 0)
(0.267685 0.857333 0)
(0.19959 0.813012 0)
(0.124632 0.768789 0)
(0.0586373 0.723121 0)
(0.00154581 0.674331 0)
(-0.0432587 0.615708 0)
(-0.0728825 0.554216 0)
(-0.0851003 0.504118 0)
(-0.0680457 0.492635 0)
(-0.00756446 0.551561 0)
(0.0236204 0.642376 0)
(-0.0171533 0.316426 0)
(-0.0194782 0.351967 0)
(-0.000506465 0.456783 0)
(-0.0121235 0.584397 0)
(-0.0322338 0.803696 0)
(0.000385643 0.973551 0)
(0.055247 0.977264 0)
(0.0702614 0.934799 0)
(0.0364574 0.88385 0)
(-0.0158715 0.82533 0)
(-0.0634725 0.773571 0)
(-0.0994196 0.738334 0)
(-0.119069 0.741823 0)
(-0.117236 0.810243 0)
(-0.101088 1.13302 0)
(-0.00327156 1.43379 0)
(0.179494 1.34713 0)
(0.314544 1.11618 0)
(0.357759 0.98693 0)
(0.314295 0.936489 0)
(0.24078 0.890309 0)
(0.167045 0.841216 0)
(0.0945502 0.792714 0)
(0.0163826 0.746913 0)
(-0.0535897 0.671896 0)
(-0.0954346 0.586537 0)
(-0.112995 0.514272 0)
(-0.109835 0.474015 0)
(-0.0659867 0.501162 0)
(-0.00479822 0.652171 0)
(0.00363777 0.335682 0)
(0.0325847 0.345053 0)
(0.0495701 0.475913 0)
(0.00953973 0.647484 0)
(-0.028967 0.836295 0)
(-0.0187487 0.960375 0)
(0.0145934 0.9651 0)
(0.029397 0.95136 0)
(0.00233547 0.932596 0)
(-0.0541742 0.882594 0)
(-0.101953 0.814476 0)
(-0.125858 0.765322 0)
(-0.138148 0.757438 0)
(-0.132093 0.816752 0)
(-0.0941354 1.10168 0)
(0.0685947 1.32736 0)
(0.274226 1.25088 0)
(0.378192 1.10839 0)
(0.382067 1.04378 0)
(0.334581 1.00124 0)
(0.280719 0.956622 0)
(0.224857 0.907171 0)
(0.160454 0.862033 0)
(0.0450647 0.84212 0)
(-0.0853268 0.759706 0)
(-0.151087 0.640036 0)
(-0.160376 0.527784 0)
(-0.142667 0.457873 0)
(-0.0976228 0.450424 0)
(-0.0299461 0.617964 0)
(0.0310958 0.331585 0)
(0.11513 0.345955 0)
(0.131928 0.573658 0)
(0.00367148 0.794203 0)
(-0.109796 0.85686 0)
(-0.0803416 0.903385 0)
(-0.0199813 0.918895 0)
(0.0200535 0.941613 0)
(0.00272213 0.976498 0)
(-0.0864185 0.955973 0)
(-0.153168 0.848215 0)
(-0.153479 0.773316 0)
(-0.140276 0.757339 0)
(-0.119361 0.802785 0)
(-0.0487048 1.02364 0)
(0.153387 1.18811 0)
(0.308325 1.17856 0)
(0.359012 1.1212 0)
(0.347611 1.07266 0)
(0.327393 1.03027 0)
(0.308584 0.991108 0)
(0.286217 0.959103 0)
(0.245581 0.971989 0)
(0.112483 1.03719 0)
(-0.12105 0.927105 0)
(-0.243987 0.679682 0)
(-0.260029 0.527929 0)
(-0.200795 0.425852 0)
(-0.128308 0.387895 0)
(-0.0562183 0.550756 0)
(0.106815 0.298049 0)
(0.262838 0.3457 0)
(0.261067 0.650999 0)
(0.0590536 0.888762 0)
(-0.127404 0.909818 0)
(-0.101731 0.901299 0)
(-0.0261191 0.889039 0)
(0.0273973 0.947762 0)
(0.0251232 1.06229 0)
(-0.109839 1.08345 0)
(-0.221269 0.877704 0)
(-0.203149 0.746308 0)
(-0.140176 0.725734 0)
(-0.0753993 0.753404 0)
(0.0357674 0.899223 0)
(0.201744 1.10018 0)
(0.255497 1.18979 0)
(0.257598 1.16592 0)
(0.260329 1.12049 0)
(0.274656 1.07568 0)
(0.278154 1.0261 0)
(0.267455 0.957026 0)
(0.20101 0.94022 0)
(0.01846 1.08892 0)
(-0.245898 0.981837 0)
(-0.360235 0.741674 0)
(-0.360351 0.470518 0)
(-0.291168 0.367059 0)
(-0.172878 0.309325 0)
(-0.0929112 0.444447 0)
(0.238828 0.129618 0)
(0.429861 0.199077 0)
(0.550268 0.66223 0)
(0.442579 1.06653 0)
(0.197769 0.885637 0)
(0.0350052 0.728508 0)
(0.0391802 0.770471 0)
(0.0748868 0.824229 0)
(0.0122568 0.987084 0)
(-0.19937 1.08754 0)
(-0.293745 0.891182 0)
(-0.255721 0.703565 0)
(-0.153069 0.62931 0)
(0.00701401 0.633152 0)
(0.161451 0.775741 0)
(0.217681 1.01012 0)
(0.186654 1.07907 0)
(0.186346 1.05319 0)
(0.20298 0.979013 0)
(0.210871 0.93099 0)
(0.179872 0.94378 0)
(0.072483 0.944378 0)
(-0.0936848 1.09893 0)
(-0.239256 1.24875 0)
(-0.369272 1.12261 0)
(-0.548169 0.691514 0)
(-0.464551 0.422368 0)
(-0.348053 0.275939 0)
(-0.208776 0.219098 0)
(-0.117231 0.300669 0)
(0.165589 -0.191777 0)
(0.349523 -0.0112738 0)
(0.483246 0.55884 0)
(0.536152 0.935574 0)
(0.551579 1.04962 0)
(0.406875 0.89723 0)
(0.270584 0.770861 0)
(0.148632 0.883138 0)
(-0.0255149 1.14809 0)
(-0.225604 1.22949 0)
(-0.382929 0.832658 0)
(-0.371285 0.580128 0)
(-0.147526 0.60062 0)
(0.0866029 0.532091 0)
(0.249609 0.651804 0)
(0.290097 0.961941 0)
(0.206018 1.05764 0)
(0.15929 1.03249 0)
(0.109354 1.00142 0)
(0.0266815 0.999674 0)
(-0.0826718 1.0252 0)
(-0.211425 1.04781 0)
(-0.322015 1.08792 0)
(-0.346033 1.12496 0)
(-0.323599 1.02042 0)
(-0.483111 0.698129 0)
(-0.510153 0.198292 0)
(-0.384163 0.145491 0)
(-0.210152 0.124091 0)
(-0.11795 0.163376 0)
(0.0689854 -0.317364 0)
(0.156219 -0.160152 0)
(0.27834 0.370164 0)
(0.375052 0.725259 0)
(0.494256 0.902371 0)
(0.482778 0.876473 0)
(0.353848 0.843951 0)
(0.168923 0.959074 0)
(-0.000507786 1.16487 0)
(-0.102986 1.19491 0)
(-0.200631 0.879848 0)
(-0.264235 0.469661 0)
(-0.165869 0.234482 0)
(0.0614792 0.302315 0)
(0.152355 0.531349 0)
(0.151153 0.889959 0)
(0.120208 0.975966 0)
(0.0857474 0.959272 0)
(0.0205996 0.938147 0)
(-0.065719 0.953251 0)
(-0.153102 0.989332 0)
(-0.230131 1.03006 0)
(-0.287635 1.07759 0)
(-0.292188 1.08638 0)
(-0.252525 0.988738 0)
(-0.334265 0.729923 0)
(-0.513533 0.239523 0)
(-0.390889 -0.0361496 0)
(-0.196825 0.00175971 0)
(-0.102442 0.0260714 0)
(0.0276068 -0.392271 0)
(0.0403375 -0.252926 0)
(0.113258 0.219696 0)
(0.202269 0.562899 0)
(0.335626 0.780999 0)
(0.383988 0.866862 0)
(0.290472 0.916347 0)
(0.140815 1.0607 0)
(0.0240257 1.21813 0)
(-0.0189318 1.19073 0)
(-0.0411607 0.848152 0)
(-0.0655803 0.444253 0)
(-0.0716587 0.229169 0)
(-0.03983 0.206683 0)
(-0.0125439 0.470833 0)
(0.00313576 0.750012 0)
(0.0313842 0.881265 0)
(0.025326 0.922905 0)
(-0.0131379 0.95334 0)
(-0.0675208 1.00066 0)
(-0.123734 1.05087 0)
(-0.172956 1.09105 0)
(-0.202947 1.10594 0)
(-0.199978 1.07284 0)
(-0.172906 0.985994 0)
(-0.203436 0.783614 0)
(-0.314878 0.250336 0)
(-0.278176 -0.216694 0)
(-0.18647 -0.0701712 0)
(-0.00576363 -0.0807309 0)
(0.0125132 -0.388033 0)
(-0.0265892 -0.280148 0)
(0.00114448 0.141735 0)
(0.0804567 0.438016 0)
(0.236083 0.677976 0)
(0.309182 0.875802 0)
(0.23602 1.02155 0)
(0.113099 1.17304 0)
(0.0366395 1.27913 0)
(0.022883 1.21611 0)
(0.0174366 0.864024 0)
(-0.0139439 0.431524 0)
(-0.0480305 0.171312 0)
(-0.0682596 0.155962 0)
(-0.062759 0.422519 0)
(-0.0347225 0.718267 0)
(-0.0107039 0.877787 0)
(-0.00954614 0.949216 0)
(-0.0286223 0.997312 0)
(-0.0564597 1.05009 0)
(-0.0859057 1.09448 0)
(-0.110027 1.1215 0)
(-0.121752 1.11682 0)
(-0.115712 1.06679 0)
(-0.0957458 0.977102 0)
(-0.0907252 0.801402 0)
(-0.127088 0.293238 0)
(-0.1451 -0.205787 0)
(-0.0964634 -0.234291 0)
(0.00522293 -0.114845 0)
(-0.00291795 -0.345294 0)
(-0.0718065 -0.242499 0)
(-0.0767656 0.0903859 0)
(-0.00801506 0.286396 0)
(0.154751 0.537879 0)
(0.255036 0.865687 0)
(0.202372 1.1058 0)
(0.0990051 1.25418 0)
(0.0470075 1.30545 0)
(0.0551776 1.2144 0)
(0.0630297 0.884282 0)
(0.0218774 0.480298 0)
(-0.029086 0.212206 0)
(-0.0642585 0.166456 0)
(-0.0700615 0.409935 0)
(-0.0432042 0.696356 0)
(-0.0224152 0.87128 0)
(-0.0195119 0.958622 0)
(-0.0280826 1.01605 0)
(-0.0400231 1.07307 0)
(-0.052566 1.11559 0)
(-0.0611798 1.13598 0)
(-0.0623653 1.11944 0)
(-0.0540029 1.05703 0)
(-0.0379154 0.960305 0)
(-0.0212799 0.786171 0)
(-0.0158475 0.303655 0)
(-0.0304416 -0.219909 0)
(-0.0328696 -0.235666 0)
(0.0106836 -0.138344 0)
(-0.0204895 -0.271976 0)
(-0.0908161 -0.176847 0)
(-0.10687 0.0691299 0)
(-0.0282692 0.205261 0)
(0.0758908 0.400986 0)
(0.172841 0.830895 0)
(0.15374 1.16513 0)
(0.0787766 1.30941 0)
(0.0514638 1.3201 0)
(0.0775647 1.19681 0)
(0.0966012 0.901132 0)
(0.0485114 0.529651 0)
(-0.0153146 0.254577 0)
(-0.0611601 0.194786 0)
(-0.0654058 0.400933 0)
(-0.0347118 0.67647 0)
(-0.015038 0.862583 0)
(-0.0109123 0.962385 0)
(-0.0152449 1.02494 0)
(-0.0194054 1.08323 0)
(-0.0228382 1.12427 0)
(-0.0230439 1.14 0)
(-0.0183448 1.11699 0)
(-0.00819198 1.04806 0)
(0.00633555 0.945139 0)
(0.0260935 0.766877 0)
(0.0429208 0.306562 0)
(0.0115979 -0.213143 0)
(-0.00290515 -0.257234 0)
(0.017574 -0.146807 0)
(-0.0314633 -0.199345 0)
(-0.088047 -0.103217 0)
(-0.107031 0.0218491 0)
(-0.0387098 0.107533 0)
(0.0263583 0.362134 0)
(0.070332 0.785579 0)
(0.0859972 1.19327 0)
(0.0466833 1.34095 0)
(0.0481892 1.31159 0)
(0.0977562 1.1655 0)
(0.131646 0.914269 0)
(0.0885985 0.587876 0)
(0.0193328 0.309977 0)
(-0.0416142 0.219741 0)
(-0.0557901 0.384259 0)
(-0.0224757 0.655038 0)
(0.000723117 0.852076 0)
(0.0069504 0.962711 0)
(0.00418221 1.02946 0)
(0.00398376 1.08665 0)
(0.00534763 1.12599 0)
(0.00939365 1.13794 0)
(0.0169942 1.11057 0)
(0.0282785 1.03713 0)
(0.0430903 0.927794 0)
(0.07059 0.742911 0)
(0.0776001 0.316445 0)
(0.0272393 -0.187023 0)
(0.00355675 -0.251826 0)
(0.00930646 -0.147398 0)
(-0.0367853 -0.137763 0)
(-0.0835801 -0.0561539 0)
(-0.0873791 -0.00204603 0)
(-0.0581778 0.0597143 0)
(-0.0364255 0.332651 0)
(-0.0318512 0.747931 0)
(-0.0042039 1.18842 0)
(0.00492851 1.34048 0)
(0.0456635 1.26987 0)
(0.119148 1.11364 0)
(0.170246 0.912847 0)
(0.1417 0.641506 0)
(0.0736217 0.373221 0)
(0.00623904 0.293444 0)
(-0.033894 0.374477 0)
(-0.0179332 0.630876 0)
(0.0102925 0.840025 0)
(0.0225345 0.96248 0)
(0.0234749 1.0308 0)
(0.0269973 1.08622 0)
(0.0323251 1.12432 0)
(0.0388027 1.13353 0)
(0.0470034 1.10341 0)
(0.0568047 1.02672 0)
(0.0685526 0.910795 0)
(0.0926023 0.721321 0)
(0.0995872 0.379927 0)
(0.0692677 -0.1477 0)
(0.0214882 -0.229229 0)
(0.00575616 -0.147085 0)
(-0.0340489 -0.0651744 0)
(-0.0974581 -0.0310958 0)
(-0.116457 -0.0063216 0)
(-0.118863 0.044702 0)
(-0.121524 0.342389 0)
(-0.133815 0.734305 0)
(-0.101574 1.15625 0)
(-0.0307799 1.29907 0)
(0.0532895 1.20139 0)
(0.13651 1.05033 0)
(0.198279 0.898195 0)
(0.192057 0.689493 0)
(0.13243 0.440362 0)
(0.0659431 0.346681 0)
(0.00764699 0.432013 0)
(-0.00644953 0.617843 0)
(0.0111533 0.824995 0)
(0.0258861 0.959589 0)
(0.0349973 1.03165 0)
(0.0439052 1.08279 0)
(0.0551128 1.1202 0)
(0.0651519 1.12819 0)
(0.0738556 1.09763 0)
(0.080989 1.02007 0)
(0.0869938 0.900141 0)
(0.0958376 0.703705 0)
(0.122385 0.367223 0)
(0.122892 -0.109978 0)
(0.062853 -0.176681 0)
(0.0208005 -0.125145 0)
(-0.0292083 0.000416434 0)
(-0.10139 0.0261771 0)
(-0.139718 0.0156069 0)
(-0.166978 0.0538733 0)
(-0.211746 0.362898 0)
(-0.232632 0.734929 0)
(-0.177779 1.0951 0)
(-0.050481 1.20998 0)
(0.0691724 1.12507 0)
(0.153548 0.98777 0)
(0.210319 0.874753 0)
(0.218926 0.719779 0)
(0.167886 0.509074 0)
(0.097573 0.418149 0)
(0.035401 0.475788 0)
(0.00627891 0.628515 0)
(0.00468647 0.820834 0)
(0.01751 0.950398 0)
(0.032356 1.02383 0)
(0.0476508 1.07348 0)
(0.0654195 1.11147 0)
(0.0839498 1.121 0)
(0.0982618 1.09279 0)
(0.106468 1.0174 0)
(0.109795 0.897443 0)
(0.108839 0.69798 0)
(0.138702 0.345583 0)
(0.127134 -0.0801912 0)
(0.0771097 -0.11411 0)
(0.0385437 -0.0767286 0)
(-0.0383324 0.0783786 0)
(-0.111234 0.0821738 0)
(-0.163261 0.0603294 0)
(-0.222219 0.112791 0)
(-0.281231 0.407921 0)
(-0.288432 0.723873 0)
(-0.212563 1.00143 0)
(-0.0576891 1.08383 0)
(0.0787181 1.03076 0)
(0.163105 0.933762 0)
(0.211543 0.854334 0)
(0.229556 0.742813 0)
(0.181527 0.57108 0)
(0.110082 0.481098 0)
(0.0521679 0.522982 0)
(0.00822397 0.654706 0)
(-0.0107378 0.825843 0)
(-0.000986272 0.941854 0)
(0.0176021 1.01199 0)
(0.0379596 1.06027 0)
(0.062383 1.09485 0)
(0.090013 1.10446 0)
(0.116087 1.08272 0)
(0.133488 1.0143 0)
(0.140903 0.899088 0)
(0.136548 0.702804 0)
(0.1558 0.342457 0)
(0.120055 -0.0387002 0)
(0.0729812 -0.0731753 0)
(0.0389123 -0.0344971 0)
(-0.0417158 0.162208 0)
(-0.115566 0.153356 0)
(-0.179671 0.128564 0)
(-0.256181 0.190121 0)
(-0.312614 0.443687 0)
(-0.301909 0.696635 0)
(-0.209384 0.895366 0)
(-0.0622907 0.959186 0)
(0.0779999 0.945618 0)
(0.158209 0.892369 0)
(0.197443 0.843071 0)
(0.210457 0.763673 0)
(0.18201 0.680091 0)
(0.113779 0.544477 0)
(0.0609431 0.575097 0)
(-0.000138558 0.692499 0)
(-0.0390391 0.834009 0)
(-0.0280192 0.933653 0)
(-0.00527567 0.998802 0)
(0.018919 1.04302 0)
(0.0474319 1.07319 0)
(0.0821 1.07985 0)
(0.120779 1.06055 0)
(0.156562 1.00103 0)
(0.179361 0.896759 0)
(0.171718 0.706701 0)
(0.173713 0.358384 0)
(0.111415 0.0193816 0)
(0.0673208 -0.0283926 0)
(0.0324256 0.00340421 0)
(-0.0411805 0.243727 0)
(-0.110688 0.225103 0)
(-0.181912 0.211734 0)
(-0.26982 0.283791 0)
(-0.327909 0.482972 0)
(-0.309935 0.697335 0)
(-0.198848 0.844562 0)
(-0.0507853 0.835787 0)
(0.0657549 0.854253 0)
(0.135326 0.843527 0)
(0.162902 0.825827 0)
(0.157156 0.771552 0)
(0.141865 0.717169 0)
(0.0992358 0.598726 0)
(0.0447911 0.628283 0)
(-0.00651884 0.786029 0)
(-0.05552 0.84467 0)
(-0.0559017 0.921865 0)
(-0.029729 0.984324 0)
(-0.0033732 1.0269 0)
(0.0268303 1.05204 0)
(0.0644463 1.05176 0)
(0.111679 1.02746 0)
(0.167374 0.971211 0)
(0.198777 0.880623 0)
(0.206869 0.761283 0)
(0.207116 0.400815 0)
(0.117858 0.0974232 0)
(0.0664281 0.0184933 0)
(0.0275721 0.039978 0)
(-0.0349548 0.316705 0)
(-0.0974457 0.292362 0)
(-0.169972 0.299853 0)
(-0.257772 0.379423 0)
(-0.309353 0.523399 0)
(-0.279964 0.646412 0)
(-0.174603 0.729789 0)
(-0.0556253 0.780636 0)
(0.0371793 0.829886 0)
(0.101468 0.857883 0)
(0.127814 0.87277 0)
(0.120535 0.841695 0)
(0.0997281 0.752844 0)
(0.0578853 0.655207 0)
(-0.00501175 0.681437 0)
(-0.0416359 0.813596 0)
(-0.0578821 0.909832 0)