/*--------------------------------*- C++ -*----------------------------------*\
| =========                 |                                                 |
| \\      /  F ield         | OpenFOAM: The Open Source CFD Toolbox           |
|  \\    /   O peration     | Version:  v1606+                                |
|   \\  /    A nd           | Web:      www.OpenFOAM.com                      |
|    \\/     M anipulation  |                                                 |
\*---------------------------------------------------------------------------*/
FoamFile
{
    version     2.0;
    format      ascii;
    class       volVectorField;
    location    "1.35";
    object      U.particles;
}
// * * * * * * * * * * * * * * * * * * * * * * * * * * * * * * * * * * * * * //

dimensions      [0 1 -1 0 0 0 0];

internalField   nonuniform List<vector> 
6000
(
(-0.0149619 -0.299153 0)
(-0.0145687 -0.360569 0)
(-0.00338246 -0.364013 0)
(0.0123072 -0.381459 0)
(0.031676 -0.416 0)
(0.0419664 -0.484293 0)
(0.040281 -0.535832 0)
(0.03288 -0.544793 0)
(0.0299503 -0.561605 0)
(0.0197929 -0.556024 0)
(0.0117286 -0.511701 0)
(0.00978616 -0.493054 0)
(0.00663882 -0.492753 0)
(0.00396085 -0.495597 0)
(0.00138692 -0.492252 0)
(-0.00440961 -0.490203 0)
(-0.0112195 -0.495435 0)
(-0.0181348 -0.513099 0)
(-0.0357081 -0.533296 0)
(-0.0542187 -0.530224 0)
(-0.0708327 -0.512886 0)
(-0.086495 -0.482379 0)
(-0.0957901 -0.447293 0)
(-0.0941105 -0.398664 0)
(-0.0734469 -0.331876 0)
(-0.041268 -0.294825 0)
(-0.011901 -0.276108 0)
(0.00744865 -0.267223 0)
(0.0195669 -0.281455 0)
(0.0152872 -0.265726 0)
(0.00442522 0.117813 0)
(-0.0107179 0.165619 0)
(-0.0054041 0.144987 0)
(0.00536743 0.125559 0)
(0.026988 0.124811 0)
(0.0357405 0.0895721 0)
(0.0226662 0.0538417 0)
(0.00527167 0.0446114 0)
(0.00179942 0.0353105 0)
(0.00384668 0.016323 0)
(0.014703 0.014184 0)
(0.0277455 0.0174606 0)
(0.027864 0.0123845 0)
(0.0136255 0.01766 0)
(-0.00978455 0.0203607 0)
(-0.025491 0.021611 0)
(-0.0326468 0.029417 0)
(-0.0356757 0.0288954 0)
(-0.0389863 0.0181407 0)
(-0.0469573 0.0270658 0)
(-0.0741051 0.0415981 0)
(-0.121803 0.0628673 0)
(-0.138563 0.0780758 0)
(-0.134438 0.112877 0)
(-0.0932046 0.0934949 0)
(-0.0456787 0.0932812 0)
(-0.0161555 0.10924 0)
(0.00519513 0.12575 0)
(0.0108952 0.152464 0)
(-0.00754117 0.131736 0)
(-0.0132165 0.0625301 0)
(-0.039713 0.03423 0)
(-0.0497049 0.0122372 0)
(-0.0530308 -0.0120117 0)
(-0.0272363 -0.0314902 0)
(0.0205492 -0.0174431 0)
(0.0355396 -0.0123693 0)
(0.023534 -0.0253458 0)
(0.0109721 -0.0395931 0)
(0.0105084 -0.0492058 0)
(0.0186288 -0.0550925 0)
(0.0272962 -0.0431034 0)
(0.0289367 -0.00625179 0)
(0.00902584 0.0164442 0)
(-0.0202914 0.0225519 0)
(-0.0428555 0.0146679 0)
(-0.055275 -0.00139232 0)
(-0.0595622 -0.00617681 0)
(-0.0612581 -0.00444633 0)
(-0.0593195 0.00912774 0)
(-0.0742561 0.0431731 0)
(-0.103125 0.0543168 0)
(-0.119344 0.0402627 0)
(-0.103212 -0.0118499 0)
(-0.0541623 -0.0449393 0)
(-0.0111513 -0.0326929 0)
(0.00127656 -0.0197766 0)
(0.00169867 -0.0242049 0)
(0.00188218 -0.0197783 0)
(-0.00277741 -0.0129093 0)
(0.00388146 -0.0328237 0)
(-0.00511958 -0.0254601 0)
(-0.0195733 0.00835777 0)
(-0.0544867 0.0351506 0)
(-0.0594919 0.0358803 0)
(-0.0143241 0.0349759 0)
(0.0281459 0.0421732 0)
(0.0324349 0.0305723 0)
(0.0243467 0.0166361 0)
(0.023591 0.0128463 0)
(0.0308345 0.0154568 0)
(0.0359418 0.0280499 0)
(0.032249 0.0525369 0)
(0.0149987 0.0770626 0)
(-0.0135316 0.0818144 0)
(-0.0415514 0.072034 0)
(-0.0659339 0.0626728 0)
(-0.0818145 0.0593597 0)
(-0.0841292 0.058171 0)
(-0.0763317 0.0639999 0)
(-0.0650789 0.0919922 0)
(-0.0729766 0.102915 0)
(-0.0793242 0.0954933 0)
(-0.0687072 0.0420743 0)
(-0.0397786 -0.0334218 0)
(-0.0366942 -0.0472092 0)
(-0.0535447 -0.0847555 0)
(-0.0562904 -0.121247 0)
(-0.0407023 -0.13009 0)
(-0.00657819 -0.12707 0)
(0.0113179 -0.167389 0)
(0.0371255 -0.166534 0)
(0.0364602 -0.129488 0)
(0.0167389 -0.0637424 0)
(-0.0281339 -0.0192065 0)
(-0.0156991 0.00727017 0)
(0.0342595 0.065422 0)
(0.0613436 0.0853692 0)
(0.0667319 0.0813051 0)
(0.073872 0.0703972 0)
(0.0836812 0.0693613 0)
(0.0877127 0.0808127 0)
(0.0797722 0.119619 0)
(0.0571669 0.160998 0)
(0.0261571 0.177023 0)
(-0.0108282 0.175185 0)
(-0.0523297 0.164442 0)
(-0.0890945 0.14661 0)
(-0.096313 0.128882 0)
(-0.0881914 0.126141 0)
(-0.0573973 0.153801 0)
(-0.0451553 0.169337 0)
(-0.0548721 0.142781 0)
(-0.070779 0.0190999 0)
(-0.0813714 -0.0955809 0)
(-0.113331 -0.144096 0)
(-0.106902 -0.192331 0)
(-0.0855379 -0.206154 0)
(-0.0550248 -0.204611 0)
(-0.008678 -0.190789 0)
(0.0145307 -0.213765 0)
(0.0543386 -0.220029 0)
(0.0805987 -0.205008 0)
(0.103412 -0.172983 0)
(0.0961923 -0.10852 0)
(0.0519505 -0.049679 0)
(0.0490574 0.0539739 0)
(0.081646 0.119794 0)
(0.107636 0.134597 0)
(0.13134 0.123545 0)
(0.140265 0.112437 0)
(0.13809 0.122714 0)
(0.121132 0.165247 0)
(0.0936371 0.21989 0)
(0.0641777 0.244735 0)
(0.0311348 0.249578 0)
(-0.00909616 0.246888 0)
(-0.0535144 0.234031 0)
(-0.0874949 0.197981 0)
(-0.0949481 0.180857 0)
(-0.0778178 0.191873 0)
(-0.0542607 0.204827 0)
(-0.059602 0.161459 0)
(-0.106419 0.00681437 0)
(-0.158138 -0.127364 0)
(-0.185663 -0.196948 0)
(-0.140243 -0.23186 0)
(-0.0956276 -0.223633 0)
(-0.0583656 -0.217541 0)
(-0.0123527 -0.200085 0)
(0.0131036 -0.220516 0)
(0.0584143 -0.229326 0)
(0.0968089 -0.22075 0)
(0.140381 -0.220636 0)
(0.197492 -0.183717 0)
(0.174808 -0.111437 0)
(0.111197 0.0193652 0)
(0.115857 0.124139 0)
(0.143557 0.152499 0)
(0.159525 0.149208 0)
(0.157801 0.136908 0)
(0.142943 0.139831 0)
(0.12421 0.177132 0)
(0.100968 0.230912 0)
(0.0791624 0.256724 0)
(0.0558368 0.263726 0)
(0.0288794 0.265964 0)
(-0.00463671 0.262342 0)
(-0.0489552 0.232538 0)
(-0.0883447 0.200019 0)
(-0.0930212 0.18967 0)
(-0.0741619 0.196027 0)
(-0.0727869 0.157972 0)
(-0.135896 0.00162205 0)
(-0.207167 -0.135691 0)
(-0.22489 -0.202664 0)
(-0.171349 -0.234749 0)
(-0.103916 -0.222839 0)
(-0.0613999 -0.215428 0)
(-0.0123698 -0.195586 0)
(0.0178234 -0.212085 0)
(0.0648127 -0.224087 0)
(0.10626 -0.213957 0)
(0.172753 -0.22553 0)
(0.24323 -0.192623 0)
(0.245664 -0.120025 0)
(0.17767 0.0155241 0)
(0.149847 0.114362 0)
(0.143202 0.154956 0)
(0.141722 0.151865 0)
(0.12413 0.122391 0)
(0.100254 0.107301 0)
(0.0897131 0.133563 0)
(0.0830033 0.18026 0)
(0.0748507 0.202055 0)
(0.0642406 0.206053 0)
(0.0521233 0.205556 0)
(0.0341876 0.202867 0)
(0.00115706 0.17737 0)
(-0.045228 0.140978 0)
(-0.072844 0.114445 0)
(-0.0768619 0.116696 0)
(-0.0671738 0.11466 0)
(-0.12048 -0.000560923 0)
(-0.195707 -0.140153 0)
(-0.231704 -0.189736 0)
(-0.187337 -0.234109 0)
(-0.110807 -0.220018 0)
(-0.0675231 -0.205663 0)
(-0.014472 -0.17973 0)
(0.0178214 -0.198398 0)
(0.0695365 -0.212458 0)
(0.116541 -0.210462 0)
(0.193295 -0.223636 0)
(0.257063 -0.181424 0)
(0.269669 -0.0962126 0)
(0.194869 0.0434903 0)
(0.13134 0.115299 0)
(0.100031 0.130623 0)
(0.0711115 0.0878436 0)
(0.0391119 0.00453758 0)
(0.0195565 -0.0487628 0)
(0.0162109 -0.0542354 0)
(0.0263923 -0.0342969 0)
(0.0379995 -0.0280819 0)
(0.0455261 -0.0369106 0)
(0.0474176 -0.0458232 0)
(0.0435041 -0.051187 0)
(0.0318903 -0.0765243 0)
(0.0143468 -0.102614 0)
(0.00309153 -0.107543 0)
(-0.00736356 -0.0876438 0)
(-0.0189017 -0.0475345 0)
(-0.038657 -0.0805792 0)
(-0.108142 -0.153923 0)
(-0.184018 -0.21137 0)
(-0.183975 -0.240215 0)
(-0.116661 -0.220524 0)
(-0.068649 -0.200462 0)
(-0.0158281 -0.171973 0)
(0.0187351 -0.191028 0)
(0.0708818 -0.206696 0)
(0.122827 -0.20831 0)
(0.203518 -0.223555 0)
(0.233338 -0.181794 0)
(0.227794 -0.0929272 0)
(0.124439 -0.00844209 0)
(0.0447534 0.0413104 0)
(0.00443351 -0.0228127 0)
(-0.0190379 -0.128441 0)
(-0.031701 -0.213632 0)
(-0.0325412 -0.254252 0)
(-0.0277669 -0.264684 0)
(-0.0109134 -0.259 0)
(0.00414351 -0.253706 0)
(0.0192451 -0.25198 0)
(0.024171 -0.242669 0)
(0.0239875 -0.244885 0)
(0.0246694 -0.252567 0)
(0.0355356 -0.260934 0)
(0.0468202 -0.262598 0)
(0.0583365 -0.250002 0)
(0.0485837 -0.216068 0)
(0.0500958 -0.174017 0)
(0.0354896 -0.170592 0)
(-0.067702 -0.224159 0)
(-0.135712 -0.26221 0)
(-0.107236 -0.245338 0)
(-0.0639215 -0.207551 0)
(-0.0165382 -0.169766 0)
(0.0183533 -0.191686 0)
(0.0682269 -0.21433 0)
(0.119166 -0.233366 0)
(0.168509 -0.256875 0)
(0.149091 -0.222806 0)
(0.0841308 -0.123958 0)
(0.0174702 -0.118688 0)
(-0.0319224 -0.136445 0)
(-0.0529313 -0.208943 0)
(-0.0453922 -0.281668 0)
(-0.0371741 -0.314325 0)
(-0.0340531 -0.322049 0)
(-0.0281665 -0.318164 0)
(-0.0116701 -0.309413 0)
(-0.00298074 -0.29558 0)
(0.00732595 -0.277355 0)
(0.0109738 -0.25958 0)
(0.016117 -0.258006 0)
(0.025449 -0.262211 0)
(0.0450341 -0.251752 0)
(0.060702 -0.262156 0)
(0.066363 -0.273582 0)
(0.0637404 -0.254441 0)
(0.0796176 -0.180896 0)
(0.105187 -0.147472 0)
(0.0719929 -0.192164 0)
(-0.0536357 -0.273783 0)
(-0.0761363 -0.274247 0)
(-0.0480988 -0.231575 0)
(-0.0147463 -0.187571 0)
(0.0142295 -0.217195 0)
(0.0551709 -0.244129 0)
(0.0874055 -0.274512 0)
(0.103491 -0.294701 0)
(0.0203908 -0.235874 0)
(-0.0422664 -0.147207 0)
(-0.0563259 -0.169754 0)
(-0.0620645 -0.208267 0)
(-0.0264479 -0.226791 0)
(-0.0132906 -0.264212 0)
(-0.024184 -0.289899 0)
(-0.0257514 -0.298898 0)
(-0.0229684 -0.29536 0)
(-0.00751668 -0.286136 0)
(0.00273154 -0.266305 0)
(0.00806745 -0.246105 0)
(0.0113179 -0.223936 0)
(0.0179973 -0.222846 0)
(0.0358824 -0.218538 0)
(0.0443462 -0.210632 0)
(0.0356347 -0.217944 0)
(0.0370944 -0.226879 0)
(0.0509926 -0.217181 0)
(0.068905 -0.167132 0)
(0.124764 -0.136231 0)
(0.124217 -0.158619 0)
(0.0406929 -0.24433 0)
(-0.0359795 -0.279847 0)
(-0.0248858 -0.249641 0)
(-0.00948534 -0.203726 0)
(0.00724841 -0.234503 0)
(0.032608 -0.266155 0)
(0.0465996 -0.297569 0)
(0.0402711 -0.305985 0)
(-0.062124 -0.208174 0)
(-0.102089 -0.129377 0)
(-0.0775626 -0.134814 0)
(-0.0319143 -0.152013 0)
(-0.00497371 -0.197014 0)
(-0.000328597 -0.235557 0)
(-0.0144457 -0.259563 0)
(-0.0133314 -0.26487 0)
(-0.0124574 -0.266501 0)
(-0.00449864 -0.262108 0)
(0.00564846 -0.234103 0)
(0.0110257 -0.213874 0)
(0.0137612 -0.191676 0)
(0.0256655 -0.179924 0)
(0.0343012 -0.163426 0)
(0.0167994 -0.17886 0)
(0.0123069 -0.190659 0)
(0.0207203 -0.19009 0)
(0.0379657 -0.175735 0)
(0.053706 -0.150571 0)
(0.114589 -0.115319 0)
(0.136407 -0.134439 0)
(0.0919136 -0.196994 0)
(0.00127635 -0.263119 0)
(-0.00306599 -0.250569 0)
(-0.00229596 -0.210171 0)
(-0.00552767 -0.238192 0)
(0.0115269 -0.269745 0)
(0.014165 -0.296504 0)
(-0.00218373 -0.290083 0)
(-0.0997662 -0.154956 0)
(-0.113943 -0.0922456 0)
(-0.0443331 -0.0963352 0)
(-0.00477298 -0.118809 0)
(0.00990597 -0.182274 0)
(0.0265461 -0.216035 0)
(0.042331 -0.22255 0)
(0.0379955 -0.220062 0)
(0.0251447 -0.223043 0)
(0.0160326 -0.223571 0)
(0.0123972 -0.206691 0)
(0.0159323 -0.18194 0)
(0.0182499 -0.155776 0)
(0.027197 -0.131363 0)
(0.0127165 -0.124304 0)
(0.00670593 -0.129502 0)
(0.0179222 -0.150014 0)
(0.0257747 -0.15687 0)
(0.0360419 -0.146338 0)
(0.0539165 -0.121729 0)
(0.0998387 -0.0774455 0)
(0.14232 -0.0988099 0)
(0.110378 -0.149356 0)
(0.030465 -0.233628 0)
(0.0127195 -0.235195 0)
(0.00562026 -0.20274 0)
(-0.0152467 -0.221246 0)
(-0.00259083 -0.260143 0)
(-0.00542619 -0.281875 0)
(-0.0229494 -0.261717 0)
(-0.100472 -0.102795 0)
(-0.100042 -0.0529983 0)
(-0.0168183 -0.0592095 0)
(0.00285644 -0.105105 0)
(0.0269056 -0.145717 0)
(0.0493507 -0.164641 0)
(0.0542524 -0.17638 0)
(0.0534378 -0.17717 0)
(0.0483721 -0.175259 0)
(0.0414441 -0.174966 0)
(0.0313274 -0.168269 0)
(0.0238464 -0.145578 0)
(0.0197245 -0.114401 0)
(0.0116101 -0.0815943 0)
(0.0109584 -0.0740334 0)
(0.0172668 -0.0899984 0)
(0.0242644 -0.106986 0)
(0.023488 -0.112031 0)
(0.0269678 -0.106363 0)
(0.045371 -0.086754 0)
(0.072131 -0.0606367 0)
(0.148695 -0.0590385 0)
(0.130808 -0.102197 0)
(0.0587136 -0.195423 0)
(0.0205888 -0.20762 0)
(0.012319 -0.183052 0)
(-0.0204455 -0.194867 0)
(-0.00796605 -0.241873 0)
(-0.0150982 -0.263051 0)
(-0.0306976 -0.230112 0)
(-0.10028 -0.0693041 0)
(-0.086472 -0.0161009 0)
(-0.00367387 -0.0332638 0)
(0.0125185 -0.0792777 0)
(0.0448475 -0.109283 0)
(0.0672578 -0.12769 0)
(0.0744228 -0.133712 0)
(0.0718529 -0.133214 0)
(0.0618044 -0.131947 0)
(0.0520647 -0.129513 0)
(0.041298 -0.119946 0)
(0.0295138 -0.097473 0)
(0.0172494 -0.0639561 0)
(0.00947646 -0.0346527 0)
(0.0191252 -0.0325939 0)
(0.0330712 -0.0485925 0)
(0.0377134 -0.058994 0)
(0.0303116 -0.0626228 0)
(0.022341 -0.0596728 0)
(0.0386527 -0.0515599 0)
(0.0649527 -0.0342159 0)
(0.144275 -0.0247851 0)
(0.150187 -0.0454551 0)
(0.0883412 -0.12727 0)
(0.0237818 -0.164664 0)
(0.0210259 -0.15197 0)
(-0.0232522 -0.163803 0)
(-0.0082169 -0.219749 0)
(-0.0124266 -0.241258 0)
(-0.0339085 -0.199266 0)
(-0.112482 -0.0360421 0)
(-0.0704241 0.0281013 0)
(0.000682872 -0.00167375 0)
(0.0270151 -0.0436056 0)
(0.0613277 -0.0718369 0)
(0.084155 -0.0867653 0)
(0.0900131 -0.08741 0)
(0.0842867 -0.0857968 0)
(0.0675143 -0.0850258 0)
(0.0538581 -0.0838821 0)
(0.0435677 -0.0717144 0)
(0.0298258 -0.0480586 0)
(0.0177128 -0.0128955 0)
(0.0147737 0.00897477 0)
(0.0313258 0.00706571 0)
(0.052721 -0.00610409 0)
(0.0554358 -0.00961232 0)
(0.0411563 -0.00952865 0)
(0.0241813 -0.00866251 0)
(0.0357713 -0.00644998 0)
(0.062684 -0.00157293 0)
(0.124507 0.0154054 0)
(0.160941 -0.00662725 0)
(0.0801857 -0.0762724 0)
(0.0190712 -0.116909 0)
(0.0254859 -0.10614 0)
(-0.0219329 -0.128746 0)
(-0.0091676 -0.195613 0)
(-0.00213803 -0.213835 0)
(-0.0328776 -0.158132 0)
(-0.129923 -0.00121589 0)
(-0.0513691 0.054729 0)
(0.00277207 0.0293163 0)
(0.0465373 -0.00782249 0)
(0.0841408 -0.0306755 0)
(0.102865 -0.0377435 0)
(0.103589 -0.0353085 0)
(0.0891994 -0.0338985 0)
(0.0667567 -0.0348184 0)
(0.0507712 -0.0344722 0)
(0.0405222 -0.0210377 0)
(0.0278408 0.00397501 0)
(0.0205995 0.0391565 0)
(0.0262531 0.051639 0)
(0.049767 0.0456334 0)
(0.0711615 0.040781 0)
(0.0728 0.0413307 0)
(0.0581959 0.0459643 0)
(0.0365189 0.0521077 0)
(0.038444 0.0522029 0)
(0.0605482 0.051041 0)
(0.110487 0.0547378 0)
(0.161995 0.0429572 0)
(0.0837617 -0.0137251 0)
(0.023249 -0.0750996 0)
(0.0145003 -0.0610912 0)
(-0.0120357 -0.0976604 0)
(-0.00875745 -0.171151 0)
(-0.00278478 -0.186582 0)
(-0.0282187 -0.110856 0)
(-0.145109 0.0367437 0)
(-0.0361485 0.0720283 0)
(0.0153801 0.0579958 0)
(0.0703913 0.0343345 0)
(0.101369 0.0205364 0)
(0.110594 0.0235449 0)
(0.102497 0.0275668 0)
(0.0763352 0.0236875 0)
(0.052547 0.016523 0)
(0.0408692 0.0166627 0)
(0.0344073 0.0313792 0)
(0.0266804 0.0595526 0)
(0.0269731 0.0902346 0)
(0.0434041 0.0944885 0)
(0.0703801 0.087048 0)
(0.0904323 0.0912705 0)
(0.0921535 0.102275 0)
(0.0485891 0.122894 0)
(0.00211638 0.123538 0)
(-0.00832295 0.107287 0)
(0.0131014 0.090244 0)
(0.0573005 0.0796481 0)
(0.119291 0.0717975 0)
(0.133831 0.0271102 0)
(0.0500633 -0.0554936 0)
(0.00317452 -0.0420623 0)
(-0.00148825 -0.0857954 0)
(-0.00410653 -0.156979 0)
(-0.0153726 -0.156741 0)
(-0.0794233 -0.0252095 0)
(-0.134349 0.0701249 0)
(-0.0239798 0.102502 0)
(0.035881 0.0963342 0)
(0.0852707 0.0842705 0)
(0.105591 0.0867489 0)
(0.103612 0.0960751 0)
(0.0828 0.0979532 0)
(0.0534213 0.0843489 0)
(0.0325862 0.0681055 0)
(0.0273125 0.0660025 0)
(0.0270912 0.0847973 0)
(0.0284028 0.116995 0)
(0.0407457 0.138544 0)
(0.0652874 0.13805 0)
(0.0939096 0.141241 0)
(0.107963 0.154078 0)
(0.0586225 0.188047 0)
(-0.00734576 0.20463 0)
(-0.0416972 0.185816 0)
(-0.0489928 0.154589 0)
(-0.0334311 0.12352 0)
(-0.000421939 0.0957302 0)
(0.0452275 0.0708814 0)
(0.086768 0.0346112 0)
(0.0738565 -0.0391683 0)
(-0.000684049 -0.0685924 0)
(0.00573927 -0.0825916 0)
(0.00501634 -0.16785 0)
(-0.0287061 -0.129304 0)
(-0.0845102 0.0375393 0)
(-0.0874453 0.113293 0)
(-0.00406459 0.135444 0)
(0.0583438 0.141296 0)
(0.0896615 0.151541 0)
(0.0914151 0.165096 0)
(0.0730566 0.174743 0)
(0.0503514 0.166448 0)
(0.0275151 0.143679 0)
(0.0122634 0.119125 0)
(0.0158176 0.113197 0)
(0.0213636 0.136728 0)
(0.0339131 0.172895 0)
(0.0563476 0.189939 0)
(0.0906718 0.193584 0)
(0.115201 0.204312 0)
(0.0716254 0.238874 0)
(-0.00192307 0.272311 0)
(-0.0374543 0.262043 0)
(-0.0565725 0.232894 0)
(-0.0632227 0.195341 0)
(-0.0570626 0.155659 0)
(-0.0350382 0.117861 0)
(0.00179969 0.0832113 0)
(0.0352627 0.0425248 0)
(0.0466446 -0.0132255 0)
(0.0129837 -0.0785173 0)
(0.0018123 -0.0777614 0)
(-0.00183451 -0.170847 0)
(-0.0315988 -0.0916442 0)
(-0.0569413 0.0913296 0)
(-0.036087 0.159049 0)
(0.0209619 0.194357 0)
(0.0685075 0.216004 0)
(0.0744107 0.231605 0)
(0.0531511 0.244402 0)
(0.0302029 0.243369 0)
(0.0137989 0.225561 0)
(0.00173081 0.197163 0)
(-0.00290113 0.169085 0)
(0.00647525 0.158496 0)
(0.0159185 0.187631 0)
(0.0428465 0.226581 0)
(0.0757299 0.245384 0)
(0.115488 0.258083 0)
(0.0992814 0.285517 0)
(0.0170016 0.329022 0)
(-0.0209632 0.321554 0)
(-0.0374568 0.292209 0)
(-0.0477255 0.256869 0)
(-0.0532705 0.218776 0)
(-0.0541522 0.180075 0)
(-0.049112 0.140878 0)
(-0.0284543 0.101722 0)
(0.00857712 0.0655967 0)
(0.0292871 0.0203562 0)
(0.017811 -0.0245015 0)
(-0.0166547 -0.0636922 0)
(0.003313 -0.139015 0)
(0.0110792 -0.0869543 0)
(0.0546353 0.0609727 0)
(0.0449694 0.181397 0)
(0.0533349 0.252901 0)
(0.0638132 0.281017 0)
(0.0384281 0.295883 0)
(0.0138871 0.299156 0)
(-0.00189434 0.288906 0)
(-0.011346 0.269997 0)
(-0.0161163 0.24208 0)
(-0.0141862 0.212641 0)
(-0.00150829 0.199355 0)
(0.012525 0.232191 0)
(0.0518053 0.273496 0)
(0.100099 0.30157 0)
(0.123442 0.332811 0)
(0.0591606 0.376351 0)
(0.0172232 0.38118 0)
(-0.00197543 0.349973 0)
(-0.0161471 0.312391 0)
(-0.0274769 0.272806 0)
(-0.0348709 0.232863 0)
(-0.0387539 0.193573 0)
(-0.0393576 0.156011 0)
(-0.0352051 0.120183 0)
(-0.0141123 0.0866686 0)
(0.0152582 0.0561524 0)
(0.0189388 0.0273902 0)
(-0.0157433 -0.0443593 0)
(0.00604377 -0.109139 0)
(0.0466315 -0.058295 0)
(0.0779789 0.0609182 0)
(0.0564651 0.187805 0)
(0.0551652 0.283302 0)
(0.0328128 0.318247 0)
(0.0112239 0.324963 0)
(-0.00248094 0.320643 0)
(-0.0119855 0.30962 0)
(-0.0181397 0.29329 0)
(-0.022805 0.271631 0)
(-0.0196032 0.2467 0)
(-0.00604642 0.233412 0)
(0.00955459 0.268548 0)
(0.0594446 0.312229 0)
(0.122789 0.356252 0)
(0.113384 0.407926 0)
(0.0735349 0.428113 0)
(0.0525103 0.405769 0)
(0.0355394 0.370909 0)
(0.014955 0.330266 0)
(-0.00137882 0.28741 0)
(-0.0125711 0.244642 0)
(-0.0211871 0.203024 0)
(-0.0270589 0.164592 0)
(-0.0280993 0.12995 0)
(-0.0231899 0.0989316 0)
(0.00130829 0.0813052 0)
(0.0164293 0.0709313 0)
(-0.00691246 -0.034112 0)
(0.00178277 -0.0836015 0)
(0.0254749 -0.039201 0)
(0.034223 0.0615119 0)
(0.0296648 0.180798 0)
(0.0236175 0.285781 0)
(0.0142202 0.326125 0)
(0.00463895 0.339635 0)
(-0.00733031 0.335351 0)
(-0.0171723 0.321577 0)
(-0.0224786 0.304249 0)
(-0.024855 0.28459 0)
(-0.022666 0.264104 0)
(-0.00965361 0.252603 0)
(0.00851543 0.288413 0)
(0.0708317 0.335026 0)
(0.136927 0.394124 0)
(0.127584 0.440327 0)
(0.110682 0.439692 0)
(0.0976404 0.421671 0)
(0.0766656 0.390276 0)
(0.0510006 0.349024 0)
(0.0297316 0.302527 0)
(0.0133371 0.255682 0)
(-0.00414242 0.210456 0)
(-0.0191923 0.169281 0)
(-0.0267592 0.133082 0)
(-0.0261097 0.103342 0)
(-0.0119731 0.0856369 0)
(0.00951621 0.0973687 0)
(-0.00623253 -0.0406083 0)
(-0.00438947 -0.0858854 0)
(-0.00384088 -0.0472436 0)
(-0.0137058 0.0483348 0)
(-0.0136305 0.171295 0)
(-0.0085181 0.285543 0)
(-0.00303709 0.330435 0)
(-0.00285948 0.348487 0)
(-0.0107344 0.346556 0)
(-0.0199246 0.330987 0)
(-0.0266099 0.310468 0)
(-0.0283512 0.289679 0)
(-0.024934 0.271042 0)
(-0.0129869 0.258046 0)
(0.00781529 0.286589 0)
(0.0870031 0.329867 0)
(0.144582 0.39425 0)
(0.144496 0.4344 0)
(0.140101 0.44536 0)
(0.134648 0.435804 0)
(0.119356 0.410663 0)
(0.0950513 0.371006 0)
(0.0712421 0.320558 0)
(0.0431235 0.265284 0)
(0.00863609 0.213257 0)
(-0.020116 0.170397 0)
(-0.0339446 0.130611 0)
(-0.0359037 0.100689 0)
(-0.0260012 0.0813718 0)
(-0.00523706 0.0988128 0)
(-0.00405599 -0.0620879 0)
(-0.00539353 -0.118842 0)
(-0.0307666 -0.0640492 0)
(-0.0663312 0.0384041 0)
(-0.0771418 0.163417 0)
(-0.0452058 0.270586 0)
(-0.0197315 0.319616 0)
(-0.00890099 0.347632 0)
(-0.00856837 0.357007 0)
(-0.0203002 0.339158 0)
(-0.0320531 0.311536 0)
(-0.0336445 0.288407 0)
(-0.0289189 0.271832 0)
(-0.0183929 0.256939 0)
(0.00614651 0.263594 0)
(0.100155 0.305806 0)
(0.133943 0.38106 0)
(0.138281 0.429581 0)
(0.145405 0.44914 0)
(0.153003 0.446546 0)
(0.155625 0.427393 0)
(0.150393 0.394128 0)
(0.141841 0.35035 0)
(0.0991963 0.296563 0)
(-0.0056407 0.201156 0)
(-0.0402084 0.168594 0)
(-0.0556575 0.122009 0)
(-0.0559311 0.0881906 0)
(-0.0464874 0.0715129 0)
(-0.0304874 0.0902112 0)
(0.0226525 -0.104377 0)
(0.0180741 -0.193244 0)
(-0.0358556 -0.207711 0)
(-0.0877549 -0.13762 0)
(-0.101738 0.109656 0)
(-0.0557777 0.262665 0)
(-0.0285416 0.304981 0)
(-0.0166359 0.336872 0)
(0.00271565 0.356999 0)
(-0.022427 0.33272 0)
(-0.0450533 0.306841 0)
(-0.0443573 0.274393 0)
(-0.0354681 0.266168 0)
(-0.0212644 0.244179 0)
(0.000693508 0.215742 0)
(0.0751826 0.27894 0)
(0.0880614 0.360781 0)
(0.10096 0.423383 0)
(0.122984 0.446382 0)
(0.144114 0.437111 0)
(0.158073 0.393946 0)
(0.150441 0.289731 0)
(0.103658 0.0801875 0)
(0.0385701 -0.124839 0)
(-0.0163047 -0.1626 0)
(-0.0809526 0.146229 0)
(-0.0928353 0.106684 0)
(-0.08459 0.0644764 0)
(-0.0754671 0.0457883 0)
(-0.0716055 0.0566415 0)
(0.10376 -0.25991 0)
(0.0330329 -0.399779 0)
(-0.0270963 -0.535947 0)
(-0.0169551 -0.502302 0)
(-0.00282023 -0.424313 0)
(-0.025243 -0.142532 0)
(-0.0196666 0.085992 0)
(-0.0059097 0.0777161 0)
(-0.00713137 0.0100506 0)
(-0.0485406 0.0164276 0)
(-0.0739949 0.218948 0)
(-0.0766177 0.248697 0)
(-0.0505476 0.25357 0)
(-0.0126735 0.211967 0)
(0.0250734 0.180891 0)
(0.0388956 0.116205 0)
(0.0221854 0.112942 0)
(0.0352891 0.157257 0)
(0.049883 0.118555 0)
(0.0500214 0.0383614 0)
(0.0358331 -0.0830673 0)
(0.00534507 -0.254971 0)
(-0.0147432 -0.38632 0)
(-0.0068035 -0.435562 0)
(0.010546 -0.4538 0)
(-0.0522518 -0.315078 0)
(-0.115868 0.0789066 0)
(-0.101539 0.0283572 0)
(-0.0958254 -0.00295733 0)
(-0.102963 -0.0109867 0)
(0.0115428 -0.538803 0)
(-0.0485705 -0.569943 0)
(-0.0722086 -0.537803 0)
(-0.0649471 -0.511867 0)
(-0.0412268 -0.47949 0)
(-0.0149921 -0.441989 0)
(-0.0256946 -0.398155 0)
(-0.0546814 -0.341815 0)
(-0.0694551 -0.291218 0)
(-0.0714202 -0.28847 0)
(-0.0725135 -0.322559 0)
(-0.103178 0.0160959 0)
(-0.0395843 0.223215 0)
(0.0171506 0.160689 0)
(0.0312409 0.0345368 0)
(-0.0628692 -0.368333 0)
(-0.0762474 -0.372473 0)
(-0.066693 -0.36629 0)
(-0.0603125 -0.375677 0)
(-0.0540641 -0.391036 0)
(-0.046175 -0.402721 0)
(-0.0331836 -0.405017 0)
(-0.0152531 -0.408208 0)
(0.00433558 -0.418563 0)
(0.0237796 -0.435692 0)
(0.0322232 -0.457903 0)
(-0.055026 -0.312535 0)
(-0.102152 -0.0304626 0)
(-0.0912697 -0.0723071 0)
(-0.103015 -0.0892379 0)
(-0.0198186 -0.542851 0)
(-0.082106 -0.548041 0)
(-0.121359 -0.527181 0)
(-0.118308 -0.491972 0)
(-0.0892324 -0.449668 0)
(-0.0582548 -0.411346 0)
(-0.071061 -0.378399 0)
(-0.0970561 -0.326841 0)
(-0.0958731 -0.300419 0)
(-0.080541 -0.308001 0)
(-0.0579958 -0.406162 0)
(-0.0601691 -0.49081 0)
(-0.0731136 -0.452413 0)
(-0.014893 -0.210411 0)
(-0.10067 -0.477089 0)
(-0.0988494 -0.44054 0)
(-0.0905139 -0.418299 0)
(-0.0751545 -0.403133 0)
(-0.0645891 -0.394268 0)
(-0.0514673 -0.380851 0)
(-0.038091 -0.373702 0)
(-0.0222952 -0.371415 0)
(-0.00438911 -0.375141 0)
(0.0156325 -0.385181 0)
(0.0374383 -0.403235 0)
(0.0570537 -0.424707 0)
(0.044951 -0.469415 0)
(-0.110411 -0.199555 0)
(-0.0924314 -0.144909 0)
(-0.074217 -0.188027 0)
(-0.0319251 -0.511847 0)
(-0.121438 -0.515329 0)
(-0.165189 -0.504156 0)
(-0.167764 -0.476223 0)
(-0.134007 -0.426922 0)
(-0.0947652 -0.387169 0)
(-0.114348 -0.339955 0)
(-0.123937 -0.298296 0)
(-0.112 -0.284327 0)
(-0.0802359 -0.304528 0)
(-0.0540525 -0.382724 0)
(-0.0454746 -0.464606 0)
(-0.0577544 -0.5043 0)
(-0.0839387 -0.510141 0)
(-0.107584 -0.463742 0)
(-0.104678 -0.412908 0)
(-0.0873729 -0.387447 0)
(-0.0740818 -0.375234 0)
(-0.0625485 -0.362524 0)
(-0.0475492 -0.354046 0)
(-0.0319655 -0.346981 0)
(-0.0147688 -0.345775 0)
(0.00472307 -0.351561 0)
(0.0252696 -0.36493 0)
(0.0441547 -0.380732 0)
(0.0626973 -0.39978 0)
(0.084873 -0.449336 0)
(-0.025788 -0.447975 0)
(-0.0912945 -0.1884 0)
(0.00439527 -0.263886 0)
(-0.0410273 -0.464708 0)
(-0.158753 -0.478664 0)
(-0.207299 -0.464231 0)
(-0.203413 -0.433212 0)
(-0.171336 -0.38262 0)
(-0.143102 -0.343971 0)
(-0.141955 -0.318041 0)
(-0.144643 -0.293924 0)
(-0.11655 -0.277371 0)
(-0.078172 -0.303737 0)
(-0.0509259 -0.372631 0)
(-0.0531999 -0.446023 0)
(-0.0691299 -0.4783 0)
(-0.0970785 -0.476039 0)
(-0.108149 -0.434067 0)
(-0.0933429 -0.391404 0)
(-0.0852147 -0.366683 0)
(-0.0683823 -0.349102 0)
(-0.0556143 -0.337546 0)
(-0.0396573 -0.325773 0)
(-0.0233295 -0.318581 0)
(-0.00516618 -0.316729 0)
(0.014708 -0.321644 0)
(0.0354932 -0.332618 0)
(0.0556629 -0.348821 0)
(0.0782893 -0.365261 0)
(0.0976896 -0.420565 0)
(0.0168495 -0.439075 0)
(-0.0244255 -0.381457 0)
(0.00894901 -0.268799 0)
(-0.0572141 -0.41746 0)
(-0.184154 -0.423681 0)
(-0.216996 -0.422344 0)
(-0.208129 -0.410897 0)
(-0.184627 -0.368199 0)
(-0.178743 -0.312317 0)
(-0.16027 -0.295355 0)
(-0.149247 -0.274613 0)
(-0.11552 -0.271175 0)
(-0.0756292 -0.298351 0)
(-0.0438653 -0.349347 0)
(-0.0448272 -0.403386 0)
(-0.0543317 -0.435458 0)
(-0.0746887 -0.444287 0)
(-0.099079 -0.408488 0)
(-0.0950995 -0.36702 0)
(-0.0788043 -0.339395 0)
(-0.0635186 -0.323566 0)
(-0.0499785 -0.310531 0)
(-0.0330277 -0.299253 0)
(-0.0158068 -0.291462 0)
(0.00319608 -0.289301 0)
(0.0233322 -0.293981 0)
(0.0445695 -0.305199 0)
(0.0639687 -0.320196 0)
(0.0863908 -0.337564 0)
(0.107032 -0.386139 0)
(0.0281869 -0.407815 0)
(-0.00722281 -0.365869 0)
(0.0194342 -0.261263 0)
(-0.066296 -0.360455 0)
(-0.169779 -0.37009 0)
(-0.187149 -0.381303 0)
(-0.182747 -0.384904 0)
(-0.179473 -0.355042 0)
(-0.187442 -0.289766 0)
(-0.174363 -0.26071 0)
(-0.146115 -0.255632 0)
(-0.108025 -0.255116 0)
(-0.0755726 -0.2782 0)
(-0.0390922 -0.316434 0)
(-0.0410498 -0.361549 0)
(-0.0557785 -0.39722 0)
(-0.0796914 -0.403154 0)
(-0.0940096 -0.376036 0)
(-0.0862735 -0.34042 0)
(-0.0727897 -0.314503 0)
(-0.055949 -0.29751 0)
(-0.0419847 -0.284181 0)
(-0.0247991 -0.272317 0)
(-0.00701439 -0.26375 0)
(0.0124063 -0.260548 0)
(0.0326588 -0.264141 0)
(0.0537268 -0.274303 0)
(0.073284 -0.288278 0)
(0.0960689 -0.304788 0)
(0.114512 -0.352071 0)
(0.0293293 -0.370477 0)
(-0.00341226 -0.33997 0)
(0.019172 -0.239718 0)
(-0.0552878 -0.305986 0)
(-0.119422 -0.313459 0)
(-0.13851 -0.333222 0)
(-0.140014 -0.341154 0)
(-0.154469 -0.335583 0)
(-0.180623 -0.273736 0)
(-0.166256 -0.238118 0)
(-0.128683 -0.231497 0)
(-0.098807 -0.233975 0)
(-0.0702266 -0.254783 0)
(-0.0306499 -0.28573 0)
(-0.0212293 -0.325507 0)
(-0.0310234 -0.352811 0)
(-0.0615405 -0.359487 0)
(-0.0840432 -0.339545 0)
(-0.0812749 -0.30711 0)
(-0.0660552 -0.283318 0)
(-0.0474265 -0.268666 0)
(-0.0334405 -0.256319 0)
(-0.0155821 -0.244938 0)
(0.0024097 -0.235874 0)
(0.022116 -0.23162 0)
(0.0422858 -0.233943 0)
(0.0631143 -0.242814 0)
(0.0825073 -0.255314 0)
(0.105345 -0.271851 0)
(0.121801 -0.313168 0)
(0.0370865 -0.332718 0)
(-0.00700331 -0.31305 0)
(0.00411289 -0.22134 0)
(-0.0318705 -0.253701 0)
(-0.0714793 -0.26353 0)
(-0.0967217 -0.277248 0)
(-0.114189 -0.292625 0)
(-0.128021 -0.290954 0)
(-0.159966 -0.257377 0)
(-0.160346 -0.223562 0)
(-0.122587 -0.209917 0)
(-0.0769181 -0.222659 0)
(-0.0439594 -0.242944 0)
(-0.00118001 -0.260655 0)
(0.0151059 -0.288382 0)
(0.00938386 -0.308415 0)
(-0.0309605 -0.318058 0)
(-0.0668873 -0.301891 0)
(-0.072379 -0.2705 0)
(-0.0609564 -0.246963 0)
(-0.0395734 -0.233631 0)
(-0.0242493 -0.223556 0)
(-0.0057561 -0.214116 0)
(0.0129975 -0.206126 0)
(0.0327912 -0.201553 0)
(0.0527019 -0.202553 0)
(0.0731645 -0.209746 0)
(0.0924994 -0.220594 0)
(0.115534 -0.236282 0)
(0.130554 -0.271866 0)
(0.0750412 -0.295006 0)
(0.00635344 -0.295767 0)
(-0.00445635 -0.219329 0)
(-0.01854 -0.200386 0)
(-0.0711914 -0.220997 0)
(-0.111118 -0.222323 0)
(-0.140218 -0.237262 0)
(-0.148216 -0.243345 0)
(-0.151049 -0.219817 0)
(-0.153762 -0.181981 0)
(-0.101072 -0.167741 0)
(-0.0405877 -0.206324 0)
(-0.0155352 -0.211467 0)
(0.0259576 -0.221794 0)
(0.0503299 -0.231694 0)
(0.0461133 -0.256275 0)
(0.00816829 -0.274412 0)
(-0.040241 -0.2707 0)
(-0.0562425 -0.241178 0)
(-0.0546944 -0.215414 0)
(-0.0374332 -0.195278 0)
(-0.0160058 -0.18384 0)
(0.0022994 -0.175232 0)
(0.0237088 -0.170141 0)
(0.0444831 -0.16797 0)
(0.064126 -0.168816 0)
(0.0841092 -0.174742 0)
(0.103411 -0.183835 0)
(0.126415 -0.198682 0)
(0.139611 -0.227951 0)
(0.103931 -0.251532 0)
(0.0357941 -0.259566 0)
(0.00994754 -0.208244 0)
(-0.0138323 -0.164401 0)
(-0.0683077 -0.157096 0)
(-0.108038 -0.168763 0)
(-0.13916 -0.186115 0)
(-0.176022 -0.181962 0)
(-0.187355 -0.151199 0)
(-0.148482 -0.121546 0)
(-0.0668969 -0.126571 0)
(-0.00900191 -0.144778 0)
(0.0164802 -0.169437 0)
(0.0421921 -0.176705 0)
(0.0562527 -0.186818 0)
(0.0463781 -0.200344 0)
(0.00890787 -0.21148 0)
(-0.0359283 -0.208478 0)
(-0.0504422 -0.192774 0)
(-0.0499348 -0.177331 0)
(-0.0342303 -0.164103 0)
(-0.0140433 -0.151936 0)
(0.00617279 -0.140929 0)
(0.02781 -0.13162 0)
(0.0535844 -0.126922 0)
(0.0760045 -0.129653 0)
(0.0960322 -0.135913 0)
(0.115247 -0.144034 0)
(0.137903 -0.157892 0)
(0.14726 -0.181721 0)
(0.0875459 -0.205961 0)
(0.0338999 -0.201248 0)
(0.0252936 -0.16461 0)
(-0.0223618 -0.115622 0)
(-0.070562 -0.106615 0)
(-0.10925 -0.114447 0)
(-0.151102 -0.122176 0)
(-0.175974 -0.114339 0)
(-0.172635 -0.101308 0)
(-0.126178 -0.0937339 0)
(-0.0468782 -0.107245 0)
(-0.000552054 -0.112875 0)
(0.0286071 -0.126315 0)
(0.046955 -0.131157 0)
(0.0539567 -0.135523 0)
(0.0437287 -0.146532 0)
(0.0079681 -0.155127 0)
(-0.0361822 -0.154075 0)
(-0.0525368 -0.143723 0)
(-0.0534906 -0.130751 0)
(-0.0389309 -0.121785 0)
(-0.0178193 -0.113093 0)
(0.00514852 -0.104623 0)
(0.030639 -0.095943 0)
(0.0572965 -0.0887648 0)
(0.0848563 -0.0863866 0)
(0.107856 -0.0920332 0)
(0.127634 -0.0998706 0)
(0.149781 -0.113142 0)
(0.156151 -0.131293 0)
(0.0771025 -0.156315 0)
(0.0254297 -0.153644 0)
(0.0229409 -0.117631 0)
(-0.0253005 -0.0626501 0)
(-0.0663895 -0.0565489 0)
(-0.100311 -0.0609057 0)
(-0.14233 -0.0597572 0)
(-0.158234 -0.0530862 0)
(-0.145533 -0.0512778 0)
(-0.0790828 -0.0576983 0)
(-0.0292478 -0.0631416 0)