/*--------------------------------*- C++ -*----------------------------------*\
| =========                 |                                                 |
| \\      /  F ield         | OpenFOAM: The Open Source CFD Toolbox           |
|  \\    /   O peration     | Version:  v1606+                                |
|   \\  /    A nd           | Web:      www.OpenFOAM.com                      |
|    \\/     M anipulation  |                                                 |
\*---------------------------------------------------------------------------*/
FoamFile
{
    version     2.0;
    format      ascii;
    class       volVectorField;
    location    "1.35";
    object      U.particlesMean;
}
// * * * * * * * * * * * * * * * * * * * * * * * * * * * * * * * * * * * * * //

dimensions      [0 1 -1 0 0 0 0];

internalField   nonuniform List<vector> 
6000
(
(-0.00756875 -0.33537 0)
(-0.000404402 -0.366715 0)
(0.0103905 -0.372039 0)
(0.0150636 -0.383668 0)
(0.0157934 -0.397225 0)
(0.0134544 -0.409523 0)
(0.0107743 -0.42005 0)
(0.00619271 -0.427311 0)
(0.00176267 -0.426775 0)
(-0.00119403 -0.432628 0)
(-0.00345062 -0.437914 0)
(-0.00441798 -0.442846 0)
(-0.00558375 -0.445504 0)
(-0.00702901 -0.44924 0)
(-0.00847149 -0.449348 0)
(-0.00980227 -0.448836 0)
(-0.0106092 -0.447944 0)
(-0.0109578 -0.447754 0)
(-0.0112913 -0.453092 0)
(-0.0130515 -0.451027 0)
(-0.0164033 -0.443149 0)
(-0.0199646 -0.429381 0)
(-0.0229648 -0.419786 0)
(-0.0259711 -0.412189 0)
(-0.0288887 -0.400399 0)
(-0.0302415 -0.385153 0)
(-0.0260801 -0.367497 0)
(-0.0167397 -0.357113 0)
(-0.00261611 -0.356222 0)
(0.00634401 -0.33124 0)
(0.017715 0.0306096 0)
(0.0128855 0.0490816 0)
(0.0256924 0.0502204 0)
(0.0365767 0.057782 0)
(0.041484 0.0653717 0)
(0.0374896 0.0691048 0)
(0.0242915 0.0662943 0)
(0.0101898 0.0645723 0)
(0.000342428 0.0642737 0)
(-0.00301806 0.065331 0)
(-0.00583977 0.0672906 0)
(-0.0086768 0.0665485 0)
(-0.0108579 0.0609675 0)
(-0.0130411 0.0570754 0)
(-0.0134655 0.0529325 0)
(-0.0127158 0.0524084 0)
(-0.0122018 0.0547876 0)
(-0.0118266 0.058011 0)
(-0.0124414 0.0652202 0)
(-0.0160048 0.06824 0)
(-0.0207664 0.0659301 0)
(-0.0271415 0.0683047 0)
(-0.0400675 0.0717094 0)
(-0.052337 0.069785 0)
(-0.0571131 0.0639205 0)
(-0.0531318 0.0570475 0)
(-0.0401025 0.0474635 0)
(-0.0260749 0.0434709 0)
(-0.0125522 0.0468333 0)
(-0.0176022 0.0306823 0)
(0.00458142 -0.0489106 0)
(0.00738695 -0.062062 0)
(0.0208468 -0.0645926 0)
(0.0306746 -0.0568181 0)
(0.0389929 -0.0405367 0)
(0.0392165 -0.0210289 0)
(0.0306478 -0.0121744 0)
(0.0173321 -0.0143271 0)
(0.00863854 -0.0251531 0)
(0.00281992 -0.0315833 0)
(-0.00233182 -0.0363952 0)
(-0.00604417 -0.0393101 0)
(-0.00989089 -0.0396323 0)
(-0.0132962 -0.040362 0)
(-0.013585 -0.0424905 0)
(-0.0132562 -0.0436911 0)
(-0.014038 -0.0444576 0)
(-0.0165207 -0.044295 0)
(-0.0197668 -0.040542 0)
(-0.0232977 -0.036759 0)
(-0.0286967 -0.0294472 0)
(-0.0346414 -0.0201015 0)
(-0.0426157 -0.0149952 0)
(-0.0518449 -0.0221246 0)
(-0.0537138 -0.0395052 0)
(-0.0450358 -0.0576004 0)
(-0.0323132 -0.0678951 0)
(-0.0219289 -0.0705194 0)
(-0.00840194 -0.0649555 0)
(-0.00640551 -0.0522995 0)
(0.0105744 -0.0586642 0)
(0.0093608 -0.0665765 0)
(0.0141714 -0.0643003 0)
(0.0177788 -0.0549387 0)
(0.0294466 -0.0385826 0)
(0.0343479 -0.0199702 0)
(0.0342843 -0.00784126 0)
(0.0292554 -0.00656172 0)
(0.0232856 -0.00865782 0)
(0.0151602 -0.00886639 0)
(0.00620657 -0.0101031 0)
(-0.0034867 -0.0102195 0)
(-0.0120662 -0.012681 0)
(-0.0146054 -0.021198 0)
(-0.011913 -0.0291083 0)
(-0.00849802 -0.0291463 0)
(-0.00756794 -0.0233738 0)
(-0.0127129 -0.0164534 0)
(-0.0227534 -0.0119731 0)
(-0.0325031 -0.0113117 0)
(-0.0387983 -0.0104906 0)
(-0.0432266 -0.00797586 0)
(-0.0465903 -0.00691817 0)
(-0.0495196 -0.0173423 0)
(-0.0427114 -0.0388952 0)
(-0.0298583 -0.0569071 0)
(-0.0202306 -0.0670957 0)
(-0.0157359 -0.0699519 0)
(-0.0114301 -0.068682 0)
(-0.00949061 -0.0600831 0)
(0.00628853 -0.0749352 0)
(0.00484507 -0.0824247 0)
(0.00777832 -0.0819823 0)
(0.0083263 -0.0785556 0)
(0.0171895 -0.0631407 0)
(0.0262946 -0.0429671 0)
(0.0310369 -0.0250878 0)
(0.0323936 -0.0190722 0)
(0.0292546 -0.0190685 0)
(0.022202 -0.0187286 0)
(0.0126654 -0.0185496 0)
(-0.000468367 -0.0177695 0)
(-0.0106078 -0.0249207 0)
(-0.0131384 -0.0424444 0)
(-0.00810539 -0.0546755 0)
(-0.00159978 -0.0540632 0)
(0.00168696 -0.0430571 0)
(-0.00265417 -0.0286447 0)
(-0.0152968 -0.0190213 0)
(-0.0282557 -0.0201715 0)
(-0.0361054 -0.0228763 0)
(-0.0399126 -0.0223374 0)
(-0.0432101 -0.0241623 0)
(-0.0418834 -0.0394336 0)
(-0.0334442 -0.0674965 0)
(-0.0208535 -0.0846207 0)
(-0.0101213 -0.0901095 0)
(-0.00763097 -0.0866773 0)
(-0.00512063 -0.0836687 0)
(-0.00543221 -0.0752326 0)
(0.00339622 -0.0750819 0)
(-0.00113485 -0.0784183 0)
(-0.00165714 -0.0824349 0)
(0.00284824 -0.0850971 0)
(0.00908302 -0.0742628 0)
(0.0202506 -0.0544763 0)
(0.0265405 -0.0360669 0)
(0.0323086 -0.0271565 0)
(0.0299226 -0.0207985 0)
(0.0223657 -0.0197474 0)
(0.0113016 -0.0215025 0)
(-0.00287429 -0.0257897 0)
(-0.0115614 -0.0386489 0)
(-0.0119306 -0.0568589 0)
(-0.00630428 -0.0702281 0)
(0.00290592 -0.0696862 0)
(0.00898837 -0.0564471 0)
(0.00787237 -0.0400416 0)
(0.000398209 -0.0277859 0)
(-0.0114876 -0.0231741 0)
(-0.0242941 -0.022523 0)
(-0.0355358 -0.0244116 0)
(-0.0410039 -0.0306157 0)
(-0.0361374 -0.0502268 0)
(-0.0251385 -0.0775441 0)
(-0.0121137 -0.0924395 0)
(-0.00316355 -0.0939254 0)
(0.0015576 -0.0865447 0)
(0.000724811 -0.0790585 0)
(-0.00253754 -0.0742483 0)
(-0.00214587 -0.0640223 0)
(-0.00587997 -0.0746828 0)
(-0.00651436 -0.0835832 0)
(-0.0026648 -0.0878748 0)
(0.00594907 -0.084442 0)
(0.017657 -0.0626347 0)
(0.0237713 -0.0425785 0)
(0.0326273 -0.0334273 0)
(0.030407 -0.0215212 0)
(0.0191284 -0.0193783 0)
(0.00801004 -0.0230644 0)
(-0.00320991 -0.0284082 0)
(-0.00863243 -0.0426338 0)
(-0.0086315 -0.064531 0)
(-0.00409595 -0.0802994 0)
(0.00447085 -0.0804443 0)
(0.0107635 -0.0660533 0)
(0.0120169 -0.0463809 0)
(0.00782799 -0.0310662 0)
(-0.000558536 -0.0253751 0)
(-0.0129293 -0.0214921 0)
(-0.0262795 -0.0232786 0)
(-0.0345562 -0.0343107 0)
(-0.0279604 -0.0563685 0)
(-0.018485 -0.0842364 0)
(-0.0073567 -0.0966239 0)
(0.001728 -0.0965433 0)
(0.0051213 -0.0877028 0)
(0.00474942 -0.076547 0)
(0.0017601 -0.0645859 0)
(-0.00246375 -0.0524973 0)
(-0.00601637 -0.0643597 0)
(-0.00723264 -0.0756582 0)
(-0.00239931 -0.0846312 0)
(0.0046237 -0.0841223 0)
(0.0135721 -0.0673863 0)
(0.0183698 -0.0446128 0)
(0.0236907 -0.0349466 0)
(0.0243322 -0.0206427 0)
(0.0155277 -0.0131981 0)
(0.00322675 -0.0178028 0)
(-0.0022822 -0.0265996 0)
(-0.00234519 -0.0430988 0)
(-0.00158854 -0.0674427 0)
(0.000116009 -0.0839854 0)
(0.00395811 -0.0848268 0)
(0.00931951 -0.0724144 0)
(0.0128472 -0.0509096 0)
(0.0145006 -0.0347129 0)
(0.00970755 -0.0213078 0)
(-0.00269641 -0.0141471 0)
(-0.0154505 -0.0187786 0)
(-0.0222288 -0.0343575 0)
(-0.0189504 -0.0570622 0)
(-0.0119876 -0.0843017 0)
(-0.00553937 -0.0961963 0)
(-0.00157546 -0.0930695 0)
(0.00364204 -0.0820606 0)
(0.00398516 -0.068557 0)
(0.00175106 -0.0543618 0)
(-0.00301241 -0.0451466 0)
(-0.00270132 -0.0533504 0)
(-0.00323268 -0.0670788 0)
(-0.000589456 -0.0797032 0)
(0.00135236 -0.0809821 0)
(0.00730912 -0.0695442 0)
(0.00902042 -0.0445011 0)
(0.0125741 -0.0309297 0)
(0.017657 -0.0191693 0)
(0.0165589 -0.0074304 0)
(0.00295387 -0.00347447 0)
(-0.00185686 -0.0169389 0)
(0.00326592 -0.0404252 0)
(0.00600386 -0.0655117 0)
(0.0057684 -0.0816397 0)
(0.0046764 -0.0830237 0)
(0.00781043 -0.0712698 0)
(0.0102123 -0.0462922 0)
(0.0145773 -0.0291578 0)
(0.0149776 -0.00863438 0)
(0.00478227 0.00173281 0)
(-0.00817001 -0.0106385 0)
(-0.00914568 -0.032444 0)
(-0.00516259 -0.0578199 0)
(-0.00329507 -0.0826435 0)
(-0.00428997 -0.0940483 0)
(-0.00501317 -0.0897646 0)
(-0.00131838 -0.0758512 0)
(0.000377166 -0.0608994 0)
(0.00266871 -0.0505834 0)
(0.000656124 -0.0385682 0)
(0.00436428 -0.0441062 0)
(0.0055964 -0.0559197 0)
(0.00377447 -0.071695 0)
(0.000234742 -0.0756829 0)
(0.000584323 -0.0640588 0)
(0.00162603 -0.0402903 0)
(0.00709503 -0.0287523 0)
(0.0130447 -0.0149144 0)
(0.0182369 0.0022359 0)
(0.0111095 0.00537627 0)
(0.010294 -0.00690391 0)
(0.0122813 -0.0326556 0)
(0.0107914 -0.0594055 0)
(0.00929909 -0.0787404 0)
(0.00502692 -0.0804046 0)
(0.00601254 -0.06646 0)
(0.00621984 -0.0396479 0)
(0.0162808 -0.0175377 0)
(0.0160928 0.00508802 0)
(0.00688905 0.0117451 0)
(0.00406385 -0.000953137 0)
(0.00369486 -0.0290543 0)
(0.00822004 -0.0540141 0)
(0.00723845 -0.0751423 0)
(-0.000472352 -0.0879899 0)
(-0.00782634 -0.0842365 0)
(-0.00625676 -0.0681888 0)
(-0.0042508 -0.0528093 0)
(0.000419599 -0.0442509 0)
(0.00198769 -0.0361332 0)
(0.0074029 -0.0416448 0)
(0.0118086 -0.0527922 0)
(0.0123597 -0.0676709 0)
(-0.00030841 -0.0720402 0)
(-0.00474917 -0.0564807 0)
(-0.00126073 -0.0361853 0)
(0.00666236 -0.0259318 0)
(0.00932983 -0.0100257 0)
(0.0171562 0.014286 0)
(0.0143455 0.0184114 0)
(0.0110529 0.00330185 0)
(0.0165666 -0.0290686 0)
(0.0213768 -0.0555218 0)
(0.0151736 -0.0713304 0)
(0.00514077 -0.0742474 0)
(0.00472626 -0.06064 0)
(0.00641441 -0.0353002 0)
(0.0189099 -0.00602292 0)
(0.0133587 0.0100697 0)
(0.0124163 0.0171865 0)
(0.0175008 0.00329403 0)
(0.0151304 -0.0199454 0)
(0.0197057 -0.0438984 0)
(0.0162336 -0.0649858 0)
(0.0034223 -0.0813898 0)
(-0.00926876 -0.0814799 0)
(-0.00909493 -0.0647724 0)
(-0.00676327 -0.0498899 0)
(-0.00132635 -0.0412368 0)
(0.00388764 -0.0361235 0)
(0.00768108 -0.0426151 0)
(0.0128091 -0.0524072 0)
(0.0161028 -0.065517 0)
(0.00367213 -0.0678748 0)
(-0.00761046 -0.0575598 0)
(-0.00209129 -0.0406069 0)
(0.00316313 -0.0246255 0)
(0.00808912 -0.00677207 0)
(0.0147099 0.0180745 0)
(0.0175353 0.0231627 0)
(0.0113493 0.0068476 0)
(0.0154275 -0.0266105 0)
(0.021095 -0.0516037 0)
(0.0178345 -0.0645409 0)
(0.00827302 -0.0640597 0)
(0.00472467 -0.0512841 0)
(0.00709318 -0.0303185 0)
(0.019733 -0.00170967 0)
(0.0145976 0.0160689 0)
(0.014045 0.0222031 0)
(0.0208705 0.00677774 0)
(0.021125 -0.0168037 0)
(0.0216644 -0.0391952 0)
(0.0188016 -0.0584146 0)
(0.00560917 -0.0746985 0)
(-0.00879517 -0.0779183 0)
(-0.0083016 -0.0634009 0)
(-0.00553974 -0.0508596 0)
(-0.00272735 -0.0414178 0)
(0.00408914 -0.037457 0)
(0.00544804 -0.0445595 0)
(0.0104961 -0.0540195 0)
(0.0129265 -0.0655008 0)
(0.00287896 -0.060994 0)
(-0.00600859 -0.0562869 0)
(-0.00377605 -0.0379904 0)
(0.00257781 -0.017426 0)
(0.00532344 0.0016572 0)
(0.0107631 0.028237 0)
(0.0126154 0.0332947 0)
(0.00855498 0.0115968 0)
(0.0116355 -0.0197009 0)
(0.0192699 -0.0443514 0)
(0.0161658 -0.0555422 0)
(0.00745169 -0.0565676 0)
(0.00610147 -0.0490396 0)
(0.0151698 -0.0315958 0)
(0.0230068 0.00348746 0)
(0.0163847 0.025691 0)
(0.0172333 0.0304402 0)
(0.0277254 0.0121855 0)
(0.0279131 -0.0116772 0)
(0.0254445 -0.0361458 0)
(0.023686 -0.0559224 0)
(0.00566028 -0.0684476 0)
(-0.00790852 -0.0728781 0)
(-0.00763111 -0.0632247 0)
(-0.00326946 -0.0527724 0)
(-0.002454 -0.0420567 0)
(0.00321777 -0.0375129 0)
(0.00301723 -0.0448604 0)
(0.00723706 -0.0528605 0)
(0.00715698 -0.0613237 0)
(0.000174318 -0.0555536 0)
(-0.00545331 -0.0525014 0)
(-0.00147588 -0.0380642 0)
(0.00182961 -0.0156006 0)
(0.00166372 0.00315005 0)
(0.00630208 0.0300309 0)
(0.0144354 0.0359561 0)
(0.0135976 0.0142104 0)
(0.0130975 -0.0184869 0)
(0.0221302 -0.0391008 0)
(0.0172659 -0.048735 0)
(0.00550057 -0.0499578 0)
(0.00153766 -0.0464808 0)
(0.011438 -0.0341525 0)
(0.0167957 0.00604687 0)
(0.0156401 0.0329377 0)
(0.0184395 0.0359745 0)
(0.0275666 0.0173255 0)
(0.0311565 -0.00806951 0)
(0.0282558 -0.0298338 0)
(0.026872 -0.0488677 0)
(0.00811269 -0.0632964 0)
(-0.00562588 -0.0661132 0)
(-0.00699501 -0.0609483 0)
(-0.00193097 -0.0526472 0)
(-0.001106 -0.0398029 0)
(0.0027023 -0.0350849 0)
(0.00226728 -0.0435249 0)
(0.00535324 -0.0477222 0)
(0.00264892 -0.0557543 0)
(-0.00567696 -0.0515007 0)
(-0.0063636 -0.0489474 0)
(-0.00278858 -0.034836 0)
(-0.0034659 -0.0127392 0)
(-0.00381201 0.00741771 0)
(0.00157361 0.03286 0)
(0.0140782 0.0373144 0)
(0.0202129 0.0125803 0)
(0.0212573 -0.0181086 0)
(0.0281212 -0.0332911 0)
(0.0228411 -0.0433473 0)
(0.0121159 -0.0458812 0)
(0.0029802 -0.044887 0)
(0.00688762 -0.0390318 0)
(0.00726022 0.0104272 0)
(0.0119179 0.0416526 0)
(0.0144564 0.0464346 0)
(0.0198603 0.0261206 0)
(0.0252373 -0.00353252 0)
(0.0228152 -0.0242484 0)
(0.0264333 -0.0431018 0)
(0.0111994 -0.0582768 0)
(0.000413461 -0.0622379 0)
(-0.00330233 -0.056617 0)
(0.000219304 -0.0501186 0)
(-0.000565641 -0.036033 0)
(0.00161947 -0.0313446 0)
(0.000950198 -0.0400125 0)
(0.00605558 -0.0428024 0)
(0.00675151 -0.0538289 0)
(-0.000765924 -0.0512165 0)
(-0.00319652 -0.0462878 0)
(-0.0107002 -0.0304661 0)
(-0.0117361 -0.00956219 0)
(-0.00887692 0.0125879 0)
(-0.0017073 0.0335077 0)
(0.0140643 0.0361892 0)
(0.0260297 0.00950135 0)
(0.022886 -0.0215866 0)
(0.0284023 -0.0360713 0)
(0.0331238 -0.04182 0)
(0.0243841 -0.0455886 0)
(0.0176559 -0.0468106 0)
(0.00947064 -0.0421542 0)
(0.00363095 0.00636473 0)
(0.0104386 0.0433124 0)
(0.00930127 0.0529331 0)
(0.0137033 0.0338624 0)
(0.0138313 0.00327439 0)
(0.0118799 -0.0190351 0)
(0.0206721 -0.0405261 0)
(0.0128538 -0.0533669 0)
(0.00646026 -0.0514616 0)
(-0.00038029 -0.0520982 0)
(0.00236549 -0.0442144 0)
(-0.000124719 -0.0299728 0)
(0.000878856 -0.0271206 0)
(0.00049089 -0.0349554 0)
(0.00562947 -0.04136 0)
(0.00652692 -0.0517513 0)
(-0.000695416 -0.0508137 0)
(-0.000248292 -0.0487621 0)
(-0.0093328 -0.0340049 0)
(-0.020514 -0.00821149 0)
(-0.014886 0.0186116 0)
(-0.00468722 0.0363879 0)
(0.0125441 0.0385819 0)
(0.0289981 0.0176658 0)
(0.041513 -0.0217621 0)
(0.0302393 -0.0298749 0)
(0.0372643 -0.0346057 0)
(0.0341357 -0.0432449 0)
(0.0347683 -0.0457613 0)
(0.0174233 -0.044488 0)
(0.00621525 0.00208735 0)
(0.00719849 0.0490415 0)
(0.00982626 0.0583907 0)
(0.0162264 0.0355602 0)
(0.0124948 0.00623211 0)
(0.0131275 -0.0180231 0)
(0.0130319 -0.0458484 0)
(0.0058102 -0.0526567 0)
(-0.000697734 -0.0429591 0)
(-0.00308342 -0.0410595 0)
(-0.00138943 -0.0391449 0)
(-0.0021534 -0.0235464 0)
(0.00200895 -0.0290831 0)
(0.00491829 -0.0373132 0)
(0.0115115 -0.0391227 0)
(0.00875766 -0.0441046 0)
(-0.0026822 -0.0495239 0)
(-0.00708685 -0.0554703 0)
(-0.0162124 -0.0380403 0)
(-0.0228927 -0.0118839 0)
(-0.0188469 0.0219779 0)
(-0.00879065 0.037264 0)
(0.0109223 0.0351234 0)
(0.0306394 0.0174521 0)
(0.0485896 -0.0149798 0)
(0.0449719 -0.031931 0)
(0.0461093 -0.0393323 0)
(0.0442064 -0.0414339 0)
(0.0481513 -0.0445442 0)
(0.0291881 -0.0448002 0)
(0.00636623 0.00485837 0)
(0.00922284 0.0434089 0)
(0.0139828 0.0527131 0)
(0.0214933 0.032479 0)
(0.0217739 0.00502462 0)
(0.0192724 -0.0214937 0)
(0.00819764 -0.0453696 0)
(-0.00295687 -0.0440694 0)
(-0.0138834 -0.0331217 0)
(-0.0123139 -0.0323811 0)
(-0.00752509 -0.036452 0)
(-0.00649751 -0.0214611 0)
(0.00265527 -0.0266176 0)
(0.00848784 -0.0496856 0)
(0.0099488 -0.0459275 0)
(0.0106905 -0.039472 0)
(-0.00187894 -0.0467597 0)
(-0.00970892 -0.0585366 0)
(-0.0215616 -0.0512917 0)
(-0.0282751 -0.0214526 0)
(-0.0229803 0.0108841 0)
(-0.0128199 0.0236425 0)
(0.00909074 0.0198123 0)
(0.0316865 0.00203348 0)
(0.0485222 -0.0286629 0)
(0.0572027 -0.0466523 0)
(0.058378 -0.0546949 0)
(0.0522926 -0.048092 0)
(0.051821 -0.0500244 0)
(0.0361458 -0.0371782 0)
(0.00911938 0.00277759 0)
(0.0173688 0.0312644 0)
(0.021862 0.034901 0)
(0.0337445 0.020751 0)
(0.0327767 -0.0103935 0)
(0.0209303 -0.038232 0)
(0.000643388 -0.0472759 0)
(-0.0122044 -0.0365471 0)
(-0.0231696 -0.0322363 0)
(-0.019261 -0.0374736 0)
(-0.0130252 -0.037158 0)
(-0.0103416 -0.0225624 0)
(0.00254749 -0.0185876 0)
(0.0120012 -0.0454026 0)
(0.00872902 -0.0603538 0)
(0.00353034 -0.0569936 0)
(-0.00956316 -0.0605211 0)
(-0.023327 -0.0737477 0)
(-0.0363198 -0.0703971 0)
(-0.0377833 -0.0463938 0)
(-0.0252801 -0.0191298 0)
(-0.0110001 -0.0106723 0)
(0.0107079 -0.0171384 0)
(0.0295103 -0.0337125 0)
(0.0493492 -0.0655533 0)
(0.0568128 -0.076738 0)
(0.0599627 -0.0734644 0)
(0.0560344 -0.0618299 0)
(0.0497066 -0.0509344 0)
(0.0364428 -0.0329862 0)
(0.0182481 -0.000268779 0)
(0.0277438 0.0231219 0)
(0.0309406 0.0246057 0)
(0.042719 0.0060253 0)
(0.0353827 -0.0360157 0)
(0.0201383 -0.056439 0)
(0.00376224 -0.0574616 0)
(-0.0107012 -0.048447 0)
(-0.0206102 -0.0485378 0)
(-0.0227298 -0.0559093 0)
(-0.0201182 -0.0482482 0)
(-0.0158179 -0.0339457 0)
(0.00737161 -0.0216073 0)
(0.0115595 -0.0516671 0)
(0.00246829 -0.0760813 0)
(-0.00750174 -0.0800536 0)
(-0.0173274 -0.0810242 0)
(-0.0286055 -0.0792067 0)
(-0.0409867 -0.0808617 0)
(-0.0429982 -0.0819755 0)
(-0.0280935 -0.0620981 0)
(-0.0108347 -0.0501365 0)
(0.00876951 -0.0515487 0)
(0.0279593 -0.0698584 0)
(0.0404738 -0.0963563 0)
(0.0443744 -0.104432 0)
(0.0490692 -0.0914709 0)
(0.0475831 -0.0772289 0)
(0.0406126 -0.0504364 0)
(0.0316211 -0.030172 0)
(0.0193422 -0.00934927 0)
(0.026398 0.0133746 0)
(0.0376932 0.00449783 0)
(0.0335823 -0.0165905 0)
(0.0332941 -0.0355916 0)
(0.0201404 -0.0539631 0)
(0.0061716 -0.0594953 0)
(-0.00491514 -0.0684218 0)
(-0.0108587 -0.0779073 0)
(-0.0169052 -0.0824473 0)
(-0.0225048 -0.0725257 0)
(-0.0159094 -0.0581001 0)
(0.0130773 -0.0668068 0)
(0.00640289 -0.0866974 0)
(-0.009707 -0.0835556 0)
(-0.0183091 -0.0702579 0)
(-0.0235883 -0.0664884 0)
(-0.0295055 -0.0621253 0)
(-0.0339547 -0.0762184 0)
(-0.0377729 -0.0970748 0)
(-0.0363115 -0.0985373 0)
(-0.0194719 -0.0788496 0)
(0.000494198 -0.0697502 0)
(0.018151 -0.0823565 0)
(0.0298442 -0.108838 0)
(0.0369926 -0.114625 0)
(0.0453839 -0.101286 0)
(0.0412761 -0.0860331 0)
(0.031789 -0.0490362 0)
(0.0254584 -0.0235894 0)
(0.020089 -0.00893561 0)
(0.0258159 0.00189072 0)
(0.0286759 -0.00700913 0)
(0.0253089 -0.0188014 0)
(0.025067 -0.0320924 0)
(0.0147245 -0.0516857 0)
(0.0085301 -0.0620824 0)
(0.00485585 -0.0712302 0)
(0.00165729 -0.0827809 0)
(-0.00318863 -0.0953226 0)
(-0.0106815 -0.104551 0)
(-0.0133595 -0.0931674 0)
(0.00520392 -0.0900135 0)
(-0.00407015 -0.0916666 0)
(-0.00974115 -0.0758409 0)
(-0.0144322 -0.0631906 0)
(-0.0190613 -0.0584857 0)
(-0.020608 -0.0581687 0)
(-0.0225415 -0.0724408 0)
(-0.0272557 -0.0915212 0)
(-0.0333185 -0.101467 0)
(-0.0333918 -0.0996052 0)
(-0.0103409 -0.0876742 0)
(0.00992407 -0.0910715 0)
(0.0243777 -0.110948 0)
(0.0326489 -0.111003 0)
(0.0377734 -0.0988695 0)
(0.0313036 -0.0775732 0)
(0.0230187 -0.049666 0)
(0.0208905 -0.0204796 0)
(0.0229161 -0.010722 0)
(0.0239452 -0.0123629 0)
(0.0234521 -0.0128712 0)
(0.0212477 -0.0199198 0)
(0.0201764 -0.0292996 0)
(0.0143611 -0.0491448 0)
(0.0101705 -0.0649604 0)
(0.0101854 -0.0707664 0)
(0.00760116 -0.0806136 0)
(0.00457561 -0.0934814 0)
(0.00135747 -0.107785 0)
(-0.00697552 -0.109318 0)
(-1.37343e-05 -0.0880623 0)
(-0.00840935 -0.0845058 0)
(-0.010909 -0.0697045 0)
(-0.0153641 -0.0566083 0)
(-0.0153043 -0.0551607 0)
(-0.0112554 -0.0606142 0)
(-0.010957 -0.0709957 0)
(-0.0135548 -0.0866153 0)
(-0.0203329 -0.0971266 0)
(-0.026589 -0.0982282 0)
(-0.0187367 -0.0915841 0)
(0.00347335 -0.0927746 0)
(0.0155653 -0.107238 0)
(0.0215974 -0.106319 0)
(0.0262916 -0.0938175 0)
(0.0226453 -0.0662909 0)
(0.0139953 -0.043371 0)
(0.0187934 -0.0223878 0)
(0.0281373 -0.0126727 0)
(0.0255217 -0.019232 0)
(0.0198678 -0.0174737 0)
(0.0159571 -0.0226814 0)
(0.0144262 -0.0296728 0)
(0.0108683 -0.0512674 0)
(0.00497494 -0.0682559 0)
(0.00960683 -0.0677463 0)
(0.0126128 -0.0736726 0)
(0.00921688 -0.0873299 0)
(0.00512142 -0.0995364 0)
(-0.00061633 -0.10553 0)
(0.00028904 -0.0779366 0)
(-0.00656175 -0.0758983 0)
(-0.0127066 -0.062449 0)
(-0.0116903 -0.054109 0)
(-0.00439117 -0.0569838 0)
(0.000588759 -0.0646026 0)
(0.00200625 -0.0719171 0)
(-0.00339362 -0.084422 0)
(-0.0105483 -0.0930942 0)
(-0.014761 -0.0966521 0)
(-0.0194716 -0.0996039 0)
(-0.012778 -0.100089 0)
(0.0013701 -0.103775 0)
(0.010598 -0.0987918 0)
(0.0147704 -0.0837296 0)
(0.00831565 -0.0609897 0)
(0.00417329 -0.0384613 0)
(0.0152963 -0.0230916 0)
(0.0286758 -0.0165347 0)
(0.0300102 -0.0210147 0)
(0.0210721 -0.0206143 0)
(0.0143671 -0.022669 0)
(0.0125942 -0.0300487 0)
(0.0100277 -0.0466208 0)
(0.00570951 -0.0655175 0)
(0.00446573 -0.0698912 0)
(0.0114583 -0.0702359 0)
(0.0122274 -0.0794671 0)
(0.0037672 -0.0919988 0)
(0.0014882 -0.0969244 0)
(-0.0023283 -0.0725809 0)
(-0.00823197 -0.0642631 0)
(-0.01048 -0.0560361 0)
(-0.00109959 -0.0567874 0)
(0.00796996 -0.0636101 0)
(0.010384 -0.0683954 0)
(0.0124 -0.0746112 0)
(0.0104493 -0.0793358 0)
(-0.000109251 -0.0910088 0)
(-0.00757092 -0.0934814 0)
(-0.0131001 -0.0934606 0)
(-0.0161204 -0.0960339 0)
(-0.00958826 -0.101251 0)
(0.000986449 -0.0950536 0)
(0.00170648 -0.0730654 0)
(-0.00371826 -0.0571314 0)
(-0.00126958 -0.0364359 0)
(0.0119396 -0.0248397 0)
(0.0275777 -0.0207293 0)
(0.0328961 -0.0234614 0)
(0.0267095 -0.024383 0)
(0.0162229 -0.0255474 0)
(0.0151938 -0.0300285 0)
(0.0102194 -0.0408803 0)
(0.00675447 -0.0555829 0)
(-0.000987526 -0.0698878 0)
(0.00426282 -0.0692251 0)
(0.0120491 -0.0725509 0)
(0.00649436 -0.0791832 0)
(0.00306547 -0.0869598 0)
(-0.0104649 -0.0638903 0)
(-0.0036588 -0.0560619 0)
(-0.000680325 -0.0583338 0)
(0.0139972 -0.0646619 0)
(0.0194488 -0.0676208 0)
(0.0198249 -0.0710677 0)
(0.0186352 -0.077285 0)
(0.0198583 -0.0723713 0)
(0.00836415 -0.0868491 0)
(-0.000380366 -0.0935623 0)
(-0.00936042 -0.0912452 0)
(-0.0141588 -0.0922826 0)
(-0.0144763 -0.0966376 0)
(-0.00963107 -0.090846 0)
(-0.00725549 -0.0727329 0)
(-0.00911844 -0.0610233 0)
(-0.0025961 -0.0365972 0)
(0.0103382 -0.0271944 0)
(0.026479 -0.0252158 0)
(0.0324852 -0.0266051 0)
(0.0322276 -0.0272609 0)
(0.0247159 -0.0242502 0)
(0.018702 -0.0272319 0)
(0.00687003 -0.0344009 0)
(0.0089742 -0.0404975 0)
(0.00357773 -0.0595854 0)
(-0.00306675 -0.0717872 0)
(0.00472413 -0.0727625 0)
(0.00443404 -0.0693782 0)
(0.00709538 -0.0745799 0)
(-0.0138352 -0.0482068 0)
(-0.00583077 -0.0484229 0)
(0.00405787 -0.0621226 0)
(0.0170096 -0.0653316 0)
(0.021775 -0.0652359 0)
(0.0213588 -0.0678253 0)
(0.0205018 -0.0752077 0)
(0.0225829 -0.0698561 0)
(0.0148087 -0.0778118 0)
(0.00325636 -0.0899184 0)
(-0.00757499 -0.0887815 0)
(-0.0145443 -0.0889312 0)
(-0.0154195 -0.0902455 0)
(-0.0158418 -0.0910146 0)
(-0.0119139 -0.0751143 0)
(-0.0144736 -0.0665739 0)
(-0.00393717 -0.0380209 0)
(0.00935346 -0.0316676 0)
(0.023439 -0.0313948 0)
(0.0306267 -0.0284163 0)
(0.0313074 -0.0266615 0)
(0.0316967 -0.0235057 0)
(0.0225877 -0.0235886 0)
(0.0037938 -0.0263002 0)
(0.00757343 -0.0310895 0)
(0.00604629 -0.0441551 0)
(-0.00114757 -0.0626343 0)
(-0.00124077 -0.0727264 0)
(0.000388745 -0.0661997 0)
(0.00731859 -0.0598908 0)
(-0.00476591 -0.0300612 0)
(-0.000715577 -0.045794 0)
(0.00466455 -0.057128 0)
(0.0133218 -0.0607607 0)
(0.0170781 -0.0571782 0)
(0.0158622 -0.0615234 0)
(0.015616 -0.071498 0)
(0.0162657 -0.0732925 0)
(0.0140448 -0.0729423 0)
(0.00467831 -0.0872299 0)
(-0.0070301 -0.086806 0)
(-0.0156462 -0.0879685 0)
(-0.0174604 -0.086739 0)
(-0.0191308 -0.0896184 0)
(-0.0177577 -0.073994 0)
(-0.0143823 -0.0683001 0)
(-0.00507364 -0.0407387 0)
(0.00781843 -0.0379668 0)
(0.0192593 -0.0362018 0)
(0.0251613 -0.0298006 0)
(0.0269403 -0.0239237 0)
(0.0289023 -0.0189918 0)
(0.0267865 -0.0178529 0)
(0.00682021 -0.0174798 0)
(0.00601522 -0.0233851 0)
(0.0057278 -0.0350885 0)
(-0.00113032 -0.056046 0)
(-0.00210163 -0.070485 0)
(-0.00415626 -0.0702634 0)
(-0.000813112 -0.0514974 0)
(0.0034608 -0.0296267 0)
(0.00336673 -0.0440848 0)
(0.00636471 -0.0494433 0)
(0.0108488 -0.0488975 0)
(0.0128821 -0.0457343 0)
(0.0127107 -0.0515998 0)
(0.011423 -0.0625234 0)
(0.00817796 -0.0684443 0)
(0.00626882 -0.065286 0)
(8.56654e-06 -0.0812412 0)
(-0.00913124 -0.0841406 0)
(-0.0176197 -0.0858961 0)
(-0.0206922 -0.0856856 0)
(-0.0210536 -0.0897265 0)
(-0.022747 -0.0789781 0)
(-0.0144126 -0.0660968 0)
(-0.00688547 -0.043293 0)
(0.00500585 -0.0419028 0)
(0.013297 -0.0382314 0)
(0.0176058 -0.0293075 0)
(0.0219131 -0.0193041 0)
(0.0221163 -0.0125946 0)
(0.0258248 -0.0110766 0)
(0.00791769 -0.0129693 0)
(0.00456845 -0.0177314 0)
(0.00417368 -0.0288363 0)
(-0.000342745 -0.0490007 0)
(-0.00428559 -0.0695619 0)
(-0.00655454 -0.0741855 0)
(-0.00633339 -0.0600535 0)
(0.00843773 -0.0339768 0)
(0.00686822 -0.047009 0)
(0.00757004 -0.0458793 0)
(0.0104322 -0.0417134 0)
(0.0129593 -0.038555 0)
(0.0131583 -0.04304 0)
(0.0112384 -0.0501927 0)
(0.00244633 -0.0619453 0)
(-0.00291934 -0.0636748 0)
(-0.00659323 -0.0784132 0)
(-0.0119359 -0.0885844 0)
(-0.0212313 -0.0838425 0)
(-0.0247029 -0.0852073 0)
(-0.0260313 -0.0908506 0)
(-0.0286554 -0.0829025 0)
(-0.020146 -0.0618162 0)
(-0.0109548 -0.0431576 0)
(-0.000318712 -0.0444168 0)
(0.00696126 -0.0390287 0)
(0.0093225 -0.0303439 0)
(0.0124073 -0.0262769 0)
(0.0147763 -0.00971526 0)
(0.0174541 -0.00379971 0)
(0.00858845 -0.00460978 0)
(0.00281867 -0.0132439 0)
(0.00107643 -0.024941 0)
(-0.00286387 -0.04678 0)
(-0.00833788 -0.0701696 0)
(-0.0080002 -0.0792034 0)
(-0.00891686 -0.0658745 0)
(0.0103355 -0.0453392 0)
(0.0087537 -0.0521359 0)
(0.00965579 -0.0438046 0)
(0.0116546 -0.0370548 0)
(0.0118349 -0.0335549 0)
(0.0123427 -0.0365324 0)
(0.00836298 -0.0443632 0)
(-0.000267973 -0.0542059 0)
(-0.00908876 -0.0626068 0)
(-0.0135989 -0.0748115 0)
(-0.0142958 -0.0914233 0)
(-0.0235466 -0.0941314 0)
(-0.0294987 -0.0831042 0)
(-0.0301378 -0.0870874 0)
(-0.0330363 -0.0815863 0)
(-0.0296986 -0.0634605 0)
(-0.0163956 -0.0485469 0)
(-0.00415147 -0.0497469 0)
(0.00329237 -0.0487409 0)
(0.00295811 -0.0494006 0)
(0.00316515 -0.0250369 0)
(0.00899132 -0.000596855 0)
(0.0114215 0.00712562 0)
(0.0143701 0.00592685 0)
(0.00516361 -0.00410938 0)
(-0.000190238 -0.0200075 0)
(-0.00487839 -0.0432662 0)
(-0.00948554 -0.0690026 0)
(-0.00896127 -0.082377 0)
(-0.0102187 -0.0735598 0)
(0.0103588 -0.0545691 0)
(0.00899227 -0.0529446 0)
(0.0101358 -0.0400661 0)
(0.010075 -0.0326798 0)
(0.0094203 -0.0300192 0)
(0.0109539 -0.0298989 0)
(0.00463921 -0.0332792 0)
(-0.00600056 -0.043441 0)
(-0.0170292 -0.0565484 0)
(-0.0203217 -0.0712167 0)
(-0.0183711 -0.0896026 0)
(-0.0238174 -0.0964438 0)
(-0.0332981 -0.0927312 0)
(-0.0354999 -0.0832324 0)
(-0.0363473 -0.0772283 0)
(-0.0318262 -0.0645285 0)
(-0.022161 -0.0577353 0)
(-0.00700167 -0.0659009 0)
(-0.00405722 -0.0754431 0)
(-0.00644084 -0.0549962 0)
(-0.00207007 -0.0187562 0)
(0.00444613 0.0119738 0)
(0.00785288 0.0235747 0)
(0.0139825 0.0192448 0)
(0.0161525 0.00843974 0)
(0.00339349 -0.0100019 0)
(-0.00518851 -0.0388625 0)
(-0.00827398 -0.0668673 0)
(-0.00880832 -0.0847834 0)
(-0.0109487 -0.0799061 0)
(0.011167 -0.0610492 0)
(0.00971285 -0.0532135 0)
(0.0099591 -0.0399099 0)
(0.00800586 -0.0292091 0)
(0.00449429 -0.0256785 0)
(0.00369431 -0.0202516 0)
(-0.00189177 -0.0189583 0)
(-0.0125229 -0.0296049 0)
(-0.0215866 -0.0486275 0)
(-0.0256784 -0.0639544 0)
(-0.0217347 -0.086194 0)
(-0.0258286 -0.0912309 0)
(-0.0344551 -0.0895817 0)
(-0.0393036 -0.082315 0)
(-0.038814 -0.0740416 0)
(-0.0326696 -0.0636897 0)
(-0.0224153 -0.0670222 0)
(-0.018041 -0.112503 0)
(-0.0196183 -0.0947201 0)
(-0.0153483 -0.0554703 0)
(-0.00940849 -0.0142064 0)
(5.14574e-05 0.022174 0)
(0.00326022 0.0368209 0)
(0.0124519 0.0343942 0)
(0.0202554 0.0201915 0)
(0.0153233 0.00323207 0)
(0.000681389 -0.0313174 0)
(-0.0080213 -0.0668582 0)
(-0.00878755 -0.0858568 0)
(-0.0102678 -0.0857514 0)
(0.0136652 -0.0697612 0)
(0.00992601 -0.0570613 0)
(0.00999067 -0.0406934 0)
(0.00924278 -0.0251581 0)
(-0.00136991 -0.0191544 0)
(-0.00735737 -0.0135558 0)
(-0.010182 -0.0130458 0)
(-0.0151757 -0.0259125 0)
(-0.0297549 -0.050213 0)
(-0.0317729 -0.060824 0)
(-0.025395 -0.0828999 0)
(-0.028742 -0.0856912 0)
(-0.036476 -0.0845215 0)
(-0.0410067 -0.078864 0)
(-0.0411503 -0.0724308 0)
(-0.034474 -0.0660159 0)
(-0.0256264 -0.0864855 0)
(-0.0276901 -0.126698 0)
(-0.0338492 -0.103525 0)
(-0.0265741 -0.0600412 0)
(-0.0198059 -0.0120001 0)
(-0.0087431 0.0282419 0)
(-0.00221164 0.0471119 0)
(0.0112835 0.0458592 0)
(0.0200228 0.0355637 0)
(0.01918 0.0116037 0)
(0.014836 -0.0192166 0)
(-0.00696688 -0.0604843 0)
(-0.00982023 -0.0819608 0)
(-0.00967944 -0.0906708 0)
(0.0129084 -0.0802578 0)
(0.00853378 -0.0609271 0)
(0.00893165 -0.0394135 0)
(0.00650988 -0.0153063 0)
(-0.00942705 -0.00751735 0)
(-0.010393 -0.00545493 0)
(-0.0110025 -0.0259847 0)
(-0.0160678 -0.0615 0)
(-0.0331225 -0.0884482 0)
(-0.038299 -0.0845634 0)
(-0.0346575 -0.0863358 0)
(-0.0312103 -0.0806908 0)
(-0.0379231 -0.0789431 0)
(-0.0421886 -0.0747341 0)
(-0.0421356 -0.0701758 0)
(-0.0362331 -0.0674749 0)
(-0.0275484 -0.0998865 0)
(-0.0364498 -0.140372 0)
(-0.0451521 -0.104271 0)
(-0.0361547 -0.0692455 0)
(-0.0296286 -0.0140332 0)
(-0.0175547 0.0279123 0)
(-0.00596611 0.0478105 0)
(0.0118001 0.0562817 0)
(0.0209221 0.0510955 0)
(0.0180072 0.0213521 0)
(0.00433318 -0.0238694 0)
(-0.00909765 -0.0572184 0)
(-0.00929257 -0.0788888 0)
(-0.00881254 -0.0915277 0)
(0.00665718 -0.095479 0)
(0.00730223 -0.0644045 0)
(0.00425815 -0.0351559 0)
(0.00135726 -0.00443018 0)
(-0.00671354 -0.00165934 0)
(-0.00485002 -0.0209162 0)
(-0.0180404 -0.0510846 0)
(-0.0150859 -0.0971752 0)
(-0.02053 -0.124856 0)
(-0.0332997 -0.117368 0)
(-0.0353703 -0.0958053 0)
(-0.0296796 -0.0786526 0)
(-0.03576 -0.0749855 0)
(-0.0404074 -0.0707941 0)
(-0.0415212 -0.0674093 0)
(-0.0376922 -0.0682042 0)
(-0.0291653 -0.105706 0)
(-0.0434474 -0.14763 0)
(-0.0510805 -0.0996951 0)
(-0.0423902 -0.0679846 0)
(-0.0364207 -0.0135653 0)
(-0.0216515 0.0262379 0)
(-0.0104758 0.0473327 0)
(0.00880816 0.0580974 0)
(0.0189367 0.0533279 0)
(0.010563 0.0189771 0)
(-0.00873565 -0.0289436 0)
(-0.0101921 -0.0541412 0)
(-0.00960041 -0.0815549 0)
(-0.00892923 -0.0968386 0)
(-0.000476994 -0.10334 0)
(0.00105941 -0.067257 0)
(-0.00757419 -0.0261257 0)
(-0.0137698 -0.00937327 0)
(-0.0118112 -0.0278479 0)
(-0.00815477 -0.0625967 0)
(-0.00814866 -0.107738 0)
(-0.00487259 -0.148185 0)
(-0.00258079 -0.16894 0)
(-0.0146382 -0.14728 0)
(-0.0262123 -0.0978593 0)
(-0.0235262 -0.0743874 0)
(-0.0291195 -0.0706112 0)
(-0.0349915 -0.0673833 0)
(-0.0370247 -0.0655693 0)
(-0.0360387 -0.0683512 0)
(-0.0262577 -0.113923 0)
(-0.0474226 -0.15404 0)
(-0.0589635 -0.101153 0)
(-0.0526704 -0.0694138 0)
(-0.0415706 -0.0202799 0)
(-0.0264836 0.0259108 0)
(-0.0142843 0.0471725 0)
(0.00588823 0.0564695 0)
(0.0214464 0.0549269 0)
(0.0166807 0.0275375 0)
(-0.00436779 -0.0201078 0)
(-0.00751926 -0.0513604 0)