/*--------------------------------*- C++ -*----------------------------------*\
| =========                 |                                                 |
| \\      /  F ield         | OpenFOAM: The Open Source CFD Toolbox           |
|  \\    /   O peration     | Version:  v1606+                                |
|   \\  /    A nd           | Web:      www.OpenFOAM.com                      |
|    \\/     M anipulation  |                                                 |
\*---------------------------------------------------------------------------*/
FoamFile
{
    version     2.0;
    format      ascii;
    class       volVectorField;
    location    "1.35";
    object      Ur;
}
// * * * * * * * * * * * * * * * * * * * * * * * * * * * * * * * * * * * * * //

dimensions      [0 1 -1 0 0 0 0];

internalField   nonuniform List<vector> 
6000
(
(-0.0232431 -0.547496 0)
(-0.0610286 -0.554967 0)
(-0.0770681 -0.547044 0)
(-0.0985134 -0.546115 0)
(-0.084632 -0.575171 0)
(-0.0454257 -0.640583 0)
(-0.0324347 -0.665537 0)
(-0.0418575 -0.671324 0)
(-0.0409273 -0.715179 0)
(-0.0188073 -0.75571 0)
(0.0172194 -0.730451 0)
(0.0394984 -0.688447 0)
(0.0330082 -0.670723 0)
(0.0140503 -0.671535 0)
(-0.00171566 -0.67266 0)
(-0.0113849 -0.676103 0)
(-0.011777 -0.683706 0)
(0.00124483 -0.705472 0)
(0.0271812 -0.736531 0)
(0.0415323 -0.692253 0)
(0.036874 -0.668331 0)
(0.0361388 -0.650966 0)
(0.0530531 -0.63562 0)
(0.0825465 -0.572638 0)
(0.0833545 -0.524572 0)
(0.049863 -0.514412 0)
(0.0132591 -0.520203 0)
(-0.0105275 -0.533976 0)
(-0.00557594 -0.55185 0)
(-0.00421832 -0.560334 0)
(0.00209317 -0.85474 0)
(-0.00231901 -0.843773 0)
(-0.0264121 -0.816778 0)
(-0.0601449 -0.830024 0)
(-0.0841682 -0.891317 0)
(-0.0986616 -0.933652 0)
(-0.088726 -0.972542 0)
(-0.0455693 -0.985795 0)
(0.00208754 -1.00098 0)
(0.0277325 -1.00497 0)
(0.0309294 -0.983253 0)
(0.0281249 -0.955014 0)
(0.0240733 -0.936004 0)
(0.0127458 -0.925502 0)
(-0.00773584 -0.929357 0)
(-0.0241117 -0.940156 0)
(-0.0291506 -0.954354 0)
(-0.0200886 -0.980149 0)
(-0.00824057 -1.01039 0)
(0.0182368 -1.0075 0)
(0.0687354 -1.00061 0)
(0.108876 -0.970091 0)
(0.126106 -0.934035 0)
(0.113383 -0.86852 0)
(0.0565055 -0.78276 0)
(-0.01827 -0.77523 0)
(-0.065556 -0.805326 0)
(-0.076253 -0.859532 0)
(-0.0606732 -0.918103 0)
(-0.0233529 -0.951538 0)
(0.0382507 -0.845104 0)
(0.0735065 -0.792627 0)
(0.0643788 -0.712327 0)
(0.0388421 -0.668383 0)
(-0.012878 -0.698772 0)
(-0.0711336 -0.733745 0)
(-0.0851711 -0.804753 0)
(-0.0455343 -0.838394 0)
(0.000102828 -0.85736 0)
(0.0350708 -0.846763 0)
(0.0570564 -0.817594 0)
(0.0567287 -0.76995 0)
(0.0383482 -0.732041 0)
(0.0130196 -0.716778 0)
(-0.0149038 -0.717295 0)
(-0.040753 -0.732468 0)
(-0.0548425 -0.761213 0)
(-0.0489193 -0.797235 0)
(-0.0243423 -0.822842 0)
(0.0159245 -0.837134 0)
(0.0727163 -0.846268 0)
(0.115965 -0.800613 0)
(0.117271 -0.734892 0)
(0.058252 -0.635903 0)
(-0.0348486 -0.563816 0)
(-0.112501 -0.621579 0)
(-0.14981 -0.75617 0)
(-0.134188 -0.872394 0)
(-0.0894444 -0.95962 0)
(-0.0323727 -0.991404 0)
(0.0491452 -1.08492 0)
(0.128823 -1.01559 0)
(0.185185 -0.9047 0)
(0.185639 -0.75885 0)
(0.133945 -0.687057 0)
(0.0595391 -0.66718 0)
(-0.0167796 -0.794074 0)
(-0.0234792 -0.883128 0)
(0.026431 -0.882015 0)
(0.0767033 -0.844512 0)
(0.105198 -0.789551 0)
(0.0907175 -0.720791 0)
(0.0456034 -0.680473 0)
(0.00452282 -0.679282 0)
(-0.0251468 -0.681244 0)
(-0.0527275 -0.695919 0)
(-0.0747492 -0.729842 0)
(-0.077705 -0.780413 0)
(-0.0569923 -0.812348 0)
(-0.0161436 -0.849718 0)
(0.0351101 -0.878924 0)
(0.0546631 -0.806742 0)
(0.0118444 -0.685087 0)
(-0.0716736 -0.579747 0)
(-0.155231 -0.568901 0)
(-0.21858 -0.706488 0)
(-0.221996 -0.91971 0)
(-0.156979 -1.06197 0)
(-0.0750948 -1.14227 0)
(-0.018286 -1.14883 0)
(0.0287735 -1.21815 0)
(0.105753 -1.14796 0)
(0.21586 -1.06248 0)
(0.289567 -0.874947 0)
(0.267987 -0.724201 0)
(0.194191 -0.605054 0)
(0.111399 -0.674936 0)
(0.0440307 -0.839126 0)
(0.0646051 -0.865652 0)
(0.111627 -0.813203 0)
(0.11712 -0.71508 0)
(0.0766549 -0.618963 0)
(0.027213 -0.588775 0)
(-0.00890796 -0.608175 0)
(-0.028017 -0.616833 0)
(-0.0420686 -0.625648 0)
(-0.0605431 -0.653262 0)
(-0.0752065 -0.715289 0)
(-0.072489 -0.763102 0)
(-0.05351 -0.816747 0)
(-0.0350725 -0.844697 0)
(-0.0459331 -0.74527 0)
(-0.096003 -0.601574 0)
(-0.171075 -0.543651 0)
(-0.265646 -0.580508 0)
(-0.27551 -0.799008 0)
(-0.162801 -1.04961 0)
(-0.0561228 -1.16626 0)
(-0.0133828 -1.20249 0)
(-0.00154239 -1.18446 0)
(-0.00435289 -1.2283 0)
(0.0138956 -1.23403 0)
(0.0820552 -1.21269 0)
(0.214135 -1.03614 0)
(0.328634 -0.821606 0)
(0.336124 -0.669365 0)
(0.234682 -0.601585 0)
(0.1391 -0.765009 0)
(0.0934682 -0.831965 0)
(0.0802639 -0.766485 0)
(0.048915 -0.649749 0)
(0.0164812 -0.577567 0)
(-0.000958285 -0.570109 0)
(-0.0155174 -0.597413 0)
(-0.0257326 -0.612749 0)
(-0.0281516 -0.62387 0)
(-0.0291777 -0.646124 0)
(-0.0353513 -0.695606 0)
(-0.0429986 -0.740722 0)
(-0.0510746 -0.786769 0)
(-0.0811323 -0.800624 0)
(-0.124194 -0.714202 0)
(-0.159666 -0.601556 0)
(-0.212797 -0.586045 0)
(-0.247302 -0.609812 0)
(-0.171663 -0.958713 0)
(-3.05831e-05 -1.14654 0)
(0.0613677 -1.12037 0)
(0.0460633 -1.09518 0)
(0.0149611 -1.07391 0)
(-0.0171044 -1.10434 0)
(-0.0473324 -1.12014 0)
(-0.06338 -1.14874 0)
(0.0166385 -1.16628 0)
(0.228919 -0.999247 0)
(0.334743 -0.725843 0)
(0.290982 -0.59757 0)
(0.188287 -0.704708 0)
(0.0931129 -0.774051 0)
(0.0178294 -0.725564 0)
(-0.0249489 -0.646011 0)
(-0.0349677 -0.625497 0)
(-0.0273495 -0.645965 0)
(-0.0268337 -0.671448 0)
(-0.0350331 -0.69142 0)
(-0.0373449 -0.715598 0)
(-0.0303364 -0.748582 0)
(-0.0251396 -0.793415 0)
(-0.0249457 -0.832453 0)
(-0.0299898 -0.854894 0)
(-0.0599452 -0.828625 0)
(-0.110223 -0.740072 0)
(-0.151221 -0.667446 0)
(-0.182978 -0.668947 0)
(-0.0731298 -0.771433 0)
(0.120119 -1.06364 0)
(0.161937 -1.09865 0)
(0.119004 -1.0363 0)
(0.0728737 -1.00213 0)
(0.0246557 -0.985319 0)
(-0.0251441 -1.01363 0)
(-0.0731921 -1.0303 0)
(-0.112305 -1.06481 0)
(-0.129592 -1.12515 0)
(-0.0507949 -1.11232 0)
(0.138789 -0.872652 0)
(0.215184 -0.605862 0)
(0.156913 -0.679917 0)
(0.0667146 -0.741212 0)
(-0.0129297 -0.748231 0)
(-0.0573929 -0.755372 0)
(-0.0672924 -0.794831 0)
(-0.0567461 -0.841849 0)
(-0.0522611 -0.875209 0)
(-0.0633822 -0.905791 0)
(-0.0761306 -0.944789 0)
(-0.0800091 -0.990243 0)
(-0.0764278 -1.0391 0)
(-0.0537514 -1.08883 0)
(-0.00133224 -1.09897 0)
(0.0287481 -1.01466 0)
(-0.0207488 -0.870633 0)
(-0.120989 -0.787639 0)
(-0.0916719 -0.845942 0)
(0.204413 -1.11805 0)
(0.407271 -1.10712 0)
(0.326497 -0.976685 0)
(0.208124 -0.908808 0)
(0.112281 -0.887389 0)
(0.0363242 -0.876227 0)
(-0.0355261 -0.903452 0)
(-0.106022 -0.923444 0)
(-0.181502 -0.959167 0)
(-0.266008 -1.03105 0)
(-0.30858 -1.12871 0)
(-0.169125 -1.08938 0)
(0.0377511 -0.734537 0)
(0.0824979 -0.735861 0)
(0.00737917 -0.828578 0)
(-0.0690867 -0.909655 0)
(-0.125273 -0.969986 0)
(-0.139812 -1.02681 0)
(-0.112218 -1.06163 0)
(-0.0935916 -1.06945 0)
(-0.0924199 -1.08044 0)
(-0.0879236 -1.1032 0)
(-0.0783261 -1.13088 0)
(-0.0614706 -1.16777 0)
(-0.0284706 -1.22472 0)
(0.0293261 -1.23852 0)
(0.0756022 -1.11593 0)
(0.0571136 -0.941888 0)
(0.00742618 -0.858752 0)
(0.144504 -1.08383 0)
(0.486911 -1.41 0)
(0.562391 -1.0976 0)
(0.421628 -0.826226 0)
(0.264436 -0.748756 0)
(0.139967 -0.752629 0)
(0.0451123 -0.749664 0)
(-0.0395939 -0.784731 0)
(-0.122487 -0.798561 0)
(-0.227041 -0.813453 0)
(-0.361454 -0.885188 0)
(-0.4881 -1.10888 0)
(-0.444474 -1.30664 0)
(-0.170809 -1.0341 0)
(-0.0415528 -0.831849 0)
(-0.0752541 -0.924999 0)
(-0.0714923 -1.00822 0)
(-0.0770228 -1.04622 0)
(-0.0867646 -1.10357 0)
(-0.080464 -1.15749 0)
(-0.0890015 -1.16998 0)
(-0.115906 -1.21578 0)
(-0.118863 -1.26375 0)
(-0.0838341 -1.31784 0)
(-0.0185984 -1.3891 0)
(0.0466599 -1.46465 0)
(0.109304 -1.45856 0)
(0.160398 -1.28366 0)
(0.187955 -1.06058 0)
(0.238352 -1.0338 0)
(0.415476 -1.40391 0)
(0.584802 -1.56102 0)
(0.557123 -1.03231 0)
(0.45251 -0.692558 0)
(0.287745 -0.614501 0)
(0.155582 -0.640101 0)
(0.0514038 -0.639348 0)
(-0.0434633 -0.690249 0)
(-0.134778 -0.696376 0)
(-0.256868 -0.687213 0)
(-0.426469 -0.759165 0)
(-0.584453 -1.04702 0)
(-0.593457 -1.41099 0)
(-0.377316 -1.3562 0)
(-0.13875 -0.951394 0)
(-0.0178319 -1.08456 0)
(0.0813544 -1.1868 0)
(0.096978 -1.17462 0)
(0.0692789 -1.18461 0)
(0.0271946 -1.20633 0)
(-0.0163155 -1.12146 0)
(-0.0475351 -1.13993 0)
(-0.0580402 -1.17789 0)
(-0.0096544 -1.25777 0)
(0.0770536 -1.29959 0)
(0.13737 -1.31055 0)
(0.177674 -1.26116 0)
(0.203034 -1.13841 0)
(0.238969 -1.02754 0)
(0.325657 -1.10262 0)
(0.390291 -1.35322 0)
(0.402625 -1.4584 0)
(0.451145 -0.986971 0)
(0.423218 -0.570377 0)
(0.294492 -0.488835 0)
(0.163742 -0.53706 0)
(0.0549378 -0.532158 0)
(-0.0496005 -0.598404 0)
(-0.153909 -0.597733 0)
(-0.290233 -0.563927 0)
(-0.465972 -0.613808 0)
(-0.587619 -0.931111 0)
(-0.606484 -1.50712 0)
(-0.399755 -1.55302 0)
(-0.116034 -1.2635 0)
(0.18016 -1.18473 0)
(0.268161 -1.05118 0)
(0.215833 -0.916805 0)
(0.149787 -0.90346 0)
(0.0731679 -0.887863 0)
(0.0317333 -0.903884 0)
(0.0120827 -0.949216 0)
(-0.00799787 -1.02742 0)
(0.0213652 -1.17186 0)
(0.0912065 -1.21453 0)
(0.165784 -1.2136 0)
(0.20745 -1.15712 0)
(0.185431 -1.01271 0)
(0.172614 -0.931478 0)
(0.208036 -1.02841 0)
(0.218034 -1.2132 0)
(0.196569 -1.30707 0)
(0.31299 -1.05818 0)
(0.337536 -0.494733 0)
(0.262595 -0.364292 0)
(0.148163 -0.433682 0)
(0.0488641 -0.42576 0)
(-0.050699 -0.491837 0)
(-0.15555 -0.48685 0)
(-0.280992 -0.418732 0)
(-0.42136 -0.445233 0)
(-0.519949 -0.869081 0)
(-0.396269 -1.44204 0)
(-0.213201 -1.53567 0)
(-0.00447934 -1.32755 0)
(0.177351 -1.14006 0)
(0.194361 -0.926282 0)
(0.168599 -0.79512 0)
(0.143245 -0.820987 0)
(0.0779126 -0.840387 0)
(0.0380634 -0.890429 0)
(0.0249251 -0.88757 0)
(0.0204578 -0.995585 0)
(0.0301956 -1.18138 0)
(0.0940928 -1.24155 0)
(0.175554 -1.2261 0)
(0.192196 -1.13997 0)
(0.148274 -0.957404 0)
(0.114894 -0.869344 0)
(0.0955976 -0.967835 0)
(0.0795291 -1.14468 0)
(0.0804173 -1.21534 0)
(0.149069 -1.0444 0)
(0.216895 -0.479154 0)
(0.188519 -0.266025 0)
(0.110843 -0.339655 0)
(0.0361227 -0.334912 0)
(-0.0437003 -0.384101 0)
(-0.124125 -0.380415 0)
(-0.204731 -0.288099 0)
(-0.281221 -0.292887 0)
(-0.375475 -0.870556 0)
(-0.212579 -1.45747 0)
(-0.0546194 -1.50907 0)
(0.0411516 -1.3637 0)
(0.102681 -1.15009 0)
(0.112867 -0.897592 0)
(0.145295 -0.797612 0)
(0.123769 -0.71884 0)
(0.06337 -0.73362 0)
(0.0142631 -0.805059 0)
(0.00477445 -0.901552 0)
(0.0247193 -0.969759 0)
(0.043391 -1.1709 0)
(0.0997874 -1.2595 0)
(0.15534 -1.23432 0)
(0.158186 -1.07876 0)
(0.131742 -0.871148 0)
(0.0954526 -0.825151 0)
(0.0376967 -0.873039 0)
(0.00452816 -1.07525 0)
(0.000566187 -1.14222 0)
(0.0461839 -1.04395 0)
(0.116834 -0.518322 0)
(0.11149 -0.205793 0)
(0.068749 -0.266905 0)
(0.0223572 -0.269041 0)
(-0.0313078 -0.293505 0)
(-0.0790089 -0.302173 0)
(-0.114018 -0.204994 0)
(-0.144849 -0.203216 0)
(-0.198027 -0.822621 0)
(-0.100955 -1.45704 0)
(0.0184342 -1.51394 0)
(0.0550996 -1.37729 0)
(0.0604294 -1.11406 0)
(0.0662748 -0.843717 0)
(0.0762331 -0.739306 0)
(0.0564693 -0.64131 0)
(0.0225737 -0.661807 0)
(-0.0066889 -0.744665 0)
(-0.0108004 -0.874738 0)
(0.0212235 -0.963203 0)
(0.0622177 -1.16735 0)
(0.101077 -1.2711 0)
(0.139548 -1.2194 0)
(0.145165 -1.0219 0)
(0.141311 -0.844059 0)
(0.0833549 -0.699444 0)
(0.0151743 -0.819334 0)
(-0.0412717 -0.980077 0)
(-0.0687622 -1.08708 0)
(-0.0240713 -1.01656 0)
(0.0321549 -0.559538 0)
(0.0459932 -0.178292 0)
(0.0289653 -0.214195 0)
(0.00763801 -0.226139 0)
(-0.0171827 -0.225375 0)
(-0.0395961 -0.248152 0)
(-0.0501959 -0.161186 0)
(-0.0622242 -0.166819 0)
(-0.0953495 -0.837163 0)
(-0.0362433 -1.44321 0)
(0.0524263 -1.49681 0)
(0.054537 -1.32761 0)
(0.0301041 -1.04462 0)
(0.0232347 -0.791771 0)
(0.017916 -0.683062 0)
(-0.0034882 -0.575669 0)
(-0.0266783 -0.601207 0)
(-0.0421508 -0.700076 0)
(-0.0308035 -0.866964 0)
(0.0214009 -0.979635 0)
(0.0807213 -1.17174 0)
(0.111 -1.25827 0)
(0.123153 -1.1872 0)
(0.145102 -0.971646 0)
(0.144341 -0.751768 0)
(0.0811049 -0.581709 0)
(0.00873623 -0.689418 0)
(-0.0606301 -0.857577 0)
(-0.107156 -1.01529 0)
(-0.0837786 -0.969255 0)
(-0.0327987 -0.58076 0)
(-0.00721279 -0.182308 0)
(-0.00725629 -0.180151 0)
(-0.00496312 -0.201503 0)
(-0.00441027 -0.179284 0)
(-0.00553101 -0.204056 0)
(-0.00139844 -0.136347 0)
(-0.00318378 -0.163022 0)
(-0.0218593 -0.824521 0)
(0.00877335 -1.40366 0)
(0.0549412 -1.45481 0)
(0.0331619 -1.23704 0)
(-0.0115257 -0.954516 0)
(-0.0208661 -0.725886 0)
(-0.0332613 -0.610955 0)
(-0.0590801 -0.517317 0)
(-0.0739976 -0.55331 0)
(-0.0750714 -0.669272 0)
(-0.0509213 -0.868001 0)
(0.0215677 -1.01355 0)
(0.101294 -1.18147 0)
(0.129422 -1.23187 0)
(0.136258 -1.14773 0)
(0.161255 -0.985608 0)
(0.131889 -0.660469 0)
(0.0754872 -0.485217 0)
(0.0157888 -0.568374 0)
(-0.0605017 -0.778454 0)
(-0.119767 -0.897339 0)
(-0.153592 -0.967392 0)
(-0.105387 -0.613116 0)
(-0.0570852 -0.230533 0)
(-0.0335372 -0.167611 0)
(-0.0120083 -0.184926 0)
(0.00507966 -0.151368 0)
(0.0214216 -0.165471 0)
(0.036999 -0.121156 0)
(0.0455056 -0.197599 0)
(0.053194 -0.804926 0)
(0.0738859 -1.34346 0)
(0.0491579 -1.37323 0)
(0.00497934 -1.13051 0)
(-0.0422226 -0.855807 0)
(-0.0702495 -0.697112 0)
(-0.0909018 -0.535577 0)
(-0.10996 -0.469579 0)
(-0.111694 -0.519567 0)
(-0.0981482 -0.648123 0)
(-0.0675269 -0.872412 0)
(0.0247337 -1.06094 0)
(0.12291 -1.1879 0)
(0.148155 -1.19598 0)
(0.172831 -1.08952 0)
(0.168305 -0.891634 0)
(0.100356 -0.558894 0)
(0.0577697 -0.400985 0)
(0.0201331 -0.457627 0)
(-0.0476043 -0.626442 0)
(-0.13345 -0.802303 0)
(-0.209259 -0.863492 0)
(-0.192683 -0.667294 0)
(-0.103011 -0.336249 0)
(-0.0438192 -0.187374 0)
(-0.0147538 -0.180464 0)
(0.013568 -0.145946 0)
(0.0416055 -0.140698 0)
(0.0636351 -0.11524 0)
(0.0936294 -0.261219 0)
(0.130509 -0.798364 0)
(0.145801 -1.24811 0)
(0.0601697 -1.25381 0)
(-0.013209 -1.00531 0)
(-0.0623785 -0.741405 0)
(-0.110729 -0.592012 0)
(-0.144319 -0.467053 0)
(-0.148317 -0.440152 0)
(-0.131522 -0.501439 0)
(-0.101974 -0.63459 0)
(-0.06163 -0.87788 0)
(0.0331974 -1.1663 0)
(0.133485 -1.19505 0)
(0.180152 -1.16491 0)
(0.213639 -1.09103 0)
(0.148766 -0.761116 0)
(0.0615963 -0.446186 0)
(0.0180885 -0.325874 0)
(-0.00713414 -0.379785 0)
(-0.047999 -0.508016 0)
(-0.132987 -0.648946 0)
(-0.2383 -0.746498 0)
(-0.26157 -0.707736 0)
(-0.159561 -0.486611 0)
(-0.0563059 -0.288081 0)
(-0.0105632 -0.227068 0)
(0.023611 -0.169195 0)
(0.0639251 -0.158577 0)
(0.0924951 -0.15054 0)
(0.143261 -0.337263 0)
(0.206473 -0.836623 0)
(0.17516 -1.10067 0)
(0.0750651 -1.08374 0)
(-0.013165 -0.851066 0)
(-0.0900003 -0.657031 0)
(-0.145645 -0.491382 0)
(-0.170524 -0.420299 0)
(-0.159846 -0.427898 0)
(-0.125462 -0.495759 0)
(-0.0845322 -0.623556 0)
(-0.0377832 -0.880665 0)
(0.035883 -1.18972 0)
(0.130777 -1.19716 0)
(0.21771 -1.13081 0)
(0.210623 -0.966172 0)
(0.085687 -0.593212 0)
(-0.00740232 -0.346639 0)
(-0.0341976 -0.294277 0)
(-0.0312589 -0.346773 0)
(-0.0436388 -0.4316 0)
(-0.102197 -0.5243 0)
(-0.197931 -0.621593 0)
(-0.270797 -0.677573 0)
(-0.234874 -0.600489 0)
(-0.116623 -0.44791 0)
(-0.0249087 -0.329846 0)
(0.0285109 -0.207175 0)
(0.0928642 -0.236096 0)
(0.168062 -0.255585 0)
(0.237659 -0.406476 0)
(0.255276 -0.76584 0)
(0.17639 -0.947568 0)
(0.0862894 -0.975729 0)
(-0.0286202 -0.730316 0)
(-0.115239 -0.517906 0)
(-0.161033 -0.416887 0)
(-0.162255 -0.396541 0)
(-0.136728 -0.422955 0)
(-0.0934384 -0.496456 0)
(-0.0488005 -0.609194 0)
(-0.00350062 -0.883794 0)
(0.0636827 -1.2039 0)
(0.152852 -1.27396 0)
(0.218927 -1.13673 0)
(0.133217 -0.793971 0)
(-0.0145225 -0.449705 0)
(-0.0761623 -0.315285 0)
(-0.0675146 -0.308788 0)
(-0.0397573 -0.342759 0)
(-0.0331843 -0.388972 0)
(-0.0598163 -0.435889 0)
(-0.120683 -0.500104 0)
(-0.198153 -0.582939 0)
(-0.228024 -0.613116 0)
(-0.168714 -0.553321 0)
(-0.0593472 -0.460101 0)
(0.0276285 -0.248589 0)
(0.125846 -0.363728 0)
(0.248868 -0.393827 0)
(0.300762 -0.450105 0)
(0.25353 -0.648622 0)
(0.157949 -0.827912 0)
(0.0473583 -0.771787 0)
(-0.0693184 -0.576634 0)
(-0.129849 -0.442669 0)
(-0.14061 -0.391846 0)
(-0.119524 -0.390535 0)
(-0.0842233 -0.419094 0)
(-0.0416471 -0.493067 0)
(-0.0038201 -0.589398 0)
(0.0355573 -0.884969 0)
(0.102098 -1.20728 0)
(0.157913 -1.24596 0)
(0.134722 -1.0143 0)
(-0.00545798 -0.625071 0)
(-0.112875 -0.38869 0)
(-0.127156 -0.339106 0)
(-0.0884559 -0.344532 0)
(-0.0474494 -0.361418 0)
(-0.0240685 -0.38064 0)
(-0.0208496 -0.394007 0)
(-0.042043 -0.413765 0)
(-0.0899425 -0.468433 0)
(-0.139166 -0.548165 0)
(-0.131217 -0.567824 0)
(-0.0530712 -0.53295 0)
(0.0224991 -0.290237 0)
(0.108365 -0.452299 0)
(0.235437 -0.492442 0)
(0.278229 -0.475572 0)
(0.199236 -0.565073 0)
(0.0905905 -0.708345 0)
(-0.0170258 -0.657796 0)
(-0.0974873 -0.533432 0)
(-0.119193 -0.450208 0)
(-0.0966754 -0.411255 0)
(-0.0583965 -0.400148 0)
(-0.0203623 -0.417117 0)
(0.0134281 -0.48192 0)
(0.0398631 -0.570279 0)
(0.06921 -0.879052 0)
(0.115652 -1.20012 0)
(0.12473 -1.17958 0)
(0.0163131 -0.865196 0)
(-0.127923 -0.526102 0)
(-0.181344 -0.401128 0)
(-0.155509 -0.385834 0)
(-0.10229 -0.388329 0)
(-0.0557229 -0.393176 0)
(-0.0200365 -0.396314 0)
(0.00393067 -0.392073 0)
(0.0142087 -0.383842 0)
(0.00326658 -0.393467 0)
(-0.0335592 -0.453342 0)
(-0.0606226 -0.534858 0)
(-0.0306536 -0.565194 0)
(0.0185422 -0.323356 0)
(0.0681005 -0.463548 0)
(0.136817 -0.511517 0)
(0.166137 -0.488558 0)
(0.132996 -0.576312 0)
(0.0518732 -0.68748 0)
(-0.0501158 -0.645065 0)
(-0.101654 -0.563472 0)
(-0.0884358 -0.5001 0)
(-0.0452144 -0.456085 0)
(-0.000775615 -0.430349 0)
(0.035277 -0.428911 0)
(0.0606299 -0.473498 0)
(0.0780873 -0.558357 0)
(0.0944835 -0.863014 0)
(0.105977 -1.16806 0)
(0.0505275 -1.06895 0)
(-0.0984154 -0.737863 0)
(-0.20743 -0.508922 0)
(-0.215175 -0.451564 0)
(-0.16405 -0.442104 0)
(-0.109677 -0.438523 0)
(-0.0600161 -0.43571 0)
(-0.014117 -0.429689 0)
(0.0220716 -0.412683 0)
(0.0458236 -0.389623 0)
(0.057001 -0.374168 0)
(0.0448557 -0.393703 0)
(0.00887275 -0.470256 0)
(-0.00719111 -0.571445 0)
(0.0102409 -0.350538 0)
(0.0212609 -0.435569 0)
(0.0259814 -0.495984 0)
(0.0463464 -0.522885 0)
(0.0618986 -0.622898 0)
(0.0232319 -0.68777 0)
(-0.0410268 -0.651138 0)
(-0.0656224 -0.595164 0)
(-0.0437877 -0.548499 0)
(-0.00130077 -0.503752 0)
(0.0409939 -0.469322 0)
(0.0745646 -0.453744 0)
(0.0964026 -0.477719 0)
(0.107583 -0.55764 0)
(0.109603 -0.844612 0)
(0.0741033 -1.09877 0)
(-0.0425666 -0.953009 0)
(-0.18696 -0.675851 0)
(-0.247077 -0.547238 0)
(-0.216655 -0.514817 0)
(-0.164114 -0.500033 0)
(-0.116044 -0.492192 0)
(-0.0648186 -0.490188 0)
(-0.00304545 -0.491231 0)
(0.0494473 -0.46144 0)
(0.0762422 -0.417257 0)
(0.086236 -0.38119 0)
(0.0837255 -0.370673 0)
(0.0540135 -0.415525 0)
(0.0143144 -0.554803 0)
(-0.00987029 -0.37629 0)
(-0.0369742 -0.430938 0)
(-0.053411 -0.523156 0)
(-0.0232456 -0.59915 0)
(0.0153365 -0.665 0)
(0.0102306 -0.674832 0)
(-0.0176305 -0.634665 0)
(-0.0322565 -0.602873 0)
(-0.0130699 -0.586039 0)
(0.0342496 -0.551608 0)
(0.0753426 -0.504008 0)
(0.0975065 -0.475643 0)
(0.113214 -0.486397 0)
(0.119106 -0.558705 0)
(0.101951 -0.815093 0)
(0.0184083 -0.997491 0)
(-0.129644 -0.856625 0)
(-0.233695 -0.673992 0)
(-0.241967 -0.59842 0)
(-0.199933 -0.565431 0)
(-0.161362 -0.545959 0)
(-0.129806 -0.536165 0)
(-0.0892121 -0.541476 0)
(-0.00194121 -0.576836 0)
(0.0939629 -0.546449 0)
(0.130972 -0.469638 0)
(0.126431 -0.397173 0)
(0.106763 -0.357185 0)
(0.0716215 -0.369052 0)
(0.024709 -0.519151 0)
(-0.0351518 -0.393673 0)
(-0.120523 -0.464797 0)
(-0.162695 -0.637707 0)
(-0.0700027 -0.755799 0)
(0.032654 -0.693444 0)
(0.0351357 -0.632798 0)
(0.000249782 -0.599279 0)
(-0.0289545 -0.593982 0)
(-0.0112905 -0.619491 0)
(0.0661183 -0.616815 0)
(0.121115 -0.536678 0)
(0.119834 -0.484909 0)
(0.111357 -0.485506 0)
(0.100968 -0.545847 0)
(0.0548513 -0.760044 0)
(-0.053232 -0.882306 0)
(-0.174382 -0.797496 0)
(-0.220732 -0.691618 0)
(-0.202206 -0.623516 0)
(-0.17439 -0.583725 0)
(-0.152959 -0.563714 0)
(-0.135825 -0.564975 0)
(-0.10374 -0.621639 0)
(-0.0132867 -0.74063 0)
(0.11541 -0.725949 0)
(0.203778 -0.511089 0)
(0.204372 -0.405919 0)
(0.144864 -0.337662 0)
(0.0818203 -0.316382 0)
(0.0257309 -0.460544 0)
(-0.0841622 -0.402426 0)
(-0.244764 -0.538944 0)
(-0.296923 -0.85871 0)
(-0.146809 -1.02638 0)
(0.0256658 -0.800162 0)
(0.0459531 -0.638634 0)
(-0.00242245 -0.584058 0)
(-0.0440332 -0.61089 0)
(-0.0224075 -0.70529 0)
(0.0874123 -0.75073 0)
(0.176216 -0.570863 0)
(0.158792 -0.471915 0)
(0.104708 -0.459566 0)
(0.0541349 -0.509225 0)
(-0.0350739 -0.683481 0)
(-0.126561 -0.821235 0)
(-0.167436 -0.829007 0)
(-0.156638 -0.742532 0)
(-0.137345 -0.674106 0)
(-0.130542 -0.638567 0)
(-0.12008 -0.632159 0)
(-0.117014 -0.667295 0)
(-0.0973511 -0.860032 0)
(0.0201101 -1.21376 0)
(0.229593 -1.14444 0)
(0.279282 -0.595445 0)
(0.267516 -0.363834 0)
(0.206578 -0.302583 0)
(0.0974105 -0.263536 0)
(0.0213057 -0.387805 0)
(-0.135069 -0.389528 0)
(-0.396828 -0.598856 0)
(-0.577365 -1.19818 0)
(-0.459534 -1.56883 0)
(-0.200589 -1.30995 0)
(-0.0602483 -0.87104 0)
(-0.0588469 -0.684479 0)
(-0.0807965 -0.746512 0)
(-0.0193882 -0.977034 0)
(0.15083 -1.07111 0)
(0.21975 -0.672233 0)
(0.179103 -0.454868 0)
(0.102521 -0.37574 0)
(-0.0196875 -0.421184 0)
(-0.136378 -0.59485 0)
(-0.178785 -0.893919 0)
(-0.164469 -0.966124 0)
(-0.151056 -0.895935 0)
(-0.153097 -0.860458 0)
(-0.160849 -0.892629 0)
(-0.144038 -1.02685 0)
(-0.0671379 -1.19935 0)
(0.0789416 -1.48525 0)
(0.232452 -1.68431 0)
(0.379818 -1.57641 0)
(0.495917 -1.00659 0)
(0.348683 -0.343462 0)
(0.246514 -0.247582 0)
(0.112951 -0.222055 0)
(0.0142684 -0.311655 0)
(-0.154046 -0.347026 0)
(-0.398094 -0.558669 0)
(-0.555455 -1.09664 0)
(-0.601099 -1.44744 0)
(-0.592806 -1.52911 0)
(-0.421867 -1.33922 0)
(-0.296278 -1.16902 0)
(-0.203313 -1.22495 0)
(-0.0439402 -1.43931 0)
(0.154183 -1.51796 0)
(0.310415 -1.15522 0)
(0.268107 -0.564032 0)
(0.107942 -0.377405 0)
(-0.0694523 -0.371401 0)
(-0.218369 -0.617268 0)
(-0.352966 -1.33027 0)
(-0.282266 -1.43011 0)
(-0.225983 -1.39878 0)
(-0.169667 -1.3771 0)
(-0.0807456 -1.39071 0)
(0.0364968 -1.42792 0)
(0.178242 -1.45283 0)
(0.306762 -1.49613 0)
(0.350368 -1.54352 0)
(0.347378 -1.45611 0)
(0.515334 -1.15603 0)
(0.455127 -0.510827 0)
(0.28201 -0.175954 0)
(0.118883 -0.196398 0)
(0.0149344 -0.252614 0)
(-0.088804 -0.225488 0)
(-0.238325 -0.387889 0)
(-0.399699 -0.897345 0)
(-0.49336 -1.21723 0)
(-0.583488 -1.35204 0)
(-0.541033 -1.28782 0)
(-0.424909 -1.22235 0)
(-0.265979 -1.28592 0)
(-0.0953653 -1.46529 0)
(0.0224445 -1.50291 0)
(0.142635 -1.28601 0)
(0.204066 -0.960471 0)
(0.0927549 -0.686895 0)
(-0.0763723 -0.512725 0)
(-0.253025 -1.00844 0)
(-0.250003 -1.3305 0)
(-0.210722 -1.39426 0)
(-0.160902 -1.36241 0)
(-0.0851887 -1.33242 0)
(0.0142518 -1.3341 0)
(0.115011 -1.36303 0)
(0.207836 -1.40148 0)
(0.283246 -1.45273 0)
(0.30782 -1.47156 0)
(0.289963 -1.39197 0)
(0.391319 -1.15463 0)
(0.558484 -0.708939 0)
(0.280478 -0.163406 0)
(0.104394 -0.146669 0)
(0.0282247 -0.214098 0)
(-0.0595319 -0.119576 0)
(-0.161775 -0.262403 0)
(-0.278447 -0.723852 0)
(-0.370034 -1.03912 0)
(-0.469633 -1.20792 0)
(-0.478754 -1.25403 0)
(-0.40482 -1.2563 0)
(-0.264752 -1.35899 0)
(-0.136025 -1.50246 0)
(-0.0613041 -1.49526 0)
(-0.0128918 -1.23088 0)
(0.0201057 -0.908859 0)
(0.0139044 -0.733469 0)
(-0.0441086 -0.716824 0)
(-0.0950404 -0.934575 0)
(-0.107814 -1.16292 0)
(-0.118757 -1.26871 0)
(-0.0994078 -1.29814 0)
(-0.0494105 -1.31586 0)
(0.0199717 -1.35471 0)
(0.0917686 -1.39785 0)
(0.158188 -1.43682 0)
(0.20767 -1.4575 0)
(0.225248 -1.43777 0)
(0.217061 -1.36673 0)
(0.266133 -1.18339 0)
(0.399751 -0.699672 0)
(0.252388 -0.231281 0)
(0.0951751 -0.118229 0)
(0.0101589 -0.183155 0)
(-0.0535405 -0.0766749 0)
(-0.132163 -0.198516 0)
(-0.208444 -0.605967 0)
(-0.283869 -0.871229 0)
(-0.407419 -1.0606 0)
(-0.452283 -1.21977 0)
(-0.377976 -1.33959 0)
(-0.257742 -1.46697 0)
(-0.153189 -1.5565 0)
(-0.101055 -1.51984 0)
(-0.0683625 -1.23665 0)
(-0.0392559 -0.877547 0)
(-0.0210994 -0.649613 0)
(-0.0288189 -0.632001 0)
(-0.04539 -0.856586 0)
(-0.0586204 -1.10967 0)
(-0.0745108 -1.24447 0)
(-0.0588361 -1.29832 0)
(-0.0269919 -1.33486 0)
(0.0168024 -1.37587 0)
(0.0625762 -1.41306 0)
(0.10486 -1.43823 0)
(0.13646 -1.43847 0)
(0.151205 -1.39941 0)
(0.151409 -1.32592 0)
(0.169015 -1.16666 0)
(0.224778 -0.713804 0)
(0.161949 -0.233287 0)
(0.0720379 -0.147166 0)
(0.00372609 -0.153955 0)
(-0.0542962 -0.0721666 0)
(-0.112348 -0.181182 0)
(-0.140231 -0.51273 0)
(-0.200114 -0.697293 0)
(-0.339378 -0.906078 0)
(-0.433779 -1.178 0)
(-0.362642 -1.40116 0)
(-0.248252 -1.52879 0)
(-0.162527 -1.57663 0)
(-0.130807 -1.51275 0)
(-0.106895 -1.23363 0)
(-0.0667046 -0.883684 0)
(-0.0252457 -0.647664 0)
(-0.0104301 -0.610743 0)
(-0.0290176 -0.818424 0)
(-0.0518952 -1.06338 0)
(-0.0563891 -1.21067 0)
(-0.0440067 -1.28219 0)
(-0.0218958 -1.32658 0)
(0.00699533 -1.37232 0)
(0.0367591 -1.40706 0)
(0.0643759 -1.42528 0)
(0.0856975 -1.41342 0)
(0.0985724 -1.36223 0)
(0.101884 -1.2805 0)
(0.107671 -1.12374 0)
(0.12288 -0.689794 0)
(0.0586286 -0.187907 0)
(0.0256468 -0.130203 0)
(0.00875057 -0.122919 0)
(-0.0458065 -0.0884796 0)
(-0.0789629 -0.193244 0)
(-0.0802794 -0.450433 0)
(-0.154478 -0.590164 0)
(-0.255364 -0.756028 0)
(-0.360283 -1.12066 0)
(-0.328103 -1.42584 0)
(-0.224891 -1.56505 0)
(-0.159489 -1.57521 0)
(-0.153137 -1.47501 0)
(-0.135693 -1.21757 0)
(-0.0895612 -0.891199 0)
(-0.0404639 -0.651797 0)
(-0.0185313 -0.597939 0)
(-0.0286039 -0.776968 0)
(-0.0515617 -1.01689 0)
(-0.0577517 -1.17709 0)
(-0.0450367 -1.25989 0)
(-0.0267398 -1.30912 0)
(-0.00539372 -1.35555 0)
(0.0158238 -1.38802 0)
(0.0354502 -1.40055 0)
(0.0510035 -1.38113 0)
(0.0619187 -1.32236 0)
(0.0669484 -1.23342 0)
(0.0699754 -1.07167 0)
(0.0715917 -0.658633 0)
(0.0177314 -0.157333 0)
(-0.000507105 -0.0827364 0)
(0.00159804 -0.0929113 0)
(-0.0238245 -0.106641 0)
(-0.0313753 -0.210242 0)
(-0.0314793 -0.355071 0)
(-0.101304 -0.448687 0)
(-0.180828 -0.697717 0)
(-0.250955 -1.05931 0)
(-0.252253 -1.43139 0)
(-0.175367 -1.57245 0)
(-0.146996 -1.54556 0)
(-0.167983 -1.42028 0)
(-0.162295 -1.2 0)
(-0.109828 -0.913383 0)
(-0.0503562 -0.662787 0)
(-0.0199262 -0.579228 0)
(-0.0282531 -0.723805 0)
(-0.0587992 -0.962148 0)
(-0.0667783 -1.13539 0)
(-0.0543769 -1.23138 0)
(-0.0376227 -1.28578 0)
(-0.0195659 -1.33159 0)
(-0.00293793 -1.36186 0)
(0.0127223 -1.36956 0)
(0.0252916 -1.34451 0)
(0.0348358 -1.27994 0)
(0.039417 -1.18311 0)
(0.0347555 -1.01476 0)
(0.0442011 -0.629613 0)
(0.00984721 -0.145694 0)
(-0.0105601 -0.0612234 0)
(-0.00519356 -0.0739416 0)
(0.00491475 -0.115938 0)
(0.0121008 -0.207376 0)
(-0.00934257 -0.275202 0)
(-0.0560111 -0.352339 0)
(-0.0915953 -0.623605 0)
(-0.128115 -1.00531 0)
(-0.156142 -1.41198 0)
(-0.127515 -1.5504 0)
(-0.122582 -1.49253 0)
(-0.163107 -1.35658 0)
(-0.171426 -1.1735 0)
(-0.126594 -0.929888 0)
(-0.0642378 -0.681636 0)
(-0.0371995 -0.611502 0)
(-0.0329933 -0.676368 0)
(-0.0544458 -0.901376 0)
(-0.0712489 -1.08699 0)
(-0.0621079 -1.19611 0)
(-0.0477242 -1.25436 0)
(-0.0327534 -1.30034 0)
(-0.0193275 -1.33045 0)
(-0.00601149 -1.33508 0)
(0.00569854 -1.30596 0)
(0.0163598 -1.23647 0)
(0.0239469 -1.13139 0)
(0.0229315 -0.957602 0)
(0.0309671 -0.651793 0)
(0.00577349 -0.147306 0)
(-0.0151347 -0.0665384 0)
(-0.0102125 -0.0722436 0)
(0.0155089 -0.135212 0)
(0.0262667 -0.189901 0)
(0.00533986 -0.216002 0)
(-0.0213545 -0.281964 0)
(-0.0266923 -0.585734 0)
(-0.0172341 -0.954122 0)
(-0.0521876 -1.33823 0)
(-0.0702916 -1.46681 0)
(-0.0938773 -1.40772 0)
(-0.152045 -1.2618 0)
(-0.172321 -1.11999 0)
(-0.141727 -0.921187 0)
(-0.086317 -0.696637 0)
(-0.0577748 -0.621093 0)
(-0.047888 -0.702713 0)
(-0.049793 -0.859021 0)
(-0.0658478 -1.04041 0)
(-0.0633193 -1.15487 0)
(-0.0510031 -1.21549 0)
(-0.0416058 -1.25803 0)
(-0.0314039 -1.29034 0)
(-0.0206689 -1.29616 0)
(-0.00972966 -1.26644 0)
(0.0031202 -1.19481 0)
(0.0164176 -1.08398 0)
(0.0305774 -0.902387 0)
(0.0172257 -0.595174 0)
(-0.0189603 -0.141554 0)
(-0.0270589 -0.0828852 0)
(-0.0108529 -0.0830993 0)
(0.015376 -0.164818 0)
(0.033082 -0.183274 0)
(0.0316796 -0.18437 0)
(0.0278181 -0.239989 0)
(0.0357247 -0.54486 0)
(0.0452769 -0.886128 0)
(0.0292969 -1.21665 0)
(-0.0164159 -1.33655 0)
(-0.0781743 -1.26985 0)
(-0.137068 -1.15721 0)
(-0.168127 -1.05146 0)
(-0.162673 -0.906597 0)
(-0.121508 -0.709418 0)
(-0.0886651 -0.629629 0)
(-0.0713293 -0.684266 0)
(-0.0567211 -0.821289 0)
(-0.0546213 -0.998165 0)
(-0.0517404 -1.1145 0)
(-0.0463992 -1.17576 0)
(-0.0414781 -1.21441 0)
(-0.0376095 -1.24309 0)
(-0.0303654 -1.24792 0)
(-0.0222572 -1.22245 0)
(-0.0104354 -1.15331 0)
(0.00545221 -1.04148 0)
(0.0290648 -0.855871 0)
(0.00855762 -0.527305 0)
(-0.0395878 -0.12577 0)
(-0.0432098 -0.0871384 0)
(-0.0132501 -0.0878809 0)
(0.0159706 -0.194001 0)
(0.0406717 -0.188789 0)
(0.0540109 -0.174776 0)
(0.0711165 -0.234966 0)
(0.105257 -0.522259 0)
(0.115796 -0.825181 0)
(0.0863858 -1.09516 0)
(0.0108109 -1.19108 0)
(-0.0792702 -1.14364 0)
(-0.134498 -1.06008 0)
(-0.164588 -0.98549 0)
(-0.1756 -0.878337 0)
(-0.137799 -0.717612 0)
(-0.102114 -0.636225 0)
(-0.0883501 -0.677057 0)
(-0.0607608 -0.79843 0)
(-0.0427528 -0.956594 0)
(-0.0379447 -1.06364 0)
(-0.0354214 -1.12508 0)
(-0.032811 -1.16489 0)
(-0.031744 -1.19079 0)
(-0.0327165 -1.19323 0)
(-0.031231 -1.1691 0)
(-0.0256319 -1.10634 0)
(-0.0132694 -0.998959 0)
(0.0132328 -0.815946 0)
(0.000351086 -0.47375 0)
(-0.0429527 -0.117615 0)
(-0.0475515 -0.0804683 0)
(-0.0159714 -0.083134 0)
(0.0164154 -0.224858 0)
(0.0491769 -0.209905 0)
(0.0793603 -0.189469 0)
(0.113851 -0.249878 0)
(0.154379 -0.496773 0)
(0.156377 -0.747912 0)
(0.130301 -0.953064 0)
(0.0330429 -1.02233 0)
(-0.0648488 -1.01467 0)
(-0.121309 -0.967583 0)
(-0.150866 -0.920463 0)
(-0.163879 -0.843374 0)
(-0.149627 -0.7682 0)
(-0.117288 -0.636098 0)
(-0.106807 -0.669417 0)
(-0.060713 -0.783358 0)
(-0.0228338 -0.916472 0)
(-0.0197402 -1.01046 0)
(-0.0219825 -1.06903 0)
(-0.0224252 -1.10674 0)
(-0.0241625 -1.13025 0)
(-0.0294179 -1.13101 0)
(-0.036692 -1.10686 0)
(-0.0427865 -1.04767 0)
(-0.041906 -0.948768 0)
(-0.0111743 -0.770753 0)
(-0.00845643 -0.435021 0)
(-0.0465512 -0.123051 0)
(-0.0488903 -0.0772699 0)