/*--------------------------------*- C++ -*----------------------------------*\
| =========                 |                                                 |
| \\      /  F ield         | OpenFOAM: The Open Source CFD Toolbox           |
|  \\    /   O peration     | Version:  2.4.0                                 |
|   \\  /    A nd           | Web:      www.OpenFOAM.org                      |
|    \\/     M anipulation  |                                                 |
\*---------------------------------------------------------------------------*/
FoamFile
{
    version     2.0;
    format      ascii;
    class       volVectorField;
    location    "2.9";
    object      U;
}
// * * * * * * * * * * * * * * * * * * * * * * * * * * * * * * * * * * * * * //

dimensions      [0 1 -1 0 0 0 0];

internalField   nonuniform List<vector> 
3072
(
(-1.07976 0.747424 2.03816e-23)
(-1.19535 -0.485274 7.53745e-23)
(-0.775219 0.380195 -2.21693e-23)
(-1.35115 -0.243313 2.17696e-24)
(-1.2022 1.05075 -4.33395e-23)
(0.456545 -0.401693 1.23756e-22)
(3.33414 1.28515 2.26979e-23)
(1.8708 2.13796 -3.78196e-22)
(3.20647 2.12874 -3.38476e-22)
(2.37115 2.80234 6.15947e-24)
(3.25699 2.28676 -7.9764e-23)
(2.64891 2.7287 1.28127e-22)
(-1.61268 0.408863 -1.08807e-23)
(-0.167839 1.21143 2.12469e-23)
(1.28683 0.763281 -6.00667e-23)
(2.24946 1.74265 -1.3354e-31)
(2.8336 2.82636 1.22918e-22)
(2.76869 2.71866 -2.60707e-22)
(2.6342 2.83184 0)
(1.68066 2.82709 4.3532e-23)
(2.29135 2.95431 -1.72655e-23)
(1.7271 2.90204 0)
(2.20507 2.80667 4.27792e-23)
(1.62232 2.73964 3.46348e-23)
(0.247401 0.963261 0)
(0.477692 1.64016 7.98725e-23)
(1.57597 1.89477 -5.87211e-23)
(2.22562 1.96095 3.34571e-23)
(2.45297 2.42157 1.83149e-22)
(3.02046 2.60586 -4.85378e-23)
(2.35642 2.14891 1.04175e-22)
(2.31356 2.32433 1.79006e-23)
(2.25527 2.1795 -9.44084e-24)
(1.9594 2.24908 0)
(2.14643 2.2995 -1.31588e-22)
(1.69297 2.19586 -1.83195e-22)
(-1.15518 1.38127 0)
(0.833984 0.838632 0)
(2.04011 1.5965 0)
(2.47688 2.0939 9.00781e-24)
(2.55428 2.46233 7.33523e-23)
(2.44633 2.49671 -9.83403e-23)
(1.8886 2.36453 -3.6054e-23)
(2.01874 2.54046 -3.69717e-23)
(1.7001 2.15305 7.76447e-23)
(1.5949 2.47137 2.94179e-23)
(1.53692 2.12734 1.55737e-22)
(1.46091 2.45612 1.51518e-22)
(1.28124 1.74282 -7.16043e-24)
(1.75992 2.26119 6.63657e-23)
(2.25646 2.43655 1.14503e-22)
(2.72186 2.29302 -3.4172e-23)
(2.54867 2.22947 -3.86186e-24)
(1.93744 2.10858 2.17469e-23)
(1.95978 2.20465 3.12246e-23)
(1.82415 2.22967 4.65877e-23)
(1.63405 2.05226 -6.37623e-24)
(1.63843 1.99719 -1.00495e-22)
(1.53226 1.91077 -1.4663e-22)
(1.53629 1.88004 0)
(0.976678 1.36098 5.77207e-24)
(1.72803 1.36445 7.67507e-23)
(2.92642 1.64905 5.38908e-23)
(2.90377 1.73961 -7.46336e-23)
(2.26657 1.98323 -3.08591e-23)
(2.09589 2.31949 0)
(2.29737 2.68652 9.94202e-24)
(1.75961 2.77729 8.70097e-24)
(1.83967 2.7872 -2.00201e-23)
(1.4641 2.48914 2.09815e-22)
(1.61166 2.19484 -2.07305e-23)
(1.46769 1.77367 -7.14457e-23)
(1.90186 1.21576 7.228e-24)
(2.2355 1.56519 1.82294e-23)
(2.56724 1.96713 0)
(2.25993 2.13205 0)
(2.44613 2.26233 0)
(2.69846 2.48342 3.95113e-23)
(2.16316 2.72712 9.22615e-23)
(1.86955 2.99801 -4.35719e-24)
(1.6045 2.83326 1.05285e-22)
(1.32451 2.7722 7.70925e-23)
(1.0717 2.13066 -1.38511e-22)
(1.38534 1.64849 -3.63919e-22)
(1.81893 1.3374 2.20379e-23)
(2.22206 1.48177 2.03888e-23)
(2.9232 1.5276 0)
(2.93026 1.49538 1.10934e-22)
(3.16839 1.85953 7.78928e-23)
(2.53521 2.25112 1.39635e-22)
(2.0107 2.45636 -3.18208e-23)
(1.80113 2.59798 0)
(1.22003 2.68996 -1.69809e-23)
(1.06168 2.81409 5.85126e-23)
(0.635421 2.24096 4.77228e-23)
(1.02624 1.57239 3.04312e-23)
(2.34288 1.26071 6.83455e-24)
(2.70521 1.46127 6.68376e-24)
(3.02128 1.62266 3.11419e-23)
(2.62392 1.75971 -1.23334e-22)
(2.29988 2.12324 -1.5962e-22)
(2.03593 1.99363 -4.66708e-23)
(2.24094 1.96562 -2.15654e-23)
(1.19734 2.31121 -6.08618e-23)
(1.32694 2.61316 8.18853e-23)
(0.485525 2.70322 1.41355e-22)
(0.474469 2.59521 0)
(0.668351 1.75979 -1.678e-31)
(2.05693 1.28536 -1.81019e-24)
(2.51263 1.38423 -7.52879e-24)
(3.02703 1.34538 0)
(2.95188 1.18654 8.55054e-32)
(3.0128 1.17644 4.19166e-23)
(2.58825 1.06373 1.63094e-23)
(1.64686 1.59875 -5.46476e-24)
(1.41438 1.97552 -4.88029e-24)
(1.07908 2.17749 4.55363e-23)
(0.352712 2.52362 -9.9057e-23)
(0.168115 2.75011 -2.1952e-22)
(0.263784 1.92341 7.26707e-23)
(2.40943 1.28197 2.89335e-24)
(2.86404 1.26247 8.27128e-24)
(3.05999 1.30321 1.93948e-23)
(2.63393 1.26057 3.22569e-23)
(2.14799 1.47381 3.38413e-23)
(1.17375 1.4493 5.37054e-23)
(1.80906 1.39267 -4.61058e-24)
(1.30845 1.4459 -2.80289e-23)
(0.658694 2.06277 -3.52951e-23)
(0.123152 2.15785 -1.34801e-22)
(-0.00565205 2.6531 -1.96718e-23)
(-0.331927 2.07372 7.91181e-23)
(1.78919 1.26378 1.48047e-23)
(2.52674 1.12147 9.25754e-24)
(2.93471 1.0216 0)
(2.64679 0.790929 -3.6219e-23)
(2.58519 0.705573 -8.01252e-23)
(2.51058 0.591785 -6.61707e-23)
(2.15865 1.20804 6.53817e-23)
(0.702371 1.37421 7.04147e-23)
(0.975317 1.48762 -4.43728e-23)
(-0.0191847 1.62021 -1.23009e-22)
(-0.281804 2.19497 -9.17948e-23)
(-0.555036 2.03667 -5.01786e-23)
(3.11919 2.06661 -5.87822e-23)
(2.55009 2.22207 3.32592e-22)
(2.90605 1.57366 4.18768e-22)
(2.13741 1.65022 4.36492e-22)
(2.5506 0.881287 5.90015e-22)
(1.90262 1.15927 3.12343e-22)
(2.01731 0.57937 -1.92651e-23)
(1.39689 0.539486 0)
(1.59096 0.308633 1.09909e-23)
(0.871284 0.299173 5.06845e-23)
(1.26121 0.575151 9.31259e-24)
(0.333643 0.0531998 7.97593e-25)
(2.08591 2.65483 -1.34383e-22)
(1.41747 2.29996 0)
(2.07546 2.18519 -1.01998e-22)
(1.13174 1.73327 8.42509e-24)
(1.95327 1.5655 0)
(1.01006 1.07833 -1.57281e-24)
(1.82106 1.45672 0)
(0.890514 0.796266 3.91612e-24)
(1.40963 1.05612 -1.99773e-23)
(0.835141 0.642254 9.32065e-24)
(0.947641 0.561142 2.36179e-24)
(0.902934 0.511191 6.82947e-25)
(1.90721 2.26536 -1.71015e-23)
(1.25768 1.97196 -6.59963e-23)
(1.69697 1.94072 -1.20489e-31)
(1.06619 1.94238 -7.586e-23)
(1.35735 1.1633 -7.89846e-24)
(1.00596 1.09594 2.08797e-22)
(1.19685 0.794655 -1.63285e-24)
(1.11926 1.05341 -9.37746e-24)
(0.96284 0.624503 0)
(1.05745 0.950903 1.03663e-24)
(0.954699 0.75146 1.52787e-24)
(0.839038 0.625243 1.39187e-24)
(1.5825 2.38198 2.40546e-22)
(1.1124 2.2343 2.31785e-22)
(1.51842 1.84269 6.62106e-24)
(0.927705 2.39008 0)
(1.47654 1.92455 9.49107e-23)
(0.646946 1.23759 0)
(1.3554 1.07687 -7.18986e-24)
(0.633111 0.994539 -2.21241e-23)
(1.15117 1.07156 -5.57766e-24)
(0.62748 0.719897 3.13569e-24)
(0.876479 0.73752 0)
(0.938733 0.704867 9.36466e-25)
(1.57001 2.47598 0)
(0.85189 2.18214 2.12941e-22)
(1.35624 1.75424 2.08565e-22)
(0.712451 1.54985 0)
(1.21206 2.02189 -2.1234e-22)
(0.771232 1.54841 -1.32535e-22)
(1.07089 1.07758 4.16609e-25)
(0.914886 1.152 -3.82921e-25)
(0.878905 0.901831 -3.25419e-23)
(0.862411 1.07874 -4.18902e-24)
(0.753226 0.602755 -4.13141e-24)
(0.909286 0.544798 3.74645e-25)
(1.47917 2.53287 -3.259e-23)
(0.416574 2.51186 -7.62619e-23)
(1.03348 2.10175 -9.38989e-23)
(0.410786 1.79808 0)
(0.815384 1.65828 1.17811e-22)
(0.345379 1.51386 5.91992e-23)
(0.889099 1.10405 0)
(0.490808 0.975052 0)
(0.78641 1.06775 1.05465e-24)
(0.610697 1.07754 0)
(0.795218 0.658783 -9.02246e-24)
(1.05858 0.468265 3.75833e-24)
(0.832138 2.11713 -9.25192e-23)
(0.0346115 2.21626 3.17178e-22)
(0.506892 1.92403 6.05901e-23)
(0.0639453 1.56041 0)
(0.327029 1.70816 -8.56042e-23)
(0.0942213 1.46843 -5.72923e-23)
(0.482263 0.954654 -1.54049e-23)
(0.272072 1.00248 0)
(0.239104 0.748255 -5.54481e-24)
(0.392429 0.570093 -1.74674e-23)
(1.03738 0.231962 -6.7763e-24)
(1.23686 0.0892612 3.32087e-24)
(0.345551 1.91197 9.45485e-23)
(-0.387958 2.23253 1.55888e-22)
(0.039115 1.84763 -9.17259e-23)
(-0.208715 1.71343 6.59572e-23)
(-0.111071 1.43354 1.57339e-22)
(-0.262409 1.22516 9.83146e-23)
(0.219926 0.877817 -2.89143e-23)
(-0.200703 1.05303 -2.53833e-24)
(-0.0933407 0.723064 -3.15177e-23)
(0.115132 0.635693 1.56026e-23)
(0.246901 -0.142308 2.45531e-23)
(0.875271 0.491175 -2.41135e-24)
(-0.11746 1.94273 0)
(-0.448044 2.01791 0)
(-0.205937 1.83108 -1.83032e-22)
(-0.39576 1.58356 2.59099e-25)
(-0.304849 1.57013 2.25385e-22)
(-0.323504 1.27553 2.14946e-23)
(-0.16328 1.01219 4.97914e-23)
(-0.702549 1.01151 -7.34627e-23)
(0.122075 0.777549 -6.65773e-23)
(-0.155921 -0.00846639 0)
(0.985342 -0.411595 3.41751e-23)
(0.615359 -1.18055 -1.54555e-31)
(-0.395899 2.10369 -4.26966e-23)
(-0.720269 2.0912 0)
(-0.314381 1.80887 -1.70335e-31)
(-0.620027 1.64692 -1.11795e-22)
(-0.510183 1.42354 2.02297e-22)
(-0.686882 1.2663 -1.1189e-22)
(-0.753208 1.05087 1.72171e-22)
(-0.505752 0.742173 -9.35795e-23)
(-0.109774 0.433747 -2.12209e-22)
(0.0316381 0.0462881 -9.47174e-23)
(0.513759 -0.622834 -7.28273e-23)
(1.05828 -0.495571 -1.13394e-23)
(-0.621533 2.13286 -4.16942e-23)
(-0.855475 1.94106 9.3601e-23)
(-0.577135 1.77658 2.1067e-22)
(-0.956088 1.44581 8.67775e-23)
(-0.821722 1.51543 -1.22051e-22)
(-1.15706 1.25648 -3.72308e-22)
(-0.537185 0.898036 2.08451e-22)
(-0.39917 0.435715 1.46411e-23)
(0.0716072 0.0578579 -7.98284e-23)
(0.359994 -0.284722 -6.54651e-23)
(0.805534 -1.25152 -4.08736e-23)
(0.821046 -2.00476 -2.12367e-23)
(-0.852408 2.13357 -1.20281e-22)
(-1.12894 2.00182 -4.79842e-23)
(-0.896785 1.72199 -1.25139e-22)
(-1.35298 1.73452 -8.23212e-32)
(-1.26144 1.70418 -1.61214e-22)
(-1.09222 1.09031 3.04744e-23)
(-0.420595 0.760923 2.39646e-22)
(-0.526074 -0.0360915 -2.95945e-23)
(0.0880086 -0.0673133 0)
(0.0364989 -0.635628 9.97622e-23)
(0.798829 -0.970077 -7.06859e-23)
(1.0486 -1.60122 -3.96259e-23)
(0.363399 0.713136 -5.94956e-25)
(0.271765 0.480216 2.64298e-23)
(-0.0423743 0.306395 -2.6437e-24)
(0.568166 0.923827 -1.42202e-23)
(0.213198 0.0454245 -2.63687e-23)
(0.488525 -1.53379 -9.77196e-24)
(1.17227 -1.92528 6.51346e-23)
(1.86024 -2.08178 1.80891e-22)
(2.02848 -1.7967 -1.37492e-22)
(1.9621 -2.13389 8.14884e-24)
(2.05377 -2.14155 -1.11865e-22)
(1.86562 -2.14799 -3.67537e-23)
(0.688083 0.9467 4.4263e-24)
(0.969589 0.231174 -1.19941e-23)
(0.676171 -0.627651 -5.52774e-24)
(1.53864 -1.61565 -5.77179e-23)
(2.02076 -1.80554 7.70725e-24)
(2.01817 -2.08772 -2.60348e-23)
(2.28576 -1.83454 2.8227e-23)
(2.44773 -1.67108 0)
(2.71554 -1.5309 -2.91675e-23)
(2.61188 -1.75924 6.94063e-23)
(2.53885 -1.72199 6.47326e-23)
(2.41474 -1.82055 0)
(0.69226 -0.127406 4.10166e-24)
(1.77454 -0.394237 -8.18315e-24)
(1.63916 -1.51553 -4.41222e-24)
(2.16974 -1.8251 0)
(2.13764 -2.20264 4.65247e-24)
(2.23591 -2.31704 7.77949e-23)
(1.97136 -2.10478 -8.99479e-23)
(2.14665 -2.02802 2.67634e-25)
(2.08491 -1.847 -2.1945e-24)
(2.29478 -1.97096 -8.7003e-23)
(2.17182 -1.86758 0)
(2.30361 -1.84994 0)
(1.01487 0.120777 7.00384e-24)
(1.33179 -1.21789 -1.8894e-23)
(1.96805 -1.75736 3.38694e-23)
(2.15854 -1.74469 -3.77969e-23)
(2.17694 -2.06725 3.35825e-23)
(2.10452 -2.05593 -1.27485e-23)
(1.95624 -1.79809 -1.20983e-22)
(1.99225 -1.70498 -6.34855e-23)
(1.88422 -1.43765 -8.19456e-23)
(1.93585 -1.43646 -6.91599e-23)
(1.69016 -1.26206 0)
(1.84075 -1.28467 0)
(1.50044 -1.2693 -2.49503e-24)
(1.979 -1.53139 -1.30031e-23)
(2.04772 -1.62706 -3.96374e-23)
(2.0365 -1.8039 3.16185e-23)
(1.89845 -1.83723 1.15847e-23)
(1.87358 -1.69482 -3.0258e-24)
(1.79552 -1.62711 -3.72775e-24)
(1.85099 -1.44069 -1.15089e-24)
(1.7904 -1.34602 -1.2571e-23)
(1.80028 -1.18786 0)
(1.55262 -1.12486 -1.24749e-22)
(1.5872 -1.02864 -1.11561e-22)
(1.16938 -1.24341 3.79896e-24)
(1.07368 -1.92648 0)
(1.31577 -2.25797 9.75032e-24)
(1.65587 -1.95351 5.62044e-24)
(1.71513 -1.56241 -4.84166e-23)
(1.78171 -1.61258 2.94354e-24)
(1.79749 -1.55914 -8.27439e-23)
(1.99909 -1.47952 -1.02319e-22)
(1.91005 -1.37111 -1.20468e-22)
(1.93585 -1.03045 -2.95381e-24)
(1.65944 -1.04692 2.65381e-23)
(1.67159 -0.883974 -4.1186e-23)
(1.28017 -1.8102 6.19015e-24)
(1.69015 -2.00821 0)
(1.83424 -1.93851 0)
(1.8602 -1.58448 5.29637e-24)
(1.70141 -1.68713 -1.34728e-32)
(1.78308 -1.78304 -1.00982e-23)
(2.11097 -1.76708 4.69965e-23)
(2.22766 -1.72604 3.63727e-23)
(2.12221 -1.25177 4.98375e-23)
(2.0495 -1.01436 1.19056e-22)
(1.7766 -0.900075 -7.27534e-23)
(1.57413 -0.756084 -5.10261e-23)
(1.23989 -1.79114 4.77935e-24)
(1.37749 -2.18488 1.30036e-23)
(1.3198 -2.26863 5.99857e-24)
(1.39553 -2.10312 -2.1199e-23)
(1.56863 -1.86433 1.80114e-23)
(2.25832 -1.94398 -3.31136e-23)
(2.50289 -2.30971 1.24415e-22)
(2.59803 -1.46879 1.49965e-22)
(2.69556 -1.45025 0)
(2.45363 -0.829309 0)
(2.28348 -0.938341 -7.26344e-24)
(1.76814 -0.722406 4.66611e-23)
(1.33436 -2.18704 -3.12606e-24)
(1.62762 -2.30583 2.11615e-25)
(1.74736 -2.24847 -3.77726e-24)
(1.96398 -1.65297 5.24774e-24)
(2.10905 -1.92377 -2.30882e-23)
(2.41985 -2.71024 -1.33849e-23)
(2.48281 -1.97511 0)
(2.78709 -1.62825 -4.08447e-23)
(2.7263 -1.33405 -7.99949e-23)
(2.7268 -0.945955 -1.39992e-22)
(2.52116 -0.717228 -3.15648e-22)
(2.10644 -0.688445 -5.01569e-23)
(1.29462 -2.06612 4.51508e-24)
(1.44986 -2.44088 2.38058e-24)
(1.45757 -2.25044 -1.30596e-32)
(1.4321 -2.22527 3.1041e-23)
(1.69569 -3.19548 -9.87103e-23)
(2.31884 -2.41465 -1.15398e-22)
(2.47076 -1.89066 4.61564e-23)
(2.64846 -1.6471 1.81595e-22)
(2.66182 -1.04648 2.17449e-23)
(2.71964 -0.728201 1.6481e-23)
(2.69142 -0.496393 0)
(2.09838 -0.171796 9.29797e-23)
(1.29231 -2.34378 -7.46148e-24)
(1.59933 -2.49304 -2.84814e-24)
(1.65057 -2.45822 9.93656e-24)
(1.93592 -2.28926 1.8207e-25)
(2.22038 -2.16449 -5.79482e-23)
(2.28786 -2.16949 -8.43341e-23)
(2.28272 -2.23109 -5.19333e-23)
(2.52917 -1.15787 -1.54431e-22)
(2.65012 -1.13658 9.8323e-23)
(2.57812 -0.242938 3.55234e-22)
(2.73785 -0.0990092 0)
(2.08682 0.151654 6.99672e-23)
(1.32984 -2.15592 4.57646e-25)
(1.35786 -2.69088 -3.35977e-24)
(1.4024 -2.39203 0)
(1.40081 -2.38564 -8.17685e-24)
(1.44974 -3.33181 -9.38119e-23)
(1.7494 -2.93417 0)
(2.20582 -1.50538 -6.48098e-23)
(2.30477 -1.32748 -1.62954e-22)
(2.56532 -0.5499 -2.69534e-22)
(2.45614 -0.112919 -2.01643e-23)
(2.65599 0.311514 0)
(2.09747 0.507612 0)
(1.83495 -2.25598 -2.73392e-22)
(1.67261 -1.96403 -2.73029e-22)
(1.37536 -1.94412 -3.48533e-24)
(1.24404 -1.58622 -2.77919e-24)
(0.760569 -1.42215 -5.67838e-23)
(0.865042 -1.46541 1.08233e-23)
(0.265953 -1.23733 0)
(0.197537 -1.59975 0)
(0.411396 -1.28977 1.24852e-23)
(0.569401 -1.2311 2.24175e-23)
(0.104447 -0.763806 -2.18903e-32)
(0.0938909 -0.913613 7.9153e-34)
(2.18114 -1.81047 -3.12255e-23)
(2.17287 -1.74912 1.2725e-22)
(1.78662 -1.74932 2.44804e-22)
(1.7238 -1.61644 2.67382e-22)
(1.05221 -1.53396 2.24879e-22)
(0.926594 -1.29424 0)
(0.698159 -1.25355 -6.62299e-23)
(0.479207 -1.04271 -3.87065e-23)
(0.427808 -1.02502 -8.80427e-24)
(0.839048 -0.959362 4.38546e-24)
(0.63623 -0.999045 4.36343e-24)
(0.553869 -0.76671 -1.93845e-24)
(1.98002 -1.75668 0)
(2.21618 -1.6082 5.65556e-23)
(1.84926 -1.4848 7.57558e-23)
(2.00211 -1.2962 0)
(1.59585 -1.25978 -1.00241e-22)
(1.16526 -0.93004 -1.71438e-22)
(0.929998 -1.17111 -5.65057e-32)
(0.615174 -0.901605 -1.01498e-23)
(0.403283 -1.0691 0)
(0.603413 -0.662149 0)
(0.559827 -0.914397 -7.22635e-24)
(0.598464 -0.765345 -1.35765e-24)
(1.72685 -1.34444 0)
(1.95317 -1.27075 2.47168e-24)
(1.86139 -1.30792 0)
(1.82943 -1.01752 5.44062e-24)
(1.84362 -1.08368 1.73675e-23)
(1.27201 -0.744733 3.54575e-23)
(0.823115 -1.06038 -1.67869e-23)
(0.71065 -0.811162 -7.53703e-24)
(0.687104 -0.914167 7.02189e-24)
(0.82951 -0.747066 4.88154e-24)
(0.558985 -0.906526 -6.05661e-24)
(0.550392 -0.854011 4.40009e-24)
(1.32452 -1.14732 7.03612e-23)
(1.55345 -0.996216 8.76752e-23)
(1.80581 -1.06271 0)
(1.83125 -0.759413 -3.5554e-23)
(1.91678 -0.722707 -4.28706e-23)
(1.62049 -0.611642 -1.0866e-23)
(1.07316 -0.766281 6.13552e-24)
(0.802448 -0.592849 1.38679e-23)
(0.578156 -0.781823 8.36639e-24)
(0.658705 -0.723606 9.63851e-24)
(0.465154 -0.889965 -5.11552e-24)
(0.475681 -0.943261 2.80212e-24)
(1.43079 -1.03821 0)
(1.19291 -0.742208 3.00517e-23)
(1.37561 -0.834666 6.25937e-24)
(1.71086 -0.538522 0)
(1.90756 -0.502401 0)
(1.61238 -0.383078 -7.854e-24)
(1.14842 -0.68186 0)
(0.814403 -0.644229 0)
(0.522796 -0.838137 0)
(0.679812 -0.685801 -1.77612e-24)
(0.418815 -1.10176 -6.40861e-25)
(0.455111 -0.980109 1.4734e-24)
(1.71561 -0.914498 0)
(1.46067 -0.576208 -2.63393e-23)
(1.48584 -0.765396 -2.01473e-23)
(1.60984 -0.37256 0)
(1.82499 -0.291093 6.88987e-23)
(1.56448 -0.283531 4.4079e-23)
(1.0859 -0.55744 -1.48906e-23)
(0.689248 -0.618143 -2.63147e-24)
(0.629194 -0.72288 0)
(0.216356 -0.601476 0)
(0.156429 -1.12624 7.50503e-24)
(0.344783 -1.08199 4.58723e-25)
(1.63346 -0.899012 0)
(1.41476 -0.458509 7.64896e-24)
(1.34792 -0.686193 -4.97516e-24)
(1.59023 -0.147501 9.34301e-23)
(1.79277 -0.0956935 6.96289e-23)
(1.44198 -0.0566302 -2.34167e-23)
(0.967546 -0.55665 -3.28852e-23)
(0.801623 -0.377319 -1.10878e-23)
(0.410607 -0.291441 -9.49105e-24)
(0.447852 -0.698889 2.99903e-24)
(-0.125118 -0.535102 4.92323e-24)
(0.394789 -0.933742 -2.05341e-24)
(1.92091 -0.545389 2.72231e-23)
(1.6107 -0.305797 1.83799e-23)
(1.51311 -0.47584 -2.50332e-23)
(1.63027 0.147171 1.3447e-22)
(1.71952 0.20109 -4.33463e-23)
(1.29824 0.125931 -3.05399e-23)
(1.01687 -0.164747 -1.14938e-22)
(0.68175 0.313371 3.17951e-24)
(0.476926 -0.479671 6.28541e-23)
(-0.104246 -0.13539 8.24963e-24)
(-0.0458043 -1.08443 5.26538e-24)
(-0.669618 -0.75702 -1.49883e-24)
(1.92763 -0.30205 3.18183e-23)
(1.50558 -0.0533111 -4.29512e-23)
(1.45944 -0.194903 3.52372e-23)
(1.58513 0.482322 9.40553e-23)
(1.59956 0.452352 5.44153e-23)
(1.26369 0.387686 1.41859e-22)
(0.968993 0.539608 -1.3271e-22)
(0.635198 0.188597 -7.71401e-23)
(0.142675 0.0258193 -4.03975e-32)
(-0.0860006 -0.385293 6.32486e-23)
(-0.699628 -0.52225 7.64281e-24)
(-0.196453 -1.30785 3.15406e-24)
(2.00727 -0.0234833 0)
(1.66867 0.161977 -4.14619e-23)
(1.59625 0.128184 4.41133e-23)
(1.63363 0.774873 6.33624e-23)
(1.66897 0.702615 2.10656e-22)
(1.30984 0.818711 2.28808e-22)
(0.900224 0.31654 1.53664e-22)
(0.397485 0.156053 -1.00125e-22)
(-0.0198589 -0.0493473 -9.34274e-23)
(-0.307158 -0.357032 9.56135e-23)
(-0.75299 -0.755686 6.76341e-24)
(-1.54536 -0.772498 -1.35067e-23)
(1.86276 0.147722 0)
(1.67595 0.300612 -9.81102e-23)
(1.65549 0.39197 0)
(1.71163 1.02762 0)
(1.62863 0.922491 1.6474e-22)
(1.07177 0.60787 -1.97942e-23)
(0.745701 0.278321 1.81711e-22)
(0.216985 0.278341 0)
(-0.157161 -0.096079 0)
(-0.814919 -0.184495 -9.426e-23)
(-0.982012 -0.654414 -5.44624e-23)
(-1.21346 -1.15596 -3.8549e-25)
(0.90417 -0.226248 -1.52099e-23)
(0.695437 -0.199643 2.51685e-23)
(0.740303 0.299274 3.84897e-23)
(0.480816 -0.138503 -4.68822e-23)
(0.923521 -0.0441713 6.90284e-24)
(0.719769 -0.732587 0)
(-0.675466 0.193104 -4.53917e-23)
(-1.94005 -0.836808 4.70962e-32)
(-0.972599 -1.10847 -2.26375e-22)
(-1.81833 -1.27448 1.7447e-24)
(-1.46883 -1.36951 7.91326e-25)
(-1.94302 -1.26911 0)
(1.24328 -0.664092 -1.50358e-23)
(0.968028 -0.791741 -6.88768e-24)
(-0.425471 -0.793757 -4.91087e-23)
(-1.35932 -1.17967 3.8314e-23)
(-1.98807 -1.49152 0)
(-2.26558 -2.40025 -2.2028e-23)
(-1.99494 -1.97867 5.32658e-22)
(-1.80209 -2.18224 1.901e-22)
(-1.47113 -2.01403 -1.32695e-23)
(-1.78298 -2.2657 0)
(-1.44329 -1.94663 -1.64489e-23)
(-1.70371 -2.10472 0)
(0.227155 -0.810145 -1.17368e-23)
(-0.581635 -1.5523 1.26915e-23)
(-1.11149 -1.79212 -1.54814e-23)
(-2.00646 -1.93184 4.85757e-24)
(-1.70219 -2.04134 -6.18676e-24)
(-1.88984 -2.35577 -9.10856e-32)
(-1.96296 -2.12805 0)
(-1.94519 -2.03249 -1.791e-22)
(-1.80958 -1.9822 -1.03705e-22)
(-1.80807 -2.05654 -1.92226e-23)
(-1.70799 -1.94887 -3.66366e-23)
(-1.69286 -1.98753 -6.18496e-23)
(0.776336 -1.70199 1.56016e-25)
(-0.726985 -0.990586 -5.30727e-23)
(-1.36453 -2.01138 -1.21747e-22)
(-1.75816 -1.90037 -3.00199e-24)
(-1.72498 -2.08041 -1.02327e-23)
(-1.56587 -1.95205 3.34258e-23)
(-1.58802 -2.10661 -1.46824e-22)
(-1.62666 -1.89845 -1.79386e-22)
(-1.62839 -1.98824 -8.0275e-23)
(-1.47852 -1.89244 7.60565e-23)
(-1.50648 -1.98612 1.2225e-22)
(-1.31781 -1.85948 1.07943e-23)
(-1.33685 -1.53705 -1.94537e-24)
(-0.913399 -1.69443 -5.30343e-24)
(-1.4767 -1.89286 -1.20169e-23)
(-1.88796 -1.76694 4.0757e-24)
(-1.75482 -1.88569 -3.78104e-24)
(-1.6864 -1.96278 -7.00525e-25)
(-1.62143 -2.06217 0)
(-1.6371 -1.86904 5.9229e-23)
(-1.48288 -1.98015 8.0401e-23)
(-1.32159 -1.64315 6.80117e-23)
(-1.366 -1.75914 2.91644e-23)
(-1.07615 -1.63062 0)
(-0.526345 -1.36492 1.4652e-24)
(-1.23711 -0.964349 -2.48127e-24)
(-2.07817 -1.78454 -5.58691e-24)
(-1.93764 -1.88167 -1.75897e-23)
(-1.89149 -2.34079 5.59117e-23)
(-1.78285 -2.27383 1.24017e-22)
(-1.58995 -2.30235 1.05014e-22)
(-1.37955 -2.1281 5.61226e-23)
(-1.36122 -1.96143 -3.87633e-23)
(-1.14625 -1.83965 6.57572e-23)
(-1.2396 -1.72794 0)
(-1.0289 -1.75225 0)
(-1.81741 -1.30271 0)
(-1.74432 -1.88021 -5.91234e-24)
(-1.94175 -2.01739 -6.75467e-24)
(-1.85855 -1.96106 -1.86808e-23)
(-1.96013 -1.93319 -4.18526e-23)
(-1.62098 -1.74529 -5.70658e-23)
(-1.20686 -1.93473 -7.05111e-23)
(-1.36723 -1.76552 -1.30911e-23)
(-1.07835 -1.87849 0)
(-1.17814 -1.69197 -6.46841e-23)
(-1.03728 -1.64961 8.33696e-24)
(-1.0683 -1.41079 1.29784e-23)
(-1.30129 -1.39893 0)
(-1.80528 -1.33267 3.30183e-24)
(-2.39178 -1.60214 0)
(-2.11449 -1.5637 1.095e-23)
(-1.72839 -1.77677 -1.76985e-23)
(-1.11647 -1.71857 -2.12992e-23)
(-1.53309 -1.81896 7.31682e-23)
(-1.04826 -1.88088 5.89817e-23)
(-1.24647 -1.90569 0)
(-0.856265 -1.82933 1.9527e-23)
(-0.966084 -1.79125 8.22218e-33)
(-0.939012 -1.15583 0)
(-2.24563 -1.23281 2.03577e-24)
(-2.22587 -1.70279 3.30948e-24)
(-2.18753 -1.85764 -2.35498e-24)
(-1.55385 -1.93325 -2.62814e-33)
(-1.35917 -1.81236 1.80206e-23)
(-1.64036 -1.66267 -6.3121e-23)
(-1.29792 -1.9558 6.67016e-23)
(-1.37243 -2.01042 5.21094e-23)
(-1.06462 -2.12004 0)
(-0.999045 -1.87681 -4.33295e-23)
(-0.782004 -1.94177 -2.83341e-23)
(-1.00386 -1.18409 2.00007e-24)
(-1.64905 -1.40333 -7.60528e-25)
(-2.13097 -1.27279 5.67029e-26)
(-2.39029 -1.37822 3.42244e-24)
(-1.94571 -1.20153 -3.55151e-24)
(-1.89401 -1.28926 1.79003e-32)
(-1.39425 -1.83843 2.70703e-23)
(-1.7946 -2.23243 7.99092e-24)
(-1.3751 -2.13418 -1.99345e-32)
(-1.1617 -2.33033 0)
(-0.826958 -2.15438 -9.27203e-23)
(-0.533485 -2.19396 -1.83551e-23)
(-0.758991 -1.26918 -3.25872e-33)
(-2.3071 -1.17846 2.95378e-24)
(-2.43253 -1.43784 -2.55754e-24)
(-2.37705 -1.55946 -1.16432e-23)
(-1.38862 -1.70318 0)
(-1.27858 -1.96433 -7.69528e-24)
(-2.16419 -2.13561 2.35831e-23)
(-1.95662 -2.28385 -1.46732e-22)
(-1.24241 -2.53221 -2.45531e-22)
(-1.09553 -2.48486 -6.32674e-23)
(-0.64249 -2.37809 -4.59926e-23)
(-0.303819 -2.34186 0)
(-0.927893 -1.41745 2.26886e-24)
(-1.51081 -1.33056 9.2623e-24)
(-2.24804 -1.07973 -3.06169e-24)
(-2.21456 -1.18548 -1.11534e-23)
(-1.87784 -1.12327 -6.24156e-24)
(-2.93834 -1.38359 -7.2511e-24)
(-2.56008 -2.05863 5.75482e-24)
(-1.55033 -2.54642 -1.18142e-22)
(-1.53746 -2.54137 -2.12742e-22)
(-0.692223 -2.65926 -6.18494e-23)
(-0.618167 -2.45854 -4.86188e-23)
(-0.150006 -2.33914 0)
(-0.665535 -1.64717 -3.46553e-24)
(-1.67509 -1.35312 1.99982e-24)
(-1.71956 -1.12566 4.88555e-23)
(-1.5707 -1.0807 5.49141e-24)
(-1.39391 -0.854816 7.42696e-23)
(-1.31867 -0.543381 1.00935e-25)
(-1.27681 -0.755314 5.56763e-23)
(-0.88549 -0.530043 6.82002e-24)
(-1.0178 -1.00969 -5.09333e-24)
(-0.613066 -0.588538 5.41975e-24)
(-0.71095 0.0257082 1.32705e-23)
(-0.661759 0.00136299 2.71402e-24)
(-0.624194 0.118952 -6.23036e-25)
(-1.27755 -1.65888 0)
(-1.55125 -1.81526 -1.49363e-22)
(-1.17861 -1.28151 -1.85978e-22)
(-1.20264 -1.55669 1.09744e-23)
(-0.961602 -0.713623 0)
(-0.932763 -0.993254 2.42437e-23)
(-1.01473 -0.422075 0)
(-0.689567 -0.0817511 -1.61508e-23)
(-1.13054 -0.683252 2.20928e-25)
(-0.684718 -0.361015 5.58719e-24)
(-0.786903 -0.244714 -3.89615e-24)
(-0.664717 -0.0457029 -7.97671e-25)
(-1.48383 -1.83909 0)
(-1.37553 -1.81266 0)
(-1.39555 -1.6407 8.83596e-24)
(-0.997469 -1.46219 1.75116e-23)
(-1.27009 -1.29304 -4.57722e-24)
(-0.823108 -0.984152 5.31841e-23)
(-1.1868 -1.4422 3.68497e-24)
(-0.573173 -0.699904 -3.15907e-24)
(-0.813179 -0.576669 0)
(-0.654437 -0.575013 4.79434e-24)
(-0.874871 -0.229604 1.66134e-24)
(-0.709805 0.143733 -8.03279e-25)
(-1.38794 -1.91003 0)
(-1.07271 -1.70347 0)
(-1.37832 -1.93239 5.69293e-24)
(-0.837801 -1.68346 2.3562e-24)
(-1.23983 -1.39374 -7.77757e-23)
(-0.845478 -0.967422 -9.6987e-24)
(-1.03675 -0.976006 3.5831e-23)
(-0.917079 -0.979049 1.17159e-23)
(-1.10373 -0.707401 1.63205e-23)
(-0.782731 -0.467644 -2.56224e-24)
(-1.07345 -0.250682 5.15357e-24)
(-0.745996 -0.00856207 -1.01049e-24)
(-1.14111 -1.82142 9.25492e-23)
(-0.831255 -1.4104 7.37944e-23)
(-1.17972 -1.56652 0)
(-0.767876 -1.72172 -1.28999e-23)
(-1.12461 -1.76292 -1.69956e-23)
(-0.753245 -1.35476 -6.93949e-24)
(-1.12857 -1.36406 2.85465e-23)
(-0.698605 -0.86414 -1.28189e-23)
(-1.06536 -0.808594 6.951e-24)
(-0.810528 -0.586071 1.07454e-23)
(-1.11154 -0.32638 7.65394e-25)
(-0.816921 0.155742 1.48798e-24)
(-1.10873 -2.1088 2.68846e-23)
(-0.734532 -1.61372 2.43084e-24)
(-1.13496 -1.56814 -8.68346e-25)
(-0.601457 -1.46983 3.34387e-23)
(-1.03564 -1.55707 1.19283e-23)
(-0.737403 -1.23368 -1.65325e-23)
(-0.976319 -1.22755 1.56599e-24)
(-0.846691 -1.10449 3.56752e-23)
(-1.13308 -0.865482 9.90099e-24)
(-0.874714 -0.664417 1.11602e-23)
(-1.07953 -0.352238 0)
(-0.991604 -0.0663681 -9.06719e-33)
(-1.04689 -2.15816 1.88716e-23)
(-0.605134 -1.81738 8.55376e-23)
(-1.01947 -1.63909 -2.69052e-23)
(-0.55368 -1.56425 -3.80823e-23)
(-0.847859 -1.56427 3.70213e-23)
(-0.624812 -1.36832 7.37767e-24)
(-0.8626 -1.30347 -2.29954e-23)
(-0.762118 -0.909963 5.62785e-33)
(-1.15807 -0.811717 3.17902e-23)
(-1.07191 -0.630968 0)
(-1.2962 -0.329158 0)
(-0.854098 0.238059 -2.04064e-24)
(-0.959709 -1.86448 -2.86916e-23)
(-0.554261 -1.99598 -6.72596e-23)
(-0.718648 -1.67894 0)
(-0.415755 -1.47489 0)
(-0.601671 -1.51384 -2.9078e-23)
(-0.41908 -1.20248 -1.91962e-23)
(-0.713761 -1.06189 -7.5171e-24)
(-0.899609 -0.812877 -1.72772e-23)
(-1.26767 -0.703008 1.1693e-23)
(-1.09829 -0.745 1.36238e-23)
(-1.13584 -0.553026 1.53752e-23)
(-1.27863 -0.0505704 2.45042e-24)
(-0.820232 -1.66827 7.40332e-24)
(-0.397119 -1.81344 1.38219e-22)
(-0.509453 -1.84682 3.47205e-23)
(-0.16335 -1.49428 1.25822e-23)
(-0.355644 -1.38158 2.42767e-24)
(-0.274382 -1.14384 0)
(-0.526271 -0.938117 -2.31241e-24)
(-0.653445 -0.507723 1.05166e-24)
(-0.991244 -0.507459 7.83674e-24)
(-0.82933 -0.625256 8.00061e-24)
(-1.49895 -0.335216 1.57158e-23)
(-1.02522 0.301546 3.73652e-24)
(-0.864643 -1.70699 -4.11379e-23)
(-0.098483 -1.85765 0)
(-0.218679 -1.78129 -1.47681e-23)
(-0.00877184 -1.53723 2.54603e-24)
(-0.14289 -1.43697 -1.11742e-23)
(-0.0140438 -1.10759 -4.68185e-24)
(-0.205045 -0.781931 4.95066e-23)
(-0.639895 -0.393963 1.68777e-23)
(-0.412562 -0.345364 -7.33086e-24)
(-0.833503 -0.352436 8.5095e-25)
(-0.998966 -0.298635 3.19321e-24)
(-1.34783 -0.0896809 -4.1918e-25)
(-0.481958 -1.50976 -2.28964e-23)
(0.139512 -1.74391 0)
(0.0313397 -1.75087 -8.19233e-23)
(0.217619 -1.52286 -1.20082e-23)
(0.0746045 -1.4229 4.53252e-23)
(0.0654998 -1.05974 4.28764e-23)
(-0.422536 -0.66806 5.37731e-23)
(-0.0935419 -0.294713 7.21048e-23)
(-0.533653 -0.28458 4.16755e-23)
(-0.313141 0.0336012 -1.50836e-23)
(-1.20125 0.0109691 9.17578e-24)
(-0.99872 0.715368 1.94301e-24)
(-0.0915279 -1.62207 -2.88251e-23)
(0.360645 -1.79288 0)
(0.238288 -1.72165 -2.76288e-23)
(0.372858 -1.52347 5.61296e-23)
(0.18783 -1.39258 7.88387e-23)
(-0.0650954 -1.00974 7.07039e-23)
(0.0453412 -0.730116 0)
(-0.0274106 -0.208331 1.09242e-22)
(0.017256 -0.106857 -1.34071e-23)
(-0.303853 0.15839 0)
(-0.458384 0.402894 -6.53185e-24)
(-1.32659 0.489615 -6.49293e-25)
(-0.643218 -0.407218 7.79238e-24)
(0.00847167 -0.533903 5.53438e-23)
(-0.0782461 -0.21732 -4.54371e-24)
(-0.0857229 -0.421764 -2.75123e-23)
(-0.822473 -0.608665 1.94172e-23)
(-0.0287107 1.10212 -1.20494e-23)
(-1.2203 2.18765 2.68407e-23)
(-1.5041 1.41995 3.93028e-22)
(-1.67092 2.24878 1.16391e-22)
(-1.88736 1.87055 7.23024e-23)
(-1.69205 2.40846 -3.71139e-23)
(-1.88961 2.1149 2.53018e-23)
(-0.541118 -1.25287 -5.30673e-24)
(-0.925863 -0.821306 -6.40993e-24)
(-0.873245 0.676758 -1.03631e-23)
(-1.04313 1.34222 4.48432e-23)
(-2.40077 2.1253 5.19127e-24)
(-2.03022 1.93208 0)
(-2.5629 1.88385 1.33105e-23)
(-2.49591 1.56573 0)
(-2.75259 1.85638 2.65691e-23)
(-2.57493 1.60618 6.99553e-23)
(-2.50158 1.81332 0)
(-2.352 1.62811 7.13638e-23)
(-0.806363 0.285495 -1.485e-23)
(-1.47949 0.968712 1.12405e-23)
(-2.07027 1.19399 -2.10689e-23)
(-1.85148 2.05678 0)
(-2.34854 2.28783 -4.48394e-23)
(-2.23829 2.43061 -9.46751e-25)
(-2.36419 2.18278 -9.69856e-23)
(-2.16777 2.00242 3.79586e-23)
(-2.36106 2.02936 7.4507e-23)
(-2.15488 1.79155 8.98787e-32)
(-2.14931 1.99327 5.26711e-25)
(-2.00122 1.73935 2.57566e-23)
(-1.62124 -0.889496 -6.62287e-24)
(-0.646326 0.575547 1.95684e-23)
(-1.53162 1.7542 1.0349e-23)
(-1.74272 2.45064 -1.75604e-23)
(-2.519 2.05146 -6.62018e-23)
(-2.24307 2.26211 1.56564e-23)
(-2.34821 1.77233 0)
(-2.29757 1.75381 -8.70592e-24)
(-2.31223 1.62934 0)
(-2.32829 1.37202 -6.01702e-24)
(-2.15891 1.57131 -1.55101e-22)
(-2.21013 1.50298 -1.62887e-22)
(-1.58032 1.29768 -2.33518e-24)
(-2.01423 1.64511 -2.02763e-23)
(-2.34702 1.93004 -5.61862e-23)
(-2.29392 2.21786 -1.08346e-22)
(-2.27241 2.3586 2.27634e-23)
(-2.2183 1.95339 -4.21816e-24)
(-2.35044 1.70781 3.67046e-24)
(-2.26112 1.80795 -1.05942e-23)
(-2.22496 1.52937 0)
(-2.31057 1.54485 1.62776e-23)
(-1.95001 1.54234 -2.97417e-23)
(-2.1231 1.67672 0)
(-1.28953 0.861793 -2.66911e-23)
(-1.22372 1.40207 -5.35625e-23)
(-1.49884 2.68117 0)
(-1.6931 2.98579 2.77597e-23)
(-2.24157 2.27724 0)
(-2.27585 1.75016 0)
(-2.456 1.85077 -1.37205e-22)
(-2.26123 1.54602 -6.80629e-23)
(-2.40998 1.61098 0)
(-2.2124 1.20734 2.1636e-22)
(-2.07058 1.58442 8.56604e-23)
(-2.23216 1.46288 8.97545e-24)
(-1.12885 1.70023 -1.34906e-23)
(-1.4675 2.20831 -4.68784e-23)
(-2.04135 2.63967 -3.78697e-23)
(-2.29815 2.3368 -3.47748e-23)
(-2.47978 1.93632 0)
(-2.26408 1.86352 4.83144e-23)
(-2.37107 1.76189 9.15718e-23)
(-2.41121 1.52148 3.71968e-23)
(-2.40192 1.55414 0)
(-2.10155 0.913363 -3.48772e-22)
(-1.41736 1.23593 -1.15919e-22)
(-1.8043 1.21221 1.03182e-22)
(-1.3741 1.51622 3.01038e-24)
(-1.47054 1.98814 1.9147e-23)
(-1.67449 2.7693 -1.89728e-24)
(-1.6335 2.82452 1.18677e-22)
(-1.67241 2.44654 5.81166e-24)
(-2.10304 1.97364 -6.76771e-23)
(-2.51748 1.76595 1.98264e-22)
(-2.68815 1.87809 4.78119e-22)
(-2.66047 1.32384 1.86541e-22)