/*--------------------------------*- C++ -*----------------------------------*\
| =========                 |                                                 |
| \\      /  F ield         | OpenFOAM: The Open Source CFD Toolbox           |
|  \\    /   O peration     | Version:  v1606+                                |
|   \\  /    A nd           | Web:      www.OpenFOAM.com                      |
|    \\/     M anipulation  |                                                 |
\*---------------------------------------------------------------------------*/
FoamFile
{
    version     2.0;
    format      ascii;
    class       volScalarField;
    location    "0.52";
    object      alpha.particlesMean;
}
// * * * * * * * * * * * * * * * * * * * * * * * * * * * * * * * * * * * * * //

dimensions      [0 0 0 0 0 0 0];

internalField   nonuniform List<scalar> 
6000
(
0.407099
0.410991
0.410152
0.409637
0.408167
0.40686
0.404761
0.403047
0.401578
0.400824
0.400754
0.400742
0.400288
0.400064
0.399485
0.399809
0.400108
0.400609
0.400631
0.40056
0.400993
0.401956
0.403252
0.405013
0.406757
0.40817
0.409835
0.410464
0.411315
0.406233
0.388538
0.391403
0.390156
0.389146
0.387693
0.387059
0.38644
0.38612
0.385611
0.385522
0.385558
0.385604
0.38557
0.38558
0.385734
0.385767
0.385583
0.385558
0.385565
0.385488
0.38543
0.385535
0.386077
0.3864
0.387004
0.387746
0.389163
0.390206
0.39122
0.388306
0.387472
0.398035
0.396121
0.396045
0.39452
0.394632
0.394059
0.393659
0.392398
0.39133
0.390603
0.390529
0.39042
0.390024
0.389763
0.389673
0.390034
0.390325
0.390497
0.390565
0.391282
0.392323
0.393636
0.394116
0.394603
0.394597
0.396138
0.396395
0.397967
0.387355
0.38127
0.388188
0.385974
0.388288
0.389182
0.3902
0.390102
0.390336
0.389488
0.388451
0.387365
0.386682
0.386508
0.386092
0.385673
0.385625
0.386086
0.386358
0.386617
0.387338
0.388411
0.389357
0.390203
0.390133
0.390137
0.389189
0.388272
0.385893
0.387981
0.380945
0.374979
0.378712
0.378468
0.383246
0.383895
0.383593
0.382103
0.380756
0.379731
0.379173
0.378672
0.377532
0.377181
0.377112
0.377019
0.377006
0.377124
0.377115
0.377566
0.378699
0.379128
0.379697
0.3808
0.382365
0.383878
0.38421
0.383367
0.37835
0.378274
0.374596
0.370062
0.374531
0.378981
0.383401
0.383154
0.382417
0.380185
0.376126
0.371205
0.367564
0.366506
0.365598
0.365121
0.365412
0.365711
0.365663
0.365468
0.3652
0.365866
0.366716
0.367791
0.371605
0.376725
0.380907
0.383088
0.383747
0.383766
0.378894
0.374073
0.369789
0.368816
0.378914
0.383981
0.387778
0.388847
0.388482
0.386235
0.381734
0.373803
0.364654
0.359095
0.35728
0.355984
0.355777
0.356165
0.356139
0.355927
0.356327
0.357774
0.359589
0.365375
0.374608
0.382592
0.386987
0.389214
0.389526
0.388339
0.384257
0.378517
0.368369
0.37393
0.383861
0.386669
0.391967
0.397193
0.398488
0.395
0.390133
0.382418
0.369892
0.356934
0.35204
0.349753
0.348012
0.348019
0.348026
0.348347
0.350357
0.352596
0.357735
0.371099
0.383368
0.390847
0.395698
0.399249
0.397952
0.392769
0.387382
0.384088
0.373697
0.377502
0.380044
0.383901
0.39452
0.404841
0.408697
0.40485
0.397876
0.390972
0.380005
0.359185
0.346162
0.342994
0.339805
0.338919
0.338963
0.340364
0.343663
0.346769
0.360546
0.38155
0.391908
0.398634
0.405561
0.409305
0.405344
0.395078
0.384285
0.380417
0.378482
0.369887
0.370652
0.377125
0.393727
0.408562
0.414547
0.412107
0.404887
0.397715
0.389969
0.367483
0.342323
0.336083
0.332248
0.330493
0.330616
0.332948
0.336516
0.343264
0.369562
0.391339
0.398576
0.405741
0.412722
0.41486
0.408641
0.393584
0.376828
0.37078
0.371563
0.357477
0.359108
0.368625
0.390561
0.409153
0.418208
0.418115
0.411595
0.403543
0.395929
0.377227
0.343093
0.330105
0.326741
0.324853
0.324999
0.327275
0.330277
0.34497
0.379608
0.396942
0.404355
0.412459
0.418744
0.418496
0.40898
0.389919
0.367784
0.359246
0.359343
0.344041
0.346975
0.358856
0.386045
0.4085
0.422198
0.426156
0.419839
0.408826
0.398594
0.383844
0.349192
0.325673
0.322681
0.321646
0.321715
0.322814
0.326106
0.352337
0.386401
0.399516
0.409591
0.420726
0.426767
0.422409
0.408125
0.384957
0.357658
0.347191
0.345754
0.331425
0.335123
0.34818
0.380149
0.406864
0.425439
0.434181
0.428345
0.412923
0.398647
0.388735
0.358837
0.324886
0.319816
0.319906
0.319862
0.319673
0.326135
0.362767
0.390844
0.399813
0.413786
0.429264
0.434709
0.425524
0.406379
0.378676
0.347005
0.335266
0.332822
0.320113
0.323949
0.337284
0.372267
0.403695
0.426317
0.440236
0.435436
0.41626
0.398914
0.39037
0.368237
0.330578
0.319531
0.320061
0.319912
0.319305
0.333107
0.371847
0.391759
0.399935
0.417261
0.436541
0.440857
0.426337
0.403172
0.370334
0.336075
0.323878
0.321263
0.309881
0.313919
0.326761
0.361675
0.397867
0.424825
0.444685
0.441113
0.418956
0.399613
0.391341
0.378283
0.343086
0.323388
0.322951
0.322746
0.323619
0.346932
0.381535
0.392217
0.40041
0.419972
0.442427
0.445496
0.424788
0.396781
0.359077
0.325588
0.313784
0.310801
0.301207
0.306346
0.317981
0.348142
0.387952
0.422076
0.448816
0.446361
0.421598
0.400575
0.392421
0.387642
0.361126
0.333754
0.330012
0.329923
0.33511
0.364703
0.388843
0.393421
0.401689
0.422943
0.448008
0.449764
0.421388
0.386179
0.345282
0.316956
0.306243
0.302018
0.295254
0.304282
0.314355
0.336616
0.375628
0.414756
0.451442
0.451571
0.426075
0.403925
0.393146
0.389847
0.375961
0.349738
0.342784
0.343033
0.351604
0.377721
0.39005
0.3939
0.405396
0.427913
0.453157
0.451621
0.413206
0.372912
0.334565
0.313771
0.304268
0.295863
0.295814
0.308982
0.317588
0.333214
0.362697
0.40193
0.44373
0.453076
0.432322
0.409128
0.392378
0.385744
0.379253
0.362522
0.355085
0.355589
0.364209
0.379959
0.385543
0.393143
0.410845
0.434165
0.453652
0.441621
0.400389
0.360469
0.332419
0.317515
0.309143
0.296167
0.302042
0.31723
0.326005
0.33679
0.354762
0.389829
0.422221
0.444294
0.436879
0.414829
0.39157
0.375538
0.370749
0.363413
0.358603
0.359057
0.364396
0.370644
0.375687
0.393047
0.416726
0.437928
0.441637
0.417831
0.38705
0.354112
0.336965
0.326443
0.317501
0.302281
0.310077
0.324609
0.333061
0.340221
0.349805
0.369889
0.394089
0.412379
0.427333
0.418753
0.392318
0.365387
0.354432
0.354132
0.353145
0.35348
0.354226
0.354358
0.366155
0.393942
0.419821
0.425199
0.407939
0.389402
0.365753
0.348467
0.339647
0.332935
0.324362
0.309979
0.316106
0.325807
0.328854
0.332124
0.337383
0.347244
0.37123
0.390602
0.405768
0.406465
0.387738
0.361688
0.346426
0.345645
0.346297
0.346446
0.345592
0.347267
0.363251
0.388861
0.406348
0.404196
0.388546
0.3685
0.344438
0.335095
0.329699
0.326707
0.324739
0.315328
0.313552
0.318847
0.317728
0.319966
0.328781
0.342976
0.366457
0.389633
0.404709
0.404423
0.38834
0.366666
0.351467
0.346296
0.346248
0.346342
0.346641
0.352666
0.368472
0.389952
0.405183
0.404591
0.38875
0.365337
0.342739
0.328068
0.318435
0.315132
0.316425
0.311646
0.306992
0.3106
0.311366
0.319074
0.333138
0.349203
0.3706
0.395598
0.413504
0.413841
0.397742
0.377121
0.361908
0.35492
0.353899
0.354033
0.355536
0.363198
0.378928
0.399506
0.41489
0.41337
0.394713
0.370159
0.34946
0.333152
0.319178
0.310639
0.3089
0.305185
0.308596
0.309049
0.313589
0.3258
0.339771
0.357037
0.377066
0.401339
0.421863
0.425355
0.409975
0.38865
0.372564
0.365249
0.364076
0.364232
0.365924
0.373934
0.390476
0.411607
0.426048
0.421318
0.400436
0.376958
0.357336
0.340037
0.326033
0.313702
0.308174
0.307622
0.313488
0.309838
0.320318
0.333239
0.347934
0.36567
0.384098
0.406094
0.427927
0.435194
0.42171
0.399864
0.382803
0.375258
0.374115
0.374309
0.37595
0.384222
0.40171
0.423163
0.435474
0.427224
0.405391
0.384037
0.366017
0.34841
0.333335
0.320573
0.30928
0.312529
0.317101
0.314973
0.328625
0.341286
0.358073
0.374568
0.390388
0.410242
0.432261
0.443175
0.432646
0.410534
0.392486
0.384707
0.383652
0.38386
0.385404
0.393951
0.412408
0.433927
0.443115
0.431561
0.409791
0.390365
0.374875
0.358692
0.341706
0.328835
0.314748
0.316132
0.320717
0.32335
0.338411
0.353002
0.368662
0.382327
0.396028
0.414112
0.43553
0.449335
0.442654
0.420532
0.401584
0.393553
0.392588
0.392795
0.394259
0.403066
0.42237
0.443669
0.449077
0.434978
0.413907
0.396125
0.382614
0.369197
0.353752
0.338819
0.323351
0.319923
0.326546
0.33425
0.351217
0.365341
0.3779
0.389328
0.401649
0.417871
0.438534
0.454221
0.451429
0.429766
0.410171
0.402074
0.401199
0.401402
0.402775
0.411633
0.431561
0.452141
0.453834
0.438186
0.417934
0.401916
0.389662
0.378325
0.365922
0.351803
0.334665
0.3262
0.335366
0.34974
0.364025
0.375649
0.386137
0.39634
0.407629
0.421962
0.441188
0.458038
0.458574
0.438355
0.418646
0.41052
0.409712
0.409914
0.411218
0.420063
0.440104
0.459039
0.457644
0.440982
0.422117
0.408015
0.396743
0.386533
0.37607
0.364496
0.350322
0.335322
0.346455
0.364406
0.375169
0.384814
0.394269
0.403651
0.413834
0.426228
0.443021
0.460401
0.464119
0.446716
0.427205
0.418917
0.41811
0.418319
0.419619
0.428639
0.448476
0.464454
0.460044
0.442797
0.42649
0.414285
0.404118
0.394715
0.385213
0.375557
0.364784
0.346541
0.35788
0.376359
0.385233
0.39382
0.402567
0.410886
0.419482
0.429581
0.444164
0.460735
0.468623
0.454854
0.435793
0.427294
0.426372
0.426601
0.428028
0.437296
0.456495
0.468974
0.460459
0.444029
0.429907
0.419971
0.411418
0.4031
0.394291
0.385611
0.376594
0.358009
0.369134
0.386904
0.394931
0.402905
0.410532
0.416874
0.422787
0.430492
0.443971
0.460796
0.472906
0.462667
0.444482
0.435666
0.434506
0.434747
0.436441
0.446052
0.464266
0.473277
0.460629
0.44398
0.430911
0.423289
0.417417
0.411113
0.403454
0.395346
0.387088
0.36924
0.379559
0.396636
0.4044
0.411737
0.416784
0.419802
0.423378
0.430188
0.444116
0.462336
0.477395
0.470481
0.453242
0.44407
0.442564
0.442801
0.444846
0.454806
0.472056
0.477814
0.462404
0.44441
0.43069
0.423899
0.420387
0.417309
0.412269
0.404835
0.39684
0.379723
0.389841
0.406069
0.413636
0.418475
0.419857
0.420078
0.42283
0.431419
0.447016
0.466398
0.482614
0.478379
0.462022
0.452481
0.450565
0.450796
0.45322
0.463607
0.479935
0.483147
0.466695
0.447708
0.432143
0.423484
0.420598
0.420343
0.418884
0.414056
0.406292
0.390089
0.400359
0.415309
0.421088
0.421778
0.419974
0.418813
0.42394
0.43556
0.453229
0.472692
0.488229
0.486029
0.470727
0.460791
0.458431
0.45864
0.461379
0.472039
0.487519
0.489198
0.473191
0.454219
0.436619
0.424824
0.419468
0.420383
0.42215
0.421301
0.415537
0.400648
0.411392
0.423339
0.425099
0.422489
0.418508
0.420372
0.428477
0.44255
0.461412
0.480013
0.493822
0.493141
0.479113
0.469093
0.466393
0.466507
0.469392
0.479949
0.494407
0.4951
0.480632
0.462484
0.443832
0.429492
0.421028
0.419085
0.422741
0.425295
0.423447
0.411681
0.422002
0.427639
0.42739
0.421998
0.419113
0.424106
0.435718
0.451949
0.47062
0.48773
0.500227
0.499865
0.487174
0.477573
0.474913
0.475021
0.477747
0.48761
0.50081
0.501362
0.488408
0.471598
0.453205
0.436935
0.424817
0.419858
0.422422
0.427614
0.427722
0.422157
0.430753
0.431205
0.428484
0.421459
0.422386
0.431189
0.446225
0.463463
0.480511
0.495968
0.507111
0.506749
0.495206
0.486073
0.483482
0.483589
0.486167
0.495273
0.507413
0.50818
0.496828
0.4814
0.464691
0.447586
0.432154
0.423319
0.422174
0.428984
0.431414
0.430752
0.437741
0.434151
0.429046
0.423436
0.430184
0.4417
0.458131
0.47512
0.490567
0.504414
0.514236
0.513419
0.502838
0.494177
0.491508
0.491609
0.494178
0.50263
0.513708
0.515143
0.505478
0.491632
0.476449
0.459773
0.443259
0.431359
0.424051
0.429868
0.434694
0.437708
0.442918
0.434498
0.434436
0.431848
0.441106
0.454089
0.471386
0.486892
0.500351
0.512362
0.520619
0.519515
0.509944
0.501682
0.498886
0.498962
0.501564
0.509531
0.519501
0.521309
0.513484
0.501568
0.488324
0.473226
0.455746
0.441819
0.432309
0.43526
0.435834
0.443084
0.446644
0.439055
0.444062
0.444841
0.454687
0.466699
0.483514
0.497157
0.508666
0.518854
0.525751
0.524635
0.516435
0.508946
0.506221
0.506271
0.508784
0.515903
0.5244
0.526195
0.519904
0.509854
0.49853
0.485328
0.468486
0.455252
0.445141
0.44463
0.4397
0.446802
0.449063
0.446869
0.453715
0.456617
0.466084
0.477161
0.492282
0.504646
0.51461
0.523289
0.529374
0.52892
0.522651
0.516155
0.513577
0.513611
0.515957
0.522032
0.528534
0.52952
0.524092
0.515664
0.505987
0.49417
0.479045
0.467235
0.457231
0.454378
0.447713
0.449222
0.454478
0.457557
0.464365
0.466271
0.474935
0.485892
0.498767
0.509438
0.517721
0.52509
0.531453
0.53247
0.528318
0.522846
0.520516
0.520563
0.522704
0.527762
0.532048
0.531553
0.525593
0.518671
0.510823
0.500682
0.487982
0.476538
0.467124
0.464754
0.457984
0.454653
0.465082
0.470402
0.475056
0.476251
0.484118
0.494366
0.504286
0.512107
0.518409
0.525402
0.532657
0.535375
0.533093
0.528827
0.526849
0.52697
0.528961
0.53303
0.535324
0.533163
0.526023
0.519423
0.513361
0.505959
0.496375
0.48601
0.477141
0.475279
0.470334
0.465162
0.47651
0.482223
0.485987
0.488663
0.495277
0.503259
0.509328
0.513755
0.518927
0.527088
0.534463
0.53839
0.537346
0.53444
0.532965
0.533158
0.534844
0.537725
0.538791
0.53536
0.528338
0.520215
0.514953
0.510658
0.50467
0.496868
0.48954
0.486182
0.482373
0.476466
0.486431
0.493794
0.497667
0.501216
0.506153
0.51029
0.512712
0.515802
0.52166
0.530801
0.537784
0.541575
0.54139
0.539804
0.538946
0.539165
0.54035
0.542044
0.542322
0.538856
0.532375
0.523125
0.517301
0.514022
0.511423
0.507152
0.502007
0.498259
0.494175
0.486471
0.495828
0.505974
0.50912
0.511362
0.513437
0.514132
0.515052
0.51935
0.526829
0.535502
0.541745
0.544844
0.545304
0.54475
0.544418
0.54462
0.545301
0.546052
0.545722
0.542807
0.536974
0.52823
0.520805
0.516395
0.51512
0.514287
0.512244
0.509875
0.506805
0.496163
0.506035
0.517454
0.517896
0.517858
0.517356
0.515993
0.517659
0.524481
0.532672
0.539721
0.545406
0.547994
0.548824
0.548943
0.548958
0.549128
0.549437
0.54959
0.548947
0.546479
0.540952
0.533813
0.525681
0.518942
0.51701
0.518078
0.518683
0.518859
0.518347
0.507026
0.515926
0.524654
0.523669
0.52186
0.519315
0.517843
0.522285
0.530337
0.537192
0.542794
0.548178
0.550678
0.551701
0.552135
0.552342
0.552487
0.552581
0.552463
0.551755
0.549477
0.54401
0.538152
0.531115
0.523082
0.518538
0.519871
0.522456
0.524413
0.525224
0.517081
0.523569
0.529224
0.528058
0.524445
0.520527
0.521354
0.52713
0.534702
0.539503
0.544513
0.54987
0.552566
0.553733
0.554294
0.554592
0.554724
0.554735
0.554552
0.553912
0.5518
0.546357
0.541554
0.535986
0.527335
0.521346
0.520532
0.524647
0.528331
0.529402
0.524411
0.530071
0.532569
0.531483
0.525868
0.523212
0.524411
0.530388
0.537301
0.540913
0.545102
0.550709
0.553679
0.555002
0.55563
0.555974
0.556095
0.556089
0.55591
0.55539
0.553652
0.548728
0.544743
0.540151
0.531098
0.524248
0.52212
0.524881
0.531461
0.53267
0.530762
0.534831
0.534822
0.533541
0.526291
0.524836
0.525717
0.532588
0.540119
0.542776
0.545441
0.551355
0.554481
0.55589
0.556543
0.556886
0.556994
0.556981
0.556796
0.556408
0.555166
0.551484
0.548069
0.543319
0.535154
0.526249
0.522092
0.523503
0.5319
0.534607
0.535188
0.537314
0.535561
0.532976
0.524776
0.522658
0.526986
0.534995
0.542
0.544817
0.546792
0.552352
0.555435
0.55675
0.557354
0.557649
0.557738
0.55771
0.557539
0.557188
0.556399
0.554406
0.552343
0.54743
0.540249
0.530202
0.52367
0.521313
0.529863
0.533244
0.537244
0.537738
0.53407
0.52869
0.519584
0.522754
0.530113
0.538549
0.544063
0.547184
0.549219
0.553989
0.556618
0.557723
0.5582
0.558411
0.558476
0.558439
0.558263
0.557906
0.557257
0.556163
0.555395
0.553231
0.547541
0.536905
0.52971
0.521005
0.527821
0.529462
0.536291
0.536814
0.528212
0.524313
0.521331
0.528323
0.535058
0.542541
0.546004
0.548751
0.551875
0.555878
0.557935
0.558739
0.559051
0.559177
0.559215
0.559184
0.559029
0.558643
0.557846
0.556618
0.555773
0.556145
0.555036
0.548509
0.538872
0.527722
0.526971
0.525104
0.534435
0.535355
0.521663
0.527864
0.528395
0.536788
0.542074
0.545594
0.5459
0.550088
0.554312
0.55771
0.559189
0.55969
0.55985
0.559898
0.5599
0.559862
0.559733
0.559359
0.558413
0.556576
0.554529
0.554267
0.556561
0.556718
0.551941
0.539877
0.533762
0.522895
0.53163
0.531011
0.524876
0.535535
0.539957
0.545948
0.546303
0.544992
0.545933
0.551855
0.556633
0.559343
0.560292
0.560526
0.560543
0.56051
0.560462
0.560394
0.560261
0.559915
0.558973
0.556754
0.553599
0.550316
0.552737
0.556501
0.558301
0.553838
0.545412
0.531369
0.530074
0.530077
0.534933
0.546872
0.548439
0.547526
0.543854
0.542875
0.547794
0.554245
0.558902
0.560767
0.561233
0.561222
0.561103
0.560982
0.560873
0.56076
0.560601
0.560273
0.559415
0.557133
0.553149
0.548029
0.547589
0.551162
0.556081
0.559045
0.556484
0.543555
0.534352
0.537161
0.548029
0.551333
0.54746
0.542663
0.539755
0.543553
0.551408
0.557486
0.561021
0.561997
0.562014
0.56177
0.561517
0.561309
0.561147
0.561012
0.560853
0.560529
0.559696
0.557462
0.552678
0.546989
0.542389
0.544389
0.550267
0.555841
0.559561
0.556105
0.542648
0.548033
0.550858
0.547587
0.540034
0.536754
0.541335
0.548398
0.556053
0.560909
0.562792
0.562932
0.562542
0.562093
0.561726
0.561451
0.561271
0.561149
0.561022
0.560744
0.559946
0.557784
0.552372
0.545272
0.53739
0.536557
0.542543
0.549849
0.556244
0.558872
0.551929
0.551988
0.54461
0.539975
0.528133
0.537416
0.546407
0.554873
0.560865
0.563567
0.563934
0.563406
0.562707
0.562104
0.561676
0.561386
0.561239
0.561172
0.561151
0.561002
0.560353
0.558262
0.552627
0.542838
0.532232
0.528368
0.532585
0.542011
0.550864
0.555496
0.557153
0.547644
0.535273
0.523208
0.526771
0.543348
0.554263
0.561438
0.564431
0.564926
0.564276
0.563306
0.562418
0.561775
0.561477
0.561322
0.561258
0.561232
0.561252
0.561298
0.561015
0.559333
0.554025
0.542645
0.529485
0.520784
0.523163
0.531022
0.54445
0.550444
0.556825
0.541231
0.516029
0.524145
0.534337
0.55342
0.562374
0.565543
0.565877
0.56505
0.563814
0.562571
0.561706
0.561351
0.561228
0.561206
0.561232
0.561276
0.561324
0.561462
0.561601
0.560924
0.557028
0.547389
0.534012
0.521365
0.515071
0.522213
0.53482
0.544165
0.553007
0.529513
0.518709
0.533966
0.549193
0.562902
0.566743
0.566855
0.56574
0.564213
0.562555
0.561341
0.560902
0.560862
0.560882
0.56096
0.561057
0.561168
0.561277
0.561395
0.561614
0.561812
0.560036
0.553961
0.543743
0.530498
0.519318
0.514614
0.526738
0.532389
0.547721
0.521231
0.526944
0.549578
0.562314
0.567531
0.56781
0.566466
0.564514
0.562282
0.560486
0.559917
0.560009
0.560186
0.560321
0.560438
0.560572
0.560725
0.560854
0.560919
0.561001
0.561304
0.561434
0.558912
0.553126
0.542453
0.530718
0.520357
0.521537
0.526132
0.539892
0.527316
0.544297
0.561905
0.567687
0.568507
0.567238
0.564787
0.561811
0.558848
0.557996
0.558342
0.558925
0.559308
0.559491
0.559612
0.559755
0.559922
0.560048
0.560017
0.559763
0.559636
0.56
0.560754
0.558842
0.552793
0.543529
0.532466
0.52621
0.522119
0.533992
0.538871
0.559547
0.567436
0.568825
0.567905
0.564949
0.561174
0.557253
0.554567
0.55539
0.556566
0.557681
0.55819
0.558416
0.558555
0.558697
0.558844
0.558926
0.558783
0.558144
0.557141
0.556214
0.557883
0.559642
0.558509
0.553811
0.545745
0.539503
0.527337
0.531726
0.550828
0.56581
0.568901
0.568433
0.565286
0.560314
0.554961
0.55075
0.549465
0.552256
0.55449
0.55611
0.556836
0.557198
0.557406
0.557554
0.557633
0.557584
0.557207
0.556092
0.553988
0.551358
0.551788
0.555345
0.558573
0.559297
0.555988
0.551674
0.538934
0.533656
0.55984
0.567784
0.568797
0.566095
0.560313
0.553469
0.547047
0.543974
0.544414
0.548398
0.551784
0.554127
0.555304
0.555963
0.556328
0.556503
0.556455
0.556139
0.555311
0.553475
0.550151
0.546279
0.545627
0.54799
0.553372
0.55823
0.560599
0.559894
0.550524
0.539734
0.564295
0.568347
0.566912
0.560946
0.553101
0.544801
0.538555
0.537993
0.539575
0.543686
0.548081
0.551615
0.55369
0.554891
0.555538
0.555721
0.55549
0.554719
0.553065
0.550048
0.545179
0.540756
0.539698
0.540187
0.545091
0.55234
0.558349
0.561885
0.559574
0.548296
0.566247
0.566984
0.561988
0.553677
0.544447
0.535433
0.531273
0.532493
0.53419
0.537801
0.542934
0.548601
0.552288
0.55434
0.555324
0.555541
0.555027
0.553604
0.550595
0.545686
0.538462
0.535211
0.533332
0.532975
0.536621
0.544097
0.552384
0.55895
0.561428
0.555773
0.56629
0.561772
0.55547
0.545794
0.535392
0.527395
0.525706
0.527045
0.529238
0.531381
0.537215
0.545573
0.551439
0.55447
0.555735
0.556014
0.555312
0.553184
0.548614
0.541073
0.531708
0.530199
0.528103
0.526962
0.528756
0.535607
0.544882
0.553568
0.558325
0.559326
0.563911
0.555606
0.548629
0.537314
0.526497
0.521063
0.520191
0.523071
0.526021
0.528492
0.533662
0.543539
0.551286
0.554908
0.55636
0.556714
0.556018
0.553584
0.547969
0.538062
0.529496
0.527605
0.524755
0.522266
0.522625
0.527229
0.53635
0.547385
0.553788
0.559078
0.559986
0.550123
0.541702
0.52831
0.519739
0.515902
0.517004
0.520801
0.525563
0.529403
0.533884
0.543433
0.551899
0.555617
0.557067
0.55749
0.556917
0.554633
0.548767
0.538085
0.531702
0.52867
0.52391
0.519581
0.519119
0.522214
0.528141
0.540168
0.548282
0.556559
0.554477
0.542649
0.534698
0.522076
0.516456
0.511783
0.515607
0.521028
0.527972
0.532916
0.537604
0.54563
0.5531
0.556398
0.55771
0.558167
0.557807
0.555865
0.550278
0.541238
0.537584
0.533011
0.525851
0.519662
0.51709
0.520215
0.525476
0.536566
0.539531
0.55163
0.547727
0.534926
0.534049
0.521084
0.515986
0.512745
0.516665
0.524543
0.532792
0.538624
0.542668
0.548067
0.55422
0.557062
0.558217
0.558669
0.558503
0.556972
0.551894
0.545138
0.542899
0.537966
0.530272
0.522372
0.51671
0.519018
0.525339
0.536718
0.535477
0.545128
0.540363
0.533665
0.537219
0.52456
0.516796
0.51666
0.522
0.529366
0.537247
0.543069
0.5464
0.549691
0.555057
0.557568
0.558574
0.558979
0.558928
0.557785
0.553434
0.54863
0.546638
0.541749
0.53436
0.526741
0.519806
0.5195
0.524925
0.538467
0.53631
0.539221
0.537554
0.535085
0.539558
0.529998
0.523214
0.522265
0.526101
0.532524
0.540399
0.546345
0.549361
0.55157
0.555889
0.558024
0.558826
0.55912
0.559104
0.558314
0.555057
0.551904
0.549183
0.544089
0.537271
0.530703
0.52587
0.523757
0.527103
0.541004
0.538159
0.539452
0.538299
0.537114
0.541724
0.536278
0.53174
0.527895
0.530426
0.535776
0.543299
0.54907
0.55183
0.553535
0.556885
0.558447
0.55893
0.559061
0.559026
0.558541
0.556557
0.554273
0.550631
0.544706
0.53811
0.53291
0.529806
0.530089
0.533399
0.544466
0.539012
0.540275
0.53851
0.539774
0.543431
0.537443
0.532694
0.531041
0.533745
0.538599
0.545437
0.550775
0.553569
0.55552
0.557816
0.558613
0.558738
0.5587
0.558602
0.558296
0.557229
0.555225
0.551147
0.544471
0.537481
0.532399
0.530784
0.532676
0.540292
0.549122
0.5422
0.540498
0.539224
0.542657
0.543255
0.535044
0.53121
0.530384
0.53382
0.540247
0.546584
0.551625
0.554692
0.556808
0.558048
0.558237
0.558115
0.557937
0.557736
0.557402
0.556602
0.554634
0.550751
0.544309
0.537546
0.53136
0.529433
0.533686
0.543115
0.550749
0.547096
0.541364
0.540258
0.542833
0.539966
0.531975
0.529147
0.529869
0.534702
0.541249
0.546529
0.551095
0.554446
0.556576
0.557226
0.557196
0.556972
0.556683
0.556321
0.555751
0.55469
0.552469
0.548923
0.5438
0.538101
0.531855
0.529696
0.53332
0.541099
0.548092
0.549006
0.542629
0.540387
0.538967
0.536384
0.530055
0.529493
0.532043
0.536353
0.541344
0.545345
0.549142
0.552603
0.554729
0.555461
0.555498
0.555273
0.554873
0.554279
0.553301
0.551623
0.548926
0.545695
0.542156
0.538015
0.533198
0.53127
0.533309
0.537173
0.544708
0.546812
0.543507
0.537879
0.535989
0.533817
0.53101
0.532997
0.534965
0.537161
0.540394
0.543454
0.54617
0.549425
0.551827
0.552987
0.553203
0.552996
0.552488
0.551631
0.550186
0.547823
0.544762
0.541825
0.539775
0.537007
0.53438
0.532856
0.534461
0.535673
0.541451
0.544386
0.542646
0.534785
0.534956
0.535477
0.535526
0.537425
0.536489
0.537167
0.538901
0.541245
0.54302
0.545836
0.548462
0.549904
0.550291
0.550078
0.549484
0.548467
0.546676
0.543924
0.540808
0.538221
0.537042
0.535237
0.534052
0.533811
0.536147
0.537569
0.541602
0.542234
0.540488
0.533668
0.536136
0.540102
0.541004
0.539218
0.536488
0.536233
0.537222
0.538961
0.540135
0.542198
0.544588
0.546138
0.54669
0.546464
0.545837
0.544817
0.542955
0.540214
0.537251
0.535054
0.534126
0.532838
0.532383
0.533321
0.536565
0.540719
0.543893
0.541444
0.538968
0.533751
0.54057
0.545099
0.543578
0.538623
0.535377
0.534284
0.534889
0.536011
0.536749
0.538111
0.54018
0.541933
0.542792
0.542722
0.542131
0.54114
0.539265
0.536699
0.533941
0.531986
0.530965
0.529867
0.529726
0.531799
0.535428
0.541987
0.546273
0.543593
0.537614
0.536604
0.544568
0.547198
0.542949
0.536788
0.533213
0.531145
0.531263
0.531961
0.532538
0.533715
0.535863
0.53805
0.539258
0.539378
0.538884
0.537932
0.535962
0.533422
0.530855
0.528782
0.527297
0.526106
0.525946
0.528755
0.532942
0.54068
0.546901
0.545823
0.539094
0.54062
0.546059
0.546947
0.54069
0.533813
0.528783
0.526453
0.526288
0.527042
0.528275
0.529844
0.532263
0.534775
0.536252
0.53637
0.536043
0.535102
0.533027
0.530421
0.528149
0.525926
0.52356
0.521659
0.521092
0.523667
0.529265
0.537517
0.546025
0.546304
0.542378
0.543207
0.546085
0.545868
0.536853
0.528059
0.522376
0.520772
0.52073
0.522458
0.524661
0.52682
0.529484
0.532191
0.533897
0.533988
0.533756
0.532859
0.530554
0.527832
0.525597
0.523153
0.520377
0.517294
0.515893
0.516785
0.52303
0.533401
0.544278
0.545618
0.544272
0.544247
0.545442
0.543325
0.529142
0.520463
0.515042
0.514449
0.515535
0.518861
0.522059
0.524861
0.527653
0.530514
0.532325
0.532528
0.532307
0.531407
0.52896
0.526158
0.523754
0.520888
0.517583
0.513441
0.510561
0.509287
0.515307
0.525461
0.541547
0.544026
0.544426
0.544034
0.542569
0.536274
0.52447
0.513776
0.508544
0.508673
0.511806
0.516484
0.520662
0.523884
0.526654
0.529541
0.531255
0.531467
0.531247
0.530426
0.528075
0.525303
0.522834
0.519689
0.515639
0.510562
0.506057
0.503545
0.509954
0.521752
0.533256
0.540343
0.543385
0.542388
0.533317
0.53003
0.521611
0.511019
0.504715
0.505856
0.509764
0.515269
0.51992
0.523462
0.526053
0.528782
0.530267
0.530507
0.530266
0.529495
0.527401
0.524816
0.522457
0.519049
0.514618
0.508692
0.503924
0.501673
0.509274
0.51993
0.527643
0.530779
0.541037
0.537786
0.525907
0.524698
0.518313
0.511673
0.506748
0.507234
0.509061
0.514598
0.519281
0.523069
0.525475
0.528005
0.529231
0.52956
0.529273
0.528528
0.526727
0.524312
0.522095
0.51849
0.513885
0.507516
0.504674
0.505265
0.510528
0.5165
0.523784
0.524902
0.535545
0.530985
0.520747
0.521095
0.515269
0.51122
0.509499
0.511021
0.510934
0.514552
0.51871
0.522467
0.524842
0.527211
0.528243
0.528575
0.528295
0.527579
0.52603
0.52372
0.521517
0.517997
0.512865
0.50818
0.508212
0.509036
0.510492
0.514164
0.520946
0.520953
0.52835
0.524466
0.517363
0.519379
0.513616
0.51196
0.511233
0.513091
0.513698
0.515335
0.518345
0.521616
0.524196
0.526396
0.527306
0.527604
0.527358
0.526695
0.525304
0.523066
0.520632
0.517199
0.511864
0.510024
0.511704
0.510886
0.511343
0.513248
0.519634
0.517604
0.522896
0.519304
0.51486
0.519431
0.514367
0.513933
0.513494
0.514922
0.515265
0.51581
0.518062
0.520895
0.523513
0.525587
0.526429
0.526693
0.526483
0.525896
0.524607
0.522386
0.519849
0.516028
0.51184
0.512348
0.514248
0.512954
0.513335
0.514492
0.52002
0.515372
0.518403
0.513807
0.515059
0.521889
0.518198
0.517649
0.516553
0.517004
0.515991
0.515759
0.517538
0.520093
0.52272
0.5247
0.525519
0.525765
0.52559
0.52508
0.523864
0.521624
0.518943
0.514857
0.512201
0.513719
0.516264
0.515872
0.517
0.518066
0.522659
0.515859
0.513402
0.510155
0.517115
0.523319
0.522001
0.521417
0.518873
0.517622
0.514972
0.513765
0.515236
0.517779
0.520268
0.522158
0.522964
0.523207
0.523074
0.522613
0.521438
0.519205
0.516507
0.512736
0.511033
0.513121
0.516668
0.518068
0.520687
0.521665
0.523852
0.517567
0.510008
0.499715
0.509452
0.514534
0.514107
0.512911
0.508925
0.5059
0.502638
0.500393
0.501329
0.503763
0.506083
0.507934
0.508709
0.508947
0.508858
0.508403
0.507256
0.505031
0.502381
0.499365
0.498502
0.501229
0.505094
0.508186
0.512133
0.513575
0.514263
0.509077
0.499572
0.455825
0.466902
0.473479
0.473332
0.471467
0.466607
0.463163
0.460418
0.457958
0.458031
0.460208
0.462476
0.464354
0.465144
0.465431
0.465346
0.464849
0.46368
0.461388
0.458873
0.456616
0.456631
0.459321
0.462567
0.466086
0.470782
0.472463
0.472627
0.466395
0.455639
0.431332
0.441454
0.449949
0.44941
0.446706
0.442408
0.440304
0.438465
0.436865
0.436669
0.438323
0.440482
0.442545
0.443412
0.443779
0.443684
0.443088
0.441832
0.439366
0.437183
0.435531
0.435772
0.437617
0.439944
0.442161
0.446355
0.448487
0.448951
0.44096
0.431051
0.416376
0.425099
0.433205
0.431192
0.428178
0.425472
0.425355
0.424277
0.423642
0.423867
0.425024
0.42675
0.428907
0.429874
0.430301
0.430212
0.429514
0.428151
0.425614
0.424006
0.422783
0.422635
0.423588
0.425203
0.425443
0.428157
0.430667
0.432417
0.424703
0.416082
0.40307
0.409171
0.416185
0.413341
0.411702
0.410867
0.412287
0.412049
0.412103
0.412857
0.413899
0.415007
0.417108
0.418164
0.418654
0.418572
0.417795
0.41632
0.413915
0.412975
0.411754
0.411176
0.411486
0.412269
0.411069
0.411878
0.413205
0.415859
0.40898
0.402857
0.387971
0.391118
0.397759
0.396263
0.396785
0.397881
0.399971
0.400654
0.401149
0.402298
0.40359
0.404257
0.406157
0.407293
0.407825
0.407766
0.406985
0.40549
0.40349
0.402998
0.401453
0.400342
0.400286
0.400113
0.398263
0.397189
0.396316
0.39767
0.391063
0.387953
0.369167
0.371089
0.378368
0.380057
0.383092
0.385253
0.388112
0.389733
0.39062
0.3921
0.39375
0.39432
0.395838
0.397008
0.397538
0.3975
0.396796
0.395418
0.39406
0.393547
0.391761
0.390235
0.389572
0.388256
0.385638
0.383605
0.380469
0.378324
0.371231
0.369154
0.348098
0.349846
0.359121
0.365347
0.369672
0.372641
0.376404
0.379081
0.380555
0.382143
0.383977
0.384736
0.385719
0.386849
0.387359
0.387346
0.386709
0.385547
0.384859
0.383895
0.382123
0.380708
0.379112
0.37639
0.372833
0.370204
0.365986
0.359642
0.350161
0.348003
0.326473
0.32798
0.342613
0.351096
0.356198
0.359804
0.36456
0.368414
0.370624
0.372066
0.373803
0.3749
0.375309
0.376323
0.376843
0.376836
0.376217
0.375388
0.375298
0.37393
0.372276
0.370965
0.368438
0.364455
0.35992
0.356689
0.351866
0.343496
0.329039
0.326384
0.305551
0.311644
0.327965
0.337116
0.342466
0.346948
0.352365
0.356842
0.360022
0.361565
0.363142
0.36429
0.364187
0.364923
0.365489
0.365471
0.364841
0.364454
0.364799
0.363448
0.361953
0.360265
0.356769
0.352223
0.347003
0.342692
0.337903
0.329176
0.31316
0.30636
0.288935
0.29804
0.313965
0.322291
0.327968