/*--------------------------------*- C++ -*----------------------------------*\
| =========                 |                                                 |
| \\      /  F ield         | OpenFOAM: The Open Source CFD Toolbox           |
|  \\    /   O peration     | Version:  v1606+                                |
|   \\  /    A nd           | Web:      www.OpenFOAM.com                      |
|    \\/     M anipulation  |                                                 |
\*---------------------------------------------------------------------------*/
FoamFile
{
    version     2.0;
    format      ascii;
    class       volVectorField;
    location    "0.52";
    object      U.particles;
}
// * * * * * * * * * * * * * * * * * * * * * * * * * * * * * * * * * * * * * //

dimensions      [0 1 -1 0 0 0 0];

internalField   nonuniform List<vector> 
6000
(
(-0.0106969 -0.46627 0)
(0.00324797 -0.509125 0)
(0.0155648 -0.489456 0)
(0.0337871 -0.480002 0)
(0.0496846 -0.488007 0)
(0.0622056 -0.49982 0)
(0.0694279 -0.505562 0)
(0.0723311 -0.511142 0)
(0.0698038 -0.519799 0)
(0.0633728 -0.53271 0)
(0.0554756 -0.544366 0)
(0.0467873 -0.551689 0)
(0.0354805 -0.554168 0)
(0.0211889 -0.5533 0)
(0.00523974 -0.55301 0)
(-0.0113629 -0.552311 0)
(-0.0275868 -0.552291 0)
(-0.0414111 -0.553545 0)
(-0.0519879 -0.5516 0)
(-0.0601932 -0.543366 0)
(-0.0673669 -0.530448 0)
(-0.0725508 -0.516794 0)
(-0.0741893 -0.50851 0)
(-0.0704303 -0.504657 0)
(-0.0630925 -0.499979 0)
(-0.0506245 -0.485863 0)
(-0.0344499 -0.476646 0)
(-0.0160677 -0.48792 0)
(-0.0042064 -0.509308 0)
(0.0104629 -0.466344 0)
(0.0254686 -0.0272111 0)
(0.0127705 0.0143959 0)
(0.0195292 0.00451066 0)
(0.0327957 -0.0155395 0)
(0.0459892 -0.0229577 0)
(0.0570812 -0.0297816 0)
(0.0717193 -0.0319828 0)
(0.0860525 -0.0257633 0)
(0.0987096 -0.0132969 0)
(0.102178 0.00343998 0)
(0.0949581 0.0201528 0)
(0.0830504 0.0265489 0)
(0.0642058 0.022212 0)
(0.0401803 0.0139818 0)
(0.0114808 0.0112562 0)
(-0.0194845 0.00993976 0)
(-0.0477775 0.0137009 0)
(-0.0709556 0.0247002 0)
(-0.0889893 0.0275642 0)
(-0.100466 0.0184638 0)
(-0.106114 0.000768666 0)
(-0.101231 -0.0164719 0)
(-0.0877508 -0.0289601 0)
(-0.0724928 -0.03357 0)
(-0.0578193 -0.0305056 0)
(-0.0468791 -0.0235325 0)
(-0.0334103 -0.0162109 0)
(-0.0196017 0.00498276 0)
(-0.0128048 0.0158897 0)
(-0.0254227 -0.027942 0)
(-0.00817221 -0.174397 0)
(0.000231725 -0.153849 0)
(0.0138786 -0.155601 0)
(0.0263745 -0.160634 0)
(0.0384667 -0.167611 0)
(0.054252 -0.174366 0)
(0.0754473 -0.173703 0)
(0.0963429 -0.168282 0)
(0.114784 -0.154684 0)
(0.123664 -0.133929 0)
(0.118232 -0.112356 0)
(0.101918 -0.089395 0)
(0.0791142 -0.0692257 0)
(0.0512145 -0.0577249 0)
(0.015542 -0.0526704 0)
(-0.0244427 -0.0536881 0)
(-0.0594497 -0.0601979 0)
(-0.0865628 -0.0728644 0)
(-0.108208 -0.0926423 0)
(-0.122618 -0.115574 0)
(-0.126532 -0.136619 0)
(-0.116383 -0.157267 0)
(-0.0972194 -0.171329 0)
(-0.0756746 -0.176214 0)
(-0.0538505 -0.176016 0)
(-0.0376251 -0.168622 0)
(-0.0255689 -0.160821 0)
(-0.013197 -0.155446 0)
(0.00110392 -0.152652 0)
(0.00878756 -0.172017 0)
(0.00224601 -0.168501 0)
(0.00816966 -0.165926 0)
(0.0102833 -0.16403 0)
(0.0173449 -0.159686 0)
(0.0324932 -0.163862 0)
(0.0550211 -0.166852 0)
(0.0804402 -0.165667 0)
(0.105936 -0.155922 0)
(0.129619 -0.137618 0)
(0.148817 -0.110773 0)
(0.148111 -0.0850483 0)
(0.127821 -0.0740428 0)
(0.0926604 -0.0678067 0)
(0.0557797 -0.0618677 0)
(0.0157964 -0.0581557 0)
(-0.0264913 -0.0589048 0)
(-0.0652005 -0.0639706 0)
(-0.101102 -0.0707557 0)
(-0.134116 -0.0767789 0)
(-0.151303 -0.0884301 0)
(-0.149573 -0.114539 0)
(-0.129396 -0.140858 0)
(-0.105086 -0.15874 0)
(-0.0794289 -0.168279 0)
(-0.0538698 -0.169285 0)
(-0.0307569 -0.166462 0)
(-0.0152491 -0.161661 0)
(-0.00839406 -0.164562 0)
(-0.00671599 -0.165649 0)
(-0.00170775 -0.169185 0)
(-0.00399789 -0.167718 0)
(0.0025693 -0.161029 0)
(0.0107012 -0.153342 0)
(0.0149318 -0.161232 0)
(0.0371208 -0.163187 0)
(0.0575648 -0.161738 0)
(0.0762487 -0.155783 0)
(0.0969018 -0.143911 0)
(0.12065 -0.12473 0)
(0.142511 -0.0979836 0)
(0.161083 -0.0644545 0)
(0.148897 -0.0399718 0)
(0.108841 -0.029991 0)
(0.0598713 -0.027419 0)
(0.0152269 -0.0278312 0)
(-0.0270537 -0.0280281 0)
(-0.0705686 -0.0291121 0)
(-0.117668 -0.0328072 0)
(-0.153877 -0.0436642 0)
(-0.162705 -0.0690483 0)
(-0.14189 -0.101928 0)
(-0.119798 -0.12816 0)
(-0.0956263 -0.1467 0)
(-0.0751132 -0.158108 0)
(-0.0564613 -0.164163 0)
(-0.0360992 -0.165996 0)
(-0.0136075 -0.164802 0)
(-0.00841174 -0.157186 0)
(-0.00103054 -0.162186 0)
(0.00471766 -0.169071 0)
(-0.00160957 -0.114211 0)
(-0.00436123 -0.102797 0)
(0.00417803 -0.117185 0)
(0.0192942 -0.111715 0)
(0.0327581 -0.108235 0)
(0.048193 -0.106809 0)
(0.06374 -0.103 0)
(0.0809759 -0.0943542 0)
(0.105187 -0.0786479 0)
(0.125239 -0.0535879 0)
(0.153486 -0.0278265 0)
(0.155146 0.00562382 0)
(0.122514 0.0234127 0)
(0.0674536 0.0282699 0)
(0.0165493 0.023587 0)
(-0.0294145 0.0236746 0)
(-0.0792848 0.0268098 0)
(-0.13098 0.0205422 0)
(-0.159282 0.00251469 0)
(-0.153436 -0.032834 0)
(-0.125023 -0.0579366 0)
(-0.104217 -0.0823971 0)
(-0.080212 -0.0973362 0)
(-0.0631011 -0.105525 0)
(-0.047467 -0.109193 0)
(-0.031812 -0.110247 0)
(-0.0188486 -0.114352 0)
(-0.00328914 -0.121468 0)
(0.00562686 -0.105754 0)
(0.00329257 -0.117715 0)
(0.0256157 -0.033407 0)
(0.00524189 -0.0580382 0)
(0.00467498 -0.0745635 0)
(0.00300915 -0.0606397 0)
(0.00411886 -0.0551838 0)
(0.0221315 -0.0553713 0)
(0.0420953 -0.0561873 0)
(0.0598293 -0.0480595 0)
(0.0810169 -0.0324563 0)
(0.104383 -0.00911029 0)
(0.133603 0.020152 0)
(0.148841 0.0660164 0)
(0.123335 0.0882596 0)
(0.0723915 0.0966963 0)
(0.0181752 0.0897122 0)
(-0.0322601 0.090111 0)
(-0.0853943 0.0950315 0)
(-0.13197 0.0841916 0)
(-0.152736 0.0594639 0)
(-0.131979 0.0155843 0)
(-0.104066 -0.0130105 0)
(-0.0800431 -0.0356469 0)
(-0.059446 -0.050546 0)
(-0.0413402 -0.0578374 0)
(-0.0210502 -0.0569253 0)
(-0.0032094 -0.0580432 0)
(-0.000834819 -0.0638778 0)
(-0.00228826 -0.0772066 0)
(-0.00393805 -0.0610046 0)
(-0.0240492 -0.0366331 0)
(0.0273018 0.00786514 0)
(0.0126978 -0.0406416 0)
(0.00323709 -0.0346294 0)
(-0.00354263 -0.0288167 0)
(-0.00678077 -0.0213644 0)
(-0.007758 -0.00312097 0)
(0.00795995 0.000324555 0)
(0.0309856 0.00185716 0)
(0.0509433 0.0174947 0)
(0.0769277 0.0433749 0)
(0.106181 0.0751482 0)
(0.141096 0.12044 0)
(0.122166 0.160635 0)
(0.0759112 0.174107 0)
(0.019553 0.168486 0)
(-0.0351149 0.169201 0)
(-0.0903604 0.17106 0)
(-0.132127 0.155349 0)
(-0.144041 0.110063 0)
(-0.104597 0.0688621 0)
(-0.0765092 0.0382975 0)
(-0.0502751 0.0142868 0)
(-0.0306005 -0.000504424 0)
(-0.00612038 -0.00146024 0)
(0.0116273 -0.0111617 0)
(0.0132932 -0.0334046 0)
(0.00989608 -0.0390451 0)
(0.0045518 -0.0426263 0)
(-0.00560631 -0.0455472 0)
(-0.0293434 0.0165262 0)
(-0.0117085 -0.0234535 0)
(-0.00631126 -0.0198349 0)
(-0.00745348 -0.0148783 0)
(-0.00875509 -0.0094952 0)
(-0.0116541 -0.00400956 0)
(-0.0174362 0.000221992 0)
(-0.0193278 0.0224499 0)
(-0.0101373 0.0532062 0)
(0.0196692 0.0632044 0)
(0.0513815 0.0894388 0)
(0.0845046 0.125473 0)
(0.129794 0.17573 0)
(0.118865 0.240865 0)
(0.0745262 0.260822 0)
(0.0200991 0.260892 0)
(-0.0357637 0.261483 0)
(-0.0853716 0.258756 0)
(-0.130712 0.231879 0)
(-0.130738 0.161253 0)
(-0.0837491 0.115258 0)
(-0.0501666 0.0821307 0)
(-0.0191155 0.0582468 0)
(0.0130294 0.0502018 0)
(0.0211051 0.00649031 0)
(0.01401 -0.00767427 0)
(0.00780957 -0.0112357 0)
(0.00577051 -0.0159201 0)
(0.00558815 -0.0201717 0)
(0.00593508 -0.0238637 0)
(0.015197 -0.0251549 0)
(-0.00346108 -0.0104191 0)
(-0.00661718 -0.00988554 0)
(-0.0094241 -0.00445869 0)
(-0.0115719 0.00189928 0)
(-0.0133084 0.00851763 0)
(-0.0148016 0.014949 0)
(-0.0173254 0.0233633 0)
(-0.028496 0.0495911 0)
(-0.0182164 0.0958341 0)
(0.0254645 0.121364 0)
(0.0681543 0.158271 0)
(0.120659 0.217868 0)
(0.128527 0.314974 0)
(0.061555 0.368213 0)
(0.0166855 0.368976 0)
(-0.033013 0.368579 0)
(-0.0831311 0.362568 0)
(-0.14565 0.291056 0)
(-0.118151 0.198799 0)
(-0.0674616 0.144083 0)
(-0.0233991 0.11096 0)
(0.0212562 0.0878424 0)
(0.0241965 0.0339762 0)
(0.0121018 0.0167497 0)
(0.009463 0.00968335 0)
(0.00798342 0.00345271 0)
(0.00661888 -0.00294244 0)
(0.00536467 -0.0088201 0)
(0.00387424 -0.0135662 0)
(0.00285756 -0.0123593 0)
(-0.0016686 -0.00226882 0)
(-0.00763824 0.000348351 0)
(-0.013772 0.0062787 0)
(-0.0189397 0.0132549 0)
(-0.0228028 0.020496 0)
(-0.0251811 0.0278504 0)
(-0.0260372 0.0359879 0)
(-0.027962 0.0471877 0)
(-0.0395343 0.0730482 0)
(0.00950772 0.113063 0)
(0.0650508 0.15403 0)
(0.116138 0.223623 0)
(0.147663 0.339428 0)
(0.0761876 0.465595 0)
(0.00779366 0.488237 0)
(-0.0206581 0.486353 0)
(-0.0957206 0.445511 0)
(-0.152868 0.311304 0)
(-0.111625 0.202161 0)
(-0.0610999 0.137548 0)
(-0.00349682 0.0990706 0)
(0.0356638 0.0606835 0)
(0.0222093 0.0410265 0)
(0.0202671 0.0313597 0)
(0.0189699 0.0237112 0)
(0.0164375 0.016561 0)
(0.0129131 0.00955564 0)
(0.00883568 0.00305666 0)
(0.00454715 -0.00198774 0)
(0.000639867 -0.00313808 0)
(-0.00323055 0.00355198 0)
(-0.013453 0.00991 0)
(-0.0230065 0.0169529 0)
(-0.0308535 0.0242751 0)
(-0.0369711 0.0314057 0)
(-0.0408968 0.0383424 0)
(-0.042362 0.0455924 0)
(-0.0428719 0.0536804 0)
(-0.0434704 0.0611811 0)
(-0.0130299 0.0792923 0)
(0.0393105 0.139953 0)
(0.076483 0.22447 0)
(0.101138 0.343986 0)
(0.0780379 0.49221 0)
(-0.0105858 0.601558 0)
(0.00743885 0.598864 0)
(-0.0818366 0.464517 0)
(-0.100464 0.317012 0)
(-0.0739431 0.199883 0)
(-0.0336464 0.120393 0)
(0.0189106 0.0667117 0)
(0.0385843 0.0561115 0)
(0.0368413 0.0491869 0)
(0.0359063 0.0418438 0)
(0.0338907 0.035064 0)
(0.0296323 0.0283743 0)
(0.0237088 0.0214027 0)
(0.0169648 0.0143702 0)
(0.00957004 0.00803172 0)
(0.00189608 0.00277295 0)
(-0.00512054 0.0073667 0)
(-0.0194929 0.0179967 0)
(-0.0337765 0.0266717 0)
(-0.0455096 0.0346197 0)
(-0.05448 0.0414483 0)
(-0.0600716 0.0474281 0)
(-0.0626443 0.0528027 0)
(-0.0634249 0.0576166 0)
(-0.0614132 0.0612006 0)
(-0.0405257 0.0782697 0)
(-0.0164307 0.141469 0)
(-0.0011777 0.22831 0)
(0.00748573 0.343898 0)
(0.00101129 0.510963 0)
(-0.0264502 0.664301 0)
(0.0314869 0.661478 0)
(-0.000552099 0.478193 0)
(-0.00770133 0.316998 0)
(0.00106241 0.202164 0)
(0.0172637 0.120776 0)
(0.0415162 0.066605 0)
(0.0568472 0.0565654 0)
(0.0569851 0.0539711 0)
(0.0555499 0.0498691 0)
(0.0523644 0.0450014 0)
(0.0463863 0.0393224 0)
(0.037668 0.0325615 0)
(0.02718 0.0247037 0)
(0.0150883 0.0167124 0)
(0.00344657 0.00691684 0)
(-0.00616578 0.0116434 0)
(-0.0235437 0.026659 0)
(-0.0466087 0.0364758 0)
(-0.0634936 0.0449917 0)
(-0.0756388 0.0509722 0)
(-0.0822063 0.0554448 0)
(-0.0853028 0.0583133 0)
(-0.0858612 0.0600239 0)
(-0.083809 0.062356 0)
(-0.0740187 0.081467 0)
(-0.0701156 0.141798 0)
(-0.072691 0.224573 0)
(-0.0823979 0.32904 0)
(-0.0563554 0.547083 0)
(-0.0285357 0.654229 0)
(0.0351551 0.651747 0)
(0.0541103 0.518762 0)
(0.079937 0.300035 0)
(0.0688875 0.192373 0)
(0.065434 0.120528 0)
(0.0704824 0.069793 0)
(0.0781186 0.057421 0)
(0.078925 0.0569086 0)
(0.0777352 0.056064 0)
(0.0742376 0.0537315 0)
(0.0677795 0.0494539 0)
(0.056677 0.0433444 0)
(0.0408908 0.0348886 0)
(0.0175131 0.0255255 0)
(0.00401062 0.0119037 0)
(-0.00900956 0.0180465 0)
(-0.0210971 0.0361916 0)
(-0.0689681 0.0446837 0)
(-0.0933095 0.0527189 0)
(-0.104079 0.0576584 0)
(-0.10787 0.0617201 0)
(-0.108621 0.0627724 0)
(-0.107943 0.061537 0)
(-0.105034 0.062597 0)
(-0.100393 0.0767777 0)
(-0.106354 0.12314 0)
(-0.129801 0.193224 0)
(-0.0677808 0.116447 0)
(-0.0135561 0.383028 0)
(-0.0149266 0.459421 0)
(0.0177611 0.459925 0)
(0.0104055 0.348468 0)
(0.0741885 0.0865816 0)
(0.109503 0.149706 0)
(0.0949043 0.104099 0)
(0.0935654 0.0654472 0)
(0.0978488 0.0575291 0)
(0.10007 0.0590246 0)
(0.100697 0.060975 0)
(0.0999164 0.0603484 0)
(0.0963614 0.0567628 0)
(0.086533 0.0519372 0)
(0.0625865 0.0437247 0)
(0.0181645 0.0374308 0)
(0.0106529 0.0186463 0)
(-0.0368856 0.0345437 0)
(-0.153066 0.0416147 0)
(-0.193856 0.0582228 0)
(-0.171202 0.079146 0)
(-0.140487 0.0655419 0)
(-0.135344 0.0671445 0)
(-0.13071 0.0662861 0)
(-0.125607 0.0622829 0)
(-0.120547 0.0575545 0)
(-0.116996 0.0550442 0)
(-0.114432 0.0603236 0)
(-0.0959078 -0.223024 0)
(-0.0622665 -0.113781 0)
(0.0013489 0.105782 0)
(0.00792987 0.160177 0)
(-0.00978495 0.16113 0)
(0.00705151 0.0848393 0)
(0.0698012 -0.134115 0)
(0.102685 -0.172477 0)
(0.108627 0.0555657 0)
(0.10827 0.0496075 0)
(0.112394 0.0539511 0)
(0.117233 0.0606074 0)
(0.122704 0.0647608 0)
(0.127997 0.0660059 0)
(0.135866 0.0661668 0)
(0.183613 0.0763246 0)
(0.2069 0.0407445 0)
(0.146388 0.0369111 0)
(0.0364512 0.0377597 0)
(-0.0881538 0.0212178 0)
(-0.189788 -0.0607887 0)
(-0.219171 -0.111368 0)
(-0.263539 -0.105568 0)
(-0.261573 0.00955812 0)
(-0.172142 0.0744317 0)
(-0.147596 0.0709462 0)
(-0.135015 0.0634903 0)
(-0.126309 0.0483158 0)
(-0.120317 0.0268881 0)
(-0.126062 -0.00483786 0)
(-0.13609 -0.23307 0)
(-0.0865216 -0.129348 0)
(-0.0530071 0.111094 0)
(0.00729116 0.129757 0)
(-0.00776822 0.128666 0)
(0.0727802 0.106949 0)
(0.0888487 -0.148074 0)
(0.132566 -0.191858 0)
(0.115276 0.000348696 0)
(0.1122 0.0299984 0)
(0.118212 0.0485228 0)
(0.127255 0.0628464 0)
(0.141101 0.0694154 0)
(0.171552 0.0711676 0)
(0.261637 -0.0200565 0)
(0.243589 -0.112148 0)
(0.206926 -0.108095 0)
(0.178401 -0.0524583 0)
(0.0869857 0.0190228 0)
(-0.0550103 0.00613978 0)
(-0.0994763 0.027321 0)
(-0.0569329 0.00819431 0)
(-0.0845397 -0.0579078 0)
(-0.182462 -0.0883289 0)
(-0.200601 0.0338828 0)
(-0.151248 0.075362 0)
(-0.130878 0.0670253 0)
(-0.117518 0.0440902 0)
(-0.109806 0.00844803 0)
(-0.113278 -0.044742 0)
(-0.116211 -0.129685 0)
(-0.0675293 -0.164642 0)
(-0.123939 0.219911 0)
(-0.00677865 0.27294 0)
(0.0141481 0.270279 0)
(0.130522 0.194855 0)
(0.059041 -0.175805 0)
(0.0983922 -0.104289 0)
(0.100956 -0.033784 0)
(0.102431 0.0146917 0)
(0.111482 0.046616 0)
(0.125903 0.0674943 0)
(0.150484 0.0706976 0)
(0.194339 0.0209176 0)
(0.156297 -0.0751997 0)
(0.0377807 -0.026461 0)
(0.0428594 0.0229159 0)
(0.0954214 0.0297952 0)
(0.0580293 -0.00247218 0)
(-0.0120274 0.0471087 0)
(-0.0211404 0.0857093 0)
(0.0319724 0.0641949 0)
(0.120801 0.0674976 0)
(-0.0695609 0.109811 0)
(-0.109387 0.0556636 0)
(-0.112979 0.0665143 0)
(-0.109616 0.0672395 0)
(-0.094612 0.0436666 0)
(-0.0844428 -0.00127244 0)
(-0.0792638 -0.0555041 0)
(-0.0749124 -0.119134 0)
(-0.0462952 -0.161168 0)
(-0.107864 0.100488 0)
(-0.0280066 0.3276 0)
(0.0349991 0.319783 0)
(0.0756731 0.0086794 0)
(0.0495261 -0.138849 0)
(0.0702349 -0.107413 0)
(0.0741894 -0.0472079 0)
(0.0807552 0.00416594 0)
(0.0922478 0.0457481 0)
(0.11112 0.0692089 0)
(0.11704 0.0534929 0)
(0.107342 0.0396912 0)
(0.0656616 0.108733 0)
(-0.124677 0.0479818 0)
(-0.0364238 0.0251949 0)
(0.0217076 0.0737727 0)
(0.0152327 0.0351353 0)
(0.0126556 0.0862284 0)
(0.0321668 0.089744 0)
(0.0912622 -0.064345 0)
(0.140664 -0.0819432 0)
(0.121131 -0.0112044 0)
(0.00799591 0.0488333 0)
(-0.0422349 0.078968 0)
(-0.0718879 0.0691668 0)
(-0.0645 0.0426178 0)
(-0.0515775 -0.00742771 0)
(-0.0424804 -0.058337 0)
(-0.0430964 -0.123818 0)
(-0.0546466 -0.141427 0)
(-0.109068 -0.0365348 0)
(-0.0373583 0.168602 0)
(0.0513142 0.164066 0)
(0.0843887 -0.0748249 0)
(0.0429252 -0.128308 0)
(0.0375505 -0.106363 0)
(0.0401243 -0.0503136 0)
(0.0498134 -0.00317717 0)
(0.0623333 0.0465579 0)
(0.0643932 0.0881671 0)
(0.0374311 0.0939981 0)
(-0.0394634 0.0158715 0)
(-0.1399 -0.124678 0)
(-0.135665 -0.172883 0)
(-0.098876 -0.131213 0)
(-0.0375713 0.0766787 0)
(-0.0141601 0.0781611 0)
(0.0344055 0.0508499 0)
(0.0871757 0.0075359 0)
(0.116121 -0.304955 0)
(0.12602 -0.465394 0)
(0.137092 -0.499726 0)
(0.0604994 -0.255731 0)
(-0.020765 -0.0368819 0)
(-0.0353981 -0.216269 0)
(-0.0213017 -0.0389762 0)
(-0.0220096 -0.0294257 0)
(0.00194422 -0.0625034 0)
(-0.00102628 -0.160734 0)
(-0.0731431 -0.282753 0)
(-0.0576394 -0.421091 0)
(-0.0262405 -0.307044 0)
(0.0304007 -0.309013 0)
(0.0535823 -0.44705 0)
(0.0363488 -0.189844 0)
(-0.00536388 -0.115743 0)
(-0.00156055 -0.0525982 0)
(0.0222536 -0.029888 0)
(0.0250308 -0.0545791 0)
(0.0164226 -0.43928 0)
(0.00860447 -0.225778 0)
(-0.0425778 -0.425399 0)
(-0.0996043 -0.559074 0)
(-0.105262 -0.519719 0)
(-0.113533 -0.362443 0)
(-0.0951829 -0.0449204 0)
(-0.0370009 0.0108164 0)
(0.0242233 -0.319835 0)
(0.0798436 -0.434471 0)
(0.046167 -0.556907 0)
(0.00268967 -0.601901 0)
(-0.00347654 -0.630798 0)
(0.00144738 -0.669737 0)
(0.0151621 -0.68716 0)
(0.0377289 -0.783418 0)
(0.0355682 -0.827855 0)
(-0.00848706 -0.375096 0)
(0.0280687 -0.171794 0)
(0.00414974 -0.593088 0)
(-0.0335732 -0.804917 0)
(-0.023729 -0.682613 0)
(-0.00970867 -0.620298 0)
(0.00721708 -0.62404 0)
(0.0184262 -0.697029 0)
(0.0274547 -0.807185 0)
(-0.0431243 -0.277463 0)
(-0.0265992 -0.155147 0)
(0.00861456 -0.456259 0)
(-0.0407076 -0.836915 0)
(-0.0421472 -0.792822 0)
(-0.0183122 -0.725002 0)
(-0.000454498 -0.690479 0)
(0.00740212 -0.646529 0)
(0.00967081 -0.615804 0)
(-0.0243054 -0.580404 0)
(-0.0671401 -0.491197 0)
(-0.0235027 -0.370996 0)
(-0.000290052 -0.486753 0)
(-0.019684 -0.571991 0)
(-0.0325148 -0.588736 0)
(-0.0284671 -0.607459 0)
(-0.0116101 -0.637615 0)
(0.0133245 -0.678163 0)
(0.046807 -0.719609 0)
(0.0784924 -0.76507 0)
(0.100338 -0.859183 0)
(0.0488903 -0.934784 0)
(-0.00622007 -0.937786 0)
(-0.0364678 -0.907796 0)
(-0.0243297 -0.837527 0)
(-0.0165269 -0.740357 0)
(-0.00641175 -0.698915 0)
(0.00326486 -0.701538 0)
(0.012953 -0.747347 0)
(0.021693 -0.843924 0)
(0.0321595 -0.909382 0)
(-0.00459746 -0.939735 0)
(-0.0598915 -0.93469 0)
(-0.107438 -0.857918 0)
(-0.0815087 -0.771074 0)
(-0.0527018 -0.726491 0)
(-0.0208917 -0.682466 0)
(0.00894473 -0.64534 0)
(0.0291913 -0.611968 0)
(0.0382673 -0.590469 0)
(0.0278385 -0.577494 0)
(0.0030129 -0.490639 0)
(-0.0253988 -0.464256 0)
(-0.052742 -0.549638 0)
(-0.0441405 -0.55214 0)
(-0.0200612 -0.573876 0)
(0.00858462 -0.608864 0)
(0.0359578 -0.648907 0)
(0.0632237 -0.703498 0)
(0.0936115 -0.756222 0)
(0.12119 -0.821671 0)
(0.106944 -0.902603 0)
(0.0520554 -0.929499 0)
(-0.00494123 -0.901056 0)
(-0.00457233 -0.837789 0)
(-0.00882349 -0.749305 0)
(-0.00471567 -0.709379 0)
(0.00233491 -0.711434 0)
(0.00654207 -0.755398 0)
(0.00118868 -0.844277 0)
(-0.00171238 -0.905338 0)
(-0.0644901 -0.933125 0)
(-0.114601 -0.904616 0)
(-0.124529 -0.82733 0)
(-0.0980497 -0.764043 0)
(-0.0666376 -0.713375 0)
(-0.0375057 -0.661147 0)
(-0.0135236 -0.616396 0)
(0.0158906 -0.577917 0)
(0.0408665 -0.548608 0)
(0.0561713 -0.537132 0)
(0.0290506 -0.447024 0)
(-0.00480365 -0.405685 0)
(-0.0322066 -0.492712 0)
(-0.0176291 -0.527387 0)
(0.00102319 -0.563277 0)
(0.0250481 -0.601767 0)
(0.0540107 -0.641823 0)
(0.089571 -0.689327 0)
(0.112217 -0.732264 0)
(0.150306 -0.797522 0)
(0.137384 -0.890827 0)
(0.0777372 -0.921441 0)
(0.0157703 -0.892683 0)
(0.00346512 -0.830404 0)
(-0.00010716 -0.744905 0)
(-0.000444721 -0.709522 0)
(-0.000921888 -0.711272 0)
(-0.00134869 -0.751062 0)
(-0.00748564 -0.838196 0)
(-0.0244197 -0.895928 0)
(-0.0890787 -0.924631 0)
(-0.144649 -0.889758 0)
(-0.149186 -0.798423 0)
(-0.114733 -0.744265 0)
(-0.0933489 -0.697351 0)
(-0.0592168 -0.648035 0)
(-0.0281779 -0.608407 0)
(-0.00355278 -0.568116 0)
(0.017393 -0.529502 0)
(0.025966 -0.489466 0)
(-0.000700902 -0.397955 0)
(-0.00676073 -0.378513 0)
(-0.0291833 -0.46724 0)
(-0.0112939 -0.498425 0)
(0.0166556 -0.53936 0)
(0.046343 -0.580473 0)
(0.0746512 -0.629232 0)
(0.100496 -0.673265 0)
(0.135869 -0.726497 0)
(0.159456 -0.780148 0)
(0.1505 -0.848874 0)
(0.0977278 -0.890764 0)
(0.0313965 -0.868443 0)
(0.0161107 -0.814152 0)
(0.00598496 -0.737669 0)
(0.000693982 -0.703728 0)
(-0.00154492 -0.705593 0)
(-0.00760018 -0.743292 0)
(-0.0197021 -0.820696 0)
(-0.0387078 -0.872461 0)
(-0.10633 -0.892521 0)
(-0.15375 -0.850476 0)
(-0.164993 -0.787392 0)
(-0.137756 -0.731189 0)
(-0.103644 -0.682485 0)
(-0.0772934 -0.636951 0)
(-0.0503219 -0.58761 0)
(-0.0208334 -0.543836 0)
(0.00737159 -0.498986 0)
(0.0292304 -0.45971 0)
(0.00754872 -0.366017 0)
(0.0021181 -0.333795 0)
(-0.0141385 -0.428305 0)
(0.00550598 -0.483353 0)
(0.0319334 -0.52826 0)
(0.0618193 -0.569931 0)
(0.0900885 -0.612469 0)
(0.126366 -0.658897 0)
(0.145645 -0.710382 0)
(0.169343 -0.74765 0)
(0.179928 -0.834544 0)
(0.131825 -0.870709 0)
(0.0574643 -0.848917 0)
(0.0277252 -0.799263 0)
(0.0110427 -0.725099 0)
(0.00274713 -0.692941 0)
(-0.00377617 -0.69479 0)
(-0.013107 -0.730604 0)
(-0.0322426 -0.805464 0)
(-0.0651073 -0.851678 0)
(-0.138407 -0.871983 0)
(-0.182686 -0.833254 0)
(-0.168064 -0.754357 0)
(-0.150333 -0.719279 0)
(-0.128455 -0.664365 0)
(-0.0944552 -0.619754 0)
(-0.0650775 -0.574848 0)
(-0.0350285 -0.532166 0)
(-0.0075616 -0.485349 0)
(0.0133164 -0.426024 0)
(-0.00293276 -0.325945 0)
(0.00221752 -0.30307 0)
(-0.0111111 -0.40395 0)
(0.0176198 -0.461404 0)
(0.0485718 -0.509355 0)
(0.0797564 -0.554429 0)
(0.108195 -0.59489 0)
(0.13644 -0.643883 0)
(0.15777 -0.68285 0)
(0.187123 -0.736213 0)
(0.180454 -0.80269 0)
(0.13755 -0.844057 0)
(0.0668412 -0.824543 0)
(0.0328848 -0.777384 0)
(0.0143492 -0.707964 0)
(0.00351367 -0.678905 0)
(-0.00544233 -0.680661 0)
(-0.0177186 -0.713022 0)
(-0.0375829 -0.782432 0)
(-0.0738643 -0.82689 0)
(-0.144224 -0.845017 0)
(-0.185443 -0.80746 0)
(-0.188701 -0.741203 0)
(-0.159654 -0.689294 0)
(-0.140055 -0.651847 0)
(-0.109718 -0.600641 0)
(-0.0829849 -0.559463 0)
(-0.0516063 -0.512275 0)
(-0.0209166 -0.461975 0)
(0.00888859 -0.400001 0)
(-0.00342652 -0.293025 0)
(0.00835873 -0.26877 0)
(0.00045 -0.37904 0)
(0.0298771 -0.445497 0)
(0.0623725 -0.496697 0)
(0.0937549 -0.537782 0)
(0.123545 -0.580368 0)
(0.148135 -0.619073 0)
(0.174728 -0.668542 0)
(0.184373 -0.711411 0)
(0.19359 -0.769381 0)
(0.150874 -0.810617 0)
(0.0801716 -0.79245 0)
(0.0404096 -0.75193 0)
(0.017741 -0.688761 0)
(0.00453159 -0.660995 0)
(-0.00679537 -0.66244 0)
(-0.0215772 -0.692528 0)
(-0.0444097 -0.754336 0)
(-0.0851797 -0.794438 0)
(-0.15425 -0.811023 0)
(-0.194009 -0.769764 0)
(-0.187896 -0.719401 0)
(-0.177044 -0.675093 0)
(-0.149368 -0.624975 0)
(-0.126929 -0.586161 0)
(-0.0960107 -0.542878 0)
(-0.0650614 -0.500123 0)
(-0.0322892 -0.446059 0)
(-0.00317072 -0.375365 0)
(-0.00963227 -0.25904 0)
(0.0143113 -0.235498 0)
(0.00981789 -0.354692 0)
(0.0423566 -0.42946 0)
(0.0763587 -0.482275 0)
(0.109208 -0.5225 0)
(0.135041 -0.558764 0)
(0.162732 -0.601178 0)
(0.176431 -0.642653 0)
(0.197025 -0.685266 0)
(0.200545 -0.745674 0)
(0.163595 -0.782913 0)
(0.0918295 -0.765412 0)
(0.0446137 -0.723626 0)
(0.0199598 -0.664779 0)
(0.00521919 -0.639891 0)
(-0.00741034 -0.641028 0)
(-0.0237905 -0.667741 0)
(-0.0493189 -0.725181 0)
(-0.100361 -0.768783 0)
(-0.171551 -0.784271 0)
(-0.20403 -0.749561 0)
(-0.197453 -0.690273 0)
(-0.178839 -0.650911 0)
(-0.16532 -0.608174 0)
(-0.136 -0.564966 0)
(-0.111343 -0.52682 0)
(-0.0785191 -0.485628 0)
(-0.044471 -0.430231 0)
(-0.0119958 -0.35133 0)
(-0.0149795 -0.225913 0)
(0.0182237 -0.202473 0)
(0.0203422 -0.333678 0)
(0.0547892 -0.417324 0)
(0.0903597 -0.468754 0)
(0.122122 -0.506901 0)
(0.149214 -0.539213 0)
(0.171188 -0.575257 0)
(0.188124 -0.618872 0)
(0.197574 -0.66107 0)
(0.198487 -0.714517 0)
(0.165193 -0.748451 0)
(0.0984789 -0.733766 0)
(0.0479331 -0.693223 0)
(0.0214904 -0.639043 0)
(0.00608042 -0.615064 0)
(-0.00655629 -0.615738 0)
(-0.0232057 -0.640845 0)
(-0.051171 -0.693555 0)
(-0.104758 -0.735742 0)
(-0.169456 -0.749429 0)
(-0.200612 -0.717752 0)
(-0.20103 -0.668622 0)
(-0.190044 -0.623972 0)
(-0.171488 -0.581993 0)
(-0.150721 -0.54483 0)
(-0.123333 -0.511278 0)
(-0.0918416 -0.471857 0)
(-0.0566927 -0.419303 0)
(-0.0217337 -0.331951 0)
(-0.0184229 -0.194202 0)
(0.0255974 -0.168862 0)
(0.0332207 -0.315062 0)
(0.0702477 -0.404253 0)
(0.105341 -0.456177 0)
(0.136232 -0.487294 0)
(0.16116 -0.515965 0)
(0.180062 -0.550284 0)
(0.19233 -0.588881 0)
(0.201748 -0.635349 0)
(0.200823 -0.685382 0)
(0.170124 -0.712963 0)
(0.103678 -0.699553 0)
(0.0499245 -0.660209 0)
(0.022128 -0.611032 0)
(0.00696866 -0.588714 0)
(-0.00438423 -0.589037 0)
(-0.0205442 -0.61233 0)
(-0.0524382 -0.661393 0)
(-0.111493 -0.701392 0)
(-0.175589 -0.715285 0)
(-0.20343 -0.689167 0)
(-0.202983 -0.641576 0)
(-0.193371 -0.598164 0)
(-0.180356 -0.556868 0)
(-0.160919 -0.521293 0)
(-0.136719 -0.491467 0)
(-0.105867 -0.459297 0)
(-0.0714495 -0.405251 0)
(-0.0353147 -0.313138 0)
(-0.0266874 -0.160536 0)
(0.0361742 -0.141979 0)
(0.0502181 -0.301835 0)
(0.0869301 -0.394174 0)
(0.120173 -0.440378 0)
(0.148993 -0.468654 0)
(0.170876 -0.491086 0)
(0.187254 -0.520495 0)
(0.196305 -0.563166 0)
(0.201285 -0.605817 0)
(0.199224 -0.652802 0)
(0.170084 -0.679357 0)
(0.107139 -0.665686 0)
(0.051974 -0.627655 0)
(0.0231105 -0.581331 0)
(0.00838165 -0.559346 0)
(-0.00198807 -0.559272 0)
(-0.0177758 -0.58168 0)
(-0.0524448 -0.628932 0)
(-0.113787 -0.666599 0)
(-0.17463 -0.681167 0)
(-0.201479 -0.65641 0)
(-0.202723 -0.612923 0)
(-0.196348 -0.571251 0)
(-0.185971 -0.528993 0)
(-0.169923 -0.496621 0)
(-0.148337 -0.472094 0)
(-0.119613 -0.443125 0)
(-0.0865153 -0.396338 0)
(-0.0509666 -0.302359 0)
(-0.0363373 -0.136342 0)
(0.0470796 -0.13483 0)
(0.0740086 -0.291825 0)
(0.105675 -0.380381 0)
(0.134658 -0.423766 0)
(0.159673 -0.445365 0)
(0.180644 -0.462095 0)
(0.192374 -0.491382 0)
(0.19757 -0.530454 0)
(0.201153 -0.574791 0)
(0.198514 -0.619454 0)
(0.170713 -0.642033 0)
(0.108202 -0.62808 0)
(0.05201 -0.594515 0)
(0.0229579 -0.551813 0)
(0.00954807 -0.530569 0)
(0.000393586 -0.530096 0)
(-0.014392 -0.550657 0)
(-0.0490424 -0.593461 0)
(-0.111346 -0.628032 0)
(-0.173305 -0.643376 0)
(-0.199122 -0.624207 0)
(-0.201875 -0.582612 0)
(-0.197255 -0.53899 0)
(-0.189771 -0.498927 0)
(-0.178045 -0.468208 0)
(-0.158476 -0.448881 0)
(-0.133212 -0.426278 0)
(-0.104403 -0.382002 0)
(-0.0735543 -0.29256 0)
(-0.047846 -0.130562 0)
(0.0668095 -0.157595 0)
(0.0925909 -0.296552 0)
(0.122498 -0.37104 0)
(0.147068 -0.405846 0)
(0.169739 -0.421079 0)
(0.186857 -0.433777 0)
(0.194842 -0.456776 0)
(0.198486 -0.498882 0)
(0.200458 -0.545141 0)
(0.196551 -0.586725 0)
(0.171345 -0.604993 0)
(0.110613 -0.591781 0)
(0.0521515 -0.559519 0)
(0.0220458 -0.519725 0)
(0.00993632 -0.499799 0)
(0.00196763 -0.499022 0)
(-0.0114063 -0.517029 0)
(-0.0450387 -0.554838 0)
(-0.108411 -0.590206 0)
(-0.171443 -0.605305 0)
(-0.196032 -0.590702 0)
(-0.199997 -0.552524 0)
(-0.196453 -0.509249 0)
(-0.191332 -0.465921 0)
(-0.1834 -0.438087 0)
(-0.167139 -0.423726 0)
(-0.14487 -0.407122 0)
(-0.119926 -0.371473 0)
(-0.091305 -0.29608 0)
(-0.0664851 -0.154092 0)
(0.0731167 -0.210642 0)
(0.0991198 -0.308625 0)
(0.131385 -0.36058 0)
(0.15387 -0.385035 0)
(0.173838 -0.392772 0)
(0.189735 -0.399889 0)
(0.194537 -0.422755 0)
(0.197018 -0.466187 0)
(0.199358 -0.511135 0)
(0.196398 -0.549989 0)
(0.173019 -0.566091 0)
(0.112698 -0.554703 0)
(0.0510654 -0.52275 0)
(0.0192216 -0.487786 0)
(0.00844963 -0.469199 0)
(0.00299142 -0.468573 0)
(-0.00754683 -0.48474 0)
(-0.0402923 -0.518168 0)
(-0.105323 -0.550942 0)
(-0.169573 -0.565586 0)
(-0.193467 -0.554287 0)
(-0.197393 -0.519651 0)
(-0.194315 -0.476607 0)
(-0.190046 -0.432189 0)
(-0.185113 -0.405037 0)
(-0.171155 -0.394859 0)
(-0.151333 -0.385823 0)
(-0.128788 -0.359699 0)
(-0.0975932 -0.305089 0)
(-0.0728904 -0.202615 0)
(0.0608802 -0.26071 0)
(0.0952175 -0.323603 0)
(0.131104 -0.352308 0)
(0.15414 -0.365236 0)
(0.174076 -0.36417 0)
(0.188979 -0.369562 0)
(0.192696 -0.388352 0)
(0.197018 -0.432664 0)
(0.199874 -0.479308 0)
(0.196195 -0.514935 0)
(0.172328 -0.527184 0)
(0.110372 -0.51287 0)
(0.0483197 -0.482625 0)
(0.0164056 -0.456174 0)
(0.00678662 -0.43645 0)
(0.00323544 -0.436044 0)
(-0.00456574 -0.451683 0)
(-0.0354082 -0.479726 0)
(-0.0990615 -0.507311 0)
(-0.166693 -0.525006 0)
(-0.191591 -0.517886 0)
(-0.196342 -0.486845 0)
(-0.193074 -0.444109 0)
(-0.187751 -0.397475 0)
(-0.184297 -0.373445 0)
(-0.171146 -0.365571 0)
(-0.151774 -0.364702 0)
(-0.128681 -0.350048 0)
(-0.0945756 -0.317383 0)
(-0.0617679 -0.247795 0)
(0.0439148 -0.302284 0)
(0.0837981 -0.342212 0)
(0.122858 -0.345169 0)
(0.148113 -0.344194 0)
(0.167949 -0.334649 0)
(0.184491 -0.336899 0)
(0.190486 -0.355375 0)
(0.197939 -0.401198 0)
(0.202025 -0.446316 0)
(0.197634 -0.478228 0)
(0.17363 -0.486041 0)
(0.109091 -0.472879 0)
(0.0470571 -0.445553 0)
(0.0166992 -0.421128 0)
(0.00787028 -0.401266 0)
(0.00250665 -0.40066 0)
(-0.00483407 -0.418293 0)
(-0.0340364 -0.439543 0)
(-0.0955741 -0.467676 0)
(-0.165266 -0.482853 0)
(-0.190766 -0.479645 0)
(-0.196464 -0.454055 0)
(-0.193077 -0.413082 0)
(-0.185359 -0.364438 0)
(-0.180101 -0.340723 0)
(-0.165722 -0.335133 0)
(-0.146216 -0.343056 0)
(-0.121293 -0.341805 0)
(-0.0838341 -0.334002 0)
(-0.0445867 -0.287944 0)
(0.0424233 -0.323253 0)
(0.075816 -0.350343 0)
(0.109573 -0.337273 0)
(0.136608 -0.323428 0)
(0.157603 -0.307566 0)
(0.178699 -0.306406 0)
(0.190164 -0.326617 0)
(0.201937 -0.373279 0)
(0.206216 -0.414862 0)
(0.200553 -0.44038 0)
(0.175286 -0.445097 0)
(0.108609 -0.430224 0)
(0.0476789 -0.403526 0)
(0.0185614 -0.378172 0)
(0.00985396 -0.364831 0)
(0.00194433 -0.364087 0)
(-0.00661661 -0.375885 0)
(-0.0340077 -0.39956 0)
(-0.0930962 -0.423817 0)
(-0.164372 -0.440895 0)
(-0.192908 -0.440069 0)
(-0.199549 -0.421171 0)
(-0.196433 -0.384106 0)
(-0.185402 -0.336306 0)
(-0.175146 -0.310075 0)
(-0.15597 -0.30685 0)
(-0.13537 -0.321593 0)
(-0.109064 -0.333479 0)
(-0.0759898 -0.342478 0)
(-0.0421909 -0.309298 0)
(0.0451257 -0.332329 0)
(0.0669803 -0.346919 0)
(0.0936001 -0.326019 0)
(0.12188 -0.303823 0)
(0.145385 -0.285394 0)
(0.173218 -0.281067 0)
(0.192699 -0.305095 0)
(0.208206 -0.348597 0)
(0.212962 -0.383649 0)
(0.206542 -0.402565 0)
(0.180383 -0.404124 0)
(0.112646 -0.388215 0)
(0.051085 -0.361949 0)
(0.0187763 -0.337624 0)
(0.00830559 -0.327827 0)
(0.00242627 -0.327333 0)
(-0.00609514 -0.334766 0)
(-0.0359305 -0.356507 0)
(-0.0959953 -0.381555 0)
(-0.167508 -0.399101 0)
(-0.198511 -0.401321 0)
(-0.205909 -0.388588 0)
(-0.202796 -0.357869 0)
(-0.188633 -0.313975 0)
(-0.170838 -0.283717 0)
(-0.144218 -0.282535 0)
(-0.121197 -0.300966 0)
(-0.093777 -0.322017 0)
(-0.0687101 -0.340491 0)
(-0.0457813 -0.319205 0)
(0.0445601 -0.334562 0)
(0.0534297 -0.331435 0)
(0.0803917 -0.309078 0)
(0.108231 -0.285429 0)
(0.133857 -0.270314 0)