/*--------------------------------*- C++ -*----------------------------------*\
| =========                 |                                                 |
| \\      /  F ield         | OpenFOAM: The Open Source CFD Toolbox           |
|  \\    /   O peration     | Version:  v1606+                                |
|   \\  /    A nd           | Web:      www.OpenFOAM.com                      |
|    \\/     M anipulation  |                                                 |
\*---------------------------------------------------------------------------*/
FoamFile
{
    version     2.0;
    format      ascii;
    class       volScalarField;
    location    "1.09";
    object      nut.particles;
}
// * * * * * * * * * * * * * * * * * * * * * * * * * * * * * * * * * * * * * //

dimensions      [0 2 -1 0 0 0 0];

internalField   nonuniform List<scalar> 
6000
(
1.83495e-05
1.65744e-05
1.73798e-05
1.80296e-05
1.64807e-05
1.38607e-05
1.18777e-05
1.23149e-05
1.31106e-05
1.32832e-05
1.31062e-05
1.27663e-05
1.24458e-05
1.22099e-05
1.18899e-05
1.16567e-05
1.15513e-05
1.16435e-05
1.19131e-05
1.22209e-05
1.22865e-05
1.17623e-05
1.24426e-05
1.42261e-05
1.63924e-05
1.73784e-05
1.69711e-05
1.58038e-05
1.52017e-05
1.65445e-05
5.75934e-06
6.98569e-06
7.0252e-06
7.35604e-06
7.64342e-06
6.94815e-06
6.53304e-06
6.4411e-06
7.11106e-06
7.60055e-06
7.91022e-06
8.14615e-06
8.39571e-06
8.62642e-06
8.68326e-06
8.47914e-06
8.09381e-06
7.65385e-06
7.15201e-06
6.79564e-06
6.56076e-06
6.63121e-06
6.79641e-06
7.16748e-06
8.00107e-06
7.60312e-06
7.39037e-06
7.01759e-06
6.7651e-06
5.15996e-06
3.5777e-06
3.99709e-06
4.11768e-06
4.23603e-06
5.37734e-06
9.45403e-06
1.12123e-05
1.14672e-05
1.24116e-05
1.32319e-05
1.40902e-05
1.50677e-05
1.62194e-05
1.69739e-05
1.72125e-05
1.70314e-05
1.64174e-05
1.54813e-05
1.49126e-05
1.46094e-05
1.40549e-05
1.27788e-05
1.25888e-05
9.52569e-06
5.99121e-06
4.81892e-06
4.74912e-06
4.47626e-06
4.16666e-06
3.78771e-06
2.78557e-06
2.73018e-06
2.93167e-06
3.14214e-06
3.38512e-06
5.96485e-06
1.04501e-05
1.15633e-05
1.27251e-05
1.399e-05
1.45225e-05
1.42824e-05
1.14437e-05
9.54252e-06
8.49146e-06
8.55108e-06
9.34751e-06
1.09176e-05
1.2965e-05
1.34853e-05
1.31561e-05
1.23992e-05
9.69091e-06
5.5208e-06
3.38376e-06
3.10484e-06
2.98586e-06
3.01243e-06
2.87176e-06
2.99819e-06
2.97704e-06
2.87683e-06
2.90373e-06
3.09972e-06
3.31721e-06
4.48427e-06
1.09561e-05
1.37893e-05
1.42975e-05
1.06926e-05
6.67045e-06
4.16905e-06
2.957e-06
2.37116e-06
2.13629e-06
2.19205e-06
2.47251e-06
3.01165e-06
3.97233e-06
5.33792e-06
7.04479e-06
7.92859e-06
5.58089e-06
3.93309e-06
3.33095e-06
3.00621e-06
3.14517e-06
3.36833e-06
3.38836e-06
3.5482e-06
4.52296e-06
4.29014e-06
3.78947e-06
3.30545e-06
3.52229e-06
4.34859e-06
7.26602e-06
8.90821e-06
4.87984e-06
2.5765e-06
1.77529e-06
1.36855e-06
1.18464e-06
1.10297e-06
1.05378e-06
1.08204e-06
1.17348e-06
1.29942e-06
1.46297e-06
1.68392e-06
2.10412e-06
2.66972e-06
2.8985e-06
3.08406e-06
3.27345e-06
3.41583e-06
4.09265e-06
4.80768e-06
5.17557e-06
5.69566e-06
7.50375e-06
6.96817e-06
6.29385e-06
4.63814e-06
4.14892e-06
4.12335e-06
3.52737e-06
2.44449e-06
1.54864e-06
1.31417e-06
1.22706e-06
1.146e-06
1.06239e-06
9.82183e-07
1.02032e-06
1.10376e-06
1.20128e-06
1.26315e-06
1.27239e-06
1.36677e-06
1.47374e-06
1.627e-06
2.00209e-06
2.70058e-06
3.64617e-06
4.87178e-06
6.36658e-06
7.57173e-06
7.87871e-06
9.41971e-06
1.09056e-05
9.82725e-06
9.79372e-06
7.64226e-06
5.16503e-06
3.68072e-06
2.11311e-06
1.39578e-06
1.30452e-06
1.28519e-06
1.22861e-06
1.1283e-06
1.0279e-06
1.12134e-06
1.39669e-06
1.64284e-06
1.77695e-06
1.69268e-06
1.46316e-06
1.39049e-06
1.51637e-06
1.61411e-06
1.868e-06
2.48396e-06
4.04076e-06
7.39495e-06
9.35686e-06
1.00456e-05
1.01864e-05
0.000109492
0.000266288
6.22343e-05
6.85372e-05
1.12294e-05
6.31961e-06
3.59796e-06
1.802e-06
1.34284e-06
1.32917e-06
1.30563e-06
1.2472e-06
1.11017e-06
1.24478e-06
1.88049e-06
2.61544e-06
3.01189e-06
3.08012e-06
2.65278e-06
1.95385e-06
1.52084e-06
1.56686e-06
1.67898e-06
1.83798e-06
2.39313e-06
4.30245e-06
9.00888e-06
4.3232e-05
3.92438e-05
9.3322e-05
0.00077334
0.00131296
0.000449089
0.000203202
2.28519e-05
7.87103e-06
5.0191e-06
1.92925e-06
1.331e-06
1.32892e-06
1.31069e-06
1.25384e-06
1.31493e-06
2.49835e-06
4.24991e-06
5.29909e-06
5.49467e-06
5.20097e-06
4.218e-06
2.8942e-06
1.84524e-06
1.58548e-06
1.71243e-06
1.81588e-06
2.54909e-06
4.77939e-06
8.75935e-06
9.1032e-05
0.000141694
0.00049823
0.00202949
0.00305904
0.00152855
0.00037459
1.91076e-05
1.04452e-05
9.35642e-06
2.74062e-06
1.39218e-06
1.34111e-06
1.33098e-06
1.37787e-06
2.78309e-06
7.5801e-06
7.61159e-06
8.61775e-06
8.23595e-06
7.80943e-06
6.93944e-06
4.80184e-06
2.50402e-06
1.64322e-06
1.69671e-06
1.8462e-06
3.15221e-06
6.25614e-06
8.81028e-06
4.23598e-05
0.00029802
0.00148139
0.00385745
0.00465393
0.00381848
0.00133228
0.000290571
0.00041148
0.000111393
4.92684e-06
1.96338e-06
1.71679e-06
1.75333e-06
2.15958e-06
8.71439e-06
0.000261033
5.05658e-05
5.8164e-05
3.36787e-05
3.80317e-05
1.63372e-05
9.19939e-06
4.33935e-06
2.03265e-06
1.7525e-06
2.21568e-06
4.58141e-06
9.9504e-06
1.30597e-05
0.000137702
0.000861309
0.00371849
0.00612022
0.00505802
0.00509332
0.00471671
0.00440604
0.004396
0.00134129
9.49606e-06
4.48793e-06
3.71174e-06
3.90024e-06
5.41308e-06
1.88075e-05
0.00239375
0.00232906
0.00199281
0.00195586
0.00197213
0.00128005
0.000358792
9.69307e-06
3.92015e-06
2.55081e-06
3.61309e-06
7.64919e-06
0.000207618
0.00108156
0.00215495
0.00451246
0.00681095
0.00700927
2.89279e-05
0.00502981
0.00512534
0.00501239
0.00103403
0.000253074
2.28744e-05
1.47518e-05
1.16377e-05
1.21314e-05
1.63382e-05
2.14027e-05
0.00239262
0.00240497
0.00240137
0.00239509
0.000385176
3.4817e-05
6.62175e-05
2.86491e-05
1.26199e-05
6.34708e-06
8.32068e-06
1.52618e-05
0.00122059
0.00202881
0.00269298
0.00698914
0.00701964
0.0070138
9.46338e-06
0.00505916
0.00499956
2.89787e-05
7.57668e-06
1.10366e-05
2.97048e-05
2.53309e-05
1.92758e-05
1.8893e-05
1.77259e-05
7.19328e-06
1.55964e-05
0.00238781
0.00239361
1.87429e-05
4.56865e-06
3.69756e-06
6.85793e-06
1.36708e-05
1.90143e-05
1.78113e-05
2.2498e-05
2.6912e-05
2.01546e-05
1.02215e-05
1.61912e-05
0.00379811
0.00698879
0.00698019
6.34606e-06
1.43123e-05
1.38405e-05
3.22953e-06
1.10286e-06
1.3556e-06
4.00924e-06
6.4346e-06
5.89611e-06
5.97235e-06
3.7889e-06
1.44689e-06
2.12684e-06
1.12056e-05
0.000153841
2.67705e-06
9.67772e-07
8.98769e-07
9.85549e-07
1.38142e-06
3.36284e-06
6.557e-06
7.24913e-06
4.48693e-06
1.85245e-06
9.86424e-07
1.55178e-06
7.04274e-06
8.90323e-05
1.3167e-05
8.0585e-06
7.36116e-06
2.87386e-06
7.95563e-07
6.61563e-07
6.83975e-07
7.60562e-07
9.73102e-07
1.04651e-06
1.09463e-06
9.17448e-07
7.48655e-07
9.45155e-07
3.30309e-06
5.53164e-06
1.78143e-06
9.05887e-07
7.70666e-07
6.73423e-07
6.72025e-07
7.332e-07
9.06495e-07
8.77604e-07
6.90863e-07
6.03366e-07
5.56795e-07
6.01899e-07
1.38316e-06
5.97633e-06
6.39321e-06
1.04771e-05
5.32756e-06
1.11605e-06
6.84304e-07
6.27264e-07
6.0333e-07
5.72607e-07
6.0907e-07
6.68808e-07
7.04106e-07
6.83774e-07
6.63634e-07
7.50345e-07
2.01847e-06
4.43794e-06
2.40471e-06
1.14452e-06
8.33168e-07
7.0813e-07
6.30304e-07
5.82152e-07
5.48933e-07
5.38683e-07
5.3682e-07
5.46366e-07
5.62793e-07
6.74661e-07
1.10673e-06
2.81235e-06
6.66987e-06
1.62107e-05
4.09294e-06
1.00217e-06
6.98191e-07
6.45813e-07
6.09011e-07
5.53194e-07
5.46603e-07
6.51106e-07
6.93041e-07
6.79124e-07
6.45549e-07
6.46191e-07
1.24358e-06
3.7934e-06
3.33069e-06
1.66327e-06
1.08522e-06
8.72993e-07
7.67272e-07
6.53292e-07
6.00934e-07
5.82391e-07
5.84266e-07
6.24303e-07
7.70896e-07
1.06305e-06
1.8235e-06
3.7209e-06
6.78774e-06
1.75596e-05
5.51391e-06
1.46678e-06
8.44804e-07
7.62798e-07
7.01581e-07
6.05411e-07
5.42943e-07
5.84856e-07
6.67479e-07
6.67792e-07
6.12422e-07
5.90422e-07
9.14859e-07
2.91229e-06
4.31453e-06
2.55506e-06
1.69893e-06
1.34757e-06
1.10588e-06
9.16426e-07
8.45348e-07
8.02967e-07
8.55488e-07
9.92617e-07
1.42434e-06
2.3077e-06
4.06147e-06
6.97396e-06
9.25569e-06
0.000210774
1.08087e-05
3.09881e-06
1.37088e-06
1.12639e-06
9.92509e-07
8.40115e-07
6.61928e-07
5.77056e-07
6.09212e-07
6.07384e-07
5.8205e-07
6.60536e-07
1.15352e-06
2.89458e-06
4.73224e-06
3.77718e-06
2.89553e-06
2.41252e-06
2.05315e-06
1.76581e-06
1.56879e-06
1.51734e-06
1.72104e-06
2.32514e-06
3.61397e-06
6.12151e-06
1.00049e-05
2.47297e-05
7.68461e-05
0.00043036
0.000149267
9.33413e-06
4.18551e-06
2.74937e-06
2.1741e-06
1.56601e-06
9.67196e-07
7.12531e-07
6.22824e-07
6.0004e-07
6.65233e-07
1.06522e-06
2.13018e-06
4.42146e-06
8.10073e-06
8.01172e-06
7.02877e-06
6.25133e-06
5.47276e-06
4.73816e-06
4.22797e-06
4.10671e-06
4.64897e-06
6.3117e-06
9.69827e-06
1.45236e-05
0.000278916
0.000885059
0.000977937
0.000904368
0.00112555
7.13611e-05
1.34528e-05
9.26779e-06
7.29326e-06
5.17628e-06
2.60358e-06
1.21836e-06
8.71005e-07
8.50392e-07
1.31371e-06
3.27122e-06
7.75777e-06
1.33029e-05
0.00018963
0.000224262
0.000124468
5.21343e-05
1.74857e-05
1.49005e-05
1.34724e-05
1.28015e-05
1.36821e-05
1.67991e-05
0.00026294
0.0011576
0.00205513
0.00277105
0.0025905
0.00196227
0.00332218
0.00256477
0.00126645
0.000356053
9.52104e-05
1.59068e-05
9.30446e-06
4.35027e-06
2.40662e-06
2.56162e-06
6.07765e-06
1.61288e-05
0.000376276
0.00218666
0.0051418
0.00641048
0.00640381
0.00570263
0.0046065
0.00341598
0.00246722
0.00195313
0.00217515
0.00317324
0.00428506
0.0048646
0.00512292
0.00522221
0.00432884
0.00380209
0.00750002
0.00936039
0.0102762
0.0101403
0.00881243
0.00515956
0.000622049
1.72527e-05
1.16631e-05
1.33816e-05
3.0764e-05
0.00257342
0.0070252
0.0108574
0.0140668
0.0158711
0.0161881
0.0156641
0.0148411
0.0139629
0.0131217
0.0122755
0.0116501
0.010992
0.0103551
0.00984825
0.00930681
0.00844273
0.00650485
0.00670728
0.0139605
0.0189874
0.0226237
0.0258396
0.0277946
0.02799
0.0232275
0.00860529
0.00244529
0.00326929
0.00925561
0.0137394
0.0168711
0.0200516
0.0224983
0.0240641
0.024585
0.0243216
0.023686
0.0228729
0.0220338
0.0212488
0.0206952
0.0192371
0.0172889
0.0158257
0.0144677
0.0125304
0.00942458
0.0111444
0.0228607
0.0313073
0.036839
0.0416603
0.0456178
0.0490501
0.0532033
0.0549509
0.0506102
0.0423011
0.0342187
0.0290695
0.0285748
0.0301421
0.0317633
0.0329722
0.0336301
0.0336603
0.0332155
0.0321998
0.0309315
0.0300437
0.0299021
0.0288424
0.0257785
0.0229089
0.0204743
0.0174627
0.0132763
0.0177899
0.0346129
0.0462665
0.0529332
0.0580475
0.0616861
0.0637778
0.0660867
0.0686855
0.0681687
0.0619654
0.0528515
0.0454234
0.0420584
0.0416791
0.0422799
0.0430194
0.0436522
0.0439443
0.0439114
0.0427227
0.0407026
0.0393164
0.0391677
0.0393321
0.0357779
0.0312274
0.027396
0.0233024
0.0182171
0.0275827
0.0494446
0.0623791
0.0681315
0.0710774
0.0711615
0.0712395
0.0714894
0.0742402
0.0753242
0.0748775
0.0689228
0.0618458
0.0563406
0.0539308
0.0534127
0.0536124
0.0540326
0.0544687
0.0551095
0.0541982
0.0513735
0.0489665
0.0482108
0.0496584
0.0467358
0.0408897
0.0354745
0.0302428
0.024439
0.041742
0.066192
0.0750202
0.0752822
0.0748935
0.0711196
0.0681659
0.0677255
0.073346
0.0767557
0.0774855
0.0766975
0.0751828
0.0698771
0.0661218
0.0647298
0.0645045
0.0646212
0.0649748
0.0663897
0.0666112
0.063442
0.05942
0.0574142
0.0594972
0.0580779
0.051851
0.044981
0.038566
0.0322066
0.0608265
0.0762696
0.076532
0.0753109
0.0702118
0.0615173
0.0534137
0.0500224
0.0583051
0.0757149
0.0788925
0.0789314
0.0776679
0.0763209
0.0754866
0.0751711
0.0751134
0.0750844
0.0751099
0.0755658
0.0759607
0.0754036
0.0716041
0.0676819
0.0694242
0.0697772
0.0640783
0.0561751
0.0486447
0.0418846
0.0770233
0.0789931
0.0774081
0.0729886
0.0574985
0.0421321
0.0295104
0.0229013
0.0260102
0.0467593
0.0778546
0.0796203
0.0796253
0.0784151
0.0777369
0.0775967
0.0776166
0.077565
0.077562
0.0780588
0.0787117
0.0785499
0.0772419
0.0760063
0.076156
0.0765263
0.0755365
0.0695425
0.0610039
0.0539902
0.0831222
0.0827348
0.0791466
0.0690787
0.0459052
0.0278861
0.0152451
0.00840716
0.0065934
0.00894126
0.0506778
0.0794802
0.0810226
0.0802153
0.0796991
0.0797326
0.0798394
0.079785
0.0798015
0.0802969
0.081135
0.0814617
0.0804549
0.079102
0.0790127
0.0795079
0.0788395
0.077182
0.0752182
0.0692196
0.0901132
0.0878099
0.0819526
0.072471
0.0475898
0.0288495
0.0149986
0.00613878
0.00269249
0.000870865
0.00800694
0.0660162
0.0810802
0.0818069
0.0814503
0.0815974
0.081771
0.081724
0.0817948
0.0823009
0.0832626
0.0840027
0.0835781
0.0824561
0.0822479
0.0827689
0.0823809
0.0809903
0.0792113
0.0777348
0.0941365
0.0892508
0.0812036
0.0717026
0.0563128
0.0401569
0.0247423
0.0104536
0.00359765
0.000600046
8.72925e-05
0.0231675
0.0787249
0.0832065
0.0831635
0.0832942
0.083473
0.0834199
0.0835429
0.0841036
0.0851562
0.0862065
0.0864441
0.0858922
0.0858057
0.0863425
0.0862295
0.0851897
0.0836543
0.0823099
0.0939389
0.0564815
0.0366901
0.0327906
0.0459872
0.0477069
0.0479761
0.0289967
0.00925323
0.00134606
5.07185e-05
0.00340354
0.0624231
0.0841226
0.0850351
0.084947
0.0850245
0.0849164
0.0850295
0.0856503
0.0868256
0.0881809
0.0890291
0.0892432
0.0895732
0.090256
0.0904667
0.0898778
0.0887087
0.0876119
0.055843
0.000255285
0.000523144
0.00100161
0.0110797
0.0344772
0.0518208
0.0577432
0.0296553
0.00368669
5.06585e-05
5.20207e-05
0.0285009
0.0837471
0.0868938
0.0866006
0.0864993
0.086244
0.0861693
0.0867266
0.0881807
0.089931
0.0914117
0.0924676
0.0934577
0.094526
0.0951894
0.0951932
0.0945945
0.0939702
0.00131382
1.1143e-05
1.59516e-05
1.70225e-05
0.000225654
0.0081036
0.0344295
0.059191
0.0602523
0.0133885
0.000262496
5.18433e-05
0.0133946
0.0825787
0.088364
0.0881805
0.087992
0.0874494
0.0867668
0.0870669
0.0889928
0.0914082
0.0936502
0.0956195
0.0974505
0.0991697
0.100513
0.101314
0.101577
0.101735
1.46251e-05
9.34342e-06
1.22318e-05
1.13618e-05
1.6032e-05
0.000370543
0.0117841
0.04698
0.0607565
0.036173
0.00111089
5.01986e-05
0.00701116
0.0810824
0.0893441
0.0896915
0.0896897
0.0886994
0.0866176
0.0864745
0.0891121
0.0925478
0.0957712
0.0987858
0.101629
0.104267
0.106573
0.108486
0.109996
0.111287
1.94299e-05
8.9349e-06
1.09583e-05
1.00216e-05
1.19477e-05
1.73386e-05
0.00173619
0.0262375
0.0605052
0.0600136
0.00376591
4.96347e-05
0.00248073
0.0780622
0.0898102
0.091326
0.0919659
0.0902884
0.0851667
0.0839732
0.0884455
0.0933589
0.097831
0.102083
0.106144
0.109986
0.113612
0.117041
0.120214
0.122903
0.000305656
1.8463e-05
1.08437e-05
9.3585e-06
9.94058e-06
1.2673e-05
8.81195e-05
0.0098863
0.0566515
0.0602981
0.0116456
8.29596e-05
0.000739555
0.0691476
0.0898818
0.0934881
0.0953562
0.0919296
0.079827
0.0777968
0.0864902
0.0939897
0.100026
0.10573
0.111261
0.116648
0.121978
0.127169
0.131991
0.13576
0.00616252
4.76849e-05
1.26834e-05
9.33722e-06
8.95551e-06
1.08388e-05
1.63437e-05
0.00289551
0.0382811
0.0600475
0.0257215
0.000732373
0.000749909
0.0586181
0.0904133
0.0966189
0.0997505
0.0907808
0.0354222
0.0445387
0.0839015
0.094987
0.10282
0.110155
0.117435
0.124673
0.131614
0.137782
0.142214
0.14501
0.00618955
0.000358261
1.49455e-05
9.90689e-06
9.06217e-06
1.07277e-05
1.45225e-05
0.00101339
0.0232465
0.059761
0.040164
0.0036213
0.00137156
0.059436
0.0918894
0.100694
0.103583
0.0822106
0.00183859
0.017717
0.08292
0.0975465
0.107026
0.116017
0.125217
0.133916
0.140602
0.144979
0.145048
0.145062
0.00619185
0.000560196
1.84098e-05
1.08787e-05
9.44227e-06
1.12273e-05
1.4678e-05
0.000672341
0.0151276
0.0404944
0.0379709
0.0108157
0.00516166
0.0653851
0.0942945
0.105342
0.105046
0.0430582
2.12908e-05
0.00919142
0.0854032
0.102946
0.113485
0.123873
0.134374
0.141983
0.144953
0.145023
0.144923
0.145011
0.00599924
2.44788e-05
2.13406e-05
1.108e-05
8.40332e-06
1.13772e-05
1.53634e-05
0.000570236
0.0109004
0.0214504
0.0278914
0.021117
0.0176996
0.0765417
0.0970576
0.107379
0.101432
0.00569187
1.85926e-05
0.0106415
0.0930192
0.11161
0.122274
0.133056
0.142059
0.144927
0.144957
0.143608
0.11923
0.132721
0.000743806
1.13166e-05
1.84075e-05
8.30209e-06
4.96445e-06
9.10918e-06
1.57686e-05
0.00060781
0.00827561
0.00991731
0.0142558
0.0253207
0.0406188
0.0821656
0.0995506
0.107606
0.0774535
1.82007e-05
1.86198e-05
0.0216138
0.103844
0.122152
0.131827
0.140557
0.14476
0.144836
0.135851
0.105075
0.0150789
0.0802067
2.29156e-05
7.95629e-06
1.36262e-05
4.67805e-06
2.53035e-06
4.90697e-06
1.35167e-05
0.000730128
0.00598126
0.00434558
0.00420076
0.0120535
0.0589817
0.0887038
0.103546
0.107905
0.0316877
1.13898e-05
1.67388e-05
0.0379366
0.115169
0.132673
0.139241
0.143975
0.144627
0.13162
0.0737109
0.00361143
0.00040558
0.00642236
1.43977e-05
5.92136e-06
7.54091e-06
2.80456e-06
1.97177e-06
2.57923e-06
8.41135e-06
0.00110544
0.00486835
0.00339303
0.00178979
0.00149825
0.0423042
0.095365
0.108765
0.110174
0.0192368
1.13593e-05
1.57332e-05
0.0653611
0.129186
0.141691
0.142759
0.143255
0.130997
0.066588
2.23828e-05
1.42521e-05
2.77464e-05
0.00334232
1.40829e-05
4.66024e-06
4.19362e-06
2.26823e-06
1.79922e-06
1.77855e-06
4.14309e-06
6.91247e-05
0.00212181
0.00336693
0.00200338
0.00150579
0.0192772
0.101224
0.111383
0.111067
0.00465581
1.02396e-05
0.00014803
0.104504
0.146606
0.146698
0.142766
0.131077
0.087411
0.000159461
6.63243e-06
2.38975e-06
5.0997e-06
3.18683e-05
1.64746e-05
4.91448e-06
3.41112e-06
2.30901e-06
1.70588e-06
1.5372e-06
2.41455e-06
8.8626e-06
4.84649e-05
0.00333693
0.00330772
0.00203114
0.0127232
0.102204
0.111356
0.104395
0.000636973
9.20466e-06
0.00814216
0.143259
0.147374
0.147205
0.13622
0.107741
0.005774
1.1884e-05
2.59857e-06
9.71977e-07
1.54918e-06
2.95765e-06
1.85374e-05
6.79518e-06
3.91715e-06
2.98794e-06
1.69298e-06
1.35582e-06
1.62561e-06
4.82547e-06
1.06445e-05
2.71848e-05
0.00173919
0.00387756
0.00371113
0.0886795
0.110509
0.0981222
0.00156192
0.000106761
0.0739429
0.142079
0.147191
0.140336
0.12039
0.0796509
0.00103107
7.32681e-06
1.88951e-06
1.02302e-06
1.29855e-06
9.86422e-07
1.50599e-05
6.07619e-06
4.59885e-06
3.95383e-06
1.84875e-06
1.472e-06
2.15397e-06
4.98295e-06
3.96798e-06
1.80091e-06
6.5863e-06
0.000574846
1.87873e-05
0.0477937
0.103819
0.091976
0.0103965
0.022198
0.101216
0.135684
0.13827
0.128851
0.104323
0.0146781
0.000105705
7.41501e-06
1.89726e-06
1.22836e-06
1.25625e-06
9.30815e-07
3.61731e-06
2.78987e-06
3.06913e-06
3.24141e-06
2.44122e-06
2.67668e-06
4.45443e-06
5.32125e-06
2.19848e-06
7.7727e-07
7.00051e-07
8.07425e-06
2.14824e-05
0.0257818
0.0987234
0.090744
0.0441645
0.07503
0.103119
0.125548
0.127552
0.119098
0.0887706
0.00192056
1.19773e-05
5.36318e-06
1.85159e-06
1.21813e-06
1.19289e-06
1.05698e-06
2.38499e-06
2.49901e-06
2.51569e-06
2.80326e-06
3.10488e-06
3.97609e-06
4.44134e-06
2.84479e-06
1.20755e-06
6.88382e-07
4.87107e-07
1.25602e-06
1.61965e-05
0.0160434
0.0968119
0.0916865
0.0786368
0.0844654
0.103084
0.120627
0.123447
0.112226
0.0551569
5.84701e-05
5.29462e-06
2.37567e-06
2.26947e-06
1.25422e-06
1.11771e-06
1.24169e-06
3.67395e-06
3.44917e-06
3.23285e-06
2.99735e-06
3.1262e-06
2.9804e-06
2.29177e-06
1.68746e-06
1.03458e-06
6.28281e-07
4.52556e-07
8.95134e-07
1.11343e-05
0.0109371
0.093073
0.0875504
0.0832564
0.0909381
0.106181
0.11998
0.120185
0.101269
0.00569279
8.51663e-06
1.79928e-06
2.30473e-06
2.5499e-06
1.53538e-06
1.29974e-06
1.54092e-06
3.8779e-06
3.55013e-06
3.21787e-06
2.8277e-06
2.43205e-06
2.0072e-06
1.69269e-06
1.48099e-06
9.66551e-07
5.96066e-07
4.37582e-07
8.31764e-07
8.65268e-06
0.0132241
0.0827051
0.0691126
0.0808783
0.09583
0.110936
0.120449
0.115536
0.07978
0.000100308
3.77532e-06
1.21339e-06
2.88154e-06
2.67233e-06
1.74106e-06
1.38532e-06
1.92679e-06
3.84302e-06
3.56772e-06
3.22956e-06
2.78446e-06
2.26813e-06
1.80693e-06
1.55558e-06
1.35861e-06
9.05681e-07
5.6669e-07
4.24244e-07
1.00964e-06
1.85814e-05
0.0395477
0.0407913
0.0152995
0.0740482
0.102355
0.117883
0.122332
0.108646
0.016251
8.76252e-06
1.63401e-06
1.7231e-06
3.19873e-06
2.57934e-06
1.69793e-06
1.50263e-06
2.33066e-06
3.81794e-06
3.59831e-06
3.25441e-06
2.7562e-06
2.18172e-06
1.67811e-06
1.41367e-06
1.25477e-06
8.69816e-07
5.43283e-07
4.12497e-07
1.38057e-06
0.0016272
0.0400084
0.0129836
0.00138734
0.0565534
0.112676
0.124469
0.122775
0.0882768
0.000125904
3.92659e-06
1.33008e-06
2.63247e-06
2.99953e-06
2.35834e-06
1.72156e-06
1.83473e-06
2.58844e-06
3.81154e-06
3.63449e-06
3.27502e-06
2.71544e-06
2.0822e-06
1.56127e-06
1.31124e-06
1.18492e-06
8.48957e-07
5.23461e-07
4.06123e-07
1.7825e-06
0.00233244
0.0385297
9.8242e-05
5.41565e-06
0.0346559
0.12201
0.125309
0.11874
0.0205511
8.22035e-06
1.6451e-06
2.10981e-06
2.99188e-06
2.65611e-06
2.12533e-06
1.79744e-06
2.02877e-06
2.64355e-06
3.8224e-06
3.67537e-06
3.29596e-06
2.67498e-06
1.99198e-06
1.47465e-06
1.23479e-06
1.12721e-06
8.0935e-07
5.01985e-07
3.9514e-07
7.55396e-07
2.73809e-05
0.00560315
8.70829e-06
4.85788e-06
0.038084
0.12495
0.125246
0.0952847
4.21123e-05
3.79912e-06
1.5697e-06
2.90166e-06
2.81091e-06
2.27558e-06
1.8804e-06
1.76112e-06
2.01601e-06
2.54399e-06
3.84215e-06
3.71488e-06
3.31275e-06
2.65138e-06
1.93471e-06
1.42513e-06
1.18783e-06
1.06857e-06
7.48574e-07
4.78845e-07
3.92065e-07
3.94203e-07
2.30835e-06
2.35289e-05
5.89781e-06
9.99913e-06
0.105397
0.125359
0.125193
0.0367748
1.01063e-05
2.04263e-06
2.28689e-06
2.97915e-06
2.40107e-06
1.90677e-06
1.64399e-06
1.6309e-06
1.86928e-06
2.34996e-06
3.86195e-06
3.74151e-06
3.32896e-06
2.65424e-06
1.91188e-06
1.40094e-06
1.15154e-06
1.00833e-06
6.91319e-07
4.52802e-07
3.76984e-07
4.11818e-07
6.11702e-07
2.48975e-06
3.92609e-06
0.000178936
0.124778
0.12552
0.116704
0.000961834
5.33051e-06
1.68815e-06
2.85714e-06
2.62522e-06
1.97944e-06
1.61611e-06
1.49607e-06
1.53851e-06
1.73087e-06
2.15789e-06
3.87256e-06
3.75189e-06
3.34825e-06
2.67118e-06
1.90536e-06
1.38454e-06
1.10746e-06
9.35716e-07
6.32775e-07
4.27462e-07
3.87735e-07
4.40981e-07
7.35729e-07
1.17682e-06
2.65246e-06
0.00107366
0.125078
0.12522
0.0833158
1.45804e-05
3.15716e-06
1.99412e-06
2.75714e-06
2.05868e-06
1.61884e-06
1.46204e-06
1.45055e-06
1.53228e-06
1.68356e-06
2.07728e-06
3.87013e-06
3.75313e-06
3.3608e-06
2.69587e-06
1.90543e-06
1.36382e-06
1.05484e-06
8.64367e-07
5.72396e-07
4.124e-07
4.02773e-07
4.85536e-07
8.80189e-07
1.41108e-06
5.2331e-06
0.0261436
0.124954
0.125071
0.0153154
1.00598e-05
2.02245e-06
2.37619e-06
1.9425e-06
1.53644e-06
1.42626e-06
1.42807e-06
1.53006e-06
1.65983e-06
1.77393e-06
2.14005e-06
3.85201e-06
3.74127e-06
3.34801e-06
2.70943e-06
1.90784e-06
1.33394e-06
1.00084e-06
7.90273e-07
5.26401e-07
4.12335e-07
4.34185e-07
5.58194e-07
1.10577e-06
1.90605e-06
1.02733e-05
0.0987845
0.124797
0.0970154
0.000171775
4.93618e-06
1.86308e-06
1.88496e-06
1.41798e-06
1.34525e-06
1.39539e-06
1.51466e-06
1.68371e-06
1.8181e-06
1.93165e-06
2.32915e-06
3.82061e-06
3.71317e-06
3.31761e-06
2.70702e-06
1.89923e-06
1.2861e-06
9.45352e-07
7.1906e-07
5.04138e-07
4.33185e-07
4.82613e-07
6.9268e-07
1.43698e-06
3.53675e-06
0.00290191
0.119181
0.119997
0.0298874
1.49647e-05
2.67676e-06
2.04763e-06
1.46343e-06
1.30734e-06
1.35532e-06
1.48236e-06
1.63568e-06
1.76957e-06
1.85203e-06
2.02302e-06
2.56551e-06
3.77921e-06
3.66972e-06
3.28415e-06
2.68249e-06
1.8495e-06
1.2128e-06
8.87419e-07
6.70146e-07
5.07697e-07
4.71824e-07
5.50345e-07
8.64869e-07
1.76245e-06
6.98966e-06
0.0263888
0.115496
0.0954415
0.00130361
6.33745e-06
1.86157e-06
1.81979e-06
1.36509e-06
1.3342e-06
1.43427e-06
1.55855e-06
1.67954e-06
1.77905e-06
1.8202e-06
2.05231e-06
2.83622e-06
3.73112e-06
3.62444e-06
3.25818e-06
2.6207e-06
1.73491e-06
1.11947e-06
8.30512e-07
6.47144e-07
5.24283e-07
5.16515e-07
6.19675e-07
1.05754e-06
2.4831e-06
1.35803e-05
0.0795604
0.105434
0.0463101
2.11202e-05
2.5487e-06
1.88044e-06
1.6541e-06
1.37083e-06
1.35634e-06
1.45537e-06
1.57127e-06
1.66857e-06
1.68219e-06
1.63609e-06
2.06383e-06
3.09278e-06
3.68663e-06
3.59704e-06
3.22878e-06
2.47292e-06
1.54516e-06
1.01564e-06
7.84926e-07
6.42207e-07
5.44885e-07
5.66365e-07
7.11388e-07
1.23058e-06
4.45654e-06
0.00140354
0.0928983
0.0932397
0.00389691
7.4936e-06
1.23161e-06
1.94209e-06
1.60823e-06
1.39329e-06
1.35259e-06
1.42208e-06
1.48182e-06
1.47606e-06
1.40715e-06
1.55769e-06
2.166e-06
3.32508e-06
3.66575e-06
3.58756e-06
3.14304e-06
2.17782e-06
1.30265e-06
9.12134e-07
7.52448e-07
6.4716e-07
5.75456e-07
6.33039e-07
8.27859e-07
1.34413e-06
8.5917e-06
0.00561543
0.0877989
0.0644918
2.8983e-05
2.7825e-06
1.05174e-06
1.5524e-06
1.59705e-06
1.40686e-06
1.28165e-06
1.234e-06
1.21749e-06
1.20408e-06
1.24687e-06
1.59258e-06
2.43013e-06
3.58868e-06
3.68344e-06
3.56264e-06
2.89148e-06
1.7215e-06
1.0515e-06
8.24318e-07
7.32987e-07
6.57517e-07
6.17637e-07
7.11655e-07
9.29393e-07
1.25145e-06
5.90975e-06
0.00328055
0.0506102
0.0266001
2.61102e-05
1.7276e-06
9.77647e-07
1.35085e-06
1.55426e-06
1.46131e-06
1.2747e-06
1.17584e-06
1.1318e-06
1.12453e-06
1.20854e-06
1.63893e-06
2.6029e-06
3.8162e-06
3.71939e-06
3.41294e-06
2.34432e-06
1.22493e-06
8.62415e-07
7.6835e-07
7.27601e-07
6.7741e-07
6.59408e-07
7.66681e-07
9.42169e-07
1.12855e-06
1.86762e-06
2.00009e-05
0.00587657
0.00320448
1.21178e-05
1.2719e-06
8.84191e-07
1.09286e-06
1.39143e-06
1.4743e-06
1.36513e-06
1.21866e-06
1.13775e-06
1.12004e-06
1.20113e-06
1.63732e-06
2.63836e-06
3.89662e-06
3.66121e-06
2.96274e-06
1.57087e-06
9.32362e-07
7.77935e-07
7.51769e-07
7.33502e-07
7.04298e-07
7.0387e-07
7.88795e-07
9.10871e-07
1.00697e-06
1.17057e-06
3.1998e-06
1.99745e-05
1.76474e-05
6.20511e-06
1.17646e-06
8.46386e-07
9.68399e-07
1.17454e-06
1.38396e-06
1.39237e-06
1.30574e-06
1.21973e-06
1.16017e-06
1.20862e-06
1.5981e-06
2.60904e-06
3.89709e-06
3.30719e-06
2.12849e-06
1.10309e-06
8.13929e-07
7.65082e-07
7.6494e-07
7.52873e-07
7.35698e-07
7.49923e-07
8.26256e-07
8.96648e-07
9.29125e-07
1.08e-06
1.77485e-06
4.79071e-06
6.81209e-06
5.00778e-06
1.16576e-06
8.16071e-07
9.02629e-07
1.00821e-06
1.18151e-06
1.32896e-06
1.31448e-06
1.26447e-06
1.22102e-06
1.2303e-06
1.5353e-06
2.51164e-06
3.82764e-06
2.64113e-06
1.39465e-06
9.1883e-07
8.06695e-07
8.01091e-07
7.99431e-07
7.85148e-07
7.72697e-07
7.90078e-07
8.58969e-07
8.85906e-07
8.99987e-07
1.03592e-06
1.70588e-06
3.59423e-06
5.87673e-06
4.62374e-06
1.06332e-06
7.86641e-07
8.53565e-07
9.29057e-07
1.02372e-06
1.17815e-06
1.27481e-06
1.26772e-06
1.24366e-06
1.24876e-06
1.47796e-06
2.38411e-06
3.70317e-06
1.90406e-06
1.11997e-06
9.00247e-07
8.59286e-07
8.58757e-07
8.46726e-07
8.23801e-07
8.07776e-07
8.24121e-07
8.75905e-07
8.8172e-07
8.92045e-07
1.02072e-06
1.73551e-06
3.80961e-06
6.01794e-06
3.84761e-06
9.16313e-07
7.5025e-07
8.17274e-07
8.8258e-07
9.42884e-07
1.04818e-06
1.18132e-06
1.24487e-06
1.24845e-06
1.26196e-06
1.45396e-06
2.26468e-06
3.5476e-06
1.60617e-06
1.07129e-06
9.42172e-07
9.16709e-07
9.05956e-07
8.91246e-07
8.68382e-07
8.41981e-07
8.5028e-07
8.79849e-07
8.76044e-07
8.88371e-07
1.06141e-06
1.93071e-06
4.43618e-06
6.55582e-06
3.05441e-06
7.91274e-07
7.05107e-07
7.77629e-07
8.33421e-07
8.93115e-07
9.72314e-07
1.07971e-06
1.18375e-06
1.23623e-06
1.26834e-06
1.45179e-06
2.17536e-06
3.37041e-06
1.60372e-06
1.08415e-06
9.73192e-07
9.39011e-07
9.19315e-07
9.06926e-07
8.89562e-07
8.58868e-07
8.58866e-07
8.64641e-07
8.47589e-07
8.79558e-07
1.12133e-06
2.13945e-06
5.5163e-06
8.11291e-06
2.29488e-06
7.00594e-07
6.64964e-07
7.20947e-07
7.73573e-07
8.38067e-07
9.16016e-07
1.00302e-06
1.10845e-06
1.19604e-06
1.26759e-06
1.46838e-06
2.1269e-06
3.18439e-06
1.66293e-06
1.07704e-06
9.7216e-07
9.30617e-07
8.96433e-07
8.8475e-07
8.6888e-07
8.35103e-07
8.21538e-07
8.08674e-07
7.97835e-07
8.55418e-07
1.16835e-06
2.31124e-06
6.79778e-06
9.87603e-06
1.77607e-06
6.33759e-07
6.36117e-07
6.72647e-07
7.16808e-07
7.7966e-07
8.62749e-07
9.58434e-07
1.06921e-06
1.17277e-06
1.27253e-06
1.50411e-06
2.11248e-06
3.0177e-06
1.73896e-06
1.05333e-06
9.19234e-07
8.64311e-07
8.17533e-07
7.95991e-07
7.78696e-07
7.50736e-07
7.34341e-07
7.28828e-07
7.47307e-07
8.47248e-07
1.21512e-06
2.48993e-06
8.2626e-06
1.07314e-05
1.45021e-06
6.05364e-07
6.10396e-07
6.41087e-07
6.77277e-07
7.43326e-07
8.31856e-07
9.37619e-07
1.05943e-06
1.17434e-06
1.28413e-06
1.53127e-06
2.10927e-06
2.88168e-06
1.85335e-06
9.97313e-07
8.2252e-07
7.71013e-07
7.3432e-07
7.13198e-07
6.96677e-07
6.78195e-07
6.6389e-07
6.68303e-07
7.16302e-07
8.5516e-07
1.27909e-06
2.749e-06
9.54814e-06
1.06113e-05
1.25411e-06
5.9789e-07
5.93581e-07
6.14523e-07
6.46093e-07
7.12123e-07
8.04302e-07
9.23238e-07
1.05746e-06
1.18129e-06
1.29627e-06
1.53618e-06
2.08398e-06
2.75618e-06
1.90204e-06
9.28222e-07
7.52142e-07
7.0964e-07
6.82711e-07
6.67352e-07
6.55206e-07
6.36711e-07
6.27407e-07
6.5021e-07
7.18611e-07
8.86511e-07
1.36696e-06
3.17202e-06
1.07165e-05
9.69032e-06
1.0717e-06
5.99923e-07
5.92968e-07
5.92331e-07
6.12221e-07
6.68436e-07
7.58514e-07
8.9096e-07
1.05188e-06
1.20152e-06
1.32112e-06
1.52745e-06
2.01944e-06
2.61316e-06
1.8855e-06
8.74409e-07
7.11298e-07
6.71396e-07
6.47779e-07
6.35899e-07
6.24632e-07
6.14806e-07
6.31853e-07
6.70042e-07
7.50031e-07
9.30592e-07
1.48503e-06
3.85465e-06
1.22972e-05
7.7816e-06
8.92664e-07
6.11275e-07
6.05996e-07
5.94151e-07
5.90891e-07
6.23006e-07
6.94584e-07
8.22344e-07
1.00933e-06
1.20689e-06
1.36617e-06
1.52442e-06
1.92734e-06
2.43423e-06
1.86591e-06
8.4212e-07
6.80411e-07
6.38533e-07
6.20592e-07
6.16967e-07
6.07579e-07
6.16923e-07
6.57707e-07
7.02477e-07
7.82269e-07
9.74117e-07
1.65718e-06
4.96929e-06
1.48677e-05
5.12713e-06
7.81156e-07
6.37362e-07
6.29162e-07
6.15716e-07
5.98971e-07
5.9719e-07
6.33306e-07
7.31731e-07
9.09356e-07
1.16819e-06
1.38774e-06
1.5334e-06
1.82943e-06
2.23129e-06
1.85621e-06
8.12053e-07
6.55733e-07
6.16323e-07
6.05148e-07
6.13188e-07
6.11938e-07
6.33034e-07
6.82593e-07
7.25435e-07
8.02926e-07
1.02746e-06
1.91325e-06
6.69836e-06
1.62733e-05
2.96176e-06
7.33408e-07
6.76954e-07
6.66994e-07
6.49637e-07
6.30629e-07
6.08829e-07
6.0519e-07
6.54514e-07
7.85067e-07
1.04426e-06
1.37177e-06
1.56129e-06
1.75514e-06
2.03338e-06
1.80912e-06
7.79338e-07
6.39629e-07
6.06212e-07
6.02488e-07
6.19206e-07
6.26007e-07
6.49327e-07
6.96223e-07
7.40295e-07
8.23541e-07
1.11242e-06
2.30575e-06
8.81661e-06
1.39248e-05
1.81754e-06
7.26692e-07
7.21274e-07
7.11011e-07
6.94743e-07
6.75245e-07
6.51805e-07
6.25277e-07
6.21424e-07
6.85539e-07
8.82065e-07
1.25785e-06
1.56666e-06
1.719e-06
1.86745e-06
1.74349e-06
7.58829e-07
6.27778e-07
6.00507e-07
6.03225e-07
6.26962e-07
6.41314e-07
6.63461e-07
7.05752e-07
7.57927e-07
8.5917e-07
1.26015e-06
3.01666e-06