/*--------------------------------*- C++ -*----------------------------------*\
| =========                 |                                                 |
| \\      /  F ield         | OpenFOAM: The Open Source CFD Toolbox           |
|  \\    /   O peration     | Version:  v1606+                                |
|   \\  /    A nd           | Web:      www.OpenFOAM.com                      |
|    \\/     M anipulation  |                                                 |
\*---------------------------------------------------------------------------*/
FoamFile
{
    version     2.0;
    format      ascii;
    class       volScalarField;
    location    "5.4";
    object      alpha.water;
}
// * * * * * * * * * * * * * * * * * * * * * * * * * * * * * * * * * * * * * //

dimensions      [0 0 0 0 0 0 0];

internalField   nonuniform List<scalar> 
11640
(
0.999999965469
0.999999963859
0.999999946218
0.999999932043
0.999999948766
0.999999982999
0.999999976748
0.999999878174
0.999999725952
0.999999722197
0.999999720913
0.999999721005
0.999999719953
0.999999723306
0.999999746003
0.999999746732
0.999999758193
0.999999768695
0.999999799467
0.999999935794
0.999999965855
0.999999968412
0.999999967659
0.999999970575
0.999999972765
0.999999985426
0.999999991967
0.999999842735
0.999999727134
0.999999723326
0.999999723825
0.999999724235
0.999999719954
0.999999719974
0.999999869812
0.999999951821
0.999999968698
0.999999978797
0.999999979616
0.999999971827
0.999999965466
0.999999969392
0.999999969905
0.999999970393
0.99999995442
0.999999954626
0.999999980953
0.999999988313
0.999999950249
0.999999971545
0.999999830022
0.999999856163
0.999999923691
0.999999931813
0.99999989581
0.999999878454
0.99999986907
0.999999966388
0.999999986474
0.999999990265
0.999999811646
0.999999851661
0.999999883752
0.999999937185
0.999999954119
0.999999958413
1.0000000019
1.00000000048
1.00000002445
1.00000000075
1.0000000386
1.00000000237
1.00000011077
1.00000000747
1.00000004852
1.00000000769
0.999999962149
0.999999961546
0.999999994702
0.999999999269
0.999999754534
0.999999736852
0.999999668346
0.999999906388
0.999999939406
0.999999943271
0.999999987817
1.00000005022
1.00000000132
1.00000010308
1.00000000525
1.00000016778
1.00000000862
1.00000024847
1.00000000847
1.00000005912
1.00000000444
1.00000000165
1.00000000053
1
0.999999728191
0.99999962709
0.999999786185
0.999999894472
0.999999973338
0.999999973404
1.00000000291
1.00000000043
1.0000001261
1.00000000169
1.00000027752
1.00000000765
1.00000032529
1.00000001463
1.00000021812
1.00000001245
1.00000003785
1.00000000703
1.0000000018
0.999999981831
0.999999862578
0.999999866546
0.999999839091
0.999999930029
0.999999972813
0.999999962251
0.999999916761
1.00000008016
1.00000000519
1.00000020613
1.00000001199
1.00000024222
1.00000000276
1.00000015767
1.00000000458
1.00000000218
1.00000001084
1.00000000464
0.999999965502
0.999999828074
0.999999867401
0.999999885369
0.999999773585
0.999999829269
0.999999896186
0.999999876502
0.999999913275
0.999999989035
1.00000006488
1.00000000705
1.00000010363
1.00000000411
1.00000000746
0.999999970797
0.999999994767
0.999999996499
1.00000000277
1.00000001073
0.999999886399
0.999999641509
0.999999848617
0.999999805981
0.999999786555
0.999999783432
0.999999942153
0.999999955692
0.999999980355
0.999999980881
0.999999969336
0.99999998021
0.999999974476
0.999999970626
0.999999939001
0.999999863594
0.999999950539
0.999999965186
0.999999997801
0.999999960567
0.999999815932
0.999999641509
0.99999990221
0.999999835555
0.999999786593
0.999999864416
0.999999968921
0.999999969831
0.999999969272
0.999999990384
0.999999961028
0.999999966748
0.999999973612
0.99999994794
0.999999876194
0.99999976365
0.999999710629
0.999999733256
0.999999949411
0.999999905156
0.99999979018
0.999999650074
0.999999963587
0.999999963096
0.999999824785
0.999999918725
0.999999962166
0.999999957656
0.999999976313
0.999999987323
0.999999981957
0.999999967118
0.999999968764
0.999999962778
0.999999732901
0.999999712434
0.99999970611
0.99999970611
0.999999978343
0.999999860631
0.999999972524
0.999999707736
0.99999991438
0.999999914081
0.999999944038
0.999999924955
0.999999978845
0.999999976798
0.999999992068
0.999999987403
0.99999998467
0.999999983391
0.999999866846
0.99999973216
0.999999717927
0.999999711203
0.99999970611
0.999999708569
0.999999863808
0.999999999697
0.999999999707
0.999999736855
0.999999914416
0.999999959692
0.99999996407
0.999999970812
0.999999978411
0.999999978374
0.999999952187
0.999999984639
0.999999963112
0.999999864538
0.99999986615
0.999999869019
0.999999733901
0.999999713165
0.999999715725
0.999999910845
0.999999917717
0.999999971023
0.999999976913
0.99999977169
0.999999954161
0.999999983905
0.999999981642
0.999999977284
0.999999961796
0.999999976818
0.999999955874
0.999999951588
0.999999963269
0.999999798215
0.999999821504
0.999999954713
0.999999940168
0.999999854293
0.999999818689
0.999999759914
0.999999780087
0.999999812204
0.99999995406
0.99999983608
0.999999932426
0.999999982623
0.999999970242
0.999999984544
0.999999984383
0.999999988057
0.999999971378
0.999999951635
0.999999959731
0.999999958994
0.999999957421
0.999999967258
0.999999942353
0.999999972313
0.999999820046
0.999999787496
0.999999812234
0.999999816775
0.99999999961
0.999999901865
0.999999919654
0.999999987887
0.99999998755
0.99999999105
0.99999998479
0.999999986225
0.999999968382
0.999999947818
0.999999950146
0.999999941919
0.999999965851
0.999999968385
0.999999985569
0.999999991309
0.999999814269
0.9999998396
0.999999817226
0.999999998596
0.99999999961
0.999999901581
0.999999901324
0.999999975336
0.999999993053
0.999999990753
0.99999998826
0.999999944772
0.999999968965
0.999999962573
0.999999947844
0.999999946387
0.999999973854
0.999999984256
0.999999990877
0.999999893061
0.999999836175
0.99999982099
0.999999929748
0.999999932636
0.999999987465
0.999999992778
0.99999990459
0.999999947343
0.999999993212
0.999999993966
0.999999991778
0.999999991391
0.999999972991
0.999999967705
0.999999966461
0.999999983387
0.999999993221
0.999999981654
0.999999996945
0.999999922248
0.999999843227
0.999999895284
0.999999873776
0.999999976232
0.999999969524
0.999999987558
0.999999972177
0.999999953613
0.999999981399
0.999999991832
0.99999998987
0.999999969334
0.999999966133
0.999999966525
0.999999963157
0.999999966419
0.999999970786
0.999999973841
0.999999990313
0.999999976639
0.999999903903
0.999999854909
0.999999928183
0.999999937229
0.999999924665
0.999999957684
0.999999978997
0.999999979284
0.999999979784
0.999999987251
0.999999988738
0.999999983809
0.999999961934
0.999999950576
0.999999946069
0.999999960097
0.999999962691
0.999999968826
0.999999978165
0.999999971479
0.999999875669
0.999999885256
0.999999885174
0.999999913403
0.99999992527
0.999999939108
0.999999970358
0.999999966129
0.999999942448
0.999999879065
0.99999990461
0.999999928816
0.999999963257
1.00000000085
1.00000000539
1.00000000448
0.999999918365
0.999999765046
0.999999764128
0.999999746425
0.999999753531
0.999999748922
0.999999751572
0.999999758041
0.99999976735
0.999999928674
0.999999963618
0.999999966444
0.999999967798
0.999999962162
0.999999926883
0.999999989013
1.00000000042
1.00000002115
0.999999998624
1.0000000106
1.00000000102
0.999999933133
0.99999982809
0.999999803066
0.999999871898
0.999999902045
0.999999878857
0.999999929431
0.999999921652
0.999999939879
0.999999965442
0.99999996408
0.999999952908
0.999999959561
0.999999933553
0.999999998866
1.00000009372
1.0000000009
1.00000004276
1.00000000037
1.00000002526
1.00000000174
1.00000001492
1
0.999999998673
0.999999869349
0.999999854054
0.99999997801
0.999999956412
0.999999982952
0.999999785297
0.999999795023
0.999999924911
0.999999906947
0.999999930014
0.999999979673
1.00000000107
1.00000012651
1.00000000273
1.00000006947
1.00000000392
1.00000007145
1.00000000997
1.00000006159
1.00000000783
1.00000002407
1.00000000133
0.999999996558
0.999999994125
0.999999984569
0.999999709626
0.999999659545
0.999999654658
0.999999886889
0.999999890127
0.999999992351
1.00000008846
1.00000000302
1.00000023998
1.00000000557
1.00000016236
1.0000000116
1.00000014573
1.00000000779
1.00000022567
1.00000002072
1.0000000668
1.00000000311
1.00000000488
0.999999995109
0.999999718058
0.999999622443
0.999999809814
0.999999891042
0.999999870215
0.999999970841
1
1.0000003685
1.00000000397
1.00000031677
1.00000000681
1.00000038794
1.00000000283
1.00000044353
1.00000001938
1.00000039468
1.00000000982
1.00000005068
0.999999986408
0.999999966831
0.999999852466
0.999999621181
0.999999759003
0.99999990894
0.999999911807
0.999999949255
1.00000007668
1.00000000859
1.00000032366
1.00000001884
1.00000055929
1.0000000093
1.00000050734
1.00000000992
1.0000005486
1.00000001688
1.00000016676
0.999999990422
0.999999984023
0.999999957622
0.999999884295
0.999999913107
0.999999769788
0.999999908913
0.999999842525
0.999999873175
0.999999878855
1.00000010499
1.00000001411
1.00000036768
1.00000001612
1.00000046302
1.00000000734
1.00000031086
1.00000000574
1.00000018215
1.00000001125
1.00000000382
0.999999927286
0.999999849272
0.999999836579
0.99999991602
0.999999772572
0.999999874847
0.999999863677
0.999999866684
0.999999910284
0.999999946311
1.00000006063
1.00000000604
1.00000019299
1.00000000299
1.00000007263
0.999999955057
1.0000000526
1
1.00000005042
0.99999986702
0.999999872829
0.999999880461
0.99999993799
0.999999924571
0.999999781145
0.99999989335
0.999999906469
0.99999994555
0.999999933873
0.999999961715
0.999999949501
0.99999999695
0.99999999488
0.999999994851
0.999999918119
0.999999965489
0.999999965805
0.999999870578
0.999999970909
0.99999998073
0.999999987628
0.999999874627
0.999999963608
0.999999948945
0.999999916596
0.999999912187
0.999999920672
0.999999950332
0.999999963824
0.999999980847
0.999999969888
0.999999964237
0.999999971925
0.999999974484
0.999999978471
0.999999959735
0.999999921955
0.999999706565
0.999999919069
0.999999999643
0.99999997771
0.999999703124
0.999999961346
0.999999912395
0.99999994393
0.99999993204
0.999999966169
0.999999990477
0.999999994523
0.99999998468
0.999999833511
0.999999804193
0.999999828304
0.999999832936
0.999999972503
0.999999799295
0.999999869839
0.999999778553
0.999999993701
0.999999974333
0.999999999705
0.999999834311
0.999999960775
0.999999968664
0.999999913309
0.999999930363
0.999999914065
0.999999947994
0.999999911508
0.99999976475
0.999999763527
0.99999974751
0.999999780856
0.999999813955
0.999999973049
0.999999814945
0.999999882774
0.999999966975
0.999999955097
0.999999980818
0.999999957225
0.999999849648
0.999999900984
0.999999981514
0.999999918709
0.999999980315
0.999999945718
0.999999986736
0.999999960676
0.999999787717
0.999999774742
0.999999765012
0.999999882814
0.999999945202
0.999999986463
0.999999978511
0.99999998318
0.999999984911
0.999999888696
0.999999964161
0.999999944163
0.999999926528
0.999999900653
0.999999980238
0.999999958023
0.999999983842
0.99999999175
0.999999990975
0.999999991224
0.999999961848
0.999999957845
0.999999934266
0.999999920715
0.999999949794
0.999999971941
0.999999979585
0.999999976072
0.999999984923
0.999999994196
0.999999999826
0.999999969481
0.999999901052
0.999999900681
0.999999988246
0.999999987538
0.999999991796
0.999999991404
0.999999970106
0.999999955937
0.999999959781
0.999999915263
0.999999916877
0.999999918823
0.999999956951
0.999999975695
0.999999997112
0.999999997116
0.999999936589
0.99999986208
0.999999999805
0.999999998833
0.999999855083
0.999999900709
0.999999992367
0.999999992758
0.999999993232
0.99999996022
0.99999990405
0.99999993926
0.99999996097
0.9999999454
0.999999960809
0.99999995932
0.99999994563
0.999999991299
0.999999976037
0.999999960848
0.999999850406
0.99999986187
0.999999952557
0.999999982775
0.999999979858
0.999999901324
0.999999938449
0.999999993617
0.999999986769
0.999999958539
0.99999995253
0.999999968886
0.999999962927
0.999999952598
0.999999982856
0.999999996145
0.9999999815
0.999999988862
0.999999982951
0.999999938239
0.999999925882
0.999999917443
0.999999899924
0.999999994953
0.999999986343
0.999999957125
0.999999973753
0.999999979604
0.999999989414
0.999999973001
0.999999923833
0.99999992095
0.999999925284
0.999999945537
0.999999990256
0.999999996708
0.999999982658
0.999999974026
0.99999998522
0.99999992666
0.999999873791
0.999999892204
0.999999895176
0.999999933342
0.999999999763
0.999999971153
0.999999959422
0.999999963324
0.999999969965
0.999999989855
0.999999990267
0.999999930534
0.999999936453
0.999999938559
0.999999986809
0.999999994896
0.999999964921
0.999999964022
0.999999947028
0.999999875668
0.999999875963
0.999999888997
0.999999920665
0.999999947061
0.999999976921
0.99999995865
0.999999962072
0.999999937203
0.999999844545
0.999999880504
0.999999920537
1.00000000007
1.00000005644
1.00000000844
1.0000000347
1.00000001411
1.00000008808
1.00000001726
1.00000020606
1.00000001112
0.999999932895
0.999999753022
0.999999753323
0.999999765173
0.999999890617
0.999999964804
0.999999963598
0.999999964249
0.999999962568
0.99999992356
0.999999984038
1.0000001264
1.00000000166
1.00000010011
1.00000000292
1.00000004339
1.00000000463
1.00000011192
1.00000001017
1.00000006198
0.999999965976
0.999999857538
0.999999750351
0.999999874807
0.999999925251
0.999999963685
0.999999910757
0.999999909834
0.99999991928
0.999999977434
1.00000000311
1.00000000119
1.00000009982
0.999999996863
1.00000003233
1.00000000104
1.00000005245
1.00000000495
1.00000010877
1.0000000063
0.999999992136
0.999999819104
0.999999979077
0.999999984885
0.999999997858
0.999999744987
0.999999760056
0.999999836344
0.999999805087
0.999999859333
0.999999996533
1.00000006569
1.00000000227
1.00000004814
1.0000000007
1.00000002683
1.00000000032
1.00000003983
1.00000000991
1.00000009105
0.999999983482
0.999999828378
0.999999883279
0.999999986403
1
0.999999672446
0.999999617042
0.999999709943
0.9999997907
0.999999793885
0.999999920479
1.00000000067
1.00000012019
1.0000000025
1.00000004114
1.00000000206
1.00000002651
1.00000000175
1.00000010323
1.00000000307
1.00000004434
0.999999836125
0.999999979075
0.999999998782
0.999999997914
0.999999577962
0.999999652967
0.999999794754
0.999999880254
0.999999774435
0.999999736676
1.00000008505
1.00000000254
1.00000017384
1.00000000211
1.00000007346
1.00000000198
1.00000011348
1.00000000043
1.00000019916
1.00000000254
0.999999946163
0.999999898735
0.99999992801
0.99999999305
0.999999661577
0.99999954326
0.999999676981
0.999999875388
0.999999713317
0.999999869364
1.00000000016
1.00000029815
1.00000002007
1.00000021166
1.00000001654
1.0000003636
1.00000000228
1.00000035531
1.00000000441
1.00000026662
0.999999914706
0.999999762507
0.999999944557
0.999999961003
0.999999812698
0.999999806986
0.999999808328
0.999999888241
0.999999848517
0.999999867391
0.999999997333
1.00000000868
1.00000021156
1.00000002308
1.00000046489
1.00000001067
1.00000059206
1.00000001411
1.00000024188
1.00000000687
0.999999794052
0.999999726534
0.999999912854
0.999999876773
0.999999712154
0.999999828955
0.999999812965
0.999999852466
0.999999853357
0.999999872464
0.999999953489
1.00000001815
1.00000000798
1.00000021928
1.00000001016
1.00000039946
1.00000000949
1.00000016609
1.00000000647
0.999999823394
0.999999557068
0.999999812851
0.999999949472
0.999999892626
0.999999886607
0.999999848149
0.99999988964
0.999999889642
0.999999880511
0.999999944611
1.00000000131
0.999999943443
1.0000000062
1.00000000257
1.0000001156
1.00000000284
1.00000002655
0.999999988415
1.00000004833
0.999999781303
0.99999986631
0.999999983563
0.999999960233
0.999999720297
0.999999880699
0.999999936437
0.999999811557
0.999999859118
0.999999847542
0.999999987432
1
0.999999994411
0.999999941664
0.999999964652
0.999999968718
0.999999996436
0.999999993018
0.999999997783
0.99999999052
0.999999773374
0.999999942694
0.999999987162
0.999999963454
0.99999971058
0.999999876893
0.999999885377
0.999999935186
0.99999987843
0.999999902347
0.999999993358
0.999999995954
0.999999980449
0.999999765784
0.999999830313
0.999999858809
0.999999867109
0.999999991928
0.999999995223
0.999999780638
0.999999777391
0.999999968641
0.999999931676
0.999999943211
0.999999730141
0.999999958191
0.999999912211
0.999999870425
0.999999943803
0.99999990473
0.99999995547
0.999999961866
0.999999792958
0.999999755619
0.999999744652
0.999999789713
0.999999935133
0.999999999271
1
0.999999921206
0.999999971297
0.999999999456
0.999999942036
0.99999997389
0.999999730953
0.999999916955
0.999999918065
0.999999950453
0.999999985507
0.999999963678
0.999999973894
0.999999913259
0.999999855564
0.999999768261
0.999999749224
0.999999882601
1
1.00000000151
0.999999999962
1.00000000041
0.99999995068
0.999999999802
0.99999999985
0.999999973825
0.999999976688
0.999999925388
0.999999936782
0.999999989846
0.999999987654
0.99999996035
0.999999966222
0.999999959666
0.999999961587
0.999999914058
0.999999883709
0.999999891442
0.999999906619
0.999999969442
1.00000000001
0.999999987996
0.999999927552
0.99999999985
0.999999999882
0.999999996846
0.999999869604
0.999999900709
0.999999990619
0.99999999222
0.9999999801
0.999999882307
0.999999856664
0.999999865335
0.999999873938
0.999999894
0.999999911258
0.999999925366
0.999999925461
0.999999956161
0.9999999919
0.999999992396
0.999999955029
0.999999993399
0.999999999881
0.999999990127
0.999999999827
0.999999923269
0.999999993982
0.999999992984
0.999999960022
0.999999933847
0.999999879731
0.999999964218
0.999999883331
0.99999994542
0.999999954691
0.999999924102
0.999999910562
0.999999922958
0.999999986609
0.99999995261
0.999999935364
0.999999925513
0.999999991731
0.999999996804
0.999999999827
0.999999972252
0.999999993437
0.999999986399
0.999999959831
0.999999976288
0.999999958236
0.999999965016
0.999999941407
0.999999981369
0.999999991955
0.999999954167
0.999999935604
0.999999974629
0.999999964745
0.999999958015
0.999999936231
0.99999993147
0.999999926659
0.999999967747
0.999999998927
0.999999958382
0.999999947045
0.999999978
0.999999978773
0.999999969363
0.999999919133
0.999999916019
0.999999981225
0.999999992412
0.99999999272
0.999999997299
0.999999970588
0.999999980844
0.999999985288
0.999999949514
0.999999960035
0.99999989004
0.999999949852
0.999999941671
0.999999994752
0.99999993135
0.999999944115
0.999999966416
0.999999975115
0.999999961528
0.999999957506
0.99999992419
0.999999920665
0.999999960437
0.999999973207
0.999999970755
0.999999983876
0.99999996947
0.999999907736
0.999999875668
0.999999918288
0.999999880526
0.999999928414
0.9999999109
0.999999893548
0.999999963697
0.999999963401
0.999999948798
0.999999839522
0.999999853665
0.999999991312
1.0000001324
1.00000000035
1.00000022336
1.00000000592
1.00000006953
1.00000000977
1.00000008188
1.00000000022
1.0000002903
1.00000000398
1.00000008318
0.999999754879
0.999999759526
0.999999965745
0.9999999669
0.999999961137
0.999999931399
0.999999918711
0.999999904521
1.00000016683
1.00000000096
1.00000020684
1.00000000152
1.00000015278
1.00000000143
1.0000000592
1.00000000072
1.00000019696
1.00000000305
1.00000012035
0.999999805186
0.999999750351
0.999999810434
0.999999923679
0.999999957716
0.999999902306
0.999999919101
0.999999912619
0.999999939099
0.999999999217
1.00000006137
0.999999995091
1.00000003204
1.00000000019
1.00000002083
1.00000000012
1.00000005327
1.00000000153
1.00000022733
0.999999985545
0.999999810803
0.999999854232
0.999999996035
0.999999981174
0.999999873964
0.999999861253
0.999999848248
0.999999882533
0.999999911882
1.00000004711
1.00000000067
1.00000003345
0.99999999911
1.00000001381
0.999999999407
1.00000000076
0.999999990255
1.00000020841
1.00000001493
1.00000002631
0.999999815171
0.999999828585
0.999999990755
0.999999997728
0.999999630691
0.999999617834
0.999999848314
0.999999628557
0.999999810288
1.00000000209
1.0000000258
1.00000000075
1.0000000079
0.999999999635
0.9999999975
0.999999976886
0.999999980327
0.999999985739
1.0000002795
0.999999978329
0.999999870225
0.99999989537
1.000000009
0.999999988747
0.999999556816
0.999999473626
0.999999642181
0.999999844681
0.999999638141
0.999999732934
1.00000000011
1.00000006138
1.00000000048
1.00000000845
0.999999995835
1.00000001565
0.999999988561
1.00000013106
0.9999999924
1.00000010223
0.99999985748
0.999999844144
0.999999973169
0.999999975401
0.999999499132
0.999999544639
0.999999678609
0.999999808421
0.999999566504
0.99999972413
1.00000002908
1.0000000021
1.00000011823
1.00000001105
1.00000005313
1.0000000066
1.00000019245
1.00000000096
1.00000022521
1.00000000369
0.999999799092
0.99999967666
0.999999958157
0.999999862824
0.999999671479
0.999999658326
0.999999694916
0.999999805711
0.9999998543
0.999999927752
1.00000000017
1.00000044813
1.00000000399
1.00000022893
0.999999580316
0.999999449892
0.999999857165
0.999999864404
0.999999711
0.999999840102
0.999999840145
0.999999818593
0.999999947897
0.999999931274
1.00000002088
1.00000000337
1.00000015492
0.999999860452
0.999999450897
0.99999944654
0.999999920836
0.999999875567
0.999999734554
0.999999836999
0.999999803947
0.999999796327
0.999999923743
0.999999998789
1.00000000223
1.00000003313
1.00000000273
0.999999788156
0.999999819384
0.999999978407
0.999999895588
0.999999722511
0.999999824486
0.999999801703
0.999999784898
0.999999789826
0.999999797471
0.999999993832
1.00000000352
1.00000000004
1.00000004121
0.999999877757
0.999999857881
0.999999999392
0.999999843964
0.999999776621
0.99999984603
0.999999883913
0.999999782343
0.999999784208
0.999999813398
0.999999989135
0.999999997048
0.999999994703
0.999999766956
0.999999760178
0.99999973122
0.99999993209
0.999999988699
0.999999985027
0.999999985231
0.999999917157
0.999999839952
0.999999936019
0.999999952446
0.999999730917
0.999999846535
0.999999930159
0.999999849843
0.999999792602
0.999999884474
0.999999881705
0.999999954333
0.999999995046
0.999999886282
0.999999721769
0.999999829626
0.999999992929
0.999999997332
1.00000000242
1
0.999999993489
0.9999999348
0.999999974166
0.999999949159
1
0.999999895951
0.999999949201
0.999999905936
0.999999865661
0.999999826482
0.999999823127
0.999999933422
0.999999987077
0.999999962214
0.999999751312
0.999999916971
1.00000000234
1
0.99999999869
1.00000000457
0.999999884554
0.999999999793
0.999999975011
0.999999997735
0.999999977857
0.999999928582
0.999999958682
0.99999997666
0.999999980749
0.999999838897
0.999999830338
0.999999899452
0.999999959787
0.999999939378
0.999999917179
0.999999902675
0.999999919374
1.00000000034
0.999999999996
0.999999963224
0.999999874418
0.999999988365
0.999999999887
0.999999983414
1
0.999999907035
0.999999965968
0.999999992978
0.999999989946
0.999999834817
0.999999836388
0.999999826608
0.999999908505
0.999999876629
0.999999842161
0.999999905793
0.999999895918
0.999999947388
0.999999983712
0.999999933503
0.999999983513
0.999999983086
0.999999999953
1
0.999999967362
0.999999908605
0.999999976169
0.999999994002
0.999999997735
0.999999931893
0.999999895125
0.999999904173
0.999999862862
0.999999965991
0.999999864808
0.999999905054
0.999999897533
0.999999896553
0.999999951083
0.999999964005
0.999999936363
0.999999916989
0.999999955565
0.999999994805
0.999999875489
0.999999971946
0.999999992972
0.999999993159
0.999999992182
0.999999991977
0.999999907832
0.999999936752
0.999999971869
0.999999995792
0.999999991072
0.999999963522
0.99999990573
0.999999986053
0.999999988234
0.999999959444
0.999999937931
0.999999906497
0.999999899423
0.999999931015
0.9999999633
0.999999969179
0.999999983554
0.999999992134
0.999999991834
0.999999953108
0.999999910395
0.999999911903
0.999999990546
0.999999991949
0.999999988221
0.999999991897
0.99999999045
0.999999957395
0.999999984254
0.999999990647
0.999999975012
0.999999970347
0.99999996202
0.999999961793
0.999999938512
0.999999714852
0.999999959022
0.999999946082
0.999999953549
0.999999956966
0.999999938079
0.99999991229
0.999999941477
0.999999958362
0.999999980477
0.999999999976
0.99999999015
0.999999895638
0.999999910338
0.999999904513
0.999999891838
0.999999954504
0.999999935844
0.999999915276
0.999999885465
0.999999865569
0.999999961703
0.999999952985
0.999999877314
0.999999853704
1.00000022055
1.00000000035
1.00000038794
1.00000000007
1.00000037203
1.00000000102
1.00000008939
1
1.00000009581
1.0000000006
1.00000033364
0.999999995806
0.999999984934
0.999999961067
0.99999985586
0.999999957675
0.999999952795
0.999999938169
0.999999850822
0.99999990565
1.00000000018
1.00000021473
1.0000000004
1.00000015042
1.00000000048
1.00000010958
1
1.0000000506
1.00000000019
1.00000028585
1.00000000089
1.00000001782
0.999999758489
0.999999799723
0.999999855997
0.999999946782
0.999999883031
0.999999925728
0.999999814817
0.999999994404
1.00000009829
1.00000000001
1.00000001599
1.00000000004
1.00000002493
1.00000000006
1.00000007176
1.00000000013
1.00000014247
1.00000000099
1.00000020016
0.999999869037
1.00000006702
1.00000000045
0.999999976016
0.999999835261
0.999999753909
0.999999727683
0.999999741041
0.999999872082
1.00000000407
1.00000002223
1
1.0000000079
1
0.999999990444
0.999999955186
1.00000009257
1.00000000054
1.00000045441
1.00000000002
0.99999993438
0.999999980517
1.00000002829
0.999999999947
0.999999526137
0.999999444182
0.999999662362
0.999999603163
0.999999716506
1.00000002494
1.00000000001
1.00000000727
0.99999999972
0.999999999037
0.999999994019
0.999999975633
0.999999966717
1.00000015008
1.0000000003
1.00000024251
0.99999999581
1.00000005494
1.00000000276
1.00000000521
0.999999520978
0.999999372618
0.999999507466
0.999999561935
0.999999560199
0.999999998996
1.00000004853
1.00000000001
0.999999990337
0.999999999814
1.000000001
0.999999999887
1.00000004206
0.999999989294
1.0000004181
1.00000000293
1.00000012645
1.00000000995
1.00000006013
1.00000000631
0.999999499133
0.999999462363
0.999999714798
0.999999704964
0.999999565855
0.999999820652
1.00000000209
1.00000003674
1.00000000333
1.00000003471
1.00000000343
1.00000001564
1.00000000184
1.00000019734
1
1.00000024061
1.00000001292
0.999999936554
1.00000000409
0.999999990658
0.999999696492
0.999999511373
0.999999793958
0.999999931067
0.999999904969
0.999999869191
1.00000000423
1.0000000041
1.00000027464
1.0000000014
1.0000002146
0.999999508908
0.999999941963
0.999999812539
0.999999704228
0.999999617537
0.999999835613
0.99999995373
0.999999967602
0.999999986129
1.00000000012
1.00000025945
0.999999990375
1.00000009103
0.999999537363
0.999999449264
0.99999990803
0.999999810481
0.99999985036
0.99999973746
0.999999816696
0.999999930089
0.999999958883
1
1.00000000747
1.00000000044
1.00000000459
0.999999702401
0.999999684652
0.999999898964
0.99999985609
0.999999961037
0.999999864357
0.99999984403
0.999999823149
0.999999798524
0.99999996114
0.999999999819
1.0000000005
0.999999998968
0.999999965008
0.999999853113
0.999999908793
0.999999926826
0.999999933207
0.999999735498
0.999999876593
0.99999978773
0.99999978431
0.999999785175
0.999999916068
0.99999999849
0.999999999374
1
0.999999760726
0.999999494573
0.99999965293
0.999999890984
0.99999999074
0.999999959228
0.999999957861
1.0000000515
0.999999995292
0.999999943372
0.999999902428
1
0.999999923367
0.999999946443
0.999999750637
0.999999783624
0.999999783252
0.999999942979
0.99999999466
0.999999998624
0.999999660734
0.999999540822
0.999999866092
0.999999996011
0.999999998561
0.999999983536
0.999999998247
0.999999919714
0.999999936688
0.999999922192
1
1
0.999999948585
0.999999953295
0.999999749073
0.999999749073
0.99999980871
0.999999808296
0.999999942713
0.99999999454
0.999999922768
0.999999887455
0.999999948019
0.999999994252
1.0000000017
0.999999999435
0.999999941417
0.999999954016
0.999999950351
0.999999961844
1
0.999999999787
0.999999894688
0.999999959058
0.999999752303
0.999999777036
0.999999914926
0.999999873011
0.99999985694
0.999999886919
0.999999795275
0.999999811398
0.999999906653
1.00000000018
1
0.99999997464
0.99999997079
0.999999821592
0.999999818245
0.999999992105
1
1.00000000046
0.999999928397
0.999999965103
0.999999969371
0.999999979149
0.999999941051
0.999999983055
0.999999826217
0.999999825346
0.999999751682
0.999999759513
0.99999984773
0.999999898155
0.999999992001
0.999999999996
0.999999912201
0.999999907239
0.999999832811
0.99999996916
1.00000000088
1
0.999999901026
0.999999968925
1
0.999999999942
1.00000000001
0.999999990381
0.999999830312
0.999999819599
0.999999830887
0.999999774916
0.999999924283
0.999999876513
0.999999944351
0.999999999984
0.999999999969
0.999999942141
0.999999871536
0.999999802133
0.999999915997
0.999999809042
0.999999907182
0.999999980697
0.999999992257
0.999999992843
0.999999985298
0.999999969235
0.999999995129
0.99999999593
0.999999999368
0.999999990816
0.99999998576
0.999999836759
0.999999907771
0.999999992724
0.999999979342
0.999999939167
0.999999940272
0.99999989793
0.99999991457
0.999999819723
0.999999856217
0.999999959908
0.999999973957
0.999999916992
0.999999911768
0.999999965769
0.999999942118
0.999999959108
0.999999991371
0.999999992103
0.999999996208
0.999999869536
0.999999885733
0.999999983523
0.999999989242
0.99999987277
0.999999931744
0.999999951361
0.999999952045
0.999999982742
0.999999704402
0.999999905558
0.999999762993
0.999999756721
0.999999903994
0.999999879306
0.999999895251
0.999999891068
0.999999982604
0.999999965362
0.999999987572
0.999999906146
0.999999884707
0.99999988405
0.999999907637
0.999999863387
0.999999921619
0.999999902766
0.999999860685
0.999999912296
0.999999686855
0.999999848997
0.999999893268
0.999999841268
0.999999853438
1
1.00000035505
1
1.00000038945
1
1.00000028815
0.999999994307
1.00000006623
0.999999995666
1.00000011319
0.999999998391
1.00000029424
1.00000000019
1.00000001956
0.999999970177
0.999999954385
0.999999860438
0.999999944634
0.999999839932
0.999999894534
1.00000008008
1
1.00000006933
1
1.00000004062
0.999999986612
0.999999975356
1
1.00000001256
1.00000000008
1.00000027925
1.00000000173
1.00000003648
0.999999995455
0.999999913857
0.999999950223
0.999999861472
0.999999938563
0.999999814615
1.00000004468
1.00000000385
1.00000001797
0.999999995245
1.00000000041
0.999999999155
0.999999881462
0.999999985031
1.00000008284
1.00000000001
1.00000038379
0.999999991685
1.00000033811
1.00000000456
1.00000003936
0.99999998109
0.999999833343
0.999999751502