/*--------------------------------*- C++ -*----------------------------------*\
| =========                 |                                                 |
| \\      /  F ield         | OpenFOAM: The Open Source CFD Toolbox           |
|  \\    /   O peration     | Version:  v1606+                                |
|   \\  /    A nd           | Web:      www.OpenFOAM.com                      |
|    \\/     M anipulation  |                                                 |
\*---------------------------------------------------------------------------*/
FoamFile
{
    version     2.0;
    format      ascii;
    class       volScalarField;
    location    "5.4";
    object      ddt0(epsilon);
}
// * * * * * * * * * * * * * * * * * * * * * * * * * * * * * * * * * * * * * //

dimensions      [0 2 -4 0 0 0 0];

internalField   nonuniform List<scalar> 
11640
(
-6.44402808934e-05
-8.43033409991e-05
-9.72034883425e-05
-0.00010357988584
-0.000103490976524
-9.87020942253e-05
-9.47265748667e-05
-9.33875852547e-05
-9.38530225673e-05
-9.46827297407e-05
-9.5816146327e-05
-9.84677904198e-05
-0.000103212757808
-0.000108137164664
-0.000110297702724
-0.000108168762954
-0.000104050111019
-9.72695616861e-05
-8.44511492276e-05
-6.52950578591e-05
-8.45752485136e-05
-0.000171825691239
-0.000219056768933
-0.000220141228158
-0.00018576993569
-0.000151931153926
-0.000145012036203
-0.000163556922187
-0.000192399353328
-0.000223235367973
-0.000260467494321
-0.000301581837359
-0.000321821872344
-0.000338768116123
-0.000343162505436
-0.000330119450561
-0.000301225421595
-0.000256613380238
-0.000184989603639
-8.34444456511e-05
-9.78296431736e-05
-0.000220989345755
-0.000248273128233
-0.00016388076215
-4.2893232553e-05
2.77355773064e-05
1.56586987955e-05
-5.78011144046e-05
-0.000152673843372
-0.000251779414342
-0.000376539351945
-0.000435833707297
-0.000495559791369
-0.000548301808338
-0.000569392195606
-0.000539982365299
-0.000462636650582
-0.000362267757584
-0.00024752271702
-9.53443311939e-05
-0.000105232270954
-0.000222824999809
-0.000154620688036
6.01070830174e-05
0.000260547651136
0.000340599955086
0.000280700120853
0.000133993949357
-4.11740550683e-05
-0.000224229634695
-0.000421838510791
-0.000532040610771
-0.000641552835243
-0.000745114602927
-0.000801276664807
-0.000770275594041
-0.000645511113558
-0.000464854408393
-0.00028543148599
-0.000100840221037
-0.000106894679092
-0.000180377475018
7.98623332344e-06
0.000323183525661
0.000554061631244
0.00059504840038
0.000470997823896
0.000268188400592
4.46265625337e-05
-0.000187704152436
-0.000425035080511
-0.000569300269904
-0.00071606172968
-0.000872202813444
-0.000982055683662
-0.000974861936123
-0.00082402729413
-0.000576652464288
-0.00032134789042
-0.000102916871266
-0.00010443337092
-0.000125058448879
0.000147663562903
0.000505975790595
0.000711655534697
0.000683087573442
0.000486225526871
0.000250658046474
3.7382622656e-05
-0.000173314580672
-0.00037041343776
-0.000504648954186
-0.000658857066447
-0.000867885965076
-0.00105440557145
-0.00109873937716
-0.000953263401845
-0.000666253275883
-0.000354325320437
-0.000104272784253
-0.000101672323829
-9.20429991045e-05
0.000211956093523
0.000565928803629
0.00072778881071
0.000628044033539
0.000359289745082
0.000105451184398
-3.92821654326e-05
-0.000169198031204
-0.000276853879454
-0.000367904018607
-0.000492777233797
-0.000736369835754
-0.00101352093176
-0.0011234029708
-0.00100550338317
-0.0007095079558
-0.000371170172299
-0.000103756793973
-9.97202363149e-05
-8.504934023e-05
0.000216436071527
0.00055158026859
0.00067948480447
0.000537905780476
0.000218957056027
1.86198675561e-06
-6.74722098325e-05
-0.000110296151147
-0.000160779300342
-0.00020334622437
-0.000310740742511
-0.000583138609311
-0.000935586024301
-0.00109253657946
-0.00100118232289
-0.000711642483318
-0.000369923564878
-0.000101379510293
-9.7906371699e-05
-8.56891998419e-05
0.000210403312882
0.000535876337336
0.000649034031458
0.000495877274339
0.000180724422751
-3.80984086667e-06
-5.63737247984e-05
-8.02081064555e-05
-0.000105565315145
-0.00014006164696
-0.000236719843995
-0.000504720600596
-0.000896188326404
-0.00107318780656
-0.000992145698569
-0.000704842277047
-0.000364406742057
-9.85696364086e-05
-9.61753101022e-05
-8.58333362723e-05
0.000211205986572
0.000539704963362
0.000656492191744
0.000508706047678
0.000199070455644
1.11769421874e-05
-4.39075066258e-05
-7.04135604416e-05
-9.22729886968e-05
-0.000127611897637
-0.000230638486645
-0.000515611359326
-0.000924282867371
-0.00109897198611
-0.00100962117834
-0.000711628817091
-0.000364104381974
-9.65940815899e-05
-9.4308070836e-05
-8.49089689777e-05
0.000219522636261
0.000564675278306
0.000705088917783
0.000583258030277
0.000286497505012
6.7506943729e-05
-1.04651681122e-05
-6.55690589478e-05
-0.00010914038675
-0.000159881610222
-0.000286255353435
-0.000616804979913
-0.00102410940727
-0.00117057065299
-0.00105252927174
-0.000730605985239
-0.000368647459197
-9.49833301709e-05
-9.33374411672e-05
-9.55302610615e-05
0.000207200673794
0.000572716138372
0.000760317157935
0.000703807229466
0.000475863144158
0.000245013634468
0.000102416853434
-1.38087468216e-05
-0.000180861103163
-0.000312008852089
-0.000517032823453
-0.000863084273562
-0.00118055416359
-0.00126976050043
-0.00110243877781
-0.00074923130619
-0.000372148038673
-9.33384283371e-05
-9.43516504816e-05
-0.000136189272708
0.000127975364592
0.000491013583044
0.000723398565892
0.000738914307652
0.000584418971724
0.000358319311808
0.000124271253804
-0.000136575628534
-0.000370495719381
-0.000586159459333
-0.00082746236907
-0.00110726726615
-0.00131672228707
-0.00132335284346
-0.00110334849618
-0.000732275135879
-0.000361569570196
-9.05461070202e-05
-9.64764387374e-05
-0.00019997752315
-2.80586268899e-05
0.000289745824276
0.000536028750521
0.000604108744791
0.000498633700654
0.000283019853332
6.36520802762e-06
-0.000315512430717
-0.000549857451522
-0.000779596076628
-0.00100376751151
-0.00121716170779
-0.00133044833661
-0.00126423959936
-0.00101430865651
-0.000661782402995
-0.000335986783927
-8.81467607636e-05
-9.70937189699e-05
-0.000255567633534
-0.000213100515556
-6.37369542922e-08
0.00020971384097
0.000294844661078
0.000224483574149
3.50307410702e-05
-0.000215572790411
-0.000505127998391
-0.000663102979216
-0.000841745524739
-0.00101317585534
-0.00115398670302
-0.00119552020669
-0.0010878551455
-0.000849763472857
-0.000559988984888
-0.000310756919673
-8.75106326623e-05
-9.60504060168e-05
-0.000279083902236
-0.000342453115068
-0.000274215069492
-0.000152510539557
-8.72609155276e-05
-0.000127116847113
-0.000255301663239
-0.00042721136642
-0.000605795837802
-0.000678393049819
-0.000783082491783
-0.000883096184527
-0.000954592409813
-0.000947893820923
-0.000841272677713
-0.000660741018741
-0.000470075023228
-0.000295588662434
-8.79439038736e-05
-9.34064935198e-05
-0.000267756710821
-0.000372579451913
-0.000400442200052
-0.000381810139189
-0.000361761884618
-0.000380661826914
-0.00044178463539
-0.000523907802098
-0.000554443734102
-0.000591801155082
-0.0006347199583
-0.000676491428131
-0.000700278737015
-0.000679865941209
-0.000610358031608
-0.000514017280055
-0.000409827303215
-0.000275885028977
-8.59253218543e-05
-8.75230582828e-05
-0.000230584214908
-0.000323317864641
-0.000380029237157
-0.000404629388526
-0.000412329893263
-0.000426376043294
-0.000426617977717
-0.000426705415687
-0.000434404209614
-0.000445719473456
-0.000459465673285
-0.000474009680067
-0.000482433994644
-0.000474676319643
-0.000449787784794
-0.000409385051632
-0.00034247229301
-0.000235145717021
-8.05325591895e-05
-7.68395573282e-05
-0.000167631626408
-0.000224930456131
-0.000259917192038
-0.000279227198329
-0.000283821983753
-0.000282854822319
-0.000280114025469
-0.000279007527026
-0.000280421986826
-0.000284487443802
-0.000290596295573
-0.000298498491007
-0.000304866803987
-0.000306836986316
-0.000299928310405
-0.000277762959727
-0.000235502098786
-0.000167440444467
-7.0985312329e-05
-6.1274258526e-05
-7.67083889472e-05
-8.72357901375e-05
-9.31949707718e-05
-9.65957868682e-05
-9.83648865856e-05
-9.72320965001e-05
-9.58047756362e-05
-9.4678537931e-05
-9.37279878213e-05
-9.30177113021e-05
-9.26203746182e-05
-9.26269519053e-05
-9.24593710395e-05
-9.21065161636e-05
-9.07348640982e-05
-8.77722033703e-05
-8.20933040214e-05
-7.23160667266e-05
-6.0496232915e-05
-8.8042596068e-05
-0.000137724243393
-0.000169350484841
-0.000184212588887
-0.000185866995016
-0.000180690009933
-0.000178009424408
-0.000179997934766
-0.000184539444889
-0.00018953251425
-0.00019445389451
-0.000198672207061
-0.000202893322988
-0.000206827280126
-0.000208211259639
-0.000204120590805
-0.00019263987874
-0.000171273435485
-0.000136068177146
-8.72554435292e-05
-0.000138459570581
-0.000189563918514
-0.00022888244733
-0.000234722552112
-0.000215973961407
-0.000190837034086
-0.000175970482699
-0.000175140151941
-0.000180838148571
-0.000187069038869
-0.000194511809935
-0.000204220473599
-0.000211975647214
-0.000218129138443
-0.000228385359774
-0.000239706108386
-0.000243420169205
-0.000224950705183
-0.000184364335927
-0.000133851028581
-0.000171439012787
-0.000229316750038
-0.00026461984569
-0.00025753787409
-0.000225804197122
-0.000196287424694
-0.000177376988673
-0.000173812777007
-0.000179894326374
-0.000188369589826
-0.000202033448357
-0.000207970360425
-0.000209844590182
-0.000209072326937
-0.000215019284689
-0.000239436087443
-0.000264860348203
-0.000266777580196
-0.000229420185616
-0.000165794052703
-0.000186913358714
-0.000242852017622
-0.000274906603662
-0.000269822762328
-0.000249848323256
-0.000223130227616
-0.000200972682111
-0.000192438857078
-0.000196221330585
-0.000205564123964
-0.000222208614956
-0.00022199205141
-0.000214554670405
-0.000196854892586
-0.000184277129077
-0.000200796706203
-0.0002428979469
-0.000269373604417
-0.000248197801775
-0.000182453814236
-0.000186613593758
-0.000243688807794
-0.000287301224207
-0.000303456919732
-0.000296622038826
-0.0002755846096
-0.000251243213725
-0.00023487018851
-0.0002353763979
-0.000246281736925
-0.000265547899547
-0.000267188881262
-0.000254702850114
-0.000217329970969
-0.000172846942468
-0.000166206872999
-0.000207465885766
-0.000256897914953
-0.000252523591097
-0.000190959547665
-0.000179771956494
-0.000244972858711
-0.000308991385271
-0.000345183577301
-0.000346478645978
-0.000322909447585
-0.000290631535563
-0.000262038994303
-0.000266712832875
-0.000283533644609
-0.000307754816506
-0.000323248008372
-0.00032289819231
-0.0002739017551
-0.000197555966891
-0.000157418571021
-0.000186605893058
-0.000244766628359
-0.000254555019282
-0.000197813134313
-0.000174906426309
-0.000250975016232
-0.0003324452269
-0.00037802627756
-0.00036990201101
-0.000314038408228
-0.000237679249608
-0.000199192445642
-0.000232681871708
-0.000266698403125
-0.000293353134021
-0.000329403220865
-0.000367209223921
-0.00032339624124
-0.000240285835876
-0.000179176338275
-0.000192028831114
-0.000245555367561
-0.000257699696084
-0.000201176970715
-0.000173438217722
-0.000253591319087
-0.000339787463898
-0.000381097052391
-0.000351603925981
-0.000245970365959
-8.40476373979e-05
-0.000116535917727
-0.000158593560576
-0.000181297176352
-0.000199036163066
-0.000225952872583
-0.000292046288362
-0.000347250840325
-0.000273361282139
-0.000199600642904
-0.000200770570412
-0.000247409477047
-0.00025717430118
-0.000200645304403
-0.000173211787509
-0.00025147196558
-0.000334625941007
-0.000366951746287
-0.00032099729783
-0.000193251626302
-3.91715190481e-05
-6.3160384976e-05
-9.81041455364e-05
-0.000111970427253
-0.000120751723199
-0.000141067148279
-0.000206662178049
-0.000298650893069
-0.000266403756193
-0.000197606766036
-0.000196383729031
-0.000241554428449
-0.000252825357309
-0.000199162880869
-0.000174125129442
-0.000251238169918
-0.000333546965787
-0.000361558046962
-0.000305929026223
-0.000162223760445
1.21686746921e-05
-5.63418097941e-06
-4.49648099232e-05
-6.30337613029e-05
-7.42258777369e-05
-9.69496083838e-05
-0.000169441152083
-0.000277818369825
-0.000255007304099
-0.0001883913443
-0.000189125235656
-0.000236514386779
-0.000250645185183
-0.000199919246191
-0.00017685620031
-0.000253293016266
-0.000337931068288
-0.000368469634977
-0.000313023384492
-0.000162008456853
5.87183833312e-05
7.60928900427e-05
1.68376190075e-05
-2.76311679811e-05
-6.23054778427e-05
-0.000102335689154
-0.00019434146404
-0.000297237344737
-0.000243913907244
-0.000171812812645
-0.000177958541248
-0.000231525108278
-0.000250232809738
-0.000202832897559
-0.000182966771535
-0.00026323246261
-0.000359037038284
-0.000405562061004
-0.00037007066473
-0.000250051141489
-8.71326679073e-05
9.17260274009e-05
4.18987976866e-05
-2.97812947224e-05
-0.000106956757389
-0.000175866856414
-0.000255193829745
-0.000274377375514
-0.000220765608983
-0.000171685911915
-0.000188777354512
-0.000242675985843
-0.000257061128868
-0.000207962107079
-0.000193900977338
-0.000278835898447
-0.000388477204448
-0.000460358295522
-0.000458316616882
-0.00038092847084
-0.000271744391111
-0.000196770018512
-0.000199042380409
-0.000233957952928
-0.00027413950089
-0.000304578018548
-0.000324521807181
-0.000296422343272
-0.000249074597911
-0.000221881157549
-0.000240405504132
-0.000276760021812
-0.000268891109389
-0.000210160280577
-0.000205266575455
-0.000288323650804
-0.000403988833667
-0.000494667398838
-0.000530051260342
-0.000503768039041
-0.00044532060797
-0.000403523591059
-0.000397205328213
-0.000413383425998
-0.000424873986129
-0.000431974168462
-0.000422426471405
-0.000384221620981
-0.000337226677925
-0.000310750403883
-0.000312665813629
-0.000312768581464
-0.000273129650624
-0.000207604754724
-0.000208886310474
-0.000284994030721
-0.000397384987311
-0.00049353136773
-0.000554362162892
-0.000569878600584
-0.000552603382815
-0.000534266892776
-0.000531262603911
-0.000541446930827
-0.000534419434927
-0.000529497089631
-0.000513100998931
-0.0004772166098
-0.000431785768606
-0.000396660957933
-0.000369194100516
-0.000328182889889
-0.000264132244255
-0.000203366582144
-0.000203729253221
-0.000271722271851
-0.000366485288684
-0.000454616762224
-0.000521549948503
-0.000557973185302
-0.000565921591496
-0.000563935700323
-0.000566678477481
-0.000570783192474
-0.000561336324247
-0.000555193612208
-0.000543227698228
-0.000517215719224
-0.000476615393358
-0.000429758964482
-0.000375525199568
-0.000308647419553
-0.00024435712868
-0.000198342443297
-0.000190070964258
-0.000252633404693
-0.000325780523605
-0.000386479156947
-0.000441710288002
-0.000479355629612
-0.000496666448368
-0.000502526760113
-0.000507144094852
-0.000502075648498
-0.000498257990401
-0.000494106630437
-0.000487240079465
-0.000469630270872
-0.000434889667812
-0.00038522992654
-0.000325671849117
-0.000268742863474
-0.00022145688572
-0.000186352253492
-0.000166962693918
-0.000222864780329
-0.000284291341195
-0.000322478905974
-0.000348522640358
-0.000368940024181
-0.000381298314978
-0.000381829466919
-0.000378798378991
-0.000375906834578
-0.000372835073878
-0.000369316982074
-0.000364526130876
-0.000353380932728
-0.000330551042198
-0.000299247207029
-0.000266946834814
-0.000232163866901
-0.000193960265716
-0.000163680422185
-0.000132201852009
-0.000180247381083
-0.000228686805022
-0.000258481913135
-0.000275398883448
-0.000282228153905
-0.000283659826679
-0.00028235810168
-0.00028029943735
-0.000278046961273
-0.000275983891159
-0.000273817501131
-0.000271047585171
-0.000266310517406
-0.000258018322907
-0.000244457832573
-0.000223759300038
-0.00019485746845
-0.00015921224701
-0.000127819711019
-8.60324946099e-05
-0.000131201934141
-0.000163459139907
-0.000181972576268
-0.000191780943283
-0.000194709762402
-0.000196229808399
-0.000196493076883
-0.000197164976764
-0.000198462911208
-0.000201190121121
-0.000204731347896
-0.000208363135721
-0.000211424753014
-0.000210852436609
-0.000205524327524
-0.000191752597394
-0.000167254757697
-0.000130196610693
-8.80590340044e-05
-0.000112214314403
-0.000192363416166
-0.000243900260675
-0.000269456147933
-0.000275176097659
-0.000270543191216
-0.000267508618516
-0.000268797142768
-0.000272933331829
-0.000277981466277
-0.00028358453845
-0.000289217743351
-0.000295350434991
-0.000300784063945
-0.000302324574879
-0.000296089705389
-0.000277700697755
-0.000242394457764
-0.000185679395709
-0.000108280552603
-0.000193374690787
-0.00021877388317
-0.000255348274631
-0.000257868186113
-0.00023561006409
-0.000208798192694
-0.0001945372863
-0.000193746823996
-0.000198626218615
-0.000204272301088
-0.00021069499678
-0.000217740863473
-0.000227909005961
-0.000235860153092
-0.000246551098922
-0.000257827670573
-0.000261315950968
-0.000247542961125
-0.000213407211655
-0.000183782870524
-0.000246951609803
-0.00025506218105
-0.000276040089039
-0.000258242197609
-0.000220736838921
-0.000190906771792
-0.000175925794582
-0.000176469581114
-0.000184278980612
-0.000193582283982
-0.000204809033245
-0.000218082470059
-0.000228098865474
-0.000236845075008
-0.000248416382016
-0.000266237823757
-0.000282711080483
-0.00028281358085
-0.000258852948444
-0.00023596897786
-0.000273364278052
-0.000265373727788
-0.000273831283664
-0.000251567701815
-0.000221854630412
-0.000196484470393
-0.00018449605942
-0.000186087491453
-0.000196329913047
-0.000209579541227
-0.000226618714627
-0.000242904839372
-0.000254712640706
-0.000260418661309
-0.000264342454038
-0.000275121067661
-0.000291578260725
-0.000297435049125
-0.000281356949256
-0.000263027462534
-0.000277786723432
-0.00026141790343
-0.000272979375689
-0.000264530019274
-0.000246428123978
-0.000230949249549
-0.000223167782193
-0.000220872879464
-0.000235812195187
-0.000255675863541
-0.000281325014442
-0.000304611309498
-0.000320166425646
-0.000321512370742
-0.000309181902606
-0.00030279583156
-0.000309251748788
-0.000313642269688
-0.000294471119908
-0.000274254416351
-0.000273173582111
-0.000258809402218
-0.00028357069169
-0.000289844088635
-0.000280917159193
-0.000268534862341
-0.000254240855454
-0.000222138652091
-0.000258181138194
-0.000294871370859
-0.000333476533132
-0.000374882353118
-0.000400325807573
-0.000402663950791
-0.000374427855327
-0.000346697975902
-0.000339165328627
-0.000335366599944
-0.000309633313147
-0.000280422754918
-0.000269148285317
-0.000263165229838
-0.000301492545043
-0.000316198872735
-0.000301700759124
-0.000263080457705
-0.000175763633488
-0.000168402837658
-0.000288755089865
-0.000335292282465
-0.000398584446792
-0.000474038302601
-0.000552906155307
-0.000459827478763
-0.000429448011156
-0.000393929626179
-0.000375284882886
-0.00036090144807
-0.000325065969833
-0.00028260955995
-0.000267933120131
-0.000265626003883
-0.000308007214011
-0.000320232550101
-0.000289460266953
-0.000208104440462
3.60359437215e-05
-0.000190065907476
-0.000377824810505
-0.000402428572811
-0.000405231249118
-0.000430382415747
-0.000670153594325
-0.00058247911228
-0.000465789856232
-0.000417932847802
-0.000393496594736
-0.000373185696265
-0.000331628998212
-0.000280851843987
-0.00026775510035
-0.000263324127987
-0.000302941435101
-0.000307680014139
-0.000262476966815
-0.000158576954806
7.05906652464e-05
2.17384742099e-05
-0.000126084831758
-0.000132731264064
-0.000129143441924
-0.000149257607596
-0.000345807006352
-0.000499498870801
-0.000459966135661
-0.000418218916493
-0.000393596734918
-0.000372648505635
-0.000331619016471
-0.000278899461827
-0.000270055482373
-0.000263183293637
-0.000301711874921
-0.000302720931117
-0.000249386256173
-0.000129440487211
0.000140309745846
0.000140009677715
-2.3097543557e-05
-3.51151628968e-05
-3.72902385537e-05
-6.62206025945e-05
-0.000268758168001
-0.000479280802431
-0.000455810397187
-0.000417679604539
-0.00039450460272
-0.00037437485157
-0.000334571247765
-0.000280672183782
-0.000275217595803
-0.000265450089118
-0.000305356292641
-0.000308418501998
-0.000258270017559
-0.000146365175582
0.000188496582057
0.000569022564142
0.000282530268528
0.000212222910836
0.000150295947904
4.11827483578e-05
-0.000271619409576
-0.00054985943259
-0.000463425510641
-0.000417809892769
-0.000395834794654
-0.000378026936088
-0.000340216274526
-0.000286157517957
-0.000285507144956
-0.000278100056661
-0.000328456044874
-0.000344996271205
-0.000310700763932
-0.000227348612378
-0.000103705616833
0.000272960869346
0.000177628555796
6.18571403672e-05
-7.71154434008e-05
-0.000276407783771
-0.000470276478087
-0.0004744803295
-0.00045607206993
-0.000434029895029
-0.000416928563883
-0.000395832917828
-0.000353207311392
-0.0002958078383
-0.000300050821787
-0.000299951754367
-0.000367406621032
-0.000407499225788
-0.000399697951207
-0.000346454364205
-0.000280249535993
-0.000221414340405
-0.000225818582728
-0.000274510563716
-0.000344242526963
-0.000418000572532
-0.000491887225991
-0.000497432228569
-0.000494131377752
-0.000480957831022
-0.00045920388057
-0.000423432325155
-0.00036645364914
-0.000302642192356
-0.000312070635413
-0.000316286909082
-0.000397718764377
-0.000459602727494
-0.000483760781004
-0.000469548506396
-0.000440228428473
-0.000424097717115
-0.000428703831175
-0.000454747400366
-0.000491617400243
-0.000531307907448
-0.000563783211217
-0.000568479805764
-0.000557535386955
-0.000532957496077
-0.000493552207267
-0.000436794213881
-0.000365285919157
-0.000302952261362
-0.000312216082387
-0.000316428330096
-0.000406303181817
-0.000481201891245
-0.000529961672088
-0.00054911576862
-0.000548191354565
-0.00054604087981
-0.000552646684845
-0.00056982334152
-0.000589475312268
-0.000610690614957
-0.000625017675746
-0.000622672474041
-0.000600406895295
-0.000559736364449
-0.000500834468556
-0.000423866451358
-0.000346495491707
-0.000296696298318
-0.00030121979786
-0.00030158423988
-0.00038407141267
-0.000462251218631
-0.000521518738633
-0.000557326526204
-0.000573121108499
-0.000579734515561
-0.000587533333911
-0.00059758918936
-0.000608530462425
-0.000618985928752
-0.000624945631813
-0.000617848371688
-0.000589086143516
-0.000536739701296
-0.000464134270676
-0.000380660963821
-0.000317590989728
-0.000285849325453
-0.000277406580179
-0.00027963281915
-0.000343645207195
-0.000404136998102
-0.000459670489578
-0.000498565047292
-0.000519572258126
-0.000528813817519
-0.000534103031057
-0.000539618209709
-0.000545160334085
-0.000549668337052
-0.000551117103669
-0.00054167195271
-0.000511048125674
-0.000457582151633
-0.000389192904339
-0.0003269419626
-0.000287399641581
-0.00026332586182
-0.000238433722405
-0.000250411557775
-0.000306155253606
-0.000343944443995
-0.00037327452062
-0.000398561611578
-0.000414442911498
-0.000420329344577
-0.000422732719924
-0.00042488165411
-0.000426796752987
-0.000427896331738
-0.000426933259377
-0.000418261731515
-0.000394930333073
-0.000359622851581
-0.000323139777206
-0.000287219542387
-0.000252963195863
-0.00022289467843
-0.000180805976512
-0.000212147197025
-0.000264668395092
-0.000298623399897
-0.000319026927518
-0.000330008665314
-0.000335309869997
-0.000338044271621
-0.00033986312384
-0.000341556088666
-0.000343306636826
-0.000344654661707
-0.000344462858441
-0.000341048419688
-0.00033226767144
-0.000315883066025
-0.000290062246746
-0.000254045725668
-0.00021149199725
-0.000163750389538
-0.000105671999672
-0.00017983991181
-0.000233413762796
-0.000264648573954
-0.000281513002708
-0.000288000286569
-0.000290613129722
-0.000291775077257
-0.000292571333455
-0.0002947203939
-0.000298513326635
-0.000303360017871
-0.000308486536258
-0.000310940687292
-0.000308696435994
-0.00029677420805
-0.000272117368335
-0.000229610111068
-0.000167850483068
-9.97006812415e-05
-0.00012802110697
-0.000233358558888
-0.000302001145374
-0.000337269185753
-0.000347322632924
-0.00034370778498
-0.000340300945239
-0.000340101966838
-0.000342834746256
-0.000347314746931
-0.000353244915658
-0.000359928364922
-0.000367386305592
-0.0003743665708
-0.000376483773454
-0.000368124916904
-0.000342782054937
-0.000295929810498
-0.000221454602124
-0.000121025013235
-0.000234617041847
-0.000248084892722
-0.00028493177412
-0.000286095507131
-0.000261773989033
-0.000234885133515
-0.000221706159395
-0.000220649041033
-0.000223882317651
-0.000228138268933
-0.000233305830536
-0.000239142570772
-0.000245023484153
-0.000256732317664
-0.000269694223841
-0.000282845980265
-0.000287229188841
-0.000275276487415
-0.000241822267602
-0.000219905145211
-0.000305692541219
-0.000284137328176
-0.000295898576082
-0.000270918682546
-0.000230452730613
-0.000201646268554
-0.000190890276686
-0.000193848440489
-0.000201046141008
-0.000209261098155
-0.000218530915072
-0.000230905315551
-0.000241108565245
-0.000253649786682
-0.000271126664976
-0.0002914966209
-0.000308188058566
-0.000309920883861
-0.000291927089264
-0.000288787911691
-0.000342312404909
-0.000292560444619
-0.000284498537045
-0.000251016405298
-0.000216863955784
-0.000195042502596
-0.000191545156579
-0.000198312254532
-0.000209755299945
-0.000222489205877
-0.000236674761895
-0.000254290723458
-0.000268670165868
-0.000284453996159
-0.000300114040252
-0.000315047376673
-0.000327722855516
-0.00032969122943
-0.000318295247981
-0.000324645940612
-0.000351643131446
-0.000285397430874
-0.000275465025224
-0.000252037000283
-0.000230041986115
-0.000221887804921
-0.00022570938318
-0.000224002890188
-0.000243791527671
-0.000262989664812
-0.000285968324287
-0.000309225276841
-0.000327460570344
-0.000354618766494
-0.000363264626715
-0.00036521068212
-0.00036497460922
-0.000356939731824
-0.000336099348386
-0.00033919501965
-0.000348835355652
-0.000281018278164
-0.00028067600543
-0.000270400459349
-0.000260497293369
-0.000260596463749
-0.000250711103768
-0.000177086019185
-0.000241894175654
-0.000274469695888
-0.00030814662284
-0.00034671972825
-0.000360990703299
-0.000428856690919
-0.000440528651512
-0.000429006436594
-0.000415223559989
-0.000392299423321
-0.00035689231585
-0.000346630940908
-0.000345172714776
-0.000285520931175
-0.000297534809008
-0.000296979516854
-0.000287944806966
-0.000275815165851
-0.000186740229317
-0.000284309588952
-0.000485291487168
-0.000520691365975
-0.000538404643611
-0.000613412056512
-0.000820578079644
-0.000464157152132
-0.000495439123849
-0.000485781631643
-0.000464875525475
-0.000428749615909
-0.000377870896319
-0.000349096850217
-0.000343647149566
-0.000288494875129
-0.000305121894881
-0.000304789093979
-0.000289197876332
-0.00028434768518
-0.000420428790369
-0.000955420087247
-0.000533901306709
-0.000509974749038
-0.000487617921027
-0.00044620767544
-0.000387982310703
-0.000346750609027
-0.000343290870078
-0.000286262677863
-0.000300666250726
-0.000294215354274
-0.000266417032444
-0.000232991980613
-0.000167467111582
-0.000640995038708
-0.000514190579912
-0.000510469019795
-0.000490322857871
-0.000448560736128
-0.000390360865407
-0.000344565685142
-0.000346690270568
-0.000286358625153
-0.000299721578688
-0.000289936415069
-0.000254761258106
-0.000203641157622
-2.44903887051e-05
-0.000551166272953
-0.000508180522492
-0.000515720310951
-0.000496666168437
-0.000454429569865
-0.000396448246063
-0.000347447324087
-0.000353919417635
-0.000289044747889
-0.000303084587698
-0.000294694488006
-0.000263962413454
-0.000235558070517
0.000273897897047
-0.000507381636717
-0.00051528423332
-0.000526781251407
-0.000506159756451
-0.0004634892172
-0.000406047812415
-0.000355360622889
-0.000366887667588
-0.000303606033242
-0.000327856851323
-0.000330457455499
-0.000307106012991
-0.000270658110202
-0.000270609259282
7.26639945159e-05
-7.14239093943e-06
-0.000109677130801
-0.000199384092154
-0.000313638040883
-0.00065837756602
-0.000476160763811
-0.000549160937488
-0.000558897589194
-0.000535782064685
-0.000486812759069
-0.000423716418901
-0.000368703894072
-0.00038396964065
-0.000329373277085
-0.000372646787435
-0.000396886313292
-0.00039264683767
-0.000366187023842
-0.000345362653855
-0.000360088829334
-0.000353515276205
-0.000387539676766
-0.000444820322221
-0.000526692048622
-0.000623843157286
-0.00060056646607
-0.000615674355974
-0.000614131543649
-0.000579341223603
-0.000515286237851
-0.000439965117826
-0.000377827737968
-0.000396009710513
-0.000349203103483
-0.000411376301492
-0.000458243473758
-0.000480617176539
-0.000481093265237
-0.000478064080262
-0.000484075054017
-0.000491198451661
-0.000517916057134
-0.000557267917641
-0.000604707543322
-0.000650780121154
-0.000669335679716
-0.000675713573385
-0.000655848338616
-0.000601467250783
-0.000521007826214
-0.000437251080548
-0.000377558903348
-0.000392850991833
-0.000351061093455
-0.000428411186508
-0.000492423338621
-0.000537464992013
-0.000563756435561
-0.000578074001888
-0.000588374375621
-0.00059999389949
-0.0006203944593
-0.000645632044281
-0.000673578464192
-0.000697492866766
-0.000709053475257
-0.000699914758195
-0.000659701758134
-0.000588268684094
-0.000495457106856
-0.000412479952203
-0.000367930001977
-0.000376318048762
-0.000334894257066
-0.000411156122005
-0.000484758766596
-0.000542179207154
-0.000581610234357
-0.000606247761499
-0.000620040817895
-0.000631024566877
-0.000644014095856
-0.000659470724172
-0.00067452749017
-0.000685960496545
-0.000687241316326
-0.000665702465048
-0.00061228166387
-0.00053139919996
-0.000439045451554
-0.000376288797833
-0.000351702622018
-0.000343935341424
-0.000310239758052
-0.0003712471682
-0.000432524427489
-0.000489998196595
-0.000532414727272
-0.000558571924274
-0.00057146695805
-0.000578460395501
-0.00058654960401
-0.000594726489713
-0.000601852741802
-0.000605722940283
-0.000599786158507
-0.000571703719616
-0.000516137751533
-0.000441877855542
-0.000375518790913
-0.000339469693799
-0.000318724145329
-0.000291774169653
-0.000279551113711
-0.000335432352835
-0.000375205463056
-0.000407476673641
-0.000436749595721
-0.000456437991647
-0.000465329416912
-0.000469780508106
-0.000474008270836
-0.0004780280176
-0.000481063276752
-0.000481464282438
-0.000473596450824
-0.000449478499817
-0.000410983407045
-0.000370368012956
-0.000331981554292
-0.000298117304213
-0.000264342406332
-0.000215345597717
-0.000241556722129
-0.000300482874616
-0.000339627251583
-0.000363929789798
-0.000378150562553
-0.00038609583932
-0.000391054745644
-0.000395057592916
-0.000398899567432
-0.000402807826912
-0.000406037677081
-0.000407101406518