/*--------------------------------*- C++ -*----------------------------------*\
| =========                 |                                                 |
| \\      /  F ield         | OpenFOAM: The Open Source CFD Toolbox           |
|  \\    /   O peration     | Version:  v1606+                                |
|   \\  /    A nd           | Web:      www.OpenFOAM.com                      |
|    \\/     M anipulation  |                                                 |
\*---------------------------------------------------------------------------*/
FoamFile
{
    version     2.0;
    format      ascii;
    class       volScalarField;
    location    "5.4";
    object      rAU;
}
// * * * * * * * * * * * * * * * * * * * * * * * * * * * * * * * * * * * * * //

dimensions      [-1 3 1 0 0 0 0];

internalField   nonuniform List<scalar> 
11640
(
1.05258734945e-05
1.05212260877e-05
1.05199554422e-05
1.05198751168e-05
1.05208702011e-05
1.05231358041e-05
1.05262773547e-05
1.0528611312e-05
1.05126723172e-05
1.05048891578e-05
1.05151092881e-05
1.05168260926e-05
1.05172332256e-05
1.05174743139e-05
1.05174208406e-05
1.05176916038e-05
1.05184508829e-05
1.05194494305e-05
1.05212474465e-05
1.05262589723e-05
1.05211260219e-05
1.05017713635e-05
1.04951329018e-05
1.04944288501e-05
1.04974185085e-05
1.05010253051e-05
1.05033854867e-05
1.05019667975e-05
1.04924727968e-05
1.04867299392e-05
1.04887729045e-05
1.04889329331e-05
1.0488051375e-05
1.04867559158e-05
1.04860273685e-05
1.04871728948e-05
1.04897226466e-05
1.04940218554e-05
1.05018008516e-05
1.05218069799e-05
1.05200898102e-05
1.0495674781e-05
1.04890603215e-05
1.04912489153e-05
1.04968963796e-05
1.0501135813e-05
1.05017529513e-05
1.04964599449e-05
1.04877537801e-05
1.04827434522e-05
1.0481217223e-05
1.0474505364e-05
1.04667928858e-05
1.04546019451e-05
1.04495785537e-05
1.04540309093e-05
1.04664766645e-05
1.04837370413e-05
1.04949188852e-05
1.05206548993e-05
1.0519970718e-05
1.04948664695e-05
1.0491877149e-05
1.04982262125e-05
1.05049998862e-05
1.0506826148e-05
1.05039122889e-05
1.04950045704e-05
1.04842187998e-05
1.04798006215e-05
1.04771573423e-05
1.04646291535e-05
1.0448285052e-05
1.04283662973e-05
1.04154630988e-05
1.04188123571e-05
1.04374761184e-05
1.04634902032e-05
1.04917210341e-05
1.05199903881e-05
1.0520830375e-05
1.04979882619e-05
1.04988659549e-05
1.05068652036e-05
1.05088937123e-05
1.05060900472e-05
1.05000079797e-05
1.04924264488e-05
1.04850127871e-05
1.04809063634e-05
1.04743687443e-05
1.04557350326e-05
1.04409451586e-05
1.04065462596e-05
1.03771244326e-05
1.03832791277e-05
1.04064237095e-05
1.04419068145e-05
1.04913421797e-05
1.05197789346e-05
1.05223416794e-05
1.05027047428e-05
1.0505733309e-05
1.05098437371e-05
1.05083427737e-05
1.05045147384e-05
1.04941904799e-05
1.04810671389e-05
1.04789877138e-05
1.04843071006e-05
1.04763719236e-05
1.04519556212e-05
1.04207490938e-05
1.03712081825e-05
1.03409817516e-05
1.03479361198e-05
1.03784731115e-05
1.04217719081e-05
1.04917574754e-05
1.05203775692e-05
1.05240454612e-05
1.05061809748e-05
1.05084554244e-05
1.05088810176e-05
1.05098652573e-05
1.05099307272e-05
1.04939004866e-05
1.04789734235e-05
1.04981631087e-05
1.05009758161e-05
1.04817646837e-05
1.0454336043e-05
1.04050548704e-05
1.03663489632e-05
1.03630732417e-05
1.03463734576e-05
1.03623069772e-05
1.0410032227e-05
1.04613571256e-05
1.0521145107e-05
1.05258040475e-05
1.05082060869e-05
1.05085045306e-05
1.05085492869e-05
1.05122052166e-05
1.05119770156e-05
1.04915378237e-05
1.04785492769e-05
1.05055571473e-05
1.05127691201e-05
1.0497832636e-05
1.04669182085e-05
1.04198339296e-05
1.03780036369e-05
1.03522808176e-05
1.03337337937e-05
1.03606131336e-05
1.04064689317e-05
1.0468768376e-05
1.05226093198e-05
1.05281365007e-05
1.05099595933e-05
1.05085403765e-05
1.05090713542e-05
1.05152024851e-05
1.05142416368e-05
1.04978075992e-05
1.04926806098e-05
1.05181386737e-05
1.05217340059e-05
1.04958985486e-05
1.04607471174e-05
1.04361541088e-05
1.0400756349e-05
1.03444456964e-05
1.03264124216e-05
1.03611811128e-05
1.04069703587e-05
1.0478538515e-05
1.05243233118e-05
1.05277722252e-05
1.05094918719e-05
1.05075531518e-05
1.05090181026e-05
1.05169500748e-05
1.05165924799e-05
1.04983117231e-05
1.04883860302e-05
1.05145522632e-05
1.05209084765e-05
1.04916479103e-05
1.04580045632e-05
1.0439955557e-05
1.03836123914e-05
1.03222179852e-05
1.03271514433e-05
1.03626608967e-05
1.04074288876e-05
1.04803842985e-05
1.05263297812e-05
1.05239427524e-05
1.05073030098e-05
1.05064219172e-05
1.05080456803e-05
1.05171360787e-05
1.05117000876e-05
1.05015609435e-05
1.04972637501e-05
1.05011301636e-05
1.05008317839e-05
1.04919462708e-05
1.04651494271e-05
1.04313680907e-05
1.03821445362e-05
1.03455362697e-05
1.03378771709e-05
1.03593265416e-05
1.04014406243e-05
1.04725984468e-05
1.05156610385e-05
1.05215407756e-05
1.05017407521e-05
1.05033520248e-05
1.0503848317e-05
1.05121510295e-05
1.05133728044e-05
1.05016958608e-05
1.04913932052e-05
1.04815802561e-05
1.04836416414e-05
1.048654537e-05
1.04525693669e-05
1.03857300588e-05
1.03514667475e-05
1.03399189021e-05
1.03291675887e-05
1.03500488512e-05
1.03908018948e-05
1.04605672514e-05
1.04999312395e-05
1.05121376048e-05
1.04924860411e-05
1.04969682033e-05
1.04965502244e-05
1.0500759244e-05
1.05036788861e-05
1.05019549738e-05
1.04883591532e-05
1.04694044319e-05
1.0463118303e-05
1.04550396774e-05
1.04260970723e-05
1.03784913506e-05
1.03430664545e-05
1.03254522088e-05
1.03293017726e-05
1.03553624002e-05
1.0396029422e-05
1.04626160763e-05
1.05008467052e-05
1.05062803228e-05
1.04870688363e-05
1.04893640105e-05
1.04898452221e-05
1.04890586615e-05
1.04893994474e-05
1.04876809178e-05
1.04775963495e-05
1.04624897797e-05
1.04559364005e-05
1.04454484988e-05
1.04272176181e-05
1.03935307935e-05
1.03597363216e-05
1.03501100966e-05
1.03557787488e-05
1.03795271375e-05
1.04293489715e-05
1.04712685395e-05
1.05090019615e-05
1.05113740447e-05
1.04856567108e-05
1.04814039866e-05
1.04835273023e-05
1.04808080961e-05
1.0478385723e-05
1.04754033775e-05
1.04691363404e-05
1.0463492718e-05
1.04624628356e-05
1.04499452885e-05
1.04096913875e-05
1.03815001644e-05
1.03814118468e-05
1.03777386554e-05
1.03865386381e-05
1.04137487756e-05
1.04529109563e-05
1.04776420648e-05
1.05135765744e-05
1.0514615377e-05
1.04855325262e-05
1.04763378118e-05
1.04755894317e-05
1.04762123696e-05
1.04723248812e-05
1.0469228954e-05
1.04672177688e-05
1.04661703826e-05
1.04644936862e-05
1.04464838218e-05
1.04326780784e-05
1.04329163651e-05
1.04339155854e-05
1.04318936945e-05
1.04389298185e-05
1.04508069541e-05
1.04651099134e-05
1.04821671704e-05
1.0515153221e-05
1.05170716105e-05
1.04877123911e-05
1.04768579326e-05
1.04723812525e-05
1.047193184e-05
1.04725649221e-05
1.04698000487e-05
1.04692976483e-05
1.0468896436e-05
1.04698325563e-05
1.04562391243e-05
1.04436000709e-05
1.04476824427e-05
1.04511041669e-05
1.04531985532e-05
1.04575106507e-05
1.04640524284e-05
1.04721058993e-05
1.04845148551e-05
1.05157656538e-05
1.0519035445e-05
1.04923447327e-05
1.04820548475e-05
1.04769666886e-05
1.04747100229e-05
1.04739942552e-05
1.0474142854e-05
1.04756259274e-05
1.04780193435e-05
1.04788088874e-05
1.046232456e-05
1.04511130608e-05
1.04589135905e-05
1.04634661314e-05
1.04662634208e-05
1.04693657756e-05
1.04726250152e-05
1.04772161624e-05
1.04875802105e-05
1.05167678613e-05
1.05213174384e-05
1.05008823822e-05
1.0493164597e-05
1.04892385796e-05
1.04874214247e-05
1.04871713573e-05
1.04882224092e-05
1.04902241797e-05
1.04931664997e-05
1.04938307821e-05
1.04749543322e-05
1.04642237548e-05
1.04743248911e-05
1.04788460553e-05
1.04810970947e-05
1.04826274334e-05
1.04843988141e-05
1.04877447665e-05
1.04960928007e-05
1.05193608781e-05
1.05263648836e-05
1.05217937378e-05
1.05203718145e-05
1.05196286083e-05
1.05194547313e-05
1.0519991688e-05
1.05214050068e-05
1.05237047344e-05
1.05270694444e-05
1.0529334172e-05
1.05077492152e-05
1.04949795043e-05
1.05071115906e-05
1.05119363038e-05
1.05142033241e-05
1.05152247423e-05
1.05157607509e-05
1.05168562618e-05
1.05194114847e-05
1.05258653343e-05
1.05075718481e-05
1.04927862235e-05
1.04876087269e-05
1.04854190896e-05
1.04853245917e-05
1.0487063914e-05
1.04900975117e-05
1.04886496408e-05
1.04775782374e-05
1.04742152672e-05
1.0480024346e-05
1.04821270543e-05
1.04828582173e-05
1.04827844464e-05
1.04823554925e-05
1.04820875533e-05
1.04831546597e-05
1.04862159631e-05
1.04921785862e-05
1.05079180531e-05
1.04923905106e-05
1.04107532402e-05
1.0376277003e-05
1.03629194057e-05
1.03590705659e-05
1.03590646394e-05
1.03604645767e-05
1.03581529253e-05
1.03500057729e-05
1.03464335858e-05
1.03490419337e-05
1.03519361153e-05
1.03542134468e-05
1.03553530797e-05
1.03554767377e-05
1.03559646986e-05
1.03597703805e-05
1.03735022618e-05
1.04085004385e-05
1.0492504034e-05
1.04872208633e-05
1.03764555537e-05
1.03289138736e-05
1.03101106845e-05
1.03037446478e-05
1.03029952616e-05
1.03040670677e-05
1.03022474597e-05
1.0296322168e-05
1.02935767698e-05
1.02963261934e-05
1.02976646556e-05
1.02987838125e-05
1.02943551666e-05
1.02927211653e-05
1.02950481991e-05
1.03046415487e-05
1.03291049857e-05
1.03748480698e-05
1.04872370966e-05
1.04853187158e-05
1.03634141556e-05
1.03107729457e-05
1.02898494564e-05
1.02818915651e-05
1.02782758433e-05
1.02795104025e-05
1.02817878367e-05
1.02784751134e-05
1.027830007e-05
1.02830025158e-05
1.0284994489e-05
1.02833206647e-05
1.02761113225e-05
1.02698977245e-05
1.02706874077e-05
1.02805091152e-05
1.03046127176e-05
1.03635143505e-05
1.04848302071e-05
1.04854372215e-05
1.03597208817e-05
1.03056925793e-05
1.02834587582e-05
1.02685000787e-05
1.0257131344e-05
1.02661508264e-05
1.02854612557e-05
1.02867728425e-05
1.02828867985e-05
1.0280031104e-05
1.02897076585e-05
1.02960202273e-05
1.02722342332e-05
1.0267689264e-05
1.02689264788e-05
1.02706156399e-05
1.02886858841e-05
1.03632020851e-05
1.04846108187e-05
1.04860045604e-05
1.03604062695e-05
1.03069965724e-05
1.02809346956e-05
1.0263175193e-05
1.02360151266e-05
1.0258621503e-05
1.0314235935e-05
1.03281250912e-05
1.03184633952e-05
1.02965726643e-05
1.02756479083e-05
1.02537591468e-05
1.02660051601e-05
1.02851883236e-05
1.02846501582e-05
1.02676785549e-05
1.02580513289e-05
1.03606840994e-05
1.04854860734e-05
1.04864759579e-05
1.03623313662e-05
1.03091392759e-05
1.02811362561e-05
1.02711786123e-05
1.02660489017e-05
1.03041319311e-05
1.03121349883e-05
1.03624735256e-05
1.03719759072e-05
1.03555372119e-05
1.03390151073e-05
1.02902781897e-05
1.02921964796e-05
1.03185857189e-05
1.02978144432e-05
1.02787819862e-05
1.02503618324e-05
1.03411739965e-05
1.04874135553e-05
1.04872634872e-05
1.03643844691e-05
1.03109986994e-05
1.02826476567e-05
1.02742380632e-05
1.02825823834e-05
1.02626353206e-05
1.03567904534e-05
1.04071946813e-05
1.04382712959e-05
1.04268788132e-05
1.04104299539e-05
1.03671456353e-05
1.0325196371e-05
1.03010051657e-05
1.02862068148e-05
1.02685229946e-05
1.02744693414e-05
1.03528678972e-05
1.04888119885e-05
1.04885075316e-05
1.0365776852e-05
1.03122625995e-05
1.02845518975e-05
1.02777037897e-05
1.02876945545e-05
1.02957162563e-05
1.0403396788e-05
1.04530943933e-05
1.04883248099e-05
1.04703228355e-05
1.04507768364e-05
1.04059439333e-05
1.03262438345e-05
1.02787613139e-05
1.02729068326e-05
1.02613603703e-05
1.02806508409e-05
1.03627905596e-05
1.04896778718e-05
1.04872555611e-05
1.03650125538e-05
1.03116439427e-05
1.02840386218e-05
1.02801379e-05
1.02953301753e-05
1.03315930624e-05
1.03793402179e-05
1.04288914839e-05
1.0459149787e-05
1.04925848703e-05
1.04739525518e-05
1.04164987734e-05
1.03184490794e-05
1.02717554652e-05
1.02642850978e-05
1.02583216674e-05
1.02801253654e-05
1.03626452469e-05
1.04893101405e-05
1.04847557806e-05
1.03625424459e-05
1.03080575006e-05
1.02769881943e-05
1.02687527692e-05
1.02717106754e-05
1.03072458113e-05
1.03424464393e-05
1.03789175804e-05
1.04080702633e-05
1.04472518858e-05
1.04476259073e-05
1.03840454741e-05
1.02956059712e-05
1.0260861381e-05
1.02568059028e-05
1.02517540697e-05
1.02743388061e-05
1.03576610651e-05
1.04854390515e-05
1.04840715728e-05
1.0358330518e-05
1.03013997258e-05
1.02659745614e-05
1.02546100626e-05
1.02497197207e-05
1.02768425621e-05
1.02776366853e-05
1.02980794966e-05
1.03284349042e-05
1.03598961892e-05
1.03727653143e-05
1.03023802242e-05
1.02726972518e-05
1.02600103057e-05
1.02442479398e-05
1.02414503111e-05
1.02649993834e-05
1.03483917107e-05
1.04782830529e-05
1.04738648367e-05
1.03442814701e-05
1.02929191889e-05
1.02600673066e-05
1.02452361947e-05
1.02411459518e-05
1.02450904344e-05
1.02723566469e-05
1.02828449175e-05
1.02869578646e-05
1.02854584684e-05
1.02724927154e-05
1.02219209421e-05
1.02241749365e-05
1.02281010314e-05
1.02231035792e-05
1.02293015713e-05
1.02563662639e-05
1.03397128326e-05
1.04738720779e-05
1.04653434653e-05
1.03318748369e-05
1.02824945892e-05
1.0255913346e-05
1.02371933966e-05
1.02290427637e-05
1.02287901073e-05
1.02170129568e-05
1.02230267674e-05
1.02375888912e-05
1.0247550153e-05
1.02544723051e-05
1.02192316348e-05
1.01949477354e-05
1.0204360569e-05
1.0207441637e-05
1.02199973075e-05
1.02630637516e-05
1.03325559286e-05
1.04741776477e-05
1.04705430258e-05
1.0330856812e-05
1.02728039209e-05
1.02483611172e-05
1.02301482137e-05
1.02187835494e-05
1.02129965526e-05
1.02057177418e-05
1.02091628858e-05
1.02152444123e-05
1.02142698701e-05
1.02099509252e-05
1.01923506057e-05
1.01839297518e-05
1.01906101582e-05
1.0198791961e-05
1.022028635e-05
1.02630405047e-05
1.03281591022e-05
1.04755598632e-05
1.0476094879e-05
1.03337630831e-05
1.02705903017e-05
1.024343672e-05
1.02295779564e-05
1.02173488036e-05
1.02099293743e-05
1.02069727702e-05
1.02061372441e-05
1.02045897001e-05
1.01996540092e-05
1.01964772967e-05
1.01968543329e-05
1.0204431759e-05
1.02099683137e-05
1.02186142685e-05
1.02322910843e-05
1.02619872238e-05
1.03294808319e-05
1.04767645898e-05
1.04800765148e-05
1.03431621653e-05
1.02807613865e-05
1.02507406856e-05
1.02364077203e-05
1.02290614167e-05
1.02211006342e-05
1.02174052537e-05
1.02147288093e-05
1.02144135896e-05
1.02112776507e-05
1.02044649223e-05
1.02045478863e-05
1.02111004482e-05
1.02174979027e-05
1.02253590084e-05
1.02405464414e-05
1.02719225684e-05
1.03376063997e-05
1.04787897437e-05
1.04845525872e-05
1.03626081481e-05
1.03071396004e-05
1.0279555789e-05
1.02645171395e-05
1.02559961006e-05
1.02512595749e-05
1.02495842489e-05
1.02492670505e-05
1.02489045282e-05
1.02422854029e-05
1.02342748992e-05
1.02348409696e-05
1.02399824211e-05
1.02461250827e-05
1.0254974893e-05
1.02701032687e-05
1.02981288741e-05
1.03561186515e-05
1.04825141443e-05
1.04914473404e-05
1.04024078549e-05
1.03631033658e-05
1.03433888181e-05
1.0332466212e-05
1.03267877612e-05
1.03244196418e-05
1.03238303608e-05
1.0324319355e-05
1.0323840651e-05
1.03162942443e-05
1.03088314811e-05
1.03097817931e-05
1.03138140103e-05
1.03186755805e-05
1.03253694682e-05
1.03362499703e-05
1.0356026214e-05
1.03974255163e-05
1.0490073495e-05
1.05078328092e-05
1.04917038723e-05
1.04855924684e-05
1.04823075178e-05
1.04805762277e-05
1.04798579901e-05
1.04803539561e-05
1.04816626391e-05
1.04829677171e-05
1.04822754542e-05
1.04755436086e-05
1.0469329599e-05
1.04696947694e-05
1.04721358043e-05
1.04743611101e-05
1.04763024888e-05
1.04785147739e-05
1.04824925845e-05
1.04900806021e-05
1.05080869785e-05
1.05023982484e-05
1.04822616693e-05
1.04743795852e-05
1.04707867407e-05
1.04699030651e-05
1.04711941896e-05
1.04738343134e-05
1.04717449406e-05
1.04646199994e-05
1.04628680888e-05
1.04656843635e-05
1.04673324977e-05
1.04678647106e-05
1.04674071357e-05
1.04666810826e-05
1.04665436627e-05
1.04681565068e-05
1.04725835674e-05
1.04812501095e-05
1.05024856856e-05
1.04819054528e-05
1.03552814441e-05
1.02984538762e-05
1.02744628497e-05
1.02653253206e-05
1.02629408711e-05
1.02635735481e-05
1.0261932168e-05
1.02570571272e-05
1.02550838381e-05
1.02562844935e-05
1.02577112328e-05
1.02582567657e-05
1.02577360726e-05
1.0257303161e-05
1.025963301e-05
1.02690260314e-05
1.02936659683e-05
1.03512095055e-05
1.04814834255e-05
1.04739087558e-05
1.0298558637e-05
1.02156682035e-05
1.01793134023e-05
1.01646297929e-05
1.01611690814e-05
1.0162965108e-05
1.01642894406e-05
1.01621346205e-05
1.01605334164e-05
1.01612697211e-05
1.01639206252e-05
1.01650767812e-05
1.0164492964e-05
1.01630011492e-05
1.01650531348e-05
1.01779801665e-05
1.02130349806e-05
1.02951978471e-05
1.04735667622e-05
1.0470731699e-05
1.02747962594e-05
1.01801529614e-05
1.01386786956e-05
1.01228297649e-05
1.01207971199e-05
1.01292033175e-05
1.0139568942e-05
1.01404019523e-05
1.01397206204e-05
1.01416409862e-05
1.01458183055e-05
1.01455730384e-05
1.01389709117e-05
1.013232778e-05
1.01307885935e-05
1.0142222742e-05
1.01791616395e-05
1.0271328465e-05
1.04698122241e-05
1.04700915292e-05
1.02659529208e-05
1.01677160181e-05
1.01260240992e-05
1.01099753755e-05
1.01096532267e-05
1.01379291173e-05
1.01672262865e-05
1.01703614028e-05
1.01642832786e-05
1.01509830808e-05
1.01546697458e-05
1.01424644241e-05
1.01171139035e-05
1.01245629865e-05
1.01288243684e-05
1.01313564768e-05
1.01605142428e-05
1.02595969353e-05
1.04683126062e-05
1.04700963012e-05
1.02646328428e-05
1.01680669091e-05
1.01309051861e-05
1.01139587028e-05
1.01101106224e-05
1.01551819662e-05
1.02232150586e-05
1.02359475168e-05
1.02303572665e-05
1.02050308502e-05
1.01802554309e-05
1.0141647024e-05
1.01307296265e-05
1.01300474095e-05
1.01167218411e-05
1.01205221522e-05
1.01300343787e-05
1.02471197932e-05
1.04662663771e-05
1.04700987083e-05
1.02663622585e-05
1.01738426609e-05
1.01429706312e-05
1.01363099384e-05
1.01333535086e-05
1.02156282297e-05
1.03161181317e-05
1.03511501651e-05
1.03454979128e-05
1.03205251904e-05
1.03002612491e-05
1.02490772804e-05
1.02155852224e-05
1.01823499787e-05
1.01389076055e-05
1.01149087829e-05
1.01295153003e-05
1.02533442866e-05
1.04661231147e-05
1.04705218433e-05
1.02684581486e-05
1.01795460762e-05
1.01525483179e-05
1.01364069303e-05
1.0112111076e-05
1.02080044678e-05
1.0419412139e-05
1.04412899678e-05
1.04435830536e-05
1.04602572114e-05
1.04425344936e-05
1.0405899433e-05
1.02753453545e-05
1.01685561641e-05
1.01347648632e-05
1.01495151427e-05
1.01611513004e-05
1.02586111566e-05
1.04668660754e-05
1.04709888798e-05
1.02692975109e-05
1.01821312403e-05
1.01563809899e-05
1.01362149727e-05
1.01387232361e-05
1.02341832818e-05
1.04575686286e-05
1.04385451608e-05
1.04547699454e-05
1.04724401393e-05
1.04907547844e-05
1.04704941098e-05
1.0300064454e-05
1.01663862531e-05
1.01274013757e-05
1.01502282721e-05
1.01693708535e-05
1.0260205106e-05
1.04673835402e-05
1.04702226882e-05
1.02672762713e-05
1.01800258417e-05
1.01542281629e-05
1.0139957815e-05
1.01536836824e-05
1.02366519537e-05
1.04435337934e-05
1.04322755275e-05
1.04529058467e-05
1.05009440373e-05
1.05138676893e-05
1.04775732045e-05
1.02771946418e-05
1.0150068287e-05
1.01394838927e-05
1.01480050277e-05
1.01682283353e-05
1.02582248423e-05
1.04669604458e-05
1.04682497048e-05
1.02620743327e-05
1.0171950831e-05
1.01415784364e-05
1.01302599405e-05
1.01183562646e-05
1.02025218902e-05
1.03659609754e-05
1.04119281479e-05
1.0435481585e-05
1.04901210457e-05
1.04747710713e-05
1.04300872251e-05
1.02275078603e-05
1.01177111598e-05
1.01583466165e-05
1.01372620126e-05
1.0160037146e-05
1.02519801654e-05
1.04651264467e-05
1.04668927298e-05
1.02545563165e-05
1.01588391315e-05
1.01207672143e-05
1.01079994417e-05
1.01067365065e-05
1.01648745492e-05
1.01976005671e-05
1.02456548784e-05
1.02952257431e-05
1.03404538431e-05
1.03432062994e-05
1.02765486621e-05
1.02045434197e-05
1.01590767785e-05
1.01368908638e-05
1.0117100113e-05
1.01459842744e-05
1.02423083325e-05
1.04616211314e-05
1.04649707738e-05
1.02431480677e-05
1.01432633764e-05
1.01006329663e-05
1.00834352806e-05
1.00856767516e-05
1.00681566392e-05
1.01338933582e-05
1.01660883565e-05
1.01715740827e-05
1.01698563834e-05
1.01531334103e-05
1.01159292074e-05
1.01232321554e-05
1.01046112456e-05
1.00891241988e-05
1.00908527276e-05
1.01282388363e-05
1.02315040159e-05
1.04584343911e-05
1.04577396521e-05
1.02302393956e-05
1.01268726294e-05
1.00824888721e-05
1.00609368462e-05
1.00535956794e-05
1.00511505603e-05
1.00382424305e-05
1.00531449716e-05
1.00654965314e-05
1.00717688676e-05
1.00820302421e-05
1.00743143442e-05
1.00609318819e-05
1.00520265114e-05
1.00510895819e-05
1.00655564121e-05
1.0111557147e-05
1.02227898701e-05
1.04571980952e-05
1.04546740925e-05
1.02244529122e-05
1.01147853034e-05
1.00660498843e-05
1.00424997087e-05
1.00296565249e-05
1.00215159161e-05
1.00138362805e-05
1.00135537923e-05
1.00122456818e-05
1.00125114699e-05
1.00157408607e-05
1.00117913976e-05
1.00093287876e-05
1.0013906788e-05
1.00235705472e-05
1.00471036418e-05
1.01008451987e-05
1.0219014621e-05
1.04578572993e-05
1.04594166353e-05
1.02295498356e-05
1.01157921163e-05
1.00618500836e-05
1.00353337624e-05
1.00207221916e-05
1.0011212616e-05
1.00041266005e-05
9.99778088745e-06
9.99277711803e-06
9.99144790098e-06
9.98928304541e-06
9.98735945483e-06
9.9907484368e-06
9.9995966309e-06
1.00148231316e-05
1.00439715891e-05
1.0102811931e-05
1.02237417522e-05
1.04597339009e-05
1.04641988951e-05
1.02453459549e-05
1.01357127828e-05
1.00804329526e-05
1.00515899462e-05
1.00358718739e-05
1.00254073552e-05
1.00178328571e-05
1.00123811235e-05
1.00089286167e-05
1.00060083111e-05
1.00020215865e-05
1.00008485478e-05
1.0005620267e-05
1.00158015238e-05
1.00329998151e-05
1.00645226301e-05
1.01239029559e-05
1.0239786467e-05
1.0463418037e-05
1.0470304524e-05
1.02772354932e-05
1.01822993157e-05
1.01334449056e-05
1.01062423367e-05
1.00905363593e-05
1.00811878074e-05
1.00757636899e-05
1.00724920434e-05
1.00699929403e-05
1.00662675507e-05
1.00616230946e-05
1.00606363693e-05
1.00653325589e-05
1.00750673363e-05
1.00917233087e-05
1.01206777989e-05
1.01726204404e-05
1.02726593938e-05
1.04694000928e-05
1.04801240662e-05
1.03418161317e-05
1.02776391678e-05
1.02448470125e-05
1.02262012662e-05
1.02153018129e-05
1.02092697089e-05
1.02061080609e-05
1.02043213647e-05
1.02027188031e-05
1.01989282656e-05
1.01946155446e-05
1.01938998292e-05
1.01974776678e-05
1.02048535296e-05
1.02169837783e-05
1.02371534531e-05
1.02721309761e-05
1.0339452236e-05
1.04796880287e-05
1.05022877624e-05
1.04802876104e-05
1.04713891757e-05
1.04665823941e-05
1.046365176e-05
1.04617446533e-05
1.04610726026e-05
1.04610853185e-05
1.04610930316e-05
1.04601722933e-05
1.04571747014e-05
1.04533708723e-05
1.04518091283e-05
1.04529573943e-05
1.04553517481e-05
1.04584871543e-05
1.04627641358e-05
1.04692295022e-05
1.04797047385e-05
1.05027592307e-05
1.05009113541e-05
1.04774729062e-05
1.04676710635e-05
1.04631464538e-05
1.04617043237e-05
1.04626507284e-05
1.0464826184e-05
1.04633607967e-05
1.04581946828e-05
1.0456642486e-05
1.04584271933e-05
1.04597379655e-05
1.04600752893e-05
1.04593280112e-05
1.04582239016e-05
1.04581762261e-05
1.04602809899e-05
1.04656652214e-05
1.04761044302e-05
1.050060256e-05
1.04771479882e-05
1.03244334365e-05
1.02528967187e-05
1.02212738179e-05
1.02081402666e-05
1.02040962309e-05
1.02045623468e-05
1.0204347739e-05
1.02023451871e-05
1.02019537153e-05
1.02027763583e-05
1.02029367665e-05
1.02018720719e-05
1.01995696195e-05
1.0198027516e-05
1.02012235114e-05
1.02144679629e-05
1.02468753918e-05
1.03192265592e-05
1.04762650617e-05
1.04672258519e-05
1.02529199275e-05
1.01450015269e-05
1.0094907982e-05
1.00734899334e-05
1.00681167762e-05
1.0071284221e-05
1.0075890972e-05
1.00777697111e-05
1.0078715625e-05
1.00796028697e-05
1.00797326462e-05
1.00772471331e-05
1.00716284094e-05
1.00673672223e-05
1.00707051226e-05
1.0091143098e-05
1.01408555649e-05
1.02484692642e-05
1.0466665995e-05
1.04630823791e-05
1.02212402995e-05
1.00952190012e-05
1.00367388037e-05
1.00141526708e-05
1.00131669213e-05
1.00269659732e-05
1.00449694361e-05
1.00511838728e-05
1.00530287168e-05
1.00540364832e-05
1.00523443516e-05
1.00448065016e-05
1.00286358993e-05
1.00158665817e-05
1.00132820181e-05
1.00342358311e-05
1.00912984363e-05
1.02163225484e-05
1.0461954268e-05
1.04618338366e-05
1.02078085554e-05
1.00751181541e-05
1.00161983825e-05
9.99698319647e-06
1.00092141562e-05
1.0044658122e-05
1.00610378613e-05
1.00743096464e-05
1.00766111647e-05
1.00758496133e-05
1.00622071862e-05
1.0039237952e-05
9.99905034889e-06
9.98251780585e-06
9.98646725273e-06
1.00082289597e-05
1.00666746561e-05
1.02003568173e-05
1.04597748111e-05
1.0461681751e-05
1.02041203138e-05
1.00726096165e-05
1.00199562743e-05
9.99599281913e-06
1.00261344793e-05
1.00960407442e-05
1.0142745431e-05
1.01707836696e-05
1.01781062777e-05
1.01802827978e-05
1.01686620723e-05
1.01394601175e-05
1.0039773627e-05
9.97530567185e-06
9.95170415957e-06
9.98651522657e-06
1.00538222923e-05
1.01923569262e-05
1.04576003226e-05
1.0461533478e-05
1.02051519738e-05
1.00785876074e-05
1.0036235623e-05
1.002158797e-05
1.00569059677e-05
1.01799921202e-05
1.03647875726e-05
1.04188372263e-05
1.04284581772e-05
1.03928012721e-05
1.03673383224e-05
1.03335165014e-05
1.0178136869e-05
1.00079564392e-05
9.95619639953e-06
9.96416144713e-06
1.005713359e-05
1.01916580444e-05
1.04563022416e-05
1.04620557089e-05
1.02073795139e-05
1.00854270581e-05
1.00539037455e-05
1.00531714368e-05
1.00759116228e-05
1.02934223289e-05
1.03449290003e-05
1.00716667238e-05
9.94903937516e-06
1.00155290592e-05
1.00670250385e-05
1.01936536341e-05
1.04563369741e-05
1.04622237739e-05
1.02075371131e-05
1.00878324559e-05
1.00597173143e-05
1.00627007733e-05
1.01120369065e-05
1.0326844736e-05
1.0368528138e-05
1.00791851678e-05
9.94506450339e-06
1.00305499974e-05
1.00696838999e-05
1.0193728282e-05
1.04564096041e-05
1.04615382507e-05
1.02043130824e-05
1.00838200263e-05
1.00555741031e-05
1.00635638411e-05
1.01250817355e-05
1.03231332149e-05
1.03598611144e-05
1.00749181894e-05
9.96515817131e-06
1.0029328956e-05
1.00648978232e-05
1.01903770928e-05
1.04559721419e-05
1.04598953274e-05
1.01974297786e-05
1.00724283466e-05
1.00372693513e-05
1.00525541181e-05
1.00922011185e-05
1.03068916002e-05
1.02967176105e-05
1.00195966471e-05
1.00216358356e-05
1.0013711104e-05
1.00533015857e-05
1.0183442226e-05
1.04547288984e-05
1.04578012707e-05
1.01878139183e-05
1.00552130232e-05
1.00068772235e-05
1.00098796262e-05
1.0047352452e-05
1.01654801546e-05
1.03174460595e-05
1.03597627992e-05
1.03934423936e-05
1.04181385398e-05
1.03978072876e-05
1.03568582059e-05
1.0152123014e-05
1.00406692986e-05
1.00010297424e-05
9.98804206234e-06
1.00360378193e-05
1.01730084768e-05
1.04522253115e-05
1.0455637234e-05
1.01763756145e-05
1.00364120672e-05
9.97732327736e-06
9.96347632552e-06
9.98831840998e-06
1.00107923139e-05
1.0078240029e-05
1.01083892601e-05
1.011263173e-05
1.01150395052e-05
1.01084532414e-05
1.00832682717e-05
1.00152569683e-05
9.96708593877e-06
9.94551320392e-06
9.95579774242e-06
1.00160526868e-05
1.01619321822e-05
1.04494759041e-05
1.04505050614e-05
1.01646200046e-05
1.00191459212e-05
9.95272194261e-06
9.92651926961e-06
9.92728419494e-06
9.93567232383e-06
9.94317444587e-06
9.95452816613e-06
9.95455784126e-06
9.94741146346e-06
9.94535463733e-06
9.93740384676e-06
9.91828352009e-06
9.90160184982e-06
9.90269297024e-06
9.92867555997e-06
9.99940646801e-06
1.0153831332e-05
1.04478399487e-05
1.0447594163e-05
1.01592262384e-05
1.00089489257e-05
9.93662636885e-06
9.90231989443e-06
9.88851037388e-06
9.88380883437e-06
9.8833132243e-06
9.87926354104e-06
9.87390308359e-06
9.86930270289e-06
9.86812206362e-06
9.86393084484e-06
9.85903093939e-06
9.86125589017e-06
9.87586801435e-06
9.91280203312e-06
9.99151499436e-06
1.01516537494e-05
1.04479588156e-05
1.04506573626e-05
1.0166017325e-05
1.00143249159e-05
9.93788673486e-06
9.89863305452e-06
9.87850687617e-06
9.86743072926e-06
9.85942208174e-06
9.85219198246e-06
9.84687514802e-06
9.84407144845e-06
9.8420191344e-06
9.84052269568e-06
9.84259948866e-06
9.85234393051e-06
9.87392069502e-06
9.9168234876e-06
9.99920196163e-06
1.01592321236e-05
1.04499720663e-05
1.04557642039e-05
1.01864699559e-05
1.00427401726e-05
9.96762975936e-06
9.92690245419e-06
9.90430338378e-06
9.89063511213e-06
9.88147778633e-06
9.87513655429e-06
9.87115922405e-06
9.86841346056e-06
9.86599266801e-06
9.86546007824e-06
9.87000698253e-06
9.88235322732e-06
9.90609320492e-06
9.94970189681e-06
1.00295532812e-05
1.01802627317e-05
1.04540718904e-05
1.04629708359e-05
1.02269275171e-05
1.01045606535e-05
1.0040019363e-05
1.00035305616e-05
9.9822880915e-06
9.96962487557e-06
9.96206976381e-06
9.95744034586e-06
9.95433682657e-06
9.95160867027e-06
9.9490300144e-06
9.9488085974e-06
9.95376675494e-06
9.96574478645e-06
9.98771398058e-06
1.0026122683e-05
1.0094190994e-05
1.02220831905e-05
1.04611557791e-05
1.04746722906e-05
1.03076056022e-05
1.02273344211e-05
1.01856868998e-05
1.01617316208e-05
1.01474767101e-05
1.01391885707e-05
1.01345004023e-05
1.01317222799e-05
1.01298049756e-05
1.01274861255e-05
1.01250685089e-05
1.01247424055e-05
1.01283108142e-05
1.01368807693e-05
1.0152046977e-05
1.01776162936e-05
1.02216612252e-05
1.03052147324e-05
1.04735863748e-05
1.05003915058e-05
1.04748166253e-05
1.04641492808e-05
1.04581724792e-05
1.04542811415e-05
1.0451803019e-05
1.04506373893e-05
1.04501192751e-05
1.04498432963e-05
1.04491265069e-05
1.04474585347e-05
1.04450350475e-05
1.04431359392e-05
1.04432357322e-05
1.04451247955e-05
1.04483728249e-05
1.04534019629e-05
1.04610278019e-05
1.04735040016e-05
1.05001947655e-05
1.05001269669e-05
1.04743597153e-05
1.04630383653e-05
1.04578569525e-05
1.04560233108e-05
1.04567533548e-05
1.04585475355e-05
1.04576621677e-05
1.04535435022e-05
1.04520870974e-05
1.04534356757e-05
1.04544046475e-05
1.04545309933e-05
1.0453545128e-05
1.04520152253e-05
1.04518988701e-05
1.04544618833e-05
1.04607366392e-05
1.04725597118e-05
1.04993631293e-05
1.04739595958e-05
1.03045768725e-05
1.02230371534e-05
1.0186058619e-05
1.01702033414e-05
1.01651298134e-05
1.01655981372e-05
1.01666552848e-05
1.01666520587e-05
1.01672727396e-05
1.0167814928e-05
1.01668821914e-05
1.01643670632e-05
1.01606047328e-05
1.01580487303e-05
1.01616066924e-05
1.01775139649e-05
1.02156614983e-05
1.02982932343e-05
1.04727052552e-05
1.04626026538e-05
1.02230017936e-05
1.00978516458e-05
1.00381170799e-05
1.00119774466e-05
1.00054505215e-05
1.00097366494e-05
1.00166390337e-05
1.00213028941e-05
1.00238765703e-05
1.00245863659e-05
1.00230059319e-05