/*--------------------------------*- C++ -*----------------------------------*\
| =========                 |                                                 |
| \\      /  F ield         | OpenFOAM: The Open Source CFD Toolbox           |
|  \\    /   O peration     | Version:  v1606+                                |
|   \\  /    A nd           | Web:      www.OpenFOAM.com                      |
|    \\/     M anipulation  |                                                 |
\*---------------------------------------------------------------------------*/
FoamFile
{
    version     2.0;
    format      ascii;
    class       volScalarField;
    location    "4.1";
    object      epsilon;
}
// * * * * * * * * * * * * * * * * * * * * * * * * * * * * * * * * * * * * * //

dimensions      [0 2 -3 0 0 0 0];

internalField   nonuniform List<scalar> 
11640
(
0.000275972028118
0.000357665662371
0.000413774389545
0.000446529936672
0.000462854495758
0.000467526569559
0.000464819929908
0.000458671832538
0.000451453791792
0.00044361834572
0.000435616807212
0.000429713587222
0.000428031348726
0.000429877829247
0.000430837441638
0.000426336453829
0.000411999435472
0.000382333710806
0.000331628087435
0.000260789386701
0.00035955972142
0.00074498276583
0.000991329722934
0.00113808562559
0.00121859318716
0.0012521274102
0.00125314774013
0.00123537633737
0.0012134903432
0.00119335081836
0.00117946735444
0.00118859512663
0.00121025414612
0.00122949426549
0.00122985113406
0.00119378578179
0.00110979779203
0.000961356190964
0.000713839580241
0.000334778531952
0.000416624425625
0.000993973699021
0.00138254494515
0.00163407140896
0.00177787241367
0.00182975427095
0.00181088739955
0.00175670563929
0.00169759503015
0.00164543868935
0.00162014928756
0.00165973753572
0.00171042179085
0.001759741053
0.00178192719973
0.00174074874244
0.00160361483038
0.00135155061072
0.000959602859986
0.00038541225629
0.000450151012534
0.00114998568346
0.00165215376116
0.00198707305434
0.00216466033085
0.00219907625479
0.00212616493172
0.0020098953959
0.00189892866509
0.00180646004916
0.0017813164275
0.0018514009502
0.001937832017
0.0020323640857
0.00209841369547
0.0020819577612
0.00193304368559
0.00161511154015
0.00111294932202
0.000414832960044
0.000470812619065
0.00125184050638
0.00183433509511
0.00221537137734
0.00238682095147
0.00236099303908
0.00220222311637
0.002007386338
0.00183907538866
0.00171077344272
0.00169692322527
0.00178975209009
0.00191286197973
0.00206945672713
0.00220725345193
0.00224549278372
0.00212011862803
0.00178289685708
0.00121322742143
0.000432779905823
0.000484001652041
0.00131076541666
0.00193380065605
0.00231890177064
0.00244100237822
0.00231531871689
0.00202862346438
0.00173743871902
0.00152199845785
0.00137172245233
0.00136267204253
0.00145967785137
0.00161947443247
0.00187675263458
0.00213538913178
0.00226377379724
0.00219010592198
0.00186635840705
0.00127159774432
0.0004455995178
0.000488224279979
0.0013281007327
0.00195469573758
0.00231204619882
0.00235638079857
0.00209244743216
0.00163105212399
0.00123201464044
0.00100735453388
0.000884022095172
0.000905632810412
0.000976640751085
0.00114338869088
0.00151022581774
0.00193835768864
0.00218425216365
0.00217946031947
0.00188565758085
0.00129254546085
0.000452238023797
0.000484364416675
0.00131779034008
0.00192801922184
0.00224546224644
0.0022142846529
0.0018271765092
0.00122458925631
0.0008068792192
0.000622031593386
0.000539004117338
0.000526154116071
0.000572290487784
0.000729076023833
0.00114991313752
0.00172206431954
0.0020745156328
0.00213390659148
0.00187097838631
0.00128972980509
0.000452911632156
0.000478000941017
0.00130452678348
0.00190108770262
0.00219301544072
0.00212040860955
0.00167499831719
0.00102701987927
0.00062122498634
0.000454497325682
0.000393015486273
0.00038206088847
0.000420898372172
0.000569711851715
0.000981823976023
0.00161118299856
0.00201589654017
0.0021088953452
0.00186114163873
0.0012855071494
0.000452030804542
0.000472797476169
0.00130243453017
0.00190058258455
0.00218915624241
0.00210763531356
0.00164817846963
0.000981839383311
0.000571714136841
0.00041214921626
0.000359979007353
0.000352535092585
0.000392131881328
0.00054641396631
0.000971726918151
0.00162353069799
0.00203805405128
0.00213190344447
0.00187731553516
0.00129275882147
0.000452331678709
0.000469361031216
0.00131475534262
0.00193001389644
0.00224124795676
0.00218828933036
0.00175883977418
0.00109779616092
0.000658907794113
0.000493247737241
0.000436423733448
0.000429801712179
0.000480626854426
0.000653173999821
0.00112507045304
0.00177149827802
0.0021521587643
0.00221010961673
0.00192406996264
0.00131403919438
0.000454190802907
0.000465258686122
0.00133094123652
0.00197400011568
0.00232967026796
0.00235192937255
0.00204120262017
0.00150589084144
0.00105459933216
0.000862522666485
0.000775898078901
0.000746411910545
0.000858114845762
0.00109524533519
0.00157270232692
0.00208136212344
0.00235509176809
0.00233410847686
0.00199203380655
0.00134223080839
0.000455665367202
0.000456901310814
0.00133289749233
0.00199667305635
0.0024006699266
0.00251585924686
0.0023579940118
0.00201709881727
0.00168140409988
0.00149280504809
0.00138429565304
0.00140280719822
0.00157564093815
0.00181456060342
0.00215179817166
0.00246040503394
0.00258598126446
0.00246192460173
0.00205200839502
0.00136161252818
0.000453508011712
0.00044577389691
0.00131249492852
0.00197453470098
0.0024116716303
0.0026099113938
0.00258743175097
0.00241732488265
0.0022186996004
0.00207545845394
0.00198480332736
0.00202860264968
0.00220072865551
0.00239511489091
0.00260710711681
0.00275823467568
0.00275302856632
0.00253463301987
0.00206883100199
0.00135899814757
0.000448052358897
0.000438224881806
0.00127473739036
0.0019045984013
0.00234346555734
0.00259395765897
0.00267311314151
0.00262724878467
0.00253343807066
0.00245175295848
0.00240235778978
0.00246268558206
0.00259602006504
0.00272830226024
0.00284393098889
0.00288619735462
0.00278868906753
0.00250818587936
0.00202304476236
0.00133502279586
0.00044262995778
0.000430553876336
0.00122687747847
0.00179301509998
0.00219317098125
0.00245204564067
0.00258274319981
0.00261582032809
0.00259842394316
0.002574333791
0.0025663635407
0.00262202878691
0.00270282642414
0.00277713006713
0.00282438133273
0.00279907069974
0.00265588478396
0.00236522667577
0.00191803898754
0.00129125681821
0.000435135051774
0.000413512668876
0.00114298084297
0.00164633028116
0.00197184064157
0.0021893641202
0.00232120172271
0.00238420577889
0.00240633761675
0.00241798517032
0.00243659128559
0.00247541600591
0.00251390192469
0.00254582950004
0.00255251796769
0.00250139325758
0.00236331687305
0.00212240702585
0.00175249944863
0.00120004623058
0.000418115558904
0.000381726966242
0.000982470091844
0.00139572948244
0.00166310710569
0.00182797673913
0.00192357893877
0.00197815555905
0.00201008443307
0.0020309164562
0.00204701638692
0.00206169118203
0.00207532897726
0.00208453289005
0.00207838901776
0.0020376376666
0.00194044001032
0.00176356119791
0.00147498485637
0.00102770832901
0.000385160608112
0.000330214188317
0.000721001383921
0.00098438283394
0.0011536123032
0.00125894342325
0.00132154977755
0.00135606640094
0.00137375629394
0.00138287815097
0.00138827177975
0.00139339230207
0.00139866203954
0.00140208941708
0.00139861450003
0.00137626071283
0.00132021621542
0.00121258797861
0.00103075036698
0.000745106183405
0.000330658544698
0.000260021785856
0.000335552398674
0.000389435149896
0.000423114056486
0.000443081059062
0.000454073802329
0.000459782181749
0.000461881861402
0.000462244608442
0.000461797678084
0.000461354579409
0.000460572067375
0.000459865409991
0.000457755738018
0.000452816493269
0.000442278701023
0.000422243235986
0.000387849893472
0.000332366523571
0.0002571631432
0.000376803617012
0.000581930333554
0.000724947490441
0.000807068122797
0.000845031910791
0.000856447749317
0.000858709937268
0.00086012203691
0.000861877198203
0.000863951171642
0.000865295441532
0.000862889931259
0.000861067494508
0.000859495917058
0.000853745024237
0.000836075643722
0.000792977956141
0.000708021644377
0.000564641279765
0.000367708346769
0.000585431158866
0.00077600838394
0.000949472874833
0.00105517014295
0.00110726098499
0.0011248069466
0.00112465009869
0.00111558199
0.00110516910248
0.00109735700366
0.00109382155149
0.00109752013773
0.00110682556747
0.00111567060225
0.00111445502509
0.00109045067748
0.00103159453206
0.000923499860402
0.000752804824733
0.000571511605923
0.000731008720404
0.000952885477896
0.00117159850626
0.00131483862284
0.00139160454415
0.00141642622477
0.00140260104792
0.00137252467967
0.00134202632147
0.00131837054406
0.00130849127382
0.0013213267347
0.00134394875559
0.00136793828431
0.00137926979362
0.0013575152929
0.00128239537923
0.00114089269336
0.000927691152912
0.000714656824018
0.000812725794337
0.00106491976179
0.0013271890554
0.00150728697386
0.00160056140521
0.0016121867186
0.00156864184406
0.00150586923895
0.00144824132525
0.00140653571744
0.00139469038066
0.0014200509167
0.00146178806439
0.00150949157593
0.00154324261936
0.00153427755225
0.00145571060089
0.00129058220868
0.00104021730602
0.000795832229611
0.000847883998479
0.00112796678389
0.00142694613814
0.00163238112654
0.0017211496853
0.00170077745002
0.00161191091478
0.00150840490246
0.00142170433801
0.00136490295128
0.00135625384013
0.00139447018195
0.00145994384594
0.00154005684469
0.00160915998337
0.00162608935166
0.00155668390673
0.00138184996667
0.00110566905168
0.000833410883261
0.000854294733797
0.001155485651
0.00147685429236
0.00168728272278
0.00175023576818
0.00167572967968
0.00152091797411
0.00136964304845
0.00125691243231
0.00119368169114
0.00119123192471
0.00124162162298
0.00134027020164
0.00146297203626
0.00158572692199
0.00164468656224
0.00159757312317
0.00142580154309
0.00113722992261
0.000845437658381
0.000847945808058
0.00115773791885
0.0014833882716
0.00167983412717
0.00169916198302
0.00154684135582
0.00129434955139
0.00107612767625
0.00094177587085
0.000899028638911
0.000917423277665
0.000980915566183
0.00113191870057
0.00129835805689
0.00149398017062
0.00160889039586
0.00159423447817
0.00143508001168
0.0011454143826
0.000844867858818
0.000839313004612
0.00114693422991
0.00146485449334
0.00163924371449
0.00161331341178
0.00138426733375
0.001033651851
0.000763513889752
0.000631035977051
0.000606109014981
0.000616640242527
0.000671163158627
0.000847336848611
0.00111957305725
0.00138665069647
0.00155306049079
0.00157041527282
0.00142652063474
0.00114153359366
0.000840145110257
0.000833870625176
0.0011370684767
0.00144770038361
0.00160678708054
0.00155253211152
0.00127672782099
0.000867599119077
0.000574657197359
0.000443776922735
0.000420032077664
0.000426082584229
0.000467812344462
0.000637186732136
0.000962238572886
0.00130655084506
0.00151486247096
0.0015544663765
0.00142040252043
0.00113837728725
0.000837449278831
0.000834265878841
0.00113637408463
0.00144755554019
0.00160558377911
0.00154647652468
0.00126077532022
0.000838025711841
0.000538853978075
0.00040608324225
0.000382210851862
0.00038511204557
0.000421148064939
0.000592096572652
0.000940496121871
0.00130601798963
0.00152361061986
0.00156579394903
0.00142960887399
0.00114367015212
0.000839703969817
0.000842173566058
0.00114667327095
0.00146754493813
0.00164102198245
0.00160266001206
0.00134378883468
0.000952765542706
0.000657564374442
0.000518748331827
0.000494439074688
0.000498190550093
0.000538571189586
0.000719748402349
0.00107325574436
0.00139829698724
0.00158811671375
0.00161005490583
0.00145777596522
0.00115954553217
0.000848394403553
0.000857038499009
0.00116356727608
0.0014987773392
0.00170103840873
0.00171079292689
0.00152536805102
0.00122213841156
0.000957774818897
0.000822388163481
0.000787519548737
0.000792112219925
0.000857616896729
0.00104595022358
0.00131212986448
0.00156114874342
0.00169703142008
0.00167885673904
0.00149862647897
0.00118234192523
0.000862869362962
0.000876410245235
0.00117792298226
0.00152136318965
0.00175299854116
0.00182130235017
0.00172621980775
0.00153148072264
0.00134822696514
0.00123778348872
0.00119465907596
0.00121132782903
0.00129593567552
0.00143851838632
0.00160326758318
0.00175565975434
0.00181854785499
0.00174887781846
0.00153641811702
0.00120338744754
0.000880097533424
0.000893961625398
0.00118183303552
0.00151978569877
0.00176842192123
0.00188865879936
0.00187716924818
0.00177868590053
0.0016667408368
0.00158500889473
0.00154398799262
0.00156249781227
0.00163635515118
0.00173566519547
0.00183847275908
0.0019131576877
0.00190834117339
0.00179108417144
0.00155293375808
0.00121255080119
0.00089414152591
0.000897821148122
0.00116994226359
0.00148915438497
0.00173373289251
0.00188333335553
0.0019330073966
0.00190770326521
0.00185397995419
0.00180622910339
0.00178049888237
0.00180053604004
0.00185438388885
0.00191617058005
0.00196918910818
0.00198573358283
0.00193094400122
0.00178237982018
0.00153514184362
0.00120261327984
0.000896920784559
0.000876667098742
0.00113678899793
0.001429372143
0.00165130175491
0.00180064791595
0.00187979186646
0.00190119418904
0.00189151489761
0.00187578625339
0.00186953973664
0.00188842135411
0.00192073339755
0.00195203571073
0.00196871351694
0.00194819051764
0.00186705918289
0.00171120117876
0.00147684983829
0.0011662077026
0.000877747482179
0.000821302942025
0.00106849646003
0.00133553039176
0.00152655177856
0.00165514208038
0.00173305058955
0.00177099945635
0.00178447597335
0.00178963315709
0.00179682744089
0.00181107409516
0.00182655457753
0.00183762210409
0.00183380322551
0.0017987255361
0.00171697844199
0.00157841966883
0.00137219484439
0.00109086976144
0.000823963343032
0.000722947793022
0.00094765860322
0.00118240613908
0.00134759796055
0.00145397358715
0.00151752669318
0.00155288214811
0.00157153785361
0.00158197597774
0.00158935575282
0.00159596112939
0.00160128565423
0.00160223899801
0.00159189361425
0.00155940733502
0.00149276096375
0.00137935666745
0.00120520835161
0.000961492851027
0.000723717483667
0.000570261544831
0.000765864482331
0.000955591876818
0.00108620115779
0.00116927586813
0.00121867001042
0.00124594397112
0.00125992062526
0.00126677471319
0.00127044012628
0.0012729112502
0.00127423064229
0.00127239667228
0.00126290616351
0.00123822822697
0.00118844156613
0.00110184562388
0.000965357409253
0.000769370105045
0.000565972832655
0.000369029534696
0.000580772199568
0.000737794829439
0.000839824863158
0.000902861397229
0.000939627119847
0.000959491728603
0.000968914641789
0.000972094654445
0.000972694624999
0.000972186664192
0.000970361591154
0.000966612561512
0.000957722714174
0.000938031405645
0.000900098965446
0.000834424711164
0.000728761809217
0.00056861974931
0.000360985378921
0.000468852877072
0.00079566983307
0.00102720954633
0.00116288595558
0.00122910869969
0.00125237829723
0.00125704458262
0.00125592856654
0.0012546551489
0.00125499511378
0.0012565375974
0.00125752757014
0.00126028917403
0.00126130524807
0.00125102533796
0.00121745000622
0.00114206950547
0.00100026122667
0.000766539211749
0.000450463601685
0.000800608991673
0.000922264829362
0.00109541024175
0.00120658450892
0.00126254531533
0.00128204985678
0.00128303647517
0.00127578389825
0.00126750757477
0.00126234543181
0.00126169385497
0.00126582239994
0.00127399258845
0.00128120544714
0.0012777829639
0.00125047713807
0.0011858038493
0.0010704004778
0.000899079415672
0.000777171177749
0.00103601582208
0.00109931486155
0.00127639620384
0.00139740288087
0.0014607409774
0.00148056298847
0.00147103954589
0.00145034894309
0.00143001070083
0.0014161398977
0.00141227263254
0.00142060917078
0.00143738073399
0.0014549630285
0.0014620377843
0.00144116139158
0.00137460795561
0.00125141819592
0.00107742242144
0.00101140978467
0.00117153488033
0.00121475639827
0.00140520711828
0.00154028100118
0.00160818182309
0.00161571291596
0.001585830973
0.00154474669161
0.00150772664439
0.00148408191238
0.0014793876728
0.00149588974455
0.00152690714347
0.00156051729455
0.00158397811254
0.0015748404043
0.00151170875971
0.00138206021164
0.00119710933047
0.00114872890151
0.00123387079493
0.00127574450845
0.0014806078069
0.00162571527424
0.00168650164499
0.00167111718853
0.00161167066268
0.0015461151791
0.00148877011799
0.0014563142452
0.0014543743619
0.00148320426426
0.00153651727458
0.00158938730191
0.00163581631038
0.0016453054274
0.00159139421001
0.00146039310532
0.00126559120159
0.00121625404021
0.00124977636828
0.00129753266949
0.00151140907873
0.00165587568646
0.0016972240156
0.00164545039447
0.00154635123965
0.00146028397497
0.00137295533718
0.00133464489007
0.00134173873781
0.00139211270812
0.0014919214196
0.00155194186853
0.00162558245535
0.00166159124072
0.0016236934108
0.00149700234932
0.00129699381746
0.00124021112596
0.00124328781804
0.00129539184619
0.00150921404662
0.0016419777526
0.0016530521445
0.0015527447819
0.00140558883148
0.00132520730881
0.0011517386942
0.00112872216522
0.00116711693743
0.00125419535302
0.0014928198803
0.00148422393664
0.0015726879293
0.00163907567721
0.00162259789918
0.00150514547827
0.0013049591484
0.00124162423594
0.00123176171859
0.00128380852556
0.001491124545
0.00160708607487
0.00158659431941
0.00144275366137
0.00128561420498
0.0012628296981
0.000989661094616
0.000983095252199
0.00101220925997
0.00110294981601
0.0015897926988
0.00146985247074
0.00151683682153
0.00160249269045
0.0016066722787
0.00149984560948
0.00130235521406
0.00123544524919
0.0012253204266
0.00127507808307
0.00147675205384
0.00158026707762
0.00153509503206
0.00133972991195
0.00105071641568
0.000828243015345
0.00053649900201
0.00049086946548
0.000501648171514
0.000576778982627
0.000998400874638
0.00122080062122
0.00143909559138
0.00157350585917
0.0015968897193
0.00149742050719
0.00130125184909
0.00123295858139
0.0012290294832
0.00127631536125
0.00147827186966
0.00158144022924
0.00153377357079
0.00133242029572
0.00103088908793
0.000800058417682
0.000498967321897
0.000445235294751
0.000441731758305
0.00050016763337
0.000908675182372
0.00119421294543
0.00144320513643
0.00158601828721
0.00161081101688
0.00150917199077
0.00130925948552
0.00123948031039
0.00124536752514
0.00128935806158
0.00149824238883
0.0016146028215
0.00158850639403
0.00142969345532
0.00124070410292
0.00114085623019
0.000811080985556
0.000772474385131
0.000779625437317
0.000824675718539
0.00126730428749
0.00141206827475
0.00154521004909
0.00164836182923
0.00165344212283
0.00153831289757
0.00132863800569
0.00125701426786
0.00127240279276
0.00131119055669
0.00153057702017
0.00166888827414
0.00167835904999
0.0015665807771
0.0014063813954
0.00131238510919
0.00111638453406
0.00107848266748
0.00108726503872
0.00115553330563
0.0014308301467
0.00155322462588
0.00166722737661
0.00173948215075
0.00171556430406
0.00157920686296
0.00135606256226
0.00128391956435
0.00130443520088
0.00133480139996
0.00156265717706
0.00172435911462
0.00177611004258
0.0017221900437
0.00161597594265
0.00152999572195
0.00144141770055
0.0014190668363
0.0014449971648
0.00152080457208
0.00165363244683
0.00173261591921
0.00180975056949
0.00183920421549
0.00177953435324
0.00161902384806
0.00138308763888
0.00131455728848
0.00132915704701
0.00135003664455
0.00157989459905
0.00175816160524
0.0018482960662
0.00185026827246
0.00179859584873
0.00174217709565
0.00169451584911
0.00167932121042
0.00170123590178
0.00175587429318
0.00183064630089
0.00189001637898
0.00192969623345
0.00191645733829
0.00182283940638
0.00164185269053
0.00139839021004
0.00133696834347
0.0013295649313
0.00134566040576
0.00157103422223
0.0017536375042
0.00186813716672
0.00191286661062
0.00190768195724
0.001884385027
0.00186277551979
0.00185720174532
0.00187592092791
0.00191273459109
0.00195545471789
0.00198706692263
0.00199112518482
0.00194320739782
0.00182508906406
0.00163330773453
0.00139096150217
0.00133706032044
0.00128969870421
0.00131112742911
0.00152802472146
0.00170380729883
0.00182384864608
0.00189111188979
0.00191704763984
0.00192084108506
0.00191922948106
0.00192350188472
0.00193904731083
0.00196152604689
0.00198260320874
0.001990471179
0.00196899409311
0.00190032925695
0.00177242894159
0.00158312458883
0.00135011903354
0.00129850013405
0.001195174382
0.00123422528656
0.00144248603476
0.00160664969656
0.00171919742159
0.0017887584836
0.00182609690696
0.00184388665095
0.00185372165193
0.00186302797371
0.0018749020876
0.00188711392812
0.00189468658523
0.00188855319095
0.00185561906786
0.00178284809981
0.00166082453558
0.00148412478926
0.00126447058028
0.00120286220518
0.00103117182804
0.0011040035864
0.00130320242998
0.00145613198935
0.00155907933109
0.0016228543702
0.0016594395778
0.00167944903998
0.00169100798069
0.00169924765023
0.00170642818638
0.00171193372813
0.00171236315421
0.00170083125059
0.00166748698649
0.00160123517336
0.00149154906052
0.00132996995672
0.00112272758845
0.00103295939837
0.000779752266798
0.000920221437768
0.00111574052651
0.00125811699713
0.0013516347038
0.00140876718794
0.00144136411742
0.00145886994637
0.001468172192
0.00147368915541
0.00147750490739
0.00147943387754
0.00147688424159
0.00146455685513
0.00143427578041
0.00137565009167
0.00127702322268
0.00112722512685
0.000924718728629
0.000772757022492
0.000452854701589
0.000794905164244
0.00105307932994
0.0012239213067
0.00133212556688
0.00139683703904
0.00143286748149
0.00145131033233
0.00145919058095
0.00146223045448
0.00146272625904
0.00146082236853
0.00145420647029
0.0014373530059
0.00140085706218
0.00133278947744
0.00121846952443
0.00103958304563
0.00077553334497
0.000442142090855
0.000528478802205
0.000953204178844
0.00125839830911
0.00144045798876
0.00153233535369
0.00156583517829
0.00157077557126
0.00156509913426
0.0015586854671
0.00155508873869
0.0015557466785
0.00155954507152
0.00156702785112
0.00157163715421
0.00155917783417
0.0015122385534
0.00140829347554
0.00121803080069
0.000910496632103
0.00050015238329
0.000959206091515
0.00105396135579
0.0012381264992
0.00136076399188
0.00142453158521
0.00144767077489
0.00144912113013
0.00144123494135
0.00143225115499
0.00142703541477
0.00142735314341
0.00143280760314
0.00144210718414
0.00144962008348
0.00144464729141
0.00141265421906
0.00133903055683
0.00121101506535
0.00102761772512
0.000924462927483
0.00126928491034
0.00124249345035
0.00140311278227
0.00151819091625
0.00157877907988
0.00159825716123
0.00159141586655
0.00157442200619
0.00155750364803
0.00154705208542
0.00154584128231
0.0015542758394
0.00157041487909
0.0015861816386
0.00159107637401
0.00156818704968
0.00150090878783
0.00138060273989
0.00122045230326
0.00123388811069
0.00145174520222
0.00136841809123
0.00152365459271
0.00163908326496
0.00169704120994
0.00170498026951
0.00168315987659
0.00165249166609
0.00162356663938
0.0016067809415
0.00160566199677
0.0016214426637
0.00165083155794
0.00167905694847
0.00169759908902
0.00168648969623
0.0016265912867
0.00150897450691
0.00135339308085
0.00142007575762
0.00153948317096
0.00143469990032
0.0015912023906
0.00170721537539
0.0017564674117
0.0017473584076
0.00170708443332
0.00166462525218
0.00161763996832
0.001593386247
0.00159438255944
0.00162303939211
0.00167665979405
0.00171461223617
0.00174831708231
0.00175229395655
0.00170220435551
0.00158753548785
0.00143043537032
0.00151563908861
0.00156562665889
0.00145774689767
0.00161561512166
0.00172737720677
0.00176165357834
0.00173048215597
0.00167863036295
0.00167195256767
0.00157486459969
0.00153746275456
0.00154388758246
0.00159789318925
0.00172166585551
0.00171516169979
0.00175140932619
0.0017721417508
0.00173507009976
0.00162553711396
0.00146651971412
0.00155271993189
0.00156039715797
0.00145549971526
0.00161104211144
0.00171283681123
0.00172817707669
0.00168191876656
0.00170867119696
0.0025013370797
0.00204099600961
0.00194629147043
0.00195464262511
0.00206594169525
0.00257690082351
0.00179157167825
0.00173216064306
0.00176030424369
0.00173811704441
0.0016361885971
0.00147711831355
0.00155856978982
0.00154671820032
0.00144418145927
0.0015942155533
0.00168292645013
0.00167980213814
0.00164914326585
0.00231878695177
0.00267078119079
0.00174386620923
0.0017383958262
0.00172827006118
0.00163436853732
0.00147681233766
0.00155347634798
0.0015394819159
0.00143647522869
0.00158206201886
0.00166024237071
0.00163417959687
0.00153729625302
0.00176990736593
0.00202271158169
0.00165195550179
0.00171503984073
0.00172350069916
0.00163558136793
0.00147833657854
0.00155306126187
0.00154618446569
0.00143970205007
0.00158554474818
0.00166392215596
0.0016366910336
0.00153505245586
0.00174790824843
0.00198010803733
0.00166270327831
0.00173353915496
0.00174192440873
0.0016510911827
0.00148987962868
0.00156497328284
0.00156957826969
0.00145574896238
0.00160696180806
0.00169701597612
0.00169176790262
0.00165055140502
0.00226320640394
0.00258470216673
0.0017892545807
0.00180134841469
0.00178800256155
0.00168390457251
0.0015139141584
0.00159167298596
0.00160649969065
0.00148172075541
0.00164110749083
0.00174828854147
0.00176604375545
0.00172035833107
0.00174563969715
0.00249357699232
0.00204097373989
0.0020106102194
0.00205680351461
0.00220930098806
0.0028532045337
0.00193603075475
0.00186663766711
0.00188622450853
0.0018504744716
0.00172786093606
0.00154666158134
0.00163066070581
0.00164788078715
0.001510659217
0.00167850427466
0.00180536457431
0.00185324086016
0.00183359374617
0.00180327646955
0.00183393368134
0.00173940968589
0.00171950773182
0.00174981990918
0.00182848107966
0.0019770480007
0.00195680480759
0.00197327098356
0.00197590713833
0.00191309035676
0.00177015614484
0.00157872252787
0.00167253251123
0.00167700210413
0.00153054828169
0.00170443992536
0.00184810877722
0.00192569136743
0.00194100689119
0.00192403295321
0.00190962401256
0.00187919134636
0.00187529329223
0.00190120322462
0.0019523552872
0.00202057081897
0.00205278640694
0.0020688959899
0.00204506751445
0.00195557669881
0.00179504348996
0.00159724340142
0.00170071461246
0.00167158205329
0.00152700420506
0.00170410297193
0.00185750298113
0.00195699701378
0.00200322891681
0.00201343336117
0.00201073563479
0.00200448602279
0.00200999752806
0.00203122408876
0.00206464356655
0.00210164453871
0.00212303266296
0.00211846581358
0.00206883548877
0.00195867736052
0.00178751370191
0.00158887435805
0.00169566208371
0.00161316372908
0.0014870205134
0.00166571201753
0.00182137123715
0.0019304173713
0.00199530957649
0.00202704246255
0.0020408479418
0.00204874126002
0.00205972478815
0.00207664088819
0.00209751319739
0.00211580124328
0.00211989396052
0.00209606632725
0.00202900051903
0.00190867202305
0.00173617338791
0.00154094086325
0.00163698158756
0.00148389611144
0.00139877520414
0.00157989947634
0.00173456967402
0.0018438237989
0.00191355630667
0.00195400682259
0.00197650818008
0.00199065923374
0.00200283677728
0.00201568485045
0.00202794638931
0.00203480217751
0.00202732573904
0.00199333439334
0.00192073872215
0.00180146606355
0.00163409587225
0.00144176766457
0.00150276192104
0.00126421371204
0.00125367743951
0.00144206857499
0.00159598899201
0.00170323019214
0.00177173766042
0.00181256869418
0.0018361029675
0.0018503797734
0.00186069006042
0.00186939243914
0.00187584639847
0.0018762056684
0.00186323787366
0.00182700356185
0.00175653270841
0.00164224095505
0.00147884590339
0.00128145517461
0.0012718720406
0.000931148384816
0.00105609147484
0.00126868319709
0.00142852090675
0.00153610684445
0.0016034936073
0.00164307882491
0.00166527033406
0.00167778623851
0.0016856554503
0.00169122780125
0.00169417155605
0.00169123665139
0.00167613284089
0.00163960522532
0.00157029582424
0.00145603555138
0.00128650367224
0.00106468987527
0.000924753429606
0.000503609884485
0.000950383561743
0.00129254518163
0.00152219992623
0.00167012350039
0.00176038722599
0.00181178887186
0.00183915162704
0.00185235176888
0.00185850876789
0.00186088710551
0.00185951457281
0.0018510678402
0.00182701277131
0.00177511349498
0.00167957997003
0.00152168162571
0.0012789928652
0.000926869110409
0.000491089195213
0.00057334092562
0.00107573953407
0.00144126515294
0.00166244495327
0.00177606294134
0.0018176120374
0.00182088527339
0.00180963278595
0.00179728498629
0.00178939087379
0.00178836376593
0.00179419588495
0.00180543325264
0.00181368178451
0.00180058892176
0.00174327705349
0.00161552901715
0.00138516045228
0.0010185025948
0.000535365170738
0.00108274795024
0.00116401785886
0.00136233052464
0.0014976382247
0.0015696897603
0.00159630820424
0.00159723880359
0.00158721696288
0.00157597319146
0.00156936901484
0.00156968009461
0.00157647798099
0.00158759651536
0.00159621356074
0.00159038104512
0.00155403946813
0.00147153919037
0.00133034229491
0.00113217143031
0.00103578281917
0.00145403026248
0.00136732224515
0.00152302327447
0.00163926856213
0.00170143592101
0.00172195398678
0.00171606802185
0.00169913732749
0.00168175702856
0.00167135979064
0.00167097227692
0.00168054527248
0.00169775997647
0.00171343396491
0.00171720930182
0.00169198002852
0.00162158965376
0.0014989291756
0.00134216093958
0.00140632798093
0.00167593478774
0.0015058391681
0.00164403950787
0.0017523302315
0.00180767614714
0.00181711480522
0.0017989312079
0.00177119668802
0.0017430339689
0.00172707587136
0.00172722815848
0.00174437379882
0.00177533247176
0.00180187882914
0.00181780127707
0.00180475644881
0.00174469892467
0.00163098503135
0.00148956696872
0.00163369811994
0.00178529987159
0.00157998685586
0.00171176870025
0.00181530418001
0.0018611693609
0.0018570085911
0.00182659370152
0.00179215575643
0.00174412611261
0.0017191396582
0.00172104206755
0.00175268845346
0.00181183014728
0.00184488821227
0.00187119683339
0.00187115228893
0.00182154426668
0.00171377879963
0.00157642788365
0.00175365804458
0.00182015947575
0.00160695351707
0.00173620987396
0.00183375415653
0.00186758077214
0.00185007775166
0.00182187176559
0.00183177972061
0.00171574406367
0.00166858513976
0.00167421149609
0.00173748012902
0.00188691593477
0.00187064894246
0.00188599991849
0.00189619769544
0.00185777988529
0.00175573944306
0.00161847699963
0.00180279553365
0.00181608550626
0.00160630184183
0.00173258622208
0.00182163128965
0.00184363090943
0.00182814251327
0.00191451303117
0.00278447543743
0.00217223805169
0.00204142949411
0.00205263768106
0.00220105809029
0.00283090040461