/*--------------------------------*- C++ -*----------------------------------*\
| =========                 |                                                 |
| \\      /  F ield         | OpenFOAM: The Open Source CFD Toolbox           |
|  \\    /   O peration     | Version:  v1606+                                |
|   \\  /    A nd           | Web:      www.OpenFOAM.com                      |
|    \\/     M anipulation  |                                                 |
\*---------------------------------------------------------------------------*/
FoamFile
{
    version     2.0;
    format      ascii;
    class       volScalarField;
    location    "4.1";
    object      p;
}
// * * * * * * * * * * * * * * * * * * * * * * * * * * * * * * * * * * * * * //

dimensions      [1 -1 -2 0 0 0 0];

internalField   nonuniform List<scalar> 
11640
(
5194.59997952
5193.79612264
5192.18871453
5189.84656892
5187.06982454
5183.92472877
5180.1130032
5175.69296628
5171.02287459
5166.35726751
5161.81801114
5157.50308692
5153.49367801
5149.87387529
5146.76697494
5144.23446386
5142.12876624
5140.48342956
5139.37998629
5138.83710864
5193.63587233
5192.86935114
5191.54186107
5190.30215103
5189.04924355
5186.79689213
5182.98014903
5177.94829458
5172.50197461
5167.07745447
5161.79412345
5156.73350069
5151.99096898
5147.77578358
5144.52235092
5142.36647924
5140.93542062
5139.72907138
5138.76076089
5138.24574834
5191.73348768
5191.27655293
5191.49115633
5192.68109031
5193.14999652
5191.33728274
5186.84119288
5180.50621937
5173.62253846
5166.80441586
5160.15677064
5153.75215332
5147.6459481
5142.25337475
5138.44953481
5136.79279912
5136.98092798
5137.56839448
5137.4640437
5137.09919734
5189.00516937
5189.7728067
5192.69594138
5196.33979988
5197.92748781
5195.90004185
5190.21222564
5182.20581031
5173.60717392
5165.14453825
5156.9048099
5148.93041664
5141.25002813
5134.43066722
5129.6841371
5128.14054955
5129.65217337
5132.76852473
5134.97479462
5135.40555086
5185.89498235
5188.52964796
5194.12854292
5199.51521331
5201.55667587
5198.82655733
5191.73416091
5182.07779007
5171.95054007
5162.07505108
5152.48556515
5143.15706846
5134.16981264
5126.12588055
5120.3614053
5118.45405014
5120.73696939
5125.84432437
5130.84935096
5132.99603047
5182.42577776
5186.79083456
5194.23711555
5200.63386434
5202.6693307
5199.05778964
5190.66792884
5179.68399396
5168.61002892
5157.96012265
5147.66934903
5137.67834743
5127.98878685
5118.83945591
5111.8779075
5109.5380908
5112.18456729
5118.60430557
5125.75096907
5129.75175762
5178.29042299
5183.60119818
5191.90948508
5198.73176917
5200.66572797
5196.50100488
5187.37472491
5175.48142334
5164.11389608
5153.25689755
5142.65889297
5132.33566896
5121.77030664
5112.46737142
5105.65562654
5102.89349968
5105.54821141
5112.60111063
5120.9152916
5126.15575117
5173.55027919
5179.09349196
5187.63481462
5194.62716677
5196.64770062
5192.51492791
5183.43480806
5171.03686379
5160.31872076
5150.41279678
5140.94317025
5131.5023404
5121.87285422
5110.37129349
5102.02810957
5098.6790432
5101.15545124
5108.30960944
5116.9228983
5122.53415366
5168.57580983
5174.15800936
5182.79125911
5189.92934565
5192.1419598
5188.23495754
5179.40104303
5167.22303322
5156.91353652
5147.1888545
5137.7395876
5128.16913712
5118.35829492
5107.14751703
5098.83053285
5095.29016362
5097.60641163
5104.65116076
5113.19492436
5118.77158259
5163.59915015
5169.21879213
5177.94034872
5185.22614861
5187.65140445
5184.00425801
5175.4760655
5163.74057554
5153.66717539
5144.02202919
5134.63971742
5125.02679522
5114.92884135
5103.43822059
5095.1970386
5091.55401704
5093.75856046
5100.71475274
5109.19706431
5114.74082267
5158.74261369
5164.39501244
5173.19938838
5180.629991
5183.27626102
5179.92274203
5171.74675206
5160.51307975
5150.44983695
5140.79872438
5131.34657407
5121.67038385
5111.44247336
5100.27397345
5091.46943003
5087.61588454
5089.70046599
5096.5764434
5105.00473026
5110.51980153
5153.92202391
5159.19839788
5167.71553119
5175.06834374
5177.9319068
5175.13814894
5167.85417177
5158.58865206
5148.75215673
5138.75199452
5128.50506081
5117.96244841
5107.10839617
5096.21796527
5087.6063142
5083.83326512
5085.93392868
5092.73440516
5100.99251531
5106.29789037
5149.05576712
5153.08343337
5160.40604687
5167.13489605
5170.06500517
5167.90627745
5161.33435735
5152.2621403
5142.59614243
5132.84011032
5123.09180621
5112.9974068
5102.5907018
5092.49308414
5084.85440416
5081.7338702
5084.04805248
5090.53445157
5098.01757509
5102.40999483
5144.50911379
5146.66607179
5151.80341665
5157.20717209
5159.86581125
5158.32532209
5152.81626158
5144.88804757
5136.18844666
5127.31504225
5118.31146901
5109.11347131
5099.76023569
5090.92450139
5084.58200538
5082.46537573
5084.89774567
5090.47291167
5096.20155223
5098.89278061
5140.80445354
5141.22141501
5143.50598518
5146.85012818
5148.68999645
5147.47782287
5143.05550325
5136.52722011
5129.26251271
5121.80947035
5114.21314692
5106.50762121
5098.75769042
5091.6296886
5086.77010138
5085.38752532
5087.44581399
5091.42835756
5094.58772578
5095.4263469
5137.83556532
5137.4450369
5137.37396102
5138.10330747
5138.54828242
5137.23745796
5133.7382368
5128.68850388
5123.04582123
5117.21858594
5111.26605766
5105.25458692
5099.26274454
5093.84102884
5090.21783068
5089.12134011
5090.18542773
5091.8467894
5092.36755685
5092.02669356
5135.44832664
5134.91065995
5133.95676953
5132.82576847
5131.54932727
5129.65437345
5126.67806336
5122.80474359
5118.51585922
5114.05013834
5109.48166311
5104.88595234
5100.35976435
5096.29968385
5093.37963228
5091.93468678
5091.3859438
5090.70273288
5089.72481601
5089.09188462
5133.65030766
5133.10326835
5132.02476729
5130.44757522
5128.46237032
5126.06058407
5123.15465806
5119.83441627
5116.24678663
5112.48376428
5108.63824666
5104.79170548
5101.04104587
5097.63447185
5094.72945461
5092.44537103
5090.41789647
5088.66166915
5087.43643548
5086.79481161
5132.4578718
5131.90883878
5130.82222583
5129.21985415
5127.13613043
5124.61739108
5121.71743318
5118.50355124
5115.04566032
5111.40052556
5107.6958995
5103.99892433
5100.40917228
5097.06085302
5093.92454508
5091.16350014
5088.85850425
5087.07576183
5085.86024728
5085.19896173
5131.87108875
5131.32717517
5130.24182436
5128.63555687
5126.54129774
5124.00555638
5121.08249748
5117.84139913
5114.3503897
5110.68389636
5106.94869934
5103.22211353
5099.59832008
5096.18435377
5093.07021835
5090.29553335
5088.00540802
5086.23621298
5085.03742903
5084.38132206
4868.92599992
4868.10627109
4866.47126479
4864.1518288
4861.54551069
4858.54027351
4854.62846205
4849.95108131
4844.99467554
4840.04150076
4835.2187193
4830.63105726
4826.3437577
4822.5560305
4819.62350703
4817.53349765
4815.72975112
4814.10874016
4812.98846213
4812.43674763
4867.9339132
4867.14636064
4866.04010818
4865.50974065
4865.20583599
4863.49144191
4859.30552621
4853.25885227
4846.64591255
4840.05363696
4833.60742606
4827.42160195
4821.49388851
4816.38645597
4813.22978657
4812.45684327
4812.96941802
4813.03967832
4812.37814366
4811.85083907
4865.98853667
4865.79915196
4867.42498507
4871.32002874
4874.34831117
4873.42963382
4867.78473689
4859.0258028
4849.41670252
4839.86742158
4830.49504202
4821.37855943
4812.55208618
4804.83877386
4800.30088399
4800.36843406
4804.22339162
4808.73260282
4810.72408641
4810.7085057
4863.28997063
4865.43455772
4872.39645182
4881.30817144
4886.65779769
4885.3813452
4877.38094269
4865.25923799
4852.11093592
4839.0896503
4826.29227889
4813.77072517
4801.53697998
4790.6783147
4783.92630153
4783.76180074
4789.94343816
4799.4053492
4806.67322943
4808.93842561
4860.52687324
4866.61059319
4879.18871854
4891.80225301
4898.2245638
4895.69571719
4885.01881934
4869.69583715
4853.40506499
4837.34333437
4821.55532253
4806.05747049
4790.76406853
4777.24900335
4768.05123665
4766.72568224
4773.98903643
4787.06320995
4799.84578396
4805.97893863
4857.79198844
4867.72836444
4884.35681784
4899.22097893
4905.75117136
4901.51122194
4888.31630847
4870.54761098
4852.32522602
4834.522135
4817.03873831
4799.93907024
4783.39847966
4767.39319341
4755.59713969
4752.69120156
4760.08223881
4775.31093271
4791.99463617
4801.88485931
4854.23853062
4866.5155369
4885.22985539
4901.14360122
4907.47889129
4901.92319775
4887.02833465
4867.62086304
4848.64211368
4830.11874735
4811.75785482
4793.72475176
4776.06635151
4760.1096504
4747.79846012
4743.77251006
4750.87475869
4766.98783204
4785.59174118
4797.72974727
4849.641788
4862.59199025
4881.90876872
4898.18679316
4904.57507939
4898.80095182
4883.7557201
4863.57968569
4845.48566981
4828.17129587
4811.66069091
4795.01460422
4777.68595956
4758.28674866
4744.18324386
4739.24122399
4745.99558216
4762.19750072
4781.21993392
4793.94535367
4844.59588596
4857.59376201
4877.01432888
4893.45005742
4900.03791631
4894.48212728
4879.67798386
4859.58958174
4842.03366688
4824.97308859
4808.13810679
4791.24997862
4774.21162341
4755.04631079
4740.90593377
4735.83519778
4742.4277658
4758.51206873
4777.45761693
4790.14444537
4839.55348541
4852.59433146
4872.11072951
4888.69829363
4895.4940362
4890.19776859
4875.69326537
4856.08125082
4838.82885965
4821.8596183
4805.24127212
4788.25392409
4770.98753067
4751.48408112
4737.28954439
4732.0837664
4738.55136963
4754.53657451
4773.41505703
4786.06727722
4834.63806547
4847.71356762
4867.31456408
4884.04494027
4891.05301097
4886.03933862
4871.82722104
4852.48700187
4835.05419514
4818.03744796
4801.37483381
4784.86494728
4767.66092778
4748.03299857
4733.46486048
4728.10786387
4734.4485375
4750.34618885
4769.16869642
4781.79251193
4829.63167835
4842.0993516
4861.25941569
4877.89770087
4885.28841878
4881.21179064
4868.3185387
4852.03723505
4834.92458939
4817.74867102
4800.24716708
4782.30091546
4763.95648551
4745.28978349
4730.62586134
4725.41944548
4731.77342917
4747.40205349
4765.70716897
4777.71750513
4824.1747295
4834.33548138
4851.51894199
4867.26818885
4875.0429862
4872.40659905
4861.09442369
4845.35240309
4828.65414608
4812.06451783
4795.19766629
4777.93724381
4760.12670388
4742.96683879
4730.59452525
4726.86442878
4733.53276746
4748.24412579
4764.6081983
4774.39793136
4818.74044136
4825.04588037
4838.22054719
4851.77657421
4859.48467204
4858.53191375
4849.61233393
4836.12198881
4821.35299246
4806.41396341
4791.3029246
4775.96411893
4760.45309774
4745.75669873
4735.74308379
4733.7028214
4740.3581111
4753.00324372
4765.52179484
4771.5990942
4814.46306204
4816.79000931
4824.30318818
4834.14053003
4840.72135594
4840.9137533
4834.50845103
4823.96735496
4812.18425005
4800.20281329
4788.06928357
4775.81437261
4763.50094332
4752.20728947
4744.93525747
4744.24173794
4749.97300118
4759.1041071
4766.22423277
4768.4644693
4811.41022138
4811.39514131
4813.49330484
4818.23686543
4822.40216621
4822.8184973
4818.61075528
4811.26339522
4802.90325493
4794.35512124
4785.67779274
4776.93300677
4768.19890018
4760.33425185
4755.49938154
4755.27508913
4758.85421703
4763.18435528
4765.12620232
4765.05926695
4809.01634128
4808.48571419
4807.85874682
4808.040819
4808.74552799
4808.25333129
4805.37899227
4800.62530298
4795.17887931
4789.55023474
4783.81529967
4778.0454383
4772.33815625
4767.21173552
4763.9282127
4763.01954982
4763.41430068
4763.45080277
4762.72505363
4762.09657174
4807.21640572
4806.67418432
4805.59189759
4804.04761032
4802.37253975
4800.4408134
4797.71263429
4794.23280292
4790.37317515
4786.32966555
4782.20383018
4778.07258082
4774.02439628
4770.26772622
4767.31892018
4765.18702795
4763.34076946
4761.62572091
4760.40106625
4759.77116126
4806.02463166
4805.47867715
4804.3861097
4802.76847999
4800.66330888
4798.1147576
4795.17858363
4791.92521671
4788.43105272
4784.71385715
4780.96823689
4777.21831812
4773.56682005
4770.07437631
4766.92838504
4764.14610016
4761.82117511
4760.02314699
4758.79860195
4758.16309604
4805.44040367
4804.89760779
4803.80384404
4802.18058699
4800.06278843
4797.49533261
4794.53401936
4791.24916526
4787.71178335
4783.99000604
4780.20506258
4776.42388861
4772.73754912
4769.25292187
4766.05956716
4763.2961084
4760.98225838
4759.19076929
4757.97154735
4757.33940728
4544.03937379
4543.19299364
4541.50765984
4539.15773657
4536.54534895
4533.48369033
4529.43827844
4524.58452314
4519.43882828
4514.29723277
4509.28954962
4504.52052341
4500.06962303
4496.14622506
4493.15135875
4491.08315524
4489.35475483
4487.74294523
4486.59182831
4486.02543781
4543.00147605
4542.18814127
4541.13951034
4540.77794526
4540.62499605
4538.91675757
4534.54854003
4528.20706211
4521.26838008
4514.34947387
4507.57742459
4501.04615903
4494.84424813
4489.47302068
4486.1506264
4485.43600184
4486.1757054
4486.52456674
4485.98460426
4485.4424757
4540.97449763
4540.88541655
4542.87754663
4547.20390873
4550.43443248
4549.44615647
4543.50673471
4534.31885954
4524.24557709
4514.23050678
4504.39404783
4494.81539816
4485.56151156
4477.45193699
4472.6274993
4472.63937688
4476.71755365
4481.71199231
4484.16058126
4484.29998883
4538.22809346
4540.78685343
4548.43339562
4557.83264518
4563.33052746
4561.88597183
4553.47735833
4540.81019726
4527.08972825
4513.4997904
4500.15038674
4487.08451217
4474.31752078
4462.96146493
4455.80799377
4455.43350686
4461.73761404
4471.69379011
4479.70239301
4482.44281759
4535.51690881
4542.33379933
4555.74074089
4568.81945158
4575.28952393
4572.4434948
4561.22542941
4545.24173659
4528.32015385
4511.65899935
4495.3062748
4479.28137661
4463.42927943
4449.38529525
4439.70668195
4438.00286559
4445.23975279
4458.7424892
4472.35756005
4479.2614881
4532.84941212
4543.75790184
4561.23898923
4576.51297444
4582.93471972
4578.1264405
4564.17002911
4545.61537743
4526.87710647
4508.66398102
4490.84379968
4473.65617974
4456.66011257
4440.08234025
4427.45293262
4423.82668253
4430.98794631
4446.55302603
4464.06789483
4474.9373659
4529.2621058
4542.64535655
4562.22030889
4578.48852862
4584.54490668
4578.0293751
4561.98636966
4541.22816565
4521.9752097
4503.19997066
4484.63307128
4466.49265388
4449.04371913
4433.1649218
4419.75560399
4414.83031116
4421.59564329
4437.98852059
4457.41382484
4470.63405831
4524.54395016
4538.6438545
4558.83389138
4575.4656431
4581.53672374
4574.65973599
4558.29304081
4534.27818916
4517.64128172
4501.41765598
4486.34344743
4470.68774152
4454.66150523
4431.90027863
4416.5287864
4410.32821282
4416.64800943
4433.10017708
4452.93476545
4466.76449223
4519.34763323
4533.50211734
4553.80514517
4570.60294965
4576.87755224
4570.22438323
4554.08284529
4530.08619064
4514.1061159
4498.11033028
4482.49990502
4466.67683465
4450.99270787
4428.61199581
4413.2923971
4406.87048148
4413.00775294
4429.33953386
4449.09601417
4462.88658259
4514.16641916
4528.36919087
4548.77372648
4565.72672275
4572.20854716
4565.82685211
4549.96535783
4526.79747819
4511.12685592
4495.28288341
4479.63232028
4463.68973293
4447.74635769
4425.04013704
4409.59186432
4403.03732735
4409.03987416
4425.27099378
4444.96028078
4458.71665261
4509.12920259
4523.37021725
4543.86438176
4560.96246532
4567.66403337
4561.54580015
4545.90982047
4522.42159431
4506.21254066
4490.39821303
4475.49141166
4459.98288828
4444.51156106
4421.44354531
4405.75604214
4398.9649966
4404.83367002
4420.97384572
4440.60727054
4454.33619413
4503.9957768
4517.60548296
4537.66704761
4554.70325093
4561.85241438
4556.96418237
4543.09551445
4526.98687163
4509.92074336
4492.75823783
4475.2229377
4457.28391369
4438.49400772
4418.35932153
4402.58678906
4396.15412965
4402.08493564
4417.97285308
4437.09371926
4450.17685084
4498.35173961
4509.54534285
4527.62931059
4543.80389853
4551.45693661
4548.23282644
4536.08161494
4519.83647265
4502.92165207
4485.99129778
4468.85688298
4451.38247995
4433.26883422
4415.03316576
4401.81794548
4397.39010328
4403.85139569
4418.9093593
4436.10551008
4446.85006769
4492.65269155
4499.77101913
4513.83180557
4527.88354122
4535.64133363
4534.37808662
4524.97122482
4511.05989445
4495.83309832
4480.34851362
4464.68972441
4448.79410812
4432.87421152
4417.32821691
4406.70045377
4404.26548091
4410.90869416
4423.98058923
4437.32905973
4444.13638806
4488.12605022
4490.95852163
4499.25404699
4509.63351141
4516.39204124
4516.43563629
4509.65826266
4498.65502696
4486.36410302
4473.84483115
4461.15984219
4448.34426518
4435.45761246
4423.66037946
4415.99300037
4415.08966407
4420.94994028
4430.5816305
4438.4127946
4441.0622113
4484.96899149
4485.12519404
4487.71058403
4492.97243
4497.39404122
4497.78071858
4493.31736465
4485.59237954
4476.81573402
4467.83694562
4458.71889845
4449.52234594
4440.3248078
4432.05335823
4426.94993657
4426.63793094
4430.43944962
4435.23307975
4437.57546528
4437.61607171
4482.5607354
4482.02728341
4481.53968123
4482.02138235
4482.97286466
4482.54316114
4479.53453735
4474.5305826
4468.79735197
4462.87388253
4456.83743492
4450.76254579
4444.75044824
4439.35383781
4435.90572122
4435.02360909
4435.60170583
4435.84379968
4435.20467717
4434.55926066
4480.75544829
4480.20852052
4479.10867595
4477.58502998
4475.99627266
4474.11052335
4471.3224353
4467.71510612
4463.7029376
4459.50074258
4455.21480306
4450.92135373
4446.71452293
4442.82407819
4439.7526024
4437.59388086
4435.77286196
4434.05747604
4432.80786556
4432.16103838
4479.56442426
4479.01280435
4477.90096074
4476.24740586
4474.09228747
4471.48058063
4468.46955994
4465.13044628
4461.53392668
4457.74176868
4453.89061539
4450.04395001
4446.31519182
4442.72984168
4439.47975469
4436.6255165
4434.2447996
4432.4043963
4431.1502371
4430.50471317
4478.98380081
4478.43552213
4477.32117148
4475.66099672
4473.49195685
4470.8595999
4467.82048643
4464.44736697
4460.80966351
4456.99566862
4453.10716081
4449.22013697
4445.41311585
4441.8644108
4438.60605835
4435.75677138
4433.37969764
4431.54182882
4430.29177975
4429.65493438
4219.96971771
4219.08793444
4217.33064195
4214.8854015
4212.15517711
4208.94243824
4204.7150276
4199.66032554
4194.30630094
4188.95659626
4183.74382417
4178.77714938
4174.15147257
4170.07557021
4166.96688956
4164.81413003
4163.03969435
4161.37864154
4160.18163437
4159.59450311
4218.87042436
4218.03200484
4216.93720714
4216.52533784
4216.2984529
4214.46434529
4209.91014007
4203.34240911
4196.16169896
4188.99975152
4181.98636492
4175.22286809
4168.81480508
4163.26018638
4159.7769774
4158.99421783
4159.72171859
4160.10016537
4159.56721693
4159.00940415
4216.72483799
4216.64151603
4218.66810876
4223.01953438
4226.19935814
4225.08160801
4218.94051762
4209.49856119
4199.15075104
4188.85755086
4178.74404074
4168.90013795
4159.41845463
4151.11159868
4146.1166426
4146.01776678
4150.07277653
4155.13508653
4157.68101169
4157.86162198
4213.82735295
4216.47454316
4224.24073536
4233.6878844
4239.14181806
4237.5642325
4228.93588524
4215.98288601
4201.95451779
4188.0533104
4174.3847028
4161.02410102
4148.05800062
4136.50344857
4129.1818844
4128.66079844
4134.91062658
4144.92723824
4153.09453823
4155.96015991
4210.96165898
4217.94949997
4231.51906791
4244.65753447
4251.08195485
4248.0890385
4236.61071782
4220.25664229
4202.94957893
4185.91126967
4169.15448504
4152.81516046
4136.99080074
4122.69399922
4112.99312563
4111.12542434
4118.26708272
4131.80488761
4145.59126581
4152.6924903
4208.12055882
4219.26489756
4236.92561361
4252.26202858
4258.62031338
4253.63410837
4239.40868964
4220.55133408
4201.3608765
4182.53691452
4164.08833393
4146.35270598
4129.07575408
4113.7226411
4100.7972646
4096.89715065
4103.90574747
4119.47535449
4137.1557593
4148.27204607
4204.32293983
4217.98180882
4237.74760393
4254.07645232
4260.0279549
4253.20829316
4236.42376619
4212.82151357
4192.65415637
4173.08805843
4153.96720882
4135.58905362
4117.77887317
4106.40601218
4092.78328874
4087.77031216
4094.40747342
4110.79899862
4130.38710299
4143.87706331
4199.37019504
4213.76298536
4234.1597753
4250.88400418
4256.92752194
4250.3517132
4234.61875706
4103.90911409
4089.26710802
4083.17851085
4089.37445288
4105.81690691
4125.8098836
4139.91244193
4193.93866392
4208.3915094
4228.90892366
4245.81352956
4252.09173614
4245.82598169
4230.262072
4100.38312861
4085.8353452
4079.60419653
4085.62270314
4101.9438038
4121.8575471
4135.92006447
4188.54122694
4203.04540857
4223.67035946
4240.73605089
4247.23498039
4241.24501395
4225.9350568
4096.61985965
4081.99101568
4075.63801299
4081.51926075
4097.73765806
4117.58388837
4131.61211207
4183.31536918
4197.85966773
4218.57790994
4235.79031457
4242.50103007
4236.71136251
4221.576194
4092.76984614
4078.08528406
4071.44895848
4077.16569463
4093.28435753
4113.07337653
4127.07408726
4178.01966816
4191.92783209
4212.21630792
4229.36127409
4236.50706287
4231.63540567
4217.57883772
4205.2958701
4188.24525934
4170.97072533
4153.10639804
4134.63834534
4115.45292246
4092.06866591
4075.57748403
4068.61387924
4074.27694747
4090.12935652
4109.40531707
4122.75058137
4172.22577368
4183.68878861
4201.98561219
4218.26916769
4225.89942579
4222.58824802
4210.4058022
4194.69819552
4177.79937368
4160.62457476
4143.09112962
4124.99796287
4106.6072098
4087.74781111
4074.27181366
4069.5692832
4075.86672106
4090.93262219
4108.29711462
4119.27236513
4166.38317244
4173.71420889
4187.98439422
4202.14246503
4209.89656088
4208.55422051
4199.04620419
4185.19313414
4169.87734457
4154.20415708
4138.25893019
4122.03493702
4105.85869321
4089.87563779
4078.93088671
4076.27317054
4082.81638441
4095.93083565
4109.45520908
4116.42809538
4161.73739071
4164.70194191
4173.18045315
4183.66518833
4190.43234272
4190.40032247
4183.48559179
4172.33886198
4159.85715278
4147.11402145
4134.17046984
4121.06976728
4107.72318175
4095.87067172
4088.03728402
4086.9933624
4092.81128462
4102.51855137
4110.51501865
4113.20388311
4158.5128068
4158.71143997
4161.4082413
4166.76477095
4171.20117236
4171.52199753
4166.92635674
4159.03577351
4150.06723992
4140.88251651
4131.54770249
4122.12106566
4112.68042747
4104.20044293
4098.93876313
4098.54108448
4102.32685858
4107.19329219
4109.60284953
4109.64103159
4156.08324786
4155.53517238
4155.06418501
4155.59117996
4156.55050537
4156.06577522
4152.94102993
4147.78281844
4141.87621569
4135.77097259
4129.5432469
4123.28172565
4117.07767857
4111.51525834
4107.93184025
4106.97835587
4107.53863648
4107.78048248
4107.12229003
4106.4470062
4154.27010022
4153.70725352
4152.57224279
4151.01118339
4149.3898682
4147.44420749
4144.5535669
4140.8142264
4136.65427476
4132.29362702
4127.85457154
4123.40606213
4119.0457056
4115.02170988
4111.82122063
4109.56720915
4107.67980593
4105.91116676
4104.61593617
4103.93775516
4153.08052036
4152.51316085
4151.36576601
4149.65309951
4147.41811743
4144.70797563
4141.58241853
4138.11370946
4134.36963955
4130.44644102
4126.44826384
4122.45804484
4118.57939132
4114.87919533
4111.50686598
4108.54855426
4106.08290391
4104.17703923
4102.87566422
4102.20383426
4152.50479251
4151.94288342
4150.79369477
4149.07451359
4146.82479925
4144.09202633
4140.93524949
4137.42901343
4133.63954944
4129.6834055
4125.64279206
4121.60553649
4117.66568718
4113.97619024
4110.59863138
4107.63610192
4105.16777636
4103.26166491
4101.96761446
4101.31251542
3896.7538286
3895.82566015
3893.97284144
3891.38909742
3888.48155686
3885.05957242
3880.59863288
3875.29343267
3869.67945827
3864.06788168
3858.59728303
3853.38507533
3848.53703947
3844.25983386
3840.9695477
3838.6673579
3836.7673141
3835.01050352
3833.75093064
3833.13528536
3895.5740782
3894.70154347
3893.5177862
3892.96787232
3892.56523659
3890.52842561
3885.74958246
3878.9375235
3871.50136911
3864.08000122
3856.81239636
3849.81039704
3843.18328524
3837.43506789
3833.77068305
3832.82891367
3833.4297685
3833.71460205
3833.12495237
3832.54524134
3893.27014466
3893.15942587
3895.10151581
3899.32064602
3902.33985335
3901.0401711
3894.69140706
3885.01624302
3874.41916313
3863.87084156
3853.50762401
3843.43072792
3833.74558755
3825.26998995
3820.1027792
3819.84440384
3823.76764402
3828.73393712
3831.22590894
3831.38874963
3890.14789096
3892.76806173
3900.45444833
3909.7861692
3915.10671646
3913.37389684
3904.55188624
3891.37074296
3877.09418115
3862.9374746
3849.02538824
3835.44170406
3822.28681959
3810.6227165
3803.15006853
3802.47355479
3808.5869903
3818.50164764
3826.61464944
3829.46469034
3887.00325758
3893.96474834
3907.4662902
3920.51359914
3926.83527689
3923.71084583
3912.02714948
3895.40572742
3877.81579905
3860.49597139
3843.52080087
3826.97643853
3811.0179187
3796.70532813
3786.91299597
3784.91302698
3791.91580394
3805.34295998
3819.07071591
3826.15664691
3883.84582585
3894.96748925
3912.57591564
3927.84545763
3934.12655757
3929.03584053
3914.59284718
3895.45235614
3875.95581627
3856.80600747
3838.12937243
3820.12603482
3802.65994764
3787.75685815
3774.68019684
3770.64564507
3777.50761448
3792.95756968
3810.57391689
3821.67377785
3879.71135906
3893.35289679
3913.07914099
3929.35650589
3935.23092169
3928.28774976
3911.11444381
3886.93773835
3866.297642
3846.43211635
3827.25137562
3809.06272665
3791.0671515
3780.35041215
3766.35241731
3761.40644152
3767.92420066
3784.19683744
3803.71836576
3817.19011216
3874.41949679
3888.80183329
3909.17182526
3925.86658836
3931.86327272
3925.29385956
3908.7385909
3779.198506
3762.99863059
3756.78973767
3762.80026186
3779.10662201
3799.02579505
3813.10697776
3868.66222791
3883.10919548
3903.60699707
3920.49114303
3926.72595278
3920.44360128
3904.06499328
3775.85472555
3759.48636049
3753.09389431
3758.90618337
3775.08559183
3794.9233557
3808.96298221
3862.9674061
3877.4683026
3898.07980265
3915.13248162
3921.59474811
3915.58952372
3899.48025534
3771.92674964
3755.49969898
3748.94829241
3754.61875304
3770.69520098
3790.46563978
3804.47078826
3857.48305767
3872.0257557
3892.73622765
3909.94305139
3916.62567491
3910.86741242
3894.9252927
3767.57885023
3751.36809683
3744.53619538
3750.05129528
3766.02858162
3785.74284189
3799.72090192
3851.97475579
3865.88184685
3886.16747058
3903.31937397
3910.49343251
3905.77290505
3891.53544044
3880.39618214
3863.19319596
3845.9061392
3827.84630539
3809.09352104
3789.72435095
3765.74224606
3748.77540772
3741.49308789
3746.93019332
3762.6376911
3781.84127491
3795.16467259
3846.01232595
3857.46972468
3875.7555997
3892.02556775
3899.64800981
3896.34743654
3884.04418641
3868.59183276
3851.65812464
3834.34889002
3816.53781057
3798.42349605
3779.88609762
3760.69742271
3747.001646
3742.10683886
3748.23389567
3763.18165086
3780.4862968
3791.4423419
3840.04691666
3847.36578917
3861.61025226
3875.73653868
3883.46205048
3882.10273655
3872.55048146
3858.76609145
3843.38477542
3827.63827967
3811.47391343
3795.10621327
3778.86578903
3762.55368545
3751.36105758
3748.5154809
3754.91187501
3767.92783201
3781.40210794
3788.35537401
3835.31795332
3838.2652161
3846.70604808
3857.13813603
3863.84604157
3863.74902068
3856.74867618
3845.52715011
3832.93114121
3820.06045351
3806.96549458
3793.63379617
3779.94675451
3768.08312471
3760.13194351
3758.94546211
3764.6535204
3774.27951789
3782.22866029
3784.9077409
3832.04331166
3832.22125244
3834.87159569
3840.15933243
3844.51245519
3844.73723367
3840.02844695
3832.0162509
3822.90638825
3813.57002626
3804.07654238
3794.47401588
3784.83342955
3776.18373485
3770.79008692
3770.27567654
3773.95811925
3778.75185162
3781.11187197
3781.11988499
3829.58856375
3829.01743285
3828.49647878
3828.94591537
3829.80644505
3829.20463601
3825.94515198
3820.63831973
3814.56808157
3808.29551673
3801.88344364
3795.44850732
3789.06627498
3783.34073344
3779.61573111
3778.53933961
3778.9987693
3779.16363882
3778.4478605
3777.7351467
3827.76755384
3827.18033348
3825.99400826
3824.3518808
3822.62315718
3820.54848972
3817.50910818
3813.60431673
3809.25905799
3804.72281472
3800.09650204
3795.46532034
3790.92283792
3786.73453085
3783.38362047
3780.99925532
3779.00363261
3777.14993034
3775.79138931
3775.07261385
3826.58101353
3825.99029073
3824.79201144
3822.99717694
3820.65156775
3817.80665421
3814.52501337
3810.88099007
3806.93671816
3802.82960165
3798.63741391
3794.46129022
3790.3813405
3786.51246626
3782.98155529
3779.88347075
3777.30159083
3775.30541323
3773.93929923
3773.2297404
3826.01195237
3825.42850942
3824.22959277
3822.42856057
3820.067201
3817.19687245
3813.87997973
3810.19367153
3806.19607535
3802.04689779
3797.8019896
3793.55379703
3789.43810671
3785.56300971
3782.01976388
3778.90907619
3776.31850416
3774.31981996
3772.96456837
3772.27968757
3574.44391296
3573.45669535
3571.48198388
3568.72091606
3565.58554897
3561.89477631
3557.13434634
3551.50906814
3545.56154913
3539.61248564
3533.81022697
3528.28157894
3523.14141493
3518.59765495
3515.0646105
3512.57156291
3510.50790756
3508.62721429
3507.28672921
3506.63404552
3573.16100167
3572.24159714
3570.94413664
3570.21874433
3569.5914653
3567.29451183
3562.22732362
3555.10469397
3547.34193852
3539.58838038
3531.99516756
3524.68504771
3517.77135737
3511.76678005
3507.86917546
3506.71208631
3507.14747407
3507.31148496
3506.64815156
3506.03775262
3570.65452162
3570.50471026
3572.33964064
3576.39166774
3579.20527132
3577.66916265
3571.05320261
3561.08538653
3550.17440171
3539.30391131
3528.62551843
3518.25041501
3508.29702884
3499.58830773
3494.18698459
3493.71671551
3497.46911708
3502.31262123
3504.73485442
3504.87241422
3567.24284939
3569.82605663
3577.41283603
3586.59827919
3591.7438481
3589.80669998
3580.73849836
3567.28651105
3552.70872487
3538.24019947
3524.02929811
3510.16670782
3496.7668466
3484.91922626
3477.21820114
3476.33015486
3482.26565243
3492.05161538
3500.09562952
3502.9230074
3563.7380365
3570.66458268
3584.08142927
3597.01020095
3603.19035292
3599.88676023
3587.95411446
3571.07096301
3553.17545903
3535.54367558
3518.29444783
3501.49289766
3485.31394496
3470.94164563
3460.94406831
3458.74480321
3465.56216637
3478.85030012
3492.50497327
3499.56917564
3560.16996152
3571.26250378
3588.80458888
3603.9816382
3610.14506821
3604.88893925
3590.14939371
3570.82133387
3551.02707231
3531.56065949
3512.60635909
3494.35497038
3476.72813835
3461.96849215
3448.65785782
3444.43635972
3451.10103979
3466.40006085
3483.93649399
3495.01315135
3555.59729818
3569.21679438
3588.89035189
3605.08906334
3610.84548099
3603.73886153
3586.11363307
3561.63124169
3540.59935694
3520.4342063
3501.04287533
3482.77214616
3464.49721025
3454.56574029
3440.12955312
3435.11080908
3441.42911097
3457.54238253
3476.9774707
3490.42297016
3549.86407905
3564.23095221
3584.55721572
3601.18262639
3607.0511429