/*--------------------------------*- C++ -*----------------------------------*\
| =========                 |                                                 |
| \\      /  F ield         | OpenFOAM: The Open Source CFD Toolbox           |
|  \\    /   O peration     | Version:  v1606+                                |
|   \\  /    A nd           | Web:      www.OpenFOAM.com                      |
|    \\/     M anipulation  |                                                 |
\*---------------------------------------------------------------------------*/
FoamFile
{
    version     2.0;
    format      ascii;
    class       volScalarField;
    location    "0.96";
    object      p;
}
// * * * * * * * * * * * * * * * * * * * * * * * * * * * * * * * * * * * * * //

dimensions      [1 -1 -2 0 0 0 0];

internalField   nonuniform List<scalar> 
6000
(
107030
107034
107042
107051
107060
107066
107068
107068
107070
107077
107086
107095
107105
107114
107122
107129
107134
107137
107139
107140
107141
107142
107147
107154
107164
107168
107169
107165
107160
107158
106918
106927
106938
106951
106966
106980
106990
106999
107007
107016
107027
107038
107048
107059
107068
107076
107081
107083
107084
107085
107085
107085
107085
107086
107086
107083
107075
107064
107053
107043
106821
106831
106844
106867
106894
106921
106943
106958
106968
106979
106991
107003
107015
107026
107037
107045
107050
107052
107052
107052
107051
107049
107048
107048
107041
107027
107006
106977
106956
106941
106751
106752
106754
106761
106779
106811
106849
106881
106903
106919
106934
106948
106962
106976
106989
106999
107006
107008
107007
107003
107000
106995
106989
106976
106955
106926
106895
106876
106869
106867
106718
106716
106713
106709
106707
106714
106737
106776
106813
106839
106858
106875
106893
106909
106925
106937
106945
106948
106945
106939
106934
106925
106909
106881
106850
106831
106826
106827
106828
106830
106697
106695
106691
106684
106679
106675
106675
106684
106707
106734
106753
106772
106793
106814
106836
106855
106867
106871
106865
106855
106849
106838
106812
106787
106780
106784
106793
106800
106804
106806
106679
106678
106673
106666
106661
106656
106651
106649
106648
106654
106662
106672
106684
106700
106719
106742
106761
106767
106757
106748
106747
106745
106738
106740
106747
106758
106770
106779
106784
106785
106662
106661
106656
106649
106643
106639
106635
106631
106628
106627
106630
106635
106642
106651
106663
106678
106691
106698
106697
106695
106695
106698
106705
106714
106724
106736
106749
106760
106765
106767
106643
106642
106638
106632
106626
106622
106618
106616
106614
106615
106617
106622
106629
106636
106646
106657
106669
106677
106680
106679
106680
106682
106687
106695
106704
106715
106727
106738
106744
106747
106617
106617
106618
106615
106610
106605
106602
106600
106600
106601
106605
106610
106617
106624
106633
106644
106656
106667
106671
106671
106671
106673
106675
106679
106685
106694
106705
106714
106720
106722
106583
106583
106589
106596
106594
106589
106585
106584
106584
106586
106591
106597
106603
106609
106616
106625
106637
106650
106660
106662
106662
106663
106664
106666
106669
106675
106683
106688
106692
106693
106536
106537
106546
106564
106573
106571
106567
106565
106566
106568
106572
106579
106583
106586
106591
106599
106612
106627
106643
106651
106652
106652
106653
106654
106655
106659
106661
106660
106661
106661
106474
106476
106488
106512
106537
106545
106542
106541
106540
106542
106545
106550
106551
106551
106555
106563
106579
106600
106621
106636
106641
106642
106642
106642
106643
106646
106640
106628
106625
106624
106398
106400
106416
106442
106479
106503
106507
106506
106504
106503
106503
106502
106500
106500
106505
106516
106538
106566
106594
106617
106628
106631
106632
106631
106632
106633
106612
106588
106579
106577
106314
106320
106337
106362
106399
106437
106453
106455
106450
106446
106440
106431
106428
106432
106441
106457
106484
106519
106558
106592
106612
106619
106619
106619
106620
106614
106571
106536
106518
106514
106237
106245
106264
106285
106312
106346
106374
106382
106377
106368
106354
106341
106340
106347
106361
106382
106412
106451
106498
106547
106582
106597
106601
106602
106600
106575
106511
106467
106441
106432
106166
106176
106197
106212
106223
106241
106266
106282
106282
106271
106255
106242
106242
106251
106267
106290
106320
106358
106404
106453
106502
106541
106560
106566
106550
106489
106420
106373
106344
106332
106090
106104
106121
106129
106124
106126
106139
106157
106166
106161
106149
106139
106138
106147
106162
106184
106211
106245
106282
106324
106366
106412
106448
106461
106419
106353
106295
106253
106227
106214
106005
106019
106027
106026
106009
105998
106003
106017
106032
106041
106039
106033
106030
106037
106050
106066
106090
106116
106144
106175
106207
106237
106263
106266
106232
106187
106145
106112
106091
106080
105912
105919
105914
105904
105883
105866
105863
105874
105891
105908
105919
105919
105917
105921
105930
105941
105959
105977
105996
106017
106037
106053
106063
106059
106037
106008
105979
105955
105938
105930
105807
105804
105791
105776
105761
105743
105732
105735
105749
105768
105785
105794
105795
105798
105804
105811
105824
105833
105842
105853
105862
105866
105866
105858
105842
105821
105801
105783
105771
105765
105680
105671
105661
105652
105647
105630
105615
105606
105609
105625
105644
105659
105664
105667
105670
105677
105683
105683
105683
105683
105682
105677
105671
105660
105646
105629
105614
105601
105592
105588
105533
105525
105524
105527
105533
105518
105501
105484
105470
105482
105501
105517
105526
105529
105531
105540
105538
105529
105518
105508
105498
105487
105475
105462
105447
105432
105419
105409
105403
105401
105367
105363
105373
105391
105405
105403
105381
105359
105335
105341
105359
105375
105384
105388
105391
105400
105389
105368
105347
105329
105311
105295
105279
105262
105245
105230
105218
105210
105207
105206
105183
105178
105200
105230
105259
105273
105251
105227
105211
105208
105221
105236
105244
105247
105250
105254
105230
105199
105170
105145
105122
105102
105082
105062
105043
105025
105011
105006
105005
105008
104987
104976
105007
105051
105096
105128
105119
105098
105092
105083
105091
105101
105106
105107
105110
105097
105062
105022
104988
104958
104932
104909
104887
104866
104844
104824
104807
104803
104802
104811
104795
104799
104818
104866
104929
104981
104997
104984
104977
104965
104966
104969
104968
104966
104964
104933
104886
104841
104801
104768
104740
104718
104698
104680
104663
104646
104632
104623
104621
104627
104642
104654
104662
104694
104762
104833
104880
104882
104868
104852
104844
104838
104830
104822
104805
104759
104705
104655
104611
104575
104547
104528
104517
104512
104508
104504
104500
104486
104478
104473
104531
104536
104541
104556
104607
104683
104750
104774
104759
104737
104721
104707
104691
104672
104636
104581
104522
104465
104416
104376
104347
104332
104333
104345
104362
104376
104382
104375
104359
104348
104436
104434
104438
104443
104471
104531
104597
104645
104644
104618
104593
104573
104549
104516
104466
104403
104338
104274
104217
104168
104133
104117
104127
104155
104191
104225
104249
104262
104248
104241
104333
104334
104337
104341
104352
104387
104441
104487
104513
104496
104465
104439
104404
104358
104298
104229
104156
104083
104013
103951
103904
103885
103901
103943
103997
104050
104097
104131
104142
104138
104224
104229
104236
104245
104242
104254
104288
104326
104356
104360
104333
104301
104257
104202
104135
104060
103979
103896
103813
103737
103684
103675
103690
103732
103798
103869
103934
103990
104028
104032
104108
104117
104128
104140
104131
104122
104139
104168
104192
104205
104189
104156
104110
104050
103979
103900
103813
103720
103626
103546
103504
103521
103538
103559
103615
103694
103774
103842
103895
103916
103982
103990
103997
103999
103997
103988
103994
104010
104030
104042
104037
104010
103965
103905
103834
103752
103662
103564
103468
103397
103369
103393
103423
103439
103473
103541
103622
103696
103752
103785
103847
103848
103844
103834
103833
103837
103843
103856
103874
103887
103887
103866
103825
103769
103700
103620
103532
103440
103356
103306
103296
103302
103320
103345
103373
103420
103492
103563
103617
103648
103700
103693
103683
103668
103659
103663
103678
103698
103722
103740
103746
103731
103696
103645
103580
103506
103429
103352
103291
103269
103268
103266
103268
103278
103301
103334
103388
103450
103500
103527
103531
103527
103523
103512
103500
103498
103513
103541
103573
103603
103618
103611
103582
103536
103476
103413
103352
103294
103262
103257
103259
103256
103252
103251
103257
103275
103312
103362
103405
103429
103375
103382
103387
103386
103381
103380
103395
103415
103441
103486
103512
103510
103485
103442
103390
103341
103292
103265
103253
103253
103254
103251
103247
103244
103242
103246
103261
103297
103333
103354
103327
103329
103331
103333
103334
103337
103342
103350
103367
103403
103432
103433
103407
103367
103325
103287
103263
103252
103251
103251
103249
103247
103244
103242
103239
103238
103241
103256
103282
103299
103318
103318
103318
103319
103320
103323
103325
103330
103338
103354
103376
103375
103347
103311
103282
103258
103251
103250
103249
103247
103246
103244
103241
103240
103238
103236
103236
103240
103253
103264
103318
103317
103317
103318
103319
103320
103322
103323
103325
103331
103340
103332
103301
103271
103258
103250
103248
103247
103246
103244
103242
103240
103239
103237
103236
103235
103235
103235
103243
103247
103317
103317
103317
103317
103318
103318
103319
103319
103319
103319
103318
103304
103274
103255
103248
103246
103245
103244
103242
103241
103239
103237
103236
103235
103234
103233
103233
103233
103238
103240
103316
103316
103316
103316
103316
103317
103317
103316
103317
103312
103306
103289
103263
103249
103244
103243
103242
103241
103239
103238
103236
103234
103233
103232
103231
103231
103231
103231
103234
103234
103315
103315
103315
103315
103315
103315
103315
103315
103316
103310
103302
103285
103260
103246
103240
103240
103239
103237
103236
103235
103233
103231
103230
103230
103229
103229
103229
103228
103231
103229
103314
103314
103314
103314
103314
103314
103314
103314
103315
103311
103302
103286
103262
103245
103237
103237
103236
103234
103233
103232
103230
103229
103228
103227
103226
103226
103226
103226
103227
103231
103313
103313
103313
103313
103313
103313
103313
103313
103313
103313
103304
103290
103269
103244
103234
103234
103233
103231
103230
103229
103227
103226
103225
103224
103224
103224
103223
103223
103223
103229
103312
103312
103312
103312
103312
103312
103312
103312
103312
103317
103308
103295
103275
103245
103232
103231
103230
103228
103227
103226
103225
103224
103223
103222
103222
103221
103221
103221
103220
103224
103311
103311
103311
103311
103311
103311
103311
103311
103311
103315
103312
103301
103280
103250
103232
103227
103227
103225
103223
103222
103222
103222
103220
103220
103219
103219
103219
103219
103218
103221
103310
103310
103310
103310
103310
103310
103310
103310
103310
103312
103316
103306
103287
103259
103233
103223
103223
103221
103220
103219
103218
103219
103218
103217
103217
103217
103216
103216
103216
103218
103309
103309
103309
103309
103309
103309
103309
103310
103310
103311
103318
103311
103295
103269
103238
103221
103220
103218
103216
103215
103214
103215
103215
103215
103215
103214
103214
103214
103214
103216
103308
103308
103308
103308
103308
103308
103308
103309
103309
103310
103313
103314
103302
103278
103247
103224
103217
103214
103212
103210
103209
103209
103211
103212
103212
103212
103211
103211
103211
103212
103307
103307
103307
103307
103307
103307
103307
103307
103308
103309
103310
103318
103310
103288
103258
103228
103214
103210
103207
103206
103204
103203
103205
103206
103207
103207
103207
103206
103206
103205
103305
103305
103305
103305
103305
103306
103306
103306
103307
103308
103309
103318
103318
103298
103268
103233
103214
103206
103203
103201
103199
103197
103197
103198
103199
103199
103200
103200
103199
103196
103304
103304
103304
103304
103304
103304
103305
103305
103306
103306
103308
103313
103325
103311
103283
103247
103219
103203
103198
103195
103193
103191
103189
103188
103189
103190
103191
103191
103190
103188
103303
103303
103303
103303
103303
103303
103303
103304
103304
103305
103306
103309
103319
103322
103302
103272
103222
103200
103193
103190
103188
103186
103183
103181
103181
103181
103181
103182
103181
103180
103302
103302
103302
103302
103302
103302
103302
103302
103303
103303
103304
103305
103308
103311
103299
103266
103217
103195
103188
103185
103183
103181
103179
103177
103176
103175
103174
103174
103173
103173
103301
103301
103301
103301
103301
103301
103301
103301
103301
103302
103301
103300
103298
103293
103280
103248
103212
103191
103183
103180
103178
103177
103176
103174
103173
103171
103170
103169
103169
103169
103299
103299
103299
103299
103299
103299
103300
103300
103300
103300
103299
103296
103290
103279
103262
103238
103209
103187
103178
103176
103174
103173
103172
103171
103170
103169
103168
103167
103167
103167
103298
103298
103298
103298
103298
103298
103298
103299
103299
103298
103296
103292
103283
103270
103253
103232
103206
103183
103174
103172
103171
103170
103169
103169
103168
103167
103166
103166
103166
103166
103297
103297
103297
103297
103297
103297
103297
103297
103297
103297
103294
103287
103276
103262
103246
103227
103204
103180
103171
103169
103168
103167
103167
103167
103166
103165
103165
103165
103165
103165
103296
103296
103296
103296
103296
103296
103296
103296
103296
103295
103291
103283
103271
103256
103240
103222
103202
103178
103168
103166
103165
103165
103165
103165
103164
103164
103164
103164
103164
103164
103295
103295
103295
103295
103295
103295
103295
103295
103295
103294
103289
103279
103265
103250
103235
103219
103199
103176
103166
103163
103163
103163
103163
103163
103163
103162
103162
103162
103163
103163
103294
103294
103294
103294
103294
103294
103294
103294
103294
103292
103286
103274
103260
103246
103231
103215
103196
103175
103164
103161
103161
103161
103161
103161
103161
103161
103161
103161
103162
103162
103293
103293
103293
103293
103293
103293
103293
103293
103293
103290
103283
103270
103256
103241
103227
103211
103193
103173
103163
103160
103159
103160
103160
103160
103160
103160
103160
103160
103160
103161
103292
103292
103292
103292
103292
103292
103292
103292
103292
103289
103279
103266
103252
103237
103222
103207
103190
103172
103161
103158
103158
103158
103158
103158
103159
103159
103159
103159
103159
103160
103291
103291
103291
103291
103291
103291
103291
103291
103291
103287
103276
103263
103248
103233
103218
103203
103186
103169
103160
103156
103156
103157
103157
103157
103157
103158
103158
103158
103158
103159
103290
103290
103290
103290
103290
103290
103290
103290
103290
103285
103273
103259
103244
103230
103215
103199
103183
103167
103158
103155
103155
103155
103155
103156
103156
103157
103157
103157
103158
103158
103290
103290
103290
103290
103289
103289
103289
103290
103289
103284
103271
103257
103241
103226
103211
103195
103180
103165
103157
103153
103154
103154
103154
103154
103155
103156
103156
103157
103157
103157
103289
103289
103289
103289
103289
103289
103289
103289
103289
103283
103270
103256
103240
103223
103207
103192
103176
103162
103154
103152
103152
103152
103153
103153
103154
103154
103155
103156
103156
103156
103288
103288
103288
103288
103288
103288
103288
103288
103288
103283
103271
103256
103239
103222
103205
103188
103172
103158
103152
103151
103151
103151
103151
103152
103152
103153
103154
103154
103155
103155
103287
103287
103287
103287
103287
103287
103287
103287
103287
103284
103273
103258
103240
103221
103203
103184
103168
103154
103149
103150
103150
103150
103150
103150
103151
103152
103152
103153
103153
103153
103287
103287
103287
103287
103287
103287
103287
103287
103286
103284
103276
103262
103243
103223
103202
103182
103163
103151
103148
103149
103149
103149
103149
103149
103149
103150
103150
103151
103151
103151
103286
103286
103286
103286
103286
103286
103286
103286
103285
103283
103277
103266
103248
103225
103202
103180
103159
103149
103147
103148
103148
103148
103148
103148
103148
103148
103149
103149
103149
103149
103285
103285
103285
103285
103285
103285
103286
103285
103284
103281
103275
103266
103251
103227
103203
103178
103156
103148
103147
103147
103147
103147
103147
103147
103147
103147
103147
103147
103148
103148
103284
103284
103285
103285
103285
103285
103285
103284
103282
103278
103271
103262
103249
103228
103202
103176
103154
103147
103146
103146
103146
103146
103146
103146
103146
103146
103146
103146
103146
103146
103283
103284
103284
103284
103284
103284
103284
103283
103281
103274
103266
103257
103244
103225
103199
103173
103153
103147
103145
103145
103145
103145
103145
103145
103145
103144
103144
103144
103145
103145
103283
103283
103283
103283
103283
103283
103283
103282
103280
103271
103261
103250
103238
103220
103197
103172
103152
103146
103144
103144
103144
103144
103144
103144
103143
103143
103143
103143
103143
103143
103281
103282
103282
103282
103282
103282
103282
103281
103279
103269
103257
103245
103231
103214
103195
103172
103152
103145
103143
103143
103143
103143
103143
103143
103142
103142
103142
103142
103142
103142
103280
103280
103281
103281
103281
103281
103281
103280
103277
103267
103253
103239
103225
103209
103193
103172
103152
103144
103142
103142
103142
103142
103142
103142
103141
103141
103141
103141
103141
103141
103279
103279
103279
103279
103279
103279
103279
103278
103274
103263
103248
103233
103219
103205
103189
103170
103150
103142
103141
103141
103141
103141
103141
103141
103140
103140
103140
103140
103140
103140
103278
103278
103278
103278
103278
103278
103278
103276
103271
103258
103243
103228
103214
103200
103185
103167
103148
103141
103140
103140
103140
103140
103140
103140
103139
103139
103139
103139
103139
103138
103277
103277
103277
103276
103276
103276
103276
103274
103267
103254
103238
103223
103209
103196
103181
103164
103147
103140
103139
103139
103139
103139
103139
103138
103138
103138
103138
103138
103137
103137
103276
103275
103275
103275
103274
103274
103274
103271
103262
103248
103233
103218
103204
103191
103176
103160
103145
103139
103137
103137
103137
103137
103137
103137
103137
103137
103137
103136
103136
103136
103274
103274
103273
103272
103272
103272
103271
103267
103257
103243
103228
103213
103199
103185
103171
103156
103142
103137
103136
103136
103136
103136
103136
103136
103136
103136
103135
103135
103135
103135
103272
103271
103270
103270
103269
103268
103267
103262
103251
103238
103223
103209
103194
103179
103165
103151
103139
103134
103134
103134
103134
103134
103135
103135
103134
103134
103134
103134
103134
103134
103268
103268
103267
103266
103265
103264
103263
103257
103245
103232
103219
103204
103190
103175
103160
103145
103135
103132
103132
103132
103132
103133
103133
103133
103133
103133
103133
103132
103132
103132
103263
103263
103262
103261
103260
103259
103258
103250
103237
103224
103212
103199
103184
103170
103155
103140
103132
103129
103130
103130
103130
103131
103131
103131
103131
103131
103131
103131
103131
103131
103256
103256
103255
103254
103253
103252
103251
103240
103226
103215
103203
103191
103177
103163
103149
103136
103129
103127
103127
103128
103128
103129
103129
103129
103129
103129
103129
103129
103129
103129
103247
103246
103245
103244
103243
103243
103242
103230
103216
103205
103194
103182
103169
103155
103143
103133
103127
103124
103124
103125
103126
103126
103127
103127
103127
103127
103127
103127
103127
103127
103235
103234
103233
103232
103231
103230
103228
103219
103206
103195
103183
103171
103159
103147
103137
103129
103123
103121
103121
103122
103122
103123
103124
103124
103125
103125
103125
103125
103125
103125
103221
103221
103220
103219
103218
103216
103212
103207
103195
103184
103172
103160
103149
103138
103129
103122
103116
103116
103116
103117
103118
103119
103120
103121
103122
103123
103123
103123
103124
103123
103208
103208
103207
103206
103205
103203
103199
103196
103185
103173
103161
103149
103137
103126
103117
103111
103108
103109
103111
103112
103113
103115
103116
103117
103119
103120
103121
103121
103122
103122
103196
103195
103195
103194
103193
103191
103188
103185
103177
103165
103152
103139
103127
103115
103105
103099
103100
103102
103103
103105
103106
103108
103110
103112
103114
103116
103117
103118
103119
103119
103184
103184
103184
103183
103182
103180
103178
103175
103170
103157
103144
103130
103117
103104
103093
103091
103092
103094
103095
103097
103098
103100
103102
103105
103107
103110
103112
103114
103115
103115
103174
103174
103173
103173
103172
103171
103169
103166
103162
103152
103136
103121
103106
103091
103083
103083
103085
103086
103087
103088
103088
103090
103092
103094
103097
103100
103103
103106
103108
103109
103164
103164
103164
103165
103164
103162
103161
103158
103155
103145
103127
103112
103095
103081
103076
103076
103077
103077
103078
103078
103078
103079
103080
103082
103084
103087
103091
103094
103097
103098
103155
103155
103156
103156
103155
103153
103152
103150
103147
103134
103116
103101
103085
103074
103070
103069
103069
103069
103069
103068
103068
103068
103068
103069
103070
103072
103075
103078
103081
103083
103145
103146
103146
103145
103144
103143
103141
103139
103134
103119
103103
103088
103075
103066
103062
103062
103061
103060
103059
103059
103058
103057
103057
103057
103057
103058
103059
103061
103063
103064
103134
103135
103134
103133
103131
103129
103126
103123
103117
103102
103087
103075
103065
103057
103054
103054
103052
103051
103050
103049
103048
103047
103046
103045
103045
103045
103045
103045
103046
103046
103121
103121
103119
103117
103114
103111
103107
103104
103096
103082
103069
103060
103054
103048
103046
103045
103044
103042
103041
103039
103038
103037
103035
103035
103034
103033
103032
103031
103031
103031
103103
103102
103099
103096
103092
103089
103085
103080
103073
103061
103051
103045
103041
103038
103037
103036
103034
103033
103031
103030
103028
103027
103025
103024
103023
103022
103020
103019
103018
103018
103079
103077
103073
103068
103065
103061
103058
103053
103047
103037
103030
103027
103027
103027
103026
103026
103024
103023
103021
103019
103018
103016
103015
103014
103013
103011
103009
103008
103007
103007
103047
103044
103039
103034
103031
103028
103026
103022
103017
103010
103007
103008
103010
103012
103014
103015
103014
103012
103010
103009
103007
103006
103005
103004
103002
103001
102999
102998
102997
102997
103006
103002
102997
102993
102990
102989
102989
102986
102982
102979
102979
102984
102989
102995
103000
103002
103002
103001
102999
102998
102997
102996
102995
102994
102992
102991
102989
102988
102987
102986
102957
102954
102950
102947
102945
102945
102945
102945
102944
102943
102947
102954
102964
102973
102982
102987
102989
102989
102987
102987
102986
102985
102985
102984
102982
102981
102979
102978
102977
102976
102905
102903
102900
102898
102897
102897
102898
102900
102902
102905
102912
102921
102934
102947
102959
102969
102974
102976
102975
102975
102975
102974
102974
102973
102972
102970
102969
102968
102967
102967
102851
102850
102848
102847
102847
102848
102850
102854
102859
102866
102875
102888
102902
102917
102931
102946
102956
102960
102962
102962
102963
102963
102963
102963
102962
102960
102959
102958
102958
102957
102797
102796
102796
102795
102796
102799
102803
102809
102817
102826
102838
102851
102866
102882
102898
102916
102932
102941
102946
102949
102950
102951
102952
102952
102952
102950
102949
102948
102948
102947
102743
102743
102743
102744
102746
102750
102756
102764
102774
102784
102797
102811
102826
102841
102858
102878
102899
102915
102925
102932
102936
102938
102940
102940
102940
102939
102938
102937
102937
102937
102689
102690
102691
102693
102697
102702
102709
102718
102728
102739
102751
102764
102778
102793
102811
102832
102857
102880
102897
102908
102915
102920
102923
102925
102925
102925
102925
102925
102924
102924
102635
102635
102637
102641
102645
102651
102658
102667
102676
102687
102698
102710
102724
102739
102757
102779
102805
102832
102856
102874
102886
102894
102899
102902
102904
102906
102907
102908
102908
102907
102577
102577
102580
102584
102589
102595
102602
102611
102620
102630
102641
102653
102666
102681
102699
102720
102745
102773
102801
102824
102840
102852
102859
102865
102870
102875
102880
102882
102884
102885
102514
102515
102518
102523
102529
102536
102543
102552
102561
102571
102581
102593
102605
102620
102636
102656
102680
102707
102734
102757
102775
102788
102797
102805
102814
102825
102835
102841
102845
102848
102443
102447
102453
102459
102466
102474
102483
102491
102500
102509
102519
102530
102542
102555
102571
102590
102612
102635
102658
102677
102693
102705
102715
102726
102738
102752
102766
102777
102783
102789
102364
102373
102384
102394
102404
102413
102421
102429
102436
102445
102454
102465
102476
102489
102504
102521
102541
102559
102575
102590
102603
102614
102625
102637
102651
102667
102682
102694
102699
102706
102303
102307
102319
102332
102343
102352
102359
102365
102371
102379
102388
102398
102409
102421
102435
102451
102466
102478
102490
102500
102510
102520
102530
102543
102559
102576
102593
102606
102610
102613
102260
102260
102265
102276
102285
102292
102296
102298
102303
102310
102320
102330
102340
102352
102365
102378
102387
102395
102402
102409
102415
102422
102431
102444
102460
102480
102501
102517
102524
102521
102223
102224
102224
102227
102231
102230
102229
102224
102229
102240
102251
102262
102272
102283
102294
102302
102307
102310
102313
102316
102318
102322
102328
102338
102354
102376
102401
102425
102437
102432
102189
102189
102187
102182
102177
102167
102155
102151
102157
102169
102183
102194
102205
102214
102221
102225
102226
102225
102224
102222
102219
102218
102220
102226
102240
102261
102290
102319
102342
102343
102151
102149
102143
102132
102119
102103
102092
102093
102097
102103
102116
102128
102138
102145
102149
102149
102146
102140
102134
102126
102118
102112
102109
102109
102116
102135
102167
102202
102230
102243
102097
102093
102085
102074
102058
102046
102044
102046
102047
102048
102054
102065
102074
102079
102079
102075
102067
102056
102044
102030
102017
102005
101996
101988
101984
101996
102034
102078
102111
102128
102026
102024
102019
102011
102003
102000
102001
102002
102003
102003
102003
102008
102014
102016
102012
102003
101990
101973
101954
101934
101915
101898
101882
101866
101851
101855
101896
101953
101996
102019
101956
101956
101955
101954
101955
101958
101961
101963
101963
101963
101962
101960
101961
101957
101949
101935
101916
101892
101865
101837
101814
101795
101777
101762
101754
101756
101784
101839
101894
101924
101899
101899
101901
101905
101911
101917
101921
101923
101925
101925
101923
101918
101912
101905
101891
101872
101845
101812
101778
101749
101729
101718
101712
101710
101712
101715
101725
101760
101812
101849
101850
101851
101854
101859
101866
101872
101877
101881
101883
101883
101881
101874
101864
101852
101836
101812
101779
101740
101710
101695
101689
101687
101687
101689
101692
101695
101699
101716
101754
101782
101802
101804
101807
101812
101817
101823
101828
101832
101835
101834
101830
101823
101812
101798
101781
101756
101723
101693
101678
101673
101672
101673
101674
101676
101678
101680
101682
101689
101712
101725
101753
101756
101758
101762
101767
101772
101778
101781
101780
101776
101769
101763
101754
101742
101727
101709
101684
101668
101663
101661
101661
101662
101663
101664
101665
101666
101666
101668
101676
101682
101703
101706
101708
101711
101716
101720
101722
101720
101715
101709
101704
101699
101693
101686
101678
101669
101658
101652
101650
101649
101649
101650
101651
101652
101652
101651
101649
101645
101643
101644
101653
101655
101657
101660
101662
101661
101657
101651
101646
101641
101638
101635
101633
101631
101630
101632
101633
101633
101634
101635
101636
101637
101638
101637
101635
101632
101626
101615
101603
101597
101601
101602
101603
101602
101598
101592
101586
101581
101576
101574
101573
101573
101574
101577
101582
101592
101603
101610
101614
101617
101618
101618
101618
101616
101612
101605
101593
101575
101554
101542
101545
101544
101540
101534
101527
101520
101514
101510
101508
101507
101508
101510
101514
101521
101530
101545
101563
101577
101586
101590
101592
101591
101589
101586
101580
101568
101551
101530
101512
101504
101479
101474
101467
101460
101453
101447
101443
101441
101441
101442
101444
101448
101455
101463
101475
101491
101512
101531
101545
101552
101554
101552
101548
101543
101536
101524
101507
101489
101477
101472
101401
101396
101390
101384
101379
101376
101375
101376
101377
101379
101382
101387
101394
101404
101416
101432
101452
101472
101488
101498
101501
101499
101494
101488
101483
101474
101463
101451
101443
101437
101319
101316
101312
101308
101306
101307
101309
101311
101313
101316
101319
101325
101332
101342
101354
101369
101385
101403
101419
101429
101434
101434
101430
101426
101423
101420
101417
101411
101406
101400
101236
101235
101233
101234
101236
101239
101243
101246
101248
101251
101255
101260
101267
101277
101289
101302
101316
101330
101343
101354
101360
101362
101362
101361
101360
101361
101364
101366
101364
101360
101155
101155
101156
101160
101164
101169
101173
101177
101180
101183
101187
101193
101201
101210
101221
101233
101245
101257
101268
101277
101283
101288
101291
101293
101294
101296
101302
101310
101315
101315
101073
101074
101078
101084
101090
101095
101099
101103
101107
101111
101117
101124
101133
101142
101152
101163
101173
101183
101192
101200
101206
101212
101216
101221
101224
101226
101231
101242
101252
101257
100989
100992
100997
101004
101011
101017
101023
101027
101032
101038
101046
101055
101064
101073
101083
101092
101100
101109
101116
101123
101129
101134
101138
101143
101147
101150
101154
101163
101175
101183
100902
100904
100911
100922
100931
100939
100945
100951
100958
100966
100976
100986
100995
101004
101012
101020
101027
101034
101040
101046
101051
101055
101058