/*--------------------------------*- C++ -*----------------------------------*\
| =========                 |                                                 |
| \\      /  F ield         | OpenFOAM: The Open Source CFD Toolbox           |
|  \\    /   O peration     | Version:  v1606+                                |
|   \\  /    A nd           | Web:      www.OpenFOAM.com                      |
|    \\/     M anipulation  |                                                 |
\*---------------------------------------------------------------------------*/
FoamFile
{
    version     2.0;
    format      ascii;
    class       surfaceScalarField;
    location    "0.96";
    object      phi.particles;
}
// * * * * * * * * * * * * * * * * * * * * * * * * * * * * * * * * * * * * * //

dimensions      [0 3 -1 0 0 0 0];

internalField   nonuniform List<scalar> 
11770
(
-2.48941e-06
-7.24573e-06
-1.74765e-06
-8.22695e-06
-1.09423e-06
-8.05742e-06
-1.4724e-06
-8.12761e-06
-2.46361e-06
-8.59526e-06
-3.47405e-06
-9.70435e-06
-4.38295e-06
-1.02341e-05
-5.3797e-06
-1.13554e-05
-5.4878e-06
-1.22611e-05
-4.60822e-06
-1.50509e-05
-3.37578e-06
-1.70464e-05
-2.20969e-06
-1.8152e-05
-1.18276e-06
-1.92923e-05
-2.0966e-07
-1.99626e-05
6.99326e-07
-2.04328e-05
1.52287e-06
-2.108e-05
2.24087e-06
-2.15547e-05
2.69952e-06
-2.19401e-05
3.164e-06
-2.20487e-05
3.82184e-06
-2.05547e-05
4.32727e-06
-1.95541e-05
4.34724e-06
-1.674e-05
4.05853e-06
-1.34067e-05
4.07003e-06
-1.10737e-05
4.15926e-06
-1.02383e-05
4.00927e-06
-9.60588e-06
3.77718e-06
-8.33715e-06
4.27967e-06
-7.9738e-06
4.3922e-06
-7.99569e-06
-7.2235e-06
5.98659e-07
-6.77837e-07
1.31186e-06
-1.8668e-06
2.71385e-06
-3.26195e-08
3.4265e-06
5.11601e-06
2.254e-06
9.86839e-06
-1.12831e-06
1.34703e-05
-5.4175e-06
1.54628e-05
-8.38251e-06
1.35397e-05
-7.86313e-06
7.25633e-06
-5.30644e-06
4.20547e-06
-3.10407e-06
3.72661e-06
-1.31592e-06
4.07383e-06
8.59476e-08
4.33966e-06
1.06426e-06
4.63792e-06
1.83386e-06
4.54566e-06
2.22351e-06
4.56222e-06
2.29012e-06
4.64657e-06
2.51864e-06
4.22013e-06
3.0566e-06
3.97015e-06
3.97126e-06
3.97869e-06
5.8936e-06
3.42269e-06
7.57398e-06
4.17997e-06
6.81729e-06
8.4127e-06
4.28165e-06
1.31781e-05
1.20536e-06
1.3769e-05
-6.18773e-07
1.13742e-05
-2.8332e-07
7.47987e-06
1.09072e-06
2.5486e-06
1.56574e-06
3.17296e-07
1.54827e-06
1.76865e-06
-1.76525e-05
2.57874e-06
-1.8579e-05
2.94705e-06
-1.62338e-05
2.48366e-06
-1.09229e-05
4.66454e-07
-2.58164e-06
-4.23188e-06
6.34139e-06
-8.71692e-06
1.15404e-05
-9.09121e-06
1.10759e-05
-6.27262e-06
4.17913e-06
-3.08605e-06
4.43982e-07
-3.81373e-07
-6.75558e-07
1.69251e-06
2.03603e-07
2.82387e-06
2.18914e-06
3.31654e-06
3.81164e-06
3.40648e-06
4.57995e-06
2.90395e-06
5.57104e-06
1.95235e-06
6.50518e-06
1.06149e-06
6.01932e-06
9.09335e-07
4.64533e-06
2.04046e-06
2.09502e-06
4.37117e-06
4.92874e-07
7.47214e-06
1.31805e-06
9.14612e-06
5.97821e-06
7.63186e-06
9.80829e-06
3.79349e-06
9.014e-06
6.64881e-07
2.59335e-06
-3.99833e-07
-6.52417e-06
-6.08642e-07
-1.33102e-05
-7.05276e-07
-1.65043e-05
-1.43724e-05
2.97182e-06
-2.5183e-05
4.6221e-06
-2.57269e-05
5.67259e-06
-2.42875e-05
4.60387e-06
-2.07121e-05
1.19843e-06
-1.37949e-05
-3.7487e-06
-4.84931e-06
-7.71327e-06
4.02636e-06
-7.53442e-06
7.23473e-06
-4.29362e-06
3.60325e-06
-6.21764e-07
7.48611e-07
2.20883e-06
6.28255e-07
3.59915e-06
3.12285e-06
4.20331e-06
5.47449e-06
4.56568e-06
5.98107e-06
4.45301e-06
6.18614e-06
3.71837e-06
7.15039e-06
2.50276e-06
8.78946e-06
8.85182e-07
9.95642e-06
-5.08471e-07
9.37504e-06
-2.39593e-07
5.84092e-06
2.35233e-06
2.09518e-06
6.4685e-06
1.6657e-06
8.69277e-06
5.4613e-06
6.79236e-06
7.51652e-06
2.37998e-06
2.24916e-06
-2.103e-06
-7.02882e-06
-4.82901e-06
-1.65135e-05
-5.10664e-06
-2.21088e-05
-3.94267e-06
-2.45475e-05
-2.4009e-05
2.59297e-06
-2.49032e-05
4.78569e-06
-2.55879e-05
6.73593e-06
-2.51085e-05
7.37749e-06
-2.35541e-05
5.92825e-06
-2.01182e-05
2.25426e-06
-1.57447e-05
-1.95527e-06
-8.71462e-06
-3.96344e-06
-4.5209e-06
-2.86638e-06
-5.01785e-06
-7.1688e-08
-6.39104e-06
2.24716e-06
-5.6805e-06
3.54166e-06
-2.68044e-06
4.36592e-06
-8.50114e-07
4.6703e-06
-7.23948e-07
4.45597e-06
-4.0894e-07
3.72332e-06
1.17741e-06
2.56338e-06
4.22231e-06
7.53474e-07
8.08065e-06
-9.76641e-07
9.31397e-06
-6.20546e-07
4.83789e-06
1.98632e-06
-1.53529e-06
4.92877e-06
-2.75335e-06
5.40996e-06
-5.64231e-07
1.46479e-06
-8.9743e-07
-4.55074e-06
-8.13571e-06
-8.25033e-06
-1.56172e-05
-8.59088e-06
-2.18553e-05
-6.61797e-06
-2.4583e-05
-4.00928e-06
-2.6053e-05
-2.54997e-05
2.25203e-06
-2.09674e-05
3.29762e-06
-2.19414e-05
4.1839e-06
-2.21624e-05
4.92777e-06
-2.15385e-05
6.49367e-06
-1.9401e-05
7.32361e-06
-1.74274e-05
6.14359e-06
-1.57175e-05
4.03926e-06
-1.52232e-05
1.76194e-06
-1.62047e-05
1.1655e-06
-1.75711e-05
1.11049e-06
-1.7505e-05
4.59134e-07
-1.59736e-05
2.84355e-07
-1.55958e-05
8.24181e-07
-1.60365e-05
2.03e-06
-1.62106e-05
3.48643e-06
-1.48969e-05
4.26083e-06
-1.14484e-05
3.58772e-06
-5.29643e-06
2.48965e-06
-1.35459e-06
1.83886e-06
-4.57658e-06
1.19913e-06
-9.7251e-06
-3.61013e-07
-9.39061e-06
-3.58715e-06
-7.82449e-06
-7.68782e-06
-8.66362e-06
-1.01067e-05
-1.27219e-05
-1.01296e-05
-1.72314e-05
-8.92132e-06
-2.13266e-05
-6.43745e-06
-2.30561e-05
-3.70099e-06
-2.42115e-05
-2.35534e-05
1.22555e-06
-1.61058e-05
1.69149e-06
-1.74116e-05
1.88521e-06
-1.84427e-05
2.32392e-06
-1.85231e-05
4.48596e-06
-1.66551e-05
6.70076e-06
-1.46139e-05
7.14963e-06
-1.55362e-05
6.21849e-06
-1.84906e-05
4.25119e-06
-2.31849e-05
2.25529e-06
-2.65986e-05
3.63575e-07
-2.73217e-05
-8.22964e-07
-2.7197e-05
-9.88896e-07
-2.78289e-05
-3.68834e-07
-2.89728e-05
1.2204e-06
-3.00734e-05
3.68196e-06
-3.02026e-05
6.50756e-06
-2.88406e-05
8.70281e-06
-2.42217e-05
9.26093e-06
-1.95768e-05
7.13308e-06
-2.03129e-05
1.84929e-06
-2.14086e-05
-5.17189e-06
-1.82753e-05
-1.01369e-05
-1.36923e-05
-1.14759e-05
-1.1145e-05
-1.04799e-05
-1.17733e-05
-9.21174e-06
-1.59078e-05
-8.04725e-06
-1.91182e-05
-5.72852e-06
-2.05703e-05
-3.25987e-06
-2.13919e-05
-2.07089e-05
8.91671e-07
-1.04389e-05
-2.31933e-07
-1.13113e-05
-1.246e-06
-1.35508e-05
-1.0488e-06
-1.45626e-05
1.12354e-06
-1.31231e-05
3.63174e-06
-1.11742e-05
3.5242e-06
-1.25541e-05
2.76187e-06
-1.62945e-05
3.21564e-06
-2.1711e-05
2.67903e-06
-2.53715e-05
1.9894e-06
-2.61481e-05
3.28274e-06
-2.63976e-05
4.51093e-06
-2.76755e-05
4.39041e-06
-2.91159e-05
4.62376e-06
-3.07388e-05
5.64647e-06
-3.24816e-05
6.98959e-06
-3.40465e-05
8.86169e-06
-3.32196e-05
1.04162e-05
-2.94603e-05
9.77048e-06
-2.71658e-05
5.21945e-06
-2.47488e-05
-2.12489e-06
-2.09155e-05
-7.87785e-06
-1.55269e-05
-9.43111e-06
-1.07281e-05
-7.96615e-06
-9.77653e-06
-6.99889e-06
-1.37113e-05
-6.34417e-06
-1.63017e-05
-4.8706e-06
-1.7295e-05
-3.27701e-06
-1.77923e-05
-1.746e-05
7.93297e-07
-5.27624e-06
-1.82256e-06
-4.87611e-06
-4.39638e-06
-6.17862e-06
-4.47755e-06
-9.29909e-06
-2.24101e-06
-8.93835e-06
1.1922e-07
-6.9801e-06
4.30052e-07
-7.57807e-06
8.23784e-07
-1.08138e-05
3.28152e-06
-1.55081e-05
5.1603e-06
-1.8046e-05
6.31805e-06
-1.96447e-05
9.0869e-06
-2.06165e-05
1.19907e-05
-2.27025e-05
1.31288e-05
-2.39919e-05
1.3216e-05
-2.51876e-05
1.22841e-05
-2.65171e-05
1.0264e-05
-2.87693e-05
8.53384e-06
-3.06462e-05
8.94685e-06
-2.80941e-05
9.81177e-06
-2.32448e-05
7.44169e-06
-2.01313e-05
2.93843e-06
-1.78967e-05
-1.77171e-06
-1.41725e-05
-4.46148e-06
-9.69739e-06
-4.25905e-06
-8.12137e-06
-3.88087e-06
-1.12795e-05
-3.94845e-06
-1.3562e-05
-3.76643e-06
-1.39226e-05
-2.85711e-06
-1.43362e-05
-1.44608e-05
2.92418e-06
-1.84913e-06
1.12689e-06
1.9855e-07
-4.56082e-06
1.73215e-06
-7.93633e-06
-1.07591e-06
-5.77264e-06
-2.14453e-06
-2.66347e-06
-5.80463e-07
-6.717e-07
-8.9068e-08
2.03726e-06
-4.25934e-06
4.23454e-06
-8.79061e-06
4.8004e-06
-1.07832e-05
7.01223e-06
-1.21793e-05
1.05708e-05
-1.41538e-05
1.41651e-05
-1.77399e-05
1.70027e-05
-1.97689e-05
1.80409e-05
-2.06382e-05
1.74291e-05
-2.07194e-05
1.44916e-05
-2.13417e-05
1.09023e-05
-2.35782e-05
1.0015e-05
-2.28258e-05
1.01564e-05
-1.80605e-05
8.86522e-06
-1.60288e-05
7.2126e-06
-1.5115e-05
5.30552e-06
-1.21075e-05
2.5141e-06
-7.70469e-06
4.04384e-07
-6.02232e-06
-6.92088e-07
-8.54601e-06
-1.73998e-06
-1.06215e-05
-2.53867e-06
-1.04965e-05
-2.33695e-06
-1.10502e-05
-1.18318e-05
3.37131e-06
-3.67959e-08
3.43596e-06
3.5041e-06
4.30057e-07
6.73563e-06
-7.49349e-06
7.88481e-06
-1.01078e-05
5.62444e-06
-4.61305e-06
4.70597e-06
-2.38201e-07
3.22599e-06
2.62523e-06
4.40011e-08
4.51449e-06
-3.4551e-06
5.86476e-06
-4.62006e-06
7.65913e-06
-4.76519e-06
1.05679e-05
-7.68142e-06
1.45057e-05
-1.24516e-05
1.79081e-05
-1.45304e-05
1.9069e-05
-1.52028e-05
1.86502e-05
-1.51456e-05
1.72274e-05
-1.47775e-05
1.38714e-05
-1.54825e-05
1.01334e-05
-1.60223e-05
9.07255e-06
-1.36776e-05
9.92565e-06
-1.14756e-05
1.11944e-05
-1.05737e-05
1.15959e-05
-8.66913e-06
9.48275e-06
-5.10958e-06
5.77659e-06
-3.33457e-06
2.38797e-06
-5.34338e-06
1.90046e-07
-7.64055e-06
-1.1995e-06
-7.23937e-06
-1.68592e-06
-7.86297e-06
-9.32656e-06
3.21674e-06
1.26754e-06
3.198e-06
5.60484e-06
2.27756e-06
9.82797e-06
-2.46784e-06
1.41177e-05
-9.87543e-06
1.44983e-05
-8.58934e-06
9.67323e-06
-1.26836e-06
5.44111e-06
3.04671e-06
4.63877e-06
5.57023e-06
3.3897e-06
7.63376e-06
3.55564e-06
9.63001e-06
2.90979e-06
1.14733e-05
-1.73494e-06
1.38916e-05
-7.12152e-06
1.56343e-05
-8.91536e-06
1.58534e-05
-9.67078e-06
1.48197e-05
-9.78048e-06
1.36653e-05
-9.5131e-06
1.28403e-05
-8.82017e-06
1.07419e-05
-9.2104e-06
9.02623e-06
-8.44663e-06
9.7064e-06
-5.81256e-06
1.09842e-05
-4.43682e-06
1.2802e-05
-3.38469e-06
1.35979e-05
-9.91337e-07
1.02559e-05
-4.46527e-07
4.88508e-06
-2.61464e-06
1.83437e-06
-4.56147e-06
3.78978e-07
-4.12811e-06
-8.44164e-07
-4.5584e-06
-6.44754e-06
1.30389e-06
2.14904e-06
9.17919e-07
6.85192e-06
3.97927e-08
1.20442e-05
-2.1774e-06
1.84263e-05
-7.58703e-06
2.28162e-05
-1.07659e-05
1.92149e-05
-5.26147e-06
1.2633e-05
1.50119e-06
9.77325e-06
4.48127e-06
1.0355e-05
7.08235e-06
1.18668e-05
9.18808e-06
1.02081e-05
1.00722e-05
3.64818e-06
1.12477e-05
-1.94915e-06
1.24434e-05
-4.2208e-06
1.24976e-05
-5.55436e-06
1.16185e-05
-5.7921e-06
1.06414e-05
-5.19799e-06
1.11978e-05
-3.42398e-06
1.24044e-05
-1.98946e-06
1.28507e-05
-1.97627e-06
1.39299e-05
-4.35394e-07
1.59959e-05
8.55552e-07
1.8424e-05
2.12235e-06
1.93676e-05
5.71126e-06
1.42515e-05
5.16609e-06
4.67388e-06
-5.13869e-07
1.04763e-06
-2.21448e-06
1.36607e-06
-2.05149e-06
-1.12737e-07
-2.254e-06
-3.29775e-06
-5.18795e-07
3.01567e-06
-2.40781e-06
8.17785e-06
-5.08276e-06
1.50535e-05
-8.45008e-06
2.26828e-05
-1.16524e-05
2.71785e-05
-1.32938e-05
2.66503e-05
-1.05226e-05
1.96147e-05
-3.49193e-06
1.41032e-05
2.66511e-06
1.34427e-05
7.02473e-06
1.54662e-05
9.32494e-06
1.41854e-05
8.89588e-06
6.7148e-06
8.82574e-06
1.41862e-06
9.51068e-06
-6.58289e-07
9.39153e-06
-1.90421e-06
8.66379e-06
-1.7463e-06
7.82226e-06
-4.14498e-08
7.71101e-06
2.77574e-06
9.46132e-06
6.10547e-06
1.16238e-05
7.57363e-06
1.33854e-05
6.17883e-06
1.60761e-05
6.46924e-06
1.93149e-05
7.43353e-06
2.25617e-05
1.1537e-05
1.27518e-05
1.29177e-05
-4.69654e-07
1.21312e-06
-9.19877e-07
-8.02368e-07
4.18591e-07
-1.0685e-06
3.65012e-07
-1.16988e-06
-1.18614e-06
-1.97525e-06
4.73308e-06
-7.2865e-06
1.30776e-05
-1.3945e-05
2.22797e-05
-1.74516e-05
2.81228e-05
-1.90185e-05
3.00465e-05
-1.83973e-05
2.89985e-05
-1.44604e-05
2.39138e-05
-7.89085e-06
1.82167e-05
-7.04508e-07
1.51562e-05
5.60193e-06
1.56687e-05
8.14304e-06
1.53211e-05
7.21139e-06
7.55983e-06
6.63594e-06
3.22376e-06
6.65123e-06
1.77146e-06
6.19307e-06
1.28195e-06
5.41399e-06
2.21475e-06
4.6173e-06
4.6581e-06
3.87361e-06
8.10672e-06
2.9038e-06
1.20357e-05
1.18372e-06
1.5431e-05
2.27078e-06
1.34075e-05
7.74289e-06
1.10085e-05
1.37507e-05
1.22493e-05
2.05143e-05
1.62442e-05
9.9892e-06
2.09808e-05
-3.27284e-06
3.06982e-06
-1.29829e-06
7.70293e-07
-3.58674e-07
-5.57092e-08
2.57513e-08
-2.9255e-07
-3.60204e-07
-6.32234e-06
1.00423e-05
-1.17675e-05
2.17851e-05
-1.83532e-05
3.00293e-05
-2.01014e-05
3.32491e-05
-2.03429e-05
3.24486e-05
-1.93493e-05
3.02169e-05
-1.65159e-05
2.57949e-05
-1.1207e-05
2.05323e-05
-4.41493e-06
1.63063e-05
2.21561e-06
1.44774e-05
5.42351e-06
1.38234e-05
5.06413e-06
7.27966e-06
4.42494e-06
4.13519e-06
4.06624e-06
3.33584e-06
3.43324e-06
3.74833e-06
2.49971e-06
5.34711e-06
1.25209e-06
7.9879e-06
-3.93152e-07
1.12685e-05
-2.47271e-06
1.40407e-05
-6.83295e-06
1.64195e-05
-1.064e-05
1.55091e-05
-9.72361e-06
1.23539e-05
-3.0982e-06
1.23696e-05
9.62572e-06
1.61598e-05
7.37459e-06
1.66244e-05
-1.93678e-06
4.36713e-06
-1.15783e-06
1.99957e-06
-6.74221e-07
8.7261e-07
-2.97579e-07
3.51392e-07
6.65857e-08
-7.91768e-06
1.73338e-05
-1.03925e-05
2.80753e-05
-1.42291e-05
3.17777e-05
-1.6414e-05
3.48277e-05
-1.77327e-05
3.42518e-05
-1.73532e-05
3.13513e-05
-1.5842e-05
2.68655e-05
-1.26529e-05
2.17564e-05
-7.54575e-06
1.69802e-05
-1.82931e-06
1.35666e-05
2.08997e-06
1.16026e-05
2.9404e-06
6.85809e-06
2.52371e-06
4.77504e-06
2.25688e-06
4.55975e-06
1.75654e-06
5.5847e-06
4.63316e-07
7.63761e-06
-1.91154e-06
1.0437e-05
-4.21945e-06
1.27216e-05
-5.90787e-06
1.37965e-05
-7.93118e-06
1.46802e-05
-1.00666e-05
1.41515e-05
-1.1108e-05
1.13115e-05
-8.4115e-06
8.87103e-06
-2.28591e-06
9.60866e-06
1.74328e-07
6.29646e-06
-1.27675e-06
4.1685e-06
-1.16163e-06
2.58176e-06
-7.98524e-07
1.43898e-06
-4.0534e-07
7.18068e-07
2.44339e-07
-3.39176e-06
2.2188e-05
-4.56725e-06
2.86644e-05
-6.21329e-06
2.87017e-05
-9.2933e-06
3.23924e-05
-1.20439e-05
3.47354e-05
-1.3176e-05
3.26352e-05
-1.29837e-05
2.77025e-05
-1.17168e-05
2.24566e-05
-9.00475e-06
1.75125e-05
-4.7482e-06
1.32758e-05
-3.65945e-07
1.02468e-05
1.45896e-06
6.55245e-06
1.36093e-06
5.20876e-06
1.29481e-06
5.55457e-06
6.55478e-07
6.99407e-06
-1.25712e-06
9.40905e-06
-3.77537e-06
1.21723e-05
-5.19024e-06
1.29654e-05
-5.69278e-06
1.29905e-05
-6.40985e-06
1.29932e-05
-7.14196e-06
1.22966e-05
-6.9049e-06
9.64423e-06
-4.76022e-06
7.01232e-06
-2.37025e-06
5.58116e-06
-1.5685e-06
4.92851e-06
-1.41909e-06
4.0818e-06
-1.22171e-06
2.87688e-06
-8.67722e-07
1.74843e-06
-4.40782e-07
8.84405e-07
2.66286e-07
-1.19159e-06
2.5917e-05
1.00119e-06
2.43782e-05
1.22651e-06
2.4606e-05
-2.02346e-06
2.79282e-05
-6.05832e-06
3.33572e-05
-8.9426e-06
3.30418e-05
-9.82435e-06
2.80349e-05
-9.50314e-06
2.27429e-05
-8.33683e-06
1.78058e-05
-5.949e-06
1.32536e-05
-2.21655e-06
9.61448e-06
3.41715e-07
6.32953e-06
9.29566e-07
5.48912e-06
1.0459e-06
6.31302e-06
1.87516e-07
7.94583e-06
-2.0901e-06
1.07607e-05
-4.0988e-06
1.30834e-05
-4.48745e-06
1.26306e-05
-4.25114e-06
1.20847e-05
-4.16379e-06
1.15939e-05
-4.16159e-06
1.07123e-05
-3.49786e-06
8.85453e-06
-2.63383e-06
7.09303e-06
-1.89672e-06
6.0143e-06
-1.39589e-06
5.27475e-06
-1.22409e-06
4.29902e-06
-1.11054e-06
3.1344e-06
-8.43362e-07
1.97379e-06
-4.40856e-07
9.77383e-07
2.27035e-07
3.24171e-06
2.3803e-05
5.70595e-06
1.92669e-05
6.1588e-06
2.16393e-05
4.08347e-06
2.4616e-05
1.27468e-07
3.22756e-05
-4.2792e-06
3.33908e-05
-7.08609e-06
2.87683e-05
-7.21954e-06
2.24334e-05
-6.72715e-06
1.76469e-05
-5.47284e-06
1.31597e-05
-2.95048e-06
9.10957e-06
-1.68776e-07
5.94903e-06
1.10734e-06
5.3996e-06
1.42934e-06
6.55602e-06
4.82682e-07
8.39289e-06
-2.04856e-06
1.17222e-05
-3.28659e-06
1.31077e-05
-2.90525e-06
1.19323e-05
-2.27663e-06
1.11094e-05
-1.84073e-06
1.04079e-05
-1.6552e-06
9.58276e-06
-1.16508e-06
8.51278e-06
-8.94654e-07
7.43322e-06
-7.87424e-07
6.57759e-06
-7.43967e-07
5.73107e-06
-7.77541e-07
4.6923e-06
-8.23001e-07
3.4946e-06
-7.13543e-07
2.25358e-06
-4.10401e-07
1.10808e-06
2.08163e-07
6.5521e-06
1.56146e-05
7.55626e-06
1.58753e-05
8.16976e-06
1.92131e-05
7.82455e-06
2.31798e-05
4.82965e-06
3.35586e-05
1.09012e-06
3.57639e-05
-2.90687e-06
3.16594e-05
-5.29183e-06
2.26514e-05
-4.92312e-06
1.74384e-05
-4.09144e-06
1.28139e-05
-2.40039e-06
8.56477e-06
1.5811e-07
5.33722e-06
1.88114e-06
4.83655e-06
2.42489e-06
6.21749e-06
1.33112e-06
8.45646e-06
-1.18126e-06
1.27527e-05
-1.71433e-06
1.24161e-05
-8.67277e-07
1.09761e-05
-1.00987e-07
1.01338e-05
3.51633e-07
9.53942e-06
4.92599e-07
9.02984e-06
7.18197e-07
8.52166e-06
6.39596e-07
7.85476e-06
3.92951e-07
7.16072e-06
1.0923e-07
6.31526e-06
-1.5904e-07
5.25116e-06
-3.93669e-07
4.00192e-06
-4.81889e-07
2.65528e-06
-3.42839e-07
1.34164e-06
2.57159e-07
5.99585e-06
8.83561e-06
7.01283e-06
1.33063e-05
7.70786e-06
1.72183e-05
8.90691e-06
2.18659e-05
7.94031e-06
3.30929e-05
5.92412e-06
3.93331e-05
2.34005e-06
3.58228e-05
-2.0478e-06
2.6406e-05
-2.89414e-06
1.68954e-05
-2.33928e-06
1.21157e-05
-1.0447e-06
7.88538e-06
9.44382e-07
4.66253e-06
2.49247e-06
4.12779e-06
2.98646e-06
5.5667e-06
2.00781e-06
8.19481e-06
2.32931e-07
1.33713e-05
3.47947e-07
1.12767e-05
1.3305e-06
9.92871e-06
2.019e-06
9.3213e-06
2.31351e-06
9.06299e-06
2.39347e-06
8.96607e-06
2.3572e-06
8.78904e-06
2.04518e-06
8.4079e-06
1.57965e-06
7.85945e-06
1.0733e-06
7.06471e-06
5.90937e-07
5.99849e-06
1.60573e-07
4.69998e-06
-1.38037e-07
3.24275e-06
-2.06624e-07
1.74698e-06
4.19429e-07
3.52282e-06
5.10793e-06
4.3845e-06
1.13502e-05
4.8585e-06
1.55797e-05
6.99112e-06
1.9942e-05
8.44306e-06
2.77714e-05
7.92857e-06
4.07856e-05
6.62383e-06
3.90528e-05
1.89196e-06
3.08716e-05
-1.45535e-06
1.63835e-05
-7.60909e-07
1.08891e-05
3.89052e-07
6.83223e-06
1.9401e-06
3.89007e-06
3.17667e-06
3.36698e-06
3.44231e-06
4.65066e-06
2.49188e-06
7.02313e-06
1.79565e-06
1.20286e-05
2.52952e-06
9.6891e-06
3.42771e-06
8.93509e-06
3.94105e-06
8.77265e-06
4.11728e-06
8.91668e-06
4.10539e-06
9.15774e-06
3.87746e-06
9.2447e-06
3.4116e-06
9.10678e-06
2.80101e-06
8.71852e-06
2.12031e-06
8.0195e-06
1.42947e-06
6.98504e-06
7.79135e-07
5.65263e-06
2.43948e-07
4.08795e-06
-6.19684e-08
2.3726e-06
6.99655e-07
7.78016e-07
3.66755e-06
5.4984e-07
9.822e-06
3.00777e-07
1.45814e-05
7.09212e-07
1.82394e-05
3.49484e-06
2.28848e-05
6.31148e-06
3.49504e-05
6.12131e-06
4.02373e-05
1.72421e-06
3.2288e-05
-8.51686e-07
1.65821e-05
4.75701e-07
8.33939e-06
1.71763e-06
5.4003e-06
3.09026e-06
2.8489e-06
4.29091e-06
2.36125e-06
4.90995e-06
3.6933e-06
4.49413e-06
6.58211e-06
4.04677e-06
9.19764e-06
4.59511e-06
8.06179e-06
5.35167e-06
8.1473e-06
5.77172e-06
8.46863e-06
5.90153e-06
8.98199e-06
5.79438e-06
9.50754e-06
5.44636e-06
9.85019e-06
4.87346e-06
9.93922e-06
4.13013e-06
9.7256e-06
3.27244e-06
9.14806e-06
2.35639e-06
8.16225e-06
1.43663e-06
6.80614e-06
6.30324e-07
5.14811e-06
9.42937e-08
3.17767e-06
1.07923e-06
-1.67648e-06
3.13893e-06
-3.68989e-06
9.22195e-06
-4.95788e-06
1.41916e-05
-5.37023e-06
1.76869e-05
-4.33788e-06
2.0641e-05
5.41787e-07
2.62511e-05
3.27162e-06
3.8203e-05
2.43557e-07
3.22852e-05
-5.372e-07
1.70981e-05
1.08228e-06
5.59417e-06
2.75413e-06
3.62848e-06
4.16582e-06
1.48897e-06
5.42165e-06
1.09059e-06
6.37394e-06
2.57143e-06
6.26354e-06
6.7593e-06
5.66911e-06
6.74477e-06
6.33923e-06
6.88641e-06
7.11396e-06
7.57782e-06
7.56252e-06
8.33647e-06
7.68492e-06
9.17607e-06
7.53029e-06
9.95385e-06
7.13704e-06
1.05188e-05
6.51764e-06
1.07965e-05
5.67774e-06
1.07524e-05
4.65518e-06
1.03445e-05
3.49402e-06
9.45053e-06
2.15376e-06
8.1486e-06
1.05213e-06
6.28458e-06
2.90422e-07
4.04717e-06
1.46041e-06
-3.27575e-06
3.3561e-06
-8.62815e-06
9.43643e-06
-1.03358e-05
1.48704e-05
-1.08434e-05
1.74883e-05
-1.03044e-05
1.94046e-05
-7.51667e-06
2.11149e-05
-1.51324e-06
3.02552e-05
7.64619e-07
3.10213e-05
3.48799e-07
1.85456e-05
1.65046e-06
4.20545e-06
3.55956e-06
1.63808e-06
5.02936e-06
-4.39804e-08
6.24342e-06
-2.59572e-07
7.07484e-06
1.11576e-06
7.05344e-06
4.89429e-06
7.20859e-06
4.93509e-06
8.02031e-06
6.07276e-06
8.77506e-06
7.20014e-06
9.25106e-06
8.32604e-06
9.38605e-06
9.43133e-06
9.24911e-06
1.03959e-05
8.90916e-06
1.11271e-05
8.37675e-06
1.15791e-05
7.60091e-06
1.1748e-05
6.4985e-06
1.15409e-05
5.02133e-06
1.0775e-05
2.87729e-06
9.4791e-06
1.57648e-06
7.52015e-06
4.06831e-07
4.90057e-06
1.85655e-06
-2.28124e-06
5.41525e-06
-1.01756e-05
1.78374e-05
-1.55934e-05
1.70932e-05
-1.55937e-05
1.74619e-05
-1.55083e-05
1.79881e-05
-1.43407e-05
1.78944e-05
-6.51136e-06
2.00232e-05
3.1924e-06
2.56244e-05
2.93794e-06
2.01093e-05
2.6624e-06
4.00779e-06
4.32179e-06
-3.75213e-07
5.78486e-06
-1.6061e-06
7.1172e-06
-1.70959e-06
8.20754e-06
-3.38646e-07
8.06853e-06
2.00008e-06
8.4013e-06
3.5233e-06
9.38035e-06
5.44497e-06
1.01732e-05
6.9451e-06
1.06771e-05
8.38893e-06
1.0846e-05
9.71075e-06
1.08245e-05
1.08131e-05
1.06821e-05
1.1665e-05
1.0388e-05
1.23358e-05
9.81016e-06
1.28894e-05
8.78694e-06
1.33141e-05
6.94419e-06
1.36921e-05
4.61943e-06
1.54753e-05
2.55917e-06
9.81057e-06
1.2809e-07
5.09256e-06
2.55861e-06
-9.16424e-06
1.70507e-05
-1.49543e-05
3.33892e-05
-2.00328e-05
2.59111e-05
-1.94703e-05
1.77899e-05
-1.89331e-05
1.73073e-05
-1.80879e-05
1.5528e-05
-1.36792e-05
1.244e-05
-1.33154e-06
1.43277e-05
3.8187e-06
1.68858e-05
3.8624e-06
3.81654e-06
4.88328e-06
-2.32871e-06
6.42721e-06
-3.20552e-06
8.14351e-06
-3.49899e-06
8.94287e-06
-2.03214e-06
8.9116e-06
1.24016e-07
9.57983e-06
2.67133e-06
1.03716e-05
4.8565e-06
1.12348e-05
6.80013e-06
1.16956e-05
8.55181e-06
1.18305e-05
1.00822e-05
1.18297e-05
1.12871e-05
1.18147e-05
1.22113e-05
1.17375e-05
1.30902e-05
1.15351e-05
1.4105e-05
1.11754e-05
1.52946e-05
1.06937e-05
1.66387e-05
8.36171e-06
1.98594e-05
2.97818e-06
1.8056e-05
3.34398e-08
9.79965e-06
3.80599e-06
-1.2535e-05
3.38167e-05
-1.69791e-05
4.54925e-05
-2.16423e-05
3.81501e-05
-2.16122e-05
2.09129e-05
-2.02409e-05
1.64867e-05
-1.97372e-05
1.32212e-05
-1.93061e-05
8.55665e-06
-1.07503e-05
4.34577e-06
2.11584e-06
6.11551e-06
5.35723e-06
3.53599e-06
5.18802e-06
-4.21397e-06
6.78771e-06
-4.89503e-06
8.37519e-06
-5.39824e-06
8.79044e-06
-3.83813e-06
9.18818e-06
-1.01821e-06
1.01579e-05
1.87253e-06
1.10462e-05
4.39838e-06
1.18922e-05
6.74157e-06
1.22312e-05
8.84314e-06
1.21317e-05
1.06293e-05
1.17554e-05
1.19424e-05
1.11797e-05
1.28644e-05
1.04021e-05
1.37771e-05
9.39903e-06
1.47674e-05
8.22295e-06
1.56939e-05
7.72733e-06
1.64925e-05
8.40625e-06
1.76677e-05
4.95331e-06
2.14652e-05
2.38554e-06
1.68034e-05
7.60556e-06
-9.4949e-06
4.25527e-05
-1.23091e-05
5.11269e-05
-1.77231e-05
4.62855e-05
-2.01484e-05
3.08835e-05
-1.97158e-05
1.57566e-05
-1.87785e-05
1.21691e-05
-1.83984e-05
6.69088e-06
-1.76175e-05
2.91754e-07
-7.12568e-06
-3.29087e-06
3.75117e-06
-1.15024e-06
5.10004e-06
-6.25195e-06
6.81442e-06
-6.73891e-06
8.00839e-06
-7.02484e-06
8.52978e-06
-5.09753e-06
9.35333e-06
-1.95444e-06
1.04324e-05
1.13745e-06
1.14595e-05
4.00227e-06
1.22603e-05
6.74774e-06
1.24624e-05
9.23334e-06
1.20632e-05
1.1325e-05
1.10882e-05
1.28378e-05
9.45603e-06
1.37756e-05
7.92944e-06
1.45251e-05
6.79035e-06
1.53832e-05
5.84995e-06
1.60439e-05
5.13072e-06
1.62702e-05
5.54822e-06
1.65492e-05
4.72788e-06
1.79757e-05
5.45965e-06
2.07104e-05
1.3269e-05
-5.59948e-06
4.72461e-05
-6.44056e-06
5.35728e-05
-8.29803e-06
5.03254e-05
-1.34648e-05
4.26134e-05
-1.78527e-05
1.9262e-05
-1.65184e-05
1.10177e-05
-1.5868e-05
4.98271e-06
-1.45725e-05
-8.07568e-07
-1.23939e-05
-6.9214e-06
-2.00178e-06
-8.92547e-06
5.31133e-06
-9.36285e-06
6.46781e-06
-8.81195e-06
7.41706e-06
-8.34524e-06
8.21015e-06
-6.06552e-06
9.31305e-06
-2.84833e-06
1.05241e-05
4.43071e-07
1.16827e-05
3.62573e-06
1.24725e-05
6.72137e-06
1.26777e-05
9.5652e-06
1.22839e-05
1.1999e-05
1.07246e-05
1.39488e-05
7.40538e-06
1.50943e-05
4.94432e-06
1.54527e-05
3.77291e-06
1.59727e-05
2.9712e-06
1.63686e-05
2.71888e-06
1.65179e-05
2.76587e-06
1.63205e-05
3.34767e-06
1.62987e-05
4.29176e-06
1.88068e-05
1.75679e-05
-3.32083e-06
5.03105e-05
-3.01493e-06
5.45169e-05
-1.99574e-06
5.16629e-05
-6.38274e-06
4.70843e-05
-1.25636e-05
2.93101e-05
-1.35393e-05
9.00871e-06
-1.2629e-05
3.88276e-06
-1.195e-05
-2.11943e-06
-1.05467e-05
-8.09451e-06
-3.15214e-06
-1.29336e-05
5.1046e-06
-1.41596e-05
5.86158e-06
-1.13626e-05
6.83285e-06
-9.73889e-06
7.85958e-06
-7.13419e-06
9.10949e-06
-3.77772e-06
1.04282e-05
-2.55348e-07
1.16689e-05
3.21144e-06
1.24806e-05
6.54051e-06
1.28676e-05
9.71658e-06
1.27423e-05
1.25377e-05
1.07984e-05
1.81053e-05
5.99536e-06
2.62717e-05
1.69401e-06
2.24796e-05
3.57239e-07
1.66154e-05
8.63043e-08
1.67626e-05
1.26822e-08
1.65011e-05
1.04532e-07
1.60201e-05
5.29435e-07
1.52225e-05
1.19052e-06
1.44456e-05
1.68212e-05
-2.3774e-06
5.2458e-05
-1.40311e-06
5.4352e-05
-1.78633e-06
5.13695e-05
-7.18642e-06
4.6132e-05
-1.05277e-05
3.52284e-05
-1.09109e-05
1.11376e-05
-1.0155e-05
2.50071e-06
-9.46549e-06
-3.53697e-06
-8.19674e-06
-8.86678e-06
-5.31644e-06
-1.42601e-05
1.39455e-06
-1.79378e-05
5.01884e-06
-1.47592e-05
6.19027e-06
-1.15604e-05
7.41285e-06
-8.40739e-06
8.74099e-06
-4.80104e-06
1.00905e-05
-1.02739e-06
1.12357e-05
2.59476e-06
1.20546e-05
6.20285e-06
1.27208e-05
9.4386e-06
1.45731e-05
1.20009e-05
1.21307e-05
1.8862e-05
1.89484e-06
3.63658e-05
-3.38805e-06
3.33494e-05
-2.59731e-06
2.09207e-05
-2.83124e-06
1.68501e-05
-2.41009e-06
1.65632e-05
-2.21678e-06
1.54046e-05
-2.05688e-06
1.42005e-05
-2.04217e-06
1.21744e-05
1.1534e-05
-9.7286e-07
5.35417e-05
-2.94368e-07
5.33105e-05
-1.68233e-06
5.09689e-05
-4.41281e-06
4.55261e-05
-7.19972e-06
3.50504e-05
-8.58987e-06
1.53934e-05
-8.20473e-06
1.21151e-06
-7.01913e-06
-4.47427e-06
-5.81672e-06
-9.8762e-06
-3.65967e-06
-1.50917e-05
4.68581e-07
-1.91353e-05
3.73122e-06
-1.75111e-05
5.2774e-06
-1.3552e-05
6.7579e-06
-9.86052e-06
8.15829e-06
-5.91238e-06
9.41778e-06
-1.85898e-06
1.04659e-05
1.88938e-06
1.13496e-05
5.24003e-06
1.48074e-05
7.31041e-06
1.89459e-05
-2.57974e-06
1.28827e-05
2.29645e-06
-4.04743e-06
3.08438e-05
-1.40293e-05
3.39247e-05
-9.66363e-06
2.3135e-05
-5.34291e-06
1.81697e-05
-4.48357e-06
1.63375e-05
-3.56054e-06
1.51232e-05
-3.4351e-06
1.30289e-05
-2.67397e-06
1.0597e-05
6.52857e-06
2.3999e-06
5.12983e-05
3.20358e-06
5.1687e-05
2.27694e-06
5.0929e-05
8.48521e-07
4.66104e-05
-1.68823e-06
3.60026e-05
-4.64345e-06
1.67865e-05
-5.7574e-06
9.0162e-07
-5.14437e-06
-5.42183e-06
-4.00678e-06
-1.08236e-05
-2.18628e-06
-1.57241e-05
1.04174e-07
-1.92866e-05
2.3783e-06
-1.86709e-05
4.27563e-06
-1.52787e-05
5.96344e-06
-1.13261e-05
7.35274e-06
-7.01064e-06
8.48135e-06
-2.60924e-06
9.5287e-06
9.04758e-07
1.24812e-05
2.20806e-06
1.82552e-05
-6.71686e-06
1.89048e-05
-2.36612e-05
9.60629e-06
-1.31264e-05
-6.9551e-06
1.9778e-05
-1.74808e-05
2.31094e-05
-1.46221e-05
1.51665e-05
-8.14289e-06
1.85466e-05
-5.72415e-06
1.63361e-05
-4.24662e-06
1.48239e-05
-3.37665e-06
1.19939e-05
-2.11768e-06
8.98687e-06
4.0369e-06
6.22615e-06
4.36907e-05
6.79928e-06
4.94457e-05
7.14542e-06
5.01065e-05
7.32538e-06
4.79984e-05
5.40272e-06
4.04038e-05
6.89525e-07
2.18363e-05
-2.55194e-06
1.86472e-06
-3.14427e-06
-5.85251e-06
-2.74928e-06
-1.1402e-05
-1.6727e-06
-1.60097e-05
-3.40589e-08
-1.93394e-05
1.80096e-06
-1.92282e-05
3.60178e-06
-1.6542e-05
5.13851e-06
-1.25955e-05
6.30933e-06
-8.0011e-06
7.21325e-06
-3.2494e-06
8.63634e-06
-5.89251e-07
1.35361e-05
-5.2705e-06
1.50728e-05
-3.07458e-05
1.02632e-05
-3.66673e-05
4.67052e-06
-1.17659e-05
-5.71004e-06
1.02562e-05
-1.47609e-05
9.68571e-06
-1.60896e-05
1.30668e-06
-1.0818e-05
1.04296e-05
-5.56957e-06
1.65919e-05
-4.11202e-06
1.40851e-05
-2.71676e-06
1.13546e-05
-1.48771e-06
7.65618e-06
2.83727e-06
4.06644e-06
2.86701e-05
7.32402e-06
4.34646e-05
1.01282e-05
4.63141e-05
1.40024e-05
4.57914e-05
1.5545e-05
4.11559e-05
9.477e-06
2.81468e-05
2.17991e-06
6.75293e-06
-8.1976e-07
-6.71375e-06
-1.64477e-06
-1.18844e-05
-1.57868e-06
-1.61795e-05
-2.35529e-07
-1.97801e-05
1.37496e-06
-1.98736e-05
2.97838e-06
-1.75942e-05
4.20298e-06
-1.37223e-05
4.99192e-06
-8.99796e-06
6.37533e-06
-4.85744e-06
1.14592e-05
-4.93305e-06
1.57574e-05
-2.71286e-05
1.34121e-05
-6.04978e-05
6.84913e-06
-4.01796e-05
1.78884e-06
-8.47697e-06
-1.86653e-06
6.45612e-06
-7.01938e-06
4.50471e-06
-1.17238e-05
-6.92627e-06
-1.15407e-05
-5.4675e-06
-5.94322e-06
8.95056e-06
-3.27871e-06
1.29878e-05
-2.01899e-06
1.04469e-05
-8.97491e-07
6.61187e-06
2.1962e-06
-6.78922e-09
1.00215e-05
5.9042e-06
2.53845e-05
1.13031e-05
2.97363e-05
1.62422e-05
2.82165e-05
2.03278e-05
2.0145e-05
1.97597e-05
1.62487e-05
1.15131e-05
-3.11105e-05
2.54582e-06
-4.456e-05
-8.08977e-07
-1.76835e-05
-2.06974e-06
-1.80962e-05
-7.81283e-07
-2.17865e-05
6.60146e-07
-2.11425e-05
2.20949e-06
-1.88252e-05
3.18579e-06
-1.48419e-05
3.69956e-06
-1.07396e-05
9.86397e-06
-1.15005e-05
1.76221e-05
-2.55566e-05
5.82268e-06
-7.81814e-05
-4.09249e-06
-8.55289e-05
1.75506e-06
-4.32908e-05
3.66828e-06
-1.46686e-05
2.55078e-06
5.52151e-06
2.32213e-06
6.90891e-06
-1.46517e-07
-2.30663e-06
-5.83486e-06
-1.3507e-05
-6.08177e-06
-6.77615e-06
-2.39581e-06
2.95728e-06
-1.23695e-06
9.01823e-06
-3.6051e-07
5.9519e-06
1.90965e-06
-1.76268e-06
-2.68132e-06
3.83102e-06
-4.62309e-06
9.66386e-06
-8.31102e-06
1.19778e-05
-1.76379e-05
1.42713e-05
-3.61134e-05
6.51197e-06
-3.9219e-05
-1.02975e-05
-9.0022e-05
-1.10698e-05
-7.90836e-05
-2.50485e-06
-3.74369e-05
-2.69541e-06
-2.61488e-05
-1.46051e-06
-2.5439e-05
-5.12031e-07
-2.34131e-05
1.31523e-06
-2.04226e-05
2.17813e-06
-1.61224e-05
6.15629e-06
-1.36713e-05
1.65423e-05
-5.4633e-05
6.92168e-06
-8.838e-05
-1.08263e-05
-0.000119299
-1.05602e-05
-9.7235e-05
6.37218e-07
-5.32595e-05
7.41754e-06
-2.76072e-05
6.525e-06
1.10979e-06
8.21762e-06
9.44351e-06
9.15363e-06
5.52321e-06
5.72316e-06
-5.97347e-06
1.67496e-07
-1.12238e-05
-1.8993e-06
-1.39507e-05
-5.77683e-07
-4.52924e-06
-3.45999e-08
5.01147e-06
1.83494e-06
-2.44257e-06
-1.32829e-05
1.8375e-07
-3.63207e-05
1.78976e-06
-5.34655e-05
5.4748e-07
-6.99041e-05
5.1078e-07
-8.92355e-05
-3.70039e-06
-9.78426e-05
-1.48905e-05
-0.000107086
-1.9777e-05
-7.50191e-05
-1.12101e-05
-4.76011e-05
-5.34382e-06
-3.32176e-05
-3.38611e-06
-2.93281e-05
-2.31743e-06
-2.62252e-05
-7.24026e-08
-2.26489e-05
8.51516e-07
-1.77862e-05
3.07453e-06
-4.87845e-05
-1.80993e-06
-0.00011981
-9.46403e-06
-0.000136274
-9.76808e-06
-0.000127455
-9.69798e-06
-0.000104933
-2.66056e-06
-6.61041e-05
8.20662e-06
-3.7829e-05
1.06269e-05
-8.11658e-06
1.08329e-05
8.07944e-06
1.26287e-05
8.83821e-06
1.38604e-05
4.0235e-06
1.32726e-05
-2.74027e-06
4.7145e-06
-1.47335e-05
-1.34305e-06
-1.90698e-05
-8.28801e-08
-2.5135e-06
1.59041e-06
-1.05362e-06
-2.20526e-05
-1.38454e-06
-5.37098e-05
-2.76467e-06
-7.55896e-05
-3.40464e-06
-9.18771e-05
-2.5125e-06
-0.000104734
-4.6855e-06
-0.000115031
-1.45219e-05
-0.000110324