/*--------------------------------*- C++ -*----------------------------------*\
| =========                 |                                                 |
| \\      /  F ield         | OpenFOAM: The Open Source CFD Toolbox           |
|  \\    /   O peration     | Version:  v1606+                                |
|   \\  /    A nd           | Web:      www.OpenFOAM.com                      |
|    \\/     M anipulation  |                                                 |
\*---------------------------------------------------------------------------*/
FoamFile
{
    version     2.0;
    format      ascii;
    class       volScalarField;
    location    "0.0032";
    object      alphat;
}
// * * * * * * * * * * * * * * * * * * * * * * * * * * * * * * * * * * * * * //

dimensions      [1 -1 -1 0 0 0 0];

internalField   nonuniform List<scalar> 
2450
(
3.36347e-06
2.65319e-06
2.12876e-06
2.70367e-06
2.69392e-05
0.00029739
0.000551308
0.000649562
0.000696335
0.000710515
0.000712033
0.000710647
0.000708521
0.000707108
0.000706183
0.000705565
0.000705141
0.000704845
0.000704635
0.000704485
0.000704377
0.000704299
0.000704243
0.000704202
0.000704172
0.000704149
0.000704131
0.000704117
0.000704105
0.000704094
0.000704085
0.000704076
0.000704069
0.000704062
0.000704055
0.00070405
0.000704045
0.00070404
0.000704036
0.000704033
0.00070403
0.000704028
0.000704026
0.000704025
0.000704024
0.000704023
0.000704023
0.000704024
0.000704024
0.000704026
0.000704028
0.00070403
0.000704033
0.000704037
0.000704041
0.000704046
0.000704051
0.000704056
0.000704062
0.000704068
0.000704074
0.00070408
0.000704085
0.000704089
0.00070409
0.000704086
0.000704077
0.000704062
0.000704047
0.000704039
2.63748e-06
2.29434e-06
2.15456e-06
3.02444e-06
3.99683e-05
0.000354957
0.000581528
0.00066232
0.000701294
0.00071208
0.000712523
0.000710723
0.000708583
0.000707164
0.000706231
0.000705602
0.000705169
0.000704865
0.000704649
0.000704494
0.000704382
0.000704301
0.000704243
0.0007042
0.000704169
0.000704145
0.000704127
0.000704112
0.0007041
0.000704089
0.00070408
0.000704072
0.000704064
0.000704057
0.000704051
0.000704046
0.000704041
0.000704036
0.000704032
0.000704029
0.000704026
0.000704024
0.000704022
0.000704021
0.00070402
0.000704019
0.000704019
0.000704019
0.00070402
0.000704022
0.000704024
0.000704026
0.000704029
0.000704033
0.000704037
0.000704042
0.000704047
0.000704053
0.000704059
0.000704065
0.000704071
0.000704077
0.000704082
0.000704085
0.000704086
0.000704081
0.000704068
0.000704046
0.000704028
0.00070403
2.11819e-06
2.14896e-06
2.33985e-06
6.80849e-06
0.000148121
0.000461924
0.000621758
0.000682807
0.000708117
0.000713573
0.000712477
0.00071036
0.000708362
0.000707041
0.000706164
0.000705568
0.000705153
0.000704861
0.000704651
0.000704501
0.000704392
0.000704313
0.000704256
0.000704215
0.000704184
0.000704162
0.000704144
0.00070413
0.000704119
0.000704109
0.0007041
0.000704093
0.000704086
0.000704079
0.000704074
0.000704069
0.000704064
0.00070406
0.000704056
0.000704053
0.000704051
0.000704049
0.000704047
0.000704046
0.000704045
0.000704044
0.000704044
0.000704045
0.000704046
0.000704048
0.00070405
0.000704053
0.000704056
0.00070406
0.000704064
0.000704069
0.000704074
0.00070408
0.000704086
0.000704092
0.000704099
0.000704105
0.00070411
0.000704114
0.000704114
0.000704108
0.00070409
0.00070406
0.00070403
0.000704029
2.686e-06
3.13035e-06
7.06012e-06
8.02475e-05
0.000356749
0.000569343
0.000664083
0.000703005
0.000713409
0.000714147
0.00071237
0.00070977
0.000707999
0.000706826
0.000706035
0.000705489
0.000705106
0.000704832
0.000704636
0.000704493
0.00070439
0.000704315
0.000704261
0.000704221
0.000704192
0.00070417
0.000704154
0.00070414
0.00070413
0.00070412
0.000704112
0.000704105
0.000704098
0.000704093
0.000704087
0.000704082
0.000704078
0.000704074
0.000704071
0.000704068
0.000704066
0.000704064
0.000704063
0.000704062
0.000704061
0.000704061
0.000704061
0.000704062
0.000704063
0.000704065
0.000704067
0.00070407
0.000704074
0.000704078
0.000704083
0.000704088
0.000704093
0.000704099
0.000704106
0.000704112
0.000704118
0.000704125
0.00070413
0.000704134
0.000704134
0.000704127
0.000704108
0.000704074
0.000704037
0.000704032
2.93857e-05
4.5067e-05
0.00015441
0.000351117
0.00054797
0.00065405
0.000697376
0.000713728
0.000715459
0.00071366
0.00071127
0.000709058
0.000707566
0.00070656
0.000705867
0.000705381
0.000705034
0.000704785
0.000704603
0.000704471
0.000704375
0.000704305
0.000704254
0.000704217
0.000704189
0.000704169
0.000704152
0.00070414
0.000704129
0.00070412
0.000704113
0.000704106
0.000704099
0.000704094
0.000704088
0.000704084
0.00070408
0.000704076
0.000704073
0.000704071
0.000704069
0.000704067
0.000704066
0.000704065
0.000704065
0.000704065
0.000704066
0.000704067
0.000704068
0.00070407
0.000704073
0.000704076
0.00070408
0.000704085
0.00070409
0.000704095
0.000704101
0.000704107
0.000704114
0.000704121
0.000704127
0.000704134
0.000704139
0.000704143
0.000704144
0.000704137
0.000704117
0.000704082
0.000704042
0.000704036
0.000314067
0.000368888
0.000468679
0.000574647
0.00065285
0.00069545
0.000714346
0.000716706
0.000715023
0.000712658
0.00071011
0.00070833
0.000707114
0.000706273
0.00070568
0.000705256
0.000704948
0.000704724
0.00070456
0.00070444
0.000704352
0.000704287
0.00070424
0.000704205
0.000704179
0.00070416
0.000704144
0.000704132
0.000704122
0.000704113
0.000704106
0.000704099
0.000704093
0.000704087
0.000704082
0.000704078
0.000704074
0.000704071
0.000704068
0.000704066
0.000704064
0.000704063
0.000704062
0.000704062
0.000704062
0.000704062
0.000704063
0.000704065
0.000704067
0.000704069
0.000704072
0.000704076
0.00070408
0.000704085
0.00070409
0.000704096
0.000704103
0.000704109
0.000704116
0.000704123
0.00070413
0.000704137
0.000704143
0.000704147
0.000704148
0.000704141
0.000704121
0.000704085
0.000704045
0.000704038
0.000560269
0.000588083
0.000626843
0.000668096
0.000699718
0.000715427
0.000717669
0.000716047
0.000713697
0.000710989
0.000709024
0.000707647
0.000706678
0.000705987
0.000705487
0.000705123
0.000704855
0.000704657
0.000704511
0.000704403
0.000704323
0.000704264
0.000704221
0.000704189
0.000704165
0.000704146
0.000704132
0.00070412
0.00070411
0.000704102
0.000704094
0.000704088
0.000704082
0.000704077
0.000704072
0.000704068
0.000704064
0.000704061
0.000704059
0.000704057
0.000704056
0.000704055
0.000704054
0.000704054
0.000704055
0.000704056
0.000704057
0.000704059
0.000704062
0.000704065
0.000704068
0.000704073
0.000704077
0.000704083
0.000704088
0.000704095
0.000704101
0.000704108
0.000704116
0.000704123
0.00070413
0.000704137
0.000704144
0.000704148
0.000704149
0.000704142
0.000704123
0.000704087
0.000704047
0.000704039
0.000654276
0.000666662
0.000686392
0.000705167
0.000714822
0.000717449
0.000716284
0.000714171
0.000711539
0.000709541
0.000708089
0.000707039
0.000706275
0.000705714
0.0007053
0.000704991
0.00070476
0.000704588
0.000704459
0.000704363
0.000704292
0.000704239
0.0007042
0.00070417
0.000704148
0.000704131
0.000704117
0.000704106
0.000704096
0.000704088
0.000704081
0.000704074
0.000704069
0.000704064
0.000704059
0.000704055
0.000704052
0.00070405
0.000704048
0.000704046
0.000704045
0.000704045
0.000704045
0.000704045
0.000704046
0.000704047
0.000704049
0.000704052
0.000704055
0.000704059
0.000704063
0.000704067
0.000704073
0.000704079
0.000704085
0.000704092
0.000704099
0.000704107
0.000704114
0.000704122
0.00070413
0.000704137
0.000704144
0.000704148
0.00070415
0.000704143
0.000704124
0.000704088
0.000704048
0.000704041
0.000700228
0.000705317
0.000711014
0.000715057
0.000716392
0.000715615
0.000713969
0.000711654
0.000709791
0.000708374
0.000707311
0.000706515
0.000705916
0.000705464
0.000705123
0.000704864
0.000704668
0.000704519
0.000704407
0.000704323
0.00070426
0.000704212
0.000704177
0.00070415
0.000704129
0.000704113
0.0007041
0.00070409
0.00070408
0.000704072
0.000704065
0.000704059
0.000704054
0.000704049
0.000704045
0.000704041
0.000704039
0.000704036
0.000704035
0.000704034
0.000704033
0.000704033
0.000704033
0.000704034
0.000704036
0.000704038
0.00070404
0.000704043
0.000704047
0.000704051
0.000704056
0.000704062
0.000704067
0.000704074
0.000704081
0.000704088
0.000704096
0.000704104
0.000704112
0.000704121
0.000704129
0.000704137
0.000704144
0.000704149
0.00070415
0.000704144
0.000704125
0.000704089
0.000704049
0.000704042
0.00071182
0.000713593
0.000714818
0.000715146
0.000714367
0.000713157
0.000711318
0.000709733
0.000708457
0.000707455
0.000706675
0.00070607
0.000705602
0.00070524
0.000704961
0.000704745
0.00070458
0.000704453
0.000704356
0.000704283
0.000704227
0.000704185
0.000704153
0.000704129
0.00070411
0.000704095
0.000704083
0.000704072
0.000704063
0.000704056
0.000704049
0.000704043
0.000704038
0.000704033
0.000704029
0.000704026
0.000704024
0.000704022
0.00070402
0.00070402
0.00070402
0.00070402
0.000704021
0.000704023
0.000704025
0.000704027
0.00070403
0.000704034
0.000704038
0.000704043
0.000704049
0.000704055
0.000704062
0.000704069
0.000704076
0.000704084
0.000704093
0.000704101
0.00070411
0.000704119
0.000704128
0.000704136
0.000704143
0.000704149
0.000704151
0.000704145
0.000704126
0.00070409
0.00070405
0.000704043
0.00071328
0.000713753
0.000713519
0.000713192
0.000711925
0.000710611
0.000709385
0.000708329
0.000707451
0.000706736
0.000706159
0.000705698
0.000705332
0.000705043
0.000704815
0.000704637
0.000704498
0.000704391
0.000704308
0.000704244
0.000704196
0.000704158
0.00070413
0.000704107
0.00070409
0.000704076
0.000704064
0.000704054
0.000704045
0.000704038
0.000704031
0.000704025
0.00070402
0.000704016
0.000704012
0.00070401
0.000704007
0.000704006
0.000704005
0.000704005
0.000704005
0.000704006
0.000704008
0.00070401
0.000704012
0.000704016
0.000704019
0.000704024
0.000704029
0.000704035
0.000704041
0.000704048
0.000704055
0.000704063
0.000704071
0.00070408
0.000704089
0.000704099
0.000704108
0.000704117
0.000704127
0.000704135
0.000704143
0.000704149
0.000704151
0.000704146
0.000704127
0.000704091
0.000704052
0.000704045
0.000711564
0.000711648
0.000711208
0.000710504
0.000709668
0.000708816
0.000708016
0.000707304
0.00070669
0.000706172
0.000705742
0.00070539
0.000705103
0.000704872
0.000704687
0.00070454
0.000704424
0.000704333
0.000704262
0.000704207
0.000704165
0.000704132
0.000704106
0.000704086
0.000704069
0.000704056
0.000704045
0.000704035
0.000704027
0.000704019
0.000704013
0.000704007
0.000704002
0.000703998
0.000703995
0.000703992
0.00070399
0.000703989
0.000703989
0.000703989
0.00070399
0.000703991
0.000703993
0.000703996
0.000703999
0.000704003
0.000704008
0.000704013
0.000704019
0.000704025
0.000704032
0.00070404
0.000704048
0.000704057
0.000704066
0.000704075
0.000704085
0.000704095
0.000704105
0.000704115
0.000704125
0.000704135
0.000704143
0.000704149
0.000704152
0.000704146
0.000704128
0.000704093
0.000704053
0.000704046
0.000709303
0.000709378
0.000709101
0.000708654
0.000708125
0.000707573
0.00070704
0.000706548
0.000706111
0.000705731
0.000705407
0.000705135
0.00070491
0.000704725
0.000704574
0.000704454
0.000704357
0.00070428
0.00070422
0.000704173
0.000704135
0.000704106
0.000704083
0.000704064
0.000704049
0.000704036
0.000704025
0.000704016
0.000704007
0.000704
0.000703994
0.000703988
0.000703983
0.00070398
0.000703977
0.000703974
0.000703973
0.000703972
0.000703972
0.000703972
0.000703974
0.000703976
0.000703978
0.000703982
0.000703986
0.00070399
0.000703995
0.000704001
0.000704008
0.000704015
0.000704023
0.000704031
0.00070404
0.00070405
0.00070406
0.00070407
0.000704081
0.000704092
0.000704103
0.000704113
0.000704124
0.000704134
0.000704143
0.000704149
0.000704152
0.000704147
0.000704129
0.000704094
0.000704055
0.000704048
0.000707781
0.000707853
0.000707688
0.000707408
0.000707066
0.000706698
0.000706331
0.000705984
0.000705666
0.000705384
0.000705137
0.000704927
0.000704749
0.0007046
0.000704478
0.000704379
0.000704298
0.000704233
0.000704182
0.000704141
0.000704108
0.000704082
0.000704061
0.000704043
0.000704028
0.000704016
0.000704005
0.000703996
0.000703988
0.000703981
0.000703974
0.000703969
0.000703964
0.000703961
0.000703958
0.000703956
0.000703954
0.000703954
0.000703954
0.000703955
0.000703957
0.000703959
0.000703963
0.000703967
0.000703971
0.000703976
0.000703982
0.000703989
0.000703996
0.000704005
0.000704013
0.000704023
0.000704032
0.000704043
0.000704054
0.000704065
0.000704077
0.000704088
0.0007041
0.000704111
0.000704122
0.000704133
0.000704142
0.00070415
0.000704153
0.000704148
0.00070413
0.000704096
0.000704056
0.000704049
0.000706764
0.000706828
0.000706729
0.000706549
0.000706321
0.000706068
0.000705809
0.000705558
0.000705323
0.00070511
0.000704921
0.000704756
0.000704615
0.000704496
0.000704396
0.000704314
0.000704246
0.000704192
0.000704147
0.000704111
0.000704082
0.000704058
0.000704039
0.000704022
0.000704008
0.000703996
0.000703986
0.000703976
0.000703968
0.000703961
0.000703955
0.000703949
0.000703945
0.000703941
0.000703939
0.000703937
0.000703936
0.000703935
0.000703936
0.000703938
0.00070394
0.000703943
0.000703946
0.000703951
0.000703956
0.000703962
0.000703969
0.000703976
0.000703985
0.000703993
0.000704003
0.000704013
0.000704024
0.000704035
0.000704047
0.000704059
0.000704072
0.000704084
0.000704097
0.000704109
0.000704121
0.000704132
0.000704142
0.00070415
0.000704154
0.000704149
0.000704132
0.000704097
0.000704058
0.000704051
0.000706066
0.00070612
0.000706061
0.000705942
0.000705785
0.000705606
0.000705419
0.000705234
0.000705058
0.000704895
0.000704748
0.000704618
0.000704505
0.000704409
0.000704327
0.000704258
0.000704202
0.000704155
0.000704116
0.000704084
0.000704058
0.000704036
0.000704018
0.000704002
0.000703989
0.000703977
0.000703966
0.000703957
0.000703949
0.000703941
0.000703935
0.00070393
0.000703925
0.000703922
0.000703919
0.000703918
0.000703917
0.000703917
0.000703918
0.000703919
0.000703922
0.000703926
0.00070393
0.000703935
0.000703941
0.000703947
0.000703955
0.000703963
0.000703972
0.000703982
0.000703993
0.000704004
0.000704015
0.000704028
0.000704041
0.000704054
0.000704067
0.00070408
0.000704094
0.000704107
0.000704119
0.000704131
0.000704142
0.00070415
0.000704154
0.000704151
0.000704133
0.000704099
0.00070406
0.000704053
0.000705574
0.000705619
0.000705584
0.000705504
0.000705393
0.000705263
0.000705125
0.000704986
0.000704852
0.000704726
0.00070461
0.000704507
0.000704416
0.000704337
0.000704269
0.000704211
0.000704163
0.000704122
0.000704088
0.00070406
0.000704036
0.000704016
0.000703998
0.000703983
0.000703969
0.000703958
0.000703947
0.000703938
0.000703929
0.000703922
0.000703916
0.00070391
0.000703906
0.000703902
0.0007039
0.000703898
0.000703898
0.000703898
0.000703899
0.000703901
0.000703904
0.000703908
0.000703913
0.000703919
0.000703925
0.000703932
0.000703941
0.00070395
0.00070396
0.00070397
0.000703982
0.000703994
0.000704007
0.00070402
0.000704034
0.000704048
0.000704062
0.000704076
0.00070409
0.000704104
0.000704117
0.00070413
0.000704141
0.00070415
0.000704155
0.000704152
0.000704135
0.000704101
0.000704062
0.000704055
0.000705219
0.000705256
0.000705236
0.000705182
0.000705102
0.000705006
0.000704902
0.000704796
0.000704691
0.000704592
0.000704501
0.000704417
0.000704343
0.000704277
0.000704221
0.000704172
0.00070413
0.000704094
0.000704064
0.000704038
0.000704015
0.000703996
0.000703979
0.000703964
0.000703951
0.000703939
0.000703928
0.000703919
0.00070391
0.000703903
0.000703897
0.000703891
0.000703887
0.000703883
0.000703881
0.000703879
0.000703879
0.000703879
0.000703881
0.000703883
0.000703886
0.000703891
0.000703896
0.000703902
0.000703909
0.000703917
0.000703926
0.000703936
0.000703947
0.000703958
0.000703971
0.000703984
0.000703997
0.000704012
0.000704026
0.000704041
0.000704057
0.000704072
0.000704087
0.000704102
0.000704116
0.000704129
0.000704141
0.00070415
0.000704156
0.000704153
0.000704136
0.000704103
0.000704064
0.000704057
0.000704959
0.000704989
0.000704979
0.000704942
0.000704884
0.000704812
0.000704732
0.000704649
0.000704567
0.000704488
0.000704414
0.000704345
0.000704284
0.000704229
0.00070418
0.000704138
0.000704101
0.000704069
0.000704042
0.000704018
0.000703996
0.000703978
0.000703961
0.000703946
0.000703933
0.000703921
0.00070391
0.000703901
0.000703892
0.000703884
0.000703878
0.000703872
0.000703868
0.000703864
0.000703862
0.000703861
0.00070386
0.000703861
0.000703862
0.000703865
0.000703869
0.000703873
0.000703879
0.000703886
0.000703893
0.000703902
0.000703912
0.000703922
0.000703934
0.000703946
0.00070396
0.000703974
0.000703988
0.000704003
0.000704019
0.000704035
0.000704051
0.000704067
0.000704083
0.000704099
0.000704114
0.000704128
0.000704141
0.000704151
0.000704156
0.000704154
0.000704138
0.000704104
0.000704066
0.00070406
0.000704767
0.00070479
0.000704788
0.000704763
0.00070472
0.000704664
0.000704602
0.000704536
0.00070447
0.000704406
0.000704345
0.000704288
0.000704236
0.000704189
0.000704147
0.00070411
0.000704077
0.000704048
0.000704022
0.000703999
0.000703979
0.000703961
0.000703944
0.000703929
0.000703916
0.000703904
0.000703893
0.000703883
0.000703874
0.000703867
0.00070386
0.000703854
0.00070385
0.000703846
0.000703844
0.000703842
0.000703842
0.000703843
0.000703844
0.000703847
0.000703851
0.000703856
0.000703862
0.000703869
0.000703878
0.000703887
0.000703897
0.000703909
0.000703921
0.000703934
0.000703948
0.000703963
0.000703979
0.000703995
0.000704012
0.000704029
0.000704046
0.000704063
0.00070408
0.000704096
0.000704112
0.000704127
0.00070414
0.000704151
0.000704157
0.000704155
0.000704139
0.000704106
0.000704068
0.000704062
0.000704623
0.000704642
0.000704644
0.000704628
0.000704596
0.000704552
0.000704502
0.000704449
0.000704395
0.000704341
0.00070429
0.000704242
0.000704197
0.000704157
0.000704119
0.000704086
0.000704056
0.000704029
0.000704004
0.000703982
0.000703963
0.000703945
0.000703928
0.000703913
0.0007039
0.000703888
0.000703876
0.000703866
0.000703857
0.00070385
0.000703843
0.000703837
0.000703832
0.000703829
0.000703826
0.000703825
0.000703824
0.000703825
0.000703827
0.00070383
0.000703834
0.000703839
0.000703846
0.000703853
0.000703862
0.000703872
0.000703883
0.000703895
0.000703908
0.000703922
0.000703937
0.000703953
0.00070397
0.000703987
0.000704005
0.000704023
0.000704041
0.000704059
0.000704076
0.000704094
0.00070411
0.000704126
0.00070414
0.000704151
0.000704158
0.000704156
0.000704141
0.000704108
0.00070407
0.000704064
0.000704515
0.00070453
0.000704536
0.000704526
0.000704501
0.000704466
0.000704425
0.000704381
0.000704336
0.000704291
0.000704247
0.000704205
0.000704166
0.00070413
0.000704096
0.000704065
0.000704037
0.000704012
0.000703988
0.000703967
0.000703948
0.00070393
0.000703913
0.000703899
0.000703885
0.000703872
0.000703861
0.000703851
0.000703842
0.000703833
0.000703826
0.000703821
0.000703816
0.000703812
0.000703809
0.000703808
0.000703807
0.000703808
0.00070381
0.000703813
0.000703817
0.000703823
0.00070383
0.000703838
0.000703847
0.000703857
0.000703869
0.000703882
0.000703896
0.000703911
0.000703926
0.000703943
0.000703961
0.000703979
0.000703997
0.000704016
0.000704035
0.000704054
0.000704073
0.000704091
0.000704109
0.000704125
0.000704139
0.000704151
0.000704159
0.000704158
0.000704143
0.00070411
0.000704072
0.000704066
0.000704433
0.000704445
0.000704454
0.000704449
0.000704429
0.000704401
0.000704367
0.000704329
0.00070429
0.000704251
0.000704213
0.000704176
0.000704141
0.000704107
0.000704076
0.000704048
0.000704021
0.000703996
0.000703974
0.000703953
0.000703934
0.000703916
0.0007039
0.000703884
0.000703871
0.000703858
0.000703846
0.000703836
0.000703827
0.000703818
0.000703811
0.000703805
0.0007038
0.000703796
0.000703793
0.000703792
0.000703791
0.000703792
0.000703794
0.000703797
0.000703801
0.000703807
0.000703814
0.000703823
0.000703832
0.000703843
0.000703855
0.000703869
0.000703883
0.000703899
0.000703916
0.000703933
0.000703952
0.000703971
0.00070399
0.00070401
0.00070403
0.00070405
0.00070407
0.000704089
0.000704107
0.000704124
0.000704139
0.000704152
0.00070416
0.000704159
0.000704144
0.000704112
0.000704074
0.000704068
0.00070437
0.000704381
0.000704392
0.00070439
0.000704374
0.000704351
0.000704321
0.000704288
0.000704254
0.00070422
0.000704185
0.000704152
0.000704119
0.000704089
0.000704059
0.000704032
0.000704007
0.000703983
0.000703961
0.00070394
0.000703921
0.000703903
0.000703887
0.000703871
0.000703857
0.000703845
0.000703833
0.000703822
0.000703813
0.000703804
0.000703797
0.00070379
0.000703785
0.000703781
0.000703778
0.000703776
0.000703776
0.000703776
0.000703778
0.000703782
0.000703786
0.000703792
0.000703799
0.000703808
0.000703818
0.00070383
0.000703842
0.000703856
0.000703872
0.000703888
0.000703905
0.000703924
0.000703943
0.000703963
0.000703984
0.000704004
0.000704025
0.000704046
0.000704066
0.000704086
0.000704105
0.000704123
0.000704139
0.000704152
0.00070416
0.00070416
0.000704146
0.000704114
0.000704076
0.00070407
0.000704322
0.000704331
0.000704344
0.000704344
0.000704332
0.000704311
0.000704285
0.000704256
0.000704226
0.000704194
0.000704163
0.000704132
0.000704102
0.000704073
0.000704045
0.000704019
0.000703994
0.00070397
0.000703949
0.000703928
0.000703909
0.000703891
0.000703875
0.00070386
0.000703845
0.000703832
0.00070382
0.000703809
0.0007038
0.000703791
0.000703783
0.000703777
0.000703771
0.000703767
0.000703764
0.000703762
0.000703761
0.000703762
0.000703764
0.000703767
0.000703772
0.000703778
0.000703786
0.000703794
0.000703805
0.000703817
0.00070383
0.000703844
0.00070386
0.000703877
0.000703896
0.000703915
0.000703935
0.000703956
0.000703977
0.000703999
0.00070402
0.000704042
0.000704063
0.000704084
0.000704103
0.000704122
0.000704138
0.000704152
0.000704161
0.000704161
0.000704147
0.000704115
0.000704078
0.000704072
0.000704285
0.000704292
0.000704306
0.000704309
0.000704299
0.000704281
0.000704257
0.000704231
0.000704203
0.000704174
0.000704144
0.000704115
0.000704087
0.000704059
0.000704032
0.000704007
0.000703982
0.000703959
0.000703938
0.000703918
0.000703898
0.000703881
0.000703864
0.000703849
0.000703834
0.000703821
0.000703809
0.000703798
0.000703788
0.000703779
0.000703771
0.000703764
0.000703759
0.000703754
0.000703751
0.000703749
0.000703748
0.000703749
0.00070375
0.000703754
0.000703758
0.000703765
0.000703772
0.000703782
0.000703792
0.000703805
0.000703818
0.000703833
0.00070385
0.000703867
0.000703886
0.000703906
0.000703927
0.000703949
0.000703971
0.000703993
0.000704016
0.000704038
0.00070406
0.000704081
0.000704102
0.000704121
0.000704138
0.000704152
0.000704161
0.000704162
0.000704148
0.000704117
0.00070408
0.000704074
0.000704255
0.000704262
0.000704277
0.000704281
0.000704273
0.000704256
0.000704235
0.00070421
0.000704184
0.000704157
0.000704129
0.000704101
0.000704074
0.000704047
0.000704021
0.000703996
0.000703972
0.000703949
0.000703928
0.000703908
0.000703889
0.000703871
0.000703854
0.000703839
0.000703824
0.000703811
0.000703798
0.000703787
0.000703777
0.000703768
0.00070376
0.000703753
0.000703747
0.000703742
0.000703739
0.000703737
0.000703736
0.000703736
0.000703738
0.000703741
0.000703746
0.000703752
0.00070376
0.00070377
0.000703781
0.000703793
0.000703807
0.000703823
0.00070384
0.000703858
0.000703878
0.000703898
0.00070392
0.000703942
0.000703965
0.000703988
0.000704011
0.000704034
0.000704057
0.000704079
0.0007041
0.00070412
0.000704137
0.000704152
0.000704162
0.000704163
0.000704149
0.000704118
0.000704081
0.000704075
0.000704231
0.000704237
0.000704253
0.000704259
0.000704252
0.000704237
0.000704216
0.000704193
0.000704168
0.000704142
0.000704115
0.000704089
0.000704062
0.000704036
0.00070401
0.000703986
0.000703962
0.00070394
0.000703919
0.000703898
0.000703879
0.000703862
0.000703845
0.000703829
0.000703815
0.000703801
0.000703789
0.000703777
0.000703767
0.000703757
0.000703749
0.000703742
0.000703736
0.000703731
0.000703727
0.000703725
0.000703724
0.000703724
0.000703726
0.000703729
0.000703734
0.000703741
0.000703749
0.000703758
0.000703769
0.000703782
0.000703797
0.000703813
0.00070383
0.000703849
0.000703869
0.00070389
0.000703912
0.000703935
0.000703959
0.000703982
0.000704006
0.00070403
0.000704054
0.000704076
0.000704098
0.000704118
0.000704136
0.000704152
0.000704162
0.000704163
0.00070415
0.000704119
0.000704082
0.000704076
0.000704211
0.000704216
0.000704233
0.00070424
0.000704234
0.000704219
0.0007042
0.000704178
0.000704154
0.000704129
0.000704103
0.000704077
0.000704051
0.000704025
0.000704
0.000703976
0.000703953
0.00070393
0.000703909
0.000703889
0.00070387
0.000703852
0.000703835
0.00070382
0.000703805
0.000703791
0.000703779
0.000703767
0.000703757
0.000703747
0.000703739
0.000703731
0.000703725
0.00070372
0.000703716
0.000703714
0.000703712
0.000703713
0.000703714
0.000703718
0.000703722
0.000703729
0.000703737
0.000703747
0.000703758
0.000703771
0.000703786
0.000703802
0.00070382
0.000703839
0.00070386
0.000703882
0.000703904
0.000703928
0.000703952
0.000703976
0.000704001
0.000704025
0.000704049
0.000704072
0.000704095
0.000704115
0.000704134
0.00070415
0.00070416
0.000704162
0.000704149
0.000704118
0.000704081
0.000704075
0.000704192
0.000704197
0.000704214
0.000704221
0.000704216
0.000704202
0.000704184
0.000704162
0.000704139
0.000704114
0.000704089
0.000704064
0.000704038
0.000704013
0.000703988
0.000703964
0.000703941
0.000703919
0.000703898
0.000703878
0.000703859
0.000703841
0.000703824
0.000703808
0.000703793
0.00070378
0.000703767
0.000703755
0.000703744
0.000703735
0.000703726
0.000703719
0.000703712
0.000703707
0.000703703
0.0007037
0.000703699
0.000703699
0.000703701
0.000703704
0.000703709
0.000703715
0.000703723
0.000703733
0.000703745
0.000703758
0.000703773
0.00070379
0.000703808
0.000703828
0.000703849
0.000703871
0.000703894
0.000703918
0.000703943
0.000703968
0.000703993
0.000704018
0.000704042
0.000704066
0.000704088
0.00070411
0.000704129
0.000704145
0.000704155
0.000704157
0.000704144
0.000704113
0.000704077
0.000704071
0.000704173
0.000704176
0.000704193
0.0007042
0.000704194
0.000704181
0.000704163
0.000704142
0.000704119
0.000704095
0.000704071
0.000704045
0.00070402
0.000703995
0.000703971
0.000703947
0.000703924
0.000703902
0.000703881
0.000703861
0.000703842
0.000703824
0.000703807
0.000703791
0.000703776
0.000703762
0.00070375
0.000703738
0.000703727
0.000703717
0.000703708
0.000703701
0.000703694
0.000703689
0.000703685
0.000703682
0.00070368
0.000703681
0.000703682
0.000703685
0.00070369
0.000703696
0.000703705
0.000703715
0.000703726
0.00070374
0.000703755
0.000703772
0.000703791
0.000703811
0.000703832
0.000703854
0.000703878
0.000703902
0.000703927
0.000703953
0.000703978
0.000704004
0.000704029
0.000704053
0.000704076
0.000704097
0.000704117
0.000704133
0.000704144
0.000704146
0.000704133
0.000704102
0.000704065
0.00070406
0.000704152
0.000704151
0.000704164
0.00070417
0.000704164
0.000704151
0.000704133
0.000704113
0.00070409
0.000704067
0.000704042
0.000704017
0.000703992
0.000703967
0.000703943
0.000703919
0.000703896
0.000703874
0.000703853
0.000703833
0.000703814
0.000703796
0.000703779
0.000703763
0.000703748
0.000703734
0.000703721
0.000703709
0.000703699
0.000703689
0.00070368
0.000703672
0.000703665
0.00070366
0.000703656
0.000703653
0.000703651
0.000703651
0.000703653
0.000703656
0.000703661
0.000703667
0.000703676
0.000703686
0.000703698
0.000703711
0.000703727
0.000703744
0.000703762
0.000703783
0.000703804
0.000703827
0.000703851
0.000703876
0.000703901
0.000703927
0.000703953
0.000703978
0.000704004
0.000704028
0.000704051
0.000704073
0.000704093
0.000704109
0.00070412
0.000704122
0.00070411
0.000704079
0.000704042
0.000704036
0.000704129
0.000704122
0.000704128
0.000704129
0.000704122
0.000704109
0.000704091
0.000704071
0.000704048
0.000704024
0.000704
0.000703975
0.00070395
0.000703926
0.000703901
0.000703878
0.000703855
0.000703833
0.000703812
0.000703791
0.000703772
0.000703754
0.000703737
0.000703721
0.000703706
0.000703692
0.00070368
0.000703668
0.000703657
0.000703647
0.000703638
0.00070363
0.000703623
0.000703618
0.000703614
0.000703611
0.000703609
0.000703609
0.000703611
0.000703614
0.000703619
0.000703625
0.000703634
0.000703644
0.000703656
0.00070367
0.000703685
0.000703702
0.000703721
0.000703742
0.000703763
0.000703786
0.00070381
0.000703835
0.000703861
0.000703887
0.000703913
0.000703939
0.000703964
0.000703989
0.000704012
0.000704034
0.000704054
0.00070407
0.000704082
0.000704084
0.000704071
0.00070404
0.000704004
0.000703999
0.000704107
0.000704097
0.000704092
0.000704087
0.000704078
0.000704064
0.000704046
0.000704026
0.000704004
0.00070398
0.000703956
0.000703931
0.000703906
0.000703882
0.000703858
0.000703834
0.000703811
0.000703789
0.000703768
0.000703748
0.000703729
0.000703711
0.000703694
0.000703678
0.000703663
0.000703649
0.000703636
0.000703625
0.000703614
0.000703604
0.000703595
0.000703587
0.000703581
0.000703575
0.000703571
0.000703569
0.000703567
0.000703567
0.000703569
0.000703572
0.000703577
0.000703584
0.000703592
0.000703602
0.000703614
0.000703628
0.000703644
0.000703661
0.00070368
0.0007037
0.000703722
0.000703745
0.000703769
0.000703794
0.00070382
0.000703846
0.000703872
0.000703898
0.000703923
0.000703948
0.000703971
0.000703993
0.000704013
0.000704029
0.00070404
0.000704042
0.000704029
0.000703999
0.000703964
0.000703962
0.000704076
0.000704074
0.000704066
0.000704059
0.000704048
0.000704034
0.000704018
0.000703998
0.000703977
0.000703955
0.000703932
0.000703909
0.000703885
0.000703862
0.000703838
0.000703816
0.000703794
0.000703773
0.000703753
0.000703734
0.000703715
0.000703698
0.000703682
0.000703667
0.000703652
0.000703639
0.000703627
0.000703615
0.000703605
0.000703595
0.000703587
0.00070358
0.000703573
0.000703568
0.000703564
0.000703562
0.000703561
0.000703561
0.000703563
0.000703566
0.000703571
0.000703578
0.000703586
0.000703597
0.000703609
0.000703623
0.000703638
0.000703655
0.000703674
0.000703695
0.000703717
0.00070374
0.000703764
0.000703789
0.000703815
0.000703841
0.000703867
0.000703893
0.000703918
0.000703943
0.000703966
0.000703988
0.000704008
0.000704024
0.000704035
0.000704037
0.000704024
0.000703994
0.000703962
0.000703965
)
;
