/*--------------------------------*- C++ -*----------------------------------*\
| =========                 |                                                 |
| \\      /  F ield         | OpenFOAM: The Open Source CFD Toolbox           |
|  \\    /   O peration     | Version:  v1606+                                |
|   \\  /    A nd           | Web:      www.OpenFOAM.com                      |
|    \\/     M anipulation  |                                                 |
\*---------------------------------------------------------------------------*/
FoamFile
{
    version     2.0;
    format      ascii;
    class       volVectorField;
    location    "0.0032";
    object      U;
}
// * * * * * * * * * * * * * * * * * * * * * * * * * * * * * * * * * * * * * //

dimensions      [0 1 -1 0 0 0 0];

internalField   nonuniform List<vector> 
2450
(
(0.104713 0.112076 0)
(-0.157512 0.047508 0)
(0.154999 0.0362197 0)
(-0.400228 -0.111101 0)
(0.83931 -0.0070919 0)
(1.57914 0.0907892 0)
(1.46913 0.112163 0)
(1.31577 0.0922961 0)
(1.20745 0.0708018 0)
(1.0906 0.0580776 0)
(0.986263 0.0478146 0)
(0.896654 0.0398396 0)
(0.82076 0.0336716 0)
(0.756589 0.0287933 0)
(0.701434 0.0248828 0)
(0.653593 0.0217096 0)
(0.611848 0.019109 0)
(0.575249 0.0169535 0)
(0.54297 0.0151511 0)
(0.51432 0.0136265 0)
(0.488648 0.0123241 0)
(0.465392 0.0111987 0)
(0.444044 0.0102143 0)
(0.424143 0.00934389 0)
(0.405328 0.00856361 0)
(0.387293 0.00785793 0)
(0.369838 0.00721483 0)
(0.352821 0.00662247 0)
(0.336126 0.00607517 0)
(0.319725 0.00556717 0)
(0.303614 0.00509444 0)
(0.287787 0.00465433 0)
(0.272272 0.00424375 0)
(0.25709 0.00386121 0)
(0.242268 0.00350531 0)
(0.227826 0.00317302 0)
(0.213766 0.00286415 0)
(0.200102 0.0025773 0)
(0.18683 0.00231169 0)
(0.173953 0.00206325 0)
(0.161469 0.00183073 0)
(0.149372 0.00161663 0)
(0.137659 0.0014184 0)
(0.126338 0.00123645 0)
(0.115414 0.00106809 0)
(0.104886 0.000914983 0)
(0.0947727 0.000772775 0)
(0.0850812 0.000644701 0)
(0.0758361 0.000529063 0)
(0.0670541 0.000425141 0)
(0.0587527 0.000332901 0)
(0.0509551 0.000250327 0)
(0.0436729 0.000177957 0)
(0.0369342 0.000114822 0)
(0.030756 6.00059e-05 0)
(0.0251428 1.33746e-05 0)
(0.0201064 -2.54242e-05 0)
(0.0156492 -5.70484e-05 0)
(0.0117765 -8.24245e-05 0)
(0.00847715 -0.000103228 0)
(0.0057283 -0.000118788 0)
(0.00351252 -0.000130157 0)
(0.00179858 -0.000139048 0)
(0.000547878 -0.000145805 0)
(-0.000284438 -0.00014984 0)
(-0.000752507 -0.000150378 0)
(-0.0009183 -0.000149557 0)
(-0.000842878 -0.000147369 0)
(-0.000567831 -0.000140123 0)
(-0.000194141 -0.000155966 0)
(0.0386589 -0.112513 0)
(-0.180395 -0.173477 0)
(0.0502321 0.195098 0)
(-0.382419 -0.108383 0)
(0.897426 0.317049 0)
(1.57667 0.361268 0)
(1.44152 0.308238 0)
(1.27394 0.264693 0)
(1.17343 0.20995 0)
(1.06737 0.171314 0)
(0.967885 0.14115 0)
(0.882431 0.117822 0)
(0.809667 0.0997387 0)
(0.747771 0.085415 0)
(0.69433 0.0739104 0)
(0.647805 0.0645562 0)
(0.607082 0.0568761 0)
(0.571284 0.0504997 0)
(0.539638 0.0451599 0)
(0.51149 0.0406376 0)
(0.486218 0.0367697 0)
(0.463281 0.0334249 0)
(0.442188 0.0304956 0)
(0.422492 0.0279027 0)
(0.403842 0.0255779 0)
(0.385945 0.0234735 0)
(0.368602 0.0215543 0)
(0.351682 0.0197859 0)
(0.335071 0.0181512 0)
(0.318744 0.0166345 0)
(0.302701 0.0152222 0)
(0.286936 0.0139067 0)
(0.271479 0.012679 0)
(0.256351 0.011535 0)
(0.241579 0.0104704 0)
(0.227184 0.0094764 0)
(0.213169 0.00855165 0)
(0.199548 0.007691 0)
(0.186315 0.00689019 0)
(0.173471 0.00614714 0)
(0.161021 0.00545578 0)
(0.148958 0.00481674 0)
(0.137278 0.00422412 0)
(0.125987 0.00367963 0)
(0.115092 0.00317535 0)
(0.10459 0.00271342 0)
(0.0945013 0.00229147 0)
(0.0848365 0.00190797 0)
(0.0756155 0.00156172 0)
(0.0668569 0.00124943 0)
(0.058577 0.000969578 0)
(0.0507993 0.000721491 0)
(0.0435366 0.000503232 0)
(0.0368154 0.000312859 0)
(0.0306538 0.000148368 0)
(0.0250566 8.82503e-06 0)
(0.0200353 -0.000107497 0)
(0.0155915 -0.000202663 0)
(0.0117295 -0.000279732 0)
(0.00844001 -0.000342223 0)
(0.0057006 -0.000390031 0)
(0.00349138 -0.000426034 0)
(0.00178161 -0.000452348 0)
(0.000534684 -0.000469735 0)
(-0.000293664 -0.000480241 0)
(-0.000760816 -0.000484968 0)
(-0.0009282 -0.000485066 0)
(-0.000844365 -0.000487586 0)
(-0.000572683 -0.000477302 0)
(-0.000214674 -0.00047401 0)
(-0.0220897 0.230161 0)
(0.13061 0.0539139 0)
(0.309797 0.301261 0)
(0.177527 0.0501898 0)
(1.13787 0.75883 0)
(1.45027 0.605655 0)
(1.31868 0.485472 0)
(1.21697 0.406933 0)
(1.11507 0.334353 0)
(1.0217 0.274011 0)
(0.932772 0.227213 0)
(0.855226 0.190352 0)
(0.788349 0.161731 0)
(0.730761 0.138981 0)
(0.680575 0.120622 0)
(0.636559 0.105625 0)
(0.597792 0.0932613 0)
(0.563534 0.082958 0)
(0.533108 0.0742995 0)
(0.505931 0.0669451 0)
(0.481437 0.0606387 0)
(0.459119 0.0551741 0)
(0.438523 0.0503763 0)
(0.419226 0.04612 0)
(0.4009 0.0422987 0)
(0.38327 0.0388339 0)
(0.36615 0.0356696 0)
(0.349418 0.0327516 0)
(0.332974 0.0300518 0)
(0.316795 0.027548 0)
(0.300886 0.0252141 0)
(0.285243 0.0230386 0)
(0.2699 0.0210086 0)
(0.254881 0.019116 0)
(0.240209 0.0173538 0)
(0.225906 0.0157083 0)
(0.21198 0.0141764 0)
(0.19844 0.0127503 0)
(0.185286 0.0114205 0)
(0.172519 0.0101895 0)
(0.160138 0.00904714 0)
(0.14814 0.00798912 0)
(0.136522 0.00700728 0)
(0.12529 0.00610227 0)
(0.114448 0.00526972 0)
(0.104003 0.00450341 0)
(0.093968 0.00380615 0)
(0.0843524 0.00316978 0)
(0.0751785 0.0025957 0)
(0.0664631 0.00207703 0)
(0.058226 0.00161089 0)
(0.0504901 0.0011992 0)
(0.0432657 0.000836638 0)
(0.0365807 0.000520829 0)
(0.0304534 0.000248697 0)
(0.0248884 1.76211e-05 0)
(0.0198963 -0.000175766 0)
(0.0154782 -0.000335225 0)
(0.0116381 -0.000464054 0)
(0.00836794 -0.000565889 0)
(0.00564545 -0.000644238 0)
(0.00345087 -0.000702876 0)
(0.00175496 -0.000744643 0)
(0.000518938 -0.000771304 0)
(-0.00030277 -0.000787365 0)
(-0.000763676 -0.00079525 0)
(-0.000931193 -0.000794046 0)
(-0.000847878 -0.000795511 0)
(-0.000567476 -0.000795429 0)
(-0.000210866 -0.000785927 0)
(-0.203739 -0.234705 0)
(-0.240963 -0.264988 0)
(0.0313504 0.324001 0)
(0.778683 0.758875 0)
(1.22811 0.989015 0)
(1.27681 0.775297 0)
(1.20525 0.640116 0)
(1.12493 0.525199 0)
(1.04076 0.435879 0)
(0.960012 0.360218 0)
(0.884188 0.301138 0)
(0.816958 0.254326 0)
(0.758309 0.217442 0)
(0.70667 0.187814 0)
(0.660978 0.163705 0)
(0.620447 0.14387 0)
(0.584416 0.127415 0)
(0.552323 0.113629 0)
(0.523625 0.101986 0)
(0.497829 0.0920576 0)
(0.474447 0.0835094 0)
(0.453019 0.0760774 0)
(0.433134 0.0695308 0)
(0.414414 0.0637052 0)
(0.396555 0.058464 0)
(0.379314 0.0537012 0)
(0.362519 0.0493432 0)
(0.346062 0.0453207 0)
(0.329866 0.0415938 0)
(0.313905 0.0381355 0)
(0.29819 0.0349097 0)
(0.282729 0.0319013 0)
(0.267555 0.0290958 0)
(0.252696 0.0264768 0)
(0.238171 0.0240367 0)
(0.224006 0.0217591 0)
(0.210211 0.0196375 0)
(0.196792 0.0176634 0)
(0.183755 0.0158231 0)
(0.171099 0.0141157 0)
(0.158822 0.0125288 0)
(0.14692 0.01106 0)
(0.135393 0.00969782 0)
(0.124251 0.00844196 0)
(0.113495 0.00728574 0)
(0.103128 0.00622414 0)
(0.0931702 0.00525348 0)
(0.0836287 0.0043694 0)
(0.0745257 0.00357051 0)
(0.0658752 0.00285006 0)
(0.0577024 0.00220488 0)
(0.0500284 0.00163342 0)
(0.0428617 0.00113094 0)
(0.036231 0.00069431 0)
(0.030154 0.000317923 0)
(0.0246356 -2.1196e-06 0)
(0.0196858 -0.000270139 0)
(0.0153064 -0.000490963 0)
(0.0115019 -0.000667977 0)
(0.00826269 -0.000807092 0)
(0.0055663 -0.000913251 0)
(0.00339337 -0.000991189 0)
(0.00171518 -0.001046 0)
(0.000493425 -0.00108262 0)
(-0.000316918 -0.00110454 0)
(-0.00076787 -0.00111455 0)
(-0.000930153 -0.00111593 0)
(-0.000848742 -0.00111425 0)
(-0.000566399 -0.00111539 0)
(-0.000207319 -0.00110973 0)
(-0.0317068 0.905884 0)
(0.33259 1.00106 0)
(0.730853 1.18998 0)
(0.962685 1.24548 0)
(1.09571 1.08414 0)
(1.10057 0.893173 0)
(1.06322 0.739483 0)
(1.01143 0.613044 0)
(0.949551 0.510618 0)
(0.886805 0.427356 0)
(0.826779 0.36078 0)
(0.77152 0.307967 0)
(0.721852 0.265439 0)
(0.677037 0.230762 0)
(0.63664 0.202227 0)
(0.600274 0.178533 0)
(0.567553 0.158715 0)
(0.538106 0.142002 0)
(0.511537 0.127801 0)
(0.487454 0.115631 0)
(0.465455 0.105097 0)
(0.44514 0.0958945 0)
(0.426149 0.0877573 0)
(0.408158 0.0804891 0)
(0.390894 0.0739311 0)
(0.374148 0.0679554 0)
(0.357768 0.0624744 0)
(0.341667 0.0574114 0)
(0.325787 0.0527119 0)
(0.31011 0.048344 0)
(0.29465 0.0442688 0)
(0.279427 0.0404654 0)
(0.264474 0.0369182 0)
(0.249821 0.0336035 0)
(0.23549 0.0305127 0)
(0.221506 0.0276305 0)
(0.207883 0.0249424 0)
(0.194625 0.02244 0)
(0.181738 0.0201072 0)
(0.169224 0.0179398 0)
(0.157083 0.015924 0)
(0.145309 0.0140567 0)
(0.133905 0.0123264 0)
(0.122878 0.0107314 0)
(0.112231 0.00925791 0)
(0.101971 0.00790675 0)
(0.0921142 0.00667016 0)
(0.0826705 0.00554555 0)
(0.0736605 0.00452605 0)
(0.0650989 0.00360831 0)
(0.0570109 0.00278883 0)
(0.0494178 0.00206103 0)
(0.0423283 0.00142112 0)
(0.0357695 0.000865919 0)
(0.0297588 0.000387202 0)
(0.0243022 -1.9569e-05 0)
(0.0194093 -0.000359599 0)
(0.0150821 -0.000638533 0)
(0.0113235 -0.000861956 0)
(0.00812414 -0.0010382 0)
(0.00546273 -0.00117218 0)
(0.00331934 -0.0012702 0)
(0.00166455 -0.00133835 0)
(0.000461193 -0.00138351 0)
(-0.00033416 -0.00141016 0)
(-0.000774856 -0.00142273 0)
(-0.000931052 -0.00142663 0)
(-0.000847759 -0.00142584 0)
(-0.000562612 -0.00142534 0)
(-0.000203275 -0.00142048 0)
(0.0960217 1.58964 0)
(0.361523 1.59961 0)
(0.595424 1.45127 0)
(0.760613 1.30276 0)
(0.884365 1.10903 0)
(0.93118 0.931752 0)
(0.922478 0.786141 0)
(0.894924 0.662285 0)
(0.854713 0.559766 0)
(0.810082 0.475538 0)
(0.764778 0.406753 0)
(0.721623 0.350969 0)
(0.681117 0.305163 0)
(0.643468 0.267241 0)
(0.608757 0.235635 0)
(0.576941 0.209114 0)
(0.547889 0.186724 0)
(0.521411 0.167698 0)
(0.497255 0.151413 0)
(0.475126 0.137371 0)
(0.45471 0.125145 0)
(0.435678 0.114402 0)
(0.417727 0.104861 0)
(0.400586 0.0963019 0)
(0.38402 0.0885493 0)
(0.367856 0.0814643 0)
(0.351973 0.074947 0)
(0.336298 0.0689182 0)
(0.320797 0.0633127 0)
(0.30546 0.0580933 0)
(0.29031 0.0532223 0)
(0.275377 0.0486717 0)
(0.260692 0.0444229 0)
(0.246289 0.0404525 0)
(0.232196 0.0367461 0)
(0.218434 0.0332894 0)
(0.205019 0.0300624 0)
(0.191956 0.0270564 0)
(0.179253 0.0242531 0)
(0.166914 0.0216455 0)
(0.154938 0.0192215 0)
(0.143321 0.016972 0)
(0.132067 0.0148877 0)
(0.121182 0.0129626 0)
(0.11067 0.0111855 0)
(0.100541 0.00955352 0)
(0.0908089 0.00806 0)
(0.0814848 0.00670034 0)
(0.0725888 0.00546924 0)
(0.0641384 0.00435988 0)
(0.0561556 0.0033693 0)
(0.0486613 0.00248897 0)
(0.0416673 0.00171473 0)
(0.0351978 0.00104266 0)
(0.0292693 0.000463475 0)
(0.0238896 -2.83938e-05 0)
(0.0190677 -0.000439386 0)
(0.0148047 -0.000776413 0)
(0.0111028 -0.00104629 0)
(0.00795301 -0.00125902 0)
(0.00533477 -0.00142052 0)
(0.00322757 -0.00153873 0)
(0.00160215 -0.001621 0)
(0.000421805 -0.00167478 0)
(-0.000356044 -0.00170663 0)
(-0.000784361 -0.00172243 0)
(-0.000933369 -0.0017281 0)
(-0.000847504 -0.00172822 0)
(-0.000560396 -0.00172741 0)
(-0.000201126 -0.00172442 0)
(0.112014 1.47354 0)
(0.312375 1.43736 0)
(0.488762 1.31718 0)
(0.632748 1.20485 0)
(0.729163 1.0715 0)
(0.778895 0.925418 0)
(0.793458 0.797254 0)
(0.784742 0.684232 0)
(0.762702 0.588088 0)
(0.733734 0.507031 0)
(0.702189 0.439737 0)
(0.669933 0.383632 0)
(0.638131 0.336631 0)
(0.607516 0.297092 0)
(0.578519 0.263685 0)
(0.551369 0.235335 0)
(0.52614 0.211158 0)
(0.502798 0.190437 0)
(0.481212 0.17256 0)
(0.461186 0.15703 0)
(0.442486 0.143423 0)
(0.424856 0.131391 0)
(0.408049 0.120649 0)
(0.391845 0.110965 0)
(0.376055 0.102155 0)
(0.360544 0.0940778 0)
(0.345221 0.086624 0)
(0.330031 0.0797132 0)
(0.314961 0.0732793 0)
(0.300018 0.0672774 0)
(0.285227 0.0616716 0)
(0.270627 0.0564311 0)
(0.256253 0.0515308 0)
(0.242142 0.0469508 0)
(0.228325 0.0426712 0)
(0.214821 0.038675 0)
(0.201649 0.0349429 0)
(0.188814 0.0314603 0)
(0.176326 0.0282156 0)
(0.164191 0.0251948 0)
(0.152408 0.0223847 0)
(0.140974 0.0197728 0)
(0.129894 0.0173517 0)
(0.119175 0.0151124 0)
(0.108821 0.0130447 0)
(0.0988454 0.0111449 0)
(0.0892606 0.00940482 0)
(0.0800796 0.00781881 0)
(0.07132 0.0063834 0)
(0.062999 0.005089 0)
(0.0551402 0.00393232 0)
(0.0477635 0.00290416 0)
(0.0408824 0.00199985 0)
(0.0345187 0.00121391 0)
(0.0286882 0.000536923 0)
(0.0233998 -3.79409e-05 0)
(0.0186617 -0.000518445 0)
(0.0144755 -0.000912867 0)
(0.0108411 -0.00122898 0)
(0.0077501 -0.00147686 0)
(0.00518315 -0.00166534 0)
(0.0031189 -0.00180304 0)
(0.00152847 -0.00189889 0)
(0.000375482 -0.00196137 0)
(-0.000381946 -0.0019981 0)
(-0.00079651 -0.00201663 0)
(-0.000937045 -0.00202372 0)
(-0.000847203 -0.0020242 0)
(-0.000558588 -0.00202276 0)
(-0.000199787 -0.00202026 0)
(0.0870801 1.31359 0)
(0.257463 1.27449 0)
(0.406523 1.21117 0)
(0.525271 1.11906 0)
(0.609588 1.00828 0)
(0.658604 0.894391 0)
(0.681673 0.785523 0)
(0.685828 0.686729 0)
(0.677461 0.599878 0)
(0.661696 0.525258 0)
(0.641369 0.461427 0)
(0.618518 0.40691 0)
(0.594581 0.360348 0)
(0.570527 0.320538 0)
(0.547005 0.286435 0)
(0.524419 0.257149 0)
(0.502994 0.231916 0)
(0.482815 0.210085 0)
(0.46385 0.191092 0)
(0.44599 0.17446 0)
(0.429071 0.159783 0)
(0.412904 0.146716 0)
(0.397301 0.134979 0)
(0.382091 0.124342 0)
(0.367132 0.114621 0)
(0.352325 0.105676 0)
(0.337608 0.0973969 0)
(0.322952 0.0896992 0)
(0.30836 0.0825217 0)
(0.293851 0.0758159 0)
(0.279462 0.0695432 0)
(0.265235 0.0636751 0)
(0.25121 0.0581821 0)
(0.237428 0.0530434 0)
(0.223919 0.0482381 0)
(0.210704 0.0437462 0)
(0.197803 0.0395487 0)
(0.185227 0.0356262 0)
(0.172986 0.0319712 0)
(0.161082 0.028565 0)
(0.149514 0.0253917 0)
(0.138287 0.0224403 0)
(0.127405 0.019702 0)
(0.116874 0.0171667 0)
(0.106701 0.0148248 0)
(0.0969 0.0126717 0)
(0.0874823 0.0106978 0)
(0.078463 0.00889778 0)
(0.0698588 0.0072649 0)
(0.0616873 0.00579289 0)
(0.0539709 0.00447663 0)
(0.0467291 0.00330615 0)
(0.0399773 0.00227636 0)
(0.0337353 0.00138043 0)
(0.0280179 0.000608786 0)
(0.0228347 -4.65319e-05 0)
(0.0181931 -0.000594359 0)
(0.0140945 -0.00104416 0)
(0.010539 -0.00140502 0)
(0.00751676 -0.00168773 0)
(0.00500863 -0.00190283 0)
(0.002994 -0.00205979 0)
(0.00144372 -0.00216905 0)
(0.000322433 -0.00223988 0)
(-0.000411527 -0.0022818 0)
(-0.000810232 -0.00230302 0)
(-0.000941199 -0.00231081 0)
(-0.000846783 -0.00231155 0)
(-0.000556593 -0.00230951 0)
(-0.000198593 -0.00230693 0)
(0.0729296 1.20137 0)
(0.209682 1.17269 0)
(0.330937 1.11523 0)
(0.432253 1.03824 0)
(0.506621 0.946901 0)
(0.557046 0.852845 0)
(0.586083 0.761441 0)
(0.599187 0.676562 0)
(0.601225 0.60038 0)
(0.595277 0.532917 0)
(0.583837 0.473702 0)
(0.568853 0.422031 0)
(0.551761 0.377084 0)
(0.533605 0.338045 0)
(0.515134 0.304149 0)
(0.496852 0.274688 0)
(0.479079 0.249036 0)
(0.461976 0.226624 0)
(0.445589 0.206953 0)
(0.429878 0.18958 0)
(0.414743 0.174129 0)
(0.400052 0.160274 0)
(0.385675 0.147747 0)
(0.371487 0.136331 0)
(0.357389 0.125849 0)
(0.343319 0.116165 0)
(0.329242 0.107174 0)
(0.315155 0.0987934 0)
(0.301077 0.0909624 0)
(0.287038 0.0836351 0)
(0.273084 0.0767723 0)
(0.259264 0.0703432 0)
(0.24562 0.0643206 0)
(0.232197 0.0586813 0)
(0.219026 0.0534023 0)
(0.20613 0.0484639 0)
(0.193527 0.0438456 0)
(0.181235 0.0395296 0)
(0.169263 0.035495 0)
(0.15761 0.0317305 0)
(0.146282 0.0282224 0)
(0.135283 0.0249565 0)
(0.124619 0.0219243 0)
(0.114297 0.0191132 0)
(0.104325 0.0165156 0)
(0.0947178 0.0141244 0)
(0.0854863 0.0119301 0)
(0.0766463 0.00992752 0)
(0.068215 0.00810912 0)
(0.0602107 0.0064688 0)
(0.0526536 0.00500006 0)
(0.0455636 0.00369359 0)
(0.0389571 0.00254389 0)
(0.0328516 0.00154272 0)
(0.0272617 0.000680261 0)
(0.0221971 -5.2392e-05 0)
(0.0176646 -0.000664998 0)
(0.0136652 -0.00116797 0)
(0.0101978 -0.00157144 0)
(0.00725245 -0.00188844 0)
(0.00481118 -0.00212926 0)
(0.00285268 -0.0023053 0)
(0.00134827 -0.00242762 0)
(0.000262555 -0.00250719 0)
(-0.000445309 -0.00255454 0)
(-0.000825779 -0.0025786 0)
(-0.000945856 -0.00258715 0)
(-0.000846195 -0.00258789 0)
(-0.000554303 -0.00258543 0)
(-0.000197375 -0.00258263 0)
(0.0583703 1.08559 0)
(0.170938 1.06009 0)
(0.272454 1.01611 0)
(0.358033 0.954499 0)
(0.42493 0.882751 0)
(0.473479 0.806453 0)
(0.505563 0.730643 0)
(0.524808 0.658912 0)
(0.533825 0.592625 0)
(0.53502 0.532398 0)
(0.530484 0.478356 0)
(0.521901 0.430271 0)
(0.510598 0.387724 0)
(0.497595 0.350218 0)
(0.48365 0.317221 0)
(0.469308 0.288204 0)
(0.454932 0.262662 0)
(0.440732 0.240123 0)
(0.426807 0.220153 0)
(0.413167 0.202364 0)
(0.399765 0.18641 0)
(0.386523 0.171998 0)
(0.373359 0.15888 0)
(0.360193 0.146855 0)
(0.346966 0.13576 0)
(0.333649 0.125467 0)
(0.320236 0.11588 0)
(0.30674 0.106921 0)
(0.2932 0.0985328 0)
(0.27966 0.0906701 0)
(0.266169 0.0832975 0)
(0.252781 0.0763818 0)
(0.239546 0.0698971 0)
(0.226508 0.0638191 0)
(0.2137 0.0581228 0)
(0.201146 0.0527875 0)
(0.188867 0.0477933 0)
(0.176875 0.0431178 0)
(0.165186 0.0387497 0)
(0.153808 0.0346661 0)
(0.142739 0.0308555 0)
(0.131988 0.0273039 0)
(0.121561 0.024002 0)
(0.111464 0.0209375 0)
(0.101712 0.018104 0)
(0.0923139 0.0154923 0)
(0.083285 0.0130927 0)
(0.0746418 0.0109008 0)
(0.0664 0.00890949 0)
(0.0585784 0.00711104 0)
(0.051196 0.00549892 0)
(0.0442733 0.00406502 0)
(0.037827 0.00280168 0)
(0.0318722 0.00170048 0)
(0.0264234 0.000751529 0)
(0.0214901 -5.49379e-05 0)
(0.0170781 -0.000729526 0)
(0.0131885 -0.00128369 0)
(0.00981886 -0.00172872 0)
(0.00695921 -0.00207801 0)
(0.00459193 -0.00234348 0)
(0.00269568 -0.00253786 0)
(0.00124178 -0.00267309 0)
(0.000195377 -0.00276145 0)
(-0.000483135 -0.00281384 0)
(-0.000843083 -0.00284052 0)
(-0.00095077 -0.0028502 0)
(-0.000845359 -0.00285098 0)
(-0.000551758 -0.00284827 0)
(-0.000196064 -0.00284526 0)
(0.0476641 0.98021 0)
(0.140476 0.961296 0)
(0.225845 0.92629 0)
(0.29928 0.877813 0)
(0.358827 0.820856 0)
(0.405067 0.759181 0)
(0.438598 0.696931 0)
(0.461193 0.636368 0)
(0.474722 0.578999 0)
(0.481014 0.525733 0)
(0.481713 0.476988 0)
(0.478223 0.432845 0)
(0.471711 0.393175 0)
(0.463104 0.357712 0)
(0.453121 0.326115 0)
(0.442295 0.298009 0)
(0.431 0.273 0)
(0.419468 0.250706 0)
(0.407831 0.230762 0)
(0.396136 0.212833 0)
(0.384377 0.196619 0)
(0.372522 0.181858 0)
(0.360532 0.168332 0)
(0.348366 0.155859 0)
(0.336001 0.144293 0)
(0.323438 0.133521 0)
(0.310696 0.123453 0)
(0.297807 0.114023 0)
(0.284824 0.105176 0)
(0.271801 0.0968687 0)
(0.258794 0.0890681 0)
(0.245862 0.0817429 0)
(0.233055 0.0748668 0)
(0.220421 0.0684141 0)
(0.207993 0.0623599 0)
(0.195798 0.0566817 0)
(0.183855 0.0513585 0)
(0.172189 0.0463728 0)
(0.160809 0.0417103 0)
(0.149714 0.0373464 0)
(0.138918 0.0332681 0)
(0.128429 0.0294624 0)
(0.118252 0.0259173 0)
(0.108398 0.0226248 0)
(0.0988793 0.0195761 0)
(0.0897059 0.016763 0)
(0.0808946 0.0141766 0)
(0.0724631 0.0118113 0)
(0.0644253 0.00965987 0)
(0.0568004 0.00771485 0)
(0.0496081 0.00596988 0)
(0.0428669 0.00441729 0)
(0.0365932 0.00304749 0)
(0.0308021 0.00185251 0)
(0.025507 0.000822256 0)
(0.0207168 -5.38626e-05 0)
(0.0164365 -0.000787277 0)
(0.0126666 -0.00138999 0)
(0.00940393 -0.00187438 0)
(0.00663809 -0.00225467 0)
(0.00435161 -0.00254399 0)
(0.00252321 -0.0027558 0)
(0.0011247 -0.00290357 0)
(0.000121734 -0.00300004 0)
(-0.000524527 -0.00305721 0)
(-0.000862353 -0.00308648 0)
(-0.000956559 -0.00309756 0)
(-0.000844541 -0.00309861 0)
(-0.000549039 -0.00309572 0)
(-0.000194671 -0.00309256 0)
(0.0396049 0.887564 0)
(0.117085 0.873264 0)
(0.189121 0.846129 0)
(0.252762 0.808084 0)
(0.306353 0.762984 0)
(0.34959 0.713385 0)
(0.382771 0.661991 0)
(0.406889 0.610826 0)
(0.423198 0.561355 0)
(0.433015 0.514541 0)
(0.4376 0.47095 0)
(0.43809 0.430851 0)
(0.435466 0.394294 0)
(0.430536 0.361183 0)
(0.423948 0.331324 0)
(0.416194 0.304458 0)
(0.40763 0.280297 0)
(0.398495 0.258536 0)
(0.388935 0.238878 0)
(0.379024 0.221042 0)
(0.36879 0.204773 0)
(0.358236 0.189847 0)
(0.347359 0.176078 0)
(0.336154 0.163305 0)
(0.324628 0.151406 0)
(0.312808 0.140279 0)
(0.300736 0.129848 0)
(0.288462 0.120052 0)
(0.276045 0.110845 0)
(0.263551 0.102185 0)
(0.251041 0.0940412 0)
(0.238578 0.0863845 0)
(0.226216 0.0791888 0)
(0.213999 0.0724284 0)
(0.201966 0.0660788 0)
(0.190143 0.0601167 0)
(0.178556 0.0545198 0)
(0.167225 0.0492745 0)
(0.156158 0.0443541 0)
(0.145364 0.0397478 0)
(0.134853 0.0354385 0)
(0.124636 0.03141 0)
(0.114722 0.0276525 0)
(0.105122 0.0241588 0)
(0.0958493 0.0209187 0)
(0.086914 0.0179259 0)
(0.0783331 0.0151726 0)
(0.0701251 0.0126507 0)
(0.0623038 0.0103539 0)
(0.0548888 0.00827546 0)
(0.047899 0.00640916 0)
(0.0413517 0.00474672 0)
(0.0352631 0.00327881 0)
(0.0296479 0.00199735 0)
(0.0245179 0.000891719 0)
(0.0198815 -4.91927e-05 0)
(0.0157429 -0.000837545 0)
(0.0121021 -0.00148581 0)
(0.00895483 -0.00200724 0)
(0.00629013 -0.00241689 0)
(0.00409119 -0.00272856 0)
(0.00233634 -0.00295682 0)
(0.000997653 -0.00311628 0)
(4.17403e-05 -0.00322076 0)
(-0.000569663 -0.00328303 0)
(-0.000883586 -0.00331491 0)
(-0.000963092 -0.00332712 0)
(-0.00084376 -0.00332853 0)
(-0.000546168 -0.00332555 0)
(-0.00019323 -0.0033225 0)
(0.0334431 0.808226 0)
(0.0990666 0.79718 0)
(0.16068 0.776 0)
(0.216152 0.746204 0)
(0.264131 0.710045 0)
(0.304083 0.669612 0)
(0.336048 0.626921 0)
(0.360564 0.583639 0)
(0.378442 0.541054 0)
(0.390614 0.50009 0)
(0.398026 0.461362 0)
(0.401569 0.425227 0)
(0.402044 0.391848 0)
(0.400134 0.36124 0)
(0.396397 0.333315 0)
(0.39127 0.307908 0)
(0.385078 0.284812 0)
(0.37805 0.263796 0)
(0.370337 0.244622 0)
(0.362031 0.227065 0)
(0.353183 0.210914 0)
(0.343828 0.195983 0)
(0.33399 0.182118 0)
(0.323694 0.169183 0)
(0.312975 0.157077 0)
(0.30188 0.145715 0)
(0.290468 0.135032 0)
(0.278803 0.124976 0)
(0.266956 0.115504 0)
(0.254996 0.106583 0)
(0.242992 0.0981817 0)
(0.231008 0.0902732 0)
(0.219098 0.0828318 0)
(0.207309 0.0758323 0)
(0.195679 0.0692504 0)
(0.184238 0.0630627 0)
(0.173011 0.0572463 0)
(0.162022 0.0517846 0)
(0.151281 0.0466569 0)
(0.140797 0.0418455 0)
(0.130579 0.0373363 0)
(0.120641 0.0331255 0)
(0.111 0.0291899 0)
(0.101663 0.025524 0)
(0.0926459 0.0221197 0)
(0.0839596 0.018971 0)
(0.0756193 0.0160703 0)
(0.0676445 0.0134097 0)
(0.0600505 0.0109841 0)
(0.0528563 0.00878694 0)
(0.0460801 0.00681172 0)
(0.0397375 0.00505036 0)
(0.0338449 0.0034938 0)
(0.0284161 0.00213393 0)
(0.0234616 0.000959439 0)
(0.0189887 -4.09589e-05 0)
(0.015001 -0.000879652 0)
(0.0114978 -0.00156986 0)
(0.00847368 -0.00212532 0)
(0.00591745 -0.00256233 0)
(0.0038122 -0.00289482 0)
(0.00213585 -0.00313869 0)
(0.000860974 -0.00330904 0)
(-4.49271e-05 -0.00342121 0)
(-0.000618689 -0.00348838 0)
(-0.000906531 -0.00352297 0)
(-0.000970306 -0.00353635 0)
(-0.000843163 -0.0035382 0)
(-0.000543455 -0.00353525 0)
(-0.000191932 -0.00353235 0)
(0.0286032 0.740098 0)
(0.0848663 0.731361 0)
(0.138141 0.714515 0)
(0.1868 0.690665 0)
(0.229756 0.661317 0)
(0.266467 0.628055 0)
(0.296801 0.592413 0)
(0.321025 0.555733 0)
(0.339652 0.519108 0)
(0.353326 0.483375 0)
(0.362738 0.44913 0)
(0.368577 0.416765 0)
(0.37148 0.386503 0)
(0.372004 0.358427 0)
(0.370617 0.332522 0)
(0.367692 0.308693 0)
(0.363519 0.2868 0)
(0.358306 0.266672 0)
(0.352204 0.24813 0)
(0.345316 0.230995 0)
(0.337709 0.215102 0)
(0.32944 0.200302 0)
(0.320559 0.186468 0)
(0.311113 0.173496 0)
(0.301159 0.161301 0)
(0.290763 0.149816 0)
(0.279996 0.138987 0)
(0.268933 0.128771 0)
(0.257651 0.119132 0)
(0.246227 0.110039 0)
(0.23473 0.101465 0)
(0.223227 0.093384 0)
(0.211773 0.0857705 0)
(0.200416 0.0786002 0)
(0.189194 0.0718489 0)
(0.178137 0.0654903 0)
(0.167276 0.0595113 0)
(0.156634 0.0538869 0)
(0.146217 0.0485918 0)
(0.136042 0.0436191 0)
(0.126132 0.0389565 0)
(0.116488 0.0345915 0)
(0.10712 0.0305141 0)
(0.0980515 0.0267071 0)
(0.0892961 0.0231673 0)
(0.0808645 0.0198865 0)
(0.072772 0.0168593 0)
(0.0650394 0.0140802 0)
(0.0576817 0.0115438 0)
(0.0507172 0.00924353 0)
(0.0441635 0.00717285 0)
(0.0380349 0.00532447 0)
(0.0323479 0.00368971 0)
(0.0271148 0.00226043 0)
(0.0223444 0.00102459 0)
(0.0180437 -2.91274e-05 0)
(0.0142152 -0.000913252 0)
(0.0108576 -0.00164168 0)
(0.00796337 -0.00222878 0)
(0.00552148 -0.00268966 0)
(0.0035155 -0.00304157 0)
(0.00192261 -0.00329998 0)
(0.000715456 -0.00348104 0)
(-0.000137417 -0.00359944 0)
(-0.000671356 -0.00367076 0)
(-0.000931553 -0.00370809 0)
(-0.000978378 -0.00372276 0)
(-0.000842784 -0.00372524 0)
(-0.00054074 -0.00372272 0)
(-0.00019065 -0.00371941 0)
(0.0247338 0.680312 0)
(0.0734855 0.673297 0)
(0.119982 0.659709 0)
(0.162949 0.640352 0)
(0.201516 0.616308 0)
(0.235177 0.588756 0)
(0.263727 0.558872 0)
(0.287261 0.527732 0)
(0.306085 0.496243 0)
(0.320637 0.465134 0)
(0.331416 0.434959 0)
(0.338942 0.406105 0)
(0.343706 0.378814 0)
(0.346154 0.35321 0)
(0.346663 0.329323 0)
(0.345548 0.307114 0)
(0.343057 0.286493 0)
(0.33938 0.267343 0)
(0.33466 0.249533 0)
(0.329002 0.232928 0)
(0.32249 0.217403 0)
(0.315194 0.202845 0)
(0.307184 0.189157 0)
(0.298527 0.176258 0)
(0.289294 0.164084 0)
(0.279565 0.152582 0)
(0.269422 0.141709 0)
(0.258947 0.13143 0)
(0.248223 0.121716 0)
(0.237328 0.112539 0)
(0.226336 0.103875 0)
(0.215312 0.0956982 0)
(0.204313 0.0879851 0)
(0.193386 0.080712 0)
(0.182568 0.0738568 0)
(0.171899 0.0673867 0)
(0.161407 0.0612971 0)
(0.151101 0.0555522 0)
(0.141012 0.0501481 0)
(0.131161 0.045066 0)
(0.121551 0.0402929 0)
(0.112198 0.0358087 0)
(0.103115 0.0316154 0)
(0.0943162 0.0276962 0)
(0.0858252 0.0240473 0)
(0.0776518 0.0206599 0)
(0.0698134 0.0175313 0)
(0.0623296 0.0146548 0)
(0.0552147 0.0120262 0)
(0.0484864 0.00963936 0)
(0.0421623 0.00748837 0)
(0.0362557 0.00556643 0)
(0.0307823 0.00386455 0)
(0.0257526 0.00237478 0)
(0.0211737 0.00108585 0)
(0.0170524 -1.39853e-05 0)
(0.0133899 -0.000937779 0)
(0.0101836 -0.0016997 0)
(0.00742689 -0.00231413 0)
(0.00510566 -0.00279671 0)
(0.00320269 -0.00316615 0)
(0.001697 -0.00343757 0)
(0.000561958 -0.0036281 0)
(-0.000234356 -0.00375318 0)
(-0.000727172 -0.00382821 0)
(-0.000958456 -0.00386791 0)
(-0.000987441 -0.00388408 0)
(-0.000843192 -0.00388723 0)
(-0.000538034 -0.0038849 0)
(-0.000188971 -0.00388144 0)
(0.0216057 0.627081 0)
(0.064264 0.62139 0)
(0.105197 0.610323 0)
(0.143396 0.594469 0)
(0.178157 0.574624 0)
(0.209028 0.551677 0)
(0.235776 0.526532 0)
(0.258396 0.500045 0)
(0.277054 0.472966 0)
(0.292042 0.445917 0)
(0.303709 0.419391 0)
(0.312431 0.393747 0)
(0.318585 0.369225 0)
(0.322514 0.345969 0)
(0.324521 0.324038 0)
(0.324862 0.30343 0)
(0.323748 0.2841 0)
(0.321346 0.265972 0)
(0.317789 0.248956 0)
(0.313185 0.232959 0)
(0.307626 0.21789 0)
(0.301194 0.203669 0)
(0.293972 0.190225 0)
(0.28604 0.1775 0)
(0.277482 0.165447 0)
(0.268387 0.154025 0)
(0.258844 0.143204 0)
(0.248939 0.132956 0)
(0.238759 0.123255 0)
(0.228385 0.114079 0)
(0.217889 0.105403 0)
(0.207336 0.0972062 0)
(0.196786 0.0894635 0)
(0.186287 0.0821514 0)
(0.175868 0.0752437 0)
(0.165576 0.068732 0)
(0.155441 0.0625806 0)
(0.145484 0.0567806 0)
(0.13573 0.0513156 0)
(0.126186 0.0461639 0)
(0.116874 0.0413129 0)
(0.10781 0.036754 0)
(0.099007 0.0324739 0)
(0.0904835 0.0284764 0)
(0.08226 0.0247478 0)
(0.0743488 0.0212821 0)
(0.0667675 0.018077 0)
(0.0595352 0.0151251 0)
(0.0526673 0.012424 0)
(0.0461807 0.0099684 0)
(0.040092 0.0077535 0)
(0.0344127 0.00577199 0)
(0.029158 0.00401479 0)
(0.0243379 0.00247525 0)
(0.0199574 0.00114219 0)
(0.0160219 3.90551e-06 0)
(0.0125312 -0.000953062 0)
(0.00948277 -0.00174311 0)
(0.00686771 -0.00238066 0)
(0.00467062 -0.00288274 0)
(0.00287561 -0.00326664 0)
(0.00146142 -0.0035493 0)
(0.000400423 -0.00374818 0)
(-0.000337122 -0.00387934 0)
(-0.000785821 -0.00395805 0)
(-0.000987247 -0.00400009 0)
(-0.000997608 -0.00401771 0)
(-0.000843642 -0.00402148 0)
(-0.000535363 -0.00401907 0)
(-0.000187564 -0.00401597 0)
(0.0190538 0.579214 0)
(0.0567269 0.574556 0)
(0.0930624 0.56547 0)
(0.127249 0.552392 0)
(0.158721 0.535911 0)
(0.187082 0.516706 0)
(0.212093 0.495482 0)
(0.233693 0.472913 0)
(0.251956 0.449615 0)
(0.267062 0.426108 0)
(0.279246 0.402815 0)
(0.288775 0.380061 0)
(0.295928 0.358075 0)
(0.300966 0.337003 0)
(0.304124 0.316922 0)
(0.30561 0.29786 0)
(0.305599 0.279802 0)
(0.304237 0.262707 0)
(0.301647 0.246522 0)
(0.297936 0.231188 0)
(0.2932 0.216645 0)
(0.28753 0.202839 0)
(0.281015 0.189726 0)
(0.273748 0.177264 0)
(0.265819 0.165422 0)
(0.257323 0.154173 0)
(0.248352 0.143493 0)
(0.238997 0.133362 0)
(0.229345 0.123758 0)
(0.219476 0.114662 0)
(0.209463 0.106052 0)
(0.199371 0.0979062 0)
(0.189257 0.0902024 0)
(0.179165 0.0829176 0)
(0.169148 0.0760216 0)
(0.159235 0.0695141 0)
(0.149454 0.0633633 0)
(0.139836 0.0575614 0)
(0.130395 0.052069 0)
(0.121158 0.0468876 0)
(0.112141 0.0420029 0)
(0.103359 0.0374043 0)
(0.0948375 0.0330816 0)
(0.0865904 0.0290382 0)
(0.0786314 0.0252602 0)
(0.0709817 0.0217436 0)
(0.0636572 0.0184861 0)
(0.0566777 0.015483 0)
(0.0500594 0.0127305 0)
(0.0438175 0.0102253 0)
(0.0379676 0.00796283 0)
(0.0325189 0.00593613 0)
(0.0274875 0.004138 0)
(0.022882 0.00256082 0)
(0.0187043 0.00119319 0)
(0.0149591 2.37624e-05 0)
(0.0116447 -0.000959555 0)
(0.00875776 -0.00177219 0)
(0.00628881 -0.00242916 0)
(0.00422102 -0.0029473 0)
(0.00253725 -0.00334191 0)
(0.00121637 -0.00363388 0)
(0.000232628 -0.00383952 0)
(-0.000443703 -0.00397562 0)
(-0.000847532 -0.00405838 0)
(-0.00101782 -0.00410282 0)
(-0.00100865 -0.00412186 0)
(-0.000844549 -0.00412598 0)
(-0.000532899 -0.00412383 0)
(-0.000186189 -0.00412093 0)
(0.0169554 0.535801 0)
(0.0505197 0.531962 0)
(0.0830339 0.524452 0)
(0.113836 0.513597 0)
(0.14247 0.49984 0)
(0.168598 0.483702 0)
(0.191982 0.465731 0)
(0.212527 0.446461 0)
(0.230247 0.426388 0)
(0.245241 0.405945 0)
(0.257662 0.385489 0)
(0.267691 0.365307 0)
(0.275526 0.345607 0)
(0.281361 0.326535 0)
(0.285378 0.308177 0)
(0.287741 0.290579 0)
(0.288595 0.273751 0)
(0.288067 0.257682 0)
(0.28627 0.242347 0)
(0.283307 0.227714 0)
(0.279278 0.213751 0)
(0.274276 0.200429 0)
(0.268396 0.187721 0)
(0.261736 0.175603 0)
(0.254391 0.164055 0)
(0.246458 0.153062 0)
(0.238032 0.142606 0)
(0.229204 0.132672 0)
(0.220059 0.123243 0)
(0.210678 0.114302 0)
(0.201133 0.105828 0)
(0.191487 0.0978024 0)
(0.181797 0.0902028 0)
(0.172105 0.0830036 0)
(0.162464 0.0761915 0)
(0.152917 0.0697391 0)
(0.143488 0.0636368 0)