/*--------------------------------*- C++ -*----------------------------------*\
| =========                 |                                                 |
| \\      /  F ield         | OpenFOAM: The Open Source CFD Toolbox           |
|  \\    /   O peration     | Version:  v1606+                                |
|   \\  /    A nd           | Web:      www.OpenFOAM.com                      |
|    \\/     M anipulation  |                                                 |
\*---------------------------------------------------------------------------*/
FoamFile
{
    version     2.0;
    format      ascii;
    class       volScalarField;
    location    "0.57";
    object      alphat.air;
}
// * * * * * * * * * * * * * * * * * * * * * * * * * * * * * * * * * * * * * //

dimensions      [1 -1 -1 0 0 0 0];

internalField   nonuniform List<scalar> 
6000
(
0.000367794
0.00336847
0.00536245
0.00581907
0.00596845
0.0060388
0.00608103
0.00610591
0.00612145
0.00613572
0.00614714
0.00614563
0.00616135
0.00616758
0.00617078
0.00616928
0.00616557
0.0061605
0.00614666
0.00614653
0.00613385
0.00611975
0.00610422
0.00607897
0.00603653
0.00596618
0.00581611
0.00535995
0.00336426
0.000367809
0.000277528
0.0019434
0.00371978
0.00478088
0.00530462
0.00558732
0.00574994
0.00585209
0.00591964
0.00596352
0.00598991
0.00600445
0.00599462
0.00597884
0.00597152
0.00597151
0.0059807
0.00599658
0.00600425
0.00598828
0.00595997
0.00591514
0.00584693
0.0057443
0.00558062
0.00529592
0.00477106
0.00370997
0.0019363
0.0002773
0.000231784
0.00159116
0.00317562
0.00429504
0.00498866
0.00542201
0.00569484
0.00586589
0.0059661
0.00601282
0.00603693
0.0060667
0.00608598
0.00608785
0.00608599
0.00608469
0.00608508
0.00608154
0.00606165
0.00603582
0.00601322
0.00596455
0.00586084
0.00568686
0.00541122
0.00497527
0.00428046
0.00316104
0.00158249
0.000231372
0.000217273
0.0015032
0.00292811
0.00406724
0.0049027
0.0054788
0.00587156
0.00613534
0.00629804
0.00637355
0.00637817
0.00637562
0.00638196
0.00639243
0.00639201
0.00639023
0.00638754
0.00637574
0.00637763
0.00638427
0.00637427
0.00629202
0.00612438
0.00585782
0.00546293
0.00488475
0.00404912
0.00291065
0.00149454
0.000216498
0.000203766
0.00135663
0.0027425
0.00389614
0.00478777
0.00546082
0.00596043
0.00633306
0.00659686
0.00678184
0.00689606
0.00690422
0.00684503
0.00681672
0.00681224
0.00680978
0.00681214
0.0068518
0.00690486
0.00688422
0.00676267
0.00657391
0.00630853
0.00593859
0.00544125
0.00476965
0.00387899
0.00272727
0.00134644
0.000202953
0.000186386
0.00127863
0.00257539
0.00369289
0.00461457
0.00532371
0.00587003
0.00629945
0.00661929
0.00687958
0.00710899
0.0072768
0.0073266
0.00726204
0.00722481
0.00722735
0.00727736
0.00732812
0.00724603
0.00706736
0.00684614
0.00658917
0.00627012
0.00584445
0.00530271
0.00459392
0.00367543
0.00256341
0.00127141
0.000185753
0.000173984
0.00129272
0.00253135
0.00360002
0.0044936
0.00520278
0.00576419
0.00622538
0.00659165
0.00689683
0.00715781
0.00739495
0.00759638
0.00764444
0.00760821
0.00761977
0.0076569
0.00757347
0.00735352
0.00711982
0.00686045
0.00655937
0.00619187
0.00574091
0.00518544
0.00447531
0.00358496
0.0025224
0.0012904
0.000173605
0.00016418
0.0013129
0.0025568
0.00361492
0.00449227
0.00519602
0.00575504
0.00622092
0.00661296
0.00694445
0.00723715
0.00750167
0.00772566
0.00787293
0.00788772
0.00789453
0.0078605
0.00768967
0.00745656
0.00719597
0.00690767
0.00658048
0.00619061
0.00573427
0.00517601
0.0044727
0.00359968
0.00254888
0.00131247
0.00016389
0.000157219
0.00134022
0.00263428
0.00371361
0.00459123
0.00529574
0.00585793
0.00631723
0.00670767
0.00705302
0.00736218
0.00763059
0.00785568
0.0080143
0.00805568
0.00805506
0.00799125
0.00780922
0.00758706
0.00731933
0.00701444
0.00667164
0.00628344
0.00583171
0.0052703
0.00456751
0.00369533
0.00262365
0.00133824
0.000156968
0.000155171
0.00138866
0.00275387
0.00387026
0.00476189
0.00546762
0.00602668
0.00647495
0.00684745
0.00718675
0.00749227
0.00776444
0.00798445
0.0081317
0.00817127
0.0081709
0.00810973
0.00794337
0.00771756
0.00745054
0.00715026
0.00681498
0.00644386
0.00599936
0.0054406
0.00473537
0.00384987
0.0027428
0.00138814
0.00015486
0.000155836
0.00144202
0.00287684
0.00403373
0.00494679
0.00566441
0.00623072
0.00667778
0.00703916
0.00734509
0.00765386
0.007916
0.00811024
0.00823519
0.00826434
0.0082657
0.0082177
0.00807558
0.00787161
0.00760915
0.00730516
0.00700579
0.00664658
0.00620049
0.00563516
0.00491983
0.00401339
0.00286537
0.00143941
0.000155445
0.000159872
0.00154825
0.00306983
0.00426994
0.0051949
0.00589996
0.00644472
0.00688381
0.00724411
0.00753953
0.00780605
0.00805034
0.00823436
0.00834732
0.00835473
0.00835643
0.00833114
0.00819712
0.00800602
0.00776589
0.00750789
0.00720918
0.00685101
0.00641541
0.00587452
0.00517309
0.00425369
0.00306037
0.00154431
0.000159408
0.000169321
0.00167757
0.00328441
0.00453393
0.00548701
0.00620513
0.00673152
0.00711999
0.00743697
0.00771798
0.00795638
0.00817851
0.00836328
0.00845324
0.00843969
0.0084408
0.00843418
0.00831962
0.00813399
0.00791992
0.00768699
0.00740925
0.00709388
0.00670708
0.00618245
0.00546825
0.00452058
0.00327691
0.00167519
0.000168881
0.000181008
0.00178813
0.00348255
0.00479671
0.00578905
0.00652624
0.00705514
0.00741143
0.00767378
0.00790949
0.00812604
0.00832143
0.00849802
0.00856394
0.00852805
0.008533
0.00854797
0.00845414
0.00827889
0.00809189
0.00787958
0.00764863
0.00738808
0.00703182
0.00650556
0.00577275
0.00478574
0.00347649
0.00178558
0.000180683
0.000193455
0.00189527
0.0036867
0.00507573
0.00612027
0.00689026
0.00743935
0.00777679
0.00797271
0.00815663
0.00835138
0.00852241
0.00866864
0.00869115
0.00863555
0.00864092
0.00868385
0.00863448
0.00848803
0.00832141
0.00813224
0.00795418
0.00775581
0.00741464
0.00686934
0.00610505
0.00506641
0.0036819
0.00189278
0.000193018
0.000206458
0.00201056
0.00390727
0.005379
0.00648675
0.00730319
0.00788798
0.00824153
0.00841693
0.00853065
0.00868726
0.00884003
0.00895028
0.00897274
0.00894764
0.00894363
0.00896496
0.00892895
0.00881563
0.00866415
0.00851458
0.00840346
0.00821805
0.00785935
0.00728201
0.00647282
0.00537176
0.00390432
0.00200816
0.000205798
0.000220329
0.00214317
0.00415199
0.00570718
0.00688052
0.00775012
0.00837904
0.00878159
0.00898063
0.00907718
0.00919194
0.00934114
0.0094494
0.00950905
0.00951846
0.00950882
0.00948585
0.00943088
0.00932617
0.00917806
0.00907012
0.00896924
0.00875551
0.00835025
0.00773186
0.00687121
0.00570492
0.00415353
0.00214192
0.000219573
0.00023484
0.00229745
0.00442027
0.00605263
0.00728281
0.00819643
0.00886973
0.00933201
0.00959333
0.00972293
0.00984002
0.00999366
0.0101123
0.0101596
0.0101672
0.0101621
0.0101448
0.0100951
0.00998553
0.00983361
0.00971999
0.0095853
0.00931499
0.00885265
0.00819017
0.00728544
0.00606186
0.00443451
0.00230616
0.000233739
0.000253055
0.0024737
0.00472209
0.00643224
0.00770808
0.00865802
0.00936134
0.00987396
0.0102078
0.0103875
0.0105367
0.0106976
0.0108107
0.0108426
0.0108507
0.010848
0.0108353
0.0108021
0.0106947
0.0105356
0.0103905
0.0102085
0.00986749
0.00935662
0.00866435
0.00772316
0.00645463
0.00475264
0.00250049
0.000251756
0.000284494
0.0026937
0.00507041
0.00686218
0.00818415
0.00916973
0.00990123
0.0104498
0.010823
0.0110482
0.0112245
0.0113896
0.0114928
0.0115283
0.0115414
0.0115407
0.0115256
0.0114905
0.0113891
0.0112268
0.0110558
0.0108287
0.010445
0.00990047
0.00918166
0.00820635
0.00688938
0.00510527
0.00272983
0.000283938
0.000309019
0.00288278
0.00540432
0.00730567
0.00869396
0.00971792
0.0104836
0.0110562
0.0114435
0.0116992
0.0118934
0.0120556
0.0121526
0.0121981
0.0122162
0.0122155
0.0121961
0.0121509
0.0120552
0.0118982
0.0117116
0.0114572
0.0110629
0.0104915
0.00973716
0.00871952
0.00732505
0.00540751
0.00287858
0.000312274
0.000342474
0.00297763
0.00561614
0.00769219
0.00919631
0.0102881
0.0110915
0.0116731
0.0120749
0.0123457
0.012542
0.012693
0.0127853
0.0128374
0.0128614
0.012859
0.0128321
0.0127801
0.0126903
0.0125484
0.0123655
0.0121002
0.0116968
0.0111199
0.010326
0.00922666
0.00770361
0.00562297
0.00297933
0.000343977
0.000344732
0.00308921
0.00591115
0.00808555
0.00969013
0.0108831
0.0117525
0.0123324
0.0127329
0.0129899
0.0131622
0.0132888
0.0133723
0.0134283
0.013466
0.0134606
0.0134181
0.0133633
0.0132837
0.0131697
0.0130156
0.0127632
0.0123726
0.0117965
0.0109255
0.00971892
0.00809785
0.00590733
0.00306878
0.000343783
0.000337689
0.00308178
0.00600447
0.00830826
0.0100543
0.0113675
0.0123305
0.0129857
0.0133776
0.0136025
0.0137331
0.0138192
0.0138865
0.0139535
0.0140165
0.0140071
0.0139422
0.0138788
0.0138159
0.0137393
0.0136241
0.0134056
0.0130163
0.0123537
0.0113866
0.0100646
0.00831064
0.00600041
0.00307355
0.000336522
0.000338289
0.00313304
0.00606016
0.00835753
0.0101357
0.0115112
0.012559
0.0133424
0.0138611
0.0140886
0.014204
0.0142574
0.0143025
0.0143973
0.0144642
0.0144605
0.0143956
0.0143085
0.0142592
0.0142079
0.0140959
0.0138506
0.0133191
0.0125329
0.0114951
0.0101308
0.00836205
0.00606726
0.00313492
0.000337849
0.000342328
0.00315528
0.00606779
0.0083442
0.0101091
0.0114809
0.0125403
0.013366
0.0140124
0.0144192
0.014524
0.014585
0.0146162
0.0147369
0.0149031
0.0149058
0.0147498
0.0146384
0.0145828
0.0145035
0.0143849
0.0139633
0.0133225
0.0125036
0.011456
0.0100962
0.00834295
0.00607051
0.00315477
0.000342632
0.000344974
0.00312156
0.00599855
0.00825036
0.0100075
0.0113822
0.0124524
0.0133006
0.0139862
0.0145157
0.0147868
0.0147935
0.0148539
0.0149305
0.0151229
0.01513
0.0149281
0.0148577
0.014759
0.0147235
0.0144524
0.0139285
0.0132506
0.0124104
0.0113503
0.00998656
0.00824126
0.00599525
0.00311994
0.000345057
0.000344473
0.0030447
0.00583543
0.00805172
0.00980622
0.0111967
0.0122945
0.0131748
0.0138953
0.014465
0.0148344
0.0149597
0.0149508
0.0150746
0.0152053
0.015206
0.01506
0.0149074
0.0148998
0.0147611
0.0143944
0.0138321
0.0131197
0.0122475
0.0111588
0.00977808
0.00803465
0.00582505
0.0030382
0.000344482
0.000341803
0.00290696
0.0055926
0.00777045
0.00952843
0.0109434
0.0120757
0.0129901
0.0137407
0.0143416
0.0147492
0.014949
0.0150141
0.0151735
0.0152497
0.0152402
0.01515
0.0149517
0.0148799
0.0146734
0.0142683
0.0136752
0.0129328
0.0120263
0.0109027
0.00949721
0.00774995
0.00558024
0.00290075
0.000341793
0.000335893
0.0027475
0.00528956
0.0074184
0.00918287
0.0106284
0.0117995
0.0127498
0.0135273
0.0141508
0.0145857
0.0148251
0.0149708
0.0151252
0.0151923
0.0151817
0.0150999
0.0149214
0.0147559
0.0145092
0.0140795
0.0134634
0.0126935
0.011751
0.0105883
0.00915217
0.0073982
0.00527912
0.00274394
0.000335947
0.000326632
0.00255457
0.00492691
0.00700502
0.00878285
0.0102669
0.0114791
0.0124649
0.013267
0.0139072
0.0143616
0.0146207
0.0147886
0.0149435
0.0150017
0.0149922
0.0149233
0.014744
0.0145507
0.0142859
0.0138396
0.0132067
0.012412
0.0114338
0.0102298
0.00875574
0.00698861
0.0049217
0.00255562
0.000327301
0.000315039
0.00225838
0.00449731
0.00654959
0.00835194
0.00987789
0.0111298
0.0121465
0.0129688
0.01362
0.0140828
0.0143448
0.0145157
0.0146601
0.0147122
0.0147028
0.0146401
0.0144725
0.0142744
0.014007
0.0135557
0.0129127
0.0120981
0.0110892
0.00984477
0.00832858
0.00653764
0.00450114
0.00227792
0.000316163
0.000300378
0.00191724
0.00404943
0.00609531
0.0079232
0.00948389
0.0107657
0.0118037
0.0126384
0.0132941
0.0137536
0.0140059
0.0141739
0.0143081
0.0143548
0.0143454
0.0142871
0.0141311
0.0139347
0.013677
0.0132323
0.0125865
0.0117597
0.0107293
0.00945385
0.00790114
0.00608286
0.00405369
0.0019406
0.000302307
0.000282888
0.00163784
0.00367188
0.00569886
0.00753142
0.00910564
0.0103981
0.011443
0.0122781
0.0129278
0.0133775
0.0136173
0.0137773
0.0139048
0.0139499
0.0139407
0.0138848
0.0137368
0.0135451
0.0132998
0.0128679
0.0122292
0.011402
0.0103641
0.00907609
0.00750638
0.00567821
0.00366281
0.00164806
0.00028552
0.00026488
0.00148174
0.00342204
0.00539698
0.00719888
0.00875647
0.0100353
0.0110693
0.0118918
0.0125271
0.0129618
0.0131805
0.0133311
0.0134595
0.0135066
0.0134982
0.0134409
0.0132929
0.013107
0.0128833
0.0124676
0.0118438
0.0110289
0.0100009
0.00872451
0.00716752
0.00536446
0.00339474
0.00147409
0.000267845
0.000248344
0.00142298
0.00328857
0.00518938
0.00693101
0.00843928
0.0096826
0.0106878
0.0114848
0.012097
0.0125135
0.0127125
0.0128481
0.0129794
0.013032
0.0130246
0.0129623
0.0128095
0.0126336
0.0124336
0.0120363
0.0114353
0.0106452
0.00964492
0.00840333
0.00689088
0.00514621
0.00324641
0.00140238
0.000251289
0.000233828
0.00140927
0.00323085
0.00505301
0.00671686
0.00815171
0.00934121
0.0103023
0.0110625
0.0116438
0.0120402
0.012223
0.0123402
0.0124723
0.0125312
0.0125244
0.0124553
0.0122968
0.0121358
0.0119573
0.0115793
0.0110084
0.0102547
0.00929782
0.00810931
0.00666913
0.00500167
0.00318022
0.00138451
0.000236704
0.000221113
0.00141316
0.00321773
0.00496472
0.00653727
0.00788894
0.00901025
0.00991526
0.0106295
0.0111741
0.0115478
0.0117211
0.0118171
0.011946
0.0120102
0.0120033
0.0119272
0.0117653
0.0116217
0.0114596
0.011102
0.0105674
0.00985987
0.00895899
0.00783852
0.00648339
0.00490526
0.0031623
0.00138644
0.000223922
0.000210073
0.0014347
0.00323155
0.00490278
0.00637949
0.00764197
0.00868543
0.00952568
0.0101874
0.0106916
0.0110413
0.0112118
0.0112851
0.0114044
0.011474
0.011467
0.0113865
0.0112268
0.0111024
0.0109452
0.0106094
0.0101153
0.00946074
0.00862493
0.00758262
0.00631751
0.00483665
0.00317017
0.00140027
0.000212675
0.000201211
0.00148521
0.00326268
0.00485183
0.00623249
0.00740031
0.00835961
0.00912943
0.00973507
0.0101973
0.0105219
0.0106892
0.0107464
0.0108509
0.0109256
0.0109204
0.0108364
0.010685
0.0105809
0.0104202
0.010106
0.0096531
0.00905462
0.00828939
0.00733149
0.00616162
0.00477758
0.00319061
0.00143293
0.000203064
0.000195318
0.00156916
0.0033041
0.00480351
0.00608403
0.00715321
0.00802524
0.00872265
0.00927182
0.00969303
0.00999387
0.010155
0.0102064
0.0102947
0.0103727
0.0103685
0.0102799
0.0101411
0.0100507
0.00988695
0.00959336
0.0091802
0.00863776
0.00794501
0.00707478
0.0060038
0.00471921
0.00321748
0.00149327
0.000195689
0.00019308
0.00168543
0.00334612
0.00474737
0.00592279
0.00689216
0.00767716
0.00830349
0.00879844
0.00918137
0.00945991
0.00961712
0.0096729
0.00974906
0.00982548
0.00982018
0.00972739
0.00959994
0.00950871
0.00934517
0.00907198
0.00869586
0.0082072
0.0075859
0.00680362
0.00583329
0.0046532
0.00324655
0.00158613
0.000191285
0.000194089
0.00179603
0.00336993
0.00466988
0.00574056
0.00661239
0.00731293
0.00787127
0.00831579
0.00866449
0.00892303
0.00907634
0.00914613
0.00922084
0.00929409
0.009287
0.00919293
0.00906991
0.00896809
0.00880234
0.00854629
0.0082019
0.0077625
0.00720926
0.00651281
0.00564228
0.00456938
0.00326707
0.00169982
0.000190275
0.000196717
0.00184906
0.00335283
0.00456168
0.00553386
0.0063124
0.00693215
0.00742709
0.00782607
0.00814482
0.00838677
0.00853879
0.00862669
0.00871076
0.00878433
0.00877594
0.00867979
0.00855338
0.00843426
0.0082612
0.00801925
0.00770164
0.00730572
0.00681515
0.0062007
0.00542691
0.00445811
0.00325633
0.00177158
0.00019184
0.000198563
0.00184824
0.00329142
0.00442153
0.00530285
0.00599281
0.00653645
0.00697397
0.0073332
0.00762632
0.00785458
0.00801099
0.00812009
0.00822088
0.00829859
0.00828994
0.00819077
0.00804962
0.00791003
0.00773114
0.00749598
0.00719993
0.0068409
0.0064063
0.00586857
0.00518721
0.00431622
0.00320372
0.00178824
0.000193831
0.000197892
0.00180173
0.00319627
0.00425411
0.0050491
0.00565516
0.00612883
0.00651609
0.00684229
0.00711503
0.00733626
0.007501
0.00763407
0.00775636
0.00783749
0.00782871
0.00772653
0.00756925
0.00740713
0.00721723
0.00698266
0.00670222
0.00637275
0.00598708
0.00551916
0.00492583
0.00414772
0.0031153
0.00175429
0.000193383
0.000196199
0.0017425
0.00308168
0.00406405
0.00477418
0.00529975
0.00571116
0.00605765
0.00635795
0.00661699
0.00683787
0.00701657
0.00717543
0.00731726
0.00740102
0.0073927
0.00728865
0.00711718
0.00693053
0.00672582
0.00648593
0.00621378
0.00590668
0.00555934
0.0051545
0.00464473
0.00395765
0.00300571
0.0017002
0.000191959
0.000193544
0.00167943
0.00295295
0.00385156
0.00447626
0.00492693
0.0052856
0.00560072
0.00588274
0.00613515
0.006362
0.00656078
0.00674307
0.0069016
0.00698888
0.0069819
0.00687714
0.0066936
0.00648485
0.00625829
0.00600738
0.00573671
0.00544422
0.00512678
0.0047725
0.00434139
0.00374826
0.00288405
0.00164193
0.0001894
0.000190576
0.00160908
0.00280793
0.00361595
0.00415286
0.00453571
0.0048567
0.00514886
0.00541983
0.00567229
0.00590828
0.00612914
0.00633708
0.00651001
0.00659984
0.00659528
0.00649264
0.00629902
0.00606593
0.00581487
0.00555012
0.00527412
0.00498837
0.00469115
0.00437361
0.00401302
0.00351578
0.00274837
0.00157945
0.000186929
0.000186713
0.00152013
0.00263804
0.00335176
0.00380516
0.00413414
0.0044281
0.00470593
0.00497267
0.00522993
0.00547995
0.00572477
0.00595822
0.00614024
0.00623259
0.00623094
0.00613164
0.00593434
0.00567986
0.00540137
0.00511526
0.00482908
0.00454297
0.00425756
0.0039661
0.00365098
0.00324549
0.00258993
0.0015027
0.000183788
0.000181977
0.00141873
0.00244368
0.00305916
0.00343538
0.00373113
0.00400772
0.00427694
0.00454511
0.0048103
0.00507771
0.00535246
0.00560147
0.00578891
0.00588398
0.00588561
0.00579136
0.00559549
0.00532643
0.00502152
0.00470718
0.00440665
0.00411338
0.00383355
0.00355521
0.00326396
0.00293494
0.00239365
0.00141123
0.00018003
0.000177142
0.00130579
0.00222136
0.00273882
0.00305609
0.00333575
0.00360246
0.00386752
0.00413872
0.00441577
0.00471098
0.00500589
0.00526439
0.00545255
0.00554943
0.00555418
0.00546554
0.00527608
0.00500234
0.00468047
0.0043357
0.00401253
0.00370862
0.00342641
0.00315421
0.00287713
0.00257972
0.00214111
0.0013109
0.000176302
0.000171607
0.00117855
0.00196608
0.00239577
0.00269066
0.00295765
0.00321496
0.00347991
0.00375851
0.00405695
0.00437732
0.00468145
0.00494108
0.00512629
0.00522358
0.00523087
0.00514752
0.00496819
0.00470142
0.00437291
0.00401475
0.00365798
0.00333692
0.00304339
0.00276973
0.00250048
0.00221005
0.0018452
0.00116782
0.000172657
0.000164273
0.00103193
0.00169079
0.00205907
0.00233894
0.0025944
0.00284588
0.00311852
0.00341275
0.00373787
0.00406709
0.00437255
0.00462546
0.00480522
0.00490188
0.00491141
0.00483283
0.00466503
0.00441344
0.00409277
0.00373172
0.00335845
0.00300636
0.00269061
0.00240584
0.00213925
0.00185602
0.00152827
0.00100991
0.000167964
0.000156074
0.000863053
0.00140926
0.00172518
0.00199149
0.00224367
0.00250425
0.00279075
0.00310718
0.00344464
0.00377352
0.00407104
0.00431352
0.00448687
0.00458216
0.00459372
0.00451995
0.00436294
0.00412817
0.00382471
0.00347178
0.00309715
0.00272363
0.00238176
0.00206855
0.00178483
0.0015031
0.00119677
0.000785468
0.00016006
0.000146813
0.000695422
0.00112494
0.00139619
0.00165818
0.00191523
0.00219633
0.00249981
0.00283473
0.00317143
0.00349362
0.00377934
0.00401165
0.00417919
0.00427311
0.00428705
0.00421927
0.00407259
0.00385318
0.00356861
0.00323112
0.00286106
0.00248018
0.00211295
0.0017741
0.00145026
0.00115604
0.000866521
0.00055816
0.00014927
0.000136644
0.000566314
0.000855134
0.00109032
0.00134591
0.00162446
0.00192642
0.00225032
0.00259069
0.00292409
0.00323749
0.00351337
0.00373823
0.00390164
0.00399517
0.00401289
0.00395336
0.00381866
0.00361436
0.00334706
0.00302543
0.00266326
0.00227965
0.00188863
0.00152181
0.00116815
0.000841486
0.000578891
0.000363034
0.00013695
0.000127643
0.000423844
0.000610368
0.000820207
0.00107113
0.00137731
0.00169611
0.00203598
0.00237591
0.00270493
0.0030105
0.00327833
0.00349677
0.00365637
0.00374963
0.0037715
0.00372082
0.00359893
0.00341014
0.00315981
0.0028542
0.0025025
0.00211847
0.00171399
0.00131685
0.000942258
0.000604549
0.000369907
0.000218151
0.000123301
0.00011665
0.000262655
0.000407495
0.000596596
0.00085785
0.0011697
0.00149925
0.00184937
0.00218712
0.00251157
0.00281
0.00307044
0.00328279
0.00343873
0.00353176
0.00355769
0.00351562
0.00340683
0.00323401
0.00300141
0.00271262
0.00237242
0.00198899
0.00157614
0.00115106
0.000763691
0.000434952
0.000243732
0.000145265
0.000109205
0.000104571
0.000167822
0.000279338
0.000445083
0.000692123
0.000998612
0.00133604
0.00168794
0.00202378
0.00234323
0.00263482
0.00288825
0.00309475
0.0032471
0.00333982
0.00336955
0.00333578
0.0032406
0.00308469
0.0028719
0.00260286
0.00227749
0.00189798
0.00147416
0.00102858
0.000623008
0.000325676
0.000184431
0.000116534
9.83637e-05
9.53091e-05
0.000131423
0.000210982
0.000345007
0.00056839
0.000863748
0.00120588
0.00155296
0.00188578
0.00219967
0.00248439
0.00273095
0.00293175
0.00308058
0.0031729
0.0032062
0.00318034
0.00309863
0.00296048
0.00276991
0.00252526
0.00222126
0.00185211
0.00141929
0.000948839
0.000512175
0.00025771
0.000151434
0.000100541
9.20179e-05
8.95554e-05
0.000114138
0.000176512
0.000281703
0.000476396
0.00076369
0.00110626
0.00144496
0.00177316
0.00208061
0.00235817
0.00259795
0.00279329
0.00293884
0.00303085
0.00306753
0.0030491
0.00297956
0.00285879
0.00269079
0.0024739
0.00219908
0.00185306
0.00142688
0.000931733
0.000425568
0.000210563
0.000128388
8.63216e-05
8.47965e-05
8.43484e-05
0.000100545
0.000152756
0.000238417
0.000410003
0.000698926
0.00103207
0.00136408
0.00168546
0.00198537
0.00225543
0.00248857
0.00267887
0.00282159
0.00291354
0.00295336
0.00294163
0.00288181
0.00277481
0.00262495
0.00243199
0.00218566
0.00186913
0.00147185
0.000993947
0.000450815
0.000174134
0.000108509
7.80608e-05
7.72989e-05
7.96815e-05
8.74964e-05
0.000132048
0.000206121
0.000369655
0.000663774
0.000984805
0.00130894
0.00162158
0.00191286
0.00217512
0.00240193
0.0025878
0.00272834
0.00282053
0.002863
0.00285607
0.00280193
0.0027026
0.00256297
0.00238674
0.00216465
0.0018745
0.00151341
0.00106828
0.00053374
0.000182943
8.98935e-05
6.80887e-05
7.07872e-05
7.52696e-05
7.49479e-05
0.00011629
0.000186167
0.000363526
0.000654644
0.000965177
0.0012782
0.00158004
0.00186169
0.00211605
0.00233702
0.00251927
0.0026584
0.00275118
0.00279579
0.00279172
0.00273989
0.0026419
0.00250198
0.00233339
0.00213834
0.00189074
0.00158026
0.00116736
0.000665106
0.000235815
9.76527e-05
5.61166e-05
6.43144e-05
7.10116e-05
6.52609e-05
0.000109112
0.000188793
0.000395298
0.000673703
0.000970446
0.00126952
0.00155891
0.00183034
0.00207701
0.00229283
0.00247225
0.00261056
0.00270407
0.00275034
0.00274769
0.00269704
0.00259877
0.00245495
0.00227723
0.00209769
0.00189869
0.00162259
0.00125968
0.000802195
0.000328068
0.000127638
6.64386e-05
5.79998e-05
6.70132e-05
6.00232e-05
0.000111994
0.000214154
0.000449544
0.000714751
0.000995847
0.00127966
0.00155606
0.0018174
0.00205696
0.00226833
0.00244539
0.00258285
0.00267655
0.00272356
0.00272122
0.00267111
0.00257322
0.00242884
0.00224675
0.00205296
0.00188423
0.00169367
0.00140483
0.000978456
0.000550419
0.000222294
9.3489e-05
5.57912e-05
6.36838e-05
6.03164e-05
0.000123038
0.000241704
0.000496303
0.00076749
0.00103535
0.00130524
0.00156966
0.00182202
0.00205554
0.00226332
0.00243855
0.00257497
0.002668
0.00271432
0.00271077
0.00265981
0.0025618
0.0024184
0.00223855
0.00204105
0.0018533
0.00168577
0.0015183
0.00126002
0.000872245
0.000500048
0.000231127
5.80298e-05
6.12072e-05
6.61894e-05
0.000135502
0.000286646
0.000549181
0.00081587
0.00108567
0.00134427
0.0015995
0.00184566
0.00207591
0.00228209
0.00245588
0.00259042
0.00268138
0.0027254
0.00271946
0.00266677
0.00256698
0.00242308
0.00224318
0.00204376
0.00184712
0.00166176
0.00150293
0.00134675
0.00114579
0.000820689
0.00047641
6.78746e-05
5.9611e-05
7.3766e-05
0.000169628
0.000376682
0.000630337
0.000874117
0.00113333
0.00139682
0.00165179
0.00189913
0.00213196
0.00233857
0.00250834
0.00263706
0.00272331
0.00276352
0.00275522
0.00270077
0.00259927
0.00245238
0.00226716
0.00206008
0.00185364
0.00166079
0.00148105
0.00132671
0.00116908
0.000934353
0.000553674
7.95808e-05
5.87687e-05
9.14103e-05
0.000225504
0.000451487
0.000703475
0.000944253
0.00118662
0.00144704
0.00171372
0.00197318
0.00221484
0.00242602
0.00259248
0.00271217
0.00279126
0.00282712
0.00281854
0.0027659
0.0026612
0.00250477
0.0023108
0.00209729
0.00187749
0.00167118
0.00148555
0.00131287
0.00114947
0.000915846
0.000539328
8.52974e-05
5.83388e-05
0.00011531
0.000269302
0.000503582
0.000754312
0.00100649
0.00125988
0.00152293
0.00179954
0.00207273
0.00231967
0.00252229
0.00267592
0.00278491
0.00285353
0.00288625
0.00287958
0.00282798
0.00272992
0.00257945
0.00237641
0.00214294
0.00191035
0.00169256
0.0014903
0.00130467
0.00111254
0.000860585
0.000486933
8.5731e-05
5.80689e-05
0.000133489
0.000307728
0.000546513
0.000802867
0.00107533
0.00136442
0.00166746
0.00197364
0.00226337
0.00247219
0.00262795
0.00274997
0.00284323
0.00290203
0.0029292
0.00292322
0.00288233
0.00280586
0.00268016
0.00249873
0.00224652
0.00197166
0.0017181
0.00149539
0.00128449
0.00106592
0.000789387
0.000410669
8.53222e-05
5.76718e-05
0.000147438
0.000339925
0.000589253
0.00087377
0.00119647
0.00155047
0.00191469
0.00223354
0.00244486
0.00259576
0.00271562
0.00281019
0.00288474
0.00294002
0.00296582
0.00295943
0.00291932
0.00284601
0.00274263
0.00259292
0.00238376
0.00209199
0.00178033
0.00150818
0.00125697
0.00100446
0.0007086
0.00033763
8.39118e-05
5.71828e-05
0.000156895
0.000373003
0.0006627
0.00101641
0.00141906
0.00184032
0.00219602
0.00243688
0.00259201
0.00270457
0.00280131
0.0028881
0.00295
0.00299051
0.00300585
0.00299185
0.00295329
0.00288267
0.00277485
0.00264757
0.0024752
0.0022267
0.00189445
0.00155055
0.00124299
0.000938763
0.000617241
0.000264247
8.02575e-05
5.6201e-05
0.000172052
0.000440754
0.000822259
0.00127418
0.00173105
0.00212869
0.00241564
0.00258798
0.00271402
0.00280466
0.00289133
0.0029599
0.00301068
0.00304326
0.0030573
0.00304516
0.00299807
0.00292511
0.0028173
0.00267975
0.00252673
0.00232345
0.00203264
0.00164807
0.00126872
0.000903135
0.000549197
0.00022015
7.55146e-05
5.59118e-05
0.000209591
0.000592829
0.00109944
0.00158909
0.0020296
0.00236287
0.00256907
0.0027136
0.00282613
0.00291539
0.00298652
0.00303755
0.00307495
0.00309807
0.0031057
0.00309338
0.00305576
0.0029716
0.00286324
0.00273
0.00256688
0.00238876
0.00215088
0.00180613
0.00135848
0.000940485
0.000535422
0.000199454
7.10247e-05
5.66624e-05
0.000306952
0.00086378
0.0014079
0.00188202
0.00226616
0.00252127
0.00268747
0.00283166
0.00295161
0.00303215
0.00308203
0.00311447
0.00313639
0.00314905
0.00314824
0.00313328
0.00310107
0.00303549
0.00291683
0.00278276
0.00262583
0.00244858
0.00224165
0.00195014
0.00153421
0.0010403
0.000595274
0.00022023
6.66697e-05
6.03935e-05
0.000505409
0.00114385
0.00167374
0.00210573
0.0024351
0.00263889
0.00279855
0.00295589
0.00307489
0.0031377
0.00316624
0.00318189
0.00318964
0.00318865
0.00317785
0.00315815
0.00313161
0.00307881
0.00298739
0.00284752
0.00269097
0.00250956
0.00230278
0.00205899
0.0017165
0.00124167
0.000717118
0.000268703
6.41382e-05
6.88251e-05
0.00067141
0.00135877
0.00187218
0.00226054
0.00254223
0.00273974
0.00291823
0.00307881
0.0031801
0.00321944
0.0032342
0.00323939
0.00323615
0.0032254
0.00320608
0.00317544
0.00314005
0.00309857
0.0030255
0.00291138
0.00274965
0.00257512
0.00236655
0.00213367
0.00186437
0.00148093
0.00096154
0.000378256
6.48332e-05
7.96484e-05
0.000781378
0.00150301
0.00200157
0.00235314
0.0026165
0.00284206
0.0030361
0.00318145
0.00325665
0.00327629
0.00328641
0.00328893
0.00328077
0.00326069
0.00322935
0.00318968
0.00314194
0.00309644
0.00303884
0.00294948
0.00280605
0.00262489
0.00243092
0.00221397
0.00196614
0.00165918
0.00123061
0.000609467
7.0257e-05
8.95655e-05
0.000844605
0.00158444
0.00208442
0.00241812
0.00269545
0.00294337
0.00313478
0.00325239
0.00329241
0.00330788
0.00332285
0.0033296
0.00332363
0.00330121
0.00325724
0.00320156
0.00314099
0.0030821
0.00302751
0.00295519
0.00284804
0.00268372
0.00250919
0.00231084
0.00208218
0.00178576
0.00140327
0.000783586
8.24399e-05
9.7417e-05
0.000882736
0.00163754
0.00215682
0.00251145
0.00280267
0.00303606
0.00320357
0.00327861
0.00329512
0.00331763
0.00334422
0.00336034
0.00335984
0.00333762
0.00329145
0.0032234
0.00314566
0.00306859
0.00299586
0.00292753
0.00283878
0.00271538
0.00254928
0.00233814
0.00212867
0.00185469
0.00147025
0.000842012
9.47264e-05
0.000103372
0.000921852
0.00170625
0.00224785
0.00262635
0.00290622
0.00311454
0.00322798
0.00325646
0.0032708
0.00331102
0.00335317
0.00338271
0.00339148
0.00337175
0.00332329
0.00325031
0.00316089
0.0030654
0.00296618
0.00286862
0.00278748
0.00269534
0.00255089
0.00235884
0.00214752
0.0018667
0.00146735
0.000841542
0.000101068
0.000110013
0.000967478
0.00178802
0.00234427
0.00271748
0.00297687
0.00312629
0.00318448
0.00319329
0.00323155
0.00329424
0.00335417
0.00339955
0.00342004
0.00340673
0.0033587
0.00328113
0.00318262
0.00307154
0.00295439
0.00282768
0.0027146
0.00262699
0.002533
0.00238639
0.00216123
0.00184078
0.00141746
0.000808327
0.000101766
0.00011893
0.00101108
0.00184125
0.00238781
0.00273235
0.00294529
0.00304896
0.00308033
0.00311623
0.00318971
0.00327344
0.00335192
0.00341375
0.00344685
0.00344174
0.00339645
0.00331674
0.0032109
0.00308772
0.00295371
0.00281661
0.00268154
0.00257331
0.00246797
0.00234913
0.0021426
0.00180874
0.00135792
0.000740754
0.000100059
0.000124595
0.00100681
0.00180457
0.00232273
0.00264401
0.00282459
0.00292947
0.00298287
0.00305668
0.00314822
0.00325295
0.00335054
0.0034294
0.00347587
0.00348013
0.00343977
0.00335987
0.00324927
0.00311599
0.00296714
0.00281267
0.00266187
0.00253262
0.00241161
0.00228225
0.00208839
0.00176443
0.00130428
0.000691923
9.75653e-05
0.000124273
0.000962643
0.00172056
0.00220868
0.00250642
0.00267565
0.00276939
0.00286688
0.00298209
0.00311407
0.00324044
0.00335746
0.00345155
0.00350887
0.00352089
0.00348589
0.00340863
0.00329787
0.00315949
0.00299915
0.00282666
0.00265194
0.00249087
0.00233746
0.00218445
0.0020113
0.0017069
0.00125025
0.000656317
9.53821e-05
0.000120981
0.000865859
0.00156625
0.00201679
0.00227882
0.00245414
0.00261699
0.00276374
0.00292001
0.00308355
0.00323947
0.00337288
0.00347545
0.00353614
0.00355043
0.0035185
0.00344655
0.00334134
0.00320776
0.00304689
0.00286078
0.0026613
0.00246393
0.00227576
0.00208799
0.00188033
0.00160881
0.00117748
0.000602119
9.28604e-05
0.000113111
0.000744197
0.00134035
0.00174445
0.00204289
0.00227625
0.00248465