/*--------------------------------*- C++ -*----------------------------------*\
| =========                 |                                                 |
| \\      /  F ield         | OpenFOAM: The Open Source CFD Toolbox           |
|  \\    /   O peration     | Version:  v1606+                                |
|   \\  /    A nd           | Web:      www.OpenFOAM.com                      |
|    \\/     M anipulation  |                                                 |
\*---------------------------------------------------------------------------*/
FoamFile
{
    version     2.0;
    format      ascii;
    class       volScalarField;
    location    "0.57";
    object      alpha.particles;
}
// * * * * * * * * * * * * * * * * * * * * * * * * * * * * * * * * * * * * * //

dimensions      [0 0 0 0 0 0 0];

internalField   nonuniform List<scalar> 
6000
(
0.440528
0.440882
0.439817
0.444986
0.444987
0.444987
0.444987
0.444987
0.444987
0.444987
0.444986
0.444531
0.429507
0.420913
0.416122
0.417184
0.422829
0.431001
0.445251
0.445424
0.445424
0.445424
0.445425
0.445425
0.445424
0.445424
0.445423
0.439556
0.440724
0.44047
0.437175
0.439407
0.4384
0.438409
0.439076
0.44076
0.442305
0.443555
0.442068
0.434197
0.420412
0.416136
0.416154
0.416125
0.416152
0.416125
0.416153
0.416135
0.416184
0.422663
0.436084
0.44324
0.444154
0.442607
0.440775
0.438662
0.437748
0.437731
0.438158
0.4359
0.461262
0.461303
0.461346
0.461368
0.461385
0.46141
0.461506
0.461515
0.461603
0.461581
0.461686
0.461625
0.460025
0.459826
0.460283
0.460362
0.460039
0.460364
0.461728
0.461575
0.461619
0.461525
0.461546
0.461468
0.461463
0.461387
0.461379
0.461328
0.46131
0.461258
0.412183
0.434833
0.42895
0.422058
0.415453
0.409223
0.408255
0.412567
0.422085
0.440863
0.461632
0.461776
0.461686
0.461839
0.461678
0.461823
0.461661
0.461813
0.46164
0.45804
0.435791
0.417701
0.409496
0.406837
0.408956
0.415875
0.423369
0.43159
0.437743
0.414249
0.294013
0.321042
0.314749
0.302964
0.286904
0.270855
0.263069
0.264863
0.273126
0.295941
0.341879
0.421079
0.461878
0.461725
0.461923
0.461696
0.461881
0.461673
0.404769
0.329549
0.289208
0.268684
0.262076
0.26221
0.27126
0.288157
0.304901
0.317896
0.325464
0.296992
0.265901
0.265901
0.257624
0.247612
0.230531
0.211465
0.199318
0.192964
0.192074
0.195812
0.20958
0.267052
0.389974
0.461968
0.461712
0.461928
0.461691
0.362538
0.251344
0.205625
0.194995
0.192057
0.193318
0.199809
0.212506
0.232025
0.248945
0.258981
0.268752
0.268751
0.265901
0.271659
0.26997
0.262214
0.243202
0.219983
0.199429
0.186446
0.186284
0.18616
0.186029
0.188284
0.246878
0.383846
0.462013
0.45756
0.346126
0.230589
0.187978
0.18801
0.188129
0.188211
0.188379
0.201113
0.221233
0.244235
0.263068
0.270485
0.274573
0.268752
0.276942
0.2942
0.310001
0.302419
0.282522
0.254829
0.220437
0.194091
0.186275
0.186129
0.186134
0.185996
0.196557
0.266052
0.378164
0.349465
0.243175
0.193096
0.187972
0.18807
0.188104
0.188242
0.196847
0.223867
0.255652
0.281132
0.301646
0.308833
0.296809
0.279352
0.319221
0.336903
0.363268
0.358102
0.338283
0.305057
0.262286
0.218482
0.189509
0.186274
0.186134
0.186208
0.189431
0.234478
0.312084
0.297879
0.222267
0.188263
0.188145
0.188101
0.188219
0.192864
0.22349
0.265705
0.305921
0.33541
0.356193
0.362092
0.338252
0.320402
0.382539
0.400841
0.423831
0.42159
0.400745
0.360126
0.313205
0.258494
0.206568
0.18654
0.186298
0.186314
0.189769
0.233924
0.298358
0.289093
0.222827
0.188493
0.188211
0.188228
0.189649
0.213313
0.265383
0.31451
0.361206
0.40036
0.4218
0.424836
0.402983
0.383305
0.451022
0.467676
0.482264
0.482328
0.469628
0.433072
0.373285
0.308445
0.239679
0.197515
0.189053
0.186391
0.194702
0.239011
0.301342
0.291505
0.228243
0.192698
0.188278
0.192796
0.204231
0.249427
0.314165
0.376496
0.436003
0.471467
0.484378
0.48485
0.470653
0.452476
0.50256
0.516642
0.524318
0.524627
0.518755
0.501821
0.45369
0.371956
0.287847
0.225378
0.203664
0.191966
0.208827
0.253194
0.312693
0.304925
0.244708
0.206098
0.195271
0.21058
0.235144
0.298464
0.379205
0.459179
0.504248
0.520909
0.526806
0.52677
0.519455
0.504912
0.53291
0.542547
0.546264
0.546516
0.543742
0.536623
0.515647
0.450527
0.353666
0.270921
0.235108
0.215397
0.234495
0.279346
0.334872
0.330314
0.273223
0.233006
0.220634
0.24405
0.282457
0.36475
0.458646
0.518816
0.538137
0.544912
0.54756
0.547473
0.544212
0.535197
0.54967
0.554644
0.556282
0.556232
0.554931
0.551801
0.544536
0.514938
0.431359
0.335769
0.281115
0.258918
0.274092
0.318887
0.362067
0.356855
0.312465
0.275247
0.266366
0.290101
0.347929
0.442224
0.519954
0.545921
0.552396
0.555157
0.556349
0.556468
0.555182
0.550769
0.558075
0.560107
0.560045
0.559009
0.557874
0.556555
0.554679
0.547985
0.505931
0.414866
0.341279
0.317159
0.332485
0.400368
0.447903
0.437796
0.385164
0.33379
0.326418
0.351208
0.426095
0.513278
0.549907
0.555411
0.556823
0.557813
0.55881
0.559724
0.55993
0.558151
0.561514
0.561467
0.559094
0.55599
0.553437
0.552011
0.552434
0.551666
0.547059
0.493984
0.415729
0.384882
0.41855
0.503534
0.537923
0.527873
0.481918
0.413459
0.396024
0.426863
0.502692
0.549786
0.553233
0.55355
0.552925
0.554005
0.556233
0.558867
0.561042
0.56113
0.562705
0.561084
0.555218
0.548118
0.542324
0.537159
0.536397
0.54065
0.547057
0.541368
0.487543
0.445026
0.487609
0.542364
0.547311
0.545641
0.536111
0.481154
0.454584
0.496107
0.545113
0.549756
0.544281
0.539345
0.540238
0.544249
0.549453
0.555571
0.560751
0.5624
0.563171
0.561606
0.554366
0.5468
0.541459
0.532928
0.517329
0.510407
0.540592
0.547565
0.530995
0.488483
0.510136
0.549658
0.552712
0.551582
0.546201
0.509655
0.493622
0.534516
0.547436
0.541834
0.520426
0.522861
0.534997
0.542039
0.547707
0.554839
0.561841
0.563122
0.563152
0.562309
0.555946
0.549758
0.5465
0.538695
0.519033
0.505691
0.526137
0.54757
0.546036
0.514467
0.514621
0.553761
0.558216
0.557603
0.551328
0.516028
0.51601
0.546437
0.547437
0.526674
0.508276
0.524035
0.539707
0.545963
0.549898
0.555848
0.562731
0.563096
0.555359
0.554757
0.552227
0.547709
0.5462
0.537462
0.517776
0.50569
0.513534
0.547656
0.551063
0.526822
0.522336
0.556762
0.560861
0.560814
0.555348
0.523909
0.527887
0.550316
0.545627
0.510727
0.508274
0.525169
0.54119
0.545537
0.546708
0.549667
0.551621
0.551175
0.435502
0.507262
0.538013
0.538824
0.539965
0.527818
0.511744
0.505688
0.509228
0.546658
0.552385
0.535932
0.534811
0.558867
0.56088
0.560876
0.558423
0.536575
0.537174
0.551238
0.543238
0.50829
0.508272
0.521634
0.537603
0.539489
0.536418
0.531109
0.483191
0.405794
0.162392
0.259188
0.419587
0.494337
0.527291
0.527363
0.516435
0.505876
0.513524
0.546468
0.552876
0.543833
0.547524
0.560172
0.560881
0.560885
0.560386
0.549582
0.545449
0.552271
0.542437
0.51023
0.511091
0.526542
0.534378
0.524437
0.481883
0.389621
0.220413
0.136394
0.0371513
0.0529766
0.126909
0.239703
0.35749
0.450038
0.487323
0.515101
0.525879
0.545652
0.553024
0.551484
0.556266
0.560621
0.560515
0.560716
0.560917
0.558157
0.554125
0.553252
0.539017
0.525059
0.51146
0.476352
0.425739
0.330376
0.212634
0.106257
0.04311
0.031258
0.0199625
0.020074
0.025985
0.0441759
0.0825842
0.158787
0.239626
0.343625
0.481807
0.535531
0.553044
0.55761
0.560622
0.560634
0.551112
0.552383
0.560963
0.560929
0.56042
0.552615
0.528925
0.462182
0.308562
0.197993
0.127144
0.0698339
0.0385431
0.0238837
0.0192672
0.0189844
0.0188592
0.0188674
0.0193869
0.0216058
0.0263366
0.0353994
0.0496967
0.082278
0.234871
0.482036
0.542485
0.560588
0.560668
0.558489
0.477971
0.492977
0.560748
0.56101
0.560904
0.539897
0.456335
0.200448
0.0689889
0.0423526
0.0322567
0.0255564
0.0213854
0.0191949
0.0184949
0.0184174
0.0188457
0.0188587
0.0196315
0.0220588
0.0251345
0.0278239
0.0304086
0.0355112
0.0658337
0.239983
0.515094
0.560533
0.560594
0.534788
0.284245
0.296198
0.541634
0.560901
0.560879
0.504586
0.217378
0.0600854
0.035266
0.0308353
0.0282251
0.0253471
0.0221463
0.0195639
0.0184429
0.0184063
0.018859
0.0188905
0.0203782
0.0235881
0.0269344
0.0297987
0.0325997
0.0363179
0.0462116
0.0987249
0.296148
0.529077
0.560009
0.403818
0.183458
0.18824
0.443911
0.558506
0.542891
0.299613
0.0963925
0.0462045
0.0370826
0.0332121
0.0302317
0.0272401
0.0237648
0.0203991
0.0185987
0.0184192
0.0188709
0.0190918
0.0214473
0.0256882
0.0296654
0.0327012
0.0356108
0.0393061
0.0472375
0.0791309
0.18861
0.360692
0.44303
0.288519
0.17097
0.166142
0.309962
0.488538
0.37962
0.191826
0.0802625
0.0483163
0.040313
0.0362724
0.0330531
0.0298532
0.025823
0.0214924
0.0188698
0.0184266
0.0188825
0.0196774
0.0232261
0.0286013
0.0328423
0.0356832
0.0384157
0.0424616
0.0495338
0.0760774
0.168287
0.293915
0.358523
0.258243
0.169732
0.162374
0.255437
0.390426
0.311495
0.176647
0.0792398
0.0510932
0.0435003
0.0391215
0.0359787
0.0328644
0.0286177
0.0232316
0.0194543
0.018435
0.0189614
0.0212791
0.0264129
0.0326556
0.0367261
0.0389048
0.0413674
0.0455506
0.0521494
0.0728517
0.164125
0.306069
0.351875
0.263213
0.166312
0.158798
0.253533
0.354233
0.321782
0.179664
0.0777003
0.0540171
0.046663
0.0420733
0.0391985
0.0366003
0.0324894
0.0262245
0.0208942
0.0184657
0.0203005
0.0251461
0.0319094
0.0381255
0.0413061
0.0424634
0.0444966
0.0484035
0.0551653
0.0720895
0.158136
0.318707
0.370519
0.266385
0.163387
0.15876
0.252652
0.37124
0.341152
0.179029
0.0780269
0.0573677
0.0496198
0.0452535
0.0427585
0.0410637
0.0377064
0.0313574
0.0243329
0.0195061
0.025282
0.0326424
0.0398453
0.0444843
0.0459126
0.0460149
0.0473995
0.050976
0.0580206
0.072936
0.152867
0.33153
0.387162
0.269301
0.162232
0.158734
0.252327
0.385062
0.359826
0.178204
0.079581
0.0605209
0.0523029
0.0482356
0.0463748
0.0456528
0.0438381
0.0388195
0.0311318
0.0237011
0.0352958
0.0431177
0.0486532
0.0505325
0.0499255
0.0488497
0.0497238
0.0531494
0.060141
0.0742366
0.1477
0.340481
0.401711
0.27239
0.16311
0.158689
0.252154
0.395587
0.373337
0.175451
0.0811839
0.0629508
0.054633
0.0505725
0.0492871
0.0497146
0.0498698
0.0474037
0.0410006
0.0326868
0.047366
0.0532974
0.0558548
0.0549803
0.0524215
0.0506015
0.0513317
0.0546148
0.0615358
0.0755819
0.144123
0.344037
0.414944
0.278012
0.167854
0.159355
0.252202
0.403653
0.380925
0.175091
0.0827657
0.0644848
0.0562317
0.0522401
0.0510658
0.0522815
0.054476
0.0548138
0.0511867
0.0443364
0.0562194
0.060239
0.060312
0.0572131
0.053194
0.0514751
0.052162
0.0555313
0.0623468
0.0757236
0.137433
0.344299
0.431373
0.292043
0.175864
0.167246
0.261564
0.421603
0.383953
0.169833
0.0829768
0.0653737
0.0572723
0.0531209
0.0519145
0.0530401
0.0570194
0.0596545
0.0585462
0.0536194
0.0606971
0.0643261
0.062502
0.0576009
0.0531518
0.0518006
0.0525969
0.0561071
0.0625596
0.0754724
0.13121
0.335646
0.439895
0.310413
0.185826
0.175593
0.277261
0.43875
0.3808
0.162743
0.0824745
0.0655861
0.0579423
0.0535786
0.0522607
0.0529073
0.0575873
0.0620994
0.0629203
0.0584576
0.0633912
0.0668389
0.0630963
0.0569085
0.0525896
0.0519113
0.05288
0.056491
0.0625327
0.0745852
0.121835
0.322344
0.441512
0.332073
0.19808
0.185664
0.296884
0.446379
0.373174
0.151733
0.0812467
0.0654657
0.0583308
0.0539414
0.0524594
0.0525157
0.0567504
0.0628574
0.0655604
0.0608571
0.0665465
0.0681099
0.0623422
0.0551094
0.0520056
0.0519519
0.0532719
0.0568837
0.0623824
0.0734917
0.111103
0.299888
0.441512
0.356812
0.212916
0.198583
0.32124
0.446558
0.360392
0.136284
0.0798642
0.0653478
0.0587101
0.054468
0.052593
0.0525447
0.0546323
0.0625146
0.0669429
0.0631767
0.0715203
0.0684474
0.0599089
0.0529422
0.0520294
0.0519912
0.0540151
0.0575498
0.0623795
0.0729766
0.101954
0.258698
0.441462
0.38732
0.231656
0.21482
0.350393
0.446558
0.329667
0.121834
0.0792027
0.0654611
0.0594388
0.0554477
0.0527646
0.0526087
0.0527166
0.060678
0.0673916
0.066964
0.0785362
0.0679772
0.0568011
0.0520964
0.0520639
0.0522619
0.0554149
0.0592508
0.0634189
0.0730554
0.0966984
0.212121
0.432257
0.416513
0.256109
0.234603
0.385762
0.446558
0.280383
0.11176
0.0792287
0.0666929
0.0612795
0.0570689
0.0532133
0.0526518
0.0526692
0.0575758
0.0674175
0.0729368
0.086844
0.0662592
0.0547759
0.0521339
0.0521109
0.0533952
0.0578115
0.0624316
0.0663785
0.0748481
0.0952788
0.178305
0.409844
0.426501
0.284557
0.260158
0.418288
0.4432
0.230364
0.107661
0.0808701
0.0697799
0.0645273
0.0594156
0.0543219
0.052671
0.0526836
0.0551079
0.0663933
0.0806898
0.0945811
0.0640776
0.0542481
0.0521612
0.0529704
0.0558069
0.0611621
0.0668542
0.0711099
0.0787773
0.0960775
0.1626
0.385143
0.42652
0.306555
0.286978
0.429204
0.42391
0.201667
0.107385
0.0846252
0.0744607
0.0688168
0.0623996
0.056358
0.0531417
0.0527209
0.054258
0.0644307
0.0886221
0.0990112
0.0631094
0.0549112
0.0532809
0.0550003
0.0592671
0.0652856
0.0723278
0.0773727
0.0848666
0.101669
0.160611
0.366493
0.426524
0.315922
0.301997
0.429204
0.40305
0.194472
0.113171
0.0909154
0.0806181
0.0740187
0.0660285
0.0593016
0.0545887
0.0530965
0.0545888
0.0631132
0.0939784
0.0998001
0.0642126
0.0566215
0.0557157
0.0580308
0.0635629
0.0706448
0.0791755
0.0856038
0.09395
0.113825
0.175688
0.360928
0.426548
0.314912
0.303322
0.429204
0.390435
0.203303
0.12666
0.100727
0.0888731
0.0805764
0.0709751
0.0632416
0.0571687
0.0546872
0.0558865
0.063188
0.095516
0.0998059
0.0667348
0.0588947
0.0588541
0.0620417
0.069184
0.0781229
0.0880101
0.0963576
0.106922
0.132444
0.206846
0.365141
0.423069
0.304047
0.303412
0.40407
0.390443
0.228977
0.145759
0.114229
0.0997335
0.089196
0.0781963
0.0687385
0.0610539
0.0574712
0.0579209
0.0650847
0.0955262
0.09978
0.0700077
0.0612173
0.0622212
0.0673898
0.0770386
0.0881909
0.0991672
0.109376
0.123164
0.154887
0.238097
0.371566
0.381408
0.303631
0.303691
0.38727
0.387403
0.254893
0.167284
0.130274
0.112684
0.100125
0.0879935
0.0765374
0.0666271
0.0608894
0.0601178
0.0683538
0.0955091
0.0993547
0.0731487
0.0636716
0.0661016
0.0743779
0.0874647
0.100652
0.112574
0.124218
0.141182
0.178223
0.261476
0.36933
0.369737
0.304494
0.305978
0.377917
0.38374
0.2776
0.189429
0.147731
0.127263
0.113122
0.0999278
0.0868761
0.0741739
0.0649883
0.0624675
0.0715006
0.0954256
0.0944894
0.0756766
0.0671234
0.0713326
0.0833978
0.100251
0.115323
0.12815
0.141202
0.16117
0.202923
0.283699
0.367489
0.362775
0.310717
0.313115
0.373035
0.382441
0.298384
0.213427
0.167359
0.143849
0.128113
0.114038
0.0997824
0.0841353
0.0706675
0.0658154
0.0740529
0.0915548
0.0884204
0.0783973
0.0727041
0.078874
0.0954006
0.115705
0.132018
0.145735
0.160731
0.184192
0.230132
0.305369
0.368398
0.36086
0.321092
0.323555
0.371429
0.383033
0.319399
0.239977
0.189796
0.162899
0.145354
0.130588
0.115795
0.0979468
0.0792814
0.0710858
0.0763997
0.0855481
0.084797
0.0828347
0.0812438
0.0902935
0.111697
0.134419
0.151221
0.166061
0.183617
0.211518
0.260872
0.327691
0.371546
0.362862
0.334631
0.336714
0.372293
0.384153
0.339234
0.26867
0.215945
0.185455
0.165955
0.150508
0.135977
0.117462
0.0934444
0.0792631
0.0795529
0.0813904
0.0849624
0.0894146
0.0933003
0.107876
0.134205
0.156902
0.173907
0.190736
0.2123
0.245395
0.295623
0.350939
0.378056
0.369738
0.350772
0.352013
0.375931
0.38616
0.357735
0.299572
0.247663
0.213838
0.191814
0.175485
0.161661
0.144703
0.117215
0.0923357
0.0842045
0.08158
0.0850613
0.0977515
0.109105
0.13374
0.163761
0.184616
0.202566
0.22313
0.250175
0.287213
0.334075
0.375369
0.38891
0.381959
0.36996
0.370215
0.383902
0.391356
0.376433
0.333552
0.287081
0.251828
0.226727
0.208286
0.19418
0.17978
0.152587
0.114372
0.091208
0.0816919
0.0854502
0.105921
0.128774
0.16926
0.201156
0.221482
0.242223
0.268101
0.299994
0.337396
0.37615
0.40258
0.406791
0.40169
0.395074
0.394581
0.400162
0.404428
0.399199
0.373373
0.337212
0.303509
0.275635
0.253201
0.235598
0.220144
0.195726
0.149525
0.102277
0.0817853
0.0896366
0.11335
0.155552
0.216297
0.250775
0.273504
0.298659
0.328939
0.362509
0.395544
0.422557
0.436045
0.436174
0.433512
0.431366
0.431071
0.43187
0.433395
0.433094
0.422362
0.399713
0.371465
0.342761
0.316132
0.292066
0.268754
0.242169
0.194176
0.122025
0.082798
0.100902
0.126761
0.197377
0.274528
0.315227
0.343201
0.372448
0.403397
0.433012
0.456987
0.472265
0.478222
0.479088
0.479613
0.480934
0.481917
0.481808
0.482152
0.482771
0.48036
0.469604
0.45062
0.425888
0.398141
0.368979
0.337498
0.298365
0.243171
0.155793
0.0919574
0.12136
0.156896
0.255975
0.341908
0.391157
0.424559
0.452206
0.476327
0.495389
0.508368
0.516048
0.520124
0.522975
0.525554
0.528039
0.529845
0.530781
0.531416
0.5317
0.531029
0.52697
0.518213
0.503857
0.483632
0.457439
0.42328
0.375723
0.304785
0.207248
0.122282
0.154632
0.213096
0.32686
0.416292
0.467838
0.494462
0.511334
0.523369
0.531839
0.537613
0.541677
0.544728
0.547203
0.549215
0.550862
0.552189
0.553228
0.553974
0.554294
0.554106
0.553148
0.551029
0.546835
0.539037
0.525386
0.502222
0.462372
0.389682
0.287809
0.185627
0.210778
0.298581
0.409298
0.485079
0.518154
0.530326
0.537531
0.542678
0.546506
0.549427
0.551744
0.553608
0.555081
0.556234
0.557155
0.557921
0.558526
0.55897
0.559246
0.55937
0.559359
0.55919
0.55857
0.556947
0.553294
0.544791
0.524375
0.477933
0.396335
0.292982
0.305951
0.404093
0.483094
0.524216
0.537535
0.543273
0.547245
0.550262
0.552599
0.554437
0.555886
0.557007
0.557847
0.558467
0.558924
0.559239
0.559389
0.559444
0.559476
0.559558
0.559705
0.559951
0.560003
0.560001
0.559941
0.557938
0.551667
0.533971
0.494871
0.425887
0.428259
0.495112
0.524649
0.538317
0.545149
0.549295
0.552201
0.554368
0.556016
0.557261
0.558175
0.558814
0.559228
0.559463
0.559547
0.559483
0.559322
0.559161
0.558989
0.558853
0.558789
0.558858
0.559173
0.559563
0.559959
0.559971
0.559854
0.554956
0.540397
0.512931
0.509908
0.53623
0.541373
0.545636
0.550044
0.553383
0.555648
0.557244
0.558395
0.559203
0.55973
0.560023
0.56012
0.560049
0.559813
0.559423
0.558887
0.558173
0.557354
0.556318
0.555105
0.554131
0.553526
0.554228
0.556658
0.559891
0.561089
0.56108
0.554005
0.523826
0.517069
0.543229
0.549314
0.551441
0.554194
0.556636
0.558305
0.559419
0.560173
0.560656
0.560914
0.560977
0.560873
0.560586
0.560094
0.559362
0.55821
0.556565
0.55422
0.550574
0.545637
0.540748
0.536357
0.536925
0.541286
0.553313
0.560556
0.561145
0.560099
0.534236
0.517114
0.54656
0.554211
0.555984
0.557634
0.559213
0.560338
0.561072
0.561546
0.561829
0.561949
0.561924
0.561757
0.561407
0.560814
0.559885
0.558483
0.556068
0.551426
0.54337
0.531927
0.52017
0.509692
0.509122
0.5095
0.530388
0.554161
0.561101
0.561113
0.546728
0.517126
0.550009
0.558073
0.559459
0.560258
0.561144
0.561855
0.562338
0.562664
0.562874
0.562988
0.563013
0.562946
0.562747
0.562346
0.561616
0.560363
0.558065
0.553473
0.543956
0.52531
0.504311
0.494313
0.492974
0.480214
0.493576
0.525359
0.559592
0.561109
0.555842
0.520095
0.554412
0.561552
0.562033
0.562098
0.562509
0.562972
0.563342
0.563634
0.563872
0.564069
0.564231
0.56436
0.564444
0.564437
0.564248
0.563724
0.562523
0.559709
0.551887
0.531313
0.508116
0.496585
0.489769
0.475186
0.465056
0.459629
0.539191
0.561055
0.561123
0.528493
0.559007
0.564111
0.563675
0.563253
0.563449
0.563815
0.564183
0.56452
0.56483
0.565111
0.565369
0.565599
0.565852
0.566134
0.566415
0.566626
0.56664
0.566051
0.562836
0.55054
0.524148
0.505436
0.492544
0.475586
0.451434
0.451378
0.481712
0.549177
0.561086
0.539665
0.561665
0.564987
0.564438
0.563942
0.564115
0.564512
0.564953
0.565359
0.565694
0.565914
0.566064
0.566166
0.566317
0.566604
0.567068
0.567685
0.568412
0.569105
0.56907
0.565621
0.552383
0.529287
0.501502
0.478123
0.451378
0.451376
0.451382
0.508242
0.552678
0.547369
0.562158
0.565016
0.564744
0.564414
0.564676
0.56519
0.565731
0.566142
0.566306
0.566235
0.566006
0.565814
0.565727
0.565887
0.566351
0.567087
0.568024
0.569138
0.570537
0.571058
0.567964
0.557064
0.53059
0.491089
0.45925
0.451378
0.456694
0.466315
0.533402
0.551158
0.562153
0.565051
0.564958
0.564848
0.565278
0.565958
0.566536
0.566719
0.566443
0.565852
0.564916
0.563814
0.563037
0.562861
0.563402
0.56452
0.566029
0.567818
0.569733
0.571157
0.571411
0.569693
0.559852
0.53142
0.487582
0.461124
0.482094
0.471742
0.519667
0.553606
0.562292
0.565083
0.565216
0.565381
0.56605
0.566849
0.567208
0.566816
0.565781
0.563748
0.560674
0.557295
0.555026
0.554157
0.555182
0.557355
0.560201
0.563569
0.566942
0.569841
0.57143
0.571458
0.570915
0.561973
0.536587
0.504554
0.50544
0.494842
0.510333
0.555365
0.562525
0.565175
0.565649
0.566157
0.56705
0.567702
0.567418
0.565999
0.562805
0.556725
0.548211
0.539976
0.535578
0.533532
0.536074
0.540331
0.545369
0.552953
0.559631
0.565703
0.569761
0.571451
0.571477
0.571153
0.563347
0.544729
0.53159
0.522773
0.510319
0.556569
0.562854
0.565563
0.566425
0.567242
0.568098
0.568092
0.566685
0.562635
0.553916
0.537025
0.521599
0.510798
0.509558
0.509123
0.511982
0.514839
0.518783
0.531308
0.542409
0.555279
0.564645
0.56971
0.571469
0.571485
0.570527
0.563445
0.550169
0.540442
0.513509
0.557527
0.563547
0.566468
0.56759
0.5684
0.568736
0.567716
0.563504
0.55311
0.531233
0.505678
0.496684
0.496661
0.49986
0.501167
0.501657
0.501701
0.501741
0.506993
0.514493
0.531568
0.55213
0.564371
0.569808
0.571489
0.571525
0.569682
0.563016
0.551181
0.517122
0.558855
0.564909
0.56784
0.568743
0.569096
0.568736
0.565074
0.554054
0.527979
0.498883
0.493292
0.493345
0.497784
0.503379
0.502843
0.503076
0.503636
0.501864
0.495671
0.493736
0.499731
0.524134
0.551614
0.565069
0.570169
0.571542
0.571578
0.569492
0.560536
0.524803
0.561054
0.566745
0.568987
0.569104
0.569094
0.566885
0.556309
0.527294
0.488605
0.487464
0.493214
0.499163
0.506572
0.511774
0.50998
0.508567
0.508994
0.50574
0.495096
0.491584
0.486232
0.489015
0.523306
0.553831
0.566636
0.570985
0.571609
0.571607
0.566947
0.540519
0.56381
0.568268
0.569102
0.569108
0.568554
0.559524
0.52946
0.485971
0.482055
0.487455
0.501704
0.511586
0.519494
0.52244
0.521271
0.518287
0.516601
0.510307
0.49635
0.492715
0.486189
0.478924
0.490789
0.528117
0.55757
0.568794
0.571626
0.571606
0.5699
0.555621
0.566263
0.569086
0.569111
0.569061
0.562965
0.534722
0.484851
0.475392
0.482031
0.495737
0.514201
0.523386
0.52854
0.529752
0.529276
0.526723
0.523547
0.513632
0.499421
0.494928
0.48623
0.478019
0.47755
0.495854
0.53262
0.561873
0.57127
0.571652
0.571334
0.563655
0.567973
0.569102
0.56908
0.565805
0.546003
0.481053
0.470888
0.475384
0.484317
0.504083
0.520832
0.529414
0.533147
0.534264
0.534468
0.532779
0.52917
0.51723
0.500809
0.498599
0.487951
0.474207
0.465972
0.468277
0.485477
0.540899
0.566156
0.571576
0.571593
0.568006
0.569065
0.569073
0.56744
0.552836
0.519201
0.47089
0.470887
0.475595
0.485099
0.50436
0.522719
0.533377
0.536646
0.537802
0.538453
0.53749
0.534015
0.519209
0.50586
0.50274
0.492067
0.474181
0.455324
0.443289
0.440819
0.49478
0.548429
0.569247
0.571552
0.57061
0.569051
0.567533
0.556162
0.525959
0.498095
0.472098
0.47105
0.474554
0.482463
0.503689
0.526623
0.537695
0.540107
0.541151
0.5419
0.541164
0.537927
0.523561
0.514452
0.509178
0.496709
0.477841
0.455239
0.440812
0.440816
0.446058
0.504305
0.55523
0.569897
0.570634
0.566473
0.558578
0.53291
0.520769
0.507661
0.49305
0.469566
0.466346
0.478583
0.503615
0.532782
0.542344
0.543588
0.544612
0.545201
0.544418
0.541801
0.531258
0.522236
0.51724
0.500347
0.48099
0.457531
0.440817
0.440814
0.440819
0.474253
0.525604
0.556883
0.57015
0.560153
0.547237
0.533064
0.533651
0.529758
0.511897
0.462943
0.451276
0.47305
0.510536
0.540064
0.546877
0.547301
0.54847
0.548849
0.548195
0.546539
0.540773
0.533063
0.524116
0.503387
0.479867
0.460039
0.441632
0.44411
0.452844
0.464008
0.494277
0.523458
0.558675
0.5563
0.549348
0.544967
0.544994
0.536864
0.503356
0.452304
0.448138
0.476263
0.524769
0.547632
0.551302
0.551723
0.552981
0.553267
0.552978
0.55224
0.549898
0.545168
0.536708
0.511684
0.482655
0.462089
0.446032
0.476825
0.494898
0.470264
0.484456
0.484477
0.538187
0.556369
0.553265
0.549078
0.540836
0.524631
0.475132
0.445028
0.448128
0.495457
0.541639
0.554425
0.555978
0.556776
0.557825
0.558106
0.558128
0.557979
0.55736
0.555392
0.550753
0.533397
0.500986
0.472029
0.464642
0.516607
0.537304
0.498521
0.484459
0.48445
0.518837
0.55633
0.543777
0.539179
0.51451
0.491098
0.449398
0.444972
0.466661
0.528368
0.555487
0.559945
0.560467
0.561114
0.561556
0.561634
0.561683
0.561754
0.561818
0.561578
0.56034
0.554143
0.534275
0.504274
0.495214
0.510439
0.537422
0.537414
0.505914
0.492509
0.50329
0.542687
0.51122
0.507622
0.475379
0.455517
0.449338
0.459043
0.514695
0.554741
0.562777
0.563389
0.563255
0.563048
0.562496
0.561947
0.56171
0.561806
0.562306
0.563258
0.563566
0.563498
0.557631
0.541676
0.527292
0.51049
0.517862
0.541435
0.536265
0.517021
0.510027
0.501858
0.468309
0.468681
0.455339
0.455292
0.461323
0.50948
0.553919
0.564432
0.564954
0.564381
0.563149
0.561978
0.560542
0.559344
0.558644
0.55883
0.559752
0.561478
0.563557
0.564677
0.564674
0.560855
0.550202
0.522944
0.517671
0.541633
0.545418
0.535538
0.516326
0.465757
0.460989
0.454281
0.454281
0.467744
0.511847
0.554106
0.564903
0.565013
0.564954
0.562919
0.55974
0.555962
0.552083
0.549103
0.547099
0.547762
0.549568
0.553664
0.558762
0.563017
0.564733
0.564712
0.562607
0.54752
0.521112
0.529717
0.545471
0.541561
0.513843
0.467771
0.469638
0.460679
0.476318
0.517703
0.55538
0.564923
0.565022
0.56496
0.562386
0.555705
0.547533
0.538763
0.531666
0.52724
0.524365
0.525744
0.527142
0.533933
0.543889
0.555223
0.562638
0.564755
0.564727
0.562406
0.543781
0.530771
0.545439
0.544945
0.513761
0.482874
0.493314
0.492034
0.525855
0.556784
0.564946
0.565029
0.564969
0.561874
0.550899
0.536045
0.523485
0.514433
0.508872
0.506204
0.505626
0.506909
0.506445
0.511104
0.518692
0.534937
0.553576
0.563102
0.564779
0.564736
0.56038
0.544404
0.546461
0.547315
0.513767
0.50208
0.520259
0.534782
0.557478
0.564963
0.565036
0.564983
0.561489
0.546643
0.52505
0.511095
0.503403
0.501319
0.503251
0.504984
0.505067
0.506115
0.505514
0.504079
0.503035
0.508146
0.531671
0.554419
0.564238
0.564798
0.564752
0.558851
0.552923
0.549881
0.513778
0.512446
0.541081
0.557454
0.564657
0.565035
0.565
0.561614
0.544855
0.517006
0.502282
0.500394
0.500002
0.500971
0.50404
0.505914
0.50592
0.506394
0.506117
0.504298
0.501004
0.49649
0.503674
0.533157
0.557002
0.564747
0.564809
0.564271
0.560682
0.554351
0.51665
0.523294
0.554361
0.563903
0.565032
0.565017
0.562323
0.546359
0.514719
0.496066
0.495345
0.495485
0.497754
0.500875
0.504728
0.505529
0.506735
0.506496
0.505855
0.503315
0.498711
0.491344
0.487163
0.499322
0.538442
0.560077
0.564788
0.564814
0.564692
0.559801
0.529086
0.538495
0.561001
0.565015
0.565028
0.563682
0.549647
0.515038
0.490499
0.489154
0.489217
0.490508
0.494952
0.500613
0.504622
0.504636
0.507218
0.506583
0.50506
0.501258
0.49527
0.485089
0.478326
0.462957
0.503374
0.545672
0.562514
0.564813
0.56481
0.563192
0.544439
0.551041
0.563935
0.565026
0.564981
0.554563
0.519771
0.476427
0.478959
0.483042
0.482913
0.48736
0.494338
0.501033
0.505337
0.505524
0.508107
0.506984
0.505075
0.499637
0.493088
0.481198
0.470059
0.45977
0.464007
0.516931
0.551632
0.564741
0.564822
0.564753
0.554273
0.558429
0.564992
0.565001
0.560405
0.53284
0.482281
0.460292
0.469433
0.476024
0.480723
0.487432
0.495368
0.502436
0.506906
0.507992
0.508511
0.507716
0.505279
0.499599
0.49237
0.480457
0.465312
0.45977
0.459771
0.484472
0.526089
0.555983
0.564773
0.564799
0.560041
0.56267
0.564993
0.564417
0.54463
0.516205
0.473601
0.460265
0.462477
0.472373
0.480639
0.488508
0.49708
0.503723
0.507278
0.508512
0.508516
0.508286
0.505569
0.499919
0.491893
0.480294
0.465727
0.45977
0.461323
0.488305
0.514952
0.52517
0.562287
0.56476
0.563286
0.564773
0.564931
0.553666
0.522357
0.521931
0.485913
0.462076
0.461904
0.472661
0.480271
0.490341
0.498049
0.503548
0.506866
0.508516
0.508513
0.508354
0.506371
0.500993
0.49343
0.482167
0.469235
0.460262
0.477983
0.518974
0.518966
0.519149
0.547793
0.563863
0.563871
0.564047
0.557558
0.537414
0.52423
0.534006
0.505396
0.465822
0.460115
0.473544
0.480664
0.490229
0.498782
0.502711
0.505481
0.508512
0.508526
0.508278
0.507818
0.50393
0.498506
0.488472
0.475879
0.466216
0.497738
0.537872
0.537769
0.522368
0.528977
0.553751
0.562935
0.560741
0.548313
0.538251
0.538282
0.536795
0.503483
0.462135
0.454356
0.472978
0.483565
0.489975
0.49921
0.501686
0.503363
0.507357
0.508333
0.507981
0.508642
0.507617
0.50475
0.49151
0.478453
0.473927
0.500472
0.538377
0.542915
0.542851
0.534755
0.545735
0.558301
0.555745
0.545498
0.544911
0.543582
0.525636
0.488839
0.454478
0.454348
0.474869
0.489233
0.491241
0.499494
0.501153
0.502238
0.504463
0.505951
0.506866
0.508641
0.508641
0.506601
0.484938
0.478386
0.480259
0.49542
0.5187
0.540781
0.547696
0.547698
0.547899
0.558092
0.534564
0.540212
0.542661
0.530318
0.499176
0.469148
0.454389
0.456209
0.48248
0.496502
0.495636
0.500174
0.501182
0.502486
0.502841
0.502848
0.504045
0.507282
0.507885
0.501028
0.478394
0.478387
0.482021
0.484126
0.496176
0.515018
0.542982
0.547698
0.547238
0.551029
0.439538
0.508805
0.523014
0.498126
0.480967
0.462986
0.456662
0.470715
0.495798
0.504513
0.502858
0.502422
0.502011
0.502921
0.502472
0.50104
0.500235
0.501023
0.49941
0.486853
0.478384
0.478394
0.481502
0.476145
0.482759
0.497478
0.521817
0.538587
0.538584
0.498602
0.397678
0.42673
0.464782
0.468325
0.47203
0.467208
0.474689
0.4967
0.510733
0.513332
0.511631
0.507685
0.505076
0.503974
0.502664
0.500794
0.498236
0.495607
0.490443
0.478987
0.478395
0.478384
0.480015
0.476103
0.476176
0.493878
0.498729
0.501125
0.481706
0.391694
0.397854
0.397887
0.416744
0.450794
0.474466
0.487979
0.506193
0.519075
0.522414
0.522155
0.520535
0.51597
0.511681
0.50814
0.505571
0.502988
0.499847
0.496814
0.49184
0.483281
0.482182
0.483631
0.48341
0.4761
0.47613
0.480801
0.464346
0.431827
0.399927
0.389739
0.397852
0.399787
0.423413
0.462348
0.495604
0.517577
0.527187
0.529294
0.529475
0.529033
0.527881
0.524838
0.520788
0.516523
0.513447
0.51068
0.507737
0.505464
0.502825
0.499803
0.499026
0.500743
0.497385
0.486671
0.477473
0.468554
0.437537
0.398553
0.389739
0.389739
0.397856
0.429829
0.464875
0.49924
0.523517
0.531981
0.532604
0.532785
0.533096
0.533123
0.532725
0.531494
0.529207
0.526254
0.524014
0.522353
0.521127
0.520786
0.520919
0.521496
0.521059
0.521121
0.517157
0.507814
0.49126
0.471495
0.440172
0.411189
0.404064
0.389739
0.429407
0.488977
0.51611
0.528781
0.533858
0.534121
0.533986