/*--------------------------------*- C++ -*----------------------------------*\
| =========                 |                                                 |
| \\      /  F ield         | OpenFOAM: The Open Source CFD Toolbox           |
|  \\    /   O peration     | Version:  v1606+                                |
|   \\  /    A nd           | Web:      www.OpenFOAM.com                      |
|    \\/     M anipulation  |                                                 |
\*---------------------------------------------------------------------------*/
FoamFile
{
    version     2.0;
    format      ascii;
    class       volVectorField;
    location    "0.73";
    object      U.particlesMean;
}
// * * * * * * * * * * * * * * * * * * * * * * * * * * * * * * * * * * * * * //

dimensions      [0 1 -1 0 0 0 0];

internalField   nonuniform List<vector> 
6000
(
(-0.00725523 -0.351044 0)
(-0.00160857 -0.381239 0)
(0.00465835 -0.377183 0)
(0.011569 -0.375244 0)
(0.0167038 -0.379971 0)
(0.019743 -0.387624 0)
(0.0207352 -0.393971 0)
(0.0199633 -0.399466 0)
(0.0182744 -0.405227 0)
(0.0158238 -0.411636 0)
(0.0131138 -0.418839 0)
(0.0108662 -0.424319 0)
(0.00740677 -0.430501 0)
(0.00415343 -0.434838 0)
(0.00145229 -0.436257 0)
(-0.00126013 -0.435774 0)
(-0.00399139 -0.434166 0)
(-0.00768336 -0.429195 0)
(-0.0107904 -0.424574 0)
(-0.0139735 -0.418259 0)
(-0.0169431 -0.410795 0)
(-0.0194168 -0.403582 0)
(-0.0211877 -0.3976 0)
(-0.021736 -0.392347 0)
(-0.020682 -0.386717 0)
(-0.0174276 -0.377855 0)
(-0.0119156 -0.37334 0)
(-0.00463308 -0.376444 0)
(0.00200321 -0.380243 0)
(0.0077015 -0.352125 0)
(0.0155113 0.0255102 0)
(0.00378037 0.0523152 0)
(0.00775399 0.0468881 0)
(0.0118457 0.0431656 0)
(0.0198306 0.0427276 0)
(0.0258663 0.0426695 0)
(0.0292231 0.0408381 0)
(0.0299297 0.0415955 0)
(0.0286373 0.0444349 0)
(0.0246596 0.0488754 0)
(0.0174524 0.0518718 0)
(0.0107414 0.0501188 0)
(0.00630628 0.0461942 0)
(0.00335085 0.0447384 0)
(0.00149 0.0433186 0)
(-0.000338563 0.0432953 0)
(-0.00290506 0.04491 0)
(-0.00657923 0.0462105 0)
(-0.0118147 0.0514499 0)
(-0.0192782 0.0521952 0)
(-0.0261716 0.0483495 0)
(-0.0301307 0.0438805 0)
(-0.0315608 0.0409147 0)
(-0.0305661 0.0407586 0)
(-0.0268728 0.0427976 0)
(-0.0203368 0.041801 0)
(-0.0118998 0.0423713 0)
(-0.00741303 0.0468844 0)
(-0.0036208 0.0521865 0)
(-0.0152585 0.0244475 0)
(-0.00689958 -0.0356788 0)
(-0.00372399 -0.045889 0)
(0.00643032 -0.0496843 0)
(0.0104598 -0.0526369 0)
(0.0198241 -0.0528423 0)
(0.0282686 -0.0480522 0)
(0.0348895 -0.042113 0)
(0.0371894 -0.0371214 0)
(0.0353455 -0.0305412 0)
(0.0281102 -0.0242376 0)
(0.0174327 -0.0234006 0)
(0.0094542 -0.0271637 0)
(0.00503263 -0.0333179 0)
(0.00286976 -0.0377611 0)
(0.00181078 -0.0384729 0)
(0.000241565 -0.0383858 0)
(-0.00203393 -0.0365256 0)
(-0.00521678 -0.0318176 0)
(-0.0107599 -0.0252117 0)
(-0.0192799 -0.0220557 0)
(-0.0300353 -0.0243084 0)
(-0.0368507 -0.0307871 0)
(-0.0385506 -0.0375445 0)
(-0.0358452 -0.0431169 0)
(-0.0285523 -0.048796 0)
(-0.0197438 -0.0536606 0)
(-0.0103246 -0.0535819 0)
(-0.00603394 -0.0505679 0)
(0.00423752 -0.0460818 0)
(0.00717596 -0.0351935 0)
(0.000674081 -0.024327 0)
(-0.00162974 -0.0422254 0)
(0.000967347 -0.0458625 0)
(0.00279435 -0.0494917 0)
(0.0107613 -0.0515541 0)
(0.0223263 -0.0487959 0)
(0.0344416 -0.0427663 0)
(0.0415008 -0.0351994 0)
(0.0430614 -0.0250719 0)
(0.0376827 -0.0136332 0)
(0.0252216 -0.00749068 0)
(0.0118416 -0.00960526 0)
(0.00199 -0.0153345 0)
(-0.000691886 -0.0216657 0)
(0.000741111 -0.0248299 0)
(0.00242699 -0.0233867 0)
(0.00204536 -0.0190644 0)
(-0.0026959 -0.0136627 0)
(-0.0136713 -0.00813887 0)
(-0.0271814 -0.00723744 0)
(-0.0389458 -0.0142679 0)
(-0.0439076 -0.0257789 0)
(-0.0419505 -0.0359028 0)
(-0.0345079 -0.0439675 0)
(-0.0219395 -0.0498936 0)
(-0.0102043 -0.0525402 0)
(-0.00229952 -0.0502132 0)
(-0.000481871 -0.0463245 0)
(0.00208264 -0.0418792 0)
(-0.000305944 -0.0237799 0)
(0.00312424 -0.0356303 0)
(-0.00816915 -0.0532723 0)
(-0.0107898 -0.0601226 0)
(-0.0103042 -0.0732509 0)
(-0.000911646 -0.0807675 0)
(0.0125007 -0.078851 0)
(0.0274691 -0.0685655 0)
(0.0383634 -0.0561966 0)
(0.0435801 -0.0419836 0)
(0.0414474 -0.0269515 0)
(0.0317169 -0.0167655 0)
(0.015722 -0.0150116 0)
(0.00235121 -0.0231204 0)
(-0.00238225 -0.0339187 0)
(0.000131429 -0.039765 0)
(0.0043784 -0.0377535 0)
(0.00476719 -0.0298488 0)
(-0.00282095 -0.0200191 0)
(-0.0178642 -0.0132881 0)
(-0.0337701 -0.0167208 0)
(-0.0424924 -0.0276983 0)
(-0.0440644 -0.0428085 0)
(-0.0382473 -0.0569796 0)
(-0.0268433 -0.0699686 0)
(-0.0117104 -0.0801547 0)
(0.00162858 -0.0818065 0)
(0.0108745 -0.0741584 0)
(0.0113879 -0.0609457 0)
(0.00875536 -0.0528016 0)
(-0.0024561 -0.0341721 0)
(0.0026785 -0.0364864 0)
(-0.0162491 -0.0471572 0)
(-0.023466 -0.0631789 0)
(-0.0223624 -0.082665 0)
(-0.0138232 -0.0941192 0)
(0.000599139 -0.0952843 0)
(0.0182862 -0.0830846 0)
(0.0327446 -0.0647435 0)
(0.0413175 -0.0469507 0)
(0.0424859 -0.0304789 0)
(0.0366699 -0.0204227 0)
(0.0236695 -0.0167918 0)
(0.0105346 -0.0231013 0)
(0.00237489 -0.0362825 0)
(0.00131648 -0.0458974 0)
(0.00358514 -0.0429768 0)
(0.00064879 -0.0299986 0)
(-0.0105391 -0.0191616 0)
(-0.025447 -0.0147061 0)
(-0.038549 -0.0202337 0)
(-0.0436526 -0.0312518 0)
(-0.0414348 -0.0479699 0)
(-0.0321517 -0.0659044 0)
(-0.0170293 -0.0848647 0)
(0.000658376 -0.0964485 0)
(0.0148342 -0.0950206 0)
(0.0229961 -0.0834112 0)
(0.0239293 -0.0639017 0)
(0.0167145 -0.0463757 0)
(-0.00290314 -0.0346469 0)
(-0.00198595 -0.0246349 0)
(-0.0219692 -0.0439086 0)
(-0.0296794 -0.064676 0)
(-0.0303145 -0.0862286 0)
(-0.0238481 -0.101807 0)
(-0.0100245 -0.107024 0)
(0.00774014 -0.0979821 0)
(0.027009 -0.0760961 0)
(0.0376256 -0.0507738 0)
(0.0424236 -0.0310521 0)
(0.0392465 -0.0186217 0)
(0.0317614 -0.0119336 0)
(0.0205674 -0.0173541 0)
(0.0106282 -0.0336974 0)
(0.00367411 -0.0453932 0)
(0.00059818 -0.0414712 0)
(-0.00775448 -0.0250562 0)
(-0.0202465 -0.0125468 0)
(-0.0329254 -0.0103593 0)
(-0.0406828 -0.0183285 0)
(-0.0436022 -0.0321967 0)
(-0.0374461 -0.0523168 0)
(-0.025701 -0.0779797 0)
(-0.00613493 -0.09964 0)
(0.0113359 -0.108033 0)
(0.0247753 -0.10246 0)
(0.0308099 -0.086447 0)
(0.0300051 -0.0646435 0)
(0.0218958 -0.0424837 0)
(0.00133658 -0.0229157 0)
(-0.000115801 -0.0176192 0)
(-0.0213233 -0.0353772 0)
(-0.0269375 -0.0583836 0)
(-0.0271242 -0.0821141 0)
(-0.0237087 -0.101721 0)
(-0.0154514 -0.111073 0)
(-0.00194712 -0.106126 0)
(0.0163895 -0.0853757 0)
(0.0300484 -0.0545605 0)
(0.0382116 -0.0312244 0)
(0.0372982 -0.0173426 0)
(0.0371689 -0.0100099 0)
(0.0301067 -0.013721 0)
(0.0191199 -0.0323444 0)
(0.00716988 -0.0444201 0)
(-0.00486678 -0.0394887 0)
(-0.0171157 -0.0219685 0)
(-0.0299781 -0.00654006 0)
(-0.0380116 -0.00862187 0)
(-0.0386739 -0.0170493 0)
(-0.0390603 -0.0327696 0)
(-0.0295916 -0.0568316 0)
(-0.0149055 -0.0874759 0)
(0.00330919 -0.107858 0)
(0.0165705 -0.112099 0)
(0.0245903 -0.102475 0)
(0.0275656 -0.0823521 0)
(0.0268562 -0.058322 0)
(0.0211221 -0.034459 0)
(-0.00085779 -0.014689 0)
(-0.000738547 -0.0161297 0)
(-0.0158855 -0.0252514 0)
(-0.019793 -0.0486818 0)
(-0.0209328 -0.0752231 0)
(-0.021778 -0.0981482 0)
(-0.0171168 -0.113876 0)
(-0.00979457 -0.112551 0)
(0.00547947 -0.0921408 0)
(0.0205452 -0.0589313 0)
(0.0314829 -0.029833 0)
(0.0311589 -0.0121758 0)
(0.0367527 -0.00303341 0)
(0.0353357 -0.00715801 0)
(0.0249674 -0.0258925 0)
(0.00963155 -0.0374444 0)
(-0.010349 -0.031693 0)
(-0.0244669 -0.0142402 0)
(-0.0362669 0.00305117 0)
(-0.0370215 -0.00176402 0)
(-0.0323632 -0.0122694 0)
(-0.0317821 -0.0318923 0)
(-0.0199549 -0.0619036 0)
(-0.00406664 -0.0942869 0)
(0.0108629 -0.114738 0)
(0.0173228 -0.114395 0)
(0.021643 -0.0980927 0)
(0.0207398 -0.0748951 0)
(0.0191439 -0.0481418 0)
(0.0151631 -0.0245146 0)
(0.00035802 -0.0152743 0)
(0.00207141 -0.00731829 0)
(-0.00842783 -0.0129645 0)
(-0.0109355 -0.0369328 0)
(-0.0132965 -0.0661495 0)
(-0.0162119 -0.0909195 0)
(-0.0149455 -0.108549 0)
(-0.0131591 -0.112574 0)
(-0.00316664 -0.0962868 0)
(0.00688575 -0.0588596 0)
(0.0208958 -0.0262555 0)
(0.0225944 -0.00628254 0)
(0.032389 0.00366444 0)
(0.0353233 -0.000824235 0)
(0.026255 -0.0169175 0)
(0.0095524 -0.0280014 0)
(-0.0143556 -0.023198 0)
(-0.0282698 -0.00631259 0)
(-0.0380791 0.0102972 0)
(-0.031034 0.00542471 0)
(-0.0235931 -0.0073485 0)
(-0.0204618 -0.0288425 0)
(-0.00599785 -0.0623957 0)
(0.00398663 -0.0991973 0)
(0.0134257 -0.113581 0)
(0.0152135 -0.109013 0)
(0.0162308 -0.0908856 0)
(0.012904 -0.0659028 0)
(0.0101986 -0.0366059 0)
(0.00770784 -0.0124574 0)
(-0.00234939 -0.00664756 0)
(0.00326855 -0.00136787 0)
(-0.00300809 -0.00629934 0)
(-0.0031473 -0.0303207 0)
(-0.00467039 -0.0624854 0)
(-0.0100167 -0.085723 0)
(-0.0122241 -0.103745 0)
(-0.0156455 -0.109631 0)
(-0.00985861 -0.0959466 0)
(-0.00559797 -0.0637704 0)
(0.00720563 -0.0256736 0)
(0.0142666 -0.00580483 0)
(0.0210215 0.00539233 0)
(0.0314009 0.00173984 0)
(0.0252952 -0.0102932 0)
(0.00855978 -0.0182084 0)
(-0.0167026 -0.0149678 0)
(-0.0281531 -0.00142082 0)
(-0.0319186 0.0103506 0)
(-0.0195354 0.0091362 0)
(-0.0147985 -0.00793426 0)
(-0.00551074 -0.029248 0)
(0.00583219 -0.0677343 0)
(0.011164 -0.0980227 0)
(0.015891 -0.110586 0)
(0.0117888 -0.103844 0)
(0.00921435 -0.085788 0)
(0.00358681 -0.0625747 0)
(0.0019518 -0.0301085 0)
(0.00175688 -0.00622111 0)
(-0.00349349 -0.00115408 0)
(0.00428822 0.000449396 0)
(7.41184e-06 -0.00490149 0)
(0.00368952 -0.0263635 0)
(0.00453435 -0.0592651 0)
(-0.0025434 -0.0832085 0)
(-0.0055602 -0.0991885 0)
(-0.0150553 -0.104345 0)
(-0.0184829 -0.0952186 0)
(-0.0152987 -0.0675877 0)
(-0.0089846 -0.0318277 0)
(0.00356139 -0.00943649 0)
(0.0083999 0.00118318 0)
(0.0207669 -0.00126262 0)
(0.0221466 -0.00693891 0)
(0.00873695 -0.00975064 0)
(-0.0153729 -0.00704196 0)
(-0.0238227 0.000420174 0)
(-0.0185906 0.00547807 0)
(-0.00699117 0.00455932 0)
(-0.00250071 -0.012074 0)
(0.0107312 -0.0356105 0)
(0.0170198 -0.0704123 0)
(0.0194309 -0.0966871 0)
(0.0145893 -0.1051 0)
(0.00492078 -0.0993935 0)
(0.00150273 -0.0830806 0)
(-0.00583986 -0.0591609 0)
(-0.00481808 -0.0259477 0)
(-0.000844741 -0.00484529 0)
(-0.00459805 0.00062967 0)
(0.00500692 2.33545e-05 0)
(0.00271253 -0.00610224 0)
(0.0100592 -0.0245006 0)
(0.0120287 -0.0562142 0)
(0.0044548 -0.0806615 0)
(-0.00279358 -0.0963464 0)
(-0.0135753 -0.0995157 0)
(-0.0234645 -0.0917175 0)
(-0.027622 -0.0693487 0)
(-0.0219565 -0.0356955 0)
(-0.00929679 -0.0135463 0)
(-0.00557931 -0.00345269 0)
(0.00647152 -0.00532221 0)
(0.0165353 -0.0050686 0)
(0.00688186 -0.00247723 0)
(-0.0126895 -4.85093e-05 0)
(-0.0178552 0.000222124 0)
(-0.00143703 0.00147135 0)
(0.00684267 -0.00026772 0)
(0.0117487 -0.0166989 0)
(0.0232887 -0.0386988 0)
(0.0290345 -0.0711105 0)
(0.0243149 -0.0924539 0)
(0.0137359 -0.0992847 0)
(0.00217344 -0.0952547 0)
(-0.00606611 -0.0796899 0)
(-0.0135909 -0.0549975 0)
(-0.0112585 -0.0239946 0)
(-0.00336892 -0.00558316 0)
(-0.00502028 0.00058439 0)
(0.00590055 0.00586207 0)
(0.00466323 -0.00322366 0)
(0.0168957 -0.0216417 0)
(0.0191159 -0.0506693 0)
(0.0109346 -0.0768753 0)
(-0.000651243 -0.0914737 0)
(-0.0149333 -0.0947899 0)
(-0.0267819 -0.0872061 0)
(-0.0344801 -0.0669197 0)
(-0.0343309 -0.0395683 0)
(-0.022426 -0.0213717 0)
(-0.0163334 -0.0116778 0)
(-0.00957933 -0.015242 0)
(0.00947772 -0.0070977 0)
(0.00442782 0.000510673 0)
(-0.00911781 0.00294395 0)
(-0.00975712 -0.00336852 0)
(0.0146553 -0.00722978 0)
(0.0183715 -0.00779536 0)
(0.0248216 -0.0234864 0)
(0.0361972 -0.0428249 0)
(0.0363577 -0.0673244 0)
(0.0285633 -0.0878949 0)
(0.0159561 -0.0931695 0)
(1.87581e-05 -0.0889813 0)
(-0.0124518 -0.0751509 0)
(-0.0202013 -0.0481323 0)
(-0.0166242 -0.0196516 0)
(-0.0043048 -0.000998916 0)
(-0.00540292 0.00762112 0)
(0.00760499 0.0129047 0)
(0.00600543 0.00175483 0)
(0.0222752 -0.0144724 0)
(0.0261624 -0.0441144 0)
(0.0154154 -0.0710127 0)
(-1.8618e-05 -0.0823933 0)
(-0.0174616 -0.0867406 0)
(-0.0322248 -0.08088 0)
(-0.0410623 -0.0622809 0)
(-0.0454988 -0.0409783 0)
(-0.0382367 -0.0271888 0)
(-0.024536 -0.0214676 0)
(-0.0206283 -0.0228688 0)
(-0.00318229 -0.00791292 0)
(0.000159989 -0.000358709 0)
(0.000366503 0.00247766 0)
(0.00429692 -0.00327687 0)
(0.0251217 -0.0174906 0)
(0.0265718 -0.0163001 0)
(0.039933 -0.0276975 0)
(0.0462668 -0.0438737 0)
(0.0426493 -0.0631021 0)
(0.0339079 -0.0822392 0)
(0.0188077 -0.0866462 0)
(0.000418711 -0.0817496 0)
(-0.0150636 -0.0716132 0)
(-0.0233816 -0.0422597 0)
(-0.0185074 -0.0119305 0)
(-0.00340941 0.00472337 0)
(-0.00613849 0.0154778 0)
(0.00931456 0.0186881 0)
(0.00589933 0.00483779 0)
(0.0243418 -0.0100802 0)
(0.0292825 -0.0380067 0)
(0.0232343 -0.0665316 0)
(0.00465897 -0.0724574 0)
(-0.0212766 -0.0755319 0)
(-0.040965 -0.0724079 0)
(-0.0470882 -0.058949 0)
(-0.0513387 -0.04448 0)
(-0.0491775 -0.0346896 0)
(-0.037563 -0.0331916 0)
(-0.0305825 -0.0252906 0)
(-0.0167349 -0.0158306 0)
(-0.00057629 -0.00421832 0)
(0.00557869 -0.00203542 0)
(0.0231314 -0.0127056 0)
(0.0347441 -0.0215712 0)
(0.041399 -0.0262211 0)
(0.0505373 -0.0330451 0)
(0.0514575 -0.0461951 0)
(0.0495419 -0.0580523 0)
(0.0407463 -0.0725355 0)
(0.021081 -0.0800421 0)
(0.00290363 -0.076951 0)
(-0.013529 -0.0663381 0)
(-0.0205766 -0.0338443 0)
(-0.0157725 -0.00601647 0)
(0.000332652 0.0101672 0)
(-0.00610377 0.0237745 0)
(0.0107132 0.021858 0)
(0.00681277 0.00682832 0)
(0.0259252 -0.00604387 0)
(0.0317637 -0.0259622 0)
(0.0202369 -0.0567438 0)
(0.00454052 -0.0646207 0)
(-0.0193023 -0.0646864 0)
(-0.0478803 -0.0585704 0)
(-0.0560022 -0.0504375 0)
(-0.0560223 -0.0425392 0)
(-0.0540691 -0.0354732 0)
(-0.0443352 -0.0330887 0)
(-0.0286669 -0.0351209 0)
(-0.0211021 -0.0165286 0)
(0.000269978 -0.00804561 0)
(0.00654965 -0.00810153 0)
(0.0268928 -0.014324 0)
(0.0320444 -0.0263458 0)
(0.0473787 -0.0262584 0)
(0.0528933 -0.0327232 0)
(0.0558719 -0.041295 0)
(0.0546192 -0.0513504 0)
(0.0461309 -0.0597874 0)
(0.0274425 -0.0656498 0)
(0.0056528 -0.066526 0)
(-0.0120321 -0.0566474 0)
(-0.0260939 -0.020648 0)
(-0.020551 -0.000828106 0)
(-0.00325159 0.0129581 0)
(-0.00838354 0.0295454 0)
(0.0126298 0.0232288 0)
(0.0119514 0.00933923 0)
(0.0319214 0.00233413 0)
(0.0413757 -0.0129543 0)
(0.0249829 -0.0466519 0)
(0.00437908 -0.0568656 0)
(-0.022607 -0.0497866 0)
(-0.0464975 -0.0449915 0)
(-0.0615277 -0.0408222 0)
(-0.0580444 -0.0355905 0)
(-0.0510653 -0.0328111 0)
(-0.040805 -0.0338633 0)
(-0.0245726 -0.0485946 0)
(-0.0169147 -0.0280384 0)
(0.00346268 -0.0233345 0)
(0.00761916 -0.0227934 0)
(0.0230232 -0.0259778 0)
(0.0263072 -0.0379591 0)
(0.04283 -0.0232529 0)
(0.0519752 -0.026977 0)
(0.0560943 -0.0350558 0)
(0.0567764 -0.0426198 0)
(0.0533057 -0.0480218 0)
(0.0319605 -0.0538724 0)
(0.00279258 -0.0578317 0)
(-0.0228035 -0.0409379 0)
(-0.0421075 -0.00609094 0)
(-0.0317699 0.00755312 0)
(-0.0125216 0.0136722 0)
(-0.0127809 0.0281925 0)
(0.0156419 0.0228771 0)
(0.0188284 0.00564061 0)
(0.0351867 -0.000772394 0)
(0.0492682 -0.00618461 0)
(0.0340134 -0.0274706 0)
(0.0143936 -0.0407728 0)
(-0.0186932 -0.0484685 0)
(-0.0465727 -0.035785 0)
(-0.0573134 -0.0303902 0)
(-0.057163 -0.0314741 0)
(-0.0451117 -0.0287823 0)
(-0.0293971 -0.0395978 0)
(-0.0169526 -0.0629964 0)
(-0.00649917 -0.0575892 0)
(0.00564031 -0.0450428 0)
(0.00848066 -0.0436321 0)
(0.0123869 -0.054361 0)
(0.0167827 -0.0510407 0)
(0.030778 -0.0283541 0)
(0.044723 -0.0240273 0)
(0.0533871 -0.0307352 0)
(0.06313 -0.0359196 0)
(0.0589312 -0.0459717 0)
(0.0243356 -0.0574248 0)
(-0.01374 -0.0436273 0)
(-0.0343504 -0.0235682 0)
(-0.0507086 -0.00458823 0)
(-0.0373857 -0.00253704 0)
(-0.0207348 0.00606005 0)
(-0.0170855 0.0240203 0)
(0.0199539 0.0147681 0)
(0.0257988 -0.00598009 0)
(0.0368975 -0.025882 0)
(0.0417914 -0.0239458 0)
(0.0294364 -0.0292784 0)
(0.00666533 -0.0425911 0)
(-0.0191928 -0.0489796 0)
(-0.0418966 -0.0555141 0)
(-0.0533927 -0.0330925 0)
(-0.0523232 -0.0301394 0)
(-0.0367368 -0.0335934 0)
(-0.0206827 -0.04633 0)
(-0.00414089 -0.0818534 0)
(0.000905685 -0.0794397 0)
(0.00846438 -0.066585 0)
(0.00939791 -0.0650066 0)
(0.00661947 -0.0709505 0)
(0.00294016 -0.064947 0)
(0.0206088 -0.032877 0)
(0.0373612 -0.0288215 0)
(0.0493665 -0.0359942 0)
(0.0622015 -0.0487604 0)
(0.0414317 -0.072858 0)
(0.0162754 -0.054478 0)
(-0.00908153 -0.0425831 0)
(-0.0318987 -0.0273574 0)
(-0.0429932 -0.0260462 0)
(-0.0397244 -0.0318015 0)
(-0.0282504 -0.00808347 0)
(-0.0208878 0.01341 0)
(0.0214521 -0.0143508 0)
(0.0302958 -0.0361415 0)
(0.0335075 -0.064395 0)
(0.0247822 -0.0635194 0)
(0.00891668 -0.0529882 0)
(-0.0111278 -0.0448663 0)
(-0.0325409 -0.0473794 0)
(-0.0423051 -0.0687382 0)
(-0.0410317 -0.06736 0)
(-0.0420478 -0.0501251 0)
(-0.0296807 -0.0408424 0)
(-0.0123069 -0.0546896 0)
(0.00201421 -0.0829788 0)
(0.00536505 -0.088839 0)
(0.010712 -0.0806964 0)
(0.00822094 -0.0767635 0)
(0.00102874 -0.0742559 0)
(-0.00474491 -0.0614824 0)
(0.0120284 -0.0396983 0)
(0.028981 -0.036447 0)
(0.0495038 -0.0638934 0)
(0.0355881 -0.0859718 0)
(0.027505 -0.077024 0)
(0.0173671 -0.0485515 0)
(-0.000812435 -0.0411774 0)
(-0.019467 -0.0532499 0)
(-0.0302005 -0.0621253 0)
(-0.0382365 -0.0645781 0)
(-0.0360898 -0.0410908 0)
(-0.0228662 -0.0213402 0)
(0.0153503 -0.0757536 0)
(0.0228262 -0.0903494 0)
(0.0171127 -0.0831863 0)
(0.00780068 -0.0628954 0)
(-0.00307298 -0.0475847 0)
(-0.0143192 -0.0372783 0)
(-0.0201233 -0.0507496 0)
(-0.0274946 -0.0780845 0)
(-0.0375067 -0.0826227 0)
(-0.0309387 -0.0681171 0)
(-0.0227907 -0.0528044 0)
(-0.00910427 -0.0539692 0)
(0.00640526 -0.0797693 0)
(0.00808677 -0.0886178 0)
(0.0119631 -0.0802832 0)
(0.00603877 -0.0729835 0)
(-0.00539695 -0.0667411 0)
(-0.0110027 -0.0501096 0)
(0.00699599 -0.0378711 0)
(0.0286339 -0.0506767 0)
(0.0304668 -0.0788869 0)
(0.0174505 -0.0886067 0)
(0.0117867 -0.0775617 0)
(0.00583908 -0.0532477 0)
(0.000852109 -0.0436352 0)
(-0.00475096 -0.0565102 0)
(-0.0108484 -0.069884 0)
(-0.0172404 -0.0836125 0)
(-0.0233876 -0.094047 0)
(-0.0180054 -0.0814699 0)
(0.0116956 -0.10262 0)
(0.0106841 -0.0984332 0)
(0.0074642 -0.0755345 0)
(1.89527e-06 -0.0567297 0)
(-0.00531245 -0.0466752 0)
(-0.0034957 -0.0441596 0)
(-0.0028685 -0.060545 0)
(-0.00439175 -0.0831088 0)
(-0.0159113 -0.0893999 0)
(-0.0290106 -0.0788562 0)
(-0.0178656 -0.0569023 0)
(-0.00633341 -0.053625 0)
(0.00897326 -0.0770933 0)
(0.00997423 -0.0800327 0)
(0.00973916 -0.0713347 0)
(0.0018652 -0.0585518 0)
(-0.0121576 -0.0505788 0)
(-0.0133433 -0.0402165 0)
(0.00669323 -0.0382856 0)
(0.0194121 -0.0639964 0)
(0.0146595 -0.0824799 0)
(0.0027694 -0.0900746 0)
(-0.00421728 -0.082516 0)
(-0.00893107 -0.0612944 0)
(-0.00604247 -0.0512127 0)
(-0.000656608 -0.0535851 0)
(-0.00265969 -0.0642324 0)
(-0.00589673 -0.0810745 0)
(-0.00568764 -0.102426 0)
(-0.00937887 -0.103625 0)
(0.00451304 -0.0984744 0)
(0.000111744 -0.0907484 0)
(-0.00154232 -0.0660847 0)
(-0.00559882 -0.049296 0)
(0.000163683 -0.0463405 0)
(0.011894 -0.0554975 0)
(0.0162595 -0.0709193 0)
(0.0152335 -0.0920891 0)
(0.00675029 -0.0972467 0)
(-0.0120339 -0.0891127 0)
(-0.0205697 -0.0656935 0)
(-0.00250675 -0.0528237 0)
(0.00793771 -0.0708648 0)
(0.00718026 -0.0690193 0)
(0.0041103 -0.0629842 0)
(-0.00511857 -0.04572 0)
(-0.0161498 -0.0354795 0)
(-0.0105649 -0.0369189 0)
(0.00731999 -0.0446315 0)
(0.0132161 -0.067656 0)
(0.00354497 -0.0824601 0)
(-0.0112339 -0.0916047 0)
(-0.0204658 -0.0866375 0)
(-0.0228247 -0.0706053 0)
(-0.0175788 -0.0598815 0)
(-0.00584591 -0.0517374 0)
(0.0015432 -0.0558646 0)
(0.000529515 -0.0715613 0)
(0.000244351 -0.0931088 0)
(-0.00181741 -0.098397 0)
(-0.000839805 -0.0901398 0)
(-0.000756814 -0.0824373 0)
(-0.00829538 -0.0576258 0)
(-0.00335327 -0.0488812 0)
(0.0137794 -0.0552471 0)
(0.0276703 -0.0672513 0)
(0.03324 -0.0803064 0)
(0.0314361 -0.0994659 0)
(0.0212939 -0.0990117 0)
(0.00379134 -0.0915984 0)
(-0.0138669 -0.0814299 0)
(-0.0118428 -0.0651286 0)
(0.000489857 -0.0644095 0)
(0.000468243 -0.0592098 0)
(-0.00377369 -0.0510828 0)
(-0.0116048 -0.0331615 0)
(-0.0149024 -0.027355 0)
(-0.00368411 -0.0342028 0)
(0.00731353 -0.0489107 0)
(0.00706269 -0.0665418 0)
(-0.00542553 -0.0800575 0)
(-0.0216992 -0.0896358 0)
(-0.0332128 -0.0911434 0)
(-0.0348655 -0.0777997 0)
(-0.0293433 -0.068547 0)
(-0.0180542 -0.0604089 0)
(-0.00158385 -0.0551545 0)
(0.00552406 -0.063058 0)
(-8.72333e-05 -0.0845528 0)
(0.00143754 -0.0893076 0)
(-0.00639477 -0.0789297 0)
(-0.00893029 -0.0666088 0)
(-0.00836822 -0.0524925 0)
(0.0120944 -0.056859 0)
(0.0324071 -0.0692145 0)
(0.0417863 -0.0764492 0)
(0.0474542 -0.0887359 0)
(0.0465715 -0.104144 0)
(0.0344391 -0.102815 0)
(0.0155932 -0.0936549 0)
(-0.0024574 -0.0802806 0)
(-0.0129947 -0.0673576 0)
(-0.00768602 -0.0630942 0)
(-0.00364729 -0.0536611 0)
(-0.0106105 -0.039344 0)
(-0.0127957 -0.0253322 0)
(-0.00844377 -0.0246064 0)
(-0.000333504 -0.0340235 0)
(0.00742088 -0.0471775 0)
(0.00142267 -0.0635472 0)
(-0.0127716 -0.0803984 0)
(-0.0299779 -0.0904359 0)
(-0.0419999 -0.0938691 0)
(-0.0435039 -0.0823896 0)
(-0.0374814 -0.073084 0)
(-0.0311758 -0.0688196 0)
(-0.0150169 -0.0616531 0)
(0.0051721 -0.0578069 0)
(0.00650489 -0.0672606 0)
(0.00646664 -0.0764724 0)
(-0.0115647 -0.062577 0)
(-0.00580308 -0.0540845 0)
(0.00849265 -0.0611475 0)
(0.0338844 -0.0737437 0)
(0.047539 -0.0784692 0)
(0.0556283 -0.0831678 0)
(0.0603214 -0.0946876 0)
(0.0581353 -0.106813 0)
(0.0451096 -0.102537 0)
(0.0268803 -0.0952359 0)
(0.00720504 -0.0808135 0)
(-0.00691468 -0.0661865 0)
(-0.00878017 -0.0584215 0)
(-0.00779195 -0.0496657 0)
(-0.0115132 -0.0389327 0)
(-0.00802529 -0.031772 0)
(-0.00277825 -0.020299 0)
(0.0025684 -0.028793 0)
(0.00572406 -0.0426111 0)
(-0.0035806 -0.060267 0)
(-0.0195475 -0.0763806 0)
(-0.034495 -0.0858278 0)
(-0.0471506 -0.090754 0)
(-0.0491824 -0.0830969 0)
(-0.0414694 -0.0737388 0)
(-0.0334017 -0.0692698 0)
(-0.0288444 -0.0713876 0)
(-0.00954423 -0.064341 0)
(0.00376829 -0.0547024 0)
(0.0127126 -0.059152 0)
(-0.0106483 -0.0429476 0)
(0.00403136 -0.0571911 0)
(0.028403 -0.0751084 0)
(0.0471685 -0.0803745 0)
(0.0589547 -0.0796822 0)
(0.0620689 -0.0812697 0)
(0.0665533 -0.0911825 0)
(0.0661761 -0.104179 0)
(0.0542871 -0.100775 0)
(0.0356543 -0.0917963 0)
(0.0145427 -0.0783808 0)
(-0.00210052 -0.0639164 0)
(-0.00678554 -0.0524529 0)
(-0.010152 -0.0479397 0)
(-0.00979002 -0.0401525 0)
(-0.00929254 -0.0392506 0)
(0.0011633 -0.0174914 0)
(0.00388974 -0.0233858 0)
(0.00400777 -0.0374371 0)
(-0.00814931 -0.0529925 0)
(-0.0252531 -0.0684994 0)
(-0.0409643 -0.0796342 0)
(-0.0515444 -0.0837422 0)
(-0.0544092 -0.0790875 0)
(-0.0484916 -0.0741521 0)
(-0.0386737 -0.0695157 0)
(-0.0310148 -0.0693897 0)
(-0.0219893 -0.071005 0)
(-0.00405289 -0.0558041 0)
(0.0116381 -0.03722 0)
(0.00304937 -0.0319947 0)
(0.017086 -0.071138 0)
(0.0392023 -0.0850067 0)
(0.0541632 -0.0843817 0)
(0.0601838 -0.0748244 0)
(0.0648702 -0.075203 0)
(0.0696448 -0.0831574 0)
(0.0693057 -0.0964112 0)
(0.0607368 -0.0985121 0)
(0.0431954 -0.089024 0)
(0.0206965 -0.0737038 0)
(0.00270289 -0.0601042 0)
(-0.00452129 -0.0475092 0)
(-0.00922525 -0.0467792 0)
(-0.00831634 -0.0377573 0)
(-0.00369457 -0.0410404 0)
(0.00343204 -0.0170506 0)
(0.0030855 -0.0177895 0)
(0.000249757 -0.0306559 0)
(-0.0135739 -0.0440658 0)
(-0.032094 -0.0607744 0)
(-0.0480977 -0.0707695 0)
(-0.0575543 -0.0773815 0)
(-0.0610343 -0.0801492 0)
(-0.0573814 -0.0787498 0)
(-0.0462662 -0.0741255 0)
(-0.0360835 -0.0734608 0)
(-0.0240949 -0.0747274 0)
(-0.0133856 -0.0683462 0)
(-0.00478338 -0.0273036 0)
(0.0129273 -0.0412144 0)
(0.0228527 -0.0797158 0)
(0.0400172 -0.0876531 0)
(0.0530028 -0.0804139 0)
(0.0614783 -0.0712401 0)
(0.0695298 -0.0716631 0)
(0.0751194 -0.0767249 0)
(0.074435 -0.0863207 0)
(0.0654241 -0.0931642 0)
(0.0493633 -0.088787 0)
(0.025265 -0.0713434 0)
(0.00613175 -0.0551656 0)
(-0.00251776 -0.0430069 0)
(-0.00740828 -0.0450298 0)
(-0.00886361 -0.0416758 0)
(0.000552769 -0.0378629 0)
(0.00208515 -0.0176182 0)
(2.11003e-05 -0.0125546 0)
(-0.00423456 -0.0222153 0)
(-0.0189944 -0.0353089 0)
(-0.0386635 -0.0510249 0)
(-0.05378 -0.0685426 0)
(-0.0633031 -0.077097 0)
(-0.0679991 -0.0831175 0)
(-0.065872 -0.0844836 0)
(-0.0548066 -0.0802224 0)
(-0.0433327 -0.0810836 0)
(-0.0295982 -0.0828333 0)
(-0.0187334 -0.0802541 0)
(-0.0162497 -0.0475203 0)
(0.0185401 -0.0553763 0)
(0.0256842 -0.0943694 0)
(0.039177 -0.0960181 0)
(0.0532215 -0.0845827 0)
(0.0641589 -0.0744696 0)
(0.0739242 -0.0716634 0)
(0.0801474 -0.0732699 0)
(0.0780612 -0.0833753 0)
(0.0678173 -0.0907539 0)
(0.0545703 -0.090949 0)
(0.0302978 -0.0815928 0)
(0.00820703 -0.0539258 0)
(-0.00158809 -0.0394086 0)
(-0.0061519 -0.0431704 0)
(-0.00983251 -0.0442424 0)
(-0.00406067 -0.0322378 0)
(-0.00221741 -0.0147877 0)
(-0.00487794 -0.00759766 0)
(-0.0100735 -0.0152862 0)
(-0.0252464 -0.0353223 0)
(-0.0442979 -0.0639648 0)
(-0.0597364 -0.0744784 0)
(-0.0690006 -0.0788646 0)
(-0.0726929 -0.0837057 0)
(-0.0715068 -0.0895726 0)
(-0.0620972 -0.0887425 0)
(-0.0511976 -0.0924833 0)
(-0.0375226 -0.0961573 0)
(-0.0224068 -0.0938644 0)
(-0.0192903 -0.0633571 0)
(0.0208357 -0.0831667 0)
(0.0261421 -0.114222 0)
(0.0389567 -0.10903 0)
(0.0551675 -0.0941984 0)
(0.0673185 -0.0804027 0)
(0.0780336 -0.0745703 0)
(0.0825869 -0.0751534 0)
(0.0780701 -0.0855964 0)
(0.0684502 -0.0922835 0)
(0.0540816 -0.0914005 0)
(0.0384092 -0.0897393 0)
(0.0132604 -0.0762275 0)
(-0.00280761 -0.0404992 0)
(-0.00648674 -0.0410565 0)
(-0.0112448 -0.0394857 0)
(-0.0116085 -0.0296021 0)
(-0.00607645 -0.0157652 0)
(-0.0067751 -0.00698495 0)
(-0.0111087 -0.0234334 0)
(-0.0308457 -0.0656165 0)
(-0.0495145 -0.0718176 0)
(-0.0628719 -0.0752303 0)
(-0.0712973 -0.0784139 0)
(-0.0751937 -0.0832191 0)
(-0.0742718 -0.0913339 0)
(-0.0671527 -0.0947443 0)
(-0.0564629 -0.10178 0)
(-0.0416814 -0.107975 0)
(-0.0254387 -0.107362 0)
(-0.0213115 -0.0805392 0)
(0.0212943 -0.108329 0)
(0.0258328 -0.127967 0)
(0.038985 -0.121023 0)
(0.0561084 -0.105281 0)
(0.0684484 -0.0906941 0)
(0.0789755 -0.0822269 0)
(0.0815969 -0.0783527 0)
(0.0777436 -0.0830719 0)
(0.0666733 -0.0910967 0)
(0.0540254 -0.0907808 0)
(0.0428273 -0.0892063 0)
(0.0222958 -0.082559 0)
(-0.00136562 -0.0623802 0)
(-0.00870557 -0.0381614 0)
(-0.0119444 -0.0325341 0)
(-0.010865 -0.0237869 0)
(-0.0098412 -0.019976 0)
(-0.00558422 -0.0227968 0)
(-0.0166438 -0.0641678 0)
(-0.0409464 -0.0755981 0)
(-0.0521827 -0.0713944 0)
(-0.0623417 -0.0720684 0)
(-0.0710253 -0.0747666 0)
(-0.074882 -0.0814951 0)
(-0.0747619 -0.0933665 0)
(-0.0685893 -0.100952 0)
(-0.0585624 -0.110278 0)
(-0.0439738 -0.118416 0)
(-0.0281591 -0.118705 0)
(-0.0221653 -0.0977961 0)
(0.0219609 -0.128262 0)
(0.0277629 -0.140631 0)
(0.0409077 -0.133744 0)
(0.0560378 -0.117787 0)
(0.0671925 -0.102679 0)
(0.0762286 -0.0899923 0)
(0.0773157 -0.0803076 0)
(0.0727238 -0.080971 0)
(0.064786 -0.0880061 0)
(0.0545432 -0.087636 0)
(0.0439374 -0.0841125 0)
(0.0264865 -0.0741198 0)
(0.00350365 -0.0584466 0)
(-0.0106609 -0.0383573 0)
(-0.012922 -0.0259217 0)
(-0.0104538 -0.0186765 0)
(-0.00732971 -0.0292939 0)
(-0.0189093 -0.0954153 0)
(-0.037015 -0.0880821 0)
(-0.0501231 -0.0794329 0)
(-0.0560812 -0.0718185 0)
(-0.0621148 -0.0678454 0)
(-0.0674661 -0.0684597 0)
(-0.0715659 -0.0762918 0)
(-0.0727718 -0.0917006 0)
(-0.0677103 -0.10556 0)
(-0.0581179 -0.117486 0)
(-0.044484 -0.126608 0)
(-0.0299043 -0.129363 0)
(-0.0229186 -0.115616 0)
(0.0235372 -0.147441 0)
(0.0297121 -0.153946 0)
(0.0427865 -0.14474 0)
(0.055489 -0.128882 0)
(0.0642951 -0.111031 0)
(0.0691734 -0.0946455 0)
(0.0692392 -0.0824258 0)
(0.0678821 -0.0849754 0)
(0.0630446 -0.0853739 0)
(0.0552049 -0.0826386 0)
(0.0446262 -0.0745529 0)
(0.0269826 -0.0626692 0)
(0.00482172 -0.0484217 0)
(-0.0100462 -0.0312925 0)
(-0.0146928 -0.0196679 0)
(-0.0123836 -0.016408 0)
(-0.0139907 -0.0528891 0)
(-0.032806 -0.108076 0)
(-0.0493682 -0.10068 0)
(-0.0586626 -0.0886031 0)
(-0.0612494 -0.0770349 0)
(-0.0626711 -0.0687271 0)
(-0.064549 -0.0647537 0)
(-0.065509 -0.0695931 0)
(-0.067152 -0.0857843 0)
(-0.064411 -0.105425 0)
(-0.0564615 -0.122408 0)
(-0.04378 -0.133098 0)
(-0.0299757 -0.140065 0)
(-0.0231001 -0.133949 0)
(0.0230487 -0.161578 0)
(0.0296025 -0.15942 0)
(0.0416216 -0.146166 0)
(0.0527116 -0.12793 0)
(0.0579109 -0.107109 0)
(0.0604787 -0.0886283 0)
(0.0620194 -0.0804391 0)
(0.0637908 -0.0813282 0)
(0.0639828 -0.0848627 0)
(0.0566259 -0.077614 0)
(0.0447199 -0.0646213 0)
(0.0273856 -0.0509571 0)
(0.00634064 -0.0382808 0)
(-0.00928368 -0.0228142 0)
(-0.0158269 -0.0119203 0)
(-0.0151213 -0.0119883 0)
(-0.0184647 -0.0636522 0)
(-0.0370684 -0.109358 0)
(-0.0531684 -0.106153 0)
(-0.0635551 -0.097687 0)
(-0.066239 -0.085661 0)
(-0.064921 -0.0747892 0)
(-0.0621176 -0.0665739 0)
(-0.0602188 -0.066048 0)
(-0.0594291 -0.0773548 0)
(-0.0578386 -0.0990409 0)
(-0.0528857 -0.120868 0)
(-0.0415869 -0.137285 0)
(-0.0291342 -0.149453 0)
(-0.0221939 -0.149556 0)
(0.0203021 -0.165601 0)
(0.0266815 -0.154595 0)
(0.0370302 -0.133569 0)
(0.0455941 -0.111457 0)
(0.0489251 -0.0872337 0)
(0.0521382 -0.0710541 0)
(0.0558468 -0.0663002 0)
(0.0614106 -0.0703163 0)
(0.0658315 -0.0790755 0)
(0.0594433 -0.0732241 0)
(0.0464093 -0.0552373 0)
(0.0288975 -0.0389203 0)
(0.00851984 -0.0269355 0)
(-0.00777662 -0.0136881 0)
(-0.015381 -0.00458032 0)
(-0.0168284 -0.00674918 0)
(-0.0207735 -0.0618064 0)
(-0.0387209 -0.0949738 0)
(-0.054633 -0.0937345 0)
(-0.0646607 -0.0924393 0)
(-0.0681061 -0.0866015 0)
(-0.0664466 -0.078856 0)
(-0.061293 -0.0693187 0)
(-0.0556908 -0.064792 0)
(-0.0524156 -0.0698242 0)
(-0.0491722 -0.0865476 0)
(-0.0458106 -0.110974 0)
(-0.0372571 -0.13259 0)
(-0.0271706 -0.152661 0)
(-0.0205505 -0.159582 0)
(0.0145897 -0.165407 0)
(0.0238674 -0.147035 0)
(0.0294616 -0.117021 0)
(0.0361315 -0.0881217 0)
(0.0393677 -0.0656346 0)
(0.0446901 -0.0545725 0)
(0.0514337 -0.0547206 0)
(0.0599823 -0.0620992 0)
(0.0669149 -0.0710789 0)
(0.0651553 -0.069543 0)
(0.0493704 -0.0476489 0)
(0.0316385 -0.0272141 0)
(0.011687 -0.0154346 0)
(-0.00567431 -0.00390751 0)
(-0.0139082 0.00258208 0)
(-0.0174225 -0.000265769 0)
(-0.0200626 -0.0542378 0)
(-0.0391825 -0.0769829 0)
(-0.0555662 -0.0779897 0)
(-0.0658813 -0.0784336 0)
(-0.0691038 -0.0761427 0)
(-0.0666791 -0.0717788 0)
(-0.0601124 -0.0642414 0)
(-0.0518556 -0.0577309 0)
(-0.0456012 -0.0580919 0)
(-0.0404507 -0.068822 0)
(-0.0366659 -0.0904744 0)
(-0.0295256 -0.117851 0)
(-0.0242944 -0.146141 0)