/*--------------------------------*- C++ -*----------------------------------*\
| =========                 |                                                 |
| \\      /  F ield         | OpenFOAM: The Open Source CFD Toolbox           |
|  \\    /   O peration     | Version:  v1606+                                |
|   \\  /    A nd           | Web:      www.OpenFOAM.com                      |
|    \\/     M anipulation  |                                                 |
\*---------------------------------------------------------------------------*/
FoamFile
{
    version     2.0;
    format      ascii;
    class       volScalarField;
    location    "0.22";
    object      k.air;
}
// * * * * * * * * * * * * * * * * * * * * * * * * * * * * * * * * * * * * * //

dimensions      [0 2 -2 0 0 0 0];

internalField   nonuniform List<scalar> 
6000
(
0.890811
0.952501
0.966039
0.971435
0.973755
0.974704
0.975197
0.975212
0.974934
0.974201
0.972908
0.971693
0.97079
0.970118
0.970042
0.969856
0.970177
0.970791
0.971754
0.973114
0.974167
0.974857
0.975257
0.975197
0.974736
0.973777
0.971437
0.966122
0.952679
0.890921
0.641259
0.915021
0.980661
1.00528
1.01469
1.01934
1.02099
1.02007
1.01715
1.01364
1.01034
1.00713
1.00427
1.00235
1.00093
1.0012
1.00237
1.00451
1.0071
1.01009
1.01403
1.01794
1.02056
1.02113
1.01917
1.01424
1.00497
0.980924
0.915984
0.642112
0.477529
0.783174
0.885877
0.926965
0.947197
0.958432
0.96451
0.96697
0.966989
0.965681
0.963805
0.961674
0.959618
0.958074
0.957135
0.957246
0.958146
0.959752
0.961739
0.963866
0.966036
0.96754
0.967412
0.964751
0.95844
0.947094
0.927062
0.88643
0.784592
0.478877
0.36408
0.670494
0.802763
0.866589
0.900969
0.919833
0.929581
0.933763
0.934262
0.932623
0.929652
0.926135
0.923142
0.920981
0.919823
0.919867
0.921108
0.923357
0.926422
0.93001
0.933161
0.934981
0.934564
0.930465
0.920731
0.901991
0.867929
0.804541
0.672468
0.365399
0.346931
0.672185
0.813358
0.882564
0.918789
0.935738
0.941349
0.939737
0.933925
0.925808
0.917474
0.910026
0.90471
0.901335
0.899703
0.899768
0.901544
0.905105
0.910657
0.918338
0.926988
0.935399
0.941526
0.943447
0.938177
0.921653
0.885938
0.817058
0.675764
0.349404
0.389791
0.730656
0.869633
0.939855
0.976712
0.992666
0.995245
0.988826
0.977994
0.965985
0.954174
0.943576
0.935159
0.929495
0.926719
0.926838
0.929854
0.935823
0.944533
0.955441
0.967685
0.980342
0.991798
0.998692
0.996752
0.981507
0.94533
0.875488
0.736598
0.393636
0.404504
0.732597
0.866776
0.9399
0.981819
0.999668
1.00382
1.00149
0.994624
0.986795
0.979068
0.971795
0.965434
0.960775
0.958335
0.958493
0.96118
0.966124
0.972745
0.980316
0.988529
0.997132
1.00443
1.00766
1.00457
0.98741
0.945917
0.8731
0.7392
0.409132
0.38811
0.696329
0.818297
0.886929
0.930556
0.953369
0.96243
0.96645
0.963509
0.958233
0.952932
0.948174
0.943998
0.940968
0.939403
0.939555
0.941345
0.944635
0.949037
0.954097
0.959935
0.965767
0.968723
0.966256
0.95806
0.935511
0.892159
0.82428
0.703035
0.392995
0.355262
0.643149
0.751303
0.806118
0.843194
0.870046
0.887982
0.896141
0.898194
0.897942
0.897142
0.896209
0.895255
0.894494
0.894102
0.894216
0.894809
0.895791
0.896972
0.898201
0.89944
0.900203
0.898657
0.891412
0.874007
0.847333
0.810565
0.756976
0.649613
0.359932
0.329322
0.600119
0.696275
0.736044
0.768434
0.796048
0.815382
0.828863
0.835599
0.839509
0.842802
0.845465
0.847292
0.848371
0.848885
0.848969
0.848636
0.847751
0.846137
0.843734
0.840808
0.837374
0.831178
0.818248
0.799216
0.771924
0.740327
0.701626
0.606398
0.333652
0.309058
0.56401
0.648386
0.679948
0.707516
0.734129
0.75242
0.766445
0.777324
0.784887
0.791024
0.796536
0.800787
0.803459
0.804742
0.804809
0.80368
0.801172
0.797108
0.791835
0.786018
0.778844
0.768412
0.754686
0.736398
0.710152
0.683911
0.653681
0.569967
0.312884
0.290954
0.528986
0.604362
0.628592
0.650048
0.675368
0.698019
0.712258
0.723676
0.733808
0.742146
0.749411
0.755515
0.759626
0.761604
0.761659
0.759806
0.755836
0.749902
0.742861
0.734776
0.724956
0.713862
0.699751
0.676908
0.651998
0.631908
0.608803
0.533968
0.29422
0.272531
0.490028
0.558147
0.580041
0.597374
0.621341
0.646623
0.664587
0.676238
0.686759
0.696375
0.704512
0.711467
0.716467
0.718979
0.719023
0.716614
0.711738
0.704935
0.696983
0.687522
0.677326
0.666042
0.647857
0.622408
0.598852
0.582655
0.561588
0.494131
0.275309
0.251603
0.447473
0.509592
0.533379
0.550295
0.574299
0.600172
0.620015
0.632895
0.643907
0.654145
0.66225
0.669162
0.67418
0.676777
0.676812
0.674296
0.669382
0.662596
0.654653
0.644566
0.633833
0.621065
0.601117
0.57513
0.551451
0.535212
0.511773
0.450394
0.253731
0.229825
0.396762
0.458554
0.487478
0.509199
0.53561
0.560709
0.579525
0.593091
0.604251
0.614211
0.622588
0.629458
0.63379
0.636109
0.636132
0.633866
0.629603
0.622835
0.61458
0.60476
0.593785
0.580372
0.561524
0.536311
0.510046
0.488466
0.459519
0.398012
0.231206
0.204166
0.337169
0.404761
0.443325
0.473987
0.50512
0.529135
0.544992
0.556987
0.567749
0.577394
0.585376
0.591758
0.595966
0.598034
0.598043
0.595993
0.591837
0.585536
0.577657
0.568133
0.557526
0.545692
0.529836
0.505654
0.474502
0.443832
0.40487
0.336892
0.204782
0.176267
0.281792
0.352481
0.398885
0.442783
0.479702
0.503081
0.516245
0.525823
0.534763
0.543127
0.550525
0.556473
0.560195
0.562103
0.562105
0.560206
0.55653
0.550635
0.543312
0.535064
0.526281
0.516831
0.503601
0.479921
0.442778
0.398795
0.352119
0.281008
0.176461
0.151166
0.23298
0.300079
0.356443
0.412534
0.454051
0.477799
0.490193
0.498276
0.505348
0.511935
0.517957
0.522982
0.526425
0.528167
0.528166
0.526426
0.523005
0.518012
0.512056
0.505573
0.498622
0.490593
0.477987
0.453793
0.411953
0.355786
0.299503
0.232104
0.151107
0.126452
0.179857
0.248902
0.317909
0.381492
0.425337
0.450429
0.464077
0.472343
0.478529
0.483675
0.488136
0.491843
0.494533
0.495928
0.495922
0.494519
0.491835
0.488146
0.483735
0.47866
0.472516
0.4642
0.450252
0.424702
0.38056
0.316878
0.247996
0.179246
0.126434
0.102885
0.133956
0.205578
0.284846
0.350879
0.39603
0.422223
0.437556
0.447088
0.453567
0.458114
0.4614
0.463825
0.465526
0.466412
0.466403
0.465501
0.463791
0.46137
0.458107
0.453581
0.447047
0.43734
0.421707
0.395184
0.35
0.283776
0.204353
0.133322
0.102895
0.0828847
0.103108
0.175052
0.260707
0.327163
0.37155
0.396944
0.412811
0.423727
0.431195
0.435878
0.438558
0.440033
0.440864
0.441267
0.441253
0.440822
0.439959
0.438453
0.435748
0.431024
0.42342
0.412198
0.395924
0.370321
0.326614
0.260062
0.1738
0.102408
0.0828964
0.0680501
0.0897056
0.165996
0.249625
0.312467
0.352055
0.375284
0.391163
0.403255
0.411809
0.417076
0.419873
0.421153
0.421671
0.421852
0.421829
0.421596
0.42101
0.419645
0.416753
0.411377
0.402639
0.390179
0.373762
0.350317
0.312097
0.24945
0.16516
0.0890753
0.0679745
0.0582589
0.0902514
0.170055
0.248678
0.30344
0.33525
0.356601
0.372534
0.385389
0.394657
0.400557
0.403917
0.405602
0.406331
0.406576
0.406538
0.406209
0.405375
0.40356
0.400047
0.393978
0.384508
0.371325
0.354883
0.333655
0.302592
0.24829
0.169379
0.0896948
0.0581187
0.0561912
0.1002
0.182985
0.249564
0.29433
0.322496
0.341037
0.356653
0.369803
0.379387
0.385713
0.389588
0.391757
0.392834
0.393246
0.393194
0.392672
0.391464
0.389137
0.385077
0.378552
0.368776
0.355373
0.339228
0.320656
0.292934
0.248684
0.182556
0.099862
0.0560911
0.0597148
0.127707
0.198778
0.250813
0.288878
0.311479
0.327514
0.343199
0.356417
0.366081
0.372652
0.376882
0.37942
0.380789
0.381354
0.381293
0.3806
0.379085
0.376377
0.371953
0.365183
0.355349
0.341965
0.325828
0.309162
0.287286
0.249687
0.197963
0.127753
0.0596845
0.0730432
0.158006
0.20927
0.255757
0.282999
0.299768
0.31625
0.332068
0.345109
0.354729
0.361395
0.365782
0.368497
0.370018
0.370667
0.370601
0.369814
0.368141
0.365255
0.360678
0.353824
0.34405
0.330865
0.314674
0.297445
0.280546
0.254495
0.208224
0.157745
0.073247
0.0910341
0.175051
0.219018
0.254621
0.272451
0.289728
0.307033
0.322843
0.335716
0.345254
0.351893
0.356274
0.35898
0.360503
0.36116
0.361093
0.360298
0.358626
0.355755
0.351197
0.344376
0.334681
0.321654
0.305536
0.287711
0.270116
0.252289
0.217374
0.173602
0.0908415
0.0990258
0.175834
0.21687
0.245567
0.263153
0.281417
0.299267
0.315308
0.328323
0.33795
0.34448
0.348609
0.351041
0.352364
0.352922
0.352858
0.352171
0.35071
0.348128
0.343839
0.33714
0.327349
0.314156
0.297835
0.27962
0.261031
0.24294
0.214664
0.174039
0.0983635
0.098476
0.170906
0.208356
0.234375
0.254527
0.274108
0.293018
0.309939
0.323599
0.333566
0.339782
0.343257
0.345033
0.345882
0.346206
0.34615
0.345711
0.344742
0.342842
0.339237
0.332877
0.322751
0.308903
0.291728
0.272482
0.252573
0.232006
0.205817
0.168819
0.0975736
0.0948649
0.159397
0.19643
0.223781
0.246544
0.26828
0.289197
0.307923
0.322767
0.33331
0.338656
0.340744
0.341357
0.341424
0.341365
0.341317
0.34128
0.34112
0.340421
0.338248
0.332796
0.322148
0.307131
0.288164
0.266901
0.244789
0.221626
0.194024
0.156894
0.0936806
0.0870401
0.143445
0.183649
0.213846
0.240082
0.265332
0.289368
0.309933
0.325563
0.3363
0.340413
0.340905
0.340016
0.339038
0.338453
0.338412
0.33892
0.33983
0.340656
0.340112
0.33595
0.325178
0.309396
0.288616
0.264333
0.238664
0.211999
0.181475
0.140996
0.0856739
0.0768637
0.125996
0.17091
0.205654
0.237087
0.266783
0.2941
0.317147
0.332832
0.342548
0.344256
0.342536
0.340096
0.337948
0.33674
0.336703
0.337842
0.339945
0.342381
0.344095
0.342439
0.332831
0.317078
0.293872
0.266231
0.236245
0.204334
0.169178
0.124067
0.0756638
0.0665924
0.111133
0.161242
0.202552
0.239639
0.274715
0.306223
0.328627
0.340438
0.345889
0.347086
0.344035
0.339975
0.336709
0.334913
0.334872
0.336597
0.339827
0.343925
0.347071
0.345913
0.340629
0.32902
0.306762
0.274968
0.239455
0.202123
0.160434
0.110071
0.0657196
0.0586227
0.105482
0.160509
0.206905
0.250694
0.292272
0.321285
0.336274
0.34359
0.347746
0.348528
0.343656
0.338528
0.334437
0.332262
0.332218
0.334312
0.338361
0.343526
0.348588
0.348026
0.343929
0.336848
0.322308
0.293579
0.25167
0.207271
0.160554
0.105517
0.0581513
0.0551347
0.10787
0.16774
0.221816
0.273045
0.31145
0.330792
0.339314
0.346428
0.351164
0.348736
0.341613
0.335652
0.33138
0.329105
0.329062
0.331259
0.335485
0.341444
0.348718
0.351545
0.347015
0.34002
0.3318
0.313346
0.275194
0.223557
0.168823
0.108464
0.0551809
0.0562889
0.119892
0.188845
0.249546
0.298027
0.322975
0.334522
0.343907
0.352527
0.354452
0.346914
0.338285
0.332453
0.328342
0.326137
0.326101
0.328243
0.332319
0.338133
0.346705
0.354659
0.353427
0.345001
0.335631
0.324794
0.300967
0.252513
0.191405
0.121658
0.0566522
0.0631407
0.148069
0.222135
0.283488
0.315617
0.32826
0.340295
0.353134
0.359952
0.353253
0.342612
0.334905
0.329596
0.325768
0.323698
0.323672
0.325701
0.329517
0.334832
0.342442
0.353089
0.360531
0.354575
0.341817
0.330015
0.318207
0.287252
0.225658
0.151149
0.0641887
0.0799992
0.18383
0.258582
0.30819
0.323274
0.336515
0.352558
0.364047
0.358834
0.347871
0.33863
0.332073
0.327183
0.323605
0.321678
0.321667
0.323581
0.327173
0.332095
0.338612
0.34771
0.358772
0.364976
0.35452
0.33849
0.325434
0.311416
0.262649
0.187344
0.0817893
0.10095
0.218912
0.285278
0.3159
0.331534
0.350726
0.365324
0.361589
0.351225
0.342381
0.335262
0.329575
0.324967
0.321585
0.319788
0.319796
0.321619
0.325048
0.32972
0.335432
0.342484
0.351215
0.361656
0.366366
0.35294
0.333738
0.318371
0.288501
0.222413
0.102866
0.121817
0.246411
0.294327
0.322591
0.343825
0.359832
0.358867
0.350717
0.343742
0.337858
0.33228
0.327159
0.32276
0.319522
0.317823
0.317858
0.319633
0.322971
0.327487
0.332703
0.338309
0.344158
0.350946
0.35921
0.361165
0.346108
0.324917
0.296791
0.249265
0.123405
0.133384
0.252813
0.295835
0.330268
0.344841
0.347786
0.344363
0.341026
0.337934
0.334218
0.329705
0.324909
0.320601
0.317427
0.315782
0.315848
0.31764
0.320992
0.325509
0.330505
0.33514
0.338863
0.341909
0.345173
0.348859
0.34648
0.332482
0.298145
0.254606
0.134714
0.135063
0.24704
0.293018
0.322582
0.329484
0.331394
0.332878
0.333893
0.333971
0.331935
0.327923
0.323104
0.318687
0.315455
0.313807
0.313912
0.315791
0.319309
0.324077
0.329268
0.333556
0.335618
0.335419
0.334281
0.332769
0.330944
0.324432
0.295098
0.248713
0.136138
0.1308
0.231059
0.275488
0.299419
0.310059
0.317664
0.324189
0.329878
0.332948
0.33175
0.327442
0.322069
0.317261
0.313829
0.312121
0.312271
0.314305
0.318144
0.323466
0.329398
0.334123
0.335575
0.332355
0.326214
0.319309
0.311533
0.300806
0.277187
0.232589
0.131783
0.117676
0.2011
0.246333
0.274948
0.292872
0.307103
0.320086
0.330263
0.335076
0.333442
0.328051
0.321808
0.316398
0.312656
0.310848
0.311048
0.313284
0.317541
0.323584
0.330571
0.336721
0.338613
0.333708
0.323136
0.309319
0.294463
0.276127
0.247312
0.202045
0.118457
0.100102
0.170444
0.220404
0.25442
0.280193
0.302856
0.322012
0.335069
0.340483
0.336781
0.329395
0.321925
0.315838
0.311734
0.309799
0.310048
0.312508
0.317208
0.324009
0.332283
0.340533
0.345175
0.340058
0.326202
0.306181
0.282271
0.255547
0.220808
0.170182
0.100212
0.0842889
0.143582
0.199159
0.240658
0.276075
0.306614
0.330632
0.343723
0.344665
0.338548
0.330022
0.321648
0.314999
0.310602
0.308555
0.308832
0.311458
0.316491
0.323858
0.333133
0.342242
0.34891
0.349224
0.336345
0.311109
0.27934
0.2423
0.199442
0.142566
0.0838453
0.0703653
0.125972
0.18839
0.238696
0.28204
0.319536
0.342311
0.347477
0.344931
0.338763
0.32916
0.320267
0.313399
0.308952
0.3069
0.307194
0.309849
0.314923
0.322464
0.332242
0.342772
0.349495
0.352293
0.347819
0.325336
0.28658
0.241727
0.189747
0.125831
0.0698716
0.0627608
0.124672
0.19106
0.247938
0.299148
0.334904
0.345709
0.347396
0.345649
0.337417
0.326495
0.317625
0.311124
0.306898
0.304948
0.305258
0.307837
0.312695
0.31986
0.329593
0.341778
0.351115
0.352531
0.35022
0.340145
0.305278
0.252549
0.193722
0.12563
0.0628452
0.0627549
0.132929
0.20677
0.270392
0.318621
0.337678
0.344907
0.34901
0.344945
0.333508
0.3226
0.314523
0.308587
0.304688
0.302888
0.303214
0.305674
0.310244
0.316889
0.325821
0.337774
0.350569
0.355255
0.349978
0.341926
0.323988
0.277089
0.211852
0.135569
0.0632622
0.0681859
0.158063
0.235378
0.296794
0.324221
0.337161
0.347423
0.35007
0.340086
0.328045
0.318578
0.3114
0.306008
0.302438
0.300795
0.301131
0.303454
0.307725
0.31385
0.321827
0.332106
0.344978
0.356152
0.353493
0.342003
0.327878
0.302067
0.241606
0.163326
0.0698761
0.0844959
0.193128
0.265399
0.307168
0.325125
0.341591
0.350849
0.344132
0.332521
0.322722
0.314747
0.308329
0.303409
0.300147
0.298662
0.299005
0.301183
0.305156
0.310801
0.31793
0.326521
0.336722
0.348722
0.3563
0.347297
0.329401
0.310234
0.270886
0.199045
0.0876633
0.108078
0.226808
0.280619
0.309584
0.33097
0.345762
0.343325
0.333746
0.325479
0.317924
0.311108
0.305294
0.300786
0.29781
0.296475
0.296826
0.298866
0.302556
0.307764
0.314207
0.321483
0.329211
0.337403
0.346835
0.350248
0.336225
0.313587
0.284382
0.231636
0.111232
0.126512
0.240123
0.283166
0.315907
0.332773
0.335818
0.330325
0.32519
0.319807
0.313779
0.307713
0.302356
0.298194
0.295466
0.294266
0.294625
0.296548
0.3
0.304849
0.310779
0.317168
0.323175
0.328262
0.332972
0.338004
0.335911
0.32004
0.285918
0.242838
0.128381
0.132453
0.237926
0.282682
0.312233
0.320603
0.32097
0.320544
0.319284
0.315873
0.310587
0.304816
0.299692
0.29576
0.293215
0.292118
0.292486
0.294323
0.297612
0.302255
0.307945
0.313941
0.31898
0.321814
0.322408
0.322146
0.321104
0.314032
0.284609
0.239617
0.133077
0.130118
0.22794
0.271368
0.293446
0.303168
0.309391
0.314338
0.316911
0.314241
0.308645
0.30264
0.297482
0.293626
0.291175
0.290137
0.290506
0.292294
0.295519
0.300147
0.305954
0.312205
0.317369
0.319034
0.315336
0.30954
0.30253
0.292445
0.270875
0.22755
0.130038
0.120481
0.203526
0.243736
0.270544
0.288291
0.302484
0.313687
0.318205
0.314655
0.30782
0.301215
0.295808
0.291882
0.289434
0.288406
0.288767
0.290539
0.293785
0.298556
0.304766
0.311844
0.318276
0.320352
0.31374
0.301419
0.286782
0.268871
0.241257
0.19989
0.118685
0.10079
0.167105
0.216297
0.251392
0.279587
0.303127
0.317753
0.321881
0.315747
0.307638
0.300358
0.294611
0.290547
0.288047
0.286993
0.287339
0.289115
0.292426
0.297397
0.304064
0.312081
0.320381
0.324556
0.317346
0.301056
0.277216
0.249365
0.214154
0.164207
0.0990435
0.0817784
0.136536
0.195717
0.242173
0.280998
0.310073
0.324543
0.322623
0.316307
0.307259
0.299594
0.293741
0.289619
0.28707
0.285979
0.286309
0.288093
0.291445
0.296511
0.303424
0.311991
0.321042
0.326672
0.325415
0.307682
0.277936
0.239489
0.193854
0.135279
0.081214
0.0686389
0.124918
0.191969
0.246463
0.290348
0.31663
0.32445
0.32382
0.315397
0.305925
0.298717
0.293158
0.289114
0.286546
0.285425
0.285742
0.287532
0.290866
0.295818
0.302442
0.310933
0.320981
0.32724
0.328039
0.318772
0.287633
0.243055
0.189259
0.123396
0.0682732
0.0648077
0.128816
0.201511
0.261556
0.300028
0.316884
0.326013
0.322982
0.312282
0.304179
0.297974
0.29287
0.288965
0.286407
0.285269
0.285582
0.287375
0.290665
0.29541
0.301479
0.309007
0.319211
0.328817
0.328053
0.320605
0.301942
0.25827
0.197988
0.126405
0.0638158
0.0674266
0.148011
0.22448
0.276682
0.302661
0.322001
0.327481
0.317987
0.309187
0.30284
0.297485
0.292761
0.288985
0.286449
0.285308
0.285618
0.28741
0.290667
0.295247
0.300851
0.307302
0.315422
0.326397
0.332131
0.322716
0.306374
0.279009
0.221007
0.143616
0.065851
0.0797286
0.183041
0.245428
0.282571
0.311033
0.324488
0.319811
0.31231
0.306703
0.301869
0.297189
0.292772
0.289088
0.286572
0.28542
0.285715
0.287491
0.290707
0.295182
0.300507
0.306231
0.312465
0.320229
0.329767
0.330312
0.311761
0.287994
0.248484
0.178409
0.0768411
0.105322
0.210664
0.254055
0.293429
0.310776
0.313456
0.310626
0.307717
0.304796
0.301358
0.297247
0.292982
0.289336
0.286788
0.285588
0.285846
0.287603
0.290815
0.295282
0.30052
0.305739
0.310534
0.315221
0.320817
0.326523
0.320991
0.298073
0.263488
0.212492
0.101438
0.117932
0.215059
0.256824
0.287975
0.297831
0.301358
0.303271
0.304262
0.303972
0.301754
0.297952
0.29369
0.289922
0.287238
0.285928
0.286124
0.287873
0.291145
0.295732
0.301079
0.306176
0.309901
0.311881
0.313251
0.314558
0.313955
0.304151
0.269748
0.225966
0.120402
0.117269
0.20815
0.246911
0.270907
0.283091
0.29133
0.297851
0.302981
0.305168
0.30383
0.300032
0.295387
0.291198
0.288184
0.286667
0.28677
0.288552
0.292007
0.296955
0.302797
0.308197
0.311271
0.310926
0.307898
0.304176
0.298922
0.290942
0.265653
0.222923
0.123573
0.109611
0.187875
0.226263
0.252933
0.270379
0.284041
0.296035
0.305119
0.309965
0.309049
0.304375
0.298615
0.293504
0.28988
0.288035
0.28804
0.289945
0.293784
0.29946
0.306398
0.312983
0.316127
0.31349
0.306121
0.29628
0.285226
0.27098
0.246827
0.207614
0.11892
0.0956057
0.162829
0.206734
0.237633
0.261252
0.281636
0.299157
0.312681
0.320249
0.318128
0.310971
0.303246
0.296735
0.292222
0.28992
0.289816
0.291956
0.296409
0.303166
0.311759
0.320771
0.326
0.321596
0.309552
0.293162
0.274409
0.252846
0.223108
0.179081
0.105855
0.0817661
0.139844
0.190007
0.22732
0.258616
0.285905
0.309713
0.327317
0.334056
0.328223
0.318228
0.308326
0.300236
0.294711
0.291878
0.291648
0.294059
0.299228
0.30721
0.31756
0.328694
0.337816
0.33613
0.320491
0.29725
0.269937
0.239206
0.202192
0.151229
0.0896283
0.0696007
0.124256
0.18137
0.226243
0.264601
0.300057
0.32887
0.341966
0.341861
0.335487
0.324016
0.312363
0.30307
0.296753
0.293478
0.293118
0.295689
0.301304
0.310071
0.321731
0.334709
0.343396
0.347034
0.338116
0.311081
0.275087
0.235113
0.188798
0.129892
0.0747449
0.0626421
0.122624
0.183813
0.235319
0.283174
0.324514
0.34469
0.347817
0.346851
0.340018
0.326658
0.314397
0.30483
0.29823
0.294723
0.294251
0.296817
0.302453
0.311135
0.322694
0.337069
0.347635
0.349558
0.348284
0.332144
0.291995
0.242865
0.189205
0.124747
0.0651657
0.0623728
0.129481
0.198792
0.259861
0.313335
0.342932
0.349206
0.352457
0.353491
0.342348
0.32701
0.315177
0.305956
0.299439
0.295876
0.29532
0.297772
0.303166
0.311297
0.321932
0.335922
0.351113
0.354245
0.349364
0.341828
0.317483
0.265058
0.202075
0.130419
0.0636086
0.0669208
0.152504
0.230621
0.295913
0.335806
0.347018
0.354494
0.362082
0.357598
0.340736
0.326399
0.315534
0.306834
0.300544
0.297022
0.296405
0.298692
0.30375
0.311227
0.320642
0.332441
0.348594
0.360913
0.355025
0.343666
0.330913
0.297656
0.232245
0.152388
0.0674226
0.0819613
0.188874
0.267476
0.32337
0.341603
0.353448
0.366161
0.368496
0.353671
0.337682
0.325578
0.315668
0.307459
0.301432
0.298009
0.297354
0.299462
0.304172
0.311069
0.31949
0.32916
0.341326
0.35709
0.364899
0.352557
0.334835
0.316523
0.268026
0.189931
0.081818
0.103805
0.226472
0.298431
0.332046
0.348837
0.366944
0.373285
0.361657
0.347213
0.335194
0.32479
0.315553
0.307715
0.301943
0.298649
0.297993
0.299959
0.304381
0.310819
0.318477
0.326631
0.335424
0.346005
0.3582
0.36163
0.345776
0.321767
0.28902
0.227513
0.106154
0.126337
0.2584
0.311008
0.340186
0.361653
0.370655
0.362814
0.351837
0.342468
0.333238
0.324069
0.315247
0.307653
0.302063
0.298895
0.298272
0.300174
0.304437
0.310626
0.317848
0.324931
0.331255
0.337306
0.343626
0.34975
0.348316
0.33253
0.294289
0.249842
0.128239
0.141133
0.267985
0.313642
0.348455
0.358275
0.356358
0.350325
0.34506
0.339406
0.332247
0.32369
0.314964
0.307444
0.301964
0.298882
0.298315
0.300245
0.304533
0.310763
0.318004
0.32467
0.329155
0.331428
0.332861
0.333609
0.333452
0.326874
0.294843
0.249183
0.135992
0.142324
0.26147
0.308649
0.336115
0.340524
0.341223
0.341044
0.340775
0.338674
0.332694
0.324057
0.315042
0.307357
0.301853
0.298829
0.298346
0.300389
0.304872
0.311455
0.319213
0.326213
0.329892
0.329087
0.325295
0.320839
0.31543
0.306301
0.282118
0.238686
0.133738
0.136651
0.241669
0.286448
0.310615
0.321914
0.329071
0.335478
0.340987
0.340998
0.335039
0.325448
0.315634
0.307571
0.301941
0.298917
0.298525
0.30078
0.305684
0.31303
0.322012
0.330441
0.334273
0.331332
0.322776
0.311617
0.299504
0.283331
0.255228
0.21168
0.122515
0.120794
0.208143
0.256106
0.286866
0.306103
0.321659
0.336146
0.346164
0.347624
0.339685
0.327971
0.31692
0.308183
0.302259
0.299177
0.2989
0.301455
0.306929
0.31526
0.325806
0.336697
0.343422
0.339494
0.326492
0.30862
0.287764
0.263288
0.229509
0.179654
0.103944
0.101054
0.174458
0.229385
0.267185
0.296328
0.32221
0.343268
0.357895
0.356137
0.343961
0.330599
0.318431
0.309
0.302711
0.299519
0.299333
0.302179
0.308191
0.31739
0.329251
0.341378
0.35105
0.352589
0.337887
0.313463
0.283962
0.249593
0.208023
0.15143
0.0866981
0.0829901
0.1468
0.209213
0.25655
0.296893
0.331026
0.357402
0.364412
0.358481
0.346713
0.332216
0.319436
0.309761
0.303355
0.300141
0.300034
0.303051
0.30926
0.318631
0.330911
0.344382
0.353433
0.357327
0.352064
0.328007
0.290078
0.247177
0.197057
0.13374
0.0724589
0.0705314
0.135598
0.203715
0.25912
0.30728
0.348323
0.363855
0.363891
0.359736
0.346919
0.332077
0.320037
0.310846
0.304644
0.30151
0.301485
0.304547
0.310617
0.319485
0.33096
0.345248
0.356185
0.35764
0.35588
0.344988
0.307159
0.255777
0.199283
0.132373
0.0654657
0.0670247
0.138359
0.211194
0.273549
0.327477
0.354706
0.362039
0.366133
0.360867
0.345087
0.33152
0.320964
0.312665
0.306907
0.303975
0.304
0.306956
0.31265
0.320686
0.330708
0.34364
0.358679
0.361953
0.355967
0.348164
0.32743
0.276835
0.21375
0.14012
0.0656342
0.0694248
0.153806
0.233096
0.29958
0.337685
0.353363
0.365107
0.370091
0.357231
0.342137
0.331201
0.322329
0.315113
0.309976
0.307337
0.307389
0.310104
0.315223
0.322239
0.330648
0.340939
0.355297
0.367544
0.361595
0.349187
0.335065
0.304496
0.240771
0.163464
0.0712582
0.0804041
0.184305
0.261374
0.315522
0.338633
0.358982
0.371858
0.364981
0.350141
0.339302
0.330913
0.323778
0.317799
0.313464
0.311221
0.311283
0.313622
0.317963
0.323788
0.33055
0.338389
0.348506
0.362533
0.36978
0.357749
0.337954
0.318348
0.269506
0.194624
0.0870736
0.100032
0.215547
0.281321
0.31831
0.3459
0.366202
0.365514
0.35353
0.343657
0.336338
0.330476
0.325136
0.320474
0.317028
0.315235
0.315297
0.317186
0.320649
0.325202
0.330265
0.335657
0.342352
0.351471
0.363067
0.365237
0.347372
0.321515
0.28732
0.22386
0.105958
0.118945
0.235196
0.288418
0.326313
0.350711
0.357555
0.350534
0.34296
0.337362
0.333609
0.330166
0.326513
0.323071
0.320439
0.319064
0.319122
0.320591
0.323253
0.326625
0.330075
0.333143
0.336376
0.34136
0.348444
0.355738
0.35099
0.329396
0.292331
0.239964
0.122321
0.125954
0.236732
0.28806
0.324604
0.339617
0.339183
0.336054
0.333241
0.332247
0.331794
0.330517
0.328252
0.325654
0.323487
0.322335
0.322391
0.323641
0.32586
0.328428
0.330542
0.331555
0.331591
0.332091
0.334453
0.337717
0.339054
0.326143
0.290937
0.239608
0.127407
0.124429
0.228812
0.277724
0.306013
0.316178
0.320333
0.322677
0.325729
0.329414
0.33191
0.33191
0.330135
0.327499
0.325183
0.323968
0.324018
0.325336
0.327735
0.330392
0.33209
0.331887
0.329128
0.325052
0.321638
0.319197
0.315454
0.305808
0.278519
0.229902
0.125207
0.116737
0.206877
0.249534
0.275329
0.291762
0.302842
0.31239
0.321728
0.329546
0.333466
0.332725
0.329842
0.326883
0.324507
0.323269
0.323312
0.324648
0.327114
0.330115
0.332983
0.333677
0.329565
0.321554
0.31192
0.302184
0.291102
0.274743
0.248149
0.2054
0.116413
0.0977745
0.168632
0.21454
0.24696
0.270667
0.289866
0.307001
0.321715
0.331087
0.332825
0.330684
0.327398
0.324532
0.32245
0.321406
0.321444
0.32257
0.324735
0.327654
0.330946
0.333072
0.331352
0.321908
0.307106
0.289769
0.270388
0.246414
0.213304
0.166322
0.0961493
0.0754974
0.131034
0.186102
0.225595
0.257037
0.284131
0.306954
0.32339
0.329483
0.329003
0.326624
0.324174
0.322118
0.320656
0.319984
0.32003
0.32078
0.322319
0.324434
0.326911
0.32929
0.329779
0.323824
0.307443
0.284606
0.257334
0.225596
0.185628
0.129931
0.0744345
0.0616442
0.113043
0.17141
0.216305
0.254201
0.285794
0.309976
0.321974
0.324554
0.324418
0.323168
0.321671
0.320501
0.319803
0.319531
0.319593
0.319959
0.320736
0.321957
0.323496
0.324784
0.324938
0.322408
0.310694
0.286624
0.255061
0.217065
0.171994
0.113546
0.0613535
0.0571168
0.112826
0.171376
0.218943
0.260005
0.293874
0.310869
0.316913
0.319316
0.320129
0.319973
0.319622
0.319509
0.319558
0.319629
0.319699
0.319731
0.319762
0.319926
0.32032
0.320531
0.319787
0.317434
0.311522
0.294987
0.261201
0.220099
0.172429
0.113765
0.0573102
0.057784
0.119778
0.180364
0.230768
0.275101
0.30176
0.307792
0.311281
0.3141
0.315733
0.316742
0.317625
0.318472
0.319058
0.319399
0.31947
0.319246
0.318748
0.317957
0.317114
0.31616
0.314605
0.31187
0.308497
0.302804
0.276645
0.232404
0.182029
0.121223
0.0581719
0.0630054
0.138064
0.198872
0.248993
0.287731
0.299764
0.30249
0.305951
0.309161
0.311681
0.313761
0.315571
0.316908
0.31774
0.318185
0.318251
0.317931
0.317199
0.315929
0.314166
0.312141
0.309692
0.306574
0.303241
0.300729
0.289177
0.250751
0.200551
0.139804
0.0637307
0.0741217
0.158143
0.217357
0.263979
0.287232
0.293672
0.297035
0.30096
0.304723
0.308099
0.310952
0.313182
0.314554
0.315265
0.31559
0.315647
0.315437
0.314833
0.313544
0.31137
0.308569
0.305258
0.301587
0.297792
0.29462
0.28855
0.265483
0.218871
0.15958
0.0748658
0.0845139
0.176453
0.232252
0.267659
0.282059
0.287334
0.291918
0.296564
0.300994
0.304988
0.308157
0.310353
0.311473
0.311946
0.312123
0.31217
0.312092
0.311719
0.310687
0.308554
0.305432
0.3015
0.297157
0.292633
0.288229
0.28326
0.268933
0.233503
0.177576
0.0851296
0.0943075
0.192135
0.24249
0.266157
0.277297
0.283212
0.288409
0.293546
0.298115
0.302028
0.305078
0.306953
0.307813
0.308164
0.308299
0.308339
0.308287
0.308023
0.307247
0.305437
0.302427
0.298561
0.294057
0.289021
0.283971
0.278321
0.267359
0.243598
0.192969
0.0947026
0.104988
0.203802
0.244314
0.265564
0.276649
0.282565
0.286802
0.291134
0.295072
0.298596
0.30134
0.303019
0.30391
0.304376
0.304586
0.30462
0.304481
0.304089
0.303272
0.301655
0.298952
0.295464
0.291571
0.287321
0.28323
0.277546
0.266585
0.245289
0.204431
0.105203
0.10953
0.206924
0.244012
0.265318
0.275817
0.280706
0.283825
0.28756
0.29127
0.294595
0.297262
0.299139
0.300358
0.301071
0.301399
0.301429
0.30116
0.300508
0.299351
0.297532
0.29491
0.291625
0.287963
0.284301
0.281328
0.276657
0.266208
0.244866
0.207555
0.109786
0.109169
0.201995
0.239572
0.260417
0.270739
0.275673
0.27915
0.283211
0.287291
0.290907
0.29391
0.296194
0.297732
0.298644
0.299072
0.299096
0.298716
0.297853
0.296364
0.29413
0.291172
0.287606
0.283585
0.279596
0.276256
0.271489
0.261178
0.240299
0.202629
0.109445
0.104972
0.190231
0.228486
0.250485
0.262376
0.269169
0.274405
0.279748
0.284721
0.288944
0.292302
0.294746
0.296375
0.297364
0.297838
0.297856
0.297419
0.296467
0.294874
0.292467
0.289147
0.284973
0.280061
0.27478
0.269641
0.262978
0.251123
0.229096
0.190806
0.105218
0.0986442
0.175541
0.215145
0.240534
0.255678
0.264797
0.272045
0.278949
0.284735
0.289193
0.292516
0.294858
0.29644
0.297422
0.297901
0.297916
0.297466
0.296513
0.29496
0.292648
0.289356
0.284935
0.279183
0.272315
0.265112
0.256111
0.241044
0.215668
0.176036
0.0988838
0.0875054
0.161153
0.205053
0.234728
0.252844
0.263784
0.272658
0.280371
0.286518
0.29099
0.29416
0.296361
0.297866
0.298816
0.299284
0.299294
0.298848
0.297919
0.296435
0.294256
0.29111
0.286667
0.280553
0.272857
0.263981
0.253113
0.235079
0.205453
0.161586
0.0878143
0.0783089
0.152791
0.203625
0.234982
0.253383
0.265609
0.275793
0.284121
0.290412
0.294798
0.297839
0.299936
0.301367
0.302271
0.302713
0.302719
0.302291
0.301401
0.299986
0.297904
0.294882
0.290516
0.284242
0.27592
0.265744
0.253556
0.235225
0.203885
0.153074
0.0785204
0.0766899
0.1554
0.208326
0.238833
0.257525
0.271475
0.282581
0.290796
0.296785
0.300972
0.303891
0.305912
0.307282
0.30814
0.308553
0.308558
0.308153
0.307305
0.305947
0.303938
0.301033
0.29686
0.290876
0.282649
0.271543
0.257601
0.238943
0.208469
0.155527
0.0767813
0.0803951
0.171816
0.22221
0.249841
0.269094
0.283893
0.294266
0.301415
0.306558
0.310217
0.312824
0.314662
0.31592
0.316709
0.31709
0.317092
0.316717
0.315935
0.314684
0.312855
0.310259
0.306608
0.301465
0.294303
0.283907
0.269095
0.249842
0.222185
0.171709
0.0803846
0.0945873
0.205834
0.251317
0.274324
0.292382
0.30459
0.311997
0.316938
0.320534
0.323222
0.325238
0.326721
0.327768
0.328439
0.328769
0.328769
0.328443
0.327775
0.326733
0.325256
0.323248
0.320565
0.316967
0.312013
0.304581
0.292348
0.274257
0.251196