/*--------------------------------*- C++ -*----------------------------------*\
| =========                 |                                                 |
| \\      /  F ield         | OpenFOAM: The Open Source CFD Toolbox           |
|  \\    /   O peration     | Version:  v1606+                                |
|   \\  /    A nd           | Web:      www.OpenFOAM.com                      |
|    \\/     M anipulation  |                                                 |
\*---------------------------------------------------------------------------*/
FoamFile
{
    version     2.0;
    format      ascii;
    class       surfaceScalarField;
    location    "0.22";
    object      phi;
}
// * * * * * * * * * * * * * * * * * * * * * * * * * * * * * * * * * * * * * //

dimensions      [0 3 -1 0 0 0 0];

internalField   nonuniform List<scalar> 
11770
(
-2.28681e-06
4.9587e-05
-2.67073e-06
4.78056e-05
-3.74914e-06
4.85185e-05
-4.07095e-06
4.77434e-05
-4.24601e-06
4.75573e-05
-4.09594e-06
4.71469e-05
-4.04578e-06
4.71352e-05
-4.03307e-06
4.70643e-05
-4.11369e-06
4.70599e-05
-4.0951e-06
4.68836e-05
-3.53872e-06
4.62968e-05
-2.65908e-06
4.59357e-05
-1.82006e-06
4.59375e-05
-8.18872e-07
4.57528e-05
-6.44357e-08
4.59805e-05
9.08042e-07
4.57704e-05
1.82619e-06
4.58374e-05
2.8475e-06
4.57625e-05
3.68351e-06
4.59776e-05
3.94699e-06
4.65863e-05
4.02489e-06
4.68325e-05
4.0784e-06
4.69398e-05
4.11965e-06
4.70479e-05
4.2473e-06
4.70705e-05
4.33142e-06
4.72231e-05
4.12819e-06
4.75993e-05
3.85762e-06
4.7692e-05
2.82541e-06
4.84781e-05
2.30339e-06
4.79528e-05
4.96178e-05
-3.57975e-06
5.56789e-05
-4.76231e-06
5.13782e-05
-5.68674e-06
5.18537e-05
-6.3653e-06
5.07885e-05
-6.42773e-06
5.00015e-05
-6.54084e-06
4.96415e-05
-6.64669e-06
4.96641e-05
-6.62651e-06
4.9516e-05
-6.25543e-06
4.92143e-05
-5.57927e-06
4.87649e-05
-4.78669e-06
4.8055e-05
-3.8259e-06
4.75318e-05
-2.62256e-06
4.73196e-05
-1.40695e-06
4.71278e-05
8.50983e-08
4.71017e-05
1.42525e-06
4.7032e-05
2.73299e-06
4.71242e-05
3.85115e-06
4.72136e-05
4.83156e-06
4.75561e-05
5.78682e-06
4.82023e-05
6.40638e-06
4.87629e-05
6.64639e-06
4.92091e-05
6.65614e-06
4.95014e-05
6.5565e-06
4.95835e-05
6.50477e-06
4.96597e-05
6.54166e-06
4.99455e-05
5.97896e-06
5.06165e-05
5.09218e-06
5.17681e-05
3.80013e-06
5.16389e-05
5.59216e-05
-4.30106e-06
6.0072e-05
-4.56406e-06
5.17361e-05
-5.20893e-06
5.26335e-05
-5.58197e-06
5.13054e-05
-5.56206e-06
5.01297e-05
-5.65384e-06
4.98846e-05
-5.75097e-06
4.99179e-05
-5.76731e-06
4.96951e-05
-5.57771e-06
4.91929e-05
-5.08436e-06
4.84429e-05
-4.39704e-06
4.75382e-05
-3.53451e-06
4.68404e-05
-2.44362e-06
4.64027e-05
-1.26191e-06
4.61213e-05
6.92126e-08
4.59479e-05
1.31178e-06
4.5966e-05
2.52761e-06
4.60837e-05
3.54469e-06
4.6369e-05
4.42927e-06
4.68429e-05
5.23134e-06
4.75731e-05
5.69293e-06
4.84729e-05
5.826e-06
4.9244e-05
5.79316e-06
4.96968e-05
5.69495e-06
4.9838e-05
5.67362e-06
4.98326e-05
5.78508e-06
4.99822e-05
5.44837e-06
5.10966e-05
4.8128e-06
5.25381e-05
4.44272e-06
5.21053e-05
6.04591e-05
-9.79463e-07
6.10752e-05
-3.43555e-06
5.42057e-05
-4.93918e-06
5.41536e-05
-5.64795e-06
5.20301e-05
-6.08043e-06
5.05767e-05
-6.2826e-06
5.01002e-05
-6.20133e-06
4.98493e-05
-6.0773e-06
4.95835e-05
-5.81251e-06
4.89398e-05
-5.35927e-06
4.80005e-05
-4.63619e-06
4.68248e-05
-3.57297e-06
4.57861e-05
-2.45701e-06
4.5296e-05
-1.24243e-06
4.49162e-05
3.22101e-08
4.46829e-05
1.33344e-06
4.46743e-05
2.53161e-06
4.48951e-05
3.63877e-06
4.52713e-05
4.68992e-06
4.58011e-05
5.41693e-06
4.68564e-05
5.87898e-06
4.80223e-05
6.16696e-06
4.89685e-05
6.31e-06
4.9567e-05
6.39493e-06
4.97665e-05
6.24646e-06
4.99952e-05
5.84631e-06
5.03976e-05
5.11151e-06
5.1848e-05
3.53767e-06
5.41289e-05
1.09061e-06
5.45668e-05
6.15752e-05
9.85471e-07
6.00983e-05
-3.23204e-06
5.84274e-05
-5.42746e-06
5.63524e-05
-5.48793e-06
5.20924e-05
-6.05491e-06
5.11449e-05
-6.1504e-06
5.01969e-05
-5.95522e-06
4.96562e-05
-6.15914e-06
4.97913e-05
-6.05253e-06
4.88373e-05
-5.56631e-06
4.75182e-05
-4.79992e-06
4.60619e-05
-3.36023e-06
4.43493e-05
-2.26408e-06
4.42034e-05
-1.15246e-06
4.38078e-05
5.0905e-08
4.34824e-05
1.23089e-06
4.34973e-05
2.3272e-06
4.38023e-05
3.40883e-06
4.41936e-05
4.82867e-06
4.43845e-05
5.63563e-06
4.60534e-05
6.09868e-06
4.75639e-05
6.20327e-06
4.88688e-05
6.07812e-06
4.9697e-05
6.23115e-06
4.96161e-05
6.22761e-06
5.00004e-05
5.7253e-06
5.09016e-05
5.59449e-06
5.19811e-05
3.27437e-06
5.64534e-05
-9.19375e-07
5.87656e-05
6.06654e-05
-4.24705e-06
6.43323e-05
-9.59183e-06
6.37566e-05
-1.03597e-05
5.71033e-05
-7.88329e-06
4.95987e-05
-4.85011e-06
4.80954e-05
-2.01051e-06
4.73432e-05
3.9875e-07
4.72358e-05
-7.08753e-07
5.08922e-05
-9.94918e-07
4.91186e-05
-1.05562e-06
4.75758e-05
-1.2279e-06
4.62323e-05
-1.79768e-06
4.49174e-05
-1.48933e-06
4.38915e-05
-8.48356e-07
4.3163e-05
8.55986e-08
4.25444e-05
8.84741e-07
4.26943e-05
1.52811e-06
4.31552e-05
1.73301e-06
4.39854e-05
1.19437e-06
4.49219e-05
1.06079e-06
4.61856e-05
9.85537e-07
4.76367e-05
6.88502e-07
4.9162e-05
-3.27634e-07
5.07083e-05
2.147e-06
4.71312e-05
5.15798e-06
4.69758e-05
8.41826e-06
4.76253e-05
1.10086e-05
4.93736e-05
1.01625e-05
5.72828e-05
4.58696e-06
6.43258e-05
6.52398e-05
-1.52289e-05
7.95293e-05
-2.12258e-05
6.97218e-05
-1.84703e-05
5.43159e-05
-1.18738e-05
4.29696e-05
-4.07696e-06
4.02661e-05
1.94798e-06
4.1286e-05
4.91483e-06
4.42374e-05
4.94718e-06
5.08298e-05
4.03058e-06
5.00066e-05
2.92427e-06
4.8655e-05
1.75495e-06
4.73763e-05
3.97858e-07
4.62507e-05
-3.07615e-08
4.42972e-05
-6.52888e-08
4.31759e-05
2.65947e-08
4.24317e-05
8.5747e-08
4.26143e-05
2.36801e-08
4.31959e-05
-4.65276e-07
4.44518e-05
-1.83005e-06
4.62635e-05
-3.04023e-06
4.73712e-05
-4.17311e-06
4.87435e-05
-5.07281e-06
5.00341e-05
-4.96191e-06
5.05685e-05
-1.80726e-06
4.3946e-05
4.41919e-06
4.0718e-05
1.24854e-05
3.95273e-05
1.94014e-05
4.24258e-05
2.23229e-05
5.43301e-05
1.59364e-05
7.06812e-05
8.11439e-05
-1.5079e-05
9.45724e-05
-2.09401e-05
7.55471e-05
-1.84511e-05
5.17908e-05
-1.19071e-05
3.63892e-05
-4.5283e-06
3.28505e-05
1.83386e-06
3.48867e-05
6.02319e-06
4.00106e-05
1.03087e-05
4.65068e-05
1.12596e-05
4.90186e-05
1.07001e-05
4.91778e-05
9.32081e-06
4.87192e-05
7.59539e-06
4.79402e-05
5.1242e-06
4.67329e-05
2.56441e-06
4.57006e-05
-1.0757e-07
4.50685e-05
-2.68129e-06
4.51532e-05
-5.27033e-06
4.57499e-05
-7.68107e-06
4.68275e-05
-9.43361e-06
4.79808e-05
-1.08539e-05
4.87561e-05
-1.1378e-05
4.92318e-05
-1.03488e-05
4.89692e-05
-6.05458e-06
4.62377e-05
-1.68852e-06
3.95436e-05
4.8717e-06
3.41216e-05
1.24329e-05
3.19303e-05
1.91373e-05
3.56858e-05
2.16323e-05
5.17998e-05
1.55009e-05
7.67774e-05
9.66109e-05
-1.09621e-05
0.0001055
-1.62894e-05
8.08388e-05
-1.4638e-05
5.01033e-05
-9.44836e-06
3.11631e-05
-5.10494e-06
2.84704e-05
-8.96047e-07
3.06406e-05
4.60289e-06
3.44738e-05
9.36453e-06
4.1707e-05
1.11983e-05
4.71466e-05
1.108e-05
4.92578e-05
9.88805e-06
4.98733e-05
8.12005e-06
4.96705e-05
5.75166e-06
4.90637e-05
2.95981e-06
4.8455e-05
-1.0309e-07
4.80935e-05
-3.11956e-06
4.81327e-05
-5.89877e-06
4.84919e-05
-8.22712e-06
4.91189e-05
-1.00033e-05
4.97201e-05
-1.12075e-05
4.99233e-05
-1.129e-05
4.92776e-05
-9.41018e-06
4.70527e-05
-4.58283e-06
4.13736e-05
1.01587e-06
3.39084e-05
5.37313e-06
2.97282e-05
9.82767e-06
2.74399e-05
1.50162e-05
3.04617e-05
1.65404e-05
5.02402e-05
1.10775e-05
8.22053e-05
0.000107654
-7.96899e-06
0.000113434
-1.21491e-05
8.49838e-05
-1.0951e-05
4.88694e-05
-9.75566e-06
2.99321e-05
-5.8961e-06
2.45749e-05
-1.17097e-06
2.58789e-05
2.39205e-06
3.08734e-05
6.84368e-06
3.72172e-05
9.84257e-06
4.4109e-05
1.05469e-05
4.8515e-05
9.47423e-06
5.09078e-05
7.56008e-06
5.15469e-05
5.22057e-06
5.13657e-05
2.63464e-06
5.10034e-05
-8.18217e-08
5.07734e-05
-2.78584e-06
5.07987e-05
-5.35454e-06
5.10237e-05
-7.67505e-06
5.14024e-05
-9.5771e-06
5.15851e-05
-1.0619e-05
5.09282e-05
-9.87045e-06
4.84921e-05
-6.91433e-06
4.40598e-05
-2.43895e-06
3.68617e-05
1.22165e-06
3.02118e-05
6.06002e-06
2.48544e-05
9.95639e-06
2.35085e-05
1.1056e-05
2.93271e-05
1.20671e-05
4.91939e-05
7.85435e-06
8.63835e-05
0.000115474
-5.94997e-06
0.000119351
-9.15884e-06
8.81579e-05
-9.91356e-06
4.95886e-05
-1.05679e-05
3.05516e-05
-5.73776e-06
1.97098e-05
-1.11404e-07
2.02168e-05
2.72342e-06
2.80018e-05
4.07936e-06
3.58232e-05
7.19763e-06
4.09514e-05
9.05496e-06
4.66189e-05
8.86974e-06
5.10549e-05
7.20215e-06
5.31766e-05
4.89849e-06
5.3632e-05
2.43988e-06
5.34248e-05
-7.93387e-08
5.32554e-05
-2.57863e-06
5.32609e-05
-5.02607e-06
5.34342e-05
-7.30631e-06
5.36455e-05
-8.92527e-06
5.31671e-05
-9.01687e-06
5.09828e-05
-7.09669e-06
4.65352e-05
-4.29348e-06
4.12202e-05
-2.86972e-06
3.5402e-05
1.056e-07
2.7201e-05
5.75826e-06
1.91669e-05
1.05441e-05
1.86884e-05
9.75141e-06
3.00855e-05
8.83913e-06
5.00711e-05
5.72825e-06
8.946e-05
0.000121169
-4.19155e-06
0.000123509
-6.07168e-06
9.00034e-05
-8.03524e-06
5.1517e-05
-7.843e-06
3.03253e-05
-4.72775e-06
1.65606e-05
-6.95451e-07
1.61499e-05
3.30036e-06
2.39702e-05
3.69702e-06
3.5389e-05
4.64513e-06
3.99616e-05
6.46529e-06
4.47602e-05
7.23662e-06
5.02459e-05
6.5256e-06
5.38503e-05
4.59539e-06
5.55248e-05
2.28975e-06
5.56933e-05
-7.78176e-08
5.55859e-05
-2.43175e-06
5.5578e-05
-4.72318e-06
5.56885e-05
-6.62069e-06
5.55061e-05
-7.26066e-06
5.37701e-05
-6.33009e-06
5.00156e-05
-4.11202e-06
4.42807e-05
-4.36295e-06
4.14354e-05
-3.52895e-06
3.45327e-05
6.29803e-07
2.30076e-05
4.63565e-06
1.51272e-05
7.62954e-06
1.56611e-05
7.62409e-06
3.00573e-05
5.59487e-06
5.20654e-05
3.92213e-06
9.10983e-05
0.000125059
-2.44056e-06
0.000125916
-1.97433e-06
8.95025e-05
-3.78158e-06
5.32892e-05
-4.19303e-06
3.07032e-05
-2.70903e-06
1.50437e-05
-7.15124e-07
1.4123e-05
2.00665e-06
2.12148e-05
4.25718e-06
3.31041e-05
3.22112e-06
4.0963e-05
4.19633e-06
4.37494e-05
4.68128e-06
4.97249e-05
4.87688e-06
5.36182e-05
3.7395e-06
5.66254e-05
1.95652e-06
5.74393e-05
-7.64546e-08
5.75821e-05
-2.10511e-06
5.75701e-05
-3.87132e-06
5.74178e-05
-4.99042e-06
5.65883e-05
-4.77973e-06
5.35228e-05
-4.29552e-06
4.94952e-05
-3.33412e-06
4.32835e-05
-4.26954e-06
4.23356e-05
-2.00017e-06
3.22288e-05
6.79004e-07
2.02948e-05
2.55571e-06
1.32177e-05
3.84245e-06
1.43416e-05
3.21443e-06
3.06519e-05
1.44297e-06
5.38019e-05
2.17583e-06
9.03309e-05
0.000127202
-2.10189e-08
0.000125904
2.85721e-06
8.65895e-05
1.65705e-06
5.44544e-05
6.18642e-07
3.17083e-05
3.07212e-07
1.53232e-05
2.14881e-07
1.41838e-05
1.0007e-06
2.03973e-05
3.08474e-06
3.09889e-05
3.66832e-06
4.03513e-05
3.01883e-06
4.43663e-05
1.7486e-06
5.09609e-05
2.40822e-06
5.29233e-05
1.93573e-06
5.70621e-05
1.15628e-06
5.81825e-05
-6.81293e-08
5.877e-05
-1.28863e-06
5.8754e-05
-2.0508e-06
5.81435e-05
-2.51809e-06
5.70194e-05
-1.89755e-06
5.28664e-05
-3.30685e-06
5.08691e-05
-4.33083e-06
4.42723e-05
-2.54165e-06
4.0512e-05
-8.29083e-07
3.04825e-05
-2.47236e-07
1.96803e-05
-5.19034e-07
1.34575e-05
-1.06588e-06
1.48563e-05
-2.28e-06
3.18326e-05
-3.39877e-06
5.48856e-05
-3.1896e-07
8.72163e-05
0.000126849
4.18208e-06
0.000121688
9.11586e-06
8.16208e-05
6.81717e-06
5.67183e-05
5.76648e-06
3.27258e-05
3.61112e-06
1.7447e-05
1.41173e-06
1.63525e-05
-2.03391e-08
2.17988e-05
3.36393e-07
3.06016e-05
1.88341e-06
3.87739e-05
1.40678e-06
4.48107e-05
1.19541e-06
5.11389e-05
6.26518e-07
5.34579e-05
-6.39489e-07
5.82934e-05
-6.5127e-08
5.75729e-05
-5.25511e-08
5.87221e-05
-3.75775e-08
5.87036e-05
5.4553e-07
5.75249e-05
-7.19556e-07
5.82494e-05
-1.32535e-06
5.34371e-05
-1.60101e-06
5.111e-05
-2.09777e-06
4.47347e-05
-2.38178e-07
3.86188e-05
4.12515e-08
3.01703e-05
-1.53421e-06
2.12238e-05
-3.89176e-06
1.57836e-05
-6.25114e-06
1.71837e-05
-7.38914e-06
3.29371e-05
-9.66206e-06
5.71236e-05
-4.60657e-06
8.21257e-05
0.000122208
7.88946e-06
0.000113765
1.33439e-05
7.61318e-05
1.25179e-05
5.75102e-05
1.10552e-05
3.41556e-05
6.93283e-06
2.15382e-05
2.46668e-06
2.07884e-05
-1.28767e-06
2.55233e-05
-2.94242e-06
3.22265e-05
-2.75509e-06
3.85563e-05
-2.03474e-06
4.40591e-05
-4.27783e-07
4.94997e-05
-7.92993e-07
5.37901e-05
-6.01676e-07
5.80685e-05
-3.5474e-07
5.72921e-05
-8.018e-08
5.84134e-05
1.97912e-07
5.83913e-05
4.55999e-07
5.72326e-05
6.63923e-07
5.80074e-05
3.12437e-07
5.37547e-05
1.93076e-06
4.94583e-05
2.671e-06
4.39615e-05
2.9128e-06
3.83448e-05
1.2075e-06
3.18441e-05
-2.65722e-06
2.50576e-05
-7.25004e-06
2.03454e-05
-1.15115e-05
2.14134e-05
-1.29828e-05
3.43751e-05
-1.37783e-05
5.78847e-05
-8.17799e-06
7.64908e-05
0.000113997
1.00483e-05
0.000103684
1.39577e-05
7.21892e-05
1.7386e-05
5.40491e-05
1.52877e-05
3.6222e-05
9.41083e-06
2.73844e-05
3.2168e-06
2.6953e-05
-1.81036e-06
3.05219e-05
-4.59652e-06
3.49843e-05
-5.52894e-06
3.94602e-05
-5.40011e-06
4.39009e-05
-4.32046e-06
4.83898e-05
-3.07024e-06
5.25087e-05
-9.47486e-07
5.59139e-05
-7.62596e-07
5.70747e-05
-1.11154e-07
5.77293e-05
5.483e-07
5.76991e-05
7.60507e-07
5.69877e-05
2.9199e-06
5.58156e-05
4.20616e-06
5.24365e-05
5.31294e-06
4.83202e-05
5.46294e-06
4.37809e-05
4.52528e-06
3.92525e-05
1.68451e-06
3.46552e-05
-3.4213e-06
3.01337e-05
-9.70353e-06
2.65974e-05
-1.5634e-05
2.73128e-05
-1.76643e-05
3.63731e-05
-1.41096e-05
5.42969e-05
-1.00795e-05
7.24273e-05
0.000103885
9.30707e-06
9.43477e-05
1.56771e-05
6.57883e-05
1.97435e-05
4.99521e-05
1.73275e-05
3.86082e-05
1.08407e-05
3.38422e-05
4.23902e-06
3.35269e-05
-1.00465e-06
3.5739e-05
-4.38551e-06
3.83394e-05
-6.14648e-06
4.11954e-05
-6.76072e-06
4.44888e-05
-6.37423e-06
4.79762e-05
-5.28571e-06
5.13921e-05
-3.48765e-06
5.4087e-05
-1.88064e-06
5.54381e-05
-1.09673e-07
5.59284e-05
1.66672e-06
5.58927e-05
3.29156e-06
5.5333e-05
5.11818e-06
5.39597e-05
6.24062e-06
5.12854e-05
6.65259e-06
4.78803e-05
6.05443e-06
4.43517e-05
4.28329e-06
4.09968e-05
8.43966e-07
3.80678e-05
-4.44506e-06
3.53955e-05
-1.10767e-05
3.32008e-05
-1.75368e-05
3.37433e-05
-1.98496e-05
3.86557e-05
-1.56486e-05
5.00651e-05
-9.22397e-06
6.59715e-05
9.46308e-05
9.55079e-06
8.47712e-05
1.74877e-05
5.78243e-05
1.99981e-05
4.74148e-05
1.67464e-05
4.18335e-05
1.06151e-05
3.9948e-05
4.64805e-06
3.947e-05
-8.30738e-09
4.03726e-05
-3.28489e-06
4.15941e-05
-5.27298e-06
4.31618e-05
-6.26669e-06
4.54607e-05
-6.34661e-06
4.80336e-05
-5.55107e-06
5.05732e-05
-3.98499e-06
5.24968e-05
-2.11457e-06
5.35428e-05
-9.98104e-08
5.38883e-05
1.91444e-06
5.38531e-05
3.78482e-06
5.34375e-05
5.36092e-06
5.23591e-05
6.17824e-06
5.04442e-05
6.11618e-06
4.79192e-05
5.13107e-06
4.53143e-05
3.15527e-06
4.29502e-05
-1.24877e-07
4.13253e-05
-4.77222e-06
4.00195e-05
-1.07317e-05
3.91358e-05
-1.6816e-05
3.98017e-05
-2.00138e-05
4.18268e-05
-1.74418e-05
4.74659e-05
-9.50899e-06
5.80114e-05
8.50959e-05
1.21912e-05
7.25611e-05
1.75382e-05
5.2456e-05
1.81232e-05
4.68086e-05
1.39761e-05
4.59601e-05
8.85156e-06
4.50529e-05
4.00349e-06
4.42991e-05
5.80117e-07
4.37776e-05
-1.86854e-06
4.40251e-05
-3.47135e-06
4.47475e-05
-4.36309e-06
4.63356e-05
-4.54542e-06
4.81991e-05
-3.99157e-06
5.00021e-05
-2.86731e-06
5.13547e-05
-1.49388e-06
5.2151e-05
-7.51006e-08
5.24508e-05
1.33619e-06
5.24229e-05
2.68831e-06
5.20668e-05
3.79512e-06
5.12341e-05
4.34988e-06
4.98718e-05
4.18001e-06
4.80717e-05
3.2947e-06
4.61821e-05
1.69932e-06
4.45278e-05
-7.18585e-07
4.37249e-05
-4.10959e-06
4.33915e-05
-8.90736e-06
4.39141e-05
-1.40146e-05
4.48889e-05
-1.81385e-05
4.59302e-05
-1.75733e-05
4.68793e-05
-1.22582e-05
5.26747e-05
7.28186e-05
1.25107e-05
6.00388e-05
1.62747e-05
4.8677e-05
1.53291e-05
4.77396e-05
1.13623e-05
4.9913e-05
7.16944e-06
4.92312e-05
3.20991e-06
4.82434e-05
8.45234e-07
4.61271e-05
-5.65362e-07
4.54208e-05
-1.44995e-06
4.56181e-05
-1.89285e-06
4.67654e-05
-1.927e-06
4.82208e-05
-1.59325e-06
4.96565e-05
-1.07015e-06
5.082e-05
-5.30322e-07
5.15997e-05
-5.02473e-08
5.19592e-05
4.19918e-07
5.19412e-05
9.29461e-07
5.15456e-05
1.41445e-06
5.07373e-05
1.71877e-06
4.95552e-05
1.66948e-06
4.81082e-05
1.21282e-06
4.66252e-05
3.1903e-07
4.54071e-05
-1.05179e-06
4.50804e-05
-3.33276e-06
4.56568e-05
-7.02377e-06
4.75894e-05
-1.12593e-05
4.91096e-05
-1.53081e-05
4.99648e-05
-1.63513e-05
4.79079e-05
-1.26179e-05
4.89263e-05
6.01891e-05
1.15835e-05
4.84468e-05
1.44469e-05
4.58029e-05
1.31904e-05
4.89861e-05
9.36511e-06
5.37282e-05
5.2957e-06
5.32881e-05
2.27494e-06
5.12503e-05
8.79675e-07
4.75084e-05
5.37238e-07
4.57499e-05
3.18586e-07
4.58245e-05
1.40135e-07
4.6933e-05
2.29969e-08
4.83285e-05
-2.98705e-09
4.96743e-05
9.41224e-09
5.08005e-05
6.25645e-09
5.15965e-05
-3.61496e-08
5.19956e-05
-8.6212e-08
5.19853e-05
-1.13262e-07
5.15662e-05
-1.36935e-07
5.07537e-05
-2.04159e-07
4.96141e-05
-3.6296e-07
4.82573e-05
-5.88966e-07
4.68401e-05
-8.55984e-07
4.56616e-05
-1.20033e-06
4.54111e-05
-2.38589e-06
4.68281e-05
-4.93682e-06
5.01264e-05
-9.08533e-06
5.32453e-05
-1.31517e-05
5.40209e-05
-1.44922e-05
4.92383e-05
-1.16615e-05
4.60848e-05
4.85191e-05
9.22331e-06
3.92131e-05
1.12238e-05
4.37923e-05
9.92653e-06
5.02738e-05
5.66752e-06
5.79768e-05
2.29597e-06
5.6647e-05
1.58115e-06
5.19519e-05
1.8643e-06
4.72116e-05
2.30263e-06
4.52989e-05
2.31738e-06
4.57988e-05
2.04639e-06
4.71949e-05
1.65721e-06
4.87105e-05
1.24073e-06
5.00854e-05
8.23214e-07
5.1214e-05
4.063e-07
5.20103e-05
-1.79704e-08
5.24173e-05
-4.48044e-07
5.24128e-05
-8.82193e-07
5.19973e-05
-1.32649e-06
5.11939e-05
-1.77712e-06
5.00592e-05
-2.20627e-06
4.86791e-05
-2.52993e-06
4.71546e-05
-2.59041e-06
4.5711e-05
-2.22051e-06
4.50286e-05
-1.82336e-06
4.64173e-05
-2.31405e-06
5.06037e-05
-5.44147e-06
5.63598e-05
-9.91529e-06
5.84841e-05
-1.12015e-05
5.05147e-05
-9.20749e-06
4.40807e-05
3.93011e-05
5.25503e-06
3.39443e-05
6.32285e-06
4.27114e-05
4.15981e-06
5.24242e-05
2.37646e-07
6.18868e-05
-2.27679e-07
5.70991e-05
2.52887e-06
4.91824e-05
4.19514e-06
4.55326e-05
4.60856e-06
4.48746e-05
4.30624e-06
4.60922e-05
3.70521e-06
4.7789e-05
2.99042e-06
4.94203e-05
2.23667e-06
5.08357e-05
1.48217e-06
5.19664e-05
7.39365e-07
5.27519e-05
3.21468e-09
5.31527e-05
-7.36545e-07
5.31517e-05
-1.48989e-06
5.27493e-05
-2.26092e-06
5.19628e-05
-3.0362e-06
5.0831e-05
-3.77618e-06
4.9414e-05
-4.40801e-06
4.77795e-05
-4.7623e-06
4.60564e-05
-4.4534e-06
4.47088e-05
-2.96425e-06
4.49154e-05
-5.61482e-07
4.81873e-05
-3.92386e-07
5.61772e-05
-4.00061e-06
6.208e-05
-6.19119e-06
5.26924e-05
-5.16467e-06
4.3041e-05
3.41226e-05
1.39676e-06
3.2531e-05
-9.12475e-07
4.50054e-05
-3.62818e-06
5.51249e-05
-3.4836e-06
6.17305e-05
2.16903e-06
5.14341e-05
5.82987e-06
4.55095e-05
6.89922e-06
4.44534e-05
6.59019e-06
4.51757e-05
5.80981e-06
4.68665e-05
4.87374e-06
4.87208e-05
3.88296e-06
5.04082e-05
2.88278e-06
5.18343e-05
1.90354e-06
5.29449e-05
9.54424e-07
5.37009e-05
2.48559e-08
5.40825e-05
-9.06686e-07
5.40835e-05
-1.86156e-06
5.37041e-05
-2.84984e-06
5.29503e-05
-3.86162e-06
5.18412e-05
-4.86518e-06
5.04147e-05
-5.81425e-06
4.87242e-05
-6.6148e-06
4.68509e-05
-6.9897e-06
4.50758e-05
-6.17927e-06
4.4095e-05
-2.97681e-06
4.49725e-05
2.79544e-06
5.03924e-05
3.73746e-06
6.1126e-05
1.32149e-06
5.50932e-05
-1.24273e-06
4.55901e-05
3.28634e-05
-1.99316e-06
3.45074e-05
-8.14993e-06
5.11485e-05
-6.55046e-06
5.35133e-05
1.0817e-06
5.40879e-05
7.04733e-06
4.54582e-05
8.67211e-06
4.38766e-05
8.62058e-06
4.44992e-05
7.7726e-06
4.60194e-05
6.67413e-06
4.79619e-05
5.49576e-06
4.98972e-05
4.3043e-06
5.15988e-05
3.14959e-06
5.29889e-05
2.05811e-06
5.40368e-05
1.03139e-06
5.47284e-05
4.4632e-08
5.50701e-05
-9.43008e-07
5.50719e-05
-1.97236e-06
5.47341e-05
-3.06811e-06
5.40464e-05
-4.22832e-06
5.30012e-05
-5.42535e-06
5.16108e-05
-6.61026e-06
4.99072e-05
-7.71937e-06
4.79569e-05
-8.61296e-06
4.5965e-05
-8.8584e-06
4.43346e-05
-7.55257e-06
4.36586e-05
-2.13739e-06
4.49669e-05
6.05577e-06
5.29224e-05
8.40132e-06
5.27358e-05
2.19182e-06
5.17864e-05
3.50388e-05
-5.69604e-06
4.01909e-05
-7.62832e-06
5.30726e-05
-4.67242e-07
4.63442e-05
7.80903e-06
4.58056e-05
9.7648e-06
4.34976e-05
9.98167e-06
4.36569e-05
9.3391e-06
4.51401e-05
8.2413e-06
4.7116e-05
6.96005e-06
4.92427e-05
5.6114e-06
5.12461e-05
4.27889e-06
5.2932e-05
3.03737e-06
5.42313e-05
1.93473e-06
5.51405e-05
9.60405e-07
5.57038e-05
6.13558e-08
5.59702e-05
-8.37618e-07
5.5972e-05
-1.81187e-06
5.57094e-05
-2.915e-06
5.51506e-05
-4.15821e-06
5.42453e-05
-5.49405e-06
5.29473e-05
-6.84699e-06
5.12602e-05
-8.13589e-06
4.92452e-05
-9.25998e-06
4.70878e-05
-9.99507e-06
4.50678e-05
-9.88885e-06
4.35497e-05
-8.20466e-06
4.32782e-05
-3.55837e-07
4.50681e-05
6.83373e-06
4.55386e-05
5.77083e-06
5.28416e-05
4.07975e-05
-4.66363e-06
4.48478e-05
8.85988e-07
4.75192e-05
5.89243e-06
4.13336e-05
9.50467e-06
4.21928e-05
1.04682e-05
4.25344e-05
1.02357e-05
4.38902e-05
9.40177e-06
4.59751e-05
8.1881e-06
4.8331e-05
6.75358e-06
5.06789e-05
5.23503e-06
5.27666e-05
3.78436e-06
5.43846e-05
2.51765e-06
5.54997e-05
1.51406e-06
5.61453e-05
7.32636e-07
5.6486e-05
7.54773e-08
5.6628e-05
-5.80702e-07
5.66287e-05
-1.35949e-06
5.6489e-05
-2.36027e-06
5.61525e-05
-3.62619e-06
5.55128e-05
-5.08129e-06
5.44042e-05
-6.60526e-06
5.27861e-05
-8.04822e-06
5.06897e-05
-9.27732e-06
4.8318e-05
-1.01389e-05
4.59302e-05
-1.0397e-05
4.38084e-05
-9.47359e-06
4.23552e-05
-6.20234e-06
4.17963e-05
-1.61212e-06
4.09443e-05
4.39853e-06
4.68272e-05
4.51896e-05
-5.27308e-07
4.53731e-05
5.75134e-06
4.12397e-05
7.95187e-06
3.91317e-05
9.79e-06
4.03561e-05
1.0331e-05
4.19957e-05
9.9949e-06
4.42287e-05
9.10654e-06
4.68662e-05
7.74739e-06
4.96935e-05
6.08926e-06
5.23407e-05
4.26986e-06
5.45897e-05
2.67474e-06
5.59826e-05
1.4639e-06
5.67123e-05
7.20665e-07
5.68892e-05
3.16756e-07
5.68899e-05
8.65175e-08
5.68577e-05
-1.41837e-07
5.68566e-05
-5.40179e-07
5.68872e-05
-1.27609e-06
5.68891e-05
-2.48049e-06
5.67189e-05
-4.08045e-06
5.60069e-05
-5.9109e-06
5.46201e-05
-7.58393e-06
5.23663e-05
-8.95823e-06
4.96955e-05
-9.85959e-06
4.68341e-05
-1.02103e-05
4.41613e-05
-9.71597e-06
4.18628e-05
-8.04343e-06
4.0125e-05
-5.94966e-06
3.8849e-05
1.43784e-07
4.07328e-05
4.53312e-05
2.60844e-06
4.27638e-05
6.59062e-06
3.72562e-05
8.45094e-06
3.72705e-05
9.60788e-06
3.92003e-05
9.95129e-06
4.16544e-05
9.62308e-06
4.45599e-05
8.63134e-06
4.7862e-05
6.94115e-06
5.13887e-05
4.88349e-06
5.44035e-05
2.44235e-06
5.70358e-05
7.47881e-07
5.76801e-05
-2.16127e-07
5.76775e-05
-4.58217e-07
5.71308e-05
-2.76263e-07
5.67063e-05
9.40172e-08
5.64853e-05
4.66769e-07
5.64817e-05
6.57389e-07
5.6695e-05
4.29541e-07
5.71163e-05
-5.15365e-07
5.76648e-05
-2.21223e-06
5.77067e-05
-4.66691e-06
5.70796e-05
-6.75391e-06
5.44584e-05
-8.4661e-06
5.14125e-05
-9.48149e-06
4.78534e-05
-9.82706e-06
4.45097e-05
-9.5197e-06
4.15572e-05
-8.44669e-06
3.90527e-05
-6.67662e-06
3.70778e-05
-2.88438e-06
3.69388e-05
4.24457e-05
4.21513e-06
3.85464e-05
6.95472e-06
3.45131e-05
8.42996e-06
3.57932e-05
9.28949e-06
3.83405e-05
9.63217e-06
4.13131e-05
9.28258e-06
4.49127e-05
8.01179e-06
4.91376e-05
5.6044e-06
5.38019e-05
2.96158e-06
5.70513e-05
-5.31894e-07
6.05338e-05
-2.09218e-06
5.92422e-05
-2.39979e-06
5.79845e-05
-1.83909e-06
5.65676e-05
-9.25066e-07
5.57886e-05
9.80345e-08
5.5458e-05
1.123e-06
5.54525e-05
2.04608e-06
5.57682e-05
2.62866e-06
5.65311e-05
2.35963e-06
5.79332e-05
8.05254e-07
5.92628e-05
-2.68233e-06
6.05715e-05
-5.3837e-06
5.71645e-05
-7.8226e-06
5.38571e-05
-9.13587e-06
4.91713e-05
-9.51389e-06
4.48907e-05
-9.19519e-06
4.12396e-05
-8.36987e-06
3.82268e-05
-6.96579e-06
3.56714e-05
-4.36398e-06
3.43333e-05
3.80794e-05
4.86989e-06
3.36724e-05
6.91016e-06
3.24675e-05
8.11663e-06
3.45829e-05
9.01365e-06
3.74415e-05
9.41856e-06
4.09084e-05
8.85116e-06
4.54824e-05
6.82722e-06
5.11651e-05
3.07773e-06
5.75546e-05
-3.38748e-07
6.04688e-05
-4.36618e-06
6.45616e-05
-5.394e-06
6.02684e-05
-4.48367e-06
5.70703e-05
-2.95405e-06
5.50326e-05
-1.38796e-06
5.42164e-05
1.00779e-07
5.39629e-05
1.58864e-06
5.39583e-05
3.15642e-06
5.41942e-05
4.70646e-06
5.49756e-05
5.66646e-06
5.69692e-05
4.67564e-06
6.02518e-05
7.07112e-07
6.45402e-05
-2.7839e-06
6.06563e-05
-6.56582e-06
5.76419e-05
-8.6855e-06
5.12944e-05
-9.29923e-06
4.55066e-05
-8.91565e-06
4.0856e-05
-8.02636e-06
3.73353e-05
-6.83319e-06
3.44742e-05
-4.83217e-06
3.23268e-05
3.3243e-05
4.34247e-06
2.93231e-05
6.29413e-06
3.05085e-05
7.6403e-06
3.32306e-05
8.76143e-06
3.63163e-05
9.0259e-06
4.06421e-05
7.35149e-06
4.71563e-05
3.44784e-06
5.5067e-05
-1.20445e-06
6.22029e-05
-5.4006e-06
6.46594e-05
-7.65093e-06
6.68067e-05
-7.61515e-06
6.0226e-05
-5.40194e-06
5.48491e-05
-3.26259e-06
5.28847e-05
-1.46805e-06
5.24133e-05
1.06555e-07
5.23798e-05
1.6763e-06
5.23801e-05
3.45916e-06
5.24028e-05
5.59628e-06
5.28298e-05
7.85023e-06
5.4707e-05
8.03376e-06
6.00615e-05
5.87847e-06
6.66901e-05
1.64257e-06
6.48866e-05
-3.06221e-06
6.23426e-05
-7.11094e-06
5.53411e-05
-8.88948e-06
4.72844e-05
-8.65283e-06
4.06174e-05
-7.53952e-06
3.62177e-05
-6.17467e-06
3.31029e-05
-4.21599e-06
3.03606e-05
2.90199e-05
3.40556e-06
2.59071e-05
5.41938e-06
2.84846e-05
7.08983e-06
3.15513e-05
8.19764e-06
3.52017e-05
7.44594e-06
4.13883e-05
2.88906e-06
5.17065e-05
-2.59354e-06
6.05407e-05
-7.23737e-06
6.68371e-05
-1.06617e-05
6.80742e-05
-9.37395e-06
6.55098e-05
-7.34086e-06
5.81819e-05
-4.66622e-06
5.21629e-05
-2.66124e-06
5.08686e-05
-1.15564e-06
5.08973e-05
1.18428e-07
5.10958e-05
1.38468e-06
5.11038e-05
2.86573e-06
5.09113e-05
4.83028e-06
5.08542e-05
7.48471e-06
5.2041e-05
9.68313e-06
5.7852e-05
1.1142e-05
6.52219e-05
7.86355e-06
6.81557e-05
3.12546e-06
6.7071e-05
-2.5064e-06
6.09639e-05
-7.23354e-06
5.20046e-05
-8.07383e-06
4.14519e-05
-6.99048e-06
3.51273e-05
-5.31338e-06
3.14167e-05
-3.30398e-06
2.83409e-05
2.57051e-05
2.63362e-06
2.32591e-05
4.6262e-06
2.64786e-05
6.33822e-06
2.98272e-05
6.67196e-06
3.48572e-05
2.66173e-06
4.53873e-05
-4.12074e-06
5.8476e-05
-1.03859e-05
6.67941e-05
-1.34227e-05
6.98635e-05
-1.32015e-05
6.78423e-05
-8.66357e-06
6.096e-05
-5.05834e-06
5.45632e-05
-2.81025e-06
4.99012e-05
-1.49402e-06
4.954e-05
-6.0177e-07
4.99937e-05
1.36103e-07
5.03471e-05
8.67019e-07
5.03622e-05
1.73416e-06
5.00329e-05
2.99687e-06
4.95791e-05
5.16929e-06
4.9855e-05
8.82666e-06
5.4181e-05
1.34595e-05
6.05771e-05
1.39023e-05
6.77021e-05
1.09877e-05
6.99753e-05
4.77353e-06
6.71662e-05
-2.24205e-06
5.9007e-05
-6.47607e-06
4.56743e-05
-6.21706e-06
3.48573e-05
-4.54408e-06
2.97315e-05
-2.57201e-06
2.63552e-05
2.31186e-05
2.01506e-06
2.12263e-05
3.85912e-06
2.46179e-05
4.9221e-06
2.87485e-05
2.5802e-06
3.71837e-05
-5.19672e-06
5.31473e-05
-1.22687e-05
6.55342e-05
-1.62567e-05
7.07707e-05
-1.60769e-05
6.9673e-05
-1.1506e-05
6.32597e-05
-5.37163e-06
5.4812e-05
-1.69559e-06
5.08728e-05
-5.76908e-07
4.87689e-05
-1.87655e-07
4.91384e-05
6.92793e-09
4.97879e-05
1.55126e-07
5.01882e-05
2.9921e-07
5.02073e-05
4.77873e-07
4.98429e-05
8.27331e-07
4.92174e-05
1.84788e-06
4.88208e-05
5.33628e-06
5.06783e-05
1.14056e-05
5.44941e-05
1.63246e-05
6.27712e-05
1.67402e-05
6.9549e-05
1.30538e-05
7.08412e-05
5.95297e-06
6.60942e-05
-2.16423e-06
5.37747e-05
-4.74058e-06
3.7418e-05
-3.77067e-06
2.87457e-05
-1.97456e-06
2.45423e-05
2.11261e-05
1.48162e-06
1.97239e-05
2.59932e-06
2.34802e-05
2.12962e-06
2.91981e-05
-6.42452e-06
4.57179e-05
-1.46106e-05
6.13169e-05
-1.82202e-05
6.91308e-05
-1.78743e-05
7.04131e-05
-1.34341e-05
6.52207e-05
-5.43636e-06
5.52484e-05
-5.98886e-07
4.99602e-05
1.27608e-06
4.89848e-05
1.24781e-06
4.8785e-05
8.99086e-07
4.9476e-05
5.25837e-07
5.01506e-05
1.70916e-07
5.0533e-05
-1.86009e-07
5.05541e-05
-5.66488e-07
5.02129e-05
-9.31577e-07
4.95713e-05
-1.00564e-06
4.88828e-05
6.83791e-07
4.89758e-05
5.22695e-06
4.99366e-05
1.32136e-05
5.47708e-05
1.81311e-05
6.46193e-05
1.86599e-05
7.03009e-05
1.53508e-05
6.93906e-05
7.12933e-06
6.19798e-05
-1.82682e-06
4.63543e-05
-2.47495e-06
2.93736e-05
-1.42959e-06
2.34769e-05
1.96756e-05
5.7559e-07
1.91251e-05
7.63137e-08
2.39566e-05
-6.18247e-06
3.54335e-05
-1.63308e-05
5.58457e-05
-2.01417e-05
6.51124e-05
-1.92959e-05
6.82717e-05
-1.41502e-05
6.52545e-05
-4.87843e-06
5.59348e-05
1.24143e-06
4.91142e-05
2.8209e-06
4.83682e-05
3.04676e-06
4.87482e-05
2.39564e-06
4.9426e-05
1.62115e-06
5.02408e-05
8.82485e-07
5.088e-05
1.81352e-07
5.12249e-05
-5.2153e-07
5.12478e-05
-1.26546e-06
5.09475e-05
-2.05107e-06
5.03472e-05
-2.73142e-06
4.9553e-05
-2.62334e-06
4.8857e-05
-1.1698e-06
4.84707e-05
4.48604e-06
4.91008e-05
1.38125e-05
5.52787e-05
1.93693e-05
6.47312e-05
2.03405e-05
6.84065e-05
1.69121e-05
6.53932e-05
6.72395e-06
5.65223e-05
6.01734e-08
3.6014e-05
-4.96242e-07
2.40102e-05
1.91562e-05
-1.10897e-06
2.02094e-05
-5.66594e-06
2.84895e-05
-1.47896e-05
4.45338e-05
-1.99675e-05
6.10061e-05
-1.96522e-05
6.47822e-05
-1.37146e-05
6.23202e-05
-3.27368e-06
5.47991e-05
3.71821e-06
4.89293e-05
4.89968e-06
4.79214e-05
4.72941e-06
4.85293e-05
3.98966e-06
4.94797e-05
2.98809e-06
5.04194e-05
1.99224e-06
5.12285e-05
1.06608e-06
5.1798e-05
1.87291e-07
5.20957e-05
-6.93214e-07
5.21202e-05
-1.6247e-06
5.18709e-05
-2.63177e-06
5.13461e-05
-3.65646e-06
5.05694e-05
-4.45034e-06
4.96426e-05
-4.68088e-06
4.86921e-05
-3.62747e-06
4.80362e-05
2.80005e-06
4.88378e-05
1.32009e-05
5.43159e-05
1.95389e-05
6.20547e-05
2.00315e-05
6.48863e-05
1.51632e-05
6.13736e-05
6.07815e-06
4.50761e-05
1.20294e-06
2.88615e-05
2.03343e-05
-3.61136e-06
2.37956e-05
-1.35991e-05
3.84542e-05
-1.83923e-05
4.93081e-05
-1.81784e-05
6.07779e-05
-1.10783e-05
5.76678e-05
-5.14293e-07
5.17419e-05
5.96175e-06
4.83112e-05
7.03675e-06
4.78456e-05
6.48868e-06
4.84628e-05
5.46793e-06
4.9544e-05
4.29409e-06
5.06473e-05
3.11618e-06
5.15907e-05
2.04317e-06
5.22946e-05
1.08347e-06
5.27507e-05
1.89295e-07
5.29827e-05
-7.0535e-07
5.30077e-05
-1.66811e-06
5.28265e-05
-2.75042e-06
5.24215e-05
-3.94949e-06
5.17618e-05
-5.1562e-06
5.0843e-05
-6.21054e-06
4.97404e-05
-6.81313e-06
4.86321e-05
-5.88432e-06
4.79004e-05
1.30564e-07
4.82894e-05
1.06418e-05
5.15293e-05
1.79767e-05
5.75372e-05
1.83829e-05
6.09535e-05
1.37276e-05
4.97128e-05
3.67259e-06
3.88937e-05
2.39818e-05
-7.44646e-06
3.12194e-05
-1.54045e-05
4.63944e-05
-1.47499e-05
4.8639e-05
-6.77269e-06
5.27874e-05
2.7878e-06
4.80946e-05
7.51807e-06
4.70022e-05
8.47958e-06
4.73443e-05
7.93311e-06
4.83887e-05
6.75365e-06
4.9639e-05
5.37532e-06
5.09185e-05
4.00544e-06
5.20125e-05
2.79163e-06
5.27991e-05
1.77973e-06
5.33006e-05
9.35909e-07
5.35881e-05
1.84829e-07
5.37273e-05
-5.62831e-07
5.37489e-05
-1.40056e-06
5.36579e-05
-2.41293e-06
5.34278e-05
-3.64661e-06
5.299e-05
-5.05582e-06
5.22475e-05