/*--------------------------------*- C++ -*----------------------------------*\
| =========                 |                                                 |
| \\      /  F ield         | OpenFOAM: The Open Source CFD Toolbox           |
|  \\    /   O peration     | Version:  2.4.0                                 |
|   \\  /    A nd           | Web:      www.OpenFOAM.org                      |
|    \\/     M anipulation  |                                                 |
\*---------------------------------------------------------------------------*/
FoamFile
{
    version     2.0;
    format      ascii;
    class       surfaceScalarField;
    location    "3.6";
    object      phi;
}
// * * * * * * * * * * * * * * * * * * * * * * * * * * * * * * * * * * * * * //

dimensions      [0 3 -1 0 0 0 0];

internalField   nonuniform List<scalar> 
5952
(
0.000328749
-0.000328749
0.000458294
-0.000129545
0.000434929
2.33657e-05
0.000363974
7.09543e-05
0.000211822
0.000152152
-0.000405472
0.000617295
-0.000774698
0.000369225
-0.000994844
0.000220146
-0.00119535
0.000200511
-0.00127405
7.86981e-05
-0.00130445
3.03945e-05
-1.12227e-05
-0.00129322
-4.56826e-05
-0.000283067
-0.000169387
-5.8405e-06
-0.00056868
0.000422658
-0.000953832
0.000456107
-0.00129093
0.000489252
-0.00122626
0.000552625
-0.00128819
0.000431153
-0.00140205
0.000334003
-0.00142032
0.00021878
-0.00142676
8.51424e-05
-0.00136215
-3.42166e-05
-9.18406e-05
-0.00128153
-0.000272925
-1.01418e-05
-0.000602778
0.000324013
-0.000784753
0.000604633
-0.0010288
0.00070015
-0.00124521
0.000705669
-0.00122947
0.000536887
-0.00121813
0.000419806
-0.00123126
0.000347139
-0.00122972
0.000217232
-0.00125824
0.000113672
-0.00126391
-2.85474e-05
-0.000142782
-0.00121297
-0.000228766
0.000218624
-0.000535844
0.00063109
-0.00078138
0.000850169
-0.000958959
0.000877729
-0.00102821
0.000774923
-0.00100046
0.000509131
-0.00100933
0.000428684
-0.000951766
0.00028957
-0.000922788
0.000188255
-0.000864818
5.57019e-05
-0.000819598
-7.37678e-05
-0.000163247
-0.000799132
-0.00056208
0.000780705
-0.000820789
0.000889799
-0.000907669
0.00093705
-0.000982653
0.000952713
-0.000952724
0.000744993
-0.000940952
0.000497359
-0.000955482
0.000443214
-0.000952409
0.000286497
-0.00100655
0.000242399
-0.00101103
6.01794e-05
-0.000943984
-0.000140815
-0.000296514
-0.000810717
-0.00014646
0.000927164
-0.000369919
0.00111326
-0.000636268
0.0012034
-0.000700505
0.00101695
-0.000652885
0.000697374
-0.00064644
0.000490913
-0.000646241
0.000443015
-0.000619249
0.000259504
-0.000579169
0.00020232
-0.000590707
7.17175e-05
-0.000595359
-0.000136164
-0.000381168
-0.000510706
-0.000308176
0.00123534
-0.000589473
0.00139455
-0.000697114
0.00131104
-0.000684839
0.00100468
-0.000739453
0.000751988
-0.000888671
0.000640132
-0.000937957
0.0004923
-0.000870205
0.000191753
-0.000738078
7.01927e-05
-0.00062739
-3.89702e-05
-0.000570433
-0.000193121
-0.000470729
-0.000480871
-0.000158492
0.00139383
-0.000326067
0.00156213
-0.000447679
0.00143265
-0.000605139
0.00116214
-0.000800825
0.000947674
-0.000951194
0.000790501
-0.000956154
0.00049726
-0.000941724
0.000177323
-0.000806971
-6.45608e-05
-0.000591887
-0.000254054
-0.000460527
-0.000324481
-0.000496265
-0.000434991
-0.000232313
0.00162615
-0.000481853
0.00181167
-0.000687012
0.00163781
-0.000894979
0.0013701
-0.00123732
0.00129002
-0.001458
0.00101118
-0.00153308
0.000572333
-0.00146589
0.000110137
-0.00114303
-0.000387422
-0.000733778
-0.000663304
-0.00030116
-0.000757099
-0.000655772
-0.000141654
-0.000136049
0.0017622
-0.000315281
0.0019909
-0.000474648
0.00179718
-0.000704769
0.00160022
-0.000962486
0.00154773
-0.00102178
0.00107047
-0.00105868
0.000609236
-0.000982268
3.37267e-05
-0.000880863
-0.000488828
-0.000786474
-0.000757693
-0.00035318
-0.00119039
-0.000963053
-4.5899e-05
-0.00011258
0.00187477
-0.000339135
0.00221746
-0.000556419
0.00201446
-0.000828387
0.00187219
-0.00104995
0.0017693
-0.00114196
0.00116248
-0.00113258
0.000599852
-0.00105751
-4.13416e-05
-0.000851914
-0.000694425
-0.000574413
-0.00103519
-0.000301986
-0.00146282
-0.00128994
2.49034e-05
3.27313e-05
0.00184204
-0.000124695
0.00237488
-0.00031823
0.002208
-0.000517845
0.00207181
-0.000759529
0.00201098
-0.000822309
0.00122526
-0.000823807
0.00060135
-0.000835165
-2.99836e-05
-0.000650383
-0.000879207
-0.000410994
-0.00127458
-0.000118695
-0.00175512
0.00016276
-0.0015714
-0.001232
-6.12277e-05
-0.00115347
-7.85286e-05
-0.00107901
-7.446e-05
-0.000988339
-9.06691e-05
-0.000909478
-7.8861e-05
-0.000812256
-9.72225e-05
-0.000649646
-0.00016261
-0.000563049
-8.65967e-05
-0.000498037
-6.50119e-05
-0.000246968
-0.000251069
-0.000106221
-0.000140747
-0.000106221
-0.00119337
-0.000149385
-0.00104389
-0.000228008
-0.000898994
-0.000219361
-0.000738602
-0.000251062
-0.000625133
-0.00019233
-0.000526852
-0.000195503
-0.000506293
-0.000183169
-0.000378374
-0.000214515
-0.000318737
-0.00012465
-0.000266083
-0.000303722
-0.000161041
-0.00024579
-0.000267262
-0.00117862
-0.000183736
-0.00110568
-0.000300952
-0.00101629
-0.000308746
-0.000903159
-0.000364195
-0.000708381
-0.000387108
-0.000556388
-0.000347496
-0.000539063
-0.000200494
-0.000388596
-0.000364982
-0.000209244
-0.000304001
-0.000186798
-0.000326169
-0.000124036
-0.000308551
-0.000391298
-0.000740662
-0.000242207
-0.000715125
-0.000326489
-0.00065294
-0.00037093
-0.000630592
-0.000386544
-0.00051994
-0.00049776
-0.000344518
-0.000522918
-0.000367613
-0.000177399
-0.000342167
-0.000390428
-0.000241208
-0.000404961
-0.000131635
-0.000435742
-8.55251e-05
-0.000354661
-0.000476823
-0.000691761
-0.000361163
-0.000579462
-0.000438788
-0.000419667
-0.000530725
-0.000330119
-0.000476092
-0.000318755
-0.000509125
-0.000215826
-0.000625847
-8.69411e-05
-0.000306284
-5.85894e-05
-0.00041878
-8.1972e-05
-0.000381578
-9.53715e-05
-0.000422342
-6.84446e-05
-0.000381588
-0.000545267
-0.000408464
-0.000463404
-0.000347081
-0.000500171
-0.000245012
-0.000632794
-0.000134791
-0.000586312
-2.55935e-05
-0.000618323
3.99891e-05
-0.000691429
6.17263e-05
-0.000328021
0.000115347
-0.0004724
0.000118388
-0.00038462
0.000112127
-0.000416081
3.46489e-05
-0.00030411
-0.000510619
-0.000188741
-0.000755534
3.24808e-05
-0.000721393
0.000109799
-0.000710112
0.00021074
-0.000687253
0.000226385
-0.000633968
0.000217462
-0.000682506
0.00025764
-0.0003682
0.000317864
-0.000532624
0.000318097
-0.000384853
0.000208573
-0.000306557
0.000120794
-0.000216331
-0.000389825
-0.000265866
-0.000924659
-5.76349e-05
-0.000929624
7.9447e-05
-0.000847194
0.000189859
-0.000797665
0.00034076
-0.000784869
0.00038422
-0.000725966
0.000468594
-0.000452575
0.00057746
-0.00064149
0.000570152
-0.000377544
0.000517085
-0.00025349
0.00037124
-7.04852e-05
-1.85852e-05
1.44867e-06
-0.00106776
0.000112763
-0.00104094
0.000276538
-0.00101097
0.000517763
-0.00103889
0.000627577
-0.000894682
0.000618919
-0.000717308
0.000820475
-0.000654131
0.000760542
-0.000581556
0.000685649
-0.000302652
0.000562163
-0.000130004
0.000340102
0.000151576
0.000321517
9.68648e-05
-0.00121052
0.000217048
-0.00116112
0.000383585
-0.00117751
0.000592935
-0.00124824
0.000744499
-0.00104625
0.00110864
-0.00108145
0.0012921
-0.000837588
0.0012363
-0.000525759
0.00103843
-0.000104774
0.000792821
0.0001156
0.000368815
0.000575582
0.000690332
0.000211738
-0.00139736
0.000359926
-0.00130931
0.000610303
-0.00142788
0.000876754
-0.00151469
0.00135465
-0.00152414
0.00163639
-0.0013632
0.00159216
-0.000793356
0.00151374
-0.00044734
0.00137987
2.91027e-05
0.00102356
0.000471908
0.000677818
0.000921323
0.00136815
0.00037817
-0.00161277
0.000606089
-0.00153723
0.00086295
-0.00168474
0.00126067
-0.00191241
0.00154289
-0.00180636
0.00149603
-0.00131633
0.00148859
-0.00078592
0.00136856
-0.000327308
0.00118655
0.000211113
0.000955613
0.000702844
0.000588322
0.00128861
0.00195647
0.000414137
-0.000414137
0.0007052
-0.000291063
0.000689654
1.55458e-05
0.000537637
0.000152017
0.00039528
0.000142357
6.35068e-05
0.000331773
-0.000633773
0.00069728
-0.000924816
0.000291043
-0.00120446
0.000279641
-0.00128545
8.09944e-05
-0.0014126
0.000127145
-2.03078e-05
-0.00139229
0.000122211
-0.000536348
-7.47396e-05
-9.4112e-05
-0.000406665
0.000347472
-0.000819061
0.000564412
-0.00119187
0.000515169
-0.00137655
0.000516452
-0.00127948
0.000600205
-0.00132446
0.000336021
-0.00136695
0.00032214
-0.00136979
8.38351e-05
-0.0013183
7.56544e-05
-9.89766e-05
-0.00123964
-0.000347204
-0.000189144
-0.00076312
0.000321804
-0.00104123
0.000625578
-0.00122955
0.00075274
-0.00134628
0.000631893
-0.00140057
0.000570744
-0.0012402
0.00043984
-0.00123391
0.000329724
-0.00114736
0.000235597
-0.00114485
8.13254e-05
-0.0010844
1.52035e-05
-0.000152233
-0.00103115
-0.000330618
0.000141473
-0.000724367
0.000715553
-0.00097865
0.000879861
-0.00102855
0.000802642
-0.00105214
0.000655485
-0.00104983
0.000568428
-0.000987833
0.000377845
-0.000933935
0.000275825
-0.000851757
0.000153419
-0.000794613
2.41814e-05
-0.000724406
-5.50038e-05
-0.000223125
-0.000653513
-0.000470661
0.000612135
-0.000724289
0.000969181
-0.000934024
0.0010896
-0.00103189
0.000900508
-0.00109407
0.000717662
-0.00113652
0.000610879
-0.00112738
0.000368705
-0.00106093
0.000209377
-0.000982652
7.51415e-05
-0.000930934
-2.75366e-05
-0.000888929
-9.70087e-05
-0.000305839
-0.000806215
-0.000298956
0.00091109
-0.0005811
0.00125133
-0.000742369
0.00125086
-0.000758385
0.000916524
-0.000746155
0.000705432
-0.000733663
0.000598387
-0.000719206
0.000354248
-0.00069576
0.000185931
-0.00063242
1.18018e-05
-0.000619311
-4.06454e-05
-0.000629211
-8.71087e-05
-0.000310216
-0.000624834
-0.000302617
0.00121371
-0.00055758
0.00150629
-0.000656977
0.00135026
-0.000579642
0.000839188
-0.000562206
0.000687996
-0.0006114
0.00064758
-0.000683739
0.000426587
-0.000672052
0.000174244
-0.000505586
-0.000154664
-0.000292483
-0.000253749
-8.85444e-05
-0.000291048
-0.000307844
-9.09162e-05
-0.000240313
0.00145402
-0.000354521
0.0016205
-0.000390573
0.00138631
-0.000474471
0.000923086
-0.000689124
0.000902649
-0.000843283
0.000801739
-0.000921002
0.000504305
-0.000924031
0.000177273
-0.000836866
-0.000241829
-0.000663402
-0.000427212
-0.000324752
-0.000629698
-0.000558508
-7.40883e-05
-0.000158667
0.00161269
-0.00031662
0.00177845
-0.000490587
0.00156028
-0.000651696
0.0010842
-0.000929105
0.00118006
-0.00121452
0.00108716
-0.00128728
0.000577067
-0.00121757
0.000107563
-0.0010745
-0.000384904
-0.000825228
-0.000676483
-0.000509942
-0.000944983
-0.000756303
-0.000312147
-0.000166596
0.00177928
-0.00025753
0.00186938
-0.000304093
0.00160684
-0.000541202
0.0013213
-0.000919161
0.00155802
-0.000944608
0.0011126
-0.000968709
0.000601167
-0.000930532
6.93858e-05
-0.000798427
-0.000517009
-0.000677996
-0.000796914
-0.000368404
-0.00125457
-0.00100894
-0.000115766
-4.35514e-05
0.00182284
-0.000180211
0.00200604
-0.000390856
0.00181749
-0.000730584
0.00166103
-0.000955792
0.00178323
-0.00102329
0.00118011
-0.00101567
0.000593546
-0.000970966
2.46787e-05
-0.000822341
-0.000665634
-0.000473945
-0.00114531
-0.000260912
-0.00146761
-0.00125156
-1.8292e-05
1.46552e-07
0.00182269
-0.000111282
0.00211747
-0.000304449
0.00201065
-0.000573697
0.00193028
-0.000750571
0.0019601
-0.000747955
0.00117749
-0.000732668
0.000578259
-0.000619098
-8.8892e-05
-0.000515691
-0.00076904
-0.000366681
-0.00129432
-4.32062e-05
-0.00179108
0.000172238
-0.00146701
-0.00143772
4.54288e-05
-0.00133391
-0.000103809
-0.00130688
-2.70261e-05
-0.00110301
-0.000203869
-0.00101814
-8.48752e-05
-0.000752514
-0.000265624
-0.000611726
-0.000140787
-0.000405832
-0.000205895
-0.000333035
-7.27969e-05
-0.000173057
-0.000159978
-3.63373e-05
-0.00013672
-3.63373e-05
-0.00113426
-5.99466e-05
-0.00105618
-0.00018189
-0.000932416
-0.00015079
-0.00085711
-0.000279174
-0.000747819
-0.000194166
-0.000668457
-0.000344986
-0.000528819
-0.000280426
-0.00042914
-0.000305574
-0.000241812
-0.000260125
-0.000170869
-0.00023092
-0.000134693
-0.000172896
-0.00017103
-0.000988668
-0.000102426
-0.000929998
-0.00024056
-0.00083837
-0.000242418
-0.000706305
-0.000411239
-0.000643641
-0.00025683
-0.000558684
-0.000429943
-0.000487273
-0.000351837
-0.000311744
-0.000481102
-0.000241267
-0.000330602
-0.000122708
-0.00034948
-5.77073e-05
-0.000237897
-0.000228737
-0.000608831
-0.000147108
-0.000586974
-0.000262417
-0.000576121
-0.000253271
-0.000534895
-0.000452465
-0.000388336
-0.000403389
-0.000334369
-0.00048391
-0.000284864
-0.000401342
-0.000171809
-0.000594157
-2.18112e-05
-0.000480599
-1.11639e-05
-0.000360127
-1.06421e-05
-0.000238419
-0.000239379
-0.000683682
-0.000269641
-0.000575972
-0.000370127
-0.000483122
-0.000346121
-0.000453697
-0.00048189
-0.000320561
-0.000536525
-0.000152424
-0.000652047
-4.43661e-05
-0.0005094
2.14651e-05
-0.000659988
4.30286e-05
-0.000502163
9.5372e-05
-0.000412471
5.50098e-05
-0.000198057
-0.000184369
-0.000555441
-0.000339034
-0.000390504
-0.000535064
-0.000252822
-0.000483804
-0.000135197
-0.000599515
-2.26511e-05
-0.000649071
7.42231e-05
-0.000748921
0.000179639
-0.000614816
0.00021513
-0.000695479
0.000229178
-0.000516212
0.000205187
-0.00038848
0.000152332
-0.000145202
-3.20373e-05
-0.000224296
-0.000205654
-0.00013085
-0.00062851
-6.73197e-06
-0.000607922
9.01706e-05
-0.000696417
0.000254052
-0.000812952
0.000365504
-0.000860374
0.000480315
-0.000729627
0.000577744
-0.000792908
0.000492887
-0.000431354
0.000330486
-0.000226079
0.000128363
5.69215e-05
9.63253e-05
-8.25417e-05
-0.000197201
9.88471e-06
-0.000720937
0.000174989
-0.000773026
0.000329422
-0.00085085
0.000442112
-0.000925641
0.000541277
-0.000959539
0.000652324
-0.000840674
0.000647906
-0.000788489
0.000527143
-0.000310591
0.000471351
-0.000170286
0.000290485
0.000237787
0.00038681
-3.98901e-05
-0.000469458
0.000174042
-0.000934869
0.000340611
-0.000939595
0.000494426
-0.00100466
0.000671847
-0.00110306
0.00076107
-0.00104876
0.000853689
-0.000933293
0.00065494
-0.00058974
0.000550865
-0.000206516
0.000396658
-1.60787e-05
0.000254074
0.000380371
0.000640884
0.000103259
-0.000688482
0.000338909
-0.00117052
0.000542391
-0.00114308
0.00073761
-0.00119988
0.000862931
-0.00122838
0.00101156
-0.00119739
0.000869226
-0.000790961
0.000711443
-0.000431956
0.000613396
-0.00010847
0.000463129
0.000134188
0.000244442
0.000599058
0.000885326
0.000266938
-0.000973712
0.000461572
-0.00136515
0.000695214
-0.00137672
0.000906992
-0.00141166
0.00113859
-0.00145999
0.00106267
-0.00112146
0.000922023
-0.000650318
0.000858471
-0.000368404
0.000712045
3.7957e-05
0.000460141
0.000386092
0.00031591
0.000743289
0.00120124
0.000345144
-0.00114662
0.000596108
-0.00161612
0.000855687
-0.0016363
0.00113185
-0.00168782
0.00124323
-0.00157137
0.00119662
-0.00107485
0.00132743
-0.000781132
0.00127969
-0.00032066
0.00114428
0.000173359
0.000858037
0.000672339
0.000489348
0.00111198
0.00169058
0.000453353
-0.000453353
0.000730007
-0.000276654
0.000835052
-0.000105044
0.000828306
6.74528e-06
0.000585359
0.000242948
0.000315418
0.000269941
-2.67576e-05
0.000342175
-0.000792506
0.000765749
-0.0010778
0.000285291
-0.00126053
0.000182736
-0.00131922
5.86879e-05
-2.94699e-06
-0.00131627
0.000232408
-0.000685761
0.00029078
-0.000335027
0.000108571
7.71649e-05
-0.00024361
0.000358927
-0.000647547
0.000646884
-0.00108272
0.000705114
-0.00136868
0.000628138
-0.00126782
0.000664885
-0.00128117
0.000298647
-0.00129876
0.000200325
-0.00123987
-2.0172e-07
-4.68002e-05
-0.00119602
-8.86073e-05
-0.000597154
-0.000348545
-7.50885e-05
-0.000651021
0.00037964
-0.000887574
0.00059548
-0.00107301
0.000832322
-0.00121044
0.000842546
-0.00127556
0.000693254
-0.00117012
0.000559441
-0.00113875
0.000267281
-0.00112511
0.000186681
-0.00114248
1.71695e-05
-3.45759e-05
-0.0011547
-0.000338151
-0.000259003
-0.000558612
0.000145372
-0.000808637
0.000629666
-0.000998105
0.000784949
-0.00107903
0.000913243
-0.00108733
0.00085085
-0.00110442
0.000710344
-0.0010492
0.000504223
-0.00103454
0.000252623
-0.00101142
0.000163559
-0.00100255
8.29983e-06
-2.02016e-05
-0.00101693
-0.00058567
0.000326667
-0.000876536
0.000436239
-0.00107088
0.000824007
-0.00117853
0.000892597
-0.001209
0.000943714
-0.00113499
0.000776839
-0.00104026
0.000615616
-0.000930071
0.000394035
-0.000903585
0.000226136
-0.000859681
0.000119656
-0.000892276
4.08943e-05
-5.9776e-06
-0.0009065
-5.768e-05
0.000384347
-0.000278263
0.000656822
-0.000637122
0.00118287
-0.000813892
0.00106937
-0.000887804
0.00101763
-0.000806392
0.000695427
-0.000663066
0.00047229
-0.000568379
0.000299349
-0.000491094
0.000148851
-0.00048897
0.000117531
-0.00050393
5.58544e-05
-2.55706e-05
-0.000484337
-0.000413159
0.000797506
-0.000779153
0.00102282
-0.00094225
0.00134596
-0.00102483
0.00115195
-0.000960302
0.000953099
-0.000724288
0.000459413
-0.000562601
0.000310603
-0.000402399
0.000139146
-0.000203834
-4.97138e-05
-9.26198e-05
6.31748e-06
-2.41391e-05
-1.26263e-05
-5.78964e-06
-4.39201e-05
-0.000229853
0.00102736
-0.000410072
0.00120303
-0.000607222
0.00154311
-0.000735682
0.00128041
-0.000645575
0.000862992
-0.000668535
0.000482372
-0.000820701
0.000462769
-0.000790093
0.000108537
-0.000654932
-0.000184874
-0.000283078
-0.000365537
0.000161973
-0.000457678
-0.000278137
0.000434321
-0.000258966
0.00128633
-0.000586555
0.00153062
-0.000756522
0.00171308
-0.000731888
0.00125577
-0.000739298
0.000870402
-0.000874273
0.000617348
-0.00094617
0.000534666
-0.000932499
9.48665e-05
-0.000857002
-0.000260371
-0.000697216
-0.000525323
-0.000272506
-0.000882388
-0.000692483
0.000141839
-0.000155716
0.00144204
-0.000268636
0.00164354
-0.000342999
0.00178744
-0.000398229
0.001311
-0.000522714
0.000994887
-0.000868371
0.000963005
-0.0010444
0.000710694
-0.00105707
0.000107533
-0.000954968
-0.000362469
-0.000761137
-0.000719154
-0.000461905
-0.00118162
-0.00106803
-8.63622e-05
-8.59297e-05
0.00152797
-0.000270631
0.00182824
-0.000399519
0.00191633
-0.000518909
0.00143039
-0.000635773
0.00111175
-0.000924763
0.00125199
-0.000982671
0.000768602
-0.000967379
9.22409e-05
-0.000881524
-0.000448324
-0.000652742
-0.000947936
-0.000463463
-0.0013709
-0.00120884
-0.000322651
0.00012667
0.0014013
4.75001e-05
0.00190741
-4.83676e-05
0.0020122
-0.000130704
0.00151273
-0.000372158
0.00135321
-0.00075527
0.00163511
-0.000765069
0.000778401
-0.00075788
8.50526e-05
-0.000606724
-0.00059948
-0.000347746
-0.00120691
-0.000120476
-0.00159817
-4.22389e-06
-0.00132509
-0.00124796
-6.83153e-05
-0.0011819
-6.60575e-05
-0.00107508
-0.000106826
-0.000995811
-7.92655e-05
-0.000844371
-0.00015144
-0.000705486
-0.000138885
-0.00056792
-0.000137566
-0.000530099
-3.78214e-05
-0.000311571
-0.000218528
-0.000214442
-9.71286e-05
-6.40372e-05
-0.000150405
-6.40372e-05
-0.00113338
-0.000130956
-0.00105318
-0.000146258
-0.000944993
-0.000215011
-0.000802329
-0.000221929
-0.000673707
-0.000280062
-0.000516141
-0.000296451
-0.000428697
-0.00022501
-0.000305951
-0.000160567
-0.000282706
-0.000241774
-0.000164238
-0.000215596
-0.000134036
-0.000180608
-0.000198073
-0.00113716
-0.000148497
-0.00109515
-0.000188272
-0.00102907
-0.000281086
-0.000889807
-0.000361195
-0.000706093
-0.000463776
-0.000494287
-0.000508257
-0.000324531
-0.000394765
-0.000196746
-0.000288352
-0.000130787
-0.000307733
-0.000140525
-0.000205858
-4.57114e-05
-0.000275422
-0.000243784
-0.0010341
-0.000131326
-0.000986231
-0.000236138
-0.00088437
-0.000382947
-0.000789982
-0.000455583
-0.000627465
-0.000626292
-0.000466153
-0.00066957
-0.000277945
-0.000582973
-0.000108636
-0.000457662
-6.03878e-05
-0.000355981
1.92878e-05
-0.000285533
-1.62769e-05
-0.000239857
-0.000260061
-0.000889399
-0.000148427
-0.000828371
-0.000297166
-0.000720542
-0.000490776
-0.000609982
-0.000566143
-0.000517799
-0.000718475
-0.000325458
-0.000861911
-0.000174296
-0.000734135
-3.77822e-05
-0.000594176
2.50882e-05
-0.000418851
3.82646e-05
-0.00029871
4.64738e-05
-0.000248066
-0.000213587
-0.000555154
-7.76102e-05
-0.000528387
-0.000323933
-0.000381861
-0.000637302
-0.000180595
-0.000767409
-1.95694e-05
-0.000879501
5.37087e-05
-0.000935189
0.000129947
-0.000810374
0.000140496
-0.000604724
0.000127097
-0.000405452
0.000129367
-0.00030098
6.74703e-05
-0.00018617
-0.000146117
-0.000191651
7.0121e-05
-0.000207936
-0.000307649
-4.83023e-05
-0.000796935
0.000108124
-0.000923835
0.000275461
-0.00104684
0.000373517
-0.00103325
0.000394871
-0.000831727
0.000360598
-0.000570451
0.000242075
-0.000286929
0.000160088
-0.000218993
6.39281e-05
-9.00101e-05
-8.21888e-05
0.000341849
0.000162593
0.00020328
-0.00016908
0.00027457
-0.000868226
0.000394772
-0.00104404
0.000526463
-0.00117853
0.000594252
-0.00110104
0.000630199
-0.000867675
0.000555343
-0.000495595
0.000461459
-0.000193044
0.000395513
-0.000153047
0.000270775
3.47283e-05
0.000188586
1.2225e-05
0.000292208
0.000106195
-0.00026305
0.000408055
-0.00117009
0.000556615
-0.0011926
0.000670618
-0.00129253
0.000739629
-0.00117005
0.000708263
-0.000836308
0.000588843
-0.000376175
0.000502541
-0.000106743
0.000250967
9.85278e-05
2.1103e-05
0.000264592
0.000209689
9.31751e-05
0.000112671
0.00041829
-0.000588165
0.000706962
-0.00145876
0.000850083
-0.00133572
0.00100721
-0.00144966
0.000953016
-0.00111585
0.000732584
-0.000615876
0.000709045
-0.000352637
0.000602888
-5.84967e-07
0.000445519
0.000255896
0.000231027
0.000479084
0.000440716
0.000229629
-0.000439609
0.000804854
-0.00116339
0.000822653
-0.00147656
0.000886696
-0.00139976
0.000903814
-0.00146678
0.000768565
-0.000980602
0.000793477
-0.000640788
0.000838731
-0.000397891
0.000822868
1.52784e-05
0.000611585
0.00046718
0.000384574
0.000706095
0.00082529
0.000432547
-0.00087638
0.000723441
-0.00145428
0.000890855
-0.00164397
0.00117445
-0.00168336
0.00123767
-0.00152999
0.00121861
-0.000961545
0.00131031
-0.000732486
0.00119354
-0.000281129
0.00107012
0.000138705
0.000909855
0.000627442
0.000516971
0.00109898
0.00134226
0.000338077
-0.000338077
0.000471143
-0.000133066
0.000367307
0.000103836
0.000241298
0.00012601
-2.61918e-05
0.000267489
-0.000863457
0.000837266
-0.00125976
0.000396308
-0.00145417
0.000194406
-0.00157834
0.000124166
-0.00158085
2.51426e-06
-0.00156698
-1.38761e-05
-0.000160994
-0.00140598
-0.000115878
-0.000222199
-0.000295649
4.67052e-05
-0.000720002
0.000528188
-0.00113417
0.00054018
-0.00147443
0.000607742
-0.0013359
0.000698741
-0.00133773
0.000398135
-0.00140186
0.000258534
-0.0013968
0.000119108
-0.00136979
-2.44919e-05
-0.00130802
-7.56528e-05
-0.000204888
-0.00126412
-0.000263787
4.15879e-05
-0.000612243
0.000395161
-0.000773831
0.000689776
-0.00100536
0.000771709
-0.00126921
0.000871593
-0.00124496
0.000674494
-0.00120059
0.000353762
-0.00125388
0.000311828
-0.00125505
0.000120278
-0.00129262
1.30706e-05
-0.00127036
-9.79091e-05
-0.000248415
-0.00122683
-0.000155768
0.000197356
-0.000389808
0.000629202
-0.000655149
0.000955117
-0.000920675
0.00103724
-0.00109515
0.00104606
-0.00113187
0.000711223
-0.00117929
0.000401174
-0.00116914
0.000301686
-0.00115245
0.000103579
-0.0011293
-1.00757e-05
-0.00112394
-0.000103269
-0.000260218
-0.00111214
-0.000516668
0.000714023
-0.000789904
0.000902438
-0.000960945
0.00112616
-0.00111773
0.00119402
-0.00119213
0.00112046
-0.00122845
0.000747542
-0.001241
0.00041372
-0.00119472
0.000255408
-0.00118758
9.64405e-05
-0.00114733
-5.03189e-05
-0.0010819
-0.000168703
-0.000362038
-0.00098008
-0.000106058
0.000820082
-0.000278664
0.00107504
-0.000599484
0.00144698
-0.000742248
0.00133678
-0.00075732
0.00113554
-0.000711116
0.000701338
-0.000708942
0.000411545
-0.000725707
0.000272173
-0.000731112
0.000101845
-0.000752188
-2.9243e-05
-0.000736141
-0.000184751
-0.000446337
-0.000651842
-0.00026592
0.001086
-0.000557359
0.00136648
-0.000691575
0.00158119
-0.000689726
0.00133493
-0.000617935
0.00106374
-0.000476768
0.000560171
-0.000464875
0.000399653
-0.000531758
0.000339056
-0.000568794
0.000138882
-0.000522884
-7.51534e-05
-0.000534665
-0.000172969
-0.000567003
-0.000413999
-0.000165026
0.00125103
-0.000274237
0.00147569
-0.000336045
0.001643
-0.00035492
0.00135381
-0.000332553
0.00104138
-0.000356819
0.000584437
-0.000472066
0.000514901
-0.00055177
0.000418759
-0.000598601
0.000185713
-0.000423322
-0.000250433
-0.000253413
-0.000342878
-0.000586098
-0.000234318
-0.000144873
0.0013959
-0.000363495
0.00169431
-0.000442086
0.00172159
-0.000402161
0.00131388
-0.000476947
0.00111616
-0.00060866
0.00071615
-0.000732685
0.000638925
-0.000762168
0.000448243
-0.000711389
0.000134934
-0.000465782
-0.00049604
-9.78548e-05
-0.000710805
-0.000723631
3.96783e-05
-0.000108831
0.00150473
-0.00013985
0.00172533
-0.000150941
0.00173268
-0.000273653
0.0014366
-0.00054765
0.00139016
-0.000740895
0.000909395
-0.000800276
0.000698306
-0.000733819
0.000381786
-0.000546204
-5.26806e-05
-0.000322152
-0.000720092
-0.000113917
-0.000919041
-0.000772482
-6.50658e-05
-4.4398e-05
0.00154913
-0.000222098
0.00190303
-0.000350941
0.00186153
-0.000494748
0.0015804
-0.00065683
0.00155224
-0.000650887
0.000903452
-0.000542445
0.000589863
-0.000333976
0.000173317
-0.000261494
-0.000125163
-5.87939e-05
-0.000922792
0.000119106
-0.00109694
-0.000785559
0.000132182
6.23227e-05
0.00148681
-1.72351e-05
0.00198259
-0.000122259
0.00196655
-0.000298595
0.00175674
-0.000449338
0.00170299
-0.000509108
0.000963222
-0.000557438
0.000638193
-0.00025051
-0.000133611
-8.971e-06
-0.000366702
-2.51501e-06
-0.000929248
0.000128871
-0.00122833
0.000210763
-0.000867451
-0.00127276
-0.000133225
-0.00111068
-0.000162079
-0.0009975
-0.000113176
-0.000938487
-5.90133e-05
-0.000839867
-9.86202e-05
-0.000770572
-6.92948e-05
-0.00059954
-0.000171032
-0.000442107
-0.000157433
-0.000317536
-0.000124571
-0.000142524
-0.000175011
-0.000101871
-4.06532e-05
-0.000101871
-0.00116627
-0.000231081
-0.00103421
-0.000294139
-0.000900291
-0.000247093
-0.000726775
-0.000232529
-0.000658405
-0.00016699
-0.000504494
-0.000223206
-0.000468187
-0.00020734
-0.000384878
-0.000240741
-0.00034277
-0.00016668
-0.000245295
-0.000272487
-5.50321e-05
-0.000230916
-0.000156903
-0.0011897
-0.00026821
-0.00109256
-0.000391285
-0.000976838
-0.000362812
-0.000779337
-0.00043003
-0.000584769
-0.000361557
-0.000430228
-0.000377747
-0.000302678
-0.00033489
-0.000195169
-0.00034825
-0.000125836
-0.000236012
-9.97448e-05
-0.000298578
-5.83518e-05
-0.000272309
-0.000215255
-0.00111118
-0.000269171
-0.00107347
-0.000428994
-0.000944322
-0.000491957
-0.000799866
-0.000574486
-0.000562471
-0.000598953
-0.00035919
-0.000581028
-0.000267624
-0.000426455
-0.000107783
-0.000508091
-3.30915e-05
-0.000310704
-1.19848e-05
-0.000319685
-1.96768e-05
-0.000264617
-0.000234931
-0.000891599
-0.000357653
-0.000824201
-0.000496391
-0.000732875
-0.000583284
-0.000639613
-0.000667748
-0.000479169
-0.000759396
-0.000270175
-0.000790022
-0.000144462
-0.000552168
-5.83849e-05
-0.000594169
5.27364e-05
-0.000421825
7.05566e-05
-0.000337505
3.18207e-05
-0.000225881
-0.000203111
-0.000630855
-0.000378639
-0.000537001
-0.000590245
-0.000386149
-0.000734136
-0.000246341
-0.000807555
-5.04181e-05
-0.000955319
5.68802e-05
-0.000897321
0.000132004
-0.000627292
0.00015428
-0.000616445
0.000158409
-0.000425954
0.000230276
-0.000409372
0.000125355
-0.00012096
-7.77554e-05
-0.000342888
-0.000449751
-0.000251037
-0.000682096
-8.78037e-05
-0.000897369
9.50213e-05
-0.00099038
0.000243396
-0.00110369
0.000367456
-0.00102138
0.000510105
-0.000769941
0.000492557
-0.000598898
0.000420539
-0.000353936
0.000290938
-0.000279771
5.5814e-05
0.000114164
-2.19414e-05
-0.00017945
-0.000504618
-3.05348e-05
-0.000831012
9.17556e-05
-0.00101966
0.000268386
-0.00116701
0.00044114
-0.00127645
0.00058867
-0.00116891
0.000650074
-0.000831344
0.000807183
-0.000756007
0.000700918
-0.000247671
0.000536998
-0.00011585
0.000355577
0.000295585
0.000333635
6.3972e-05
-0.000528912
0.000218778
-0.000985817
0.000342018
-0.0011429
0.0005142
-0.00133919
0.000618003
-0.00138025
0.000663353
-0.00121426
0.000821256
-0.000989248
0.000788682
-0.000723433
0.000714635
-0.000173625
0.000491282
0.000107503
0.000298301
0.000488566
0.000631936
0.000112298
-0.000706276
0.000347019
-0.00122054
0.000488239
-0.00128412
0.000610143
-0.0014611
0.000703949
-0.00147406
0.000851541
-0.00136185
0.000900437
-0.00103814
0.00079376
-0.000616755
0.000739974
-0.000119839
0.000607997
0.000239481
0.000333836
0.000762727
0.000965772
0.000327934
-0.000902028
0.000552603
-0.00144521
0.000679417
-0.00141093
0.000805968
-0.00158765
0.000983144
-0.00165123
0.00098102
-0.00135973
0.000828597
-0.000885721
0.000760805
-0.000548964
0.000677297
-3.63317e-05
0.000530559
0.000386219
0.000426988
0.000866298
0.00139276
0.000434187
-0.00112545
0.000658791
-0.00166981
0.000863516
-0.00161566
0.00112158
-0.00184571
0.00118347
-0.00171313
0.00106163
-0.00123788
0.00105586
-0.000879949
0.000939708
-0.000432816
0.000840214
6.31623e-05
0.000662463
0.000563971
0.000403772
0.00112499
0.00179653
0.000153378
0.0020953
-0.000406635
-2.68517e-05
0.00255511
-0.000226061
0.00240721
-0.000471144
0.00231689
-0.000605519
0.00214536
-0.000585962
0.0012057
-0.000586708
0.000602096
-0.000547278
-6.94135e-05
-0.000373537
-0.00105295
-0.000125574
-0.00152254
0.000112734
-0.00199343
-0.00180498
0.000346316
0.000402527
0.00232737
-0.000634595
0.000232351
0.00272529
4.5858e-05
0.0025937
-0.000127019
0.00248977
-0.000280884
0.00229922
-0.000368799
0.00129362
-0.00015529
0.000388587
-0.000126252
-9.84517e-05
-0.000131824
-0.00104738
8.85531e-05
-0.00174292
0.00036506
-0.00226993
-0.00199531
0.000555393
0.000457075
0.00252406
-0.00065377
0.00031795
0.00286441
0.0001459
0.00276575
-6.42217e-05
0.00269989
-0.000196406
0.00243141
-0.000147665
0.00124488
-0.000188178
0.000429101
-0.000128137
-0.000158494
0.000160905
-0.00133642
0.000362034
-0.00194405
0.000540125
-0.00244802
-0.00214736
0.000692168
0.000621796
-0.000850714
0.00275298
0.000476315
0.00300989
0.000358021
0.00288404
0.000210022
0.00284789
5.59287e-05
0.0025855
-0.00017598
0.00147678
-2.9596e-05
0.000282717
0.000246193
-0.000434282
0.000363644
-0.00145387
0.00052976
-0.00211017
0.000691721
-0.00260999
0.000848279
-0.00230391
0.000535495
-0.00180195
0.00078577
-0.0017875
0.00113827
-0.00203725
0.00149891
-0.00227305
0.00153775
-0.0018452
0.00154342
-0.001322
0.00159521