/*--------------------------------*- C++ -*----------------------------------*\
| =========                 |                                                 |
| \\      /  F ield         | OpenFOAM: The Open Source CFD Toolbox           |
|  \\    /   O peration     | Version:  v1606+                                |
|   \\  /    A nd           | Web:      www.OpenFOAM.com                      |
|    \\/     M anipulation  |                                                 |
\*---------------------------------------------------------------------------*/
FoamFile
{
    version     2.0;
    format      ascii;
    class       surfaceScalarField;
    location    "1.9";
    object      phi;
}
// * * * * * * * * * * * * * * * * * * * * * * * * * * * * * * * * * * * * * //

dimensions      [0 3 -1 0 0 0 0];

internalField   nonuniform List<scalar> 
1460
(
-7.40072e-07
1.18445e-06
-5.99317e-07
1.34239e-06
-5.06075e-07
1.31083e-06
-4.8441e-07
1.13785e-06
-5.35787e-07
8.5583e-07
-6.29749e-07
4.92009e-07
-7.22878e-07
5.99659e-08
-7.8681e-07
-4.37253e-07
-8.10445e-07
-9.74335e-07
-8.33492e-07
-1.41648e-06
-9.00015e-07
-1.64229e-06
-1.62987e-06
-1.01793e-06
-3.04632e-07
9.47165e-07
-1.95094e-07
1.23285e-06
-1.12193e-07
1.22793e-06
-6.46461e-08
1.0903e-06
-5.92413e-08
8.50425e-07
-7.71274e-08
5.09895e-07
-9.64443e-08
7.92827e-08
-1.15378e-07
-4.18318e-07
-1.60956e-07
-9.28758e-07
-2.69205e-07
-1.30824e-06
-4.39255e-07
-1.47224e-06
-1.43707e-06
-6.32056e-07
-3.65385e-08
6.93878e-07
9.81029e-08
1.09821e-06
2.10693e-07
1.11534e-06
3.09173e-07
9.91822e-07
3.71627e-07
7.8797e-07
4.03283e-07
4.78239e-07
4.07352e-07
7.52136e-08
3.66636e-07
-3.77602e-07
2.54392e-07
-8.16514e-07
7.33608e-08
-1.1272e-06
-1.43581e-07
-1.25529e-06
-1.21634e-06
-3.64311e-07
7.24889e-08
6.05442e-07
2.00278e-07
9.70422e-07
3.48265e-07
9.67355e-07
4.87448e-07
8.52639e-07
5.92089e-07
6.83329e-07
6.49618e-07
4.2071e-07
6.50308e-07
7.45237e-08
5.82457e-07
-3.09751e-07
4.33735e-07
-6.67792e-07
2.28207e-07
-9.21676e-07
8.62382e-09
-1.03571e-06
-1.90344e-07
-1.01737e-06
-1.16166e-06
-1.44625e-06
-1.30212e-06
-1.1749e-06
-1.42759e-06
-8.70036e-07
-1.54407e-06
-5.59974e-07
-1.65796e-06
-2.66445e-07
-1.75512e-06
-9.44435e-09
-1.80523e-06
2.17255e-07
-1.78128e-06
4.33567e-07
-1.6739e-06
6.49008e-07
-1.48288e-06
8.24445e-07
-1.23048e-06
9.06445e-07
9.80637e-07
-9.54032e-07
-8.1354e-07
-1.26476e-06
-9.65542e-07
-1.0229e-06
-1.08576e-06
-7.49822e-07
-1.18273e-06
-4.63002e-07
-1.27148e-06
-1.77692e-07
-1.36175e-06
8.08257e-08
-1.45119e-06
3.06698e-07
-1.49779e-06
4.80165e-07
-1.44545e-06
5.96668e-07
-1.26027e-06
6.39261e-07
-9.46346e-07
5.92523e-07
5.87612e-07
-5.53321e-07
-5.49308e-07
-1.07976e-06
-6.94013e-07
-8.78197e-07
-8.01814e-07
-6.42021e-07
-8.80821e-07
-3.83995e-07
-9.40112e-07
-1.18402e-07
-9.9137e-07
1.32084e-07
-1.04313e-06
3.58459e-07
-1.09695e-06
5.33982e-07
-1.11955e-06
6.19267e-07
-1.03818e-06
5.57895e-07
-7.79381e-07
3.33722e-07
1.10249e-07
-3.02018e-07
-3.55786e-07
-9.14323e-07
-4.81677e-07
-7.52306e-07
-5.72695e-07
-5.51003e-07
-6.34539e-07
-3.22151e-07
-6.72182e-07
-8.07581e-08
-6.90913e-07
1.50814e-07
-6.89048e-07
3.56594e-07
-6.6147e-07
5.06403e-07
-6.14949e-07
5.72747e-07
-5.47117e-07
4.90063e-07
-3.95285e-07
1.8189e-07
-2.49472e-08
-2.6009e-07
-7.39684e-07
1.19425e-06
-5.9929e-07
1.35849e-06
-5.09608e-07
1.33038e-06
-4.90464e-07
1.15044e-06
-5.41695e-07
8.60115e-07
-6.33445e-07
4.90446e-07
-7.23213e-07
5.35666e-08
-7.8394e-07
-4.47561e-07
-8.04988e-07
-9.86231e-07
-8.28331e-07
-1.4239e-06
-8.96174e-07
-1.64368e-06
-1.62685e-06
-1.01508e-06
-3.10064e-07
9.50992e-07
-1.99084e-07
1.24751e-06
-1.1679e-07
1.24809e-06
-6.78521e-08
1.1015e-06
-6.08342e-08
8.53097e-07
-7.64642e-08
5.06076e-07
-9.35842e-08
7.06866e-08
-1.11316e-07
-4.29829e-07
-1.57913e-07
-9.39634e-07
-2.67666e-07
-1.31414e-06
-4.38795e-07
-1.47255e-06
-1.43413e-06
-6.31514e-07
-4.12593e-08
6.90233e-07
9.48157e-08
1.11143e-06
2.09203e-07
1.1337e-06
3.09512e-07
1.00119e-06
3.73211e-07
7.89398e-07
4.05979e-07
4.73309e-07
4.10397e-07
6.62678e-08
3.68576e-07
-3.88008e-07
2.5435e-07
-8.25408e-07
7.19314e-08
-1.13173e-06
-1.45241e-07
-1.25538e-06
-1.21437e-06
-3.64996e-07
6.621e-08
5.99076e-07
1.98621e-07
9.7902e-07
3.50825e-07
9.81495e-07
4.91175e-07
8.6084e-07
5.95885e-07
6.84688e-07
6.5287e-07
4.16323e-07
6.52493e-07
6.66449e-08
5.8231e-07
-3.17824e-07
4.31816e-07
-6.74913e-07
2.25623e-07
-9.25534e-07
6.67805e-09
-1.03644e-06
-1.91689e-07
-1.016e-06
-1.15893e-06
-1.44141e-06
-1.29893e-06
-1.17011e-06
-1.424e-06
-8.65644e-07
-1.54057e-06
-5.55833e-07
-1.65509e-06
-2.6263e-07
-1.75327e-06
-6.28703e-09
-1.80468e-06
2.19302e-07
-1.78186e-06
4.33801e-07
-1.6755e-06
6.4745e-07
-1.48497e-06
8.21403e-07
-1.23237e-06
9.02984e-07
9.77683e-07
-8.12295e-07
-1.26063e-06
-9.63458e-07
-1.01895e-06
-1.08309e-06
-7.46011e-07
-1.17993e-06
-4.58991e-07
-1.26899e-06
-1.73577e-07
-1.35985e-06
8.45744e-08
-1.44986e-06
3.09311e-07
-1.49694e-06
4.80882e-07
-1.4449e-06
5.95418e-07
-1.2598e-06
6.36298e-07
-9.45532e-07
5.88718e-07
5.83765e-07
-5.48876e-07
-1.07675e-06
-6.92628e-07
-8.75196e-07
-7.99809e-07
-6.38829e-07
-8.78537e-07
-3.80263e-07
-9.37971e-07
-1.14143e-07
-9.89203e-07
1.35806e-07
-1.04165e-06
3.61757e-07
-1.09538e-06
5.34615e-07
-1.11735e-06
6.17384e-07
-1.03534e-06
5.54293e-07
-7.7625e-07
3.29623e-07
1.05062e-07
-3.55711e-07
-9.12726e-07
-4.80678e-07
-7.50228e-07
-5.71383e-07
-5.48124e-07
-6.32781e-07
-3.18866e-07
-6.70111e-07
-7.68123e-08
-6.89226e-07
1.54922e-07
-6.8716e-07
3.59691e-07
-6.59712e-07
5.07167e-07
-6.12451e-07
5.70122e-07
-5.43315e-07
4.85158e-07
-3.90413e-07
1.76721e-07
-2.64399e-07
4.47735e-08
5.60668e-07
1.89097e-07
8.26099e-07
3.43134e-07
8.13318e-07
4.81424e-07
7.14349e-07
5.95884e-07
5.68869e-07
6.62693e-07
3.53901e-07
6.64421e-07
7.27955e-08
5.94648e-07
-2.39978e-07
4.56328e-07
-5.29471e-07
2.76965e-07
-7.42314e-07
9.12495e-08
-8.49995e-07
-8.5407e-07
-7.20479e-08
3.30064e-08
5.27662e-07
1.58691e-07
7.00413e-07
2.95183e-07
6.76826e-07
4.1329e-07
5.96241e-07
5.13329e-07
4.6883e-07
5.76031e-07
2.91199e-07
5.84368e-07
6.44583e-08
5.33286e-07
-1.88896e-07
4.27229e-07
-4.23414e-07
2.88553e-07
-6.03638e-07
1.41231e-07
-7.02673e-07
-7.17264e-07
4.42466e-09
3.87058e-08
4.88956e-07
1.4112e-07
5.98e-07
2.54935e-07
5.63011e-07
3.54793e-07
4.96383e-07
4.37186e-07
3.86438e-07
4.91366e-07
2.3702e-07
5.04424e-07
5.14001e-08
4.70212e-07
-1.54684e-07
3.92842e-07
-3.46045e-07
2.85714e-07
-4.96509e-07
1.66368e-07
-5.83327e-07
-6.00952e-07
5.00558e-08
4.73094e-08
4.41647e-07
1.34868e-07
5.10441e-07
2.29445e-07
4.68433e-07
3.14763e-07
4.11066e-07
3.83689e-07
3.17511e-07
4.29195e-07
1.91514e-07
4.42518e-07
3.8077e-08
4.17726e-07
-1.29892e-07
3.57832e-07
-2.86151e-07
2.71303e-07
-4.0998e-07
1.71448e-07
-4.83473e-07
-5.01068e-07
7.15644e-08
5.3268e-08
3.88379e-07
1.31851e-07
4.31858e-07
2.12426e-07
3.87858e-07
2.85621e-07
3.37871e-07
3.44302e-07
2.5883e-07
3.82374e-07
1.53442e-07
3.93551e-07
2.69001e-08
3.73324e-07
-1.09665e-07
3.23771e-07
-2.36598e-07
2.51189e-07
-3.37398e-07
1.66004e-07
-3.98287e-07
-4.14338e-07
7.92742e-08
5.60818e-08
3.32297e-07
1.28275e-07
3.59665e-07
1.9859e-07
3.17543e-07
2.62356e-07
2.74104e-07
3.13157e-07
2.08029e-07
3.45462e-07
1.21137e-07
3.54411e-07
1.79506e-08
3.36828e-07
-9.20818e-08
2.9431e-07
-1.9408e-07
2.3197e-07
-2.75059e-07
1.58179e-07
-3.24496e-07
-3.38289e-07
8.21303e-08
5.64146e-08
2.75883e-07
1.23501e-07
2.92578e-07
1.86372e-07
2.54673e-07
2.43009e-07
2.17467e-07
2.87918e-07
1.6312e-07
3.1615e-07
9.29054e-08
3.23643e-07
1.0457e-08
3.08094e-07
-7.65322e-08
2.70934e-07
-1.5692e-07
2.16436e-07
-2.20562e-07
1.51557e-07
-2.59617e-07
-2.70726e-07
8.39939e-08
5.56127e-08
2.2027e-07
1.18399e-07
2.29792e-07
1.75967e-07
1.97104e-07
2.27328e-07
1.66106e-07
2.67895e-07
1.22554e-07
2.93258e-07
6.75417e-08
2.9993e-07
3.78508e-09
2.86251e-07
-6.28531e-08
2.53348e-07
-1.24017e-07
2.05012e-07
-1.72226e-07
1.4708e-07
-2.01685e-07
-2.09846e-07
8.62006e-08
5.46336e-08
1.65636e-07
1.14413e-07
1.70013e-07
1.68219e-07
1.43298e-07
2.15798e-07
1.18527e-07
2.53234e-07
8.51183e-08
2.76607e-07
4.41682e-08
2.82925e-07
-2.53249e-09
2.70782e-07
-5.07109e-08
2.41265e-07
-9.44995e-08
1.97709e-07
-1.2867e-07
1.45079e-07
-1.49056e-07
-1.53983e-07
8.92158e-08
5.46853e-08
1.10951e-07
1.13116e-07
1.11582e-07
1.64734e-07
9.16807e-08
2.09816e-07
7.34451e-08
2.45049e-07
4.98844e-08
2.66929e-07
2.22886e-08
2.72845e-07
-8.44823e-09
2.61667e-07
-3.95327e-08
2.34336e-07
-6.71689e-08
1.93698e-07
-8.80319e-08
1.44227e-07
-9.95847e-08
-1.00883e-07
9.11271e-08
5.74861e-08
5.3465e-08
1.17087e-07
5.19809e-08
1.67934e-07
4.08335e-08
2.11003e-07
3.03767e-08
2.43372e-07
1.75151e-08
2.62171e-07
3.48983e-09
2.65025e-07
-1.1303e-08
2.5119e-07
-2.56972e-08
2.21537e-07
-3.75156e-08
1.78985e-07
-4.54803e-08
1.28045e-07
-4.86446e-08
-4.66855e-08
7.38475e-08
5.3465e-08
1.05446e-07
1.46279e-07
1.76656e-07
1.94171e-07
1.97661e-07
1.86358e-07
1.60661e-07
1.23145e-07
7.76649e-08
2.90203e-08
-1.76652e-08
-2.12119e-07
-7.74252e-07
-3.19538e-07
-6.44887e-07
-3.97024e-07
-4.73517e-07
-4.44557e-07
-2.74618e-07
-4.64011e-07
-6.13047e-08
-4.59281e-07
1.46084e-07
-4.27476e-07
3.24789e-07
-3.57693e-07
4.3662e-07
-2.35215e-07
4.50269e-07
-7.8955e-08
3.33803e-07
1.79736e-08
8.49619e-08
-2.42116e-07
-1.11702e-07
-6.58125e-07
-2.0611e-07
-5.50479e-07
-2.73474e-07
-4.06153e-07
-3.12131e-07
-2.3596e-07
-3.19765e-07
-5.36713e-08
-2.98725e-07
1.25045e-07
-2.50063e-07
2.76127e-07
-1.73868e-07
3.60426e-07
-6.74749e-08
3.43875e-07
4.05462e-08
2.25782e-07
8.65886e-08
3.89195e-08
-1.55528e-07
-5.17073e-08
-5.56362e-07
-1.34382e-07
-4.67804e-07
-1.94484e-07
-3.46051e-07
-2.26956e-07
-2.03489e-07
-2.29817e-07
-5.08104e-08
-2.02871e-07
9.80987e-08
-1.48684e-07
2.2194e-07
-7.58344e-08
2.87576e-07
1.63357e-09
2.66408e-07
6.85074e-08
1.58908e-07
7.90582e-08
2.83687e-08
-7.64694e-08
-1.65095e-08
-4.68288e-07
-9.19907e-08
-3.92323e-07
-1.45124e-07
-2.92918e-07
-1.73571e-07
-1.75042e-07
-1.75994e-07
-4.83874e-08
-1.50845e-07
7.29498e-08
-1.01144e-07
1.72239e-07
-3.78397e-08
2.24271e-07
2.05992e-08
2.07969e-07
5.58345e-08
1.23673e-07
5.18849e-08
3.23183e-08
-2.45845e-08
-3.0657e-10
-3.88707e-07
-6.48405e-08
-3.27789e-07
-1.12309e-07
-2.45449e-07
-1.39171e-07
-1.4818e-07
-1.42006e-07
-4.5552e-08
-1.21508e-07
5.2452e-08
-8.06942e-08
1.31425e-07
-2.93986e-08
1.72975e-07
1.58908e-08
1.62679e-07
3.90099e-08
1.00554e-07
3.46335e-08
3.66947e-08
1.00491e-08
1.16213e-08
-3.18198e-07
-4.61344e-08
-2.70034e-07
-8.94547e-08
-2.02129e-07
-1.13643e-07
-1.23992e-07
-1.1853e-07
-4.0665e-08
-1.03004e-07
3.69257e-08
-7.08195e-08
9.92407e-08
-3.00732e-08
1.32229e-07
5.10554e-09
1.275e-07
2.32455e-08
8.24138e-08
2.01237e-08
3.98165e-08
3.01727e-08
2.08144e-08
-2.55019e-07
-3.22151e-08
-2.17004e-07
-7.13738e-08
-1.6297e-07
-9.42762e-08
-1.0109e-07
-9.99224e-08
-3.50187e-08
-8.83007e-08
2.5304e-08
-6.31601e-08
7.41001e-08
-3.11768e-08
1.00246e-07
-2.41029e-09
9.8734e-08
1.1972e-08
6.80316e-08
1.04758e-08
4.13126e-08
4.06485e-08
2.877e-08
-1.97588e-07
-2.02347e-08
-1.67999e-07
-5.61604e-08
-1.27044e-07
-7.86068e-08
-7.86433e-08
-8.50859e-08
-2.85397e-08
-7.71135e-08
1.73317e-08
-5.69447e-08
5.39313e-08
-3.11891e-08
7.44898e-08
-7.62054e-09
7.51654e-08
4.19481e-09
5.62162e-08
3.85562e-09
4.16518e-08
4.45042e-08
3.60398e-08
-1.44412e-07
-8.91156e-09
-1.23048e-07
-4.40298e-08
-9.19262e-08
-6.59534e-08
-5.67196e-08
-7.41028e-08
-2.03904e-08
-6.8882e-08
1.21109e-08
-5.32964e-08
3.83457e-08
-3.21133e-08
5.33067e-08
-1.26731e-08
5.57251e-08
-2.30012e-09
4.58433e-08
-1.00199e-09
4.03537e-08
4.35022e-08
3.99804e-08
-9.32657e-08
-5.0198e-09
-7.8048e-08
-3.9065e-08
-5.7881e-08
-6.15663e-08
-3.42183e-08
-7.08742e-08
-1.10825e-08
-6.83736e-08
9.61029e-09
-5.60663e-08
2.60384e-08
-3.87772e-08
3.60176e-08
-2.20256e-08
3.89735e-08
-1.16435e-08
3.54612e-08
-6.42521e-09
3.51353e-08
3.7077e-08
2.22345e-08
-4.16526e-08
-2.19656e-08
-3.38479e-08
-5.70033e-08
-2.28433e-08
-7.97522e-08
-1.14695e-08
-8.97649e-08
-1.06989e-09
-8.83074e-08
8.1528e-09
-7.75634e-08
1.52944e-08
-6.12306e-08
1.96848e-08
-4.38405e-08
2.15834e-08
-2.91875e-08
2.08082e-08
-1.55901e-08
2.15379e-08
2.14869e-08
-5.93178e-08
-9.31657e-08
-1.16009e-07
-1.27479e-07
-1.28548e-07
-1.20396e-07
-1.05101e-07
-8.54164e-08
-6.3833e-08
-4.30247e-08
-2.14869e-08
4.20888e-08
5.56987e-07
1.888e-07
8.32309e-07
3.46499e-07
8.23797e-07
4.86182e-07
7.21157e-07
6.00508e-07
5.70362e-07
6.65958e-07
3.50874e-07
6.6581e-07
6.67931e-08
5.94235e-07
-2.4625e-07
4.54559e-07
-5.35237e-07
2.74797e-07
-7.45772e-07
8.96933e-08
-8.51331e-07
-8.53586e-07
-7.2725e-08
3.10219e-08
5.25965e-07
1.58709e-07
7.04622e-07
2.98041e-07
6.84464e-07
4.17549e-07
6.01649e-07
5.17415e-07
4.70496e-07
5.7911e-07
2.89178e-07
5.86043e-07
5.986e-08
5.33114e-07
-1.9332e-07
4.26148e-07
-4.28272e-07
2.87347e-07
-6.06971e-07
1.40152e-07
-7.04137e-07
-7.17261e-07
3.82686e-09
3.77172e-08
4.88248e-07
1.41108e-07
6.01231e-07
2.57059e-07
5.68513e-07
3.57905e-07
5.00803e-07
4.40594e-07
3.87807e-07
4.94053e-07
2.35719e-07
5.06e-07
4.79134e-08
4.70724e-07
-1.58044e-07
3.92457e-07
-3.50005e-07
2.84868e-07
-4.99382e-07
1.65495e-07
-5.84764e-07
-6.01129e-07
4.93641e-08
4.66899e-08
4.41558e-07
1.34883e-07
5.13037e-07
2.30933e-07
4.72464e-07
3.17231e-07
4.14505e-07
3.86333e-07
3.18705e-07
4.31482e-07
1.90571e-07
4.43866e-07
3.55297e-08
4.18488e-07
-1.32667e-07
3.57724e-07
-2.89241e-07
2.70668e-07
-4.12326e-07
1.70725e-07
-4.84821e-07
-5.01247e-07
7.08424e-08
5.29279e-08
3.8863e-07
1.32006e-07
4.33959e-07
2.13538e-07
3.90932e-07
2.87665e-07
3.40378e-07
3.46537e-07
2.59833e-07
3.84332e-07
1.52776e-07
3.94825e-07
2.50362e-08
3.74078e-07
-1.1192e-07
3.23837e-07
-2.39e-07
2.5078e-07
-3.39268e-07
1.65429e-07
-3.9947e-07
-4.1449e-07
7.86726e-08
5.59382e-08
3.32692e-07
1.28552e-07
3.61345e-07
1.99677e-07
3.19807e-07
2.64057e-07
2.75998e-07
3.15029e-07
2.08861e-07
3.47182e-07
1.20623e-07
3.55622e-07
1.65955e-08
3.37543e-07
-9.38405e-08
2.94512e-07
-1.95969e-07
2.31757e-07
-2.76513e-07
1.57752e-07
-3.25465e-07
-3.38408e-07
8.16698e-08
5.63895e-08
2.76303e-07
1.23859e-07
2.93876e-07
1.87303e-07
2.56363e-07
2.44431e-07
2.1887e-07
2.89563e-07
1.63729e-07
3.17631e-07
9.2555e-08
3.24768e-07
9.45789e-09
3.08828e-07
-7.79003e-08
2.71228e-07
-1.58369e-07
2.1638e-07
-2.21665e-07
1.51245e-07
-2.60331e-07
-2.70826e-07
8.36637e-08
5.56601e-08
2.20642e-07
1.18809e-07
2.30727e-07
1.76866e-07
1.98306e-07
2.28615e-07
1.67121e-07
2.69352e-07
1.22992e-07
2.94616e-07
6.72918e-08
3.01045e-07
3.02874e-09
2.86983e-07
-6.3839e-08
2.53671e-07
-1.25057e-07
2.05017e-07
-1.73011e-07
1.46888e-07
-2.02202e-07
-2.09897e-07
8.59587e-08
5.47426e-08
1.659e-07
1.14804e-07
1.70666e-07
1.69024e-07
1.44085e-07
2.16948e-07
1.19197e-07
2.54548e-07
8.53918e-08
2.77842e-07
4.39981e-08
2.83932e-07
-3.06168e-09
2.71485e-07
-5.13915e-08
2.41637e-07
-9.52089e-08
1.97792e-07
-1.29166e-07
1.44961e-07
-1.49371e-07
-1.53972e-07
8.90364e-08
5.48022e-08
1.11098e-07
1.13517e-07
1.11951e-07
1.65457e-07
9.2145e-08
2.10843e-07
7.38111e-08
2.46229e-07
5.00056e-08
2.68038e-07
2.21893e-08
2.73786e-07
-8.80933e-09
2.62312e-07
-3.99175e-08
2.34662e-07
-6.75596e-08
1.93774e-07
-8.82778e-08
1.44122e-07
-9.97187e-08
-1.00811e-07
9.09601e-08
5.75886e-08
5.35091e-08
1.17419e-07
5.21208e-08
1.68584e-07
4.09798e-08
2.11877e-07
3.05182e-08
2.44331e-07
1.75514e-08
2.63085e-07
3.43561e-09
2.65732e-07
-1.1456e-08
2.51652e-07
-2.58375e-08
2.21739e-07
-3.76473e-08
1.78992e-07
-4.5531e-08
1.27906e-07
-4.8632e-08
-4.65804e-08
7.36755e-08
5.35091e-08
1.0563e-07
1.4661e-07
1.77128e-07
1.94679e-07
1.98115e-07
1.86659e-07
1.60821e-07
1.23174e-07
7.76431e-08
2.90111e-08
-1.75693e-08
-2.12224e-07
-7.73226e-07
-3.19161e-07
-6.43291e-07
-3.96273e-07
-4.71013e-07
-4.4339e-07
-2.71748e-07
-4.62319e-07
-5.78838e-08
-4.57448e-07
1.50051e-07
-4.25636e-07
3.27879e-07
-3.55996e-07
4.37527e-07
-2.33667e-07
4.47793e-07
-7.73487e-08
3.28839e-07
1.94224e-08
7.99499e-08
-2.44977e-07
-1.1203e-07
-6.5737e-07
-2.06151e-07
-5.4917e-07
-2.73015e-07
-4.04148e-07
-3.11435e-07
-2.33329e-07
-3.18532e-07
-5.07869e-08
-2.97097e-07
1.28617e-07
-2.47918e-07
2.78699e-07
-1.71739e-07
3.61348e-07
-6.58497e-08
3.41903e-07
4.13074e-08
2.21682e-07
8.68483e-08
3.4409e-08
-1.58129e-07
-5.22177e-08
-5.55788e-07
-1.3465e-07
-4.66738e-07
-1.94505e-07
-3.44293e-07
-2.26428e-07
-2.01406e-07
-2.28936e-07
-4.82793e-08
-2.01234e-07
1.00916e-07
-1.4659e-07
2.24056e-07
-7.36696e-08
2.88427e-07
2.83539e-09
2.65398e-07
6.92988e-08
1.55219e-07
7.90163e-08
2.46915e-08
-7.91123e-08
-1.7088e-08
-4.67858e-07
-9.24473e-08
-3.91379e-07
-1.45325e-07
-2.91415e-07
-1.73357e-07
-1.73375e-07
-1.75276e-07
-4.636e-08
-1.49518e-07
7.51574e-08
-9.93445e-08
1.73882e-07
-3.57497e-08
2.24832e-07
2.25992e-08
2.07049e-07
5.68729e-08
1.20945e-07
5.23133e-08
2.92511e-08
-2.6799e-08
-7.94665e-10
-3.8839e-07
-6.51168e-08
-3.27057e-07
-1.1245e-07
-2.44081e-07
-1.39032e-07
-1.46793e-07
-1.41482e-07
-4.39096e-08
-1.20377e-07
5.40521e-08
-7.91765e-08
1.32682e-07
-2.77551e-08
1.73411e-07
1.75536e-08
1.61741e-07
3.99454e-08
9.85535e-08
3.49201e-08
3.42764e-08
8.12107e-09
1.12087e-08
-3.17929e-07
-4.65963e-08
-2.69252e-07
-8.94279e-08
-2.0125e-07
-1.1344e-07
-1.22781e-07
-1.17943e-07
-3.94061e-08
-1.01992e-07
3.81012e-08
-6.95014e-08
1.00191e-07
-2.85427e-08
1.32452e-07
6.61655e-09
1.26582e-07
2.40881e-08
8.1082e-08
2.04313e-08
3.79331e-08
2.85524e-08
2.05141e-08
-2.5478e-07
-3.23907e-08
-2.16347e-07
-7.13106e-08
-1.6233e-07
-9.39589e-08
-1.00133e-07
-9.94109e-08
-3.39541e-08
-8.75108e-08
2.62011e-08
-6.20538e-08
7.4734e-08
-2.99832e-08
1.00382e-07
-1.46953e-09
9.80678e-08
1.2679e-08
6.69334e-08
1.07942e-08
3.98179e-08
3.93465e-08
2.85483e-08
-1.97369e-07
-2.03174e-08
-1.67481e-07
-5.61547e-08
-1.26493e-07
-7.83476e-08
-7.79403e-08
-8.45912e-08
-2.77105e-08
-7.63821e-08
1.7992e-08
-5.60043e-08
5.43562e-08
-3.01277e-08
7.45051e-08
-6.77063e-09
7.47108e-08
4.83171e-09
5.53311e-08
4.18415e-09
4.04655e-08
4.35307e-08
3.58619e-08
-1.44195e-07
-8.99319e-09
-1.22626e-07
-4.39991e-08
-9.14867e-08
-6.57379e-08
-5.62014e-08
-7.3644e-08
-1.98045e-08
-6.82377e-08
1.25857e-08
-5.24265e-08
3.8545e-08
-3.12866e-08
5.33651e-08
-1.18631e-08
5.52873e-08
-1.76746e-09
4.52355e-08
-7.67078e-10
3.94651e-08
4.27636e-08
3.98259e-08
-9.30606e-08
-5.06367e-09
-7.77366e-08
-3.89849e-08
-5.75655e-08
-6.13183e-08
-3.38679e-08
-7.04027e-08
-1.07201e-08
-6.77042e-08
9.88728e-09
-5.53235e-08
2.61644e-08
-3.78914e-08
3.5933e-08
-2.12718e-08
3.86678e-08
-1.10138e-08
3.49774e-08
-6.15915e-09
3.46104e-08
3.66045e-08
2.21344e-08
-4.15196e-08
-2.19349e-08
-3.36672e-08
-5.68494e-08
-2.26511e-08
-7.93624e-08
-1.13549e-08
-8.91424e-08
-9.4012e-10
-8.74864e-08
8.23125e-09
-7.66212e-08
1.52992e-08
-6.02952e-08
1.96069e-08
-4.30389e-08
2.14115e-08
-2.86354e-08
2.05739e-08
-1.53223e-08
2.12973e-08
2.12822e-08
-5.90889e-08
-9.27561e-08
-1.15407e-07
-1.26762e-07
-1.27702e-07
-1.19471e-07
-1.04172e-07
-8.45648e-08
-6.31534e-08
-4.25795e-08
-2.12822e-08
)
;

boundaryField
{
    rotor
    {
        type            calculated;
        value           nonuniform 0();
    }
    stator
    {
        type            calculated;
        value           nonuniform List<scalar> 
96
(
-1.82092e-35
0
3.61112e-35
0
0
4.21297e-35
0
-1.50463e-36
1.50463e-36
0
-2.02741e-35
-2.20552e-36
1.14606e-34
0
-6.05694e-36
0
0
-6.17215e-36
3.00927e-35
-1.53616e-37
4.19761e-35
0
7.22224e-35
1.18834e-35
1.20371e-35
4.79946e-35
1.20371e-35
3.15973e-35
-1.20371e-35
-6.01853e-36
0
0
0
0
0
0
0
0
2.25695e-36
-7.68079e-38
0
-6.01853e-36
6.01853e-36
1.80556e-35
-1.20371e-35
1.80556e-35
-4.81482e-35
0
0
-3.00927e-36
0
0
3.00927e-36
0
0
9.0278e-36
0
0
0
0
0
4.5139e-36
-3.00927e-36
4.5139e-36
0
4.5139e-36
-3.00927e-36
0
0
0
0
0
0
-4.5139e-36
3.00927e-36
-4.5139e-36
0
0
3.00927e-36
0
0
0
0
6.01853e-36
0
4.5139e-36
-3.00927e-36
4.5139e-36
0
0
-3.00927e-36
0
0
0
0
-6.01853e-36
)
;
    }
    AMI1
    {
        type            cyclicAMI;
        value           nonuniform 0();
    }
    AMI2
    {
        type            cyclicAMI;
        value           nonuniform List<scalar> 
48
(
-1.39948e-06
-1.48315e-06
-1.40408e-06
-1.15951e-06
-8.04453e-07
-3.98047e-07
3.31636e-08
5.01184e-07
9.9797e-07
1.43953e-06
1.70881e-06
1.74778e-06
1.58997e-06
1.31536e-06
9.95508e-07
6.76455e-07
3.8034e-07
1.06598e-07
-1.67144e-07
-4.57521e-07
-7.56387e-07
-1.01547e-06
-1.15884e-06
-1.25708e-06
-1.4086e-06
-1.49888e-06
-1.42006e-06
-1.16958e-06
-8.08884e-07
-3.98696e-07
3.62018e-08
5.08288e-07
1.00728e-06
1.44724e-06
1.71152e-06
1.74575e-06
1.58526e-06
1.31011e-06
9.90715e-07
6.72408e-07
3.77151e-07
1.0446e-07
-1.67891e-07
-4.56621e-07
-7.53811e-07
-1.01193e-06
-1.15559e-06
-1.25503e-06
)
;
    }
    front
    {
        type            empty;
        value           nonuniform 0();
    }
    back
    {
        type            empty;
        value           nonuniform 0();
    }
    procBoundary0to1
    {
        type            processor;
        value           nonuniform List<scalar> 8(9.5152e-07 5.41913e-07 2.89826e-07 1.59469e-08 -9.55028e-07 -5.51615e-07 -2.97546e-07 -2.09522e-08);
    }
}


// ************************************************************************* //
