/*--------------------------------*- C++ -*----------------------------------*\
| =========                 |                                                 |
| \\      /  F ield         | OpenFOAM: The Open Source CFD Toolbox           |
|  \\    /   O peration     | Version:  v1606+                                |
|   \\  /    A nd           | Web:      www.OpenFOAM.com                      |
|    \\/     M anipulation  |                                                 |
\*---------------------------------------------------------------------------*/
FoamFile
{
    version     2.0;
    format      ascii;
    class       volVectorField;
    location    "48";
    object      U;
}
// * * * * * * * * * * * * * * * * * * * * * * * * * * * * * * * * * * * * * //

dimensions      [0 1 -1 0 0 0 0];

internalField   nonuniform List<vector> 
5080
(
(1.76102 -0.0153947 0)
(1.76276 0.0282095 0)
(1.73302 0.00889267 0)
(1.71309 0.0556286 0)
(1.65972 0.0301134 0)
(1.6204 0.0831048 0)
(1.54521 0.0494184 0)
(1.48868 0.110886 0)
(1.39179 0.06541 0)
(1.32078 0.139361 0)
(1.20128 0.0772115 0)
(1.11968 0.170821 0)
(0.975118 0.0836881 0)
(0.888888 0.211383 0)
(0.712918 0.0799398 0)
(0.632798 0.276834 0)
(0.410099 0.0459034 0)
(0.359422 0.414708 0)
(0.0740725 -0.0848423 0)
(-0.00873864 0.831914 0)
(1.76308 0.0185151 0)
(1.75454 0.0563409 0)
(1.72767 0.0916209 0)
(1.70205 0.127991 0)
(1.65452 0.161987 0)
(1.60955 0.196955 0)
(1.54053 0.229343 0)
(1.47766 0.261742 0)
(1.38839 0.292374 0)
(1.3102 0.321024 0)
(1.20246 0.350905 0)
(1.11196 0.373594 0)
(0.988622 0.406435 0)
(0.88843 0.417139 0)
(0.756298 0.465256 0)
(0.643363 0.439974 0)
(0.525507 0.556457 0)
(0.370002 0.345172 0)
(0.335758 0.905766 0)
(0.094544 -0.648038 0)
(1.76295 0.0283713 0)
(1.75753 0.0882845 0)
(1.7308 0.145587 0)
(1.70596 0.204925 0)
(1.6575 0.260306 0)
(1.61323 0.317505 0)
(1.54329 0.369595 0)
(1.4809 0.423549 0)
(1.39088 0.47107 0)
(1.31236 0.520923 0)
(1.20407 0.562523 0)
(1.11131 0.607178 0)
(0.987463 0.641521 0)
(0.881979 0.679407 0)
(0.74793 0.705227 0)
(0.62685 0.733795 0)
(0.490966 0.748881 0)
(0.357849 0.780732 0)
(0.17848 0.630552 0)
(0.154871 1.70812 0)
(1.76547 0.0406029 0)
(1.75481 0.122241 0)
(1.73477 0.202652 0)
(1.70341 0.282744 0)
(1.66313 0.360777 0)
(1.61064 0.437604 0)
(1.551 0.511607 0)
(1.47789 0.583377 0)
(1.40098 0.651831 0)
(1.30791 0.716619 0)
(1.21665 0.778223 0)
(1.10338 0.833711 0)
(1.00215 0.888194 0)
(0.866238 0.93116 0)
(0.762608 0.981628 0)
(0.600606 1.00506 0)
(0.509993 1.06784 0)
(0.325808 1.03485 0)
(0.246377 1.26843 0)
(0.0665402 0.1094 0)
(1.76434 0.0513011 0)
(1.75648 0.153499 0)
(1.73393 0.255138 0)
(1.70654 0.35545 0)
(1.66306 0.454334 0)
(1.61603 0.550856 0)
(1.5517 0.644969 0)
(1.48614 0.735605 0)
(1.40168 0.822731 0)
(1.31941 0.90531 0)
(1.21554 0.983025 0)
(1.11947 1.05538 0)
(0.99677 1.12125 0)
(0.893313 1.18164 0)
(0.750508 1.23234 0)
(0.653788 1.28017 0)
(0.47474 1.30628 0)
(0.407505 1.35396 0)
(0.148646 1.23115 0)
(0.142588 2.31239 0)
(1.76574 0.0610986 0)
(1.75508 0.183341 0)
(1.73672 0.304357 0)
(1.70605 0.424602 0)
(1.66839 0.542518 0)
(1.61695 0.658675 0)
(1.56053 0.771248 0)
(1.48819 0.880848 0)
(1.41467 0.985566 0)
(1.3212 1.08572 0)
(1.23324 1.17998 0)
(1.11765 1.26717 0)
(1.01961 1.34885 0)
(0.877605 1.41877 0)
(0.776597 1.48912 0)
(0.599363 1.53603 0)
(0.518476 1.60745 0)
(0.293956 1.60654 0)
(0.279485 1.82134 0)
(0.00377626 0.69073 0)
(1.76505 0.0705227 0)
(1.75636 0.210718 0)
(1.7369 0.350629 0)
(1.70965 0.488671 0)
(1.67064 0.625635 0)
(1.62436 0.759283 0)
(1.56517 0.891001 0)
(1.50047 1.01748 0)
(1.42063 1.14111 0)
(1.33924 1.25713 0)
(1.23758 1.36916 0)
(1.14321 1.47114 0)
(1.01707 1.56733 0)
(0.920262 1.65225 0)
(0.763733 1.72615 0)
(0.688589 1.79431 0)
(0.475727 1.8285 0)
(0.456913 1.89912 0)
(0.122071 1.74307 0)
(0.198347 2.86986 0)
(1.76551 0.0789061 0)
(1.75637 0.236123 0)
(1.7392 0.392767 0)
(1.71203 0.548144 0)
(1.67674 0.701896 0)
(1.63042 0.853435 0)
(1.57659 1.00179 0)
(1.51019 1.14683 0)
(1.43835 1.28639 0)
(1.35049 1.4215 0)
(1.26264 1.54801 0)
(1.15044 1.66867 0)
(1.05195 1.77764 0)
(0.906368 1.8783 0)
(0.809531 1.96878 0)
(0.608213 2.04215 0)
(0.552709 2.12807 0)
(0.259468 2.14439 0)
(0.334328 2.38844 0)
(-0.0724004 1.23624 0)
(1.76524 0.0864126 0)
(1.75739 0.258986 0)
(1.74089 0.430762 0)
(1.71658 0.601883 0)
(1.68279 0.771426 0)
(1.64074 0.939208 0)
(1.58827 1.10441 0)
(1.52766 1.26585 0)
(1.45497 1.42362 0)
(1.37594 1.57432 0)
(1.2803 1.72052 0)
(1.1859 1.8547 0)
(1.06161 1.98382 0)
(0.965967 2.09537 0)
(0.800161 2.19915 0)
(0.742077 2.28623 0)
(0.491631 2.33929 0)
(0.533239 2.42702 0)
(0.0853656 2.22569 0)
(0.295378 3.41032 0)
(1.76551 0.093251 0)
(1.758 0.278604 0)
(1.74393 0.464462 0)
(1.72141 0.648913 0)
(1.69171 0.833534 0)
(1.65241 1.01579 0)
(1.60527 1.19722 0)
(1.54724 1.37483 0)
(1.481 1.54935 0)
(1.40179 1.71858 0)
(1.31595 1.88032 0)
(1.21124 2.03598 0)
(1.11021 2.17694 0)
(0.966724 2.31257 0)
(0.869184 2.42601 0)
(0.644144 2.53278 0)
(0.611192 2.63246 0)
(0.23092 2.67253 0)
(0.415222 2.95661 0)
(-0.176829 1.77685 0)
(1.76519 0.0985505 0)
(1.75952 0.295722 0)
(1.74678 0.492361 0)
(1.72841 0.689756 0)
(1.70161 0.886181 0)
(1.66833 1.08329 0)
(1.62495 1.27818 0)
(1.57404 1.47273 0)
(1.51111 1.66308 0)
(1.43974 1.85033 0)
(1.35329 2.03156 0)
(1.2608 2.20332 0)
(1.14368 2.36916 0)
(1.04277 2.51412 0)
(0.87445 2.65615 0)
(0.822655 2.76426 0)
(0.534862 2.85309 0)
(0.643639 2.95105 0)
(0.0455231 2.71075 0)
(0.445873 3.95339 0)
(1.76551 0.103145 0)
(1.76043 0.308757 0)
(1.75117 0.515325 0)
(1.73554 0.722011 0)
(1.71488 0.930397 0)
(1.68589 1.13838 0)
(1.65073 1.34831 0)
(1.60478 1.55592 0)
(1.55105 1.76468 0)
(1.48382 1.9681 0)
(1.40674 2.16938 0)
(1.31269 2.36299 0)
(1.21119 2.54487 0)
(1.07673 2.72157 0)
(0.969227 2.86746 0)
(0.731884 3.01965 0)
(0.70257 3.13215 0)
(0.226354 3.21763 0)
(0.526125 3.53358 0)
(-0.315143 2.35519 0)
(1.76531 0.106306 0)
(1.76232 0.318458 0)
(1.75543 0.531826 0)
(1.7451 0.746593 0)
(1.72901 0.963298 0)
(1.70845 1.18252 0)
(1.67917 1.40293 0)
(1.64422 1.62645 0)
(1.59646 1.84837 0)
(1.54127 2.07286 0)
(1.46863 2.29132 0)
(1.38612 2.50828 0)
(1.28034 2.71669 0)
(1.17329 2.90856 0)
(1.01169 3.09966 0)
(0.946021 3.24053 0)
(0.632475 3.39063 0)
(0.795505 3.49176 0)
(0.0197496 3.24269 0)
(0.660081 4.5278 0)
(1.76526 0.107947 0)
(1.76406 0.324534 0)
(1.76056 0.541832 0)
(1.75512 0.762392 0)
(1.74607 0.985391 0)
(1.73263 1.21267 0)
(1.71428 1.44382 0)
(1.68731 1.67809 0)
(1.65394 1.91753 0)
(1.60597 2.1558 0)
(1.54901 2.39943 0)
(1.47133 2.63576 0)
(1.37979 2.87146 0)
(1.26042 3.09892 0)
(1.13856 3.29802 0)
(0.911077 3.51311 0)
(0.848794 3.64735 0)
(0.287094 3.81597 0)
(0.672559 4.14484 0)
(-0.491489 3.02262 0)
(1.76567 0.108972 0)
(1.76549 0.325818 0)
(1.76667 0.546145 0)
(1.7658 0.768177 0)
(1.76473 0.996489 0)
(1.76006 1.22833 0)
(1.75191 1.46795 0)
(1.73884 1.7128 0)
(1.71589 1.96378 0)
(1.68696 2.22247 0)
(1.63852 2.48069 0)
(1.58161 2.74854 0)
(1.4949 3.00778 0)
(1.39485 3.26724 0)
(1.25019 3.52299 0)
(1.15002 3.72579 0)
(0.836737 3.97377 0)
(1.0068 4.08315 0)
(0.0573515 3.89606 0)
(0.963295 5.18425 0)
(1.76494 0.107751 0)
(1.76844 0.32454 0)
(1.77159 0.542598 0)
(1.77873 0.766448 0)
(1.78331 0.993899 0)
(1.79055 1.23102 0)
(1.79291 1.47331 0)
(1.79409 1.72769 0)
(1.78863 1.98922 0)
(1.77309 2.2607 0)
(1.75021 2.54395 0)
(1.70363 2.82724 0)
(1.64503 3.12735 0)
(1.55088 3.41831 0)
(1.42975 3.70521 0)
(1.24255 4.00975 0)
(1.10389 4.20382 0)
(0.51053 4.51714 0)
(0.86964 4.84036 0)
(-0.686043 3.8829 0)
(1.76575 0.106014 0)
(1.76928 0.318412 0)
(1.77872 0.53409 0)
(1.78906 0.753949 0)
(1.8051 0.981896 0)
(1.81905 1.2161 0)
(1.83818 1.46388 0)
(1.85173 1.71871 0)
(1.86588 1.99143 0)
(1.87294 2.27347 0)
(1.86698 2.57058 0)
(1.85618 2.88636 0)
(1.80989 3.20203 0)
(1.75387 3.5477 0)
(1.64329 3.88734 0)
(1.51917 4.20744 0)
(1.24855 4.60491 0)
(1.33131 4.77591 0)
(0.286663 4.78955 0)
(1.40961 6.06182 0)
(1.76541 0.103327 0)
(1.77193 0.308893 0)
(1.78393 0.519446 0)
(1.80219 0.733816 0)
(1.82322 0.956827 0)
(1.85205 1.18953 0)
(1.87885 1.43234 0)
(1.91522 1.693 0)
(1.94336 1.96297 0)
(1.97723 2.25854 0)
(2.00121 2.5661 0)
(2.01182 2.89565 0)
(2.01833 3.25614 0)
(1.98046 3.61553 0)
(1.91882 4.02617 0)
(1.81049 4.44918 0)
(1.60326 4.79845 0)
(1.10766 5.38652 0)
(1.21756 5.70254 0)
(-0.794788 5.20371 0)
(1.76464 0.0980379 0)
(1.77455 0.298246 0)
(1.78866 0.497951 0)
(1.81361 0.707747 0)
(1.84268 0.92098 0)
(1.87972 1.1488 0)
(1.92459 1.38681 0)
(1.96994 1.64024 0)
(2.02878 1.91615 0)
(2.07814 2.20353 0)
(2.13845 2.52755 0)
(2.19082 2.86673 0)
(2.22229 3.23731 0)
(2.26824 3.6615 0)
(2.2345 4.08373 0)
(2.20003 4.58376 0)
(2.0698 5.17887 0)
(1.93801 5.57026 0)
(1.12825 6.05898 0)
(2.16915 7.65115 0)
(1.76685 0.0946582 0)
(1.77347 0.281123 0)
(1.79655 0.475941 0)
(1.82065 0.670539 0)
(1.86209 0.880528 0)
(1.90489 1.0926 0)
(1.96295 1.32717 0)
(2.02881 1.57027 0)
(2.0978 1.83654 0)
(2.18907 2.12949 0)
(2.26486 2.43593 0)
(2.36847 2.79377 0)
(2.45898 3.17277 0)
(2.53562 3.5897 0)
(2.6326 4.11216 0)
(2.66536 4.63024 0)
(2.6196 5.20566 0)
(2.46018 6.33797 0)
(2.31594 6.54724 0)
(-0.172621 7.82897 0)
(-0.648518 0.0769036 8.42294e-20)
(4.52429 -1.8937 0)
(9.2217 -1.834 0)
(13.5128 -1.53686 0)
(16.9736 -1.18301 0)
(19.4834 -0.883208 0)
(21.3002 -0.667822 0)
(22.6938 -0.515997 0)
(23.7156 -0.411803 0)
(24.3965 -0.310858 0)
(24.8042 -0.199924 0)
(24.9757 -0.103105 0)
(24.9738 -0.03033 0)
(24.89 -0.00275897 0)
(24.7968 -0.00315248 0)
(24.744 -0.0176624 0)
(24.7532 -0.0385576 0)
(24.8027 -0.0483601 0)
(24.8582 -0.0392116 0)
(24.8839 -0.0198716 -5.28489e-21)
(24.8662 -0.00283753 -2.47379e-21)
(24.7983 0.0107407 0)
(24.7022 0.0158901 0)
(24.6039 0.0116365 0)
(24.5409 0.00133124 0)
(24.5237 -0.0106985 0)
(24.5473 -0.0177307 0)
(24.5764 -0.014915 0)
(24.5913 -0.00730239 0)
(24.5739 0.000184561 0)
(24.5368 0.00513037 0)
(24.4882 0.00639539 0)
(24.4447 0.00560375 0)
(24.4024 0.00375713 0)
(24.3721 0.00174321 2.44028e-23)
(24.3477 -0.00064025 -4.41674e-22)
(24.3427 -0.00217657 0)
(24.3408 -0.00198815 0)
(24.3461 0.000143887 6.69136e-22)
(24.3368 0.00279814 2.91098e-24)
(24.327 0.00282351 8.95864e-22)
(24.3137 0.000793643 -2.6191e-24)
(24.3144 -0.00179743 -1.30468e-22)
(24.3173 -0.0019736 0)
(24.321 0.00227351 0)
(24.3035 0.00698004 0)
(24.2826 0.0114922 0)
(24.2421 0.0118277 0)
(24.224 0.0101416 0)
(24.1966 0.00893933 0)
(24.1914 0.00619988 0)
(24.1766 0.00600616 0)
(24.1695 0.00268168 0)
(24.1677 4.65462e-05 -2.38448e-23)
(24.1741 0.000246912 -2.16959e-22)
(24.1762 -0.00158162 -2.43315e-22)
(24.193 0.00439922 -9.91731e-23)
(24.1654 0.005373 0)
(24.1786 0.00760465 0)
(24.1419 0.00953081 0)
(2.76907 -1.30224 0)
(6.92495 -3.35504 0)
(11.0937 -3.51113 0)
(15.0414 -3.05514 0)
(18.352 -2.29976 1.55666e-18)
(20.7718 -1.579 1.4212e-18)
(22.4638 -1.08725 -5.53671e-19)
(23.668 -0.777984 -3.89098e-19)
(24.513 -0.597691 2.51611e-19)
(25.083 -0.437328 1.58337e-19)
(25.45 -0.255369 0)
(25.6488 -0.090015 -6.52324e-20)
(25.7127 0.0222097 -7.70966e-20)
(25.6986 0.0721232 -4.36829e-20)
(25.6617 0.0701774 -2.57674e-20)
(25.6249 0.0368379 -8.46218e-21)
(25.6033 -0.000988485 6.55381e-21)
(25.5994 -0.0212044 6.23095e-21)
(25.6 -0.0188412 6.6915e-21)
(25.5857 0.00340261 4.41338e-21)
(25.5538 0.0354194 0)
(25.5006 0.0654347 -2.748e-22)
(25.4277 0.0799893 7.96983e-22)
(25.3505 0.0705156 1.95572e-21)
(25.2952 0.0408507 -4.40419e-24)
(25.2767 0.0063359 -4.31644e-21)
(25.2926 -0.013818 0)
(25.3162 -0.0122767 0)
(25.3228 0.00522108 0)
(25.3021 0.0253725 0)
(25.2633 0.0374998 0)
(25.2178 0.0400879 1.53902e-21)
(25.1744 0.0382421 1.58861e-21)
(25.1304 0.0340403 4.77663e-22)
(25.0891 0.0270497 -5.78232e-23)
(25.0544 0.0164824 6.81351e-22)
(25.0374 0.00548514 1.77178e-21)
(25.0359 -0.000520004 2.37535e-21)
(25.0435 0.00166068 1.761e-21)
(25.0423 0.00848506 1.69962e-22)
(25.0312 0.0114268 0)
(25.0137 0.00748981 0)
(25.0029 0.000706338 1.61187e-22)
(24.9975 -0.00132591 -2.338e-22)
(24.9915 0.00562054 -1.30949e-22)
(24.9711 0.0159364 0)
(24.9407 0.0237309 0)
(24.9026 0.0228322 7.7689e-23)
(24.8774 0.0161556 4.70961e-22)
(24.8589 0.0104809 3.16813e-24)
(24.8516 0.00690649 -3.52406e-24)
(24.8383 0.00737699 -7.20568e-23)
(24.8242 0.00442601 1.43133e-22)
(24.8096 -0.00101768 -1.54661e-23)
(24.8054 -0.0038728 0)
(24.7998 -0.00625836 0)
(24.8085 0.000828141 -6.19948e-23)
(24.7879 0.00577389 -2.30582e-23)
(24.7929 0.00600689 0)
(24.7669 0.0121172 0)
(4.16817 -3.49501 -7.72082e-20)
(8.42259 -5.56637 -4.12675e-19)
(12.5683 -5.8028 9.13479e-19)
(16.4308 -5.23102 2.55427e-21)
(19.6705 -4.04224 -1.61881e-18)
(21.9551 -2.81139 -1.49066e-18)
(23.4565 -1.94955 -1.15513e-18)
(24.4363 -1.37321 8.02138e-19)
(25.0564 -1.03673 7.77608e-19)
(25.435 -0.778876 1.63687e-19)
(25.6605 -0.50288 1.04668e-19)
(25.7822 -0.252995 2.15826e-22)
(25.8353 -0.0750674 -3.85546e-20)
(25.8436 0.0290632 0)
(25.8261 0.0585293 1.1553e-20)
(25.7971 0.0357986 1.17613e-20)
(25.7658 -0.000898136 5.00083e-21)
(25.7319 -0.0234413 0)
(25.6913 -0.0199967 0)
(25.6462 0.003348 5.25494e-21)
(25.5989 0.0419508 2.57491e-21)
(25.546 0.0828896 3.21633e-22)
(25.4826 0.106932 -7.27873e-22)
(25.4154 0.0982785 -1.67091e-21)
(25.3668 0.0570736 9.53693e-24)
(25.3573 0.00375806 -6.10243e-24)
(25.385 -0.0303565 -3.82676e-21)
(25.4223 -0.0287809 0)
(25.441 -0.000292714 -3.77102e-22)
(25.427 0.0342098 -2.6553e-21)
(25.3907 0.0541316 0)
(25.3508 0.0576801 -1.57586e-21)
(25.3155 0.0562269 -7.24237e-22)
(25.2796 0.0537137 0)
(25.2408 0.0467196 0)
(25.2044 0.0309348 1.02615e-22)
(25.1843 0.00991676 7.58226e-22)
(25.1867 -0.00543645 1.29155e-21)
(25.204 -0.00499618 1.05981e-21)
(25.2163 0.007553 0)
(25.2131 0.0178407 5.0609e-22)
(25.1978 0.0162727 1.28238e-21)
(25.1842 0.0065335 2.41358e-22)
(25.1771 0.00244606 0)
(25.171 0.0123653 0)
(25.1536 0.0296717 0)
(25.1236 0.0426471 0)
(25.0879 0.0411339 0)
(25.0627 0.0286695 1.95505e-22)
(25.0503 0.0174363 2.56171e-22)
(25.0474 0.013505 1.06337e-22)
(25.0388 0.0164821 -1.0926e-22)
(25.0235 0.0162302 0)
(25.0035 0.00876702 3.77949e-23)
(24.9921 0.00161783 -7.67408e-23)
(24.9836 -0.00351453 0)
(24.9873 0.00472745 0)
(24.9722 0.0125526 0)
(24.9722 0.0129499 0)
(24.953 0.0196713 0)
(5.30545 -5.63112 0)
(9.61676 -7.6813 0)
(13.8203 -8.0932 0)
(17.6024 -7.53763 0)
(20.763 -5.88852 0)
(22.8391 -4.03118 0)
(24.0329 -2.73337 1.21966e-18)
(24.7264 -1.82703 8.34996e-19)
(25.1178 -1.3068 -5.32071e-19)
(25.3298 -0.963816 -3.41473e-19)
(25.434 -0.629831 -1.10874e-19)
(25.4806 -0.328226 -6.90481e-20)
(25.5161 -0.104844 0)
(25.5503 0.0307629 0)
(25.5771 0.0749545 9.77946e-21)
(25.5905 0.0622646 4.42379e-21)
(25.5912 0.0305585 4.09191e-21)
(25.5786 0.0100876 6.52448e-21)
(25.5453 0.0147737 -8.93733e-21)
(25.4958 0.0361809 -7.51775e-21)
(25.4504 0.0656556 3.42036e-21)
(25.4103 0.106769 9.07025e-22)
(25.3653 0.13867 5.8475e-23)
(25.3149 0.13406 -2.59828e-23)
(25.2768 0.0822932 -1.78622e-21)
(25.2759 0.00444464 0)
(25.319 -0.0525338 0)
(25.3783 -0.0532017 3.39857e-21)
(25.4185 -0.00980517 -1.10232e-22)
(25.42 0.0422898 0)
(25.3904 0.073212 0)
(25.357 0.0760684 0)
(25.332 0.0724896 7.91382e-22)
(25.308 0.0720059 -1.78607e-24)
(25.2769 0.068577 -9.76665e-22)
(25.2419 0.0507342 0)
(25.2188 0.0183067 -6.39322e-22)
(25.2221 -0.0120081 -1.48004e-21)
(25.2476 -0.018259 -1.33792e-21)
(25.2727 6.67167e-05 -3.2385e-22)
(25.2795 0.0206593 6.69458e-22)
(25.2671 0.0256232 8.43713e-22)
(25.2514 0.0138391 0)
(25.243 0.00563903 -2.40429e-22)
(25.2385 0.016299 -2.62936e-22)
(25.2256 0.0403508 7.44123e-23)
(25.1988 0.0601778 2.73258e-22)
(25.165 0.0589653 2.8528e-23)
(25.1403 0.0395217 -2.32014e-22)
(25.132 0.0200194 0)
(25.1344 0.0145759 1.23887e-22)
(25.1312 0.021816 -1.60171e-22)
(25.1164 0.0270491 -2.94589e-22)
(25.0928 0.0196062 -1.0904e-22)
(25.0759 0.00792417 0)
(25.0651 -0.00141671 -1.67301e-22)
(25.066 0.00661144 -7.02822e-23)
(25.0544 0.0171545 2.76705e-23)
(25.0514 0.0178367 0)
(25.0364 0.0241401 0)
(6.21031 -7.88505 2.1592e-19)
(10.5479 -9.82936 6.74438e-19)
(14.7362 -10.3152 0)
(18.2909 -9.85377 0)
(21.3812 -7.76818 0)
(23.2982 -5.20251 0)
(24.0707 -3.47537 1.28313e-18)
(24.3948 -2.26761 5.3056e-21)
(24.557 -1.57249 -3.78313e-21)
(24.6731 -1.13516 3.42379e-19)
(24.7766 -0.766709 2.28312e-19)
(24.8512 -0.462991 2.1143e-19)
(24.9212 -0.225665 3.02367e-22)
(25.0038 -0.0510409 -2.21506e-22)
(25.09 0.0340183 7.78739e-21)
(25.1745 0.0405315 3.30261e-21)
(25.2495 0.0146042 3.64412e-21)
(25.3067 -0.00137523 -7.41882e-21)
(25.3277 0.0160281 -1.3791e-20)
(25.3075 0.0437979 0)
(25.2773 0.0690192 0)
(25.2578 0.109143 0)
(25.239 0.147891 7.04822e-21)
(25.2113 0.15311 1.92878e-23)
(25.1835 0.102832 -3.83982e-21)
(25.1839 0.00881623 0)
(25.2311 -0.0742504 0)
(25.3031 -0.0902259 0)
(25.3615 -0.0409274 1.77313e-21)
(25.3811 0.0340721 7.39794e-21)
(25.3622 0.0823588 0)
(25.3335 0.0875478 0)
(25.3163 0.0818004 0)
(25.3039 0.0821492 0)
(25.2833 0.0835258 -5.80425e-21)
(25.2519 0.0682116 -2.62477e-21)
(25.2248 0.0297297 2.31082e-21)
(25.2238 -0.0154357 -5.95414e-22)
(25.2516 -0.0341751 6.62761e-22)
(25.2851 -0.015018 -7.15127e-22)
(25.3015 0.0169983 -2.22969e-21)
(25.2934 0.0322203 -5.08228e-21)
(25.275 0.0215304 -1.45602e-21)
(25.2629 0.009709 0)
(25.2583 0.0187524 0)
(25.2501 0.0468612 0)
(25.2289 0.0731576 0)
(25.1983 0.0738515 5.47694e-22)
(25.1737 0.0495859 2.57844e-24)
(25.1667 0.0219476 0)
(25.1725 0.013747 0)
(25.1743 0.024646 0)
(25.1616 0.0366306 0)
(25.1358 0.031312 0)
(25.114 0.0165289 -6.20493e-23)
(25.1002 0.00255615 -1.57452e-22)
(25.0991 0.00899159 3.69563e-23)
(25.0902 0.0211685 1.79081e-24)
(25.0858 0.0223456 0)
(25.0733 0.027886 0)
(6.85955 -9.97978 -2.64629e-19)
(11.1558 -11.9166 -1.54537e-18)
(15.2253 -12.4031 -7.452e-21)
(18.2976 -12.1284 1.75059e-18)
(21.2349 -9.76785 2.01937e-18)
(23.289 -6.48262 1.80178e-18)
(23.7168 -4.29763 -1.28326e-18)
(23.7706 -3.10299 -8.07205e-19)
(23.7058 -2.34033 0)
(23.7071 -1.64918 0)
(23.8616 -1.02592 0)
(24.0594 -0.584165 0)
(24.2484 -0.316509 0)
(24.4277 -0.14447 0)
(24.5991 -0.0534848 -1.59404e-21)
(24.7661 -0.0286419 1.30299e-23)
(24.9105 -0.0285246 -3.84909e-21)
(25.0246 -0.0222878 7.82649e-21)
(25.0854 0.0171406 1.33609e-20)
(25.0788 0.0577003 0)
(25.0415 0.0771661 -2.25127e-21)
(25.0352 0.112191 -6.88311e-21)
(25.0452 0.151497 0)
(25.051 0.160032 0)
(25.0502 0.107171 -5.05302e-21)
(25.0707 -0.00380749 -8.24121e-21)
(25.1352 -0.0979893 0)
(25.2106 -0.110428 1.77744e-22)
(25.2715 -0.0551313 -4.89373e-21)
(25.2982 0.0314459 9.80204e-21)
(25.2848 0.0903061 1.63081e-23)
(25.2563 0.0943596 -4.40003e-21)
(25.2443 0.0853165 -1.68632e-23)
(25.2414 0.0863266 8.14902e-22)
(25.2323 0.0920922 0)
(25.2102 0.0799204 0)
(25.1862 0.0364318 1.22101e-21)
(25.1871 -0.0215702 2.68066e-21)
(25.2172 -0.045645 -1.36107e-21)
(25.2532 -0.0250378 7.84656e-22)
(25.2758 0.01453 2.44894e-21)
(25.2737 0.0373123 5.00618e-21)
(25.2546 0.0271905 4.337e-22)
(25.2387 0.0122459 0)
(25.2316 0.0202616 -2.01507e-22)
(25.2267 0.0507792 8.32083e-22)
(25.2141 0.081577 0)
(25.1922 0.0839151 -4.00709e-22)
(25.1722 0.055435 1.53548e-21)
(25.1668 0.021748 5.75238e-22)
(25.1726 0.0125387 3.76058e-24)
(25.1768 0.0260684 6.63403e-22)
(25.1688 0.0432661 0)
(25.145 0.040222 0)
(25.1214 0.0230906 0)
(25.1048 0.00553848 -2.85588e-22)
(25.1013 0.010881 -2.26351e-25)
(25.0959 0.0239774 2.64836e-23)
(25.0928 0.0255421 0)
(25.083 0.0303909 0)
(7.51534 -11.8909 -7.72505e-21)
(11.4799 -13.8155 7.06585e-21)
(15.2792 -14.265 -2.71856e-18)
(17.6476 -14.3223 -1.93481e-18)
(20.1321 -12.207 2.10358e-18)
(22.5441 -8.22709 8.6624e-21)
(23.1009 -5.21247 -1.23425e-18)
(22.9662 -2.82273 0)
(23.0505 -2.03981 0)
(22.9095 -1.54694 1.76895e-18)
(23.1305 -1.02619 1.96744e-18)
(23.4002 -0.625265 0)
(23.6885 -0.362652 -2.15564e-18)
(23.9307 -0.170288 -4.28061e-18)
(24.1634 -0.0714135 2.194e-21)
(24.3958 -0.0444191 2.03175e-18)
(24.5709 -0.0487817 -9.75912e-19)
(24.697 -0.0519137 8.95386e-22)
(24.7724 -0.0106407 -1.4679e-21)
(24.735 0.0569829 -8.5448e-19)
(24.7322 0.0750365 0)
(24.7459 0.104552 -6.87917e-19)
(24.7781 0.145642 -6.57739e-19)
(24.8193 0.167425 0)
(24.8549 0.132804 6.2511e-19)
(24.8904 0.0214378 -1.10393e-21)
(24.9546 -0.0938302 -5.94401e-19)
(25.0082 -0.12787 0)
(25.0477 -0.0827433 0)
(25.0826 0.0114021 -4.00845e-19)
(25.0829 0.0917629 1.04176e-21)
(25.0891 0.0996113 3.35425e-19)
(25.0911 0.0875918 3.2032e-19)
(25.0939 0.0855288 3.12018e-19)
(25.0979 0.0943807 3.12422e-19)
(25.096 0.0896621 3.2791e-19)
(25.0913 0.050077 -3.31313e-19)
(25.0934 -0.0141224 -1.60422e-19)
(25.1155 -0.0515937 5.68128e-23)
(25.1367 -0.0358431 -1.33022e-19)
(25.1636 0.00636303 0)
(25.1764 0.0400909 -1.04475e-19)
(25.1753 0.033222 2.52263e-22)
(25.1606 0.0157215 8.49964e-20)
(25.146 0.0184911 0)
(25.1398 0.0478074 0)
(25.1399 0.0838189 4.87412e-20)
(25.1395 0.0901084 4.30888e-20)
(25.134 0.0619055 0)
(25.1296 0.0224551 1.94905e-20)
(25.1269 0.00974059 1.89362e-20)
(25.1286 0.0234261 -1.77656e-20)
(25.129 0.0463058 -1.68212e-20)
(25.1189 0.0458939 -1.51075e-20)
(25.1025 0.0289719 -1.89234e-20)
(25.0829 0.00753851 -5.15103e-21)
(25.073 0.010874 -4.00307e-21)
(25.0714 0.023964 -1.3232e-21)
(25.075 0.0260542 6.84561e-22)
(25.0706 0.0301467 0)
(8.06868 -13.49 -2.73408e-19)
(11.5873 -15.3978 -8.2538e-19)
(14.9875 -15.7973 0)
(16.4548 -16.1467 -2.05729e-18)
(18.3878 -14.9622 -3.89528e-18)
(20.5117 -10.7406 -2.42225e-18)
(21.0496 -6.39747 0)
(21.8426 -3.09806 0)
(20.5604 -1.66364 0)
(22.0213 -1.64389 0)
(22.6103 -1.40643 0)
(22.6317 -1.16338 0)
(22.5193 -0.874193 0)
(22.3933 -0.613414 0)
(22.2845 -0.46753 0)
(22.1846 -0.391609 -4.74694e-20)
(22.0794 -0.327501 -1.24338e-20)
(21.9804 -0.24527 -4.22896e-22)
(21.8883 -0.0703438 1.89894e-20)
(21.7962 0.0723729 -2.01427e-20)
(21.7899 0.0932322 2.73342e-22)
(21.8121 0.0735164 2.48579e-21)
(21.8446 0.091298 0)
(21.9075 0.12233 0)
(22.0152 0.0906875 0)
(22.1597 -0.0506923 0)
(22.3121 -0.230279 0)
(22.4679 -0.286629 6.94546e-20)
(22.8633 -0.219113 -2.07969e-22)
(23.1935 -0.0512883 -7.48547e-23)
(23.2535 0.0925984 3.5813e-22)
(23.2936 0.121785 5.72905e-20)
(23.2964 0.103958 0)
(23.2247 0.106767 0)
(23.0367 0.136943 0)
(22.8215 0.14323 3.90332e-21)
(22.7689 0.0789632 -3.46475e-20)
(22.8503 -0.0436236 0)
(23.0162 -0.131263 -3.16991e-20)
(23.3526 -0.120895 -1.03908e-20)
(23.5744 -0.040327 1.54404e-20)
(23.6403 0.0375142 3.05982e-20)
(23.7304 0.0486306 -2.15197e-21)
(23.8896 0.0231232 -8.64161e-21)
(24.1436 0.0108056 -2.18695e-21)
(24.3556 0.0383295 -3.72552e-20)
(24.4377 0.0924941 -4.60958e-20)
(24.4788 0.110528 -3.70062e-20)
(24.4841 0.0812736 -2.86618e-20)
(24.4441 0.0318978 -6.53772e-21)
(24.3663 0.0153643 1.87164e-23)
(24.2458 0.0396904 -7.44914e-21)
(24.0753 0.0848896 -2.70275e-21)
(24.0072 0.0888551 8.67103e-21)
(24.0579 0.0530591 1.19864e-20)
(24.2072 0.0116285 3.61594e-21)
(24.4376 0.000347065 -9.04759e-22)
(24.6282 0.0125715 1.84766e-21)
(24.7176 0.0242348 0)
(24.7407 0.0324248 0)
(8.43633 -14.7771 -2.56097e-19)
(11.587 -16.7967 -7.90027e-19)
(14.621 -17.0292 -1.4638e-18)
(15.0623 -17.3304 -8.27897e-21)
(16.6498 -16.9488 3.12437e-18)
(17.0426 -13.6192 0)
(31.2363 -2.63744 0)
(27.074 -3.27524 0)
(23.6793 -2.47807 0)
(22.4286 -1.76632 0)
(21.7259 -1.32886 0)
(21.1184 -0.913099 2.60628e-19)
(20.6488 -0.525161 1.83032e-19)
(20.292 -0.241439 1.43268e-19)
(20.0094 -0.0896167 2.26741e-19)
(19.7734 -0.0342202 8.18462e-20)
(19.5689 -0.0255413 0)
(19.3956 -0.0209087 0)
(19.2637 0.0229828 0)
(19.1961 0.0704002 0)
(19.1844 0.0814189 0)
(19.1966 0.0750996 0)
(19.2317 0.0749177 0)
(19.3069 0.0668653 0)
(19.4272 0.0150257 -6.01704e-21)
(19.5683 -0.0998285 -4.92729e-20)
(19.6875 -0.245205 -4.48686e-20)
(19.7724 -0.358464 0)
(19.8465 -0.357344 0)
(19.8863 -0.193885 0)
(19.9539 -0.0113295 0)
(20.0562 0.0720262 0)
(20.1294 0.11428 2.74874e-20)
(20.1631 0.170369 2.90145e-20)
(20.1894 0.21055 2.28599e-20)
(20.2596 0.16653 1.98297e-22)
(20.3837 0.037369 0)
(20.5181 -0.119967 -4.28464e-20)
(20.6409 -0.23941 -4.50251e-20)
(20.7458 -0.245111 0)
(20.8236 -0.144068 0)
(20.9368 -0.0678053 0)
(21.1004 -0.0862102 0)
(21.2777 -0.146608 7.87298e-21)
(21.4399 -0.158965 4.21611e-21)
(21.5629 -0.0852174 0)
(21.6587 0.0166372 -7.41447e-21)
(21.7414 0.0706901 -6.37157e-21)
(21.7944 0.078555 0)
(21.8065 0.0744577 0)
(21.7865 0.0939604 0)
(21.7587 0.129328 0)
(21.7622 0.125949 0)
(21.8278 0.0517978 0)
(21.9348 -0.0536521 0)
(22.0573 -0.136756 0)
(22.1724 -0.151076 -1.37021e-21)
(22.2656 -0.0973694 5.1115e-22)
(22.3295 -0.0293858 0)
(22.3842 0.0136597 0)
(8.70955 -15.7693 0)
(11.5935 -18.0787 0)
(14.2676 -18.1461 0)
(14.4315 -18.4319 0)
(16.4179 -17.6846 0)
(17.2131 -11.6289 0)
(20.3326 -10.4508 0)
(19.4137 -4.92569 0)
(18.1425 -1.80568 0)
(17.9359 -1.01685 0)
(17.8339 -0.893864 0)
(17.6118 -0.682125 0)
(17.3921 -0.389596 0)
(17.2136 -0.154099 0)
(17.0752 -0.0312745 0)
(16.9682 0.00850104 0)
(16.8725 0.0129746 0)
(16.7813 0.0206875 0)
(16.7058 0.0542806 0)
(16.6734 0.0815495 0)
(16.6819 0.0801429 0)
(16.7128 0.0633061 0)
(16.7672 0.0445552 0)
(16.8549 0.0151406 0)
(16.9715 -0.045648 0)
(17.0899 -0.147976 0)
(17.1738 -0.268877 0)
(17.2045 -0.360823 0)
(17.1919 -0.352479 0)
(17.1901 -0.226901 0)
(17.2584 -0.0848048 0)
(17.3735 0.00245898 0)
(17.4865 0.0595905 0)
(17.5965 0.112322 0)
(17.7326 0.134779 0)
(17.9048 0.0820292 0)
(18.0817 -0.0395469 0)
(18.2219 -0.178414 0)
(18.3091 -0.273781 0)
(18.3606 -0.274165 1.00624e-20)
(18.4315 -0.204504 1.60001e-22)
(18.5661 -0.159684 0)
(18.7382 -0.181402 0)
(18.8953 -0.223476 0)
(19.0138 -0.21522 0)
(19.1094 -0.137725 0)
(19.2091 -0.0446705 0)
(19.3115 0.0163417 0)
(19.3967 0.0440762 -4.71509e-21)
(19.4552 0.0594872 -6.3149e-21)
(19.4993 0.0816464 -2.70279e-21)
(19.5587 0.0979782 3.04376e-21)
(19.6566 0.0692416 1.34497e-21)
(19.781 -0.0154074 0)
(19.9017 -0.113323 -2.04663e-21)
(19.9967 -0.18161 -4.68095e-21)
(20.0624 -0.180518 -1.29505e-21)
(20.119 -0.123222 -4.284e-23)
(20.1682 -0.0559877 -4.85393e-22)
(20.2356 -0.0112748 0)
(8.83598 -16.5741 -1.84116e-19)
(11.6027 -19.1305 -6.48373e-19)
(13.4715 -19.5159 0)
(14.8666 -19.6401 -1.78997e-18)
(16.8822 -18.2037 -9.99049e-18)
(16.9695 -15.1834 0)
(13.2249 -10.2636 0)
(13.02 -5.36747 0)
(12.6296 -2.28786 0)
(12.9275 -1.24771 0)
(13.2766 -0.986527 1.66389e-19)
(13.4556 -0.749059 1.10607e-21)
(13.5756 -0.451899 -9.94006e-20)
(13.6943 -0.196734 0)
(13.8119 -0.0437964 0)
(13.9177 0.0240934 3.32131e-20)
(13.9965 0.0412091 2.38006e-20)
(14.0484 0.0466601 0)
(14.0881 0.0598579 0)
(14.1392 0.0697993 0)
(14.2085 0.0584212 0)
(14.2897 0.0325903 0)
(14.3835 0.00183145 -4.27394e-21)
(14.4944 -0.0382149 9.17824e-23)
(14.6161 -0.100129 -1.07031e-22)
(14.7272 -0.187998 1.55179e-20)
(14.8022 -0.283755 0)
(14.8287 -0.351261 2.95052e-20)
(14.8243 -0.345827 1.7585e-20)
(14.8412 -0.261799 0)
(14.9188 -0.158242 -2.00882e-20)
(15.0413 -0.0808986 -2.35218e-20)
(15.1796 -0.0255236 0)
(15.3332 0.0160482 0)
(15.5147 0.0249303 0)
(15.7146 -0.024154 0)
(15.8981 -0.122432 0)
(16.0342 -0.230341 -2.3893e-20)
(16.1184 -0.301875 -2.75896e-20)
(16.1808 -0.308139 1.84664e-20)
(16.2724 -0.272494 5.12058e-21)
(16.4138 -0.252866 0)
(16.5731 -0.270406 0)
(16.7082 -0.291104 0)
(16.8094 -0.269059 -3.62346e-21)
(16.9012 -0.196911 1.54712e-21)
(17.0072 -0.112362 4.22747e-21)
(17.1239 -0.0488383 -5.16899e-21)
(17.2355 -0.0110858 -9.46902e-21)
(17.3358 0.0120409 3.53874e-23)
(17.4362 0.0290631 5.05061e-21)
(17.5567 0.0284235 0)
(17.7011 -0.0117967 -1.01523e-21)
(17.8456 -0.0894965 1.35924e-21)
(17.9631 -0.169014 0)
(18.0418 -0.215191 0)
(18.0909 -0.203737 0)
(18.1385 -0.149791 0)
(18.1839 -0.087101 2.33381e-22)
(18.2612 -0.0409491 1.67846e-22)
(8.85153 -17.1291 0)
(11.4091 -19.8051 0)
(12.4871 -20.8884 0)
(14.3358 -20.96 -1.74817e-18)
(14.7832 -17.4861 -7.42126e-18)
(15.1883 -14.4534 0)
(9.6994 -10.4022 0)
(8.86194 -5.9229 0)
(8.50872 -2.95213 0)
(8.74622 -1.70606 0)
(9.17065 -1.27284 6.36745e-20)
(9.53193 -0.984383 8.50334e-20)
(9.87175 -0.675106 6.67606e-20)
(10.2166 -0.39783 4.34148e-20)
(10.5505 -0.214728 2.83796e-20)
(10.8541 -0.108281 2.15195e-20)
(11.1048 -0.0555808 0)
(11.3064 -0.0249739 0)
(11.4746 -0.00292205 0)
(11.6302 0.00685761 0)
(11.7824 -0.00407105 0)
(11.9311 -0.0299782 0)
(12.0777 -0.0632948 -3.66328e-21)
(12.2244 -0.104907 -8.14485e-22)
(12.3668 -0.161224 -4.40691e-21)
(12.4913 -0.232922 -1.25939e-20)
(12.583 -0.306855 -2.05389e-20)
(12.6372 -0.358414 -4.62365e-20)
(12.6713 -0.359974 -1.49857e-20)
(12.7226 -0.307764 6.55834e-22)
(12.817 -0.234973 6.59129e-23)
(12.9487 -0.172221 -3.74124e-20)
(13.1025 -0.124942 -4.00828e-20)
(13.2762 -0.093822 -1.96126e-20)
(13.4705 -0.0918392 1.5497e-20)
(13.6707 -0.132375 1.12303e-20)
(13.8495 -0.207105 -1.80408e-22)
(13.9872 -0.28805 1.23544e-22)
(14.0867 -0.344037 -2.13907e-20)
(14.1751 -0.358632 -1.60922e-20)
(14.286 -0.347134 -7.44005e-21)
(14.4262 -0.342003 0)
(14.5702 -0.352822 0)
(14.6919 -0.357161 0)
(14.7911 -0.327617 2.90743e-21)
(14.89 -0.262433 -4.5532e-24)
(15.0059 -0.187257 3.22418e-21)
(15.1365 -0.126188 0)
(15.271 -0.0857044 -4.53023e-21)
(15.4054 -0.0614325 -4.41669e-21)
(15.5464 -0.0506521 2.28034e-21)
(15.7018 -0.061065 1.94426e-21)
(15.8644 -0.102057 0)
(16.0112 -0.165432 0)
(16.1231 -0.223201 2.51977e-21)
(16.1974 -0.249429 2.81773e-21)
(16.2478 -0.23057 0)
(16.3002 -0.179851 0)
(16.35 -0.121549 0)
(16.4373 -0.0749883 0)
(8.87559 -17.5179 0)
(11.1196 -20.293 0)
(12.0571 -21.657 0)
(12.4607 -21.5383 -1.23365e-18)
(12.6354 -18.1911 -2.05438e-18)
(11.3837 -13.7731 2.15383e-18)
(7.62858 -10.0047 5.94143e-22)
(6.26918 -6.22826 -6.53549e-19)
(5.70454 -3.46318 -1.85015e-19)
(5.62827 -2.13395 -2.71871e-21)
(5.87492 -1.58766 0)
(6.21436 -1.28218 0)
(6.62528 -0.989243 0)
(7.07862 -0.705785 -2.63691e-20)
(7.53378 -0.498039 -1.67393e-20)
(7.96924 -0.347302 0)
(8.3488 -0.251473 0)
(8.67542 -0.185028 0)
(8.9591 -0.140584 0)
(9.2157 -0.116995 -1.30218e-20)
(9.45267 -0.116678 1.56731e-22)
(9.67206 -0.133136 9.97689e-21)
(9.87562 -0.159619 0)
(10.0657 -0.194495 -5.31362e-22)
(10.2406 -0.240191 4.01591e-21)
(10.3935 -0.295777 0)
(10.517 -0.35198 0)
(10.611 -0.392179 0)
(10.6894 -0.398386 0)
(10.7768 -0.367202 1.47817e-21)
(10.8917 -0.317294 -8.77784e-21)
(11.0344 -0.269204 0)
(11.198 -0.231378 0)
(11.3791 -0.208234 0)