/*--------------------------------*- C++ -*----------------------------------*\
| =========                 |                                                 |
| \\      /  F ield         | OpenFOAM: The Open Source CFD Toolbox           |
|  \\    /   O peration     | Version:  v1606+                                |
|   \\  /    A nd           | Web:      www.OpenFOAM.com                      |
|    \\/     M anipulation  |                                                 |
\*---------------------------------------------------------------------------*/
FoamFile
{
    version     2.0;
    format      ascii;
    class       volScalarField;
    location    "1.64";
    object      alpha.air;
}
// * * * * * * * * * * * * * * * * * * * * * * * * * * * * * * * * * * * * * //

dimensions      [0 0 0 0 0 0 0];

internalField   nonuniform List<scalar> 
6000
(
0.586694
0.565856
0.565854
0.565853
0.565853
0.565855
0.565857
0.565859
0.565861
0.565864
0.585742
0.611147
0.613783
0.616513
0.617311
0.611086
0.60159
0.566922
0.564939
0.564936
0.564934
0.564932
0.564931
0.56493
0.56493
0.577205
0.621403
0.642697
0.638918
0.639945
0.658727
0.628546
0.604426
0.592568
0.582096
0.573911
0.568599
0.566634
0.580896
0.608939
0.617157
0.617269
0.617222
0.617306
0.617225
0.617306
0.617221
0.617267
0.596069
0.581431
0.577304
0.580744
0.597683
0.617644
0.635337
0.642936
0.643186
0.642971
0.641962
0.642905
0.658704
0.656638
0.636655
0.627167
0.610024
0.582583
0.54857
0.523452
0.521303
0.547301
0.576983
0.58976
0.59267
0.587658
0.582361
0.589967
0.595025
0.567034
0.538554
0.542225
0.566954
0.585931
0.60585
0.618751
0.631807
0.636838
0.642936
0.643163
0.642963
0.643072
0.658683
0.658659
0.658634
0.657817
0.647755
0.623535
0.592336
0.555257
0.509383
0.50614
0.533201
0.555065
0.563353
0.556587
0.547873
0.559037
0.564637
0.523484
0.505432
0.522279
0.577656
0.591653
0.59283
0.592299
0.593917
0.59883
0.61995
0.642963
0.643111
0.642829
0.625398
0.633463
0.636082
0.641351
0.639799
0.631653
0.622123
0.606708
0.54565
0.506025
0.506025
0.5122
0.524464
0.521582
0.516678
0.525324
0.529034
0.505596
0.505673
0.527386
0.599721
0.57825
0.543269
0.527768
0.514665
0.516194
0.542133
0.587315
0.603327
0.595515
0.548267
0.561247
0.565939
0.572515
0.585531
0.590973
0.5984
0.620955
0.617918
0.538206
0.505871
0.505926
0.505739
0.505858
0.505654
0.506333
0.50665
0.5057
0.505229
0.563602
0.636392
0.572267
0.513462
0.510706
0.500824
0.500823
0.500821
0.500824
0.513142
0.510543
0.486987
0.487589
0.487227
0.487267
0.51784
0.536521
0.558488
0.621092
0.681678
0.658717
0.571819
0.51087
0.505829
0.5056
0.505747
0.5055
0.505693
0.505227
0.505665
0.635621
0.669861
0.590586
0.560485
0.59615
0.593297
0.53689
0.500825
0.500824
0.500827
0.500827
0.486927
0.48693
0.490835
0.556853
0.59205
0.581964
0.576188
0.635417
0.726828
0.758753
0.722694
0.643499
0.539903
0.505779
0.505503
0.505718
0.505343
0.505671
0.572047
0.702124
0.696172
0.642546
0.655438
0.692578
0.694116
0.669705
0.623957
0.585413
0.576839
0.5651
0.498775
0.541606
0.631429
0.701806
0.706755
0.679224
0.647116
0.681575
0.757572
0.799362
0.800819
0.775935
0.701055
0.585245
0.50687
0.505508
0.508877
0.563688
0.686226
0.734688
0.716653
0.689144
0.693359
0.694088
0.694093
0.694098
0.689128
0.698344
0.717201
0.724431
0.660015
0.696541
0.706924
0.706939
0.706924
0.706937
0.688427
0.710524
0.768557
0.808083
0.820065
0.821404
0.805246
0.751299
0.679212
0.64739
0.68151
0.730109
0.758852
0.753767
0.72921
0.699291
0.690556
0.694069
0.684375
0.657209
0.644399
0.661241
0.715354
0.734773
0.698903
0.706904
0.706925
0.706922
0.706939
0.696931
0.671553
0.698053
0.759672
0.803778
0.823317
0.830852
0.83048
0.821906
0.808221
0.80221
0.810595
0.818802
0.807353
0.778448
0.742432
0.699558
0.676105
0.672723
0.64847
0.609559
0.592043
0.587968
0.635224
0.729925
0.661272
0.701526
0.701386
0.70212
0.687217
0.651697
0.62834
0.663619
0.731607
0.787206
0.820718
0.830972
0.831054
0.831096
0.831123
0.831373
0.831494
0.831677
0.831164
0.810811
0.767902
0.703545
0.64395
0.619745
0.601684
0.569745
0.55033
0.539099
0.553762
0.631811
0.608051
0.645472
0.636651
0.637244
0.616523
0.582902
0.56445
0.598512
0.674851
0.752359
0.80933
0.83105
0.831106
0.83122
0.83137
0.831498
0.83162
0.831705
0.831896
0.831574
0.803043
0.724625
0.614863
0.557381
0.554795
0.532605
0.516652
0.501836
0.50288
0.503502
0.535265
0.560084
0.548408
0.544551
0.528795
0.513214
0.506656
0.519032
0.584504
0.690734
0.78256
0.826778
0.831054
0.830557
0.830233
0.831444
0.831658
0.831846
0.83188
0.831833
0.828428
0.76302
0.619379
0.512155
0.514027
0.50125
0.486384
0.4694
0.463922
0.463891
0.479123
0.487199
0.478945
0.475448
0.470311
0.467855
0.46897
0.475118
0.499241
0.595042
0.726056
0.805009
0.822639
0.820574
0.820176
0.82488
0.830531
0.831778
0.831842
0.83186
0.831788
0.791294
0.639539
0.493862
0.489038
0.482808
0.473017
0.463908
0.463858
0.463896
0.451075
0.452951
0.451184
0.449998
0.449195
0.449219
0.450638
0.454334
0.462321
0.502275
0.628597
0.748256
0.788326
0.787963
0.788873
0.799648
0.816413
0.827994
0.83181
0.831784
0.831852
0.798703
0.641802
0.481564
0.477199
0.472221
0.47088
0.463833
0.463936
0.532025
0.441746
0.442846
0.442728
0.442249
0.441877
0.44177
0.442344
0.444618
0.447764
0.458524
0.520322
0.644467
0.714974
0.720828
0.718413
0.736467
0.765436
0.793408
0.811445
0.818228
0.817445
0.777573
0.610378
0.473832
0.466995
0.463848
0.465256
0.463925
0.578106
0.657445
0.439819
0.439893
0.439982
0.439823
0.439824
0.43983
0.439845
0.442132
0.444065
0.445153
0.460648
0.529655
0.605131
0.610674
0.601064
0.62223
0.661538
0.707797
0.743491
0.762988
0.756229
0.695858
0.54587
0.463523
0.4635
0.463496
0.463533
0.541787
0.659132
0.660098
0.439813
0.439814
0.439815
0.439814
0.439837
0.439851
0.441067
0.444723
0.447192
0.446051
0.446114
0.462926
0.505114
0.500221
0.50009
0.511224
0.566071
0.624995
0.670847
0.691601
0.671016
0.583239
0.485179
0.463536
0.46351
0.463524
0.504724
0.632131
0.660098
0.660098
0.439817
0.439965
0.440019
0.439857
0.448231
0.450892
0.45826
0.456927
0.458734
0.454661
0.450368
0.450404
0.46325
0.498355
0.52477
0.577447
0.6164
0.647114
0.668459
0.670234
0.642855
0.583026
0.566952
0.556798
0.511787
0.515906
0.589853
0.632172
0.652902
0.650631
0.440898
0.449694
0.446696
0.445982
0.512923
0.581493
0.565594
0.514261
0.480353
0.469208
0.461624
0.45664
0.492252
0.636328
0.705359
0.747689
0.758231
0.751735
0.737998
0.730141
0.716146
0.710018
0.742435
0.715183
0.651887
0.600575
0.581563
0.590271
0.609714
0.607645
0.470594
0.544346
0.479704
0.522988
0.642846
0.750618
0.772074
0.720218
0.615185
0.51256
0.477563
0.49111
0.62708
0.754227
0.801918
0.828027
0.843237
0.8488
0.843469
0.839746
0.838802
0.835514
0.811685
0.746125
0.657787
0.579745
0.544689
0.544482
0.55651
0.555985
0.527638
0.572942
0.553175
0.589846
0.669281
0.780779
0.861176
0.883639
0.849686
0.726645
0.63086
0.62011
0.697625
0.755237
0.794592
0.82488
0.852041
0.873757
0.883248
0.885231
0.88433
0.856901
0.793014
0.69919
0.597376
0.532498
0.514036
0.514369
0.520219
0.518517
0.534023
0.572943
0.564529
0.563212
0.597172
0.706322
0.83581
0.913421
0.922375
0.89038
0.811561
0.728919
0.704612
0.725904
0.759536
0.797789
0.835655
0.865962
0.882374
0.885231
0.878886
0.827558
0.721932
0.60121
0.522891
0.499869
0.496202
0.497094
0.500955
0.496131
0.498114
0.529491
0.522119
0.517257
0.52814
0.59533
0.73938
0.888781
0.922376
0.91835
0.870519
0.775134
0.703301
0.690982
0.714058
0.755413
0.802319
0.843011
0.867281
0.872757
0.842534
0.744781
0.606655
0.515642
0.489325
0.484499
0.484323
0.486043
0.489289
0.482535
0.469302
0.481954
0.483061
0.483341
0.486702
0.512546
0.618317
0.807637
0.909948
0.909567
0.874644
0.794229
0.705131
0.67044
0.679318
0.714802
0.766153
0.810422
0.832836
0.82695
0.755384
0.616957
0.513533
0.482758
0.476371
0.474523
0.475058
0.477267
0.479918
0.473021
0.457592
0.461484
0.462709
0.463225
0.465822
0.473712
0.529857
0.68847
0.854627
0.878893
0.858199
0.795358
0.709131
0.65689
0.651643
0.682111
0.73348
0.770188
0.77532
0.730463
0.619578
0.515687
0.478273
0.470263
0.467144
0.465978
0.466491
0.468571
0.47051
0.464901
0.454134
0.454333
0.453812
0.453773
0.454566
0.459029
0.480178
0.578977
0.746602
0.816961
0.807476
0.772434
0.701194
0.637571
0.624451
0.656893
0.697155
0.705473
0.671876
0.594311
0.51426
0.475577
0.465176
0.461004
0.458521
0.457511
0.457822
0.459349
0.46044
0.456694
0.453543
0.452723
0.452722
0.452722
0.452725
0.452735
0.457227
0.496615
0.622526
0.71952
0.71952
0.7074
0.662799
0.604691
0.598906
0.621286
0.626324
0.595005
0.546851
0.500992
0.471933
0.461015
0.455996
0.452529
0.450309
0.449257
0.449336
0.450232
0.450597
0.448445
0.453506
0.452721
0.452719
0.452742
0.452797
0.452794
0.4528
0.456021
0.529674
0.603038
0.609836
0.611151
0.593828
0.558207
0.548061
0.542403
0.524597
0.495602
0.475217
0.46278
0.455913
0.451638
0.448165
0.445335
0.443342
0.442135
0.441859
0.442188
0.442121
0.440939
0.453501
0.452731
0.452805
0.480164
0.552918
0.538804
0.507296
0.482796
0.486594
0.504436
0.515417
0.520953
0.517295
0.4995
0.481251
0.464159
0.456787
0.44906
0.447008
0.446364
0.445578
0.444156
0.442384
0.440676
0.439064
0.437655
0.436564
0.436022
0.435537
0.434866
0.453548
0.467692
0.539762
0.634815
0.686977
0.685397
0.667126
0.6225
0.526669
0.469044
0.469127
0.472037
0.466197
0.470671
0.450359
0.439652
0.436836
0.435613
0.435784
0.43688
0.437905
0.438597
0.439016
0.439134
0.43839
0.437004
0.434466
0.432527
0.431333
0.430859
0.522766
0.613141
0.662827
0.704702
0.71008
0.717432
0.718076
0.717785
0.663257
0.542687
0.468324
0.46452
0.464505
0.468406
0.446285
0.439446
0.436921
0.433818
0.431429
0.431751
0.432804
0.434322
0.436635
0.439154
0.440361
0.439944
0.436135
0.432414
0.430723
0.429403
0.618719
0.686297
0.659487
0.664969
0.665492
0.675753
0.694038
0.710211
0.710031
0.672258
0.573433
0.474119
0.466671
0.460861
0.442706
0.441559
0.441951
0.437829
0.431132
0.429904
0.430196
0.430985
0.433215
0.437838
0.443675
0.446815
0.443944
0.437725
0.440312
0.429826
0.623843
0.68609
0.616056
0.607569
0.60229
0.610011
0.632889
0.668472
0.69416
0.692804
0.673219
0.581473
0.499183
0.451064
0.443925
0.450696
0.458984
0.454956
0.43831
0.429864
0.429713
0.429702
0.429833
0.432865
0.440596
0.452887
0.461554
0.451926
0.486016
0.44397
0.61485
0.686132
0.586199
0.560507
0.547789
0.550233
0.568517
0.608246
0.652655
0.672268
0.66823
0.627917
0.514958
0.450761
0.450653
0.467758
0.482926
0.473365
0.456987
0.438529
0.429785
0.429583
0.429669
0.429595
0.433018
0.449234
0.490401
0.570365
0.633771
0.489801
0.593507
0.686096
0.583452
0.529604
0.507593
0.503402
0.515309
0.550005
0.598839
0.619982
0.625463
0.616694
0.525941
0.451297
0.465868
0.48798
0.506527
0.517927
0.521101
0.495035
0.442301
0.429775
0.429523
0.429662
0.429586
0.439551
0.511277
0.644151
0.713755
0.587258
0.536932
0.652215
0.573705
0.509674
0.484078
0.476809
0.480605
0.503296
0.5462
0.554392
0.578441
0.628472
0.609871
0.551563
0.556667
0.571
0.608696
0.669206
0.701601
0.687123
0.56172
0.443599
0.429782
0.429475
0.429772
0.432396
0.498361
0.630981
0.720048
0.625074
0.477496
0.555924
0.525319
0.481672
0.461204
0.457996
0.460982
0.475512
0.50011
0.519379
0.610123
0.738821
0.807153
0.800273
0.785635
0.79328
0.831416
0.878417
0.898112
0.888041
0.782886
0.57775
0.445584
0.429795
0.429382
0.42991
0.490915
0.624419
0.7231
0.604584
0.460423
0.467914
0.46928
0.453649
0.44698
0.447028
0.449045
0.458627
0.48349
0.572137
0.760935
0.899315
0.944002
0.94979
0.944343
0.946904
0.955781
0.963563
0.966147
0.957807
0.898603
0.723921
0.535476
0.45121
0.42987
0.429926
0.507408
0.633778
0.722785
0.594969
0.474299
0.446862
0.446974
0.446927
0.447004
0.44698
0.447026
0.449471
0.483911
0.64957
0.893353
0.967677
0.975911
0.975844
0.975492
0.974806
0.97399
0.973497
0.972836
0.964742
0.920914
0.791498
0.605884
0.486592
0.452295
0.460361
0.523292
0.646367
0.722755
0.595032
0.520904
0.44701
0.446677
0.450352
0.472512
0.479911
0.453044
0.449486
0.464489
0.637733
0.935538
0.976992
0.977007
0.97504
0.972582
0.96818
0.964212
0.962344
0.959891
0.947277
0.897438
0.794065
0.626627
0.508257
0.462967
0.47455
0.514088
0.657172
0.722803
0.597011
0.53139
0.446772
0.447008
0.500809
0.680828
0.729748
0.556881
0.456065
0.456096
0.59606
0.92193
0.963265
0.964707
0.96042
0.952067
0.938709
0.925799
0.919748
0.911123
0.887899
0.820037
0.727303
0.599077
0.493423
0.476427
0.47638
0.510588
0.656388
0.721793
0.588615
0.531251
0.447108
0.464907
0.67789
0.881773
0.894853
0.799737
0.566246
0.469619
0.575365
0.831354
0.909974
0.919675
0.915441
0.901313
0.879857
0.856853
0.845113
0.826159
0.796275
0.737081
0.654869
0.565792
0.552692
0.604312
0.557489
0.555672
0.625683
0.671297
0.535958
0.530749
0.454933
0.59456
0.863317
0.917346
0.912632
0.871644
0.78556
0.710399
0.689027
0.748387
0.836143
0.852483
0.847429
0.833442
0.81856
0.802239
0.791263
0.765789
0.737982
0.714881
0.699264
0.713306
0.800985
0.855709
0.775794
0.615227
0.551376
0.56353
0.493401
0.534095
0.53231
0.764748
0.912215
0.917261
0.894806
0.852839
0.828545
0.83087
0.829673
0.78973
0.812105
0.820886
0.809421
0.79872
0.798643
0.798669
0.800495
0.795203
0.789603
0.810712
0.856377
0.902401
0.924829
0.927893
0.872094
0.650634
0.49418
0.49183
0.48693
0.557606
0.623311
0.847273
0.912274
0.903761
0.870986
0.834245
0.821969
0.848064
0.89183
0.880997
0.858816
0.853069
0.84122
0.833837
0.832586
0.847846
0.862594
0.879683
0.894904
0.921271
0.940075
0.944171
0.940938
0.933992
0.903383
0.725893
0.495592
0.47786
0.486754
0.584645
0.672069
0.858597
0.898441
0.882348
0.847941
0.818749
0.81885
0.855352
0.919051
0.940303
0.923465
0.913119
0.905894
0.903778
0.905566
0.919802
0.930155
0.94092
0.947455
0.951586
0.950518
0.946002
0.938703
0.929971
0.913064
0.81232
0.542917
0.473517
0.486735
0.59553
0.679184
0.845481
0.879951
0.860988
0.826533
0.804904
0.818779
0.871918
0.937192
0.958718
0.954818
0.950567
0.948173
0.948122
0.949587
0.953832
0.955717
0.957044
0.955918
0.95393
0.949348
0.942984
0.935151
0.92631
0.912965
0.847937
0.616109
0.473542
0.486731
0.595238
0.690835
0.836934
0.861872
0.838353
0.807148
0.797668
0.824213
0.896861
0.950869
0.961379
0.961324
0.960655
0.960134
0.960132
0.960355
0.96052
0.959576
0.958603
0.955885
0.952048
0.946681
0.940054
0.932666
0.923853
0.908468
0.854006
0.677942
0.479253
0.478172
0.587561
0.715349
0.828304
0.840614
0.813087
0.787754
0.796533
0.84602
0.925385
0.95884
0.96135
0.961378
0.961346
0.961342
0.961332
0.961321
0.96095
0.959482
0.957566
0.954307
0.949499
0.944175
0.937886
0.930602
0.921895
0.903808
0.836538
0.690744
0.55621
0.471971
0.587111
0.732925
0.814067
0.814273
0.787136
0.770801
0.800224
0.882632
0.948
0.961348
0.961373
0.961346
0.961345
0.961338
0.961338
0.961264
0.96029
0.958556
0.95574
0.951993
0.947309
0.942189
0.936139
0.928759
0.920045
0.899029
0.81552
0.658875
0.633677
0.486779
0.588602
0.742339
0.797731
0.783231
0.756544
0.762166
0.824256
0.923103
0.95818
0.961365
0.961345
0.961344
0.961337
0.961337
0.961333
0.96063
0.959014
0.957042
0.953845
0.95
0.945667
0.94058
0.934341
0.926395
0.917431
0.891014
0.790629
0.640891
0.669472
0.566191
0.62124
0.744424
0.773568
0.745202
0.716526
0.762144
0.877033
0.948098
0.960434
0.961194
0.961092
0.961329
0.961264
0.961134
0.960956
0.959474
0.957651
0.955642
0.952382
0.948566
0.944311
0.938984
0.932385
0.924166
0.915558
0.88064
0.753455
0.626621
0.669296
0.582686
0.662303
0.729639
0.732487
0.699057
0.680727
0.792682
0.923613
0.956293
0.960047
0.959992
0.960368
0.960845
0.960581
0.960357
0.95995
0.958096
0.95638
0.954493
0.951187
0.947309
0.943006
0.937351
0.930447
0.922227
0.912881
0.867477
0.709403
0.617101
0.669364
0.580783
0.687105
0.704738
0.682812
0.647472
0.667906
0.842249
0.941531
0.957538
0.958443
0.95787
0.958941
0.959311
0.959079
0.959074
0.95852
0.956773
0.955274
0.953489
0.950173
0.946182
0.941616
0.935611
0.928449
0.920503
0.909922
0.852158
0.666211
0.604647
0.669305
0.576975
0.696193
0.691024
0.638545
0.603559
0.676278
0.866161
0.943772
0.956332
0.956287
0.955495
0.95688
0.957047
0.957159
0.957483
0.956894
0.955519
0.954252
0.952407
0.949114
0.945033
0.940219
0.934028
0.926721
0.91904
0.907301
0.837765
0.630415
0.586967
0.653764
0.545234
0.696193
0.689607
0.610008
0.578344
0.68261
0.866594
0.939377
0.954559
0.954676
0.953181
0.954496
0.954871
0.955332
0.955804
0.955115
0.954163
0.953117
0.951153
0.947924
0.943801
0.938848
0.932636
0.925229
0.917594
0.904904
0.827904
0.605481
0.56105
0.586617
0.491967
0.696193
0.69086
0.593644
0.564541
0.654613
0.830827
0.930065
0.952875
0.953994
0.951381
0.952125
0.953146
0.953765
0.954168
0.95323
0.952672
0.951712
0.949696
0.946635
0.942585
0.937643
0.931462
0.92388
0.916044
0.902653
0.825018
0.59088
0.525626
0.496558
0.466584
0.693068
0.674816
0.580194
0.551471
0.600942
0.787678
0.92163
0.951544
0.953877
0.950417
0.950093
0.951699
0.952318
0.952548
0.951317
0.951125
0.950112
0.948126
0.945239
0.941414
0.936509
0.930296
0.922601
0.914468
0.900376
0.825731
0.585555
0.483787
0.466582
0.466572
0.652205
0.640354
0.562156
0.537838
0.57066
0.770885
0.918339
0.950591
0.953824
0.950246
0.948696
0.950201
0.950838
0.951138
0.949566
0.949404
0.948408
0.946506
0.943759
0.940172
0.935316
0.929091
0.921417
0.913089
0.898334
0.835416
0.611585
0.466735
0.466574
0.466572
0.593438
0.601007
0.537442
0.524746
0.566377
0.77562
0.918893
0.949978
0.953782
0.950991
0.948089
0.948336
0.94915
0.950164
0.948126
0.947535
0.946671
0.944852
0.942265
0.938864
0.934112
0.927993
0.920451
0.912193
0.896501
0.842825
0.660424
0.468078
0.46814
0.466582
0.550378
0.562635
0.511501
0.511219
0.586986
0.81175
0.922598
0.949418
0.953758
0.951919
0.948006
0.946228
0.947092
0.949447
0.946994
0.945658
0.944987
0.943253
0.940828
0.937612
0.933029
0.92709
0.919733
0.911725
0.894213
0.829114
0.680569
0.527503
0.524162
0.50746
0.49686
0.530374
0.49375
0.496294
0.626058
0.844205
0.925185
0.947637
0.952409
0.9521
0.948182
0.94438
0.944717
0.948365
0.946031
0.943917
0.943248
0.94167
0.939493
0.936465
0.932134
0.92644
0.919297
0.911513
0.891375
0.808816
0.6479
0.541428
0.541378
0.521912
0.466732
0.482728
0.475256
0.490791
0.664561
0.855934
0.925365
0.944342
0.949395
0.950471
0.947531
0.942607
0.942182
0.946105
0.944714
0.942188
0.941252
0.939924
0.938097
0.935362
0.931382
0.925979
0.919069
0.911375
0.887895
0.781154
0.606344
0.523471
0.541416
0.52651
0.466722
0.466726
0.466735
0.496817
0.693416
0.857165
0.917544
0.938908
0.94493
0.945979
0.943815
0.93945
0.939003
0.942236
0.941987
0.93981
0.938533
0.937485
0.936107
0.933867
0.930379
0.925255
0.918389
0.910887
0.878191
0.733691
0.574983
0.523383
0.540223
0.511773
0.466722
0.467017
0.478168
0.543023
0.68906
0.806365
0.894282
0.929826
0.937697
0.937909
0.935718
0.933431
0.933641
0.936083
0.936784
0.9355
0.934244
0.933395
0.932417
0.930796
0.927722
0.92236
0.914844
0.906049
0.852725
0.668621
0.526638
0.5127
0.518031
0.488162
0.466956
0.493098
0.520202
0.540904
0.572855
0.697296
0.857923
0.915976
0.926038
0.925611
0.923509
0.923661
0.924764
0.926903
0.928437
0.92822
0.927402
0.926719
0.92589
0.924451
0.920972
0.913688
0.903423
0.888501
0.803145
0.59704
0.496672
0.493548
0.485042
0.467249
0.47998
0.49663
0.496819
0.491809
0.510984
0.627165
0.818191
0.897313
0.909652
0.908627
0.907692
0.910538
0.91288
0.915418
0.917582
0.918313
0.917948
0.917527
0.916615
0.914515
0.909354
0.897809
0.881327
0.85275
0.743108
0.551579
0.48035
0.475402
0.465691
0.458945
0.465018
0.471472
0.471271
0.47991
0.489686
0.610598
0.790556
0.872745
0.886401
0.885225
0.887692
0.893574
0.898379
0.902086
0.904994
0.906443
0.906514
0.906212
0.904949
0.901796
0.894142
0.877829
0.852827
0.808432
0.698659
0.543445
0.472225
0.467005
0.460101
0.458925
0.453941
0.457281
0.461003
0.468131
0.485849
0.609367
0.764052
0.83769
0.852185
0.85364
0.86081
0.87117
0.880269
0.886306
0.890404
0.892436
0.892784
0.892325
0.890392
0.885745
0.875431
0.8557
0.823315
0.766403
0.664732
0.540265
0.473772
0.467989
0.463132
0.462534
0.45393
0.456022
0.459341
0.463938
0.5026
0.610891
0.72679
0.783425
0.800483
0.810762
0.82537
0.842883
0.85811
0.867619
0.873258
0.875765
0.876213
0.875179
0.871894
0.865007
0.852008
0.828682
0.787421
0.715475
0.610929
0.516078
0.483745
0.474055
0.469775
0.466783
0.46115
0.467135
0.472871
0.489507
0.529789
0.595355
0.659933
0.698937
0.724078
0.748832
0.776752
0.805773
0.829785
0.844331
0.85207
0.855094
0.855511
0.853175
0.847355
0.836522
0.818288
0.788027
0.736208
0.653146
0.553083
0.485674
0.476809
0.472562
0.469612
0.465546
0.474839
0.491917
0.507465
0.518719
0.525903
0.548611
0.568485
0.591472
0.621092
0.660414
0.708024
0.754779
0.790825
0.812485
0.823205
0.826996
0.827127
0.822317
0.812061
0.79408
0.765446
0.722379
0.661077
0.583713
0.512429
0.475791
0.467677
0.465469
0.464507
0.462112
0.495233
0.506367
0.507375
0.505974
0.497492
0.489567
0.488385
0.496884
0.51589
0.55225
0.614064
0.681582
0.733056
0.764283
0.779514
0.784457
0.783787
0.774749
0.757022
0.727859
0.684448
0.627936
0.568347
0.519939
0.492174
0.480166
0.470408
0.465129
0.461676
0.46062
0.496006
0.496304
0.48495
0.470513
0.45963
0.453074
0.452545
0.454667
0.460581
0.474009
0.513978
0.583308
0.649051
0.691014
0.712005
0.718247
0.716227
0.701159
0.673971
0.634457
0.584427
0.533355
0.496684
0.480787
0.480081
0.480092
0.477249
0.46998
0.463691
0.46062
0.489649
0.469919
0.455541
0.447522
0.446794
0.446856
0.451869
0.456735
0.461677
0.462584
0.463899
0.495275
0.55251
0.597444
0.621355
0.628259
0.624452
0.604849
0.57445
0.538877
0.505632
0.482654
0.470461
0.464998
0.466934
0.474272
0.477174
0.475868
0.469814
0.460703
0.468246
0.449468
0.444021
0.444058
0.446794
0.45669
0.471029
0.479017
0.480329
0.475581
0.466295
0.463113
0.483141
0.513396
0.532089
0.537374
0.532805
0.517131
0.498192
0.482087
0.472664
0.46814
0.463502
0.45871
0.457535
0.46253
0.471053
0.47546
0.475364
0.466114
0.449692
0.443924
0.443937
0.449536
0.467249
0.490373
0.503813
0.510766
0.510377
0.504358
0.479877
0.462908
0.461044
0.469622
0.477508
0.479539
0.477016
0.471644
0.466926
0.463693
0.462029
0.461355
0.459403
0.455732
0.453159
0.45424
0.460368
0.4692
0.475285
0.472734
0.44394
0.443941
0.45139
0.478322
0.506493
0.519662
0.521559
0.521715
0.521715
0.521714
0.489594
0.461552
0.454102
0.455742
0.458403
0.458817
0.458359
0.457822
0.457165
0.456465
0.456077
0.456175
0.45563
0.453475
0.451128
0.450455
0.452848
0.459593
0.470396
0.47262
0.443987
0.451726
0.479467
0.514189
0.519719
0.52018
0.521051
0.518832
0.518143
0.519689
0.485413
0.453275
0.447266
0.449176
0.451193
0.451649
0.451767
0.45192
0.45192
0.451764
0.451689
0.451931
0.452026
0.451111
0.44955
0.448575
0.449158
0.452524
0.462005
0.472579
0.451728
0.479328
0.497566
0.500126
0.499545
0.495836
0.501025
0.506749
0.509758
0.496158
0.459494
0.442053
0.441956
0.444843
0.446565
0.447184
0.447573
0.447884
0.448075
0.44815
0.448238
0.448513
0.448815
0.448625
0.447873
0.447194
0.447252
0.448745
0.45466
0.469415
0.467458
0.497865
0.497887
0.493832
0.467356
0.457319
0.46776
0.469253
0.466246
0.452509
0.438723
0.436503
0.439381
0.441985
0.443279
0.443976
0.444485
0.444859
0.445123
0.445306
0.445474
0.445737
0.446069
0.446216
0.44604
0.445816
0.44597
0.44692
0.450569
0.463415
0.484633
0.497884
0.481377
0.457337
0.443322
0.441546
0.444067
0.440938
0.437387
0.433543
0.43356
0.4361
0.43874
0.440361
0.441256
0.44189
0.44236
0.442692
0.442923
0.443092
0.443247
0.443459
0.443745
0.444001
0.44414
0.444291
0.444749
0.445861
0.448904
0.458841
0.48464
0.473984
0.447884
0.435723
0.433084
0.433012
0.432546
0.432071
0.432106
0.433224
0.434806
0.437195
0.439019
0.439941
0.440457
0.440847
0.441105
0.441271
0.441366
0.441422
0.441482
0.441594
0.441786
0.442024
0.44227
0.442621
0.44333
0.444781
0.448024
0.456511
0.475422
0.445406
0.432132
0.429272
0.42929
0.429798
0.430893
0.432071
0.433676
0.435963
0.437859
0.439189
0.439943
0.440353
0.440627
0.440705
0.440642
0.440533
0.44038
0.44024
0.440134
0.440101
0.440159
0.440302
0.440519
0.440897
0.441685
0.443359
0.447002
0.455109
0.459115
0.432226
0.427896
0.427877
0.428474
0.430994
0.434227
0.437195
0.439793
0.441266
0.441793
0.44175
0.441541
0.44137
0.441232
0.441035
0.440793
0.440425
0.439965
0.439534
0.439178
0.438947
0.438842
0.438847
0.438956
0.439237
0.439934
0.441603
0.445517
0.453748
0.441789
0.427915
0.427861
0.427877
0.430786
0.438973
0.445551
0.449054
0.449315
0.447743
0.445971
0.444517
0.443468
0.442753
0.442217
0.441746
0.44126
0.440692
0.440067
0.439326
0.438634
0.438113
0.4378
0.43765
0.437624
0.437747
0.438233
0.439688
0.443571
0.451925
0.431621
0.427865
0.427847
0.429836
0.444929
0.468532
0.470089
0.467238
0.459838
0.453686
0.449518
0.446852
0.44517
0.444086
0.443311
0.44267
0.442028
0.44131
0.440473
0.439523
0.438533
0.437619
0.436998
0.436659
0.436506
0.436481
0.436711
0.43781
0.441355
0.449421
0.427851
0.427828
0.42798
0.451586
0.493449
0.509618
0.494585
0.481881
0.466459
0.456636
0.451204
0.448097
0.446229
0.445064
0.444264
0.443625
0.442992
0.442246
0.441287
0.440115
0.438794
0.437508
0.436428
0.43579
0.435501
0.435396
0.435426
0.436119
0.439101
0.446333
0.427831
0.427984
0.45068
0.52634
0.54455
0.525813
0.501491
0.480305
0.464829
0.455746
0.450893
0.448248
0.446674
0.445661
0.445003
0.444525
0.444069
0.443472
0.442574
0.441275
0.439599
0.437802
0.436176
0.435006
0.434453
0.434306
0.434293
0.434661
0.436962
0.44297
0.42797
0.452592
0.530451
0.572674
0.559308
0.521253
0.498302
0.475855
0.461324
0.453931
0.450171
0.448061
0.446784
0.446016
0.44559
0.445384
0.445257
0.445025
0.444448
0.443275
0.44136
0.438923
0.436512
0.434525
0.433355
0.432978
0.433054
0.433314
0.43497
0.439618
0.446007
0.539964
0.572671
0.57247
0.557286
0.513138
0.491751
0.469023
0.457399
0.452145
0.449428
0.447804
0.446808
0.446272
0.44611
0.446257
0.446616
0.447012
0.447144
0.446598
0.444882
0.44205
0.438472
0.435204
0.43279
0.431648
0.43155
0.431851
0.433015
0.436366
0.478922
0.572509
0.572455
0.57262
0.553581
0.508836
0.482557
0.462947
0.454686
0.450975
0.448899
0.447588
0.446805
0.446481
0.446598
0.447175
0.448207
0.449599
0.451068
0.452094
0.451714
0.450103
0.445532
0.439882
0.43464
0.43148
0.430396
0.430379
0.431076
0.433231
0.504425
0.572416
0.569217
0.572421
0.541199
0.51
0.474278
0.459078
0.45309
0.450228
0.448498
0.447381
0.446758
0.446622
0.447028
0.448108
0.45002
0.452861
0.456601
0.460884
0.464733
0.469061
0.465685
0.457505
0.445321
0.435293
0.430585
0.429656
0.429652
0.430696
0.509201
0.572456
0.55831
0.570029
0.525018
0.503252
0.467571
0.456542
0.451985
0.449622
0.448112
0.447129
0.446619
0.446617
0.447292
0.448916
0.451852
0.456486
0.463235
0.471667
0.483542
0.496333
0.497112
0.492771
0.481042
0.453717
0.436686
0.430188
0.429434
0.429439
0.511282
0.560563
0.532176
0.54738
0.515003
0.486614
0.461958
0.454479
0.451018
0.44903
0.447682
0.44678
0.446314
0.446363
0.447164
0.449229
0.45308
0.459262
0.468277
0.478353
0.493913
0.509853
0.518552
0.524752
0.527847
0.498728
0.462024
0.437911
0.43036
0.42943
0.519401
0.536512
0.499193
0.493708
0.491407
0.469983
0.457143
0.452616
0.450075
0.448406
0.447173
0.446279
0.445751
0.445691
0.446388
0.448335
0.452014
0.456944
0.462005
0.471051
0.484396
0.497205
0.514243
0.528031
0.533243
0.528727
0.505298
0.459456
0.43957
0.430428
0.514652
0.486877
0.458943
0.458834
0.465867
0.457635
0.453412
0.450961
0.449153
0.447742
0.446564
0.445596
0.444876
0.444491
0.44469
0.445872
0.448059
0.449642
0.44827
0.450544
0.460117
0.482614
0.500989
0.512396
0.533221
0.532514
0.504698
0.464329
0.460565
0.438265
0.484739
0.452269
0.452209
0.452225
0.453335
0.452067
0.451074
0.449658
0.4483
0.447052
0.445871
0.444767
0.44377
0.442927
0.442429
0.442582
0.443273
0.443632
0.441943
0.44016
0.443064
0.452776
0.467577
0.49835
0.522749
0.511376
0.4735
0.45212
0.460571
0.447468
0.455708
0.452205
0.452215
0.452535
0.452173
0.450634
0.449828
0.448679
0.44752
0.446355
0.445144
0.4439
0.442642
0.441385
0.440315
0.43977
0.439711
0.439846
0.440693
0.438518
0.437194
0.438128
0.443415
0.459302
0.486603
0.488188
0.451583
0.444582
0.457207
0.453977
0.452207
0.452216
0.452241
0.461961
0.453837
0.450378
0.448871
0.447766
0.446746
0.445661
0.444445
0.443115
0.44169
0.440175
0.438758
0.437818
0.437257
0.436987
0.438663
0.438123
0.436406
0.434881
0.435015
0.438608
0.45002
0.462407
0.456968
0.444418
0.450365
0.454145
0.452204
0.453285
0.475908
0.475023
0.456337
0.449663
0.447575
0.446663
0.4459
0.444972
0.443819
0.442486
0.441012
0.439398
0.437832
0.436695
0.435847
0.435203
0.436134
0.436842
0.435995
0.434758
0.433394
0.432928
0.435618
0.443369
0.450359
0.44353
0.445086
0.454176
0.452258
0.505039
0.491161
0.476294
0.455253
0.447633
0.445639
0.445293
0.444985
0.444316
0.443295
0.442032
0.440602
0.439018
0.437494
0.436314
0.435352
0.434639
0.434591
0.435183
0.43546
0.435094
0.434301
0.432864
0.4322
0.434174
0.439319
0.439143
0.440581
0.45296
0.467286
0.505719
0.486895
0.47239
0.451737
0.44433
0.443321
0.443869
0.444163
0.443792
0.442918
0.44175
0.440406
0.438941
0.437607
0.436499
0.435462
0.434625
0.434369
0.434402
0.434837
0.434904
0.43485
0.434211
0.432164
0.431342
0.432897
0.434278
0.436533
0.447434
0.5033
0.505737
0.477141
0.464116
0.446195
0.440735
0.441369
0.442943
0.443754
0.443557
0.442759
0.441638
0.440366
0.439014
0.437815
0.436812
0.435673
0.434719
0.434318
0.43419
0.434224
0.434309
0.434571
0.434526
0.433877
0.431313
0.430724
0.431292
0.433149
0.440028
0.551844
0.503009
0.467289
0.452766
0.440335
0.438386
0.440607
0.443066
0.443961
0.443708
0.442847
0.441683
0.440419
0.43915
0.43805
0.437126
0.435898
0.434741
0.434143
0.433885
0.433565
0.43341
0.433837
0.434303
0.434257
0.43241
0.430468
0.429954
0.430826
0.434429
0.575837
0.492534
0.454199
0.44178
0.437062
0.438198
0.441249
0.443978
0.444802
0.444259
0.443133
0.441814
0.440517
0.439313
0.438273
0.437387
0.436099
0.434772
0.433829
0.433332
0.432784
0.432114
0.432389
0.433182
0.434013
0.43374
0.430886
0.429504
0.429488
0.431274
0.555205
0.469723
0.441062
0.436882
0.436949
0.439221
0.442983
0.446155
0.446571
0.445309
0.443612
0.441989
0.440599
0.439462
0.438523
0.437685
0.436406
0.434959
0.433626
0.432711
0.432034
0.430811
0.430453
0.430819
0.431916
0.432811
0.430904
0.429066
0.428378
0.429314
0.504632
0.447929
0.436802
0.436803
0.437602
0.441304
0.445912
0.450021
0.449428
0.446752