/*--------------------------------*- C++ -*----------------------------------*\
| =========                 |                                                 |
| \\      /  F ield         | OpenFOAM: The Open Source CFD Toolbox           |
|  \\    /   O peration     | Version:  v1606+                                |
|   \\  /    A nd           | Web:      www.OpenFOAM.com                      |
|    \\/     M anipulation  |                                                 |
\*---------------------------------------------------------------------------*/
FoamFile
{
    version     2.0;
    format      ascii;
    class       volScalarField;
    location    "54";
    object      p_rgh;
}
// * * * * * * * * * * * * * * * * * * * * * * * * * * * * * * * * * * * * * //

dimensions      [1 -1 -2 0 0 0 0];

internalField   nonuniform List<scalar> 
5080
(
427235
427247
427280
427332
427402
427486
427584
427690
427806
427925
428050
428171
428293
428402
428509
428595
428671
428721
428746
428745
427118
427142
427180
427234
427302
427388
427483
427592
427705
427827
427945
428068
428178
428293
428380
428481
428531
428611
428627
428676
426942
426961
426997
427050
427119
427203
427299
427406
427520
427639
427759
427879
427995
428104
428206
428295
428378
428431
428498
428528
426680
426698
426733
426785
426854
426937
427032
427138
427251
427369
427488
427607
427723
427830
427931
428015
428088
428138
428179
428221
426350
426367
426402
426453
426520
426602
426695
426799
426910
427026
427143
427260
427372
427478
427573
427660
427729
427805
427830
427897
425961
425978
426011
426061
426126
426205
426297
426397
426506
426619
426733
426847
426958
427062
427160
427240
427315
427349
427409
427411
425522
425538
425570
425618
425681
425757
425844
425941
426045
426154
426264
426374
426478
426578
426664
426748
426803
426894
426895
427003
425043
425058
425088
425133
425192
425263
425346
425437
425536
425638
425742
425845
425945
426039
426129
426197
426276
426275
426372
426313
424531
424545
424572
424614
424668
424734
424809
424893
424983
425076
425171
425265
425353
425437
425504
425576
425603
425718
425668
425853
423995
424007
424032
424068
424116
424175
424241
424315
424394
424475
424557
424636
424713
424782
424853
424896
424978
424917
425077
424910
423443
423453
423474
423505
423545
423594
423650
423710
423774
423838
423902
423963
424017
424066
424096
424139
424108
424250
424102
424417
422883
422891
422907
422931
422962
422999
423041
423085
423129
423173
423212
423246
423275
423294
423315
423308
423375
423216
423464
423106
422323
422328
422339
422355
422375
422398
422423
422447
422467
422483
422491
422491
422479
422455
422411
422377
422238
422381
422051
422584
421769
421772
421776
421783
421791
421798
421803
421803
421795
421777
421746
421698
421634
421552
421462
421347
421332
421024
421360
420655
421229
421228
421226
421223
421218
421207
421190
421162
421121
421063
420982
420877
420743
420580
420385
420175
419832
419856
419166
420051
420708
420704
420695
420682
420662
420632
420591
420533
420454
420349
420211
420035
419813
419543
419227
418870
418584
418026
418334
416915
420212
420204
420189
420164
420129
420081
420014
419924
419805
419648
419445
419186
418859
418454
417960
417378
416626
416136
414667
415885
419745
419733
419711
419676
419627
419558
419467
419344
419183
418973
418700
418349
417900
417330
416616
415751
414738
413502
413338
409816
419309
419295
419266
419221
419158
419071
418956
418802
418601
418337
417994
417548
416965
416216
415235
413983
412340
410279
407189
405976
418908
418891
418856
418802
418727
418624
418486
418305
418066
417755
417345
416809
416098
415157
413901
412184
409993
406397
404584
389731
256447
262265
252279
223849
181418
137170
101212
75319.9
58138.9
47663.3
41097.2
36601.9
33587.1
31888.8
30761.1
30262.8
30116
30174.8
30146.6
29943.7
29632.3
29095.5
28726
28565.3
28557.2
28717.3
28964.3
29201.9
29313.1
29281.7
29182.9
29017.1
28856.6
28776.8
28875.3
29059.8
29375.2
29686.9
29863
29856.2
29720.5
29529.2
29331.7
29144
28974.2
28833.8
28845.2
29021
29350.6
29771.2
30014.1
30029.5
29792.1
29339.4
28913.6
28601.4
28558.1
28752.6
29059.3
29459.1
254830
256926
246461
220733
180833
137363
101318
75313.7
57980
47199.6
40400.9
35847.2
32948.9
31283
30531.6
30145.7
30055.2
29957.6
30028.9
29862.1
29437.8
29090.2
28729.5
28567.2
28537.2
28603.8
28812.9
29056.5
29218.8
29242.2
29220.1
29098.8
28943.1
28823.3
28790.2
28950
29241.5
29590.9
29836.6
29917.2
29836.4
29669.1
29470.6
29264.8
29067.5
28874.6
28839.7
28967.9
29262.2
29709.3
29996.9
30078.3
29935.2
29512.4
29096.3
28744.7
28645.4
28775
28997.3
29465.1
251011
250649
238406
213879
176122
134010
99161.7
74152.9
57352.9
46639.8
39760
35292.2
32552.7
31003.8
30279.7
30034
30119.6
30299.3
30231
30041.2
29689.6
29168.6
28741.3
28580.9
28533.8
28586.3
28752.9
29011
29214.1
29323.6
29301.7
29197
29039.9
28886.5
28802.4
28879.3
29143.4
29539
29847.3
29982.3
29947.3
29794.7
29602.7
29392.1
29161.1
28904.4
28784.6
28867
29134.5
29627.9
29991.1
30131.9
30051.1
29654.8
29197.2
28814.5
28665.3
28696.6
28940.6
29505.3
243001
240846
226475
201418
164469
123825
91359.9
68945.9
54372.2
44732.3
38019.4
33699.8
31301.8
30115.1
29655.2
29627.8
29960.3
30306.2
30402.5
30236.6
29839.4
29192.2
28621.8
28492.3
28459.9
28510.7
28687.6
29005
29229.6
29340
29340.7
29223
29057.2
28887.9
28770.9
28810
29069.2
29532.8
29889.1
30043.5
30027.2
29865.1
29696.7
29499.1
29236.6
28899.8
28702.4
28745.9
29012.9
29608.2
30059.3
30232.8
30179.1
29744.8
29154
28765.4
28619.1
28657.7
29009.7
29654.9
230599
227177
210452
183167
144953
105554
76828.8
58221.6
47912.2
41128.4
35402.5
31196.6
28807.4
28054.9
27987.8
28548.5
29432.6
30281.7
30684
30591.1
30031.8
29187.6
28265.8
28209.9
28233.4
28178.8
28174.4
28662.8
29025.9
29305.5
29403
29187.7
28958.2
28762.4
28619
28601.7
28891.1
29596.1
30057.7
30140.8
30081.3
29852.3
29731.8
29581.6
29275.7
28771.4
28427.4
28405.5
28732.2
29698.2
30341.5
30493.4
30387.4
29763.2
28800.6
28363.5
28257.9
28245
29006.5
29863.3
214236
210480
191465
160381
117603
78779.8
55455.4
41093.8
31408.6
25855.6
20332.1
14521
9760.56
9402.36
10065
12182.3
16430.1
22288.1
27315.5
29099.8
27489.1
17556.5
9284.08
8953.33
9150.91
9847.31
12327.1
17082.3
20162.2
20315.4
19173.8
16599.5
14313.9
12464.5
11174.9
11230
13517.3
19702.2
23818.3
23805.1
21962
19211.6
18630.8
18258.4
16247.9
11798.6
9319.4
9549.69
12874.4
21108.2
27239.6
28172.2
26782.5
19046.1
9864.72
7549.71
7337.54
8437.61
15756.2
23951
195686
192410
172032
136118
84592.5
41745.4
23326.7
11833.4
675.505
51.458
35.1406
22.4208
17.5739
11.1078
6.36291
4.60042
4.61535
1.20418
-1.02215
-3.00428
30.2799
30.2684
10.2581
10.7501
10.4228
9.97069
7.32452
1.77819
-1.47767
-3.47156
58.9533
67.14
35.436
11.6236
13.0092
12.9603
9.8857
1.87861
27.9051
276.983
477.055
473.937
402.773
254.576
82.1188
19.0847
19.6668
18.0193
14.1474
6.46323
1.96923
6.4839
144.557
133.799
27.5084
22.9364
23.7453
25.4351
18.2388
13.6508
177166
174039
154094
112755
44632.2
4930.88
90.4674
29.9793
28.5435
33.1514
22.4267
20.0996
18.1166
15.0569
12.3487
10.6705
9.46956
7.72887
5.08947
1.76941
0.610555
4.03125
6.91195
8.40849
9.41351
9.54295
8.20974
5.27609
1.70242
-2.52514
-2.80498
3.67893
9.05077
10.3514
9.74227
8.54328
6.46182
0.404246
-8.88914
-13.6822
-8.93066
-2.16676
4.56965
14.0334
19.6413
18.7578
16.2708
14.5304
12.9716
9.21834
4.49163
-2.19594
-1.75104
10.8221
18.0768
17.6668
17.8807
18.9349
17.4748
16.0084
160452
156755
138277
88870.5
10549.1
409.326
81.3999
63.2664
44.5528
35.8196
24.9471
18.8488
15.214
11.5119
8.41917
6.50702
5.60177
4.70605
3.48619
1.68852
0.634032
3.24947
5.99378
7.64326
8.57685
8.54494
7.33813
4.85088
1.95866
-1.00971
-1.20698
2.5576
6.73069
8.69935
9.1962
8.83364
6.28089
1.2937
-5.18279
-8.26153
-6.09865
-2.24912
2.688
9.34075
14.8286
16.3
15.6782
14.9372
12.4479
8.91087
4.7232
0.312339
0.851377
8.67011
14.9287
16.7592
17.8892
18.7564
17.3084
15.9379
146410
142529
125239
60500.7
3333.08
186.555
95.6339
41.1761
17.1538
15.7156
16.4578
14.7896
12.1571
9.59242
7.80209
6.92641
6.18795
5.3694
4.13413
2.51906
1.98061
3.16995
5.29853
6.82889
7.67828
7.74885
6.76864
4.78937
2.44985
0.280383
-0.0947052
2.13777
5.28428
7.35637
8.16714
7.88318
5.85379
1.86504
-3.15566
-6.141
-5.37938
-2.37904
1.9583
7.4334
12.1611
14.325
14.5235
13.7832
11.6948
8.67914
5.29879
2.30178
2.79129
7.93852
13.044
15.5936
16.9565
17.6456
16.6263
15.637
134971
131343
116091
45697.7
1589.4
115.321
80.4411
33.0382
7.4556
6.76672
10.2998
10.8357
9.32421
7.55399
6.32185
5.70622
5.34833
4.83135
3.96532
2.89465
2.39959
3.18418
4.74821
6.05842
6.83464
6.96554
6.24308
4.73211
2.87896
1.20771
0.784005
2.24723
4.44813
6.23427
7.08581
6.89576
5.28069
2.0855
-1.89816
-4.51955
-4.34636
-2.03907
1.66496
6.23519
10.2646
12.503
13.0776
12.5608
10.9342
8.51885
5.83146
3.69407
4.15873
7.76507
11.7244
14.2206
15.6514
16.368
15.849
15.2708
126071
121997
106993
40945.8
1146.6
69.0376
55.6338
26.4518
5.49656
2.62883
5.46468
7.01652
6.56239
5.5121
4.80639
4.548
4.47252
4.24804
3.72399
2.99547
2.63608
3.17436
4.31536
5.38019
6.05723
6.21083
5.69202
4.55611
3.12262
1.83951
1.43028
2.31985
3.90114
5.3384
6.12081
6.00152
4.70924
2.18294
-0.917977
-3.07408
-3.19406
-1.47558
1.52941
5.27883
8.69254
10.8389
11.6384
11.3834
10.1659
8.27931
6.19378
4.69
5.11423
7.69043
10.7314
12.9824
14.408
15.1807
15.0331
14.8047
120170
115200
98881.5
34248
486.181
36.9032
35.0208
19.5714
4.82317
1.21438
2.49369
4.06918
4.28486
3.81394
3.50045
3.49162
3.61158
3.60611
3.34721
2.91122
2.70814
3.10154
3.93594
4.77304
5.34216
5.49952
5.13714
4.29959
3.21886
2.24882
1.88429
2.4165
3.52631
4.63491
5.29125
5.21445
4.1928
2.22816
-0.154203
-1.88744
-2.14644
-0.900635
1.49526
4.53575
7.40513
9.38748
10.2996
10.2622
9.39504
7.96802
6.40663
5.37252
5.74392
7.61839
9.97028
11.9244
13.2722
14.0697
14.1851
14.255
117457
111727
93024.2
13413.6
-13.0126
26.4792
20.4298
12.4017
3.44129
0.769205
1.11345
2.29363
2.77451
2.65375
2.56343
2.66202
2.86752
2.98607
2.91815
2.7117
2.646
2.95884
3.57671
4.22513
4.69257
4.84698
4.60703
4.00558
3.21026
2.48827
2.18126
2.49362
3.257
4.08069
4.59599
4.53856
3.73974
2.22839
0.410531
-0.957929
-1.25181
-0.345809
1.54005
3.98783
6.3774
8.1526
9.09259
9.22254
8.65166
7.61807
6.49134
5.80007
6.12701
7.5218
9.35194
11.0037
12.2305
13.0277
13.329
13.6435
117578
111923
89795.9
9783.05
-2.10571
29.7476
12.2826
7.20725
2.1099
0.751694
0.770258
1.52667
2.00767
2.0265
2.02391
2.12118
2.31825
2.47391
2.51959
2.46794
2.50198
2.76676
3.23359
3.73413
4.11384
4.26227
4.11652
3.69867
3.12819
2.60111
2.35448
2.53302
3.04855
3.64034
4.02298
3.97058
3.34988
2.19724
0.821245
-0.238077
-0.510091
0.156522
1.63178
3.5914
5.56526
7.11954
8.03486
8.28543
7.95626
7.2477
6.46865
6.02948
6.32446
7.38458
8.81505
10.1888
11.2787
12.055
12.4822
12.9821
119892
114284
91631
13894.3
30.8394
27.0794
10.3295
5.93209
2.09752
1.34944
1.10145
1.44441
1.77929
1.78991
1.7945
1.83735
1.97612
2.10992
2.20435
2.23858
2.33126
2.55993
2.91902
3.3056
3.61226
3.75199
3.67599
3.39765
3.00045
2.6247
2.43476
2.53323
2.87471
3.28643
3.55586
3.50198
3.02192
2.15076
1.11973
0.315982
0.0912773
0.591362
1.74416
3.30777
4.92817
6.26796
7.12805
7.45796
7.31762
6.86895
6.362
6.10922
6.3819
7.20419
8.3283
9.45945
10.411
11.1482
11.6527
12.2805
123580
117680
95761
37672.5
71.4172
19.8671
11.5278
7.02649
3.48483
2.52028
1.77801
1.69176
1.82867
1.77494
1.76131
1.7408
1.81497
1.89681
1.99628
2.0623
2.17809
2.37174
2.64981
2.94778
3.19383
3.32196
3.29461
3.11888
2.85158
2.59076
2.44978
2.50117
2.72222
2.99914
3.17844
3.12193
2.75247
2.10048
1.33709
0.740191
0.570961
0.956413
1.8601
3.10643
4.43119
5.57353
6.36211
6.73769
6.73901
6.49239
6.19435
6.07905
6.33582
6.98622
7.8746
8.79966
9.61871
10.3027
10.846
11.5506
128301
122183
102590
61371.8
49.3058
6.4226
10.302
8.08353
4.82933
3.64375
2.45547
2.00236
1.9289
1.81731
1.80093
1.75313
1.79255
1.81778
1.90255
1.96144
2.07226
2.22648
2.43888
2.66603
2.86094
2.9745
2.97818
2.8747
2.70141
2.5252
2.42364
2.44765
2.58638
2.76543
2.8769
2.81933
2.53671
2.05406
1.49685
1.06443
0.949359
1.25611
1.96917
2.96367
4.04425
5.011
5.72173
6.11749
6.22085
6.127
5.98613
5.97119
6.21567
6.73936
7.44506
8.19743
8.89365
9.5149
10.0674
10.806
133798
127448
114522
64799.7
-3.75879
-1.51742
4.62584
6.97655
4.94213
4.0665
2.81476
2.21151
2.00943
1.8392
1.7955
1.74402
1.79432
1.81169
1.89248
1.93821
2.02851
2.13985
2.29493
2.46214
2.61146
2.7071
2.72759
2.67205
2.56398
2.44787
2.37613
2.38419
2.46724
2.57713
2.63996
2.58376
2.36918
2.0164
1.61671
1.31283
1.24565
1.49788
2.06565
2.8616
3.74269
4.55721
5.19034
5.58813
5.76143
5.77953
5.75413
5.81101
6.04475
6.47307
7.03609
7.6448
8.22951
8.78262
9.32182
10.06
139971
133381
123371
53591.1
-27.7928
-1.93403
0.0595549
4.54648
3.88147
3.6703
2.71336
2.19096
1.98584
1.82359
1.78989
1.7234
1.75329
1.77628
1.86904
1.93087
2.01773
2.10631
2.21705
2.33448
2.4424
2.51639
2.54148
2.51396
2.44804
2.37252
2.32188
2.32032
2.3661
2.42839
2.45796
2.40539
2.24402
1.99005
1.70955
1.50438
1.47677
1.69044
2.1475
2.78766
3.50723
4.19222
4.7519
5.13928
5.35722
5.45425
5.51115
5.61789
5.84125
6.19643
6.64727
7.13702
7.62192
8.10471
8.61368
9.32484
146731
139899
130480
50536.3
-12.0513
3.16225
-1.25317
2.72811
2.61839
2.86563
2.30482
1.97346
1.86421
1.73051
1.72986
1.69354
1.73866
1.75193
1.82645
1.88483
1.97365
2.06247
2.16124
2.25582
2.33922
2.39566
2.41763
2.40315
2.36095
2.30985
2.27184
2.26313
2.28374
2.31399
2.32189
2.27457
2.15473
1.97546
1.78433
1.65368
1.65711
1.8427
2.21517
2.73346
3.32306
3.89923
4.39146
4.76022
5.00327
5.1531
5.2664
5.40621
5.61911
5.91738
6.2797
6.67137
7.06795
7.4807
7.94706
8.61106
153958
146950
137772
53706.4
8.76629
7.29897
0.168697
2.33604
1.91166
2.14456
1.82629
1.6758
1.67919
1.60813
1.65347
1.63413
1.68982
1.71565
1.79753
1.85064
1.92571
1.9972
2.08332
2.17014
2.24875
2.30602
2.33353
2.33154
2.305
2.26787
2.23581
2.22002
2.22259
2.23072
2.22448
2.18276
2.09478
1.97152
1.84666
1.77133
1.79808
1.96254
2.27009
2.69311
3.17854
3.66395
4.09537
4.4404
4.69383
4.87621
5.026
5.18621
5.38859
5.64225
5.93482
6.24626
6.56578
6.91087
7.32587
7.92785
161610
154457
145282
57730.4
22.187
11.2939
2.6347
3.08879
1.85557
1.73064
1.45836
1.40393
1.48534
1.46467
1.56165
1.58021
1.65066
1.67606
1.74702
1.79821
1.87319
1.94421
2.01764
2.0904
2.15606
2.21092
2.24669
2.26069
2.25414
2.23378
2.21088
2.19353
2.18432
2.17784
2.16239
2.12548
2.06036
1.97791
1.90092
1.86528
1.90835
2.05626
2.31355
2.66196
3.06398
3.47404
3.85132
4.16981
4.42283
4.62244
4.79365
4.96487
5.15686
5.37563
5.61387
5.86082
6.11464
6.39646
6.75435
7.28336
169567
162275
152722
58582.9
21.9629
17.6177
5.59099
4.47424
2.21659
1.63264
1.27846
1.22824
1.34573
1.35967
1.47843
1.51013
1.59583
1.63381
1.70446
1.75015
1.81399
1.87737
1.94743
2.01774
2.08137
2.13197
2.16763
2.18549
2.18903
2.18224
2.17125
2.16081
2.15226
2.14271
2.1265
2.09632
2.05015
1.99653
1.95278
1.944
1.99657
2.13031
2.3476
2.63683
2.97167
3.31914
3.64855
3.9393
4.1843
4.38976
4.57119
4.74655
4.92862
5.12059
5.31771
5.5147
5.71477
5.9398
6.23712
6.68395
177710
170380
160208
58033.7
13.3899
28.6323
9.74285
6.4991
2.93754
1.89221
1.3457
1.19822
1.2869
1.28309
1.42
1.46244
1.5482
1.58228
1.64888
1.69496
1.75835
1.81942
1.88284
1.94503
2.0036
2.05453
2.09413
2.11931
2.12955
2.12937
2.12283
2.11485
2.10826
2.10132
2.09086
2.07297
2.04668
2.01831
2.00111
2.01253
2.07123
2.19157
2.37665
2.61827
2.89812
3.19292
3.47964
3.74211
3.97348
4.17625
4.35951
4.53403
4.70694
4.87908
5.04687
5.20778
5.36699
5.5439
5.77805
6.13027
185867
178674
168170
61563.8
330.593
40.0804
14.1931
9.19092
4.0533
2.56509
1.70174
1.33113
1.33103
1.26866
1.38445
1.4122
1.49912
1.53462
1.59656
1.63986
1.69692
1.75582
1.8182
1.8798
1.93589
1.98414
2.02207
2.04898
2.06521
2.07221
2.07313
2.07015
2.06564
2.06075
2.05369
2.04406
2.03296
2.02492
2.02941
2.05851
2.12473
2.23758
2.39988
2.60573
2.84226
3.09329
3.3423
3.57658
3.78996
3.9831
4.16128
4.33069
4.4948
4.65289
4.8017
4.93974
5.07194
5.21213
5.38127
5.61772
193738
186859
177653
86794.7
5299.81
43.9093
12.1535
10.9133
5.0298
3.40785
2.24036
1.57375
1.44238
1.28199
1.3714
1.37955
1.44849
1.47821
1.53663
1.58334
1.6398
1.69702
1.75512
1.81236
1.86679
1.91525
1.95521
1.98437
2.00309
2.01309
2.0171
2.01822
2.01838
2.01843
2.01828
2.0174
2.0175
2.02314
2.0408
2.07985
2.14973
2.25687
2.40301
2.58414
2.79067
3.01021
3.23032
3.44065
3.6358
3.81579
3.98377
4.14375
4.29798
4.44541
4.5831
4.70957
4.82868
4.94809
5.06352
5.17967
201061
194663
187517
120926
12059
26.4128
4.10123
9.49141
4.94469
3.8222
2.66741
1.78823
1.56152
1.30262
1.35332
1.33987
1.39831
1.4244
1.47663
1.52338
1.57849
1.63602
1.69431
1.75041
1.8024
1.84835
1.88686
1.91715
1.93886
1.95321
1.96168
1.96644
1.96995
1.97351
1.97815
1.98482
1.9951
2.01207
2.04088
2.08752
2.15851
2.25904
2.39036
2.54988
2.73155
2.9263
3.12426
3.31759
3.50061
3.6713
3.83024
3.9803
4.12419
4.26215
4.39268
4.51509
4.63237
4.75114
4.86529
5.03738
207593
201878
195785
142807
19511.3
1.46179
-4.06328
4.97895
3.64033
3.35245
2.6865
1.804
1.59146
1.28707
1.31621
1.29152
1.33501
1.36267
1.41377
1.46455
1.51973
1.57626
1.6321
1.68637
1.73751
1.78346
1.82208
1.85242
1.87487
1.89057
1.90173
1.91044
1.91844
1.92724
1.9376
1.95051
1.96782
1.99225
2.02763
2.07886
2.15057
2.24599
2.36637
2.50956
2.67087
2.84404
3.02193
3.19835
3.36922
3.5319
3.68618
3.83246
3.97119
4.10291
4.2287
4.3499
4.46985
4.59688
4.73191
4.98443
213035
208302
203319
158653
26793.7
-18.1346
-9.74906
-0.305032
1.57163
2.08074
2.17482
1.5221
1.45853
1.19042
1.23103
1.21842
1.26427
1.29848
1.34785
1.40192
1.45869
1.51632
1.57234
1.62528
1.6742
1.7178
1.75526
1.7859
1.80991
1.82812
1.84201
1.85363
1.86488
1.87727
1.89218
1.91076
1.93439
1.96522
2.00599
2.05999
2.13064
2.22059
2.33062
2.45974
2.60478
2.76087
2.92288
3.08536
3.24423
3.39716
3.54369
3.68469
3.82051
3.95149
4.07733
4.19926
4.32022
4.4473
4.57344
4.78423
217082
213727
210282
173905
32881.6
-25.1378
-11.3654
-4.2658
-0.633957
0.392239
1.24937
0.971634
1.1542
1.01298
1.09882
1.11984
1.17758
1.22682
1.28281
1.3409
1.39874
1.45542
1.51046
1.56271
1.61109
1.65397
1.69035
1.72012
1.7438
1.76285
1.77896
1.79383
1.80905
1.82581
1.84509
1.86799
1.8959
1.9305
1.97418
2.02954
2.09905
2.18457
2.28674
2.40456
2.53569
2.67673
2.82367
2.97281
3.12088
3.26572
3.40571
3.53996
3.66904
3.79467
3.91844
4.04025
4.15944
4.28006
4.38499
4.53271
219474
217852
216480
188334
38868.5
-19.2053
-9.00073
-6.1391
-2.46386
-1.35108
0.15358
0.291898
0.747853
0.784864
0.938561
1.00487
1.08429
1.15003
1.21478
1.27812
1.33872
1.39621
1.45067
1.50119
1.54726
1.58818
1.62345
1.65303
1.67748
1.69789
1.71582
1.73296
1.75076
1.77055
1.79336
1.82008
1.8518
1.88982
1.93573
1.99144
2.05887
2.13944
2.23383
2.34167
2.46134
2.59028
2.7253
2.86288
3.00016
3.13517
3.2671
3.39538
3.5196
3.63917
3.75488
3.86839
3.9793
4.09119
4.17986
4.29547
220052
220361
221679
202075
46613.6
-10.5803
-4.69636
-6.69737
-3.64312
-2.80414
-0.86366
-0.343605
0.341756
0.565922
0.784984
0.88896
0.994841
1.0761
1.15043
1.21673
1.27849
1.33586
1.38986
1.43961
1.48447
1.52365
1.55712
1.58524
1.60917
1.63031
1.65009
1.66994
1.69094
1.71393
1.73969
1.76903
1.80283
1.84231
1.88895
1.94429
2.0098
2.08658
2.17495
2.27445
2.3839
2.50139
2.62477
2.75163
2.87963
3.00662
3.1307
3.25099
3.36783
3.48159
3.59175
3.69739
3.79802
3.89662
3.97403
4.06696
218840
221088
225767
215852
58688.2
-7.64134
-1.3166
-7.14213
-4.43096
-3.78818
-1.62265
-0.789615
0.0231298
0.400251
0.671306
0.795034
0.918678
1.0085
1.0891
1.15832
1.22086
1.27771
1.33004
1.37748
1.42006
1.45734
1.48957
1.51719
1.54122
1.56302
1.58397
1.60535
1.62826
1.65351
1.6817
1.71343
1.74935
1.79023
1.83714
1.89134
1.954
2.02618
2.10843
2.20059
2.30179
2.4104
2.52424
2.64116
2.75924
2.87715
2.99369
3.10759
3.21765
3.32329
3.42518
3.52304
3.61491
3.70228
3.76736
3.84334
216092
220338
228798
229355
77347.1
-12.433
-0.842609
-8.50498
-5.18393
-4.32519
-2.0581
-0.976557
-0.134523
0.322875
0.60921
0.738938
0.863634
0.954353
1.03464
1.10311
1.16456
1.2202
1.27107
1.31649
1.3566
1.39124
1.42119
1.44742
1.47117
1.49375
1.51633
1.53977
1.56477
1.59186
1.6215
1.6542
1.69065
1.73169
1.77827
1.83141
1.892
1.96066
2.0377
2.12301
2.216
2.31572
2.42069
2.52918
2.63921
2.74894
2.85709
2.96308
3.06638
3.16594
3.26079
3.35005
3.43238
3.50937
3.56636
3.62869
212150
219944
231103
241128
101060
-22.1517
-3.87716
-10.7861
-6.17562
-4.61462
-2.25261
-0.96665
-0.126659
0.344146
0.604372
0.72816
0.830715
0.914908
0.989421
1.05394
1.11204
1.16448
1.2122
1.2546
1.29203
1.32453
1.35287
1.37806
1.40136
1.42404
1.44722
1.47175
1.49816
1.52682
1.55793
1.59175
1.62873
1.6695
1.71492
1.76595
1.82351
1.88833
1.96072
2.04056
2.12716
2.21946
2.3162
2.41606
2.51777
2.61992
2.72102
2.81973
2.91516
3.0071
3.09484
3.17694
3.25139
3.31929
3.36836
3.42002
207962
223770
233419
249670
122548
-28.7926
-9.13788
-12.8941
-7.41314
-4.97339
-2.43112
-0.921768
-0.0547629
0.419547
0.636713
0.747794
0.817353
0.885989
0.949744
1.00884
1.06257
1.11128
1.15511
1.19352
1.22723
1.2567
1.28301
1.30723
1.33049
1.35376
1.37783
1.40328
1.43046
1.45963
1.49101
1.5249
1.5617
1.60201
1.64649
1.69587
1.75083
1.81195
1.87955
1.95368
2.03395
2.11959
2.20945
2.30213
2.39625
2.49062
2.5843
2.67623
2.76525
2.8503
2.9303
3.00453
3.07154
3.13192
3.17538
3.2188
204544
232385
236667
254993
135049
-17.7191
-13.5967
-13.7165
-8.72796
-5.70503
-2.85409
-1.03441
-0.0458961
0.478904
0.681789
0.77231
0.812143
0.86562
0.917381
0.968526
1.01613
1.05941
1.09852
1.13274
1.1628
1.18928
1.21336
1.23617
1.25878
1.28207
1.30663
1.33281
1.36073
1.39041
1.42192
1.45547
1.49145
1.53046
1.57321
1.62042
1.67275
1.73066
1.79432
1.86365
1.93825
2.01747
2.10049
2.18627
2.2736
2.36119
2.44782
2.5326
2.6148
2.69341
2.76718
2.83491
2.8952
2.94853
2.98671
3.02307
192666
237555
241128
259326
131946
438.522
-19.3221
-16.0805
-10.7023
-6.96037
-3.65438
-1.42426
-0.195304
0.452438
0.713145
0.790699
0.807629
0.849923
0.892342
0.93479
0.974189
1.01024
1.04306
1.072
1.09787
1.12132
1.14341
1.16505
1.18709
1.21017
1.23471
1.2609
1.28878
1.31829
1.34946
1.38246
1.41758
1.45534
1.49635
1.54126
1.59071
1.64516
1.70483
1.76966
1.83926
1.91298
1.98998
2.06931
2.15
2.23104
2.31132
2.38975
2.46532
2.53712
2.60433
2.66596
2.7204
2.768
2.80172
2.83304
110016
225680
249891
268801
103485
-90.5126
-38.2913
-31.9731
-15.7246
-8.74938
-4.75133
-2.06326
-0.503826
0.304009
0.678364
0.802098
0.804779
0.838172
0.87225
0.904054
0.93432
0.962738
0.988744
1.0119
1.03313
1.05314
1.0729
1.09314
1.11447
1.13726
1.16169
1.18771
1.21522
1.24411
1.27438
1.30621
1.33995
1.3761
1.41526
1.458
1.50485
1.55616
1.6121
1.67259
1.73734
1.80583
1.87731
1.95089
2.02557
2.10039
2.17443
2.24681
2.31654
2.38261
2.44399
2.49979
2.54872
2.59102
2.62111
2.64784
418543
418522
418482
418421
418335
418218
418062
417857
417587
417236
416771
416158
415342
414214
412768
410419
408014
401275
396946
375086
418206
418183
418139
418072
417978
417849
417679
417454
417163
416775
416282
415592
414756
413398
412040
408867
406775
398392
391846
371378
417897
417866
417823
417750
417653
417510
417336
417087
416799
416364
415898
415101
414369
412772
411650
408225
405943
399064
391035
382997
417617
417571
417538
417453
417364
417200
417042
416756
416501
416004
415613
414718
414107
412468
411350
408529
405630
401666
394615
391605
417361
417306
417286
417185
417112
416920
416793
416464
416263
415710
415380
414473
413862
412460
411115
409119
406216
404242
398997
395721
417134
417069
417064
416945
416894
416674
416578
416219
416044
415497
415140
414357
413619
412568
411150
409913
407424
405909
402072
398551
416942
416863
416872
416740
416697
416476
416366
416037
415807
415362
414900
414319
413520
412801
411461
410549
408511
406859
404116
401110
416767
416704
416688
416581
416497
416331
416155
415918
415618
415294
414781
414390
413584
413043
411871
410958
409357
407702
405648
403239
416611
416589
416537
416468
416352
416237
416026
415872
415526
415316
414791
414473
413737
413192
412215
411259
409997
408529
406849
404874
416497
416510
416435
416401
416265
416196
415969
415854
415513
415319
414837
414502
413871
413288
412486
411591
410535
409313
407901
406278
416419
416457
416374
416359
416224
416165
415951
415830
415526
415303
414899
414520
413991
413407
412704
411896
410957
409894
408669
407315
416341
416401
416338
416321
416213
416135
415964
415806
415567
415306
414908
413944
411937
407964
402031
391908
379201
356453
331338
286997
203380
206173
203508
203310
198645
195634
188555
181835
172211
161001
147711
132297
115468
96235.3
76907.2
55797
37314.3
18056.2
351.806
0.827119
94.5221
-0.602504
-0.186952
-0.197673
-0.134223
-0.181843
-0.162811
-0.219963
-0.202219
-0.278191
-0.240571
-0.34034
-0.206563
-0.411668
-0.627757
-2.1574
-2.51045
1.65092
3.98029
-0.822261
0.531503
0.358101
0.434409
0.276044
0.351621
0.265985
0.296487
0.231656
0.224071
0.129311
0.0822478
-0.046537
-0.175057
-0.233607
-0.730787
-1.54513
-1.95141
-5.67786
-2.63807
-0.563998
-0.529089
-0.328227
-0.244689
-0.216638
-0.197288
-0.240393
-0.256128
-0.316475
-0.352567
-0.419121
-0.463689
-0.534556
-0.625405
-0.758432
-1.01286
-0.779433
-0.458604
-1.58983
-0.215015
1.30318
0.200912
0.000149827
0.286052
0.0828265
0.219951
0.120645
0.170672
0.128802
0.125384
0.107327
0.0712803
0.0246074
-0.0248256
-0.300394
-0.285116
-1.42753
0.054767
-1.54512
-1.60412
-0.726231
-0.228309
-0.22306
-0.213558
-0.195958
-0.199458
-0.218838
-0.239743
-0.2786
-0.320259
-0.370845
-0.428358
-0.490693
-0.588439
-0.625852
-0.692078
-0.571296
-0.0877545
-0.585837
-0.834579
0.186015
0.0450185
-0.0167937
0.108002
0.0126006
0.0907657
0.0283313
0.0541544
0.0223298
0.0158028
-0.0103329
-0.0228419
-0.0917681
-0.0630375
-0.311589
-0.152819
-0.597934
-0.2984
-0.42521
-0.746383
-0.748612
-0.155305
-0.166502
-0.182866
-0.18514
-0.195721
-0.207067
-0.22487
-0.249536
-0.280219
-0.314717
-0.358258
-0.396165
-0.445066
-0.456012
-0.44868
-0.403762
-0.294552
-0.383093
-0.434661
-0.356036
0.020113
-0.00456562
0.0413998
-0.00230118
0.0271824
-0.00773459
-0.0013619
-0.0259762
-0.0331864
-0.0632687
-0.0702559
-0.13267
-0.118349
-0.245335
-0.190376
-0.346395
-0.331005
-0.386858
-0.459366
-0.558335
-0.152317
-0.165514
-0.182129
-0.189557
-0.204146
-0.216393
-0.235367
-0.25661
-0.283676
-0.310654
-0.343448
-0.367089
-0.393103
-0.399238
-0.395489
-0.387606
-0.359663
-0.387488
-0.392283
-0.404811
0.0303996
0.0104388
0.0354947
0.0079672
0.0197486
-0.00334634
-0.000619956
-0.0185964
-0.0191431
-0.0409073
-0.0387134
-0.0769628
-0.0707871
-0.137354
-0.149866
-0.247921
-0.302597
-0.388624
-0.482548
-0.572484
-0.153319
-0.183535
-0.209808
-0.217932
-0.238068
-0.251463
-0.275952
-0.300984
-0.33382
-0.36581
-0.404768
-0.429401
-0.464439
-0.460701
-0.473348
-0.440442
-0.399908
-0.354493
-0.283389
-0.241765
338652
333812
321288
324727
331396
341114
349099
359136
356372
362012
355475
350036
331440
310170
254353
334657
322247
327010
324851
329580
337687
346315
355342
355743
354783
354679
344154
336365
317341
303442
362739
352174
343911
338236
338657
344180
350201
355499
357071
356451
354159
348281
341053
330066
319673
380095
369173
361059
356102
354408
355397
357656
359574
360210
358912
356206
351821
346137
339229
332507
388738
380651
374231
369616
366615
365204
364844
364734
363917
362169
359389
355764
351448
346789
342345
393927
388366
383217
378906
375549
373118
371328
369832
368066
365865
363022
359780
356065
340434
248769
397648
393553
389383
385502
382159
379323
376848
374535
372133
369517
366574
355948
283449
119399
16.0951
400459
397173
393724
390321
387181
384249
381494
378821
376003
364958
298161
149599
2975.58
-23.3077
38.4368
402552
399796
396919
393926
391102
388204
385390
369391
300255
152094
4952.51
-31.3477
10.7384
4.0731
-1.71154
404322
401971
399375
396654
389660
352826
269866
124851
459.03
-30.5954
13.9637
4.605
-2.35238
-2.44697
2.31754
404387
389970
354103
292974
181638
40969.9
12.5844
-24.9962
9.56267
-1.2958
-3.79484
-4.57794
-0.339978
-2.95346
-3.19929
216472
119445
25117.2
11.9012
-11.7658
-12.3498
9.81208
-2.54789
-0.767221
-1.55323
1.90913
-0.920997
-0.316022
0.468587
-1.18833
-11.1214
-10.8321
-3.32381
4.26497
3.03162
-5.89399
-5.05879
-2.33404
0.11301
-1.23406
-1.22813
-0.957677
-1.32197
-2.06531
-3.48137
2.47353
1.23663
-4.38521
-2.19785
-2.00172
-1.38322
1.14451
-2.48256
0.454798
-0.345275
-0.17188
-0.33827
-0.345952
0.470399
-0.585783
-0.616602
-1.51484
0.132974
-0.208314
-0.279446
-1.29066
-0.448783
-1.4895
-1.00852
-0.800083
-1.22998
-1.05842
-1.34111
-1.91218
-2.76557
-0.182823
0.562889
-0.873357
-0.612078
-1.25213
-1.0433
-0.196763
-1.20576
-0.757457
-0.507514
-0.531062
-0.684357
-0.591734
-0.296248
-0.602493
-0.481382
-0.673731
-0.40646
-0.43414
-0.456136
-1.12312
-0.19319
-0.753396
-0.987152
-0.96439
-1.0522
-1.20685
-1.39415
-1.76385
-2.316
-0.314019
-0.0517994
-0.680971
-0.465468
-0.454081
-0.794595
-0.594397
-0.783666
-0.780331
-0.805443
-0.753432
-0.839392
-0.923235
-0.833401
-1.02438
-0.5658
-0.520454
-0.565605
-0.561065
-0.503191
-0.764918
-0.584238
-0.707129
-0.83324
-0.965462
-1.07687
-1.23103
-1.43765
-1.7152
-2.10374
-0.450087
-0.380434
-0.606679
-0.50655
-0.482443
-0.658211
-0.686736
-0.769943
-0.812282
-0.874404
-0.906322
-0.957736
-1.08758
-1.13832
-1.3282
-0.558884
-0.545215
-0.589769
-0.605476
-0.594612
-0.681002
-0.696559
-0.757854
-0.837205
-0.971341
-1.1233
-1.29017
-1.50739
-1.78817
-2.12992
-0.464253
-0.470693
-0.580094
-0.547296
-0.564017
-0.633108
-0.70099
-0.778948
-0.854258
-0.89131
-0.936086
-0.973767
-1.09447
-1.16081
-1.28583
-0.623034
-0.644579
-0.648574
-0.634067
-0.632921
-0.660295
-0.70175
-0.790077
-0.921701
-1.10776
-1.27104
-1.44425
-1.74325
-2.18341
-2.6406
-0.314249
-0.369518
-0.51897
-0.596962
-0.665224
-0.740908
-0.797899
-0.8293
-0.781916
-0.755722
-0.779762
-0.812178
-0.872268
-0.736919
-0.672092
191853
251190
282109
265567
84561
-110.037
-14.0636
-27.3086
-19.033
-9.49097
-5.19786
-2.3721
-0.627099
0.209232
0.573425
0.773222
0.825782
0.839594
0.854683
0.873459
0.896862
0.918231
0.937337
0.954709
0.971513
0.988349
1.00596
1.02484
1.04534
1.06761
1.09161
1.11717
1.1441
1.17222
1.20152
1.23217
1.2645
1.299
1.33624
1.3768
1.42114
1.46958