/*--------------------------------*- C++ -*----------------------------------*\
| =========                 |                                                 |
| \\      /  F ield         | OpenFOAM: The Open Source CFD Toolbox           |
|  \\    /   O peration     | Version:  v1606+                                |
|   \\  /    A nd           | Web:      www.OpenFOAM.com                      |
|    \\/     M anipulation  |                                                 |
\*---------------------------------------------------------------------------*/
FoamFile
{
    version     2.0;
    format      ascii;
    class       volScalarField;
    location    "3.5";
    object      alpha.water;
}
// * * * * * * * * * * * * * * * * * * * * * * * * * * * * * * * * * * * * * //

dimensions      [0 0 0 0 0 0 0];

internalField   nonuniform List<scalar> 
11640
(
1.00000003627
1.00000006162
1.00000019487
1.00000005356
1.00000013177
1.00000102517
1.00000003185
1.00000167302
1.00000005383
1.00000076024
1.00000005901
1
1.0000000008
0.999999999997
0.999999932686
0.999999876681
0.999999785024
0.999999999831
0.999999900647
0.999999950158
1.0000000626
1.00000005204
1.00000013309
1.00000022049
1.00000006692
1.000000131
1.00000111898
1.00000014065
1.00000022911
1.00000021454
1.00000009393
1.00000093062
0.999999996449
1.00000005895
0.999999997484
1.0000000018
1.00000000215
1.00000000107
1
0.999999951059
1.00000008278
1.00000000248
1.00000017264
1.00000000476
1.0000000874
1.0000000089
1.0000000628
1.00000043209
1.00000048067
1.00000009736
1.0000001453
1
0.999999960367
0.999999951202
0.999999932136
0.99999998658
0.99999995515
0.999999999963
1.00000000421
1.00000002137
0.999999964721
1.0000001581
0.999999990817
1.00000015542
1.00000000063
1.00000008255
1.00000002046
1.00000012622
1.0000000518
1.00000031905
1.00000000011
1.00000003888
0.999999999585
0.99999987382
0.999999880665
0.99999998398
0.999999966903
0.999999863731
0.999999975442
1.00000000525
1.00000031513
1.00000001213
1.00000025186
1
1.00000007356
0.999999989278
1.00000003739
1.00000000072
1.0000006896
1.00000002733
1.00000022459
1
1.00000000445
0.999999995088
0.999999997642
0.999999995283
0.999999566022
0.999999821817
0.999999867879
1
1.00000001458
1.00000031295
1.00000001382
1.00000026349
1
1.00000024868
1.00000021734
1.00000039959
1.00000001332
1.00000053736
1.00000000235
1.00000004959
1
0.999999999964
1
0.999999991991
0.999999972095
0.999999744719
0.999999961725
0.999999980212
1.0000000396
1.00000000105
1.00000022427
1.00000002838
1.00000044963
0.99999994747
1.00000012496
1.00000018798
1.00000043705
1.00000000181
1.00000008864
0.999999870154
1.00000004581
0.999999998408
1.00000000159
1
0.999999884332
0.999999989203
0.999999951036
0.999999958609
1.00000011623
1.00000010151
1.00000000333
1.00000042198
1.00000003468
1.00000024687
1.00000037393
1.00000010086
1.0000000521
1.00000075242
0.999999889002
0.999999837801
0.99999976386
0.99999997601
0.999999972635
1.00000000432
0.999999994726
0.99999997823
0.999999995453
1.00000000123
1.00000003151
1.00000000228
1.0000002028
1.00000000686
1.0000001026
0.999999997633
1.00000001696
1.00000028177
1.00000007157
1.00000000632
1.00000035639
0.9999998181
1.00000015763
1
1.00000001442
1
0.999999965575
1
1.00000000349
0.999999963198
1.00000005483
1.00000017568
1.00000000299
1.00000009995
0.999999948358
1.00000038639
1.00000067271
1.00000000477
1.00000004746
1.00000031186
1.00000000013
1.00000000153
0.999999984164
1.00000006585
1
1.00000000254
0.999999997781
1.00000000325
0.999999998176
0.999999925222
1.00000001503
1.0000000006
1.00000002224
0.999999957854
1.00000049716
1
1.0000000884
1.00000029945
1.00000003685
1.00000000001
1.00000020967
0.999999977624
0.999999853765
0.999999707787
0.99999987759
0.999999925928
0.999999984392
0.9999999871
1.00000000542
0.999999889784
1.00000000016
1.00000016476
0.999999929707
1.0000001025
1
1.00000014397
1
1.00000006751
1.0000010467
1.00000011319
1
1.00000005954
0.999999893476
0.99999977583
0.999999641187
0.999999858934
0.999999935853
0.999999979217
0.999999981553
0.99999991736
1.0000005226
0.999999923119
0.999999968827
1
1.0000000396
1
1
1.00000083293
1.00000006661
0.999999965727
1.00000001125
0.999999874595
0.999999901914
0.999999856466
0.999999917016
0.999999998135
0.999999798403
0.999999937932
0.999999966201
0.999999922391
1.00000002272
1.00000029988
0.999999979187
1.00000011603
1.00000005169
1.00000004653
1.00000016072
1.00000006208
0.9999999873
1.00000024979
1.00000000016
1.00000038057
0.999999911129
0.99999996802
1
1.00000001624
1
0.999999840169
0.999999879051
0.999999893236
1.00000048413
1.00000000556
1.00000009748
1.00000003003
1.00000017848
1.00000000023
1.00000005918
1.00000029955
1.00000011039
1.0000000013
1.00000046772
0.99999997394
1.00000000267
0.999999998369
1.00000001705
1
1.00000001715
1
0.999999894517
0.999999988599
1.00000001044
1.00000011215
0.999999934963
1.00000010503
0.999999994893
1.00000032484
1.00000066022
1.00000001098
1
1.00000032598
1.00000000992
1.00000057186
1
1.00000002041
1
1.00000002735
1
1.00000000313
0.999999957816
1.00000000141
1.00000010031
0.999999981908
1.0000000475
0.999999988873
1.00000015135
0.999999906577
1.0000000418
1.00000112709
1.00000011985
1.00000000038
1.00000080603
0.9999999689
1.00000015428
1.00000000001
1.00000002154
0.999999999972
1.0000000153
1
0.999999985582
0.999999999065
1.00000000124
0.99999997576
0.999999908551
0.999999899648
0.999999931443
1.00000011851
0.999999986539
1.00000004907
1.00000083297
1.00000018541
0.999999979821
1.00000035448
0.999999872132
1.00000023937
1.00000000002
1.00000012731
1
1.00000001458
1.00000006792
1.00000000174
0.999999916689
0.99999988164
0.999999887446
0.999999896153
0.999999921973
0.999999906531
1.00000007542
0.999999999612
1.00000006103
1.00000079348
1.00000005136
1.00000000125
1.00000034272
0.999999985766
1.00000039399
1.00000001373
1.0000001222
0.999999999592
1.0000000058
1.00000017939
0.999999903917
0.999999946874
0.99999990047
0.99999995761
0.999999924169
0.999999939002
0.999999956837
1.00000003865
1.00000001045
1.00000005893
1.00000040916
1.00000002177
1.00000013212
1.00000008115
1.00000021499
1.0000001752
1.00000000754
1.0000000553
1.00000001298
1
1.00000003965
1.00000003783
1.00000002107
1.00000031993
1.0000000125
1.0000000231
1.00000088806
1.00000012611
1.00000025252
1.00000080986
1
1.00000001172
1
1.00000000043
0.999999999771
0.999999678325
0.999999932963
0.999999643282
0.999999929623
0.999999907515
1.00000008505
1.00000014994
1.00000004951
1.00000000048
1.00000023922
1.00000030904
1.00000009994
1.0000004025
1.00000010437
1.0000001053
1.00000061622
1
1.00000003193
1
1.00000000204
1
0.999999810887
0.999999998215
1.000000005
0.999999993972
1.00000003611
1.00000010341
0.999999995372
1.0000001132
1.0000001102
1.00000011229
1.00000007625
1.00000010119
1.00000027445
1.00000003981
1.00000000119
1.00000005039
0.999999923973
0.999999872044
0.999999892822
0.999999965305
0.999999983591
0.999999891214
1
0.999999963086
1.00000016418
1.00000000023
1.00000021184
1.00000000017
1.0000001234
1.00000000682
1.00000017276
1.00000009753
1.00000012373
1.0000000083
1.00000005336
1.0000000001
0.999999857377
0.999999807521
0.999999933301
0.999999953773
0.99999955952
0.999999804463
0.999999883241
1.0000000649
0.999999957389
1.00000024358
1
1.00000021554
0.999999933676
1.00000012393
1.00000001937
1.00000048583
1.00000015506
1.00000031711
1.00000001132
1.00000002724
0.999999999387
0.999999990588
0.999999995282
0.99999946359
0.999999530083
0.999999945211
0.999999912196
1.00000000672
1.00000050563
1.00000001439
1.00000023736
0.999999958979
1.00000027822
1.00000000051
1.00000021548
1.0000001757
1.00000065032
1.00000002869
1.00000021795
1.00000000101
1.00000001607
0.999999998009
0.999999759001
0.999999963089
0.999999565717
0.999999950914
0.999999967134
0.99999999404
0.999999991362
1.00000017342
0.999999997673
1.00000040394
0.999999993057
1.00000020104
1.00000000596
1.00000027106
1.00000010693
1.00000038988
0.99999991778
0.999999892151
0.999999978464
0.999999926149
0.99999998293
0.999999985336
0.999999982793
0.999999976856
0.999999983547
0.999999971694
1.00000010245
0.999999989644
1.00000016593
1.00000000037
1.00000027469
0.999999954959
1.00000037361
1.00000004042
1.00000033589
1.00000000012
0.999999902539
0.999999865027
0.999999995527
0.999999982932
1.00000000265
0.999999998325
0.999999995572
0.999999986725
0.999999951658
1
1.00000068003
1.00000027494
1.000000003
1.00000029403
0.999999999984
1.00000067448
1.00000000049
1.00000034232
0.99999999791
1.0000000607
1.00000000025
1.00000000055
1
1.0000000125
0.999999999856
0.999999907814
0.999999991173
1
1
1.00000000556
1.0000000305
0.999999964669
1.00000017235
1
1.00000110634
1.00000000043
1.00000041012
0.999999998885
1.00000015312
1
1.00000001706
0.999999994609
0.999999934418
0.999999988774
0.999999843669
0.999999954855
0.999999779514
0.999999984275
1.0000000059
1
1.00000010675
1.00000019903
0.999999985399
1.00000089075
1.00000000036
1.00000080423
1
1.00000030664
0.999999983283
1.00000015948
0.999999987599
1.00000002031
0.999999838511
0.999999799105
0.999999885831
0.999999777337
0.999999903252
0.999999846086
0.999999998176
1.00000004335
1.00000015625
0.99999999528
1.00000017504
1.00000000109
1.00000061772
1.00000004004
1.00000033269
0.999999998761
1.00000038978
1.00000019407
1.00000015677
0.999999957455
0.999999856488
0.999999756294
0.999999926466
0.99999996758
0.999999938927
0.999999998341
1.00000002409
0.999999981443
1.00000000344
1.00000007931
0.99999999507
1.00000033443
1.00000007661
1.00000013915
1.0000010245
1.0000001281
0.99999987767
1.00000032249
0.999999852181
0.999999899309
0.999999831087
0.999999837171
0.999999994963
1
0.999999958995
1.00000000035
0.999999994529
0.99999997585
1.00000054149
0.999999991396
1.0000000937
1.00000014016
1.00000012749
1.00000087141
1.00000008729
0.999999940384
1.00000049657
0.999999987359
1.00000028283
1
0.999999984943
1
1
1
0.999999782036
0.999999999996
1.00000002495
0.99999997562
1.0000000226
1.00000029807
0.999999998539
1.00000011977
1.00000010375
1.0000000576
1.00000000057
1.00000002964
0.999999901905
1.0000008864
1.00000000007
1.00000009813
1
1.00000000154
1
1.00000001378
1
1.00000000556
0.999999999639
0.999999990164
1.00000058589
0.999999976905
0.99999998375
0.999999999762
1.00000014665
1.00000019079
1.00000004617
0.999999987895
1.00000006069
0.99999999223
1.00000102328
1
1.00000003635
1.00000009076
1.00000000314
1.00000016958
1.00000001123
1
1.00000003954
0.999999999581
1.00000001078
1.00000006322
0.999999971826
0.99999998526
0.999999983042
1.00000009313
1.00000049384
1.00000002993
1.00000002888
1.0000004475
0.999999963183
1.00000100891
1.00000000002
1.00000000238
0.999999999916
1.00000000593
1.00000001442
1.00000001725
0.999999999637
1.00000000149
1.00000008871
0.999999989156
0.999999968128
0.99999994911
1.00000008466
1.00000000488
1.00000003632
1.00000060582
1.00000001734
1.00000006952
1.00000048975
1.00000000289
1.00000074591
1.00000000137
1.00000004962
1.0000003127
1.00000004465
1.00000000016
1.00000003703
0.999999999478
0.999999982944
1.00000000316
0.999999918359
0.999999916531
1.00000000261
1.000000072
1.00000000712
1.00000003075
1.00000063869
1.00000001843
1.00000015087
1.00000030195
1.00000001011
1.00000059682
1.00000000991
1.00000016125
1.00000001632
1.00000006212
1.00000000411
1.00000000879
0.999999914779
0.99999997162
0.999999929293
0.999999916972
0.99999992025
0.99999998916
1.00000005643
1.00000000879
1.00000006247
1.00000000347
1.0000000385
1.00000040504
1.000000041
1.00000002556
1.00000060167
1.00000000631
1.00000022446
1.0000000022
1.00000006867
1.00000007463
0.99999999438
1.00000001328
1.00000150716
1.00000000947
1.00000016176
1.0000004604
1.00000007612
1.00000047072
1.00000109987
1.00000001473
1.00000023424
1
0.999999997858
0.99999999981
0.999999939792
0.999999944963
0.999999297177
0.999999468522
0.999999750697
0.999999935725
1.00000015382
1.00000005356
1.00000000012
1.0000001275
1.00000008642
1.00000004889
1.00000076122
1.00000013935
1.00000015059
1.00000009679
1.00000000659
1.00000001454
0.999999993054
1.00000000113
0.999999999053
0.99999977943
0.999999999999
0.99999997616
0.999999999932
0.99999990279
1.00000014409
1.00000000226
1.00000010681
0.999999987841
1.00000022179
0.999999999746
1.00000043529
1.00000006166
1.00000046049
1.00000001487
1.0000001262
0.999999929952
0.999999807288
0.999999886157
0.999999988182
0.999999928079
0.999999705497
0.999999998338
1.00000001542
0.999999959713
1.00000003798
1.00000011372
1.00000000007
1.00000020292
1.00000000487
1.00000023917
1.00000003859
1.00000097525
1.00000015657
1.00000023136
1.00000000493
0.999999900199
0.999999824104
0.99999987787
0.999999825467
0.999999235617
0.999999719178
0.99999999701
0.999999997337
0.999999950347
1.00000067025
1.0000000004
1.00000030943
1.00000000606
1.0000002628
1.00000005341
1.00000021812
1.00000021883
1.0000005228
1.00000019963
0.999999867834
0.999999876643
1.0000000039
0.999999945965
0.999999349952
0.999999466625
0.999999512108
0.999999986541
0.99999996415
1
1.00000000005
1.00000023793
1.00000002726
1.00000034273
1.00000000335
1.00000045956
1.00000024765
1.00000043776
1.00000021906
1.00000054138
0.999999876761
1.0000000848
0.999999980321
0.999999814417
0.999999950243
0.999999501469
0.999999585534
0.999999948161
1
1.00000000912
1.00000029451
1.00000000979
1.0000005017
1.00000005788
1.00000028209
0.999999952256
1.00000060759
1.00000004096
1.00000071647
1.00000000394
0.999999960746
0.999999990198
1.00000005322
0.999999999392
0.999999974082
0.999999998327
0.999999926629
0.999999996347
0.999999974593
0.99999999323
0.999999993546
1.00000050493
1.00000017346
1.00000035254
0.999999976181
1.00000002671
0.999999894616
1.00000061291
1.0000000002
1.00000008248
1
1.00000002424
1
1.00000001856
0.999999999993
1.00000000362
0.999999999818
0.999999999662
0.999999998642
1.00000000634
1.00000018597
1.00000000164
1.00000034674
0.999999979184
1.00000022293
0.999999999077
1.00000047465
1.00000000008
1.00000020255
1
1.00000001384
1
1.00000000632
1
0.999999996003
0.999999908901
0.999999617995
0.999999997591
1
1
1.00000132445
1.00000066846
1.00000008688
1.00000027844
1
1.00000072843
0.999999998003
1.00000036576
1
1.00000003554
1
1.00000001598
0.999999998451
1.00000001367
0.999999997443
0.999999690164
0.999999734461
0.999999717131
0.999999999542
1.00000001958
1.00000021383
1.00000000573
1.00000025254
0.999999968163
1.00000178663
1.00000000007
1.00000075014
1.00000000017
1.00000023698
1.00000003494
1.00000007441
1
0.999999949456
0.999999987526
0.999999729703
0.99999980224
0.999999587629
0.999999900523
0.999999914073
0.999999985396
1.0000000018
1.00000031966
1
1.00000107746
1.00000000012
1.00000125405
1.0000000004
1.00000037721
1
1.00000022687
1
1.00000010573
0.999999884942
0.999999803959
0.999999839799
0.999999650567
0.999999776712
0.999999747048
0.999999988912
0.999999994993
1.0000002887
0.999999968867
1.00000029472
0.99999999857
1.00000135657
1.00000012531
1.00000026878
0.999999938024
1.00000077277
0.999999940334
1.00000024581
0.999999841562
0.999999921197
0.99999998091
0.999999783928
0.999999968842
0.999999719094
0.999999999999
0.999999998572
0.999999920346
1.00000000429
1.00000020545
1.00000000035
1.00000091018
1.00000000805
1.00000009323
1.00000031385
1.0000004521
1
1.00000064689
1.00000049219
1.00000008838
0.999999997026
0.999999973757
0.999999999989
0.99999999886
0.999999717751
0.999999931628
0.999999998139
0.999999938465
1.0000004192
1.00000000191
1.00000021881
1.00000000912
1.00000029554
1.00000103574
1.0000001025
0.999999966461
1.00000028161
1
1.00000016456
1.00000104252
1.00000000262
1.00000080707
1.00000000144
0.999999994129
1.00000001602
0.999999970258
1.00000004157
1
1.00000001415
1.00000011974
0.999999992908
1.00000034238
1.00000002207
1.00000002736
1.00000030339
1.00000003113
0.999999825153
1.00000073568
1
1.00000002339
1.00000083771
1.0000000136
1.00000094117
1.00000001682
1
1.00000005061
1
1.00000000075
1.00000049484
1.00000000004
1.0000000373
1.00000000378
1.00000017738
1.00000032597
1.00000001542
1.00000007046
1.00000004988
1.00000001191
1.00000078301
1
1.0000000031
1.00000071826
1.00000000142
1.0000004305
1.00000003994
1.00000002279
1.00000005989
1
1.00000000245
1.00000001776
1.00000000229
1.00000012689
1.00000000629
1.00000006874
1.00000109183
1.00000001699
1.00000006438
1.00000011413
1.00000000384
1.00000127053
1.00000000782
1.00000004025
1.00000031356
1.00000001697
1.00000025167
1.00000006844
1.00000000687
1.00000001146
0.999999990816
0.999999967573
0.999999948295
0.99999999203
1.00000018629
1.00000001116
1.00000006718
1.00000070103
1.00000001853
1.0000004548
1.00000003403
1.00000005885
1.00000074369
1.00000000427
1.00000013654
1.00000034839
1.00000010313
1.00000007631
1.0000000653
1
0.999999973235
0.999999930529
0.999999921563
0.999999915149
0.999999910239
0.999999908438
1.00000000759
1.00000013462
1.00000001028
1.00000007591
1.00000022442
1.00000002051
1.00000012196
1.00000070928
1.00000000285
1.00000042913
1.00000000558
1.00000017798
1.000000068
1.00000003347
0.99999997052
1.00000122001
1.00000002201
1.00000208854
1.00000053136
1.00000002718
1.00000050765
1.00000078595
1
1.00000000626
1
0.999999998512
0.999999993351
0.999999765183
0.999999942874
0.999999087548
0.99999922466
0.999999493774
0.999999806504
0.999999843794
1.0000001318
1.00000000469
0.999999954081
1.0000000086
1.00000008824
1.00000072466
1.00000009194
1.00000032605
1.00000042115
1.00000001279
0.999999958415
0.99999991382
0.999999977641
0.999999984586
0.999999797717
0.999999816074
0.99999986711
0.999999999947
0.999999979914
0.999999999893
1.00000004715
1.00000012929
0.999999934999
1.00000054156
0.999999977446
1.00000067408
1
1.00000077039
1.00000010527
1.00000047691
1.0000000025
0.999999758851
0.999999786263
0.999999924634
0.999999924351
0.999999424751
0.999999872587
0.999999827334
0.999999999046
0.999999874076
1.00000045911
1
1.00000049478
1.00000000461
1.00000056546
1.00000000419
1.00000041331
0.999999999154
1.00000075559
1.00000002338
0.999999847086
0.999999601714
0.999999859567
0.999999807411
0.999999337126
0.999999231951
0.999999263625
0.999999984243
0.999999924855
0.999999950767
1
1.00000025257
1.00000000123
1.00000063075
1.00000027221
1.0000001406
1.00000085707
1.0000001758
1.00000011129
1.00000005735
0.999999924665
0.999999652683
0.999999826457
0.999999519148
0.999999617842
0.999999593375
0.999999862347
0.999999987386
0.999999987588
0.999999866225
1.00000089567
1.00000000045
1.0000012823
1.00000001107
1.00000021798
1.00000076033
1.00000027022
1.00000008532
1.00000033963
0.99999995403
0.999999785158
0.99999973983
0.999999836526
0.999999999741
0.999999481896
0.999999839884
0.999999722007
0.999999987865
0.999999793471
0.999999980572
0.999999998193
1.00000057346
1.00000002717
1.00000016459
1.00000170222
1.00000019637
0.999999976949
1.00000057903
1.00000004651
0.999999937032
0.999999920583
0.999999837394
1
0.999999984325
1
0.999999652926
0.999999985502
0.99999980217
0.999999962102
0.999999922808
1.00000036746
1.00000000606
1.00000051319
1.00000117113
1.00000014977
0.999999971265
1.00000053812
0.999999997525
0.999999917321
0.999999915013
0.999999520461
0.999999957459
0.999999930563
0.999999999553
1.00000000103
1.000000756
1.00000075938
1.0000002422
0.999999953968
1.00000038115
1.00000000526
1.00000001125
0.999999930703
0.999999706436
0.99999959908
0.999999311565
0.999999996028
1.00000000163
1.0000002092
1.00000000791
1.00000013271
1.00000010028
1.00000048554
1.00000000183
1.00000078929
0.999999999993
0.999999879979
0.999999722065
0.999999710092
0.99999962481
0.999999829197
0.999999974493
1.00000002188
1.00000048581
1.00000057329
1.00000028895
0.999999970826
1.00000152035
1.00000000037
0.999999943378
0.999999964287
0.999999673236
0.999999564003
0.999999673423
0.999999994193
1.00000003104
1.00000023955
1.00000000076
1.00000032039
0.99999991894
1.00000239341
1.00000000032
1.00000032721
1.00000000092
1.00000009567
1.00000041666
1.00000006238
1
1.00000009786
0.999999992615
0.999999736549
0.999999741099
0.999999505798
0.999999944251
0.999999949001
0.99999985509
1.00000000036
1.00000036375
1.0000002782
1.00000175228
1
1.00000053197
1.00000000056
1.00000052413
0.999999900251
1.00000052378
0.999999981518
1.00000003189
0.99999998612
0.999999857104
0.999999972843
0.999999574263
0.999999787464
0.999999969963
0.999999942506
0.99999991037
1.0000003985
1
1.00000046266
1
1.00000087026
0.999999991092
1.00000032038
0.999999940388
1.00000081758
1.0000000042
1.00000037586
1
1.00000004947
0.999999999997
0.999999931726
0.999999850574
0.999999786517
0.999999789223
1.00000001941
0.99999999086
1.00000000263
1.00000007838
1.00000023415
1.00000068714
1.00000001049
1.00000018895
1.0000000014
1.00000003095
0.999999953409
1.00000070233
1.00000017906
1.00000009364
1.00000137797
1.00000000491
0.999999999592
0.999999927635
0.999999695238
0.999999763392
0.999999992396
0.999999998663
1.00000038805
0.999999990527
1.0000002483
1.00000001596
1.00000054756
1.00000068556
1.00000008044
1
0.999999885828
0.999999960952
1.00000031196
1.000000227
1.0000000027
1.00000111129
1.00000000624
0.999999998865
1.00000008056
1.00000000011
1.0000000728
1
1.00000001001
1.00000016622
1.00000000927
1.00000055497
1.00000005933
1.00000005156
1.00000004004
0.999999998835
0.999999964163
0.999999983841
1
1.00000005677
1.00000015911
1.00000000634
1.00000051367
1.0000002959
1.00000023575
1.00000013178
1.00000000002
1.00000000439
1.00000027906
0.999999998831
1.00000020756
1.00000001071
1.00000008081
1.00000028761
1.00000000465
1.00000030729
1.00000007688
1.0000000054
1.00000046764
1.00000000001
1.00000002518
1.0000002024
1.00000046842
1.00000013151
1.00000001195
1.00000013854
1.00000008108
1
0.999999932993
0.999999986304
0.999999948751
1.00000010737
1.00000000415
1.00000038627
1.00000027384
1.00000000868
1.00000055354
1.00000002838
1.00000006728
1.00000105513
1.0000000571
1.00000014517
1.00000034098
1.00000001422
1.00000019954
1.00000007106
1.0000002529
1.00000010314
0.999999943845
0.999999960712
0.999999928784
0.999999986771
0.999999970601
1.00000000009
1.00000016137
1.00000002045
1.00000017208
1.00000000898
1.00000004237
1.00000030493
1.00000093371
1.00000000396
1.00000031116
1.00000032133
1.00000015498
1.00000017743
1.00000013551
1.00000007435
1.00000012196
1.00000000681
1.0000023963
1.00000004569
1.00000089052
1.00000034853
1.00000047677
1.00000000614
1.00000009707
1
1.00000000001
0.999999993756
0.999999943265
0.999999931858
0.999998845576
0.999998991349
0.999999019986
0.999999442662
0.999999726975
0.999999908922
0.999999948049
1.00000025348
0.999999949486
1.00000026122
1.0000003237
1.00000008814
1.00000034515
1.00000014502
1.0000000194
0.999999999203
0.999999884048
0.999999874346
0.999999968342
0.999999960337
0.999999895611
0.999999158126
0.999999730782
0.999999999947
0.999999999857
0.999999795736
1.00000023372
1.00000000406
1.00000018067
0.999999886276
1.00000076361
0.999999938216
1.00000106109
1
1.00000049204
1.00000002908
0.999999840171
0.99999963781
0.999999933523
0.999999879801
0.999999444523
0.999999738278
0.999998580538
0.999999945193
0.999999964806
0.999999972169
1
1.00000027049
0.999999954497
1.00000220485
1.00000000885
1.00000075752
1
1.00000040141
0.999999968325
1.00000017973
0.999999909408
0.999999319693
0.999999608653
0.999999678627
0.999999684108
0.999998915628
0.999999493419
0.999999689992
0.999999999734
0.999999809095
1.00000065571
1
1.00000140336
1.00000000204
1.00000067687
1.00000013372
1.00000017879
0.999999973211
1.00000010996
0.999999884853
0.999999588633
0.999999661597
0.999999428469
0.999999887284
0.999999596001
0.999999678291
0.99999897575
0.999999985593
0.999999896999
0.999999831944
1
1.0000005817
1.00000000262
1.00000074619
1.00000051052
1.00000013917
1.00000111009
1.00000018384
0.999999929125
0.999999995827
0.999999932627
0.999999373223
0.999999645751
0.999999977009
0.999999973443
0.999998900171
0.999999688101
0.999999601888
0.999999879947
0.999999730996
1.00000291565
1.00000003695
1.00000127373
1.00000062259
1.00000010147
1.00000165371
1.00000065495
1.00000000124
1.00000026276
1
0.999999924073
0.999999931898
0.999999720108
0.999999999967
0.999999564354
0.999999615472
0.999999344013
0.999999799498
0.999999637917
0.999999959118
1.0000000001
1.00000046458
1.00000000939
1.00000026257
1.0000024002
1.00000071668
1.00000004396
0.999999928653
0.999999882519
0.999999683851
0.999999310288
0.999999247401
0.999999983211
0.999999816563
1.00000015197
0.999999997177
1.00000088688
1.000000155
1.00000162762
1.00000000116
1.00000085044
0.999999964337
0.999999792008
0.999999731051
0.999999822597
0.999999334408
0.999999328435
0.999999985497
0.999999971782
1.00000024722
1.0000000011
1.00000252942
1.00000000036
1.00000078743
1.0000000005
0.999999944597
0.999999760311
0.999999824948
0.999999817182
0.99999991645
0.999999895538
0.999999937491
1.00000006118
0.999999928363
1.00000234183
1.00000042838
1.00000133824
0.999999998366
1.00000035613
0.999999999276
0.999999944393
0.999999751463
0.999999837696
0.999999861194
0.999999767217
0.999999896905
1.00000000003
1.00000125764
1.00000043383
1.00000076734
1.00000000016
1.00000021851
0.999999945291
1.0000002213
1.00000074639
1.00000011251
1.00000060249
1.00000001296
1
1.00000002659
0.999999922635
0.999999459745
0.999999515278
0.999999659297
0.999999989672
0.99999993111
1.00000048488
1
1.00000008406
1.00000099462
1.00000006169
1.00000055795
1.00000027602
0.999999954742
1.00000048791
0.99999996874
1.00000041585
0.99999988237
1.00000005975
0.99999996736
0.999999744723
0.999999424656
0.999999353604
0.999999948643
0.999999935387
0.999999878503
1.00000000003
1.00000002972
1.00000117569
1.00000007494
1.00000023345
1.00000022974
1
1.00000039484
1.00000000426
1.00000095601
1
1.00000015978
1
0.999999923129
0.999999997223
0.999999485669
0.999999779858
0.999999490432
0.999999684739
0.99999993499
1.0000003678
1.0000000183
1.00000004504
1.00000005369
1.00000048328
0.99999999783
0.999999984359
0.999999805311
0.999999981769
1.00000000133
1.0000004045
1.00000000862
1.00000005663
0.999999998564
1.00000001093
0.999999987883
0.999999421655
0.999999943663
0.999999945501
0.999999987132
1.00000000096
1.00000000893
1.00000012013
1.0000006008
1.00000000434
1.00000049358
0.999999941129
0.999999912589
0.999999748292
1.0000000397
1
1.00000006847
1.00000016425
1.000000013
1.00000000773
1.00000002812
0.999999795612
0.999999980824
0.999999991528
1.00000000404
1.00000036143
1.00000000019
1.00000033944
1.00000000725
1.00000067576
1.00000006336
1.00000013257
0.999999974634
0.999999867011
0.999999859651
1.00000013064
1
1.00000007836
1.00000039784
1.0000000946
1.00000002028
1.00000005547
0.999999986506
1.000000101
1
1.00000001007
1.00000014706
1.00000000512
1.00000039191
1.0000001535
1.00000004001
1.0000003317
1.00000009389
0.999999985247
1.00000009893
1
1.00000011369
0.999999998455
1.00000004572
1.00000011905
1.00000063267
1.00000019226
1.00000012099
1.00000021061
1.00000005115
1.0000000751
0.99999997651
1.00000003307
0.999999971537
1.00000033486
1.00000014294
1.00000011056
1.00000065488
1.00000000549
1.00000013955
1.00000048924
1
1.00000029693
1.00000034539
1.00000023069
1.00000009581
1.00000020687
1.00000021789
1.00000002671
1.00000008992
0.99999987541
0.999999969845
0.999999956008
0.999999957416
0.999999973881
1.00000002393
1.00000000021
1.00000051497
1.00000001844
1.00000013273
1.00000015186
1.00000067567
1
1.00000033022
1.00000079058
1.00000005623
1.0000003616
1.00000001881
1.00000017202
1.00000016459
1.00000010349
1.00000015064
1.00000026181
1.00000308517
1.00000019961
1.0000000789
1.00000000852
1.00000039285
0.999999993679
1.0000000481
0.999999981678
0.999999851376
0.999999929766
0.999998776982
0.999998712761
0.999998819712
0.999999025358
0.999999561489
0.999999860216
0.999999826635
1.00000017563
1.00000000991
1.00000021961
1.00000002931
1.0000002469
1.00000002724
1.00000019792
1.00000000076
0.999999957453
0.999999941878
0.999999868349
0.99999991825
0.999999949027
0.999999940448
0.999999024804
0.999999296492
0.999999620945
0.999999800809
0.999999984976
0.999999777991
1.00000000414
1.00000084732
1.00000002297
0.999999900945
0.999999723494
1.00000063097
0.9999999764
1.0000008291
0.999999999768
1.00000010213
0.999999936144
0.999999302172
0.999999615559
0.999999340125
0.999999468176
0.999999208013
0.999999214243
0.999999080619
0.999999999371
0.999999777991
1.00000061261
1
1.00000066345
0.999999953676
1.00000176872
0.999999960157
1.00000065599
0.999999999067
1.00000017705
0.99999992908
0.999999335943
0.999999308912
0.99999942224
0.999999591532
0.999998713205
0.999999275375
0.999998779876
0.999999976531
0.999999778355
0.999999999763
1
1.00000043322
0.999999933548
1.00000397251
1
1.00000104416
1
1.00000017494
1.00000000156
0.999999512374
0.999999442964
0.999999326264
0.99999944527
0.999999239165
0.999999553787
0.999998558697
0.999998955486
0.99999922624
0.999999975664
0.999999542718
1.00000030786
1.00000014503
1.00000159122
1.00000067105
1.00000021139
1.00000070063
1.00000008796
1.0000007324
1.00000008906
0.999999966043
0.999999753098
0.999999775814
0.999999284817
0.999999298432
0.999998930802
0.999998580773
0.999999052898
0.999999795222
0.999999154128
0.999999795568
1
1.00000037873
1.00000078874
1.0000006043
1.00000086534
1.00000011131
1.00000024507
1.00000009089
0.999999996234
1.00000000278
0.999999955817
0.99999972473
0.99999977241
0.999999157594
0.999999645257
0.999999294184
0.999999643517
0.999998983741
0.999999616602
0.999999749951
1.00000012097
1.00000029927
1.00000087358
1.00000012377
1.00000031344
1.00000357013
1.00000026027
0.999999916649
0.999999863486
0.999999912229
0.999999762245
0.999999910202
0.999999407171
0.999999981453
0.999999998771
1.00000029192
1.00000000286
1.00000176094
1.00000266533
1.00000034244
1.00000003965
0.999999919924
0.999999869796
0.999999912229
0.999999756269
0.999999161714
0.999999715677
0.999999777341
0.999999948998
0.999999913581
1.00000215995
1.00000025918
1.00000038864
1.00000032964
1.00000010823
1
0.999999823351
0.999999824509
0.999999892477
0.999999926434
0.999999981328
0.999999988698
0.999999989308
1.00000098215
1
1.00000126298
1.00000030199
1.00000005204
0.999999947718
1.00000000503
0.999999998717