/*--------------------------------*- C++ -*----------------------------------*\
| =========                 |                                                 |
| \\      /  F ield         | OpenFOAM: The Open Source CFD Toolbox           |
|  \\    /   O peration     | Version:  v1606+                                |
|   \\  /    A nd           | Web:      www.OpenFOAM.com                      |
|    \\/     M anipulation  |                                                 |
\*---------------------------------------------------------------------------*/
FoamFile
{
    version     2.0;
    format      ascii;
    class       surfaceScalarField;
    location    "3.5";
    object      alphaPhi;
}
// * * * * * * * * * * * * * * * * * * * * * * * * * * * * * * * * * * * * * //

dimensions      [0 3 -1 0 0 0 0];

internalField   nonuniform List<scalar> 
33146
(
-4.34073769086e-06
-2.69013229392e-06
7.0289349137e-06
-8.5029757345e-06
-2.93380966898e-06
7.09672336572e-06
-1.23541021627e-05
-3.22153123733e-06
7.07278145683e-06
-1.57740070772e-05
-3.30617896424e-06
6.77939995577e-06
-1.88296921375e-05
-3.15456014927e-06
6.74352731035e-06
-2.13885899793e-05
-2.68414993826e-06
6.7034031072e-06
-2.3251519895e-05
-2.16648713009e-06
5.93339647873e-06
-2.44917574891e-05
-1.53304233061e-06
4.44900344829e-06
-2.5261578375e-05
-1.11281058907e-06
3.03872993357e-06
-2.53896308433e-05
-7.628511128e-07
1.54903119643e-06
-2.50075471913e-05
-2.49541848553e-07
1.35675390997e-08
-2.40711702407e-05
1.46692998526e-07
-1.43577935865e-06
-2.26260077388e-05
5.56436800882e-07
-2.86531751082e-06
-2.06385630075e-05
9.07825010447e-07
-4.06058459793e-06
-1.81128002452e-05
1.07336245554e-06
-4.57048035245e-06
-1.50715942528e-05
1.0730466441e-06
-4.46813897293e-06
-1.16203418676e-05
1.05873844234e-06
-4.54970289937e-06
-7.87786566789e-06
1.14723563113e-06
-4.88796219893e-06
-3.98833431897e-06
1.27269518875e-06
-5.16324993987e-06
1.47466859043e-06
-5.46251634394e-06
-4.90186725004e-06
-4.78125162863e-06
6.99488114315e-06
-8.95718822189e-06
-5.01323968161e-06
6.13436880231e-06
-1.27196418968e-05
-5.16302509811e-06
6.1952797901e-06
-1.64339361656e-05
-4.85845264818e-06
7.97197440101e-06
-1.99287954128e-05
-3.94388316175e-06
1.07897186495e-05
-2.26880246702e-05
-2.67867730442e-06
1.2215902323e-05
-2.4509203412e-05
-1.27031801917e-06
1.07918675726e-05
-2.5684033688e-05
-2.56898356179e-07
7.87021375296e-06
-2.6184343549e-05
2.73543521887e-07
4.40396580139e-06
-2.62132285303e-05
8.4130574647e-07
1.02100278116e-06
-2.56166342539e-05
1.41910072803e-06
-2.3420240075e-06
-2.45450730721e-05
2.00788276843e-06
-5.7035836316e-06
-2.29768112097e-05
2.57976278395e-06
-9.03574738087e-06
-2.084854438e-05
3.08524565721e-06
-1.17243022196e-05
-1.81801496389e-05
3.3173201813e-06
-1.22230732412e-05
-1.50840265765e-05
3.20492820664e-06
-1.02060137122e-05
-1.16340052613e-05
2.88906542237e-06
-7.29985326308e-06
-7.94273379222e-06
2.68509505601e-06
-5.60185395446e-06
-4.02363769092e-06
2.71721446056e-06
-5.36078309701e-06
3.00181883121e-06
-5.55142269849e-06
-5.0973615206e-06
-6.74337142553e-06
7.05985631692e-06
-9.31149456704e-06
-6.73724753092e-06
6.5021452004e-06
-1.36378502412e-05
-6.44898942126e-06
9.90237455306e-06
-1.81934375855e-05
-5.19797004895e-06
1.73489606894e-05
-2.20589012731e-05
-2.96802415117e-06
2.3854088732e-05
-2.52545686645e-05
-1.2232546272e-08
2.5839300966e-05
-2.69300954557e-05
1.94732859452e-06
2.24175584469e-05
-2.78872132083e-05
3.36089397333e-06
1.58663511067e-05
-2.82134507857e-05
3.82104952233e-06
8.54686531223e-06
-2.78593724421e-05
4.1192849978e-06
1.40011913175e-06
-2.6932676185e-05
4.36648873302e-06
-5.5995554e-06
-2.55366926365e-05
4.67927198514e-06
-1.25247836545e-05
-2.37434327715e-05
4.99320628479e-06
-1.94335197296e-05
-2.13892701016e-05
5.37860458813e-06
-2.53219054167e-05
-1.85617803191e-05
5.59961108632e-06
-2.73157688323e-05
-1.52715889103e-05
5.518911149e-06
-2.3959485829e-05
-1.1651409363e-05
5.11053410588e-06
-1.65157126844e-05
-7.87902902823e-06
4.58268136546e-06
-9.1945782149e-06
-4.06046146224e-06
4.29694977088e-06
-5.84355205738e-06
4.43841893184e-06
-5.49510079073e-06
-5.22654785397e-06
-8.57827582071e-06
7.14015782813e-06
-1.00404982723e-05
-8.25872860271e-06
9.58475145252e-06
-1.52712061973e-05
-7.16967605826e-06
1.97828273955e-05
-2.0357814179e-05
-4.58240569685e-06
3.34425608885e-05
-2.49252035814e-05
6.57301524501e-08
4.24933541254e-05
-2.80058457833e-05
4.40287858365e-06
4.36966703252e-05
-2.95235338666e-05
6.93336351579e-06
3.71223819226e-05
-3.04015439283e-05
8.73027652738e-06
2.61235570597e-05
-3.03902369581e-05
8.88844643024e-06
1.39344131829e-05
-2.96209246593e-05
8.48339266192e-06
2.27226344311e-06
-2.83371368839e-05
8.04604950651e-06
-9.15040932386e-06
-2.66424990552e-05
7.61572392334e-06
-2.04423747711e-05
-2.46278446115e-05
7.23210701612e-06
-3.16495166119e-05
-2.207933158e-05
7.11321932913e-06
-4.16086295909e-05
-1.90866470592e-05
7.11858882597e-06
-4.62237473515e-05
-1.56350869494e-05
7.09461082994e-06
-4.29947196318e-05
-1.18197298041e-05
6.91838503125e-06
-3.22943227457e-05
-7.90043340785e-06
6.46416039375e-06
-1.82677703735e-05
-4.05082300395e-06
5.91626584134e-06
-8.26670581729e-06
5.67837292175e-06
-5.35547252729e-06
-5.54280177008e-06
-1.02750156063e-05
8.16193952388e-06
-1.11262558192e-05
-9.59960634028e-06
1.56395547694e-05
-1.70768579752e-05
-7.4633449469e-06
3.31166080243e-05
-2.28183910159e-05
-2.73810516257e-06
5.122585572e-05
-2.74865312211e-05
3.72971792448e-06
6.20665544623e-05
-3.0497429965e-05
9.44838946259e-06
6.15583848876e-05
-3.17169605016e-05
1.2060605359e-05
5.15868718435e-05
-3.25986202753e-05
1.45743953624e-05
3.62176288666e-05
-3.22197741017e-05
1.41738230305e-05
1.95107626394e-05
-3.10352266155e-05
1.29919298772e-05
3.48462795967e-06
-2.91742775089e-05
1.16398533194e-05
-1.22770412902e-05
-2.71273615157e-05
1.06408428697e-05
-2.78905653858e-05
-2.49985585856e-05
9.36387040932e-06
-4.30956280073e-05
-2.2268725639e-05
8.32610783242e-06
-5.69049320103e-05
-1.92864689318e-05
7.87141308081e-06
-6.44732657454e-05
-1.58753069935e-05
7.87556729841e-06
-6.24057215797e-05
-1.2082619405e-05
8.04688197732e-06
-4.99656723851e-05
-7.96490605166e-06
7.86501392643e-06
-3.09411385594e-05
-3.9241073786e-06
7.3431077508e-06
-1.35431587893e-05
6.86036902946e-06
-5.88923579181e-06
-5.91403081702e-06
-1.18532971182e-05
9.96469399687e-06
-1.21382396706e-05
-1.08341425005e-05
2.24333104356e-05
-1.86054945736e-05
-7.56709901832e-06
4.52593469391e-05
-2.46851138429e-05
-1.08539487207e-06
6.68181446864e-05
-2.94803034888e-05
7.16725185607e-06
7.78346167297e-05
-3.21969514074e-05
1.38225899696e-05
7.51224135301e-05
-3.27730109265e-05
1.63135787758e-05
6.16780321079e-05
-3.36543073523e-05
2.06663606267e-05
4.26233548887e-05
-3.29246356659e-05
2.02294502868e-05
2.21066167341e-05
-3.17285098269e-05
1.8686572333e-05
3.05316277846e-06
-2.94430133466e-05
1.60787826076e-05
-1.57236335134e-05
-2.68190033809e-05
1.43444500614e-05
-3.42668190061e-05
-2.41315765091e-05
1.178766286e-05
-5.19956279573e-05
-2.19149713178e-05
1.05967528219e-05
-6.86448512473e-05
-1.93366927116e-05
9.05989147494e-06
-7.87062477831e-05
-1.61000088421e-05
8.53867322729e-06
-7.81976253156e-05
-1.2326463549e-05
8.74771645422e-06
-6.50292740366e-05
-8.12695600375e-06
8.76488280935e-06
-4.26836845673e-05
-3.90799788379e-06
8.35706871668e-06
-1.97207420693e-05
7.77718679325e-06
-7.16508140372e-06
-6.11458090757e-06
-1.32118197622e-05
1.10589775549e-05
-1.27018364596e-05
-1.19362888034e-05
2.66374146103e-05
-1.94954325184e-05
-8.06224644729e-06
5.26487243002e-05
-2.57630834673e-05
-4.17492866782e-07
7.60901799159e-05
-3.04537125781e-05
9.06396660569e-06
8.70775300173e-05
-3.23891624252e-05
1.60565819268e-05
8.26227790318e-05
-3.27130140083e-05
1.819687189e-05
6.78499590581e-05
-3.22494923261e-05
2.17940042888e-05
4.87250437666e-05
-3.07507857473e-05
2.22256721907e-05
2.66247184469e-05
-2.88546183014e-05
2.30752754224e-05
3.64394122363e-06
-2.65018999486e-05
2.23558997627e-05
-1.88922127434e-05
-2.54907574733e-05
2.24269417176e-05
-3.95499728233e-05
-2.52418934087e-05
1.8259096528e-05
-5.73837518934e-05
-2.31056771729e-05
1.3268212544e-05
-7.43202004831e-05
-1.98331179887e-05
9.52848209984e-06
-8.60946998694e-05
-1.62824140944e-05
8.85073819441e-06
-8.70416777656e-05
-1.23711947563e-05
9.12870961545e-06
-7.38404428074e-05
-8.12539339044e-06
9.26591111927e-06
-4.97097365498e-05
-3.83957569126e-06
8.881043035e-06
-2.36925130692e-05
8.37579827964e-06
-8.0296639658e-06
-5.89519317301e-06
-1.44613080214e-05
1.1048952568e-05
-1.25058986443e-05
-1.30745599627e-05
2.77249726515e-05
-1.9463344237e-05
-8.76337904895e-06
5.47046504371e-05
-2.59161022075e-05
-1.84665248378e-07
7.86606582772e-05
-3.09124821088e-05
1.0534764584e-05
8.96274123553e-05
-3.19909901164e-05
1.83703710945e-05
8.29684564236e-05
-3.25126679947e-05
2.18004424378e-05
6.70800022671e-05
-2.84209528946e-05
2.50338981353e-05
4.33643787618e-05
-2.56683678175e-05
2.52549867046e-05
2.44937254141e-05
-2.35046518226e-05
2.5052274138e-05
5.70280051672e-06
-2.17459803203e-05
2.33989628926e-05
-1.33768527358e-05
-2.36027603372e-05
2.17631604289e-05
-2.84946351455e-05
-2.83952611351e-05
1.78989844101e-05
-4.62663782754e-05
-2.3837588562e-05
1.43120070056e-05
-7.63567743717e-05
-1.98988294182e-05
1.02564499152e-05
-8.88968005255e-05
-1.62665225972e-05
9.30978870747e-06
-8.97102793926e-05
-1.22269074088e-05
9.35252444925e-06
-7.6314597532e-05
-7.95369201201e-06
9.39001848633e-06
-5.14762776097e-05
-3.71822347203e-06
8.99090809957e-06
-2.45313815966e-05
8.5544366965e-06
-7.8849501282e-06
-5.48204334038e-06
-1.55714315931e-05
1.04893539143e-05
-1.18985454713e-05
-1.40721004166e-05
2.73980075112e-05
-1.87579564558e-05
-9.43967428856e-06
5.45735356694e-05
-2.51277117795e-05
-1.67383743305e-07
7.88014102449e-05
-3.01654469049e-05
1.15371428428e-05
9.01239631619e-05
-3.10426625662e-05
2.00964966177e-05
8.33674273919e-05
-3.08300378683e-05
2.40761827154e-05
6.76615549538e-05
-2.49873396742e-05
2.53041296602e-05
4.4599702418e-05
-2.0984601017e-05
2.4521302363e-05
2.70028323166e-05
-1.81231463472e-05
2.30424447379e-05
8.99752007667e-06
-1.80646175815e-05
2.07800030005e-05
-8.03563696268e-06
-2.23675881177e-05
1.8621300319e-05
-2.35529055714e-05
-2.99438980798e-05
1.55972485343e-05
-4.15566091473e-05
-2.52719837115e-05
1.25608400811e-05
-7.36560220092e-05
-2.00904870685e-05
9.36784930095e-06
-8.8534550738e-05
-1.59607634948e-05
8.82899177407e-06
-8.92577521127e-05
-1.17648959517e-05
9.00336839876e-06
-7.5903827999e-05
-7.5049192898e-06
9.05437461664e-06
-5.09990908886e-05
-3.48038087481e-06
8.69054082717e-06
-2.39149761206e-05
8.32033562596e-06
-7.23282785034e-06
-5.01096614898e-06
-1.63593576352e-05
9.69680917972e-06
-1.11419844312e-05
-1.48280105656e-05
2.68634887985e-05
-1.77368060219e-05
-1.00420927177e-05
5.42411566931e-05
-2.37697984449e-05
-4.15411491906e-07
7.87147460332e-05
-2.83711903364e-05
1.18391304163e-05
9.04013407351e-05
-2.88250286825e-05
2.09023060731e-05
8.38523510262e-05
-2.86135492352e-05
2.5847247585e-05
6.81792528893e-05
-2.2278216399e-05
2.42502868351e-05
4.54147950691e-05
-1.80124924294e-05
2.28087368858e-05
2.77288055584e-05
-1.57261305784e-05
2.09158391677e-05
9.68443697161e-06
-1.69400990064e-05
1.92271283604e-05
-7.80847754923e-06
-2.18368744852e-05
1.62257142389e-05
-2.37162238767e-05
-2.90908881184e-05
1.36991277239e-05
-4.22737743937e-05
-2.45936992136e-05
1.08731938376e-05
-7.35556725647e-05
-1.96991993404e-05
8.53720056419e-06
-8.82931103492e-05
-1.55560316037e-05
8.01501632261e-06
-8.89454522147e-05
-1.12001959334e-05
8.20982045029e-06
-7.5611001826e-05
-6.97277479506e-06
8.28497248526e-06
-5.05360027657e-05
-3.1386810365e-06
8.0028638727e-06
-2.33319100675e-05
7.77974643668e-06
-6.58584869315e-06
-4.52637337288e-06
-1.6705327979e-05
8.76819208121e-06
-1.02836591492e-05
-1.52570945579e-05
2.61653372827e-05
-1.66265124541e-05
-1.05123155369e-05
5.38388155857e-05
-2.20453099762e-05
-1.01938994129e-06
7.84711790632e-05
-2.58313457702e-05
1.11338564887e-05
9.05849856636e-05
-2.54312619945e-05
2.00109339982e-05
8.47028269915e-05
-2.49359286946e-05
2.59614896767e-05
6.95400776233e-05
-2.04772130915e-05
2.40500971212e-05
4.646062565e-05
-1.79607934026e-05
2.24251489652e-05
2.81385479891e-05
-1.68274673376e-05
1.88634700752e-05
1.07707916336e-05
-1.74936983483e-05
1.65215821523e-05
-7.21128857588e-06
-2.13474925413e-05
1.22883723061e-05
-2.32088024319e-05
-2.66957955332e-05
1.04368083572e-05
-4.28314212817e-05
-2.29095936019e-05
8.83237095891e-06
-7.24829577773e-05
-1.8778377319e-05
7.68306481594e-06
-8.75150590344e-05
-1.48580657817e-05
7.01867687936e-06
-8.85343601086e-05
-1.06063420637e-05
7.20494182071e-06
-7.53056296387e-05
-6.45057324687e-06
7.24501231442e-06
-5.01875260255e-05
-2.74805670916e-06
7.00716973998e-06
-2.28950741971e-05
6.98680464267e-06
-5.94026817797e-06
-3.95917610865e-06
-1.63944311721e-05
7.15530366301e-06
-9.31709686036e-06
-1.52103413044e-05
2.39694521437e-05
-1.52357041024e-05
-1.09700746432e-05
5.12708828378e-05
-2.03334570731e-05
-2.26893019206e-06
7.62019123085e-05
-2.37997846253e-05
9.12596138796e-06
8.90740432865e-05
-2.52226240093e-05
1.84288634932e-05
8.52884429755e-05
-2.45788714986e-05
2.30620262848e-05
7.1187261037e-05
-2.06251363439e-05
2.11051205167e-05
4.88766294919e-05
-1.74151898474e-05
1.96832943179e-05
2.92463059073e-05
-1.64538196721e-05
1.76402803663e-05
9.76231758259e-06
-1.79141565703e-05
1.55229076056e-05
-8.22705950434e-06
-2.0935591556e-05
1.1743111875e-05
-2.73243314861e-05
-2.3440242048e-05
1.00424348203e-05
-4.81770488541e-05
-2.15743188635e-05
7.67633153396e-06
-7.07407752419e-05
-1.8023133936e-05
6.64410276818e-06
-8.54790381353e-05
-1.42496828704e-05
6.02442806779e-06
-8.66620855781e-05
-1.00088761447e-05
6.03169041382e-06
-7.32319327817e-05
-5.88220620444e-06
5.92922426595e-06
-4.82518743468e-05
-2.34922008864e-06
5.70613501398e-06
-2.13785895527e-05
5.98418097351e-06
-5.02128012463e-06
-3.1842631308e-06
-1.56424122632e-05
4.70114571361e-06
-7.86053600947e-06
-1.47470611835e-05
1.84995746826e-05
-1.30756044849e-05
-1.15896552849e-05
4.32253481949e-05
-1.73187563437e-05
-4.8446726944e-06
6.74361381494e-05
-1.96811619395e-05
4.23882433986e-06
8.16681999269e-05
-1.97694662105e-05
1.22779970078e-05
8.09680074083e-05
-1.85231388675e-05
1.62383598265e-05
6.899266723e-05
-1.76864379614e-05
1.6540724693e-05
4.9719142318e-05
-1.70967597481e-05
1.55319799434e-05
3.05873904233e-05
-1.74581685594e-05
1.37175521272e-05
1.23733549424e-05
-1.81017799029e-05
1.13959417534e-05
-6.09017334852e-06
-1.97045188883e-05
8.79454556857e-06
-2.52540010929e-05
-2.03111476992e-05
7.49738614496e-06
-4.56140060051e-05
-1.91703643903e-05
6.06747701158e-06
-6.560818621e-05
-1.64056625922e-05
5.42165759795e-06
-7.855791925e-05
-1.29287687574e-05
4.96930588753e-06
-7.8762115228e-05
-8.87235049551e-06
4.7307821867e-06
-6.50968263185e-05
-4.955350665e-06
4.40838387503e-06
-4.12576758141e-05
-1.73046664037e-06
4.18115922555e-06
-1.68869310934e-05
4.86844114024e-06
-3.1452486764e-06
-2.27412712959e-06
-1.44164920997e-05
1.81018456043e-06
-5.8522632246e-06
-1.37250056014e-05
1.04649920388e-05
-1.01101788089e-05
-1.17531809514e-05
2.95691660182e-05
-1.37640445875e-05
-7.20674995907e-06
5.0779613061e-05
-1.57906556375e-05
-7.40274134692e-07
6.49301584319e-05
-1.61522796117e-05
5.45253479901e-06
6.73298649704e-05
-1.5636492897e-05
9.03082996641e-06
5.86760520917e-05
-1.47686305165e-05
9.97401181685e-06
4.33562713551e-05
-1.43802002538e-05
9.68264498828e-06
2.71275496111e-05
-1.48174659797e-05
8.91766518324e-06
1.08924481993e-05
-1.57100876884e-05
7.53745497624e-06
-5.5943011807e-06
-1.69550244576e-05
6.20969373167e-06
-2.25233961941e-05
-1.72792295833e-05
5.39721430935e-06
-3.99244428298e-05
-1.6424558738e-05
4.67497277005e-06
-5.59546005713e-05
-1.41044516374e-05
4.23105616393e-06
-6.52962751909e-05
-1.1039659814e-05
3.7919587692e-06
-6.32634065687e-05
-7.4182928878e-06
3.24857194801e-06
-4.97312990675e-05
-3.85139768213e-06
2.68017169156e-06
-2.90043952853e-05
-1.18085498711e-06
2.68258349188e-06
-1.0040691491e-05
3.80220538496e-06
-1.07035711167e-06
-1.47289651169e-06
-1.27809138787e-05
-1.07014177198e-07
-3.61653363382e-06
-1.23671951406e-05
3.50940911653e-06
-6.62720260136e-06
-1.11740049456e-05
1.46483654848e-05
-9.46204019715e-06
-8.53487086909e-06
3.04391347492e-05
-1.12518853688e-05
-4.61624759043e-06
4.30287900397e-05
-1.17193584044e-05
-5.51878572221e-07
4.73493607716e-05
-1.14643646793e-05
2.13484712853e-06
4.28019554325e-05
-1.11127377375e-05
3.22943090615e-06
3.25334241389e-05
-1.13221805533e-05
3.54025925598e-06
2.08763415016e-05
-1.18647615333e-05
3.45468690549e-06
8.9258154968e-06
-1.27827618039e-05
3.14639860445e-06
-3.38791557294e-06
-1.37391803981e-05
2.93945649627e-06
-1.60642665694e-05
-1.40767458534e-05
2.86851882883e-06
-2.90401838781e-05
-1.35036251036e-05
2.81735742982e-06
-4.04544452921e-05
-1.16360408161e-05
2.60994089087e-06
-4.61318254235e-05
-8.92366857976e-06
2.16557135758e-06
-4.26235306061e-05
-5.79894529697e-06
1.55815926126e-06
-3.08249067432e-05
-2.92360958034e-06
1.16254360359e-06
-1.54235340757e-05
-8.22969430632e-07
1.52611423491e-06
-4.27857882515e-06
2.99132162376e-06
-9.13578337511e-08
-8.15125975922e-07
-1.08413509788e-05
-1.12362465039e-06
-1.89745250969e-06
-1.06084475178e-05
-2.50183804265e-07
-3.51950727717e-06
-9.88393442311e-06
3.76042752054e-06
-5.31894659734e-06
-8.56849903544e-06
1.22142197262e-05
-6.65900657434e-06
-6.45647638077e-06
2.1041450321e-05
-7.22976896002e-06
-4.13511053471e-06
2.55977689657e-05
-7.28083987139e-06
-2.33139913159e-06
2.42521546196e-05
-7.34191076877e-06
-1.29594181411e-06
1.87762902376e-05
-7.81090665278e-06
-6.36539009492e-07
1.20933483613e-05
-8.6213113637e-06
-2.64233433046e-07
5.22235942658e-06
-9.60766250282e-06
-2.52728164915e-08
-1.89352230366e-06
-1.04688988789e-05
2.52106548005e-07
-9.26208867397e-06
-1.09166365725e-05
5.81316341336e-07
-1.68118987769e-05
-1.05396798037e-05
8.35020343352e-07
-2.33108989386e-05
-9.17867581876e-06
8.44539913931e-07
-2.56403663309e-05
-7.08082167125e-06
5.75870148969e-07
-2.19842578481e-05
-4.64135276623e-06
2.4112548059e-07
-1.38476492483e-05
-2.41748543589e-06
3.25659675703e-07
-5.79297367727e-06
-6.05186707031e-07
1.0041570792e-06
-1.86694729211e-06
2.4823547371e-06
-9.62719386494e-08
-4.12113130958e-07
-8.56253908069e-06
-1.8672798447e-06
-9.79972538843e-07
-8.49433722299e-06
-1.54554406039e-06
-1.51157838356e-06
-8.15081202728e-06
-8.49011637745e-07
-2.30695307897e-06
-7.41205238675e-06
1.58357927842e-06
-3.02438007553e-06
-6.48126858699e-06
5.50379462367e-06
-3.49486198317e-06
-5.27608135304e-06
8.56883617214e-06
-3.7607053436e-06
-4.20364636441e-06
9.07529389919e-06
-4.0892053634e-06
-3.43140542047e-06
7.41948717012e-06
-4.70919852801e-06
-2.82607378565e-06
5.06864973694e-06
-5.59744985211e-06
-2.31890203071e-06
2.51783489343e-06
-6.6144603609e-06
-1.86606169339e-06
-2.57347636248e-07
-7.51901784831e-06
-1.40248011152e-06
-3.23538258941e-06
-8.11409109157e-06
-9.06322647944e-07
-6.40573236067e-06
-8.03442912368e-06
-5.34589179759e-07
-9.04288182774e-06
-7.20851176086e-06
-3.34122742151e-07
-9.47300905072e-06
-5.76515365581e-06
-2.28641653753e-07
-7.33848137194e-06
-4.0563167366e-06
-7.7021967966e-08
-4.18609556452e-06
-2.24047741026e-06
3.22918655496e-07
-2.31101124375e-06
-4.84868777385e-07
9.7916393995e-07
-1.73392808118e-06
2.21801991015e-06
-2.1925388622e-07
-1.59980320267e-07
-6.00040285804e-06
-2.40182270801e-06
-4.54853996953e-07
-6.11962545303e-06
-2.08019408819e-06
-6.63942278921e-07
-6.01825162185e-06
-1.92235848399e-06
-8.01410644164e-07
-5.73218099191e-06
-1.51067583663e-06
-1.04208900838e-06
-5.24562481701e-06
-6.59183476482e-07
-1.30963240216e-06
-4.62607717482e-06
5.14407491476e-07
-1.55296576413e-06
-4.11942783989e-06
1.23061710326e-06
-1.97541100349e-06
-3.6128308207e-06
1.35260758114e-06
-2.64223530645e-06
-3.14181785875e-06
1.23951203777e-06
-3.52891805439e-06
-2.68719322046e-06
9.93706972555e-07
-4.51793334692e-06
-2.22283878114e-06
5.80448223518e-07
-5.44029848165e-06
-1.73228998564e-06
-2.49930611955e-08
-6.06748758653e-06
-1.22560429741e-06
-8.30670954067e-07
-6.23800516378e-06
-7.3810606416e-07
-1.64009515356e-06
-5.84925124907e-06
-3.10295452082e-07
-1.93052733967e-06
-4.93003430427e-06
5.60886154469e-08
-1.76446441538e-06
-3.64439384911e-06
3.63962761066e-07
-1.7747057345e-06
-2.02929298614e-06
7.04256084738e-07
-1.99990572477e-06
-4.02009742247e-07
1.15648796447e-06
-1.80030922803e-06
1.97193907842e-06
-1.55947017429e-07
-1.4787349096e-08
-3.17188671863e-06
-2.81395913595e-06
-1.23759715688e-07
-3.40408208389e-06
-2.60610102449e-06
-2.17614069746e-07
-3.44230931604e-06
-2.48187744588e-06
-2.37179601623e-07
-3.42072546503e-06
-2.29072536034e-06
-3.17369593524e-07
-3.28764630693e-06
-1.88050908729e-06
-3.96864853668e-07
-3.05191871102e-06
-1.49583011028e-06
-5.99614256126e-07
-2.86382799344e-06
-1.05195538743e-06
-1.00645728815e-06
-2.62247611757e-06
-5.78995868655e-07
-1.60012106048e-06
-2.35293879942e-06
-2.00337737441e-07
-2.39081789724e-06
-2.00761000665e-06
1.22648033689e-07
-3.27214238511e-06
-1.64056457707e-06
2.99055785182e-07
-4.07154715453e-06
-1.24805978228e-06
3.16627677438e-07
-4.71055817919e-06
-7.54662834858e-07
1.62531388109e-07
-4.94972379596e-06
-3.19164542656e-07
-1.79618900628e-07
-4.76388735291e-06
9.73149011321e-08
-5.98555764945e-07
-4.08344173547e-06
4.8297771578e-07
-1.10489912875e-06
-2.97769524406e-06
7.75623478704e-07
-1.52274402814e-06
-1.61407631659e-06
9.63837270976e-07
-1.61927801677e-06
-3.267176926e-07
1.06157787214e-06
-1.19355490374e-06
1.35486463565e-06
2.92315086177e-07
8.74245875368e-09
-3.1808916192e-06
1.99008026254e-08
-3.41505141007e-06
1.81383490068e-09
-3.42436539501e-06
-1.18928215366e-08
-3.40651946412e-06
-1.47584328378e-09
-3.29512011831e-06
-6.80877395537e-08
-2.98846226775e-06
-1.81925009189e-07
-2.75113961408e-06
-4.61067935908e-07
-2.34198270209e-06
-8.82218489547e-07
-1.9304376921e-06
-1.46618620646e-06
-1.4278339115e-06
-2.05267078307e-06
-1.04679024758e-06
-2.70764180051e-06
-5.94305418085e-07
-3.13559903565e-06
-3.23384672599e-07
-3.32122291984e-06
-1.36164804225e-07
-3.17192569012e-06
-4.87411092924e-08
-2.64754503847e-06
-4.63049534741e-08
-1.8040013557e-06
-6.56886693826e-08
-7.92053511034e-07
-5.0834844012e-08
-3.29931857142e-08
3.04658570538e-07
1.32152923155e-06
-4.28685438046e-06
-2.53651465573e-06
1.38516158263e-05
-8.51343009221e-06
-2.39420987464e-06
1.37120420925e-05
-1.24501816207e-05
-2.39103427983e-06
1.34007389634e-05
-1.6002402221e-05
-2.32190842518e-06
1.27406782746e-05
-1.91810088024e-05
-2.00233616493e-06
1.22661954235e-05
-2.18523261168e-05
-1.29531811921e-06
1.15451720777e-05
-2.38290604177e-05
-6.56746901382e-07
9.87469584507e-06
-2.52033924598e-05
-3.52384258278e-07
7.52987245645e-06
-2.59512400208e-05
-7.22663732619e-08
5.08717901604e-06
-2.61621269017e-05
2.82374100273e-07
2.56386664258e-06
-2.57585733662e-05
5.96288560957e-07
-2.18172974831e-08
-2.48068832086e-05
9.75347086763e-07
-2.5491243113e-06
-2.33378589657e-05
1.37116844183e-06
-5.01093044374e-06
-2.1280229103e-05
1.64955679102e-06
-7.19041395524e-06
-1.86249287463e-05
1.65817578933e-06
-8.46634039609e-06
-1.54500953736e-05
1.42873967732e-06
-8.9253709932e-06
-1.19715999816e-05
1.29553140569e-06
-9.35144284169e-06
-8.18950600191e-06
1.34797748932e-06
-1.00187113487e-05
-4.14258217851e-06
1.39874307305e-06
-1.0608099411e-05
1.35302284531e-06
-1.09588701423e-05
-4.54236124551e-06
-4.61746884888e-06
1.36172547316e-05
-8.63547503142e-06
-4.44758875185e-06
1.22836368821e-05
-1.25963611516e-05
-4.24868858282e-06
1.22543016221e-05
-1.65618042388e-05
-3.42741419835e-06
1.41082527962e-05
-2.0274859106e-05
-1.86164714081e-06
1.66849134782e-05
-2.3250877675e-05
-2.05086150055e-07
1.7593537882e-05
-2.53339363914e-05
1.0101383259e-06
1.54049061975e-05
-2.66250197962e-05
1.8143751903e-06
1.12029413582e-05
-2.73392298959e-05
2.3653258993e-06
6.45609936992e-06
-2.74457303894e-05
2.98736239036e-06
1.77242960852e-06
-2.7007382002e-05
3.63859655722e-06
-2.90381715981e-06
-2.60314762155e-05
4.33019078556e-06
-7.53685092325e-06
-2.45802090685e-05
5.04299915338e-06
-1.2105278226e-05
-2.23688970635e-05
5.52516515046e-06
-1.59481235138e-05
-1.93612274893e-05
5.45181305484e-06
-1.72798388223e-05
-1.57613428119e-05
4.67431854713e-06
-1.56831203372e-05
-1.19471608627e-05
3.65509465982e-06
-1.28444259976e-05
-8.08655791482e-06
3.02172930705e-06
-1.10468566964e-05
-4.07138312169e-06
2.9056207246e-06
-1.08846284036e-05
2.9039201907e-06
-1.11724705911e-05
-4.64049358338e-06
-6.54643897384e-06
1.36344429342e-05
-8.86493362714e-06
-6.23195386862e-06
1.27878622343e-05
-1.35050163567e-05
-5.15325282087e-06
1.66032725973e-05
-1.8291325293e-05
-2.94656662487e-06
2.43878270466e-05
-2.26118387712e-05
-1.77799766485e-07
3.08909508955e-05
-2.59411862141e-05
2.44751548695e-06
3.22107235519e-05
-2.80178453259e-05
4.32312440797e-06
2.75891076447e-05
-2.92910223758e-05
5.66480002367e-06
1.95256064297e-05
-2.98993410747e-05
6.38811135309e-06
1.06496679808e-05
-2.99349472579e-05
7.28026487772e-06
1.92640872094e-06
-2.94056714454e-05
8.22176392039e-06
-6.64703760945e-06
-2.83720232176e-05
9.21293188202e-06
-1.51142856948e-05
-2.69197184065e-05
1.02024659205e-05
-2.34432139194e-05
-2.46416901931e-05
1.08402966787e-05
-3.06790763973e-05
-2.13651969542e-05
1.06878343167e-05
-3.36170936801e-05
-1.72156221226e-05
9.35145745466e-06
-3.0790338611e-05
-1.25812881417e-05
7.3904613615e-06
-2.33045340503e-05
-8.13210801307e-06
5.56119775879e-06
-1.54461696231e-05
-4.04711933782e-06
4.5797283697e-06
-1.1549660729e-05
4.37481943922e-06
-1.10145184438e-05
-4.65359093124e-06
-8.41604462615e-06
1.37867665729e-05
-9.49846799523e-06
-7.48639475282e-06
1.64213684174e-05
-1.52053253892e-05
-5.23059950946e-06
2.76739277889e-05
-2.07034980857e-05
-1.76214964304e-06
4.1758008833e-05
-2.55359830838e-05
2.09394441391e-06
5.08093143349e-05
-2.89907083119e-05
5.49170037592e-06
5.10141242129e-05
-3.08245795927e-05
7.71810690008e-06
4.29044979675e-05
-3.17360775398e-05
9.67068249854e-06
2.99586417943e-05
-3.22481574702e-05
1.07303748907e-05
1.60830164203e-05
-3.21524442083e-05
1.20272420841e-05
2.47041107511e-06
-3.15657275005e-05
1.33100864597e-05
-1.07405028479e-05
-3.05099271334e-05
1.46083576816e-05
-2.37462117872e-05
-2.91599474822e-05
1.57898643997e-05
-3.6406167232e-05
-2.69225107431e-05
1.64860190223e-05
-4.78299306187e-05
-2.36783027388e-05
1.62521650038e-05
-5.34739936087e-05
-1.92784465318e-05
1.44300087441e-05
-5.089120393e-05
-1.40548305503e-05
1.16502830783e-05
-4.02363014768e-05
-8.64225405172e-06
8.74594180139e-06
-2.56155958168e-05
-4.05982297813e-06
6.63597370378e-06
-1.44979351992e-05
5.76212178142e-06
-1.08727579198e-05
-4.79531388893e-06
-1.00322198738e-05
1.50095902864e-05
-1.05874069516e-05
-8.39649311494e-06
2.33294784822e-05
-1.70703080885e-05
-5.11910548257e-06
4.211099923e-05
-2.31689697252e-05
-7.57128353496e-07
6.08990526806e-05
-2.79622253574e-05
3.94447065818e-06
7.11704315002e-05
-3.12724552574e-05
7.90887437287e-06
6.92628123713e-05
-3.26989348375e-05
9.96711737293e-06
5.74823935611e-05
-3.33200220387e-05
1.25219017575e-05
4.00247066753e-05
-3.35588790903e-05
1.41394058479e-05
2.13848319838e-05
-3.3326109989e-05
1.58176369687e-05
3.50188483498e-06
-3.27059981221e-05
1.74902456777e-05
-1.40303341295e-05
-3.18090119641e-05
1.92271466457e-05
-3.13777359282e-05
-3.06883419989e-05
2.05406972083e-05
-4.7916668101e-05
-2.84727470355e-05
2.12225288068e-05
-6.34822416402e-05
-2.53860296075e-05
2.110148553e-05
-7.22282641932e-05
-2.10563368563e-05
1.90346294315e-05
-7.11002913931e-05
-1.55976984131e-05
1.56516082691e-05
-5.87931266952e-05
-9.56011653663e-06
1.18374728228e-05
-3.91599569502e-05
-4.1726118954e-06
8.77861925265e-06
-2.03805879813e-05
7.11242755301e-06
-1.14774853171e-05
-5.09918530922e-06
-1.15265271621e-05
1.69911215337e-05
-1.16003659563e-05
-9.30777981955e-06
3.0835592479e-05
-1.86685707159e-05
-5.35707349228e-06
5.51262973953e-05
-2.4967569827e-05
-2.44629518121e-07
7.70417588119e-05
-2.98445587106e-05
4.96140535434e-06
8.73017839761e-05
-3.27943694366e-05
8.7826298593e-06
8.26787217236e-05
-3.38230695514e-05
1.02599730122e-05
6.69576740119e-05
-3.399308345e-05
1.30305121658e-05
4.59464810356e-05
-3.35395957317e-05
1.50151875306e-05
2.36694610937e-05
-3.31089136983e-05
1.73109786214e-05
3.25543313523e-06
-3.23196354101e-05
1.97113112459e-05
-1.73802107937e-05
-3.12328172502e-05
2.26966430822e-05
-3.82305301838e-05
-2.9818943915e-05
2.42785933043e-05
-5.73372212071e-05
-2.8198977555e-05
2.54570165364e-05
-7.53254839966e-05
-2.59564641248e-05
2.52626981891e-05
-8.64503605251e-05
-2.21064554648e-05
2.27730800789e-05
-8.72018284925e-05
-1.67434682125e-05
1.87515460995e-05
-7.4330352666e-05
-1.04309572098e-05
1.42461033191e-05
-5.13821610932e-05
-4.44998891787e-06
1.04982695775e-05
-2.70084403124e-05
8.25259212772e-06
-1.27912853119e-05
-5.27953546626e-06
-1.3035686194e-05
1.80689191813e-05
-1.21652901211e-05
-1.05488058555e-05
3.53863776143e-05
-1.9441259639e-05
-6.20103291286e-06
6.27634550759e-05
-2.58372437048e-05
-6.3050487708e-07
8.64942894989e-05
-3.06307309396e-05
5.00772070317e-06
9.62836767178e-05
-3.31454056411e-05
8.67022958505e-06
8.8937585998e-05
-3.38250218315e-05
9.51728817301e-06
7.14132656836e-05
-3.29636709981e-05
1.11233814929e-05
5.09471477066e-05
-3.15505301835e-05
1.50532919987e-05
2.59955900631e-05
-3.03796198528e-05
2.14362343112e-05
-1.19649481768e-06
-2.97535483705e-05
2.71856809535e-05
-2.68885115925e-05
-2.91870155032e-05
3.35732268141e-05
-5.12660178523e-05
-2.93057797772e-05
3.50296734318e-05
-6.86229527154e-05
-2.93930588501e-05
3.00510982331e-05
-8.01557353189e-05
-2.68821006611e-05
2.72701609959e-05
-9.30127805792e-05
-2.28004807998e-05
2.43951652214e-05
-9.57182304613e-05
-1.73117343743e-05
2.00908436869e-05
-8.30084960896e-05
-1.08318342266e-05
1.5331814994e-05
-5.8376919545e-05
-4.5786549432e-06
1.13482679608e-05
-3.0929144733e-05
8.9346791206e-06
-1.33650762714e-05
-5.21869005105e-06