/*--------------------------------*- C++ -*----------------------------------*\
| =========                 |                                                 |
| \\      /  F ield         | OpenFOAM: The Open Source CFD Toolbox           |
|  \\    /   O peration     | Version:  v1606+                                |
|   \\  /    A nd           | Web:      www.OpenFOAM.com                      |
|    \\/     M anipulation  |                                                 |
\*---------------------------------------------------------------------------*/
FoamFile
{
    version     2.0;
    format      ascii;
    class       volVectorField;
    location    "3.5";
    object      U_0;
}
// * * * * * * * * * * * * * * * * * * * * * * * * * * * * * * * * * * * * * //

dimensions      [0 1 -1 0 0 0 0];

internalField   nonuniform List<vector> 
11640
(
(-0.00101591450126 -0.00056954998913 0.000922748118771)
(-0.00297234786054 -0.000727742254203 0.000981859753794)
(-0.0048226532995 -0.000803408263824 0.0010347110827)
(-0.0064882883608 -0.000824195222223 0.000981042052067)
(-0.0079409932875 -0.000795396975825 0.000876475432546)
(-0.00914187039217 -0.000748765892235 0.000737878890909)
(-0.0101291166772 -0.000611784064865 0.000601220471868)
(-0.0108948999173 -0.000413096771619 0.000441928752565)
(-0.0114242402612 -0.000273330331531 0.000275715272026)
(-0.0117528682229 -0.00014141150071 0.000151891933798)
(-0.0117900634919 2.39731444095e-05 -4.90699720135e-05)
(-0.0115718141088 0.000164065124239 -0.000216030083589)
(-0.011106330237 0.000289658264045 -0.000371332511917)
(-0.0103753672683 0.000391928294928 -0.000532420816569)
(-0.00935176624018 0.000443051776645 -0.000688124889598)
(-0.00804236499679 0.000457578244235 -0.000796228097722)
(-0.00648198954797 0.00046227124727 -0.000871688588928)
(-0.00472003375796 0.000479746795261 -0.000920742218765)
(-0.00288989995058 0.000509867399043 -0.000962861784504)
(-0.000916328299563 0.000590991809434 -0.00101762100571)
(-0.00126863777768 -0.00141542327573 0.000928896511009)
(-0.00335422292617 -0.00164693926308 0.000746166648139)
(-0.00505847676213 -0.00180471123444 0.000671313667083)
(-0.00660867737331 -0.00187316992505 0.000555262375163)
(-0.00790768038837 -0.00179741065941 0.000359939855146)
(-0.00897897185218 -0.00151971525307 0.000170736575759)
(-0.00987158005461 -0.00116921722823 1.98805950123e-05)
(-0.0106382965607 -0.000774104960855 -0.000100357313805)
(-0.0112122120747 -0.000488772070723 -0.000168625600554)
(-0.011565064178 -0.000181139095692 -0.000249194870835)
(-0.0116413318087 0.000150611040037 -0.000335892575814)
(-0.0114526164556 0.000474966320695 -0.000410974787797)
(-0.0110038042322 0.000782722490304 -0.000502237367035)
(-0.010268740093 0.00105677039648 -0.00063502785997)
(-0.00923041556973 0.00125670585328 -0.000771162988343)
(-0.00793239150281 0.00136249004761 -0.000880559048485)
(-0.00642946220842 0.00140273610791 -0.000931189403255)
(-0.0047680722242 0.00145161657474 -0.00096336460595)
(-0.00298084167047 0.00151730003373 -0.000990389821514)
(-0.000987255544299 0.0016750500475 -0.00104909058707)
(-0.00136920655592 -0.00206299430134 0.00098522556986)
(-0.00357651108424 -0.00215865567076 0.000713146970468)
(-0.00522310247422 -0.00228809322808 0.000521292624082)
(-0.00662066421668 -0.00221216198094 0.000236721999815)
(-0.00772736959603 -0.00179848697628 -4.10604998701e-05)
(-0.00870767936847 -0.00119508875904 -0.000344615993405)
(-0.00957909518282 -0.000604195612544 -0.000501221302414)
(-0.0103346056978 -1.96499655142e-05 -0.000554435779479)
(-0.0109919204726 0.000372581572416 -0.000572072689176)
(-0.0113810351746 0.000736990315343 -0.000563948287804)
(-0.0114756082105 0.00109611979352 -0.000531190068469)
(-0.0113046721341 0.00145465492653 -0.000497093540545)
(-0.0108645405151 0.00179902093935 -0.000521540027664)
(-0.0101297104537 0.00212201057866 -0.000636906638771)
(-0.0090737312565 0.00238610241739 -0.00077372829806)
(-0.00776377040242 0.00253625400766 -0.000897229306285)
(-0.00627321774159 0.00256559682079 -0.000946313687815)
(-0.00471395205217 0.00257455538674 -0.000962168883984)
(-0.0030259152503 0.0026067748516 -0.000966675543902)
(-0.00103406145082 0.00275327403008 -0.00101356393687)
(-0.00137932467243 -0.0027063535451 0.00105381376195)
(-0.00374157279395 -0.00274366725503 0.000690843801795)
(-0.00530798366353 -0.00272143660948 0.00038684164797)
(-0.0064648773333 -0.00228053986521 -3.60831448956e-05)
(-0.00747882051431 -0.00140495655067 -0.00048873385441)
(-0.00848152842727 -0.00037224035565 -0.000845579342663)
(-0.0092848706559 0.000449579837067 -0.00101130183021)
(-0.0100610704469 0.00130332515239 -0.000968878381662)
(-0.0108074302291 0.00169127993574 -0.00100618147185)
(-0.011220518943 0.00188917163937 -0.000883864796144)
(-0.0113205273534 0.00204570002826 -0.000736901583973)
(-0.0111798463439 0.00231289265114 -0.000597840003565)
(-0.0107573172053 0.00260052122207 -0.000536609017059)
(-0.0100334585166 0.0029983394396 -0.000617411848186)
(-0.0089388818265 0.00339319702317 -0.000743032168505)
(-0.0075811169381 0.00362072210657 -0.000859886321692)
(-0.00605993390176 0.0036635579881 -0.000894151271351)
(-0.00452587381924 0.00364045138953 -0.000892718984817)
(-0.00296063751873 0.00362557330516 -0.000888086085035)
(-0.00104651881699 0.00367358361756 -0.00097357506917)
(-0.00140410121977 -0.0033755544414 0.0011047620597)
(-0.00386466358084 -0.0032826787233 0.000633404877742)
(-0.00529086787771 -0.00295994153356 0.000226846826238)
(-0.00639332852196 -0.00203209652742 -0.000294788922473)
(-0.00743735714026 -0.000584349003141 -0.00079329678608)
(-0.0085192158245 0.000940528677439 -0.00123968111832)
(-0.0091040168569 0.0019386728024 -0.00138529455663)
(-0.00989973922897 0.00327664274043 -0.00132336078878)
(-0.0108151177768 0.00368514262696 -0.00136004746652)
(-0.0112356429497 0.00363112364281 -0.0011937542529)
(-0.0112119850614 0.00332706691935 -0.000969785591178)
(-0.0108922645115 0.00313789406846 -0.000747888426436)
(-0.0103600018946 0.00318469624 -0.0005682227595)
(-0.0095882103215 0.00388832585043 -0.000572657550532)
(-0.00851149211723 0.00452664118296 -0.000613860727968)
(-0.00718639133541 0.0047578835235 -0.000702003072833)
(-0.00570302247845 0.00475556812522 -0.000745787872734)
(-0.00422651439784 0.00466364947934 -0.000760362849745)
(-0.00276589743566 0.00457345955007 -0.00078994790473)
(-0.00104147702793 0.00449626316464 -0.000881755290111)
(-0.00147998798828 -0.00400585631881 0.00110803179129)
(-0.00390236513558 -0.00376374683546 0.000604569954386)
(-0.00529178662709 -0.00306216415221 0.000174233933191)
(-0.00643727568727 -0.00163539451031 -0.000348090225332)
(-0.00755115616633 0.000370241279284 -0.000863959774136)
(-0.00878329152655 0.00228671126401 -0.00139062601899)
(-0.00891161052752 0.00342843355713 -0.00162471034746)
(-0.00962371199357 0.00571946818947 -0.00172048497156)
(-0.0107044845063 0.00651967992777 -0.00187949838419)
(-0.0112264294949 0.00687891846988 -0.00169005600166)
(-0.0111224053533 0.00687465488757 -0.00139653070029)
(-0.0105951942479 0.00715366162498 -0.00107861953681)
(-0.00952004591123 0.00688970029053 -0.000715746555369)
(-0.00862445019842 0.00625356072676 -0.000694166038966)
(-0.00801263655107 0.00586115500396 -0.000592084256242)
(-0.00688515810292 0.00573017352812 -0.000589791581052)
(-0.00541175446668 0.00564754993577 -0.000598045904081)
(-0.0039473244435 0.00545506803167 -0.000605879057114)
(-0.00258464379058 0.00529683210618 -0.000666252135721)
(-0.000961416601479 0.00514113501185 -0.000745412632257)
(-0.00152874348902 -0.00456598125706 0.00112188466621)
(-0.00384141916167 -0.00415949550331 0.000666743406361)
(-0.00529215789335 -0.00312676375219 0.000239018846762)
(-0.00657011815128 -0.00124451005807 -0.000166533951267)
(-0.00769117749936 0.00117979881109 -0.000572561049994)
(-0.00912337279679 0.0032856683688 -0.00115160175543)
(-0.00834794393763 0.00435287185724 -0.00116921103209)
(-0.00896246889015 0.00755680395671 -0.000311178800707)
(-0.010057251719 0.00826737525081 -0.000362384701116)
(-0.0098465611434 0.00842699210066 -0.00063287595579)
(-0.00901681329871 0.00750397667305 -0.00068003158251)
(-0.00898367031934 0.00763295008103 -0.00046288206705)
(-0.00955482145999 0.00642484924182 0.000147955350965)
(-0.009802412563 0.00666132785671 -0.000229104289419)
(-0.00855957912652 0.00641776091157 -0.000366724032084)
(-0.00679032548064 0.00642944533468 -0.000451586894529)
(-0.00513873456258 0.00631885161369 -0.000472795555645)
(-0.0036499329481 0.00603327826956 -0.000452463786998)
(-0.00237456815815 0.00580468742955 -0.000523192423175)
(-0.000867557647188 0.00563233715872 -0.00062406301239)
(-0.00144088295913 -0.00512562606273 0.00108342184362)
(-0.00367050866804 -0.00458803556498 0.00069878804902)
(-0.00518867567918 -0.00329789220333 0.000354714084066)
(-0.00655618516803 -0.000964546378588 4.61717916096e-05)
(-0.00782402339925 0.00193516790014 -0.000323719969522)
(-0.00965070597929 0.00432605168635 -0.00141100068156)
(-0.00777657289008 0.00563628161413 -0.00153747142416)
(-0.00818443331247 0.00831661099103 0.000665203827905)
(-0.00855456804681 0.00930768799418 7.67042633754e-06)
(-0.00727920218795 0.010159805374 -0.00149917407532)
(-0.0062627868577 0.0100933658525 -0.00154883112897)
(-0.00736527857645 0.0108116029895 -0.00099768440485)
(-0.00965915586995 0.00944064350371 -8.39907077815e-05)
(-0.0110924975074 0.00873719966167 -0.000388247059058)
(-0.00874160661455 0.00704557273301 -0.000576301116283)
(-0.00664267054815 0.00686414866629 -0.000473633340957)
(-0.00496311917228 0.0066433566888 -0.000415794178891)
(-0.00343588958825 0.00630237777625 -0.000347356422624)
(-0.00223275626415 0.00602448813862 -0.000387935851312)
(-0.000804891721742 0.00589517928905 -0.000502711202281)
(-0.00129980957945 -0.00570627219273 0.000996460077515)
(-0.00340703761487 -0.00507422944852 0.000713760167357)
(-0.00493100989726 -0.00355804318932 0.0004902911316)
(-0.00632272844697 -0.000828006884426 0.000292427742025)
(-0.00760714092773 0.0025618831302 2.67722021014e-05)
(-0.00946889397898 0.00528798779353 -0.0010120928084)
(-0.00762192029808 0.00694657183985 -0.00131001113906)
(-0.0075197853788 0.00841654890293 0.001212670978)
(-0.00692943552579 0.00895649317081 0.000870595875698)
(-0.00470429904569 0.00957291570359 -0.000513287479123)
(-0.00363967533212 0.00995882867326 -0.00024339098638)
(-0.00571394838758 0.0106246788169 0.00082710742604)
(-0.0103777912447 0.0100782267642 0.00167100111699)
(-0.012653756893 0.00910539984034 0.000417099273053)
(-0.00938205306648 0.00717759012557 -0.000421618171801)
(-0.00646356833832 0.00686621085601 -0.000373611524457)
(-0.00464008336065 0.00657901319827 -0.000328551619267)
(-0.00313545964479 0.00620325399805 -0.000224577000023)
(-0.00201940622458 0.005938862941 -0.000248832513241)
(-0.000708350356299 0.00585078482536 -0.000369270594333)
(-0.00114507300795 -0.00623547654392 0.000910192086742)
(-0.00309903135793 -0.00553603340179 0.000724405107326)
(-0.00456580613017 -0.00387075908233 0.000596749203078)
(-0.00588856870333 -0.000888102536771 0.000491986310541)
(-0.00710905900731 0.00282693914278 0.000342859927517)
(-0.00863865443927 0.00575536967867 -0.000493661002461)
(-0.00696050774854 0.0076724626886 -0.000702994842069)
(-0.00678864113611 0.00883349265992 0.00183403049615)
(-0.00551333792843 0.0093575427826 0.00141140804391)
(-0.0033768287647 0.00943598084961 -0.000100423834512)
(-0.00279568394517 0.00909607645916 -7.33403784892e-05)
(-0.00547270573981 0.00838184765655 0.000714839783243)
(-0.0100059392078 0.00770520616351 0.00112649867067)
(-0.0118403923445 0.00746399469822 0.000207600078287)
(-0.00916637444698 0.00645833369211 -0.000390628684997)
(-0.00612384961675 0.00637885181456 -0.000302757166912)
(-0.00433294330992 0.00615911036369 -0.000262928649591)
(-0.00284588789874 0.00580903934784 -0.000105483771594)
(-0.00180408560035 0.00560120557099 -0.000103243359014)
(-0.000624295618032 0.00558002726217 -0.000214279506401)
(-0.00098779377104 -0.00663077184038 0.000739548027833)
(-0.00278794397704 -0.00591438608524 0.000657048986812)
(-0.0041749560836 -0.00419273891339 0.000639501455985)
(-0.00538803619835 -0.00116543804244 0.000662284037611)
(-0.00644070803195 0.00258895951547 0.00067529853955)
(-0.00745876015147 0.00539687949493 -7.24702372712e-07)
(-0.00558041374772 0.00748190823814 -1.8490757644e-05)
(-0.00558920677831 0.00513877947923 0.00144044329315)
(-0.00527327907545 0.00483653491088 0.00064630913132)
(-0.00393549128584 0.00490784161627 -0.000223741884063)
(-0.00341474780886 0.00597542410901 -0.000149064938382)
(-0.0056465416686 0.00582160648769 0.00051237250875)
(-0.00881831110773 0.00657659556211 0.000643769837956)
(-0.00985462801793 0.00618006487866 7.8800681854e-05)
(-0.00823140158077 0.00599503275296 -0.000337698711069)
(-0.00552429606788 0.00573764828676 -0.000227725062466)
(-0.00388609936312 0.00548468964481 -0.000189855351226)
(-0.00248631365811 0.0051485740795 7.86594484975e-07)
(-0.00152483348134 0.00502153457027 2.61481604808e-05)
(-0.000473896665137 0.00512306887261 -6.56384029932e-05)
(-0.000810905971835 -0.00675382397045 0.000538032511999)
(-0.00247118356074 -0.00609252597486 0.000574280009191)
(-0.00381062595128 -0.0044367618393 0.000671535845454)
(-0.00493866023624 -0.00152703489399 0.000854875226502)
(-0.0059570834735 0.00214653632446 0.000984457286569)
(-0.00658026788716 0.00515022808168 0.000458208243802)
(-0.0069637716706 0.00740679258753 0.000249184322976)
(-0.00633986975344 0.0064517400871 -0.00157548354621)
(-0.00420551793568 0.00713934286375 -0.00178688077562)
(-0.00303774322353 0.00720961823272 -0.00145100768917)
(-0.0031002336261 0.00768138549203 -0.000515529650693)
(-0.00513030100501 0.00630715589812 2.49246085105e-05)
(-0.00742928979323 0.00639343956826 0.000332811883819)
(-0.00838808366982 0.00562111557908 1.40859065788e-05)
(-0.00736023272924 0.00538090221276 -0.000182971416199)
(-0.00524047263986 0.00488903514646 -0.000133184267944)
(-0.00356891870561 0.00454897797459 -8.01669521131e-05)
(-0.00218131991528 0.00425936069082 0.00010373761794)
(-0.00124601752941 0.0042339553846 0.00012848380198)
(-0.000320789939042 0.00451050800147 8.07309920632e-05)
(-0.00062620572945 -0.00658642565541 0.000365272168455)
(-0.00208282307878 -0.00607167455474 0.0004863235306)
(-0.00329118309822 -0.00466040489269 0.00068106246721)
(-0.00420671764468 -0.00211928917421 0.00102535496158)
(-0.00480685850429 0.00115264043739 0.00140179587981)
(-0.00485279005552 0.00418892360565 0.00136852454272)
(-0.00428468825293 0.00622908596901 0.00145502646502)
(-0.00389522108048 0.00747009895934 0.00129016467644)
(-0.00386062971084 0.00775517600913 0.00120927347098)
(-0.0039662532009 0.00729345679428 0.0014331113332)
(-0.00440483632222 0.00633271791007 0.00157711673258)
(-0.00540983218985 0.00487526100102 0.00148122341885)
(-0.0063248042713 0.00446310935554 0.00113957735641)
(-0.00668051578168 0.00392356397124 0.000523094633595)
(-0.00602005785838 0.00391268456757 0.000133533316466)
(-0.00453802043738 0.00360303650231 4.00892915031e-05)
(-0.00309186544439 0.00334110582885 3.86693243385e-05)
(-0.00183619629792 0.00318002511145 0.00016248838202)
(-0.000974135770206 0.00329956105375 0.000188861472051)
(-0.000164605740684 0.00382917177868 0.000226813388611)
(-0.000416900850134 -0.00620065784998 0.000163885183995)
(-0.00157609861595 -0.00586678061933 0.000331832117754)
(-0.00259202359821 -0.00480799818136 0.000556417450463)
(-0.0033286711763 -0.00285225243211 0.000935158555853)
(-0.00372047666653 -0.000328877875425 0.00134364242722)
(-0.00364189747723 0.00206862661338 0.00155770542779)
(-0.0033475778904 0.0035703343672 0.00158797084684)
(-0.00306419427793 0.00390784607832 0.00136629874091)
(-0.00283309106546 0.00399075572763 0.00131604258087)
(-0.00295817481147 0.00392546938889 0.00136418390649)
(-0.00349258479354 0.0035524161715 0.00136461322581)
(-0.00431186266301 0.0030102053041 0.00120758110892)
(-0.00501381944375 0.0028742274806 0.000921640563431)
(-0.00527691270776 0.00265030029904 0.00055439919739)
(-0.00487878951478 0.00259440943246 0.000257162324002)
(-0.00385562674479 0.00237913943085 0.0001495791699)
(-0.00268327023861 0.00217381261424 0.000103463226857)
(-0.00160654705972 0.00210746647812 0.000128381669887)
(-0.000795353851082 0.00236549222688 0.000161077396096)
(-4.40098141088e-05 0.00309317186225 0.00028848614789)
(-0.000224570198409 -0.0056238204689 -3.57552682242e-05)
(-0.000980504992119 -0.00540639504801 0.000155469212977)
(-0.00170054167681 -0.00470967639108 0.000326821010885)
(-0.00226287158977 -0.00338034463505 0.000637001553386)
(-0.00251759960895 -0.00157763747228 0.00102401860076)
(-0.00241204206582 0.000182682351468 0.0013255579033)
(-0.00215372667949 0.00135988512949 0.00150073839104)
(-0.00197572356887 0.0019456675227 0.00152188603097)
(-0.00197664051132 0.0021355960639 0.00153332506037)
(-0.00226649892919 0.00206878177882 0.00150531457452)
(-0.00281790402679 0.00183164382678 0.00137400996695)
(-0.00349692796866 0.00160062528493 0.00114669200738)
(-0.00407214587229 0.00153598891141 0.000864332735996)
(-0.00430932747618 0.00145891488004 0.000576499383732)
(-0.00405471918203 0.00143498344693 0.000304482118001)
(-0.00337438374852 0.00132045748 0.000138355494146)
(-0.00248707457864 0.00118293259205 4.18715297322e-05)
(-0.00154157589687 0.00120711025313 1.55602110949e-05)
(-0.000736036430322 0.00156169668058 1.36171898205e-05)
(9.0886956923e-05 0.00239828438453 0.000287662273833)
(-3.89073506313e-05 -0.00491086904787 -0.000199858953168)
(-0.0004511315935 -0.00474698787674 -3.95200207496e-05)
(-0.000848567438535 -0.00433785509208 8.29064379552e-05)
(-0.00119143026459 -0.00353162267216 0.000294727424519)
(-0.00133326883575 -0.00239804981732 0.000572963377711)
(-0.0012649102931 -0.00120009046978 0.000834919170569)
(-0.00111622847143 -0.000318593316395 0.00101844430859)
(-0.00110395270511 0.000215098080099 0.00111204397448)
(-0.00130568340384 0.000496942590595 0.00115661944177)
(-0.00172925116705 0.000604092554507 0.00114183122625)
(-0.00234461060135 0.00061443898771 0.00105902471203)
(-0.00300113884597 0.000619270523873 0.00089503983933)
(-0.00353709002085 0.000656215578033 0.000697689967428)
(-0.0037984799881 0.000684801497724 0.000463126827033)
(-0.00367810647918 0.000672143524891 0.000250298098369)
(-0.00320798308712 0.00060681135577 3.44374886054e-05)
(-0.0024869860537 0.000537464912165 -0.000118951716923)
(-0.00161047580166 0.000636690539222 -0.000197817522951)
(-0.000722862576669 0.00101315396689 -0.000200914421269)
(0.000224956194635 0.00190248196526 0.000272204812242)
(7.82903118717e-05 -0.00406843483481 -0.000320992431968)
(-9.78786348601e-05 -0.00398349493904 -0.00016062749014)
(-0.000218172436791 -0.00374082288695 -0.000103754264432)
(-0.000328282890817 -0.00326654832474 1.84770671796e-05)
(-0.000388032421392 -0.00260903873892 0.000223119502291)
(-0.000367484228891 -0.00187942215372 0.000419960692206)
(-0.000364631619336 -0.0012687061993 0.000587575480776)
(-0.000488389023798 -0.000820992705567 0.000704314453391)
(-0.000805096755086 -0.000499299802625 0.000772488819104)
(-0.001315549644 -0.000277291065604 0.000799079914118)
(-0.00195950818169 -0.000118748770536 0.000754709179005)
(-0.0026187144744 1.86892710305e-05 0.000652320470334)
(-0.00317052159949 0.000138607176922 0.000500389127841)
(-0.00349011242427 0.000234185868879 0.000308195207964)
(-0.00347377505561 0.000272870155987 0.000101309934113)
(-0.00313134376869 0.000269793961089 -0.000122920143243)
(-0.00250570805283 0.000257455968954 -0.000287025707807)
(-0.00165742726195 0.000411624545543 -0.000411145578357)
(-0.000696790170599 0.000785454161842 -0.000386785690647)
(0.000284966866058 0.00160627985111 0.000222429306132)
(0.000138212799941 -0.00307330446657 -0.000400215892879)
(0.000127029003442 -0.00310536394763 -0.000250525690741)
(0.000148956925124 -0.00299745814508 -0.00019925141608)
(0.000187037983231 -0.00275450761273 -0.000112150677878)
(0.00022477223917 -0.0023551591407 8.20012611287e-06)
(0.000221922002309 -0.00194523679962 0.000166953518826)
(0.000158198380415 -0.00155728686466 0.000326680873593)
(-3.73683680859e-05 -0.00122709323251 0.000448229941184)
(-0.000398817419087 -0.000941562287573 0.00053984868761)
(-0.000915095889701 -0.000701100130467 0.000592715775177)
(-0.00155666922322 -0.000488644499467 0.000594268026561)
(-0.00220813083688 -0.000288142643861 0.000535360545435)
(-0.00276167462362 -0.00011486978372 0.000409120467276)
(-0.00311491130046 3.61492669796e-05 0.000225639494673)
(-0.00317488545053 0.000153313172771 1.15252065094e-05)
(-0.00293880707855 0.000234380927854 -0.000220938441654)
(-0.00238071990497 0.000317414888367 -0.000396447994746)
(-0.00156407390344 0.000484949285957 -0.000489393878068)
(-0.000639326791604 0.000794383723463 -0.000425121221604)
(0.000259066588982 0.00142226164839 0.000212733303206)
(0.000170004003691 -0.00200521311183 -0.000456655177649)
(0.000260528966284 -0.00214269379205 -0.000354875476096)
(0.000372219398674 -0.00218979569302 -0.000331230810208)
(0.00047418758055 -0.00214438007072 -0.00026296946696)
(0.000547065229992 -0.00200260946659 -0.000182161545947)
(0.000558870721278 -0.00179929876975 -5.14750691018e-05)
(0.00050380246679 -0.00158889163251 7.40789035276e-05)
(0.0003197430041 -0.00139247653797 0.000195175196798)
(-1.68757561558e-05 -0.00120213382411 0.000300322853833)
(-0.000503451622024 -0.00101580128365 0.000375057106648)
(-0.00108498441377 -0.00080052250105 0.000406848900944)
(-0.00168531340622 -0.000547927837418 0.000382630663585)
(-0.0022169537562 -0.000304197468031 0.000313629550691)
(-0.00256139280168 -5.1747808121e-05 0.000170851562574)
(-0.00264937555406 0.000175612825485 -3.81203973639e-06)
(-0.00247797772998 0.000361437535557 -0.000189726449315)
(-0.00200961738061 0.00051789168794 -0.000332112039321)
(-0.0013036811641 0.000652558339704 -0.000379753341946)
(-0.000489767178886 0.000813678673011 -0.000239607972896)
(0.000179033657089 0.00117503139972 0.000298305907791)
(0.000175363300979 -0.000673050115302 -0.000543406098255)
(0.000313402130644 -0.000812249393705 -0.000602025630557)
(0.000477687228188 -0.000906851826386 -0.000614728799123)
(0.000593083667768 -0.000939102112997 -0.000619395449054)
(0.000692669341186 -0.000939369804541 -0.000578416474194)
(0.000741288268567 -0.000887459067594 -0.000526095867923)
(0.000723183441083 -0.000838415607159 -0.000455463355831)
(0.000580633563865 -0.000761332069433 -0.000383698771982)
(0.000316156008209 -0.000694578614044 -0.000263047759695)
(-3.62615940009e-05 -0.00060435642311 -0.00016138427526)
(-0.000460468933166 -0.000447863808787 -4.78798827735e-05)
(-0.00092030838331 -0.000257022584639 7.02435248197e-05)
(-0.0013517860548 -4.92233944347e-05 0.000145968947918)
(-0.00164055130696 0.000189229714595 0.000216225119504)
(-0.00172855648827 0.000434732682544 0.000256256276667)
(-0.00160961706738 0.000616647400362 0.000265258706596)
(-0.00123021966044 0.000721348891001 0.000250392587584)
(-0.000711178235083 0.000736131468303 0.000221068792418)
(-0.000118104743957 0.000648639735459 0.000286333456161)
(0.000151634475689 0.000609787651335 0.000554428291119)
(-0.000961573171142 -0.000470291955968 0.00305943360801)
(-0.00295884718708 -0.000387884385953 0.0030840829128)
(-0.00482673658058 -0.000394774985454 0.00309614059525)
(-0.00655168941177 -0.000383755708289 0.00292858527977)
(-0.00804008451046 -0.00035162684975 0.00262791320315)
(-0.00929007772629 -0.000288011692525 0.00221497365291)
(-0.0103231973894 -0.000179290202372 0.00176172156994)
(-0.0111456314037 -6.0049418933e-05 0.00129158337605)
(-0.0117203745563 3.53372581793e-05 0.000825013133826)
(-0.0120319548204 0.000130974655488 0.000363121588268)
(-0.0120674152908 0.00023159682745 -0.000140784936125)
(-0.0118358925408 0.000329494150628 -0.000627168599871)
(-0.0113445540177 0.000418677439474 -0.00109893650188)
(-0.010585571924 0.000494741384534 -0.00155943183629)
(-0.00955039227338 0.000539254448663 -0.00197057231149)
(-0.00824097378977 0.000551906428704 -0.00231659478425)
(-0.00667594195172 0.000565543135734 -0.00258736970763)
(-0.00491534994943 0.000575426168884 -0.00277695575896)
(-0.00306054292768 0.000580129294352 -0.00293058513851)
(-0.000973047642674 0.000559853666644 -0.00305510959992)
(-0.00106584397076 -0.00130616870547 0.00304812928089)
(-0.00308554479344 -0.00120603012232 0.00262082489876)
(-0.004871712739 -0.00121904434494 0.0024039156136)
(-0.00647817522619 -0.00118351915304 0.00213920006354)
(-0.00789393650112 -0.00105314552265 0.00173956351394)
(-0.00908220055095 -0.000881530786044 0.00129450628014)
(-0.0100522044452 -0.000668249712043 0.000860643075337)
(-0.0108346565031 -0.000407639747306 0.000455486062223)
(-0.0114029367846 -0.000162235225484 8.6626292663e-05)
(-0.0117244595955 9.89763841342e-05 -0.00027930605081)
(-0.0117746070467 0.00037948805683 -0.000646092424564)
(-0.0115514998403 0.000661443283552 -0.00101348747378)
(-0.0110655240897 0.000944796568371 -0.00138145956976)
(-0.0103036125634 0.00118874889078 -0.00177533113826)
(-0.00928228049888 0.00139273066061 -0.0021258235226)
(-0.0080353821815 0.00151403114063 -0.00244181367191)
(-0.00655420105975 0.00157667786414 -0.00269582223441)
(-0.00486649557008 0.00162271055337 -0.0028736974542)
(-0.00300435684625 0.00163993999789 -0.00300589050057)
(-0.000953764120664 0.00160350057627 -0.00311199194964)
(-0.00112441118452 -0.00192043450746 0.00313262449687)
(-0.00316668703869 -0.00183954807114 0.00252340857564)
(-0.00487312799472 -0.00179823541188 0.00213856836875)
(-0.00636632910358 -0.00168350513999 0.0016968708726)
(-0.00770797941966 -0.00145229169104 0.00120558540455)
(-0.00888818865241 -0.00115408386882 0.000656784516965)
(-0.00980083778988 -0.000831189250312 0.000207894115982)
(-0.0105160905003 -0.000379672784109 -0.000148688211938)
(-0.0110732087234 -1.57704929292e-05 -0.000470375080413)
(-0.0113810750109 0.000411261262517 -0.00074186202755)
(-0.0114206219372 0.000845077782481 -0.000976850950019)
(-0.0111822612754 0.00128248524577 -0.00121826570537)
(-0.0106990204303 0.00171317087127 -0.00146614168527)
(-0.00994480677723 0.00206366386909 -0.00179541314737)
(-0.00895373451447 0.00238266508629 -0.00207551568666)
(-0.00779149929016 0.00257664989582 -0.00236428769057)
(-0.00640344449676 0.00267130101291 -0.00261368605212)
(-0.00480942572567 0.00271473533483 -0.00280596781919)
(-0.00300220319659 0.00272396998469 -0.00293750136213)
(-0.00097193326675 0.00271535820901 -0.00304709475426)
(-0.00112584927882 -0.00256489885199 0.00322379565237)
(-0.00314891555486 -0.00244973937337 0.0024996202293)
(-0.00476354394146 -0.00234014246138 0.00200115763885)
(-0.00619857272396 -0.0021350342752 0.00144131280931)
(-0.00750583814252 -0.00183417042982 0.000838806837652)
(-0.00866259840469 -0.0014412510624 0.00025691737414)
(-0.00945720699353 -0.00103012948038 -0.00021089698529)
(-0.0101200865705 -0.000300982498134 -0.000538546491147)
(-0.0106650645025 0.000215042167295 -0.00089912599751)
(-0.0108953646497 0.000810213874731 -0.00110610423107)
(-0.0109199172511 0.00140076351689 -0.00125004982151)
(-0.0106810407875 0.00201402100916 -0.00138537343614)
(-0.0102348950021 0.00258021478746 -0.00148679652115)
(-0.00951698387119 0.00298565853129 -0.00173811845782)
(-0.00856204310104 0.00340630140371 -0.00191448718844)
(-0.00749001438447 0.00363917040726 -0.00215937973852)
(-0.00619881656209 0.00375163409747 -0.00238259073678)
(-0.00471375536191 0.00378925183912 -0.00257506684383)
(-0.00299640226379 0.00376801142984 -0.00273860156329)
(-0.000998527575328 0.00369079562792 -0.0029301362402)
(-0.00109170201326 -0.00323819497087 0.00329070733563)
(-0.00307700896412 -0.00306105028136 0.00247202413775)
(-0.00462764305109 -0.00290256620013 0.00189536422232)
(-0.00604828534767 -0.00266196817652 0.00131459797458)
(-0.00737009390741 -0.00229463970316 0.000718713579606)
(-0.00856444094051 -0.00186249512733 9.48526351856e-05)
(-0.00911242303908 -0.0015527995697 -0.000329537392897)
(-0.00964930722127 -0.000513835204152 -0.000682689334859)
(-0.0101702322668 0.000162122790811 -0.00112347043392)
(-0.0103150772882 0.000878270704481 -0.0013182837841)
(-0.0103326793604 0.00150826303967 -0.00148063423345)
(-0.0101344531644 0.00221802308902 -0.0016514125251)
(-0.00976579142133 0.00292959277183 -0.00161303689237)
(-0.0090518037548 0.00377962138609 -0.00175544138535)
(-0.00809725440566 0.00448968744327 -0.00175444765829)
(-0.00711107924651 0.00471953743594 -0.00195404906039)
(-0.00589541140037 0.0047745883394 -0.00212987943452)
(-0.00451780233363 0.00475514430408 -0.00228715606775)
(-0.00290957483284 0.00471435292471 -0.00244813819086)
(-0.000992812222891 0.00457161571568 -0.00268190942657)
(-0.00103914150678 -0.00390745824359 0.00331297034086)
(-0.00298934864816 -0.00369373800506 0.00249064327127)
(-0.00452819724275 -0.00350779848431 0.00192320553633)
(-0.00598317745284 -0.00320340575558 0.00139163774513)
(-0.00739128972929 -0.00272045997394 0.000818517976721)
(-0.00880377423526 -0.00221805476733 6.13551670697e-05)
(-0.00899368794531 -0.00190529779477 -0.000532815075995)
(-0.00937440327284 3.94323536179e-05 -0.00129253903679)
(-0.00973363559672 0.00125764789234 -0.00203534343841)
(-0.00971497162208 0.00252725033563 -0.00235546990607)
(-0.00960777121607 0.00353408860443 -0.00277069223366)
(-0.00925116493264 0.00469675695206 -0.00305549916586)
(-0.00851007790703 0.00547630063306 -0.00270542311437)
(-0.00779905668664 0.00567196070744 -0.00230361610981)
(-0.00731471504015 0.00586613276471 -0.00180390093118)
(-0.00666048027129 0.00581833532769 -0.0018442142636)
(-0.00556322069103 0.00568298660878 -0.00190420015942)
(-0.00428431957596 0.00553591038593 -0.00200428094228)
(-0.00279119156348 0.00544850711882 -0.00211536604423)
(-0.000954575510847 0.00524145888996 -0.0023741408869)
(-0.000997077162034 -0.00458738884325 0.0032976716766)
(-0.00292088492336 -0.00434665750889 0.00255793695857)
(-0.00444496570025 -0.0041130142082 0.00203520520212)
(-0.00591824979004 -0.00370792033898 0.0015911616556)
(-0.00736314891256 -0.00313391036904 0.0010902926975)