/*--------------------------------*- C++ -*----------------------------------*\
| =========                 |                                                 |
| \\      /  F ield         | OpenFOAM: The Open Source CFD Toolbox           |
|  \\    /   O peration     | Version:  v1606+                                |
|   \\  /    A nd           | Web:      www.OpenFOAM.com                      |
|    \\/     M anipulation  |                                                 |
\*---------------------------------------------------------------------------*/
FoamFile
{
    version     2.0;
    format      ascii;
    class       surfaceVectorField;
    location    "1.5";
    object      ddt0(Uf);
}
// * * * * * * * * * * * * * * * * * * * * * * * * * * * * * * * * * * * * * //

dimensions      [0 1 -2 0 0 0 0];

internalField   nonuniform List<vector> 
33146
(
(-0.00971234828261 -0.00640760950833 0.00879054514754)
(-0.00406527423246 -0.0143197260976 0.00875879498684)
(-0.00521497866722 -0.00759381815755 0.0160242388387)
(-0.0206247570855 -0.00503513340575 0.00808858239172)
(-0.0139272913965 -0.0118105470233 0.0096269378624)
(-0.0158951643165 -0.00691683757067 0.0151518307782)
(-0.0317028983159 -0.00366171106668 0.00711502391274)
(-0.0249226577626 -0.00905947942995 0.00915473602721)
(-0.0270007920266 -0.00572216025131 0.0134283503111)
(-0.0422711205349 -0.00224583628039 0.00589534769892)
(-0.0357968968431 -0.00632976537268 0.00805634605297)
(-0.0380539065117 -0.00446143598414 0.0112633146842)
(-0.0523297907592 -0.000662798870916 0.00446408785104)
(-0.0460776368827 -0.00339261647385 0.00659300040506)
(-0.0485754040951 -0.00295987066976 0.00892246483739)
(-0.0615506500465 0.00107884317198 0.00289469922562)
(-0.0556696447757 -0.000198679048548 0.00502490398946)
(-0.058358879678 -0.00123591281198 0.00618910523641)
(-0.0697709059309 0.00284942812522 0.00126471559733)
(-0.0643495208414 0.00333403982843 0.00344284067337)
(-0.0671062333662 0.000617056054665 0.00317962332174)
(-0.0765636845589 0.00459445421248 -0.000440999578542)
(-0.0717043155075 0.00688443518043 0.00189234437491)
(-0.0745935741264 0.00239537003796 -9.47211359615e-05)
(-0.0815547342276 0.00628473158108 -0.00232848306508)
(-0.0778251826669 0.0102818194263 0.000125036999295)
(-0.0806876446445 0.00419240054986 -0.00352190286944)
(-0.084382148176 0.00787262111981 -0.00432041462389)
(-0.0817415038228 0.0137646195717 -0.00179193928524)
(-0.0845378067099 0.00591722017624 -0.00726468256417)
(-0.0846058701046 0.00935241133491 -0.00631256794627)
(-0.0833316542404 0.0166384925345 -0.00383861862418)
(-0.0860059586559 0.00752626132853 -0.0109103613479)
(-0.0820274839958 0.0107022632846 -0.0082604540337)
(-0.0822528801766 0.0194156376798 -0.00589587758012)
(-0.0847549802586 0.00905334815129 -0.0146352833683)
(-0.0767938526026 0.0119638043476 -0.0100797397855)
(-0.0783819082517 0.0220087872554 -0.00791985819871)
(-0.0807226526254 0.0104304617614 -0.0181499573949)
(-0.0692582577427 0.0131321783788 -0.0117387086132)
(-0.0720762112945 0.0242374634072 -0.00975649409299)
(-0.0742270002589 0.0117605332066 -0.0211914651979)
(-0.059507921905 0.0141273480819 -0.0132179102043)
(-0.0636307783862 0.0262019336628 -0.0114630767928)
(-0.065495680891 0.0129227729287 -0.0239869712618)
(-0.0484738594414 0.0149669768733 -0.01436190336)
(-0.0533758837506 0.0282938197238 -0.0129115532158)
(-0.0548917084017 0.0139201061677 -0.0262263884345)
(-0.0362971777373 0.0156080232654 -0.0151153583619)
(-0.0419357972016 0.029714176849 -0.0140120568145)
(-0.0430283675249 0.0147583514465 -0.0279225560526)
(-0.0237833556666 0.0160219406924 -0.0154624669525)
(-0.0297612469309 0.0310004996353 -0.0147010609255)
(-0.0303853507783 0.0153824828326 -0.0290040524266)
(-0.0114739986548 0.0162730364293 -0.0153816574415)
(-0.0174461227274 0.0320920827595 -0.0148607822318)
(-0.0175452936294 0.0159170109726 -0.0295958771221)
(-0.00587111048956 0.0330058198518 -0.0146794970808)
(-0.00588552329139 0.0165731388239 -0.0296492086594)
(-0.00720846477594 -0.0207503974868 0.0095951877017)
(-0.0027204105016 -0.0297147000373 0.00792550217329)
(-0.00451512840818 -0.0227954194529 0.0150718481763)
(-0.018004969752 -0.0177162753462 0.0106924801835)
(-0.0109551158332 -0.0270422943868 0.0105850203307)
(-0.0141215184312 -0.0210567461344 0.0173551646783)
(-0.0291107668286 -0.0141053252167 0.0100914287763)
(-0.0214812280969 -0.0230635521369 0.0104912385222)
(-0.0249484960355 -0.0179433221386 0.0166882596655)
(-0.0395920516501 -0.00999949651384 0.00873630571335)
(-0.0319589818011 -0.0182539833196 0.00923362538008)
(-0.0358295320762 -0.014188471118 0.0146912437732)
(-0.0494070540015 -0.00533702955184 0.00711407433996)
(-0.0418083185832 -0.0126869751993 0.00763132191205)
(-0.0460738730652 -0.00966608203602 0.0122322546751)
(-0.0583894554136 -0.000204147948057 0.00550824957151)
(-0.0509592295903 -0.00632431402513 0.0061258592829)
(-0.0556171644742 -0.00450058023419 0.00944286057857)
(-0.0664729780729 0.00511708316913 0.00398986648364)
(-0.0594236659959 0.000904798968071 0.00476248130523)
(-0.0643690605108 0.00104109114689 0.0065128209242)
(-0.0734685714889 0.010409915681 0.00237393336628)
(-0.0667560887116 0.00785768943025 0.0035618865546)
(-0.0719309808387 0.00646971114548 0.00379366612047)
(-0.0787827334586 0.0155456878032 0.000569872633147)
(-0.0730011306928 0.0149474142867 0.00207894165505)
(-0.0781834630937 0.0119067621016 0.000430662787848)
(-0.0817518750041 0.0203445476919 -0.0014061129552)
(-0.0772988162858 0.0217279377819 0.000385792221172)
(-0.0823137682784 0.0170364392621 -0.00318376486738)
(-0.0822162960482 0.0247954948977 -0.0035155335436)
(-0.0792232269733 0.0279089928983 -0.00160893862662)
(-0.0840063668302 0.0217673228568 -0.00698287215505)
(-0.0798589192642 0.0288960802509 -0.00564388765932)
(-0.0784461242909 0.0336756065872 -0.00376421614388)
(-0.0829699473932 0.0261917104736 -0.0108377610887)
(-0.0746259689355 0.0327383429665 -0.00767424768749)
(-0.074761626462 0.0389186959193 -0.00591858029364)
(-0.0790409285767 0.0301701636942 -0.014546885899)
(-0.0673171506823 0.0362895097041 -0.00953836686706)
(-0.0686762339174 0.0440172904606 -0.00777091565791)
(-0.0726359900122 0.0340747690153 -0.017916724197)
(-0.0579688429882 0.0394278462008 -0.0111909539562)
(-0.0606309342337 0.0482807458152 -0.0095883205952)
(-0.0641477149018 0.0374891490362 -0.0209206032474)
(-0.0471054576555 0.0422180080694 -0.0125761841496)
(-0.0507699353596 0.0524774002818 -0.0110736815527)
(-0.0538045732952 0.0406260131187 -0.0233988320488)
(-0.0354635761349 0.0445344550735 -0.0136012188356)
(-0.0398480491626 0.0561135293152 -0.0123460160016)
(-0.0423092351239 0.0433532711091 -0.0253969760367)
(-0.0233288683482 0.0462528608953 -0.0140998180875)
(-0.0282451167606 0.0590848071498 -0.0131808467438)
(-0.0300600442188 0.045478246804 -0.0268181629537)
(-0.0113003431695 0.0474606886688 -0.0141586218711)
(-0.0165309075106 0.0612914436849 -0.0134436226437)
(-0.0178202360269 0.0471672635782 -0.0274797702927)
(-0.00555535056363 0.0628837675034 -0.0133233337228)
(-0.00618902460535 0.0487513675116 -0.027447650003)
(-0.00467348117671 -0.0359507438039 0.00891592704847)
(-0.00139066283633 -0.0445497504298 0.00672870178343)
(-0.00333134556466 -0.0381657757876 0.0130078274768)
(-0.0141373442789 -0.03246751939 0.0103846574793)
(-0.0075016219616 -0.0421414884005 0.00969270370669)
(-0.0110766972523 -0.0361044481558 0.0163144593762)
(-0.0244481869709 -0.0274087704967 0.00963052504869)
(-0.0166535485189 -0.0373468944353 0.00940959677763)
(-0.0207469699427 -0.0317462461648 0.0159078308755)
(-0.0342172894217 -0.0211645169909 0.00810312213938)
(-0.0260527906108 -0.0309171163177 0.00786205838667)
(-0.0307478188015 -0.0258571071233 0.0136742790158)
(-0.0432730874886 -0.0138576502156 0.00658126945791)
(-0.0348721134918 -0.0231636448053 0.00628117488236)
(-0.0402041981835 -0.0186556397969 0.0111515173953)
(-0.0518646752591 -0.00569002782937 0.00528769032594)
(-0.0430838686764 -0.0139302147438 0.00508347337381)
(-0.049054321539 -0.0104036516931 0.00897580164259)
(-0.0594279183969 0.00297036111191 0.00427618316358)
(-0.0509843959323 -0.00391238058192 0.00428648897431)
(-0.0574060355928 -0.0015687395981 0.00691853383379)
(-0.066490714211 0.0116857981479 0.00318605891345)
(-0.0582482227591 0.00652617384078 0.00369995323675)
(-0.0649523008552 0.00741697080315 0.00501108301699)
(-0.0721946756256 0.020139955209 0.00181341951289)
(-0.0646387441537 0.0169396621341 0.00283797304997)
(-0.0714762723187 0.0162298644506 0.00245686622532)
(-0.075792739415 0.0280665045172 0.000102469879473)
(-0.0695886550802 0.026827651541 0.00147931661609)
(-0.0762035401944 0.0244722116739 -0.00064786833086)
(-0.0766074255687 0.0354276075747 -0.00193340400246)
(-0.0721007755438 0.0358548740786 -0.000399718089136)
(-0.0784435350052 0.0320782006662 -0.00418513006156)
(-0.074666966038 0.0422381725356 -0.00411325799146)
(-0.0718193067426 0.0445908282597 -0.00252247888598)
(-0.0778818584819 0.03914605478 -0.00788642448558)
(-0.0696411894926 0.0486656194916 -0.00608344385395)
(-0.0684098720996 0.0523670947707 -0.00469308436547)
(-0.0742030607768 0.0455257071098 -0.0116298801139)
(-0.0627441170337 0.0545852623442 -0.00787075045671)
(-0.0627224899672 0.0601983622094 -0.00631345549226)
(-0.0680689662775 0.0518785316272 -0.0147867436797)
(-0.0538357205919 0.0599066049522 -0.00952119225145)
(-0.0551786577552 0.0666974425707 -0.0081678324664)
(-0.0599700686632 0.0574070904066 -0.0178094236302)
(-0.0435487696801 0.0647513213554 -0.0108733037006)
(-0.0458581966889 0.072688750948 -0.00954849126366)
(-0.0500395921239 0.0627807794261 -0.0201754744608)
(-0.0326178309936 0.0689134026246 -0.011942318076)
(-0.0357728101392 0.0783460384717 -0.0107469023157)
(-0.0391893727171 0.0675156379482 -0.0221093142688)
(-0.0212753502245 0.0722547357287 -0.0125295249991)
(-0.025090751031 0.0829116092861 -0.0115736480564)
(-0.0277169267404 0.0714464995843 -0.0234835600302)
(-0.0102084419327 0.0746774021329 -0.0126087528852)
(-0.0144406206539 0.0863677047125 -0.0118364083453)
(-0.0163885867199 0.0744522859984 -0.0240995261085)
(-0.00478010243735 0.0886429425859 -0.011529597276)
(-0.0057364126777 0.0767525418017 -0.0239733797821)
(-0.00193848134732 -0.0502728415327 0.00751145788934)
(-0.000101278954484 -0.0581066220105 0.00523607876)
(-0.00212372279755 -0.0526454669005 0.0103230638445)
(-0.00966661447637 -0.0464266491773 0.00873038948124)
(-0.00373083518351 -0.0555443496875 0.00789355028496)
(-0.00758582806649 -0.0504299336437 0.0136955499599)
(-0.018479403436 -0.0404014944271 0.00767628088763)
(-0.0109635127863 -0.0501558239731 0.00724554848123)
(-0.0154417941948 -0.0450642261632 0.0128169291027)
(-0.0267910439105 -0.0326583247862 0.00607763869739)
(-0.0186565035251 -0.0428369568401 0.00553036566183)
(-0.0238975060941 -0.037608016163 0.0105614768094)
(-0.0345493530968 -0.0232380040371 0.00481497741562)
(-0.0257768328665 -0.0334761308324 0.00404313110661)
(-0.0318950224476 -0.0283029697955 0.00859633389782)
(-0.0416572953216 -0.0123774402184 0.00408398374758)
(-0.0325754336485 -0.0221700593932 0.00328765295989)
(-0.0395863265352 -0.0173655729665 0.00724290210874)
(-0.0491126799368 -0.000805607021984 0.00372900370442)
(-0.0396609284586 -0.0088386942178 0.00324384574994)
(-0.047196188015 -0.00543218513594 0.00641853965776)
(-0.0562618629517 0.0107993433599 0.00332534701834)
(-0.0469260549109 0.00407443857538 0.00388350659758)
(-0.0546497658236 0.00675978414225 0.00597314078903)
(-0.0626807992472 0.0220026094437 0.00247157565707)
(-0.0535277690172 0.0172790930619 0.00375642477934)
(-0.0616118295654 0.0184419677294 0.00448350686378)
(-0.0670239472978 0.0324552481625 0.000907766324836)
(-0.0593898248737 0.0299697885747 0.00243960471295)
(-0.0672721028454 0.0290485331134 0.00179504662254)
(-0.0683407505238 0.0423390593092 -0.00106085534626)
(-0.0625493649748 0.0417276516131 0.000150384739359)
(-0.0702811530932 0.0385817555216 -0.00178412496967)
(-0.0669963488687 0.0517574444512 -0.00320598491613)
(-0.0627122304499 0.0531552738911 -0.00192322521085)
(-0.070387358709 0.0477958301771 -0.00538532771433)
(-0.0622461046279 0.0610333527476 -0.00502666667102)
(-0.0593938949033 0.062941181207 -0.00411706849722)
(-0.0669744063308 0.0564058449089 -0.00914779608769)
(-0.0558724767805 0.0696131895065 -0.00662834549273)
(-0.0541185154241 0.0729178082713 -0.00510300058049)
(-0.0612101675705 0.0655325407529 -0.0119137229625)
(-0.0473718261891 0.0771312190505 -0.00825831875461)
(-0.0473489516571 0.0813087172605 -0.0069873509029)
(-0.0535107733153 0.0734461474176 -0.0148955084616)
(-0.0381085308715 0.0838729265907 -0.00948729577718)
(-0.0387916223703 0.0891725182118 -0.00814392822353)
(-0.0440600126643 0.0811678904911 -0.0170178835992)
(-0.0280511670247 0.0895981337899 -0.0104183534071)
(-0.0299229589434 0.0963016318413 -0.00917495661616)
(-0.0341702685001 0.0877507479216 -0.0187155263134)
(-0.0178877686992 0.094294935187 -0.0109005083914)
(-0.0205194286248 0.102249413478 -0.00990429778898)
(-0.0238279391316 0.093276774085 -0.019786391165)
(-0.00832313010874 0.0975205292664 -0.0107616199747)
(-0.011615982832 0.106876788243 -0.0101807031052)
(-0.0138692446269 0.0973968627578 -0.020101846976)
(-0.00385115319344 0.109090420855 -0.00902688596379)
(-0.00483823155429 0.100259283513 -0.0191772051298)
(0.000510537275067 -0.0629177122629 0.00563638621524)
(0.00123701054236 -0.0698874942839 0.00351867961899)
(-0.000805184267866 -0.0654523660818 0.00741574926303)
(-0.00476937486644 -0.0588056512912 0.00643698449826)
(0.000332479560908 -0.0671781528718 0.00567507745875)
(-0.00361833908738 -0.0630036388905 0.0102347081685)
(-0.011467503005 -0.0522220447214 0.00516386718676)
(-0.00462429828403 -0.0615203243623 0.00467154287127)
(-0.00924687585031 -0.0569766242907 0.00908902711065)
(-0.0177056076763 -0.0435462482392 0.00362632176874)
(-0.0100810931993 -0.053776974406 0.0029490676805)
(-0.015679231413 -0.0484890591955 0.0069960980871)
(-0.0233488591824 -0.0325122934566 0.0027533204385)
(-0.0149242445973 -0.0435366888234 0.00183303364971)
(-0.0216890124768 -0.0375820896562 0.00576823561579)
(-0.0290604463573 -0.0191722419977 0.00282241032339)
(-0.0198510789277 -0.0306279224095 0.00230558662161)
(-0.0277005962897 -0.0244568994065 0.00564259642203)
(-0.0365084039365 -0.0053680086099 0.0038950175815)
(-0.0264732643145 -0.0154502501349 0.00428304743559)
(-0.0340596262357 -0.00975936870522 0.00670320287767)
(-0.0436598398378 0.00882929140148 0.00470737592893)
(-0.033161224032 -0.00409155124938 0.00754388415646)
(-0.0414904957726 0.00460175282469 0.00930738179546)
(-0.0511116204438 0.0235650992761 0.00446331110354)
(-0.0390500351012 0.0122580043741 0.00834214845259)
(-0.0493033786621 0.0190761344669 0.00797210194947)
(-0.0562729017677 0.03752107859 0.00264754214123)
(-0.0461106202776 0.0260137103207 0.00692836268041)
(-0.0565034721999 0.0321882767254 0.00584219358376)
(-0.0579578136963 0.0508042975978 0.000347335778633)
(-0.0501717419197 0.0394787312669 0.00420333106892)
(-0.0602811073031 0.0445103943059 0.00221807712021)
(-0.0565738489554 0.0626883049791 -0.00195699057784)
(-0.0515389648647 0.0524596259266 0.00142331102674)
(-0.0605747900603 0.056128740332 -0.00127984412091)
(-0.0516986974139 0.0729976278773 -0.0039314219258)
(-0.0494006725507 0.0651007530143 -0.00152351222835)
(-0.0569053516072 0.0662850835238 -0.00562045302398)
(-0.0463102660996 0.0820667320401 -0.00547764302015)
(-0.0448721752468 0.0801051633654 -0.00242432265964)
(-0.0512164592533 0.0765079937542 -0.00893212610684)
(-0.0385714091389 0.0907528785541 -0.0070490829197)
(-0.03818003056 0.0911397394651 -0.00549136459644)
(-0.0443254067487 0.0855015143559 -0.0119897956383)
(-0.0305410771858 0.0988743056667 -0.00798547253609)
(-0.030017159475 0.101013195144 -0.00640441779235)
(-0.0358532964984 0.0951856706735 -0.0136741914584)
(-0.0220935272134 0.105631241669 -0.00877540143047)
(-0.022645164862 0.109305851816 -0.00721012402554)
(-0.0274266408801 0.103318131131 -0.0147650516254)
(-0.0133377458752 0.111125371926 -0.00926184534101)
(-0.0148870672137 0.115801015406 -0.00765334240387)
(-0.0186419848647 0.110164001643 -0.0152581850371)
(-0.0065614788616 0.115088963015 -0.00847129184724)
(-0.00795316244798 0.120632333903 -0.00758771248418)
(-0.0105347073694 0.115223931524 -0.0138364804003)
(-0.00249600967265 0.124683088003 -0.00599259644158)
(-0.0036537619258 0.118594774293 -0.0147939775502)
(0.00306577437022 -0.0735688217736 0.00358908987459)
(0.00259924488729 -0.0793517429539 0.00167333580155)
(0.000644597229273 -0.0761699828279 0.00398454462768)
(0.000630398415323 -0.0694940802587 0.00396231763694)
(0.00445267906313 -0.0768090765608 0.00337471026345)
(0.000675458830078 -0.0736687916817 0.00632725557514)
(-0.00351809615517 -0.0628624910752 0.00257572767259)
(0.00206407438595 -0.0712760343563 0.00215315259473)
(-0.0024989533953 -0.0674823607937 0.00533366740857)
(-0.00731019791458 -0.0539521078135 0.00129994359933)
(-0.000879418987077 -0.0634773869805 0.000490539824142)
(-0.0063773064915 -0.0585648091836 0.00369007096463)
(-0.0106254829679 -0.0423040671081 0.00120949529564)
(-0.00318212456277 -0.053141906844 -0.000362357226287)
(-0.00981004276441 -0.0470707934584 0.00341001879715)
(-0.0144514526439 -0.0280662940394 0.00300076373274)
(-0.00616331085843 -0.0400106124721 0.00161688706629)
(-0.0136727566347 -0.0331193402967 0.00491160405887)
(-0.0227854151945 -0.0148190435582 0.00682790194928)
(-0.0120454717449 -0.0242616681471 0.00456401594279)
(-0.0188586733938 -0.0172573677327 0.00901890053433)
(-0.0265580058643 -0.000925800414809 0.00870288600029)
(-0.0179909621314 -0.0126818399789 0.00999247965374)
(-0.0255025406305 -0.00290795723683 0.0104643059512)
(-0.0353061909989 0.0146339612058 0.00778724888562)
(-0.0229731876187 0.00631901170625 0.00895585998322)
(-0.03342512045 0.0132961087573 0.0136534477641)
(-0.0413272500871 0.0290843467768 0.00515566361274)
(-0.0318906054099 0.0220779072152 0.00629866776933)
(-0.0418764830958 0.027052627606 0.0113268464615)
(-0.0445242200275 0.0432399018752 0.00222756609701)
(-0.0369144561948 0.0389531155274 0.00385830137996)
(-0.0467498569412 0.0404195585766 0.00657443160078)
(-0.0449585865302 0.0569613078992 -0.000782442637545)
(-0.0389603522046 0.0551297603985 0.00080170142394)
(-0.0489468811247 0.0524798714119 0.00132349403629)
(-0.0437566024625 0.0708020995745 -0.00275119476898)
(-0.0366925482983 0.0743721111361 -0.00224440084492)
(-0.0466276744053 0.0639723065831 -0.00541554488433)
(-0.0369135356264 0.084647654603 -0.00420985628203)
(-0.0312327000285 0.0827348063191 -0.00244953815846)
(-0.0412959759255 0.0761129223732 -0.00584430665232)
(-0.0288978023097 0.0976383203048 -0.00560685966314)
(-0.0248734239434 0.0960252195432 -0.00540723012853)
(-0.034384169177 0.0894740077145 -0.00948706665441)
(-0.0218294871874 0.108434301586 -0.00592535044565)
(-0.018217170638 0.108018034877 -0.00502628113539)
(-0.0261446124988 0.102701458856 -0.0104892603156)
(-0.0150459858208 0.116629240533 -0.00623250516348)
(-0.0135455655182 0.117665035407 -0.00519587492012)
(-0.0193516959657 0.113220221909 -0.011375604445)
(-0.00844268870545 0.122856974404 -0.00603559444788)
(-0.00826391600931 0.125278417399 -0.00508323403632)
(-0.0123982786796 0.121541499375 -0.0116293182359)
(-0.00304741861994 0.127410729796 -0.00512972607865)
(-0.0035804975235 0.130719504132 -0.00444801052917)
(-0.00650780627602 0.12741924936 -0.010732725209)
(-0.000753929382342 0.134377862919 -0.00299019640678)
(-0.00219772812382 0.131229312057 -0.00858381693378)
(0.0058117816747 -0.081924931392 0.00151695782563)
(0.00391911594662 -0.0864249419232 -0.00021004308294)
(0.00207800947692 -0.0844843426685 0.000441681019963)
(0.00617981170583 -0.0780450078874 0.0016951229964)
(0.00851251584277 -0.0840374843937 0.00122770613122)
(0.00493251887337 -0.0821841796493 0.00255435806161)
(0.00446405264679 -0.0716613253118 0.000392582088031)
(0.00881709868557 -0.0788171636505 8.32437625211e-05)
(0.00454592687415 -0.0761231485766 0.0018610525046)
(0.00311665871332 -0.0630778601 -0.000508915912578)
(0.00834624759373 -0.0717973437241 -0.00123543861028)
(0.00316106892949 -0.0674609747336 0.000849144186076)
(0.002554594169 -0.0518086864235 0.000378136372877)
(0.00818845166257 -0.0627646386506 -0.00140195072899)
(0.0023956429026 -0.0564986189117 0.0014478538244)
(-0.000125465602548 -0.0380994161249 0.00416763908118)
(0.0071319480951 -0.0508909101684 0.00177135650451)
(0.0011548490881 -0.0435194959643 0.00523871205389)
(-0.00600247322091 -0.027210992744 0.0096521849148)
(0.000826152308569 -0.0359380786239 0.00905301747414)
(-0.000602844118324 -0.03000247962 0.00824518809354)
(-0.0115954480372 -0.0146665041123 0.00971748245912)
(-0.0044503610636 -0.0316149483002 0.0070978390342)
(-0.00796871219048 -0.0210020785463 0.021786913707)
(-0.0219041217962 0.00171278121747 0.00800686738113)
(-0.00745567547295 -0.0131978137572 0.00755659074887)
(-0.0166993612846 -0.00562398897471 0.0238847009277)
(-0.0291388182692 0.017395418341 0.00454990444897)
(-0.018096417366 -0.00100825005138 0.00477689178388)
(-0.027616749839 0.00451471746918 0.021353567018)
(-0.03269719769 0.0338887223476 0.00131308198326)
(-0.0223451055888 0.0138141535568 0.00134415114294)
(-0.0336780595099 0.016084982276 0.0158473195311)
(-0.0316434871342 0.0546688725424 -0.00122426072919)
(-0.0214926374922 0.0269621884233 -9.18324173059e-05)
(-0.0363059458621 0.0270230645343 0.00984399022434)
(-0.025442276994 0.0732527636893 -0.00280203684446)
(-0.0192092775826 0.0468404856229 -0.00268835829301)
(-0.0333625665918 0.0482494311724 0.0012139313454)
(-0.0178317579757 0.0875877431407 -0.00339375294651)
(-0.0152514286362 0.0703173078366 -0.00299929595253)
(-0.0252205917971 0.0713536440932 -0.000938928260449)
(-0.0130514228473 0.102818031666 -0.00476173926135)
(-0.00853949366535 0.0930783266735 -0.00381154411818)
(-0.0181243092824 0.0917007926385 -0.00595656914652)
(-0.00978551961013 0.11426178791 -0.00435542270871)
(-0.00538869735032 0.109566979632 -0.00253728971662)
(-0.012109248679 0.106855381501 -0.00642673590497)
(-0.00629237333306 0.123127399335 -0.00424634895289)
(-0.00338582616448 0.120980889334 -0.00306829397481)
(-0.00881041329501 0.118717099833 -0.00695848148581)
(-0.00252940404758 0.129795198157 -0.00365570510235)
(-0.000869168574334 0.128963901023 -0.00276737983938)
(-0.00492920330588 0.127829602762 -0.00655398926896)
(0.000193273411427 0.134411033586 -0.00236970189962)
(0.00106607320315 0.134663886648 -0.00186057460519)
(-0.00191764028139 0.134054406364 -0.00511071391828)
(0.000934614064584 0.138263230887 -9.0735994957e-05)
(-0.000569242108239 0.13801496122 -0.00260074113542)
(0.00823533691264 -0.0877108498303 -0.000440641955598)
(0.00513395845963 -0.0907242917229 -0.00208616717421)
(0.00345693129807 -0.0901793477642 -0.00300698912478)
(0.0114396895808 -0.0841705048173 -0.000248872031568)
(0.01232865313 -0.088688613494 -0.000793929930929)
(0.00916733208564 -0.0881814615906 -0.000933319163698)
(0.0125904466614 -0.0783707132618 -0.00127204839216)
(0.0152228473931 -0.0840377833513 -0.00172634076329)
(0.0113817336618 -0.0826281186462 -0.00134761662006)
(0.0132275089311 -0.0707336307993 -0.0017703322502)
(0.0169588234367 -0.0777353434202 -0.00287557315454)
(0.0122552755729 -0.0747970974029 -0.001829655121)
(0.0142247334593 -0.0610421299617 -0.000437169824803)
(0.0184525483737 -0.0695978092486 -0.00297023135677)
(0.0126936965816 -0.0650380220365 -0.00104161382575)
(0.0137216842204 -0.0495994157452 0.00395868528699)
(0.0191016315345 -0.0590486438652 -0.000295745941303)
(0.012086321786 -0.0541532578298 0.00245448307948)
(0.00598548324925 -0.0399866738544 0.00758782768843)
(0.0119252742025 -0.0479034509322 0.00663694324007)
(0.00991037706234 -0.0436716365981 0.00925920378975)
(0.00229004975708 -0.0269527098912 0.00434632615785)
(0.00828397956843 -0.0371598649471 0.00321572838382)
(0.00368981832408 -0.0365038586354 0.0137545324833)
(-0.00798843141173 -0.0111990643827 0.00381363898659)
(0.00750076429828 -0.0197766490379 0.00261511749305)
(-0.00540786183351 -0.0205269334456 0.0147947045684)
(-0.0129825914191 0.00244647727432 0.00152699161458)
(-0.0051453864715 -0.0066031235666 -0.000733952423327)
(-0.0182584987436 -0.0110420268589 0.00727611192214)
(-0.0149812350255 0.0176976803001 0.00113905554935)
(-0.00827281811492 0.0104879753827 -0.00248683131759)
(-0.0221951228771 0.00108414360598 0.00349342912634)
(-0.008578144071 0.0368158195671 0.00117090980151)
(-0.00327909503292 0.0276252352462 0.00023807812416)
(-0.0165043953232 0.0137848028742 -0.00198089677665)
(-0.00433019998954 0.0602541363321 0.00105229358355)
(0.00192297430951 0.0523687752034 0.00233557137596)
(-0.00848077526171 0.0367427576343 -0.000965736591724)
(-0.00449485358962 0.0834393738446 -0.00386568185177)
(0.00551193102741 0.0711136580956 -0.0057254056621)
(-0.000596819499106 0.0656086963152 -0.00185358787162)
(8.66136129773e-05 0.102148145721 -0.00244698344608)
(0.0106925949891 0.0916717935772 -0.00394821719026)
(0.00149660477838 0.0904324672465 -0.00541808655066)
(0.00140044988971 0.114831757494 -0.00202747548557)
(0.00828809176702 0.10770999612 -0.00134739848558)
(0.00113244175415 0.106902757745 -0.00265185945965)
(0.00262703980533 0.124231012278 -0.00197016485765)
(0.00733865377955 0.119322482594 -0.00124242969118)
(0.00145118075602 0.119646347277 -0.00263851071578)
(0.003567841126 0.131037220441 -0.00114936307797)
(0.00679775274043 0.127607331455 -0.000511276775573)
(0.00254455877587 0.128958488447 -0.00171624727368)
(0.00340110145822 0.135629105256 0.000355813758794)
(0.00579377009987 0.133196064289 0.000635177822807)
(0.00276555232104 0.135186907839 0.000259561807256)
(0.0026116302596 0.136687259898 0.00267655763744)
(0.00107906631591 0.139069168112 0.00314630739584)
(0.0107021078659 -0.0906286141218 -0.00236825916806)
(0.00624290373228 -0.0921084577955 -0.00392511189354)
(0.00471226049156 -0.0929742201378 -0.00653386761146)
(0.0165477096558 -0.0874684149983 -0.00209314733955)
(0.0158746614953 -0.0902102296549 -0.00271275687675)
(0.0129700151235 -0.0913014793503 -0.00450220352578)
(0.0198930207565 -0.0822870371199 -0.00286802403016)
(0.0211854208782 -0.0858737010073 -0.00341512653929)
(0.0176432103915 -0.0863284850796 -0.00452499912296)
(0.0221840306106 -0.0754728890058 -0.0031149688693)
(0.0249063043571 -0.0802171518672 -0.00423463512567)
(0.0205009561379 -0.079270593847 -0.00454170389496)
(0.0242208807511 -0.066765384657 -0.00172283125485)
(0.0278108504483 -0.0728502350032 -0.00395488220198)
(0.0223894839251 -0.0704133189149 -0.00353402724421)
(0.0253208610196 -0.0568849995644 0.00320878639524)
(0.0297371740961 -0.064034849425 -0.00063255222035)
(0.0229447374502 -0.0601676954077 -0.000605392626356)
(0.0187314243153 -0.0453335360646 0.00716961480072)
(0.0238095483865 -0.0556402890213 0.00725701457211)
(0.021112634148 -0.0500113745768 0.00636167313323)
(0.0149911377536 -0.0314911520945 0.00407534334175)
(0.0217464320718 -0.0418828139204 0.0051426562807)
(0.0179670884988 -0.0376882712613 0.0119695591803)
(0.00292381491255 -0.0169647595262 0.00397981549629)
(0.0206909709725 -0.0265251932941 0.00469776160805)
(0.0105195648643 -0.0228915051272 0.014368168321)
(-0.00330515251959 -0.00150600122458 0.000494353807927)
(0.00801035288924 -0.00946930553253 0.00148419892813)
(-0.00562593747431 -0.00910942520771 0.00545586496691)
(-0.00507659503492 0.0149855726162 -0.001470922906)
(0.00632914221241 0.00864457113613 -0.000920894195649)
(-0.00982643863845 0.00775271754142 0.00246702581706)
(0.00725614818195 0.0342330644005 -0.00185795297763)
(0.0135088448919 0.0283589012359 -0.00207480508569)
(-0.00189668263796 0.0243522604741 -0.00383417903792)
(0.0253523479373 0.0556519367159 -0.00126989552612)
(0.0227014044471 0.0505559635119 0.00203734122702)
(0.0136236098284 0.0460781887599 -0.00106080920973)
(0.020005762124 0.0782431171104 -0.00447317350654)
(0.02773382031 0.0715106071071 -0.00393324025789)
(0.0259413011307 0.0653332005801 -0.00124540917874)
(0.0181242306524 0.0982257640692 -0.00151007302397)
(0.0299444434495 0.0909487024037 -0.00196259923026)
(0.023519260356 0.0877450363961 -0.0028633077443)
(0.0147154733211 0.11154143277 -0.000484587789737)
(0.0224695926413 0.104949092993 0.000124364586883)
(0.0164159424935 0.103927898351 0.000288984770886)
(0.0119173978014 0.12091537597 2.18499399841e-05)
(0.0179697686967 0.115041310348 0.000562758761374)
(0.0129146168035 0.116433571154 0.00116137182203)
(0.00966837777347 0.127522406679 0.00116400141897)
(0.014160444524 0.12238870257 0.00158671011783)
(0.0103782260123 0.125464317697 0.00267762070833)
(0.00657414333313 0.131886710957 0.00291723174832)
(0.0102801254513 0.1273562784 0.00291827058579)
(0.00746601308689 0.131358946155 0.00504243554695)
(0.00422050910599 0.130496405059 0.0051239777958)
(0.0027038668811 0.134976456328 0.0083312374683)
(0.0127303109419 -0.0905009068916 -0.00419691427644)
(0.00731619550836 -0.090325409378 -0.00569191750104)
(0.00590428746699 -0.0927054602738 -0.00992971770873)
(0.021151431813 -0.0875660379356 -0.00384791676199)
(0.0192549506381 -0.0886004188349 -0.00455389140039)
(0.0166381996212 -0.0912528016706 -0.00802352185028)
(0.0268106168452 -0.0828089728994 -0.004325982211)
(0.0268537744828 -0.0846211028171 -0.00498716643328)
(0.023588678168 -0.0867307111369 -0.0075471292793)
(0.0307887828146 -0.0766743224898 -0.00423093647667)
(0.0324383985846 -0.0793388955153 -0.00553892139306)
(0.0283663388464 -0.0803059240933 -0.00711959326706)
(0.0339690919258 -0.0692434847056 -0.00249060399592)
(0.0363325148851 -0.0722941161703 -0.00535478932384)
(0.0314945318959 -0.072318138283 -0.00581749007564)
(0.0364490705456 -0.0614503672765 0.00199882892868)
(0.0390294958816 -0.0636073327659 -0.00274535442383)
(0.0329431984563 -0.0634245710352 -0.003123448703)
(0.0323544869639 -0.0502481462987 0.00571026494453)
(0.0351895807605 -0.0557538556127 0.00255436189839)
(0.0321908514436 -0.054865943857 0.00285778953593)
(0.0272120402489 -0.0355043241741 0.00301899318076)
(0.0352732004529 -0.0371764681396 0.000525236562141)