/*--------------------------------*- C++ -*----------------------------------*\
| =========                 |                                                 |
| \\      /  F ield         | OpenFOAM: The Open Source CFD Toolbox           |
|  \\    /   O peration     | Version:  v1606+                                |
|   \\  /    A nd           | Web:      www.OpenFOAM.com                      |
|    \\/     M anipulation  |                                                 |
\*---------------------------------------------------------------------------*/
FoamFile
{
    version     2.0;
    format      ascii;
    class       volScalarField;
    location    "1.5";
    object      ddt0(epsilon);
}
// * * * * * * * * * * * * * * * * * * * * * * * * * * * * * * * * * * * * * //

dimensions      [0 2 -4 0 0 0 0];

internalField   nonuniform List<scalar> 
11640
(
-0.00441323842128
-0.00467178317752
-0.004797074548
-0.00482450031597
-0.00487948754044
-0.0049958090876
-0.00506370625532
-0.0050570292347
-0.00501805331387
-0.00499594160156
-0.00498269102302
-0.0049737903829
-0.0049630128313
-0.00495191520967
-0.00495352993949
-0.00498701997686
-0.00502500021262
-0.00499850786265
-0.00481437111514
-0.00440966739217
-0.00469571635723
-0.00816057685642
-0.0100278678447
-0.0113668508282
-0.0127935601697
-0.0138853672994
-0.0141451390075
-0.0136667864569
-0.012971017717
-0.0123157414479
-0.0116802341109
-0.0108643928332
-0.00993647273908
-0.00922423873755
-0.00898131035178
-0.00932138575141
-0.0102460612225
-0.0101957171886
-0.00855459130927
-0.00487674362461
-0.00483473210314
-0.0100754769305
-0.0142635053236
-0.0188728582472
-0.0230967509206
-0.025308537351
-0.0249833907423
-0.0229934033578
-0.0206217101002
-0.018327957999
-0.0162365433831
-0.0133397606065
-0.0106378037438
-0.00856715978623
-0.00775583816357
-0.00859768509215
-0.0105192920833
-0.011711613046
-0.0104761767999
-0.00511003621222
-0.0048628412569
-0.0114554726066
-0.0190619968338
-0.0276352151638
-0.034061191627
-0.0361918827056
-0.0341612217052
-0.0296992218665
-0.025025782897
-0.0205780281858
-0.0163550676325
-0.0113335390706
-0.00669770882722
-0.00314568078924
-0.00140774329981
-0.00256528733616
-0.00614700086047
-0.00987977053268
-0.0100483415133
-0.00517356734997
-0.00491509948112
-0.0130058153166
-0.0240928780796
-0.0356088654064
-0.0429027256908
-0.0436243550288
-0.0386364556822
-0.0313261729188
-0.0247768242888
-0.0188096917275
-0.0130768282395
-0.006777704278
-0.00091730442976
0.00344194091629
0.00602729132082
0.00504850355989
0.000474564014539
-0.00572570728391
-0.00862604170008
-0.0049676865967
-0.00501253340631
-0.014467927942
-0.0279095604469
-0.040762835472
-0.0474826076856
-0.0454135898804
-0.0366988903108
-0.0268594810304
-0.0198904033041
-0.0141199798171
-0.00842241246956
-0.00235672950915
0.00360187641381
0.00793928133576
0.0113108927246
0.0109266403783
0.00619344908675
-0.00146512572612
-0.00686622964446
-0.0046785653071
-0.00508942316122
-0.015233703011
-0.0294971025762
-0.0423273342976
-0.0475514018388
-0.0425439647889
-0.0300148216011
-0.0182334185358
-0.0123079001538
-0.00857082048443
-0.00404294688681
-6.30916061485e-05
0.00437368374157
0.00878832186647
0.0133642748818
0.0138838232767
0.00954331566341
0.00132289709246
-0.00554433539945
-0.00453098382064
-0.00511480342673
-0.0153719634176
-0.0296305583748
-0.0419703776613
-0.0460152633049
-0.0391679221967
-0.0240943691239
-0.0124235812471
-0.00833708204978
-0.00635584684962
-0.00452622235179
-0.00238753558716
0.000789920245291
0.00664453077131
0.0128497565648
0.0141554308499
0.0103628518513
0.00218664394755
-0.00509566553136
-0.0045198983924
-0.00512832033729
-0.0153580960498
-0.0295082025113
-0.0415732973702
-0.0451096794828
-0.0376755191315
-0.0222808186073
-0.011184896232
-0.0076688187449
-0.00614082267146
-0.00483089784521
-0.00333452821333
-0.000831511550193
0.00483973967705
0.0118613864746
0.0138727335707
0.0104019921096
0.0023060383646
-0.00504607740838
-0.0045696074993
-0.00514139712418
-0.0153536553166
-0.0294903025277
-0.0415532263416
-0.0451458085178
-0.0378528674772
-0.0226058675926
-0.0115447502371
-0.00801564414995
-0.00645058152967
-0.00516935253514
-0.00372720034892
-0.00124114857644
0.00440572662117
0.0117667630347
0.0140653973625
0.0106760287186
0.00251642128999
-0.00496353175058
-0.00461761355882
-0.00516941544525
-0.0154038175876
-0.029640126766
-0.0420055119342
-0.0462894006921
-0.0400601418178
-0.0255898793376
-0.013869079351
-0.00970627625034
-0.00759927207198
-0.00587003613866
-0.00410970280853
-0.00123731270828
0.00486035063306
0.0123767394127
0.0147323123604
0.0111893841792
0.0028132522685
-0.00486530017064
-0.00466548594226
-0.0051664996751
-0.0151210110932
-0.0290433618081
-0.0415480737171
-0.0469867722392
-0.0432621321517
-0.0325845082807
-0.02207913378
-0.016257764678
-0.0123399018871
-0.00860520362714
-0.00497050235303
-0.000374614719636
0.00662889354997
0.0133704536135
0.0154961259396
0.0115296723674
0.0028530587658
-0.00493293998062
-0.00473311856819
-0.00509096011448
-0.0140759575331
-0.0265978381995
-0.0383567627213
-0.0446247267903
-0.043512913948
-0.0366268744775
-0.0283590059825
-0.0212957295193
-0.0153120153296
-0.00953342181133
-0.0034293404594
0.00272694723486
0.00930136209953
0.0144822260666
0.0152987780481
0.0104423646323
0.00152324461296
-0.00570861703527
-0.00488325386225
-0.00498601608461
-0.0125991331096
-0.0226816736668
-0.0327757772533
-0.0389784873748
-0.0395981601996
-0.0354446602963
-0.029129798716
-0.0225183581365
-0.0162410252513
-0.00993400230425
-0.00306672655102
0.00348973829844
0.0094576391012
0.0130089919337
0.0121533127937
0.00641458483208
-0.00196028678456
-0.00732100740225
-0.00507880582298
-0.0049525145744
-0.0114279341079
-0.0185091367547
-0.0259797637954
-0.0311570403072
-0.0323744019448
-0.0299461795627
-0.0253961096432
-0.0202331071858
-0.0151637298262
-0.00979994954515
-0.0040543564112
0.00139762421173
0.00586125429452
0.00768596062176
0.00557030312146
-0.000208161928951
-0.00676934929945
-0.00901875983938
-0.00521009726938
-0.00496580632353
-0.0109368549135
-0.0157189950123
-0.0199946590034
-0.023376214386
-0.0245401170219
-0.0232819738352
-0.0205360249745
-0.0173473222083
-0.0142135134
-0.0106409006497
-0.00702142686304
-0.00358546887209
-0.000998539018467
-0.000631124037045
-0.00321402009103
-0.00767715361274
-0.0109960061921
-0.0100551752966
-0.00523081219518
-0.00498209386353
-0.0106975133159
-0.0145169025302
-0.0167075853074
-0.0179971084117
-0.0184493025447
-0.0179299169272
-0.0167525594157
-0.0153793885502
-0.0137228936093
-0.0121240062461
-0.0106087118266
-0.00919744128158
-0.00832119083878
-0.00877105382911
-0.0106235640305
-0.0126486392557
-0.0127884697707
-0.010191292861
-0.00520933840449
-0.00494744160274
-0.0100990680621
-0.0132207684896
-0.0146914999261
-0.0152219739147
-0.0152518354973
-0.0149840334145
-0.0142878265178
-0.0136158572056
-0.0131456140336
-0.012738616488
-0.0123685508534
-0.0120712815968
-0.0120026954395
-0.0123698090156
-0.0129647478409
-0.0130436085306
-0.012057369388
-0.00961291492785
-0.00512057868123
-0.00476532582507
-0.00842242252305
-0.0103999692316
-0.0112059297545
-0.0113849194361
-0.0111099620142
-0.0108062103796
-0.0105876585791
-0.0104381112629
-0.0103326563894
-0.0102426275583
-0.0101780476433
-0.0101498586545
-0.0101638345351
-0.0102263581488
-0.0102909147497
-0.010198658038
-0.00962293942787
-0.00805863454096
-0.00486988804771
-0.00436425831733
-0.00482322579399
-0.00505013970115
-0.00511354770054
-0.00506059583634
-0.00498847995221
-0.00494300996836
-0.00493536907864
-0.00495452461238
-0.00498542930051
-0.00502557018464
-0.00507060092933
-0.00511192046206
-0.00515657743502
-0.00519947725131
-0.00522541522435
-0.00522252539026
-0.00513971313137
-0.00488694583895
-0.00437583066754
-0.00649288387704
-0.00779681396494
-0.0086111778223
-0.0089804225116
-0.00925900994724
-0.00957449222422
-0.00972129979785
-0.0096073991793
-0.00942098453764
-0.0092751749276
-0.00917065979364
-0.0090852145675
-0.0090028957163
-0.0089057170528
-0.00878442774245
-0.00872920956055
-0.00869003428114
-0.00849292710328
-0.00773799710355
-0.00629172626996
-0.00781046102077
-0.00947775923853
-0.0105815957435
-0.0116486082008
-0.0128279925779
-0.0137274918477
-0.0141267922669
-0.0141202524275
-0.0139531780016
-0.0137875313603
-0.0136228940837
-0.01343938714
-0.0132166928492
-0.0130042152479
-0.0126976116204
-0.0123381826261
-0.0117912742233
-0.0110611807229
-0.00987278637147
-0.00786927262253
-0.00864342729352
-0.0105934433728
-0.0124692880284
-0.0144528365072
-0.0159826355066
-0.0169744792508
-0.0175044818737
-0.0175108607439
-0.0172742232399
-0.0170150021292
-0.0167351758884
-0.0163652829728
-0.0160364786439
-0.0158121611714
-0.0155045946323
-0.0148536850958
-0.0140541882908
-0.0127860438468
-0.0110523572373
-0.00876198720414
-0.0090583352089
-0.0114668229934
-0.0139255547208
-0.0159038017373
-0.0172097776316
-0.0180894246097
-0.0185477685556
-0.0185041657754
-0.0181666634468
-0.0177456563107
-0.0172853317724
-0.0167302494774
-0.0163121845659
-0.0161892046883
-0.016130048396
-0.0157976833867
-0.014965246854
-0.0136453514244
-0.0115410654367
-0.00906531859284
-0.0094328622622
-0.0120195059834
-0.0143465216166
-0.0156892224342
-0.0164062633144
-0.0168260144849
-0.0170182830949
-0.0168318912462
-0.0163823076161
-0.0157960769893
-0.0151458639887
-0.0144667688135
-0.0140665688122
-0.0143070383508
-0.0147785997196
-0.0150053567033
-0.0146567489858
-0.0135455906032
-0.0115440392814
-0.0090555545408
-0.0096959869615
-0.012141774265
-0.0138529024932
-0.0143672309181
-0.0143749203538
-0.0143437355794
-0.0141051489876
-0.0135494921315
-0.0128453937166
-0.0121174518961
-0.0112889969823
-0.0104726875212
-0.0100848603304
-0.0111043180192
-0.0123497605534
-0.0132690961597
-0.0134768790352
-0.012818897029
-0.0111701224531
-0.00878341991679
-0.00974933234252
-0.0119189998675
-0.0130030560773
-0.0128260401641
-0.0124710869845
-0.012411666531
-0.0117898014581
-0.0102910570732
-0.00891871016055
-0.00802585749398
-0.00694803846808
-0.00591949807953
-0.00528195690684
-0.00783608192578
-0.00991105938326
-0.0113646047866
-0.0120388660684
-0.0118697084906
-0.0106653804072
-0.00852428830637
-0.00970217587163
-0.0117775159101
-0.0126401840518
-0.0122179623266
-0.0118459499266
-0.0120013374561
-0.0109567941407
-0.0082341947571
-0.00642245831462
-0.00596921537998
-0.00550653597571
-0.004771754392
-0.00391403356545
-0.0054268712524
-0.00842303495723
-0.0103140882943
-0.0112693521327
-0.011361485227
-0.0104069032721
-0.00842676120539
-0.00964994832411
-0.0118215054297
-0.0127470947603
-0.0123582184433
-0.0120491390827
-0.0123039018935
-0.0111177723918
-0.0081446686055
-0.0064900496448
-0.00632456967155
-0.00623709534616
-0.00594340084646
-0.00531545384313
-0.00581656197955
-0.00824990660147
-0.0101551687935
-0.0111611304193
-0.0112921006964
-0.0103773382865
-0.00841249157876
-0.00961391353892
-0.0118652702167
-0.0128405561013
-0.0124837756947
-0.0122391454197
-0.0126650740531
-0.0117618478473
-0.00903523595844
-0.00746697436227
-0.00732827849043
-0.00732199157871
-0.00715532331585
-0.00656433856965
-0.00658802728967
-0.00847638880249
-0.0101683463218
-0.0110917108895
-0.0112114372868
-0.0103310039089
-0.00838561146909
-0.00958280333655
-0.0119185236132
-0.0129333060858
-0.0126013257793
-0.0124372617457
-0.0132300110962
-0.0133165370021
-0.0115087693668
-0.00990077176076
-0.00954363068222
-0.00937867216191
-0.00904089610869
-0.00825270566287
-0.00758555752661
-0.00901895416193
-0.0103271588788
-0.0110579905341
-0.0111228354747
-0.0102703978847
-0.00834557295763
-0.00948988918906
-0.0117739526091
-0.012677329774
-0.0122261903402
-0.0119668824909
-0.0129227314635
-0.0141649626226
-0.0143047639688
-0.0131621222009
-0.0124317124208
-0.0116652439719
-0.010862910941
-0.00971435519806
-0.0090173745992
-0.00948538737801
-0.0100685782411
-0.010551904572
-0.0106902204184
-0.0100547060921
-0.008297598471
-0.00923083955994
-0.0114416568147
-0.0122338719035
-0.0116557159368
-0.0111685618596
-0.0118672248893
-0.01325666848
-0.014057071827
-0.0135713486172
-0.0127882789137
-0.0118336776691
-0.010734894329
-0.00962834086652
-0.00911683384405
-0.00899311585786
-0.0091666824108
-0.009653599442
-0.0100948947567
-0.00985367429029
-0.00835592320297
-0.00894955823329
-0.0112208806346
-0.0120928232399
-0.0115920134757
-0.0108767951039
-0.0109293865081
-0.0116776728978
-0.0121996297485
-0.0120190386543
-0.011476199702
-0.0106801224153
-0.00966457789254
-0.00871064024279
-0.0081935485779
-0.00807812612728
-0.00842308539455
-0.0092121702123
-0.00999150095509
-0.0100247277508
-0.00859199950966
-0.00879210552877
-0.0112321184575
-0.0121778079102
-0.0119218556813
-0.0111014002172
-0.0106205445998
-0.0106685705334
-0.0107558370135
-0.0105570739091
-0.0101658402519
-0.0095433883296
-0.00874596553319
-0.00798572496159
-0.00757116055855
-0.00770130822022
-0.00840542094581
-0.00952869925025
-0.0105236192937
-0.010510360689
-0.00887689876275
-0.00872512215165
-0.011375637647
-0.0125723566505
-0.0124727103975
-0.0118028719358
-0.0110481808224
-0.0106770279977
-0.0104706739004
-0.0102059457502
-0.00988187287502
-0.00939092995834
-0.00884629420074
-0.00833052461821
-0.00811584375209
-0.00848187841659
-0.00943645568467
-0.0106864061947
-0.0115560623598
-0.0110106564774
-0.00896827733862
-0.00867916252755
-0.011338758902
-0.0128829735505
-0.013184072886
-0.0126732711861
-0.0120638497332
-0.0115982726335
-0.0113169346423
-0.0110677118084
-0.0107645184032
-0.0104451355717
-0.0101382170334
-0.00986256309938
-0.00982640317222
-0.0102936874589
-0.0112133875274
-0.0121798975514
-0.012311075875
-0.0111083617808
-0.00890089178244
-0.00844843803092
-0.0109263589844
-0.0123604297385
-0.0130243762797
-0.0131007684886
-0.0128144669071
-0.0124934447471
-0.0122528468706
-0.0120830545243
-0.0119370624078
-0.0118021031883
-0.0116810534161
-0.0115846744329
-0.0116289549545
-0.0119414914322
-0.0123653886057
-0.0124601866484
-0.0119521287268
-0.0106923608577
-0.00858889919671
-0.00770918775945
-0.00981551359623
-0.0109378626653
-0.0114049952913
-0.0115061079108
-0.0114678627818
-0.0113931277848
-0.0113225477782
-0.0112642163015
-0.0112159296667
-0.0111734155132
-0.01114065677
-0.0111252524619
-0.0111340571886
-0.0111667650095
-0.0111904742809
-0.0111029361232
-0.0106899605663
-0.00966355094922
-0.00777986329965
-0.0062697139934
-0.00785039535969
-0.00874469963477
-0.00911805346908
-0.00922750234542
-0.00922057641268
-0.00918191940565
-0.00914273916032
-0.00910827996165
-0.00907696790986
-0.0090473235189
-0.00901934903556
-0.00900028192559
-0.00899725773468
-0.00901541369329
-0.00902128440813
-0.00894514508926
-0.00863120567041
-0.00781369783318
-0.00624374314627
-0.00704225583009
-0.0091818356535
-0.0106365355585
-0.0113241787979
-0.0117953792007
-0.0122918859946
-0.0125606371048
-0.0124277882866
-0.012217825338
-0.01209265819
-0.0120310591616
-0.0120029549597
-0.0119836006172
-0.0119521343177
-0.0117672350086
-0.011559262429
-0.0113742564623
-0.0109170838302
-0.00957622856077
-0.00719872318462
-0.00919665448176
-0.0108425013319
-0.0119761490784
-0.0131625666817
-0.0144150269712
-0.0152928489838
-0.0156743527929
-0.0156652451623
-0.0155235645654
-0.0153883535267
-0.0152587049387
-0.0151356568498
-0.0150604129557
-0.0148619054208
-0.0144866501588
-0.0139291217131
-0.0130604917383
-0.0120812681323
-0.0108800777484
-0.00972586857966
-0.0106699325506
-0.0119715761514
-0.0135737730781
-0.0154044483066
-0.0168222862336
-0.0177874792137
-0.0182539181261
-0.0182699299447
-0.0181111148496
-0.0179473009283
-0.017778341998
-0.0176035635513
-0.0174605455114
-0.0173108189745
-0.0169391123669
-0.0161638572124
-0.0151400727402
-0.0136827774505
-0.0119964734043
-0.011298533286
-0.0114313743536
-0.0129059102294
-0.0148617812768
-0.0165474809812
-0.0177898514784
-0.0185965801645
-0.018956668686
-0.0189268510268
-0.018687978915
-0.0184245777529
-0.0181523863928
-0.0179131631752
-0.0177720096489
-0.0177475684742
-0.0176169027822
-0.0171215154364
-0.0160873100977
-0.0146185178802
-0.0126914589699
-0.0119886398129
-0.0119601968562
-0.0134885780552
-0.0152265829664
-0.0164201623289
-0.0171713181111
-0.0175577010523
-0.0176487853918
-0.0174826895005
-0.0170442452812
-0.016589682193
-0.0161718774173
-0.0158594220957
-0.0157973279852
-0.0160959593236
-0.0164682295149
-0.0165103271426
-0.0159204430359
-0.0146450172981
-0.0128598458445
-0.0122372236369
-0.0122292357813
-0.0135682855448
-0.0148005729823
-0.015389613293
-0.0156176630679
-0.0156088261655
-0.0153034513392
-0.0148406762205
-0.0138900458443
-0.0130800837189
-0.0124431417771
-0.0120114036749
-0.0120515925105
-0.0130548283576
-0.0142147048599
-0.0149355639347
-0.0148697079889
-0.0140058805018
-0.0125543186535
-0.0120878831534
-0.012239366459
-0.0132627645966
-0.0139944991691
-0.0140811216934
-0.0140899742829
-0.0140919119463
-0.0135954608687
-0.0122792071278
-0.0105124395475
-0.00876464363825
-0.00760555964887
-0.00674142351292
-0.00684840038692
-0.0100198855285
-0.0119794185566
-0.0131518024806
-0.0134950983019
-0.0130709307884
-0.0120410287121
-0.0118498887241
-0.0121633731225
-0.0130395895542
-0.0135810447119
-0.0134934404666
-0.0135170545846
-0.0137079277753
-0.012862342176
-0.0132529647311
-0.00394703508191
-0.00218116216916
-0.00122127616735
-0.000415284086084
0.00305934337764
-0.00610197220824
-0.0105491404513
-0.0121423071074
-0.0127396310148
-0.012560704516
-0.0117725684649
-0.0117488348902
-0.0121217974943
-0.0130272946459
-0.0136270178129
-0.0135839948479
-0.0137037416209
-0.0141483200853
-0.0134425329864
-0.0104675706203
-0.00379423546363
-0.00326741520125
-0.00329285163789
-0.00303761503376
-0.000864725135123
-0.00689309831894
-0.010309758514
-0.0119717323576
-0.0126521686476
-0.0125199627633
-0.0117660927993
-0.0117310567964
-0.0120879613854
-0.0130186266062
-0.0136662006969
-0.0136619589097
-0.0138730738563
-0.0146331089979
-0.0147280052569
-0.0128765486678
-0.00666336898156
-0.00634326422277
-0.00650149012295
-0.00629804676761
-0.00471316400339
-0.0085414604554
-0.0106569176315
-0.0120219180233
-0.0126202376477
-0.0124764943767
-0.0117465921901
-0.0116866691365
-0.0120831178239
-0.0130177143541
-0.0137028154637
-0.0137211605837
-0.0140109199292
-0.0152523629786
-0.0176350547696
-0.021289258453
-0.0143738936934
-0.0137003439688
-0.0135281815391
-0.012880860803
-0.011035237883
-0.0109821979747
-0.0113780797397
-0.0122292250899
-0.0126306956258
-0.0124315394073
-0.0117154175049
-0.0116191765084
-0.0120034629581
-0.0127709939282
-0.013311788032
-0.0131771287765
-0.0133225020159
-0.0144770199163
-0.0167214597901
-0.0192644617608
-0.0163076714045
-0.0152732351785
-0.0145156232216
-0.0135130436307
-0.0121018481756
-0.010934434155
-0.0114093017849
-0.0118372473308
-0.0120840671519
-0.0119820409208
-0.0114799728605
-0.0115073657041
-0.0117476985927
-0.0122974084489
-0.0125891913608
-0.0122083737533
-0.0120622612693
-0.0127931167108
-0.014130078281
-0.0152947871481
-0.0144910171047
-0.013625188028
-0.0127482627384
-0.0118690008722
-0.01090507183
-0.0106068219997
-0.0106833378105
-0.0108222692384
-0.0110936715122
-0.0113023907846
-0.0112070926821
-0.0114640152711
-0.0115212650273
-0.0119945014203
-0.0121540843539
-0.0116063379603
-0.0110964340575
-0.0111701517451
-0.0116599398198
-0.0119841709052
-0.011793611343
-0.0113658238321
-0.0108104491785
-0.0102222225368
-0.00968454895968
-0.00956695808678
-0.00964382119269
-0.00993538226339
-0.0104959223399
-0.011071141731
-0.0113115505612
-0.0116275158753
-0.0114747577212
-0.0120293172429
-0.0121290054915
-0.0115265040778
-0.0107529457833
-0.0103224694158
-0.0102813746858
-0.0103094129061
-0.0102110129086
-0.00998290923467
-0.0096513118614
-0.00928277702045
-0.00894451441128
-0.00884207836054
-0.00905861141116
-0.00966516424154
-0.0105776942806
-0.0114500380258
-0.0117900144555
-0.0119084058081
-0.0114470366933
-0.0122591648033
-0.0126129533757
-0.0120392867083
-0.0112028048042
-0.0104847520285
-0.0101406390146
-0.010009357338
-0.00989493816842
-0.00973401939592
-0.0095250929399
-0.00930644220266
-0.00910805257975
-0.00909878714147
-0.0094933902123
-0.01035372051
-0.0114728827184
-0.0123804833134
-0.0123052579395
-0.0119768172761
-0.0113513717146
-0.0122949548176
-0.0131459580932
-0.0130021623715
-0.0122736910876
-0.0115965813193
-0.0111584956543
-0.0109712139054
-0.0108431112276
-0.0107311517336
-0.0106091190731
-0.0104967479896
-0.0104080568127
-0.0104912672701
-0.0109787509452
-0.0118686615106
-0.0128510616192
-0.0131582835305
-0.0124077596456
-0.0118011413372
-0.0108926087766
-0.0118824380535
-0.0128492167283
-0.0132806902324
-0.0132169470564
-0.0128410346115
-0.0125169605159
-0.0123786800115
-0.0123165297291
-0.0122639106753
-0.0122194906811
-0.0121882098277
-0.0121789092372
-0.0122957993035
-0.0126700509457
-0.0131541793042
-0.0133111132855
-0.0129015486515
-0.0119646973999
-0.0112051580344
-0.00957685749689
-0.0108475308
-0.011825315988
-0.0122628089521
-0.0123987818815
-0.012408799519
-0.0123828934178
-0.0123571867211
-0.0123392385189
-0.0123278372009
-0.0123219188823
-0.0123257197514
-0.0123467971682
-0.0123906201789
-0.0124499224386
-0.0124830929399
-0.0123848473067
-0.0119527347284
-0.0109866287521
-0.00979670607141
-0.00719656492035
-0.00973794024937
-0.0113022399663
-0.0120076028917
-0.0122663737504
-0.012307436156
-0.0122791828558
-0.0122406334248
-0.0122016730521
-0.0121612484478
-0.0121186807308
-0.0120749358114
-0.0120424322728
-0.0120344040855
-0.0120482188914
-0.0120287213717
-0.0118504031604
-0.0112555264346
-0.00983917430595
-0.00730036201891
-0.00709763243393
-0.00971450485073
-0.0116130409561
-0.0125468014651
-0.0131633664644
-0.0137622127819
-0.0140749901482
-0.0139330837589
-0.0137414927924
-0.0136563642953
-0.0136497380486
-0.0136886489567
-0.0137386648623
-0.0137739820009
-0.0135664502538
-0.0132594095792
-0.012947722789
-0.0122674559119
-0.0104800752651
-0.00748810085856
-0.00973017367364
-0.0116202219227
-0.0128837323797
-0.0142109366172
-0.015547135312
-0.0164423369406
-0.0167934340108
-0.0167675441254
-0.0166486658492
-0.0165428731658
-0.0164491454813
-0.016369128255
-0.0163044649474
-0.0161876236251
-0.0157235725274
-0.0150094073596
-0.0139539675299
-0.0128653501048
-0.0115885364676
-0.0106371713689
-0.0116513393479
-0.0128690654236
-0.0144953792856
-0.0163903714938
-0.0178493134649
-0.0187715139676
-0.0191344311946
-0.0191067375611
-0.0189786150445
-0.0188575591721
-0.0187531044819
-0.0186846919945
-0.0186146708377
-0.0184493599433
-0.0179526626113
-0.0170518470645
-0.0159027162626
-0.0143643460822
-0.0127326211681
-0.0127293111489
-0.012668340112
-0.0139462060141
-0.0158897262655
-0.0176300486374
-0.0188798782215
-0.0195872273473
-0.0197794274282
-0.019673426814
-0.0194500340901
-0.0192338623118
-0.0190463605506
-0.01895426217
-0.0189255642606
-0.0188460036532
-0.0185268859065
-0.0178534625261
-0.0167149449515
-0.0152496052826
-0.0135025915274
-0.0137751285112
-0.0133154406292
-0.0146417953168
-0.0163785917774
-0.0176805699294
-0.0184518422943
-0.0186975127236
-0.018588545083
-0.018381130672
-0.0179161936952
-0.0175050619867
-0.0172090802363
-0.017091072289
-0.0171545662559
-0.0172768484205
-0.0173674789864
-0.0171665787292
-0.0164434137929
-0.0152160948606
-0.0137200411272
-0.0142899110167
-0.013600845849
-0.0147504571336
-0.016055882282
-0.0168280439223
-0.0170918482272
-0.0168869381971
-0.0164301275202
-0.0161921665702
-0.0149061937878
-0.0141600879308
-0.0136958193224
-0.013554031197
-0.0138866344594
-0.014493049916
-0.0151717829517
-0.0155572353484
-0.0153143683401
-0.0144997050476
-0.0134083840027
-0.0142856137627
-0.0135706061891
-0.0144101869564
-0.0152633875428
-0.0155771744912
-0.0155759929905
-0.0151890267805
-0.0145796751252
-0.0193815732548
-0.0123479591268
-0.0107904719126
-0.00987604331326
-0.00896604199312
-0.0105728510226
-0.0128911388596
-0.0131976215214
-0.0137881368949
-0.0138761324638
-0.0134866759958
-0.012853401777
-0.0140800193467
-0.0134820238092
-0.0141405241599
-0.0148048813198
-0.0149387710264
-0.0148701762885
-0.0145903927129
-0.0250234171449
-0.00798600958238
-0.0119640242769
-0.0128216103646
-0.0130922148902
-0.012932104436
-0.0125589232182
-0.0139875522864
-0.0134466239117
-0.0140978461137
-0.0148063869956
-0.0149736998904
-0.0150165373841
-0.0151435946872
-0.0208501869677
-0.00895445813655
-0.0117482766228
-0.012658380589
-0.0130018690128
-0.0128875761401
-0.0125543906913
-0.0139699807992
-0.0134235735323
-0.0140600030508
-0.0148042432649
-0.0150050665766
-0.0151705625605
-0.0158422344964
-0.0233267130617
-0.0122227405323
-0.0122284033978
-0.0127211793444
-0.0129672459988
-0.0128434935848
-0.0125375025949
-0.0139181696694
-0.0134445215847
-0.0140318107811
-0.0148042197604
-0.015031919325
-0.0153312420407
-0.0169408495871
-0.032750921728
-0.018206953864
-0.0131095983164
-0.0129109299481
-0.0129654956942
-0.012799355277
-0.0125108779803
-0.0138367668347
-0.013386405042
-0.0137245428701
-0.0143206362676
-0.0143882443513
-0.0145552870643
-0.0157131799855
-0.0209779929473
-0.0357467387224
-0.0262308579125
-0.02371794392
-0.0223010560508
-0.020756571284
-0.0208765399082
-0.013523297434
-0.0124061459372
-0.0122952003914
-0.0123402125374
-0.0123180001518
-0.0122533824772
-0.013688642893
-0.0131450911379
-0.0131590391486
-0.0134148331162
-0.0131866946881
-0.0130678645141
-0.013578695542
-0.0150408227181
-0.0171033559792
-0.015505260843
-0.0145413285983
-0.0137499508402
-0.0130060181916
-0.0122170973781
-0.0113343032536
-0.0111348565694
-0.0110762232901
-0.0112629176344
-0.0115981735361
-0.0119454472056
-0.0135813219894
-0.012976773444
-0.0127893797141
-0.0127750677236
-0.0122725225101
-0.0117794134041
-0.0116559478598
-0.0118020265151
-0.0119349146389
-0.0116542584057
-0.0112793439275
-0.0108619587887
-0.010438693499
-0.0100143466448
-0.00989453914326
-0.00989960732249
-0.0100984675374
-0.0106401607191
-0.0113737132737
-0.0120528411192
-0.0136913386293
-0.0130479232075
-0.0128006022917
-0.0126189038063
-0.0119168494596
-0.0111187716873
-0.0105699690124
-0.0102941326946
-0.0101601537602
-0.0100522817069
-0.00986167651903
-0.00962893958606
-0.00938868251159
-0.00917383883274
-0.00910956430696
-0.00926488670896
-0.00982138121739
-0.0107621984928
-0.0118145539301
-0.0125989826593
-0.0139447399926
-0.0130744167329
-0.013043968099
-0.0130698082855
-0.0123048895468
-0.0113682856116
-0.0105710061681
-0.0101021324019
-0.00990557793894
-0.00981580458119
-0.00969658909772
-0.00956948216438
-0.00944640506824
-0.00934819810126
-0.00936819292064
-0.0097225254864
-0.0105721283373
-0.0117546335585
-0.0128634619642
-0.0131845611735
-0.0139538823549
-0.0129324986407
-0.013090423203
-0.0136493854353
-0.0133094466007
-0.0124550159798
-0.0116831220082
-0.0111752840915
-0.0109675092547
-0.0108888089902
-0.0108198998948
-0.0107573108213
-0.0107106009884
-0.0106930172135
-0.0108066450764
-0.0112898682675
-0.0122104603006
-0.013291915428
-0.0137664299098
-0.0133014232666
-0.013660616823
-0.0122707290657
-0.0126388266377
-0.0134172899268
-0.0137444287332
-0.0136147129172
-0.0131809691696
-0.0128204978835
-0.0126793202001
-0.0126397377734
-0.0126105100704
-0.0125932207557
-0.0125946404017
-0.0126240323395
-0.0127752100023
-0.0131866484746
-0.0137232767484
-0.0139383799211
-0.0135878976229
-0.0128242701176
-0.0128036447576
-0.0105139971425
-0.0115656757723
-0.0125386027109
-0.0129911883806
-0.0131471683394
-0.0131731394293
-0.0131579754324
-0.0131398756493
-0.0131278702706
-0.0131226030859
-0.0131247942478
-0.0131402479586
-0.0131778300556
-0.0132433056849
-0.0133236569659
-0.0133689241731
-0.0132624525445
-0.0128024972201
-0.0118308166039
-0.0109125600439
-0.00750088112894
-0.0106724159999
-0.0127455705058
-0.0137484286119
-0.0141485426533
-0.0142523356258
-0.0142474872072
-0.0142203050996
-0.0141842729329
-0.0141422599324
-0.0140945844346
-0.0140458173409
-0.0140110040659
-0.0140090434952
-0.0140229540566
-0.0139788805396
-0.0136975464822
-0.0128474790739
-0.0109532691738
-0.00774789054437
-0.0070422288167
-0.00982256763544
-0.0119571904507
-0.0130541106017
-0.0137924203346
-0.014453138333
-0.0147587531773
-0.0146045930573
-0.0144425393951
-0.0143968129597
-0.0144337983517
-0.0145265245933
-0.0146423394481
-0.0147401150711
-0.0145329912539
-0.0141841481808
-0.0138226615495
-0.0129947622656
-0.010927347168
-0.00759801581251
-0.00983727798323
-0.0119415556851
-0.0133365514172
-0.0148269261537
-0.0162765300293
-0.017197247131
-0.0174917840771
-0.0174227563433
-0.0173066098212
-0.0172081278667
-0.0171264834838
-0.0170614685017
-0.0170148735157
-0.0168265779374
-0.0163065924932
-0.0154817587111
-0.014410847527
-0.0132982618818
-0.0119714866788
-0.0110982094665
-0.0120005321836
-0.0133162170024
-0.0151068179651
-0.0171881712665
-0.0187378576565
-0.0196029198458
-0.0198222862352
-0.0197047557256
-0.0195692778977
-0.0194496076132
-0.0193575039122
-0.0193021132124
-0.019273439542
-0.0190276080124
-0.0183607328476
-0.0173404585244
-0.0161437809371
-0.014648310235
-0.0131330684215
-0.0135433886618
-0.0131910572955
-0.0145936918305
-0.0167658564799
-0.018697357537
-0.0199757856098
-0.0205481166726
-0.0205091645824
-0.0202620936698
-0.0200122772913
-0.0197936136624
-0.019645738517
-0.0195821886771
-0.0195769042842
-0.0193635220853
-0.0187811000096
-0.0179064600216
-0.0167158059061
-0.0153615477387
-0.0138642023563
-0.0148554927143
-0.0139749646521
-0.0154948092299
-0.0174911366699
-0.0189893434294
-0.0197475481068
-0.0197639262837
-0.0193520540469
-0.0190003475454
-0.0185063107006
-0.0181086313338
-0.0178700758406
-0.0178625097633
-0.0179553598566
-0.0178633275302
-0.0175765056614
-0.0170663810558
-0.0162343037966
-0.0151521946634
-0.014014838786
-0.0155501656453
-0.0143435031201
-0.0157198100254
-0.0173220567695
-0.0182973910362
-0.0184816903023
-0.0179159825583
-0.0170975448252
-0.0166813281957
-0.0152721532363
-0.014607621599
-0.0143385021163
-0.014439147463
-0.0150037142829
-0.0153798781806
-0.0154879185356
-0.015395760574
-0.0149702404394
-0.0142910458567
-0.0136271382783
-0.0156328964626
-0.0143256945797
-0.015403873454
-0.0165661115767
-0.0170684358764
-0.0168866831903
-0.0159040616481