/*--------------------------------*- C++ -*----------------------------------*\
| =========                 |                                                 |
| \\      /  F ield         | OpenFOAM: The Open Source CFD Toolbox           |
|  \\    /   O peration     | Version:  v1606+                                |
|   \\  /    A nd           | Web:      www.OpenFOAM.com                      |
|    \\/     M anipulation  |                                                 |
\*---------------------------------------------------------------------------*/
FoamFile
{
    version     2.0;
    format      ascii;
    class       volScalarField;
    location    "1.5";
    object      epsilon_0;
}
// * * * * * * * * * * * * * * * * * * * * * * * * * * * * * * * * * * * * * //

dimensions      [0 2 -3 0 0 0 0];

internalField   nonuniform List<scalar> 
11640
(
0.00341852103161
0.00384494687024
0.0041063898537
0.00423640564815
0.00430175656347
0.00433060531787
0.00433349519407
0.00432151545883
0.00430442744138
0.0042858334205
0.00426336194633
0.0042407255848
0.00422214470818
0.00421574086595
0.00423472594215
0.00426618729871
0.00425289384117
0.0041404795773
0.00386798423762
0.00339856778907
0.00385379333203
0.00691177470108
0.00867873030711
0.00962575645809
0.0101482703753
0.0103947482063
0.0104106878424
0.0102873017676
0.0101329344701
0.00998585719222
0.00984453651902
0.00975051182949
0.00979551660324
0.00984572215533
0.00981207648518
0.00963305049226
0.00929403274963
0.00854788475747
0.00685581298681
0.00382613634277
0.0041215677322
0.00871295962139
0.0116778681688
0.0135586882965
0.0146490200697
0.0150387315052
0.014881219212
0.0144478951052
0.0139911148103
0.0135806389721
0.0132886415112
0.0134602429661
0.0137004975624
0.0139753758805
0.0140881266121
0.0137795645905
0.0128596511266
0.011204277025
0.00855767881164
0.00408374817644
0.00426007263709
0.00972829049451
0.0136875316144
0.0163583440366
0.0177782581458
0.0180166246783
0.0174045702397
0.0164495573245
0.0155555471633
0.0148005675885
0.014537675194
0.0149227378751
0.0154394931852
0.0161007769566
0.0165829089889
0.016448734172
0.0153407532854
0.0130329173125
0.00939128409062
0.00419947577996
0.0043517397224
0.010376207866
0.0150765391867
0.0182174894352
0.0196246502471
0.0193853018175
0.0180187668234
0.0163439198726
0.0149684052018
0.0139102346306
0.0138030295653
0.0143335635429
0.0151317570753
0.016347979934
0.0174565301581
0.0177647551946
0.0167781392009
0.0142198523674
0.00999822603811
0.00424057133377
0.00443293242807
0.0107902422602
0.015905934256
0.019182381355
0.0202659322726
0.0192086313073
0.016731137821
0.0141584222772
0.0124056427451
0.0112212226013
0.0111469794317
0.0116796323027
0.0126918743191
0.0147614390677
0.0168992724013
0.0179514983354
0.0173487326286
0.0148331638761
0.010397884862
0.00429019423926
0.00448379248865
0.0109628897325
0.0161897701703
0.0193480850612
0.0199035533926
0.017799682719
0.0139116263953
0.0104106947546
0.00858138963605
0.00769755525114
0.00790018960642
0.00823360530977
0.00919165173476
0.0120291538512
0.0154249815891
0.0174031539822
0.0173192845525
0.015004100454
0.0105760890755
0.00434995398724
0.00449251727128
0.0109526148029
0.0161199860381
0.0190738071492
0.0191513336032
0.0161906987763
0.0112239184722
0.00747399937654
0.00599135231402
0.00537532433315
0.00523128376679
0.00537720865337
0.00615476898614
0.00929554844693
0.0137148290324
0.0165685740719
0.0170085684207
0.014947400808
0.0106181438043
0.00439850699057
0.0044873765098
0.0109017863557
0.0159959061419
0.0188151561342
0.0186474517731
0.0153258365104
0.0100733519103
0.0064435340647
0.00512348399064
0.00462483336806
0.00447749173364
0.0045783761221
0.00530340932082
0.00828394254792
0.0129429368907
0.0161236298312
0.0168126520553
0.0148907046408
0.0106286719893
0.00443625409802
0.00448224048049
0.0108811624954
0.0159662356501
0.0187757648078
0.0185942979616
0.015257233237
0.00999327213883
0.0063712864284
0.00506836539603
0.0045748411791
0.00441298322804
0.00453688119497
0.00530128109598
0.00830543876594
0.0129858870331
0.0161762138921
0.0168564831972
0.0149241358006
0.0106569712507
0.00446754330948
0.00448273109766
0.0109038485968
0.0160508360715
0.0189906284229
0.0190416329529
0.0160174958223
0.0109646407919
0.0071945312131
0.00576896891928
0.00517984599213
0.00501281273723
0.00519456055338
0.00605837322314
0.00931723175269
0.0138774357892
0.0167539264622
0.0171664669803
0.0150651480877
0.0107113601942
0.00449045528954
0.00447160507398
0.0108941357151
0.0161078234775
0.0192711583616
0.0198263154753
0.0176822763621
0.0136606483483
0.0100100214289
0.00834115660047
0.00750568607432
0.00705561922229
0.0077089022728
0.00905579857241
0.0122587552897
0.015795460717
0.0178156137977
0.0176708687115
0.015247762022
0.0107486412001
0.00450139388339
0.00442823543704
0.0107416729104
0.0158834698096
0.0192132798009
0.0203355225889
0.0192516344151
0.0166537061176
0.0139626962606
0.0122816930091
0.0112677838474
0.0111607834853
0.0121231043297
0.0135499306456
0.0158070073916
0.0179590915374
0.0189042029475
0.0180712588813
0.0153110727435
0.0107007554212
0.0044925048071
0.0043635671487
0.0104627924972
0.0153286759878
0.0186428438607
0.0201818152863
0.0199941000452
0.0185944356831
0.0168790712703
0.0155244258041
0.0145812542788
0.014636631081
0.0155967267269
0.0168043265974
0.0182615931166
0.0193847810295
0.0194817743253
0.0181266865324
0.0151563391788
0.0105761242165
0.00447468416923
0.00431696169954
0.0101666475464
0.014579343484
0.0176248296712
0.0193098907531
0.0196929301006
0.0191230643577
0.0181695248592
0.0172769847404
0.0166093077009
0.0168616159771
0.0176050940315
0.0184537565453
0.0193023477147
0.0197371404488
0.0193064466223
0.0177052068403
0.0147900981756
0.0104214807507
0.00446481399787
0.00428552536258
0.00987947986175
0.0137893372075
0.0163503896385
0.0178777886382
0.0184980098955
0.0184273394504
0.0180132346852
0.017557575992
0.0172192072474
0.017545672344
0.0180045611866
0.0184989893592
0.0189201158679
0.0189789820115
0.0183576956489
0.0168324659062
0.014248812696
0.0102294549497
0.00444003045059
0.00422967180748
0.00943321538822
0.0128641419464
0.0148905535919
0.016039090405
0.0165911156086
0.0167212915829
0.0166255439224
0.0164835085816
0.0164847287312
0.0166946855887
0.0169243127964
0.0171606030285
0.0173273957335
0.0172447029955
0.0167054741364
0.0155303404401
0.0134057200056
0.00980494507525
0.00437683430081
0.0041026093017
0.0085380899968
0.0113212369028
0.0128501366613
0.0136313955053
0.0139910805936
0.0141163270755
0.0141461597538
0.0142090937562
0.0142894631763
0.0143762047817
0.0144742548335
0.0145795781262
0.0146494043922
0.0145874154268
0.0142484418409
0.0134269949825
0.0117883858266
0.00885130442598
0.00423177492592
0.0038328285271
0.00680193325346
0.00854131158087
0.00943573804342
0.00986043692312
0.0100482328004
0.0101381795001
0.0101968409042
0.0102446654861
0.0102899542523
0.0103343620153
0.0103834554609
0.0104362865111
0.0104716408718
0.0104507998734
0.0102861017132
0.00983297499331
0.00886219888426
0.00701717245533
0.0039388609424
0.00337784607813
0.00380079272013
0.00405851427575
0.00418607310287
0.00424820889334
0.00428488918868
0.00431760838846
0.00435183542538
0.00438539046603
0.00441518118462
0.00444121872922
0.00446003497224
0.00447480920398
0.00447983652188
0.00447676609783
0.00445130486045
0.0043860753456
0.00423938153191
0.00394480784564
0.00346623810095
0.0044938637526
0.00590370031111
0.00681204344042
0.0072688983565
0.00745799157892
0.00751248340463
0.00752463641668
0.00752654673591
0.00753591981281
0.00754454237219
0.00755316967623
0.00754654985111
0.00753038466435
0.00753019392587
0.00753995468074
0.00753028634646
0.0073776118215
0.006928307572
0.00599222269813
0.00448748967343
0.00591950173058
0.00716083504123
0.00831329087781
0.00894325046199
0.00924515391795
0.0093655982444
0.00936930650818
0.00931776363419
0.00926000307366
0.00921153520047
0.0091726268676
0.00914536093561
0.00914065064222
0.00914977386538
0.00913742400046
0.00907462605005
0.00886643520668
0.00830156657145
0.00716270363202
0.00588666403138
0.00684756756883
0.00833321311095
0.00983988904215
0.0107937064195
0.0113127210225
0.0114641432162
0.0113717172376
0.0111785934341
0.0109891129559
0.0108314843342
0.010720947105
0.0107196771022
0.0107655158525
0.0108401789276
0.0108872308785
0.0107951685672
0.0104433489768
0.00967816115405
0.00828866808523
0.00679885352299
0.00731921207211
0.00900441964505
0.010866559187
0.0121467436393
0.0127956748201
0.0128743263849
0.0125666167932
0.0121247407352
0.0117290219316
0.0114250237506
0.0112742158613
0.0113103883431
0.0114322518427
0.0116199685993
0.0117802646493
0.0117635614006
0.011389126647
0.0104730488462
0.00887153647294
0.00725982602953
0.00752034998807
0.00936789239877
0.0115385257535
0.0130401620672
0.0136954326734
0.0135474144083
0.0128767728893
0.0120948948706
0.0114736418517
0.0110538615167
0.0109171807853
0.0110018106842
0.0112469905616
0.0116302969011
0.0119953292854
0.0121225441064
0.0118125091689
0.0108624740327
0.00914723920817
0.00744890163869
0.00756717135989
0.00954754321509
0.0119198997478
0.0135043160903
0.0140077009882
0.0134559921415
0.0122520685988
0.0110528470304
0.0102328578806
0.00979162231779
0.00970744176874
0.00986229274582
0.0103128968822
0.0109952455565
0.0117052561709
0.0120762470873
0.0118978473121
0.0109946941244
0.0092582734102
0.00750208899783
0.00754773889321
0.00960036966361
0.0120431043619
0.0135776285257
0.0138036394058
0.0127000159178
0.0107682621262
0.00905324542182
0.0080996331716
0.00787526205057
0.00793327166662
0.00820591589756
0.00906150320037
0.00995340274715
0.011108310347
0.0118015931681
0.0118051502873
0.0109885305631
0.00928282410563
0.00751005768125
0.00751668272163
0.009577918742
0.0120008912816
0.013428817467
0.0133892089384
0.0118033607631
0.00919305528753
0.00711734295164
0.00609097303807
0.00592648011239
0.00598913680315
0.00624488976088
0.00729815843065
0.00893696885138
0.010466434199
0.0114670927819
0.0116563005737
0.0109351457589
0.00927575766964
0.00751621260382
0.00749409396869
0.00954490427273
0.0119329036976
0.0132804128917
0.0130806784408
0.011222848097
0.00824370525982
0.00595302129384
0.0049554694857
0.00482018875355
0.00484581621488
0.00501826827004
0.00601098018373
0.0080430749211
0.0100179216751
0.0112447491938
0.0115555129115
0.0108955253856
0.00926746260856
0.00752414507089
0.0074899608353
0.00953682409106
0.0119208465719
0.0132591714547
0.0130416331362
0.011155055737
0.00813155106253
0.00581262507589
0.00481988314613
0.00467609648318
0.00468927420685
0.00485064034823
0.00585488991337
0.00796274420067
0.0099874487367
0.0112380905249
0.0115580328095
0.0108992488219
0.00927233640017
0.0075309886905
0.00750407246237
0.00956013492993
0.0119782178035
0.0133888421427
0.013305919669
0.0116369626601
0.00889315181675
0.00669132331216
0.00566163268486
0.00548171349381
0.00550497875383
0.00571025435049
0.00678139030756
0.00877586299854
0.0104184474883
0.011471672395
0.0116793895891
0.0109560963353
0.00929627892522
0.00754228927985
0.00754155581336
0.0095901375864
0.0120465467662
0.0135853678327
0.013784579443
0.0126040046511
0.0105142054251
0.00858077002065
0.00756383593265
0.00729472353505
0.00728661716666
0.00757730154276
0.00856426023486
0.00989853851761
0.011144302524
0.0118903320489
0.0118981367198
0.0110573575977
0.00933644547171
0.00756166691489
0.00758806067004
0.00958232857386
0.0120119586536
0.0136505680896
0.0141603032836
0.0135350462355
0.0121874896066
0.010871310859
0.0100160354007
0.00963571127302
0.00959374217273
0.00990011284111
0.0105183624842
0.01125977248
0.0120022983079
0.0123766306401
0.012146041634
0.0111699348082
0.0093797723863
0.00759235489163
0.00763830318463
0.00952480229164
0.0118281533445
0.0134683260042
0.0142145299448
0.0140684407146
0.0133290725413
0.0124889645825
0.01183009316
0.0114323394655
0.0113625735634
0.0115711923843
0.0119268902241
0.0123472661645
0.0127107130619
0.0127757891557
0.0123424305532
0.0112507159087
0.00940945971755
0.00763348639739
0.00765014645675
0.00942526772704
0.0115288571259
0.0130425463134
0.0138746005935
0.0140391632305
0.0137258201383
0.0132444031184
0.012804184978
0.0124991810953
0.0124627288568
0.0125896742251
0.0127820406727
0.0129890371214
0.0131039352165
0.0129634147028
0.0123982875037
0.0112445617165
0.00939526178055
0.0076542142143
0.00758609613018
0.00926256497323
0.011152289711
0.0124387804522
0.0132039435282
0.0135004131876
0.0134444672674
0.0132250314042
0.0129923602817
0.0128272260313
0.0128377753487
0.0129111338035
0.013007737496
0.0130885003735
0.0130681157055
0.0128228382814
0.0122139569766
0.0110802028591
0.00928387414538
0.00758752825688
0.00737855644624
0.00894395722364
0.0106326960188
0.0116813164344
0.0122708139054
0.0125452849605
0.0126008454949
0.0125404923765
0.0124583836354
0.0124207090496
0.012441695758
0.0124816680198
0.0125288637531
0.0125516536104
0.0124860915534
0.0122403220528
0.0116865155342
0.0106490063349
0.00897268859492
0.00735757338665
0.00690307202963
0.00830058547545
0.00975605955875
0.0105991947759
0.0110290156922
0.0112197106241
0.0112794220075
0.0112841617696
0.0112835723605
0.0112903276967
0.0113059081226
0.011329727788
0.0113563649768
0.0113651536823
0.0113111407229
0.0111168586189
0.0106626866964
0.00977977600005
0.00830992030522
0.00685367472053
0.00596884432465
0.00714125086828
0.00829114694498
0.0089214800669
0.00922441811736
0.00935479677852
0.00940583124273
0.00942648955884
0.0094379596736
0.00944800851686
0.00945961969357
0.00947472622457
0.00949064100468
0.00949456657509
0.00945780087981
0.0093220490621
0.00899032193394
0.00831688262183
0.00714086936088
0.00591859677616
0.00448534135458
0.00589117697932
0.00681213182835
0.00730349341348
0.00754976253064
0.00767053008221
0.00773235713084
0.00776765802708
0.00778880868451
0.00780123594098
0.00780709629906
0.00780819323648
0.00780587163292
0.00779101583079
0.00774949462421
0.00763717594125
0.00738313864122
0.00687002232249
0.00592869080829
0.00451600926477
0.00518401981462
0.00748927983004
0.00904150708835
0.00986152029553
0.0102317893815
0.0103647781837
0.0103965552529
0.0103868211572
0.010378321899
0.0103788059133
0.0103861862823
0.0103910151761
0.0103969937099
0.0104219602054
0.0104388665349
0.0103846689339
0.0100778756308
0.00927295976318
0.00768262296604
0.00522381698371
0.00750720224182
0.00822106810114
0.00933873905732
0.00997903745028
0.0102804769424
0.0103925588544
0.0104035717882
0.0103760661142
0.0103466330695
0.0103284985874
0.0103228565724
0.010328842647
0.0103437176225
0.0103584539649
0.0103471569784
0.0102627684598
0.00999728566921
0.00937071715481
0.00824962289957
0.00751792720148
0.0090898066581
0.0093537029351
0.0104895501994
0.0112099174652
0.0115711396953
0.0116719673379
0.0116300499369
0.0115426290245
0.0114621445831
0.0114084676957
0.0113857724687
0.0113978769017
0.011447777858
0.0115118641798
0.0115472441857
0.0114601208187
0.0111431570036
0.0104745874844
0.00936185671364
0.00907476345057
0.00993840760209
0.0100164396955
0.0112421356653
0.0120663778033
0.0124560364522
0.0125027895491
0.0123470361297
0.0121382957101
0.0119569415765
0.0118432265387
0.0118033289512
0.0118503166424
0.0119655512509
0.0121086500189
0.0122257525904
0.0121971545042
0.0118838502121
0.0111580027933
0.0100027772639
0.00990411964807
0.0103223031409
0.0103376334269
0.011661839031
0.0125590627435
0.0129291436389
0.012843369731
0.0124927971517
0.0121117529738
0.0117888719897
0.0116142273347
0.0115803495017
0.0116818525054
0.0119180592925
0.0121774961521
0.0124285636999
0.0124990003466
0.0122356974129
0.0115021203761
0.0103089882507
0.0102752921041
0.0104398790042
0.0104552453093
0.0118480478159
0.0127643857256
0.0130353195512
0.0127207572823
0.0120955322458
0.0115331466567
0.0109843602817
0.0107779643401
0.0107968544533
0.01101001229
0.0115284993864
0.0118429949373
0.0122771812768
0.0125013125161
0.0123269941683
0.0116282778553
0.0104294007522
0.0103935629167
0.0104307222517
0.0104642459024
0.0118771362229
0.0127494635089
0.0128508979682
0.0122353847536
0.0113100050348
0.0107379239643
0.00967824569547
0.0097709311935
0.0100551610918
0.0106015407114
0.0122437412321
0.0114574195326
0.0119406215411
0.01233456264
0.0122768496415
0.0116366302674
0.0104585882506
0.0104069596023
0.0103822597497
0.0104288984413
0.0118239168183
0.012622681608
0.0125606432665
0.0117239368984
0.0108778627203
0.0137250788803
0.0106108765536
0.0102342028882
0.0102323800808
0.0106135690852
0.013945678922
0.0119020161884
0.0116197241096
0.0121185886498
0.0121770504504
0.0116025359241
0.0104566165553
0.0104013918713
0.0103510729097
0.010397216746
0.0117701219419
0.0125104897102
0.0123212373663
0.0111913357864
0.00941866855139
0.0090141577191
0.00611629884681
0.00569236322621
0.00564254395952
0.00594721798547
0.00896317551302
0.0102795363541
0.0111587524023
0.0119354968949
0.0121038254904
0.011578399227
0.0104551174634
0.0103989486892
0.0103488168855
0.0103932356169
0.0117648129798
0.0124991270795
0.0122962655793
0.011133190938
0.00923997768384
0.00854712106069
0.00570255704081
0.00523228753219
0.00510515566864
0.00538754136943
0.00848320884051
0.0101382260813
0.0111395251403
0.0119462308253
0.0121218367928
0.0115952642454
0.0104695121796
0.0104031414229
0.0103889935917
0.0104231017867
0.011818788653
0.0126071322188
0.0125182657148
0.0116210101627
0.0104373995081
0.0109410432279
0.00790425389614
0.00743029151403
0.00733215758063
0.00763275915704
0.0110252651603
0.0116680353823
0.0116382762137
0.0121782727233
0.0122447762965
0.0116617347622
0.0105058648243
0.0104232554099
0.0104624517233
0.0104757724168
0.0119031120888
0.0127792607666
0.0128653428156
0.0122369337333
0.0113466766914
0.0105789339882
0.00902017151495
0.00881558895246
0.00895016849783
0.0094162621528
0.0114226386748
0.0116914628305
0.012110559909
0.012504809033
0.0124355686617
0.0117656510847
0.010561503366
0.0104613306666
0.010546157356
0.0105286289397
0.0119678257119
0.0129249392299
0.0132016395254
0.0128630919997
0.012249186284
0.0117464479037
0.0110296723837
0.0108465278665
0.0109454657578
0.0113128956454
0.0120431008115
0.0122937366279
0.0126665822595
0.0128691516393
0.0126446350244
0.0118784424257
0.0106229703217
0.010514975524
0.0106198678243
0.0105556092418
0.011969502067
0.0129630969979
0.0133957826006
0.0133216838718
0.0129653849798
0.0125990959306
0.0122371136111
0.0120935158927
0.0121466542885
0.0123543804295
0.0126852125391
0.0129328319198
0.0131559212344
0.0131709137159
0.0128078379143
0.011959733
0.0106665971078
0.0105690584268
0.0106280272334
0.0105248358605
0.0118835122344
0.0128558097199
0.0133683347214
0.0134822467132
0.0133454560333
0.0131393492508
0.0129513015865
0.0128643975369
0.0129049503378
0.0130276533801
0.0132008376793
0.0133552518303
0.0134333859728
0.0133091932825
0.0128510282107
0.0119542300854
0.0106508230618
0.0105650083262
0.0104920157629
0.0103858668759
0.011675224911
0.0125774291125
0.0130930085364
0.0133000895894
0.0133060022981
0.0132302591305
0.0131530167846
0.0131259640488
0.0131640042815
0.0132406272147
0.0133346779306
0.0134060843391
0.0133893452958
0.0131849999008
0.0126870034285
0.0117930572682
0.0105115568601
0.0104046572301
0.0100973914317
0.0100492207965
0.0112645302
0.0120773039471
0.0125341605368
0.0127522409944
0.0128221894897
0.0128210147557
0.0128093214855
0.0128169510425
0.0128490892996
0.0128976372286
0.0129503691912
0.0129763124678
0.0129200555788
0.0127059147969
0.0122321147998
0.0113846073237
0.0101495788076
0.0099637732827
0.0092462780366
0.00937437009885
0.0105197264175
0.0112495865328
0.0116410820445
0.0118262961585
0.0119015188512
0.0119289523493
0.0119439253249
0.0119621301471
0.011988198757
0.0120214786568
0.0120542004449
0.0120643675797
0.0120091385166
0.0118190503297
0.0113940193826
0.0106123811505
0.00943184595318
0.00907085389111
0.00765033150386
0.00824192651971
0.00937255841521
0.0100462744193
0.0103935849273
0.0105572842663
0.0106305636584
0.0106654674307
0.010686680839
0.010704869128
0.0107242651795
0.0107458188037
0.0107646756083
0.010764886386
0.0107121772007
0.0105442191019
0.0101636204399
0.00943672562665
0.00826464927196
0.0074958818735
0.00521490888071
0.00752450566453
0.00909938877364
0.00997151260407
0.0104195594223
0.0106380061052
0.0107422184559
0.010793718535
0.0108194844056
0.010831547606
0.0108353408047
0.0108330048921
0.0108225140368
0.0107882714571
0.0106958554385
0.0104703739136
0.00999641988563
0.00909030393175
0.00750689940918
0.00524579929189
0.00547086513661
0.0084262835235
0.010484654249
0.0116170286404
0.0121534542245
0.0123556750562
0.0123986430415
0.0123765222762
0.0123552536399
0.0123517855025
0.012364254132
0.0123886173755
0.0124253551409
0.0124830392901
0.0125089891824
0.0124067351886
0.0119492402872
0.0108349854057
0.00871904534041
0.00555001431394
0.00844485746439
0.00902818320909
0.010208849847
0.0109105039378
0.0112494062286
0.0113769538348
0.011394572214
0.0113705968745
0.0113440384983
0.0113312833966
0.0113350935369
0.0113545590015
0.0113864546376
0.0114124872479
0.011399824931
0.0112915156679
0.0109691704591
0.0102667281244
0.00908203624647
0.00850527918593
0.0105438547128
0.0102214798681
0.0112228887305
0.0118777024053
0.0122033549104
0.0123021762818
0.0122852930362
0.0122340007247
0.0121843155761
0.0121588446096
0.0121620314653
0.0121898782802
0.0122442024987
0.0123027368666
0.0123281931691
0.0122308593332
0.011911729087
0.0112615953986
0.0102605123751
0.0105788059082
0.0117058146663
0.0109371492382
0.0118933880123
0.0125506001418
0.0128578089098
0.0129094767957
0.0128245232609
0.0127075800561
0.0125925901258
0.012532394614
0.0125313143992
0.0125875819445
0.0127047526883
0.0128202633024
0.012909544911
0.0128660645167
0.0125679622675
0.0119195633507
0.0109779348945
0.011730982602
0.0122522446759
0.0112804640045
0.0122402322911
0.0129013129059
0.0131738189745
0.0131393825346
0.0129515762034
0.0127658211652
0.0125257699508
0.0124121713643
0.0124072610095
0.0125260085503
0.0127725733823
0.0129408773648
0.0131155639424
0.0131471533291
0.0128976745571
0.0122627306861
0.0113346740877
0.0122815301528
0.0124318631195
0.0113965954222
0.0123672088787
0.0130151231185
0.0132148034694
0.0130579814851
0.0128214427961
0.0128516606869
0.0122159135769
0.0119997866974
0.0119964384278
0.0122401570706
0.0128896693401
0.0128480384577
0.0130538385956
0.0131778667374
0.0129970620233
0.0123970266324
0.0114791003347
0.0124756495794
0.0124290016589
0.0113970357694
0.0123659863089
0.0129726963716
0.0130718424972
0.0128659386497
0.0134974407977
0.0211065741947
0.0169491888703
0.0160382266967
0.0158849144936
0.0164224823183
0.0197671309247
0.0133501094993
0.0129292999405
0.0130752468673
0.0129698612594
0.0124164386177
0.0115180328621
0.0125038550081
0.0123676456095
0.0113559161277
0.01230825049
0.0128601685968
0.0128863141984
0.013050071923
0.0222185673683
0.0204442461493
0.0129779918294
0.0129359180564
0.0128964533912
0.012393722751
0.0115215509885
0.0124922967553
0.0123286830617
0.0113226569218
0.0122587291947
0.0127635567836
0.0126754078057
0.0123999724558
0.0170061715669
0.0154047838481
0.0123919785422
0.0127624962143
0.0128380492608
0.0123802542968
0.011526184427
0.0124839053645
0.0123336410078
0.0113204322904
0.0122558004225
0.0127571793998
0.0126593634395
0.0123247450649
0.0163688606734
0.0149559105477
0.0123701323121
0.012791403081
0.0128732772466
0.0124111559765
0.0115508219028
0.0124922453554
0.0124008642911
0.0113562316227
0.0123090681994
0.0128563025173
0.0128701408314
0.0129058683788
0.0194389542613
0.0185193213588
0.0130121761795
0.0130542687781
0.0130154297033
0.0124949983763
0.0116025999441
0.0125290135366
0.0125119628281
0.011421200592
0.0123979286638
0.0130078743668
0.0131123524824
0.0129848507477
0.0140561299903
0.019917291583
0.0159581472762
0.0154366602228
0.015494077302
0.0162835297063
0.0210033548037
0.0140965380157
0.013246231139
0.0133477944851
0.0132120540888
0.012615483851
0.0116772313132
0.0125922056764
0.0126408215999
0.0114979027191
0.0124961085554
0.0131725250071
0.0133885888674
0.013288300042
0.0133597373711
0.0139173472345
0.0129491337128
0.0127174740788
0.0128208448755
0.0132041814287
0.0141511647581
0.0135709407126
0.0135896091513
0.013662311269
0.0134199451513
0.0127427851981
0.0117575974988
0.0126701019739
0.0127448408357
0.0115525818023
0.0125599868097
0.0132850956698
0.013606727095
0.013612443653
0.0135192457912
0.0134760796472
0.0131807972126
0.0130925329755
0.0131745621217
0.0133909311952
0.0137372518331
0.0138350548657
0.0139563674986
0.0139287693052
0.0135811948078
0.0128338533887
0.0118125396505
0.0127297066671
0.0127518353475
0.0115384353273
0.0125425563267
0.0132889256095
0.0136827647697
0.0137994237702
0.013768018871
0.0137014912534
0.0136046051989
0.0135912136965
0.0136612601997
0.0138005708746
0.0139845503906
0.0141165565353
0.0141741422345
0.0140473731239
0.0136215880941
0.0128287152356
0.0117899704987
0.0126897958826
0.0125460009339
0.0113902231067
0.0123838039804
0.0131222530377
0.0135464132339
0.0137330123372
0.0137790425012
0.0137710909394
0.0137563829982
0.0137798367806
0.01384192755
0.0139378726052
0.0140483633133
0.0141272726185
0.0141151814759
0.0139218367079
0.0134574371486
0.0126567474937
0.0116155298833
0.0124233089868
0.0119786006202
0.0110127121947
0.0120012131651
0.0127149099115
0.0131275214009
0.0133355202808
0.0134223346108
0.0134529067795
0.0134741230125
0.0135055789902
0.0135563143791
0.0136236525774
0.0136934925938
0.0137316394533
0.0136825201446
0.0134737587929
0.0130171889053
0.0122328947894
0.0111861449095
0.0117793596535
0.0108024444177
0.0102714754299
0.0112957329657
0.0119964046996
0.0123898124314
0.0125879560406
0.0126800867576
0.0127242982546
0.0127540680344
0.0127860484466
0.0128267593329
0.0128753732793
0.012921445469
0.01293908675
0.0128819109806
0.0126799782175
0.0122403507615
0.0114651526945
0.0103739837504
0.010544085058
0.00867554288723
0.00907762239004
0.0102747243361
0.0110225083938
0.0114257884677
0.0116264095828
0.0117225366058
0.0117718916056
0.0118035503518
0.0118313119155
0.0118609346549
0.0118927714685
0.011919196969
0.0119193515271
0.0118510856409
0.0116444095206
0.0111960096795
0.0103760520041
0.00911555140687
0.00845486746814
0.0055326401346
0.00850864976918
0.0106066249932
0.0118064631378
0.0124406773179
0.0127551816849
0.0129039253748
0.0129743665124
0.0130077775424
0.0130238094389
0.0130311299935
0.0130317894351
0.0130181417396
0.0129675882341
0.0128234653642
0.0124878869654
0.0118080196655
0.010559121609
0.00846205811504
0.00558569770443
0.00561585811655
0.0090009936674
0.0114303756156
0.0128067135918
0.0134822808786
0.0137419808856
0.0137918226003
0.0137599278449
0.013730579247
0.0137238341054
0.0137427853986
0.0137878847468
0.0138553212446
0.0139444124531
0.013984844664
0.0138478464529
0.0132675866236
0.0119061953795
0.00939650273251
0.00573052216667
0.00902135736244
0.00956847841524
0.0108295848788
0.0115996424827
0.0119819601681
0.012129220082
0.0121515139057
0.0121249444379
0.0120942119346
0.0120797559346
0.0120866258394
0.0121143994314
0.0121571178039
0.0121947301964
0.012184106337
0.0120585251258
0.0116908991656
0.0109192608431
0.00965811671977
0.0091397350101
0.0114946592682
0.0108411193067
0.0118011113327
0.012449588131
0.0127786466103
0.0128876879166
0.0128835972984
0.0128428757231
0.0127982153732
0.0127775460546
0.0127885061228
0.0128297708444
0.0128891106174
0.0129456808343
0.0129647165971
0.0128570420958
0.012528590226
0.0118732846893
0.01091562462
0.0115970390082
0.0129009709777
0.0116219111791
0.0124594583034
0.0130578411137
0.0133442518845
0.0134081358408
0.0133563668732
0.013271841963
0.0131703658639
0.0131193358448
0.0131301792454
0.0131974574833
0.0133206510321
0.0134221395136
0.013493596009
0.0134389994502
0.0131451593279
0.0125344240334
0.0117055340349
0.0130047801565
0.0135816367807
0.0120047506748
0.0127975175047
0.0133660977428
0.0136098919912
0.0136106687453
0.0135005269252
0.0133876630175
0.0131506946513
0.0130356119231
0.0130418503672
0.0131785903016
0.0134464170688
0.0135779575545
0.0137040769478
0.0137090762218
0.0134668722338
0.0128881552741
0.0121119171044
0.0137033136105
0.0138143337129
0.0121382450334
0.0129162841686
0.0134571048025
0.0136424656826
0.0135752880426
0.0135107408425
0.0136812810995
0.0129107505195
0.0126216854197
0.0126235626256
0.0129326313043
0.013714196164
0.0136349357457
0.0137077374078
0.0137599057307
0.0135736308409
0.0130337326152
0.0122823428273
0.0139627437339
0.0138157773408
0.0121425464064
0.0129115727827
0.0134144338984
0.013534428246
0.0135141552467
0.0144690632281
0.0218821295866
0.017096747386
0.0160900382029
0.0160817544303
0.0169317108752
0.021047619662
0.0145951701049
0.0137546265026
0.013709037493
0.013564787048
0.0130643051505
0.0123328604266
0.0140044667587
0.0137463219677
0.012100231507
0.0128552235945
0.0133139197186
0.0133968846773
0.0138327097294
0.0234450798768
0.0222892018704
0.0139845958878
0.0136285680457
0.0135135266357
0.0130529306575
0.0123431303791
0.0139886519182
0.0137003722711
0.012065885294
0.0128082763964
0.013226523845
0.013204681977
0.013169453377
0.0172871895361
0.0162690306962
0.01328952799
0.0134571189612
0.0134687661155
0.0130511207385
0.012355365305
0.013978531504
0.0137157962078
0.0120660208379
0.0128074631787
0.0132240463173
0.0131969965364
0.0131016086382
0.0165084069864
0.0157468578874
0.013271812885
0.0135075702374
0.0135251438206
0.0130989263404
0.0123924508523
0.0139961354413
0.0138089589503
0.012108273058
0.0128620054291
0.0133199879898
0.0134042676642
0.0137149765003
0.0200001370888
0.0201387492462
0.0140365037664
0.0138120752387
0.0136951720783
0.013205162426
0.0124627032294
0.0140554585807
0.0139578102486
0.0121831415511
0.0129527488028
0.013458885231
0.0136009804452
0.0137303868964
0.0153503545301
0.0220356789412
0.0166775684495
0.0158103830131
0.0159368644029
0.0171263871621
0.0230702317885
0.0153918437082
0.0141747463988
0.0140994267921
0.0139113048876
0.0133495906006
0.0125603815756
0.0141518510884
0.0141348340091
0.0122730050621
0.013061974804
0.0136231602157
0.0138352610796
0.013879330357
0.0142688044278
0.0150424448013
0.0138467951636
0.0135090591666
0.0136069977304
0.0140983656239
0.0152741730485
0.0145545274294