/*--------------------------------*- C++ -*----------------------------------*\
| =========                 |                                                 |
| \\      /  F ield         | OpenFOAM: The Open Source CFD Toolbox           |
|  \\    /   O peration     | Version:  v1606+                                |
|   \\  /    A nd           | Web:      www.OpenFOAM.com                      |
|    \\/     M anipulation  |                                                 |
\*---------------------------------------------------------------------------*/
FoamFile
{
    version     2.0;
    format      ascii;
    class       surfaceVectorField;
    location    "1.5";
    object      Uf_0;
}
// * * * * * * * * * * * * * * * * * * * * * * * * * * * * * * * * * * * * * //

dimensions      [0 1 -1 0 0 0 0];

internalField   nonuniform List<vector> 
33146
(
(-0.00425482683708 -0.00241631141949 0.00298952784912)
(-0.00223676299044 -0.0046184267702 0.00293478684378)
(-0.00216766598605 -0.00237898574035 0.00591550755806)
(-0.00844319099029 -0.00248910631578 0.00296759516998)
(-0.00651826393165 -0.00464371887095 0.00296166029725)
(-0.00642875460994 -0.00241677351906 0.00588806019003)
(-0.0123468279854 -0.00254382541259 0.00288417036111)
(-0.0105988899142 -0.00473685370803 0.00288602003904)
(-0.010567899528 -0.0024681704163 0.0057603304596)
(-0.0158384114181 -0.00262321626307 0.00276061656313)
(-0.0142950074529 -0.00488149882572 0.00277566766766)
(-0.0142792353434 -0.00253712005119 0.00558227875163)
(-0.0186408639798 -0.00272904651439 0.00258175969612)
(-0.0174057778358 -0.00504892963053 0.0026098047791)
(-0.0174288957555 -0.0026508565613 0.00523740605111)
(-0.0206901151706 -0.00283331559977 0.00237039444786)
(-0.0198058740293 -0.00519871526173 0.00240821171479)
(-0.0198813194913 -0.00277299952539 0.0048418440676)
(-0.021894304394 -0.00287751884908 0.00213846922928)
(-0.0214455290695 -0.00537611165752 0.00219904565595)
(-0.0215893196687 -0.00289962550507 0.00440340343259)
(-0.0223639373133 -0.00287409074238 0.00189815968601)
(-0.0222201603441 -0.00544175628483 0.00197239936002)
(-0.0224144069267 -0.00294352684842 0.00396072386103)
(-0.0221248180519 -0.00282028944453 0.00167001521765)
(-0.0222119241931 -0.00544119226805 0.00178062102938)
(-0.0224418042434 -0.00298535157185 0.00348858312035)
(-0.021346057462 -0.00267903792384 0.00145355816819)
(-0.0216277068643 -0.00529773035215 0.00158689310692)
(-0.021913427376 -0.00292429710281 0.00303314261903)
(-0.0202239086048 -0.00248504208537 0.00124743652145)
(-0.0206317923102 -0.00497214139852 0.00143012656612)
(-0.020945421992 -0.00278321066289 0.00258569012581)
(-0.0188621748915 -0.00226231630043 0.00104652668334)
(-0.0193682820476 -0.00459372812083 0.00126610448816)
(-0.0196932649323 -0.00260599380231 0.00217204878029)
(-0.0173126987079 -0.00205481065304 0.000853198459292)
(-0.0179381526726 -0.00419369813084 0.00111132956587)
(-0.018246143354 -0.00240428533321 0.00177825106088)
(-0.0155739988979 -0.00191109726263 0.000672257318444)
(-0.0163358671697 -0.00384678557911 0.000970472213103)
(-0.0165997088871 -0.00224750472789 0.00141776331733)
(-0.013551925573 -0.00185194644368 0.000517936171074)
(-0.0145025153703 -0.00364584509401 0.000816480816145)
(-0.0147019213911 -0.00217180923893 0.00109012945897)
(-0.0111804703895 -0.00186205740306 0.000406534346149)
(-0.0123707587101 -0.00361503436827 0.00069054340595)
(-0.0124915396983 -0.00216230982708 0.000831609673844)
(-0.00851293676371 -0.0018966730465 0.000357928741202)
(-0.00989007158849 -0.00365743506755 0.000601642971869)
(-0.00992869226354 -0.00217781247398 0.00066013649973)
(-0.00566767014414 -0.00193210244364 0.00037863450073)
(-0.00718992776459 -0.00374017374677 0.000559570984993)
(-0.00713911810875 -0.00218298386306 0.000596598442936)
(-0.00280072351528 -0.00193768253629 0.000441107373071)
(-0.0043970320187 -0.00381897561767 0.000541466606526)
(-0.00427974494367 -0.00216463501725 0.000634675220779)
(-0.00150399034782 -0.00388462073039 0.000439283232792)
(-0.00138215718032 -0.00203006779579 0.00072258809123)
(-0.00441106021867 -0.00689633582386 0.00290691929191)
(-0.00233174143087 -0.00881423901599 0.00285497544133)
(-0.00233354664352 -0.00686729228581 0.00573791958357)
(-0.00869965589568 -0.00705286273061 0.00288009998818)
(-0.00675640820844 -0.00894320619604 0.00286846307926)
(-0.00670125876992 -0.00693841639693 0.0057253923284)
(-0.0126347386243 -0.00726211541263 0.00277762690539)
(-0.0108783443599 -0.00912954112453 0.00276586610219)
(-0.0107675356068 -0.00707700905389 0.00555313796251)
(-0.0160547287388 -0.00752152173862 0.00262478885102)
(-0.0146012396316 -0.00938909093625 0.00259934363741)
(-0.0144864792119 -0.00730240346678 0.00529430193472)
(-0.0188164519518 -0.00778573392909 0.00243476771224)
(-0.017695128893 -0.00966427788726 0.00238335963295)
(-0.0176211141588 -0.00757426934446 0.00494153961248)
(-0.0208471057788 -0.00805220367941 0.00223315810953)
(-0.0200980826245 -0.00996803895196 0.00215074794596)
(-0.0200452353534 -0.0078583594758 0.00457369055075)
(-0.0220332735534 -0.0082696367222 0.00202765914908)
(-0.0216837059445 -0.0104180914072 0.00193411798955)
(-0.0216666873433 -0.00817888324697 0.00420932216699)
(-0.0223561338695 -0.00837104359057 0.00184817613349)
(-0.0223394908783 -0.0106680087653 0.00171949476672)
(-0.0224002496081 -0.00842435107797 0.00376807507468)
(-0.0219931086694 -0.00828094981842 0.00169028756283)
(-0.0221562216534 -0.0107896407324 0.00156681747589)
(-0.0223378704047 -0.00853229444589 0.00339845055059)
(-0.0211383757562 -0.00794868056677 0.00155575277935)
(-0.0213718987995 -0.0105734987608 0.00142483117565)
(-0.0216837283615 -0.00837588757399 0.00302371879864)
(-0.0199590384917 -0.00746063700529 0.0014400872926)
(-0.0202530342505 -0.010073950218 0.00134107357302)
(-0.0206412177015 -0.00800332181107 0.0026883507823)
(-0.0185854725899 -0.00689693991176 0.00132184636054)
(-0.0189366185454 -0.00941154770719 0.00124880231227)
(-0.0193468942962 -0.00751611541519 0.00236448172995)
(-0.0170858893373 -0.00636935196378 0.00121920714961)
(-0.0175352597614 -0.00870399156851 0.00117424090571)
(-0.0178998152687 -0.00698285447467 0.00206886554876)
(-0.0154102674191 -0.00600539237561 0.00110602536212)
(-0.0160447837892 -0.00816135814261 0.00110539858301)
(-0.0163176017946 -0.00655156497376 0.00181404149137)
(-0.0134817947269 -0.00583229804617 0.000983346271901)
(-0.0143303112022 -0.00781297013461 0.00100906990962)
(-0.0145181298038 -0.00633252023289 0.00153516656999)
(-0.0112298002097 -0.00583686621145 0.00088316944005)
(-0.0123241387925 -0.00777351482604 0.000894948538794)
(-0.0124213489757 -0.00626656751805 0.0012993146594)
(-0.00867963074737 -0.00593315178919 0.000802604523631)
(-0.00998066668004 -0.00787372226321 0.000814356651966)
(-0.00998932371318 -0.00632366427555 0.0011227616581)
(-0.00593850486841 -0.00599588018285 0.000722324890701)
(-0.00738782641874 -0.00798029570802 0.00073042102892)
(-0.00731278741763 -0.00636576721808 0.00100137308122)
(-0.00311019029678 -0.00596053601734 0.000539642466247)
(-0.00465422547674 -0.00800214397515 0.000627791488348)
(-0.00451338753638 -0.00632591426564 0.000903224734792)
(-0.00166601620507 -0.00789664683181 0.000324027058594)
(-0.00154079951452 -0.00609083327952 0.000601214177734)
(-0.00447567862837 -0.0108503621665 0.00281654447797)
(-0.00238106820802 -0.0126810985112 0.00273997795569)
(-0.00240655748521 -0.0108697615527 0.00556169459499)
(-0.00893502212606 -0.0110180953559 0.00275434921506)
(-0.0069767662569 -0.012737735387 0.00276071552171)
(-0.00689807181937 -0.0109124003596 0.00550335452183)
(-0.0129566041578 -0.0113079617739 0.00258730415043)
(-0.0112285295252 -0.0129736151282 0.00258521251969)
(-0.0110573779395 -0.0110970954556 0.00524808586204)
(-0.0163925022709 -0.0116571990107 0.00235470708807)
(-0.0150149078648 -0.0132871549695 0.00234324259146)
(-0.0148211934022 -0.0113973548245 0.00489994967333)
(-0.0191678413446 -0.0120335617843 0.00209058282434)
(-0.0181449741838 -0.0136126820302 0.00205075836088)
(-0.0179577052603 -0.011758880821 0.00450689774974)
(-0.0211184084307 -0.0124652167631 0.00184401507366)
(-0.0206050927406 -0.0140776820392 0.00172846485961)
(-0.020411145715 -0.0121942270402 0.00409419724657)
(-0.0223425574301 -0.0129266489906 0.00161882491907)
(-0.0221973458835 -0.0146238099592 0.00146464108451)
(-0.0220180222192 -0.012727258908 0.0037025367461)
(-0.0224335332804 -0.0132258304047 0.00142829685643)
(-0.0226749681172 -0.0152620899704 0.00120138714885)
(-0.022595282889 -0.0132858085753 0.00323770081801)
(-0.0218018278038 -0.0131595300306 0.00129623237646)
(-0.0221266284934 -0.0155083303059 0.00101854125541)
(-0.0222582003618 -0.0134814648188 0.00285719939329)
(-0.0207013435725 -0.0127168625634 0.00120933301876)
(-0.0210051676842 -0.0152328945582 0.000911839976516)
(-0.0213412406599 -0.01325466765 0.00250928613977)
(-0.0194145805044 -0.0120006230019 0.00115210100549)
(-0.0196427560989 -0.0144947328509 0.000868964345778)
(-0.0201194142457 -0.0126891457349 0.00222137422859)
(-0.0180215160021 -0.0111650496348 0.0011054866447)
(-0.0182231080948 -0.0135677045648 0.000816155540456)
(-0.0187402709681 -0.011913585132 0.00196837095398)
(-0.0166016500952 -0.0104111286343 0.00106676284685)
(-0.016870438613 -0.0125837676177 0.00079962465567)
(-0.0173055254977 -0.0111126241857 0.00175646278576)
(-0.015139412769 -0.00991895701741 0.00101231533056)
(-0.0155559806271 -0.0118825373546 0.000825054021657)
(-0.0158718940204 -0.0104499629118 0.00160964438912)
(-0.0133146721594 -0.00972449022594 0.000921707346147)
(-0.0140450085434 -0.011587199541 0.000775533961518)
(-0.0142481134472 -0.0101695896995 0.00138769256925)
(-0.0112344181016 -0.0097557555317 0.000827821968166)
(-0.0122027442745 -0.0115093450376 0.000703367463386)
(-0.0123011938177 -0.0101104370585 0.0011662748913)
(-0.00880522918705 -0.00989904936809 0.000742668965832)
(-0.0099888410316 -0.0117214728531 0.00063683251283)
(-0.010021512839 -0.0102093521208 0.000982991822845)
(-0.00613343544102 -0.00999249696158 0.000636006520858)
(-0.00747890559253 -0.0118742379925 0.000563522662837)
(-0.00745402907696 -0.0103181176328 0.000828841804971)
(-0.00326671861579 -0.00991744841762 0.000412215781169)
(-0.00479383838761 -0.011879095797 0.000449748293862)
(-0.00470931373326 -0.0102955028293 0.000675477835004)
(-0.00174180537088 -0.0116530534308 0.000136894840773)
(-0.0016595108109 -0.0100410885977 0.000326451407479)
(-0.00464841042899 -0.0144051229325 0.00268441078501)
(-0.00243654183465 -0.0159970014546 0.00258871812733)
(-0.00247406827179 -0.0144460329347 0.00530957708193)
(-0.00919795518974 -0.0145860758255 0.00259269583382)
(-0.00722916464438 -0.0160243439294 0.00260599739697)
(-0.00712117414673 -0.0145008655676 0.00522361630446)
(-0.013316555663 -0.0148623180888 0.00234444135755)
(-0.0115939306786 -0.0161970438827 0.00235991278296)
(-0.0113841220342 -0.0147076603106 0.00488692053675)
(-0.0168663283928 -0.0152024350869 0.00204140612519)
(-0.0154832870409 -0.0164206047843 0.00203000275299)
(-0.0152505887414 -0.0150026322058 0.00444485035313)
(-0.019693621582 -0.0156334527356 0.00169212536483)
(-0.018749093404 -0.016747961626 0.0016314122493)
(-0.0184848813266 -0.015423824347 0.00398785330776)
(-0.0218576177599 -0.0161975163388 0.00135596824351)
(-0.0213579801599 -0.0171289782999 0.00123361501388)
(-0.0210175794037 -0.0160052386468 0.0035309122317)
(-0.0229513042062 -0.0169373123509 0.00105374160449)
(-0.0230530502828 -0.0179377619672 0.000852409266132)
(-0.0226721792273 -0.0168104507228 0.00305039795374)
(-0.0226374817762 -0.0174774468577 0.00080466990262)
(-0.0232721607657 -0.0189195182714 0.000361688681006)
(-0.0230335198364 -0.0178343043096 0.00241582475238)
(-0.0215688351191 -0.017415689699 0.000663471555909)
(-0.0220801964018 -0.0191744770121 5.28939941404e-05)
(-0.022215772179 -0.0181158276507 0.00195833168177)
(-0.0201271650354 -0.0167877393177 0.000609817946056)
(-0.0204282002487 -0.018710723117 -0.000129784454675)
(-0.0209057274182 -0.0177665084295 0.00160192909903)
(-0.0186442820043 -0.0157602824401 0.00058433029824)
(-0.0186977696035 -0.0176481492724 -0.000161216884832)
(-0.0193865120136 -0.0169061130483 0.00135197542071)
(-0.0172046207898 -0.0145981578927 0.000575220286995)
(-0.0171391880584 -0.0163670484268 -0.000155584097528)
(-0.017867963612 -0.0157657678473 0.00112787314342)
(-0.0158502604397 -0.0136247356991 0.000627320386382)
(-0.0158996838781 -0.0151434996714 -3.91253472313e-05)
(-0.0164448569404 -0.0146289665079 0.000996842384082)
(-0.014691657977 -0.0131230316016 0.000653117603888)
(-0.0149130420044 -0.0144158901697 0.000275416619869)
(-0.0152125904865 -0.0137011006397 0.00106383632095)
(-0.0130694589257 -0.0130534654188 0.000597025305645)
(-0.013719589873 -0.0143493618061 0.00031495535053)
(-0.0138684890912 -0.0134822880083 0.000880757472209)
(-0.0110999067664 -0.013185491345 0.000534347343548)
(-0.0120128427887 -0.0144102311532 0.000330787243941)
(-0.0121036098561 -0.0134958511728 0.000706099982066)
(-0.008795464824 -0.0133919376121 0.000470446811311)
(-0.00989921042769 -0.0147566815888 0.000280413151733)
(-0.00995284808469 -0.0136556856669 0.00054262567722)
(-0.00617879938347 -0.0135267217829 0.000380594701694)
(-0.00743612971516 -0.0150442522196 0.000252838401956)
(-0.00745096222612 -0.0138285432534 0.000395208201266)
(-0.00330785878404 -0.0134337711084 0.000174902183249)
(-0.00477548637844 -0.0151053618976 0.000166378730515)
(-0.00475144939299 -0.0138485154322 0.000243987491378)
(-0.00173258535259 -0.0148528304075 -9.7083478049e-05)
(-0.00168221294223 -0.0135655387182 -7.18521526455e-05)
(-0.0047558952593 -0.0173654075114 0.00251191078466)
(-0.0025017201015 -0.0186690278335 0.0024049867474)
(-0.00252654980146 -0.017460973396 0.00495161440725)
(-0.00945065940863 -0.0174601473992 0.00237774133672)
(-0.00744348616899 -0.0186163324063 0.00239250426249)
(-0.00734608960798 -0.0174638971867 0.00484641028294)
(-0.0137178252935 -0.0176269784186 0.00205503074564)
(-0.0118985783303 -0.0186596810065 0.0021068444901)
(-0.0117307769366 -0.01760292489 0.00445081582957)
(-0.0174405841523 -0.0178343061904 0.00163960543216)
(-0.015911144925 -0.0187249358087 0.00167449207525)
(-0.0157317810411 -0.0178208522467 0.00397910598839)
(-0.02052531136 -0.0181221112182 0.0011979143872)
(-0.0193513689543 -0.0188586425421 0.00120007660527)
(-0.019151795825 -0.0181899809511 0.00345408626602)
(-0.0228070186727 -0.018683872394 0.000778840067983)
(-0.0222462173404 -0.0191210912554 0.000821955086552)
(-0.0219264926264 -0.0187349942609 0.00287647709072)
(-0.0239147942954 -0.0195948899794 0.00025032246771)
(-0.0241383284876 -0.0199259566242 0.000471347001627)
(-0.0238265959212 -0.0196929581144 0.00212419816073)
(-0.0229046139806 -0.0201398737235 -0.000264969085049)
(-0.0239412440536 -0.0210954110084 -0.000126526796685)
(-0.0238459809828 -0.0210182982498 0.00090349796995)
(-0.0210906191577 -0.0197637327042 -0.000558274696961)
(-0.0217145487089 -0.0210421653372 -0.000428589770727)
(-0.0221325987182 -0.0210100210848 0.000173367955096)
(-0.019123471647 -0.0186635858396 -0.000669505056174)
(-0.0193650307766 -0.0200677275696 -0.00054415910026)
(-0.020172987163 -0.0201249891829 -0.00029098535412)
(-0.0173499734431 -0.0172225162315 -0.000640038065762)
(-0.0173025077483 -0.0184991113741 -0.00046675509827)
(-0.0182129936167 -0.0186734912252 -0.000539594493453)
(-0.0159930560004 -0.0159250539602 -0.000522083911552)
(-0.0158294628035 -0.0167449016743 -0.000322902198747)
(-0.0165199358327 -0.0171226042225 -0.000623558658256)
(-0.0148884860121 -0.0152558946369 -0.000225365140501)
(-0.0150486204654 -0.0154284935968 -0.000143114130311)
(-0.015145602091 -0.0159872102182 -0.000539745710338)
(-0.0142836130401 -0.0151894370476 4.3989784163e-05)
(-0.0145031464411 -0.0150961485423 2.60971094072e-05)
(-0.0143456688035 -0.0155600812265 0.000107017669577)
(-0.0127987088618 -0.015384147093 0.000114304792843)
(-0.0134596118375 -0.0158368381903 -0.000166722004776)
(-0.013484411954 -0.0157420405582 0.00010672093507)
(-0.0109636237171 -0.0157099385851 0.000113285390584)
(-0.0118135135209 -0.0162655958257 -7.60936174238e-05)
(-0.0118519059913 -0.0159392890594 9.09230346957e-05)
(-0.0086640889118 -0.0160800570986 8.97449676471e-05)
(-0.00978306389578 -0.0169185241755 -0.000148661553976)
(-0.0098356428239 -0.0162598868317 -3.49840377362e-05)
(-0.00609370887473 -0.0163385920246 4.8634128794e-05)
(-0.00734895643528 -0.0173868777799 -0.000125247554354)
(-0.00739140201519 -0.0165691458709 -0.000123360682138)
(-0.00325446123989 -0.0162870777002 -0.000103737956905)
(-0.0046777219703 -0.017584789341 -0.000162094093924)
(-0.00470473432088 -0.0166801437027 -0.000230005119708)
(-0.00167541493121 -0.0173691305376 -0.000340628805984)
(-0.00166549227843 -0.0164255668392 -0.00049058978341)
(-0.00484250992586 -0.0196436901687 0.0022897478661)
(-0.00254965060976 -0.0206865428276 0.00218813380354)
(-0.00259323093863 -0.0198138060996 0.00456907289874)
(-0.0096446494594 -0.019591067258 0.0021330404247)
(-0.00752758409811 -0.0205217327993 0.00215901842807)
(-0.00748845960627 -0.0197446637256 0.00444367593633)
(-0.0140546121154 -0.0195897647836 0.00174538932014)
(-0.0120746284881 -0.0203709563358 0.00182723622599)
(-0.0119635871111 -0.0197506559163 0.00401924163506)
(-0.0179147379775 -0.0196289726711 0.00125952219984)
(-0.0162528258975 -0.0202550100744 0.00129820896967)
(-0.0161254543828 -0.0198846693511 0.00353353453835)
(-0.0211900557437 -0.0198365188579 0.000829086004691)
(-0.0199554402995 -0.0200829156064 0.000823117582015)
(-0.0197444271726 -0.020198361042 0.00296685728252)
(-0.0237654797408 -0.0205461800292 0.000458366494674)
(-0.023378882649 -0.0200603901286 0.00045020578784)
(-0.022851278856 -0.0208942988145 0.00235264613025)
(-0.0249933018249 -0.0220229204937 -9.07121613317e-05)
(-0.0257907921728 -0.0209143378388 -7.1620429614e-05)
(-0.0251181651852 -0.0223856662233 0.00156933448254)
(-0.0226830177798 -0.023103791054 -0.000655760692532)
(-0.025253719189 -0.0226607659787 -0.00183175810901)
(-0.0245062065256 -0.0253058205624 -5.46072265509e-05)
(-0.0199696162199 -0.0229191623586 -0.0009287161115)
(-0.021485033632 -0.0217979678361 -0.00276269119135)
(-0.0213709796104 -0.0254804889723 -0.000701403025842)
(-0.0174894788334 -0.0219295621973 -0.000998452886607)
(-0.0184424418105 -0.0195470223218 -0.00354595667877)
(-0.0186867423349 -0.0246497881696 -0.00125739880423)
(-0.0157940733898 -0.0203406090019 -0.000893781767276)
(-0.0159148207055 -0.0167925977024 -0.00369503058439)
(-0.0164959316951 -0.0230930594865 -0.00150786826808)
(-0.0151594310677 -0.018593257566 -0.000686324915432)
(-0.014211647337 -0.0140555584352 -0.00355314419822)
(-0.0151485129096 -0.0211173808146 -0.00149229009523)
(-0.0148361496181 -0.01690756505 -0.000404287189894)
(-0.0131966705646 -0.0128035762249 -0.00317754897958)
(-0.0145159830262 -0.0193123163695 -0.00130981270358)
(-0.0140950364577 -0.0161663058715 -0.000312930693005)
(-0.0133637949557 -0.0147862524856 -0.00139688139804)
(-0.0142500848251 -0.0170144137543 -0.000390374570882)
(-0.0124623530625 -0.0165339020358 -0.00031201984698)
(-0.0132433993203 -0.0161728217505 -0.00115344972676)
(-0.0134261220612 -0.0171256838028 -0.000685039525536)
(-0.0108103655871 -0.0171720386659 -0.000281932886199)
(-0.0118100646595 -0.0170729266669 -0.000636540891009)
(-0.0117325301492 -0.0173808196274 -0.000483531332277)
(-0.00859803403181 -0.0178797812364 -0.00031982453236)
(-0.00986715370024 -0.0181370298705 -0.000603792257244)
(-0.00979755904131 -0.0179800534473 -0.00062472235265)
(-0.00599578643584 -0.0183443561081 -0.000319287164831)
(-0.00732599327364 -0.0189273934081 -0.000520997867687)
(-0.00735685776733 -0.0184958085975 -0.0006909557587)
(-0.00313971598073 -0.0183814785844 -0.000394568932789)
(-0.00458142442257 -0.0192574652102 -0.000497112049527)
(-0.00464986680978 -0.0187259161105 -0.000783862563913)
(-0.00160185963117 -0.0190720400017 -0.000564741355997)
(-0.0016264763549 -0.0185216356324 -0.000957459750017)
(-0.00485244807037 -0.021235112716 0.00206522077419)
(-0.00250782425144 -0.0220353699942 0.00195457751171)
(-0.00260134464649 -0.0215031174592 0.00412621162609)
(-0.00970812456549 -0.0209930723142 0.00187598663994)
(-0.00741746188496 -0.021749994509 0.00194581713869)
(-0.0075054249649 -0.0213128258462 0.00401514718192)
(-0.0141931627769 -0.0207007825678 0.00143358357996)
(-0.0119725160496 -0.0213614568603 0.00160998543796)
(-0.012107019471 -0.0211156179988 0.00356841135929)
(-0.0183371307166 -0.0203074057465 0.000962577301771)
(-0.0161843305973 -0.0207855792087 0.00112098859682)
(-0.0165153803604 -0.0209350851116 0.00301405616244)
(-0.0221164052591 -0.0198858072297 0.000577056050216)
(-0.0199155863534 -0.019939346358 0.000764235986044)
(-0.0205879572763 -0.0207450039204 0.00231818911943)
(-0.0252193953492 -0.0198051746675 0.00014204919208)
(-0.0236584368777 -0.0190663927368 0.000549449140914)
(-0.0246082238319 -0.0206481455184 0.00131178206247)
(-0.0275937615364 -0.0205102989635 -0.00140713994095)
(-0.0265341740297 -0.0186767696228 0.000650652948069)
(-0.0284653220437 -0.0211889395415 -0.00012213752325)
(-0.0233454670312 -0.0198015078636 -0.00338898681748)
(-0.0246021363188 -0.0189999453186 -0.00213153302656)
(-0.0273861887991 -0.0239394558508 -0.00509308518855)
(-0.0198648080931 -0.0163212911297 -0.00463431736896)
(-0.0177845309174 -0.0150804576324 -0.0025897115917)
(-0.0216274757921 -0.0207823565805 -0.0067514545562)
(-0.0167292398257 -0.0118508379346 -0.00535104169053)
(-0.01375178549 -0.0100630036352 -0.0028204401441)
(-0.0180472977012 -0.0160128929123 -0.0085686673643)
(-0.0143299679029 -0.00761832068831 -0.00535823526119)
(-0.0116181813412 -0.00544434213962 -0.00247417312852)
(-0.0149997848456 -0.0110301321774 -0.00953949240611)
(-0.0127531533338 -0.00513464652494 -0.00496830206073)
(-0.0120945971717 -0.00204099995281 -0.00140996413052)
(-0.0128783411023 -0.00677878148953 -0.00976582085332)
(-0.0116479459087 -0.00797412215119 -0.00325648733778)
(-0.0162877464163 -0.0017254944928 6.09234220313e-05)
(-0.0106185914387 -0.00495900179313 -0.0091584121344)
(-0.0131107347291 -0.0130246867529 -0.00165093068908)
(-0.0186626793262 -0.00934849933194 -0.00104684303318)
(-0.0113959402162 -0.0123350737058 -0.00284323154119)
(-0.0124922693584 -0.0157144002184 -0.00118326745676)
(-0.0155391674152 -0.0135345899259 -0.000981367615581)
(-0.0128598403402 -0.0154163188536 -0.00233676751602)
(-0.0110963368387 -0.0175461819722 -0.000841731726327)
(-0.0129515270123 -0.0163784652915 -0.000776777243137)
(-0.0116743417312 -0.0173024214678 -0.00145312879527)
(-0.0087269012699 -0.0188537152477 -0.000753147589033)
(-0.010454443384 -0.0184962439997 -0.000911735428029)
(-0.0100061216483 -0.0187471451091 -0.00136332990706)
(-0.00598534578274 -0.0195901811649 -0.000678767093171)
(-0.00749110261733 -0.0197148166714 -0.00086495386733)
(-0.00744303842819 -0.0196353030959 -0.00131269042607)
(-0.00303676846678 -0.0197317458534 -0.000662179594105)
(-0.0045521832432 -0.0202540149014 -0.000801104439788)
(-0.004642054477 -0.02002862051 -0.00130602709203)
(-0.00153841312462 -0.0200869601984 -0.0007559869295)
(-0.00160127539558 -0.0198750820017 -0.00134966455751)
(-0.00467508291953 -0.0222467533568 0.00184343591142)
(-0.00239011816094 -0.0228288137139 0.00172125890375)
(-0.00250769634061 -0.0225861324962 0.00363722806055)
(-0.00940155038991 -0.0218387810261 0.00170209460436)
(-0.0071412390447 -0.0224685365812 0.00175091572483)
(-0.00730432767215 -0.0222903157709 0.00358803058113)
(-0.0138427614107 -0.0212333526801 0.00132976623142)
(-0.0115837887635 -0.0219095336551 0.00145385251792)
(-0.0118049919244 -0.0218713970323 0.00323721893944)
(-0.0178805310899 -0.0203643784231 0.00093303701953)
(-0.0156752505578 -0.0210801374174 0.00103866148644)
(-0.0160773412548 -0.021283257834 0.00276619149286)
(-0.0213398717421 -0.0192482720981 0.000690153434403)
(-0.0192489151633 -0.0199346114884 0.000704514055141)
(-0.0198202875055 -0.0205166884904 0.00218897031587)
(-0.024054749863 -0.0182254393633 0.000936327542606)
(-0.0230129641957 -0.0187224576926 0.000590696903567)
(-0.0237305231302 -0.0194902009823 0.00148968248394)
(-0.0262759718537 -0.0174674176791 -0.000140872675786)
(-0.0259311070854 -0.0178414824376 0.00123955271784)
(-0.0284771207737 -0.0185855004227 0.000709046956325)
(-0.0173674082544 -0.01504354089 -0.00164459740082)
(-0.0225777080281 -0.0166561688538 -0.00152315467933)
(-0.0245894983757 -0.0187124653454 -0.00747414047988)
(-0.0115913218923 -0.010314323746 -0.00133253478766)
(-0.0134558398708 -0.0138327332193 -0.00164149308072)
(-0.0136994370417 -0.0143452869773 -0.00482498742832)
(-0.00835539673509 -0.00540227241091 -0.000591108146977)
(-0.00896712130789 -0.0105383549638 -0.00128881118111)
(-0.00902014724568 -0.0090900718577 -0.00219063663763)
(-0.00947875306215 -0.0014816567333 0.000887464639096)
(-0.00772210181987 -0.00834543105455 -0.00048153223444)
(-0.00746514430112 -0.00426656284716 0.00223377893177)
(-0.0149635067103 -0.000103613872447 0.00308074078059)
(-0.0106559704502 -0.00674149381569 0.00143093093957)
(-0.00993992792884 -0.000727366855603 0.00624248184744)
(-0.0247472739666 -0.0049303719072 0.001640986325)
(-0.0210312363334 -0.00753524957449 0.00368269212883)
(-0.0199825277862 -0.000517549863358 0.00977367070218)
(-0.0207628773882 -0.0118303097493 -0.00105879225784)
(-0.0256174665414 -0.0127953697721 -0.00164116836606)
(-0.0246904692531 -0.0103774218181 -0.000286782214164)
(-0.0158174955432 -0.0155449441221 -0.000996210922414)
(-0.0185859186107 -0.0156293020083 -0.00137579447511)
(-0.0175564404095 -0.0148422971072 -0.00192546160283)
(-0.0125135803968 -0.017878893111 -0.000990000573887)
(-0.0145228048838 -0.0174758808289 -0.00110093114688)
(-0.0139248626698 -0.0174532592881 -0.00150686792411)
(-0.00934248404936 -0.019440557004 -0.00104028617586)
(-0.0112084154115 -0.0191425457738 -0.00123315757918)
(-0.0110487113469 -0.0192490480281 -0.00172425737243)
(-0.00613049573544 -0.0203037044737 -0.000982625226114)
(-0.00773590030956 -0.0203193658152 -0.0011911680754)
(-0.00783654275564 -0.0203111923018 -0.0017650082376)
(-0.00298172501178 -0.0204670855754 -0.000891276900154)
(-0.00454632070909 -0.0208025006498 -0.00106460589471)
(-0.00475311061404 -0.020764827762 -0.00174562601604)
(-0.00146928248494 -0.0205631576439 -0.000904299743196)
(-0.00159790297709 -0.0205848811516 -0.00167347542454)
(-0.0044560858595 -0.0227500148163 0.00163715194929)
(-0.0022406924254 -0.0231143518075 0.00148339381445)
(-0.002393616504 -0.0231308168521 0.00315379190177)
(-0.00903656754358 -0.0222517152866 0.00152599030535)
(-0.0067910321285 -0.0227078183665 0.00154896428125)
(-0.00700638921274 -0.0227689464984 0.00317561233961)
(-0.013321025142 -0.0214677644915 0.00121146137444)
(-0.011083409071 -0.0220575746575 0.0012985666056)
(-0.0113722781838 -0.0222192525278 0.00287451295952)
(-0.0172483046913 -0.0203444063665 0.00089299829167)
(-0.0150118130835 -0.0209986016559 0.000950393338647)
(-0.0155212667643 -0.0214037826487 0.0024538658909)
(-0.0206305064531 -0.0189795961965 0.000747868722471)
(-0.0184601887632 -0.0195666470518 0.000696784959742)
(-0.0191756885305 -0.0203340061365 0.00189885601244)
(-0.0235176558489 -0.0176157167062 0.00114303841089)
(-0.022069524341 -0.0178656168273 0.000751261292865)
(-0.0231663062595 -0.0190638089841 0.00124506400309)
(-0.0257756541848 -0.0160530978021 0.000293022972309)
(-0.0246334374801 -0.016051462524 0.00182034029925)
(-0.0281645293538 -0.0176796826463 0.000123420418593)
(-0.0163641876937 -0.0142258157516 -0.00109021084672)
(-0.0210781511802 -0.0138043305111 -0.000492641776495)
(-0.0238896511184 -0.0157117287099 -0.00823334942177)
(-0.0109018303064 -0.0124785377482 -0.00100185299874)
(-0.0122658258918 -0.0122186728978 -0.000473286440387)
(-0.0122743501531 -0.0138677192849 -0.00491484299543)
(-0.00783869034616 -0.011503521355 -0.000451532060091)
(-0.00865763112943 -0.010804880746 -0.000348535878834)
(-0.00791613321523 -0.012517844059 -0.00207024276685)
(-0.00934183018548 -0.011314892294 0.000908283260655)
(-0.0079956639307 -0.0104624199942 0.000620459383667)
(-0.00669332661869 -0.0120077410529 0.0021818084956)
(-0.0147144598888 -0.0116462240227 0.00291766992104)
(-0.0114526668919 -0.0107899491489 0.00232405147642)
(-0.00935450863659 -0.011769641284 0.00620632798755)
(-0.0251381756878 -0.0129370906462 0.00133503970699)
(-0.0224394006258 -0.0121106414992 0.00454852414738)
(-0.0203852442574 -0.0123761046022 0.0100487028367)
(-0.0218977934281 -0.0149802318094 -0.00142158790866)
(-0.0270576710434 -0.0142795308704 -0.00141946451689)
(-0.0264553484757 -0.0151219584788 -0.00132319943869)
(-0.0172613349778 -0.0170024111055 -0.00130042561803)
(-0.019748149211 -0.0167851130486 -0.00153277193459)
(-0.0189393021743 -0.0171126925186 -0.00240241705581)
(-0.013443370397 -0.0186359535349 -0.00131484743956)
(-0.0153942512086 -0.0183865643995 -0.0014256159914)
(-0.0150752506895 -0.0186147965086 -0.00198567057077)
(-0.00969457803141 -0.0199145389114 -0.00136742239638)
(-0.0116809061554 -0.0196476808617 -0.00157169853246)
(-0.0117258059094 -0.0198900484409 -0.00221517221111)
(-0.00617547186718 -0.0206706186302 -0.00126004997801)
(-0.00786573004013 -0.0205740226963 -0.00148809970564)
(-0.00811960743509 -0.0207476517379 -0.00221419757523)
(-0.00289784745635 -0.0207591010916 -0.00107343636959)
(-0.0044729499059 -0.0209312067299 -0.00130620246572)
(-0.00480552334445 -0.0210839008235 -0.00211483713842)
(-0.00137576251819 -0.0206044760311 -0.00101811495476)
(-0.00157162578892 -0.0208188641043 -0.00190808169471)
(-0.00417129461333 -0.0227948604719 0.00140297781525)
(-0.00207967245456 -0.0229230332229 0.00122495028271)
(-0.0022602217885 -0.0231986095047 0.00264748051954)
(-0.00855736288782 -0.0222252521626 0.00134595249885)
(-0.00639942891078 -0.0225035057688 0.0013521899187)
(-0.00667244890001 -0.0227765176633 0.00275538552405)
(-0.0126822702403 -0.0212945752341 0.0010862779198)
(-0.0105077780884 -0.0217851306308 0.00114097916)
(-0.0108550143841 -0.0221163617509 0.00249802153569)