/*--------------------------------*- C++ -*----------------------------------*\
| =========                 |                                                 |
| \\      /  F ield         | OpenFOAM: The Open Source CFD Toolbox           |
|  \\    /   O peration     | Version:  2.4.0                                 |
|   \\  /    A nd           | Web:      www.OpenFOAM.org                      |
|    \\/     M anipulation  |                                                 |
\*---------------------------------------------------------------------------*/
FoamFile
{
    version     2.0;
    format      ascii;
    class       surfaceScalarField;
    location    "1.7";
    object      phiAlpha;
}
// * * * * * * * * * * * * * * * * * * * * * * * * * * * * * * * * * * * * * //

dimensions      [0 3 -1 0 0 0 0];

internalField   nonuniform List<scalar> 
5952
(
2.84695e-22
-5.29085e-22
-8.10835e-19
1.72365e-19
-3.24062e-18
1.36739e-18
-9.49341e-10
9.77478e-11
-4.14648e-09
9.09277e-10
-5.61853e-09
3.60523e-09
-7.80508e-09
2.18655e-09
-4.58324e-08
2.89738e-09
-5.26459e-08
6.81358e-09
-5.44594e-08
1.81344e-09
-1.12358e-12
7.82364e-09
-1.1227e-12
-1.1182e-16
-4.23088e-19
1.22013e-20
-4.92012e-18
1.47255e-18
-9.96523e-12
9.96522e-12
-3.99618e-09
1.43112e-09
-3.64087e-09
1.15616e-09
7.06223e-10
-1.48851e-10
-3.94731e-08
5.22318e-09
-4.14933e-08
1.18456e-08
-1.31761e-08
6.33882e-09
-1.13667e-08
-6.78899e-18
-2.51125e-09
-1.44278e-11
2.02886e-10
-1.87446e-13
1.3861e-15
4.65867e-15
-2.80297e-13
2.8168e-13
-1.20586e-09
5.31067e-10
-1.62337e-09
5.12632e-10
-5.62217e-10
-4.25539e-13
-6.0999e-09
9.16444e-10
-2.4176e-08
4.62031e-09
-6.33882e-09
1.66554e-09
-6.84906e-16
2.12126e-16
-8.66818e-16
2.5522e-16
-1.44288e-11
2.72954e-16
-1.60044e-12
-1.68747e-11
3.67835e-15
2.21939e-16
-1.60229e-10
4.75606e-11
-6.51674e-10
2.80415e-10
-1.12438e-10
-3.09604e-12
-7.15146e-10
9.45347e-11
-5.93905e-09
1.68007e-09
-1.66554e-09
2.13017e-10
-5.43519e-16
2.97356e-16
-7.269e-16
2.90207e-16
-9.16762e-16
3.42246e-16
-1.9701e-13
3.50051e-16
2.87496e-14
-1.72965e-12
1.8335e-15
-2.43802e-15
-9.86605e-11
3.99251e-11
-1.70119e-11
1.78928e-12
-4.73898e-11
-2.42759e-13
-7.15709e-10
1.81609e-10
-2.1306e-10
1.63268e-11
-4.56555e-16
-4.20367e-14
-5.47391e-16
3.58071e-16
-7.78623e-16
3.67248e-16
-1.63809e-14
1.47526e-15
1.14554e-15
2.20856e-14
6.99734e-14
1.23142e-15
-4.55693e-12
9.03182e-13
-1.88526e-12
-2.02607e-13
-1.20562e-12
-1.52335e-14
-4.12254e-11
7.85828e-12
-1.64188e-11
-1.0699e-11
-9.21208e-14
7.09256e-17
4.05338e-16
3.65109e-13
-4.56942e-16
2.04058e-15
-5.60027e-16
3.88114e-16
-5.69222e-16
7.89385e-16
-3.3468e-13
3.56004e-13
1.63794e-13
-2.58118e-12
-7.43819e-13
6.9942e-13
-1.31092e-13
1.44807e-11
-1.47632e-12
5.43461e-14
-9.66671e-13
2.52155e-16
-5.55576e-16
4.37096e-16
-5.51735e-16
2.93906e-16
-2.85319e-12
1.53258e-12
-1.42868e-11
4.90665e-11
7.19143e-13
1.6459e-11
-1.69256e-11
1.76453e-11
-7.74849e-11
2.03582e-11
4.88136e-11
-6.27799e-11
-2.72356e-12
7.1729e-13
-9.33044e-16
5.6027e-11
-7.70807e-17
5.33978e-14
-8.93914e-17
2.48343e-16
-9.79526e-17
2.6656e-16
-3.86836e-17
2.74941e-16
-1.50181e-11
2.24233e-12
-4.56928e-11
5.4503e-11
-4.55319e-11
7.34678e-11
-2.37924e-11
4.84538e-11
4.67028e-12
1.00468e-12
2.06629e-11
1.53079e-11
-3.85399e-12
1.28608e-13
-2.19285e-11
4.81999e-11
-5.59513e-17
1.42457e-10
-4.45627e-17
2.00629e-16
-3.28869e-17
8.23028e-16
-5.02249e-17
2.5174e-16
-2.00692e-12
1.26196e-12
-1.18909e-11
3.607e-11
-1.90472e-11
6.6498e-11
-1.37858e-12
1.68734e-11
-6.2542e-18
-3.91281e-13
2.06629e-11
2.88988e-17
9.14887e-14
3.63712e-14
3.09179e-11
4.08867e-12
-3.81449e-10
1.80481e-10
9.84554e-11
2.19827e-09
8.58095e-13
2.74985e-12
4.28798e-17
8.58343e-13
2.54907e-17
1.26194e-12
1.01363e-17
3.607e-11
1.23387e-17
6.6498e-11
1.68731e-11
1.8898e-16
7.01181e-09
3.79244e-11
2.05677e-09
3.6551e-08
-1.27782e-13
3.26225e-13
4.79428e-13
4.72934e-13
1.58671e-10
1.38246e-12
1.07884e-09
9.52419e-10
2.7242e-08
5.53851e-09
2.67462e-08
1.08051e-07
5.09839e-08
2.55365e-07
2.51943e-08
2.09968e-07
1.21987e-09
9.85177e-08
-5.12389e-12
1.22499e-09
9.52855e-10
-6.52619e-12
-1.04614e-16
1.25801e-08
-3.8531e-17
3.26264e-13
-1.37589e-17
4.72909e-13
1.27869e-17
1.38244e-12
2.30813e-13
9.52188e-10
6.57285e-09
-1.03456e-09
3.98225e-07
1.06745e-07
3.42448e-07
3.24065e-07
2.29886e-07
3.09608e-07
1.05234e-07
1.61623e-07
6.52668e-12
-9.01065e-10
6.30678e-16
-1.48242e-16
6.57395e-16
-1.36654e-16
-1.27342e-16
1.55057e-17
-1.41412e-16
1.40026e-17
-1.96362e-16
4.56806e-17
-2.22416e-16
4.52862e-18
-1.03381e-07
-2.36864e-10
-9.92082e-08
-5.91638e-09
-8.81985e-08
-1.10097e-08
-4.57608e-08
-3.82247e-08
-1.46073e-08
-4.14819e-08
-6.4219e-09
-2.24283e-08
-3.71825e-09
-4.39293e-09
-1.14312e-08
-1.6419e-13
-2.32414e-14
-7.86962e-14
4.14518e-13
3.82678e-14
1.07822e-13
3.82577e-14
-1.51824e-17
-2.87651e-08
-4.02005e-13
-7.33069e-08
-9.0675e-17
-6.48047e-08
-4.86037e-10
-4.60064e-08
-3.40374e-09
-4.79502e-08
-7.95948e-09
-3.70599e-08
-3.33186e-08
-6.20347e-09
-3.52494e-08
-1.76347e-08
-1.87053e-11
2.8143e-12
-2.21187e-11
2.82032e-12
-9.17505e-13
3.21175e-13
-5.16432e-16
-9.17053e-13
-4.64272e-16
-4.02052e-13
-3.92953e-16
-1.69931e-16
-2.96317e-16
-4.86037e-10
-2.43764e-16
-3.40374e-09
-4.40523e-09
-3.55424e-09
-1.06787e-08
-2.94669e-09
-1.94184e-08
-3.86014e-12
-7.14914e-12
-3.12904e-12
6.62065e-13
-9.01485e-12
6.15611e-12
-1.63695e-11
-3.07647e-13
-5.41259e-12
-1.08502e-11
6.76707e-13
-1.90093e-16
6.77233e-13
-6.92911e-16
-1.10539e-09
-1.34308e-11
-2.59803e-09
-7.22797e-10
-3.10154e-10
-3.00146e-09
-4.16288e-12
1.53898e-09
-9.43332e-13
-7.07969e-12
-8.09247e-12
-3.683e-11
1.71911e-12
-1.36406e-10
1.85868e-11
-1.34715e-10
-1.3226e-12
-1.98386e-15
-1.25715e-11
-5.88449e-15
-3.5346e-16
-5.49749e-16
-3.28104e-14
-1.3434e-11
-6.72551e-16
-2.99769e-10
-7.18666e-13
-1.83837e-09
-1.65531e-09
-1.51395e-11
-1.08817e-08
-1.76325e-12
-2.04559e-11
-9.85572e-12
-3.67174e-11
1.63785e-11
-8.74363e-11
2.80686e-11
-9.04029e-11
9.13592e-13
-7.59987e-14
8.48128e-13
-7.15424e-14
-4.32295e-16
-6.77179e-16
1.80308e-14
-5.16111e-16
1.36341e-15
-3.40731e-16
-7.18968e-13
-1.65531e-09
-8.83867e-16
2.76266e-08
-1.36552e-07
1.75751e-08
-4.78684e-08
-6.34126e-08
-3.37721e-11
6.71793e-11
-3.12503e-11
6.32067e-11
-1.18734e-12
7.21829e-12
-6.2296e-16
-3.39351e-13
-5.78359e-16
2.64453e-16
-3.25722e-11
3.25889e-11
-1.82341e-12
-3.69137e-10
1.22465e-13
-7.81491e-16
1.22552e-13
-1.08505e-15
8.31145e-08
-2.31967e-07
1.53281e-07
-2.76078e-07
-5.85887e-08
-8.5761e-11
1.36184e-10
-2.26567e-10
1.7764e-10
-6.64886e-11
6.83813e-11
-7.73301e-11
-1.55767e-10
-8.3241e-11
-5.56191e-10
-9.80257e-10
-1.85428e-09
-2.46619e-16
-2.18929e-09
-3.22174e-16
-7.80219e-16
-4.31577e-16
-1.09992e-15
-1.37963e-08
-1.52446e-07
1.5782e-07
-5.59374e-07
6.19075e-08
5.28018e-14
1.36131e-10
1.86709e-10
4.25349e-11
1.05858e-09
-2.61406e-09
8.51818e-10
-2.68476e-10
2.01177e-09
-3.38228e-10
1.35318e-09
-4.86887e-09
5.4551e-12
-3.53372e-12
-2.09966e-16
5.45445e-12
1.03896e-10
-1.03897e-10
-2.51706e-07
-4.99279e-08
-9.49339e-09
-6.24209e-07
5.24141e-08
3.39771e-08
2.51945e-10
4.31918e-08
-4.13089e-09
1.10591e-09
-5.18228e-09
8.6338e-10
-1.77733e-11
8.52403e-10
-3.27408e-10
1.01362e-08
1.73092e-09
5.05907e-09
5.88588e-09
1.05116e-08
-9.35921e-08
-8.03056e-09
-3.28754e-07
-2.39407e-09
-2.17296e-07
3.41878e-08
-2.00642e-07
1.04448e-07
3.32143e-08
-6.19249e-10
2.72675e-08
-1.21278e-09
4.64433e-09
-1.83507e-09
1.37682e-09
3.24109e-09
1.7205e-09
-6.6245e-10
5.70555e-08
-5.36127e-08
8.65135e-07
-1.5843e-07
1.57153e-06
-4.72986e-07
1.01577e-06
-6.88178e-07
2.77174e-07
-1.51747e-06
1.18559e-08
-6.06395e-07
1.67412e-07
7.48494e-16
-6.19249e-10
1.07312e-09
-2.2859e-09
6.59673e-08
-4.76584e-10
4.99153e-07
-2.63528e-08
8.33974e-07
-3.29897e-07
1.25295e-06
-3.83561e-07
2.90884e-06
-8.19989e-07
3.75461e-06
-9.15521e-07
3.67774e-06
-6.1253e-07
2.87836e-06
-7.1812e-07
6.01466e-07
1.71715e-08
1.38013e-06
1.357e-22
-4.65374e-21
9.24664e-22
-4.16957e-20
7.10942e-23
2.68211e-23
-8.43377e-22
1.91518e-21
-1.06122e-20
5.75962e-19
-2.54622e-17
2.6031e-17
-3.94422e-16
1.85159e-17
-6.03442e-16
2.85423e-16
-8.54656e-16
3.26955e-16
-1.14383e-15
3.06484e-16
-2.84611e-15
1.7312e-15
6.22401e-14
-4.26418e-15
-6.14061e-20
-8.72339e-21
-9.39337e-19
1.07144e-19
-2.30478e-18
1.46418e-18
-7.23819e-18
2.54031e-18
-1.26761e-13
1.72353e-14
-3.94334e-13
3.83507e-13
2.4511e-13
2.14315e-13
2.03974e-13
4.15045e-14
-3.41843e-11
1.02621e-11
-7.63438e-11
3.10689e-11
-8.388e-11
2.24509e-11
3.96104e-12
-3.02771e-12
-4.37437e-19
2.67979e-20
-4.67238e-18
1.86182e-18
-1.05026e-17
8.68168e-18
-2.79026e-17
1.27454e-17
-3.90772e-13
1.99197e-13
3.02165e-13
1.23186e-13
1.52416e-12
2.02843e-13
-2.20477e-11
2.89385e-12
-9.78262e-11
5.40196e-11
-1.15416e-10
5.10948e-11
-3.96122e-12
1.17229e-11
5.45471e-17
-2.30364e-16
-1.76483e-17
2.33165e-18
-7.5784e-18
8.77283e-17
-2.36431e-17
2.55626e-17
-5.52054e-17
3.34476e-17
-4.32097e-13
2.53211e-13
4.86971e-13
2.86974e-13
3.40971e-12
1.38285e-13
-4.26539e-11
5.72811e-12
-1.04301e-10
3.92623e-11
-1.05443e-10
4.9568e-11
-1.8839e-16
1.06501e-11
7.31623e-17
-2.43412e-16
-1.50991e-16
1.31186e-17
-1.41526e-15
1.5142e-15
1.36674e-15
2.67405e-14
-1.81559e-15
6.76124e-17
-3.9783e-13
1.06499e-13
1.66247e-13
1.68929e-16
1.71458e-12
3.33824e-14
-2.98223e-11
1.03252e-12
-8.29582e-11
6.93171e-12
-1.06502e-11
1.06102e-11
-1.7878e-16
1.06528e-16
9.13493e-17
-2.4124e-16
-2.08217e-18
5.40467e-18
-1.38311e-14
4.47678e-15
-4.62826e-17
8.1976e-14
-7.30817e-17
8.30688e-17
-1.1411e-16
1.0637e-13
-1.3127e-16
1.26386e-16
-5.03244e-15
-6.72985e-16
-1.07296e-12
1.76789e-16
-2.48766e-12
1.76576e-16
-2.61451e-16
1.64947e-16
-1.59269e-16
1.22998e-16
1.14295e-16
-1.86889e-16
-2.91351e-18
2.75217e-18
4.4435e-15
1.96408e-17
-7.56595e-13
1.53795e-13
-3.52948e-13
5.93375e-12
-1.13617e-16
1.56384e-11
-1.7594e-16
1.32928e-16
-1.65355e-16
1.94743e-16
-1.48014e-16
1.91529e-16
-1.33313e-16
1.82267e-16
-1.18963e-16
1.71319e-16
-1.00416e-16
1.52446e-16
1.18409e-16
-1.05483e-16
-5.319e-18
4.72964e-18
-2.04878e-17
3.44785e-17
1.53701e-13
6.75413e-17
-1.09315e-11
1.0763e-11
-2.51859e-11
3.30658e-11
-1.41842e-16
2.02456e-11
-1.06784e-16
1.84506e-16
-1.29572e-16
1.89443e-16
-9.08295e-17
2.43512e-16
-4.6698e-17
2.03402e-16
-3.10105e-17
1.62651e-16
1.14125e-16
-2.51467e-17
-7.78938e-18
8.78069e-18
-2.14452e-17
4.61437e-17
-4.91833e-17
8.05836e-17
-1.88075e-11
3.45092e-12
-1.93818e-11
2.88278e-11
-1.67207e-11
2.23964e-11
-4.62267e-12
1.51552e-11
-3.01271e-17
6.23764e-12
2.28182e-17
2.19543e-16
6.22042e-17
1.94346e-16
1.75204e-16
4.0683e-16
2.96602e-16
1.56038e-16
-9.40127e-18
1.37943e-17
-1.3547e-17
4.98661e-17
-2.20018e-17
9.0572e-17
-3.93698e-13
3.57617e-18
-2.76317e-12
3.21548e-17
-1.6293e-12
2.59622e-13
3.36542e-12
2.08536e-12
3.00215e-12
4.93216e-12
1.37146e-13
1.55293e-12
2.28729e-16
1.37143e-13
2.78653e-16
3.86627e-16
1.16381e-15
6.26019e-16
-2.10751e-18
1.26079e-17
1.53584e-17
2.5731e-17
2.82173e-17
7.74721e-17
5.46588e-18
2.07864e-17
6.83482e-18
1.32666e-17
7.38067e-14
7.0132e-18
1.14157e-12
6.74437e-15
4.02872e-12
5.17505e-13
3.18598e-12
9.07021e-13
1.95182e-13
4.39823e-13
3.3442e-14
7.75745e-14
1.90815e-14
2.57349e-15
3.44594e-17
-6.08854e-17
3.4825e-17
6.99441e-17
1.11206e-20
1.12286e-16
1.01237e-20
2.07874e-17
9.98633e-21
1.32667e-17
2.07858e-17
4.71025e-16
2.14523e-16
9.6112e-15
-4.59595e-15
5.21917e-13
6.82444e-13
4.16121e-14
1.61984e-12
7.51293e-14
1.64483e-12
2.46671e-13
1.46984e-12
3.54191e-13
-1.54656e-11
9.06378e-13
-1.72399e-11
1.77395e-12
-8.59575e-14
5.35852e-13
-8.59715e-14
1.03811e-18
-7.79037e-13
-2.11763e-13
-4.30518e-12
1.26922e-12
-4.30537e-12
-4.65098e-16
-1.75698e-12
4.12233e-13
-1.05239e-13
-2.00911e-12
-1.12477e-15
-1.8654e-13
-1.21603e-17
-1.82831e-15
-7.18913e-16
-2.12148e-12
2.69788e-17
-1.01815e-12
2.76175e-17
8.49498e-14
-3.99149e-17
-6.28784e-13
-3.10155e-15
-4.64122e-11
-5.36979e-12
-1.09237e-11
-1.26948e-10
-1.02055e-11
-7.19178e-13
-1.21115e-11
9.37747e-11
-4.87151e-12
6.89161e-14
-3.05482e-12
-3.00772e-12
-1.92477e-13
-2.19852e-12
-5.30504e-13
-3.03992e-16
5.24346e-17
-3.70564e-16
4.32559e-17
-4.26057e-16
1.74184e-17
-3.49159e-15
-2.1986e-17
-1.63106e-12
-2.60455e-13
-1.36792e-09
-2.35562e-10
-8.06228e-10
-3.74837e-09
-3.51927e-11
-1.02218e-08
-1.00635e-11
-2.12572e-11
-1.10742e-11
2.11635e-12
-2.72111e-12
1.47529e-12
1.99455e-14
-2.86903e-16
7.06877e-17
-3.02066e-16
5.08981e-17
-3.82866e-16
9.89475e-17
-4.19778e-16
1.20938e-17
8.23334e-13
-1.0842e-12
4.09493e-10
-3.39738e-11
-1.48625e-08
-4.56176e-09
-6.85191e-09
-1.67452e-08
-5.36916e-10
-1.81567e-08
-2.28272e-12
-5.28391e-10
-1.51417e-12
4.71847e-12
2.18529e-12
-3.04187e-16
9.31952e-17
-3.6825e-16
7.18421e-17
-5.238e-13
2.3794e-14
-1.20091e-11
-7.45019e-12
1.73958e-12
-3.70433e-11
-6.99789e-11
-2.15503e-11
-2.13901e-09
-5.98266e-17
3.61229e-10
-1.18646e-16
2.16514e-08
-7.41406e-10
3.49444e-08
-4.26657e-08
-3.06377e-09
-5.78857e-08
-1.4335e-07
-2.30728e-16
1.04131e-16
-2.75108e-16
8.08777e-17
-2.4033e-11
2.76308e-13
-1.26395e-10
-2.73199e-11
-1.40826e-10
-9.00639e-11
-4.82509e-17
-8.34419e-11
-3.60758e-17
-7.20017e-17
-1.68858e-17
-1.37837e-16
1.54506e-09
-2.28646e-09
3.32973e-07
-2.62815e-07
3.21638e-07
1.39244e-08
6.55783e-09
-1.30788e-16
1.01679e-16
-1.67325e-16
8.36613e-17
-4.1828e-11
1.36349e-12
-1.1171e-10
-1.13512e-11
-9.82011e-11
-2.9156e-11
-9.58711e-17
-5.02726e-17
-7.06826e-17
-9.71905e-17
1.78863e-17
-2.24474e-16
-6.22203e-09
-2.12076e-09
6.78478e-08
-4.21599e-07
1.2996e-07
-4.55084e-08
1.36518e-07
-3.15169e-17
9.07441e-17
-8.33494e-17
8.25586e-17
-1.63583e-13
-4.99126e-17
-9.13026e-12
-2.30273e-17
-2.29948e-17
-6.80779e-17
-4.2057e-17
-4.88495e-17
-1.0681e-16
-1.30373e-16
-1.78855e-16
-2.14592e-16
-3.39423e-09
1.27347e-09
-4.21502e-07
-4.58443e-07
-1.00462e-07
-3.66548e-07
3.60551e-08
1.18132e-16
1.92419e-16
8.43275e-17
1.16859e-16
2.14784e-17
2.02358e-17
9.35532e-18
-9.23198e-19
3.22738e-18
-7.20193e-17
-9.5628e-18
-9.08007e-17
-5.46393e-17
-9.74365e-17
2.45749e-10
-2.4575e-10
5.1262e-08
-1.38514e-07
-5.79014e-07
-2.765e-07
-2.19926e-07
-7.19684e-07
-1.83871e-07
5.76196e-16
3.26914e-16
3.95094e-16
2.00853e-16
2.69592e-16
1.02368e-16
2.02305e-16
2.16215e-17
1.4096e-16
-7.3212e-17
8.05791e-17
-8.61418e-17
7.63155e-17
-1.06778e-16
8.51949e-08
-6.51005e-08
-6.2323e-08
-5.57443e-07
-3.50787e-08
-7.95491e-07
-5.49215e-08
-4.23009e-07
-2.37292e-07
6.03056e-16
2.28866e-15
6.13913e-16
1.81989e-16
6.90656e-16
1.52817e-16
6.34842e-16
7.58159e-17
4.07575e-16
-1.26306e-17
1.51149e-16
-6.74756e-17
4.19558e-08
-4.19558e-08
7.90745e-07
-3.00502e-07
7.93429e-07
-5.5261e-07
4.1025e-07
-7.12953e-07
-8.823e-09
-4.07251e-07
-2.42035e-07
5.14694e-13
1.28464e-13
6.3631e-16
3.60275e-14
6.29223e-16
1.5173e-16
5.69613e-16
5.65776e-17
4.45482e-16
3.59987e-17
4.6108e-16
-5.25916e-17
5.33128e-07
-7.08001e-08
1.39782e-06
-6.39981e-07
1.47065e-06
-6.38142e-07
1.19821e-06
-7.3056e-07
6.24743e-07
-3.06865e-08
4.20742e-07
8.01997e-30
-9.27304e-26
-2.08223e-24
6.35452e-26
-6.79398e-23
3.61826e-24
-7.57174e-22
5.649e-23
-4.3121e-21
4.00254e-22
-1.53137e-20
1.63997e-21
-3.87425e-20
4.51045e-21
-7.73562e-20
9.25995e-21
-1.32112e-19
1.5396e-20
-2.05401e-19
2.20292e-20
-3.06386e-19
2.8278e-20
3.34666e-20
-4.60908e-19
-1.49682e-22
6.89968e-24
-3.07018e-21
4.12605e-22
-2.01432e-20
4.06403e-21
-6.98001e-20
1.65567e-20
-1.66284e-19
4.02766e-20
-3.21604e-19
7.26013e-20
-5.65173e-19
1.11904e-19
-9.70198e-19
1.62277e-19
-1.68269e-18
2.34101e-19
-2.95379e-18
3.41221e-19
-5.17438e-18
4.92649e-19
6.73994e-19
-8.90116e-18
-9.0756e-22
1.04215e-22
-1.41362e-20
3.98292e-21
-7.02193e-20
2.55332e-20
-2.02444e-19
7.61358e-20
-4.44912e-19
1.52497e-19
-8.76403e-19
2.52593e-19
-1.68615e-18
3.95962e-19
-3.2401e-18
6.28591e-19
-6.15014e-18
1.01568e-18
-1.1345e-17
1.62048e-18
-2.01073e-17
2.45308e-18
3.3681e-18
-3.39912e-17
-2.52362e-21
5.30406e-22
-3.04896e-20
1.36599e-20
-1.29343e-19
6.88105e-20
-3.39868e-19
1.74673e-19
-7.21292e-19
3.17352e-19
-1.43242e-18
5.0546e-19
-2.82196e-18
7.97774e-19
-5.51379e-18
1.30034e-18
-1.05009e-17
2.14942e-18
-1.92357e-17
3.46778e-18
-3.36267e-17
5.2486e-18
7.12892e-18
-5.57787e-17
-4.64933e-21
1.54944e-21
-4.74665e-20
3.03073e-20
-1.78715e-19
1.28522e-19
-4.28503e-19
2.87747e-19
-8.43474e-19
4.73914e-19
-1.56774e-18
6.95722e-19
-2.91259e-18
1.02703e-18
-5.414e-18
1.59141e-18
-9.9011e-18
2.54136e-18
-1.75711e-17
4.01514e-18
-2.99859e-17
6.00036e-18
8.07334e-18
-4.88622e-17
-7.11074e-21
3.44969e-21
-6.24722e-20
5.32082e-20
-2.10442e-19
1.9508e-19
-4.54165e-19
3.88579e-19
-7.9348e-19
5.71317e-19
-1.28184e-18
7.36718e-19
-2.05742e-18
9.4424e-19
-3.35129e-18
1.28643e-18
-5.49116e-18
1.8594e-18
-8.92753e-18
2.74069e-18
-1.42934e-17
3.90086e-18
5.07272e-18
-2.26391e-17
-9.76548e-21
6.49695e-21
-7.37293e-20
8.01689e-20
-2.22943e-19
2.57306e-19
-4.32516e-19
4.58221e-19
-6.62122e-19
5.98698e-19
-8.94512e-19
6.62811e-19
-1.15118e-18
7.05249e-19
-1.48196e-18
7.99035e-19
-1.93604e-18
9.79508e-19
-2.77689e-18
1.25486e-18
-6.82691e-18
1.70925e-18
3.61215e-18
-3.14863e-17
-1.22809e-20
1.07556e-20
-7.81362e-20
1.06359e-19
-2.11492e-19
3.00502e-19
-3.7025e-19
4.79303e-19
-5.00938e-19
5.55593e-19
-5.66132e-19
5.21195e-19
-5.60743e-19
4.46836e-19
-5.16994e-19
4.23392e-19
-4.07881e-19
4.50271e-19
-3.38564e-19
9.74713e-19
-3.21832e-19
1.59122e-18
4.45369e-18
-1.20979e-18
-1.50112e-20
2.62973e-20
-7.18372e-20
1.34341e-19
-1.67767e-19
3.14978e-19
-2.67409e-19
4.41419e-19
-3.59397e-19
4.55813e-19
-5.07349e-19
3.92222e-19
-8.07705e-19
3.50495e-19
-5.2371e-20
6.95355e-19
1.04883e-19
2.32566e-19
2.25749e-14
4.17424e-15
8.52901e-14
4.13624e-14
7.82939e-14
4.75062e-14
-1.95227e-20
6.73516e-20
-5.47247e-20
1.88785e-19
-9.42852e-20
3.44322e-19
-1.09118e-19
3.98564e-19
-1.03175e-19
3.02833e-19
-8.70439e-20
1.75748e-19
1.87607e-19
-1.41565e-19
1.13955e-18
-2.64833e-18
1.32898e-18
-5.96026e-20
1.58395e-14
6.16039e-16
3.94033e-14
5.5876e-16
1.38062e-17
4.04375e-14
-6.93247e-21
9.3328e-20
1.49e-20
1.73088e-19
4.78224e-20
2.4673e-19
6.66342e-20
2.15557e-19
8.26287e-20
3.61416e-19
1.09552e-19
7.42463e-20
3.01393e-17
-4.80421e-17
3.81177e-17
-4.19092e-17
3.74206e-17
-9.20701e-18
8.24868e-17
5.63252e-16
6.42536e-17
2.8069e-18
5.54634e-18
5.94329e-17
2.10649e-20
7.2263e-20
4.1544e-20
1.52609e-19
8.63394e-20
4.28111e-20
1.0109e-19
3.74883e-20
1.04262e-07
8.2739e-08
5.90014e-07
1.32026e-07
6.89936e-07
-4.99447e-07
2.88718e-07
-5.2617e-07
1.39272e-08
-2.13198e-07
3.48921e-10
-2.55344e-08
7.22936e-17
3.48921e-10
1.42755e-17
8.94429e-20
-7.29435e-19
3.6923e-20
-1.23645e-18
3.66135e-20
-2.21008e-18
2.05792e-20
-3.67421e-18
-4.06286e-19
-5.11434e-18
-1.90252e-18
-5.95621e-18
-4.14649e-18
-5.60419e-18
-6.80215e-18
-3.92447e-18
-8.91404e-18
-1.68626e-18
-9.04683e-18
-2.503e-19
-6.23467e-18
-1.47079e-21
-1.85175e-18
-1.71755e-20
-1.4845e-17
8.12216e-19
-2.37766e-17
7.19997e-19
-3.6167e-17
-1.28764e-19
-4.98969e-17
-5.09576e-18
-6.19181e-17
-1.45892e-17
-6.78602e-17
-2.86856e-17
-6.36175e-17
-4.57443e-17
-4.78083e-17
-6.12066e-17
-2.47837e-17
-6.70586e-17
-5.55661e-18
-5.43003e-17
-4.42547e-20
-2.32607e-17
-3.32349e-19
-5.44955e-17
3.89652e-18
-8.23928e-17
3.04298e-18
-1.16533e-16
-1.22186e-18
-1.52466e-16
-1.43285e-17
-1.8389e-16
-3.72045e-17
-2.01562e-16
-7.17337e-17
-1.95949e-16
-1.15042e-16
-1.60217e-16
-1.60902e-16
-9.74744e-17
-1.92462e-16
-3.11306e-17
-1.79012e-16
-3.68497e-19
-1.02624e-16
-3.23264e-18
-8.72862e-17
8.03942e-18
-1.28052e-16
5.86589e-18
-1.75634e-16
-2.30391e-18
-2.27991e-16
-1.93532e-17
-2.79016e-16
-5.15542e-17
-3.13722e-16
-1.09502e-16
-3.23518e-16
-1.59549e-16
-2.9226e-16
-2.52052e-16
-2.06053e-16
-3.32969e-16
-8.81823e-17
-3.48165e-16
-2.20512e-18
-2.53176e-16
-1.93452e-17
-7.55572e-17
9.00148e-18
-1.10367e-16
6.3373e-18
-1.5375e-16
-2.24573e-18
-2.11296e-16
-1.79135e-17
-2.89357e-16
-6.2362e-17
-2.99189e-16
-2.1968e-16
-3.52792e-16
-1.67922e-16
-3.56847e-16
-3.40276e-16
-2.87233e-16
-4.37627e-16
-1.58597e-16
-4.87311e-16
-9.78022e-18
-4.25746e-16
-7.45085e-17
-3.63328e-17
5.5993e-18
-6.08455e-17
3.97951e-18
-9.37098e-17
-1.47175e-17
-1.7101e-16
-5.69381e-17
-3.91112e-16
-7.56854e-17
-4.12217e-15
-1.15497e-16
-3.28036e-16
-9.58879e-14
-3.29691e-16
-4.54739e-16
-2.89995e-16
-5.4005e-16
-1.98355e-16
-5.85002e-16
-2.8989e-17
-5.55803e-16
-1.91437e-16
-1.16053e-16
1.20558e-17
-1.9712e-16
1.90422e-17
-1.71793e-16
-3.33073e-16
-1.20074e-16
-4.05748e-15
-1.17455e-16
-6.80834e-16
-6.80966e-16
-1.4375e-16
-6.17342e-13
-9.34732e-14
-9.4756e-15
-5.24049e-12
-2.26604e-16
-9.87386e-15
-1.79376e-16
-7.15546e-16
-5.48655e-17
-6.90424e-16
-3.36464e-16
-2.55971e-15
2.57318e-15
-6.18161e-16
3.99945e-15
6.66152e-16
-1.83734e-16
-3.36031e-14
-3.65428e-14
-3.50456e-17
-4.85099e-13
-9.04243e-16
7.40071e-16
1.34382e-13
6.04217e-13
-2.94248e-12
-1.12077e-12
-3.37874e-13
-1.18967e-10
-5.01562e-15
-3.81106e-11
-5.93022e-17
-5.69054e-15
-4.15374e-16
2.37615e-14
6.56914e-14
4.95179e-15
2.81261e-14
4.09514e-15
-2.46056e-17
1.81404e-13
2.34517e-14
7.80138e-13
3.28613e-13
2.12965e-12
-1.69219e-11
1.06532e-12
-2.32413e-11
3.82648e-13
-9.17939e-12
6.90766e-11
-1.3963e-10
1.61349e-11
-7.05609e-10
-1.18148e-12
-1.02656e-09
-1.18192e-12
3.86799e-15
1.4781e-15
1.05386e-16
3.02393e-14
1.49732e-16
6.95784e-16
1.61112e-16
2.26432e-14
-6.80361e-13
1.00987e-12
9.32134e-11
-8.83459e-13
9.30436e-11
-7.14286e-11
7.06446e-11
-2.40802e-11
3.27789e-10
-1.58613e-11
3.64378e-10
-7.73076e-10
1.2212e-10
-7.53424e-10
-4.51268e-11
1.53635e-15
7.7786e-19
3.40192e-07
6.99153e-08
6.21952e-07
7.63152e-08
5.29835e-07
-3.60783e-07
4.45106e-08
-5.26397e-07
3.22623e-11
1.91749e-08
1.72883e-10
1.52036e-11
1.53114e-10
-3.00174e-11
1.29191e-10
-5.8396e-12
7.42434e-10
-6.63395e-12
3.12267e-10
-3.55899e-10
-9.22852e-11
1.51466e-17
3.29548e-19
1.79237e-06
9.89286e-08
2.9505e-06
2.77377e-07
2.78677e-06
-1.9704e-07
1.87003e-06
-6.61149e-07
2.71827e-09
-5.91265e-07
1.44544e-11
-2.95788e-09
3.71615e-11
5.82483e-13
2.04561e-11
-6.50643e-13
1.39906e-11
-2.34418e-14
7.03572e-10
4.42665e-11
6.11286e-10
-1.6738e-07
1.6738e-07
-4.66098e-07
2.98718e-07
-7.72659e-07
3.06562e-07
-7.14199e-07
7.9784e-08
-4.4182e-07
-8.47817e-14
-2.49813e-07
-2.97317e-12
-1.19811e-07
-1.05855e-12
-2.04082e-10
-2.97441e-17
2.08753e-07
-1.08311e-08
4.32037e-07
-5.4964e-08
6.33165e-07
-9.02462e-08
-3.26446e-08
6.75335e-07
-1.07466e-07
2.74844e-07
-3.08865e-07
5.00117e-07
-2.80705e-07
3.70125e-07
-2.26566e-13
3.49723e-08
-3.77314e-17
-3.1131e-13
-3.38878e-17
-2.97318e-12
-2.78594e-17
-1.05855e-12
-3.15392e-17
-2.60787e-17
-1.08311e-08
-3.46429e-16
-4.75454e-09
-2.75435e-14
1.71148e-08
-6.35879e-09
-2.46088e-08
1.1334e-07
-1.29508e-07
4.04352e-07
-3.68352e-07
7.4126e-07
-3.4975e-08
2.28651e-07
-2.65605e-12
2.57643e-17
-9.5189e-12
-7.51574e-13
-5.96894e-12
-1.19161e-11
-5.72997e-16
-4.36689e-12
-5.73597e-16
-2.54948e-17
-9.17608e-17
-2.59825e-16
-9.40907e-17
-2.77936e-14
-6.35879e-09
-7.18626e-15
-7.60208e-17
-3.00784e-08
-1.07475e-07
5.11827e-07
-2.11375e-07
8.94618e-07
-4.68101e-11
2.27615e-07
-4.68101e-11
2.84628e-17
-3.74529e-11
1.75999e-12
-9.51893e-12
-9.52873e-13
-2.09332e-14
-2.31204e-17
-2.09232e-14
-3.60316e-17
-4.38557e-14
-2.40872e-14
-3.94022e-14
-6.09988e-14
-1.66055e-16
-2.1957e-14
-6.7865e-17
-1.77868e-16
-3.36765e-08
5.45503e-07
-9.0809e-08
1.00448e-06
-2.69432e-12
3.67646e-07
-2.69432e-12
3.6011e-17
-2.5974e-12
7.15059e-13
-4.36331e-17
-1.70964e-17
-6.47079e-17
-1.17089e-17
-1.17987e-16
-2.16929e-17
-1.29811e-13
-1.49728e-14
-1.52243e-13
-5.4604e-14
-1.34188e-14
-4.04401e-14
-1.33003e-14
-1.86974e-16
2.90708e-08
5.16431e-07
2.68738e-08
1.00707e-06
3.28531e-10
6.97381e-07
-2.47702e-18
3.28531e-10
-6.88851e-18
7.15072e-13
-1.89668e-17
6.21744e-18
-4.09857e-17
3.94645e-18
-7.11966e-17
-9.3852e-19
-1.13262e-13
-5.62894e-16
-1.41752e-13
-9.28565e-15
-1.71102e-13
-4.62841e-14
-8.47494e-15
-2.42223e-16
8.80792e-08
4.28353e-07
2.21306e-07
8.73845e-07
2.08271e-07
8.32631e-07
1.4152e-08
3.57216e-07
3.71478e-09
6.54494e-08
6.59067e-18
3.71478e-09
-7.49194e-18
1.81151e-17
-3.56201e-17
2.71036e-17
-7.31312e-16
1.12063e-17
-5.95687e-14
2.91702e-16
-8.14001e-14
-1.59631e-18
-2.7129e-17
-2.40452e-16
8.42636e-08
3.44089e-07
2.45797e-07
7.12282e-07
3.53981e-07
7.24416e-07
2.85595e-07
4.86185e-07
1.35222e-07
3.12281e-07
5.43569e-08
2.05084e-07
1.15791e-08
1.49192e-07
1.06153e-10
8.91925e-08
-1.37706e-17
1.06153e-10
-2.84604e-17
3.06009e-16
-4.89401e-17
1.84836e-17
8.7189e-18
-9.44673e-17
5.04411e-08
2.93648e-07
1.98459e-07
5.64228e-07
3.37652e-07
5.85186e-07
4.06796e-07
4.17042e-07
4.55171e-07
2.63906e-07
4.92878e-07
1.81207e-07
4.14823e-07
2.74545e-07
2.23297e-07
4.99488e-07
1.17046e-07
1.64497e-07
3.27174e-08
1.00543e-07
1.33445e-17
3.27174e-08
2.29414e-17
-2.97526e-18
2.43359e-08
2.69312e-07
1.76119e-07
4.12455e-07
3.52897e-07
4.08416e-07
4.86472e-07
2.83465e-07
5.76784e-07
1.73593e-07
6.35017e-07
1.22974e-07
7.18982e-07
1.9058e-07
9.50458e-07
2.68011e-07
1.0059e-06
1.09059e-07
7.71786e-07
2.94496e-07
2.42621e-07
6.62425e-07
1.34882e-07
2.50417e-08
5.73551e-08
2.11957e-07
2.71462e-07
1.98349e-07
5.03861e-07
1.76017e-07
6.93116e-07
9.42101e-08
8.31505e-07
3.52046e-08
9.33446e-07
2.10324e-08
1.0457e-06
7.83223e-08
1.22086e-06
9.28594e-08
1.28066e-06
4.92504e-08
1.23392e-06
3.41239e-07
1.44367e-06
4.52678e-07
4.18778e-07
1.03638e-06
1.95591e-07
-6.6989e-10
3.87832e-07
-6.69445e-15
5.7784e-07
-1.86652e-11
7.095e-07
-3.48315e-11
8.18617e-07
-1.79326e-11
9.47615e-07
-1.90781e-17
1.12699e-06
-8.10398e-11
1.35204e-06
-9.27834e-11
1.59246e-06
4.15132e-09
1.63765e-06
2.96051e-07
1.84425e-06
2.46083e-07
1.90381e-06
3.59215e-07
6.20369e-07
5.49654e-08
5.2031e-07
1.0006e-07
4.24091e-07
9.62187e-08
3.42735e-07
8.13552e-08
2.7964e-07
6.29479e-08
2.29973e-07
4.96672e-08
1.84088e-07
4.58851e-08
1.37405e-07
4.67551e-08
8.92557e-08
4.8149e-08
4.60396e-08
4.32161e-08
1.38883e-08
3.21513e-08
1.38883e-08
2.31745e-07
-3.87867e-08
2.91347e-07
4.04572e-08
2.90688e-07
9.68784e-08
2.73169e-07
9.8872e-08
2.58189e-07
7.79304e-08
2.4523e-07
6.26266e-08
2.18975e-07
7.20789e-08
1.76622e-07
8.91055e-08
1.18526e-07
1.06241e-07
6.36376e-08
9.81048e-08
2.15194e-08
7.42695e-08
3.54077e-08
-8.97521e-08
-1.83312e-08
-9.22089e-08
-2.07366e-08
-3.83976e-08
2.78116e-08
1.58928e-08
4.45816e-08
7.81317e-08
1.56915e-08
1.43213e-07
-2.45444e-09
1.69863e-07
4.54283e-08
1.61978e-07
9.57002e-08
1.2924e-07
1.37383e-07
7.38854e-08
1.53658e-07
2.67979e-08
1.21357e-07
6.22056e-08
-1.83312e-08
-5.36379e-17
-2.43946e-07
-9.55966e-09
-3.96902e-07
-5.37303e-08
-3.04915e-07
-4.74053e-08
-1.60365e-07
-1.28858e-07
5.22084e-10
-1.63341e-07
8.94748e-08
-4.35244e-08
1.30589e-07
5.42737e-08
1.38943e-07
1.29436e-07
1.07307e-07
1.85534e-07
4.54614e-08
1.52405e-07
8.61904e-08
-2.21423e-16
-5.24823e-17
-9.55966e-09
-6.7846e-17
-3.67101e-07
-1.31297e-08
-6.13562e-07
-8.85303e-08
-4.26517e-07
-3.15903e-07
-1.41919e-07
-4.47939e-07
-8.67393e-09
-1.7677e-07
6.31396e-08
-1.75398e-08
9.65367e-08
9.60387e-08
6.24819e-08
2.08594e-07
7.51645e-09
1.77217e-07
9.37069e-08
-2.68267e-16
-3.34165e-17
-3.41975e-16
-5.34802e-17
-1.31297e-08
-8.37537e-17
-4.42225e-07
-6.5234e-08
-4.76293e-07
-3.74403e-07
-3.14206e-07
-5.25283e-07
-1.63182e-07
-2.43238e-07
-2.75713e-08
-1.42475e-07
8.06183e-08
-1.21509e-08
8.20066e-08
2.02232e-07
1.08461e-09
2.58139e-07
9.47915e-08
-2.69479e-16
-4.90813e-18
-3.64574e-16
-7.22514e-18
7.42496e-09
-7.42496e-09
-1.95493e-07
-1.7609e-07
-2.97105e-07
-4.51573e-07
-2.40785e-07
-4.52835e-07
-1.41816e-07
-2.37479e-07
-1.59562e-07
-1.87028e-07
-2.5521e-08
-1.25556e-07
-1.0916e-07
2.94324e-07
-7.08351e-08
2.69022e-07
3.91749e-08
-1.26491e-16
9.06998e-18
-1.16639e-12
1.16623e-12
-9.0421e-08
-7.41945e-09
-7.67092e-08
-2.13824e-07
-3.13894e-07
-3.73846e-07
-1.825e-07
-3.06769e-07
-5.43157e-08
-2.99478e-07
-1.99567e-08
-2.11364e-07
-1.35962e-07
-5.72086e-08
-1.65089e-08
1.76362e-07
1.77557e-08
2.54271e-07
6.15485e-08
-2.03461e-17
2.53657e-17
9.55473e-10
1.80758e-10
-1.12248e-08
-5.78456e-09
-6.53421e-08
-5.62783e-11
-7.70024e-08
-4.85924e-17
-9.1959e-08
-1.56878e-08
-5.39959e-08
-1.94006e-07
-1.7325e-09
-2.13759e-07
7.96574e-09
-5.64995e-08
1.91679e-07
5.98124e-09
1.05212e-07
3.40739e-07
1.6676e-07
-6.9505e-10
2.57368e-08
7.07551e-09
8.26411e-09
-1.60946e-12
1.86721e-09
-1.12766e-17
-5.78877e-11
-1.9162e-17
-2.71715e-17
-1.56878e-08
-5.86717e-17
-2.94581e-08
-7.64813e-12
-4.25616e-09
-6.76036e-13
1.36675e-08
-6.10318e-08
1.50442e-07
-4.74639e-08
1.05082e-07
3.92733e-07
2.71167e-07
9.22429e-08
3.53077e-07
3.77067e-10
1.00015e-07
6.21807e-10
2.039e-09
3.44166e-17
6.73137e-12
1.13183e-17
-2.81821e-17
8.28132e-18
-3.34542e-17
5.72019e-18
-7.64811e-12
4.16038e-14
-7.17603e-13
4.00822e-08
-1.21919e-08
1.75978e-07
-9.67436e-11
2.39532e-07
3.87247e-07
5.0999e-07
1.71943e-06
5.15228e-07
2.50666e-07
8.09187e-07
2.02866e-10
1.51007e-07
1.05527e-16
2.09597e-10
9.78875e-17
-1.87802e-17
-1.16997e-13
1.17088e-13
1.07713e-11
-9.07297e-11
-5.04799e-12
-2.36807e-13
1.34881e-09
-2.67355e-16
1.25206e-09
-4.098e-17
5.35091e-07
1.72601e-07
1.04431e-06
3.68646e-07
6.76224e-07
-8.5444e-07
1.40133e-07
8.68583e-08
2.14346e-08
7.28416e-09
1.93156e-08
-7.80821e-08
2.80865e-08
-7.79016e-08
1.79433e-07
2.04576e-08
3.07352e-07
1.96315e-07
2.75208e-07
1.88088e-07
1.12246e-07
5.87478e-08
9.76156e-16
1.02356e-09
1.03559e-15
-2.23969e-16
-1.81542e-16
1.08608e-15
1.03234e-06
1.79527e-07
-4.36101e-07
1.00229e-06
1.10343e-07
1.03392e-06
-1.77782e-08
9.618e-07
-1.62146e-08
2.01419e-07
-1.38612e-07
4.21762e-08
1.21406e-08
3.97703e-08
7.17769e-08
6.61585e-08
4.97836e-08
4.72806e-08
2.30945e-08
1.41886e-08
-7.78868e-08
1.5084e-15
6.07898e-09
-1.0034e-15
2.33137e-15
1.5672e-07
6.21916e-08
-2.78329e-09
2.09595e-07
-4.6561e-09
1.19017e-07
-2.87793e-10
6.38278e-08
-2.00195e-09
1.73207e-06
-1.23434e-09
2.88001e-06
-2.33898e-08
2.86316e-06
9.1568e-08
2.9507e-06
3.75566e-08
2.87622e-06
2.2258e-08
7.41207e-07
1.44741e-08
2.05615e-07
-2.34118e-09
-1.44684e-07
2.66427e-07
-9.13399e-10
-1.00953e-06
4.08915e-07
6.79702e-08
-2.10117e-08
2.47314e-08
1.52889e-10
3.26916e-08
-5.35683e-08
9.72113e-08
-1.73456e-07
3.27369e-07
-4.34631e-08
1.60157e-06
-1.02975e-07
9.90783e-07
1.3678e-08
9.2369e-07