/*--------------------------------*- C++ -*----------------------------------*\
| =========                 |                                                 |
| \\      /  F ield         | OpenFOAM: The Open Source CFD Toolbox           |
|  \\    /   O peration     | Version:  v1606+                                |
|   \\  /    A nd           | Web:      www.OpenFOAM.com                      |
|    \\/     M anipulation  |                                                 |
\*---------------------------------------------------------------------------*/
FoamFile
{
    version     2.0;
    format      ascii;
    class       pointVectorField;
    location    "5.1";
    object      pointDisplacement;
}
// * * * * * * * * * * * * * * * * * * * * * * * * * * * * * * * * * * * * * //

dimensions      [0 1 0 0 0 0 0];

internalField   nonuniform List<vector> 
13461
(
(0 0 0)
(0 0 0)
(0 0 0)
(0 0 0)
(0 0 0)
(0 0 0)
(0 0 0)
(0 0 0)
(0 0 0)
(0 0 0)
(0 0 0)
(0 0 0)
(0 0 0)
(0 0 0)
(0 0 0)
(0 0 0)
(0 0 0)
(0 0 0)
(0 0 0)
(0 0 0)
(0 0 0)
(0 0 0)
(0 0 0)
(0 0 0)
(0 0 0)
(0 0 0)
(0 0 0)
(0 0 0)
(0 0 0)
(0 0 0)
(0 0 0)
(0 0 0)
(0 0 0)
(0 0 0)
(0 0 0)
(0 0 0)
(0 0 0)
(0 0 0)
(0 0 0)
(0 0 0)
(0 0 0)
(0 0 0)
(0 0 0)
(0 0 0)
(0 0 0)
(0 0 0)
(0 0 0)
(0 0 0)
(0 0 0)
(0 0 0)
(0 0 0)
(0 0 0)
(0 0 0)
(0 0 0)
(0 0 0)
(0 0 0)
(0 0 0)
(0 0 0)
(0 0 0)
(0 0 0)
(0 0 0)
(0 0 0)
(0 0 0)
(0 0 0)
(0 0 0)
(0 0 0)
(0 0 0)
(0 0 0)
(0 0 0)
(0 0 0)
(0 0 0)
(0 0 0)
(0 0 0)
(0 0 0)
(0 0 0)
(0 0 0)
(0 0 0)
(0 0 0)
(0 0 0)
(0 0 0)
(0 0 0)
(0 0 0)
(0 0 0)
(0 0 0)
(0 0 0)
(0 0 0)
(0 0 0)
(0 0 0)
(0 0 0)
(0 0 0)
(0 0 0)
(0 0 0)
(0 0 0)
(0 0 0)
(0 0 0)
(0 0 0)
(0 0 0)
(0 0 0)
(0 0 0)
(0 0 0)
(0 0 0)
(0 0 0)
(0 0 0)
(0 0 0)
(0 0 0)
(0 0 0)
(0 0 0)
(0 0 0)
(0 0 0)
(0 0 0)
(0 0 0)
(0 0 0)
(0 0 0)
(0 0 0)
(0 0 0)
(0 0 0)
(0 0 0)
(0 0 0)
(0 0 0)
(0 0 0)
(0 0 0)
(0 0 0)
(0 0 0)
(0 0 0)
(0 0 0)
(0 0 0)
(0 0 0)
(0 0 0)
(0 0 0)
(0 0 0)
(0 0 0)
(0 0 0)
(0 0 0)
(0 0 0)
(0 0 0)
(0 0 0)
(0 0 0)
(0 0 0)
(0 0 0)
(0 0 0)
(0 0 0)
(0 0 0)
(0 0 0)
(0 0 0)
(0 0 0)
(0 0 0)
(0 0 0)
(0 0 0)
(0 0 0)
(0 0 0)
(0 0 0)
(0 0 0)
(0 0 0)
(0 0 0)
(0 0 0)
(0 0 0)
(0 0 0)
(0 0 0)
(0 0 0)
(0 0 0)
(0 0 0)
(0 0 0)
(0 0 0)
(0 0 0)
(0 0 0)
(0 0 0)
(0 0 0)
(0 0 0)
(0 0 0)
(0 0 0)
(0 0 0)
(0 0 0)
(0 0 0)
(0 0 0)
(0 0 0)
(0 0 0)
(0 0 0)
(0 0 0)
(0 0 0)
(0 0 0)
(0 0 0)
(0 0 0)
(0 0 0)
(0 0 0)
(0 0 0)
(0 0 0)
(0 0 0)
(0 0 0)
(0 0 0)
(0 0 0)
(0 0 0)
(0 0 0)
(0 0 0)
(0 0 0)
(0 0 0)
(0 0 0)
(0 0 0)
(0 0 0)
(0 0 0)
(0 0 0)
(0 0 0)
(0 0 0)
(0 0 0)
(0 0 0)
(0 0 0)
(0 0 0)
(0 0 0)
(0 0 0)
(0 0 0)
(0 0 0)
(0 0 0)
(0 0 0)
(0 0 0)
(0 0 0)
(0 0 0)
(0 0 0)
(0 0 0)
(0 0 0)
(0 0 0)
(0 0 0)
(0 0 0)
(0 0 0)
(0 0 0)
(0 0 0)
(0 0 0)
(0 0 0)
(0 0 0)
(0 0 0)
(0 0 0)
(0 0 0)
(0 0 0)
(0 0 0)
(0 0 0)
(0 0 0)
(0 0 0)
(0 0 0)
(0 0 0)
(0 0 0)
(0 0 0)
(0 0 0)
(0 0 0)
(0 0 0)
(0 0 0)
(0 0 0)
(0 0 0)
(0 0 0)
(0 0 0)
(0 0 0)
(0 0 0)
(0 0 0)
(0 0 0)
(0 0 0)
(0 0 0)
(0 0 0)
(0 0 0)
(0 0 0)
(0 0 0)
(0 0 0)
(0 0 0)
(0 0 0)
(0 0 0)
(0 0 0)
(0 0 0)
(0 0 0)
(0 0 0)
(0 0 0)
(0 0 0)
(0 0 0)
(0 0 0)
(0 0 0)
(0 0 0)
(0 0 0)
(0 0 0)
(0 0 0)
(0 0 0)
(0 0 0)
(0 0 0)
(0 0 0)
(0 0 0)
(0 0 0)
(0 0 0)
(0 0 0)
(0 0 0)
(0 0 0)
(0 0 0)
(0 0 0)
(0 0 0)
(0 0 0)
(0 0 0)
(0 0 0)
(0 0 0)
(0 0 0)
(0 0 0)
(0 0 0)
(0 0 0)
(0 0 0)
(0 0 0)
(0 0 0)
(0 0 0)
(0 0 0)
(0 0 0)
(0 0 0)
(0 0 0)
(0 0 0)
(0 0 0)
(0 0 0)
(0 0 0)
(0 0 0)
(0 0 0)
(0 0 0)
(0 0 0)
(0 0 0)
(0 0 0)
(0 0 0)
(0 0 0)
(0 0 0)
(0 0 0)
(0 0 0)
(0 0 0)
(0 0 0)
(0 0 0)
(0 0 0)
(0 0 0)
(0 0 0)
(0 0 0)
(0 0 0)
(0 0 0)
(0 0 0)
(0 0 0)
(0 0 0)
(0 0 0)
(0 0 0)
(0 0 0)
(0 0 0)
(0 0 0)
(0 0 0)
(0 0 0)
(0 0 0)
(0 0 0)
(0 0 0)
(0 0 0)
(0 0 0)
(0 0 0)
(0 0 0)
(0 0 0)
(0 0 0)
(0 0 0)
(0 0 0)
(0 0 0)
(0 0 0)
(0 0 0)
(0 0 0)
(0 0 0)
(0 0 0)
(0 0 0)
(0 0 0)
(0 0 0)
(0 0 0)
(0 0 0)
(0 0 0)
(0 0 0)
(0 0 0)
(0 0 0)
(0 0 0)
(0 0 0)
(0 0 0)
(0 0 0)
(0 0 0)
(0 0 0)
(0 0 0)
(0 0 0)
(0 0 0)
(0 0 0)
(0 0 0)
(0 0 0)
(0 0 0)
(0 0 0)
(0 0 0)
(0 0 0)
(0 0 0)
(0 0 0)
(0 0 0)
(0 0 0)
(0 0 0)
(0 0 0)
(0 0 0)
(0 0 0)
(0 0 0)
(0 0 0)
(0 0 0)
(0 0 0)
(0 0 0)
(0 0 0)
(0 0 0)
(0 0 0)
(0 0 0)
(0 0 0)
(0 0 0)
(0 0 0)
(0 0 0)
(0 0 0)
(0 0 0)
(0 0 0)
(0 0 0)
(0 0 0)
(0 0 0)
(0 0 0)
(0 0 0)
(0 0 0)
(0 0 0)
(0 0 0)
(0 0 0)
(0 0 0)
(0 0 0)
(0 0 0)
(0 0 0)
(0 0 0)
(0 0 0)
(0 0 0)
(0 0 0)
(0 0 0)
(0 0 0)
(0 0 0)
(0 0 0)
(0 0 0)
(0 0 0)
(0 0 0)
(0 0 0)
(0 0 0)
(0 0 0)
(0 0 0)
(0 0 0)
(0 0 0)
(0 0 0)
(0 0 0)
(0 0 0)
(0 0 0)
(0 0 0)
(0 0 0)
(0 0 0)
(0 0 0)
(0 0 0)
(0 0 0)
(0 0 0)
(0 0 0)
(0 0 0)
(0 0 0)
(0 0 0)
(0 0 0)
(0 0 0)
(0 0 0)
(0 0 0)
(0 0 0)
(0 0 0)
(0 0 0)
(0 0 0)
(0 0 0)
(0 0 0)
(0 0 0)
(0 0 0)
(0 0 0)
(0 0 0)
(0 0 0)
(0 0 0)
(0 0 0)
(0 0 0)
(3.16828831262e-06 -2.90748567858e-05 -1.61644670889e-05)
(3.5268838366e-05 -0.000322551294032 -0.000149556169652)
(7.29393799936e-05 -0.000664747600118 -0.000246860309453)
(8.88080731685e-05 -0.000808609828449 -0.000225686143144)
(8.87524684012e-05 -0.000808609828449 -0.000151117559739)
(8.86968636341e-05 -0.000808609828449 -7.65489763343e-05)
(8.86412588668e-05 -0.000808609828449 -1.98039292928e-06)
(8.85856540995e-05 -0.000808609828449 7.25881904757e-05)
(8.85300493322e-05 -0.000808609828449 0.000147156773881)
(8.84744445649e-05 -0.000808609828449 0.000221725357286)
(7.26387463609e-05 -0.000664747600118 0.000243554633087)
(3.51803611109e-05 -0.000322551294032 0.000147895082146)
(3.16742563111e-06 -2.90748567858e-05 1.60103338042e-05)
(0 0 0)
(0 0 0)
(0 0 0)
(0 0 0)
(0 0 0)
(0 0 0)
(0 0 0)
(2.59107469539e-05 -0.000237116594046 -0.000153681180142)
(0.000126300727326 -0.00114308638009 -0.000635180616655)
(0.000253538493553 -0.00226713403224 -0.00105004303809)
(0.000355068211788 -0.00315071642261 -0.00116799303916)
(0.000392701996792 -0.00348160558774 -0.00096928414423)
(0.000391671155694 -0.00348160558774 -0.000648218656788)
(0.000390640314595 -0.00348160558774 -0.000327153169347)
(0.000389609473497 -0.00348160558774 -6.08768190502e-06)
(0.000388578632398 -0.00348160558774 0.000314977805537)
(0.000387547791299 -0.00348160558774 0.000636043292978)
(0.000386516950201 -0.00348160558774 0.00095710878042)
(0.000348314516315 -0.00315071642261 0.00115642318122)
(0.000249167422806 -0.00226713403224 0.00104066297678)
(0.000124967287993 -0.00114308638009 0.0006297800236)
(2.58438069088e-05 -0.000237116594046 0.000152449606847)
(0 0 0)
(0 0 0)
(0 0 0)
(0 0 0)
(0 0 0)
(2.59155283857e-05 -0.000237116594046 -0.000175547664927)
(0.000171430842114 -0.00154210559397 -0.000998953631433)
(0.000395794520088 -0.00348160558774 -0.00193248060655)
(0.000627489648861 -0.00541601790108 -0.00250391127516)
(0.000796166099253 -0.00680193506982 -0.00251481722611)
(0.000854358972267 -0.00730074410517 -0.0020249928883)
(0.000849826222263 -0.00730074410517 -0.00135175113779)
(0.000845293472258 -0.00730074410517 -0.000678509387282)
(0.000840760722254 -0.00730074410517 -5.26763677369e-06)
(0.000836227972249 -0.00730074410517 0.000667974113735)
(0.000831695222245 -0.00730074410517 0.00134121586424)
(0.00082716247224 -0.00730074410517 0.00201445761475)
(0.000764689824256 -0.00680193506982 0.00250315340369)
(0.000602544238823 -0.00541601790108 0.00249056444944)
(0.000383424426905 -0.00348160558774 0.00192030524274)
(0.000168599515025 -0.00154210559397 0.000991988333461)
(2.5839025477e-05 -0.000237116594046 0.000174316091631)
(0 0 0)
(0 0 0)
(0 0 0)
(3.16850398301e-06 -2.90748567858e-05 -2.42081673122e-05)
(0.000126522967215 -0.00114308638009 -0.000846007390031)
(0.000396825361187 -0.00348160558774 -0.002253546094)
(0.000743091762353 -0.00632137434874 -0.00350384277116)
(0.00107099886759 -0.00890207203097 -0.00410699340989)
(0.00129456320813 -0.0106438791019 -0.00392383304428)
(0.00136557612466 -0.0112495839401 -0.00310783862217)
(0.00135481416358 -0.0112495839401 -0.00207049572417)
(0.0013440522025 -0.0112495839401 -0.00103315282616)
(0.00133329024142 -0.0112495839401 4.19007184718e-06)
(0.00132252828034 -0.0112495839401 0.00104153296985)
(0.00131176631926 -0.0112495839401 0.00207887586786)
(0.00130100435819 -0.0112495839401 0.00311621876587)
(0.0012174888385 -0.0106438791019 0.00392814474757)
(0.00100360714959 -0.00890207203097 0.00410197585329)
(0.000702313058077 -0.00632137434874 0.00349135431178)
(0.000382393585806 -0.00348160558774 0.00224137073019)
(0.000124745048104 -0.00114308638009 0.000840606796976)
(3.16720996074e-06 -2.90748567858e-05 2.40540340275e-05)
(0 0 0)
(0 0 0)
(3.5304229268e-05 -0.000322551294032 -0.000268536670372)
(0.000254849814777 -0.00226713403224 -0.00167725484255)
(0.000632478730868 -0.00541601790108 -0.00350280642008)
(0.00107773803939 -0.00890207203097 -0.0049278903362)
(0.00147219937527 -0.0118643696182 -0.0054636478996)
(0.00172002576148 -0.0137281334906 -0.0050486303873)
(0.00178929062973 -0.0143376327423 -0.00394818167651)
(0.00177180973443 -0.0143376327423 -0.00262614387501)
(0.00175432883912 -0.0143376327423 -0.00130410607351)
(0.00173684794382 -0.0143376327423 1.79317279983e-05)
(0.00171936704852 -0.0143376327423 0.0013399695295)
(0.00170188615321 -0.0143376327423 0.00266200733101)
(0.00168440525791 -0.0143376327423 0.00398404513251)
(0.00159181518638 -0.0137281334906 0.00507816684234)
(0.00135249608648 -0.0118643696182 0.00547659706614)
(0.000996867977784 -0.00890207203097 0.00492287277961)
(0.000597555156816 -0.00541601790108 0.00348945959436)
(0.000247856101582 -0.00226713403224 0.00166787478124)
(3.51449702087e-05 -0.000322551294032 0.000266875582865)
(0 0 0)
(0 0 0)
(7.31272760141e-05 -0.000664747600118 -0.00055336964854)
(0.000358445059524 -0.00315071642261 -0.00233020114935)
(0.000807969702377 -0.00680193506982 -0.00439655621228)
(0.00131383180053 -0.0106438791019 -0.00588682749224)
(0.00173605208337 -0.0137281334906 -0.00631448004101)
(0.00197144670403 -0.0154780913961 -0.00568422065545)
(0.00202118322142 -0.0159661573986 -0.00438898566011)
(0.00199950600541 -0.0159661573986 -0.00291682680356)
(0.0019778287894 -0.0159661573986 -0.001444667947)
(0.0019561515734 -0.0159661573986 2.74909095548e-05)
(0.00193447435739 -0.0159661573986 0.00149964976611)
(0.00191279714138 -0.0159661573986 0.00297180862267)
(0.00189111992538 -0.0159661573986 0.00444396747922)
(0.00180846855449 -0.0154780913961 0.00573313270475)
(0.00157578886449 -0.0137281334906 0.00634401649604)
(0.00119822024609 -0.0106438791019 0.00589113919553)
(0.000752886221133 -0.00680193506982 0.00438489238986)
(0.000344937668579 -0.00315071642261 0.0023186312914)
(7.24508503402e-05 -0.000664747600118 0.000550063972174)
(0 0 0)
(0 0 0)
(8.91417017718e-05 -0.000808609828449 -0.000673097643575)
(0.000397856202286 -0.00348160558774 -0.00257461158144)
(0.000872489972285 -0.00730074410517 -0.00471795989033)
(0.00139786200789 -0.0112495839401 -0.0062198673162)
(0.00182425242033 -0.0143376327423 -0.00659225727952)
(0.00204286043742 -0.0159661573986 -0.00586114451667)
(0.00207487710642 -0.0163375127848 -0.00448927004274)
(0.00205217986398 -0.0163375127848 -0.00298288062464)
(0.00202948262154 -0.0163375127848 -0.00147649120654)
(0.0020067853791 -0.0163375127848 2.9898211562e-05)
(0.00198408813667 -0.0163375127848 0.00153628762966)
(0.00196139089423 -0.0163375127848 0.00304267704776)
(0.00193869365179 -0.0163375127848 0.00454906646586)
(0.00186944270937 -0.0159661573986 0.00591612633578)
(0.0016494434673 -0.0143376327423 0.00662812073552)
(0.00126871847495 -0.0112495839401 0.00622824745989)
(0.000809031472222 -0.00730074410517 0.00470742461679)
(0.000381362744708 -0.00348160558774 0.00256243621763)
(8.81408159616e-05 -0.000808609828449 0.000669136857716)
(0 0 0)
(0 0 0)
(8.91417017718e-05 -0.000808609828449 -0.000673097643575)
(0.000397856202286 -0.00348160558774 -0.00257461158144)
(0.000872489972285 -0.00730074410517 -0.00471795989033)
(0.00139786200789 -0.0112495839401 -0.0062198673162)
(0.00182425242033 -0.0143376327423 -0.00659225727952)
(0.00204286043742 -0.0159661573986 -0.00586114451667)
(0.00207487710642 -0.0163375127848 -0.00448927004274)
(0.00205217986398 -0.0163375127848 -0.00298288062464)
(0.00202948262154 -0.0163375127848 -0.00147649120654)
(0.0020067853791 -0.0163375127848 2.9898211562e-05)
(0.00198408813667 -0.0163375127848 0.00153628762966)
(0.00196139089423 -0.0163375127848 0.00304267704776)
(0.00193869365179 -0.0163375127848 0.00454906646586)
(0.00186944270937 -0.0159661573986 0.00591612633578)
(0.0016494434673 -0.0143376327423 0.00662812073552)
(0.00126871847495 -0.0112495839401 0.00622824745989)
(0.000809031472222 -0.00730074410517 0.00470742461679)
(0.000381362744708 -0.00348160558774 0.00256243621763)
(8.81408159616e-05 -0.000808609828449 0.000669136857716)
(0 0 0)
(0 0 0)
(8.91417017718e-05 -0.000808609828449 -0.000673097643575)
(0.000397856202286 -0.00348160558774 -0.00257461158144)
(0.000872489972285 -0.00730074410517 -0.00471795989033)
(0.00139786200789 -0.0112495839401 -0.0062198673162)
(0.00182425242033 -0.0143376327423 -0.00659225727952)
(0.00204286043742 -0.0159661573986 -0.00586114451667)
(0.00207487710642 -0.0163375127848 -0.00448927004274)
(0.00205217986398 -0.0163375127848 -0.00298288062464)
(0.00202948262154 -0.0163375127848 -0.00147649120654)
(0.0020067853791 -0.0163375127848 2.9898211562e-05)
(0.00198408813667 -0.0163375127848 0.00153628762966)
(0.00196139089423 -0.0163375127848 0.00304267704776)
(0.00193869365179 -0.0163375127848 0.00454906646586)
(0.00186944270937 -0.0159661573986 0.00591612633578)
(0.0016494434673 -0.0143376327423 0.00662812073552)
(0.00126871847495 -0.0112495839401 0.00622824745989)
(0.000809031472222 -0.00730074410517 0.00470742461679)
(0.000381362744708 -0.00348160558774 0.00256243621763)
(8.81408159616e-05 -0.000808609828449 0.000669136857716)
(0 0 0)
(0 0 0)
(8.91417017718e-05 -0.000808609828449 -0.000673097643575)
(0.000397856202286 -0.00348160558774 -0.00257461158144)
(0.000872489972285 -0.00730074410517 -0.00471795989033)
(0.00139786200789 -0.0112495839401 -0.0062198673162)
(0.00182425242033 -0.0143376327423 -0.00659225727952)
(0.00204286043742 -0.0159661573986 -0.00586114451667)
(0.00207487710642 -0.0163375127848 -0.00448927004274)
(0.00205217986398 -0.0163375127848 -0.00298288062464)
(0.00202948262154 -0.0163375127848 -0.00147649120654)
(0.0020067853791 -0.0163375127848 2.9898211562e-05)
(0.00198408813667 -0.0163375127848 0.00153628762966)
(0.00196139089423 -0.0163375127848 0.00304267704776)
(0.00193869365179 -0.0163375127848 0.00454906646586)
(0.00186944270937 -0.0159661573986 0.00591612633578)
(0.0016494434673 -0.0143376327423 0.00662812073552)
(0.00126871847495 -0.0112495839401 0.00622824745989)
(0.000809031472222 -0.00730074410517 0.00470742461679)
(0.000381362744708 -0.00348160558774 0.00256243621763)
(8.81408159616e-05 -0.000808609828449 0.000669136857716)
(0 0 0)
(0 0 0)
(8.91417017718e-05 -0.000808609828449 -0.000673097643575)
(0.000397856202286 -0.00348160558774 -0.00257461158144)
(0.000872489972285 -0.00730074410517 -0.00471795989033)
(0.00139786200789 -0.0112495839401 -0.0062198673162)
(0.00182425242033 -0.0143376327423 -0.00659225727952)
(0.00204286043742 -0.0159661573986 -0.00586114451667)
(0.00207487710642 -0.0163375127848 -0.00448927004274)
(0.00205217986398 -0.0163375127848 -0.00298288062464)
(0.00202948262154 -0.0163375127848 -0.00147649120654)
(0.0020067853791 -0.0163375127848 2.9898211562e-05)
(0.00198408813667 -0.0163375127848 0.00153628762966)
(0.00196139089423 -0.0163375127848 0.00304267704776)
(0.00193869365179 -0.0163375127848 0.00454906646586)
(0.00186944270937 -0.0159661573986 0.00591612633578)
(0.0016494434673 -0.0143376327423 0.00662812073552)
(0.00126871847495 -0.0112495839401 0.00622824745989)
(0.000809031472222 -0.00730074410517 0.00470742461679)
(0.000381362744708 -0.00348160558774 0.00256243621763)
(8.81408159616e-05 -0.000808609828449 0.000669136857716)
(0 0 0)
(0 0 0)
(7.31272760141e-05 -0.000664747600118 -0.00055336964854)
(0.000358445059524 -0.00315071642261 -0.00233020114935)
(0.000807969702377 -0.00680193506982 -0.00439655621228)
(0.00131383180053 -0.0106438791019 -0.00588682749224)
(0.00173605208337 -0.0137281334906 -0.00631448004101)
(0.00197144670403 -0.0154780913961 -0.00568422065545)
(0.00202118322142 -0.0159661573986 -0.00438898566011)
(0.00199950600541 -0.0159661573986 -0.00291682680356)
(0.0019778287894 -0.0159661573986 -0.001444667947)
(0.0019561515734 -0.0159661573986 2.74909095548e-05)
(0.00193447435739 -0.0159661573986 0.00149964976611)
(0.00191279714138 -0.0159661573986 0.00297180862267)
(0.00189111992538 -0.0159661573986 0.00444396747922)
(0.00180846855449 -0.0154780913961 0.00573313270475)
(0.00157578886449 -0.0137281334906 0.00634401649604)
(0.00119822024609 -0.0106438791019 0.00589113919553)
(0.000752886221133 -0.00680193506982 0.00438489238986)
(0.000344937668579 -0.00315071642261 0.0023186312914)
(7.24508503402e-05 -0.000664747600118 0.000550063972174)
(0 0 0)
(0 0 0)
(3.5304229268e-05 -0.000322551294033 -0.000268536670372)
(0.000254849814777 -0.00226713403224 -0.00167725484255)
(0.000632478730868 -0.00541601790109 -0.00350280642008)
(0.00107773803939 -0.00890207203097 -0.0049278903362)
(0.00147219937527 -0.0118643696182 -0.0054636478996)
(0.00172002576148 -0.0137281334906 -0.0050486303873)
(0.00178929062973 -0.0143376327423 -0.00394818167651)
(0.00177180973443 -0.0143376327423 -0.00262614387501)
(0.00175432883912 -0.0143376327423 -0.00130410607351)
(0.00173684794382 -0.0143376327423 1.79317279983e-05)
(0.00171936704852 -0.0143376327423 0.0013399695295)
(0.00170188615321 -0.0143376327423 0.00266200733101)
(0.00168440525791 -0.0143376327423 0.00398404513251)
(0.00159181518638 -0.0137281334906 0.00507816684234)
(0.00135249608648 -0.0118643696182 0.00547659706614)
(0.000996867977784 -0.00890207203097 0.00492287277961)
(0.000597555156816 -0.00541601790109 0.00348945959436)
(0.000247856101582 -0.00226713403224 0.00166787478124)
(3.51449702087e-05 -0.000322551294033 0.000266875582865)
(0 0 0)
(0 0 0)
(3.16850398301e-06 -2.90748567857e-05 -2.42081673122e-05)
(0.000126522967215 -0.00114308638009 -0.000846007390031)
(0.000396825361187 -0.00348160558774 -0.002253546094)
(0.000743091762353 -0.00632137434874 -0.00350384277116)
(0.00107099886759 -0.00890207203097 -0.00410699340989)
(0.00129456320813 -0.0106438791019 -0.00392383304428)
(0.00136557612466 -0.0112495839401 -0.00310783862217)
(0.00135481416358 -0.0112495839401 -0.00207049572417)
(0.0013440522025 -0.0112495839401 -0.00103315282616)
(0.00133329024142 -0.0112495839401 4.19007184718e-06)
(0.00132252828034 -0.0112495839401 0.00104153296985)
(0.00131176631926 -0.0112495839401 0.00207887586786)
(0.00130100435819 -0.0112495839401 0.00311621876587)
(0.0012174888385 -0.0106438791019 0.00392814474757)
(0.00100360714959 -0.00890207203097 0.00410197585329)
(0.000702313058077 -0.00632137434874 0.00349135431178)
(0.000382393585806 -0.00348160558774 0.00224137073019)
(0.000124745048104 -0.00114308638009 0.000840606796976)
(3.16720996074e-06 -2.90748567857e-05 2.40540340275e-05)
(0 0 0)
(0 0 0)
(0 0 0)
(2.59155283857e-05 -0.000237116594046 -0.000175547664927)
(0.000171430842114 -0.00154210559397 -0.000998953631433)
(0.000395794520088 -0.00348160558774 -0.00193248060655)
(0.000627489648861 -0.00541601790108 -0.00250391127516)
(0.000796166099253 -0.00680193506982 -0.00251481722611)
(0.000854358972267 -0.00730074410517 -0.0020249928883)
(0.000849826222263 -0.00730074410517 -0.00135175113779)
(0.000845293472258 -0.00730074410517 -0.000678509387282)
(0.000840760722254 -0.00730074410517 -5.26763677369e-06)
(0.000836227972249 -0.00730074410517 0.000667974113735)
(0.000831695222245 -0.00730074410517 0.00134121586424)
(0.00082716247224 -0.00730074410517 0.00201445761475)
(0.000764689824256 -0.00680193506982 0.00250315340369)
(0.000602544238823 -0.00541601790108 0.00249056444944)
(0.000383424426905 -0.00348160558774 0.00192030524274)
(0.000168599515025 -0.00154210559397 0.000991988333461)
(2.5839025477e-05 -0.000237116594046 0.000174316091631)
(0 0 0)
(0 0 0)
(0 0 0)
(0 0 0)
(0 0 0)
(2.59107469539e-05 -0.000237116594046 -0.000153681180142)
(0.000126300727326 -0.00114308638009 -0.000635180616655)
(0.000253538493553 -0.00226713403224 -0.00105004303809)
(0.000355068211788 -0.00315071642261 -0.00116799303916)
(0.000392701996792 -0.00348160558774 -0.00096928414423)
(0.000391671155694 -0.00348160558774 -0.000648218656788)
(0.000390640314595 -0.00348160558774 -0.000327153169347)
(0.000389609473497 -0.00348160558774 -6.08768190502e-06)
(0.000388578632398 -0.00348160558774 0.000314977805537)
(0.000387547791299 -0.00348160558774 0.000636043292978)
(0.000386516950201 -0.00348160558774 0.00095710878042)
(0.000348314516315 -0.00315071642261 0.00115642318122)
(0.000249167422806 -0.00226713403224 0.00104066297678)
(0.000124967287993 -0.00114308638009 0.0006297800236)
(2.58438069088e-05 -0.000237116594046 0.000152449606847)
(0 0 0)
(0 0 0)
(0 0 0)
(0 0 0)
(0 0 0)
(0 0 0)
(0 0 0)
(3.16828831262e-06 -2.90748567856e-05 -1.61644670889e-05)
(3.5268838366e-05 -0.000322551294033 -0.000149556169652)
(7.29393799936e-05 -0.000664747600118 -0.000246860309453)
(8.88080731685e-05 -0.000808609828449 -0.000225686143144)
(8.87524684012e-05 -0.000808609828449 -0.000151117559739)
(8.86968636341e-05 -0.000808609828449 -7.65489763343e-05)
(8.86412588668e-05 -0.000808609828449 -1.98039292928e-06)
(8.85856540995e-05 -0.000808609828449 7.25881904758e-05)
(8.85300493322e-05 -0.000808609828449 0.000147156773881)
(8.84744445649e-05 -0.000808609828449 0.000221725357286)
(7.26387463609e-05 -0.000664747600118 0.000243554633087)
(3.51803611109e-05 -0.000322551294033 0.000147895082146)
(3.16742563111e-06 -2.90748567856e-05 1.60103338042e-05)
(0 0 0)
(0 0 0)
(0 0 0)
(0 0 0)
(0 0 0)
(0 0 0)
(0 0 0)
(0 0 0)
(0 0 0)
(0 0 0)
(0 0 0)
(0 0 0)
(0 0 0)
(0 0 0)
(0 0 0)
(0 0 0)
(0 0 0)
(0 0 0)
(0 0 0)
(0 0 0)
(0 0 0)
(0 0 0)
(0 0 0)
(0 0 0)
(0 0 0)
(0 0 0)
(0 0 0)
(0 0 0)
(0 0 0)
(0 0 0)
(0 0 0)
(0 0 0)
(0 0 0)
(0 0 0)
(0 0 0)
(0 0 0)
(0 0 0)
(0 0 0)
(0 0 0)
(0 0 0)
(0 0 0)
(0 0 0)
(0 0 0)
(0 0 0)
(0 0 0)
(0 0 0)
(0 0 0)
(0 0 0)
(0 0 0)
(0 0 0)
(0 0 0)
(0 0 0)
(0 0 0)
(0 0 0)
(0 0 0)
(0 0 0)
(0 0 0)
(0 0 0)
(0 0 0)
(0 0 0)
(0 0 0)
(0 0 0)
(0 0 0)
(0 0 0)
(0 0 0)
(0 0 0)
(0 0 0)
(0 0 0)
(0 0 0)
(0 0 0)
(0 0 0)
(0 0 0)
(0 0 0)
(0 0 0)
(0 0 0)
(0 0 0)
(0 0 0)
(0 0 0)
(0 0 0)
(0 0 0)
(0 0 0)
(0 0 0)
(0 0 0)
(0 0 0)
(0 0 0)
(0 0 0)
(0 0 0)
(0 0 0)
(0 0 0)
(0 0 0)
(0 0 0)
(0 0 0)
(3.58694142585e-06 -7.54280415203e-05 -4.19344205529e-05)
(2.2022200966e-05 -0.000458428467716 -0.000212553642911)
(4.16915946334e-05 -0.000859985376274 -0.000319362060312)
(4.97819129267e-05 -0.0010245518897 -0.000285958441491)
(4.96926436812e-05 -0.0010245518897 -0.000191476080275)
(4.96033744357e-05 -0.0010245518897 -9.69937190599e-05)
(4.95141051903e-05 -0.0010245518897 -2.5113578445e-06)
(4.94248359446e-05 -0.0010245518897 9.19710033709e-05)
(4.93355666992e-05 -0.0010245518897 0.000186453364586)
(4.92462974537e-05 -0.0010245518897 0.000280935725802)
(4.1188434638e-05 -0.000859985376274 0.000315088681046)
(2.18434792983e-05 -0.000458428467716 0.000210201174388)
(3.58113537291e-06 -7.54280415203e-05 4.15357141029e-05)
(0 0 0)
(0 0 0)
(0 0 0)
(0 0 0)
(0 0 0)
(0 0 0)
(0 0 0)
(1.69864396168e-05 -0.000354141086109 -0.000229524072826)
(6.91986755191e-05 -0.00140176847454 -0.000778939639733)
(0.000134184628697 -0.00263985242145 -0.00122280613833)
(0.000186084661712 -0.00359600614135 -0.0013333721593)
(0.000204835526344 -0.00395160352016 -0.00110052247674)
(0.000203507585035 -0.00395160352016 -0.000736115605985)
(0.000202179643726 -0.00395160352016 -0.00037170873523)
(0.000200851702417 -0.00395160352016 -7.30186447497e-06)
(0.000199523761108 -0.00395160352016 0.00035710500628)
(0.0001981958198 -0.00395160352016 0.000721511877035)
(0.000196867878491 -0.00395160352016 0.00108591874779)
(0.000177287079771 -0.00359600614135 0.00131954852462)
(0.000128258207479 -0.00263985242145 0.00121161085448)
(6.71934295255e-05 -0.00140176847454 0.000772282836657)
(1.68371207361e-05 -0.000354141086109 0.000227691861718)
(0 0 0)
(0 0 0)
(0 0 0)
(0 0 0)
(0 0 0)
(1.69971052511e-05 -0.000354141086109 -0.000262182353865)
(9.24967234675e-05 -0.00184523092419 -0.00119536009262)
(0.00020881935027 -0.00395160352016 -0.002193743089)
(0.000331467944538 -0.00601127998851 -0.00278018373577)
(0.000421143399738 -0.00747100522815 -0.00276397345834)
(0.000450142198332 -0.00799351707636 -0.00221923988168)
(0.000444708418672 -0.00799351707636 -0.00148211815492)
(0.000439274639012 -0.00799351707636 -0.000744996428161)
(0.000433840859351 -0.00799351707636 -7.87470140017e-06)
(0.000428407079691 -0.00799351707636 0.000729247025361)
(0.000422973300031 -0.00799351707636 0.00146636875212)
(0.000417539520371 -0.00799351707636 0.00220349047888)
(0.000383170368016 -0.00747100522815 0.00274755840013)
(0.000300737875167 -0.00601127998851 0.00276320196555)
(0.000192884054564 -0.00395160352016 0.00217913936005)
(8.8442915787e-05 -0.00184523092419 0.00118693172815)
(1.68264551017e-05 -0.000354141086109 0.000260350142757)
(0 0 0)
(0 0 0)
(0 0 0)
(3.58839293908e-06 -7.54280415203e-05 -6.28019542168e-05)
(6.95328831847e-05 -0.00140176847454 -0.00103747671913)
(0.000210147291579 -0.00395160352016 -0.00255814995976)
(0.000396748248691 -0.00696619391859 -0.00386276936201)
(0.000577714729969 -0.00966062938758 -0.00446018097102)
(0.000699978648947 -0.011453635795 -0.00422713791418)
(0.000734172072422 -0.0120708211916 -0.0033401440944)
(0.000721781545623 -0.0120708211916 -0.00222708562568)
(0.000709391018824 -0.0120708211916 -0.00111402715696)
(0.000697000492024 -0.0120708211916 -9.68688236014e-07)
(0.000684609965224 -0.0120708211916 0.00111208978049)
(0.000672219438425 -0.0120708211916 0.00222514824921)
(0.000659828911626 -0.0120708211916 0.00333820671793)
(0.000610731438403 -0.011453635795 0.00422211077256)
(0.00049834892429 -0.00966062938758 0.00444821432485)
(0.000347225987394 -0.00696619391859 0.00384594396129)
(0.000191556113256 -0.00395160352016 0.00254354623081)
(6.685922186e-05 -0.00140176847454 0.00103081991605)
(3.57968385978e-06 -7.54280415203e-05 6.24032477669e-05)
(0 0 0)
(0 0 0)
(2.20936896329e-05 -0.000458428467716 -0.000381655569831)
(0.000135962555062 -0.00263985242145 -0.00195313123617)
(0.000337613958412 -0.00601127998851 -0.00388886087603)
(0.000585651310537 -0.00966062938758 -0.00535102050061)
(0.000808130853964 -0.0126928942979 -0.00585127758227)
(0.000941710314873 -0.0145368102397 -0.0053545621506)
(0.000970151850808 -0.0151153398524 -0.0041718479945)
(0.000950723238562 -0.0151153398524 -0.00277811783639)
(0.000931294626316 -0.0151153398524 -0.00138438767828)
(0.00091186601407 -0.0151153398524 9.34247983395e-06)
(0.000892437401824 -0.0151153398524 0.00140307263795)
(0.000873008789578 -0.0151153398524 0.00279680279606)
(0.000853580177332 -0.0151153398524 0.00419053295417)
(0.000797950902218 -0.0145368102397 0.00536863062745)
(0.000671126121687 -0.0126928942979 0.00585282263861)
(0.000490412343722 -0.00966062938758 0.00533905385444)
(0.000294591861293 -0.00601127998851 0.00387187910581)
(0.000126480281114 -0.00263985242145 0.00194193595232)
(2.17719906314e-05 -0.000458428467716 0.000379303101307)
(0 0 0)
(0 0 0)
(4.20060696306e-05 -0.000859985376274 -0.00071589377366)
(0.000190483452682 -0.00359600614135 -0.00265983250126)
(0.000435383286634 -0.00747100522815 -0.00483079790527)
(0.000722290451583 -0.011453635795 -0.00633945008586)
(0.000959680241454 -0.0145368102397 -0.00669496124785)
(0.00107347130479 -0.0161069112242 -0.00592684706588)
(0.00107723467327 -0.0164166351621 -0.00452590414497)
(0.00105431707037 -0.0164166351621 -0.00301222152527)
(0.00103139946748 -0.0164166351621 -0.00149853890557)
(0.00100848186458 -0.0164166351621 1.51437141246e-05)
(0.000985564261682 -0.0164166351621 0.00152882633382)
(0.000962646658785 -0.0164166351621 0.00304250895352)
(0.000939729055888 -0.0164166351621 0.00455619157322)
(0.000896982706539 -0.0161069112242 0.00595421897949)
(0.000779980975636 -0.0145368102397 0.00670902972471)
(0.000588419635767 -0.011453635795 0.00633442294425)
(0.00036893048112 -0.00747100522815 0.00481438284706)
(0.000172888288801 -0.00359600614135 0.00264600886658)
(4.08739596407e-05 -0.000859985376274 0.000711620394394)
(0 0 0)
(0 0 0)
(5.03175283997e-05 -0.0010245518897 -0.000852852608783)
(0.000211475232888 -0.00395160352016 -0.00292255683051)
(0.000471877316973 -0.00799351707636 -0.00516772678873)
(0.000771343652821 -0.0120708211916 -0.00667931950057)
(0.0010090090753 -0.0151153398524 -0.00695930831073)
(0.00110015227617 -0.0164166351621 -0.00603958676467)
(0.00108108214983 -0.0164625644574 -0.00453838457655)
(0.00105803614294 -0.0164625644574 -0.00302046838284)
(0.00103499013604 -0.0164625644574 -0.00150255218912)
(0.00101194412914 -0.0164625644574 1.53640045972e-05)
(0.000988898122248 -0.0164625644574 0.00153328019831)
(0.000965852115352 -0.0164625644574 0.00305119639203)
(0.000942806108456 -0.0164625644574 0.00456911258575)
(0.000916811452991 -0.0164166351621 0.00606987419292)
(0.00081472295284 -0.0151153398524 0.00697799327039)
(0.000622657331227 -0.0120708211916 0.0066773821241)
(0.000395804401729 -0.00799351707636 0.00515197738593)
(0.000190228171947 -0.00395160352016 0.00290795310156)
(4.87106819806e-05 -0.0010245518897 0.000847829893094)
(0 0 0)
(0 0 0)
(5.03175283997e-05 -0.0010245518897 -0.000852852608783)
(0.000211475232888 -0.00395160352016 -0.00292255683051)
(0.000471877316973 -0.00799351707636 -0.00516772678873)
(0.000771343652821 -0.0120708211916 -0.00667931950057)
(0.0010090090753 -0.0151153398524 -0.00695930831073)
(0.00110015227617 -0.0164166351621 -0.00603958676467)
(0.00108108214983 -0.0164625644574 -0.00453838457655)
(0.00105803614294 -0.0164625644574 -0.00302046838284)
(0.00103499013604 -0.0164625644574 -0.00150255218912)
(0.00101194412914 -0.0164625644574 1.53640045972e-05)
(0.000988898122248 -0.0164625644574 0.00153328019831)
(0.000965852115352 -0.0164625644574 0.00305119639203)
(0.000942806108456 -0.0164625644574 0.00456911258575)
(0.000916811452991 -0.0164166351621 0.00606987419292)
(0.00081472295284 -0.0151153398524 0.00697799327039)
(0.000622657331227 -0.0120708211916 0.0066773821241)
(0.000395804401729 -0.00799351707636 0.00515197738593)
(0.000190228171947 -0.00395160352016 0.00290795310156)