/*--------------------------------*- C++ -*----------------------------------*\
| =========                 |                                                 |
| \\      /  F ield         | OpenFOAM: The Open Source CFD Toolbox           |
|  \\    /   O peration     | Version:  v1606+                                |
|   \\  /    A nd           | Web:      www.OpenFOAM.com                      |
|    \\/     M anipulation  |                                                 |
\*---------------------------------------------------------------------------*/
FoamFile
{
    version     2.0;
    format      ascii;
    class       volVectorField;
    location    "5.1";
    object      U;
}
// * * * * * * * * * * * * * * * * * * * * * * * * * * * * * * * * * * * * * //

dimensions      [0 1 -1 0 0 0 0];

internalField   nonuniform List<vector> 
11640
(
(0.000748882727062 0.000207266604451 -0.000633762085824)
(0.00211481847453 0.000243303880261 -0.000576941183789)
(0.00335830420709 0.000210703974855 -0.000499405925888)
(0.00452990185592 0.00014096477108 -0.000456073909284)
(0.00564227881477 6.39359650257e-05 -0.00037976323339)
(0.00666253611261 -2.82066667988e-05 -0.000287176530383)
(0.00746611706058 -0.00010858964908 -0.000195988165532)
(0.0080129887797 -0.000172458867496 -6.31623076076e-05)
(0.00835395870131 -0.000313117536899 0.000134885105824)
(0.00847565508717 -0.000463367484221 0.000324540099269)
(0.00840328724133 -0.00059299163338 0.000476332082131)
(0.00814896671995 -0.000745113250249 0.000641645385893)
(0.00769261503536 -0.000900376048145 0.000795316119188)
(0.00707254959961 -0.00104991709833 0.000926821531699)
(0.00632276469748 -0.00121711480646 0.00104292691807)
(0.00545872791777 -0.00138168854605 0.00117235913089)
(0.00448857538776 -0.00150236445143 0.00129504990968)
(0.00342998983972 -0.00157075810121 0.00140102259202)
(0.00222081383789 -0.00158200096608 0.00145710630099)
(0.000824015212796 -0.00147181170348 0.00148856097531)
(0.000679670690686 0.000802029484014 -0.000635599281825)
(0.00196169506134 0.000824923418511 -0.000511970037866)
(0.00310053618076 0.000691056816586 -0.000467071608301)
(0.00423659364633 0.000474585681754 -0.000470118951339)
(0.00537075582293 0.000329340902607 -0.000484197461768)
(0.00636088086931 0.00022644112092 -0.000481256900903)
(0.00712621169511 5.74162015914e-05 -0.000413590697753)
(0.00763130077318 -0.000221099015597 -0.000264771605856)
(0.00790062108376 -0.000702614635021 -3.99278480747e-05)
(0.00799377222344 -0.0011955593992 0.000169198225406)
(0.00790942617116 -0.00169818335851 0.000366017381699)
(0.00766758529877 -0.00219072814212 0.000550292175403)
(0.00725738982925 -0.00264401438738 0.000712322560414)
(0.00671276806929 -0.00303734188067 0.00083051417079)
(0.00604499415499 -0.00342194547448 0.000929438668611)
(0.00524504131254 -0.00379631565261 0.00103889140848)
(0.00430416970002 -0.00413379162188 0.00115349098986)
(0.00324696620237 -0.0043582679323 0.00126411577929)
(0.00211464248426 -0.00445682547229 0.00136273771885)
(0.000799076387892 -0.00433506607848 0.00144496431293)
(0.000629712251019 0.00144493066917 -0.000561067011666)
(0.00177271529622 0.00134563191399 -0.000452092955723)
(0.00279674455104 0.00113021573091 -0.000469382842442)
(0.00394506800602 0.000972910540308 -0.000569141486529)
(0.0050915165351 0.000989312779959 -0.000709604990508)
(0.00601036794418 0.00102652928138 -0.000795643339517)
(0.00666331510355 0.000881779955167 -0.000722052144408)
(0.0070138235792 0.000426576847782 -0.000545592402115)
(0.00712516342208 -0.000380792016462 -0.000315365578539)
(0.00715130754367 -0.00132916194359 -3.44482232846e-05)
(0.00705560477421 -0.0023161355315 0.000241741259532)
(0.00687277329016 -0.0032762401784 0.000484242692318)
(0.00657396673787 -0.0040953505007 0.00066932502424)
(0.00616113682684 -0.00475172787255 0.000783734431979)
(0.00562428350124 -0.00535208690412 0.000876871699939)
(0.00493433633964 -0.00590694421084 0.000960135700687)
(0.00408540583493 -0.00643375748439 0.00106827592061)
(0.00307414388197 -0.00685543926264 0.00115468635771)
(0.00197335024177 -0.0070995224979 0.00125476060128)
(0.0007324319713 -0.0071034774693 0.00139593524359)
(0.000554543702961 0.00193382230602 -0.000457071784566)
(0.00147172227509 0.00175801171535 -0.0003841473291)
(0.00245966254791 0.00160063102481 -0.000498445725456)
(0.00356429956838 0.00172565475473 -0.00077403761539)
(0.00458064616251 0.00217562903003 -0.00104490892305)
(0.00536320560672 0.00255806206729 -0.00114703909089)
(0.00587602731814 0.00245560251611 -0.00106744141251)
(0.00599917187852 0.00175995212756 -0.000869371728238)
(0.00591450770692 0.000444317811022 -0.000657960761942)
(0.00583611939014 -0.00121376039552 -0.000346078024465)
(0.00574008392462 -0.00293867102897 3.63672353887e-06)
(0.00567942836058 -0.0045119221157 0.000338197541581)
(0.00560896762499 -0.00575222507959 0.000563874288415)
(0.00538093159734 -0.00661144550946 0.000695733924014)
(0.0050201603301 -0.00735687528605 0.000772127573123)
(0.0045082735074 -0.00801193675764 0.00087695244488)
(0.00379925319683 -0.00866128391617 0.00098308379338)
(0.00290677372693 -0.00920390733941 0.00106560814928)
(0.00186462480686 -0.00960136354531 0.00114978171985)
(0.000662028109108 -0.00974588122212 0.00129061290259)
(0.000415996969345 0.00228049176502 -0.000289881885119)
(0.00109228557326 0.00218473802733 -0.000319073275853)
(0.0019720954756 0.00224057985856 -0.000552055397723)
(0.00289449282025 0.00293849864499 -0.000961384793367)
(0.00369901814318 0.00409638797213 -0.00126314120291)
(0.00429279567666 0.0048329752846 -0.00133168827342)
(0.0046641522893 0.00483539890132 -0.00122129284402)
(0.0044480639418 0.00399741393772 -0.00108173800067)
(0.00412882352884 0.00234072003727 -0.000902365838748)
(0.0039243176951 -2.35316522318e-06 -0.00070107469229)
(0.00392514068875 -0.0026040610609 -0.000423462790585)
(0.00419117941946 -0.0049652170967 -0.000124482949144)
(0.00453511768119 -0.00678900852259 0.000188005854729)
(0.00457680285896 -0.00815844233957 0.000467160108087)
(0.00441461193228 -0.00912297280516 0.000620343003541)
(0.00407645572489 -0.00985096913966 0.000754764793649)
(0.00350902486714 -0.010610677562 0.000875745214734)
(0.00274892832057 -0.0112651975757 0.000949518553866)
(0.00181939262239 -0.0117716566895 0.00104566545202)
(0.000623569007333 -0.0120569299062 0.00118003651968)
(0.000198125077841 0.00254988928922 -0.000139183261899)
(0.000648210366957 0.00257571780792 -0.000263916821559)
(0.00126345666585 0.00304522016159 -0.000568820634997)
(0.00188067567471 0.00452503363238 -0.000985949401934)
(0.00236517981072 0.00632338387141 -0.00118806433328)
(0.0028452227493 0.00721543760353 -0.00124587439358)
(0.00326468469099 0.00728949542779 -0.00118582026306)
(0.00291794163132 0.00648932812673 -0.0011875744378)
(0.00235490743497 0.00414224346943 -0.00108780145555)
(0.00182555393886 0.000498272322016 -0.000843105833836)
(0.00195112294693 -0.00349225608808 -0.000450288031586)
(0.00250778098378 -0.00693507740947 -0.000143039506731)
(0.00307948160421 -0.00915962484013 9.9205905479e-05)
(0.00336313621527 -0.0100563212169 0.000289672154058)
(0.00366232563915 -0.0108169203059 0.000390338600241)
(0.00356992651539 -0.0114889730185 0.000551187432854)
(0.00311291208335 -0.012287717092 0.000688163609068)
(0.00251197882797 -0.0130445736175 0.000800746969283)
(0.0017291457151 -0.013622830715 0.000891094377554)
(0.000622022544299 -0.0140160142301 0.00102502674294)
(-6.42791406233e-06 0.00270340382088 7.66822565284e-06)
(0.00020561166488 0.00283890203751 -0.000129717620819)
(0.000441957818162 0.00378798614656 -0.000457589549317)
(0.000682710647246 0.0059350635001 -0.000753991841372)
(0.000871755762801 0.0082578529619 -0.000859762461149)
(0.00120731259079 0.00933147491429 -0.00101913996793)
(0.00177653124916 0.0099917582005 -0.00100883912058)
(0.000378880640819 0.00983669634902 -0.00107983424411)
(-0.00110670621033 0.00782467971912 -0.0012215945789)
(-0.00166410610329 0.00335130339401 -0.00145472521083)
(-0.000640548931638 -0.00131741626049 -0.0017229483582)
(0.000914404791363 -0.00505039834856 -0.00166354896055)
(0.00300080235614 -0.0073520248597 -0.00123672067778)
(0.0033602824015 -0.0100964701178 -0.00033963394434)
(0.00334738382471 -0.01116966746 -0.000148826846526)
(0.00317276028278 -0.0123872735676 0.00026001041817)
(0.00274138912264 -0.0134574372868 0.000439104275489)
(0.00226500620113 -0.0143659000198 0.00060044133623)
(0.00160138456687 -0.0150531652245 0.000711980579988)
(0.00061038086372 -0.0154855475058 0.000846096630087)
(-0.00013347276332 0.00264545034158 0.000149988320411)
(-0.000214651221465 0.00288019322915 7.46836288446e-05)
(-0.000360202133693 0.00419230911184 -0.000193071131807)
(-0.000537711797801 0.00688314851878 -0.000363785605478)
(-0.000714160651949 0.00954793315469 -0.000403828859413)
(-0.000359641973644 0.0107274729254 -0.000607491106787)
(0.000838888795163 0.0115901564885 0.000250792662739)
(-0.00022292670221 0.0110497845226 0.000944143592585)
(-0.00118524029106 0.00964101635999 0.000394490373404)
(-0.00142142732542 0.00580977601791 -0.00114757944593)
(-0.000174441085415 0.00166202338443 -0.00160189902695)
(0.000215997129736 -0.00211533667578 -0.000760309536567)
(-0.00167556334063 -0.00531836654067 -2.91762581002e-05)
(-0.00219955965542 -0.0094772193688 -0.000934757484807)
(0.00104939822536 -0.0114290010875 -0.000684416858411)
(0.00167998499269 -0.01293333834 -0.000122748850054)
(0.00189065753822 -0.0142733014271 0.00014262943187)
(0.00179874392644 -0.0153154633935 0.000362855540381)
(0.0013434283069 -0.0160791693338 0.000505967708089)
(0.000530854759164 -0.0165054350428 0.000639805222586)
(-0.000211274655211 0.00234176451414 0.000287150577458)
(-0.000560596434472 0.00267053077767 0.000268014464977)
(-0.00103033788998 0.00423723252173 9.81682596314e-05)
(-0.00153935045248 0.00734300372791 -1.54303082057e-05)
(-0.00195146338511 0.0102807267886 5.47860308217e-06)
(-0.00180829958863 0.0113637421142 -0.000137220892927)
(-0.000761171153997 0.0117531998413 0.000883852893037)
(-0.00180165258067 0.0101488748898 0.00159107260585)
(-0.00294681532804 0.00736098199749 0.00134702247589)
(-0.00348558709988 0.00331908666131 -0.000352995519354)
(-0.00242728831471 -0.000828559555605 -0.00101449956478)
(-0.00201771886548 -0.0044736321174 -0.000496171289265)
(-0.00332638577737 -0.00762103034816 0.000179293324072)
(-0.00347555639635 -0.0101304442122 -0.00122056273603)
(0.000243042567148 -0.012097712299 -0.00116819823775)
(0.000944964760505 -0.0134347136217 -0.000448006569716)
(0.00130993774942 -0.0148133016966 -0.00013940208204)
(0.00143806403025 -0.0159319839348 0.000121932882427)
(0.00113134360583 -0.0167102627193 0.000298669468782)
(0.00046669108755 -0.0171012173624 0.00043952311816)
(-0.000289789976109 0.00184646050421 0.000385084435247)
(-0.000901068128416 0.00222614902736 0.000444011372791)
(-0.00169335625885 0.00391468330147 0.000335952959613)
(-0.00246964987109 0.00721957136542 0.00029808236321)
(-0.00304915370777 0.0102028724034 0.000335442950667)
(-0.00301965185596 0.0109448231592 0.000277396681974)
(-0.00231401647064 0.0102069183941 0.00142667872407)
(-0.00324635984478 0.00717229986926 0.00241086086803)
(-0.00386769565922 0.00430396947935 0.00214292524322)
(-0.00446638873737 0.00228203973772 0.000193208730264)
(-0.00379028813924 1.5625146929e-05 -0.00070611079941)
(-0.00385756537248 -0.00267518135068 -0.000473415157221)
(-0.00542874543298 -0.00587592359658 -2.94270757836e-05)
(-0.00513193296769 -0.00894446237471 -0.00168417362413)
(-0.00103654477893 -0.0116297558492 -0.00149637489594)
(-6.7527373017e-05 -0.0133069381613 -0.000741878948704)
(0.000572005172735 -0.0148676193666 -0.000438196310589)
(0.000977149524081 -0.0161157116484 -0.000131728138296)
(0.000897278762595 -0.0168967984004 8.67525278191e-05)
(0.000403334278962 -0.0172323615498 0.000237623447877)
(-0.000383815119416 0.00135913215419 0.000426194921479)
(-0.00129627716864 0.00170857545026 0.00056330493518)
(-0.00240383651355 0.00336077899782 0.000561300062353)
(-0.00343416171948 0.00666585994971 0.000582860507509)
(-0.00426537305779 0.00966920018782 0.000644582576439)
(-0.00472263979012 0.0104694627109 0.000527530603268)
(-0.00475383024618 0.00927367244704 0.0014851760577)
(-0.00527592464515 0.00520281050381 0.00174591228087)
(-0.00503739871707 0.00150534784365 0.00111055220723)
(-0.00509247507335 0.000190501340189 -0.00019408279934)
(-0.00450678807602 -0.00107059248159 -0.000756670618183)
(-0.0051404641913 -0.00299614106145 -0.000543651579265)
(-0.00659811720403 -0.0059206020805 -0.000139363544073)
(-0.00630232513293 -0.00821447977095 -0.00164947026275)
(-0.00254136001761 -0.0110173729935 -0.00150402023114)
(-0.00118346623551 -0.0129952206841 -0.000869395503722)
(-0.000248339348063 -0.0146607453087 -0.000660080609172)
(0.000471254620653 -0.0159593334687 -0.000359602995867)
(0.000661291653982 -0.0167203479201 -0.000134048548014)
(0.000364857962378 -0.0169456868784 5.09812577451e-05)
(-0.000487058366719 0.000985753243188 0.000445842557356)
(-0.00171800367736 0.00122883100302 0.000691946553997)
(-0.00313356563119 0.00264732981753 0.000778508034132)
(-0.00433282435044 0.00562724975167 0.000900833716408)
(-0.00522173251971 0.00840985514166 0.000968038650389)
(-0.00555756047675 0.00919967831673 0.000803472229019)
(-0.00568675156891 0.00781656882953 0.000989628200219)
(-0.00620726816286 0.0048715898349 0.000738902616069)
(-0.00654514020474 0.00203591341185 0.000305851186225)
(-0.00706391954554 0.000701726757607 7.71787568716e-05)
(-0.00705932950501 -0.000964305038265 0.000126922403451)
(-0.00748397653305 -0.00362051598701 1.83531147422e-05)
(-0.00762410579518 -0.00640070278531 -0.000220472820253)
(-0.00664770428876 -0.0081224089999 -0.00110016666613)
(-0.00397577096591 -0.0105921009753 -0.0011371807544)
(-0.00238075521295 -0.0126376095091 -0.000915438583236)
(-0.00109439537921 -0.0142767675277 -0.000808612568744)
(-8.88283504879e-05 -0.0155275728032 -0.000578627251605)
(0.000386284763012 -0.0162172287522 -0.000349819550756)
(0.000334201786254 -0.0162738820184 -0.000123293002429)
(-0.000566463262911 0.000768912360427 0.000471817633247)
(-0.00206140790946 0.00082026749588 0.000779015106657)
(-0.00373305669676 0.00179366166275 0.000953513432984)
(-0.00515272851967 0.00408582952828 0.00115893879282)
(-0.0061778666235 0.00650435405902 0.00127497627973)
(-0.0068423289636 0.00739854991792 0.0011181411964)
(-0.00741451379233 0.00636022744524 0.000991322918626)
(-0.00770265865458 0.00416966384403 0.000541358587326)
(-0.00773973822424 0.00190882184732 0.000303672499591)
(-0.00786252461418 6.51913773138e-06 0.000287621038437)
(-0.00788083330325 -0.00216493099715 0.000278554845925)
(-0.00785117868244 -0.00456485911148 4.02339738769e-05)
(-0.00745154266124 -0.00674977193574 -0.000267125331301)
(-0.00645038647711 -0.00839536516214 -0.000834544728557)
(-0.00472198128036 -0.0104344251947 -0.00104325253315)
(-0.00318765314795 -0.0122608942788 -0.00101768265783)
(-0.00181772050881 -0.0137511075221 -0.000965739369434)
(-0.000639657271129 -0.0148586530512 -0.000793505451806)
(7.51304953064e-05 -0.0153897897055 -0.000569573628443)
(0.000280041795596 -0.0152256112664 -0.000273766348301)
(-0.000593396223436 0.000662601102438 0.000458464086117)
(-0.00219825005632 0.000538462151648 0.000774934407603)
(-0.00398762793482 0.00101300316179 0.000974625503838)
(-0.00552881600999 0.00241292804996 0.00122207921796)
(-0.0065760785422 0.0041772043341 0.0014207845546)
(-0.00712735847892 0.00513870307715 0.00142646881178)
(-0.00749777590802 0.0048101893349 0.0013820706838)
(-0.00792636746085 0.00352995969162 0.00117716616619)
(-0.00833899304937 0.00180462302541 0.00104946276434)
(-0.00864155718215 -0.000114776158918 0.000961505502084)
(-0.00862616219208 -0.00226670647734 0.000730033673585)
(-0.00841351739235 -0.00441022068993 0.000318029918385)
(-0.00795660726078 -0.00632712078735 -9.07448329064e-05)
(-0.00700267471537 -0.00805976277537 -0.000608220132487)
(-0.00552421723683 -0.00983347016237 -0.000878336802686)
(-0.00399870828478 -0.011497502063 -0.00102023305851)
(-0.00255830358998 -0.0128322977762 -0.00106954811673)
(-0.00123785104378 -0.0137872614664 -0.00100590625718)
(-0.000275722268034 -0.014181163487 -0.000843913994973)
(0.000208957293794 -0.0138722516287 -0.000455324761578)
(-0.000602367553608 0.00060664515469 0.000435062918589)
(-0.00215817643854 0.000392433810722 0.000714110089987)
(-0.00390761902649 0.000488530735197 0.000860117093862)
(-0.00549788044797 0.00109690480749 0.00105836233046)
(-0.00664257813948 0.00201922811573 0.00127771486729)
(-0.00731313225378 0.00257134445362 0.00136591794103)
(-0.00779169476012 0.0022179846419 0.00136999290621)
(-0.00822342875823 0.00107718964439 0.00126860437613)
(-0.00861915838589 -0.000364230770144 0.00110845592288)
(-0.00894171614536 -0.00180129169282 0.000911444095827)
(-0.00905021157839 -0.00331022964471 0.000595259525609)
(-0.00892427513315 -0.00480973066165 0.000196897699179)
(-0.00846605703611 -0.00622791697762 -0.000195420971799)
(-0.00758667363461 -0.00758597994324 -0.000626619134414)
(-0.00634635047067 -0.00897500337494 -0.000956054696098)
(-0.00490683014242 -0.0103553463076 -0.00112593008039)
(-0.00341562035853 -0.0114887207302 -0.00124369804864)
(-0.00196599217195 -0.0122850108568 -0.00124501517029)
(-0.000766820104528 -0.0125842364046 -0.00112439877131)
(0.000116790612229 -0.0121804287878 -0.000625143987473)
(-0.000597677638361 0.000527833674844 0.000434595136416)
(-0.00210524651869 0.000297353531397 0.000626217033847)
(-0.00374431275555 0.000196274353621 0.000719529958606)
(-0.00529592666516 0.000304013255368 0.000831849486571)
(-0.00653149217809 0.000596211337569 0.000956668845968)
(-0.00739050733715 0.000726333309382 0.00104317647849)
(-0.0080205690764 0.000404585516227 0.00103934189253)
(-0.00859171634685 -0.000348268998581 0.000938828697619)
(-0.00910732766872 -0.00133397521682 0.000776589543754)
(-0.00950641288703 -0.00237661790205 0.000539700384152)
(-0.00970368910003 -0.00345211082039 0.000246745245523)
(-0.00962807322443 -0.00452937563772 -8.13666617836e-05)
(-0.00922684772892 -0.00559665035028 -0.000414494794606)
(-0.00841664684004 -0.00669290877594 -0.000758033909207)
(-0.00723945021354 -0.00779499499095 -0.0010622040134)
(-0.00583149883288 -0.0088771549419 -0.00130444750063)
(-0.00430177492166 -0.00980193893229 -0.0014423361203)
(-0.00271605260567 -0.0104218948394 -0.00151009634021)
(-0.00121848529444 -0.0106283463358 -0.00145012244326)
(6.62128338703e-05 -0.0101376344769 -0.000823712335117)
(-0.000641287741025 0.000427813597232 0.000458730192392)
(-0.00214897974148 0.000201124549567 0.000594391989608)
(-0.00369210181025 3.45089831e-05 0.000614418586485)
(-0.0051755799028 -5.30298152325e-05 0.0006468799382)
(-0.00646880796887 -9.14467415322e-05 0.000687250987659)
(-0.00749829669706 -0.000184964859677 0.000717910947316)
(-0.00832408963128 -0.000490113200339 0.000682145427754)
(-0.00904652354985 -0.00100266902136 0.000580816081336)
(-0.00964660629672 -0.00164059361594 0.000433572650657)
(-0.0100899817122 -0.00234149071 0.000224974168242)
(-0.0103235665071 -0.00306694404335 -2.4282694201e-05)
(-0.0102765799126 -0.00381158657955 -0.000294427973463)
(-0.00990030513093 -0.00458231568669 -0.000589585429408)
(-0.0091470968502 -0.00536465792458 -0.000901709971552)
(-0.00805360448833 -0.00618012082312 -0.00118968350372)
(-0.0066740124435 -0.00699439097332 -0.00144005099042)
(-0.00506433551623 -0.00770472340743 -0.00163630527415)
(-0.00332055227887 -0.00816800378397 -0.00175959498239)
(-0.00158183161322 -0.00828212958493 -0.00172220321784)
(-3.03447864795e-05 -0.00782008929537 -0.000987632518622)
(-0.000701512014544 0.00032823388276 0.000502730329079)
(-0.0022446100289 0.000109362349631 0.000589753975655)
(-0.00377127433515 -6.86330708524e-05 0.00058126615866)
(-0.00523730121851 -0.000208661327289 0.00056332305412)
(-0.00653916231086 -0.000317366987233 0.000544806982257)
(-0.00766661943356 -0.000469276778771 0.000515888963298)
(-0.00861617465254 -0.000732464072119 0.000458782756907)
(-0.00941144766502 -0.00107041127624 0.000361370372062)
(-0.0100492830928 -0.00146757087875 0.000223590167796)
(-0.010501283604 -0.00189743880201 4.9838432301e-05)
(-0.0107308036021 -0.00233814873151 -0.000161104694519)
(-0.0106856948097 -0.00279152984845 -0.000400807714693)
(-0.0103230845902 -0.00327564556731 -0.000678489983754)
(-0.00960374157794 -0.00377784605637 -0.000982045623296)
(-0.00855263053563 -0.00430071411463 -0.00128490957801)
(-0.00719092937461 -0.00481443712381 -0.00154740763886)
(-0.00555456689351 -0.00526216094601 -0.00176395259388)
(-0.00370739036238 -0.00557158585938 -0.00189726081871)
(-0.00183161205168 -0.00564268916708 -0.00182402275747)
(-0.000170353584061 -0.00531292311699 -0.00107342316264)
(-0.000738171701326 0.000169910064772 0.000537408726908)
(-0.00231430576385 -1.98517897167e-05 0.000582020527187)
(-0.00385231401133 -0.000182412290827 0.000549768900606)
(-0.00533291067847 -0.000340261147813 0.000501226948845)
(-0.00666627058367 -0.000458861184173 0.000459811438427)
(-0.00784018561238 -0.000613100526393 0.00039092170115)
(-0.00881207904879 -0.00078877282618 0.000312168288624)
(-0.00961110351751 -0.000998665341374 0.000207438067032)
(-0.0102341715926 -0.00121497662968 9.11846167392e-05)
(-0.0106533999687 -0.00143041616812 -6.08207836214e-05)
(-0.0108449741999 -0.00162315933713 -0.000247015440496)
(-0.0107695112368 -0.00179927893615 -0.000456013734252)
(-0.010397441758 -0.00198714748156 -0.000708829693341)
(-0.00968560809611 -0.00216840032732 -0.000988536180654)
(-0.00864495298438 -0.002361488495 -0.00127041668279)
(-0.0072965979376 -0.0025637475479 -0.00152131078665)
(-0.00566176876364 -0.00276001061248 -0.00171400346286)
(-0.00381673204672 -0.002925049527 -0.00180168352311)
(-0.00194683259256 -0.00301969984845 -0.00167219286767)
(-0.000330995169028 -0.00288558685263 -0.00101158834672)
(-0.000748898074005 6.06152393116e-05 0.000531973925943)
(-0.00230719111644 -6.52162026186e-05 0.000496944692183)
(-0.00386040436604 -0.000167932290101 0.000427427500657)
(-0.00538157061956 -0.000267756374875 0.000333508244685)
(-0.00674946438565 -0.000342641045224 0.000240853420032)
(-0.00793310891908 -0.000429279778256 0.000121487861968)
(-0.00887678851066 -0.000502464370268 -3.15885968104e-06)
(-0.009627730051 -0.000576210501861 -0.000133585021668)
(-0.0101759008659 -0.000629504285945 -0.000250701853136)
(-0.010496535777 -0.000669103737251 -0.000363766511222)
(-0.0105630441414 -0.0006588153879 -0.000463976316459)
(-0.0103955740112 -0.000631010294072 -0.000544929007896)
(-0.00993811765679 -0.000588043682174 -0.000634353775225)
(-0.00917075670267 -0.000513847753961 -0.000719914182514)
(-0.00811651559742 -0.000437603211201 -0.00080683958907)
(-0.00678861328509 -0.000405737935244 -0.0008963894899)
(-0.00521239831274 -0.000426854552645 -0.000992100623908)
(-0.00349785590978 -0.000515943018598 -0.00107020968754)
(-0.00177962751737 -0.000672458587182 -0.00103422516304)
(-0.000397489945871 -0.00076021808507 -0.000804921335378)
(0.000724396312477 0.000223117703528 -0.00196929631541)
(0.00210333579692 0.000268416393569 -0.00186035542102)
(0.00340367986677 0.000256311202962 -0.00168203954493)
(0.00463701215585 0.000220100755395 -0.00151548744055)
(0.00579482006591 0.000187585034597 -0.00132018084337)
(0.00678095943859 0.00014886519173 -0.00106016809958)
(0.00755699214173 8.02293940769e-05 -0.000740613961583)
(0.00810186148555 -2.81259130234e-05 -0.00031564083424)
(0.00843308351198 -0.000193359960334 0.000214391116823)
(0.00857344151809 -0.000366162976145 0.000757229939576)
(0.00851712693002 -0.000547373887585 0.00128211848905)
(0.00826520022285 -0.000718994672676 0.00180307663464)
(0.00782477555156 -0.000875596534506 0.00229630170495)
(0.00719946233228 -0.00101844211439 0.00273858571657)
(0.00641664521216 -0.00117001000557 0.00314411647736)
(0.00550673483247 -0.00131829203809 0.00351526264636)
(0.00449411165445 -0.00143803151834 0.00385093917464)
(0.00338081587971 -0.00152125480572 0.00413473855713)
(0.00214985724987 -0.00155389343716 0.00433837694759)
(0.000773073129216 -0.00151024963825 0.00447070474046)
(0.000605102074491 0.000872141707625 -0.00194624189411)
(0.00193195869745 0.000893884065508 -0.00178205860892)
(0.00320257587088 0.000828979966805 -0.00168735408218)
(0.00441070450994 0.000708733886851 -0.00162254490839)
(0.00551902621403 0.000601463002072 -0.00152013066759)
(0.00642891998947 0.000452286358092 -0.00132260866035)
(0.00713460770102 0.000216600344344 -0.00100285547922)
(0.00764321037545 -0.00014819734848 -0.000577758227934)
(0.0079542341629 -0.000632105793992 -3.78322947865e-05)
(0.00807974873452 -0.00113065593046 0.000545898498952)
(0.00802523710935 -0.00164463651937 0.00112924068463)
(0.00780810272424 -0.0021270998869 0.00168942476269)
(0.00742144677401 -0.00257286093524 0.00219510434928)
(0.00686667763303 -0.00297248374189 0.00262898225157)
(0.00614686386374 -0.00336159105829 0.00300434981032)
(0.00527376678151 -0.00373862579208 0.00333779024987)
(0.0042727410333 -0.00407575647616 0.00362293207455)
(0.00317408267784 -0.00433482393071 0.00386919657786)
(0.00197172825366 -0.00447552764112 0.00409456409393)
(0.000667866237767 -0.00444196187935 0.00431487464151)
(0.000545331594306 0.00157679626611 -0.00176507576958)
(0.00180540710129 0.0015104692804 -0.00166107295338)
(0.00302815503206 0.0013856640478 -0.00165976173614)
(0.00419484713342 0.00121705612969 -0.0017225589165)
(0.00522759206826 0.00106299239803 -0.00170868554896)
(0.00601765446709 0.000829571758324 -0.0015865898754)
(0.00660469271647 0.000470340178434 -0.00129729923382)
(0.00700725624033 -0.000101062556867 -0.000899132266942)
(0.00725899539434 -0.000855137501912 -0.000353290972989)
(0.00735934686324 -0.00169559260403 0.000293903316804)
(0.00731688099367 -0.00255174305303 0.000958772314217)
(0.00715648332966 -0.00337759671909 0.0015774884056)
(0.00685835778469 -0.00411580900197 0.00211355234861)
(0.00640761925674 -0.004766010981 0.00254515182532)
(0.00577849627137 -0.00538145026089 0.00290039841232)
(0.00497031811272 -0.00594854670037 0.00320632245012)
(0.00400693767896 -0.00647659978625 0.00345429606064)
(0.00293810023745 -0.00691902278664 0.00364551846067)
(0.00180263699141 -0.00720268464397 0.00383659263483)
(0.000583175863096 -0.00727568627998 0.00410194735321)
(0.000512283196473 0.00213632570352 -0.00150209304941)
(0.00166662851308 0.00201057524049 -0.00148922045285)
(0.00281790033867 0.00182450316052 -0.0016223354636)
(0.00387099265206 0.00164801682928 -0.00179808662352)
(0.00475259269358 0.00146826916291 -0.00187436794098)
(0.00540058519135 0.00120601165616 -0.00181815562683)
(0.00585535052127 0.000733685587063 -0.00159849629852)
(0.0061285900165 -5.595557527e-05 -0.00127566691218)
(0.00628722464997 -0.00110546649869 -0.000760661924106)
(0.00634254236071 -0.00234367576801 -7.26938024957e-05)
(0.00632609141646 -0.00363256271385 0.000662933080496)
(0.00625832680112 -0.00484893353707 0.00136255276016)
(0.00611475023119 -0.00584446487201 0.00192284823827)
(0.00579800554514 -0.00665530004263 0.00236356540924)
(0.00529409038143 -0.00743383564834 0.00269956024991)
(0.0045892063211 -0.00812699546693 0.00300702044768)
(0.00369784175038 -0.0087890736017 0.00322910662625)
(0.00270252595939 -0.00935169710044 0.00339266879243)
(0.00163988728256 -0.00976364435234 0.00353861084224)
(0.000500199567388 -0.00995285572995 0.00376838637746)
(0.000468776846365 0.00255058549857 -0.00111441576531)
(0.00146886187879 0.00238252982161 -0.00122585184878)
(0.00247214375663 0.00217526304577 -0.00145591188081)
(0.00334535914138 0.00202362358592 -0.00169564681223)
(0.00402931154738 0.00191856395191 -0.0019047327594)
(0.00451713425043 0.00168356455508 -0.00195772355667)
(0.004803830871 0.00124398288348 -0.00175773157166)
(0.00490312976864 0.000352975010919 -0.00167407185144)
(0.00495076229476 -0.000800764751555 -0.00119797183471)
(0.00492754427128 -0.00236780205223 -0.000615829379514)
(0.00496568966748 -0.00406389822874 4.99443748966e-05)
(0.00512010106672 -0.00568378472028 0.000715579604628)
(0.0052905049168 -0.00705086605641 0.00133839146597)
(0.00516147635633 -0.0083179185562 0.00194203965928)
(0.0047708433939 -0.00932545365525 0.00232963394744)
(0.00417610756655 -0.0101119025876 0.00266319416179)
(0.00337725450749 -0.0108637029011 0.00288974257497)
(0.00248046949538 -0.0115111078947 0.00303599879119)
(0.00151703970804 -0.0120145863176 0.00317679797527)
(0.000450629026256 -0.0123000292765 0.00338656415442)
(0.000379470882906 0.00277644748503 -0.000688624736423)
(0.00117531044662 0.00259547249144 -0.000859479066013)
(0.00195162968362 0.00242220064951 -0.0010820773309)
(0.00253304956729 0.00239606889239 -0.00139263588374)
(0.00293535313041 0.00246106860205 -0.00170682597911)
(0.00334361884152 0.002148099968 -0.00188329726656)
(0.00355575896927 0.00149001449275 -0.00159087798012)
(0.00359220602774 0.000173837265701 -0.00161684805197)
(0.00361043691596 -0.00157371438042 -0.00103286752357)
(0.00350364241298 -0.0040042091968 -0.000317974410268)
(0.00362950794381 -0.00662962348375 0.000329352665966)
(0.00386196155723 -0.00898443308471 0.000838516876465)
(0.0040588804947 -0.0104606938837 0.00128416679894)
(0.00407167013831 -0.0107101889195 0.00158510893465)
(0.00409555112833 -0.0113457317675 0.00181016916321)
(0.00371672431383 -0.0119442828265 0.00215458116684)
(0.00301097459743 -0.0126843424921 0.00239134863194)
(0.00222637551989 -0.013374410291 0.00255840584363)
(0.00137998959939 -0.0139280925768 0.00269939044117)
(0.000412622144278 -0.0142868527397 0.0028955697503)
(0.000274471628873 0.00281470158582 -0.000200430879786)
(0.000802127763038 0.00265086526618 -0.000361746025816)
(0.00126472585904 0.00256675399562 -0.000591862669706)
(0.00148011347057 0.00278053439733 -0.000937848115029)
(0.00147110422464 0.00315470402831 -0.00140909754795)
(0.00150245627546 0.00299836093188 -0.00191932964629)
(0.00126821429114 0.00265410755183 -0.00169849514345)
(0.000946690065752 0.00184558532595 -0.00184182101445)
(0.00107217345435 0.000529114258233 -0.00167278003009)