/*--------------------------------*- C++ -*----------------------------------*\
| =========                 |                                                 |
| \\      /  F ield         | OpenFOAM: The Open Source CFD Toolbox           |
|  \\    /   O peration     | Version:  v1606+                                |
|   \\  /    A nd           | Web:      www.OpenFOAM.com                      |
|    \\/     M anipulation  |                                                 |
\*---------------------------------------------------------------------------*/
FoamFile
{
    version     2.0;
    format      ascii;
    class       volScalarField;
    location    "1.79";
    object      alphat.air;
}
// * * * * * * * * * * * * * * * * * * * * * * * * * * * * * * * * * * * * * //

dimensions      [1 -1 -1 0 0 0 0];

internalField   nonuniform List<scalar> 
6000
(
0.000374672
0.00341279
0.00544447
0.00591427
0.00602105
0.00607434
0.00610768
0.0061505
0.00622226
0.0062897
0.00633136
0.00635177
0.00636503
0.00639536
0.00643564
0.00643334
0.00640054
0.00632783
0.0062506
0.00621026
0.00619069
0.00617547
0.00615616
0.0061331
0.00609481
0.00601885
0.00585228
0.00538523
0.00340924
0.000373622
0.00027874
0.00195915
0.00376398
0.00483783
0.00536691
0.0056275
0.00577276
0.00586649
0.00594566
0.00604862
0.00622765
0.00629544
0.00629841
0.0063253
0.00635475
0.00636329
0.0062943
0.00622438
0.00618939
0.00616167
0.00612831
0.00608095
0.00600554
0.00589656
0.00572701
0.00545039
0.00492052
0.00384413
0.00200781
0.000282108
0.000231954
0.00162596
0.00323345
0.00435829
0.00504261
0.00546594
0.00575923
0.00595079
0.00606321
0.00614991
0.00628719
0.00643648
0.00652554
0.00661078
0.00667279
0.00665539
0.00660651
0.00660356
0.00660239
0.00658074
0.00653289
0.00644155
0.00629709
0.0060772
0.00575802
0.005292
0.0045593
0.00337565
0.00170447
0.000237864
0.000209337
0.00146761
0.00287447
0.00401303
0.00483952
0.00544503
0.00590351
0.00622972
0.00642994
0.00655197
0.00667729
0.00684151
0.00700625
0.00710764
0.00717784
0.00715783
0.00715798
0.00722378
0.00732554
0.00740062
0.00740079
0.00727983
0.00703704
0.0066665
0.00615018
0.00546647
0.00456295
0.00330705
0.00167656
0.000214874
0.000188891
0.00135563
0.00271957
0.00389859
0.00483965
0.00557838
0.00614525
0.00658809
0.00692356
0.00717343
0.00733677
0.007438
0.00755896
0.007677
0.0077543
0.00776302
0.00783142
0.00799003
0.00818998
0.00835191
0.00832227
0.00809784
0.00773006
0.00724887
0.00664976
0.00587917
0.00486801
0.00354492
0.00181895
0.000216082
0.00018251
0.00141832
0.00284597
0.00404678
0.00502812
0.00581203
0.0064243
0.00691185
0.0073341
0.0076902
0.00793061
0.00807889
0.00816469
0.00827635
0.00836356
0.00844187
0.00857438
0.00878572
0.00905501
0.00915174
0.00894782
0.00859657
0.00812393
0.00756896
0.00691766
0.00612358
0.00512068
0.00380437
0.00204265
0.000226766
0.000187655
0.00158929
0.00306146
0.00427047
0.00523901
0.00602667
0.00667211
0.00720791
0.00767212
0.00807216
0.00837298
0.00859842
0.00872562
0.00883517
0.00895211
0.00907664
0.00924386
0.00947733
0.00971723
0.00961673
0.00932038
0.00890939
0.00838245
0.0077805
0.00707245
0.00622484
0.00519417
0.00389525
0.00213346
0.00023249
0.000194626
0.00169597
0.00318327
0.00439073
0.00538697
0.00621201
0.00690605
0.00749544
0.00799907
0.00842285
0.00875666
0.00900615
0.00919981
0.00931085
0.00945479
0.0096037
0.00977694
0.0100087
0.0101266
0.00993954
0.0096396
0.00921336
0.00867254
0.00802984
0.00725372
0.00631667
0.0052001
0.0038686
0.00212798
0.000236852
0.000192483
0.00169673
0.003239
0.00450444
0.00554515
0.00642062
0.00716128
0.00778822
0.0083192
0.00876499
0.00912014
0.00938254
0.00960251
0.00973595
0.00989142
0.0100484
0.0101942
0.0103854
0.0104159
0.0102429
0.00995831
0.00954384
0.00902208
0.0083662
0.00754551
0.00652052
0.0052618
0.00378331
0.00203565
0.000235225
0.000185393
0.00167481
0.00330941
0.00466111
0.00579156
0.0067179
0.00747615
0.00811446
0.00865234
0.00910215
0.00946647
0.00974613
0.00996989
0.0101411
0.0103126
0.0104666
0.0105753
0.0106916
0.010679
0.0105245
0.0102641
0.00989099
0.00941064
0.00876969
0.00794226
0.00687103
0.00548927
0.00378573
0.00184905
0.000226314
0.000181598
0.00174768
0.00353398
0.00500116
0.00618461
0.00712132
0.00787432
0.00849996
0.00902003
0.00945611
0.00981416
0.0101059
0.0103489
0.0105622
0.0107587
0.0109151
0.0110049
0.0110164
0.0109598
0.010803
0.0105587
0.0102371
0.0098103
0.0091971
0.00837166
0.00728663
0.00585302
0.00399228
0.00171333
0.000208032
0.000188102
0.00196026
0.00392356
0.00543704
0.00664508
0.00759831
0.00835884
0.00896995
0.00946474
0.00987312
0.0102173
0.0105141
0.0107897
0.0110456
0.0112602
0.0114214
0.0115033
0.0114225
0.0113073
0.0111328
0.0108962
0.0106143
0.0102383
0.00965325
0.0088286
0.00772864
0.00626123
0.0043361
0.0017758
0.0002057
0.000210253
0.0021781
0.00423156
0.00586111
0.00712195
0.00811379
0.00891037
0.009534
0.0100261
0.0104271
0.0107524
0.0110484
0.0113497
0.0116365
0.0118515
0.0120062
0.0120437
0.0119053
0.0117526
0.0115692
0.0113362
0.0110666
0.0107144
0.0101507
0.00930544
0.00817588
0.00665566
0.00467816
0.00206058
0.000215538
0.000221706
0.00214424
0.00440683
0.00622569
0.00761085
0.00868418
0.0095232
0.0101705
0.0106804
0.0111108
0.0114483
0.0117436
0.0120451
0.0123358
0.0125321
0.0126457
0.0126325
0.0124714
0.0123187
0.0121305
0.0118917
0.0116091
0.0112375
0.0106908
0.00981077
0.00858723
0.00699722
0.00489682
0.00229156
0.000240014
0.000219696
0.00208378
0.00448334
0.00646846
0.00800022
0.00919499
0.0101204
0.0108241
0.0113791
0.0118445
0.0122246
0.0125375
0.0128322
0.013107
0.0132793
0.0133258
0.0132941
0.0131501
0.0130151
0.0128108
0.0125369
0.0122143
0.011791
0.0111939
0.0102635
0.00897918
0.00727391
0.00504303
0.00238248
0.000249034
0.000219592
0.002118
0.00461762
0.00663327
0.00822321
0.00950168
0.0105293
0.0113459
0.0120007
0.0125348
0.0129803
0.0133453
0.0136578
0.0139267
0.0140916
0.0140974
0.0140444
0.0139384
0.0138099
0.0135815
0.0132306
0.0128066
0.0122799
0.0115648
0.0105565
0.00920604
0.0074553
0.00516001
0.00238877
0.000251261
0.000223518
0.00222032
0.00476199
0.00679479
0.00842018
0.00974718
0.0108363
0.0117313
0.0124817
0.0131211
0.0136648
0.01412
0.0144927
0.0147917
0.0149725
0.0149768
0.0149061
0.0148294
0.0146814
0.0144099
0.0139582
0.0133797
0.0127014
0.011859
0.0107618
0.0093572
0.00758952
0.00527858
0.00247103
0.000258745
0.00023266
0.00231756
0.00486693
0.0069481
0.00863902
0.0100343
0.0111847
0.012137
0.0129517
0.0136752
0.014317
0.0148716
0.0153334
0.0156904
0.0159142
0.0159713
0.0159067
0.0158384
0.0156296
0.0152726
0.0147367
0.0140162
0.0131695
0.0122006
0.0110175
0.0095537
0.00773857
0.00543827
0.0026636
0.000275475
0.000241218
0.0023734
0.00493585
0.00710377
0.00888815
0.0103739
0.0116056
0.0126312
0.0135064
0.0142929
0.0150153
0.0156542
0.0161963
0.0166171
0.0169088
0.0170647
0.0170464
0.0169792
0.0166571
0.0161582
0.0155574
0.0147575
0.0137868
0.012684
0.0113964
0.00985541
0.00797879
0.00566719
0.00287136
0.000294333
0.00024883
0.00240338
0.00500823
0.00728186
0.00917401
0.010765
0.012099
0.0132148
0.0141626
0.0150141
0.0158033
0.0165085
0.0171142
0.0176027
0.0179775
0.0182347
0.0182594
0.0181681
0.0177521
0.017108
0.0164173
0.0155796
0.0145516
0.013339
0.0119317
0.010287
0.00834007
0.00597979
0.00307516
0.000309938
0.000259088
0.00246212
0.00513563
0.00751265
0.0095143
0.0112162
0.0126629
0.0138806
0.0149166
0.0158357
0.0166816
0.0174473
0.0181197
0.0186927
0.0191588
0.0194712
0.0194234
0.0192358
0.0188366
0.0181297
0.0173563
0.0164723
0.015412
0.0141322
0.0126125
0.0108401
0.00878829
0.00633744
0.00327137
0.000323277
0.000276251
0.00262309
0.0053802
0.00784263
0.00994225
0.0117482
0.0133037
0.0146262
0.0157546
0.0167398
0.0176398
0.0184697
0.01922
0.019892
0.0204494
0.0206878
0.0204526
0.0201668
0.0198097
0.0191466
0.0183545
0.017426
0.0163297
0.0150048
0.013396
0.0114837
0.00926812
0.00666336
0.00341955
0.000335507
0.000298627
0.00288726
0.0057793
0.0083073
0.0104823
0.0123742
0.0140224
0.0154387
0.0166537
0.0177116
0.0186623
0.0195468
0.0203731
0.0211766
0.0218042
0.021815
0.0214099
0.0210476
0.0206287
0.0200955
0.0193714
0.0184164
0.0172832
0.0159125
0.0142283
0.0121831
0.00976077
0.00693493
0.00349955
0.000347011
0.000320538
0.00319359
0.00628618
0.00888954
0.0111258
0.0130809
0.0147974
0.0162893
0.0175827
0.0187107
0.0197109
0.0206273
0.0215091
0.0223768
0.0229026
0.0227348
0.0222734
0.0218005
0.021365
0.0209805
0.0203764
0.0194553
0.0182889
0.0168509
0.015076
0.0129019
0.0102678
0.00719429
0.00355813
0.000357179
0.000340175
0.00345775
0.00677934
0.00951274
0.0118226
0.0138282
0.0155968
0.0171502
0.0185049
0.0196847
0.0207217
0.0216414
0.0224786
0.0231733
0.0233315
0.0231396
0.0227942
0.022432
0.0220579
0.0216459
0.0211588
0.0204146
0.019339
0.0178323
0.0159404
0.0136213
0.0107904
0.00747666
0.00363989
0.000366866
0.000356181
0.00363495
0.00717556
0.0100852
0.0125058
0.0145781
0.0164058
0.018015
0.0194128
0.0206146
0.0216338
0.0224876
0.0231561
0.0235591
0.0235657
0.0234095
0.0232123
0.0229255
0.0225812
0.0221713
0.0216872
0.0211218
0.0202166
0.0187943
0.0168277
0.0143418
0.0113226
0.00778844
0.00375045
0.000376078
0.000370009
0.00372494
0.00747437
0.0105732
0.0131359
0.0153132
0.0172216
0.018891
0.0203282
0.0215303
0.0224759
0.0231727
0.0236091
0.0238063
0.0237156
0.0235746
0.0234165
0.0231815
0.0228617
0.02248
0.0220607
0.0215704
0.0207829
0.0195556
0.0176426
0.0150363
0.0118283
0.00809992
0.00385345
0.000381523
0.000385544
0.00375187
0.00769652
0.0109904
0.0137112
0.0160191
0.0180306
0.019795
0.021321
0.0225389
0.0233265
0.0238272
0.0240217
0.0240451
0.0239145
0.0237706
0.0236013
0.0233707
0.0230716
0.0227202
0.0223249
0.0217855
0.0210094
0.0199022
0.0181486
0.0155898
0.0122402
0.00833591
0.00390624
0.000377272
0.000410443
0.00382794
0.00789176
0.0113557
0.0142251
0.01667
0.0188161
0.020745
0.0223725
0.0235135
0.0241124
0.0244832
0.0245909
0.0244325
0.0242403
0.0240573
0.0238575
0.0236146
0.023318
0.0229587
0.0225292
0.0219248
0.0211226
0.0200193
0.0183673
0.015869
0.0124925
0.00844265
0.0039694
0.000381231
0.000429941
0.00408
0.00817377
0.0116852
0.014654
0.0172343
0.0195304
0.0215888
0.0231828
0.0241557
0.0247121
0.0250278
0.0251061
0.0249207
0.0246895
0.0244555
0.0242124
0.0239335
0.0236034
0.0231885
0.0226674
0.0220063
0.0211967
0.0200834
0.0184375
0.015984
0.0126128
0.00857502
0.00407458
0.000391159
0.000441089
0.00429792
0.0085028
0.0120387
0.0150293
0.017698
0.0200929
0.0221457
0.023625
0.02445
0.0249725
0.0252691
0.0253716
0.0252914
0.0250966
0.024852
0.0245747
0.0242472
0.0238508
0.0233641
0.0227683
0.0220796
0.0212524
0.0201298
0.0184524
0.0160207
0.0127102
0.00871025
0.00415239
0.000397233
0.000458245
0.00441321
0.0088021
0.0124268
0.0154445
0.0181072
0.0205129
0.0225203
0.023893
0.0246116
0.0250766
0.0253606
0.0254959
0.0254876
0.025344
0.0251137
0.0248156
0.0244461
0.0239984
0.0234664
0.0228448
0.0221318
0.0212817
0.0201516
0.01846
0.0160063
0.0127655
0.00881049
0.00423058
0.000400168
0.000485861
0.00458775
0.00912968
0.0128499
0.0159021
0.0185399
0.0208912
0.0228153
0.0240823
0.0247315
0.0251501
0.0254267
0.0255664
0.0255745
0.0254589
0.0252375
0.0249266
0.0245319
0.0240587
0.0235082
0.0228733
0.0221371
0.0212619
0.0201221
0.0184278
0.0159629
0.0127607
0.00884884
0.00428539
0.000400816
0.000497026
0.00492545
0.00960935
0.013349
0.0163953
0.0189852
0.021234
0.0230603
0.0242471
0.0248388
0.0252156
0.025469
0.0256014
0.0256079
0.0254999
0.0252811
0.0249591
0.0245476
0.0240573
0.0234903
0.0228367
0.0220777
0.0211777
0.0200242
0.0183331
0.015872
0.0127037
0.00883745
0.00430678
0.000399274
0.000500569
0.00511908
0.00998584
0.0138339
0.016872
0.0193849
0.0215216
0.0232809
0.0244331
0.0249648
0.025292
0.0255022
0.0256026
0.0256036
0.0254951
0.0252738
0.024945
0.02452
0.0240102
0.0234189
0.0227393
0.0219541
0.0210276
0.0198528
0.0181619
0.0157213
0.0125929
0.00877684
0.00428414
0.000396431
0.000506765
0.00517505
0.0101713
0.0141512
0.0172447
0.0197175
0.0217718
0.0235127
0.0246402
0.0251177
0.0253883
0.0255389
0.0255926
0.0255726
0.0254642
0.025244
0.0249071
0.0244642
0.0239322
0.0233114
0.0225993
0.0217816
0.0208236
0.0196141
0.0179123
0.0155105
0.0124357
0.00867375
0.00423799
0.000391966
0.000507508
0.00522079
0.0102801
0.0143268
0.0174823
0.0199711
0.0219959
0.0237393
0.0248572
0.0252992
0.0255179
0.0256074
0.0256074
0.0255583
0.0254364
0.0252092
0.0248624
0.0244035
0.0238429
0.0231898
0.022439
0.0215791
0.0205732
0.0193121
0.0175928
0.0152414
0.0122374
0.00854058
0.00417646
0.000385815
0.000505885
0.00528859
0.0103727
0.0144413
0.0176239
0.0201441
0.02219
0.023956
0.0250834
0.0255071
0.0256913
0.0257335
0.0256839
0.0255998
0.0254541
0.0252027
0.0248283
0.024338
0.0237453
0.0230489
0.0222533
0.0213397
0.0202691
0.0189489
0.0172193
0.0149344
0.0120127
0.00839034
0.00410312
0.000378913
0.000512253
0.00532639
0.0104253
0.014516
0.0177152
0.0202572
0.022343
0.0241438
0.0253118
0.025738
0.025901
0.0259305
0.0258446
0.0257217
0.0255396
0.0252459
0.0248169
0.0242661
0.0236168
0.022876
0.0220252
0.0210513
0.019913
0.0185391
0.0168154
0.014615
0.0117933
0.00823752
0.00402533
0.000371725
0.000517872
0.00528703
0.01041
0.014554
0.0177806
0.0203381
0.0224615
0.0242837
0.0255037
0.0259697
0.0261324
0.0261975
0.0260955
0.0259284
0.0256926
0.0253368
0.0248337
0.0241977
0.0234664
0.022656
0.0217463
0.0207116
0.0195172
0.0181125
0.0164111
0.0142853
0.0115634
0.00809535
0.00395134
0.000364677
0.000520392
0.00524915
0.0103836
0.0145837
0.0178479
0.0204002
0.0225359
0.0243651
0.025641
0.026187
0.0263623
0.0265024
0.0264233
0.0262078
0.0258964
0.0254568
0.0248603
0.0241226
0.0232872
0.0223923
0.0214205
0.0203353
0.0191062
0.0176916
0.0160132
0.0139404
0.0113125
0.00795359
0.00388439
0.000358036
0.000525712
0.00521099
0.0103945
0.0146612
0.0179502
0.0204757
0.022565
0.0243933
0.0257319
0.0263649
0.0265688
0.0267898
0.0267722
0.0265047
0.0260888
0.0255366
0.0248343
0.0239947
0.0230535
0.0220683
0.0210464
0.0199388
0.0187027
0.0172849
0.0156212
0.013598
0.0110566
0.00780504
0.00381708
0.000351319
0.000531344
0.00524492
0.0104945
0.0147705
0.0180507
0.0205613
0.0226315
0.0244382
0.0257939
0.0264528
0.0267234
0.0269931
0.0270351
0.0267261
0.026194
0.0255153
0.0247031
0.0237744
0.0227525
0.0216965
0.0206433
0.0195367
0.0183226
0.016922
0.0152617
0.0132656
0.0108012
0.00765013
0.00374823
0.000344327
0.000535676
0.00531909
0.0106376
0.0148905
0.0181692
0.0207032
0.0227808
0.0245353
0.0258496
0.0265073
0.0268084
0.0270659
0.0271279
0.0268019
0.0261787
0.0253799
0.0244607
0.0234578
0.0223928
0.0213151
0.0202491
0.0191576
0.0179855
0.0166218
0.0149672
0.0129759
0.0105643
0.00750535
0.003691
0.000338987
0.000531516
0.00540117
0.0107836
0.0150539
0.0183481
0.0209296
0.0229804
0.0246248
0.0258668
0.0265155
0.0268143
0.0270132
0.0270452
0.0267211
0.0260485
0.0251445
0.0241181
0.023082
0.022042
0.0209733
0.0198988
0.0188466
0.0177179
0.0163803
0.0147391
0.0127551
0.0103646
0.00737594
0.00364903
0.000335247
0.000526319
0.00537674
0.0108516
0.01524
0.0185958
0.0211732
0.02311
0.0246224
0.0257906
0.0264502
0.0267432
0.026865
0.0268525
0.0265099
0.0257991
0.024841
0.0237818
0.0227235
0.0216708
0.020646
0.0196393
0.0186053
0.0174743
0.0161515
0.0145462
0.0125887
0.0102041
0.00724471
0.00357471
0.000333075
0.000533305
0.0052373
0.0108182
0.0153999
0.0188094
0.0212726
0.0230649
0.0244817
0.0255916
0.026259
0.0265558
0.0266207
0.0265382
0.0261836
0.0254409
0.0244724
0.0234581
0.0224386
0.0214121
0.0203892
0.0193876
0.0183719
0.0172469
0.0159342
0.0143549
0.0124272
0.0100522
0.00709863
0.00346725
0.000332175
0.000537895
0.00518525
0.010808
0.0155576
0.0188806
0.0211671
0.0228602
0.0242088
0.0252577
0.0259215
0.0262214
0.026254
0.0261035
0.0257033
0.0249893
0.0240821
0.0231347
0.022186
0.0212165
0.0202203
0.0192183
0.0181688
0.0170259
0.0157146
0.0141516
0.0122493
0.00989616
0.00696623
0.00338938
0.00033145
0.000537195
0.00519437
0.0107908
0.0155919
0.0187682
0.0209146
0.0225385
0.023821
0.0247985
0.0254363
0.0257299
0.0257488
0.025557
0.025145
0.024487
0.023669
0.0227976
0.0219278
0.0210387
0.0200925
0.0190966
0.0180435
0.0168758
0.0155288
0.0139461
0.0120483
0.00973102
0.00686392
0.00337796
0.000332476
0.000536749
0.00515042
0.0106069
0.0153422
0.0184628
0.0205587
0.0221233
0.0233269
0.0242253
0.0248139
0.0250951
0.0251186
0.0249221
0.0245225
0.0239296
0.023206
0.0224259
0.0216337
0.0208206
0.0199583
0.0190074
0.0179665
0.0168
0.0154352
0.0138054
0.0118653
0.00954627
0.00675252
0.003382
0.000329521
0.000539455
0.00502784
0.0102424
0.0147843
0.0179774
0.0200956
0.0216068
0.0227328
0.0235504
0.0240856
0.0243563
0.0243933
0.0242218
0.0238559
0.0233264
0.0226881
0.0219939
0.0212793
0.0205489
0.0197766
0.0189093
0.0179287
0.0167835
0.0154181
0.0137714
0.011773
0.00938277
0.00660098
0.00333188
0.000326999
0.000529585
0.00493518
0.00984732
0.0140746
0.0173644
0.019509
0.0210015
0.0220648
0.0228132
0.0232966
0.023559
0.0236135
0.0234795
0.0231574
0.0226917
0.022127
0.0215061
0.0208652
0.0202221
0.0195276
0.0187819
0.0178844
0.0168022
0.0154583
0.0138168
0.0117992
0.00932585
0.00646013
0.00322213
0.000322576
0.000506664
0.00492209
0.00951262
0.0133964
0.0165247
0.0188071
0.0203276
0.0213563
0.0220532
0.0224947
0.0227458
0.0228145
0.02271
0.0224333
0.0220265
0.0215241
0.0209674
0.0204018
0.0198519
0.0192554
0.0186031
0.0178279
0.01685
0.0155604
0.0139312
0.0119029
0.00937982
0.00639274
0.00312203
0.000319589
0.000489477
0.00474071
0.0091471
0.0127856
0.0157413
0.0180205
0.019551
0.0206109
0.0212902
0.0217079
0.021941
0.0220102
0.0219255
0.0216902
0.0213342
0.0208872
0.020397
0.0199148
0.0194539
0.0189681
0.0184131
0.017746
0.0169642
0.0158046
0.0141437
0.012067
0.00948126
0.00638825
0.00308462
0.000320756
0.000468308
0.00448265
0.00884648
0.0123698
0.0151848
0.0173685
0.0189139
0.0198834
0.0205561
0.0209598
0.021168
0.0212232
0.0211441
0.0209377
0.0206239
0.0202354
0.0198198
0.0194218
0.0190381
0.0186406
0.0182201
0.0177344
0.0171142
0.0160436
0.0144393
0.0122874
0.00960523
0.00645328
0.00314007
0.000326878
0.00045116
0.0043751
0.0087264
0.012255
0.0150603
0.0170716
0.0184173
0.0192757
0.0198981
0.0202758
0.020454
0.0204861
0.020396
0.0202016
0.0199246
0.0195939
0.0192552
0.0189436
0.0186669
0.0184073
0.0181045
0.0176203
0.0169425
0.0160438
0.014616
0.0125208
0.00976395
0.00657142
0.00324115
0.000338933
0.000459627
0.00428319
0.00873113
0.0124043
0.0150135
0.0167709
0.017976
0.0187927
0.0193469
0.0196878
0.0198424
0.0198551
0.0197518
0.01956
0.0193156
0.0190548
0.0188116
0.0186204
0.01846
0.0182281
0.0178345
0.0172823
0.0166067
0.0157948
0.0145744
0.0126969
0.00996287
0.006723
0.00333952
0.000348978
0.000475143
0.00430837
0.00871454
0.0122336
0.0145611
0.0161414
0.0173086
0.0181964
0.0188092
0.0191764
0.0193501
0.0193703
0.0192762
0.0191067
0.0189113
0.0187242
0.0185522
0.0183873
0.0181737
0.0178654
0.0174425
0.0168972
0.0162278
0.0154153
0.0143341
0.0126714
0.0101774
0.00695706
0.00348086
0.000354531
0.000473216
0.00432826
0.00858502
0.0118261
0.0139071
0.0153223
0.0164343
0.0173313
0.018009
0.0184495
0.0186866
0.0187619
0.0187193
0.0186049
0.0184616
0.0183112
0.0181537
0.0179777
0.0177547
0.0174526
0.0170414
0.0165027
0.0158277
0.0150034
0.0139586
0.0125034
0.0102992
0.00730125
0.00371712
0.000350572
0.000463747
0.00434633
0.00841957
0.0113948
0.0132803
0.0145411
0.0155581
0.0163854
0.0170259
0.0174779
0.0177512
0.0178809
0.0179109
0.0178815
0.0178224
0.0177455
0.0176479
0.0175143
0.0173188
0.0170341
0.0166344
0.0160995
0.0154163
0.0145802
0.0135519
0.0122349
0.0102802
0.00745116
0.00370325
0.000350734
0.000451597
0.00425672
0.00819379
0.0109723
0.0126889
0.0138207
0.0147392
0.0154813
0.0160641
0.016493
0.0167841
0.0169696
0.0170814
0.0171461
0.0171774
0.0171764
0.0171363
0.0170426
0.0168749
0.0166098
0.0162216
0.0156877
0.0149967
0.0141489
0.013137
0.0119094
0.0101323
0.00740563
0.00357541
0.00034814
0.000440583
0.00412978
0.00793557
0.0105474
0.0121193
0.0131474
0.0139777
0.0146444
0.0151793
0.0155894
0.0159037
0.0161438
0.0163279
0.0164686
0.0165691
0.0166259
0.0166315
0.0165731
0.0164322
0.0161852
0.0158053
0.015269
0.0145689
0.0137089
0.0127078
0.0115448
0.0098775
0.00724249
0.00346301
0.000341474
0.000430037
0.00399225
0.00766608
0.0101281
0.0115717
0.012513
0.0132693
0.0138782
0.0143772
0.0147852
0.0151298
0.0154208
0.0156618
0.0158568
0.0160067
0.0161067
0.0161484
0.016119
0.0159994
0.0157651
0.0153889
0.0148479
0.0141392
0.0132692
0.012272
0.0111412
0.00955179
0.00698074
0.00331272
0.000332074
0.000416803
0.00387233
0.00741954
0.00972678
0.0110448
0.0119135
0.0126115
0.0131824
0.0136641
0.0140872
0.0144692
0.0148048
0.015086
0.0153164
0.015499
0.015629
0.0156967
0.0156877
0.0155818
0.0153537
0.0149772
0.014432
0.0137186
0.012847
0.0118596
0.0107524
0.00920205
0.00669332
0.00315406
0.000333068
0.000403357
0.00378123
0.00719783
0.0093402
0.0105402
0.0113468
0.0120036
0.0125578
0.0130455
0.0135006
0.013924
0.0142937
0.0145982
0.0148477
0.0150491
0.0151973
0.0152806
0.0152828
0.0151824
0.0149544
0.0145747
0.0140279
0.0133148
0.012452
0.0114845
0.0104119
0.00891925
0.00653419
0.00319373
0.000338823
0.000385393
0.00370662
0.00699191
0.00896182
0.0100508
0.0108112
0.0114472
0.0120074
0.0125255
0.0130261
0.0134886
0.0138783
0.0141905
0.0144459
0.014655
0.0148111
0.0149003
0.0149047
0.0148025
0.0145694
0.0141847
0.0136384
0.0129306
0.0120849
0.011147
0.0101203
0.00871128
0.00644305
0.0032453
0.000339251
0.000357483
0.00359551
0.00675808
0.00856872
0.0095718
0.0103091
0.0109484
0.0115371
0.0121055
0.0126585
0.0131491
0.013543
0.0138518
0.014103
0.0143112
0.0144664
0.014553
0.014552
0.0144417
0.0141999
0.0138092
0.0132643
0.0125661
0.0117424
0.0108403
0.00986082
0.0085239
0.00634021
0.00322905
0.000338952
0.000330979
0.00340378
0.00643383
0.00814588
0.00910806
0.00985083
0.0105174
0.0111534
0.011784
0.0123835
0.0128919
0.0132703
0.0135657
0.0138085
0.0140098
0.0141575
0.0142346
0.014222
0.014099
0.0138458
0.013449
0.012906
0.0122213
0.011423
0.0105592
0.00962747
0.00834959
0.00623487
0.00320286
0.000340069
0.0003124
0.00320232
0.00605271
0.00771527
0.00867958
0.00945238
0.0101632
0.0108584
0.0115514
0.0121898
0.012693
0.0130421
0.01332
0.0135524
0.0137429
0.0138778
0.0139404
0.0139118
0.013773
0.0135071
0.0131042
0.0125647
0.0118967
0.0111269
0.0103028
0.0094167
0.00819939
0.00615119
0.00316082
0.000340473
0.000296942
0.00304534
0.0057086
0.00731532
0.00830362
0.00912498
0.00989197
0.010652
0.011396
0.0120514
0.0125262
0.0128468
0.0131068
0.013327
0.0135033
0.013622
0.0136664
0.0136189
0.0134624
0.0131836
0.0127754
0.0122412
0.0115918
0.0108523
0.0100674
0.00922693
0.00807297
0.00611636
0.00316815
0.000337677
0.000282867
0.00290698
0.0054155
0.0069686
0.00799465
0.00887446
0.00970616
0.0105269
0.0113076
0.011942
0.0123761
0.0126744
0.0129193
0.0131256
0.0132856
0.0133855
0.0134096
0.0133413
0.0131669
0.0128756
0.0124631
0.0119353
0.0113052
0.0105953
0.0098458
0.00904819
0.00796361
0.00611133
0.00318445
0.000324229
0.000270027
0.0027743
0.00516001
0.00667702
0.00775834
0.0087064
0.00960603
0.010476
0.0112558
0.011848
0.0122402
0.0125206
0.0127521
0.0129435
0.0130856
0.0131652
0.0131681
0.0130788
0.0128872
0.0125845
0.0121687
0.0116478
0.0110358
0.0103516
0.00962963
0.00886308
0.0078357
0.00607339
0.00315768
0.000306291
0.000260266
0.00259068
0.00492598
0.00645689
0.00760726
0.00862761
0.009589
0.0104771
0.0112205
0.011761
0.0121205
0.0123853
0.0126024
0.0127774
0.0129005
0.0129598
0.0129412
0.0128326
0.0126251
0.0123127
0.0118953
0.0113818
0.0107865
0.0101238
0.00942037
0.00867022
0.00766677
0.00592527
0.00301563
0.000292922
0.000256524
0.00247144
0.00476275
0.0063264
0.00754622
0.00863412
0.00963234
0.0104999
0.0111903
0.0116853
0.0120201
0.0122674
0.0124678
0.0126251
0.0127293
0.0127686
0.0127299
0.0126043
0.0123836
0.0120641
0.0116476
0.0111431
0.0105645
0.00992201
0.00923258
0.00848397
0.00747374
0.00572298
0.00288207
0.00028107
0.000255211
0.00250795
0.00470793
0.00629107
0.00756973
0.008703
0.00970068
0.0105239
0.0111656
0.0116249
0.0119362
0.0121635
0.0123458
0.0124854
0.0125714
0.0125924
0.0125361
0.0123963
0.0121659
0.0118427
0.0114301
0.0109373
0.010377
0.0097567
0.00908324
0.00833251
0.00728727
0.00551241
0.00273838
0.000274164
0.000254352
0.00249931
0.0047038
0.00632722
0.00765245
0.00879978
0.00976384
0.0105375
0.0111442
0.011574
0.0118611
0.0120689
0.012234
0.0123571
0.0124271
0.0124322
0.0123614
0.0122108
0.0119743
0.0116514
0.0112461
0.0107678
0.0102284
0.00963332
0.00898252
0.00823672
0.00716276
0.00535517
0.00266539
0.000273623
0.000250839
0.00248634
0.00473548
0.00641515
0.00776539
0.00889138
0.00980622
0.0105395
0.0111218
0.0115277
0.0117907
0.0119809
0.0121318
0.0122409
0.0122972
0.012289
0.0122072
0.0120491
0.0118102
0.011491
0.011096
0.0106347
0.0101177
0.00955041
0.00892616
0.00819124
0.00710924
0.00528661
0.00267144
0.000270542
0.000243182
0.00249031
0.00478944
0.00651783
0.00787355
0.00896123
0.00983063
0.0105351
0.0111011
0.0114858
0.0117255
0.0119004
0.0120403
0.0121376
0.0121823
0.0121634
0.0120734
0.0119109
0.0116728
0.0113604
0.010978
0.0105346
0.01004
0.0095004
0.008904
0.00818213
0.00708847
0.00524575
0.00265021
0.00026924
0.000237043
0.00249135
0.00482186
0.00659764
0.00796174
0.00901431
0.00984838
0.010533
0.0110852
0.0114477
0.0116672
0.0118294
0.0119602
0.0120473
0.0120813
0.0120537
0.0119582
0.011794
0.0115596
0.0112565
0.010888
0.010462
0.00998799
0.00947398
0.00890457
0.00819574
0.00709077
0.00521876
0.00262434
0.000268395
0.00023632
0.00244475
0.00479559
0.00663301
0.0080304
0.00906563
0.00987162
0.010537
0.0110701
0.0114098
0.0116147
0.0117674
0.0118892
0.0119661
0.01199
0.0119555
0.011857
0.0116941
0.0114658
0.0111741
0.0108202
0.0104109
0.00995474
0.00946273
0.00891827
0.00822179
0.00711113
0.00522835
0.00263232
0.000265859
0.000231237
0.00240399
0.00474056
0.00663252
0.00807817
0.00911442
0.00989893
0.0105392
0.0110465
0.0113663
0.0115639
0.0117095
0.0118207
0.0118865
0.0119013
0.0118617
0.0117631
0.0116045
0.011385
0.0111065
0.0107684
0.0103748
0.00993347
0.00945846
0.00893461
0.00824927
0.00713258
0.00525895
0.00266472
0.000258096
0.000226434
0.00237441
0.00471138
0.00663721
0.00810679
0.00914541
0.00991581
0.0105278
0.0110066
0.0113111
0.0115074
0.0116458
0.0117444
0.0117989
0.0118065
0.0117643
0.0116688
0.0115177
0.0113098
0.0110462
0.010725
0.0103469
0.00991772
0.00945464
0.00894545
0.00826246
0.00712983
0.00524898
0.00266393
0.000249884
0.000226194
0.00236779
0.00471127
0.00665346
0.00812403
0.00915564
0.00990724
0.0104867
0.0109394
0.0112362
0.011434
0.011564
0.0116499
0.0116946
0.0116977
0.0116563
0.0115668
0.0114261
0.0112322
0.0109852
0.010682
0.0103197
0.00990123
0.00944502
0.00894331
0.00825777
0.0070957
0.00518841
0.00263609
0.00024784
0.000227626
0.00236764
0.00471923
0.00666054
0.00811535
0.00912807
0.00985581
0.0104055
0.0108337
0.0111305
0.0113303
0.011453
0.0115292
0.0115682
0.0115706
0.011533
0.0114518
0.0113232
0.0111446
0.0109153
0.0106307
0.0102849
0.00987701
0.00942406
0.00892695
0.00823922
0.00705657
0.0051184
0.00259988
0.000251253
0.000228223
0.00237464
0.00473318
0.00665709
0.00807244
0.00905297
0.00975328
0.0102783
0.010688
0.0109891
0.0111886
0.0113077
0.0113798
0.0114189
0.0114241
0.0113923
0.0113202
0.0112037
0.0110402
0.0108286
0.0105619
0.0102328
0.00983601
0.00938362
0.00888642
0.00820736
0.00702677
0.00507871
0.00258642
0.000250549
0.000227733
0.00237897
0.00473729
0.00662312
0.00798338
0.00892829
0.00960772
0.0101154
0.0105087
0.0108119
0.0110099
0.0111312
0.0112052
0.0112486
0.0112593
0.0112341
0.0111699
0.0110636
0.0109132
0.0107172
0.0104665
0.0101535
0.00976871
0.0093171
0.00881189
0.00814789
0.0069962
0.005065
0.0025784
0.000249492
0.000227251
0.00237402
0.00472044
0.00654181
0.00784095
0.00875577
0.00942877
0.00992988
0.0103098
0.0106055
0.0108027
0.010931
0.011011
0.0110609
0.0110781
0.0110586
0.011
0.0109006
0.0107598
0.0105755
0.0103378
0.0100384
0.00966643
0.00921848
0.00869837
0.00804483
0.00694551
0.00505892
0.00257376
0.00024862
0.000227627
0.00236684
0.00465452
0.00639285
0.00764537
0.00855071
0.00922652
0.00972713
0.0101003
0.0103856
0.0105802
0.0107159
0.0108027
0.0108586
0.0108812
0.010866
0.0108104
0.0107143
0.0105792
0.0104017
0.0101729
0.00988315
0.00952249
0.00907986
0.00854468
0.00788699
0.00684123
0.00504969
0.00257621
0.000248129
0.00022834
0.00232168
0.00452279
0.00619162
0.00741685
0.00832528
0.00900905
0.00951325
0.00987948
0.0101569
0.0103496
0.0104913
0.0105831
0.0106422
0.010668
0.0106552
0.0106011
0.0105058
0.0103725
0.0101974
0.00997178
0.00968676
0.00933411
0.00890021
0.00835979
0.00768821
0.00668686
0.00501814
0.00257342
0.00024779
0.000226688
0.00224067
0.00434353
0.00595607
0.00716684
0.00808666
0.00878433
0.0092971
0.00965724
0.0099178
0.0101097
0.0102549
0.0103506
0.0104102
0.0104363
0.0104238
0.0103704
0.0102779
0.0101465
0.00997065
0.00974288
0.0094557
0.00910432
0.00867864
0.00814574
0.00746378
0.00648905
0.00494628
0.00257524
0.000248443
0.000220976
0.00213355
0.00413741
0.00571178
0.00692166
0.00785443
0.00856231
0.00907251
0.00941463
0.0096592
0.00985761
0.010008
0.0101047
0.0101619
0.0101867
0.0101745
0.0101234
0.010034
0.00990306
0.00972456
0.00948945
0.00919123
0.00882871
0.00839982
0.00787592
0.00719291
0.00625062
0.00479867
0.00254393
0.000251211
0.000210674
0.00202525
0.0039604
0.00551537
0.00671739
0.00764124
0.00834844
0.00884342
0.00918082
0.0094009
0.00957843
0.00973191
0.00983752
0.00989616
0.00992112
0.00991031
0.00986252
0.0097764
0.0096469
0.00946579
0.00922084
0.0089054
0.0085191
0.00806511
0.00752804
0.00684776
0.00593263
0.00454442
0.00243825
0.000249067
0.000200837
0.00196135
0.00385453
0.0053717
0.00653481
0.00743247
0.00812057
0.00861759
0.00896978
0.00919843
0.00933148
0.00944381
0.00955235
0.00961891
0.00964551
0.00963897
0.00959778
0.00951689
0.00938924
0.00920496
0.00895074
0.00861895
0.00820732
0.00771688
0.00713955
0.00643536
0.0055197
0.00419671
0.00224574
0.000239606
0.00019747
0.00192187
0.00377086
0.00522959
0.00633228
0.00718889
0.00785697
0.00836184
0.00873606
0.00900242
0.00915857
0.0092315
0.00929699
0.00935885
0.00938483
0.00938309
0.00934849
0.00927244
0.00914542
0.00895705
0.00869547
0.00835287