/*--------------------------------*- C++ -*----------------------------------*\
| =========                 |                                                 |
| \\      /  F ield         | OpenFOAM: The Open Source CFD Toolbox           |
|  \\    /   O peration     | Version:  v1606+                                |
|   \\  /    A nd           | Web:      www.OpenFOAM.com                      |
|    \\/     M anipulation  |                                                 |
\*---------------------------------------------------------------------------*/
FoamFile
{
    version     2.0;
    format      ascii;
    class       volScalarField;
    location    "0.95";
    object      p;
}
// * * * * * * * * * * * * * * * * * * * * * * * * * * * * * * * * * * * * * //

dimensions      [1 -1 -2 0 0 0 0];

internalField   nonuniform List<scalar> 
6000
(
107159
107162
107170
107180
107190
107198
107202
107204
107208
107216
107226
107236
107246
107255
107262
107268
107272
107274
107274
107274
107273
107273
107277
107283
107290
107292
107287
107278
107270
107266
107042
107051
107060
107073
107087
107101
107116
107128
107140
107151
107163
107175
107186
107196
107205
107211
107214
107216
107216
107215
107213
107211
107209
107206
107202
107194
107183
107169
107156
107144
106955
106962
106970
106984
107004
107029
107058
107080
107096
107110
107124
107137
107149
107160
107170
107177
107180
107181
107180
107178
107175
107171
107168
107160
107146
107124
107100
107079
107066
107056
106906
106905
106905
106905
106910
106925
106955
106993
107022
107044
107060
107074
107088
107101
107112
107121
107125
107126
107125
107121
107117
107109
107097
107075
107047
107023
107011
107007
107006
107007
106880
106877
106874
106869
106865
106865
106873
106896
106933
106965
106984
107000
107014
107027
107039
107049
107055
107057
107056
107052
107047
107036
107014
106982
106965
106963
106967
106972
106976
106978
106860
106859
106855
106848
106843
106839
106838
106840
106852
106875
106891
106902
106914
106927
106941
106955
106964
106969
106969
106966
106966
106957
106935
106925
106927
106934
106943
106950
106954
106956
106844
106842
106838
106831
106826
106822
106819
106815
106814
106816
106822
106829
106837
106848
106859
106870
106878
106881
106880
106880
106883
106887
106889
106895
106903
106912
106923
106931
106936
106937
106825
106824
106820
106814
106809
106806
106803
106799
106796
106796
106799
106805
106812
106821
106831
106840
106847
106850
106849
106849
106850
106854
106863
106873
106882
106892
106902
106912
106917
106919
106800
106801
106800
106797
106793
106789
106787
106785
106784
106785
106788
106794
106800
106809
106819
106829
106837
106841
106840
106839
106839
106842
106847
106854
106862
106871
106881
106890
106896
106898
106766
106769
106776
106779
106778
106773
106771
106770
106770
106772
106776
106782
106788
106795
106804
106814
106825
106832
106833
106831
106831
106832
106834
106838
106843
106851
106859
106866
106870
106872
106717
106720
106735
106754
106759
106757
106754
106753
106753
106755
106760
106766
106771
106775
106781
106790
106802
106816
106823
106822
106821
106821
106822
106823
106826
106832
106838
106840
106842
106842
106643
106647
106666
106700
106728
106732
106729
106727
106727
106728
106733
106739
106741
106741
106744
106752
106767
106787
106807
106812
106811
106811
106811
106811
106812
106815
106817
106813
106810
106808
106547
106552
106572
106610
106660
106687
106690
106687
106685
106685
106687
106689
106687
106686
106689
106700
106720
106748
106778
106797
106800
106800
106799
106799
106799
106800
106799
106785
106774
106770
106436
106439
106460
106495
106550
106603
106625
106626
106622
106619
106614
106608
106607
106610
106618
106634
106660
106696
106737
106771
106786
106789
106788
106787
106787
106789
106781
106747
106729
106721
106319
106325
106344
106373
106419
106476
106521
106535
106532
106525
106513
106504
106507
106517
106532
106553
106584
106624
106674
106726
106761
106774
106775
106774
106774
106773
106738
106690
106664
106653
106211
106221
106240
106262
106291
106332
106378
106410
106417
106411
106399
106390
106396
106411
106431
106455
106487
106525
106573
106628
106696
106739
106751
106752
106751
106732
106667
106609
106576
106562
106122
106131
106144
106155
106168
106191
106224
106259
106282
106286
106280
106275
106281
106296
106318
106344
106374
106410
106453
106499
106558
106631
106683
106700
106692
106637
106561
106501
106467
106451
106037
106047
106049
106045
106043
106051
106073
106104
106133
106152
106158
106157
106162
106177
106199
106226
106260
106301
106342
106374
106414
106469
106525
106558
106546
106486
106419
106368
106337
106323
105948
105959
105958
105943
105930
105924
105928
105952
105982
106009
106028
106034
106039
106053
106075
106104
106145
106197
106237
106260
106279
106305
106331
106348
106337
106300
106252
106213
106188
106177
105854
105861
105864
105849
105826
105811
105802
105808
105832
105861
105887
105902
105910
105923
105945
105974
106014
106068
106101
106125
106131
106130
106135
106137
106126
106102
106070
106041
106022
106015
105750
105750
105748
105743
105721
105701
105689
105680
105688
105714
105741
105761
105774
105787
105806
105830
105876
105910
105932
105947
105948
105939
105933
105927
105916
105898
105876
105856
105842
105837
105624
105618
105615
105617
105610
105590
105577
105560
105549
105568
105594
105617
105633
105647
105663
105683
105728
105743
105753
105755
105748
105736
105726
105716
105704
105689
105673
105659
105649
105646
105476
105471
105474
105484
105488
105474
105459
105438
105418
105428
105451
105473
105489
105504
105520
105541
105564
105569
105567
105558
105544
105529
105515
105502
105488
105474
105462
105452
105446
105444
105314
105313
105323
105339
105352
105346
105330
105309
105296
105297
105313
105332
105347
105360
105377
105402
105405
105394
105378
105359
105339
105319
105301
105284
105268
105254
105243
105237
105235
105235
105143
105137
105156
105182
105206
105211
105193
105180
105174
105170
105180
105194
105206
105216
105231
105258
105243
105214
105185
105157
105131
105107
105085
105064
105045
105029
105019
105018
105020
105022
104964
104956
104979
105014
105054
105077
105066
105060
105053
105046
105050
105059
105067
105073
105082
105095
105067
105026
104987
104952
104922
104896
104872
104850
104829
104811
104798
104798
104804
104812
104778
104785
104804
104842
104897
104944
104955
104948
104936
104923
104922
104925
104927
104929
104937
104925
104881
104830
104782
104743
104711
104686
104667
104652
104637
104622
104606
104598
104600
104611
104623
104635
104646
104675
104733
104798
104840
104839
104823
104805
104797
104792
104786
104781
104785
104751
104690
104627
104573
104529
104496
104477
104470
104471
104472
104469
104461
104442
104434
104434
104502
104511
104521
104535
104576
104641
104695
104719
104710
104685
104671
104658
104643
104634
104620
104566
104492
104419
104356
104306
104271
104256
104266
104287
104311
104327
104332
104316
104299
104287
104396
104402
104410
104416
104435
104482
104537
104577
104586
104563
104541
104522
104501
104482
104444
104373
104290
104208
104133
104070
104026
104010
104035
104077
104122
104162
104190
104197
104177
104168
104284
104290
104297
104303
104310
104336
104379
104420
104445
104438
104406
104381
104354
104322
104264
104183
104092
103997
103907
103827
103767
103749
103784
103847
103915
103980
104034
104070
104064
104061
104164
104171
104178
104187
104196
104202
104227
104261
104285
104294
104267
104237
104204
104158
104089
104001
103902
103796
103691
103596
103532
103531
103561
103628
103714
103799
103873
103932
103956
103952
104037
104043
104051
104063
104077
104077
104083
104103
104124
104135
104122
104092
104054
104000
103925
103833
103728
103614
103504
103414
103372
103384
103411
103459
103539
103632
103720
103792
103843
103845
103904
103908
103914
103924
103933
103940
103940
103951
103968
103979
103974
103950
103910
103852
103776
103683
103576
103464
103366
103311
103299
103304
103320
103352
103408
103490
103579
103657
103715
103741
103765
103765
103766
103769
103770
103776
103785
103798
103814
103831
103833
103813
103774
103716
103642
103554
103454
103356
103294
103273
103273
103273
103276
103288
103324
103383
103459
103534
103591
103624
103611
103612
103612
103609
103602
103602
103617
103637
103660
103690
103703
103688
103650
103596
103528
103450
103371
103303
103269
103263
103265
103264
103261
103261
103274
103308
103364
103427
103479
103508
103448
103458
103461
103458
103450
103448
103460
103475
103512
103560
103589
103580
103545
103494
103433
103371
103318
103278
103260
103260
103261
103259
103256
103253
103254
103264
103295
103343
103388
103413
103369
103372
103374
103375
103376
103379
103384
103395
103424
103464
103496
103491
103460
103410
103358
103315
103282
103261
103256
103257
103257
103255
103253
103250
103248
103249
103258
103283
103319
103342
103352
103352
103353
103353
103354
103357
103359
103366
103380
103400
103423
103420
103391
103344
103303
103277
103260
103255
103255
103254
103253
103252
103250
103248
103246
103245
103246
103254
103272
103291
103350
103350
103350
103350
103352
103353
103355
103357
103361
103370
103378
103367
103337
103296
103269
103258
103254
103253
103253
103252
103250
103249
103248
103246
103245
103244
103243
103245
103253
103261
103350
103350
103350
103350
103351
103352
103353
103353
103353
103353
103352
103335
103304
103273
103261
103252
103252
103251
103250
103249
103247
103246
103245
103244
103243
103242
103242
103242
103246
103248
103349
103349
103349
103349
103350
103350
103350
103350
103350
103346
103337
103315
103281
103258
103251
103250
103249
103248
103247
103246
103245
103243
103242
103242
103241
103240
103240
103240
103243
103242
103348
103348
103348
103348
103348
103349
103349
103349
103349
103344
103331
103306
103272
103252
103248
103248
103246
103245
103244
103243
103242
103241
103240
103239
103239
103238
103238
103239
103241
103238
103347
103347
103347
103347
103347
103347
103348
103347
103348
103346
103329
103303
103269
103249
103245
103245
103244
103243
103242
103241
103240
103238
103238
103237
103237
103236
103236
103236
103238
103238
103346
103346
103346
103346
103346
103346
103346
103346
103347
103347
103331
103303
103268
103246
103242
103242
103241
103240
103239
103239
103238
103236
103235
103235
103234
103234
103234
103234
103235
103242
103345
103345
103345
103345
103345
103345
103345
103345
103345
103348
103334
103308
103272
103245
103239
103239
103238
103237
103237
103236
103235
103234
103233
103233
103232
103232
103232
103232
103232
103239
103344
103344
103344
103344
103344
103344
103344
103344
103344
103348
103340
103316
103284
103247
103236
103237
103236
103235
103234
103233
103233
103232
103231
103230
103230
103230
103230
103230
103229
103233
103343
103343
103343
103343
103343
103343
103343
103343
103343
103345
103344
103322
103292
103252
103236
103234
103233
103232
103231
103231
103230
103230
103229
103228
103228
103228
103227
103227
103227
103230
103342
103342
103342
103342
103342
103342
103342
103342
103342
103343
103345
103327
103296
103257
103236
103232
103231
103229
103228
103228
103227
103228
103227
103226
103226
103226
103225
103225
103225
103227
103340
103340
103340
103340
103340
103341
103341
103341
103341
103342
103347
103334
103303
103265
103236
103229
103228
103226
103225
103224
103224
103225
103224
103224
103224
103224
103223
103223
103223
103225
103339
103339
103339
103339
103339
103339
103340
103340
103340
103341
103344
103342
103314
103276
103239
103226
103225
103223
103222
103220
103220
103220
103221
103222
103221
103221
103220
103220
103220
103222
103338
103338
103338
103338
103338
103338
103338
103339
103339
103340
103342
103347
103326
103288
103245
103226
103222
103220
103218
103216
103215
103214
103216
103217
103217
103217
103217
103216
103216
103216
103337
103337
103337
103337
103337
103337
103337
103337
103338
103339
103340
103347
103339
103302
103257
103230
103220
103216
103214
103212
103210
103208
103208
103209
103209
103210
103210
103210
103209
103207
103335
103335
103335
103335
103335
103336
103336
103336
103337
103337
103338
103343
103349
103319
103276
103237
103218
103212
103209
103207
103204
103202
103200
103199
103200
103200
103201
103201
103200
103197
103334
103334
103334
103334
103334
103334
103334
103335
103335
103335
103336
103337
103340
103326
103288
103239
103215
103208
103205
103202
103200
103197
103195
103193
103192
103192
103192
103192
103191
103189
103333
103333
103333
103333
103333
103333
103333
103333
103334
103334
103333
103332
103328
103314
103277
103235
103212
103204
103200
103197
103195
103193
103191
103189
103187
103186
103185
103185
103184
103183
103332
103332
103332
103332
103332
103332
103332
103332
103332
103332
103331
103328
103318
103298
103267
103233
103210
103200
103196
103193
103191
103189
103187
103186
103184
103183
103181
103180
103180
103180
103330
103330
103330
103330
103330
103330
103331
103331
103331
103330
103329
103324
103311
103290
103262
103232
103208
103196
103191
103189
103187
103185
103184
103183
103181
103180
103179
103178
103178
103179
103329
103329
103329
103329
103329
103329
103329
103329
103329
103329
103327
103320
103304
103283
103258
103232
103207
103193
103188
103185
103183
103182
103181
103180
103179
103178
103177
103177
103177
103178
103328
103328
103328
103328
103328
103328
103328
103328
103328
103327
103324
103316
103299
103278
103255
103232
103207
103190
103184
103182
103180
103179
103179
103178
103177
103177
103176
103176
103176
103177
103327
103327
103327
103327
103327
103327
103327
103327
103327
103326
103322
103311
103294
103273
103253
103231
103207
103188
103181
103179
103177
103177
103176
103176
103175
103175
103175
103175
103175
103175
103325
103325
103325
103325
103325
103325
103326
103326
103326
103324
103319
103306
103289
103269
103250
103230
103207
103186
103178
103176
103175
103174
103174
103174
103174
103173
103173
103173
103174
103174
103324
103324
103324
103324
103324
103324
103324
103325
103324
103322
103316
103302
103284
103266
103247
103229
103207
103185
103176
103173
103173
103172
103172
103172
103172
103172
103172
103172
103172
103173
103323
103323
103323
103323
103323
103323
103323
103323
103323
103321
103312
103297
103279
103262
103245
103227
103206
103184
103174
103171
103171
103170
103170
103171
103171
103171
103171
103171
103171
103172
103322
103322
103322
103322
103322
103322
103322
103322
103322
103319
103309
103292
103275
103258
103242
103224
103205
103183
103172
103169
103169
103169
103169
103169
103169
103170
103170
103170
103170
103170
103321
103321
103321
103321
103321
103321
103321
103321
103321
103317
103305
103288
103271
103255
103238
103221
103203
103182
103171
103167
103167
103167
103167
103167
103168
103168
103169
103169
103169
103169
103320
103320
103320
103320
103320
103320
103320
103320
103320
103315
103301
103284
103267
103251
103235
103218
103199
103180
103169
103166
103165
103165
103166
103166
103166
103167
103168
103168
103168
103168
103319
103319
103319
103319
103319
103319
103319
103319
103319
103312
103297
103280
103263
103247
103231
103214
103196
103178
103167
103164
103164
103164
103164
103164
103165
103166
103166
103167
103167
103167
103318
103318
103318
103318
103318
103318
103318
103319
103318
103309
103294
103277
103260
103243
103227
103210
103192
103176
103166
103162
103162
103162
103163
103163
103163
103164
103165
103166
103166
103166
103318
103318
103318
103318
103318
103318
103318
103318
103317
103308
103291
103275
103257
103240
103223
103206
103189
103173
103164
103161
103161
103161
103161
103161
103162
103163
103163
103164
103164
103164
103317
103317
103317
103317
103317
103317
103317
103317
103317
103307
103291
103274
103256
103237
103219
103202
103185
103170
103162
103159
103159
103160
103160
103160
103160
103161
103162
103162
103163
103163
103316
103316
103316
103316
103316
103316
103316
103316
103316
103308
103293
103275
103256
103236
103217
103198
103181
103166
103159
103158
103158
103158
103158
103159
103159
103159
103160
103160
103161
103161
103315
103315
103315
103315
103315
103315
103315
103315
103315
103310
103296
103278
103258
103237
103216
103195
103176
103162
103157
103157
103157
103157
103157
103157
103157
103158
103158
103158
103159
103159
103314
103315
103315
103315
103315
103315
103315
103314
103314
103310
103300
103283
103262
103239
103216
103193
103172
103159
103155
103156
103156
103156
103156
103156
103156
103156
103156
103157
103157
103157
103314
103314
103314
103314
103314
103314
103314
103314
103312
103308
103300
103286
103267
103241
103217
103191
103167
103157
103155
103155
103155
103155
103155
103155
103155
103155
103155
103155
103155
103155
103313
103313
103313
103313
103313
103313
103313
103312
103310
103305
103296
103284
103268
103242
103215
103188
103164
103156
103154
103154
103154
103154
103154
103154
103154
103154
103154
103154
103154
103154
103312
103312
103312
103312
103312
103312
103312
103311
103308
103300
103290
103279
103264
103240
103210
103184
103163
103155
103154
103153
103153
103153
103153
103153
103153
103153
103153
103153
103153
103153
103311
103311
103311
103311
103311
103311
103311
103310
103306
103296
103284
103273
103258
103236
103207
103182
103163
103155
103152
103152
103152
103152
103152
103152
103152
103152
103151
103151
103151
103151
103310
103310
103310
103310
103310
103310
103310
103309
103304
103292
103279
103266
103250
103230
103207
103183
103163
103154
103151
103151
103151
103151
103151
103151
103151
103151
103150
103150
103150
103150
103309
103309
103309
103309
103309
103309
103309
103307
103302
103289
103273
103259
103243
103225
103206
103185
103164
103153
103150
103150
103150
103150
103150
103150
103150
103149
103149
103149
103149
103149
103307
103307
103307
103307
103307
103307
103307
103305
103299
103284
103267
103251
103236
103219
103203
103183
103163
103152
103149
103149
103149
103149
103149
103149
103149
103148
103148
103148
103148
103148
103306
103306
103306
103306
103306
103306
103305
103303
103294
103278
103261
103245
103229
103214
103198
103180
103160
103150
103148
103148
103148
103148
103148
103148
103147
103147
103147
103147
103147
103147
103305
103304
103304
103304
103304
103304
103303
103300
103289
103272
103255
103239
103224
103209
103194
103176
103158
103149
103147
103147
103147
103147
103147
103147
103146
103146
103146
103146
103146
103145
103303
103303
103302
103302
103301
103301
103300
103295
103282
103265
103248
103232
103217
103203
103188
103172
103156
103148
103146
103145
103145
103145
103145
103145
103145
103145
103145
103144
103144
103144
103301
103300
103300
103299
103298
103298
103296
103290
103275
103259
103242
103226
103210
103196
103182
103167
103153
103146
103144
103144
103144
103144
103144
103144
103144
103144
103143
103143
103143
103143
103297
103297
103296
103295
103294
103294
103292
103283
103267
103252
103236
103220
103204
103189
103175
103161
103149
103143
103141
103142
103142
103142
103142
103142
103142
103142
103142
103142
103142
103141
103293
103292
103291
103290
103289
103288
103286
103275
103259
103244
103229
103214
103198
103183
103169
103155
103144
103140
103139
103139
103140
103140
103140
103141
103141
103141
103141
103140
103140
103140
103287
103286
103285
103283
103282
103281
103280
103266
103249
103234
103220
103206
103191
103177
103163
103150
103140
103136
103136
103137
103137
103138
103138
103139
103139
103139
103139
103138
103138
103138
103278
103277
103276
103274
103273
103272
103271
103254
103237
103223
103210
103197
103183
103169
103156
103145
103137
103133
103133
103134
103135
103135
103136
103136
103137
103137
103137
103137
103136
103136
103266
103265
103264
103263
103261
103260
103259
103243
103227
103213
103200
103187
103174
103160
103148
103141
103134
103130
103130
103131
103131
103132
103133
103134
103134
103135
103135
103135
103135
103135
103251
103251
103250
103249
103247
103245
103243
103233
103217
103203
103190
103177
103163
103151
103141
103135
103128
103125
103126
103126
103128
103129
103130
103131
103131
103132
103132
103133
103133
103133
103237
103236
103236
103235
103233
103230
103227
103221
103206
103192
103178
103164
103152
103140
103131
103124
103118
103119
103120
103121
103122
103124
103125
103127
103128
103129
103130
103130
103131
103131
103223
103223
103222
103221
103220
103217
103215
103211
103197
103182
103167
103153
103140
103128
103119
103112
103110
103111
103113
103114
103116
103117
103119
103121
103123
103125
103126
103127
103128
103128
103210
103210
103209
103209
103207
103206
103203
103200
103189
103173
103158
103143
103129
103117
103107
103101
103102
103103
103105
103106
103107
103109
103111
103114
103116
103119
103121
103122
103124
103124
103198
103198
103199
103198
103197
103196
103193
103189
103181
103165
103150
103134
103119
103105
103094
103092
103093
103095
103096
103097
103098
103099
103101
103103
103106
103109
103112
103115
103117
103117
103188
103188
103189
103188
103187
103186
103182
103178
103172
103158
103140
103124
103108
103093
103085
103084
103085
103086
103087
103087
103087
103088
103089
103091
103093
103096
103099
103102
103105
103106
103177
103178
103178
103178
103177
103174
103171
103167
103161
103147
103128
103113
103097
103083
103077
103077
103077
103077
103077
103077
103077
103077
103077
103078
103079
103081
103084
103086
103089
103090
103167
103167
103167
103166
103164
103161
103157
103154
103148
103132
103114
103100
103086
103074
103070
103069
103069
103068
103068
103067
103067
103066
103065
103065
103065
103066
103068
103070
103072
103072
103155
103154
103153
103150
103148
103144
103140
103135
103128
103113
103097
103084
103074
103066
103062
103061
103060
103059
103059
103057
103056
103055
103054
103053
103053
103053
103054
103055
103055
103055
103138
103137
103134
103130
103127
103122
103117
103112
103104
103090
103077
103067
103061
103056
103054
103052
103051
103050
103049
103047
103046
103044
103043
103042
103042
103041
103041
103040
103040
103040
103115
103113
103109
103104
103099
103095
103089
103084
103076
103064
103054
103048
103046
103044
103044
103043
103042
103040
103039
103037
103035
103034
103033
103032
103031
103030
103028
103027
103026
103026
103084
103081
103076
103070
103065
103061
103057
103052
103045
103035
103028
103026
103027
103030
103031
103032
103032
103030
103028
103026
103025
103023
103022
103021
103020
103018
103017
103015
103014
103014
103043
103040
103033
103028
103024
103021
103019
103015
103009
103003
102999
103001
103005
103010
103016
103019
103020
103019
103017
103015
103014
103012
103011
103010
103009
103007
103005
103004
103003
103003
102994
102990
102984
102980
102977
102975
102975
102973
102969
102966
102966
102970
102977
102986
102995
103002
103006
103006
103005
103003
103002
103001
103000
102999
102997
102996
102994
102993
102992
102992
102938
102935
102931
102928
102926
102925
102926
102926
102925
102925
102928
102935
102946
102958
102970
102981
102989
102992
102992
102991
102990
102989
102989
102988
102987
102985
102984
102982
102982
102981
102881
102879
102876
102874
102873
102873
102875
102877
102880
102883
102889
102899
102911
102925
102940
102954
102967
102974
102977
102978
102978
102978
102978
102978
102977
102976
102973
102972
102971
102970
102824
102822
102821
102819
102819
102821
102824
102829
102834
102841
102849
102861
102874
102889
102904
102920
102937
102951
102958
102963
102965
102967
102967
102967
102966
102965
102963
102961
102960
102960
102767
102766
102765
102765
102766
102770
102775
102781
102788
102797
102807
102819
102833
102846
102861
102878
102899
102919
102933
102942
102948
102951
102953
102954
102953
102952
102951
102950
102949
102948
102711
102711
102710
102711
102714
102719
102725
102732
102741
102750
102760
102771
102783
102796
102811
102829
102851
102875
102897
102913
102923
102930
102934
102936
102936
102936
102936
102936
102935
102934
102655
102655
102655
102657
102661
102666
102673
102680
102688
102697
102706
102716
102728
102740
102755
102773
102795
102821
102848
102870
102886
102897
102904
102908
102911
102913
102915
102916
102917
102916
102596
102596
102597
102600
102605
102610
102616
102624
102631
102639
102648
102658
102668
102681
102696
102713
102734
102759
102787
102812
102831
102845
102855
102863
102869
102876
102882
102886
102889
102890
102531
102532
102534
102539
102544
102550
102557
102564
102571
102579
102587
102597
102607
102619
102633
102650
102670
102693
102717
102739
102758
102773
102784
102794
102804
102815
102827
102835
102843
102846
102456
102462
102467
102474
102480
102488
102495
102502
102509
102517
102525
102534
102544
102555
102568
102584
102602
102622
102641
102658
102673
102687
102698
102709
102721
102734
102747
102758
102768
102776
102377
102387
102398
102408
102417
102425
102433
102439
102446
102453
102461
102470
102479
102490
102502
102516
102532
102547
102560
102573
102585
102597
102607
102618
102629
102642
102654
102665
102672
102680
102317
102320
102332
102344
102355
102364
102371
102376
102381
102388
102396
102404
102413
102423
102434
102447
102458
102468
102478
102487
102496
102504
102513
102522
102533
102545
102557
102566
102570
102575
102273
102271
102275
102287
102296
102304
102308
102310
102313
102320
102329
102337
102346
102355
102365
102375
102382
102388
102393
102399
102404
102410
102415
102422
102432
102445
102458
102468
102472
102475
102234
102234
102234
102237
102242
102244
102242
102237
102241
102251
102261
102270
102279
102288
102295
102301
102305
102307
102309
102310
102311
102312
102314
102319
102328
102341
102356
102371
102379
102379
102200
102200
102198
102193
102190
102183
102173
102168
102172
102183
102195
102204
102213
102220
102225
102228
102228
102226
102223
102220
102217
102213
102211
102211
102218
102232
102252
102273
102287
102289
102164
102163
102158
102148
102136
102123
102113
102114
102115
102119
102130
102140
102148
102154
102156
102155
102151
102145
102138
102130
102121
102112
102105
102100
102102
102117
102145
102174
102197
102207
102117
102113
102105
102094
102081
102069
102065
102067
102068
102067
102070
102079
102086
102090
102089
102084
102076
102066
102053
102039
102024
102010
101997
101986
101979
101990
102032
102074
102108
102127
102051
102048
102042
102034
102025
102021
102022
102023
102024
102024
102023
102025
102029
102029
102025
102016
102004
101987
101968
101948
101928
101908
101890
101873
101860
101868
101911
101973
102021
102047
101978
101978
101977
101975
101975
101977
101981
101983
101985
101984
101983
101979
101978
101974
101965
101952
101933
101910
101882
101856
101834
101815
101800
101791
101789
101795
101819
101877
101937
101960
101918
101918
101919
101923
101929
101935
101940
101943
101945
101945
101943
101938
101931
101922
101910
101891
101866
101835
101804
101780
101765
101758
101756
101757
101760
101763
101774
101808
101857
101878
101867
101868
101870
101876
101883
101889
101894
101898
101900
101902
101900
101895
101886
101874
101858
101836
101806
101774
101752
101741
101737
101736
101737
101740
101743
101746
101750
101767
101797
101815
101818
101820
101824
101829
101834
101840
101845
101849
101852
101853
101850
101845
101837
101826
101810
101787
101760
101739
101729
101724
101723
101724
101725
101727
101729
101730
101733
101739
101755
101767
101770
101773
101776
101779
101784
101788
101793
101798
101799
101797
101793
101788
101782
101774
101763
101747
101729
101718
101714
101712
101712
101712
101713
101714
101715
101716
101716
101717
101722
101726
101720
101722
101725
101727
101732
101737
101741
101742
101738
101734
101729
101726
101722
101719
101715
101711
101704
101700
101699
101699
101700
101700
101701
101702
101701
101700
101697
101693
101689
101689
101668
101670
101672
101676
101679
101681
101679
101675
101670
101666
101663
101662
101662
101663
101666
101672
101676
101678
101681
101683
101684
101686
101686
101685
101683
101679
101672
101661
101649
101644
101615
101617
101619
101620
101619
101615
101609
101604
101599
101597
101597
101598
101601
101607
101615
101627
101640
101650
101656
101661
101663
101664
101663
101661
101657
101649
101636
101618
101598
101586
101561
101561
101559
101555
101548
101542
101536
101531
101529
101528
101530
101534
101540
101548
101559
101574
101593
101609
101621
101628
101631
101631
101630
101626
101620
101608
101591
101570
101551
101542
101499
101495
101489
101481
101474
101467
101462
101459
101459
101461
101465
101470
101478
101488
101500
101516
101535
101555
101571
101581
101585
101584
101581
101577
101572
101560
101543
101525
101512
101506
101425
101419
101412
101404
101398
101393
101390
101390
101392
101395
101400
101406
101415
101425
101438
101454
101471
101490
101506
101518
101523
101522
101519
101515
101513
101506
101495
101483
101474
101469
101342
101337
101332
101327
101323
101321
101322
101324
101326
101330
101335
101342
101351
101362
101374
101388
101404
101419
101433
101444
101450
101451
101450
101448
101447
101447
101445
101440
101434
101428
101257
101255
101252
101250
101250
101253
101256
101258
101261
101265
101270
101277
101286
101296
101308
101321
101334
101347
101359
101368
101374
101377
101378
101378
101378
101381
101387
101391
101390
101385
101173
101173
101173
101175
101180
101185
101189
101192
101195
101199
101204
101210
101219
101229
101240
101252
101263
101274
101284
101292
101299
101303
101306
101308
101309
101312
101319
101329
101335
101336
101089
101091
101095
101101
101108
101115
101120
101123
101126
101130
101135
101142
101152
101162
101172
101182
101192
101202
101210
101217
101223
101228
101232
101235
101238
101240
101245
101256
101267
101273
101003
101007
101015
101024
101033
101041
101046
101050
101054
101059
101065
101074
101084
101094
101103
101112
101121
101129
101136
101142
101148
101152
101157
101161
101164
101166
101168
101175
101186
101193
100913
100920
100931
100945
100955
100964
100971
100976
100981
100988
100997
101007
101017
101026
101034
101042
101049
101056
101062
101067
101072
101075
101079
101082
101085
101086
101086
101090
101097
101102
100812
100827
100846
100864
100878
100888
100895
100902
100909
100919
100930
100941
100950
100958
100965
100971
100977
100983
100988
100992
100996
100998
101000