/*--------------------------------*- C++ -*----------------------------------*\
| =========                 |                                                 |
| \\      /  F ield         | OpenFOAM: The Open Source CFD Toolbox           |
|  \\    /   O peration     | Version:  v1606+                                |
|   \\  /    A nd           | Web:      www.OpenFOAM.com                      |
|    \\/     M anipulation  |                                                 |
\*---------------------------------------------------------------------------*/
FoamFile
{
    version     2.0;
    format      ascii;
    class       surfaceScalarField;
    location    "0.95";
    object      phi.particles;
}
// * * * * * * * * * * * * * * * * * * * * * * * * * * * * * * * * * * * * * //

dimensions      [0 3 -1 0 0 0 0];

internalField   nonuniform List<scalar> 
11770
(
-2.0916e-06
-1.11004e-05
-7.47199e-07
-1.1903e-05
2.82228e-07
-1.13964e-05
-1.02292e-07
-1.07168e-05
-1.43586e-06
-1.04383e-05
-2.96304e-06
-1.07471e-05
-4.18854e-06
-1.0411e-05
-5.03348e-06
-1.02107e-05
-4.65497e-06
-1.07597e-05
-3.29945e-06
-1.36501e-05
-1.80664e-06
-1.5833e-05
-5.77329e-07
-1.68304e-05
3.63764e-07
-1.76718e-05
1.16895e-06
-1.79799e-05
1.84045e-06
-1.79763e-05
2.37123e-06
-1.83412e-05
2.79325e-06
-1.88825e-05
3.03927e-06
-1.94642e-05
3.40701e-06
-1.9759e-05
4.075e-06
-1.85126e-05
4.86007e-06
-1.73559e-05
5.37061e-06
-1.42945e-05
5.37656e-06
-1.12506e-05
5.26831e-06
-1.00802e-05
4.77839e-06
-1.06334e-05
3.86846e-06
-1.07537e-05
3.14593e-06
-1.0221e-05
3.6581e-06
-1.08612e-05
4.15863e-06
-1.16735e-05
-1.09625e-05
1.7831e-06
-6.54548e-06
2.99908e-06
-7.26383e-06
4.77872e-06
-5.34782e-06
5.7383e-06
-1.73557e-07
4.51685e-06
4.84857e-06
9.97802e-07
9.60484e-06
-3.34584e-06
1.34867e-05
-6.52583e-06
1.39511e-05
-6.17108e-06
7.92013e-06
-3.5053e-06
4.75124e-06
-1.14371e-06
4.30845e-06
7.04129e-07
4.94433e-06
2.04602e-06
5.55463e-06
2.81278e-06
6.32007e-06
3.20027e-06
6.79882e-06
3.11382e-06
7.2077e-06
2.74233e-06
7.2578e-06
2.69957e-06
6.51329e-06
3.10562e-06
5.94549e-06
3.98996e-06
5.54811e-06
5.97614e-06
4.93405e-06
7.61706e-06
5.79502e-06
6.61919e-06
1.00741e-05
3.74444e-06
1.34867e-05
2.52143e-07
1.18968e-05
-2.03218e-06
7.84869e-06
-2.02347e-06
2.73072e-06
-7.25157e-07
-2.78175e-06
1.68047e-07
-5.68685e-06
-5.2611e-06
3.22439e-06
-2.10494e-05
4.79287e-06
-2.14492e-05
6.04032e-06
-1.95999e-05
6.2259e-06
-1.57092e-05
4.43905e-06
-9.43531e-06
-5.90802e-07
-1.70093e-06
-6.18601e-06
5.22286e-06
-7.31202e-06
7.90266e-06
-4.40375e-06
2.67517e-06
-1.02266e-06
-4.65188e-07
1.81412e-06
-1.24273e-06
3.90579e-06
1.34115e-08
4.93966e-06
2.42322e-06
5.14689e-06
4.369e-06
4.72995e-06
5.41671e-06
3.62442e-06
6.74827e-06
2.14639e-06
7.83939e-06
9.50907e-07
7.25348e-06
6.76551e-07
5.57743e-06
1.73038e-06
2.50815e-06
4.18329e-06
5.69566e-07
7.48525e-06
1.14219e-06
8.93615e-06
5.23283e-06
6.26631e-06
7.30603e-06
1.04907e-06
3.61198e-06
-2.88341e-06
-4.05674e-06
-4.08831e-06
-1.22153e-05
-3.75404e-06
-1.75719e-05
-2.94372e-06
-2.01946e-05
-1.93289e-05
3.3646e-06
-2.49182e-05
5.2376e-06
-2.54249e-05
6.83557e-06
-2.44897e-05
7.09918e-06
-2.2175e-05
5.76117e-06
-1.76291e-05
2.30975e-06
-1.23115e-05
-2.15372e-06
-4.62554e-06
-3.62894e-06
5.3756e-07
-1.42729e-06
-5.73524e-07
1.92269e-06
-2.18856e-06
4.67964e-06
-1.97699e-06
6.0038e-06
6.74598e-07
6.49771e-06
3.27374e-06
6.60237e-06
3.92232e-06
5.97739e-06
4.41677e-06
4.57683e-06
5.89585e-06
2.73415e-06
7.95653e-06
5.80758e-07
9.43396e-06
-1.15384e-06
8.59347e-06
-1.0164e-06
4.45364e-06
1.51336e-06
4.80479e-07
5.19407e-06
-2.4583e-07
6.22599e-06
2.28668e-06
2.60924e-06
1.52381e-06
-2.61664e-06
-5.61887e-06
-6.20042e-06
-1.29688e-05
-7.21901e-06
-1.93463e-05
-6.1539e-06
-2.30259e-05
-4.4696e-06
-2.4779e-05
-2.4362e-05
2.21484e-06
-2.30754e-05
4.42695e-06
-2.36612e-05
6.47457e-06
-2.33719e-05
7.48926e-06
-2.22345e-05
7.5244e-06
-1.95941e-05
6.80781e-06
-1.74769e-05
4.80164e-06
-1.31923e-05
2.09511e-06
-1.01576e-05
1.29194e-06
-9.72206e-06
3.028e-06
-1.02725e-05
4.99787e-06
-9.8937e-06
6.12525e-06
-7.90491e-06
6.71879e-06
-6.81661e-06
6.71661e-06
-6.84919e-06
6.08992e-06
-6.22688e-06
4.76307e-06
-4.17332e-06
2.85194e-06
-7.8837e-07
3.26237e-07
3.4115e-06
-1.8206e-06
4.88769e-06
-1.67524e-06
3.86953e-07
4.48042e-07
-4.88792e-06
2.01913e-06
-5.81577e-06
1.99958e-07
-5.00323e-06
-4.31384e-06
-6.74416e-06
-7.94793e-06
-1.26967e-05
-9.12883e-06
-1.66869e-05
-8.48107e-06
-2.08428e-05
-6.35684e-06
-2.29728e-05
-3.76183e-06
-2.42625e-05
-2.39395e-05
2.05994e-06
-1.84645e-05
2.87344e-06
-1.914e-05
3.58053e-06
-1.9366e-05
4.36531e-06
-1.90225e-05
6.17835e-06
-1.72801e-05
7.9024e-06
-1.56998e-05
8.52296e-06
-1.46898e-05
7.83888e-06
-1.57498e-05
5.46848e-06
-1.77278e-05
4.12452e-06
-1.94786e-05
3.70817e-06
-2.06373e-05
2.99078e-06
-2.0935e-05
2.72962e-06
-2.18568e-05
3.19501e-06
-2.27694e-05
4.25384e-06
-2.27869e-05
5.28696e-06
-2.13674e-05
5.29297e-06
-1.80052e-05
3.76602e-06
-1.23736e-05
2.08733e-06
-8.67272e-06
9.26019e-07
-1.09142e-05
-6.63552e-07
-1.36879e-05
-3.70324e-06
-1.22801e-05
-7.35365e-06
-1.04457e-05
-9.45218e-06
-1.01489e-05
-9.38438e-06
-1.24758e-05
-8.4392e-06
-1.51645e-05
-7.55125e-06
-1.85909e-05
-5.77887e-06
-2.01255e-05
-3.52418e-06
-2.13808e-05
-2.10922e-05
1.0643e-06
-1.31836e-05
1.20716e-06
-1.40413e-05
1.12429e-06
-1.50402e-05
1.59101e-06
-1.55679e-05
3.76299e-06
-1.44521e-05
5.9606e-06
-1.22983e-05
6.92106e-06
-1.30373e-05
6.94084e-06
-1.63173e-05
5.48883e-06
-2.12821e-05
3.57379e-06
-2.52985e-05
1.7949e-06
-2.70464e-05
7.99549e-07
-2.79638e-05
9.43637e-07
-2.95912e-05
1.80252e-06
-3.12924e-05
3.54075e-06
-3.27068e-05
5.80422e-06
-3.28254e-05
7.81156e-06
-3.13234e-05
9.18783e-06
-2.6855e-05
9.42612e-06
-2.31508e-05
7.08854e-06
-2.31227e-05
1.44199e-06
-2.27956e-05
-5.80783e-06
-1.87112e-05
-1.00295e-05
-1.29872e-05
-9.98482e-06
-9.76421e-06
-8.2334e-06
-9.82953e-06
-6.97044e-06
-1.30185e-05
-6.46584e-06
-1.58535e-05
-5.0204e-06
-1.70649e-05
-3.06771e-06
-1.80738e-05
-1.78107e-05
6.13306e-07
-7.32662e-06
-7.60732e-07
-7.55823e-06
-1.9601e-06
-9.60859e-06
-1.85205e-06
-1.11645e-05
2.83074e-07
-1.06678e-05
2.82016e-06
-8.62001e-06
3.02852e-06
-1.0018e-05
2.50717e-06
-1.38451e-05
3.1764e-06
-1.9194e-05
3.08792e-06
-2.32325e-05
2.76118e-06
-2.41138e-05
4.08599e-06
-2.44489e-05
5.20143e-06
-2.62133e-05
5.26719e-06
-2.80917e-05
5.61042e-06
-3.04581e-05
6.49069e-06
-3.2299e-05
7.66092e-06
-3.29763e-05
9.5128e-06
-3.0498e-05
1.08982e-05
-2.66134e-05
9.98609e-06
-2.50451e-05
5.75515e-06
-2.24513e-05
-9.27499e-07
-1.8274e-05
-6.13412e-06
-1.30886e-05
-7.23397e-06
-8.71397e-06
-5.53163e-06
-7.30202e-06
-4.81536e-06
-1.04288e-05
-4.81687e-06
-1.25935e-05
-4.04515e-06
-1.34768e-05
-2.98437e-06
-1.42314e-05
-1.43555e-05
6.47375e-07
-2.35592e-06
-2.25337e-06
-1.02974e-06
-5.05353e-06
-1.67663e-06
-5.3818e-06
-5.22591e-06
-3.36337e-06
-5.98024e-06
-8.66069e-07
-4.33708e-06
-1.92855e-07
-4.84487e-06
4.93602e-07
-8.54667e-06
3.48687e-06
-1.34722e-05
5.95499e-06
-1.61983e-05
7.35849e-06
-1.77344e-05
1.028e-05
-1.84615e-05
1.25403e-05
-2.0447e-05
1.25202e-05
-2.17116e-05
1.19755e-05
-2.33236e-05
1.08436e-05
-2.50828e-05
9.26796e-06
-2.73452e-05
8.14517e-06
-2.73501e-05
8.95054e-06
-2.34677e-05
1.00357e-05
-1.93171e-05
7.83335e-06
-1.6374e-05
3.97738e-06
-1.40023e-05
-5.83371e-08
-1.10511e-05
-2.34727e-06
-7.28327e-06
-2.00676e-06
-5.02339e-06
-1.91696e-06
-7.52224e-06
-2.49612e-06
-9.31182e-06
-2.91795e-06
-9.8267e-06
-2.56427e-06
-1.06455e-05
-1.13702e-05
3.21043e-06
3.41916e-07
1.55859e-06
3.31857e-06
-4.68371e-06
5.50291e-06
-8.79298e-06
3.49996e-06
-7.06486e-06
1.52514e-06
-3.93332e-06
2.3701e-06
-1.30175e-06
2.84059e-06
1.95973e-06
-1.77974e-06
4.83963e-06
-6.62736e-06
6.2504e-06
-8.63934e-06
9.21742e-06
-1.02091e-05
1.32872e-05
-1.20345e-05
1.6628e-05
-1.53993e-05
1.85839e-05
-1.72009e-05
1.8986e-05
-1.79663e-05
1.73599e-05
-1.81674e-05
1.31826e-05
-1.95559e-05
9.51646e-06
-2.13474e-05
9.67975e-06
-1.87067e-05
1.04045e-05
-1.36722e-05
9.05214e-06
-1.21722e-05
7.78847e-06
-1.11244e-05
6.33954e-06
-8.15299e-06
4.02237e-06
-4.39825e-06
2.21233e-06
-2.16889e-06
9.2469e-07
-4.15533e-06
-5.51511e-07
-5.7815e-06
-1.90215e-06
-6.15711e-06
-2.13196e-06
-7.30843e-06
-8.8835e-06
3.17904e-06
1.43834e-06
3.23321e-06
5.35569e-06
1.31253e-06
8.7768e-06
-7.33281e-06
1.12353e-05
-1.17612e-05
1.02071e-05
-6.18752e-06
7.74954e-06
-7.95538e-07
5.77575e-06
2.93544e-06
2.31631e-06
5.3629e-06
-1.35493e-06
7.17798e-06
-2.39961e-06
9.62038e-06
-2.64898e-06
1.30853e-05
-5.92065e-06
1.71657e-05
-1.07136e-05
2.03566e-05
-1.27312e-05
2.12824e-05
-1.31869e-05
2.07136e-05
-1.27408e-05
1.81436e-05
-1.2265e-05
1.33003e-05
-1.32717e-05
9.64074e-06
-1.24252e-05
9.27242e-06
-8.99758e-06
1.03825e-05
-7.66637e-06
1.19463e-05
-6.75077e-06
1.24636e-05
-4.42206e-06
1.04351e-05
-1.00723e-06
6.88936e-06
1.2308e-06
3.38089e-06
-2.09824e-07
7.84549e-07
-2.39169e-06
-1.013e-06
-2.79038e-06
-1.68206e-06
-4.17393e-06
-6.57808e-06
1.96e-06
2.05969e-06
1.96999e-06
6.57248e-06
1.53973e-06
1.08132e-05
-1.58227e-06
1.5323e-05
-9.61367e-06
1.76243e-05
-1.02568e-05
1.32022e-05
-2.24964e-06
7.31932e-06
3.17074e-06
5.72184e-06
6.36885e-06
4.62074e-06
8.99821e-06
4.94113e-06
1.12475e-05
4.09068e-06
1.30367e-05
-1.23713e-06
1.54528e-05
-6.6241e-06
1.74382e-05
-8.29467e-06
1.80409e-05
-8.69563e-06
1.74622e-05
-8.22524e-06
1.67385e-05
-7.19808e-06
1.50912e-05
-6.18384e-06
1.10641e-05
-5.84434e-06
8.67497e-06
-3.42478e-06
9.73242e-06
-1.24522e-06
1.14651e-05
-2.58177e-07
1.39004e-05
1.05662e-06
1.48407e-05
3.7803e-06
1.07951e-05
4.53058e-06
4.98174e-06
3.48108e-06
1.71936e-06
9.03456e-07
-2.17521e-08
3.15127e-07
-1.10185e-06
-1.05992e-06
-4.12009e-06
2.88921e-07
2.65802e-06
-5.2431e-07
7.40829e-06
-1.68783e-06
1.25109e-05
-3.5162e-06
1.82204e-05
-7.60324e-06
2.23654e-05
-1.1245e-05
2.06878e-05
-7.02732e-06
1.38628e-05
6.00047e-07
9.42295e-06
4.71034e-06
9.58283e-06
8.01881e-06
1.11025e-05
1.01637e-05
9.06959e-06
1.07585e-05
1.86105e-06
1.20359e-05
-3.28371e-06
1.37504e-05
-5.23146e-06
1.46045e-05
-5.95517e-06
1.4563e-05
-5.4309e-06
1.44117e-05
-3.74838e-06
1.53844e-05
-1.03855e-06
1.53567e-05
1.39468e-06
1.4038e-05
2.97867e-06
1.45455e-05
4.91899e-06
1.68117e-05
5.85765e-06
1.95765e-05
7.26132e-06
2.04908e-05
1.11364e-05
1.62114e-05
1.0871e-05
7.80803e-06
8.33465e-06
2.01271e-06
3.56556e-06
3.74747e-07
2.02367e-06
-6.79145e-07
1.06492e-06
-1.58151e-06
-1.21903e-06
3.10408e-06
-3.33614e-06
8.43637e-06
-6.35452e-06
1.56131e-05
-9.51246e-06
2.16331e-05
-1.23029e-05
2.45081e-05
-1.40994e-05
2.3803e-05
-1.2118e-05
1.85422e-05
-5.44624e-06
1.20318e-05
1.90451e-06
1.0028e-05
7.13005e-06
1.15258e-05
9.46662e-06
1.02779e-05
9.3808e-06
2.66911e-06
9.83108e-06
-1.75503e-06
1.09635e-05
-3.48567e-06
1.18184e-05
-3.97199e-06
1.22578e-05
-2.90908e-06
1.24292e-05
-2.03144e-07
1.27538e-05
3.59173e-06
1.37892e-05
8.26024e-06
1.42636e-05
1.15689e-05
1.47325e-05
1.14702e-05
1.70424e-05
1.1754e-05
2.0419e-05
1.28247e-05
2.43249e-05
1.69441e-05
2.14074e-05
1.991e-05
6.49115e-06
1.01352e-05
-1.14345e-06
4.13694e-06
-1.09479e-07
2.01108e-06
-5.1137e-07
1.34517e-06
-1.11082e-07
-1.59889e-06
4.57825e-06
-6.85016e-06
1.24872e-05
-1.29123e-05
2.29728e-05
-1.54433e-05
2.7189e-05
-1.6179e-05
2.64602e-05
-1.63937e-05
2.41852e-05
-1.50201e-05
1.96217e-05
-1.01267e-05
1.40818e-05
-2.88763e-06
9.67866e-06
4.24784e-06
9.0055e-06
7.88653e-06
8.70452e-06
7.99996e-06
1.96041e-06
8.06981e-06
-1.36988e-06
8.70647e-06
-2.612e-06
9.24122e-06
-2.47001e-06
9.47261e-06
-7.52513e-07
9.3641e-06
2.28402e-06
8.83639e-06
6.36569e-06
7.43009e-06
1.16702e-05
3.75662e-06
1.70267e-05
2.68338e-06
1.71718e-05
7.39816e-06
1.47655e-05
1.40249e-05
1.56912e-05
2.15536e-05
2.00055e-05
1.14702e-05
2.67805e-05
-4.34958e-06
7.51757e-06
-3.0394e-06
3.58118e-06
-1.38781e-06
1.83648e-06
-6.2167e-07
1.09628e-06
2.19134e-07
-4.29888e-06
9.36904e-06
-8.03281e-06
2.07128e-05
-1.34913e-05
2.87804e-05
-1.52971e-05
3.14779e-05
-1.58049e-05
2.87977e-05
-1.53686e-05
2.47188e-05
-1.44384e-05
1.98076e-05
-1.20562e-05
1.44875e-05
-6.98994e-06
9.69902e-06
-5.82817e-07
6.63534e-06
4.27963e-06
5.6303e-06
6.02944e-06
6.69862e-07
6.34497e-06
-1.46573e-06
6.75204e-06
-2.10628e-06
6.92627e-06
-1.34812e-06
6.68293e-06
7.18674e-07
5.92815e-06
3.71803e-06
4.3823e-06
7.75454e-06
2.35212e-06
1.35888e-05
-1.26901e-06
1.91103e-05
-6.55711e-06
1.93022e-05
-9.75694e-06
1.39278e-05
-4.6594e-06
1.30035e-05
8.63055e-06
1.61933e-05
5.80726e-06
2.25981e-05
-4.84407e-06
6.16337e-06
-2.96919e-06
3.43121e-06
-1.54531e-06
1.96581e-06
-6.84476e-07
1.15731e-06
4.27167e-07
-5.50574e-06
1.59897e-05
-6.22827e-06
2.60361e-05
-8.95116e-06
2.91545e-05
-1.06624e-05
3.06843e-05
-1.22168e-05
2.92319e-05
-1.23433e-05
2.54153e-05
-1.18248e-05
1.99987e-05
-1.07147e-05
1.4668e-05
-8.39589e-06
9.68872e-06
-4.06247e-06
5.61339e-06
1.21504e-06
3.25582e-06
4.16543e-06
-5.124e-07
4.86411e-06
-1.79431e-06
5.46397e-06
-1.82096e-06
5.82507e-06
-6.21476e-07
5.48851e-06
1.427e-06
4.00266e-06
4.31012e-06
6.40632e-07
1.05172e-05
-3.59514e-06
1.70365e-05
-7.78518e-06
2.36785e-05
-1.00191e-05
1.9528e-05
-9.69512e-06
1.32997e-05
-8.54905e-06
9.04549e-06
-4.00376e-06
8.96572e-06
-1.80011e-06
1.13679e-05
-3.52046e-06
5.49268e-06
-2.55388e-06
3.45656e-06
-1.40483e-06
2.14704e-06
-5.90076e-07
1.25238e-06
5.24673e-07
-9.52643e-07
1.96889e-05
-2.37136e-06
2.70096e-05
-3.89065e-06
2.91423e-05
-5.0203e-06
2.8601e-05
-6.88188e-06
2.73309e-05
-8.56811e-06
2.4906e-05
-8.81605e-06
1.96314e-05
-8.41181e-06
1.44587e-05
-7.33627e-06
9.59889e-06
-5.14327e-06
5.1983e-06
-8.96308e-07
1.93563e-06
2.621e-06
-1.47684e-06
3.92024e-06
-2.29772e-06
4.85125e-06
-1.8149e-06
5.47101e-06
-3.98554e-07
5.42692e-06
1.73896e-06
3.13806e-06
4.5067e-06
-5.31711e-06
1.89257e-05
-1.32904e-05
2.25682e-05
-1.22897e-05
2.79337e-05
-9.15771e-06
1.74776e-05
-7.07267e-06
1.15444e-05
-5.01687e-06
8.20488e-06
-3.12587e-06
6.61911e-06
-2.3434e-06
6.43573e-06
-2.63164e-06
4.98048e-06
-2.10631e-06
3.47308e-06
-1.21161e-06
2.25579e-06
-4.6003e-07
1.27249e-06
4.82822e-07
-9.21985e-07
2.29945e-05
-1.33855e-06
2.46628e-05
-2.0161e-06
2.70141e-05
-2.35984e-06
2.89985e-05
-2.71779e-06
2.65813e-05
-4.7137e-06
2.4069e-05
-6.43698e-06
1.90945e-05
-6.23187e-06
1.38501e-05
-5.68464e-06
9.11684e-06
-4.46258e-06
4.88116e-06
-1.85262e-06
1.06104e-06
1.49483e-06
-2.2084e-06
3.47654e-06
-2.84588e-06
4.67084e-06
-2.00886e-06
5.53213e-06
-4.54539e-07
5.98832e-06
2.00368e-06
-3.19259e-07
8.18194e-06
-1.11497e-05
2.20235e-05
-1.54862e-05
2.05384e-05
-1.03369e-05
2.05358e-05
-4.94575e-06
1.28992e-05
-3.491e-06
9.86341e-06
-2.40192e-06
7.99222e-06
-1.78237e-06
6.72101e-06
-1.59672e-06
5.9811e-06
-1.80559e-06
4.84308e-06
-1.62429e-06
3.54274e-06
-1.00037e-06
2.3444e-06
-3.42353e-07
1.27209e-06
3.69347e-07
1.08513e-06
2.3282e-05
4.19457e-06
2.06747e-05
2.50143e-06
2.29231e-05
-3.6683e-07
2.81652e-05
-4.91387e-07
2.86783e-05
-1.66361e-06
2.56277e-05
-3.76379e-06
2.08394e-05
-4.5628e-06
1.24206e-05
-3.97921e-06
8.57132e-06
-3.12758e-06
4.30678e-06
-1.44351e-06
3.58115e-07
1.23726e-06
-2.78591e-06
3.3545e-06
-3.34782e-06
4.61902e-06
-2.27966e-06
5.27583e-06
-5.77119e-07
3.0922e-06
2.14569e-06
-3.62638e-06
1.70518e-05
-7.18182e-06
1.6686e-05
-5.26984e-06
1.37513e-05
-2.78159e-06
1.1204e-05
-1.56325e-06
9.79868e-06
-8.04418e-07
9.09264e-06
-4.08542e-07
8.03639e-06
-3.69692e-07
7.0585e-06
-5.70609e-07
6.16766e-06
-8.95392e-07
5.04115e-06
-1.01439e-06
3.76447e-06
-7.11848e-07
2.5196e-06
-2.34165e-07
1.34767e-06
2.98465e-07
6.65081e-06
1.65e-05
7.85224e-06
1.77667e-05
7.94764e-06
2.10792e-05
4.90533e-06
2.62076e-05
2.14926e-06
3.19126e-05
1.91164e-06
2.92907e-05
-5.92527e-07
2.47448e-05
-2.9219e-06
1.41936e-05
-2.37441e-06
7.58813e-06
-1.60884e-06
3.48953e-06
-2.61665e-07
-3.10514e-07
1.76192e-06
-3.237e-06
3.59682e-06
-3.78895e-06
4.85852e-06
-2.66015e-06
5.37296e-06
-6.55957e-07
9.52634e-07
3.73366e-06
-3.21633e-06
1.86888e-05
-1.88543e-06
1.29393e-05
-3.5686e-07
1.09252e-05
5.3439e-07
9.65604e-06
8.47703e-07
9.27809e-06
1.21191e-06
9.02494e-06
1.2364e-06
8.35599e-06
9.50439e-07
7.56806e-06
5.15959e-07
6.66082e-06
6.24267e-08
5.53256e-06
-2.78935e-07
4.23537e-06
-3.0857e-07
2.89926e-06
-1.05217e-07
1.58897e-06
3.66032e-07
6.13371e-06
9.26633e-06
7.23109e-06
1.59052e-05
7.97022e-06
2.0479e-05
7.15882e-06
2.5901e-05
5.23158e-06
3.35623e-05
4.89005e-06
3.29471e-05
3.60556e-06
2.82598e-05
3.68182e-07
1.87328e-05
-1.15384e-06
6.18289e-06
-2.45467e-07
2.42236e-06
9.6387e-07
-1.18314e-06
2.56127e-06
-3.71786e-06
4.09168e-06
-4.21592e-06
5.33725e-06
-3.17745e-06
5.60237e-06
-1.04923e-06
2.82294e-06
8.63817e-06
6.38331e-07
1.35231e-05
1.71795e-06
1.09959e-05
2.41302e-06
9.70242e-06
2.73071e-06
9.32003e-06
2.95686e-06
9.39891e-06
3.0012e-06
9.33785e-06
2.74899e-06
8.95315e-06
2.24104e-06
8.32962e-06
1.63195e-06
7.46821e-06
1.02257e-06
6.34617e-06
4.8083e-07
5.01262e-06
1.33155e-07
3.56022e-06
1.49805e-08
2.05191e-06
5.66665e-07
3.54334e-06
6.01488e-06
4.39622e-06
1.43205e-05
5.03218e-06
1.99788e-05
5.36595e-06
2.53641e-05
5.17908e-06
3.2126e-05
5.21127e-06
3.52673e-05
4.23487e-06
2.97798e-05
6.61403e-07
2.10198e-05
-8.26506e-07
5.6963e-06
7.80497e-07
2.72025e-07
2.05196e-06
-2.33672e-06
3.41494e-06
-4.36424e-06
4.71016e-06
-4.73037e-06
5.64087e-06
-3.81289e-06
4.36528e-06
-2.28894e-06
2.55452e-06
1.29773e-05
2.83011e-06
1.10595e-05
4.04034e-06
9.68598e-06
4.59205e-06
9.12218e-06
4.87729e-06
9.26853e-06
4.9743e-06
9.66994e-06
4.79892e-06
9.90285e-06
4.31118e-06
9.80869e-06
3.59087e-06
9.37789e-06
2.77002e-06
8.6006e-06
1.94453e-06
7.49139e-06
1.17582e-06
6.10213e-06
5.47751e-07
4.50316e-06
1.39887e-07
2.74088e-06
8.80277e-07
7.1589e-07
5.00634e-06
5.19845e-07
1.31949e-05
4.4766e-07
1.97257e-05
8.72369e-07
2.46234e-05
2.1902e-06
2.93969e-05
2.97809e-06
3.58624e-05
1.4302e-06
2.92353e-05
-1.29171e-06
2.13924e-05
-9.2118e-07
6.01346e-06
1.33935e-06
-2.39478e-06
2.91008e-06
-3.75781e-06
4.32003e-06
-5.30417e-06
5.67263e-06
-5.50461e-06
6.93683e-06
-4.45545e-06
5.42966e-06
-3.10061e-06
4.05336e-06
1.17719e-05
5.12238e-06
8.82408e-06
6.23997e-06
8.52406e-06
6.8334e-06
8.69186e-06
7.1158e-06
9.30592e-06
7.10322e-06
1.00609e-05
6.73665e-06
1.06252e-05
6.03478e-06
1.08395e-05
5.07749e-06
1.06202e-05
3.97687e-06
9.93684e-06
2.85585e-06
8.84408e-06
1.80464e-06
7.38707e-06
9.27866e-07
5.63599e-06
2.86427e-07
3.59193e-06
1.27527e-06
-2.04086e-06
4.40719e-06
-4.01892e-06
1.29297e-05
-4.97998e-06
2.0267e-05
-5.25282e-06
2.43186e-05
-4.12362e-06
2.70558e-05
-1.90066e-06
3.22289e-05
-1.42321e-06
2.76568e-05
-2.14169e-06
2.19193e-05
-7.09698e-07
6.72127e-06
1.69867e-06
-4.2128e-06
3.56182e-06
-5.30238e-06
5.1729e-06
-6.53582e-06
6.76405e-06
-6.59007e-06
8.09615e-06
-5.06532e-06
7.86494e-06
5.81775e-07
6.61479e-06
7.6844e-06
7.3926e-06
6.79676e-06
8.46355e-06
7.4938e-06
9.11322e-06
8.30548e-06
9.41751e-06
9.38231e-06
9.34712e-06
1.04963e-05
8.88185e-06
1.13647e-05
8.02613e-06
1.18354e-05
6.81796e-06
1.18337e-05
5.33453e-06
1.13024e-05
3.78078e-06
1.0265e-05
2.27542e-06
8.75439e-06
1.19968e-06
6.75047e-06
4.24188e-07
4.43201e-06
1.61219e-06
-3.47323e-06
4.53896e-06
-8.91812e-06
1.33532e-05
-1.06362e-05
2.17494e-05
-1.10739e-05
2.42201e-05
-1.07799e-05
2.52072e-05
-6.85813e-06
2.56492e-05
-1.27264e-06
2.50281e-05
-3.17407e-08
2.13836e-05
6.99685e-07
8.51351e-06
2.29634e-06
-5.18586e-06
4.18384e-06
-6.73839e-06
5.8828e-06
-7.87646e-06
7.53513e-06
-7.81949e-06
8.76311e-06
-5.89776e-06
8.93453e-06
4.07347e-06
8.50025e-06
4.8501e-06
9.4232e-06
5.46332e-06
1.05059e-05
6.67066e-06
1.12663e-05
8.0032e-06
1.16487e-05
9.47141e-06
1.16262e-05
1.08601e-05
1.12222e-05
1.19632e-05
1.04206e-05
1.26213e-05
9.06805e-06
1.27701e-05
7.0545e-06
1.24238e-05
4.79006e-06
1.14816e-05
2.35935e-06
9.88925e-06
1.24976e-06
7.78416e-06
4.40469e-07
5.26086e-06
1.95362e-06
-1.49036e-06
7.24175e-06
-9.15551e-06
2.25356e-05
-1.51811e-05
2.53441e-05
-1.52751e-05
2.46385e-05
-1.56479e-05
2.33975e-05
-1.5077e-05
2.06568e-05
-7.07225e-06
1.83275e-05
1.98907e-06
1.50683e-05
2.6581e-06
1.09345e-05
2.91532e-06
-5.76898e-06
4.77603e-06
-8.08696e-06
6.38654e-06
-9.1785e-06
7.71618e-06
-8.97798e-06
8.96414e-06
-7.1208e-06
9.40363e-06
2.35791e-06
9.8455e-06
2.64876e-06
1.11052e-05
4.30815e-06
1.22447e-05
6.03887e-06
1.31109e-05
7.82612e-06
1.35767e-05
9.6077e-06
1.37398e-05
1.11826e-05
1.36371e-05
1.24276e-05
1.30971e-05
1.33969e-05
1.17272e-05
1.42555e-05
9.46494e-06
1.52398e-05
6.2252e-06
1.58379e-05
2.96274e-06
1.6575e-05
1.17036e-06
9.03869e-06
1.88239e-07
6.00087e-06
2.44355e-06
-9.84409e-06
1.87742e-05
-1.39115e-05
3.67338e-05
-1.81512e-05
3.28499e-05
-1.73032e-05
2.58561e-05
-1.68613e-05
2.25494e-05
-1.74372e-05
1.76854e-05
-1.5478e-05
1.09954e-05
-4.83833e-06
6.91804e-06
2.29551e-06
7.39593e-06
3.6736e-06
-6.28005e-06
5.39912e-06
-9.62044e-06
7.03358e-06
-1.05341e-05
8.40179e-06
-1.01752e-05
1.01861e-05
-7.84806e-06
1.07851e-05
-1.48832e-06
1.10031e-05
5.60655e-07
1.23872e-05
3.32375e-06
1.35547e-05
5.6068e-06
1.44087e-05
7.8575e-06
1.47894e-05
9.93974e-06
1.49051e-05
1.16632e-05
1.49031e-05
1.30298e-05
1.46832e-05
1.44205e-05
1.39721e-05
1.61641e-05
1.29496e-05
1.81798e-05
1.10441e-05
2.00943e-05
6.59863e-06
2.29205e-05
2.22417e-06
1.59329e-05
-2.10905e-08
6.86479e-06
3.30343e-06
-1.10929e-05
3.36816e-05
-1.2401e-05
4.4799e-05
-1.58664e-05
4.05333e-05
-1.63633e-05
3.102e-05
-1.56927e-05
2.15162e-05
-1.61048e-05
1.53068e-05
-1.56718e-05
8.78338e-06
-1.15752e-05
2.26284e-06
-1.37369e-06
-6.48567e-07
4.93363e-06
-5.9874e-06
6.06446e-06
-1.1713e-05
7.74198e-06
-1.22156e-05
9.98e-06
-1.17393e-05
1.1441e-05
-8.70559e-06
1.1457e-05
-4.61247e-06
1.20733e-05
-8.67126e-07
1.31834e-05
2.49061e-06
1.43935e-05
5.42549e-06
1.50608e-05
8.15243e-06
1.50767e-05
1.05754e-05
1.45807e-05
1.24225e-05
1.36683e-05
1.38426e-05
1.25611e-05
1.53228e-05
1.11615e-05
1.69709e-05
9.93618e-06
1.8359e-05
9.70228e-06
1.96509e-05
8.37716e-06
2.17341e-05
3.34713e-06
2.35588e-05
1.26955e-06
1.09107e-05
4.99082e-06
-6.43446e-06
4.01466e-05
-6.7757e-06
4.68529e-05
-8.48269e-06
4.39244e-05
-1.1261e-05
3.81647e-05
-1.36515e-05
2.37207e-05
-1.31713e-05
1.42087e-05
-1.32016e-05
7.15373e-06
-1.25535e-05
4.12081e-07
-6.33328e-06
-5.32211e-06
3.26144e-06
-7.91991e-06
6.1665e-06
-1.46082e-05
7.92372e-06
-1.43219e-05
1.01039e-05
-1.37309e-05
1.07569e-05
-1.07343e-05
1.09742e-05
-6.29368e-06
1.2326e-05
-1.97643e-06
1.35254e-05
1.79699e-06
1.47814e-05
5.3367e-06
1.52987e-05
8.58344e-06
1.49045e-05
1.14086e-05
1.35883e-05
1.34624e-05
1.10641e-05
1.48262e-05
9.10427e-06
1.61487e-05
7.66875e-06
1.76432e-05
7.04977e-06
1.89211e-05
6.73325e-06
1.97092e-05
6.96602e-06
2.06868e-05
3.7332e-06
2.36473e-05
3.31224e-06
1.76508e-05
8.43635e-06
-2.8886e-06
4.29624e-05
-2.19606e-06
4.68453e-05
-1.35189e-06
4.45205e-05
-3.56797e-06
4.1757e-05
-7.70128e-06
3.24118e-05
-9.69433e-06
1.23538e-05
-9.85904e-06
5.74725e-06
-9.89037e-06
-8.7577e-07
-9.05247e-06
-7.25431e-06
-1.21135e-06
-1.18115e-05
5.60206e-06
-1.79254e-05
7.55421e-06
-1.67144e-05
9.10133e-06
-1.57148e-05
9.6739e-06
-1.24278e-05
1.05277e-05
-7.62216e-06
1.21035e-05
-3.02482e-06
1.35772e-05
1.17955e-06
1.49088e-05
5.25071e-06
1.54971e-05
8.95878e-06
1.51432e-05
1.21056e-05
1.26948e-05
1.46563e-05
7.64538e-06
2.05095e-05
4.90475e-06
1.71249e-05
3.88039e-06
1.83444e-05
3.3814e-06
1.93429e-05
3.38882e-06
1.99512e-05
3.77202e-06
2.03046e-05
2.72176e-06
2.07894e-05
3.21868e-06
2.17986e-05
1.16783e-05
-1.29893e-06
4.42975e-05
1.65436e-07
4.58129e-05
1.89455e-06
4.38303e-05
2.68254e-06
4.21544e-05
-1.20162e-06
3.88854e-05
-6.19499e-06
1.79112e-05
-6.74292e-06
3.65953e-06
-7.18169e-06
-2.51702e-06
-6.62064e-06
-8.12946e-06
-3.37061e-06
-1.42157e-05
2.82551e-06
-2.00878e-05
6.17498e-06
-1.98319e-05
7.57992e-06
-1.75835e-05
8.49999e-06
-1.37291e-05
9.86131e-06
-8.90169e-06
1.16222e-05
-4.03598e-06
1.32991e-05
5.81881e-07
1.46825e-05
5.05153e-06
1.54057e-05
9.10303e-06
1.51869e-05
1.23998e-05
1.19077e-05
1.63937e-05
5.31719e-06
2.98681e-05
7.01971e-07
2.51516e-05
-3.96594e-07
1.87944e-05
-4.22643e-07
1.96259e-05
-2.09881e-07
1.98322e-05
9.46702e-08
1.97737e-05
7.58539e-07
1.90685e-05
1.65347e-06
1.918e-05
1.57353e-05
-1.9742e-07
4.46563e-05
2.04801e-06
4.38177e-05
4.06644e-06
4.25397e-05
4.66193e-06
4.15152e-05
9.49981e-08
3.88261e-05
-4.20164e-06
2.51873e-05
-4.93333e-06
3.37045e-06
-4.45329e-06
-3.53217e-06
-4.43921e-06
-9.52276e-06
-3.08631e-06
-1.52842e-05
4.2142e-07
-2.0989e-05
4.13828e-06
-2.20849e-05
5.89073e-06
-1.93136e-05
7.37881e-06
-1.51489e-05
9.07843e-06
-1.01896e-05
1.08983e-05
-5.05622e-06
1.25453e-05
-1.01121e-07
1.3788e-05
4.78305e-06
1.49162e-05
8.44272e-06
1.73506e-05
3.33706e-06
1.45448e-05
7.0093e-06
5.36336e-07
2.85516e-05
-6.67895e-06
3.29411e-05
-4.43515e-06
2.14443e-05
-4.04399e-06
1.96126e-05
-3.30693e-06
1.98654e-05
-3.076e-06
1.89407e-05
-2.74698e-06
1.77356e-05
-3.62363e-06
1.52833e-05
1.57257e-05
1.73654e-06
4.33212e-05
4.56704e-06
4.09472e-05
6.19772e-06
4.08224e-05
5.45523e-06
4.07954e-05
2.00951e-06
3.78987e-05
-1.39594e-06
2.56813e-05
-2.6094e-06
5.49057e-06
-2.60388e-06
-4.60278e-06
-2.26378e-06
-1.06159e-05
-1.44884e-06
-1.62597e-05
2.31642e-07
-2.13849e-05
2.5812e-06
-2.29686e-05
4.63882e-06
-2.06215e-05
6.47893e-06
-1.64593e-05
8.28504e-06
-1.1377e-05
9.97914e-06
-6.06784e-06
1.14457e-05
-9.02892e-07
1.24247e-05
3.79482e-06
1.66509e-05
-3.90888e-06
1.95838e-05
-1.98465e-05
1.3295e-05
-1.10259e-05
-1.57053e-06
1.77383e-05
-1.3059e-05
2.54953e-05
-1.099e-05
1.89603e-05
-7.0362e-06
2.03649e-05
-5.7131e-06
1.98955e-05
-4.61278e-06
1.84964e-05
-4.30803e-06
1.62299e-05
-3.53851e-06
1.31134e-05
9.62564e-06
5.03299e-06
3.89579e-05
7.36399e-06
3.80429e-05
8.85496e-06
3.8889e-05
8.44355e-06
3.99437e-05
6.49049e-06
3.86133e-05
3.56852e-06
2.70981e-05
5.22595e-07
6.93357e-06
-4.20381e-07
-4.6982e-06
-3.41541e-07
-1.12034e-05
-3.55543e-07
-1.7168e-05
2.00779e-07
-2.17873e-05
1.97233e-06
-2.33779e-05
3.94229e-06
-2.13996e-05
5.7641e-06
-1.74299e-05
7.39859e-06
-1.23486e-05
8.87979e-06
-6.97182e-06
1.02135e-05
-2.16497e-06
1.39382e-05
4.57266e-08
1.74342e-05
-2.17288e-05
1.28917e-05
-3.25996e-05
6.87652e-06
-1.21363e-05
-2.8504e-06
8.91777e-06
-1.26572e-05
1.26229e-05
-1.27839e-05
6.91588e-06
-8.75464e-06
1.86788e-05
-6.77586e-06
2.02309e-05
-5.17837e-06
1.85049e-05
-4.51167e-06
1.50815e-05
-3.46099e-06
1.12111e-05
5.10704e-06
6.08927e-06
2.8088e-05
8.65532e-06
3.37794e-05
1.09557e-05
3.52531e-05
1.28447e-05
3.63793e-05
1.35393e-05
3.6626e-05
1.03678e-05
2.94003e-05
5.38599e-06
1.07085e-05
3.51907e-06
-4.50913e-06
2.06981e-06
-1.12869e-05
7.25469e-07
-1.82685e-05
7.5359e-08
-2.28131e-05
1.55217e-06
-2.4038e-05
3.26719e-06
-2.20372e-05
4.92557e-06
-1.81472e-05
6.25864e-06
-1.30709e-05
7.28315e-06
-7.63461e-06
8.84406e-06
-4.15731e-06
1.06692e-05
-1.30222e-05
9.05526e-06
-3.65272e-05
2.83537e-06
-3.17674e-05
-7.05871e-09
-3.20925e-06
-2.46362e-06
7.14495e-06
-8.58433e-06
5.92232e-06
-1.22684e-05
-4.30132e-06
-9.72894e-06
4.2554e-06
-6.22969e-06
2.02893e-05
-4.73302e-06
1.83402e-05
-3.40761e-06
1.44412e-05
-2.10247e-06
9.56774e-06
3.36148e-06
3.03988e-06
6.00362e-06
7.32417e-06
2.0992e-05
1.15182e-05
2.38033e-05
1.67996e-05
2.16325e-05
2.22091e-05
1.83816e-05
2.32465e-05
1.78508e-05
1.64348e-05
-1.35599e-05
9.14814e-06
-2.28662e-05
4.75416e-06
-1.76537e-05
1.04319e-06
-2.22248e-05
-7.29428e-07
-2.56263e-05
6.27082e-07
-2.58009e-05
2.15238e-06
-2.31045e-05
3.81482e-06
-1.89059e-05
4.97972e-06
-1.35884e-05
5.71182e-06
-8.70649e-06
1.05911e-05
-9.28273e-06
1.28171e-05
-4.60516e-05
6.78217e-06
-5.35554e-05
7.55137e-07
-2.99332e-05
-1.2071e-06
-1.09895e-06
-1.08479e-06
9.36592e-06
-2.5694e-06
7.74644e-06
-7.27455e-06
-4.13917e-06
-9.6794e-06
-1.11901e-05
-5.89008e-06
5.64403e-06
-3.37309e-06
1.75289e-05
-2.05694e-06
1.38182e-05
-9.89689e-07
8.30405e-06
2.77102e-06
6.71209e-07
-9.915e-06
6.53547e-06
-1.7808e-06
1.29842e-05
-3.30434e-06
1.6664e-05
-1.7929e-05
1.95478e-05
-3.24048e-05
1.2814e-05
-2.86484e-05
4.13587e-06
-7.73377e-05
3.83573e-06
-7.6559e-05
3.42896e-06
-5.47411e-05
-1.19574e-06
-3.65739e-05
-2.65868e-06
-3.15483e-05
-1.14871e-06
-2.89102e-05
2.40093e-07
-2.48427e-05
2.28432e-06
-1.9753e-05
3.53019e-06
-1.4364e-05
1.02598e-05
-1.30075e-05
1.44448e-05
-4.71932e-05
-6.06897e-07
-8.83759e-05
-6.04988e-06
-6.78423e-05
3.69812e-07
-3.29736e-05
1.04864e-06
-5.93464e-06
1.01476e-06
1.06667e-05
3.58835e-06
1.22139e-05
4.0854e-06
3.70771e-06
-1.17096e-06
-1.11428e-05
-4.12693e-06
-1.1306e-05
-1.74855e-06
8.94889e-07
-6.85477e-07
1.18732e-05
8.8628e-08
7.64332e-06
2.31106e-06
-1.98173e-06
-1.55219e-05
2.78082e-06
-3.22725e-05
5.18563e-06
-4.70115e-05
2.53736e-06
-6.8986e-05
3.01706e-06
-8.66188e-05
5.4815e-07
-8.896e-05
-7.96384e-06
-0.000118336
-1.54512e-05
-0.000108294
-1.3737e-05
-7.96772e-05
-8.18557e-06
-4.67338e-05
-6.2745e-06
-3.8127e-05
-4.17371e-06
-3.22654e-05
-2.52826e-06
-2.69783e-05
-4.98243e-07
-2.02554e-05
5.50618e-07
-1.53713e-05
3.55707e-07
-4.87514e-05
-9.55045e-06
-0.000105446
-1.66489e-05
-0.000112374
-1.11016e-05
-8.05831e-05
3.21241e-07
-4.03155e-05
5.10565e-06
-1.56597e-05
3.91173e-06
8.07473e-06
6.42919e-06
1.47846e-05
8.64171e-06
9.94009e-06
8.50735e-06
-1.45951e-06
5.55405e-06
-8.19175e-06
9.63703e-07
-1.71923e-05
-2.12853e-07
-6.31163e-06
4.19846e-07
5.806e-06
2.28389e-06
-1.62647e-06
-2.28601e-05
-1.52375e-06
-5.45652e-05
-3.07392e-06
-7.6633e-05
-4.22182e-06
-9.3915e-05
-3.11254e-06
-0.000105932
-1.47824e-06
-0.000115378
-5.37659e-06
-0.000124123
-1.44328e-05
-0.000104532
-1.60685e-05
-6.91955e-05
-1.41885e-05
-4.68107e-05
-1.1676e-05
-4.13849e-05
-8.4832e-06
-3.49645e-05
-5.59543e-06
-2.93651e-05
-2.30863e-06
-2.27353e-05
2.31808e-06
-2.68699e-05
-9.09486e-07
-0.000107158
-1.19029e-05
-0.000130744
-1.38196e-05
-0.000118408
-1.16857e-05
-8.99522e-05
-1.07396e-06
-4.478e-05
7.91698e-06
-2.4823e-05
7.95402e-06
5.83198e-07
8.6425e-06
1.3833e-05
1.12776e-05
1.35429e-05
1.39982e-05
8.1076e-06
1.54995e-05
1.61238e-06
7.64361e-06
-1.17433e-05
-5.64235e-08
-2.15946e-05
-6.36567e-07
-4.47631e-06
1.27989e-06
-3.49216e-07
-2.60654e-05
-1.26435e-06
-5.84893e-05
-2.99989e-06
-7.95667e-05
-3.35722e-06
-9.44745e-05
-1.70952e-06
-0.000105805