/*--------------------------------*- C++ -*----------------------------------*\
| =========                 |                                                 |
| \\      /  F ield         | OpenFOAM: The Open Source CFD Toolbox           |
|  \\    /   O peration     | Version:  v1606+                                |
|   \\  /    A nd           | Web:      www.OpenFOAM.com                      |
|    \\/     M anipulation  |                                                 |
\*---------------------------------------------------------------------------*/
FoamFile
{
    version     2.0;
    format      ascii;
    class       surfaceScalarField;
    location    "1.11";
    object      phi.particles;
}
// * * * * * * * * * * * * * * * * * * * * * * * * * * * * * * * * * * * * * //

dimensions      [0 3 -1 0 0 0 0];

internalField   nonuniform List<scalar> 
11770
(
-7.72777e-07
-1.52307e-05
1.97532e-07
-1.6818e-05
1.78215e-07
-1.68063e-05
-1.23064e-06
-1.60206e-05
-2.30822e-06
-1.47487e-05
-2.42134e-06
-1.31198e-05
-2.19904e-06
-1.30672e-05
-2.12484e-06
-1.57132e-05
-2.03301e-06
-1.44464e-05
-2.29095e-06
-1.3855e-05
-3.12733e-06
-1.29134e-05
-4.25735e-06
-1.17669e-05
-5.49002e-06
-1.07563e-05
-6.52599e-06
-1.01559e-05
-7.15783e-06
-9.52773e-06
-7.39446e-06
-9.29657e-06
-7.12796e-06
-9.55831e-06
-6.44701e-06
-1.02032e-05
-5.80555e-06
-1.17792e-05
-5.33518e-06
-1.34481e-05
-5.04216e-06
-1.43323e-05
-4.92188e-06
-1.37947e-05
-5.05417e-06
-1.20287e-05
-5.73228e-06
-1.3425e-05
-6.75712e-06
-1.44991e-05
-7.27204e-06
-1.55873e-05
-6.33456e-06
-1.64686e-05
-3.61863e-06
-1.68093e-05
-8.26072e-07
-1.6885e-05
-1.55176e-05
3.56655e-06
-9.68716e-06
5.451e-06
-9.44085e-06
7.06004e-06
-6.63225e-06
6.02374e-06
-3.00554e-06
3.34947e-06
2.49319e-06
6.66069e-07
8.52952e-06
-1.22405e-06
9.72974e-06
-1.69212e-06
7.91765e-06
-2.16852e-06
8.61459e-06
-3.20051e-06
1.00868e-05
-4.33223e-06
1.10928e-05
-5.70104e-06
1.22974e-05
-7.27418e-06
1.32512e-05
-8.64414e-06
1.28935e-05
-9.55088e-06
1.21342e-05
-9.86228e-06
1.1087e-05
-9.57975e-06
9.43992e-06
-8.86772e-06
8.44615e-06
-8.20094e-06
8.49746e-06
-7.87177e-06
8.44634e-06
-7.72452e-06
8.34789e-06
-8.17886e-06
9.10717e-06
-9.74739e-06
1.02923e-05
-1.18298e-05
7.22708e-06
-1.32878e-05
1.67846e-06
-1.27865e-05
-3.00675e-06
-1.02216e-05
-7.14483e-06
-6.84489e-06
-1.09073e-05
-4.28592e-06
-1.21037e-05
-1.18783e-05
4.04539e-06
-1.86172e-05
6.39613e-06
-1.86895e-05
8.60921e-06
-1.68648e-05
8.8183e-06
-1.30156e-05
5.33858e-06
-6.55762e-06
1.81713e-06
1.43969e-06
1.21281e-06
4.74011e-06
1.29449e-06
5.00105e-06
3.77521e-07
4.29363e-06
-1.10593e-06
5.88765e-06
-2.63113e-06
6.74039e-06
-4.48836e-06
7.26464e-06
-6.6651e-06
6.64845e-06
-8.73659e-06
3.82532e-06
-1.03276e-05
9.741e-07
-1.12626e-05
-9.25037e-07
-1.16758e-05
-1.7997e-06
-1.18734e-05
-7.40775e-07
-1.19036e-05
7.82303e-07
-1.17497e-05
1.45006e-06
-1.11871e-05
2.03232e-06
-1.01536e-05
2.96956e-06
-1.01125e-05
2.48143e-06
-1.22944e-05
-1.85836e-06
-1.37553e-05
-8.85049e-06
-1.25413e-05
-1.40229e-05
-1.04438e-05
-1.72763e-05
-7.72514e-06
-1.92613e-05
-4.54211e-06
-1.98781e-05
-1.9658e-05
3.81882e-06
-1.90715e-05
6.61876e-06
-1.89753e-05
8.72021e-06
-1.76683e-05
1.1188e-05
-1.40465e-05
1.21778e-05
-7.65438e-06
9.55875e-06
-4.24662e-07
7.68014e-06
4.06217e-06
6.6075e-06
4.35231e-06
4.37888e-06
3.67173e-06
1.49644e-06
4.34745e-06
-1.62015e-06
3.68172e-06
-4.97933e-06
6.69177e-07
-7.98181e-06
-4.60143e-06
-9.73999e-06
-1.05146e-05
-1.01633e-05
-1.46845e-05
-9.77069e-06
-1.65789e-05
-9.5575e-06
-1.59777e-05
-1.05558e-05
-1.23422e-05
-1.22953e-05
-7.34662e-06
-1.36318e-05
-3.75918e-06
-1.41021e-05
-2.54684e-06
-1.46648e-05
-8.71221e-07
-1.63542e-05
-1.43135e-06
-1.71794e-05
-5.75721e-06
-1.4839e-05
-1.14177e-05
-1.17491e-05
-1.62253e-05
-9.63115e-06
-1.90904e-05
-6.98307e-06
-2.03239e-05
-3.40162e-06
-2.02813e-05
-1.97668e-05
3.01187e-06
-1.6982e-05
6.59241e-06
-1.69256e-05
9.51561e-06
-1.59388e-05
1.22091e-05
-1.32995e-05
1.53161e-05
-7.32065e-06
1.53513e-05
-7.91849e-07
1.24017e-05
2.56636e-06
9.03557e-06
1.37664e-06
5.35274e-06
-6.20843e-07
9.57589e-07
-2.18738e-06
-4.73508e-06
-6.61767e-06
-1.00919e-05
-1.30571e-05
-1.23978e-05
-2.0106e-05
-1.14362e-05
-2.52246e-05
-8.57113e-06
-2.90432e-05
-5.25652e-06
-3.08393e-05
-2.81021e-06
-3.03056e-05
-2.19482e-06
-2.71153e-05
-4.26973e-06
-2.17008e-05
-8.55401e-06
-1.53871e-05
-1.28128e-05
-1.15935e-05
-1.62399e-05
-8.473e-06
-1.90887e-05
-6.78518e-06
-1.93072e-05
-8.28615e-06
-1.57825e-05
-1.22779e-05
-1.18446e-05
-1.63233e-05
-8.75589e-06
-1.83219e-05
-5.54476e-06
-1.88189e-05
-2.37835e-06
-1.82682e-05
-1.72195e-05
2.75713e-06
-1.38078e-05
5.75014e-06
-1.39477e-05
8.78304e-06
-1.32587e-05
1.26446e-05
-1.08704e-05
1.67823e-05
-7.13714e-06
1.73944e-05
1.86407e-07
1.28416e-05
1.8119e-06
5.97759e-06
-2.54996e-06
-1.49569e-06
-6.6977e-06
-9.55559e-06
-1.02648e-05
-1.5901e-05
-1.54516e-05
-1.73688e-05
-2.0298e-05
-1.48449e-05
-2.47202e-05
-1.0817e-05
-2.82195e-05
-6.04572e-06
-3.21315e-05
-1.20873e-06
-3.37165e-05
2.60615e-06
-3.32075e-05
4.68689e-06
-3.06544e-05
5.07896e-06
-2.6674e-05
2.36209e-06
-2.17133e-05
-4.88695e-06
-1.67741e-05
-1.33247e-05
-1.22619e-05
-1.80005e-05
-7.94556e-06
-1.79878e-05
-8.06473e-06
-1.47866e-05
-1.15028e-05
-1.08419e-05
-1.46728e-05
-7.2995e-06
-1.61918e-05
-4.47093e-06
-1.61157e-05
-1.6858e-06
-1.51255e-05
-1.34811e-05
1.773e-06
-1.0533e-05
4.76659e-06
-1.13257e-05
7.61672e-06
-1.1155e-05
1.17281e-05
-8.99027e-06
1.67889e-05
-6.45737e-06
1.78624e-05
1.44841e-07
1.10322e-05
1.38588e-06
-2.28275e-07
-4.90275e-06
-1.03895e-05
-9.82799e-06
-1.73486e-05
-1.25637e-05
-1.98798e-05
-1.48621e-05
-1.79047e-05
-1.76564e-05
-1.34226e-05
-2.15799e-05
-8.26475e-06
-2.61768e-05
-2.77139e-06
-3.01747e-05
2.29623e-06
-3.16792e-05
6.37478e-06
-3.10435e-05
8.94245e-06
-2.85107e-05
9.7562e-06
-2.46989e-05
8.3169e-06
-1.9856e-05
2.99449e-06
-1.55046e-05
-5.95167e-06
-1.02762e-05
-1.26832e-05
-5.52464e-06
-1.40712e-05
-6.75771e-06
-1.20951e-05
-1.07262e-05
-8.72368e-06
-1.33406e-05
-5.60208e-06
-1.45914e-05
-3.31139e-06
-1.42867e-05
-8.45094e-07
-1.28755e-05
-1.03916e-05
9.69249e-07
-7.91633e-06
3.46944e-06
-9.55553e-06
6.17088e-06
-9.51979e-06
9.51929e-06
-7.80454e-06
1.3474e-05
-5.0957e-06
1.44853e-05
-9.38496e-07
6.9969e-06
2.50732e-06
-4.83694e-06
-2.31539e-06
-1.39953e-05
-6.35184e-06
-1.89464e-05
-7.89219e-06
-1.97798e-05
-8.76096e-06
-1.6735e-05
-1.22643e-05
-1.17357e-05
-1.82622e-05
-6.40923e-06
-2.35867e-05
-8.61924e-07
-2.7534e-05
3.89322e-06
-2.87328e-05
7.30609e-06
-2.76538e-05
1.019e-05
-2.47667e-05
1.20989e-05
-2.04886e-05
1.15116e-05
-1.42202e-05
7.68898e-06
-9.45549e-06
-3.44963e-07
-4.4999e-06
-7.90524e-06
-9.19667e-07
-9.52151e-06
-4.38438e-06
-8.20155e-06
-9.4607e-06
-6.55269e-06
-1.24849e-05
-4.27764e-06
-1.33809e-05
-2.51639e-06
-1.30124e-05
-4.73546e-07
-1.11577e-05
-8.05299e-06
4.41176e-07
-5.99284e-06
2.69574e-06
-8.5183e-06
4.67433e-06
-8.82448e-06
6.39367e-06
-7.20908e-06
8.51322e-06
-4.06203e-06
8.12298e-06
-7.16739e-07
1.73489e-06
6.69758e-06
-6.99854e-06
4.51001e-06
-1.4162e-05
7.12519e-07
-1.8125e-05
-7.4098e-07
-1.84384e-05
-1.31094e-06
-1.48963e-05
-7.6288e-06
-9.41948e-06
-1.59685e-05
-4.02033e-06
-2.11547e-05
1.12191e-06
-2.54733e-05
5.23928e-06
-2.60555e-05
7.868e-06
-2.40932e-05
9.94419e-06
-2.0401e-05
1.15121e-05
-1.52643e-05
1.18735e-05
-8.76325e-06
9.36224e-06
-2.90899e-06
2.44806e-06
2.1061e-06
-3.46234e-06
4.44421e-06
-4.58715e-06
-8.90481e-07
-4.37601e-06
-7.13898e-06
-4.28104e-06
-1.16074e-05
-3.33139e-06
-1.27347e-05
-2.12235e-06
-1.22865e-05
-4.25563e-07
-9.8893e-06
-6.40443e-06
3.97144e-07
-4.57929e-06
2.40726e-06
-7.75375e-06
3.57312e-06
-8.64894e-06
4.18294e-06
-7.09893e-06
5.11947e-06
-2.78807e-06
3.52868e-06
1.98471e-06
-1.56218e-06
1.21838e-05
-7.6418e-06
1.2667e-05
-1.3578e-05
8.99526e-06
-1.70852e-05
8.06424e-06
-1.66529e-05
6.6967e-06
-1.36159e-05
-3.61783e-06
-7.94455e-06
-1.49829e-05
-1.96443e-06
-2.01711e-05
2.07691e-06
-2.38953e-05
5.32686e-06
-2.37656e-05
7.42856e-06
-2.07521e-05
9.00954e-06
-1.57035e-05
1.05432e-05
-9.67858e-06
1.20392e-05
-3.45519e-06
1.08648e-05
3.08191e-06
4.89363e-06
8.10582e-06
4.50999e-08
9.95497e-06
-4.07883e-07
3.92781e-06
-8.09155e-07
-3.47844e-06
-2.0842e-06
-9.61414e-06
-2.44614e-06
-1.19032e-05
-1.86402e-06
-1.14854e-05
-5.20312e-07
-8.7582e-06
-5.14221e-06
4.99938e-07
-3.55682e-06
2.31154e-06
-7.00259e-06
3.12032e-06
-8.34807e-06
3.58083e-06
-6.21534e-06
4.01856e-06
-3.20663e-07
1.40993e-06
6.25318e-06
-3.11522e-06
1.77117e-05
-7.62644e-06
2.12465e-05
-1.22055e-05
1.86806e-05
-1.49693e-05
1.79087e-05
-1.43537e-05
1.33092e-05
-1.28333e-05
8.60424e-07
-7.74662e-06
-1.34003e-05
-1.26136e-06
-1.94051e-05
1.86733e-06
-2.24845e-05
4.55628e-06
-2.13393e-05
6.13007e-06
-1.66647e-05
7.00558e-06
-9.94687e-06
8.40606e-06
-3.46789e-06
1.1278e-05
2.72188e-06
1.15337e-05
1.01516e-05
6.46156e-06
1.4647e-05
2.62031e-06
1.60882e-05
2.06292e-06
9.32285e-06
1.13099e-06
1.25885e-06
-6.03046e-07
-5.78946e-06
-1.83525e-06
-9.72716e-06
-1.72958e-06
-1.01298e-05
-6.353e-07
-7.67135e-06
-4.1734e-06
5.44631e-07
-2.78446e-06
2.24131e-06
-6.03697e-06
3.52078e-06
-7.21092e-06
4.22833e-06
-3.63786e-06
4.1017e-06
3.61492e-06
1.08648e-06
1.11563e-05
-3.69492e-06
2.36595e-05
-7.65142e-06
3.10009e-05
-1.07722e-05
2.96043e-05
-1.29085e-05
2.89771e-05
-1.18967e-05
2.12909e-05
-1.07066e-05
3.61482e-06
-7.48818e-06
-1.05493e-05
-2.11805e-06
-1.82983e-05
8.17572e-07
-2.10172e-05
3.12251e-06
-1.84051e-05
3.64757e-06
-1.19935e-05
3.56109e-06
-3.97928e-06
5.14824e-06
3.08828e-06
8.02929e-06
1.21818e-05
9.27815e-06
2.08114e-05
6.5417e-06
2.48771e-05
4.01286e-06
2.44007e-05
3.26081e-06
1.58766e-05
1.54007e-06
6.8264e-06
-6.2006e-07
-1.84368e-07
-1.92119e-06
-5.70164e-06
-1.74923e-06
-7.90285e-06
-6.55308e-07
-6.49451e-06
-3.36292e-06
6.17749e-07
-2.17647e-06
2.16848e-06
-4.79363e-06
3.96978e-06
-4.93637e-06
4.5283e-06
-2.6435e-07
3.61783e-06
7.4977e-06
7.78091e-07
1.62785e-05
-4.58232e-06
3.16388e-05
-7.60122e-06
4.17079e-05
-7.67183e-06
4.07492e-05
-8.56624e-06
4.09158e-05
-8.06307e-06
3.44265e-05
-7.96303e-06
4.51049e-06
-7.10418e-06
-8.14934e-06
-3.53604e-06
-1.65347e-05
-7.48714e-07
-1.90531e-05
4.3837e-07
-1.59703e-05
-4.84262e-08
-9.34853e-06
-1.45566e-06
-1.86079e-07
-1.7928e-06
9.42038e-06
9.21005e-07
2.17827e-05
5.32192e-06
3.25947e-05
6.98231e-06
3.7295e-05
5.89529e-06
3.48833e-05
4.14801e-06
2.50118e-05
4.36201e-07
1.22109e-05
-2.46515e-06
4.9268e-06
-2.57222e-06
-1.35701e-06
-1.64067e-06
-5.11778e-06
-5.18403e-07
-5.21789e-06
-2.67759e-06
6.36343e-07
-1.76582e-06
1.66094e-06
-3.64875e-06
2.05907e-06
-2.75959e-06
1.3309e-06
2.16842e-06
3.18614e-07
1.02889e-05
-2.60178e-06
2.13977e-05
-7.73345e-06
3.95114e-05
-7.39072e-06
4.95571e-05
-2.96183e-06
4.84652e-05
-1.59187e-07
4.91608e-05
-1.28612e-06
4.59838e-05
-4.67445e-06
8.01413e-06
-4.63452e-06
-6.43061e-06
-3.32021e-06
-1.48472e-05
-2.65383e-06
-1.74548e-05
-3.72732e-06
-1.48773e-05
-6.33108e-06
-9.27415e-06
-8.19869e-06
2.3941e-06
-9.75202e-06
1.27397e-05
-7.33763e-06
2.33399e-05
-2.78748e-07
3.86059e-05
6.52146e-06
4.45738e-05
9.29265e-06
4.23662e-05
5.60429e-06
3.20952e-05
1.43595e-06
1.70507e-05
2.97082e-08
8.19895e-06
-1.01336e-06
1.5368e-06
-1.0894e-06
-2.80044e-06
-3.91149e-07
-4.06759e-06
-2.21487e-06
4.58178e-07
-1.64667e-06
6.91768e-07
-2.99106e-06
-2.78774e-07
-1.68282e-06
-3.79858e-06
3.13839e-06
-8.10638e-06
9.73459e-06
-1.13967e-05
2.25672e-05
-1.1864e-05
4.12775e-05
-6.3898e-06
5.03564e-05
5.41171e-07
4.94065e-05
6.86586e-06
4.99703e-05
6.76014e-06
4.82913e-05
9.00898e-07
1.15936e-05
-1.48842e-06
-8.60298e-06
-2.00171e-06
-1.50892e-05
-2.45045e-06
-1.77059e-05
-5.58995e-06
-1.72233e-05
-1.37724e-05
-2.11147e-05
-2.05376e-05
-1.24725e-05
-1.9504e-05
-3.91544e-06
-1.34524e-05
5.71921e-06
-5.00959e-06
2.9293e-05
4.98015e-06
3.91609e-05
1.21529e-05
3.98775e-05
1.17825e-05
3.07147e-05
8.25708e-06
1.75522e-05
4.51076e-06
8.95668e-06
9.46742e-07
2.76701e-06
-4.88638e-07
-1.50178e-06
-3.49105e-07
-3.42651e-06
-2.0937e-06
8.30733e-07
-1.97718e-06
1.33924e-06
-2.936e-06
-8.02656e-10
-2.39759e-06
-7.78162e-06
-1.37341e-05
-1.74346e-05
-9.74235e-06
-1.80681e-05
2.95005e-06
-1.22404e-05
2.29793e-05
-4.9713e-06
3.44835e-05
1.75346e-06
3.60633e-05
8.55453e-06
3.62959e-05
1.07219e-05
3.48949e-05
5.01289e-06
4.48539e-06
-3.39836e-07
-2.22483e-05
-1.16332e-06
-1.95193e-05
-9.26741e-07
-2.11205e-05
-6.04514e-06
-2.86677e-05
-1.2008e-05
-3.45289e-05
-1.47606e-05
-3.22223e-05
-1.65498e-05
-2.77961e-05
-1.52026e-05
-2.08247e-05
-8.45491e-06
-8.95144e-07
2.73755e-06
1.0616e-05
1.22172e-05
1.49732e-05
1.78067e-05
8.64435e-06
1.77826e-05
-2.86694e-06
8.25623e-06
-1.0323e-05
-5.35717e-07
-1.58126e-05
-1.68361e-06
-2.00063e-06
-9.83728e-07
-3.55438e-06
-2.44347e-06
1.64647e-06
-2.87969e-06
3.7349e-06
-4.19138e-06
-3.8014e-06
-1.77993e-05
-1.10111e-05
-3.13395e-05
-1.06556e-05
-3.02887e-05
-1.00155e-05
-2.41586e-05
-6.92849e-06
-1.00741e-05
-2.0649e-06
3.50789e-06
2.225e-06
9.72319e-06
6.27224e-06
1.03386e-05
8.04394e-06
8.88971e-06
6.76356e-06
-1.02069e-05
3.06338e-06
-3.21711e-05
-1.46237e-06
-3.12874e-05
-6.48869e-06
-3.0321e-05
-1.00616e-05
-3.45005e-05
-9.65478e-06
-3.30636e-05
-9.31401e-06
-3.23675e-05
-9.2826e-06
-3.20216e-05
-9.11932e-06
-3.08829e-05
-6.47358e-06
-2.54061e-05
-1.95428e-07
-1.97356e-05
6.00895e-06
-1.63141e-05
9.11724e-06
-1.96247e-05
9.62718e-06
-2.54941e-05
9.60255e-06
-2.91758e-05
3.0453e-06
-3.19093e-05
-4.13149e-06
-1.66442e-05
-2.12086e-06
-5.90039e-06
-4.25192e-06
1.46491e-06
-7.40743e-06
-7.37142e-06
-1.62535e-05
-1.63578e-05
-2.88392e-05
-1.4671e-05
-2.99977e-05
-1.09913e-05
-3.16897e-05
-7.69958e-06
-3.16802e-05
-3.46557e-06
-2.76579e-05
9.67811e-07
-1.84806e-05
3.22015e-06
-1.13394e-05
3.61792e-06
-9.05471e-06
5.04928e-06
-1.00108e-05
8.4379e-06
-1.79865e-05
8.47344e-06
-2.97647e-05
1.58359e-06
-3.61665e-05
-6.12698e-06
-3.38735e-05
-9.25008e-06
-2.9085e-05
-8.75795e-06
-2.7268e-05
-7.60079e-06
-2.66463e-05
-6.287e-06
-2.69464e-05
-4.72285e-06
-2.73463e-05
-2.82783e-06
-2.70174e-05
-3.21708e-07
-2.60411e-05
2.32704e-06
-2.50918e-05
4.60818e-06
-2.59284e-05
6.93499e-06
-2.65992e-05
9.68151e-06
-2.72558e-05
1.12179e-05
-2.71508e-05
5.51467e-06
-2.62573e-05
-1.30388e-06
-1.48935e-05
-1.07896e-05
-4.66595e-06
-1.31099e-05
-1.55375e-05
-2.23067e-05
-1.78642e-05
-2.19863e-05
-1.53396e-05
-2.43371e-05
-1.29195e-05
-2.60833e-05
-1.02205e-05
-2.77318e-05
-5.4902e-06
-2.73327e-05
7.71145e-07
-2.22567e-05
4.03845e-06
-1.5926e-05
4.13214e-06
-1.41158e-05
5.6798e-06
-1.42022e-05
9.88039e-06
-1.78531e-05
1.26993e-05
-2.51964e-05
1.00875e-05
-3.01649e-05
1.76409e-06
-2.90778e-05
-5.08478e-06
-2.40102e-05
-5.97983e-06
-2.12297e-05
-5.58184e-06
-2.08765e-05
-4.7816e-06
-2.13843e-05
-3.41301e-06
-2.15382e-05
-1.65849e-06
-2.12695e-05
3.96483e-07
-2.07415e-05
2.70013e-06
-1.99525e-05
5.41054e-06
-1.98063e-05
7.68658e-06
-2.01621e-05
9.27746e-06
-2.0841e-05
1.04245e-05
-2.02073e-05
9.8249e-06
-1.83426e-05
4.99919e-06
-1.64774e-05
-1.35401e-05
-5.81524e-06
-1.1085e-05
-1.43599e-05
-1.324e-05
-1.64717e-05
-1.43051e-05
-1.40478e-05
-1.74416e-05
-1.23071e-05
-1.98953e-05
-9.87238e-06
-2.28826e-05
-7.14702e-06
-2.35913e-05
-1.87195e-06
-2.02413e-05
3.76887e-06
-1.1738e-05
5.98807e-06
-1.02893e-05
7.79652e-06
-1.0891e-05
1.22842e-05
-1.37498e-05
1.52658e-05
-1.94306e-05
1.29422e-05
-2.34517e-05
6.04475e-06
-2.27538e-05
-1.45081e-06
-1.793e-05
-4.09662e-06
-1.46565e-05
-4.06371e-06
-1.40158e-05
-3.55831e-06
-1.42821e-05
-2.68869e-06
-1.44427e-05
-1.19997e-06
-1.44589e-05
8.79053e-07
-1.41209e-05
3.44712e-06
-1.3494e-05
5.8609e-06
-1.32513e-05
7.62581e-06
-1.27793e-05
8.86633e-06
-1.26598e-05
9.68758e-06
-1.16507e-05
9.15986e-06
-9.77963e-06
5.6615e-06
-8.26773e-06
-7.45436e-06
-6.63806e-06
-3.89902e-06
-1.34831e-05
-4.0591e-06
-1.36516e-05
-5.7034e-06
-1.07494e-05
-7.39867e-06
-9.70812e-06
-1.10163e-05
-9.0993e-06
-1.48073e-05
-8.61306e-06
-1.75684e-05
-4.42302e-06
-1.69939e-05
2.8789e-06
-9.80498e-06
7.21863e-06
-2.46221e-06
1.11606e-05
-2.47252e-06
1.57371e-05
-5.61809e-06
1.62741e-05
-1.33311e-05
1.3189e-05
-1.62489e-05
6.4933e-06
-1.43216e-05
-5.96459e-07
-9.31693e-06
-3.75876e-06
-5.53157e-06
-4.30827e-06
-4.40387e-06
-3.93272e-06
-4.66357e-06
-3.03932e-06
-5.36442e-06
-1.64659e-06
-5.94227e-06
3.14654e-07
-6.0959e-06
2.68498e-06
-5.76951e-06
5.04185e-06
-5.34909e-06
6.75441e-06
-4.46279e-06
7.8106e-06
-3.72156e-06
8.10843e-06
-3.57487e-06
6.66235e-06
-2.87022e-06
3.45014e-06
-2.09726e-06
-2.07909e-06
-4.34165e-06
2.00637e-06
-8.57086e-06
2.97293e-06
-1.12182e-05
2.48502e-06
-1.14278e-05
2.84872e-06
-1.08692e-05
-3.51175e-07
-1.08312e-05
-4.2774e-06
-9.66496e-06
-8.45857e-06
-6.46317e-06
-9.49179e-06
-1.07322e-06
-5.71698e-06
4.73545e-06
3.10688e-06
1.16595e-05
4.99665e-06
1.58956e-05
7.8849e-07
1.48329e-05
-6.07198e-06
1.27533e-05
-6.48016e-06
8.20188e-06
-3.73693e-06
1.06861e-06
4.16514e-07
-3.92098e-06
2.83934e-06
-5.93422e-06
3.33891e-06
-6.60602e-06
2.93029e-06
-6.45094e-06
2.29712e-06
-5.40849e-06
1.83094e-06
-3.47228e-06
1.74448e-06
-9.01546e-07
2.03583e-06
2.21562e-06
2.12825e-06
5.18389e-06
1.79124e-06
6.09732e-06
1.47106e-06
4.61445e-06
9.75243e-07
2.72573e-06
6.28135e-07
1.16371e-06
5.44792e-07
1.45395e-07
-1.30329e-06
4.55343e-06
-3.82433e-06
5.77477e-06
-6.23963e-06
6.49549e-06
-6.52936e-06
7.28802e-06
-5.88441e-06
6.62262e-06
-7.38354e-06
4.92951e-06
-9.885e-06
2.42432e-06
-1.03304e-05
1.14816e-06
-6.65114e-06
3.35691e-06
2.26004e-06
8.50847e-06
1.09134e-05
1.07678e-05
1.40555e-05
6.00197e-06
1.38862e-05
2.20935e-06
8.56666e-06
4.12274e-06
3.45582e-07
6.37269e-06
-4.76054e-06
7.85109e-06
-6.96149e-06
8.02801e-06
-7.44516e-06
7.61698e-06
-6.98897e-06
7.05387e-06
-6.03266e-06
6.5302e-06
-4.6739e-06
6.16307e-06
-2.86271e-06
5.99992e-06
-6.10781e-07
5.94154e-06
1.41991e-06
5.4482e-06
1.9174e-06
4.08046e-06
1.2548e-06
2.77204e-06
7.39246e-07
2.20316e-06
4.92174e-07
1.78326e-06
2.13027e-07
1.40236e-06
6.41517e-07
6.25657e-07
4.24077e-06
6.33669e-07
5.95887e-06
5.89194e-07
6.86621e-06
-2.32961e-07
8.15096e-06
-2.17587e-06
9.65464e-06
-5.17232e-06
1.05895e-05
-7.67959e-06
1.04804e-05
-8.47867e-06
1.01363e-05
-7.0607e-06
1.16945e-05
1.27301e-07
1.48054e-05
8.38409e-06
1.53435e-05
7.86462e-06
1.15761e-05
2.34661e-06
9.77912e-06
-1.94798e-06
1.10909e-05
-4.91679e-06
1.16239e-05
-6.6972e-06
1.13672e-05
-7.67989e-06
1.07821e-05
-8.06424e-06
1.00289e-05
-7.9524e-06
9.25236e-06
-7.39992e-06
8.49924e-06
-6.38671e-06
7.7815e-06
-4.89034e-06
7.07462e-06
-3.15342e-06
6.32021e-06
-1.83044e-06
5.44984e-06
-1.16911e-06
4.47139e-06
-8.00379e-07
3.62018e-06
-5.11994e-07
3.01274e-06
-3.0162e-07
2.45587e-06
-1.74528e-07
1.84812e-06
8.61208e-07
1.06191e-06
3.51617e-06
1.6175e-06
5.88656e-06
2.09e-06
7.29753e-06
2.31241e-06
8.79457e-06
2.02573e-06
1.0388e-05
1.05241e-06
1.18703e-05
-1.64437e-06
1.30687e-05
-5.56996e-06
1.43909e-05
-6.44509e-06
1.56433e-05
-2.89873e-06
1.65108e-05
-2.95315e-07
1.5952e-05
-2.05121e-06
1.47283e-05
-4.72696e-06
1.42782e-05
-6.06506e-06
1.39901e-05
-6.93982e-06
1.34167e-05
-7.54415e-06
1.26583e-05
-7.87523e-06
1.17823e-05
-7.94322e-06
1.08616e-05
-7.75592e-06
9.93434e-06
-7.29442e-06
9.02709e-06
-6.53567e-06
8.1453e-06
-5.4922e-06
7.27157e-06
-4.30408e-06
6.38044e-06
-3.2037e-06
5.50872e-06
-2.3205e-06
4.68829e-06
-1.64496e-06
3.93116e-06
-1.11803e-06
3.27543e-06
-6.96539e-07
2.67641e-06
-3.46957e-07
2.00928e-06
9.39887e-07
1.04165e-06
3.0245e-06
1.59266e-06
5.76059e-06
1.85418e-06
7.61876e-06
1.87637e-06
9.45877e-06
1.67734e-06
1.1253e-05
1.28851e-06
1.28664e-05
5.95612e-07
1.42074e-05
-9.30099e-07
1.52353e-05
-2.99143e-06
1.5916e-05
-4.50148e-06
1.6556e-05
-5.48205e-06
1.62834e-05
-6.35888e-06
1.59543e-05
-6.78936e-06
1.56137e-05
-7.12145e-06
1.50405e-05
-7.48177e-06
1.42409e-05
-7.77648e-06
1.32986e-05
-7.91e-06
1.22921e-05
-7.86315e-06
1.12625e-05
-7.6266e-06
1.023e-05
-7.18563e-06
9.21078e-06
-6.53625e-06
8.21358e-06
-5.69943e-06
7.23971e-06
-4.74308e-06
6.292e-06
-3.77821e-06
5.39256e-06
-2.90262e-06
4.56294e-06
-2.15295e-06
3.83112e-06
-1.50809e-06
3.21001e-06
-9.4525e-07
2.63806e-06
-4.48242e-07
1.97867e-06
9.17727e-07
9.01393e-07
2.62555e-06
1.32042e-06
5.6497e-06
1.36293e-06
7.88838e-06
1.12621e-06
1.00288e-05
6.90005e-07
1.20423e-05
1.05836e-07
1.38213e-05
-5.6178e-07
1.53143e-05
-1.34731e-06
1.6466e-05
-2.7998e-06
1.71616e-05
-4.56337e-06
1.74457e-05
-5.88758e-06
1.73657e-05
-6.51972e-06
1.70237e-05
-6.91264e-06
1.6472e-05
-7.29712e-06
1.56987e-05
-7.62965e-06
1.47535e-05
-7.85471e-06
1.3692e-05
-7.93009e-06
1.25693e-05
-7.84249e-06
1.14238e-05
-7.58668e-06
1.02788e-05
-7.15953e-06
9.15152e-06
-6.56664e-06
8.05541e-06
-5.83029e-06
6.99988e-06
-4.99496e-06
5.99613e-06
-4.12386e-06
5.06899e-06
-3.27691e-06
4.24784e-06
-2.48987e-06
3.55456e-06
-1.7687e-06
2.97877e-06
-1.11135e-06
2.44921e-06
-5.16635e-07
1.82877e-06
8.36896e-07
7.04564e-07
2.30015e-06
9.83133e-07
5.57421e-06
8.86493e-07
8.14772e-06
5.02109e-07
1.05564e-05
-1.04046e-07
1.27772e-05
-8.83702e-07
1.47208e-05
-1.79517e-06
1.63265e-05
-2.75782e-06
1.75466e-05
-3.78705e-06
1.83431e-05
-4.74196e-06
1.86697e-05
-5.62038e-06
1.84677e-05
-6.34637e-06
1.79208e-05
-6.94937e-06
1.71626e-05
-7.42808e-06
1.62255e-05
-7.76842e-06
1.51436e-05
-7.96607e-06
1.39601e-05
-8.01199e-06
1.27197e-05
-7.90036e-06
1.14588e-05
-7.63164e-06
1.02032e-05
-7.21023e-06
8.97337e-06
-6.6468e-06
7.78715e-06
-5.96182e-06
6.6612e-06
-5.18658e-06
5.61378e-06
-4.36122e-06
4.67092e-06
-3.52593e-06
3.86062e-06
-2.71348e-06
3.19663e-06
-1.94261e-06
2.65679e-06
-1.22285e-06
2.16959e-06
-5.6358e-07
1.60566e-06
7.23769e-07
4.48584e-07
2.07295e-06
6.00839e-07
5.55099e-06
4.22554e-07
8.4192e-06
-2.32376e-08
1.10691e-05
-6.9511e-07
1.34823e-05
-1.57165e-06
1.5594e-05
-2.60449e-06
1.73241e-05
-3.68512e-06
1.85679e-05
-4.67577e-06
1.92588e-05
-5.52233e-06
1.94369e-05
-6.2269e-06
1.91731e-05
-6.84281e-06
1.85542e-05
-7.35887e-06
1.76808e-05
-7.75343e-06
1.66202e-05
-8.01999e-06
1.54224e-05
-8.15614e-06
1.413e-05
-8.15515e-06
1.27833e-05
-8.0109e-06
1.14181e-05
-7.72321e-06
1.00629e-05
-7.29713e-06
8.74177e-06
-6.74394e-06
7.47709e-06
-6.08158e-06
6.29059e-06
-5.33358e-06
5.2049e-06
-4.52841e-06
4.24613e-06
-3.69566e-06
3.43869e-06
-2.86516e-06
2.79046e-06
-2.06062e-06
2.27614e-06
-1.29832e-06
1.83006e-06
-5.95794e-07
1.33557e-06
5.92667e-07
2.14862e-07
1.96021e-06
2.57964e-07
5.58307e-06
2.65315e-08
8.70871e-06
-4.54186e-07
1.15664e-05
-1.17423e-06
1.41488e-05
-2.16619e-06
1.64418e-05
-3.3565e-06
1.83855e-05
-4.60302e-06
1.97326e-05
-5.66908e-06
2.0328e-05
-6.50953e-06
2.0287e-05
-7.13947e-06
1.98237e-05
-7.61975e-06
1.90489e-05
-7.97845e-06
1.80389e-05
-8.22909e-06
1.68712e-05
-8.37707e-06
1.55803e-05
-8.41987e-06
1.41988e-05
-8.34943e-06
1.2764e-05
-8.15752e-06
1.13115e-05
-7.84038e-06
9.87197e-06
-7.39987e-06
8.47293e-06
-6.84445e-06
7.14064e-06
-6.18874e-06
5.90051e-06
-5.45103e-06
4.77819e-06
-4.65299e-06
3.80002e-06
-3.81783e-06
2.98797e-06
-2.97275e-06
2.34677e-06
-2.14319e-06
1.85256e-06
-1.35021e-06
1.4485e-06
-6.17787e-07
1.03457e-06
4.51719e-07
6.00987e-08
1.95244e-06
2.88321e-08
5.66219e-06
-2.36477e-07
8.98568e-06
-7.53339e-07
1.19947e-05
-1.54546e-06
1.47577e-05
-2.6577e-06
1.73751e-05
-4.07904e-06
1.97032e-05
-5.58959e-06
2.12465e-05
-6.83487e-06
2.16077e-05
-7.66632e-06
2.11547e-05
-8.19528e-06
2.03671e-05
-8.53338e-06
1.93968e-05
-8.71362e-06
1.82611e-05
-8.80082e-06
1.69836e-05
-8.80981e-06
1.56131e-05
-8.73972e-06
1.41612e-05
-8.58313e-06
1.26575e-05
-8.33037e-06
1.11363e-05
-7.97388e-06
9.62912e-06
-7.51087e-06
8.16622e-06
-6.94511e-06
6.77692e-06
-6.28689e-06
5.48942e-06
-5.55024e-06
4.33173e-06
-4.75206e-06
3.33129e-06
-3.91132e-06
2.5097e-06
-3.05305e-06
1.87106e-06
-2.20316e-06
1.39538e-06
-1.38657e-06
1.03615e-06
-6.3244e-07
7.12937e-07
3.05528e-07
1.09158e-08
1.98848e-06
-6.30801e-08
5.76747e-06
-3.63038e-07
9.19799e-06
-8.94594e-07
1.23513e-05
-1.73425e-06
1.53973e-05
-3.01754e-06
1.85568e-05
-4.74559e-06
2.16942e-05
-6.63406e-06
2.36926e-05
-8.16808e-06
2.35131e-05
-9.02644e-06
2.21526e-05
-9.36751e-06
2.08489e-05
-9.52201e-06
1.95735e-05
-9.53111e-06
1.83064e-05
-9.43281e-06
1.69531e-05
-9.28843e-06
1.55161e-05
-9.09339e-06
1.40134e-05
-8.83991e-06
1.2461e-05
-8.5172e-06
1.08905e-05
-8.1142e-06
9.33324e-06
-7.62308e-06
7.82088e-06
-7.04209e-06
6.38524e-06
-6.37645e-06
5.05688e-06
-5.6361e-06
3.86579e-06
-4.83405e-06
2.84137e-06
-3.9863e-06
2.00678e-06
-3.11581e-06
1.3682e-06
-2.24862e-06
9.11164e-07
-1.41265e-06
6.00488e-07
-6.41724e-07
3.77053e-07
1.56316e-07
2.0994e-08
2.04852e-06
-8.59045e-08
5.87163e-06
-3.78686e-07
9.41533e-06
-8.86658e-07
1.28161e-05
-1.84732e-06
1.65019e-05
-3.33274e-06
2.15665e-05
-5.19635e-06
2.68099e-05
-7.30333e-06
2.96338e-05
-9.19035e-06
2.83763e-05
-1.04712e-05
2.39131e-05
-1.06763e-05
2.12642e-05
-1.05495e-05
1.96573e-05
-1.03735e-05
1.81707e-05
-1.00963e-05
1.67563e-05
-9.78311e-06
1.5285e-05
-9.45586e-06
1.37539e-05
-9.09996e-06
1.2175e-05
-8.70274e-06
1.05757e-05
-8.24977e-06
8.98646e-06
-7.72802e-06
7.43905e-06
-7.12986e-06
5.96751e-06
-6.45504e-06
4.60491e-06
-5.7093e-06
3.38333e-06
-4.90232e-06
2.3346e-06
-4.04769e-06
1.48493e-06
-3.16641e-06
8.44964e-07
-2.28445e-06
4.07156e-07
-1.43194e-06
1.48587e-07
-6.47189e-07
3.20297e-08
5.14844e-09
-4.76781e-08
2.17464e-06
-2.00967e-07
6.03407e-06
-4.50311e-07
9.83754e-06
-9.00142e-07
1.40838e-05
-1.69418e-06
2.02144e-05
-2.74291e-06
2.78246e-05
-3.90794e-06
3.37809e-05
-5.77903e-06
3.73439e-05
-9.11689e-06
3.75528e-05
-1.1459e-05
3.05157e-05
-1.20443e-05
2.15534e-05
-1.16222e-05
1.96138e-05
-1.11784e-05
1.79345e-05
-1.07434e-05
1.63923e-05
-1.02643e-05
1.49194e-05
-9.80174e-06
1.33842e-05
-9.34271e-06
1.18028e-05
-8.87106e-06
1.01968e-05
-8.36869e-06
8.59403e-06
-7.8171e-06
7.02577e-06
-7.20252e-06
5.52836e-06
-6.51909e-06
4.13823e-06
-5.76828e-06
2.89041e-06
-4.95694e-06
1.81964e-06
-4.0968e-06
9.55568e-07
-3.20709e-06
3.14567e-07
-2.31333e-06
-1.02929e-07
-1.44694e-06
-3.07135e-07
-6.50427e-07
-3.13831e-07
-1.46132e-07
-3.88752e-07
2.23749e-06
-8.92858e-07
6.46568e-06
-1.421e-06
1.10631e-05
-2.48975e-06
1.7425e-05
-4.38528e-06
2.5746e-05
-6.29447e-06
3.27331e-05
-6.89249e-06
3.69547e-05
-6.71116e-06
4.00697e-05
-8.1236e-06
4.31692e-05
-1.18754e-05
4.00728e-05
-1.37938e-05
2.39272e-05
-1.27004e-05
1.92536e-05
-1.19389e-05
1.75757e-05
-1.13066e-05
1.59168e-05
-1.06993e-05
1.44215e-05
-1.01061e-05
1.29113e-05
-9.54833e-06
1.13522e-05
-9.00675e-06
9.76204e-06
-8.4596e-06
8.16481e-06
-7.88219e-06
6.58974e-06
-7.25414e-06
5.07652e-06
-6.56401e-06
3.66673e-06
-5.80925e-06
2.40004e-06
-4.99478e-06
1.31509e-06
-4.13137e-06
4.43452e-07
-3.23702e-06
-1.93628e-07
-2.33617e-06
-5.88122e-07
-1.46014e-06
-7.38517e-07
-6.54174e-07
-6.40816e-07
-2.90713e-07
-7.50498e-07
3.12087e-06
-3.06761e-06
7.49926e-06
-5.35246e-06
1.38954e-05
-8.67103e-06
2.27443e-05
-1.16149e-05
2.98125e-05
-1.30324e-05
3.43312e-05
-1.3397e-05
3.69078e-05
-1.16675e-05
3.86863e-05
-9.90825e-06
4.16809e-05
-1.21113e-05
4.47167e-05
-1.39754e-05
3.16145e-05
-1.35323e-05
1.89341e-05
-1.25982e-05
1.70341e-05
-1.17706e-05
1.53297e-05
-1.10446e-05
1.3819e-05
-1.03439e-05
1.23514e-05
-9.69711e-06
1.08355e-05
-9.09441e-06
9.28478e-06
-8.51112e-06
7.71322e-06
-7.91487e-06
6.1455e-06
-7.27732e-06
4.62876e-06
-6.58239e-06
3.21214e-06
-5.82426e-06
1.94003e-06
-5.00728e-06
8.52467e-07
-4.14387e-06
-1.83847e-08
-3.25133e-06
-6.46379e-07
-2.35233e-06
-1.01635e-06
-1.47544e-06
-1.11579e-06
-6.64641e-07
-9.25096e-07
-4.18125e-07
-1.54183e-06
4.52216e-06
-6.80432e-06
1.42939e-05
-1.40008e-05
2.16639e-05
-1.78332e-05
2.95809e-05
-1.90501e-05
3.27322e-05
-1.90363e-05
3.53172e-05
-1.87837e-05
3.66427e-05
-1.77522e-05
3.74039e-05
-1.49234e-05
3.86481e-05
-1.28694e-05
4.28055e-05
-1.41324e-05
3.99787e-05
-1.47588e-05
1.9394e-05
-1.32471e-05
1.613e-05
-1.2152e-05
1.46217e-05
-1.1279e-05
1.31555e-05
-1.0492e-05
1.17208e-05
-9.76845e-06
1.02695e-05
-9.11713e-06
8.78454e-06
-8.51085e-06
7.26148e-06
-7.90469e-06
5.71734e-06
-7.2593e-06
4.21251e-06
-6.55975e-06
2.80129e-06
-5.80423e-06
1.53105e-06
-4.99426e-06
4.43903e-07
-4.13944e-06
-4.23435e-07
-3.25594e-06
-1.04093e-06
-2.36474e-06
-1.38686e-06
-1.49342e-06
-1.43871e-06
-6.83198e-07
-1.16545e-06
-5.25467e-07
-5.42049e-06
9.42192e-06
-1.02486e-05
2.355e-05
-1.9398e-05
3.28132e-05
-2.31233e-05
3.67617e-05
-2.40924e-05
3.62366e-05
-2.32623e-05
3.65953e-05
-2.24894e-05
3.66462e-05
-2.15157e-05
3.66803e-05
-1.97251e-05
3.67656e-05
-1.70276e-05
3.88415e-05
-1.59771e-05
4.20801e-05
-1.53081e-05
2.076e-05
-1.36874e-05
1.52683e-05
-1.24113e-05
1.38592e-05
-1.13952e-05
1.24379e-05
-1.05173e-05
1.1049e-05
-9.73665e-06
9.67454e-06
-9.05402e-06
8.2862e-06
-8.44526e-06
6.83998e-06
-7.84665e-06
5.33111e-06
-7.20489e-06
3.83884e-06
-6.50429e-06
2.42708e-06
-5.74915e-06
1.15476e-06
-4.94763e-06
6.8902e-08
-4.10865e-06
-7.90735e-07
-3.24522e-06
-1.39319e-06
-2.37413e-06
-1.71275e-06
-1.51775e-06
-1.72069e-06
-7.08175e-07
-1.37618e-06
-6.2092e-07
-6.04311e-06
1.89803e-05
-9.79896e-06
3.24793e-05
-2.03901e-05
4.2053e-05
-2.47124e-05
4.30757e-05
-2.64581e-05
3.98439e-05
-2.60079e-05
3.83318e-05
-2.49378e-05
3.6886e-05
-2.39805e-05
3.61202e-05
-2.25187e-05
3.56377e-05
-2.03101e-05
3.58592e-05
-1.73709e-05
3.92042e-05
-1.50537e-05
2.37582e-05
-1.38247e-05
1.46722e-05
-1.24993e-05
1.31237e-05
-1.13627e-05
1.16796e-05
-1.03992e-05
1.03377e-05
-9.57145e-06
9.06572e-06
-8.8781e-06
7.81368e-06
-8.29679e-06
6.47226e-06
-7.72375e-06
4.99261e-06
-7.09215e-06
3.49203e-06
-6.39498e-06
2.06741e-06
-5.64421e-06
7.91935e-07
-4.85296e-06
-2.8538e-07
-4.0338e-06
-1.12673e-06
-3.19892e-06
-1.70294e-06
-2.36013e-06
-1.98892e-06
-1.53035e-06
-1.95448e-06
-7.2871e-07
-1.55209e-06
-7.03703e-07
-5.8893e-06
2.39066e-05
-6.68626e-06
4.22708e-05
-1.57747e-05
4.57326e-05
-2.46375e-05
4.64284e-05
-2.70668e-05
4.34049e-05
-2.752e-05
4.09992e-05
-2.65314e-05
3.72555e-05
-2.54878e-05
3.57326e-05
-2.41962e-05
3.4665e-05
-2.26441e-05
3.38215e-05
-1.87073e-05
3.51585e-05
-1.46306e-05
2.8452e-05
-1.36996e-05
1.40864e-05
-1.23648e-05
1.2394e-05
-1.11414e-05
1.08907e-05
-1.01056e-05
9.59745e-06
-9.23963e-06
8.45136e-06