/*--------------------------------*- C++ -*----------------------------------*\
| =========                 |                                                 |
| \\      /  F ield         | OpenFOAM: The Open Source CFD Toolbox           |
|  \\    /   O peration     | Version:  v1606+                                |
|   \\  /    A nd           | Web:      www.OpenFOAM.com                      |
|    \\/     M anipulation  |                                                 |
\*---------------------------------------------------------------------------*/
FoamFile
{
    version     2.0;
    format      ascii;
    class       volScalarField;
    location    "1.48";
    object      alpha.particlesMean;
}
// * * * * * * * * * * * * * * * * * * * * * * * * * * * * * * * * * * * * * //

dimensions      [0 0 0 0 0 0 0];

internalField   nonuniform List<scalar> 
6000
(
0.415691
0.420078
0.419546
0.420592
0.420716
0.420337
0.417452
0.414994
0.412769
0.410744
0.410211
0.409273
0.40776
0.406172
0.404839
0.405101
0.405864
0.406939
0.407471
0.409045
0.410339
0.414277
0.418768
0.420791
0.421516
0.421299
0.421238
0.420691
0.422083
0.417259
0.388687
0.392638
0.390347
0.389134
0.38739
0.38692
0.388482
0.388107
0.38871
0.388479
0.388178
0.38828
0.388002
0.387831
0.387953
0.388081
0.388037
0.387896
0.388008
0.38837
0.389125
0.388891
0.387199
0.386705
0.386866
0.387607
0.389597
0.390857
0.392813
0.388432
0.394096
0.403845
0.399997
0.397281
0.394537
0.395344
0.395337
0.395753
0.396596
0.396028
0.395694
0.395364
0.394512
0.394376
0.394447
0.394439
0.394339
0.394266
0.394964
0.39535
0.395627
0.395304
0.39445
0.393355
0.393907
0.396737
0.400841
0.403493
0.406795
0.395874
0.391598
0.399259
0.393546
0.388958
0.385889
0.386649
0.386001
0.386126
0.388443
0.390008
0.389534
0.388702
0.388169
0.388515
0.38854
0.388051
0.387853
0.388207
0.388853
0.389051
0.38835
0.386646
0.38481
0.384399
0.387355
0.391321
0.395174
0.398967
0.403136
0.393644
0.38947
0.394978
0.391363
0.385034
0.378349
0.375674
0.374284
0.372545
0.375036
0.379795
0.381157
0.380457
0.380663
0.381407
0.381247
0.380488
0.38007
0.3804
0.380471
0.380378
0.377278
0.373606
0.372588
0.375293
0.381186
0.386148
0.391444
0.396067
0.397954
0.391221
0.390311
0.394234
0.394405
0.388756
0.378287
0.371065
0.366854
0.363046
0.361794
0.366372
0.370344
0.369298
0.369308
0.371332
0.372524
0.37204
0.37089
0.368824
0.368395
0.368589
0.363809
0.360848
0.363937
0.37011
0.379852
0.387143
0.39441
0.397933
0.396559
0.39117
0.394205
0.399944
0.402206
0.397363
0.386372
0.374673
0.365067
0.359019
0.35276
0.352859
0.35657
0.355256
0.356025
0.361509
0.36599
0.366356
0.363029
0.357319
0.355211
0.354191
0.350779
0.35334
0.360467
0.37012
0.385731
0.396576
0.403778
0.405903
0.401129
0.394242
0.400914
0.40621
0.409751
0.407053
0.397802
0.383187
0.36701
0.356453
0.348041
0.34372
0.343178
0.342108
0.343966
0.35371
0.362933
0.363482
0.356298
0.347953
0.343565
0.340877
0.339317
0.347647
0.357905
0.372029
0.394135
0.410675
0.415915
0.413875
0.406451
0.40067
0.406693
0.408389
0.414653
0.416288
0.410244
0.392635
0.371072
0.355115
0.346721
0.343061
0.337496
0.333405
0.336632
0.348853
0.362708
0.361406
0.34972
0.339572
0.333933
0.333088
0.334851
0.343294
0.355118
0.374414
0.401143
0.424003
0.427383
0.419587
0.409053
0.407154
0.408024
0.409991
0.419333
0.424264
0.419567
0.399545
0.37494
0.356518
0.34745
0.342931
0.338171
0.33292
0.338338
0.350131
0.364351
0.360429
0.347695
0.334934
0.327667
0.329522
0.333013
0.340912
0.353614
0.374777
0.403777
0.431213
0.435508
0.424405
0.412448
0.410162
0.408963
0.412186
0.423477
0.431087
0.423867
0.403007
0.378432
0.359852
0.348932
0.341929
0.340482
0.338858
0.345376
0.355961
0.370223
0.364646
0.351737
0.335718
0.325357
0.327245
0.329333
0.340519
0.353951
0.374524
0.403454
0.43076
0.439938
0.428491
0.416467
0.413319
0.409808
0.414052
0.424737
0.433039
0.421542
0.401783
0.38187
0.362704
0.34961
0.340734
0.343075
0.347502
0.352671
0.363313
0.378056
0.37429
0.361148
0.341052
0.326767
0.32541
0.326569
0.340095
0.356872
0.376415
0.400462
0.423649
0.437371
0.429039
0.419019
0.414963
0.410208
0.414322
0.422769
0.429817
0.412942
0.396669
0.382737
0.364645
0.349472
0.339515
0.344076
0.353415
0.357417
0.370528
0.386732
0.385142
0.370047
0.34817
0.332324
0.326849
0.325956
0.339534
0.360421
0.378478
0.395519
0.414686
0.427802
0.424992
0.417746
0.414517
0.409776
0.412971
0.419827
0.423
0.402473
0.390788
0.382377
0.366266
0.349466
0.338304
0.340599
0.352942
0.360885
0.377404
0.395308
0.393113
0.374953
0.355734
0.338926
0.330038
0.328796
0.342129
0.364028
0.379576
0.391581
0.406094
0.415845
0.418657
0.414808
0.413558
0.409266
0.410773
0.41683
0.414987
0.396653
0.390428
0.38442
0.367593
0.347875
0.335697
0.334137
0.346106
0.362748
0.380279
0.398668
0.39371
0.375299
0.364416
0.3477
0.334887
0.334302
0.347451
0.368578
0.381234
0.390916
0.401067
0.404008
0.411921
0.412883
0.413194
0.410343
0.409116
0.411663
0.40708
0.39534
0.397342
0.39038
0.369236
0.345402
0.332757
0.329197
0.338445
0.358554
0.380149
0.39125
0.386723
0.374855
0.371394
0.356545
0.340881
0.34141
0.354368
0.374943
0.385656
0.393037
0.400418
0.398107
0.406179
0.413776
0.414777
0.411425
0.409203
0.406859
0.398505
0.393687
0.397816
0.393448
0.372326
0.345228
0.33188
0.326682
0.333633
0.352023
0.375424
0.387073
0.37722
0.367563
0.368629
0.35867
0.346779
0.349396
0.362169
0.382194
0.392462
0.398851
0.402684
0.397541
0.403638
0.415953
0.417582
0.411344
0.407621
0.402196
0.393038
0.390129
0.38857
0.385876
0.371997
0.349333
0.335567
0.328187
0.333402
0.350611
0.366731
0.385095
0.37689
0.359398
0.356193
0.354532
0.350667
0.357067
0.369529
0.38627
0.397517
0.40538
0.405739
0.40126
0.406547
0.420012
0.422232
0.414778
0.406959
0.395426
0.387509
0.384213
0.378614
0.371684
0.363978
0.354388
0.343167
0.335231
0.337477
0.353041
0.368726
0.377627
0.375705
0.353574
0.343005
0.347393
0.351476
0.362602
0.375452
0.384223
0.394693
0.403915
0.406596
0.405985
0.412355
0.425681
0.427436
0.421387
0.41022
0.391689
0.379568
0.373315
0.362698
0.355087
0.347892
0.349421
0.346014
0.338597
0.338241
0.352787
0.370829
0.373644
0.371009
0.347961
0.331572
0.341202
0.353493
0.367128
0.374353
0.372406
0.381438
0.39068
0.398489
0.404148
0.414375
0.425971
0.431374
0.436288
0.413137
0.385795
0.364107
0.35538
0.35028
0.348481
0.34322
0.341041
0.340871
0.336508
0.336013
0.346676
0.360856
0.364796
0.361611
0.340195
0.326767
0.341045
0.356971
0.368202
0.371204
0.365175
0.369277
0.379745
0.386757
0.390709
0.400633
0.417423
0.428352
0.428821
0.407184
0.38312
0.365056
0.357416
0.355808
0.356161
0.352822
0.345853
0.339883
0.335073
0.33395
0.342161
0.351947
0.357577
0.354296
0.336771
0.328578
0.345392
0.366031
0.376813
0.375632
0.366604
0.366338
0.376368
0.381406
0.382988
0.387738
0.40206
0.413855
0.409282
0.391854
0.382029
0.377511
0.374764
0.372574
0.371118
0.369394
0.363897
0.355358
0.346979
0.343763
0.347853
0.355133
0.358057
0.3512
0.336752
0.332903
0.350934
0.376568
0.387378
0.381415
0.37022
0.367806
0.376842
0.381973
0.382322
0.383088
0.391568
0.400534
0.402182
0.389104
0.384375
0.38598
0.386829
0.385537
0.38359
0.384269
0.384722
0.380428
0.371621
0.365024
0.362662
0.365156
0.362235
0.351426
0.339121
0.337529
0.356327
0.383192
0.393106
0.384067
0.372088
0.369113
0.376217
0.382933
0.384325
0.383977
0.389432
0.396316
0.402495
0.389566
0.387286
0.391419
0.394863
0.395469
0.392608
0.390549
0.398602
0.403261
0.398908
0.389025
0.379701
0.377038
0.369307
0.354641
0.341997
0.343692
0.362862
0.385982
0.393543
0.383558
0.37171
0.368978
0.374064
0.382821
0.386352
0.387362
0.390671
0.397406
0.402828
0.38988
0.38979
0.394562
0.400369
0.402407
0.39962
0.395417
0.403234
0.415146
0.418246
0.409308
0.396701
0.390157
0.377732
0.35798
0.346063
0.351238
0.370533
0.388414
0.390131
0.380502
0.369581
0.368814
0.372651
0.380631
0.3874
0.39142
0.395251
0.401236
0.403286
0.390123
0.390972
0.394772
0.400185
0.403846
0.402609
0.40043
0.40481
0.419303
0.4295
0.425466
0.412762
0.402187
0.384553
0.361886
0.352973
0.360577
0.378688
0.391303
0.386627
0.375898
0.367447
0.371153
0.373774
0.379664
0.388371
0.394607
0.399676
0.405356
0.405506
0.395073
0.393286
0.394994
0.398758
0.401349
0.402255
0.403545
0.407395
0.420883
0.436101
0.437644
0.426616
0.412032
0.389226
0.366106
0.362452
0.371833
0.387123
0.394506
0.38436
0.371167
0.366271
0.373425
0.374582
0.38003
0.389973
0.399053
0.404987
0.408715
0.408503
0.403658
0.398272
0.397348
0.401476
0.402003
0.402049
0.405177
0.407727
0.420243
0.439593
0.445271
0.437772
0.421448
0.395951
0.372304
0.373955
0.383806
0.395371
0.397021
0.381512
0.366836
0.364112
0.372221
0.375716
0.382241
0.39181
0.403635
0.411949
0.411412
0.41143
0.41004
0.404426
0.401497
0.40409
0.403864
0.403701
0.40552
0.406709
0.41702
0.438537
0.450033
0.44645
0.432661
0.407821
0.384135
0.385619
0.395103
0.402423
0.396659
0.377377
0.361667
0.359248
0.36761
0.37477
0.383336
0.393738
0.40737
0.417155
0.413164
0.412864
0.413386
0.407684
0.404601
0.405714
0.405686
0.405267
0.405335
0.405621
0.411554
0.431949
0.45125
0.452735
0.442546
0.421854
0.399865
0.398593
0.405785
0.406519
0.391162
0.369244
0.354357
0.351944
0.359563
0.371225
0.382331
0.394936
0.40918
0.419365
0.415313
0.41284
0.414869
0.409184
0.406076
0.404757
0.402916
0.402355
0.401586
0.401434
0.406812
0.425467
0.446084
0.455648
0.448951
0.433185
0.415771
0.412664
0.416724
0.405687
0.380126
0.359402
0.345721
0.342469
0.34864
0.363264
0.378507
0.393882
0.409938
0.419502
0.416868
0.412448
0.41645
0.411004
0.405883
0.400076
0.394489
0.393436
0.393001
0.394704
0.401346
0.421586
0.44226
0.454396
0.453526
0.440873
0.427459
0.424367
0.42224
0.39953
0.370424
0.352654
0.340587
0.335107
0.337631
0.35158
0.372053
0.391511
0.410874
0.420595
0.417545
0.413566
0.418298
0.413067
0.403108
0.390027
0.380653
0.381326
0.383209
0.388006
0.397066
0.418668
0.442021
0.455611
0.458457
0.447467
0.434522
0.429009
0.41688
0.392349
0.365589
0.348518
0.338047
0.330966
0.33027
0.34066
0.363975
0.389644
0.413136
0.422614
0.418357
0.415673
0.419648
0.412101
0.396121
0.378526
0.366292
0.364902
0.370386
0.378399
0.392472
0.415049
0.442268
0.458508
0.463957
0.45419
0.440629
0.429937
0.40889
0.383626
0.361484
0.34522
0.33682
0.329386
0.326231
0.333501
0.356123
0.388098
0.421231
0.426129
0.420086
0.417421
0.41753
0.406443
0.387138
0.36716
0.352651
0.346375
0.350704
0.360773
0.383077
0.4102
0.441154
0.460904
0.46909
0.460655
0.444505
0.429257
0.402172
0.376225
0.357349
0.341863
0.335301
0.328717
0.32416
0.329462
0.351316
0.389685
0.423968
0.429064
0.422628
0.413136
0.408898
0.395267
0.372326
0.351747
0.340067
0.333118
0.333594
0.34619
0.372377
0.405419
0.440647
0.46342
0.474115
0.467468
0.448224
0.427889
0.397704
0.372502
0.35352
0.339588
0.333981
0.328094
0.322589
0.32489
0.344977
0.384873
0.420318
0.429263
0.423854
0.397713
0.388903
0.37233
0.344677
0.330857
0.322463
0.317901
0.317209
0.330384
0.35636
0.400279
0.441284
0.465648
0.47857
0.473206
0.453869
0.4266
0.394999
0.371232
0.351221
0.338963
0.33305
0.327254
0.321042
0.319802
0.332655
0.371269
0.412209
0.426335
0.423458
0.377412
0.36134
0.346221
0.323802
0.309723
0.301168
0.306405
0.31471
0.329206
0.348056
0.384578
0.437825
0.466095
0.481069
0.475824
0.459811
0.419978
0.391105
0.371825
0.349307
0.339012
0.332598
0.326676
0.320176
0.315908
0.321993
0.354947
0.397221
0.41855
0.419341
0.35505
0.334268
0.323883
0.304572
0.295159
0.296885
0.30747
0.318599
0.334751
0.353796
0.378723
0.421218
0.462981
0.481203
0.475628
0.455277
0.412588
0.387678
0.369359
0.347503
0.338683
0.332792
0.326894
0.320312
0.314117
0.315433
0.338398
0.380138
0.405779
0.415301
0.338424
0.325424
0.320496
0.306162
0.299147
0.30155
0.313196
0.326301
0.343408
0.362671
0.382821
0.41244
0.452589
0.479018
0.472099
0.4464
0.410986
0.382008
0.364063
0.348175
0.337979
0.33228
0.326612
0.320309
0.313903
0.313527
0.327008
0.363926
0.397992
0.414124
0.333741
0.328428
0.324074
0.310968
0.305751
0.308423
0.318516
0.333649
0.352562
0.371793
0.389535
0.413464
0.444931
0.475878
0.465601
0.443338
0.413321
0.378392
0.362372
0.3505
0.33863
0.331956
0.326388
0.320543
0.314941
0.313863
0.322503
0.352807
0.393933
0.414771
0.334433
0.332809
0.327208
0.314534
0.310405
0.313706
0.320868
0.336152
0.358308
0.37808
0.395755
0.416972
0.444313
0.471716
0.464133
0.446607
0.418502
0.376728
0.360907
0.352977
0.341241
0.333585
0.327877
0.322662
0.31743
0.314844
0.320266
0.346302
0.392608
0.416428
0.337838
0.335807
0.329347
0.317639
0.314047
0.317439
0.322842
0.333276
0.356438
0.381676
0.400996
0.420394
0.445831
0.468857
0.466419
0.452372
0.422984
0.377117
0.361465
0.356445
0.345802
0.337176
0.33089
0.325681
0.320915
0.317383
0.319371
0.339091
0.393901
0.41909
0.340885
0.337556
0.331048
0.321479
0.317663
0.320357
0.324693
0.331596
0.351224
0.384468
0.405811
0.423866
0.447652
0.468579
0.468005
0.457169
0.42223
0.379731
0.364626
0.360275
0.35201
0.341928
0.334817
0.329595
0.325154
0.321459
0.321412
0.333798
0.384341
0.417968
0.342135
0.338377
0.332697
0.324129
0.319221
0.319791
0.323748
0.32974
0.346883
0.385007
0.409477
0.427011
0.449108
0.469305
0.47
0.461063
0.420713
0.38422
0.370313
0.365541
0.358701
0.347789
0.339694
0.334194
0.329912
0.325711
0.323976
0.332482
0.372638
0.411544
0.342132
0.338459
0.332884
0.323852
0.316166
0.315075
0.320287
0.327704
0.341471
0.376431
0.41049
0.428823
0.450204
0.471179
0.473273
0.462565
0.422877
0.389876
0.377062
0.370865
0.365077
0.354662
0.345381
0.339244
0.334572
0.329521
0.32568
0.332028
0.365752
0.404232
0.341838
0.33689
0.33098
0.3199
0.311837
0.311986
0.318224
0.327491
0.339724
0.364722
0.406596
0.428869
0.451089
0.472991
0.477653
0.465515
0.427878
0.396251
0.384487
0.377496
0.371395
0.362332
0.352169
0.344738
0.339043
0.332881
0.32753
0.332132
0.361519
0.398378
0.340889
0.333438
0.32723
0.315987
0.309707
0.310709
0.318371
0.328369
0.341802
0.360992
0.397558
0.428214
0.451174
0.474681
0.481706
0.469555
0.433096
0.402599
0.392321
0.385048
0.377754
0.370195
0.359973
0.351048
0.343288
0.335917
0.329871
0.333166
0.356757
0.394192
0.338496
0.329119
0.323395
0.313566
0.308493
0.310452
0.319182
0.329944
0.344109
0.364603
0.392264
0.428211
0.452715
0.477009
0.48512
0.4729
0.437832
0.4085
0.400191
0.392682
0.383685
0.377449
0.368331
0.357573
0.347633
0.338995
0.332749
0.334537
0.352515
0.38882
0.336615
0.326979
0.321244
0.312404
0.309781
0.31174
0.321035
0.33238
0.344374
0.36579
0.391564
0.428918
0.45598
0.480694
0.487991
0.474806
0.442975
0.414583
0.406951
0.399853
0.390318
0.383947
0.375847
0.363319
0.352213
0.343924
0.336597
0.336537
0.349042
0.383065
0.335181
0.32685
0.323107
0.314378
0.313028
0.315127
0.324561
0.335899
0.346324
0.365283
0.391141
0.430074
0.459466
0.485747
0.491267
0.475926
0.44693
0.422021
0.41409
0.406943
0.397723
0.390063
0.380675
0.367613
0.357014
0.349281
0.341232
0.338501
0.346125
0.375898
0.332816
0.326094
0.326293
0.319891
0.318753
0.321375
0.32986
0.340045
0.35029
0.368074
0.391104
0.427762
0.463667
0.491886
0.495567
0.47878
0.45164
0.429827
0.421594
0.41427
0.405493
0.395446
0.382873
0.371058
0.361523
0.352855
0.344172
0.3402
0.342949
0.364327
0.330145
0.325654
0.328012
0.326158
0.327788
0.330349
0.336853
0.345153
0.355046
0.372325
0.394093
0.42723
0.467945
0.497879
0.500475
0.482819
0.456901
0.438228
0.429609
0.421865
0.41215
0.397508
0.384172
0.374632
0.364426
0.354974
0.345255
0.341547
0.339202
0.348818
0.328152
0.325447
0.329227
0.332091
0.336177
0.339025
0.344461
0.350501
0.359508
0.37692
0.398986
0.431335
0.472592
0.50313
0.504545
0.486385
0.462748
0.446615
0.437757
0.428483
0.414768
0.398602
0.387894
0.379226
0.368812
0.35761
0.347339
0.341541
0.335542
0.336702
0.326653
0.323226
0.332029
0.336309
0.342374
0.345979
0.350014
0.354754
0.364077
0.381777
0.40536
0.439502
0.480692
0.50773
0.507948
0.488173
0.468244
0.454946
0.444865
0.433068
0.416567
0.401702
0.391936
0.383122
0.373487
0.362435
0.350457
0.342117
0.331776
0.328646
0.323378
0.323854
0.334914
0.339952
0.346462
0.349596
0.352232
0.357552
0.368164
0.38693
0.412791
0.447291
0.488518
0.51203
0.511333
0.491619
0.472049
0.461502
0.450898
0.436372
0.419141
0.406507
0.395196
0.385195
0.375714
0.365623
0.354525
0.343827
0.331488
0.324002
0.322114
0.32751
0.338061
0.341193
0.345623
0.34809
0.351857
0.359353
0.371247
0.391907
0.419353
0.451823
0.494226
0.516426
0.515199
0.497562
0.474881
0.465962
0.456067
0.439191
0.422925
0.410797
0.397629
0.385931
0.375701
0.365938
0.35666
0.346736
0.334017
0.323876
0.325065
0.332277
0.337407
0.3376
0.341007
0.344657
0.351989
0.361765
0.374673
0.395564
0.424429
0.455606
0.497015
0.519801
0.517183
0.496333
0.478224
0.46939
0.459668
0.44157
0.42651
0.412867
0.399242
0.386132
0.374857
0.365155
0.356664
0.348357
0.338621
0.326759
0.329152
0.331723
0.332783
0.332262
0.336847
0.34438
0.354423
0.365673
0.379551
0.398396
0.422441
0.454376
0.495371
0.518786
0.511454
0.496761
0.482831
0.474001
0.461498
0.44341
0.427886
0.41359
0.400396
0.386322
0.373687
0.363677
0.355653
0.348523
0.341045
0.331177
0.329661
0.326282
0.327597
0.326803
0.336969
0.347137
0.358026
0.370164
0.38505
0.403031
0.422359
0.445069
0.480756
0.508416
0.507524
0.49957
0.48923
0.479968
0.464621
0.443844
0.427687
0.414504
0.400982
0.38602
0.372039
0.361055
0.354047
0.348306
0.341675
0.334613
0.326569
0.32201
0.321563
0.327715
0.34088
0.352266
0.362847
0.374516
0.389751
0.407722
0.425856
0.445038
0.472949
0.497179
0.505232
0.502517
0.49602
0.486588
0.466868
0.442907
0.42799
0.415545
0.401113
0.385315
0.369765
0.358569
0.351583
0.347597
0.341417
0.336162
0.322894
0.315166
0.326425
0.335021
0.348899
0.359512
0.367917
0.378054
0.393241
0.411569
0.429617
0.448188
0.47183
0.490117
0.50014
0.505503
0.502031
0.49083
0.467395
0.442751
0.42903
0.416288
0.401763
0.386155
0.369656
0.35598
0.349445
0.345183
0.340162
0.336155
0.318179
0.31947
0.335609
0.347206
0.358878
0.366182
0.372368
0.380959
0.396351
0.415229
0.433213
0.452126
0.47294
0.487445
0.497762
0.505543
0.505532
0.493461
0.468317
0.443738
0.430017
0.416683
0.403209
0.389476
0.373095
0.356983
0.345628
0.342285
0.336667
0.335663
0.316901
0.329056
0.346401
0.358187
0.366069
0.37045
0.375724
0.383628
0.399326
0.418605
0.437004
0.45609
0.474466
0.486114
0.496454
0.504796
0.507545
0.495935
0.469499
0.444735
0.430151
0.416933
0.405364
0.393435
0.378279
0.361422
0.34494
0.33925
0.335266
0.334703
0.322472
0.341572
0.355468
0.364472
0.370737
0.374023
0.378417
0.38631
0.402117
0.422252
0.441429
0.459987
0.475948
0.485906
0.495491
0.503744
0.508246
0.498009
0.470193
0.444536
0.429889
0.417771
0.407298
0.396283
0.382547
0.366124
0.349192
0.338682
0.334159
0.33486
0.332149
0.35136
0.360845
0.36804
0.374011
0.377471
0.381241
0.389087
0.405179
0.426683
0.446158
0.463881
0.477175
0.486169
0.494569
0.502979
0.50796
0.498301
0.469121
0.443843
0.430558
0.419245
0.408849
0.397962
0.38469
0.369696
0.354545
0.342718
0.335056
0.336093
0.341566
0.356862
0.364069
0.370612
0.376184
0.380062
0.383555
0.390899
0.409162
0.43181
0.451236
0.467632
0.478438
0.486878
0.493889
0.501685
0.505966
0.49547
0.467049
0.44455
0.43211
0.420534
0.409483
0.398312
0.385632
0.372257
0.359308
0.348238
0.338774
0.338342
0.347895
0.359857
0.366668
0.372218
0.37718
0.380721
0.384492
0.393083
0.414052
0.437232
0.456161
0.470699
0.479448
0.487248
0.493433
0.500189
0.503169
0.488794
0.465296
0.446237
0.433695
0.421203
0.408978
0.39695
0.385758
0.374501
0.363122
0.353163
0.343654
0.342035
0.351453
0.361988
0.367816
0.372702
0.377027
0.38032
0.384137
0.396117
0.41915
0.442236
0.460229
0.47292
0.480092
0.487045
0.492549
0.498122
0.499418
0.482757
0.462687
0.447379
0.434311
0.420911
0.407451
0.395156
0.385636
0.376545
0.366361
0.357241
0.349496
0.346908
0.353626
0.362757
0.368316
0.372499
0.376392
0.379618
0.385028
0.399573
0.424074
0.446286
0.463014
0.474122
0.479626
0.48504
0.489697
0.495702
0.495162
0.477884
0.460298
0.445999
0.432841
0.419499
0.405638
0.39411
0.385557
0.378125
0.369779
0.361122
0.354564
0.351593
0.35487
0.363612
0.368805
0.372532
0.375614
0.379111
0.386499
0.403136
0.428733
0.449281
0.464459
0.474437
0.479172
0.482535
0.486327
0.491367
0.490347
0.472626
0.457038
0.442592
0.429424
0.417285
0.404697
0.394015
0.385473
0.378803
0.372132
0.36466
0.358072
0.354618
0.357204
0.364508
0.369774
0.372059
0.37431
0.378808
0.388151
0.407152
0.433169
0.45242
0.465412
0.474018
0.478559
0.481037
0.483233
0.484987
0.484002
0.467231
0.453625
0.439291
0.426166
0.415414
0.404784
0.394578
0.385716
0.378402
0.372286
0.366572
0.360262
0.35605
0.360026
0.36629
0.370234
0.370437
0.373753
0.3792
0.391321
0.411471
0.437542
0.455898
0.466823
0.473726
0.478753
0.481243
0.48327
0.482926
0.478812
0.463618
0.451577
0.438159
0.425415
0.415163
0.405442
0.395475
0.386303
0.378158
0.370922
0.366008
0.360513
0.356543
0.362813
0.367093
0.369508
0.370432
0.375449
0.380969
0.394894
0.416122
0.442318
0.459829
0.469311
0.475276
0.480088
0.483135
0.485429
0.484837
0.476318
0.461741
0.451868
0.440189
0.428057
0.41625
0.405355
0.395291
0.385519
0.377111
0.3696
0.364706
0.3578
0.355369
0.365033
0.36549
0.371052
0.373278
0.378989
0.385447
0.398429
0.421622
0.447654
0.464455
0.472855
0.477358
0.482028
0.485694
0.488358
0.487726
0.47603
0.459882
0.453056
0.442679
0.430176
0.416372
0.403495
0.391968
0.380528
0.372191
0.366056
0.362404
0.354619
0.352627
0.366143
0.367168
0.375454
0.378511
0.383577
0.390534
0.403351
0.426789
0.45173
0.468151
0.475822
0.479451
0.48409
0.488028
0.49068
0.489398
0.475778
0.456861
0.450286
0.441018
0.427705
0.412752
0.398503
0.384236
0.370301
0.361414
0.357461
0.357287
0.350649
0.34877
0.368677
0.371027
0.380183
0.384699
0.389436
0.394531
0.406225
0.428655
0.453092
0.469945
0.476918
0.480333
0.484675
0.488423
0.491225
0.488951
0.474052
0.453427
0.440806
0.432098
0.418228
0.401209
0.381916
0.365999
0.355862
0.350535
0.347934
0.349028
0.344553
0.344789
0.372718
0.375111
0.385352
0.390355
0.392337
0.394912
0.406779
0.428365
0.452897
0.469141
0.475503
0.478773
0.482906
0.486755
0.490051
0.486143
0.470276
0.449313
0.430939
0.417201
0.400781
0.381906
0.36563
0.354504
0.347361
0.344418
0.343094
0.343885
0.337057
0.338882
0.376999
0.38007
0.389902
0.390506
0.390642
0.39483
0.407467
0.42868
0.451979
0.466352
0.472313
0.475437
0.479268
0.483589
0.487747
0.48165
0.464347
0.442981
0.422133
0.405864
0.390411
0.375431
0.361054
0.350273
0.3431
0.34054
0.341157
0.341682
0.333852
0.331923
0.381162
0.386031
0.392102
0.389336
0.390491
0.395491
0.409179
0.430569
0.450598
0.46183
0.467063
0.469939
0.473576
0.479131
0.483632
0.474179
0.455307
0.434094
0.413614
0.399043
0.386491
0.373437
0.359566
0.347673
0.340014
0.338172
0.340031
0.339689
0.33351
0.328433
0.385719
0.390405
0.392467
0.389851
0.392024
0.39873
0.413106
0.432796
0.448782
0.457735
0.46235
0.465265
0.469341
0.47583
0.479045
0.465275
0.444688
0.423548
0.404408
0.393561
0.383397
0.371962
0.358696
0.345597
0.337423
0.336093
0.337834
0.337255
0.332827
0.32733
0.390341
0.3924
0.394213
0.391925
0.396108
0.404875
0.41849
0.436515
0.449452
0.456803
0.46051
0.463241
0.467355
0.473398
0.474879
0.457042
0.435577
0.415411
0.398603
0.389051
0.379955
0.370208
0.357287
0.343487
0.335453
0.334213
0.334455
0.33511
0.331482
0.327164
0.393851
0.395877
0.397179
0.395283
0.401544
0.411557
0.424624
0.441642
0.452605
0.459022
0.462399
0.464935
0.467792
0.472241
0.470637
0.448919
0.426625
0.409421
0.396432
0.387994
0.379712
0.369753
0.356154
0.342024
0.334413
0.332172
0.331679
0.332684
0.330324
0.327174
0.39638
0.400596
0.401721
0.398174
0.40508
0.41766
0.430871
0.444998
0.453662
0.460217
0.46456
0.467161
0.470155
0.472913
0.466457
0.441821
0.419232
0.405274
0.393972
0.38549
0.378008
0.369065
0.355918
0.341647
0.333042
0.330226
0.330204
0.331228
0.328962
0.326834
0.398728
0.40531
0.404599
0.399633
0.405472
0.417977
0.433071
0.44701
0.453742
0.460761
0.465963
0.468714
0.471072
0.471486
0.459227
0.43184
0.41062
0.399931
0.389825
0.381628
0.374942
0.366923
0.35445
0.341252
0.332641
0.327994
0.328782
0.330786
0.327901
0.325979
0.401169
0.408143
0.404586
0.40112
0.406351
0.417437
0.432775
0.444502
0.451728
0.460711
0.466562
0.469276
0.47069
0.468559
0.450033
0.421646
0.402631
0.394131
0.385343
0.377576
0.371528
0.364436
0.353537
0.343036
0.335418
0.32968
0.328958
0.330124
0.327737
0.324175
0.395008
0.398843
0.399095
0.398092
0.404569
0.416792
0.431592
0.44053
0.44984
0.460041
0.466314
0.468486
0.468311
0.461755
0.43779
0.412146
0.396333
0.388683
0.381065
0.3738
0.368015
0.361255
0.353035
0.345713
0.340299
0.333853
0.330791
0.329911
0.32746
0.322952
0.390025
0.392961
0.393353
0.39289
0.400029
0.413025
0.429502
0.437199
0.449543
0.458922
0.464919
0.466272
0.463419
0.451452
0.423177
0.403283
0.390504
0.382241
0.375751
0.3694
0.364202
0.358183
0.351934
0.348185
0.344552
0.338454
0.333435
0.331369
0.327557
0.322919
0.390839
0.39194
0.391917
0.39016
0.394675
0.406394
0.425507
0.438995
0.449852
0.457942
0.463038
0.46066
0.454322
0.439414
0.409623
0.39553
0.385295
0.375687
0.369863
0.364768
0.359363
0.354638
0.349341
0.348763
0.34693
0.3425
0.33736
0.33461
0.329323
0.323962
0.391585
0.391405
0.391144
0.387436
0.389477
0.397357
0.417191
0.438561
0.44955
0.457103
0.460573
0.454937
0.447182
0.42837
0.39987
0.389689
0.381014
0.370327
0.3643
0.359864
0.354143
0.349301
0.346203
0.347382
0.347621
0.345458
0.341309
0.339377
0.332746
0.326575
0.391712
0.390062
0.389118
0.386751
0.386692
0.390221
0.405134
0.431343
0.44605
0.454781
0.458158
0.451538
0.441529
0.41861
0.395183
0.386584
0.37735
0.36604
0.359012
0.354153
0.349066
0.344934
0.343054
0.344772
0.346572
0.347386
0.346295
0.343476
0.337168
0.330587
0.391797
0.387452
0.388455
0.388197
0.38764
0.387884
0.396922
0.421417
0.442614
0.453177
0.456206
0.447633
0.435135
0.409186
0.391939
0.38388
0.37279
0.362013
0.355377
0.350421
0.345842
0.342675
0.340663
0.341963
0.344988
0.348846
0.349699
0.347806
0.340908
0.336034
0.392849
0.387106
0.39015
0.391908
0.392862
0.391361
0.396615
0.414545
0.440835
0.453136
0.454935
0.443281
0.427214
0.400402
0.388376
0.380252
0.368563
0.360132
0.354281
0.349673
0.344984
0.341499
0.339086
0.340505
0.344003
0.348445
0.350293
0.350409
0.344976
0.340916
0.395098
0.388767
0.394572
0.397791
0.400028
0.398114
0.40145
0.415422
0.437077
0.452277
0.452907
0.438486
0.418613
0.393759
0.384698
0.375919
0.366659
0.359622
0.354432
0.350119
0.345418
0.341218
0.338829
0.340369
0.34284
0.345585
0.347641
0.350149
0.346922
0.343771
0.399253
0.392525
0.401181
0.405559
0.409015
0.406403
0.407904
0.420627
0.437726
0.450466
0.449776
0.432322
0.410767
0.390336
0.381603
0.373239
0.365678
0.359685
0.354956
0.350932
0.346107
0.341525
0.33909
0.340085
0.340863
0.341954
0.342859
0.346259
0.345172
0.343483
0.406155
0.398688
0.409974
0.415545
0.419793
0.41633
0.416108
0.42721
0.441866
0.450697
0.447235
0.427
0.405856
0.389213
0.379508
0.371969
0.365452
0.360159
0.355739
0.351825
0.346423
0.341633
0.339288
0.339248
0.339152
0.33846
0.338115
0.340671
0.340318
0.339379
0.415372
0.408432
0.421734
0.427915
0.432396
0.427775
0.425421
0.434293
0.44657
0.452221
0.446122
0.423025
0.403391
0.38918
0.378926
0.371539
0.365732
0.360845
0.356449
0.352164
0.345791
0.341322
0.339002
0.338554
0.33798
0.33593
0.334872
0.336969
0.33554
0.333067
0.427937
0.42238
0.435145
0.441388
0.44516
0.43995
0.434794
0.44125
0.449923
0.453872
0.443741
0.4188
0.401536
0.388657
0.378616
0.371184
0.365733
0.360721
0.356046
0.350814
0.344081
0.339898
0.338082
0.33786
0.336515
0.334523
0.333164
0.334663
0.333116
0.327434
0.437283
0.433978
0.446077
0.451137
0.453953
0.447625
0.440493
0.444522
0.449235
0.451628
0.438515
0.412241
0.396665
0.384317
0.37448
0.366838
0.361006
0.355671
0.35
0.343912
0.337676
0.334189
0.333576
0.332926
0.331533
0.330738
0.3299
0.329936
0.327721
0.319523
0.435161
0.43288
0.444644
0.449255
0.450995
0.443635
0.435406
0.437666
0.438209
0.43882
0.424218
0.396274
0.381722
0.369806
0.359399
0.350494
0.344088
0.337554
0.330667
0.32562
0.320954
0.318649
0.318303
0.317382
0.316793
0.316932
0.316204
0.314946
0.310938
0.301154
0.438984
0.436425
0.448933
0.452895
0.453506
0.445652
0.436996
0.437003
0.434025
0.432476
0.414936
0.387555
0.372354
0.35748
0.343439
0.335272
0.329887
0.324949
0.32025
0.316545
0.312788
0.310954
0.310491
0.310242
0.309694
0.309552
0.30853
0.306573
0.300917
0.291334
0.440802
0.441997
0.453842
0.457612
0.457505
0.449894
0.440944
0.437154
0.430005
0.424151
0.401769
0.373078
0.354739
0.34098
0.330074
0.325784
0.322602
0.319187
0.315312
0.312047
0.308897
0.307311
0.307027
0.306703
0.305336
0.304521
0.303066
0.301049
0.294552
0.285731
0.442923
0.446711
0.457382
0.460929
0.46076
0.45419
0.443548
0.434495
0.423287
0.414572
0.389057
0.36212
0.346803
0.334687
0.326108
0.323104
0.320112
0.316582
0.312689
0.309615
0.306636
0.305117
0.304806
0.304042
0.301873
0.300187
0.297794
0.295759
0.289093
0.280555
0.445126
0.44842
0.458125
0.462587
0.463067
0.456101
0.44344
0.430202
0.41664
0.407895
0.380925
0.356252
0.342717
0.330771
0.324527
0.321755
0.318506
0.31457
0.310579
0.307639
0.304644
0.30343
0.303171
0.301889
0.299075
0.296368
0.292722
0.289923
0.283414
0.275023
0.444592
0.448412
0.456587
0.462826
0.46379
0.456168
0.442035
0.425449
0.410654
0.401796
0.3732
0.351199
0.339019
0.327737
0.323306
0.320443
0.316869
0.312568
0.3086
0.305695
0.302848
0.302074
0.301881
0.299937
0.296424
0.292974
0.288068
0.283731
0.277244
0.269086
0.441787
0.446923
0.458087
0.463568
0.462248
0.453854
0.439683
0.420825
0.405139
0.394621
0.365592
0.346793
0.335045
0.325532
0.322065
0.318962
0.315002
0.310462
0.306717
0.303753
0.301276
0.300888
0.300535
0.297892
0.293711
0.289658
0.284029
0.277926
0.27086
0.262933
0.435546
0.443684
0.455371
0.461239
0.457752
0.448331
0.435904
0.415858
0.399261
0.386334
0.358532
0.343146
0.331189
0.323864
0.320606
0.317144
0.312805
0.308247
0.304833
0.301919
0.299895
0.299682
0.298876
0.295601
0.290855
0.286315
0.280386
0.273512
0.264723
0.256916
0.425986
0.436589
0.448464
0.454728
0.450904
0.441738
0.430948
0.410203
0.393658
0.376873
0.352597
0.339738
0.327749
0.322258
0.318769
0.31485
0.310254
0.305939
0.302892
0.300224
0.298533
0.298137
0.296775
0.293081
0.287876
0.282768
0.276972
0.27009
0.26051
0.251394
0.417043
0.427061
0.440692
0.443983
0.442026
0.434556
0.425231