/*--------------------------------*- C++ -*----------------------------------*\
| =========                 |                                                 |
| \\      /  F ield         | OpenFOAM: The Open Source CFD Toolbox           |
|  \\    /   O peration     | Version:  v1606+                                |
|   \\  /    A nd           | Web:      www.OpenFOAM.com                      |
|    \\/     M anipulation  |                                                 |
\*---------------------------------------------------------------------------*/
FoamFile
{
    version     2.0;
    format      ascii;
    class       volScalarField;
    location    "1.48";
    object      Theta.particles;
}
// * * * * * * * * * * * * * * * * * * * * * * * * * * * * * * * * * * * * * //

dimensions      [0 2 -2 0 0 0 0];

internalField   nonuniform List<scalar> 
6000
(
0.000854384
0.0005762
0.000530948
0.000493446
0.000476731
0.000469907
0.000486997
0.000523186
0.000684869
0.000705688
0.000611895
0.000629003
0.000721174
0.000794048
0.000803256
0.000723289
0.000671289
0.000613888
0.000595022
0.00055982
0.000487545
0.000417158
0.000371519
0.000396943
0.000452579
0.000503642
0.000580675
0.00060994
0.000673728
0.00102734
0.000247284
0.000249078
0.000241897
0.0002362
0.000228153
0.000213915
0.000213485
0.000231094
0.000247195
0.000244207
0.000230563
0.000230807
0.000239441
0.000239337
0.000234498
0.000228768
0.000228447
0.000235352
0.000253151
0.000257467
0.000226853
0.000209699
0.00021769
0.000241242
0.000250204
0.000250222
0.000243549
0.000240058
0.000234208
0.000268463
0.000346396
0.00033738
0.000343127
0.000352931
0.000361008
0.000369674
0.000331753
0.000247183
0.000214098
0.000212317
0.000209038
0.000204301
0.000209726
0.000213951
0.00021214
0.000208176
0.000205955
0.000212024
0.000220816
0.000228673
0.000236145
0.000276
0.000376202
0.000403943
0.000365356
0.000327967
0.00029147
0.000267389
0.000253091
0.000292621
0.00025802
0.000265248
0.000281597
0.0002882
0.000302228
0.000321279
0.000325783
0.000284228
0.000225605
0.000210575
0.000201254
0.000201411
0.000206463
0.000206826
0.00020243
0.000196321
0.000193873
0.000197075
0.000209145
0.000227083
0.00026944
0.0003366
0.000375494
0.000354271
0.000317864
0.000273962
0.000233167
0.000205955
0.000198669
0.000219213
0.000204102
0.000225732
0.000245991
0.000258373
0.000283558
0.000322294
0.000350385
0.000366599
0.000307194
0.000251858
0.000233487
0.000230728
0.000228681
0.000229011
0.000225007
0.000217947
0.000213925
0.000215211
0.000225747
0.000258914
0.000377623
0.00047543
0.000447787
0.00036565
0.000294838
0.000244029
0.000200979
0.000176849
0.000175352
0.00018331
0.000148521
0.000190724
0.000214451
0.000229722
0.000258727
0.000305656
0.00035443
0.000365569
0.000385389
0.00033515
0.000297205
0.000307939
0.000347047
0.000369537
0.000333482
0.000284917
0.000261082
0.000260698
0.00028166
0.000343376
0.000522197
0.000614572
0.000557821
0.000377079
0.000251652
0.000198529
0.000168519
0.00015525
0.000157889
0.000149137
0.00011936
0.000158325
0.000184906
0.000205418
0.000233864
0.000284747
0.000366106
0.000440897
0.00047516
0.000463827
0.00041334
0.000458273
0.000587675
0.000659909
0.000568443
0.000450003
0.000362498
0.000331033
0.000364146
0.000453904
0.000565298
0.000734625
0.000601081
0.00036322
0.000205565
0.000159783
0.000149512
0.000146246
0.000145133
0.000124841
0.000122788
0.000132771
0.000156477
0.000183915
0.000204574
0.000242166
0.000351429
0.000507968
0.000535951
0.000492639
0.000474792
0.00052798
0.000581395
0.000590604
0.000520779
0.000459419
0.000412199
0.000372315
0.000373872
0.00042773
0.000622825
0.000851078
0.000543333
0.000308209
0.000179131
0.00013536
0.000135909
0.000134641
0.000126833
0.000115361
0.000125807
0.000125743
0.000133677
0.000161873
0.000178955
0.000209849
0.000304314
0.000474616
0.000580897
0.000501366
0.000450739
0.000452034
0.000463199
0.000443158
0.000358201
0.000299302
0.000290625
0.00030225
0.000343728
0.000444571
0.000664772
0.000760661
0.000578997
0.000252724
0.000162481
0.000119433
0.000123337
0.00011669
0.000101969
0.000101199
0.00012211
0.000115528
0.000118271
0.000138229
0.000163208
0.000201454
0.000285164
0.000475098
0.000653505
0.0005923
0.000491941
0.00044186
0.000397027
0.000338766
0.000279638
0.000235665
0.000204809
0.000232827
0.000299625
0.000444005
0.000548006
0.000588245
0.000517187
0.000237603
0.000128184
9.90877e-05
0.000110222
0.000114061
0.000102311
8.72707e-05
0.000112001
0.000102147
0.000103409
0.000119031
0.000159084
0.000230478
0.000352643
0.000604149
0.000680305
0.000622559
0.000503269
0.000410783
0.000344097
0.000274912
0.000218907
0.000185926
0.000186158
0.000213664
0.000285763
0.000379272
0.00045073
0.000460474
0.000417508
0.000234387
8.98518e-05
6.89558e-05
8.92587e-05
0.000114244
0.000157663
0.000126273
9.84506e-05
8.86945e-05
8.87617e-05
9.64455e-05
0.000161689
0.000278825
0.000478241
0.000687824
0.000718811
0.000638637
0.000485094
0.000326023
0.000245998
0.000191205
0.000154332
0.000135887
0.000139125
0.000179628
0.000247079
0.000327204
0.000372154
0.000368083
0.000340757
0.000206046
7.17673e-05
5.59407e-05
7.12716e-05
8.52578e-05
0.000100283
0.000156635
7.72097e-05
6.73258e-05
6.1162e-05
7.20287e-05
0.000220432
0.000386236
0.000602005
0.000711608
0.00071492
0.000606668
0.000369715
0.00026208
0.000186683
0.000146328
0.000121894
0.000111236
0.000115009
0.00013677
0.000210188
0.000276088
0.000305336
0.000299455
0.000279217
0.000171468
0.000107647
7.03948e-05
6.3928e-05
7.03869e-05
7.29911e-05
7.28221e-05
5.2034e-05
4.53711e-05
3.83371e-05
6.3788e-05
0.00028219
0.000526957
0.000611688
0.000684016
0.000672733
0.000461392
0.000288186
0.000187376
0.000140784
0.000119461
0.000106518
0.000100892
0.000103649
0.000118517
0.000172418
0.000223232
0.000243347
0.000243316
0.000228454
0.000177966
0.000186767
6.48954e-05
6.17787e-05
6.0823e-05
5.92825e-05
6.18733e-05
4.29327e-05
3.17117e-05
3.01274e-05
0.000238197
0.000338977
0.000496503
0.000586053
0.000621945
0.000594317
0.000328191
0.000196123
0.000136793
0.000115258
0.000108191
0.000104196
0.000102173
0.000102067
0.000107183
0.000122472
0.000166078
0.00017705
0.000183137
0.000171224
0.000182857
0.00022429
8.65017e-05
7.68149e-05
7.38075e-05
7.07595e-05
6.82654e-05
4.91923e-05
3.59116e-05
5.06768e-05
0.000363833
0.000375877
0.000474122
0.000546736
0.000565714
0.000455021
0.00022961
0.000135491
0.000107651
0.000102294
0.000103594
0.000105733
0.000106797
0.000105169
0.000105655
0.000117004
0.000141227
0.000155134
0.000169825
0.000190187
0.000206797
0.000157087
0.000114766
0.000104298
9.18263e-05
7.66884e-05
7.12682e-05
6.55991e-05
7.50571e-05
0.000199245
0.000514962
0.000408608
0.000445641
0.000500073
0.000499841
0.000356253
0.000184744
0.000118245
0.000100684
9.46845e-05
9.48515e-05
9.8915e-05
0.000108827
0.000117089
0.00012425
0.000133117
0.000145131
0.000165491
0.000184766
0.000213219
0.00022335
0.000175661
0.000145329
0.000153296
0.000144266
8.01517e-05
6.89987e-05
8.33687e-05
0.000138216
0.000628016
0.00140885
0.000758645
0.000515303
0.000517315
0.000517101
0.000414541
0.000321703
0.000170877
0.00012768
0.00010705
0.000103247
0.000110826
0.000126238
0.000143036
0.000150752
0.000143879
0.00014118
0.000155167
0.000175002
0.000197517
0.000305409
0.000263904
0.000596517
0.00118261
0.00107365
0.000117773
6.29263e-05
8.56533e-05
0.000203799
0.00109579
0.00237008
0.00262278
0.00145177
0.00108795
0.000984123
0.000888314
0.00103964
0.00103983
0.000516166
0.000154593
0.000120851
0.000133648
0.000148492
0.000156013
0.000154172
0.000155461
0.000153328
0.000147784
0.000172665
0.000395976
0.000961177
0.00140869
0.00136309
0.000851512
0.000759667
0.000444162
5.97401e-05
0.000368172
0.000957238
0.000653301
0.000975762
0.00186762
0.00203482
0.00187618
0.00176721
0.00164562
0.00104903
0.00105035
0.00127528
0.00103854
0.000286447
0.000227553
0.000227666
0.000244993
0.000186552
0.000185879
0.000164944
0.000189459
0.000570996
0.00116845
0.000739981
0.000590604
0.000449077
0.000426519
0.000418118
0.00088417
0.000140332
0.00118834
0.000365645
0.000362646
0.000574185
0.00081351
0.00118537
0.0013069
0.00129676
0.00116515
0.000791901
0.00061125
0.000502326
0.00066976
0.0010852
0.000901545
0.00070547
0.000669611
0.000666832
0.00049816
0.000417021
0.000732628
0.000691666
0.000367889
0.000344605
0.00033178
0.000337229
0.000358237
0.000350661
0.000406085
0.00096111
0.000639211
0.000197644
0.000270287
0.000387395
0.000525097
0.000686191
0.00078083
0.000787394
0.000739011
0.000663133
0.000558917
0.000460015
0.000417933
0.000465244
0.000586791
0.000782683
0.000792631
0.000674447
0.000539021
0.000488923
0.000312548
0.000221643
0.000237976
0.000267081
0.000263839
0.000266609
0.000287896
0.00029392
0.000257182
0.00066264
0.000431071
0.000185242
0.000222259
0.000277152
0.000370939
0.00049509
0.000590478
0.000643213
0.000648934
0.000625805
0.000548084
0.000468706
0.000428531
0.000443996
0.000540433
0.00084233
0.000859033
0.00043571
0.000261603
0.000203848
0.000157185
0.00017572
0.000202941
0.000206396
0.000209655
0.000219934
0.00023293
0.000251356
0.000234539
0.000388577
0.000351767
0.000177053
0.000211886
0.000220428
0.00028474
0.000365896
0.00045028
0.000521316
0.000560927
0.000557892
0.000521438
0.000471566
0.000429579
0.000478203
0.000645912
0.00102788
0.00101531
0.000445288
0.000198424
0.000141589
0.000126012
0.000150948
0.000177579
0.000184985
0.000187748
0.00019548
0.000202817
0.00021587
0.000208333
0.000360095
0.000287919
0.000168034
0.000197925
0.000205739
0.000235926
0.00027468
0.00033524
0.000398441
0.000453509
0.000478305
0.000474618
0.000449634
0.000435904
0.000530307
0.00076411
0.00118116
0.00115736
0.000477443
0.000179963
0.000119995
0.00010676
0.000131934
0.000157965
0.000167166
0.000169929
0.000173906
0.000176332
0.000172699
0.000176833
0.000279954
0.000253053
0.000158257
0.000185466
0.000185485
0.000181665
0.000195444
0.000252501
0.000299148
0.000342702
0.000378179
0.000396748
0.000401651
0.000459079
0.000606734
0.000897703
0.00130775
0.00127928
0.000531011
0.000171929
0.000105674
9.2535e-05
0.000115887
0.000142634
0.000154986
0.000160509
0.000163098
0.000160414
0.000151492
0.000147809
0.000225065
0.000194684
0.000144965
0.000177708
0.000171049
0.000158271
0.000161566
0.000174547
0.000201419
0.000225043
0.000251656
0.000301468
0.000392175
0.000485237
0.000684642
0.00102729
0.00139345
0.00133248
0.00061425
0.000175543
9.64992e-05
8.10902e-05
0.000102807
0.000130541
0.000145854
0.000153679
0.000156262
0.000151977
0.000139182
0.000127629
0.000189649
0.000166234
0.00013231
0.000160045
0.000154757
0.000140453
0.000135447
0.000138614
0.000151957
0.00017275
0.000199474
0.000269272
0.000375931
0.000544316
0.00075374
0.00110149
0.00139521
0.00133383
0.000792785
0.000208919
9.32688e-05
7.21582e-05
9.14463e-05
0.000119327
0.000137123
0.000146664
0.000150284
0.000146134
0.000131766
0.000115868
0.000155812
0.000137682
0.000122236
0.000146136
0.000140277
0.000124208
0.000114789
0.000117079
0.000125108
0.000131806
0.000156687
0.000245096
0.000343774
0.000542252
0.000788375
0.00112634
0.00136892
0.00130463
0.000893615
0.000264493
9.483e-05
6.69939e-05
8.07848e-05
0.000107235
0.000126666
0.000138049
0.000143456
0.000141693
0.000128663
0.000107944
0.000139437
0.000119238
0.00011523
0.000131007
0.000125943
0.000111846
0.000100841
9.91239e-05
0.000103597
0.000105119
0.00012102
0.000219781
0.000307783
0.000532772
0.000782738
0.00109855
0.00134541
0.0012949
0.00100334
0.000421804
0.000115087
6.62991e-05
7.03965e-05
9.37289e-05
0.000114636
0.000128397
0.000135603
0.000136686
0.00012744
0.000105716
0.000132014
0.000107421
0.00010915
0.000118233
0.000111568
9.83632e-05
8.79315e-05
8.3403e-05
8.39906e-05
8.32186e-05
9.54533e-05
0.00020072
0.000274415
0.000505483
0.000738921
0.00102219
0.00128221
0.00129894
0.00111053
0.000563126
0.000161368
6.71054e-05
6.13893e-05
7.99186e-05
0.000100827
0.000116805
0.000125322
0.000128555
0.000123664
0.000106553
0.000143287
9.95443e-05
0.000103559
0.00010647
9.82579e-05
8.55748e-05
7.57046e-05
6.97836e-05
6.70027e-05
6.45499e-05
7.37833e-05
0.000156565
0.000248086
0.000458431
0.000630794
0.000874137
0.00116042
0.00129866
0.00120083
0.000752599
0.000261226
7.63185e-05
5.67246e-05
6.8343e-05
8.67122e-05
0.00010369
0.000112842
0.000116852
0.000115891
0.000104584
0.000154895
9.40356e-05
9.70956e-05
9.49513e-05
8.37468e-05
7.22056e-05
6.49797e-05
6.02856e-05
5.68461e-05
5.30502e-05
5.69234e-05
0.000116148
0.000223518
0.000387447
0.000504464
0.000698161
0.00102428
0.00127933
0.00125019
0.000974102
0.000379619
0.000111468
5.84815e-05
6.07835e-05
7.37509e-05
8.94437e-05
9.79056e-05
0.000102393
0.000104366
9.96975e-05
0.000153758
8.99455e-05
8.82006e-05
8.06377e-05
6.97914e-05
6.64308e-05
6.69804e-05
6.68567e-05
6.49777e-05
5.90012e-05
4.80219e-05
0.000108447
0.000192917
0.000289873
0.00038381
0.000512471
0.000793542
0.00117338
0.00127125
0.00112602
0.000537338
0.000189982
6.78047e-05
5.86594e-05
6.39758e-05
7.45948e-05
8.22614e-05
8.71364e-05
9.06926e-05
9.24941e-05
0.000152633
8.7255e-05
7.54775e-05
6.85653e-05
6.87065e-05
7.20206e-05
7.50679e-05
7.5807e-05
7.47905e-05
7.04253e-05
6.28239e-05
8.97332e-05
0.000134146
0.000198191
0.000248082
0.000336623
0.000563252
0.000953113
0.00124798
0.00119339
0.000786592
0.000280605
8.99852e-05
6.02192e-05
5.91277e-05
6.25562e-05
6.64964e-05
7.06498e-05
7.57957e-05
8.24035e-05
0.000143302
8.62346e-05
6.64466e-05
6.7416e-05
7.20894e-05
7.76863e-05
8.30492e-05
8.32295e-05
8.2926e-05
8.07394e-05
7.92429e-05
8.37771e-05
0.000122409
0.000160358
0.000187276
0.000231135
0.000353544
0.000729831
0.00116308
0.00116814
0.000932705
0.00038075
0.000127075
6.43637e-05
5.65789e-05
5.46887e-05
5.31561e-05
5.36692e-05
5.72705e-05
6.60705e-05
0.000113514
8.71904e-05
6.3373e-05
6.76916e-05
7.7281e-05
8.93044e-05
9.68296e-05
8.86856e-05
8.80718e-05
8.83993e-05
8.92567e-05
9.84881e-05
0.000115653
0.000125393
0.000148082
0.000153916
0.000233358
0.000527945
0.000936657
0.00101897
0.000883068
0.000448138
0.000184146
8.44946e-05
6.50214e-05
5.45413e-05
4.87409e-05
4.65172e-05
4.48295e-05
4.75978e-05
7.68162e-05
8.66306e-05
6.04237e-05
7.01475e-05
8.93803e-05
0.000118871
0.000130247
9.67255e-05
9.2501e-05
8.83273e-05
8.4367e-05
9.87486e-05
0.000120154
0.000127057
0.000132752
0.000125679
0.000156377
0.000344535
0.000707959
0.000808908
0.000739908
0.000444108
0.000195171
0.000124164
8.80236e-05
6.40463e-05
6.39139e-05
6.22431e-05
4.86393e-05
4.25681e-05
5.48075e-05
8.30523e-05
6.01277e-05
7.97065e-05
0.000116833
0.000398401
0.00151152
0.000732974
0.000268989
0.000126255
9.39614e-05
0.000102542
0.000121637
0.000145836
0.000194696
0.000280007
0.00028017
0.000372002
0.000588318
0.000656588
0.000580877
0.000375039
0.000201779
0.00012796
0.000109187
9.37746e-05
0.000162109
0.000185328
8.2242e-05
5.15854e-05
5.48747e-05
8.92862e-05
6.40422e-05
8.73704e-05
0.000193642
0.000925777
0.00112687
0.0017841
0.00200445
0.00164614
0.00131553
0.00051731
0.000337089
0.000458865
0.00129046
0.00142866
0.00128479
0.000939233
0.000794218
0.00078622
0.000622126
0.000426507
0.000273652
0.000183785
0.000151544
0.000241063
0.00177139
0.00163197
0.000144363
7.34754e-05
9.2035e-05
0.000125264
5.95111e-05
7.71657e-05
0.000617125
0.000547297
0.000509882
0.00055561
0.00062592
0.000793753
0.00101874
0.00125037
0.00130586
0.00127192
0.00119909
0.00126847
0.00169343
0.00239701
0.00222722
0.00198796
0.0016511
0.00135232
0.0011689
0.00113391
0.00138922
0.00305664
0.0025218
0.0011825
0.00103546
0.000140197
0.000137305
0.000228243
5.94524e-05
0.000375154
0.000400752
0.000394455
0.000458472
0.000462432
0.000420509
0.000330105
0.000274736
0.000322323
0.000443112
0.000539788
0.000665586
0.00082361
0.00104019
0.00169418
0.002214
0.00213744
0.0022468
0.00231927
0.00239368
0.00240832
0.00222505
0.00138393
0.000638722
0.000507937
0.000530612
0.000269829
0.000133864
0.000288166
0.000113452
0.00036851
0.000268244
0.000378154
0.000436615
0.000442111
0.000389554
0.000289018
0.000247885
0.000244867
0.000328135
0.000477766
0.000636559
0.000747675
0.000806905
0.000876045
0.0010656
0.00114905
0.00123057
0.00122368
0.00108606
0.000831786
0.00061145
0.000526484
0.000502268
0.000434995
0.000264431
0.000145272
0.000115201
0.00027189
0.000145362
0.000127464
0.0002523
0.0003595
0.000405659
0.000401669
0.000335558
0.000270728
0.000244558
0.000262001
0.000357302
0.000496791
0.000622384
0.000710147
0.000745668
0.000750612
0.000750868
0.000742401
0.000715984
0.000673537
0.000618801
0.00056491
0.000516642
0.000483462
0.000453823
0.000394027
0.000236521
9.86517e-05
9.76388e-05
0.000265467
4.43816e-05
0.000108193
0.00024565
0.000341643
0.000377744
0.000361908
0.00030378
0.000268459
0.000245759
0.000290426
0.00038814
0.000499599
0.000589396
0.000656195
0.000697882
0.000709443
0.000705063
0.000691863
0.000669172
0.00064013
0.000600261
0.000552653
0.000497685
0.000447566
0.000409299
0.000350077
0.000205221
0.000127762
8.20272e-05
0.000193559
3.13644e-05
0.000105988
0.000234279
0.00032887
0.000359766
0.000337401
0.000292308
0.000264601
0.000252733
0.000303775
0.00039565
0.000489386
0.000573275
0.00061947
0.000648313
0.000667241
0.000671317
0.000668361
0.000652788
0.000625824
0.00058281
0.000528429
0.000468005
0.000413358
0.00037066
0.000315329
0.000181084
0.000144143
0.000120048
0.000128172
3.64495e-05
0.000102381
0.00023026
0.000319383
0.000346498
0.000327072
0.000276802
0.000238546
0.000247814
0.000308386
0.000396975
0.000473711
0.00053114
0.000576447
0.000613373
0.0006322
0.000639751
0.000639512
0.000627257
0.000600105
0.000556815
0.000500491
0.000437741
0.000379623
0.000334421
0.000282098
0.000162205
0.000140103
0.000261786
0.000108751
6.02112e-05
0.000101321
0.000231688
0.000315087
0.000335349
0.000292374
0.000236493
0.000219301
0.000236375
0.000290524
0.000376209
0.000458848
0.000508846
0.000543629
0.000577137
0.000598859
0.000608188
0.000609089
0.0005984
0.000571463
0.000527404
0.000469174
0.000405594
0.000345202
0.000300317
0.000250258
0.000138608
8.00617e-05
0.000440362
0.00019733
9.08521e-05
0.000102888
0.000237344
0.000297126
0.000299488
0.000254688
0.000217184
0.000207625
0.00022087
0.000264645
0.000344392
0.000429006
0.000487598
0.000517689
0.000548589
0.000571043
0.000579067
0.000577827
0.000566303
0.000538126
0.000492271
0.000434165
0.000370699
0.000310077
0.000265806
0.000218977
0.000114488
4.74391e-05
0.000327236
0.000246027
8.77703e-05
0.000100017
0.000223301
0.000269718
0.000271765
0.000241008
0.000206841
0.000194476
0.000197905
0.000234651
0.000312087
0.000396111
0.000466226
0.000506387
0.000526965
0.000547031
0.000552871
0.000547302
0.000531085
0.000499395
0.000452664
0.000394933
0.000331947
0.000274839
0.000230529
0.000188154
0.000101775
4.21671e-05
0.000178404
0.00012405
4.82321e-05
9.2716e-05
0.00020973
0.000254607
0.00025271
0.000229165
0.000192634
0.000170766
0.000170305
0.000195227
0.00027459
0.000367214
0.000436634
0.000493231
0.000516349
0.000522631
0.000525103
0.000514889
0.000491862
0.000456618
0.000408569
0.000351493
0.000291339
0.000237412
0.00019641
0.000155419
8.86684e-05
4.05499e-05
0.00012015
5.26434e-05
3.23358e-05
9.16074e-05
0.000197118
0.000245173
0.000244486
0.000213423
0.000177474
0.00014312
0.000132234
0.000149706
0.000235349
0.000335067
0.000409792
0.000463683
0.000498529
0.00050355
0.000493562
0.000476792
0.000449173
0.000410514
0.000362588
0.000307769
0.000251947
0.000201421
0.000161235
0.000114612
7.8298e-05
4.15004e-05
6.91239e-05
4.01453e-05
3.08771e-05
6.15068e-05
0.000176007
0.00023063
0.000221924
0.000191607
0.000149584
0.000126819
0.000121223
0.000131961
0.000193267
0.000297653
0.000388024
0.000433625
0.000460674
0.000474791
0.000463911
0.000438889
0.000408391
0.000368612
0.000320608
0.000267692
0.00021467
0.000165468
0.000119081
9.81388e-05
7.39532e-05
4.75305e-05
4.29661e-05
4.27696e-05
4.14058e-05
7.62299e-05
0.000139079
0.000176884
0.000177165
0.000147618
0.000129046
0.000115217
0.000111841
0.00012462
0.000166361
0.000263562
0.000357633
0.000420269
0.000436997
0.000439311
0.000432558
0.000402963
0.000367967
0.000325357
0.000278356
0.000226473
0.000172888
0.000123785
0.000103149
8.81394e-05
7.37837e-05
5.52897e-05
4.91317e-05
5.06987e-05
6.4554e-05
9.09552e-05
0.000133001
0.000152141
0.000140944
0.000125493
0.000113438
0.000104804
0.000102988
0.000116068
0.000154929
0.000230224
0.000324206
0.00039469
0.000422693
0.000421368
0.00039933
0.000364557
0.00032285
0.00027792
0.000229714
0.000175278
0.000128383
0.000107513
9.35594e-05
8.40087e-05
7.33653e-05
6.48065e-05
6.26771e-05
6.61495e-05
8.41362e-05
0.000107939
0.000130462
0.000129953
0.000117035
0.000107164
0.000100527
9.57347e-05
9.56048e-05
0.000108768
0.000144102
0.000195091
0.000288273
0.000356115
0.000384296
0.000386655
0.00036531
0.000322635
0.00027586
0.000226056
0.000165453
0.000132364
0.000111822
9.92992e-05
9.13408e-05
8.44642e-05
7.7069e-05
6.98425e-05
6.58157e-05
8.1281e-05
9.57915e-05
0.000110923
0.000115887
0.000112581
0.000104956
9.78473e-05
9.2275e-05
8.86752e-05
8.96795e-05
0.00010299
0.000134081
0.000179263
0.000235072
0.000310135
0.000336537
0.000337896
0.000317347
0.000269328
0.000210709
0.000164979
0.000138667
0.0001193
0.000108661
0.000101912
9.53e-05
8.90217e-05
8.61193e-05
8.05285e-05
7.56773e-05
9.03386e-05
9.67991e-05
9.98551e-05
0.000107335
0.000109603
0.000106068
9.86557e-05
9.1366e-05
8.79022e-05
8.91779e-05
0.000101378
0.000127653
0.000166996
0.000209728
0.000243682
0.000271141
0.000273329
0.000246187
0.000204423
0.000171122
0.000146607
0.000130762
0.000120747
0.000113603
0.000106683
0.000105094
0.000101553
9.6642e-05
9.27765e-05
9.02722e-05
9.79295e-05
0.000101408
0.000111215
0.000123335
0.000129854
0.000128065
0.000122448
0.000114056
0.000105687
9.93687e-05
0.000105181
0.000127188
0.000161071
0.00019808
0.000222439
0.000229839
0.000229225
0.000213291
0.00018243
0.000157418
0.000142396
0.000133109
0.000125385
0.000121364
0.000119952
0.000114845
0.000109372
0.000105299
0.000103143
0.000103133
0.000111235
0.00011792
0.000126091
0.000142522
0.000141003
0.000135526
0.000128864
0.000126345
0.000124549
0.00012356
0.000121963
0.000130682
0.000159653
0.000190092
0.000209004
0.000213658
0.000213322
0.000198433
0.000174371
0.000156326
0.000145096
0.000136878
0.000137423
0.000133775
0.000127689
0.000121267
0.000115812
0.000112346
0.000111277
0.000112981
0.000119808
0.000122143
0.000133725
0.000150725
0.000145615
0.000133485
0.000127287
0.000124677
0.000128366
0.000132437
0.000139255
0.000142408
0.00015678
0.000183194
0.00019855
0.000202621
0.000203456
0.000191276
0.000172787
0.00015801
0.000153681
0.000151706
0.000146201
0.000139611
0.000132837
0.000126506
0.000121455
0.000118426
0.000118092
0.000121372
0.000115311
0.000115029
0.000123809
0.000176449
0.000162376
0.000131003
0.000115277
0.000113638
0.000124383
0.000131473
0.000139919
0.000150843
0.000158803
0.000171304
0.000185537
0.000190959
0.000192644
0.000183005
0.000172284
0.000169823
0.000164118
0.000157014
0.000150013
0.000143261
0.000136813
0.000130972
0.000126397
0.000123727
0.00012384
0.000128474
0.000112009
0.000139619
0.000162683
0.000160622
0.000150191
0.000117376
0.000115423
0.000118518
0.000126976
0.000134943
0.000138806
0.000148221
0.00016029
0.000171819
0.000178955
0.000182535
0.000186003
0.000185553
0.000180705
0.00017336
0.000165846
0.000158666
0.000151966
0.000145776
0.000139983
0.000134766
0.000130682
0.000128326
0.000128718
0.000134172
0.000136753
0.000165789
0.000175437
0.000159937
0.00014373
0.00011264
0.000130707
0.000150472
0.000136294
0.000137512
0.000136967
0.00014479
0.000156323
0.000168532
0.000178358
0.000183989
0.000186172
0.00018364
0.000178115
0.000171728
0.000165173
0.000158829
0.000152965
0.000147565
0.000142533
0.000137984
0.000134395
0.000132334
0.000132912
0.000138523
0.000212004
0.000177912
0.000179734
0.000150857
0.000133082
0.000125605
0.000136158
0.000170654
0.000154983
0.000141825
0.000140414
0.000144873
0.000153588
0.00016329
0.000171789
0.000177125
0.000178901
0.000177314
0.000173653
0.000168886
0.000163669
0.000158454
0.000153506
0.000148918
0.000144639
0.00014075
0.000137653
0.000135889
0.000136605
0.00014186
0.000225296
0.000170286
0.000163123
0.000171795
0.000155225
0.000138765
0.00013502
0.000165497
0.00017256
0.00014752
0.000144615
0.00014799
0.000154536
0.000161495
0.000167465
0.000171429
0.000172941
0.000172212
0.000169777
0.000166278
0.000162228
0.000158017
0.000153923
0.000150078
0.000146483
0.000143207
0.00014058
0.000139113
0.000139927
0.000144519
0.000218789
0.000169647
0.000185904
0.000193747
0.000177304
0.0001574
0.000150277
0.000176971
0.000188356
0.000163672
0.000155895
0.000156482
0.000159267
0.000163002
0.000166435
0.000168703
0.000169524
0.000168888
0.000167043
0.000164366
0.000161188
0.000157797
0.000154428
0.000151223
0.000148223
0.00014549
0.000143291
0.000142102
0.000142961
0.000146743
0.000212725
0.000215373
0.000218653
0.000212885
0.000189435
0.000176274
0.000174619
0.000190361
0.000203447
0.000184497
0.000172672
0.000168082
0.000166647
0.000166812
0.00016757
0.000168139
0.000168012
0.000167092
0.000165442
0.000163235
0.00016066
0.000157902
0.000155122
0.000152455
0.000149956
0.00014769
0.000145867
0.000144927
0.000145766
0.0001487
0.000244932
0.000248515
0.000228634
0.000206732
0.000187495
0.000181763
0.000180263
0.000189329
0.000198847
0.000190112
0.000182477
0.00017704
0.000173357
0.000171151
0.000169818
0.000168808
0.000167769
0.000166422
0.000164752
0.00016279
0.000160617
0.000158319
0.000156015
0.00015379
0.000151709
0.000149836
0.000148339
0.000147609
0.00014837
0.000150504
0.000240636
0.000275203
0.000204638
0.000179244
0.000171524
0.000171913
0.000179217
0.000187157
0.000193943
0.000191055
0.000186819
0.000182169
0.000177945
0.000174674
0.000172076
0.000169995
0.000168175
0.000166453
0.000164684
0.000162846
0.000160933
0.000158987
0.00015705
0.000155186
0.000153449
0.000151904
0.000150682
0.000150122
0.000150761
0.000152238
0.000201054
0.000248256
0.000203505
0.000175001
0.000168943
0.000180575
0.000186307
0.000191278
0.000194452
0.000192505
0.000189082
0.00018485
0.000180716
0.000176938
0.000173774
0.000171082
0.000168793
0.000166775
0.000164931
0.000163174
0.000161465
0.000159781
0.000158136
0.000156562
0.000155105
0.000153825
0.000152829
0.000152392
0.000152894
0.000153817
0.000239396
0.000193677
0.000207908
0.000186112
0.000194639
0.000196944
0.000200093
0.00020105
0.000199104
0.000195262
0.000190663
0.000186116
0.000181977
0.000178078
0.000174658
0.000171733
0.00016924
0.000167111
0.000165257
0.00016359
0.000162045
0.000160576
0.000159167
0.000157827
0.000156571
0.00015548
0.000154671
0.000154315
0.000154683
0.000155194
0.000308448
0.000181436
0.000222552
0.000227145
0.000221417
0.000219598
0.000219123
0.000214082
0.000206121
0.000198083
0.000191368
0.000186039
0.00018164
0.000177918
0.000174594
0.000171739
0.000169289
0.000167214
0.00016545
0.000163914
0.000162538
0.000161263
0.000160053
0.000158896
0.000157823
0.000156918
0.000156276
0.000155815
0.000156042
0.00015634
0.000319853
0.000213414
0.000240611
0.000245985
0.000245492
0.000244365
0.000240758
0.000228197
0.000212613
0.000199359
0.000190427
0.000184336
0.000179932
0.000176499
0.000173595
0.000171045
0.000168834
0.000166958
0.000165381
0.000164037
0.000162853
0.000161769
0.000160735
0.000159719
0.000158762
0.000157992
0.000157513
0.000156906
0.000156955
0.00015712
0.000315504
0.000255692
0.000259957
0.000263469
0.000261961
0.000256874
0.00024113
0.000233182
0.000211884
0.000196216
0.000186434
0.000180324
0.000176567
0.000173809
0.000171545
0.000169567
0.000167802
0.000166282
0.000165001
0.000163906
0.000162952
0.000162074
0.000161211
0.000160333
0.000159477
0.000158782
0.000158368
0.000157671
0.000157506
0.000157528
0.000275649
0.000277316
0.00027475
0.000273005
0.000254737
0.000220338
0.000209237
0.00021288
0.000199628
0.000186093
0.000178048
0.000173878
0.000171534
0.000169928
0.000168613
0.000167408
0.000166238
0.00016519
0.000164296
0.00016353
0.000162847
0.000162199
0.000161529
0.000160841
0.000160176
0.000159551
0.000159108
0.000158334
0.000157926
0.000157706
0.000251076
0.000271119
0.000274344
0.000258528
0.000199577
0.000204545
0.000193941
0.000183138
0.000177254
0.000170006
0.000166584
0.000165567
0.000165322
0.000165204
0.000165042
0.000164739
0.000164265
0.000163765
0.00016332
0.000162932
0.000162577
0.0001622
0.000161763
0.00016132
0.000160867
0.000160286
0.00015982
0.00015913
0.00015853
0.000157997
0.000241135
0.000267517
0.000241344
0.000210732
0.000204162
0.000192918
0.000182173
0.000181025
0.000159501
0.000153757
0.000154825
0.000156921
0.000158788
0.000160179
0.000161185
0.000161799
0.000162047
0.000162124
0.000162155
0.000162178
0.000162185
0.000162126
0.000161966
0.00016179
0.000161553
0.000161059
0.000160608
0.000160108
0.000159531
0.0001587
0.000221754
0.000265341
0.000195472
0.000207347
0.000199388
0.000177612
0.000167471
0.000173858
0.000148189
0.000142238
0.000145432
0.000149483
0.000152842
0.000155436
0.000157454
0.000158896
0.000159814
0.000160428
0.000160905
0.000161323
0.000161703
0.000161941
0.000162
0.000162071
0.000162075
0.000161755
0.00016141
0.000161122
0.000160724
0.000159896
0.000156346
0.000248962
0.000226436
0.000203833
0.000191961
0.000176282
0.000162794
0.000177655
0.000151372
0.000137865
0.000139844
0.000144093
0.000148075
0.000151428
0.000154242
0.000156396
0.000157881
0.000158924
0.000159747
0.000160489
0.000161175
0.000161591
0.000161755
0.00016196
0.000162191
0.000162175
0.000162048
0.000161944
0.000161772
0.000161146
0.000198893
0.000199121
0.000226349
0.000204912
0.000185039
0.000165594
0.000172126
0.000188894
0.00016373
0.000139518
0.000137738
0.000140742
0.000144619
0.000148367
0.000151864
0.000154661
0.000156543
0.000157826
0.000158867
0.000159856
0.000160756
0.000161232
0.000161301
0.000161354
0.000161574
0.00016187
0.000162091
0.000162243
0.000162332
0.00016194
0.000289629
0.000210617
0.000209665
0.000208551
0.00016664
0.000150285
0.000163338
0.000194506
0.000176667
0.000143505
0.000137478
0.000138794
0.00014217
0.000146193
0.000150578
0.000153999
0.000155921
0.00015711
0.000158167
0.000159295
0.00016032
0.000160833
0.000160604
0.000160125
0.000159991
0.000160454
0.000161052
0.000161554