/*--------------------------------*- C++ -*----------------------------------*\
| =========                 |                                                 |
| \\      /  F ield         | OpenFOAM: The Open Source CFD Toolbox           |
|  \\    /   O peration     | Version:  v1606+                                |
|   \\  /    A nd           | Web:      www.OpenFOAM.com                      |
|    \\/     M anipulation  |                                                 |
\*---------------------------------------------------------------------------*/
FoamFile
{
    version     2.0;
    format      ascii;
    class       volScalarField;
    location    "1.03";
    object      nut.particles;
}
// * * * * * * * * * * * * * * * * * * * * * * * * * * * * * * * * * * * * * //

dimensions      [0 2 -1 0 0 0 0];

internalField   nonuniform List<scalar> 
6000
(
8.81918e-06
6.76292e-06
6.8668e-06
9.13602e-06
1.23294e-05
1.38496e-05
1.42647e-05
1.57645e-05
1.69277e-05
1.689e-05
1.6485e-05
1.65341e-05
1.66611e-05
1.6831e-05
1.69485e-05
1.69999e-05
1.6946e-05
1.67792e-05
1.66655e-05
1.68031e-05
1.7216e-05
1.66752e-05
1.51954e-05
1.43599e-05
1.38041e-05
1.11879e-05
9.18374e-06
7.75418e-06
8.02412e-06
1.05277e-05
2.88611e-06
3.01783e-06
3.25056e-06
3.48086e-06
3.66135e-06
4.46138e-06
5.99265e-06
5.84255e-06
5.18282e-06
4.76861e-06
4.49385e-06
4.45437e-06
4.54708e-06
4.67507e-06
4.88478e-06
5.20142e-06
5.50339e-06
5.70883e-06
5.75896e-06
5.54241e-06
5.29138e-06
5.2597e-06
5.35533e-06
4.54188e-06
3.69676e-06
3.46428e-06
3.33316e-06
3.17565e-06
2.94097e-06
3.23504e-06
4.52194e-06
4.39152e-06
3.70039e-06
3.44199e-06
3.64508e-06
4.58352e-06
5.18044e-06
3.71469e-06
3.04977e-06
3.04422e-06
3.04034e-06
2.97313e-06
2.94774e-06
2.93169e-06
2.94145e-06
3.05484e-06
3.22844e-06
3.43197e-06
3.60366e-06
3.5873e-06
3.45359e-06
3.44095e-06
3.96957e-06
4.41653e-06
4.09581e-06
3.75525e-06
3.63844e-06
3.95869e-06
5.55655e-06
5.97783e-06
1.63761e-05
9.40922e-06
5.2391e-06
3.55081e-06
3.44245e-06
3.79763e-06
3.42523e-06
2.85367e-06
2.69878e-06
2.61515e-06
2.5765e-06
2.53577e-06
2.48523e-06
2.42567e-06
2.36472e-06
2.31613e-06
2.29128e-06
2.3008e-06
2.36054e-06
2.47195e-06
2.57361e-06
2.659e-06
2.75722e-06
3.24981e-06
3.68332e-06
3.72241e-06
4.09272e-06
5.77712e-06
1.0751e-05
1.61645e-05
0.00265266
0.00193381
1.22574e-05
6.53628e-06
3.90991e-06
3.22777e-06
2.8285e-06
2.74583e-06
2.65554e-06
2.59975e-06
2.55953e-06
2.53159e-06
2.48214e-06
2.48154e-06
2.48958e-06
2.46053e-06
2.45123e-06
2.49103e-06
2.44615e-06
2.34469e-06
2.47146e-06
2.59013e-06
2.70069e-06
3.07422e-06
4.17095e-06
5.57856e-06
7.84881e-06
2.09553e-05
0.00211424
0.00208951
0.00273459
0.00273162
0.00227646
0.000109516
8.33862e-06
3.9643e-06
2.74465e-06
2.68565e-06
2.58735e-06
2.53715e-06
2.56237e-06
2.66933e-06
2.80259e-06
3.01049e-06
3.25752e-06
3.46864e-06
3.5506e-06
3.46071e-06
3.22811e-06
2.71811e-06
2.46721e-06
2.52723e-06
2.60533e-06
3.62229e-06
7.07503e-06
1.1697e-05
0.000228245
0.00300069
0.00317845
0.00317994
0.00274087
0.00273569
0.00273262
0.00233708
0.000414001
8.64456e-06
3.94558e-06
3.2322e-06
3.27649e-06
3.36821e-06
3.50419e-06
3.765e-06
4.30265e-06
5.03552e-06
5.87939e-06
6.57835e-06
6.92772e-06
6.67654e-06
5.76737e-06
4.53046e-06
3.46473e-06
3.1469e-06
3.5687e-06
6.87193e-06
2.4272e-05
0.000595115
0.00255716
0.00317946
0.00318184
0.00318582
0.00273965
0.00273415
0.00272888
0.00272476
0.00271506
0.000107751
9.68558e-06
7.48594e-06
8.21102e-06
8.17746e-06
8.10165e-06
8.5609e-06
9.89017e-06
1.12867e-05
1.23989e-05
1.30601e-05
1.3155e-05
1.28518e-05
1.17032e-05
9.97359e-06
7.68237e-06
6.68054e-06
9.00735e-06
1.81426e-05
0.000676764
0.00180728
0.00317114
0.00317665
0.0031801
0.00318202
8.98875e-06
2.11842e-05
0.00271137
0.00271858
0.00271016
0.000297162
2.61538e-05
2.52569e-05
4.67623e-05
0.000238097
0.000240293
0.000319894
0.000775919
0.000912302
0.000925138
0.000933365
0.000643597
0.000392874
0.000229475
0.000127587
2.96705e-05
1.82654e-05
0.000195284
0.00172142
0.00283285
0.00316506
0.0031698
0.00316028
5.47184e-05
1.57317e-05
2.09948e-06
3.28565e-06
8.48872e-06
2.67992e-05
2.29828e-05
1.40837e-05
1.48827e-05
1.54265e-05
1.80451e-05
2.73151e-05
2.7277e-05
2.71582e-05
2.88829e-05
3.194e-05
0.000721918
0.00125571
0.00125574
0.00125383
0.00125436
0.00113751
0.0012747
0.00127559
0.00123743
0.00118845
0.00315862
0.00316626
0.003156
2.08473e-05
5.95563e-06
3.19754e-06
1.68848e-06
1.82547e-06
2.61368e-06
4.14656e-06
4.0325e-06
2.37547e-06
2.31868e-06
2.48156e-06
2.44109e-06
3.21563e-06
3.65746e-06
3.65208e-06
3.76063e-06
4.6336e-06
7.74659e-06
1.77879e-05
0.00118014
0.000282543
2.50802e-05
2.2718e-05
2.7699e-05
3.096e-05
2.8247e-05
2.17282e-05
0.00143979
0.00314607
0.000492095
5.30523e-06
2.31924e-06
2.12642e-06
1.81764e-06
2.08906e-06
2.8293e-06
2.64074e-06
1.44636e-06
9.31788e-07
8.42922e-07
8.51205e-07
8.37308e-07
8.52109e-07
8.74334e-07
9.27212e-07
1.0036e-06
1.11144e-06
1.58438e-06
3.38663e-06
5.41521e-06
4.58212e-06
2.95579e-06
2.47841e-06
2.96019e-06
4.24025e-06
5.06591e-06
3.7676e-06
5.94476e-06
1.66669e-05
1.00565e-05
4.45296e-06
2.65165e-06
2.18245e-06
2.47626e-06
2.74118e-06
3.27642e-06
2.28227e-06
1.04939e-06
7.68665e-07
7.26738e-07
7.38932e-07
7.52331e-07
7.40749e-07
7.14419e-07
7.52512e-07
8.85809e-07
1.06244e-06
1.6617e-06
2.85467e-06
2.39852e-06
1.24662e-06
8.70259e-07
7.43364e-07
6.97951e-07
7.30007e-07
8.49442e-07
8.35889e-07
1.05522e-06
2.69994e-06
5.4971e-06
5.80121e-06
3.69207e-06
2.77714e-06
3.26238e-06
3.78144e-06
3.983e-06
1.90157e-06
9.30709e-07
7.35324e-07
7.18348e-07
7.41469e-07
7.6839e-07
7.6492e-07
7.29977e-07
7.79922e-07
1.04937e-06
1.52305e-06
2.59076e-06
3.40426e-06
1.96586e-06
9.6573e-07
7.6858e-07
6.65434e-07
5.78537e-07
5.88888e-07
6.28873e-07
6.63956e-07
6.66836e-07
1.0402e-06
3.25262e-06
5.86924e-06
4.68287e-06
3.71774e-06
4.5512e-06
6.29493e-06
8.14512e-06
2.70352e-06
9.52171e-07
7.29473e-07
7.03107e-07
7.418e-07
7.7649e-07
7.69881e-07
7.37919e-07
8.57468e-07
1.46971e-06
2.28201e-06
3.68089e-06
3.58718e-06
1.71285e-06
1.03546e-06
8.41093e-07
7.48385e-07
5.94376e-07
5.75803e-07
6.07248e-07
6.24961e-07
6.01868e-07
7.96359e-07
1.8265e-06
4.93452e-06
5.81383e-06
4.74697e-06
7.26868e-06
8.09174e-06
7.73613e-06
5.20062e-06
1.4624e-06
8.77924e-07
8.03049e-07
7.45857e-07
7.94232e-07
7.77683e-07
7.64271e-07
9.61269e-07
1.99072e-06
3.35501e-06
4.8008e-06
3.71729e-06
1.83992e-06
1.23073e-06
9.87644e-07
8.17795e-07
6.71806e-07
6.01921e-07
5.94301e-07
5.93673e-07
5.87974e-07
7.83999e-07
1.60715e-06
4.33209e-06
7.16758e-06
6.27321e-06
1.58466e-05
2.366e-05
8.75231e-06
4.84068e-06
2.05419e-06
1.19431e-06
1.07048e-06
8.33121e-07
7.86898e-07
7.95492e-07
8.15967e-07
1.20335e-06
2.57298e-06
4.64733e-06
5.7881e-06
3.7484e-06
2.32319e-06
1.71605e-06
1.33481e-06
1.03149e-06
8.26643e-07
7.08436e-07
6.34207e-07
6.14232e-07
6.96853e-07
1.04702e-06
2.37661e-06
5.76397e-06
8.99062e-06
8.89724e-06
0.000169871
0.000109791
9.74661e-06
5.36907e-06
2.84812e-06
1.77093e-06
1.38917e-06
9.77733e-07
8.11309e-07
8.31924e-07
9.04081e-07
1.59002e-06
3.71905e-06
5.65821e-06
5.99956e-06
4.63743e-06
3.72901e-06
3.12758e-06
2.48778e-06
1.82077e-06
1.31336e-06
1.00058e-06
8.62413e-07
8.49456e-07
1.10126e-06
2.13996e-06
5.09691e-06
1.02537e-05
4.9342e-05
3.59537e-05
0.000228177
0.000100285
1.07729e-05
6.84495e-06
4.46436e-06
2.81934e-06
1.798e-06
1.05091e-06
8.61946e-07
8.93264e-07
1.05363e-06
2.09969e-06
4.68294e-06
6.69667e-06
7.53644e-06
7.07901e-06
7.01625e-06
6.77746e-06
5.94094e-06
4.52651e-06
3.17505e-06
2.27491e-06
1.82721e-06
1.96492e-06
3.07512e-06
6.37526e-06
1.2385e-05
0.00019816
0.000535007
0.000466052
0.000194434
5.20211e-05
1.33061e-05
1.10064e-05
9.85452e-06
7.70081e-06
3.93475e-06
1.61745e-06
9.52959e-07
1.00507e-06
1.26521e-06
2.56488e-06
5.80642e-06
9.99744e-06
1.20983e-05
1.31669e-05
2.02906e-05
2.74455e-05
1.58666e-05
1.26566e-05
9.84599e-06
7.38856e-06
6.27633e-06
7.32981e-06
1.1217e-05
4.9803e-05
0.00117223
0.00212
0.00229085
0.00147638
7.15801e-05
5.90192e-05
8.35046e-05
0.000285825
0.000579344
0.000340065
1.759e-05
6.99776e-06
2.11298e-06
1.3619e-06
1.89509e-06
4.60456e-06
1.21014e-05
0.000207579
0.000480007
0.0010214
0.00168245
0.00211504
0.00210438
0.00158913
0.000746165
0.000216867
0.000103978
0.000364472
0.00213323
0.00655071
0.00904836
0.00906212
0.00764084
0.00390057
9.03358e-05
0.000576781
0.00250473
0.00696644
0.0105474
0.0108599
0.00849235
0.000615908
1.08382e-05
4.90715e-06
6.49613e-06
1.51045e-05
0.00131303
0.00438696
0.00398336
0.00450495
0.00608304
0.00742199
0.00837337
0.0092743
0.010296
0.0115104
0.0134064
0.0169767
0.0192733
0.0199727
0.0203512
0.0206984
0.0188381
0.0108126
0.000397345
0.00481258
0.0139831
0.0219731
0.025857
0.0266163
0.0265146
0.0260914
0.00360526
4.52042e-05
6.48854e-05
0.00134884
0.00463453
0.0094185
0.013213
0.0105867
0.011697
0.0140413
0.0163939
0.0188897
0.0217252
0.0245894
0.0268144
0.0277092
0.0270376
0.0259866
0.0258901
0.0276936
0.0292387
0.0240678
0.00205853
0.0155142
0.0283522
0.0324633
0.0316553
0.0268304
0.0265839
0.00989906
0.0227356
0.022644
0.00910081
0.00707733
0.00251392
0.00440458
0.0218976
0.0202254
0.0196064
0.0224125
0.0261183
0.0295259
0.0324011
0.0343108
0.0348074
0.0338049
0.0315814
0.0288409
0.0264969
0.0267834
0.0294347
0.0315431
0.00754088
0.0259553
0.036573
0.0349794
0.0287742
0.0179799
0.011428
2.28167e-05
0.0153141
0.034458
0.0345097
0.0170711
0.00210974
0.0021259
0.0239969
0.0325051
0.0305412
0.0329455
0.0373777
0.0411361
0.0435657
0.0445222
0.0438798
0.0416935
0.03801
0.0329637
0.0274682
0.0244924
0.0220488
0.0315415
0.0159855
0.0336617
0.0394973
0.0328863
0.0208804
0.00738733
0.00122815
1.24816e-05
0.000380144
0.0229547
0.0586659
0.035697
0.00212838
0.00212045
0.0267574
0.0459665
0.0439535
0.0452463
0.049614
0.053495
0.0558166
0.0567048
0.0558982
0.0535387
0.049387
0.0423895
0.0327421
0.0253795
0.021893
0.0315015
0.0253957
0.0402083
0.0396922
0.0277496
0.0135174
0.00333123
0.000322557
1.21128e-05
1.48535e-05
0.00529676
0.0612758
0.0576116
0.00213598
0.00213576
0.0314599
0.0614454
0.0592157
0.0586528
0.0625173
0.0664156
0.0681598
0.0675359
0.0667256
0.0664112
0.0650472
0.0598276
0.0480169
0.0327012
0.0218717
0.0217407
0.0388411
0.0473692
0.0387687
0.023251
0.0100777
0.00218113
5.00389e-05
1.25387e-05
1.28066e-05
0.00297978
0.0615829
0.0758331
0.00345255
0.00214139
0.0364839
0.0757477
0.0751312
0.0731105
0.0750999
0.0755288
0.0747422
0.066713
0.0653725
0.0699567
0.0747274
0.0751852
0.0714773
0.055659
0.029323
0.0196327
0.0612132
0.0492229
0.0405597
0.0245134
0.0111228
0.0022026
1.89409e-05
2.45711e-05
1.23367e-05
0.00209847
0.0600789
0.0794179
0.010189
0.00449592
0.0413027
0.0786806
0.0785678
0.0778676
0.0779454
0.0763661
0.0619966
0.042767
0.0440278
0.0554794
0.0686834
0.0756055
0.0763643
0.0763429
0.054765
0.0235741
0.076421
0.0462443
0.0440875
0.0324737
0.0187012
0.00283802
2.0059e-05
0.00306291
1.54049e-05
0.000220576
0.0458785
0.0812163
0.0271206
0.013239
0.0494945
0.0803391
0.0814522
0.081234
0.0793591
0.0609125
0.0206306
0.00614192
0.00932072
0.0212333
0.0452505
0.0676964
0.0763658
0.0764473
0.0761874
0.041527
0.0769838
0.0476318
0.0472034
0.038969
0.03604
0.00817759
0.000777081
0.0226499
8.58186e-05
1.76608e-05
0.0207552
0.0819837
0.0527321
0.0311214
0.0635751
0.0817526
0.0842838
0.0839353
0.0754417
0.0144284
0.000441635
2.6927e-05
0.000158125
0.00128247
0.0138018
0.0422166
0.0692646
0.0763887
0.0763948
0.0638784
0.0759085
0.049606
0.0507662
0.0446741
0.0507462
0.0356449
0.020821
0.0591383
0.0032544
1.64254e-05
0.0132943
0.083241
0.077483
0.0593879
0.0770098
0.0840334
0.0874567
0.08326
0.026576
4.83147e-05
1.33269e-05
1.21968e-05
1.384e-05
1.48945e-05
0.000666341
0.0148229
0.0448629
0.0726928
0.0762833
0.0715539
0.0564672
0.054604
0.0585579
0.056274
0.0680535
0.0757509
0.0763085
0.065032
0.00366618
1.55457e-05
0.00883385
0.0843351
0.0844556
0.0794445
0.0824893
0.0879561
0.0904604
0.0759791
0.00168749
8.7931e-06
9.71855e-06
1.05829e-05
1.13827e-05
1.09019e-05
1.3003e-05
0.00172184
0.0199678
0.0491198
0.0693235
0.0713226
0.0673436
0.0781902
0.0803475
0.0796101
0.080372
0.082501
0.0830547
0.0702712
0.00141944
1.45706e-05
0.00176229
0.0830718
0.0885185
0.0858646
0.0881099
0.0931473
0.091822
0.0298999
1.56175e-05
8.40734e-06
8.75836e-06
1.00743e-05
1.04091e-05
1.0798e-05
1.06112e-05
1.58583e-05
0.00481619
0.0255127
0.0506585
0.066733
0.0830566
0.0830173
0.0831746
0.0830669
0.0832396
0.0831728
0.0832935
0.0804748
0.00204011
1.67757e-05
2.04277e-05
0.0593135
0.0885959
0.0905386
0.0932165
0.0975956
0.090825
0.00666385
8.48851e-06
8.3492e-06
8.33547e-06
9.51082e-06
1.0069e-05
1.08847e-05
1.06888e-05
1.20832e-05
0.000316147
0.00887061
0.0285312
0.0534113
0.0830361
0.0831002
0.0828401
0.0616122
0.0829929
0.083305
0.0832183
0.0832565
0.0121091
2.24793e-05
1.97732e-05
0.0400126
0.0889566
0.0949959
0.0981137
0.0997412
0.0854024
0.00166715
8.19291e-06
8.29935e-06
8.07882e-06
9.46425e-06
1.24812e-05
1.78946e-05
1.70648e-05
1.32997e-05
1.67457e-05
0.00158154
0.0103526
0.0326142
0.083029
0.0826615
0.0171307
0.000175604
0.0198984
0.0780596
0.0834008
0.0831314
0.0547293
0.000294851
1.94297e-05
0.029717
0.0904731
0.0998501
0.103637
0.100826
0.0726488
7.47338e-05
8.38518e-06
9.22e-06
9.27193e-06
1.32477e-05
0.00152692
0.00787752
0.00097728
1.74414e-05
1.71909e-05
0.000138091
0.00201308
0.0117537
0.0828614
0.00202524
1.55493e-05
1.30877e-05
0.000142922
0.0141646
0.0824812
0.0835447
0.0828049
0.00259206
1.82182e-05
0.0177904
0.0916437
0.105322
0.111126
0.104626
0.044982
1.35047e-05
8.7588e-06
1.00063e-05
1.59647e-05
0.00232686
0.0382866
0.0663407
0.0301896
0.000420348
1.78198e-05
1.77044e-05
0.000121206
0.00120558
0.00382176
7.72696e-06
6.59729e-06
9.03426e-06
1.34788e-05
0.000450144
0.0345637
0.083099
0.0834136
0.0225527
9.79728e-05
0.00685906
0.0895678
0.110581
0.120982
0.112905
0.0337039
1.03267e-05
9.1956e-06
1.32214e-05
0.00300176
0.047746
0.0769346
0.0771755
0.0766764
0.0370625
0.000293375
1.85299e-05
1.66368e-05
3.72863e-05
1.34274e-05
4.12449e-06
5.19583e-06
7.00641e-06
7.1794e-06
1.52546e-05
0.00433334
0.0750311
0.0829692
0.0652585
0.00696726
0.00957338
0.0859471
0.115653
0.129839
0.121227
0.00890369
9.77988e-06
1.08012e-05
0.00115249
0.0450378
0.0781931
0.0787226
0.0780298
0.0758449
0.0756452
0.0480636
0.00119401
7.52281e-05
3.74978e-05
1.20617e-05
3.94158e-06
5.28038e-06
5.65654e-06
5.14644e-06
9.06959e-06
0.000332329
0.0234674
0.0766927
0.0764947
0.0420333
0.0281469
0.0894675
0.121947
0.129879
0.1075
1.61433e-05
9.80252e-06
0.000303171
0.0332179
0.0786117
0.0792907
0.078933
0.0765119
0.0139419
0.0539623
0.05345
0.0528517
0.00788713
0.000240628
1.63987e-05
3.92846e-06
5.83003e-06
4.71194e-06
4.64848e-06
5.73391e-06
0.0001486
0.007337
0.0314873
0.0662725
0.0728062
0.0724393
0.097677
0.12697
0.130008
0.0931986
1.66039e-05
1.75851e-05
0.0129842
0.0794578
0.0798383
0.0795565
0.0791593
0.0179299
4.16171e-05
0.000899634
0.0220722
0.0529754
0.0523231
0.00995272
1.72521e-05
4.14764e-06
6.04087e-06
4.40245e-06
3.99227e-06
4.32733e-06
1.56938e-05
0.00315565
0.00910205
0.0273033
0.0743545
0.0802073
0.101728
0.129421
0.129955
0.0945146
3.29905e-05
0.000584702
0.0590819
0.0799083
0.0799191
0.0798802
0.0705952
0.000320097
1.63262e-05
1.44606e-05
2.51585e-05
0.0081678
0.0515921
0.0517308
1.18125e-05
4.67721e-06
6.50709e-06
5.18167e-06
3.88162e-06
3.98499e-06
8.43079e-06
5.25295e-05
0.00238648
0.00241367
0.0504026
0.0773822
0.100539
0.129937
0.130159
0.104888
0.00200917
0.00346322
0.0800018
0.0802511
0.0802547
0.0799764
0.000101025
1.69684e-05
7.96088e-06
4.99531e-06
5.01651e-06
1.19128e-05
7.68136e-05
0.0233565
5.71001e-06
5.19526e-06
7.95682e-06
8.07596e-06
4.61616e-06
3.99788e-06
5.44536e-06
5.82328e-06
1.67056e-05
2.34506e-05
0.0251534
0.0399759
0.0963181
0.127197
0.129986
0.103514
0.0422317
0.00996761
0.079729
0.0801495
0.0762157
0.000109994
1.80102e-05
3.17856e-06
2.07303e-06
1.73322e-06
1.71949e-06
1.46676e-06
3.00394e-06
1.26024e-05
2.99671e-06
4.80765e-06
9.41612e-06
1.0962e-05
6.22044e-06
4.57618e-06
4.38562e-06
2.15659e-06
4.71303e-06
9.02983e-05
0.0202463
0.0092517
0.0946983
0.12987
0.126712
0.0877436
0.0146111
0.0260378
0.0785147
0.0324537
0.000684797
3.25447e-05
6.36303e-06
2.49399e-06
1.38771e-06
1.32431e-06
1.43128e-06
1.43353e-06
1.35887e-06
2.05834e-06
3.05359e-06
2.94507e-06
3.67376e-06
3.91201e-06
3.68055e-06
3.56164e-06
4.13281e-06
1.73227e-06
2.68709e-06
6.14131e-05
0.0044128
0.0011107
0.100309
0.131847
0.126611
0.0697485
0.000449446
0.0117156
0.0334662
0.0122495
9.97735e-05
1.1699e-05
7.04078e-06
3.57496e-06
1.48737e-06
1.26444e-06
1.33127e-06
1.45328e-06
1.43843e-06
1.36594e-06
4.27889e-06
3.77051e-06
3.44234e-06
3.20045e-06
3.22694e-06
3.49195e-06
2.88388e-06
1.60074e-06
9.4401e-07
8.97765e-06
4.9496e-05
1.6772e-05
0.0886083
0.132646
0.131605
0.0433286
1.2414e-05
0.000708296
0.0226238
0.0176372
0.00135024
1.22408e-05
7.37317e-06
4.30354e-06
1.64189e-06
1.26309e-06
1.28936e-06
1.45485e-06
1.46933e-06
1.30476e-06
4.57305e-06
4.05382e-06
3.49002e-06
2.96665e-06
2.62969e-06
2.40363e-06
2.21727e-06
1.78287e-06
6.7667e-07
9.6745e-07
4.44203e-06
7.10086e-06
0.0316291
0.131973
0.132304
0.0213162
1.52693e-05
2.22744e-05
0.0156784
0.0184098
0.00391553
6.58558e-05
6.62272e-06
4.32777e-06
1.68757e-06
1.26802e-06
1.25819e-06
1.39798e-06
1.43686e-06
1.29433e-06
4.4529e-06
3.92148e-06
3.3486e-06
2.84911e-06
2.47069e-06
2.22545e-06
2.15879e-06
1.98125e-06
7.30726e-07
8.9799e-07
1.07648e-06
2.47425e-06
0.0507209
0.133148
0.131915
0.00490555
1.68965e-05
1.09174e-05
0.00256841
0.0183118
0.00866663
0.000294406
6.11964e-06
3.64114e-06
1.72244e-06
1.26628e-06
1.22888e-06
1.34205e-06
1.41334e-06
1.21944e-06
4.30012e-06
3.81372e-06
3.28658e-06
2.82097e-06
2.45974e-06
2.21924e-06
2.15327e-06
2.10089e-06
8.21799e-07
1.03849e-06
2.30087e-06
4.69135e-06
0.0758437
0.132151
0.132897
0.00201713
1.41385e-05
9.23678e-06
0.00088714
0.0183493
0.0107562
0.000433481
5.21783e-06
2.30332e-06
1.81084e-06
1.36116e-06
1.21715e-06
1.30694e-06
1.40438e-06
1.22206e-06
4.16739e-06
3.72389e-06
3.23303e-06
2.79428e-06
2.45245e-06
2.21369e-06
2.14918e-06
2.12743e-06
8.57993e-07
1.32976e-06
4.25154e-06
0.000485715
0.0845861
0.133392
0.130151
8.40559e-05
1.20162e-05
7.994e-06
0.00100194
0.0182606
0.00725872
5.20481e-05
3.3916e-06
1.33962e-06
1.92224e-06
1.51691e-06
1.26206e-06
1.26522e-06
1.32086e-06
1.32772e-06
4.05878e-06
3.64737e-06
3.18284e-06
2.76284e-06
2.43311e-06
2.1918e-06
2.13067e-06
2.11798e-06
9.01301e-07
2.44709e-06
6.2199e-06
0.00149973
0.0871408
0.131895
0.102218
1.51229e-05
9.8114e-06
7.72433e-06
0.00303106
0.0139066
0.00213624
7.20188e-06
1.6002e-06
1.23111e-06
1.88221e-06
1.65965e-06
1.46323e-06
1.24382e-06
1.23034e-06
1.39754e-06
3.97113e-06
3.58037e-06
3.13347e-06
2.72568e-06
2.40212e-06
2.15773e-06
2.09381e-06
2.07443e-06
9.8708e-07
4.29337e-06
0.000141597
0.000863671
0.0824026
0.127415
0.0884842
1.52935e-05
8.4872e-06
8.00183e-06
0.00480425
0.00489795
1.88573e-05
3.18983e-06
1.00569e-06
1.5855e-06
1.71262e-06
1.71237e-06
1.83993e-06
1.29401e-06
1.22701e-06
1.53473e-06
3.90031e-06
3.52039e-06
3.08408e-06
2.6838e-06
2.36179e-06
2.11633e-06
2.05301e-06
2.03095e-06
1.09723e-06
5.40156e-06
0.000237304
0.000233947
0.0632115
0.122447
0.0793754
1.02776e-05
6.43719e-06
4.99491e-05
0.00479288
0.000353621
6.45727e-06
1.26204e-06
1.5257e-06
1.74239e-06
1.55255e-06
1.54024e-06
1.88498e-06
1.61768e-06
1.33365e-06
1.49695e-06
3.84239e-06
3.46646e-06
3.03511e-06
2.63829e-06
2.31509e-06
2.06951e-06
2.00725e-06
2.00134e-06
1.20798e-06
1.65582e-06
2.42704e-05
0.000224277
0.041804
0.105898
0.0853451
1.08548e-05
5.40001e-06
6.96596e-05
0.000839218
1.05442e-05
1.88409e-06
1.79363e-06
1.76813e-06
1.59952e-06
1.58117e-06
1.49412e-06
1.62407e-06
1.61203e-06
1.34405e-06
1.5078e-06
3.79553e-06
3.41891e-06
2.98806e-06
2.59096e-06
2.26614e-06
2.02417e-06
1.9742e-06
1.95197e-06
1.23757e-06
7.27427e-07
1.02118e-05
0.00202475
0.0297289
0.0839186
0.08467
0.0117312
5.60107e-06
7.19496e-06
1.08799e-05
2.50669e-06
1.65527e-06
2.23449e-06
1.59115e-06
1.53588e-06
1.60806e-06
1.56173e-06
1.4974e-06
1.45526e-06
1.26298e-06
1.74004e-06
3.7593e-06
3.37864e-06
2.9448e-06
2.54385e-06
2.21548e-06
1.97724e-06
1.94079e-06
1.86041e-06
1.15467e-06
4.66843e-07
2.25264e-06
7.42826e-05
0.00959151
0.043323
0.0787935
0.0373701
0.000350395
5.98619e-06
4.21387e-06
1.40357e-06
2.17901e-06
2.16225e-06
1.49039e-06
1.48916e-06
1.59204e-06
1.60362e-06
1.52878e-06
1.43765e-06
1.47426e-06
2.16329e-06
3.73316e-06
3.34755e-06
2.90707e-06
2.49927e-06
2.16429e-06
1.92972e-06
1.90491e-06
1.76223e-06
9.19455e-07
4.22521e-07
4.64032e-07
7.16076e-06
0.000195648
0.0130333
0.0531024
0.041457
0.00429041
7.98779e-06
3.33167e-06
1.45866e-06
2.39602e-06
1.83617e-06
1.40825e-06
1.45815e-06
1.56735e-06
1.60597e-06
1.59368e-06
1.59148e-06
1.84419e-06
2.40444e-06
3.71917e-06
3.32678e-06
2.8758e-06
2.45839e-06
2.11063e-06
1.87469e-06
1.85695e-06
1.64877e-06
7.25648e-07
3.95587e-07
3.15764e-07
8.60857e-07
9.73075e-06
0.000101459
0.01224
0.040462
0.0127004
0.000242996
4.34245e-06
1.52918e-06
2.46282e-06
1.74499e-06
1.37601e-06
1.44455e-06
1.55698e-06
1.60253e-06
1.61821e-06
1.69705e-06
1.9821e-06
2.37715e-06
3.7194e-06
3.31817e-06
2.85144e-06
2.41925e-06
2.05083e-06
1.81182e-06
1.80134e-06
1.52732e-06
6.15927e-07
3.51376e-07
3.90115e-07
5.14374e-07
1.40756e-06
8.59674e-06
2.13628e-05
0.014057
0.0156025
0.00102675
5.07638e-06
1.57043e-06
2.53265e-06
1.65389e-06
1.34792e-06
1.43911e-06
1.55476e-06
1.60051e-06
1.6194e-06
1.71465e-06
1.94856e-06
2.20647e-06
3.73166e-06
3.3192e-06
2.83542e-06
2.37788e-06
1.98028e-06
1.7362e-06
1.73049e-06
1.38485e-06
5.43089e-07
3.46886e-07
4.71557e-07
7.69552e-07
1.02986e-06
2.21644e-06
7.30924e-06
9.67184e-05
0.0151139
0.000779681
3.84088e-06
1.57084e-06
2.60339e-06
1.59947e-06
1.33489e-06
1.43495e-06
1.55892e-06
1.60193e-06
1.61646e-06
1.69769e-06
1.86846e-06
2.02375e-06
3.75367e-06
3.32831e-06
2.82691e-06
2.32696e-06
1.89095e-06
1.63853e-06
1.63791e-06
1.22773e-06
5.03256e-07
3.55623e-07
5.62415e-07
1.17341e-06
1.67415e-06
2.11311e-06
3.70542e-06
1.00643e-05
0.00108324
1.63951e-05
1.98083e-06
1.74299e-06
2.61748e-06
1.54133e-06
1.3225e-06
1.43439e-06
1.56211e-06
1.60305e-06
1.61109e-06
1.67632e-06
1.80235e-06
1.89611e-06
3.78133e-06
3.34648e-06
2.81896e-06
2.25216e-06
1.77278e-06
1.51167e-06
1.51028e-06
1.09153e-06
4.64696e-07
3.6496e-07
6.85484e-07
1.6582e-06
2.76546e-06
3.32176e-06
4.21101e-06
7.66032e-06
1.63861e-05
4.9294e-06
1.33716e-06
1.9076e-06
2.57291e-06
1.50965e-06
1.31408e-06
1.4257e-06
1.5609e-06
1.60318e-06
1.60588e-06
1.66202e-06
1.76863e-06
1.84094e-06
3.81515e-06
3.37296e-06
2.80007e-06
2.13995e-06
1.62184e-06
1.35613e-06
1.33389e-06
9.16089e-07
4.22162e-07
3.77001e-07
8.21213e-07
2.20286e-06
4.05321e-06
4.98182e-06
5.84855e-06
8.67009e-06
9.59825e-06
2.95155e-06
1.34492e-06
2.14274e-06
2.575e-06
1.49141e-06
1.30889e-06
1.40494e-06
1.54962e-06
1.60038e-06
1.60424e-06
1.66077e-06
1.77011e-06
1.845e-06
3.85789e-06
3.40147e-06
2.75397e-06
1.98587e-06
1.44578e-06
1.19028e-06
1.13543e-06
7.31417e-07
3.79816e-07
3.99133e-07
9.53824e-07
2.72975e-06
5.52878e-06
6.88958e-06
7.73437e-06
1.02229e-05
8.44019e-06
2.32538e-06
1.29062e-06
2.41096e-06
2.63731e-06
1.48952e-06
1.30645e-06
1.37583e-06
1.52306e-06
1.59074e-06
1.60765e-06
1.67804e-06
1.80453e-06
1.88402e-06
3.90678e-06
3.42203e-06
2.67236e-06
1.79437e-06
1.26012e-06
1.04157e-06
9.56351e-07
5.76078e-07
3.46304e-07
4.24837e-07
1.08508e-06
3.13949e-06
6.61362e-06
1.0345e-05
1.39282e-05
2.92958e-05
7.87034e-06
1.85518e-06
1.15137e-06
2.82313e-06
2.66378e-06
1.50768e-06
1.31123e-06
1.34713e-06
1.47312e-06
1.56187e-06
1.60732e-06
1.71102e-06
1.86029e-06
1.92857e-06
3.9536e-06
3.42538e-06
2.56127e-06
1.59501e-06
1.09254e-06
9.26741e-07
8.16355e-07
4.79377e-07
3.30585e-07
4.53862e-07
1.21701e-06
3.51912e-06
7.17038e-06
4.49715e-05
5.59418e-05
5.57268e-05
6.34494e-06
1.38168e-06
1.08536e-06
3.23508e-06
2.57834e-06
1.5116e-06
1.32099e-06
1.33047e-06
1.42548e-06
1.5177e-06
1.60298e-06
1.75248e-06
1.90453e-06
1.9236e-06
3.99149e-06
3.41835e-06
2.43706e-06
1.41928e-06
9.6936e-07
8.46352e-07
7.11653e-07
4.2702e-07
3.2683e-07
4.92918e-07
1.38196e-06
3.8892e-06
7.79588e-06
5.81308e-05
6.30781e-05
6.03603e-05
5.15715e-06
1.1049e-06
1.33201e-06
3.40698e-06
2.3769e-06
1.50364e-06
1.33533e-06
1.33027e-06
1.39822e-06
1.49848e-06
1.62495e-06
1.79867e-06
1.88115e-06
1.83287e-06
4.00749e-06
3.40187e-06
2.32791e-06
1.29196e-06
8.9399e-07
7.88115e-07
6.39576e-07
4.00285e-07
3.31734e-07
5.63901e-07
1.59748e-06
4.34803e-06
8.28758e-06
6.23992e-05
6.31747e-05
5.55507e-05
4.10915e-06
9.13625e-07
2.0585e-06
3.32247e-06
2.20713e-06
1.50175e-06
1.34775e-06
1.33778e-06
1.40622e-06
1.52678e-06
1.66996e-06
1.8028e-06
1.84451e-06
1.81635e-06
4.00021e-06
3.37293e-06
2.24942e-06
1.21776e-06
8.47043e-07
7.4139e-07
5.99854e-07
3.80999e-07
3.4276e-07
6.63426e-07
1.89952e-06
4.89838e-06
8.99114e-06
6.29729e-05
6.32516e-05
3.58623e-05
3.66468e-06
8.47618e-07
2.60379e-06
2.91005e-06
2.01628e-06
1.49165e-06
1.35006e-06
1.33712e-06
1.408e-06
1.53669e-06
1.68257e-06
1.77501e-06
1.78726e-06
1.99966e-06
3.9658e-06
3.33229e-06
2.19526e-06
1.17333e-06
8.09949e-07
7.00335e-07
5.61626e-07
3.65505e-07
3.60774e-07
7.78495e-07
2.26667e-06
5.49341e-06
9.96701e-06
6.23014e-05
6.33779e-05
9.40477e-06
3.61987e-06
9.2026e-07
2.67193e-06
2.29905e-06
1.78315e-06
1.46422e-06
1.30957e-06
1.26175e-06
1.28354e-06
1.35552e-06
1.43664e-06
1.46045e-06
1.55552e-06
2.2501e-06
3.89699e-06
3.2712e-06
2.14276e-06
1.13803e-06
7.76828e-07
6.62021e-07
5.23787e-07
3.61284e-07
3.81535e-07
9.10274e-07
2.69638e-06
5.9477e-06
9.02112e-06
4.47294e-05
5.33056e-05
7.84437e-06
3.28854e-06
1.08043e-06
2.29357e-06
1.83816e-06
1.62158e-06
1.468e-06
1.30728e-06
1.20447e-06
1.15551e-06
1.14454e-06
1.15988e-06
1.20021e-06
1.47251e-06
2.37326e-06
3.78568e-06
3.17921e-06
2.07182e-06
1.10364e-06
7.46817e-07
6.26376e-07
5.00574e-07
3.62819e-07
4.03708e-07
1.05827e-06
3.14612e-06
6.30588e-06
8.90608e-06
2.02443e-05
1.77891e-05
6.65929e-06
2.38487e-06
1.28225e-06
1.92256e-06
1.5813e-06
1.53435e-06
1.485e-06
1.33544e-06
1.2115e-06
1.12614e-06
1.08881e-06
1.08575e-06
1.14934e-06
1.50553e-06
2.55353e-06
3.63986e-06
3.0586e-06
1.97693e-06
1.05917e-06
7.17196e-07
5.94987e-07
4.87876e-07
3.65049e-07
4.31831e-07
1.23759e-06
3.69537e-06
6.73887e-06
8.97527e-06
1.30432e-05
1.01888e-05
6.11987e-06
1.5829e-06
1.52334e-06
1.59317e-06
1.414e-06
1.47029e-06
1.49537e-06
1.37838e-06
1.23896e-06
1.13972e-06
1.09099e-06
1.0836e-06
1.15301e-06
1.59337e-06
2.82953e-06
3.48457e-06
2.92013e-06
1.8312e-06
9.89311e-07
6.84623e-07
5.70898e-07
4.76884e-07
3.68983e-07
4.78817e-07
1.57757e-06
4.83069e-06
7.72662e-06
1.41995e-05
1.25953e-05
9.24704e-06
6.40514e-06
1.14179e-06
1.62732e-06
1.31508e-06
1.26252e-06
1.38939e-06
1.48121e-06
1.43638e-06
1.27927e-06
1.1701e-06
1.10778e-06
1.09154e-06
1.15618e-06
1.62038e-06
2.96237e-06
3.35037e-06
2.73839e-06
1.59388e-06
8.89423e-07
6.48577e-07
5.56962e-07
4.74364e-07
3.85886e-07
6.00192e-07
2.30403e-06
6.76373e-06
1.12479e-05
5.9575e-05
3.33555e-05
9.77366e-06
6.67512e-06
9.9047e-07
1.28727e-06
1.10997e-06
1.11168e-06
1.26683e-06
1.41539e-06
1.45553e-06
1.33466e-06
1.20486e-06
1.12842e-06
1.10098e-06
1.15012e-06
1.61948e-06
2.98901e-06
3.21647e-06
2.41883e-06
1.2725e-06
7.72045e-07
6.13711e-07
5.53946e-07
4.8427e-07
4.48123e-07
9.2781e-07
3.62825e-06
1.00752e-05
5.77937e-05
0.000116568
8.2226e-05
1.2601e-05
6.15594e-06
9.62331e-07
1.04185e-06
9.44617e-07
9.89577e-07
1.12142e-06
1.31423e-06
1.42394e-06
1.3612e-06
1.24103e-06
1.15097e-06
1.10711e-06
1.13682e-06
1.58018e-06
2.93012e-06
2.9496e-06
1.87683e-06
9.35725e-07
6.68167e-07
5.96291e-07
5.61309e-07
5.11347e-07
6.28794e-07
1.56008e-06
5.18449e-06
2.99236e-05
9.52982e-05
0.000134293
0.000112739
1.24304e-05
5.3886e-06
9.29243e-07
8.85459e-07
8.62429e-07
9.18393e-07
1.00534e-06
1.1622e-06
1.3158e-06
1.34675e-06
1.24998e-06
1.16895e-06
1.11267e-06
1.11956e-06
1.50937e-06
2.79419e-06
2.43129e-06
1.27149e-06
7.51408e-07
6.34029e-07
6.04918e-07
5.82483e-07
5.82035e-07
9.73813e-07
2.50456e-06
6.15304e-06
1.98048e-05
8.84241e-05
0.000134556
0.000112369
8.949e-06
3.89903e-06
9.28478e-07
7.89483e-07
8.21953e-07
8.69686e-07
9.19221e-07
1.02319e-06
1.18743e-06
1.26671e-06
1.2319e-06
1.16572e-06
1.11264e-06
1.10712e-06
1.44161e-06
2.63228e-06
1.77074e-06
9.43173e-07
6.92622e-07
6.48426e-07
6.36348e-07
6.2654e-07
7.14434e-07
1.45069e-06
3.48542e-06
6.5956e-06
8.15879e-06
2.24173e-05
9.80014e-05
5.2862e-05
9.46186e-06
2.25811e-06
9.10116e-07
7.42413e-07
7.94402e-07
8.24855e-07
8.66453e-07
9.45037e-07
1.05396e-06
1.15075e-06
1.1747e-06
1.14627e-06
1.10733e-06
1.10113e-06
1.39069e-06
2.47145e-06
1.32757e-06
8.18919e-07
7.05008e-07
6.97081e-07
6.90369e-07
6.98828e-07
8.84928e-07
1.88237e-06
4.12199e-06
6.63096e-06
7.49312e-06
1.15193e-05
4.56297e-05
3.25102e-05
1.04005e-05
1.31369e-06
7.8004e-07
7.15438e-07
7.58749e-07
7.80447e-07
8.23602e-07
8.88726e-07
9.63526e-07
1.05169e-06
1.09472e-06
1.10214e-06
1.09241e-06
1.09897e-06
1.35908e-06
2.32157e-06
1.18359e-06
8.13335e-07
7.57198e-07
7.6577e-07
7.63383e-07
7.85085e-07
1.01967e-06
2.08726e-06
3.87528e-06
5.09302e-06
6.76574e-06
1.2109e-05
3.25313e-05
2.98128e-05
1.13172e-05
9.81803e-07
7.13794e-07
6.92519e-07
7.25097e-07
7.41876e-07
7.78023e-07
8.27161e-07
8.85977e-07
9.50707e-07
1.0055e-06
1.03614e-06
1.05579e-06
1.09314e-06
1.34276e-06
2.18415e-06
1.19924e-06
8.61594e-07
8.19776e-07
8.26394e-07
8.26651e-07
8.43493e-07
1.06245e-06
1.64815e-06
2.4086e-06
3.38583e-06
5.69689e-06
1.06673e-05
2.42243e-05
3.06117e-05
1.1148e-05
8.37473e-07
6.79919e-07
6.77328e-07
6.98202e-07
7.0671e-07
7.26812e-07
7.54241e-07
7.86053e-07
8.32469e-07
8.90601e-07
9.43694e-07
1.00625e-06
1.08583e-06
1.33313e-06
2.04971e-06
1.26934e-06
9.09735e-07
8.5971e-07
8.54898e-07
8.53674e-07
8.48482e-07
9.44547e-07
1.15965e-06
1.56947e-06
2.49731e-06
5.0948e-06
7.9408e-06
2.06775e-05
3.25701e-05
6.74542e-06
7.59414e-07
6.60168e-07
6.63669e-07
6.71158e-07
6.69766e-07
6.77093e-07
6.89369e-07
6.9898e-07
7.26774e-07
7.81782e-07
8.62113e-07
9.70777e-07
1.08814e-06
1.31728e-06
1.89898e-06
1.32693e-06
9.16742e-07
8.56384e-07
8.42937e-07
8.41273e-07