/*--------------------------------*- C++ -*----------------------------------*\
| =========                 |                                                 |
| \\      /  F ield         | OpenFOAM: The Open Source CFD Toolbox           |
|  \\    /   O peration     | Version:  v1606+                                |
|   \\  /    A nd           | Web:      www.OpenFOAM.com                      |
|    \\/     M anipulation  |                                                 |
\*---------------------------------------------------------------------------*/
FoamFile
{
    version     2.0;
    format      ascii;
    class       volVectorField;
    location    "1.03";
    object      U.airMean;
}
// * * * * * * * * * * * * * * * * * * * * * * * * * * * * * * * * * * * * * //

dimensions      [0 1 -1 0 0 0 0];

internalField   nonuniform List<vector> 
6000
(
(-0.0181566 0.266747 0)
(-0.000621579 0.234268 0)
(0.0163968 0.246219 0)
(0.0256546 0.245491 0)
(0.0275268 0.241564 0)
(0.0223919 0.235996 0)
(0.0172789 0.23037 0)
(0.010544 0.227478 0)
(0.00366606 0.228736 0)
(-0.00117663 0.224136 0)
(-0.00556119 0.215677 0)
(-0.00841056 0.211945 0)
(-0.0102292 0.214049 0)
(-0.0108964 0.214527 0)
(-0.0103733 0.216786 0)
(-0.00910822 0.216749 0)
(-0.00769101 0.215888 0)
(-0.00712654 0.215252 0)
(-0.00686999 0.212782 0)
(-0.00811697 0.215622 0)
(-0.0104455 0.221305 0)
(-0.0125911 0.226599 0)
(-0.0164492 0.227794 0)
(-0.0218501 0.230056 0)
(-0.0268154 0.234206 0)
(-0.0292401 0.239159 0)
(-0.0251025 0.243237 0)
(-0.0151607 0.243766 0)
(0.00150118 0.232865 0)
(0.0190013 0.267284 0)
(0.0119201 0.991706 0)
(0.0130041 0.96907 0)
(0.0390142 0.97571 0)
(0.0549837 0.986328 0)
(0.0644852 1.00487 0)
(0.0593986 1.0157 0)
(0.0421338 1.0206 0)
(0.0184965 1.02374 0)
(0.000817883 1.0153 0)
(-0.00521005 1.01438 0)
(-0.0105687 1.01826 0)
(-0.0149565 1.01864 0)
(-0.0167816 1.01533 0)
(-0.0164805 1.01211 0)
(-0.0126425 1.00846 0)
(-0.00779797 1.00755 0)
(-0.00539949 1.00965 0)
(-0.00523506 1.01151 0)
(-0.00709815 1.01486 0)
(-0.0120132 1.01574 0)
(-0.0165651 1.01232 0)
(-0.0202285 1.01071 0)
(-0.0324878 1.01623 0)
(-0.0501971 1.01742 0)
(-0.0628906 1.01119 0)
(-0.0645579 0.999652 0)
(-0.0523672 0.984354 0)
(-0.0356893 0.976878 0)
(-0.0105083 0.970964 0)
(-0.0102217 0.993432 0)
(-0.00259844 0.808002 0)
(0.00941139 0.74289 0)
(0.0384933 0.755391 0)
(0.0535649 0.766796 0)
(0.0653186 0.790497 0)
(0.0655185 0.815087 0)
(0.0515317 0.831055 0)
(0.0312178 0.833534 0)
(0.0159909 0.816943 0)
(0.005494 0.804629 0)
(-0.000643324 0.796727 0)
(-0.00336419 0.791321 0)
(-0.00714478 0.789556 0)
(-0.0091719 0.785467 0)
(-0.00620416 0.783133 0)
(-0.00342705 0.784853 0)
(-0.00398922 0.788697 0)
(-0.00820479 0.791218 0)
(-0.0136029 0.793995 0)
(-0.0190391 0.797583 0)
(-0.0263202 0.800161 0)
(-0.0343443 0.807619 0)
(-0.0445717 0.819536 0)
(-0.0576814 0.820495 0)
(-0.0645979 0.804993 0)
(-0.0610134 0.781627 0)
(-0.0474466 0.762104 0)
(-0.0324358 0.754196 0)
(-0.00433827 0.744315 0)
(0.00442254 0.814141 0)
(0.0134959 0.837576 0)
(0.0217374 0.773181 0)
(0.0339697 0.786348 0)
(0.047172 0.800988 0)
(0.0574083 0.829242 0)
(0.061594 0.858427 0)
(0.0600401 0.88459 0)
(0.0501232 0.88906 0)
(0.0356559 0.878347 0)
(0.0215166 0.86601 0)
(0.0128479 0.860405 0)
(0.00374994 0.857764 0)
(-0.00571015 0.852519 0)
(-0.00689129 0.839482 0)
(-0.00102702 0.831239 0)
(0.00502852 0.833959 0)
(0.00654295 0.843477 0)
(0.000186878 0.851986 0)
(-0.0129626 0.857604 0)
(-0.0256948 0.860766 0)
(-0.0368341 0.861449 0)
(-0.0488994 0.864318 0)
(-0.0574159 0.870885 0)
(-0.0627861 0.868706 0)
(-0.0595398 0.845653 0)
(-0.0519789 0.82011 0)
(-0.0407494 0.799047 0)
(-0.0291403 0.789241 0)
(-0.0184342 0.777839 0)
(-0.012724 0.845886 0)
(0.0132846 0.800559 0)
(0.01515 0.749283 0)
(0.0238952 0.754197 0)
(0.040463 0.765988 0)
(0.0553555 0.800994 0)
(0.0613079 0.835143 0)
(0.0665022 0.867319 0)
(0.0651572 0.881353 0)
(0.0530327 0.878385 0)
(0.0357081 0.86248 0)
(0.0233575 0.854702 0)
(0.00994874 0.854 0)
(-0.00203695 0.842006 0)
(-0.00323741 0.819254 0)
(0.00507577 0.807622 0)
(0.0142755 0.813237 0)
(0.0176678 0.830603 0)
(0.00967712 0.849501 0)
(-0.00954946 0.860619 0)
(-0.0277218 0.858318 0)
(-0.0427415 0.858389 0)
(-0.0588984 0.859098 0)
(-0.0670882 0.858378 0)
(-0.0661697 0.849771 0)
(-0.0599458 0.820306 0)
(-0.0524908 0.791614 0)
(-0.0370845 0.765464 0)
(-0.0206484 0.758245 0)
(-0.0125362 0.755232 0)
(-0.0129711 0.810941 0)
(0.00401774 0.782996 0)
(-0.00119396 0.742525 0)
(0.00641006 0.730354 0)
(0.0250146 0.739178 0)
(0.0465511 0.778926 0)
(0.0646415 0.816581 0)
(0.0767516 0.850708 0)
(0.0850399 0.871841 0)
(0.0799951 0.884195 0)
(0.0632728 0.875354 0)
(0.0436248 0.867993 0)
(0.02186 0.870779 0)
(0.00115011 0.852037 0)
(-0.00561691 0.817532 0)
(0.00422432 0.798742 0)
(0.0194661 0.807067 0)
(0.0258678 0.833526 0)
(0.0149469 0.865666 0)
(-0.00745469 0.881359 0)
(-0.0309441 0.875057 0)
(-0.0546945 0.875267 0)
(-0.0748475 0.866399 0)
(-0.0823266 0.850996 0)
(-0.0760892 0.83553 0)
(-0.0655313 0.803805 0)
(-0.0493805 0.771059 0)
(-0.0258562 0.737691 0)
(-0.00498837 0.734198 0)
(0.00314587 0.748962 0)
(-0.00438835 0.794012 0)
(-0.00416266 0.785624 0)
(-0.0134921 0.736481 0)
(-0.0149232 0.71163 0)
(-0.00368211 0.710254 0)
(0.0237838 0.740315 0)
(0.0607101 0.782549 0)
(0.0859636 0.825184 0)
(0.101339 0.85447 0)
(0.100465 0.877861 0)
(0.0880263 0.881518 0)
(0.0652206 0.877417 0)
(0.0341514 0.884667 0)
(0.00303352 0.862143 0)
(-0.0115112 0.808188 0)
(-0.00272751 0.775751 0)
(0.0178773 0.785576 0)
(0.0264998 0.827194 0)
(0.0137301 0.876396 0)
(-0.0111301 0.894519 0)
(-0.037183 0.889625 0)
(-0.0658374 0.890376 0)
(-0.0886273 0.869773 0)
(-0.0991969 0.840674 0)
(-0.0895612 0.814023 0)
(-0.0683058 0.774704 0)
(-0.0332366 0.734578 0)
(4.70155e-05 0.704741 0)
(0.0149599 0.714544 0)
(0.0139494 0.744465 0)
(0.00312754 0.796741 0)
(-0.00172926 0.793211 0)
(-0.0168706 0.747975 0)
(-0.0333196 0.709339 0)
(-0.0288803 0.690241 0)
(-7.6344e-05 0.698401 0)
(0.0458009 0.738732 0)
(0.0853089 0.795138 0)
(0.103788 0.839868 0)
(0.104236 0.876133 0)
(0.0917275 0.889775 0)
(0.0718139 0.89592 0)
(0.0405524 0.902936 0)
(0.00512674 0.875334 0)
(-0.0157753 0.803185 0)
(-0.0117413 0.752585 0)
(0.00618132 0.761953 0)
(0.0162102 0.819152 0)
(0.00414113 0.883419 0)
(-0.0209229 0.907643 0)
(-0.0455233 0.906455 0)
(-0.0692788 0.908695 0)
(-0.093765 0.881693 0)
(-0.106383 0.838147 0)
(-0.0961182 0.791924 0)
(-0.0623639 0.736622 0)
(-0.0128283 0.689559 0)
(0.023228 0.679107 0)
(0.0304469 0.711056 0)
(0.0145767 0.756887 0)
(-0.000246454 0.802865 0)
(-0.00331075 0.801207 0)
(-0.0193178 0.766551 0)
(-0.0447112 0.710667 0)
(-0.0452484 0.667624 0)
(-0.0194396 0.656524 0)
(0.023072 0.687144 0)
(0.0667903 0.755247 0)
(0.0938047 0.820589 0)
(0.101145 0.872015 0)
(0.0908513 0.893306 0)
(0.0680094 0.910444 0)
(0.0413448 0.924014 0)
(0.00815715 0.887282 0)
(-0.0150417 0.803829 0)
(-0.016128 0.735013 0)
(-0.00909885 0.741626 0)
(0.000131061 0.808508 0)
(-0.00836615 0.887763 0)
(-0.0307758 0.921062 0)
(-0.0478441 0.91746 0)
(-0.0653062 0.921552 0)
(-0.0872589 0.892725 0)
(-0.0937691 0.832148 0)
(-0.0798539 0.759845 0)
(-0.0432603 0.687432 0)
(0.00657306 0.640478 0)
(0.0387819 0.653678 0)
(0.0381712 0.712579 0)
(0.0139607 0.774818 0)
(0.00144906 0.806347 0)
(-0.00532902 0.812266 0)
(-0.0220376 0.78467 0)
(-0.0466012 0.719467 0)
(-0.0550826 0.649672 0)
(-0.0368924 0.623231 0)
(-0.00304196 0.644317 0)
(0.0389122 0.712921 0)
(0.0779098 0.790239 0)
(0.0977819 0.861436 0)
(0.0893982 0.905662 0)
(0.0615786 0.920891 0)
(0.0394051 0.942727 0)
(0.0123679 0.899186 0)
(-0.0114509 0.804955 0)
(-0.015256 0.724624 0)
(-0.0180371 0.728138 0)
(-0.0109914 0.793351 0)
(-0.0145746 0.885227 0)
(-0.0251362 0.930288 0)
(-0.0360404 0.920214 0)
(-0.0548752 0.930463 0)
(-0.0680257 0.893951 0)
(-0.0647268 0.814817 0)
(-0.0435302 0.727209 0)
(-0.01188 0.646217 0)
(0.0266233 0.599269 0)
(0.0465292 0.635085 0)
(0.0395103 0.719508 0)
(0.016537 0.78928 0)
(0.00501099 0.814812 0)
(-0.00789678 0.819973 0)
(-0.0247815 0.79563 0)
(-0.0479676 0.729095 0)
(-0.0611217 0.639984 0)
(-0.0572864 0.599679 0)
(-0.0297511 0.608525 0)
(0.0115534 0.671316 0)
(0.0598866 0.755133 0)
(0.0847151 0.84578 0)
(0.08218 0.924217 0)
(0.0511809 0.946175 0)
(0.0272777 0.9618 0)
(0.0134698 0.913895 0)
(-0.00403053 0.812173 0)
(-0.0109084 0.728777 0)
(-0.0198526 0.725433 0)
(-0.0140146 0.78042 0)
(-0.0121501 0.876503 0)
(-0.00461581 0.935017 0)
(-0.0154239 0.925289 0)
(-0.0336669 0.942524 0)
(-0.0429719 0.884856 0)
(-0.0286982 0.78763 0)
(0.0028347 0.69371 0)
(0.0267621 0.60865 0)
(0.0473747 0.569469 0)
(0.0508269 0.623366 0)
(0.0388698 0.728054 0)
(0.0182543 0.796159 0)
(0.00714408 0.820111 0)
(-0.00792379 0.832627 0)
(-0.0278488 0.807047 0)
(-0.0508097 0.74151 0)
(-0.0669717 0.639595 0)
(-0.0702116 0.583012 0)
(-0.0505451 0.573802 0)
(-0.00913004 0.622672 0)
(0.0375333 0.718428 0)
(0.0670201 0.826941 0)
(0.067407 0.934863 0)
(0.0444396 0.967846 0)
(0.0218809 0.973019 0)
(0.0150378 0.92359 0)
(-8.74265e-05 0.81963 0)
(-0.00646223 0.738088 0)
(-0.0170804 0.730844 0)
(-0.0149932 0.778225 0)
(-0.00932828 0.866829 0)
(0.0145479 0.935002 0)
(0.00722269 0.938706 0)
(-0.00960556 0.954135 0)
(-0.0160262 0.874924 0)
(0.00722375 0.755617 0)
(0.0434482 0.657693 0)
(0.0588096 0.588224 0)
(0.0627072 0.554968 0)
(0.0535125 0.620591 0)
(0.0395627 0.737046 0)
(0.0211412 0.802568 0)
(0.00701297 0.829375 0)
(-0.00829574 0.846502 0)
(-0.030004 0.818557 0)
(-0.0511323 0.751 0)
(-0.0704974 0.639362 0)
(-0.0766198 0.573303 0)
(-0.0617786 0.547183 0)
(-0.026189 0.586399 0)
(0.0179248 0.685025 0)
(0.0467165 0.81221 0)
(0.0510701 0.944307 0)
(0.0378407 0.989212 0)
(0.0223351 0.980332 0)
(0.0216362 0.932757 0)
(0.0128643 0.828136 0)
(-0.00035917 0.749699 0)
(-0.0158806 0.737278 0)
(-0.0173236 0.779014 0)
(-0.00173926 0.852779 0)
(0.0273251 0.928213 0)
(0.0229227 0.953757 0)
(0.0111974 0.964741 0)
(0.0127611 0.864316 0)
(0.0409775 0.721928 0)
(0.0739292 0.629681 0)
(0.0837609 0.580952 0)
(0.0740463 0.551837 0)
(0.0563522 0.622682 0)
(0.040383 0.744575 0)
(0.0232676 0.809686 0)
(0.0068323 0.840048 0)
(-0.00799988 0.861659 0)
(-0.0294599 0.828827 0)
(-0.0489015 0.761083 0)
(-0.0716045 0.642699 0)
(-0.0830055 0.561247 0)
(-0.0709454 0.522395 0)
(-0.036764 0.550286 0)
(0.00379408 0.649582 0)
(0.0296614 0.795073 0)
(0.0369428 0.940455 0)
(0.034648 0.998211 0)
(0.0322647 0.97709 0)
(0.041678 0.926643 0)
(0.0429447 0.835928 0)
(0.0188088 0.766678 0)
(-0.00715287 0.750064 0)
(-0.018483 0.783775 0)
(0.00293875 0.836664 0)
(0.0320645 0.928014 0)
(0.0326206 0.972152 0)
(0.0225921 0.970101 0)
(0.030264 0.852408 0)
(0.0595077 0.691426 0)
(0.0854911 0.6114 0)
(0.0966187 0.582576 0)
(0.0807037 0.561195 0)
(0.0587664 0.631904 0)
(0.0381373 0.751876 0)
(0.0227156 0.816294 0)
(0.00636471 0.852066 0)
(-0.00665969 0.872429 0)
(-0.0266063 0.838513 0)
(-0.041948 0.772279 0)
(-0.0686854 0.654959 0)
(-0.0875824 0.556251 0)
(-0.081564 0.497433 0)
(-0.0503307 0.51386 0)
(-0.0138426 0.617597 0)
(0.00984891 0.780238 0)
(0.0228291 0.928198 0)
(0.0340575 0.995201 0)
(0.0523225 0.96302 0)
(0.0765636 0.908336 0)
(0.0894232 0.849939 0)
(0.0550448 0.794024 0)
(0.0183972 0.77507 0)
(-0.00609807 0.792554 0)
(0.0120378 0.818418 0)
(0.0311524 0.93067 0)
(0.0376451 0.996434 0)
(0.0313858 0.981868 0)
(0.0373424 0.849299 0)
(0.0591828 0.67005 0)
(0.0764922 0.599592 0)
(0.0962232 0.582156 0)
(0.0831518 0.57309 0)
(0.060561 0.648707 0)
(0.0352904 0.759717 0)
(0.0228862 0.823083 0)
(0.0058096 0.860816 0)
(-0.00606986 0.884068 0)
(-0.0232559 0.846183 0)
(-0.0278261 0.780643 0)
(-0.046253 0.673033 0)
(-0.0675415 0.558725 0)
(-0.0798894 0.485051 0)
(-0.0716271 0.48581 0)
(-0.0451275 0.587625 0)
(-0.0182542 0.761491 0)
(0.00847484 0.903352 0)
(0.0395378 0.973088 0)
(0.0709627 0.934296 0)
(0.108157 0.881489 0)
(0.130772 0.859304 0)
(0.107853 0.831254 0)
(0.0638831 0.807675 0)
(0.030599 0.808795 0)
(0.0240857 0.814023 0)
(0.0258749 0.929627 0)
(0.0351873 1.00656 0)
(0.037902 0.988597 0)
(0.0435141 0.855369 0)
(0.04847 0.66377 0)
(0.0567603 0.591238 0)
(0.0815331 0.573644 0)
(0.0782285 0.584937 0)
(0.0583095 0.671582 0)
(0.0335264 0.769486 0)
(0.0261575 0.831813 0)
(0.00766434 0.87498 0)
(-0.00518916 0.898365 0)
(-0.0186603 0.853691 0)
(-0.0154312 0.779483 0)
(-0.0210812 0.687657 0)
(-0.0409225 0.571488 0)
(-0.065629 0.496209 0)
(-0.0841745 0.478435 0)
(-0.0839019 0.56595 0)
(-0.0547575 0.733616 0)
(-0.00839208 0.865571 0)
(0.0453793 0.93755 0)
(0.0854143 0.908869 0)
(0.126317 0.847705 0)
(0.151739 0.864336 0)
(0.150252 0.864163 0)
(0.113832 0.856063 0)
(0.0758274 0.84895 0)
(0.0356338 0.83656 0)
(0.0171987 0.935008 0)
(0.0258721 1.00629 0)
(0.0440031 0.98452 0)
(0.0583274 0.866054 0)
(0.0478237 0.672574 0)
(0.0467556 0.586229 0)
(0.0611969 0.560349 0)
(0.0575546 0.592057 0)
(0.038689 0.692068 0)
(0.0247251 0.777368 0)
(0.0244261 0.83999 0)
(0.00831421 0.893988 0)
(-0.00459796 0.905994 0)
(-0.0111299 0.856559 0)
(-0.000427514 0.778122 0)
(0.00242495 0.697064 0)
(-0.0159189 0.588554 0)
(-0.0514363 0.520556 0)
(-0.095931 0.501272 0)
(-0.117843 0.561868 0)
(-0.0931216 0.703177 0)
(-0.0328783 0.817917 0)
(0.0386359 0.891419 0)
(0.090917 0.884578 0)
(0.123621 0.828176 0)
(0.150124 0.857739 0)
(0.168641 0.882025 0)
(0.148591 0.89172 0)
(0.11362 0.897295 0)
(0.0544836 0.888415 0)
(0.0120621 0.948206 0)
(0.0253884 0.992653 0)
(0.0588392 0.962878 0)
(0.0880485 0.868485 0)
(0.0731768 0.696389 0)
(0.0561734 0.591823 0)
(0.0458511 0.566135 0)
(0.0237799 0.614142 0)
(0.00444777 0.707412 0)
(0.00653577 0.78258 0)
(0.018198 0.8444 0)
(0.00708639 0.91161 0)
(-0.00170287 0.911092 0)
(0.00432509 0.849637 0)
(0.0135095 0.773091 0)
(0.0226708 0.703978 0)
(0.00219388 0.61523 0)
(-0.0387531 0.560018 0)
(-0.0981697 0.536654 0)
(-0.135848 0.570034 0)
(-0.116394 0.67402 0)
(-0.0527018 0.768545 0)
(0.0246925 0.840349 0)
(0.0844792 0.856698 0)
(0.110939 0.816256 0)
(0.136306 0.837143 0)
(0.162456 0.889503 0)
(0.157953 0.920489 0)
(0.126442 0.94127 0)
(0.0599159 0.949786 0)
(0.0107511 0.963266 0)
(0.0408338 0.971231 0)
(0.0867057 0.930141 0)
(0.128331 0.85565 0)
(0.114355 0.727998 0)
(0.0670458 0.615241 0)
(0.0224403 0.59517 0)
(-0.0097596 0.645203 0)
(-0.0254496 0.716783 0)
(-0.0135722 0.777692 0)
(0.0033638 0.841222 0)
(0.00125707 0.928754 0)
(0.00609306 0.902485 0)
(0.0290978 0.83934 0)
(0.0378782 0.764115 0)
(0.0285061 0.705823 0)
(-0.00218475 0.643309 0)
(-0.0507688 0.59744 0)
(-0.106717 0.578237 0)
(-0.14039 0.5817 0)
(-0.114376 0.636315 0)
(-0.0480008 0.719041 0)
(0.0274852 0.790075 0)
(0.0872652 0.82744 0)
(0.114725 0.803666 0)
(0.125245 0.815181 0)
(0.143878 0.880028 0)
(0.147974 0.935131 0)
(0.119025 0.987386 0)
(0.0570184 1.01129 0)
(0.0276318 0.972212 0)
(0.0709576 0.941706 0)
(0.124375 0.89428 0)
(0.171614 0.834 0)
(0.157351 0.761643 0)
(0.0875972 0.665741 0)
(0.0237667 0.631736 0)
(-0.0157964 0.666567 0)
(-0.0306035 0.717438 0)
(-0.0308402 0.767555 0)
(-0.0203327 0.836252 0)
(-0.0114681 0.927604 0)
(0.0102933 0.885705 0)
(0.0338604 0.817569 0)
(0.0361765 0.763051 0)
(0.00902623 0.724772 0)
(-0.0342189 0.675596 0)
(-0.0869389 0.640936 0)
(-0.132361 0.605549 0)
(-0.145783 0.579168 0)
(-0.115154 0.596873 0)
(-0.047854 0.665187 0)
(0.0283593 0.742822 0)
(0.09218 0.791862 0)
(0.128666 0.792737 0)
(0.134063 0.804268 0)
(0.136649 0.866794 0)
(0.131205 0.941461 0)
(0.105417 1.02155 0)
(0.0695628 1.04641 0)
(0.0622564 0.968457 0)
(0.109877 0.909447 0)
(0.172339 0.854546 0)
(0.206081 0.816024 0)
(0.192028 0.799681 0)
(0.122553 0.725356 0)
(0.0544733 0.677282 0)
(0.00927626 0.68776 0)
(-0.0180403 0.726381 0)
(-0.0380181 0.76856 0)
(-0.0380509 0.822105 0)
(-0.018685 0.903725 0)
(0.00953657 0.859705 0)
(0.0104576 0.801012 0)
(-0.0112687 0.777706 0)
(-0.0443103 0.756853 0)
(-0.0868859 0.718345 0)
(-0.128696 0.679885 0)
(-0.155649 0.619493 0)
(-0.165295 0.565203 0)
(-0.136675 0.549003 0)
(-0.0662401 0.603963 0)
(0.0213603 0.686876 0)
(0.0972402 0.752727 0)
(0.150042 0.770429 0)
(0.165316 0.797563 0)
(0.16076 0.860308 0)
(0.138615 0.948148 0)
(0.116194 1.03489 0)
(0.104143 1.05861 0)
(0.105627 0.965877 0)
(0.145363 0.871183 0)
(0.198708 0.82112 0)
(0.218463 0.809039 0)
(0.205761 0.820524 0)
(0.15048 0.774236 0)
(0.0964832 0.71692 0)
(0.0554674 0.72098 0)
(0.0203416 0.75142 0)
(-0.00654841 0.781655 0)
(-0.021616 0.805319 0)
(-0.0164539 0.864942 0)
(0.00123124 0.861724 0)
(-0.0270043 0.827896 0)
(-0.0596825 0.807254 0)
(-0.0881903 0.779344 0)
(-0.116115 0.74363 0)
(-0.135773 0.70111 0)
(-0.154455 0.638743 0)
(-0.175132 0.568624 0)
(-0.173929 0.513771 0)
(-0.1182 0.534175 0)
(-0.0224791 0.61029 0)
(0.0724339 0.689914 0)
(0.143748 0.729524 0)
(0.180116 0.777324 0)
(0.187511 0.858944 0)
(0.167686 0.961585 0)
(0.151142 1.03579 0)
(0.152755 1.06302 0)
(0.159216 0.965366 0)
(0.179179 0.842479 0)
(0.208766 0.796529 0)
(0.219921 0.804697 0)
(0.206053 0.83637 0)
(0.165184 0.811538 0)
(0.120503 0.746821 0)
(0.0881515 0.740953 0)
(0.0595121 0.763828 0)
(0.038191 0.794128 0)
(0.0133678 0.821407 0)
(-0.00560208 0.854148 0)
(-0.0121179 0.873844 0)
(-0.0532848 0.851778 0)
(-0.0849713 0.824155 0)
(-0.106194 0.798025 0)
(-0.119064 0.759809 0)
(-0.122208 0.712455 0)
(-0.132434 0.6574 0)
(-0.162295 0.593696 0)
(-0.186025 0.508839 0)
(-0.161224 0.480312 0)
(-0.0860642 0.536822 0)
(0.0171884 0.62147 0)
(0.100142 0.680587 0)
(0.155005 0.743761 0)
(0.184264 0.847552 0)
(0.190525 0.965589 0)
(0.191207 1.03421 0)
(0.208897 1.05769 0)
(0.227765 0.96499 0)
(0.227372 0.842019 0)
(0.226304 0.787485 0)
(0.220786 0.804871 0)
(0.201943 0.848321 0)
(0.173195 0.837657 0)
(0.127201 0.777014 0)
(0.0942004 0.758173 0)
(0.0736178 0.776148 0)
(0.055871 0.801853 0)
(0.0331296 0.835496 0)
(0.00791194 0.853473 0)
(-0.0134815 0.899793 0)
(-0.0519773 0.891124 0)
(-0.089172 0.848855 0)
(-0.103499 0.812603 0)
(-0.104274 0.76446 0)
(-0.101348 0.715013 0)
(-0.106964 0.670269 0)
(-0.138091 0.622608 0)
(-0.175753 0.522846 0)
(-0.174869 0.459078 0)
(-0.131041 0.474395 0)
(-0.0489987 0.544038 0)
(0.0369272 0.623572 0)
(0.10288 0.696176 0)
(0.152474 0.819411 0)
(0.186947 0.944479 0)
(0.214659 1.01986 0)
(0.256189 1.03527 0)
(0.293054 0.964374 0)
(0.289723 0.866212 0)
(0.260126 0.80066 0)
(0.229722 0.815351 0)
(0.200975 0.857501 0)
(0.178423 0.855611 0)
(0.133341 0.812765 0)
(0.0870145 0.771406 0)
(0.0693379 0.786138 0)
(0.0561061 0.814205 0)
(0.0323842 0.858466 0)
(0.0128471 0.869179 0)
(-0.0122832 0.922532 0)
(-0.0444082 0.931962 0)
(-0.076956 0.867196 0)
(-0.0797843 0.817052 0)
(-0.0772993 0.761456 0)
(-0.0794526 0.715421 0)
(-0.0875166 0.678588 0)
(-0.111286 0.643613 0)
(-0.15257 0.539133 0)
(-0.171401 0.45137 0)
(-0.148763 0.443338 0)
(-0.0954801 0.48633 0)
(-0.0221481 0.561491 0)
(0.0495878 0.639632 0)
(0.105951 0.773964 0)
(0.158516 0.904989 0)
(0.215992 0.9805 0)
(0.286154 0.991895 0)
(0.343984 0.951412 0)
(0.352991 0.890952 0)
(0.312777 0.838697 0)
(0.250731 0.844015 0)
(0.201693 0.870516 0)
(0.176314 0.867846 0)
(0.13797 0.850205 0)
(0.0810874 0.795296 0)
(0.054462 0.791402 0)
(0.0493497 0.822102 0)
(0.0303822 0.878135 0)
(0.0141162 0.88596 0)
(-0.0233066 0.939713 0)
(-0.0326485 0.953794 0)
(-0.050571 0.870088 0)
(-0.0456641 0.811117 0)
(-0.0491133 0.760794 0)
(-0.0583539 0.716137 0)
(-0.0744917 0.682697 0)
(-0.0883918 0.653415 0)
(-0.126386 0.560351 0)
(-0.158988 0.450698 0)
(-0.154172 0.416831 0)
(-0.116742 0.44327 0)
(-0.0608008 0.505213 0)
(0.00524489 0.584724 0)
(0.0626796 0.720485 0)
(0.120255 0.845724 0)
(0.199689 0.914413 0)
(0.294871 0.927222 0)
(0.375725 0.921501 0)
(0.402319 0.904691 0)
(0.365041 0.891249 0)
(0.277662 0.900177 0)
(0.202561 0.901617 0)
(0.160612 0.881935 0)
(0.128854 0.883365 0)
(0.0782463 0.835948 0)
(0.0377112 0.798082 0)
(0.0344722 0.821184 0)
(0.0275965 0.888344 0)
(0.0203995 0.902701 0)
(-0.0301235 0.963475 0)
(-0.0253464 0.950825 0)
(-0.0237054 0.864763 0)
(-0.0251693 0.808756 0)
(-0.0312425 0.762699 0)
(-0.0436545 0.722908 0)
(-0.0611529 0.686806 0)
(-0.0697604 0.65281 0)
(-0.0956417 0.580593 0)
(-0.138186 0.462939 0)
(-0.148708 0.398163 0)
(-0.125899 0.411308 0)
(-0.082757 0.459877 0)
(-0.0280892 0.534558 0)
(0.0297581 0.669672 0)
(0.0856277 0.784029 0)
(0.175759 0.832121 0)
(0.284301 0.846219 0)
(0.380013 0.871545 0)
(0.423397 0.904006 0)
(0.391957 0.943418 0)
(0.296896 0.976617 0)
(0.202742 0.957777 0)
(0.13619 0.918307 0)
(0.102236 0.914198 0)
(0.0633105 0.876085 0)
(0.0258528 0.822784 0)
(0.0137798 0.821819 0)
(0.0192548 0.885346 0)
(0.0237181 0.9254 0)
(-0.0202412 0.992136 0)
(-0.00986673 0.933435 0)
(-0.00187785 0.865105 0)
(-0.00832275 0.808188 0)
(-0.0187289 0.76314 0)
(-0.0329215 0.729613 0)
(-0.0488465 0.691132 0)
(-0.0572849 0.644688 0)
(-0.070839 0.592575 0)
(-0.11454 0.48495 0)
(-0.138892 0.391033 0)
(-0.128748 0.388299 0)
(-0.0964841 0.426573 0)
(-0.052798 0.492796 0)
(0.004328 0.621116 0)
(0.0701654 0.723849 0)
(0.159296 0.748841 0)
(0.265836 0.762209 0)
(0.360612 0.807787 0)
(0.411139 0.88677 0)
(0.389869 0.986449 0)
(0.301448 1.05746 0)
(0.200472 1.03223 0)
(0.112879 0.97507 0)
(0.0655729 0.950798 0)
(0.0334007 0.906155 0)
(0.00463158 0.848146 0)
(-0.00577844 0.828017 0)
(0.00440879 0.875042 0)
(0.0127484 0.947502 0)
(-0.0046808 1.00357 0)
(0.00604817 0.922838 0)
(0.0166296 0.866653 0)
(0.00985794 0.818557 0)
(-0.00407323 0.772289 0)
(-0.0200683 0.741279 0)
(-0.0362721 0.698052 0)
(-0.0486849 0.641962 0)
(-0.0569843 0.597217 0)
(-0.0928553 0.508891 0)
(-0.127587 0.394836 0)
(-0.127472 0.373044 0)
(-0.102938 0.40296 0)
(-0.0654763 0.461378 0)
(-0.0122175 0.569359 0)
(0.0629129 0.660165 0)
(0.147568 0.67408 0)
(0.244806 0.681768 0)
(0.328869 0.740503 0)
(0.375122 0.857965 0)
(0.364128 1.01566 0)
(0.293093 1.1273 0)
(0.196119 1.11642 0)
(0.0931487 1.04365 0)
(0.0313288 0.993258 0)
(-0.0010665 0.933665 0)
(-0.0213459 0.869826 0)
(-0.0266923 0.831564 0)
(-0.0137604 0.867652 0)
(-0.00147769 0.952849 0)
(0.00588689 1.00811 0)
(0.0195825 0.913969 0)
(0.030826 0.867185 0)
(0.0273126 0.828131 0)
(0.0138675 0.785639 0)
(-0.00595967 0.755969 0)
(-0.0241549 0.711739 0)
(-0.0438521 0.647999 0)
(-0.0557978 0.597105 0)
(-0.0819613 0.528507 0)
(-0.119118 0.404595 0)
(-0.123261 0.358475 0)
(-0.10265 0.383204 0)
(-0.0688633 0.437007 0)
(-0.0205037 0.52243 0)
(0.0499214 0.601745 0)
(0.131952 0.606944 0)
(0.220129 0.604583 0)
(0.294416 0.676627 0)
(0.333642 0.825486 0)
(0.322416 1.0224 0)
(0.26823 1.17152 0)
(0.185422 1.19112 0)
(0.0798742 1.11881 0)
(0.00209671 1.03499 0)
(-0.035743 0.955658 0)
(-0.0511803 0.88074 0)
(-0.052088 0.83157 0)
(-0.0340053 0.853862 0)
(-0.0137405 0.946635 0)
(0.0132069 0.997139 0)
(0.0305649 0.90238 0)
(0.0445562 0.864286 0)
(0.0457699 0.836402 0)
(0.0302044 0.803787 0)
(0.00627293 0.775252 0)
(-0.0182345 0.726723 0)
(-0.0437576 0.663698 0)
(-0.0658222 0.602246 0)
(-0.0857064 0.538077 0)
(-0.113833 0.415173 0)
(-0.12508 0.344218 0)
(-0.104284 0.361409 0)
(-0.0703096 0.412968 0)
(-0.0244613 0.484364 0)
(0.0368644 0.544488 0)
(0.114422 0.539233 0)
(0.193071 0.529265 0)
(0.259369 0.612573 0)
(0.284704 0.790583 0)
(0.264191 1.0221 0)
(0.229588 1.19589 0)
(0.169601 1.24776 0)
(0.0764181 1.19017 0)
(-0.0174238 1.08166 0)
(-0.0677183 0.974771 0)
(-0.0829395 0.883611 0)
(-0.0777647 0.824467 0)
(-0.0523019 0.833484 0)
(-0.0217624 0.921001 0)
(0.0178564 0.975717 0)
(0.0403668 0.886981 0)
(0.0589902 0.857282 0)
(0.0618102 0.84433 0)
(0.0434086 0.824215 0)
(0.0142161 0.797783 0)
(-0.0201973 0.748103 0)
(-0.0536519 0.683736 0)
(-0.0826751 0.612604 0)
(-0.096679 0.541067 0)
(-0.110081 0.417758 0)
(-0.119554 0.3351 0)
(-0.105083 0.332198 0)
(-0.0701686 0.381186 0)
(-0.0225782 0.445857 0)
(0.035443 0.494326 0)
(0.0997127 0.476646 0)
(0.167925 0.462369 0)
(0.216932 0.560545 0)
(0.214614 0.768383 0)
(0.195486 1.01411 0)
(0.178318 1.19925 0)
(0.144574 1.28336 0)
(0.0722298 1.25208 0)
(-0.0198526 1.13856 0)
(-0.0889233 0.997373 0)
(-0.107983 0.878699 0)
(-0.0937242 0.806085 0)
(-0.0617528 0.804847 0)
(-0.0262782 0.886789 0)
(0.0253756 0.946951 0)
(0.0542628 0.86951 0)
(0.0730181 0.84895 0)
(0.0714152 0.855139 0)
(0.0477713 0.847082 0)
(0.0126746 0.823642 0)
(-0.0273271 0.772689 0)
(-0.0673252 0.704963 0)
(-0.0963753 0.621586 0)
(-0.104024 0.535417 0)
(-0.102296 0.413417 0)
(-0.105513 0.323734 0)
(-0.0938509 0.310628 0)
(-0.0618848 0.343022 0)
(-0.0163762 0.402359 0)
(0.0381136 0.446163 0)
(0.0948345 0.422709 0)
(0.14132 0.401214 0)
(0.154141 0.528481 0)
(0.137491 0.749016 0)
(0.124762 1.00166 0)
(0.119529 1.19161 0)
(0.106483 1.29965 0)
(0.0637684 1.29839 0)
(-0.0121759 1.19274 0)
(-0.0811673 1.02706 0)
(-0.107267 0.870152 0)
(-0.093505 0.776758 0)
(-0.0639332 0.774497 0)
(-0.0298436 0.846938 0)
(0.0372435 0.905825 0)
(0.0702974 0.850358 0)
(0.0831358 0.846572 0)
(0.0733088 0.869007 0)
(0.0399647 0.871487 0)
(0.00212509 0.844309 0)
(-0.0382167 0.79501 0)
(-0.0744389 0.724031 0)
(-0.106371 0.630108 0)
(-0.106766 0.522516 0)
(-0.0936649 0.40691 0)
(-0.0915802 0.314577 0)
(-0.0813468 0.288993 0)
(-0.0524275 0.311132 0)
(-0.0127967 0.35891 0)
(0.0368291 0.394875 0)
(0.0827536 0.365264 0)
(0.113424 0.372808 0)
(0.103817 0.517505 0)
(0.0791103 0.738495 0)
(0.065486 0.993767 0)
(0.0630382 1.17971 0)
(0.0662612 1.30145 0)
(0.0483502 1.32386 0)
(-0.00271249 1.23569 0)
(-0.0623859 1.05537 0)
(-0.0796212 0.867537 0)
(-0.0762461 0.758936 0)
(-0.0607475 0.753334 0)
(-0.0308211 0.802499 0)
(0.0434175 0.854238 0)
(0.0764485 0.832337 0)
(0.0814456 0.848448 0)
(0.0609692 0.885095 0)
(0.0193003 0.891206 0)
(-0.0120997 0.860274 0)
(-0.0499618 0.815966 0)
(-0.0886397 0.743529 0)
(-0.121585 0.63825 0)
(-0.118522 0.502954 0)
(-0.0963248 0.389492 0)
(-0.0831496 0.303204 0)
(-0.0740376 0.270594 0)
(-0.0482609 0.284219 0)
(-0.0141967 0.320106 0)
(0.0298783 0.35044 0)
(0.0700773 0.325692 0)
(0.089381 0.34895 0)
(0.07789 0.515458 0)
(0.0506534 0.735228 0)
(0.0306769 0.987958 0)
(0.0279367 1.1676 0)
(0.0379083 1.29214 0)
(0.0392906 1.33491 0)
(0.0110265 1.2622 0)
(-0.0317928 1.0788 0)
(-0.0502955 0.860332 0)
(-0.0614509 0.758975 0)
(-0.0559919 0.739973 0)
(-0.0307284 0.759742 0)
(0.0363259 0.79054 0)
(0.063553 0.812683 0)
(0.0566982 0.849937 0)
(0.0256364 0.897776 0)
(-0.0135309 0.907329 0)
(-0.0501672 0.875356 0)
(-0.0854774 0.832636 0)
(-0.10807 0.755994 0)
(-0.120223 0.631076 0)
(-0.116355 0.478985 0)
(-0.0946428 0.359703 0)
(-0.0745454 0.285469 0)
(-0.0681098 0.253893 0)
(-0.0466379 0.262396 0)
(-0.0194777 0.287546 0)
(0.0164493 0.309627 0)
(0.0562869 0.292948 0)
(0.0741637 0.332674 0)
(0.0694067 0.514798 0)
(0.0465106 0.744506 0)
(0.0227068 0.98677 0)
(0.0212117 1.15667 0)
(0.0329613 1.2772 0)
(0.0472368 1.32951 0)
(0.0400009 1.27259 0)
(0.01031 1.09659 0)
(-0.0250003 0.870019 0)
(-0.0477209 0.767706 0)
(-0.0510864 0.728372 0)
(-0.0300592 0.716779 0)
(0.0236348 0.738939 0)
(0.03497 0.795602 0)
(0.0126775 0.857309 0)
(-0.0279343 0.913238 0)
(-0.0661531 0.920923 0)
(-0.0992271 0.883308 0)
(-0.122162 0.82905 0)
(-0.125914 0.745194 0)
(-0.116137 0.607335 0)
(-0.107447 0.452116 0)
(-0.0840899 0.332258 0)
(-0.0643399 0.268309 0)
(-0.0608116 0.240275 0)
(-0.0442571 0.245196 0)
(-0.0228423 0.264228 0)
(0.00311737 0.276502 0)
(0.04239 0.266811 0)
(0.0592973 0.320533 0)
(0.0605871 0.511216 0)
(0.0480368 0.754802 0)
(0.0307882 0.982944 0)
(0.0338797 1.14523 0)
(0.051682 1.25718 0)
(0.0759033 1.31344 0)
(0.0839345 1.27458 0)
(0.0630173 1.12331 0)
(0.013028 0.904591 0)
(-0.0255421 0.780515 0)
(-0.0374912 0.722122 0)
(-0.0235503 0.681923 0)
(0.00593322 0.704407 0)
(-0.00358632 0.805249 0)
(-0.0496766 0.879892 0)
(-0.0867343 0.931696 0)
(-0.116248 0.932401 0)
(-0.144357 0.89632 0)
(-0.156976 0.822841 0)
(-0.140249 0.714314 0)
(-0.105848 0.567973 0)
(-0.0878851 0.42171 0)
(-0.0826339 0.302499 0)
(-0.0644774 0.256855 0)
(-0.053215 0.229892 0)
(-0.0408716 0.230244 0)
(-0.0240907 0.248072 0)
(-0.00139019 0.25403 0)
(0.0308091 0.246936 0)
(0.0394077 0.311155 0)
(0.0427698 0.501466 0)
(0.0439351 0.757795 0)
(0.041705 0.973842 0)
(0.0565805 1.12636 0)
(0.0823904 1.22872 0)
(0.113355 1.28769 0)
(0.128563 1.27059 0)
(0.111941 1.14696 0)
(0.0541169 0.948645 0)
(0.00326197 0.804507 0)
(-0.0215539 0.722117 0)
(-0.0167896 0.656162 0)
(-0.0199093 0.695242 0)
(-0.0440097 0.830391 0)
(-0.101068 0.901296 0)
(-0.135044 0.949526 0)
(-0.15758 0.94295 0)
(-0.16716 0.890687 0)
(-0.158852 0.793628 0)
(-0.128001 0.670047 0)
(-0.086831 0.523897 0)
(-0.0641888 0.390141 0)
(-0.0706444 0.288404 0)
(-0.0720323 0.233304 0)
(-0.0531769 0.219807 0)
(-0.0379204 0.216617 0)
(-0.0217195 0.234688 0)
(0.00823582 0.235543 0)
(0.0284353 0.235207 0)
(0.0245883 0.305593 0)
(0.021517 0.489913 0)
(0.0338674 0.745514 0)
(0.0531401 0.95046 0)
(0.0821868 1.09621 0)
(0.113876 1.19555 0)
(0.145358 1.25882 0)
(0.163918 1.26362 0)
(0.151863 1.17315 0)
(0.0937958 0.999713 0)
(0.0325955 0.843028 0)
(-0.0064932 0.733722 0)
(-0.00891193 0.638071 0)
(-0.0362801 0.729087 0)
(-0.0812734 0.870716 0)
(-0.132434 0.929318 0)
(-0.152155 0.961502 0)
(-0.157695 0.939924 0)
(-0.151468 0.879317 0)
(-0.135386 0.767288 0)
(-0.102344 0.630887 0)
(-0.065764 0.489989 0)
(-0.0488472 0.374316 0)
(-0.05401 0.282172 0)
(-0.0662736 0.224783 0)
(-0.0564968 0.198111 0)
(-0.0374694 0.2009 0)
(-0.0141221 0.215444 0)
(0.0166629 0.21502 0)
(0.026987 0.22708 0)
(0.0179523 0.310001 0)
(0.00643933 0.481267 0)
(0.0292545 0.715562 0)
(0.0705165 0.914672 0)
(0.108097 1.05975 0)
(0.140673 1.16165 0)
(0.167963 1.23158 0)
(0.185194 1.25622 0)
(0.175409 1.19885 0)
(0.121103 1.05799 0)
(0.0564973 0.892657 0)
(0.011792 0.753927 0)
(-0.00182109 0.632313 0)
(-0.0498537 0.788123 0)
(-0.0970958 0.911713 0)
(-0.130539 0.951475 0)
(-0.140799 0.969028 0)
(-0.137196 0.935073 0)
(-0.120232 0.863689 0)
(-0.102735 0.742377 0)
(-0.0754524 0.59601 0)
(-0.0487782 0.464724 0)
(-0.0389976 0.365987 0)
(-0.0442041 0.282295 0)
(-0.0542924 0.22054 0)
(-0.0525108 0.183131 0)
(-0.036184 0.180259 0)
(-0.00826514 0.190469 0)
(0.0159793 0.196916 0)
(0.0268882 0.221901 0)
(0.0180911 0.318615 0)
(0.00273189 0.469356 0)
(0.0294126 0.668714 0)
(0.082515 0.86802 0)
(0.127273 1.01981 0)
(0.15957 1.13067 0)
(0.181846 1.20936 0)
(0.194438 1.24994 0)
(0.185088 1.22266 0)
(0.134488 1.11165 0)
(0.0669751 0.947653 0)
(0.0251134 0.78067 0)
(0.00157419 0.64066 0)
(-0.0505478 0.861579 0)
(-0.0899436 0.945785 0)