/*--------------------------------*- C++ -*----------------------------------*\
| =========                 |                                                 |
| \\      /  F ield         | OpenFOAM: The Open Source CFD Toolbox           |
|  \\    /   O peration     | Version:  v1606+                                |
|   \\  /    A nd           | Web:      www.OpenFOAM.com                      |
|    \\/     M anipulation  |                                                 |
\*---------------------------------------------------------------------------*/
FoamFile
{
    version     2.0;
    format      ascii;
    class       volScalarField;
    location    "1.4";
    object      p;
}
// * * * * * * * * * * * * * * * * * * * * * * * * * * * * * * * * * * * * * //

dimensions      [0 2 -2 0 0 0 0];

internalField   nonuniform List<scalar> 
3072
(
-0.0374414
-0.0373697
-0.0372
-0.0369403
-0.0366284
-0.0362449
-0.0357256
-0.0351117
-0.0344268
-0.0336952
-0.0329371
-0.0321722
-0.0343617
-0.034285
-0.0343025
-0.03434
-0.0342376
-0.0339427
-0.0335207
-0.0329965
-0.0322962
-0.0314967
-0.0306403
-0.0297429
-0.0328649
-0.0328968
-0.033131
-0.03338
-0.0334342
-0.0332283
-0.0327684
-0.0319749
-0.0311138
-0.030179
-0.0291626
-0.028011
-0.0306887
-0.0308286
-0.0312347
-0.0315349
-0.0315275
-0.0311634
-0.0304908
-0.029705
-0.0288092
-0.0278266
-0.0266431
-0.0251631
-0.0282947
-0.0284915
-0.0288532
-0.0290597
-0.0289255
-0.0284321
-0.027662
-0.0267741
-0.0258309
-0.0247035
-0.023231
-0.0213266
-0.0256026
-0.0255718
-0.0257989
-0.0258518
-0.025567
-0.0249079
-0.0240233
-0.0230294
-0.0219426
-0.0205719
-0.0187491
-0.0164745
-0.022792
-0.0224098
-0.02234
-0.0222302
-0.0218295
-0.0210373
-0.0199518
-0.0187153
-0.017334
-0.0156218
-0.0134148
-0.0109279
-0.0199995
-0.0190994
-0.0188131
-0.0186824
-0.0182768
-0.0173551
-0.0159368
-0.0142126
-0.0123176
-0.0102165
-0.00782544
-0.00534365
-0.0172309
-0.0158325
-0.0156039
-0.0157273
-0.0154426
-0.0143457
-0.0124988
-0.0101629
-0.00761215
-0.00502159
-0.0025211
-0.000236983
-0.0141401
-0.0125097
-0.0126575
-0.0132853
-0.0132472
-0.0120496
-0.00984927
-0.00705386
-0.00399273
-0.000923739
0.00185316
0.00404756
-0.0102489
-0.00864926
-0.00954262
-0.0109825
-0.0113621
-0.0101935
-0.00780768
-0.00477467
-0.00145389
0.00187483
0.00487273
0.00718052
-0.0056756
-0.00450635
-0.00626673
-0.00872178
-0.00961584
-0.00861503
-0.0062405
-0.00316497
0.000256007
0.00369543
0.00675766
0.00910335
-0.0314264
-0.0307408
-0.0301608
-0.0297187
-0.0294465
-0.0293823
-0.0295356
-0.0297742
-0.0298667
-0.0296635
-0.0292123
-0.0287032
-0.0288067
-0.0278596
-0.0270262
-0.0264778
-0.0263341
-0.0266537
-0.0273319
-0.028101
-0.0285228
-0.0282777
-0.0273718
-0.026352
-0.0266806
-0.0252347
-0.0239219
-0.0230662
-0.022827
-0.0232052
-0.0241373
-0.0252839
-0.0260448
-0.0258705
-0.024899
-0.0238218
-0.0233733
-0.0214928
-0.0199132
-0.0188983
-0.0185183
-0.0187275
-0.0194763
-0.02053
-0.0214247
-0.0216416
-0.0212311
-0.0205972
-0.0191318
-0.0171248
-0.0156741
-0.0148001
-0.0144091
-0.0144329
-0.0147773
-0.0153842
-0.0160636
-0.0166162
-0.0169723
-0.0170339
-0.0141225
-0.0122827
-0.0111681
-0.0105827
-0.0103017
-0.0102055
-0.0102813
-0.0105326
-0.0108715
-0.011241
-0.0119979
-0.013129
-0.00862921
-0.0070891
-0.00637654
-0.0061272
-0.00604602
-0.00600639
-0.00596301
-0.00595241
-0.00603347
-0.00615544
-0.00668111
-0.00865789
-0.00319731
-0.00196396
-0.00165292
-0.00174843
-0.00186986
-0.00189219
-0.00179943
-0.0016378
-0.00147392
-0.00136157
-0.00157597
-0.00335017
0.00156956
0.00255783
0.00260988
0.0022362
0.00191779
0.00182202
0.00195627
0.00229832
0.00280331
0.00335225
0.00377861
0.00297056
0.00548696
0.00613611
0.00608077
0.00562175
0.00518286
0.00501245
0.00517225
0.00567266
0.00653281
0.00770377
0.00911495
0.00975147
0.00854261
0.00896148
0.00872667
0.00824236
0.00780989
0.00761662
0.00777562
0.00836395
0.00947008
0.011176
0.013541
0.0155585
0.0105322
0.0110215
0.0107865
0.0102351
0.00976428
0.00956862
0.00971111
0.0102728
0.0113834
0.0132012
0.0161041
0.018923
-0.0375269
-0.0373504
-0.0371119
-0.0368397
-0.0365451
-0.0361743
-0.0356688
-0.0350554
-0.0343734
-0.0336441
-0.0328872
-0.0321223
-0.0344106
-0.0343025
-0.0343162
-0.0343441
-0.0342313
-0.0339349
-0.0335073
-0.0329695
-0.0322623
-0.0314585
-0.0305985
-0.0296956
-0.0329101
-0.0329218
-0.0331508
-0.0333924
-0.0334353
-0.0332174
-0.0327383
-0.0319423
-0.0310788
-0.0301422
-0.0291211
-0.0279583
-0.0307066
-0.0308454
-0.0312532
-0.0315447
-0.0315213
-0.0311389
-0.0304538
-0.0296722
-0.0287866
-0.0277974
-0.0266026
-0.0251047
-0.0283077
-0.0284964
-0.028869
-0.0290644
-0.0289129
-0.0284018
-0.0276276
-0.0267402
-0.0257926
-0.0246651
-0.0231786
-0.0212522
-0.0256284
-0.025611
-0.0258181
-0.0258575
-0.0255572
-0.0248877
-0.0239942
-0.0230002
-0.0219097
-0.0205259
-0.0186793
-0.0163865
-0.0228153
-0.0224367
-0.022356
-0.0222315
-0.0218156
-0.0210128
-0.0199218
-0.0186845
-0.0172967
-0.0155639
-0.0133347
-0.0108376
-0.0200144
-0.0191158
-0.0188177
-0.0186712
-0.0182512
-0.0173202
-0.0158968
-0.0141701
-0.0122699
-0.0101552
-0.00774807
-0.00526418
-0.0172313
-0.0158336
-0.015591
-0.0156981
-0.0154006
-0.014296
-0.0124443
-0.0101049
-0.00755155
-0.00495996
-0.00246485
-0.000200941
-0.0141252
-0.0124938
-0.0126266
-0.0132391
-0.0131901
-0.0119863
-0.00978242
-0.00698467
-0.00392409
-0.000862763
0.00189513
0.00406101
-0.010219
-0.00861928
-0.00949831
-0.0109245
-0.0112946
-0.0101205
-0.00773312
-0.00470094
-0.00138528
0.00192981
0.00490272
0.00717659
-0.00562695
-0.00446248
-0.00621286
-0.00865661
-0.00954384
-0.00853752
-0.00616403
-0.00309226
0.000319892
0.00374101
0.00677508
0.00908692
-0.0313761
-0.0306912
-0.0301124
-0.0296721
-0.0294018
-0.0293398
-0.0294974
-0.029742
-0.0298391
-0.0296367
-0.0291849
-0.0286758
-0.0287519
-0.0277976
-0.0269621
-0.0264162
-0.0262754
-0.0266003
-0.027288
-0.0280667
-0.0284922
-0.0282465
-0.0273408
-0.0263233
-0.0266128
-0.0251549
-0.0238421
-0.0229952
-0.0227638
-0.0231468
-0.0240836
-0.0252325
-0.0259929
-0.0258224
-0.0248526
-0.0237831
-0.0232958
-0.0214105
-0.0198406
-0.0188398
-0.018469
-0.018676
-0.0194238
-0.0204688
-0.0213556
-0.0215711
-0.0211738
-0.0205538
-0.0190476
-0.0170535
-0.0156236
-0.0147661
-0.0143847
-0.0144131
-0.0147447
-0.015336
-0.0160009
-0.0165467
-0.0169128
-0.0169897
-0.0140401
-0.0122258
-0.0111343
-0.0105625
-0.0102866
-0.0101882
-0.0102542
-0.0104931
-0.0108208
-0.0111801
-0.0119329
-0.0130801
-0.00855841
-0.00705081
-0.00635946
-0.00611709
-0.00603404
-0.00598737
-0.00593504
-0.00591442
-0.0059858
-0.00610211
-0.00661982
-0.00860162
-0.00314888
-0.00195233
-0.00166004
-0.00175586
-0.00186892
-0.00187961
-0.00177486
-0.00160207
-0.00142722
-0.00130689
-0.00151455
-0.00328397
0.00158328
0.00253887
0.00257445
0.00220551
0.00190085
0.00182024
0.00196906
0.00232496
0.00284369
0.00340688
0.00384209
0.00304284
0.00546909
0.00608918
0.00602072
0.00556885
0.00514735
0.00499535
0.00517207
0.00568823
0.00656343
0.00774797
0.00917192
0.009822
0.00850382
0.00889576
0.00864932
0.00817135
0.00775646
0.0075828
0.00776006
0.00836533
0.00948718
0.0112068
0.0135845
0.0156133
0.0104826
0.0109463
0.0107001
0.0101536
0.00969725
0.00951825
0.00967785
0.0102562
0.0113818
0.0132103
0.0161196
0.0189333
-0.0376096
-0.0375212
-0.0373389
-0.0370743
-0.0367632
-0.0363814
-0.0358621
-0.0352478
-0.0345624
-0.03383
-0.0330708
-0.0323045
-0.0345199
-0.0344371
-0.0344528
-0.0344877
-0.0343827
-0.0340855
-0.0336613
-0.033136
-0.0324356
-0.0316348
-0.0307766
-0.0298774
-0.0330253
-0.0330531
-0.0332852
-0.0335322
-0.033584
-0.0333756
-0.0329134
-0.0321214
-0.0312585
-0.0303219
-0.0293034
-0.0281502
-0.030845
-0.0309845
-0.0313901
-0.0316893
-0.0316808
-0.0313168
-0.0306457
-0.0298564
-0.0289577
-0.0279737
-0.026789
-0.0253087
-0.0284507
-0.0286464
-0.029008
-0.0292132
-0.0290784
-0.0285867
-0.0278147
-0.0269263
-0.0259829
-0.0248545
-0.023382
-0.0214788
-0.0257612
-0.0257306
-0.0259533
-0.0260027
-0.0257159
-0.025055
-0.0241732
-0.0231805
-0.0220944
-0.0207245
-0.0189033
-0.0166302
-0.0229531
-0.0225687
-0.0224945
-0.0223812
-0.0219788
-0.0211865
-0.0201023
-0.0188662
-0.0174853
-0.0157747
-0.013569
-0.0110832
-0.0201653
-0.0192617
-0.0189718
-0.018839
-0.0184327
-0.0175111
-0.0160927
-0.0143674
-0.0124709
-0.0103699
-0.00798046
-0.00549771
-0.0174013
-0.016
-0.0157697
-0.0158917
-0.0156058
-0.0145085
-0.0126619
-0.0103252
-0.00777228
-0.00517857
-0.00267449
-0.000384463
-0.0143128
-0.012681
-0.0128284
-0.0134539
-0.0134136
-0.012216
-0.0100174
-0.00722258
-0.00415972
-0.0010865
0.00169705
0.00389984
-0.0104183
-0.00882065
-0.00971541
-0.0111527
-0.0115295
-0.0103615
-0.00797898
-0.00494763
-0.00162517
0.00170839
0.00471386
0.00703134
-0.00583307
-0.00467395
-0.00644021
-0.00889417
-0.00978636
-0.00878612
-0.00641526
-0.0033413
8.20918e-05
0.00352754
0.00659844
0.00895433
-0.0315573
-0.0308701
-0.0302887
-0.0298453
-0.0295723
-0.0295082
-0.0296621
-0.0299014
-0.0299946
-0.0297918
-0.0293406
-0.0288312
-0.0289398
-0.0279916
-0.0271567
-0.0266065
-0.026462
-0.0267822
-0.0274615
-0.0282319
-0.0286552
-0.0284109
-0.0275035
-0.0264817
-0.0268192
-0.0253727
-0.0240575
-0.0231985
-0.0229574
-0.023336
-0.0242707
-0.0254214
-0.0261857
-0.0260107
-0.025036
-0.0239543
-0.0235188
-0.0216359
-0.0200516
-0.0190321
-0.0186496
-0.0188597
-0.0196109
-0.0206696
-0.0215682
-0.0217842
-0.0213683
-0.020729
-0.0192828
-0.0172702
-0.0158129
-0.0149341
-0.0145403
-0.0145627
-0.0149092
-0.0155196
-0.0162031
-0.0167572
-0.0171089
-0.0171647
-0.0142749
-0.0124277
-0.0113067
-0.0107174
-0.010434
-0.0103365
-0.0104123
-0.0106644
-0.0110049
-0.0113781
-0.0121371
-0.0132608
-0.00877936
-0.00723107
-0.00651296
-0.00626114
-0.00617864
-0.00613802
-0.00609364
-0.00608223
-0.00616316
-0.00628647
-0.0068171
-0.00879041
-0.00334385
-0.00210156
-0.00178531
-0.00187938
-0.00200045
-0.00202232
-0.0019288
-0.00176639
-0.00160196
-0.00148942
-0.00170665
-0.00348171
0.00142721
0.00242395
0.00248189
0.00210947
0.00179074
0.00169498
0.00182967
0.00217222
0.00267753
0.00322621
0.00365067
0.00284139
0.00534743
0.00600481
0.00595555
0.00549891
0.00505996
0.00488924
0.00504918
0.00554993
0.00641045
0.00758192
0.00899183
0.00962735
0.00840369
0.00883175
0.00860346
0.00812236
0.00769093
0.00749787
0.00765703
0.00824572
0.00935253
0.0110596
0.0134266
0.0154462
0.0103936
0.0108923
0.0106645
0.0101174
0.00964874
0.0094543
0.00959771
0.0101602
0.0112723
0.0130924
0.0160007
0.0188314
-0.0374846
-0.0373077
-0.0370692
-0.0367962
-0.0365002
-0.0361276
-0.0356207
-0.0350058
-0.0343221
-0.033591
-0.0328324
-0.0320657
-0.0343685
-0.0342602
-0.0342723
-0.0342984
-0.0341838
-0.0338858
-0.0334563
-0.0329171
-0.0322088
-0.0314042
-0.0305433
-0.0296393
-0.0328697
-0.0328802
-0.0331068
-0.0333459
-0.0333867
-0.0331669
-0.0326864
-0.0318882
-0.0310235
-0.0300869
-0.0290655
-0.0279021
-0.0306677
-0.0308046
-0.0312092
-0.031498
-0.0314722
-0.0310878
-0.0304008
-0.0296172
-0.0287274
-0.0277409
-0.0265464
-0.0250478
-0.0282713
-0.0284588
-0.0288258
-0.0290186
-0.0288649
-0.0283518
-0.0275764
-0.0266886
-0.0257437
-0.024612
-0.0231231
-0.0211944
-0.0255935
-0.0255719
-0.0257781
-0.0258142
-0.0255113
-0.02484
-0.0239448
-0.0229497
-0.0218587
-0.0204725
-0.0186234
-0.0163266
-0.0227847
-0.0224026
-0.0223189
-0.0221912
-0.021773
-0.0209685
-0.0198761
-0.018637
-0.0172468
-0.015511
-0.0132783
-0.0107752
-0.0199894
-0.0190866
-0.0187849
-0.0186353
-0.0182138
-0.0172819
-0.0158581
-0.0141293
-0.0122248
-0.0101042
-0.00769004
-0.00520027
-0.0172128
-0.0158102
-0.0155632
-0.0156667
-0.0153679
-0.0142644
-0.0124136
-0.0100731
-0.00751516
-0.0049155
-0.00241016
-0.000135771
-0.0141136
-0.0124765
-0.0126029
-0.0132095
-0.0131588
-0.0119577
-0.00975748
-0.00696073
-0.00389675
-0.000827455
0.00194236
0.00412165
-0.0102118
-0.00860588
-0.00947623
-0.0108952
-0.0112635
-0.0100938
-0.0077125
-0.00468304
-0.00136491
0.00195744
0.00494158
0.0072294
-0.00561903
-0.00444994
-0.0061923
-0.00863026
-0.00951551
-0.00851441
-0.00614767
-0.00307914
0.000335276
0.00376347
0.00680799
0.00913238
-0.0313176
-0.0306305
-0.0300494
-0.0296068
-0.0293342
-0.0292697
-0.0294246
-0.0296666
-0.0297619
-0.0295586
-0.0291066
-0.0285974
-0.0286943
-0.0277381
-0.0269003
-0.0263516
-0.0262078
-0.0265291
-0.027213
-0.0279885
-0.0284123
-0.0281662
-0.0272607
-0.0262435
-0.0265556
-0.025096
-0.0237801
-0.0229294
-0.0226942
-0.0230733
-0.0240062
-0.0251517
-0.0259104
-0.0257399
-0.0247704
-0.0237012
-0.0232375
-0.0213492
-0.0197751
-0.0187695
-0.0183944
-0.0185977
-0.0193425
-0.020385
-0.0212704
-0.0214858
-0.0210891
-0.0204695
-0.0189864
-0.0169873
-0.0155517
-0.014689
-0.0143035
-0.0143288
-0.0146583
-0.0152482
-0.0159123
-0.0164577
-0.0168244
-0.0169023
-0.0139748
-0.0121538
-0.0110561
-0.0104796
-0.0102003
-0.0100995
-0.0101639
-0.0104018
-0.0107286
-0.0110866
-0.0118391
-0.0129889
-0.00848884
-0.0069736
-0.00627627
-0.00603002
-0.00594457
-0.00589631
-0.00584266
-0.00582079
-0.00589088
-0.00600553
-0.00652165
-0.00850567
-0.00307619
-0.0018711
-0.00157264
-0.00166505
-0.00177636
-0.00178591
-0.00167994
-0.00150554
-0.0013291
-0.00120708
-0.00141247
-0.00318178
0.00165737
0.00262223
0.00266496
0.00229981
0.00199686
0.00191746
0.00206767
0.00242531
0.00294619
0.0035115
0.00394972
0.00315253
0.00554184
0.00617246
0.00611223
0.0056653
0.00524623
0.00509595
0.00527447
0.00579268
0.00667043
0.00785821
0.00928599
0.00993948
0.00857123
0.00897634
0.00874006
0.00826832
0.00785701
0.00768637
0.00786642
0.00847414
0.00959873
0.0113219
0.0137042
0.0157377
0.0105422
0.0110212
0.0107886
0.0102502
0.00979846
0.00962443
0.00978838
0.0103697
0.0114982
0.0133305
0.0162447
0.0190626
0.00162206
-0.000633648
-0.00364773
-0.00695349
-0.00826364
-0.0073281
-0.00503297
-0.00201266
0.00142111
0.00489323
0.0079456
0.0102368
0.00425392
0.000123325
-0.00290779
-0.00561981
-0.00672588
-0.00595395
-0.00393042
-0.00109336
0.00225015
0.00565025
0.00861019
0.0108057
0.00557819
0.00137364
-0.00149294
-0.0037441
-0.0047931
-0.00451793
-0.00287046
-0.00024036
0.00294373
0.00615622
0.00890928
0.0109342
0.00636301
0.0030501
0.00028125
-0.00216313
-0.00343504
-0.00325953
-0.00179688
0.000675514
0.00365591
0.00657779
0.00902356
0.0108118
0.0116407
0.0122161
0.0121494
0.0117187
0.0112421
0.0109701
0.0110227
0.0114396
0.0122588
0.0134047
0.0144327
0.0124065
0.0121573
0.0127679
0.0128365
0.0125935
0.0122564
0.0119968
0.0119269
0.012098
0.0124706
0.0128283
0.012513
0.0105208
0.0122074
0.0128471
0.0130298
0.0129449
0.0127528
0.0125737
0.0124769
0.0124707
0.0124889
0.0123574
0.0116278
0.00997663
0.0119747
0.0126279
0.0129058
0.0129471
0.01287
0.012765
0.0126739
0.0125751
0.0123894
0.0119793
0.0110768
0.00942805
0.00166942
-0.000575149
-0.00358661
-0.00688361
-0.00818233
-0.00725078
-0.00495957
-0.00194366
0.00147967
0.00493078
0.00795337
0.0102123
0.00428855
0.000182893
-0.00284865
-0.00555296
-0.00664597
-0.00588657
-0.00386557
-0.00103026
0.00230286
0.0056808
0.00861128
0.0107777
0.00558447
0.00140762
-0.00145106
-0.00369469
-0.00472309
-0.00446552
-0.00281465
-0.000184266
0.00298856
0.00617791
0.00890257
0.0109028
0.0063417
0.00305055
0.00029358
-0.00214701
-0.00343116
-0.0032241
-0.00174836
0.00072309
0.00369017
0.00658834
0.00900738
0.0107737
0.011587
0.012139
0.0120589
0.0116313
0.0111682
0.0109084
0.0109733
0.0114041
0.0122357
0.0133886
0.0144153
0.0123532
0.0121056
0.0126962
0.0127485
0.0125032
0.0121756
0.0119251
0.011865
0.0120472
0.0124281
0.0127878
0.0124611
0.0104372
0.0121598
0.0127869
0.0129517
0.0128564
0.0126668
0.0124911
0.0124036
0.0124082
0.0124324
0.0122994
0.0115559
0.00987998
0.0119234
0.0125748
0.0128465
0.0128665
0.0127713
0.0126623
0.0125875
0.0125015
0.012322
0.0119097
0.0109945
0.00932361
0.00147829
-0.000791532
-0.00381949
-0.00712855
-0.00843566
-0.00750346
-0.00521115
-0.00219114
0.00124593
0.00472495
0.00778703
0.0100893
0.00412183
-2.65535e-05
-0.00308036
-0.00579687
-0.00689683
-0.00613068
-0.00410907
-0.00127106
0.00207624
0.00548355
0.00845357
0.0106603
0.00543516
0.00121105
-0.00168137
-0.00393934
-0.0049746
-0.0046972
-0.00304636
-0.000413679
0.00277437
0.00599388
0.00875672
0.0107925
0.00619887
0.00286293
6.26741e-05
-0.00238174
-0.00363298
-0.00343223
-0.00196221
0.000510749
0.00349363
0.00642179
0.00887649
0.0106744
0.0115039
0.0120884
0.0120288
0.0116029
0.0111295
0.0108598
0.0109145
0.0113334
0.0121556
0.0133058
0.0143487
0.0123565
0.0120228
0.0126424
0.012718
0.0124801
0.0121467
0.0118903
0.0118236
0.0119983
0.0123756
0.0127406
0.0124445
0.0104932
0.0120759
0.0127242
0.0129139
0.0128344
0.0126466
0.0124715
0.0123788
0.0123772
0.0124017
0.01228
0.0115697
0.00995218
0.0118465
0.0125079
0.0127928
0.01284
0.012768
0.0126679
0.0125818
0.0124887
0.0123104
0.0119106
0.0110237
0.00939477
0.00167588
-0.000552121
-0.00356222
-0.00686151
-0.00816286
-0.00723338
-0.00494711
-0.00193363
0.0014922
0.00495032
0.00798284
0.0102529
0.00431102
0.000216029
-0.00282337
-0.00553244
-0.00662927
-0.00587059
-0.0038536
-0.0010202
0.00231558
0.00570049
0.00864023
0.0108159
0.00559277
0.00142465
-0.00143382
-0.00367598
-0.00470813
-0.00444827
-0.00280063
-0.000171462
0.00300464
0.00620159
0.00893573
0.0109435
0.00632514
0.00304513
0.000297753
-0.00213207
-0.00340572
-0.00320337
-0.00173087
0.000740353
0.00371169
0.00661807
0.00904718
0.010822
0.0116397
0.0122069
0.0121439
0.0117271
0.0112694
0.0110167
0.0110879
0.0115223
0.012357
0.0135139
0.0145435
0.0124822
0.0121528
0.0127569
0.0128288
0.012598
0.0122782
0.0120373
0.0119843
0.0121698
0.0125534
0.0129172
0.0125929
0.0105678
0.0122047
0.0128391
0.0130244
0.012949
0.0127712
0.0126084
0.012527
0.0125336
0.0125602
0.0124308
0.0116907
0.0100172
0.0119762
0.012626
0.0129059
0.0129539
0.0128879
0.012796
0.0127176
0.0126295
0.0124507
0.012042
0.0111327
0.00947164
0.0126512
0.0127175
0.0126761
0.0125906
0.0124725
0.0122761
0.011899
0.0111751
0.00994251
0.00792252
0.00538961
0.00307024
0.0124152
0.0125409
0.0125571
0.0124962
0.0123602
0.0121093
0.0116634
0.010909
0.00974363
0.00805895
0.00595643
0.00430583
0.0121337
0.0123025
0.0123543
0.0123144
0.01218
0.0119125
0.0114437
0.0106979
0.00963174
0.00824764
0.00665034
0.00514614
0.0118364
0.0120376
0.0121166
0.0120932
0.0119649
0.0117009
0.0112446
0.0105372
0.00956256
0.00838155
0.00716446
0.00556402
0.000106298
-0.00179686
-0.00239176
-0.00161365
0.000226453
0.00278713
0.00546959
0.00779074
0.00962016
0.0109465
0.0118305
0.0123599
0.00124077
-0.000546587
-0.000954023
-0.000286949
0.00133362
0.00353637
0.00587886
0.00785831
0.00946762
0.0106833
0.0115358
0.0120841
0.00192566
0.000617293
0.000469752
0.00105991
0.00241639
0.00423206
0.00616038
0.007857
0.00927328
0.0103864
0.0112037
0.0117611
0.00166287
0.00157479
0.00172331
0.00219187
0.00327568
0.00474733
0.00634486
0.00781209
0.00907422
0.0101006
0.0108831
0.011441
0.012624
0.0127027
0.0126734
0.0125912
0.0124714
0.0122745
0.0119039
0.0111966
0.00999063
0.00800871
0.00552375
0.00326071
0.0123953
0.0125308
0.0125518
0.0124933
0.0123589
0.0121113
0.0116738
0.0109351
0.00979341
0.00814139
0.00608051
0.00447662
0.0121054
0.0122869
0.0123457
0.0123097
0.0121787
0.0119164
0.0114569
0.0107263
0.00968152
0.00832539
0.00676194
0.00529883
0.0118066
0.0120187
0.0121052
0.0120873
0.0119642
0.0117064
0.0112598
0.0105667
0.00961142
0.00845417
0.00726405
0.00570146
0.000364029
-0.00157718
-0.00217806
-0.00139244
0.000450699
0.00300439
0.00566894
0.00796723
0.0097758
0.0110851
0.0119566
0.0124783
0.00145584
-0.000334484
-0.000735232
-7.02336e-05
0.00154939
0.00374385
0.00607156
0.00803054
0.00962182
0.0108225
0.0116638
0.0122049
0.00212295
0.000822939
0.000681073
0.00127183
0.00262473
0.00443147
0.00634636
0.00802601
0.00942688
0.0105269
0.011334
0.0118846
0.00186109
0.001777
0.00193007
0.00239889
0.00347761
0.00494033
0.0065259
0.00797937
0.00922783
0.0102425
0.0110157
0.011567
0.0127398
0.0128206
0.0127952
0.0127176
0.0126012
0.012405
0.0120303
0.0113117
0.010089
0.00808481
0.00557362
0.00328147
0.012513
0.0126494
0.0126727
0.0126172
0.0124848
0.0122367
0.0117948
0.0110466
0.00989098
0.00822072
0.00613915
0.00450638
0.0122256
0.0124066
0.0124664
0.0124319
0.0123018
0.0120384
0.0115746
0.0108356
0.0097787
0.00840718
0.00682515
0.00533851
0.0119289
0.0121394
0.012226
0.0122085
0.0120854
0.0118261
0.0113752
0.0106744
0.00970826
0.00853795
0.0073325
0.00574822
0.00035613
-0.00160301
-0.00221439
-0.001451
0.000386241
0.00294732
0.00562581
0.00793965
0.00976045
0.0110783
0.0119543
0.0124764
0.00145174
-0.000361398
-0.000781436
-0.000123933
0.00149283
0.00369532
0.00603336
0.0080057
0.00960694
0.0108145
0.0116594
0.0122005
0.00211966
0.000796874
0.000639701
0.00122461
0.002577
0.00439052
0.00631369
0.008003
0.00941167
0.0105172
0.0113271
0.0118773
0.00185015
0.00175276
0.00189467
0.00235898
0.00343777
0.00490538
0.0064972
0.00795676
0.00921188
0.010231
0.0110062
0.0115572
0.0127338
0.0128065
0.0127714
0.0126835
0.0125577
0.012354
0.0119751
0.0112572
0.0100393
0.00804564
0.00554826
0.00326962
0.012505
0.0126345
0.0126494
0.012585
0.0124442
0.0121898
0.0117444
0.0109966
0.00984508
0.00818283
0.00611126
0.00448807
0.012215
0.0123902
0.012443
0.0124009
0.0122636
0.0119946
0.0115277
0.0107891
0.00973574
0.00837052
0.00679614
0.00531563
0.0119162
0.0121219
0.0122023
0.0121783
0.0120488
0.0117845
0.011331
0.0106305
0.00966766
0.00850239
0.00730289
0.00572314
0.000357462
-0.00159539
-0.00220195
-0.00141244
0.000431716
0.00298129
0.0056385
0.00792803
0.00972991
0.0110344
0.0118908
0.0123965
0.00145012
-0.000350836
-0.000754109
-9.04129e-05
0.0015276
0.00371628
0.00603753
0.00798745
0.00957107
0.0107655
0.0115963
0.0121213
0.0021165
0.000806847
0.000663324
0.00125069
0.00259963
0.0044001
0.00630802
0.00797934
0.00937232
0.010464
0.0112611
0.0118022
0.00184709
0.00175813
0.0019098
0.00237526
0.00344903
0.00490549
0.00648414
0.00792988
0.00917047
0.0101767
0.0109406
0.0114834
0.0115549
0.0117769
0.0118763
0.0118677
0.0117492
0.0114979
0.0110706
0.0104215
0.00954892
0.00852763
0.00763045
0.00674424
0.0113015
0.011537
0.011652
0.0116566
0.01155
0.0113168
0.0109273
0.0103517
0.00960096
0.00877061
0.00806138
0.00751916
0.0110806
0.0113252
0.011452
0.0114684
0.0113745
0.0111611
0.010811
0.010311
0.00968377
0.00901314
0.00844375
0.00806967
0.0108919
0.0111426
0.0112786
0.0113054
0.011224
0.01103
0.0107155
0.010279
0.00974891
0.00919444
0.00873024
0.00844514
0.0107331
0.010988
0.0111311
0.0111671
0.0110975
0.0109214
0.0106375
0.0102514
0.00979277
0.00932483
0.00894016
0.00871324
0.0106016
0.0108592
0.0110081
0.0110519
0.010993
0.0108329
0.010575
0.0102298
0.00982448
0.00942221
0.00909654
0.0089094
0.0104946
0.0107542
0.0109077
0.0109581
0.0109085
0.0107622
0.0105262
0.0102151
0.00984763
0.00949523
0.0092136
0.00905452
0.0104101
0.0106711
0.0108282
0.0108841
0.0108422
0.0107075
0.010489
0.0102039
0.00986739
0.00954965
0.00930064
0.00916165
0.0103458
0.010608
0.0107681
0.0108283
0.0107925
0.0106669
0.0104619
0.0101949
0.00988588
0.00958889
0.00936365
0.00923895
0.0103002
0.0105635
0.0107258
0.0107893
0.0107581
0.0106391
0.0104438
0.01019
0.0099024
0.00961435
0.00940672
0.00929184
0.0102712
0.0105361
0.0107003
0.0107662
0.010738
0.0106233
0.010434
0.0101889
0.00991863
0.00962606
0.00943298
0.00932423
0.0102582
0.0105243
0.0106896
0.0107566
0.01073
0.0106172
0.0104307
0.0101897
0.00992623
0.00963344
0.00944553
0.00933902
0.0010119
0.00218171
0.00252753
0.00298161
0.00388823
0.00511295
0.00647067
0.00776054
0.00889693
0.00984681
0.0105936
0.0111453
0.00205906
0.00265796
0.0030133
0.00350791
0.00431631
0.00537609
0.00656062
0.00771138
0.00874583
0.00962959
0.0103422
0.010884
0.00260671
0.00300781
0.00337159
0.00388239
0.00462704
0.00557218
0.00662774
0.00766839
0.00862023
0.00944783
0.0101291
0.0106594
0.00297596
0.00329578
0.00365694
0.00416448
0.00486078
0.00572149
0.00667909
0.00763205
0.0085169
0.00929748
0.00995119
0.0104698
0.00327753
0.00353974
0.00388917
0.00438395
0.00504025
0.00583617
0.00671849
0.00760213
0.00843245
0.00917406
0.009804
0.0103116
0.00351974
0.0037425
0.0040778
0.00455636
0.005179
0.00592414
0.00674865
0.00757782
0.00836391
0.00907362
0.00968354
0.0101813
0.00371047
0.00390745
0.00422903
0.00469127
0.0052859
0.00599085
0.00677193
0.00755792
0.00830888
0.00899291
0.00958642
0.0100758
0.00385818
0.00403809
0.00434754
0.00479515
0.00536701
0.00604007
0.00678978
0.00754155
0.00826537
0.00892933
0.00950986
0.00999253
0.00396927
0.00413772
0.00443713
0.00487263
0.00542672
0.00607559
0.00680199
0.00752804
0.00823175
0.00888072
0.00945152
0.00992922
0.00404844
0.00420942
0.0045009
0.0049272
0.00546832
0.00610252
0.0068061
0.00751671
0.00820667
0.00884521
0.00940943
0.00988387
0.00409949
0.00425597
0.00454147
0.00496163
0.00549376
0.00611814
0.00680674
0.0075075
0.00818906
0.00882151
0.00938204
0.00985487
0.00412698
0.00428068
0.00456679
0.00497822
0.00550497
0.00612416
0.00680549
0.0075016
0.00817955
0.00880959
0.00936883
0.0098414
0.0115232
0.0117557
0.0118633
0.0118611
0.0117489
0.0115048
0.0110873
0.0104518
0.00959651
0.00859546
0.00771887
0.00685602
0.011268
0.011514
0.0116376
0.0116495
0.01155
0.0113247
0.0109452
0.0103822
0.00964695
0.00883369
0.00814093
0.00761358
0.0110456
0.0113007
0.0114365
0.0114608
0.0113747
0.0111698
0.0108296
0.0103413
0.00972777
0.0090716
0.00851551
0.00815164
0.0108556
0.0111169
0.0112622
0.0112975
0.0112244
0.0110392
0.0107345
0.010309
0.00979103
0.00924898
0.00879577
0.00851821
0.0106958
0.0109613
0.0111141
0.0111589
0.011098
0.0109309
0.0106566
0.0102809
0.00983326
0.00937619
0.00900076
0.00877973
0.0105633
0.0108317
0.0109905
0.0110434
0.0109935
0.0108425
0.0105941
0.010259
0.00986354
0.00947097
0.00915326
0.00897092
0.0104557
0.0107261
0.0108896
0.0109494
0.0109089
0.0107719
0.0105453
0.010244
0.00988538
0.00954187
0.00926728
0.00911229
0.0103706
0.0106425
0.0108098
0.0108752
0.0108426
0.0107172
0.010508
0.0102321
0.00990443
0.00959464
0.00935197
0.00921658
0.010306
0.0105791
0.0107494
0.0108193
0.0107929
0.0106766
0.0104807
0.0102228
0.00992231
0.00963259
0.0094132
0.00929177
0.0102601
0.0105343
0.010707
0.0107802
0.0107585
0.0106488
0.0104625
0.0102177
0.00993846
0.00965704
0.009455
0.00934319
0.0102309
0.0105068
0.0106814
0.010757
0.0107384
0.0106329
0.0104527
0.0102164
0.00995461
0.00966794
0.00948043
0.00937465
0.010218
0.0104949
0.0106706
0.0107475
0.0107303
0.0106268
0.0104494
0.0102172
0.00996218
0.00967491
0.00949259
0.009389
0.00122256
0.00238221
0.00273004
0.00318328
0.00408466
0.00530116
0.00664854
0.00792626
0.00905071
0.0099901
0.0107283
0.0112736
0.00226355
0.00285584
0.00321174
0.00370488
0.00450835
0.00556063
0.00673609
0.00787597
0.00889985
0.00977409
0.0104786
0.0110143
0.00280582
0.00320356
0.00356692
0.00407579
0.00481572
0.00575394
0.00680134
0.00783217
0.00877447
0.00959332
0.0102671
0.0107914
0.00317226
0.0034898
0.00384986
0.00435503
0.00504677
0.00590106
0.00685123
0.00779525
0.00867135
0.0094438
0.0100904
0.0106031
0.00347176
0.00373219
0.00408015
0.00457227
0.00522411
0.00601401
0.00688943
0.00776498
0.0085871
0.00932104
0.00994415
0.0104459
0.00371229
0.00393359
0.00426722
0.00474294
0.00536122
0.00610063
0.00691873
0.00774039
0.00851876
0.00922112
0.00982445
0.0103165
0.00390169
0.0040974
0.00441718
0.00487652
0.00546687
0.00616626
0.00694142
0.00772023
0.00846387
0.00914085
0.00972794
0.0102117
0.00404838
0.00422713
0.00453471
0.00497937
0.00554702
0.00621463
0.00695886
0.00770367
0.00842045
0.0090776
0.00965185
0.0101289
0.0041587
0.00432605
0.00462354
0.00505608
0.00560605
0.00624978
0.00697053
0.00769002
0.00838691
0.00902923
0.00959386
0.010066
0.00423732
0.00439723
0.00468676
0.00511013
0.00564716
0.00627624
0.00697446
0.00767859
0.00836189
0.00899389
0.00955201
0.0100209
0.004288
0.00444345
0.00472696
0.00514423
0.0056723
0.00629167
0.00697491
0.00766933
0.00834432
0.00897031
0.00952477
0.00999209
0.00431532
0.00446802
0.00475239
0.00516067
0.00568336
0.00629765
0.00697355
0.0076634
0.00833483
0.00895844
0.00951164
0.00997869
0.0116475
0.0118776
0.0119843
0.0119817
0.0118687
0.0116226
0.0112009
0.0105583
0.00969304
0.00868047
0.00779214
0.00691581
0.011394
0.0116371
0.011759
0.0117698
0.0116688
0.0114411
0.0110574
0.010488
0.00974376
0.00892045
0.00821815
0.00768244
0.011173
0.0114249
0.0115584
0.011581
0.0114928
0.0112851
0.0109408
0.0104467
0.00982542
0.00916085
0.00859699
0.00822743
0.0109842
0.011242
0.0113845
0.0114176
0.0113421
0.0111537
0.010845
0.0104142
0.00988944
0.00934029
0.00888068
0.00859893
0.0108254
0.0110871
0.0112368
0.0112789
0.0112153
0.0110449
0.0107667
0.0103861
0.00993216
0.00946901
0.00908832
0.00886403
0.0106938
0.0109581
0.0111135
0.0111635
0.0111105
0.0109562
0.010704
0.0103643
0.00996269
0.00956497
0.00924285
0.00905789
0.0105867
0.010853
0.0110129
0.0110695
0.0110258
0.0108853
0.0106549
0.0103498
0.00998451
0.00963681
0.00935844
0.00920126
0.0105021
0.0107698
0.0109333
0.0109953
0.0109594
0.0108304
0.0106174
0.0103374
0.0100045
0.00969039
0.00944433
0.00930703
0.0104379
0.0107067
0.0108731
0.0109394
0.0109096
0.0107896
0.01059
0.010328
0.0100228
0.00972895
0.00950645
0.0093833
0.0103922
0.010662
0.0108308
0.0109004
0.0108751
0.0107617
0.0105717
0.0103228
0.0100392
0.00975383
0.00954888
0.00943548
0.0103632
0.0106347
0.0108053
0.0108772
0.0108549
0.0107458
0.0105618
0.0103215
0.0100555
0.009765
0.00957471
0.0094674
0.0103503
0.0106228
0.0107945
0.0108677
0.0108468
0.0107396
0.0105585
0.0103223
0.0100631
0.0097722
0.00958706
0.00948198
0.00119601
0.00235961
0.00270036
0.00314956
0.00405056
0.00527023
0.00662174
0.00790443
0.00903402
0.00997681
0.0107166
0.0112615
0.00223697
0.00283412
0.00318549
0.00367485
0.00447795
0.00553239
0.00671048
0.00785469
0.00888245
0.00975931
0.010465
0.0110001
0.00278263
0.00318187
0.00354223
0.00404839
0.00478784
0.00572753
0.00677656
0.00781117
0.00875641
0.00957732
0.0102519
0.0107756
0.00315013
0.00346796
0.00382607
0.00432939
0.00502074
0.00587603
0.00682707
0.00777427
0.00865266
0.00942677
0.0100739
0.010586
0.00344989
0.00371033
0.00405696
0.00454779
0.00519941
0.0059901
0.00686592
0.00774359
0.00856782
0.00930316
0.00992661
0.0104277
0.00369053
0.00391177
0.00424443
0.00471927
0.00533745
0.00607762
0.00689554
0.00771864
0.00849895
0.00920251