/*--------------------------------*- C++ -*----------------------------------*\
| =========                 |                                                 |
| \\      /  F ield         | OpenFOAM: The Open Source CFD Toolbox           |
|  \\    /   O peration     | Version:  v1606+                                |
|   \\  /    A nd           | Web:      www.OpenFOAM.com                      |
|    \\/     M anipulation  |                                                 |
\*---------------------------------------------------------------------------*/
FoamFile
{
    version     2.0;
    format      ascii;
    class       volScalarField;
    location    "0.3";
    object      p;
}
// * * * * * * * * * * * * * * * * * * * * * * * * * * * * * * * * * * * * * //

dimensions      [0 2 -2 0 0 0 0];

internalField   nonuniform List<scalar> 
768
(
0.027997
0.0263181
0.0245075
0.0224807
0.020124
0.0172821
0.0137629
0.00954013
0.00494573
0.000869159
-0.00175276
-0.00197154
0.0275297
0.0259926
0.0242856
0.0223636
0.0201447
0.0175281
0.0144249
0.010896
0.00726463
0.00420733
0.00242315
0.00238817
0.0270392
0.0256314
0.0240353
0.0222304
0.0201683
0.0177945
0.0150846
0.0121492
0.00927843
0.00698714
0.00586902
0.0056617
0.0265558
0.0252611
0.0237702
0.0220813
0.0201741
0.0180306
0.015655
0.0131901
0.0108837
0.00910509
0.00843131
0.00787195
1.65866e-05
0.0048537
0.0116821
0.0184128
0.0240115
0.0280132
0.0305063
0.0316362
0.0317547
0.0313893
0.0306721
0.0295054
0.00374008
0.00793496
0.0139015
0.0193863
0.0240014
0.0272643
0.0293959
0.0304898
0.0307599
0.0305164
0.0298806
0.0288597
0.00620549
0.0102142
0.0156117
0.020101
0.0237736
0.0265127
0.0283795
0.0294311
0.0297908
0.0296475
0.0291139
0.0282222
0.00772526
0.0117543
0.0166901
0.0204027
0.0234223
0.0257969
0.0274831
0.0284967
0.028911
0.0288498
0.0284041
0.0276198
0.027994
0.0263183
0.0245069
0.0224765
0.0201172
0.0172731
0.013753
0.00953138
0.0049417
0.000872523
-0.00173998
-0.0019481
0.0275278
0.0259921
0.024284
0.0223589
0.020138
0.0175198
0.0144161
0.0108889
0.00726176
0.00421099
0.00243543
0.00240886
0.0270364
0.0256299
0.0240329
0.022226
0.0201624
0.0177875
0.0150772
0.0121435
0.00927646
0.00699055
0.00587878
0.00567884
0.0265527
0.0252585
0.0237672
0.022077
0.0201688
0.0180246
0.0156484
0.0131852
0.010882
0.0091077
0.00843872
0.00788578
-6.04068e-07
0.00483887
0.0116691
0.0184019
0.024003
0.0280064
0.0305
0.031629
0.0317483
0.0313864
0.0306724
0.0295084
0.00372139
0.00791987
0.0138885
0.0193752
0.0239929
0.0272571
0.0293894
0.0304836
0.030755
0.0305145
0.029882
0.0288625
0.00618611
0.0101986
0.0155986
0.0200901
0.023765
0.0265055
0.0283731
0.0294255
0.0297866
0.0296455
0.0291147
0.0282253
0.00770774
0.0117388
0.0166767
0.0203919
0.0234139
0.0257897
0.027477
0.0284915
0.0289073
0.028848
0.0284043
0.027622
0.0261042
0.0249088
0.0235147
0.0219325
0.0201626
0.0182147
0.0160945
0.0139809
0.0120622
0.0106045
0.0100448
0.00967578
0.0256939
0.024585
0.0232795
0.0217952
0.0201464
0.0183633
0.0164376
0.014586
0.0129327
0.0116792
0.0111299
0.0109392
0.0253296
0.0242954
0.0230685
0.0216722
0.0201293
0.0184743
0.0167309
0.015069
0.0136136
0.0125195
0.0119985
0.0118451
0.0250124
0.0240421
0.022884
0.0215649
0.0201136
0.0185684
0.0169707
0.0154561
0.0141497
0.0131705
0.0126604
0.0124951
0.0247415
0.0238254
0.0227262
0.0214738
0.0201007
0.0186483
0.0171665
0.0157632
0.0145678
0.0136692
0.0131663
0.0129805
0.0245149
0.0236439
0.0225945
0.0213983
0.020091
0.0187163
0.0173278
0.0160035
0.0148923
0.0140507
0.0135544
0.0133497
0.0243303
0.0234961
0.0224875
0.0213377
0.0200845
0.018774
0.0174636
0.0161854
0.0151428
0.0143452
0.0138539
0.0136366
0.0241849
0.0233799
0.022404
0.0212911
0.0200808
0.0188219
0.017584
0.0163118
0.0153331
0.0145693
0.0140829
0.0138578
0.0240763
0.0232934
0.0223423
0.0212574
0.0200796
0.0188581
0.0176563
0.0164255
0.0154758
0.014735
0.0142529
0.0140229
0.024002
0.0232348
0.0223011
0.021236
0.0200808
0.0188846
0.0177069
0.0165081
0.015577
0.0148511
0.0143717
0.0141387
0.0239598
0.0232022
0.0222791
0.0212259
0.0200844
0.018903
0.0177468
0.0165554
0.0156412
0.0149234
0.0144455
0.0142099
0.0239442
0.0231906
0.0222719
0.021224
0.020089
0.0189119
0.0177527
0.0165953
0.0156756
0.0149584
0.0144801
0.0142408
0.00998404
0.0131028
0.0171964
0.0203661
0.023033
0.0251649
0.0267125
0.0276855
0.0281304
0.0281313
0.0277618
0.027069
0.0124632
0.0145245
0.017658
0.0203507
0.0227104
0.0246346
0.0260626
0.0269922
0.0274515
0.0274985
0.0271918
0.0265752
0.0141974
0.0157524
0.018106
0.0203887
0.0224672
0.0242047
0.0255235
0.0264075
0.02687
0.0269502
0.026694
0.0261404
0.0155716
0.0167187
0.0185258
0.0204632
0.0222929
0.0238631
0.0250821
0.0259203
0.0263786
0.026482
0.0262658
0.025764
0.0165433
0.0174457
0.0188918
0.0205535
0.0221712
0.023595
0.0247246
0.0255189
0.0259688
0.0260882
0.0259034
0.0254439
0.0172705
0.0180011
0.0191999
0.0206442
0.0220874
0.0233867
0.0244384
0.0251927
0.0256323
0.0257627
0.0256024
0.0251769
0.0178141
0.0184255
0.0194508
0.0207261
0.0220299
0.0232266
0.0242125
0.0249321
0.0253614
0.0254992
0.025358
0.0249597
0.0182174
0.0187456
0.0196477
0.0207951
0.0219904
0.0231053
0.0240381
0.024729
0.025149
0.0252921
0.0251657
0.0247887
0.0185089
0.0189799
0.0197955
0.020849
0.0219632
0.023016
0.0239078
0.0245764
0.0249892
0.025136
0.025021
0.0246605
0.0187081
0.0191416
0.0198992
0.0208873
0.0219445
0.0229531
0.0238158
0.0244688
0.024877
0.0250253
0.0249205
0.0245721
0.0188289
0.0192405
0.0199629
0.0209103
0.0219321
0.0229132
0.0237582
0.0244022
0.0248079
0.0249603
0.0248616
0.0245211
0.0188812
0.0192854
0.0199919
0.0209205
0.0219265
0.0228955
0.0237334
0.0243743
0.02478
0.0249346
0.0248386
0.0245017
0.0261017
0.0249061
0.0235116
0.0219285
0.020158
0.01821
0.0160882
0.0139763
0.0120605
0.0106062
0.0100502
0.00968522
0.0256919
0.0245825
0.0232764
0.0217915
0.0201425
0.0183611
0.0164301
0.0145818
0.012931
0.0116804
0.0111342
0.0109461
0.0253279
0.024293
0.0230656
0.0216688
0.0201257
0.0184714
0.0167253
0.0150652
0.0136119
0.0125203
0.0120016
0.0118502
0.0250109
0.02404
0.0228813
0.0215618
0.0201103
0.0185653
0.0169664
0.0154527
0.014148
0.0131709
0.0126626
0.0124987
0.0247401
0.0238233
0.0227237
0.0214708
0.0200976
0.0186453
0.017163
0.0157601
0.0145661
0.0136692
0.0131679
0.0129832
0.0245137
0.023642
0.0225921
0.0213956
0.0200881
0.0187134
0.0173247
0.0160008
0.0148907
0.0140505
0.0135554
0.0133516
0.0243291
0.0234943
0.0224853
0.0213351
0.0200818
0.0187712
0.0174608
0.0161829
0.0151411
0.0143447
0.0138546
0.013638
0.0241839
0.0233782
0.0224018
0.0212886
0.0200783
0.0188193
0.0175814
0.0163094
0.0153315
0.0145687
0.0140833
0.0138587
0.0240753
0.0232918
0.0223402
0.0212551
0.0200771
0.0188558
0.0176547
0.0164223
0.0154741
0.0147343
0.014253
0.0140236
0.024001
0.0232332
0.022299
0.0212337
0.0200784
0.0188823
0.0177052
0.0165052
0.0155753
0.0148503
0.0143717
0.0141391
0.0239589
0.0232007
0.0222771
0.0212237
0.0200821
0.0189006
0.0177447
0.0165529
0.0156395
0.0149225
0.0144453
0.0142102
0.0239432
0.023189
0.0222699
0.0212218
0.0200867
0.0189096
0.0177505
0.016593
0.0156739
0.0149575
0.0144799
0.0142411
0.00996913
0.0130873
0.0171833
0.020356
0.0230247
0.0251578
0.0267066
0.0276806
0.0281269
0.0281295
0.0277618
0.0270705
0.0124489
0.01451
0.0176452
0.0203415
0.0227023
0.0246276
0.0260568
0.0269876
0.0274482
0.0274968
0.0271916
0.0265762
0.0141844
0.0157392
0.0180942
0.0203793
0.0224592
0.0241979
0.0255179
0.0264031
0.0268669
0.0269485
0.0266936
0.0261413
0.0155594
0.0167064
0.0185147
0.0204539
0.0222849
0.0238564
0.0250766
0.025916
0.0263755
0.0264803
0.0262653
0.0257647
0.0165317
0.0174341
0.0188812
0.0205444
0.0221634
0.0235885
0.0247193
0.0255148
0.0259658
0.0260865
0.0259029
0.0254444
0.0172594
0.0179901
0.0191897
0.0206353
0.0220797
0.0233803
0.0244331
0.0251886
0.0256294
0.0257609
0.0256018
0.0251773
0.0178033
0.018415
0.019441
0.0207175
0.0220223
0.0232202
0.0242073
0.0249281
0.0253585
0.0254975
0.0253574
0.0249601
0.018207
0.0187354
0.0196382
0.0207866
0.0219829
0.023099
0.024033
0.024725
0.0251462
0.0252904
0.025165
0.0247889
0.0184987
0.0189699
0.0197862
0.0208406
0.0219558
0.0230097
0.0239027
0.0245724
0.0249864
0.0251343
0.0250203
0.0246607
0.0186981
0.0191318
0.01989
0.020879
0.0219372
0.0229469
0.0238107
0.0244649
0.0248741
0.0250235
0.0249198
0.0245723
0.018819
0.0192309
0.0199538
0.0209021
0.0219249
0.0229071
0.0237532
0.0243983
0.0248051
0.0249586
0.0248608
0.0245213
0.0188713
0.0192758
0.0199829
0.0209123
0.0219193
0.0228894
0.0237283
0.0243704
0.0247772
0.0249329
0.0248379
0.0245019
)
;

boundaryField
{
    rotor
    {
        type            zeroGradient;
    }
    stator
    {
        type            zeroGradient;
    }
    AMI1
    {
        type            cyclicAMI;
        value           nonuniform 0();
    }
    AMI2
    {
        type            cyclicAMI;
        value           nonuniform List<scalar> 
48
(
0.0282088
0.0264523
0.0246019
0.0225375
0.0201152
0.0171499
0.0134028
0.00878303
0.00362284
-0.00106851
-0.00413568
-0.00444193
-0.00219808
0.00296783
0.0102886
0.0176844
0.0238579
0.028318
0.0310732
0.0322405
0.032267
0.0318235
0.0310691
0.0298256
0.0282067
0.0264546
0.0246032
0.0225347
0.0201093
0.0171414
0.0133929
0.00877402
0.00361841
-0.0010651
-0.00412203
-0.0044167
-0.00221406
0.00295249
0.0102754
0.0176736
0.0238495
0.0283114
0.0310671
0.0322335
0.0322601
0.0318198
0.0310686
0.0298286
)
;
    }
    front
    {
        type            empty;
    }
    back
    {
        type            empty;
    }
    procBoundary1to0
    {
        type            processor;
        value           nonuniform List<scalar> 8(-3.77888e-05 0.00369162 0.00616056 0.0076828 -0.00192435 0.00243522 0.00570793 0.00791721);
    }
}


// ************************************************************************* //
