/*--------------------------------*- C++ -*----------------------------------*\
| =========                 |                                                 |
| \\      /  F ield         | OpenFOAM: The Open Source CFD Toolbox           |
|  \\    /   O peration     | Version:  v1606+                                |
|   \\  /    A nd           | Web:      www.OpenFOAM.com                      |
|    \\/     M anipulation  |                                                 |
\*---------------------------------------------------------------------------*/
FoamFile
{
    version     2.0;
    format      ascii;
    class       volScalarField;
    location    "0.97";
    object      p_rgh;
}
// * * * * * * * * * * * * * * * * * * * * * * * * * * * * * * * * * * * * * //

dimensions      [1 -1 -2 0 0 0 0];

internalField   nonuniform List<scalar> 
6000
(
106968
106971
106975
106980
106984
106985
106983
106980
106981
106985
106993
107002
107011
107019
107027
107034
107039
107043
107046
107049
107051
107054
107061
107070
107081
107090
107095
107097
107098
107099
106920
106928
106936
106943
106950
106953
106954
106955
106961
106969
106979
106989
106999
107010
107019
107027
107032
107035
107037
107039
107040
107042
107043
107047
107055
107061
107062
107060
107056
107049
106880
106898
106918
106944
106966
106979
106982
106975
106977
106986
106999
107010
107021
107033
107043
107052
107056
107057
107057
107059
107059
107058
107062
107076
107090
107093
107083
107059
107034
107009
106799
106813
106835
106877
106919
106955
106983
106987
106989
106999
107012
107025
107039
107057
107073
107085
107089
107084
107079
107076
107075
107073
107080
107095
107095
107074
107037
106986
106946
106923
106738
106746
106754
106780
106837
106897
106937
106972
106997
107014
107030
107047
107066
107088
107106
107120
107127
107121
107111
107104
107102
107097
107098
107088
107061
107025
106957
106897
106871
106856
106735
106733
106727
106716
106724
106777
106851
106905
106945
106976
106998
107020
107043
107064
107084
107104
107120
107129
107126
107116
107107
107095
107071
107038
106987
106923
106869
106852
106853
106855
106748
106759
106746
106709
106675
106674
106716
106774
106824
106869
106894
106923
106957
106995
107024
107054
107080
107094
107085
107063
107052
107045
106999
106922
106862
106844
106854
106863
106864
106863
106779
106815
106788
106724
106672
106663
106660
106671
106690
106715
106732
106751
106780
106826
106886
106944
106996
107027
106984
106910
106902
106917
106854
106805
106800
106839
106884
106909
106903
106877
106834
106896
106857
106755
106681
106670
106666
106663
106661
106661
106663
106670
106686
106718
106764
106815
106856
106876
106830
106748
106730
106739
106732
106744
106792
106869
106948
106987
106968
106920
106899
106978
106963
106824
106702
106676
106673
106671
106670
106671
106674
106680
106704
106741
106794
106853
106893
106903
106838
106730
106689
106686
106690
106711
106792
106917
107028
107068
107039
106983
106980
107052
107070
106952
106765
106687
106680
106680
106687
106692
106698
106724
106767
106812
106873
106940
106977
106974
106907
106778
106700
106691
106693
106695
106780
106960
107114
107139
107107
107042
107068
107131
107141
107085
106879
106729
106694
106698
106717
106724
106746
106814
106883
106922
106975
107033
107055
107025
106958
106844
106731
106697
106698
106699
106758
106992
107210
107194
107176
107097
107164
107200
107196
107163
107006
106806
106730
106731
106764
106774
106818
106943
107019
107034
107068
107108
107113
107067
106989
106899
106791
106719
106704
106704
106751
107064
107266
107239
107248
107161
107230
107230
107225
107209
107113
106912
106801
106788
106825
106847
106916
107088
107153
107133
107141
107155
107148
107109
107040
106964
106876
106773
106720
106710
106777
107191
107300
107287
107295
107244
107238
107206
107228
107222
107185
107029
106901
106867
106896
106933
107024
107198
107243
107210
107197
107195
107194
107190
107176
107133
107029
106882
106776
106731
106871
107277
107327
107327
107329
107317
107227
107166
107211
107235
107263
107176
107031
106970
106973
107013
107109
107231
107272
107253
107238
107244
107275
107317
107352
107368
107282
107100
106921
106837
107067
107375
107368
107359
107349
107346
107184
107165
107214
107271
107356
107350
107197
107087
107054
107073
107137
107203
107258
107261
107267
107293
107331
107372
107405
107437
107450
107372
107195
107104
107324
107439
107393
107366
107348
107339
107149
107183
107269
107326
107355
107361
107306
107202
107131
107108
107116
107148
107232
107246
107271
107299
107325
107350
107376
107405
107441
107463
107423
107386
107443
107426
107378
107345
107324
107312
107143
107240
107297
107307
107293
107265
107268
107245
107187
107128
107087
107096
107186
107221
107255
107269
107289
107308
107328
107350
107376
107409
107433
107434
107410
107368
107330
107301
107280
107267
107142
107258
107270
107246
107200
107120
107175
107196
107192
107144
107075
107060
107141
107198
107226
107226
107245
107259
107272
107285
107300
107321
107338
107340
107319
107289
107261
107238
107220
107208
107139
107226
107213
107167
107058
106980
107061
107114
107143
107139
107084
107044
107105
107171
107182
107177
107195
107204
107209
107213
107219
107229
107234
107231
107217
107197
107177
107160
107146
107137
107112
107164
107145
107072
106951
106924
106924
107020
107068
107093
107081
107044
107079
107132
107128
107123
107140
107143
107139
107134
107133
107133
107130
107123
107111
107097
107083
107070
107061
107055
107054
107078
107068
106991
106932
106876
106818
106890
106988
107021
107040
107028
107049
107078
107064
107063
107078
107074
107062
107050
107041
107034
107025
107014
107001
106989
106978
106970
106965
106963
106970
106978
106980
106949
106926
106869
106755
106789
106868
106937
106974
106985
107000
107010
106994
107001
107011
106999
106977
106959
106944
106930
106916
106901
106886
106873
106863
106859
106859
106862
106863
106858
106878
106895
106901
106857
106722
106715
106679
106819
106893
106926
106939
106937
106922
106938
106938
106915
106887
106863
106843
106823
106804
106785
106765
106748
106734
106736
106739
106750
106734
106658
106747
106800
106845
106826
106721
106586
106498
106661
106802
106860
106872
106862
106854
106870
106858
106826
106792
106763
106738
106715
106691
106665
106636
106610
106579
106596
106591
106636
106573
106310
106566
106687
106764
106794
106654
106436
106401
106494
106714
106795
106805
106790
106793
106796
106770
106731
106694
106661
106633
106607
106580
106546
106503
106454
106382
106425
106367
106508
106322
106211
106265
106536
106674
106744
106626
106411
106344
106366
106632
106732
106739
106727
106729
106714
106676
106633
106592
106557
106527
106503
106480
106451
106405
106341
106292
106279
106257
106364
106160
106164
106168
106331
106574
106674
106690
106462
106289
106274
106535
106666
106679
106669
106657
106626
106581
106534
106489
106449
106418
106398
106391
106387
106378
106346
106309
106261
106209
106238
106183
106130
106129
106136
106468
106603
106667
106579
106298
106213
106396
106594
106624
106609
106581
106538
106486
106433
106381
106332
106292
106265
106272
106295
106324
106340
106335
106302
106177
106186
106205
106097
106094
106094
106366
106531
106592
106606
106394
106188
106249
106521
106572
106548
106505
106451
106393
106331
106266
106199
106132
106057
106091
106158
106211
106258
106294
106304
106225
106182
106175
106065
106066
106075
106195
106438
106518
106559
106490
106216
106201
106464
106524
106487
106431
106368
106302
106229
106144
106040
105909
105732
105783
105956
106068
106143
106200
106249
106247
106177
106138
106061
106127
106187
106140
106331
106444
106481
106479
106290
106218
106414
106470
106425
106360
106290
106214
106125
106010
105851
105691
105633
105626
105642
105879
106020
106099
106154
106189
106140
106106
106099
106198
106259
106115
106218
106351
106400
106419
106340
106247
106356
106405
106360
106291
106215
106129
106021
105863
105708
105603
105620
105584
105439
105599
105874
106007
106069
106110
106084
106104
106151
106175
106173
106159
106149
106258
106319
106346
106318
106254
106308
106336
106295
106228
106147
106046
105916
105719
105491
105274
105553
105565
105391
105366
105693
105910
106001
106042
106028
106106
106108
106078
106037
106056
106057
106160
106229
106275
106281
106257
106272
106277
106240
106174
106083
105960
105810
105598
104926
104437
105294
105433
105295
105330
105512
105815
105945
105994
105988
106009
105996
105953
105857
105915
105893
106040
106128
106202
106250
106256
106253
106241
106200
106127
106013
105850
105733
105260
104129
103752
104317
104673
104779
105192
105429
105721
105899
105964
105971
105882
105849
105840
105769
105769
105681
105935
105964
106084
106204
106252
106246
106225
106172
106080
105931
105768
105527
104347
103628
103498
103595
103741
103884
104452
105142
105614
105856
105947
105969
105383
105533
105643
105612
105505
105316
105290
105394
105757
106126
106245
106247
106222
106143
106025
105812
105244
104131
103648
103533
103459
103422
103411
103435
103604
104110
105098
105765
105932
105983
104287
104557
104746
104732
104497
104321
104073
104544
105293
106057
106248
106253
106231
106091
105938
104982
103808
103558
103571
103554
103469
103407
103368
103349
103355
103442
103912
105305
105874
105997
103520
103574
103614
103598
103518
103487
103589
104330
105321
106104
106274
106277
106250
105879
105152
103936
103554
103531
103560
103563
103485
103410
103368
103342
103328
103325
103406
104473
105823
105987
103343
103340
103338
103334
103329
103334
103480
104415
105564
106156
106318
106317
106248
105671
104337
103716
103550
103533
103557
103577
103515
103422
103368
103341
103327
103320
103340
103971
105602
105987
103326
103324
103321
103320
103320
103324
103394
104211
105728
106186
106374
106371
106291
105597
104117
103827
103618
103536
103554
103584
103557
103440
103365
103339
103326
103319
103332
103655
105412
105965
103325
103324
103321
103320
103320
103323
103349
103837
105554
106095
106413
106436
106415
105807
104108
103978
103705
103544
103543
103588
103576
103451
103357
103331
103323
103318
103325
103484
105434
105916
103325
103324
103321
103320
103320
103324
103337
103521
105016
106080
106421
106503
106493
106230
104414
104162
103836
103576
103538
103568
103574
103457
103350
103318
103315
103313
103319
103440
105174
106091
103325
103324
103321
103320
103321
103326
103336
103406
104385
106132
106435
106570
106561
106401
105219
104358
104042
103649
103541
103558
103594
103480
103352
103308
103306
103307
103312
103402
104310
106023
103325
103324
103321
103320
103321
103327
103339
103378
103896
105884
106420
106605
106636
106566
106019
104616
104326
103760
103545
103550
103627
103570
103380
103305
103303
103303
103305
103350
103689
105538
103325
103323
103321
103320
103322
103329
103343
103371
103550
104828
106365
106625
106711
106695
106438
105154
104643
103926
103567
103523
103635
103699
103439
103310
103303
103302
103303
103324
103526
105384
103325
103323
103321
103320
103323
103330
103347
103381
103472
104049
106175
106609
106760
106765
106624
106008
105007
104186
103631
103513
103581
103738
103521
103340
103308
103307
103304
103319
103507
105410
103325
103323
103321
103320
103323
103331
103350
103392
103475
103771
105114
106502
106787
106837
106769
106514
105518
104571
103742
103515
103518
103743
103644
103440
103351
103339
103319
103325
103525
105451
103324
103323
103321
103321
103324
103333
103354
103405
103514
103720
104406
106307
106792
106900
106862
106710
106150
105012
103898
103517
103470
103632
103735
103621
103471
103436
103371
103355
103620
105439
103324
103322
103321
103321
103325
103334
103357
103417
103551
103802
104324
106057
106791
106962
106938
106841
106604
105423
104087
103544
103444
103501
103739
103741
103625
103579
103474
103428
103777
105040
103324
103322
103321
103321
103325
103335
103361
103430
103594
103908
104400
105487
106705
107002
106993
106933
106775
105804
104316
103592
103431
103427
103645
103690
103692
103662
103586
103535
103860
104660
103323
103322
103321
103321
103325
103336
103365
103447
103644
104029
104611
105250
106678
107024
107024
107006
106882
106133
104534
103649
103424
103375
103430
103495
103614
103630
103632
103622
103889
104434
103323
103322
103320
103321
103325
103336
103369
103466
103707
104170
104821
105454
106487
107008
107009
107081
107001
106336
104658
103691
103426
103350
103327
103340
103419
103489
103577
103649
103882
104212
103323
103322
103320
103321
103325
103336
103373
103487
103780
104337
105073
105827
106420
106840
106843
107060
107087
106397
104687
103715
103428
103342
103302
103281
103289
103329
103419
103564
103747
103882
103323
103322
103320
103321
103325
103336
103376
103510
103868
104526
105335
106086
106523
106725
106697
106863
106992
106302
104758
103732
103421
103338
103299
103268
103247
103247
103284
103393
103496
103534
103322
103321
103320
103321
103324
103335
103378
103533
103964
104731
105626
106360
106689
106668
106657
106751
106823
106383
104913
103735
103402
103331
103299
103268
103238
103219
103223
103261
103302
103318
103322
103321
103320
103321
103324
103334
103379
103556
104069
104952
105918
106593
106802
106770
106698
106686
106840
106627
105079
103723
103377
103320
103298
103272
103239
103212
103201
103206
103220
103231
103321
103321
103320
103320
103322
103333
103379
103579
104188
105184
106190
106791
106890
106828
106743
106782
106903
106817
105264
103708
103351
103306
103296
103276
103242
103211
103194
103190
103196
103206
103321
103320
103319
103319
103319
103330
103377
103604
104327
105431
106422
106927
106964
106889
106831
106869
106957
106934
105450
103684
103326
103293
103291
103280
103248
103212
103191
103187
103192
103199
103320
103320
103319
103318
103316
103328
103374
103631
104492
105697
106637
107017
107030
106963
106913
106939
107001
107004
105616
103650
103304
103281
103284
103281
103256
103214
103190
103187
103190
103198
103319
103320
103319
103317
103315
103325
103369
103660
104694
105983
106813
107097
107108
107038
106979
107012
107049
107064
105742
103607
103285
103271
103279
103282
103265
103217
103190
103186
103190
103197
103319
103319
103318
103316
103315
103322
103362
103689
104922
106273
106958
107177
107169
107098
107047
107108
107106
107124
105823
103553
103268
103261
103276
103283
103274
103221
103190
103186
103189
103197
103318
103319
103318
103316
103316
103320
103356
103712
105127
106523
107070
107244
107228
107172
107152
107203
107166
107184
105880
103485
103253
103252
103273
103284
103280
103229
103191
103186
103189
103197
103317
103319
103317
103316
103316
103319
103352
103725
105255
106693
107162
107304
107288
107278
107259
107282
107228
107243
105925
103404
103240
103242
103269
103285
103282
103240
103197
103187
103190
103198
103316
103318
103317
103316
103316
103318
103351
103728
105303
106781
107233
107373
107383
107373
107357
107361
107316
107302
105860
103332
103227
103232
103262
103286
103284
103252
103210
103193
103194
103201
103315
103318
103317
103316
103316
103318
103352
103695
105168
106738
107276
107439
107468
107457
107451
107442
107418
107298
105358
103280
103214
103223
103252
103283
103286
103267
103231
103208
103205
103210
103314
103318
103318
103317
103317
103319
103356
103654
104773
106305
107181
107481
107547
107545
107540
107518
107506
107021
104495
103238
103204
103214
103240
103273
103288
103285
103259
103234
103226
103229
103314
103318
103319
103318
103317
103320
103371
103642
104481
105793
106895
107481
107634
107638
107629
107600
107576
106284
103704
103208
103198
103207
103229
103263
103291
103301
103292
103273
103263
103264
103315
103318
103321
103321
103318
103323
103405
103685
104404
105464
106516
107309
107707
107730
107722
107704
107577
105279
103323
103193
103196
103204
103220
103252
103289
103311
103318
103313
103308
103309
103315
103319
103327
103329
103322
103331
103462
103850
104474
105370
106206
106994
107665
107809
107801
107792
107295
104527
103240
103193
103196
103202
103213
103240
103280
103312
103329
103338
103343
103346
103315
103320
103337
103342
103331
103346
103532
104085
104802
105441
106093
106730
107437
107848
107866
107856
106921
104252
103236
103193
103196
103202
103208
103227
103264
103304
103329
103344
103356
103359
103315
103324
103353
103362
103346
103369
103603
104336
105289
105875
106151
106627
107241
107789
107910
107909
106738
104225
103253
103193
103197
103203
103206
103217
103247
103287
103318
103339
103355
103360
103316
103331
103374
103385
103368
103404
103682
104567
105824
106568
106597
106707
107185
107704
107948
107791
106780
104538
103272
103193
103197
103205
103206
103211
103234
103267
103300
103325
103348
103362
103317
103340
103396
103410
103397
103453
103781
104779
106287
107234
107236
107167
107299
107661
107934
107781
107318
105044
103280
103192
103198
103209
103207
103209
103225
103252
103281
103308
103337
103363
103318
103348
103418
103434
103432
103519
103912
104988
106628
107676
107696
107597
107584
107681
107886
107839
107767
105339
103272
103192
103200
103214
103212
103209
103222
103244
103268
103294
103325
103356
103318
103355
103440
103458
103471
103598
104077
105217
106868
107893
107926
107810
107722
107718
107894
108004
107938
105395
103256
103192
103204
103221
103220
103212
103221
103240
103262
103287
103316
103344
103319
103361
103461
103485
103513
103683
104276
105498
107088
108010
108055
107913
107785
107778
107938
108087
107981
105120
103252
103194
103209
103230
103232
103219
103222
103240
103260
103283
103308
103330
103321
103373
103482
103518
103560
103772
104513
105879
107382
108133
108162
108006
107862
107912
108047
108160
108000
104832
103259
103201
103218
103242
103246
103231
103225
103240
103260
103282
103302
103316
103330
103394
103508
103560
103614
103870
104794
106339
107717
108249
108252
108127
108037
108082
108198
108226
108037
104774
103286
103216
103231
103257
103263
103245
103233
103242
103262
103282
103296
103304
103355
103433
103547
103613
103680
103993
105089
106734
107935
108321
108315
108242
108191
108207
108294
108286
108062
104806
103325
103239
103249
103277
103282
103261
103245
103248
103265
103284
103293
103295
103411
103499
103614
103685
103765
104141
105341
106953
108011
108358
108375
108345
108307
108301
108356
108345
107894
104774
103359
103268
103275
103302
103306
103281
103260
103258
103273
103289
103293
103287
103511
103609
103723
103785
103873
104295
105533
107054
107984
108370
108487
108474
108448
108421
108405
108318
107299
104405
103379
103303
103310
103334
103337
103305
103280
103276
103288
103298
103294
103280
103667
103777
103886
103925
104009
104452
105750
107191
108032
108399
108587
108600
108585
108561
108495
108144
106421
103984
103396
103344
103353
103371
103375
103338
103308
103304
103313
103312
103295
103275
103892
104012
104111
104116
104180
104656
106229
107667
108193
108424
108638
108674
108663
108649
108597
107974
105605
103737
103418
103390
103404
103417
103417
103379
103347
103343
103345
103327
103296
103274
104184
104308
104389
104360
104394
104951
107004
108243
108327
108445
108599
108734
108720
108710
108538
107917
105153
103644
103452
103442
103463
103474
103463
103425
103395
103389
103378
103338
103295
103274
104510
104643
104686
104628
104632
105287
107664
108597
108494
108500
108620
108788
108772
108601
108499
108094
105052
103633
103501
103508
103533
103540
103516
103476
103451
103441
103411
103346
103294
103274
104779
104932
104933
104866
104846
105505
107875
108732
108703
108711
108757
108820
108802
108669
108562
108413
105112
103678
103574
103602
103626
103620
103582
103541
103520
103501
103449
103359
103296
103274
104902
105078
105070
105013
104985
105541
107348
108781
108772
108826
108859
108867
108858
108840
108776
108584
105140
103777
103684
103727
103747
103725
103678
103637
103614
103577
103499
103389
103307
103274
104910
105106
105106
105072
105036
105354
106536
108379
108687
108792
108833
108863
108889
108875
108867
108087
104781
103895
103829
103880
103897
103874
103830
103789
103753
103687
103582
103453
103345
103282
104918
105117
105118
105090
105047
105153
105901
107676
108675
108752
108835
108843
108887
108882
108826
106542
104442
104001
103984
104046
104075
104076
104054
104020
103968
103872
103732
103576
103430
103323
104927
105101
105130
105111
105066
105102
105537
107037
108577
108789
108921
108901
108943
108935
108060
105231
104275
104104
104125
104201
104267
104311
104332
104326
104283
104176
104001
103800
103596
103436
104940
105066
105147
105184
105146
105154
105442
106563
108154
108874
109065
109029
109082
108755
106408
104642
104270
104214
104238
104317
104422
104518
104604
104653
104654
104584
104415
104175
103900
103665
104950
105067
105233
105347
105323
105307
105475
106270
107945
109131
109141
109163
109168
107749
105242
104453
104320
104316
104320
104389
104504
104638
104776
104892
104957
104965
104879
104681
104377
104032
104960
105147
105404
105597
105592
105571
105652
106285
108002
109241
109196
109237
109222
106907
104872
104444
104380
104382
104379
104430
104530
104672
104830
104975
105083
105154
105193
105124
104920
104487
105029
105334
105665
105932
105952
105934
106009
106697
108452
109298
109261
109291
109177
106596
104825
104481
104429
104423
104422
104452
104535
104667
104817
104954
105063
105168
105270
105285
105248
104863
105261
105629
106022
106348
106393
106377
106445
107214
108825
109349
109342
109345
109130
106545
104895
104548
104478
104459
104459
104471
104536
104642
104759
104867
104970
105089
105207
105291
105292
105004
105647
106030
106473
106839
106901
106874
106905
107627
108946
109327
109354
109385
109055
106517
105017
104657
104551
104511
104500
104496
104538
104612
104692
104786
104909
105022
105103
105235
105246
104929
106150
106536
107012
107395
107462
107404
107342
107965
109105
109337
109342
109386
108979
106556
105207
104825
104669
104595
104556
104536
104550
104602
104671
104774
104923
105020
105036
105070
105068
104727
106752
107138
107623
107987
108044
107936
107744
108262
109241
109383
109375
109402
108964
106717
105471
105053
104844
104720
104640
104593
104580
104610
104682
104803
104951
105023
104986
104908
104846
104521
107430
107805
108259
108553
108594
108445
108143
108544
109341
109478
109422
109512
108923
106947
105800
105344
105074
104887
104751
104661
104622
104626
104698
104843
104979
105021
104930
104785
104700
104432
108135
108470
108833
109024
109050
108914
108586
108840
109433
109580
109523
109606
108811
107197
106199
105708
105358
105088
104879
104735
104663
104649
104718
104882
105004
105024
104887
104720
104648
104437
108776
109030
109264
109363
109377
109305
109068
109167
109539
109650
109643
109651
108793
107545
106695
106167
105703
105314
105015
104810
104708
104684
104759
104941
105052
105052
104876
104705
104636
104441
109262
109411
109537
109584
109589
109558
109448
109437
109613
109685
109689
109646
108798
107917
107285
106736
106125
105570
105160
104896
104772
104747
104844
105042
105145
105129
104899
104713
104630
104448
109580
109646
109702
109720
109706
109673
109596
109531
109589
109676
109680
109343
108814
108322
107934
107408
106636
105869
105327
105009
104875
104860
104993
105199
105298
105254
104967
104750
104630
104454
109775
109792
109801
109792
109751
109689
109588
109503
109496
109515
109429
109151
108908
108729
108578
108146
107221
106223
105538
105171
105043
105045
105209
105414
105507
105412
105095
104846
104657
104462
109874
109870
109846
109810
109728
109615
109498
109416
109402
109395
109316
109186
109101
109132
109148
108865
107837
106638
105823
105415
105302
105323
105499
105699
105780
105610
105283
105018
104754
104477
109905
109885
109835
109761
109614
109482
109417
109402
109412
109421
109389
109360
109429
109548
109598
109427
108413
107114
106214
105785
105684
105720
105896
106082
106145
105883
105543
105270
104958
104591
109911
109863
109781
109679
109542
109454
109444
109466
109516
109567
109616
109691
109795
109862
109874
109740
108875
107640
106737
106324
106230
106275
106450
106613
106639
106289
105914
105619
105291
104877
109914
109872
109787
109702
109594
109530
109567
109642
109731
109810
109886
109952
109992
109992
109968
109835
109193
108182
107404
107052
106974
107036
107215
107355
107314
106899
106456
106100
105777
105345
109970
109933
109860
109800
109729
109689
109750
109836
109916
109977
110018
110036
110031
110013
109979
109834
109390
108699
108171
107940
107912
108018
108204
108314
108195
107759
107232
106760
106446
106003
109987
109988
109955
109896
109839
109818
109881
109954
110011
110046
110059
110055
110042
110017
109945
109767
109485
109143
108933
108879
108949
109106
109266
109326
109178
108794
108237
107623
107293
106868
109991
109993
109996
109904
109848
109879
109960
110025
110065
110083
110079
110067
110047
109995
109854
109665
109541
109500
109569
109691
109836
109985
110080
110095
109971
109714
109291
108621
108214
107886
109987
109991
109991
109872
109851
109935
110033
110080
110105
110103
110088
110071
110037
109933
109744
109637
109633
109822
110031
110182
110298
110393
110455
110484
110443
110272
109995
109493
108952
108854
109694
109983
109956
109846
109863
110021
110101
110119
110128
110106
110086
110063
109998
109840
109686
109664
109844
110113
110269
110353
110427
110495
110556
110608
110633
110591
110386
110015
109389
109414
108002
109115
109757
109842
109934
110105
110115
110121
110129
110096
110074
110036
109929
109758
109693
109826
110103
110275
110339
110385
110441
110494
110548
110613
110671
110701
110649
110380
109801
109403
107779
107857
108901
109872
110033
110112
110116
110118
110125
110067
110049
109989
109859
109751
109801
110059
110251
110314
110335
110371
110411
110441
110484
110550
110630
110698
110731
110643
110226
109413
107791
107791
108331
109692
110116
110115
110113
110109
110089
110026
110015
109942
109835
109796
109990
110201
110283
110298
110311
110338
110356
110366
110388
110448
110548
110639
110715
110737
110545
109611
108104
108262
108615
109584
110127
110114
110081
109486
109791
110013
109991
109920
109851
109921
110121
110239
110272
110273
110282
110290
110281
110260
110252
110287
110421
110560
110655
110690
110665
110062
109047
109184
109284
109659
110093
109942
109145
108302
108722
109783
109988
109927
109911
110029
110162
110239
110253
110248
110246
110232
110191
110132
110092
110077
110202
110444
110586
110622
110653
110419
109793
109790
109775
109756
109577
109068
108229
108202
108203
108739
109765
109967
109976
110061
110169
110233
110234
110222
110207
110170
110101
110024
109965
109911
109891
110207
110502
110555
110587
110512
109637
109790
109786
109551
108910
108353
108207
108209
108209
108209
108818
109794
110018
110055
110173
110229
110217
110199
110172
110113
110031
109975
109923
109869
109721
109580
110244
110486
110530
110534
109046
109410
109392
109109
108711
108391
108238
108219
108219
108219
108293
109153
109958
110066
110180
110224
110204
110178
110145
110054
109992
109965
109891
109646
108768
107915
109273
110330
110484
110510
108715
108814
108898
108984
108850
108685
108550
108443
108409
108428
108495
108913
109695
110098
110186
110221
110194
110159
110090
109897
109574
109186
108587
107616
106272
105756
107361
109701
110396
110490
108716
108719
108894
109082
109115
109030
108897
108805
108856
108991
109088
109182
109644
110086
110190
110221
110187
110105
109407
108238
107244
106496
105801
105191
104837
104818
105917
108635
110023
110432
108722
108794
108995
109158
109166
109121
109146
109269
109479
109657
109728
109701
109799
110052
110173
110224
110144
109097
107003
105573
105038
104866
104825
104826
104828
104829
105493
108020
109843
110153
108730
108882
109001
109127
109202
109319
109558
109816
109989
110054
110052
110023
110002
110029
110061
110155
109564
107172
105286
104840
104839
104839
104840
104840
104841
104861
105598
107807
109879
110031
108737
108922
109023
109216
109463
109768
110029
110163
110191
110170
110137
110103
110067
110013
109910
110037
108787
106373
105160
104855
104854
104958
105076
105110
105080
105237
106026
107863
109820
110057
108742
109033
109263
109612
109949
110170
110254
110251
110221
110181
110147
110111
110076
110023
109926
109934
108496
106463
105423
105150
105150
105475
105769
105843
105794
106027
106750
108028
109339
109911
108918
109383
109769
110088
110256
110302
110287
110252
110207
110166
110133
110101
110070
110031
109946
109840
108592
106937
106068
105817
105829
106306
106724
106860
106802
106972
107466
108074
108354
108298
109384
109879
110180
110305
110329
110308
110265
110208
110152
110112
110081
110057
110034
110009
109958
109807
108943
107737
106986
106730
106740
107213
107688
107917
107858
107830
107893
107828
107444
107092
109884
110210
110334
110349
110326
110270
110196
110133
110083
110046
110019
110005
109994
109981
109952
109838
109392
108633
108033
107766
107743
108077
108507
108788
108803
108539
108121
107544
107114
107102
110168
110332
110367
110344
110279
110188
110137
110108
110084
110053
110027
110012
110002
109990
109963
109887
109720
109375
109009
108777
108713
108843
109106
109331
109440
109113
108400
107594
107148
107114
110282
110367
110361
110302
110202
110170
110160
110150
110130
110100
110068
110041
110023
110008
109985
109946
109898
109801
109667
109537
109458
109432
109502
109616
109688
109550
108884
107994
107402
107124
110331
110374
110339
110252
110221
110226
110237
110229
110205
110168
110117
110072
110046
110030
110016
110002
109995
109981
109956
109913
109859
109795
109780
109838
109830
109814
109498
108759
107982
107197
110369
110386
110340
110292
110308
110314
110308
110279
110239
110177
110112
110067
110047
110045
110046
110050
110057
110062
110058
110043
110014
109983
109987
110054
110022
109987
109968
109575
108771
107683
110417
110416
110377
110366
110367
110343
110306
110263
110213
110141
110073
110042
110045
110057
110074
110089
110100
110106
110104
110092
110075
110066
110094
110183
110199
110159
110177
110140
109581
108579
110420
110422
110408
110386
110351
110318
110276
110221
110150
110053
109993
110001
110043
110079
110107
110122
110130
110132
110128
110118
110102
110094