/*--------------------------------*- C++ -*----------------------------------*\
| =========                 |                                                 |
| \\      /  F ield         | OpenFOAM: The Open Source CFD Toolbox           |
|  \\    /   O peration     | Version:  2.4.0                                 |
|   \\  /    A nd           | Web:      www.OpenFOAM.org                      |
|    \\/     M anipulation  |                                                 |
\*---------------------------------------------------------------------------*/
FoamFile
{
    version     2.0;
    format      ascii;
    class       surfaceScalarField;
    location    "1.6";
    object      phiAlpha;
}
// * * * * * * * * * * * * * * * * * * * * * * * * * * * * * * * * * * * * * //

dimensions      [0 3 -1 0 0 0 0];

internalField   nonuniform List<scalar> 
5952
(
5.44821e-08
-5.44821e-08
1.17858e-07
-6.33763e-08
2.98695e-07
-2.20822e-07
8.89334e-07
-4.89391e-08
7.93589e-07
9.57448e-08
5.23288e-07
2.70301e-07
-2.97429e-09
1.77589e-07
-2.97429e-09
4.43073e-17
-4.08909e-09
2.16994e-09
1.95743e-09
1.45689e-09
-1.45501e-07
2.05239e-10
3.7761e-08
-8.74816e-07
7.75178e-08
-1.32e-07
4.79387e-07
-3.78456e-07
1.53208e-07
1.06061e-07
-2.3708e-07
2.47491e-07
-2.86586e-07
1.03336e-07
-1.47147e-08
2.08187e-08
-4.06314e-19
1.62874e-07
-4.86662e-19
4.39687e-17
-9.32323e-10
3.10226e-09
4.41346e-10
2.46201e-10
-3.1829e-08
9.03656e-12
1.2882e-08
-7.82575e-07
1.14078e-07
-4.15344e-07
2.41235e-07
-5.03943e-07
-1.26397e-07
4.69815e-07
-1.03336e-07
2.91898e-07
-3.42216e-16
3.13721e-16
2.08187e-08
4.83409e-16
-1.74715e-05
9.65714e-06
-2.35417e-05
2.41978e-05
-6.67444e-11
2.05562e-05
-1.95684e-10
1.96245e-11
-1.95012e-09
2.68378e-11
-5.61124e-11
-9.17395e-10
2.33991e-09
-6.92551e-07
-2.2759e-07
-2.78154e-07
-4.94678e-07
7.39097e-07
-3.41785e-16
1.22038e-07
-3.98468e-16
3.6154e-16
-4.70889e-16
5.07161e-16
-5.00856e-05
1.91722e-05
-7.20432e-05
4.03982e-05
-7.27569e-05
2.70272e-05
-2.81302e-10
7.8661e-06
-2.54465e-10
2.87311e-18
2.6661e-16
-6.5651e-10
-1.22895e-07
-5.75842e-07
-5.44622e-07
1.44646e-07
-1.22038e-07
7.55939e-07
-2.53974e-16
3.4536e-16
-4.35906e-16
5.53107e-16
-1.51175e-08
1.51175e-08
-3.13779e-05
4.94659e-06
-6.47133e-05
1.63688e-05
-5.7841e-06
1.81667e-05
-8.73513e-17
2.08201e-06
-1.51177e-16
5.33149e-16
1.18248e-17
-1.95982e-16
-3.1295e-07
-1.46938e-07
-7.55737e-07
5.80441e-07
-7.77612e-09
9.14022e-07
-7.77612e-09
3.83403e-16
2.15673e-08
2.14949e-08
-1.23828e-06
8.85916e-07
-8.91018e-07
3.96846e-07
-1.77126e-06
1.51278e-05
-2.13356e-05
6.84759e-05
-2.467e-05
9.42055e-05
-8.81866e-07
5.65874e-06
2.62533e-17
-8.81866e-07
7.46748e-09
-1.62883e-07
-1.40201e-07
7.28443e-07
-6.10921e-08
1.20368e-06
-6.10921e-08
4.91843e-16
-2.96589e-07
1.43089e-07
2.27327e-07
5.95436e-08
6.24173e-07
5.43248e-16
-0.000217009
0.000148879
-0.000457973
0.000226541
-0.000461811
0.000168575
-6.84452e-05
-2.814e-06
-9.19223e-07
-6.7526e-05
-2.02934e-07
-3.70637e-08
-4.38373e-07
9.54783e-07
-2.50914e-08
3.38377e-07
-2.50914e-08
5.26517e-16
-1.21148e-08
5.36444e-08
2.13381e-09
7.71815e-09
-1.1503e-05
6.4932e-16
-0.000434614
0.000267624
-0.000406235
0.000248494
-0.000223307
8.99995e-05
-3.27173e-05
-8.01775e-07
-2.17955e-06
-0.000157446
-1.02705e-07
-6.79789e-11
-8.43846e-08
1.8731e-07
-1.00344e-16
5.40861e-11
-1.41336e-16
5.78032e-16
-1.77027e-16
5.36444e-08
-2.3887e-16
7.71815e-09
-6.79914e-05
6.79914e-05
-0.000150352
0.000309253
-0.000119093
4.03457e-05
-3.76944e-06
5.30099e-07
-3.22496e-06
-3.85637e-06
-1.82737e-06
-6.13862e-06
1.59866e-12
-3.4196e-11
-8.17231e-11
1.25877e-11
-6.2639e-18
-2.76369e-11
2.85948e-08
-2.85948e-08
-3.41149e-05
0.00010293
-0.000107527
0.000814262
-0.000162351
0.000951385
-4.15793e-05
0.000272735
-3.02246e-06
1.96472e-06
-2.98544e-06
3.17172e-07
3.5415e-07
-6.3041e-06
-2.30338e-06
7.45825e-07
-1.1031e-11
2.28591e-12
1.5562e-12
5.20059e-16
7.83071e-09
6.37874e-10
-1.06883e-06
2.07679e-06
-8.32902e-05
0.000579447
-0.000177005
0.00102419
-0.000191216
0.000966422
-2.31472e-06
0.000371145
-2.74497e-06
2.20901e-06
-3.91637e-06
1.66483e-06
-2.11976e-07
-6.76403e-06
-3.05092e-06
6.24716e-07
-9.13385e-17
2.286e-12
-2.14455e-12
2.14498e-12
2.67783e-10
1.88072e-09
2.07705e-06
6.68076e-16
2.7462e-05
0.000429663
6.61398e-06
0.00104591
-1.62451e-05
0.000986653
-1.144e-05
0.000517306
-1.34765e-05
4.44156e-06
-2.07469e-06
2.79429e-07
1.00349e-06
-5.03897e-06
1.76236e-06
-3.90377e-06
-8.69828e-07
-4.98791e-09
-8.71242e-07
1.41405e-09
-4.19054e-08
-7.53369e-08
-3.19949e-09
-3.87059e-08
-2.73698e-09
-4.41335e-10
-2.41638e-09
-3.20605e-10
-1.91297e-09
-5.01226e-10
-5.19548e-08
-1.13818e-09
-6.97831e-08
-1.32127e-08
-4.24918e-08
-2.72912e-08
-1.45132e-08
-2.79786e-08
-1.45132e-08
-7.92759e-07
-1.88561e-09
-7.88158e-07
-3.18692e-09
-8.15988e-07
-5.24323e-08
-9.77319e-08
-1.12078e-07
-3.14543e-09
-9.50512e-08
-2.02572e-09
-1.41665e-09
-1.7209e-09
-8.08484e-10
-1.31878e-09
-1.53771e-09
-6.79531e-09
-7.73635e-09
-2.22008e-08
-2.7395e-08
-2.96467e-08
-7.98801e-08
-4.41598e-08
-3.36394e-09
-1.23611e-10
-1.82389e-08
2.06253e-10
-2.4122e-07
2.18514e-08
-5.10261e-07
5.17853e-08
-5.83847e-08
-3.31185e-08
-8.21852e-09
-2.15161e-08
-1.06275e-09
-2.2269e-08
1.27329e-09
-4.77193e-09
-2.02485e-10
-1.60129e-08
-4.23734e-09
-3.39147e-08
-2.13266e-08
-7.22192e-10
-5.31823e-10
1.22895e-11
6.59791e-11
-7.14178e-16
2.18543e-10
-6.04505e-16
2.18514e-08
-2.41506e-10
5.20269e-08
-2.34089e-08
2.0703e-10
-2.49404e-08
1.33656e-08
-6.33072e-09
-5.74321e-09
-1.51258e-08
-2.25426e-09
-7.83233e-09
-5.56729e-09
-1.93733e-10
-1.0646e-10
-6.50382e-11
-8.50886e-10
-5.96862e-10
-6.67048e-07
6.67114e-07
-2.629e-05
-2.19645e-05
-4.5899e-06
-0.000138449
-1.26006e-07
-3.70007e-05
-3.88367e-16
-1.25799e-07
-2.8943e-09
1.62599e-08
-7.37517e-11
-7.63582e-18
-1.61754e-09
-1.83392e-15
-1.89774e-12
-1.65939e-15
-1.08357e-10
-4.92863e-18
-5.65677e-11
-1.40166e-09
-6.53429e-10
-0.000103922
-3.84378e-05
-0.000281485
-0.000268041
-0.000328288
-0.000439777
-6.30902e-05
-0.000467852
-2.81261e-06
-0.000171496
-3.86926e-17
-1.11023e-05
-3.45646e-20
-4.62065e-17
3.15547e-19
-1.83436e-15
6.95153e-19
-1.65969e-15
4.28602e-15
-4.29037e-15
5.9514e-10
-3.85683e-16
-1.00518e-08
-0.000420941
-0.000185429
-0.000309709
-0.000378621
-0.000211773
-0.00054078
-0.000107337
-0.000571611
-1.4157e-05
-0.000493586
-3.96687e-17
-8.39501e-05
1.26934e-17
-1.02929e-16
6.74815e-16
-5.66933e-16
6.79234e-16
-1.10203e-15
1.70844e-15
-1.31302e-14
1.30523e-15
-3.66723e-18
-9.38767e-09
-0.0002624
-0.000275536
-0.000155725
-0.000488574
-3.80969e-05
-0.00065783
5.67405e-05
-0.000669279
7.81776e-05
-0.000332486
1.1292e-16
-4.70938e-05
6.03984e-17
-6.34682e-17
3.67989e-16
-9.42921e-17
1.21671e-15
-7.95615e-17
1.24415e-14
5.3657e-15
1.24622e-14
-1.74217e-18
-4.94253e-09
-4.0151e-05
-0.000107377
3.13796e-05
-0.000557671
0.000113492
-0.000742511
8.33192e-05
-0.000413709
7.41426e-07
-2.07238e-05
1.57077e-15
1.42833e-15
4.48074e-17
1.3879e-15
7.69959e-17
-2.48081e-17
7.15735e-17
-1.07461e-16
2.66832e-17
5.43371e-15
1.1992e-18
3.21982e-19
8.79364e-11
3.28168e-05
-1.75093e-05
0.000167251
-0.000644903
0.00024919
-0.000824043
2.07238e-05
-0.000207241
2.65857e-17
-1.32975e-16
-1.0284e-15
-5.60681e-17
-1.28928e-15
1.74503e-15
2.83016e-17
-5.22503e-17
5.43461e-06
-5.09521e-06
2.62708e-06
-4.01722e-06
1.22836e-10
8.74665e-07
2.10771e-10
7.34804e-05
-1.67145e-05
0.000305249
-0.000825669
0.000234854
-0.00075324
2.06269e-17
-2.12901e-05
8.03633e-17
-1.97087e-16
4.38215e-17
-4.98634e-17
-1.81555e-15
-7.71823e-21
2.42112e-06
-2.42112e-06
4.48908e-05
-1.10605e-05
1.9339e-05
3.07896e-07
6.39457e-10
9.52344e-06
8.50228e-10
0.000131295
-0.000202348
0.000363527
-0.00101289
2.12901e-05
-0.000360473
2.01738e-16
-4.5086e-16
6.90384e-12
-6.90441e-12
9.84352e-10
-1.44409e-08
4.66996e-09
-3.68561e-09
3.59211e-05
-1.0288e-10
5.23272e-05
-2.13112e-05
4.29531e-05
9.68242e-06
6.81694e-07
3.8862e-05
1.97517e-07
1.58332e-11
-6.68812e-11
7.35446e-12
-4.69361e-11
5.90037e-12
-6.11023e-12
1.60691e-11
-1.02266e-11
1.19423e-11
1.70635e-12
5.53585e-12
6.40572e-12
-1.50909e-13
9.46001e-12
-1.53537e-13
2.5871e-15
-2.46345e-13
3.0217e-14
-3.971e-13
7.03199e-14
-4.46025e-13
1.98346e-15
2.90624e-14
-4.90436e-13
5.00319e-11
-1.16917e-10
5.95778e-11
-5.64828e-11
2.4923e-11
2.36354e-11
-1.91374e-11
5.14354e-11
-1.74325e-11
1.47726e-15
-1.00557e-11
2.36114e-16
-3.26444e-13
-1.7033e-13
-3.2651e-13
2.62681e-15
-3.6565e-13
5.92112e-14
-4.3853e-13
8.0312e-14
-5.67916e-13
-4.13071e-15
1.47203e-14
-6.805e-13
8.78339e-12
-1.25701e-10
-3.85231e-11
-9.17711e-12
-5.14361e-11
8.15051e-11
-2.22586e-15
1.7757e-15
-2.80242e-15
1.98956e-15
-3.41061e-15
1.02321e-15
-1.75189e-13
1.52328e-15
-2.56802e-13
8.39743e-14
-2.34709e-13
3.77595e-14
-2.03973e-13
5.56969e-14
-1.36554e-13
-4.13537e-14
3.87546e-14
-5.88819e-14
-8.73744e-11
-3.83274e-11
-8.42299e-11
1.27848e-11
-1.84932e-15
-3.8568e-15
-2.12675e-15
2.13249e-15
-2.61572e-15
2.45773e-15
-5.78093e-15
4.06513e-15
-4.82834e-14
1.33071e-14
-4.37539e-14
2.12708e-14
-8.12147e-14
8.91223e-15
-1.35554e-13
7.53465e-14
-1.65765e-12
-1.34121e-13
-3.22331e-12
-2.10761e-11
-1.27852e-11
3.36198e-11
-1.09346e-15
6.89237e-16
-4.97801e-15
7.26492e-17
-4.32348e-15
5.5164e-15
-3.28788e-15
5.56073e-15
-3.59403e-15
4.61099e-15
-3.87799e-15
1.33514e-14
-3.8351e-15
2.14677e-14
-7.46689e-12
7.47162e-12
2.22261e-12
8.14945e-13
5.35904e-13
-4.74652e-14
-3.18412e-12
-8.34525e-11
-3.88089e-16
7.81904e-11
-6.81716e-16
9.82769e-16
-2.514e-15
2.75405e-15
-1.72727e-16
5.87706e-15
-1.02789e-11
1.02895e-11
-5.93525e-09
6.59852e-09
-1.58614e-08
1.34658e-08
-9.3557e-09
8.96043e-09
-1.0681e-12
4.43549e-10
-2.87172e-13
7.68885e-16
4.16919e-12
-2.086e-12
-4.05254e-12
-2.75341e-11
-6.64413e-16
8.8465e-11
-1.20649e-15
1.52488e-15
1.79595e-16
3.39017e-15
3.77404e-15
2.7014e-15
-5.67751e-09
9.69402e-10
-2.02844e-08
1.55865e-08
-2.45982e-08
1.24214e-08
-4.43562e-10
5.52691e-09
-1.36757e-14
2.00964e-16
2.55904e-14
-7.05698e-17
3.8413e-12
2.3315e-12
-1.8414e-12
1.27442e-11
-5.64835e-15
8.41616e-11
-1.28524e-15
-2.83859e-15
1.20332e-16
3.91224e-15
-5.55124e-16
2.82411e-15
-2.31903e-09
3.34677e-10
-1.45866e-08
6.4675e-09
-8.65034e-09
1.22129e-08
-3.14623e-15
1.22263e-10
-2.83345e-15
1.0683e-16
-1.35204e-15
-1.62947e-15
-6.50047e-17
2.25438e-12
-7.15567e-16
-1.84071e-12
1.28771e-12
1.94331e-10
-9.79616e-16
3.96352e-13
-8.56035e-16
3.01859e-15
-4.31579e-14
4.52405e-14
-1.35343e-09
2.48876e-10
-2.24832e-09
1.49089e-11
-1.6845e-10
9.12719e-16
-4.61889e-11
1.12818e-15
-1.24492e-10
6.09387e-12
-1.6681e-10
-1.51306e-11
-9.353e-12
-1.62555e-10
-1.15581e-15
-9.35255e-12
-4.24836e-13
1.96748e-10
-4.43757e-16
-2.8937e-14
-6.32445e-15
9.0315e-15
-4.13623e-11
1.64779e-11
-1.49077e-11
-1.35569e-11
-8.87948e-16
2.03432e-15
-1.17391e-15
5.16216e-16
-2.34483e-10
2.34484e-10
-2.39571e-10
-6.69553e-10
-4.70502e-10
-3.94139e-12
-5.28581e-11
-4.26254e-10
-5.28591e-11
-3.12232e-16
2.57835e-11
1.70964e-10
-4.55639e-13
1.48443e-11
-9.67901e-13
5.70823e-13
-1.71513e-12
7.00075e-12
-6.84036e-16
3.48837e-14
-8.49459e-16
2.20289e-15
-2.13295e-15
1.77415e-15
-2.81707e-09
1.07821e-09
-2.49253e-10
-2.63069e-09
-1.22493e-10
2.5661e-11
-3.42038e-11
-1.09096e-12
-7.77722e-11
-4.92895e-13
-5.94707e-13
1.43711e-11
-7.17672e-14
8.16887e-12
-8.52778e-14
3.19808e-12
-3.12156e-14
6.96407e-12
-1.61145e-16
3.85787e-15
-3.38644e-16
2.37248e-15
-1.48585e-15
2.91732e-15
-1.43565e-09
1.13767e-09
-2.02049e-09
-1.30684e-09
-9.96588e-13
-4.01683e-10
-2.06996e-12
-1.7837e-14
1.92219e-11
4.27179e-11
-4.12251e-13
-7.70805e-14
-3.98041e-13
-1.68988e-14
-1.96619e-13
-2.64986e-13
-1.39044e-13
-2.17258e-14
-1.22323e-13
2.02101e-14
-8.20703e-14
1.62951e-15
-3.07752e-14
-1.23882e-15
-2.53448e-15
-6.81561e-15
4.28583e-16
-3.24185e-16
1.20762e-15
-8.01312e-16
2.53286e-11
-2.92379e-11
2.53281e-11
-8.67648e-13
3.05073e-14
-1.2616e-12
1.29726e-14
-2.45776e-12
-7.94228e-14
-2.49201e-12
-1.53763e-12
-1.2391e-13
-3.07455e-12
-3.48308e-14
-4.82074e-15
-3.05162e-14
3.21165e-14
-1.05508e-14
5.66077e-15
1.00796e-15
7.48243e-16
1.08719e-15
-8.97751e-16
-3.09224e-11
-1.27287e-15
-2.59489e-13
-2.25692e-15
4.23401e-13
-1.63065e-15
1.19595e-14
-8.05234e-14
-4.74373e-16
-6.91357e-12
-2.5488e-13
-2.12915e-11
-3.8482e-12
-1.09162e-11
-3.05267e-11
-2.99483e-13
-2.18882e-11
-1.77078e-15
-2.92088e-13
-1.30161e-15
2.65259e-16
-9.18246e-16
-1.3004e-15
-8.81756e-16
-1.31344e-15
-2.60383e-13
-1.31994e-11
-2.59619e-11
-7.14407e-13
-9.38696e-12
-9.6871e-16
-7.13813e-13
-2.55078e-13
-7.87914e-16
1.84479e-12
-2.23019e-13
-2.38011e-11
-8.85615e-12
-6.28528e-11
-8.71836e-11
-2.74097e-11
-2.19196e-10
-7.14562e-11
-2.47838e-10
-4.91883e-12
-4.4019e-10
-6.25521e-14
-4.85761e-12
-8.5808e-14
-1.30723e-10
-2.68198e-11
-4.7038e-11
2.68793e-12
-1.15916e-15
-3.11508e-11
-8.52229e-16
-1.07018e-15
-2.22861e-13
-1.02931e-15
6.47792e-12
-2.1405e-12
3.01671e-11
-1.59282e-11
-1.20051e-10
-1.00886e-10
-4.54596e-10
-7.40498e-10
-4.54411e-10
-7.90069e-10
-4.44354e-11
-6.9907e-10
-4.42651e-11
-7.084e-11
-4.93211e-11
-8.26782e-11
3.20629e-11
-7.70198e-16
9.85335e-12
-6.20547e-16
-1.2465e-15
-1.51277e-15
-1.10754e-16
5.9505e-13
7.91386e-13
8.01525e-12
-2.04543e-12
8.43375e-11
-1.18225e-12
8.68377e-11
-3.24267e-10
1.53105e-12
-1.07935e-09
1.56182e-11
-1.05762e-09
-1.43604e-09
-2.06255e-10
-2.10307e-10
-2.19191e-11
-6.87256e-10
5.66977e-14
4.37431e-10
-9.50042e-17
5.55587e-14
2.5597e-17
-3.42173e-16
-6.16453e-16
7.91959e-13
1.98879e-13
-1.31357e-13
1.69442e-12
-3.65602e-13
8.0536e-11
-5.47677e-13
3.68614e-11
-4.94258e-13
-1.23151e-10
-8.97604e-10
-1.55919e-09
6.04396e-11
-8.93101e-11
9.03524e-11
-1.06744e-09
-5.93435e-11
-1.97339e-08
5.99817e-09
-1.37821e-07
2.54801e-08
-3.66389e-07
-1.21047e-12
-2.44416e-08
-8.98818e-14
1.21989e-12
4.28433e-13
-1.46376e-13
3.23169e-13
-2.51171e-13
3.90275e-13
-3.73744e-13
2.62659e-10
-1.8161e-13
-1.29654e-09
4.48392e-11
-5.79638e-12
5.69191e-10
-1.33176e-15
3.85182e-08
-5.01079e-08
1.13263e-07
-4.14656e-07
1.45202e-07
-3.98069e-07
1.22777e-08
-2.53096e-07
1.79935e-12
-1.17984e-09
9.86544e-16
-7.85594e-13
3.30563e-13
-1.24119e-13
2.80465e-13
-1.26229e-13
9.87447e-14
-6.24867e-17
-6.20663e-10
-2.12526e-17
-5.79673e-12
1.95161e-16
-1.5533e-15
1.00456e-07
-1.9909e-08
1.75431e-07
-2.84382e-07
1.75097e-07
-3.9801e-07
1.67255e-07
-2.44979e-07
2.40082e-09
-1.70382e-07
-1.25561e-11
-6.50249e-09
1.01756e-13
-3.6158e-16
7.32688e-13
-5.70823e-15
7.32795e-13
1.083e-17
4.24994e-12
2.71623e-12
-1.82985e-11
5.45211e-11
-5.18066e-11
1.07201e-08
-3.02101e-11
1.16999e-07
-8.2335e-16
2.3634e-07
-1.06268e-07
2.27695e-07
-2.36625e-07
2.98914e-07
-2.4131e-07
-7.14218e-10
-7.81668e-08
-1.54434e-15
-2.80665e-09
4.98321e-14
2.41684e-15
4.96766e-14
1.22651e-16
4.39316e-10
1.92238e-11
1.60949e-11
2.07215e-11
-1.19109e-10
4.05923e-16
-9.48894e-12
4.28858e-16
-9.87853e-16
5.10923e-08
-1.47414e-09
3.47534e-07
-5.21988e-11
2.81981e-07
-1.76444e-07
1.04803e-07
-1.19128e-07
-1.71111e-15
-2.96173e-09
5.10925e-16
1.4168e-16
3.67487e-16
3.11919e-16
5.38373e-10
1.83761e-05
-1.48725e-08
4.11187e-05
-5.78456e-08
4.60509e-05
-4.93214e-06
5.32351e-05
-7.18421e-06
4.79475e-05
5.12734e-06
1.08805e-05
1.80494e-05
-4.90415e-05
3.88729e-05
-0.000594681
0.000489122
-0.000872373
0.000277692
-0.00108807
0.000215677
-0.00121989
0.000131779
7.57761e-05
-0.00129567
1.51993e-08
-3.00718e-08
1.61371e-07
-2.04017e-07
2.76128e-05
-1.28396e-08
1.04711e-05
5.62733e-06
-6.86073e-05
2.53671e-05
-0.000470109
0.000299102
-0.000998175
0.000532562
-0.00105173
0.000542676
-0.00114377
0.000369729
-0.00119401
0.000265923
-0.00121631
0.000154076
7.00393e-05
-0.00121057
-8.54672e-10
-2.92171e-08
3.24232e-09
-8.16753e-07
-2.78224e-08
1.82252e-08
1.87897e-06
3.08206e-05
-0.000351328
0.000322584
-0.000908859
0.000733892
-0.00102573
0.000649435
-0.00100773
0.000524679
-0.000986041
0.000348036
-0.000930278
0.000165289
-0.000896576
7.60994e-05
2.55443e-05
-0.000866613
-4.8012e-08
1.87948e-08
2.00942e-06
4.89016e-07
1.21236e-06
8.15293e-07
-0.00025698
0.000275476
-0.000706968
0.000798229
-0.000873512
0.000900435
-0.000854441
0.000630365
-0.000467038
0.000192198
-0.000191457
1.38849e-05
-7.65022e-05
-3.11124e-09
-2.03668e-05
-2.67831e-10
-2.09867e-17
-5.85421e-06
-4.4344e-06
-1.68941e-05
7.18391e-07
3.42762e-06
-8.83467e-05
4.7393e-05
-0.000647259
0.000708403
-0.00090815
0.00105912
-0.00101397
0.00100625
-0.000287469
0.000208829
-1.38876e-05
1.35506e-05
-8.1273e-16
-2.69491e-09
-5.81032e-16
-3.11124e-09
-3.68914e-16
-2.67832e-10
-8.70255e-17
-3.5897e-16
-5.42561e-06
-2.68671e-05
-7.33743e-06
2.05338e-06
-0.000182088
0.00015897
-0.000618418
0.001044
-0.000846573
0.00128728
-0.000405354
0.000761625
-1.35685e-05
4.81063e-05
-1.79159e-08
4.82071e-16
-3.39458e-08
3.26892e-09
-2.93267e-08
4.06812e-09
-2.92398e-11
-2.33017e-09
-2.92391e-11
-5.43159e-16
-7.29218e-06
-2.31561e-05
-6.56816e-06
4.85884e-06
-0.000382677
0.000525836
-0.000649089
0.00131041
-0.000697526
0.00135652
-4.81063e-05
0.000306573
-5.9465e-16
5.44137e-16
-5.48118e-11
5.48117e-11
-1.10382e-08
4.81679e-10
-2.18715e-08
7.45359e-10
-1.68971e-09
-3.11762e-10
-1.33439e-10
-6.56847e-10
3.56084e-06
-2.67169e-05
-1.01761e-05
9.2166e-06
-0.000291423
0.000809681
-0.000483861
0.00150285
-0.000448476
0.00138356
-3.94118e-10
6.8123e-05
-3.94118e-10
4.99152e-16
-2.00806e-09
9.11641e-10
-2.36346e-09
1.67728e-10
-9.81042e-10
-4.0652e-11
-1.10908e-10
-1.1708e-11
-1.92125e-10
1.65148e-13
7.20077e-07
-2.05805e-05
-5.65168e-05
1.5995e-05
-0.000301048
0.000803593
-0.000510137
0.00171194
-0.00017779
0.00126698
-3.70626e-09
1.12898e-05
-3.70626e-09
4.32587e-16
-1.36791e-08
5.14859e-09
-1.82561e-09
6.83086e-09
-1.05115e-10
-1.23184e-17
-1.16823e-10
-1.05249e-16
-5.58262e-15
3.11048e-11
9.78404e-07
-9.11953e-06
-9.26963e-06
1.02923e-05
-0.000276039
0.000611813
-0.00040629
0.00184219
-1.13008e-05
0.00117821
-5.03655e-11
1.02442e-09
-4.40068e-09
4.35032e-09
-3.10679e-09
4.12482e-08
-1.79247e-16
6.12225e-10
-1.48828e-16
-6.92084e-17
-8.00043e-17
-1.85798e-16
-5.60472e-15
-5.79547e-17
-6.0233e-06
-2.19633e-06
-1.27274e-05
1.84685e-05
-0.000268375
7.33365e-05
-0.000293609
0.00186742
-1.88879e-08
0.000688312
-2.08028e-08
8.14651e-10
-5.64305e-08
1.37748e-07
-6.12225e-10
1.35803e-07
-1.56379e-16
7.7482e-17
-9.85765e-17
-1.61928e-16
-6.78151e-16
3.64692e-16
-4.67783e-16
3.27375e-16
-3.56992e-06
6.76889e-05
-7.96287e-08
1.34266e-05
-6.12151e-05
0.000136024
-6.98316e-05
7.00653e-06
-5.63047e-08
1.43448e-05
-5.41366e-08
8.86062e-10
-2.75359e-08
1.34918e-07
-3.15052e-12
9.48971e-08
-3.15058e-12
1.13472e-16
-1.12534e-12
-3.3547e-11
3.41438e-13
-1.12596e-11
3.41543e-13
-5.4119e-16
-0.00133623
5.19442e-05
-0.000944843
-1.69594e-05
-0.000909849
-3.49935e-05
-0.00080049
-0.000111356
-0.00103693
-0.000146386
-0.000866906
-0.000170027
-0.000706251
-0.000160654
-0.000489761
-0.00021649
-0.000386757
-9.98212e-05
-0.000143188
-0.000232396
1.06039e-06
-0.000142464
1.06039e-06
-0.00117326
1.46286e-05
-0.00112997
-6.02468e-05
-0.00108223
-8.25465e-05
-0.00103223
-0.000161354
-0.000976101
-0.000202516
-0.000860696
-0.000285431
-0.000778864
-0.000242483
-0.000627799
-0.000367552
-0.000442539
-0.000285082
-0.000334251
-0.000340683
-0.000200574
-0.000268219
-0.000186759
-0.000855945
8.11588e-06
-0.000910064
-2.76964e-05
-0.000917798
-9.73925e-05
-0.000814272
-0.000265024
-0.000711869
-0.000304919
-0.000586391
-0.000410903
-0.000497685
-0.000331181
-0.000464357
-0.000400881
-0.000355008
-0.000394431
-0.00025386
-0.000441832
-0.000125764
-0.000392243
-0.000298671
-3.55156e-06
4.90163e-17
-5.73949e-05
-9.98361e-17
-0.000256997
-1.13895e-16
-0.000518106
-4.45224e-05
-0.000573192
-0.000266983
-0.000505135
-0.000478955
-0.000375892
-0.000460428
-0.000303565
-0.000473225
-0.000200947
-0.000497049
-0.000120791
-0.000521987
-5.97868e-05
-0.000451081
-0.000358458
-2.82691e-16
-2.66589e-17
-2.42016e-16
-1.41611e-16
-2.74399e-16
-8.04122e-17
-4.45224e-05
-1.18453e-16
-0.000353973
-0.000112121
-0.000273076
-0.000602576
-0.000177086
-0.000555443
-0.000104991
-0.000545346
-9.33306e-05
-0.000508709
-6.27046e-05
-0.000552613
-1.07258e-05
-0.00050306
-0.000378802
-2.52938e-16
-2.21345e-10
-1.40856e-16
-2.57118e-16
-4.0384e-17
-1.67801e-16
7.963e-09
-7.963e-09
-6.60374e-05
-0.000206945
-7.78395e-06
-0.000732375
2.56241e-05
-0.000590705
4.57263e-05
-0.000565448
8.62235e-05
-0.000549206
0.000124917
-0.000587453
7.4642e-05
-0.000452785
-0.000344132
-1.96025e-08
-1.08945e-10
3.42724e-10
-2.90763e-07
3.37542e-08
-3.34115e-08
3.23694e-06
-1.53124e-05
0.000137594
-0.000599931
0.000178437
-0.00079374
0.000179103
-0.000591371
0.0001939
-0.000580245
0.000204239
-0.000559545
0.00017746
-0.000565308
0.000118258
-0.000393583
-0.000230493
3.69261e-09
-2.62663e-11
-2.96765e-06
-2.29613e-07
-3.58663e-06
-0.000299808
0.000121029
-0.000453887
0.000335314
-0.000863567
0.000336881
-0.000795307
0.000329402
-0.000583893
0.000351128
-0.000601971
0.000356358
-0.000564775
0.000321459
-0.000543824
0.000216497
-0.000270029
1.14764e-05
4.83866e-12
-7.18332e-17
1.57702e-05
-2.04667e-05
0.000191859
-0.000684308
0.000387574
-0.000757788
0.000458169
-0.000934162
0.000447239
-0.000784376
0.000460442
-0.000597096
0.00053183
-0.000673358
0.000498104
-0.00053105
0.000306118
-0.000351837
3.96806e-05
-3.2388e-05
5.05614e-05
2.67396e-17
-1.5658e-16
0.000169304
-0.000213674
0.000357753
-0.000878272
0.00049797
-0.000898005
0.000543164
-0.000979357
0.000533374
-0.000774587
0.000609895
-0.000580998
0.000573008
-0.000323402
0.000525301
-0.000152846
0.000535854
-0.000120575
0.000413059
8.71237e-05
0.000375925
1.20715e-05
-1.20715e-05
0.000269619
-0.000458559
0.000428976
-0.000992479
0.000575874
-0.0010164
0.000511671
-0.000666903
0.00035619
-0.00021207
0.000154112
-1.84328e-05
3.94537e-05
-5.75831e-08
4.49821e-05
-1.36602e-10
4.41005e-05
-3.55211e-12
0.00010878
2.05301e-05
0.000283351
7.42687e-05
-0.000137371
0.000416105
-0.000981022
0.000441961
-0.000916874
0.000269286
-0.000393913
5.72963e-05
-8.51071e-05
1.83079e-05
-4.25244e-08
1.02441e-16
-1.24926e-07
7.40363e-17
-5.75831e-08
6.60425e-17
-1.36602e-10
5.03664e-17
-3.5521e-12
2.05301e-05
5.27177e-17
0.000187914
5.06215e-05
-5.06215e-05
0.000145339
-8.95206e-05
0.000189566
-2.20507e-05
0.00019853
-1.95348e-07
0.000195382
-1.98667e-05
0.000147166
5.26648e-05
8.8307e-05
8.13605e-05
-8.86527e-05
0.0001512
-0.000489172
0.000400519
-0.000672161
0.000182989
-0.000859504
0.000187344
7.12469e-05
-0.000930751
6.96426e-05
-0.000120264
1.02561e-05
-4.0267e-05
1.61475e-05
-4.33764e-06
1.43631e-05
4.19765e-06
-7.698e-05
4.03291e-05
-0.000335728
0.000296138
-0.000653897
0.000405909
-0.000831186
0.000324027
-0.000848652
0.000417985
-0.000907831
0.000242023
-0.00096505
0.000244562
7.50962e-05
-0.000514555
3.58134e-05
-0.000114703
5.88116e-06
-1.97799e-05
-4.55361e-07
1.99101e-06
-3.18278e-05
3.5578e-05
-0.000440276
0.000382072
-0.000706786
0.000562648
-0.000827414
0.000526537
-0.000940988
0.000437601
-0.000952655
0.00042943
-0.000982225
0.000271577
-0.000728168
0.000262031
5.07894e-05
-0.000132176
4.82939e-06
-1.97537e-05
-7.17295e-07
-8.83633e-06
-1.68295e-05
1.81119e-05
-0.000337915
0.000352944
-0.000617729
0.000661886
-0.000648472
0.00059339
-0.00066759
0.000545655
-0.000722361
0.00049245
-0.000714943
0.00042189
-0.000716822
0.000273442
-0.000714048
0.00025924
0.000108427
-0.00047257
2.1365e-06
-2.18902e-05
5.12326e-07
9.73343e-07
-0.000255069
0.000274367
-0.000619955
0.000711446
-0.000707413
0.000749344
-0.000778824
0.000664802
-0.000854151
0.000620989
-0.000876116
0.000514447
-0.000867993
0.000413821
-0.000854643
0.000260092
-0.000777057
0.000185324
3.96771e-05
-0.000704013
2.66079e-06
-2.45509e-05
-5.35549e-05
5.44259e-05
-0.000441775
0.000652253
-0.00062817
0.000897843
-0.000684072
0.000805236
-0.000711313
0.00069203
-0.000727344
0.00063702
-0.00070786
0.000494963
-0.000699247
0.000405205
-0.000679626
0.00024047
-0.000634858
0.000140556
-5.91972e-05
-0.000535984
-5.67842e-05
-1.62543e-05
-0.000506988
0.000504994
-0.000647891
0.000793155
-0.000709634
0.000959588
-0.000683412
0.000779024
-0.000681261
0.000689875
-0.000678044
0.000633787
-0.000682658
0.000499577
-0.000700119
0.000422666
-0.00070833
0.000250052
-0.000544608
6.06496e-05
-6.16783e-05
-0.000404777
-0.000163331
5.93009e-05
-0.000287114
0.000617031
-0.000431964
0.000938005
-0.000441972
0.000969596
-0.000489044
0.000826116
-0.000559127
0.000759961
-0.000597841
0.00067249
-0.00066162
0.000563356
-0.000718223
0.000479269
-0.000681024
0.000273432
-0.000206974
4.12219e-05
-0.000102316
-0.000162715
-0.000127946
6.17055e-05
-0.00036863
0.000857715
-0.000465135
0.00103451
-0.000498343
0.0010028
-0.000468459
0.000796231
-0.000471651
0.000763161
-0.000493939
0.000694781
-0.000551114
0.000620531
-0.000603734
0.000531889
-0.000617654
0.000299209
-0.000391418
0.000123279
-0.000363311
-0.000215865
-0.000151486
8.72675e-05
-0.000117803
0.000824032
-0.00017057
0.00108727
-0.00014223
0.00097355
-0.000232458
0.000885457
-0.000362518
0.000893145
-0.000401978
0.000734241
-0.000417354
0.000635907
-0.000349476
0.000464011
-0.000288757
0.000240822
-0.000363917
0.000208224
-0.000427959
-0.00029927
-4.33895e-05
0.000122996
-0.000166567
0.000947209
-0.000249349
0.00117005
-0.000335161
0.00105955
-0.000348132
0.000898012
-0.000351532
0.000896489
-0.000357755
0.000740464
-0.000309514
0.000587665
-0.00024066
0.00039517
-0.000113468
0.000113847
-0.000102243
0.000196999
-0.000465907
-6.42947e-05
1.29455e-05
0.000287723
5.79474e-05
0.000423818
6.32503e-05
0.00116485
6.33424e-05
0.00105975
-5.72148e-05
0.00101945
-0.000215486
0.00105478
-0.00023016
0.000755139
-0.000254696
0.000612201
-0.00023109
0.000371565
-0.000144466
2.72237e-05
4.70058e-05
5.52682e-06
0.000214679
-0.00063358
-0.000939035
5.63386e-05
-0.000352141
-4.40506e-06
-0.000205887
-3.67903e-06
-0.000798042
-1.64607e-05
-0.000776969
-2.10729e-05
-0.000718611
-5.83582e-05
-0.000642668
-7.59426e-05
-0.000537928
-9.87131e-05
-0.000388802
-0.000118008
-0.000240199
-9.1185e-05
2.36765e-05
-0.000213601
2.45636e-05
-0.000119356
1.41762e-05
-0.000115899
-7.71931e-06
-0.00010909
-1.05078e-05
-0.000114417
-1.09909e-05
-0.000337875
-3.60675e-05
-0.000396015
-4.96189e-05
-0.000377039
-0.000116051
-0.000407559
-0.000115563
-0.000236678
-0.000188849
-0.00011146
-7.35808e-05
-0.000119066
-0.000175316
-5.40459e-05
-0.00012803
1.08627e-05
-0.000125742
-1.0165e-05
-0.000128118
-8.18801e-06
-0.000180074
-9.86564e-05
-0.000141933
-0.000160335
-0.000131765
-0.000186773
-0.000280748
-0.000320861
-0.000484995
-0.000215509
-0.000326137
-0.000394463
-0.000158931
-0.000245634
-0.000135356
-0.000198891
-0.000189402
-0.000200372
5.29174e-05
-0.000117148
-5.53821e-05
-0.000362221
-0.000139124
-0.000494654
-0.000238831
-0.000472633
-0.000235726
-0.000479926
-0.000184099
-0.000373814
-0.000422355
-0.000333451
-0.00026049
-0.00032223
-0.000403824
-0.00016581
-0.000482358
-5.06685e-05
-0.000491847
-0.000572075
-0.000651792
8.50447e-06
-0.000650592
-5.65823e-05
-0.000573753
-0.000189996
-0.000407445
-0.000223798
-0.000344501
-0.000218466
-0.000316822
-0.000125127
-0.000250335
-0.000171063
-8.76071e-05
-0.000314653
-1.73154e-05
-0.000248625
-4.40258e-05
-0.000252841
-5.40665e-05
-0.000481806
-0.000626142
-0.000454653
-7.28261e-05
-0.000498831
-1.24044e-05
-0.000188618
-9.39903e-05
-6.03325e-05
-2.22352e-05
-8.91374e-05
-9.71584e-05
-3.52778e-05
-9.28672e-05
-4.37001e-05
-5.74466e-06
-7.12653e-06
-1.55104e-06
3.42742e-06
-2.47962e-06
5.7329e-05
-4.61213e-06
0.000143797
-0.000221357
-0.000482345
-0.000325261
-0.000115159
-0.000302626
-1.40312e-05
-1.75028e-05
-6.96566e-06
-1.63542e-05
-3.37484e-05
-0.000123955
-3.63405e-07
-5.42078e-06
-0.000108116
2.56396e-08
-1.96511e-05
5.03507e-08
-1.46236e-06
7.82178e-09
-2.55049e-06
-8.59639e-07
-3.63127e-06
9.33295e-06
-3.50656e-06
-0.000401302
-0.00018367
-9.59966e-05
-0.000109226
-6.28822e-05
-2.92932e-06
-2.99246e-05
3.70266e-08
-2.38315e-05
2.77638e-08
-3.35099e-07
1.67455e-05
-8.67626e-08
-1.22041e-06
-1.81457e-07
3.04486e-07
-6.14838e-06
1.02592e-06
-2.01437e-05
1.68286e-06
-3.76358e-05
1.22805e-06
-2.9701e-05
-0.000199215
-0.00011148
-0.000449383
-0.00010806
-0.000227344
3.73591e-05
-9.90383e-05
1.76681e-07
-1.98074e-06
8.13122e-08
-2.40539e-07
1.14615e-07
-1.18565e-07
1.3446e-07
-2.01482e-07
6.24846e-05
-2.10891e-05
0.000128987
-0.000162213
5.68812e-05
-0.000181732
5.29577e-06
-2.6376e-05
-7.54245e-05
-0.000157984
-0.000709708
-9.21276e-06
-0.000713405
1.38002e-06
-0.000306389
1.11065e-07
-7.21812e-07
1.32967e-07
-2.40562e-07
1.58212e-07
-1.4177e-07
1.63967e-07
-2.04723e-07
0.000141607
-1.18655e-05
0.000248481
-0.00024766
0.000212821
-0.000146068
6.56426e-05
-6.08524e-05
-9.78191e-06
7.56467e-05
-0.000849649
0.000281461
-0.000919219
1.40294e-05
-0.000443076
2.45208e-07
-1.71665e-07
1.52745e-07
-1.73937e-07
2.0154e-07
-1.64726e-07
2.00058e-07
-2.05135e-07
0.000111775
-1.75085e-07
0.000302983
-7.21892e-05
0.000244515
-8.7604e-05
0.000138648
-6.35984e-05
0.000202602
0.000297826
-0.000932797
0.000393205
-0.0010146
2.76494e-05
-0.00031787
8.68413e-08
2.73403e-05
1.89298e-07
-1.58849e-05
2.202e-07
-2.80313e-06
2.0902e-07
-1.56616e-07
3.05913e-06
-3.03778e-06
0.000139696
-1.7569e-06
0.000295699
-2.48498e-05
0.000189192
4.28971e-05
0.000427139
-6.74911e-06
7.98768e-05
-0.000167171
-1.23852e-10
1.266e-06
5.60567e-11
1.77116e-10
5.60444e-11
1.28969e-14
4.61577e-05
1.98921e-05
0.000142256
0.000940525
0.000143139
0.000985469
5.4927e-05
0.000782963
-8.72423e-07
0.000124708
1.83206e-05
-1.81545e-05
4.04783e-06
8.43655e-06
-5.04768e-05
5.07197e-05
-1.19769e-05
0.000101048
-0.00039736
-2.64881e-08
1.0814e-06
1.625e-06
2.46454e-06
3.45859e-07
2.09363e-06
2.00169e-05
1.2929e-07
0.000161761
4.25622e-05
0.00033881
0.000804428
0.00028309
0.000838367
0.000208736
0.000332294
0.000158536
-6.19517e-05
4.37942e-05
-8.34629e-05
-0.000580339
0.00015041
-1.44089e-06
1.44037e-05
-0.000143478
-3.59491e-07
5.56183e-16
4.40115e-07
3.62061e-08
3.80643e-07
8.75112e-07
1.02883e-07
3.30696e-07
4.26621e-05
1.36192e-08
0.000365141
0.000108635
0.000391531
0.000659164
0.000425944
0.000297733
0.000226145
-7.90199e-05
0.0002508
-0.000377794
-0.000626781
0.000423771
7.45938e-08
-6.53486e-05
8.19969e-06
4.33824e-16