/*--------------------------------*- C++ -*----------------------------------*\
| =========                 |                                                 |
| \\      /  F ield         | OpenFOAM: The Open Source CFD Toolbox           |
|  \\    /   O peration     | Version:  v1606+                                |
|   \\  /    A nd           | Web:      www.OpenFOAM.com                      |
|    \\/     M anipulation  |                                                 |
\*---------------------------------------------------------------------------*/
FoamFile
{
    version     2.0;
    format      ascii;
    class       volScalarField;
    location    "0.0026";
    object      nut;
}
// * * * * * * * * * * * * * * * * * * * * * * * * * * * * * * * * * * * * * //

dimensions      [0 2 -1 0 0 0 0];

internalField   nonuniform List<scalar> 
2450
(
2.36741e-05
1.79035e-05
2.98392e-05
0.000228793
0.000428712
0.000482685
0.000502031
0.000507434
0.000506716
0.000505617
0.000504602
0.000503954
0.000503549
0.000503288
0.000503113
0.000502993
0.000502907
0.000502843
0.000502796
0.00050276
0.000502731
0.000502707
0.000502688
0.000502672
0.000502658
0.000502647
0.000502636
0.000502628
0.00050262
0.000502613
0.000502606
0.0005026
0.000502595
0.00050259
0.000502586
0.000502582
0.000502578
0.000502574
0.000502571
0.000502568
0.000502565
0.000502562
0.00050256
0.000502557
0.000502555
0.000502553
0.000502551
0.000502549
0.000502548
0.000502546
0.000502545
0.000502544
0.000502543
0.000502542
0.000502541
0.00050254
0.00050254
0.000502539
0.000502539
0.000502539
0.000502538
0.000502538
0.000502538
0.000502538
0.000502537
0.000502536
0.000502534
0.000502531
0.000502527
0.000502525
1.78053e-05
1.72977e-05
4.86518e-05
0.000304934
0.000450901
0.000490205
0.000504666
0.000507769
0.000506795
0.00050561
0.000504605
0.000503965
0.000503562
0.0005033
0.000503124
0.000503001
0.000502913
0.000502848
0.0005028
0.000502762
0.000502732
0.000502708
0.000502689
0.000502672
0.000502658
0.000502647
0.000502636
0.000502627
0.000502619
0.000502612
0.000502606
0.0005026
0.000502595
0.00050259
0.000502586
0.000502582
0.000502578
0.000502574
0.000502571
0.000502568
0.000502565
0.000502562
0.000502559
0.000502557
0.000502555
0.000502553
0.000502551
0.000502549
0.000502548
0.000502546
0.000502545
0.000502544
0.000502543
0.000502542
0.000502541
0.00050254
0.00050254
0.000502539
0.000502539
0.000502539
0.000502539
0.000502539
0.000502538
0.000502538
0.000502537
0.000502536
0.000502533
0.000502529
0.000502525
0.000502524
2.9807e-05
4.8877e-05
0.000208093
0.000406628
0.000477294
0.000499563
0.000507624
0.000507892
0.00050655
0.000505367
0.000504461
0.000503887
0.000503519
0.000503276
0.00050311
0.000502993
0.000502908
0.000502846
0.000502798
0.000502762
0.000502732
0.000502709
0.00050269
0.000502674
0.00050266
0.000502649
0.000502639
0.00050263
0.000502622
0.000502615
0.000502609
0.000502604
0.000502599
0.000502594
0.00050259
0.000502586
0.000502583
0.000502579
0.000502576
0.000502573
0.00050257
0.000502567
0.000502564
0.000502562
0.00050256
0.000502558
0.000502556
0.000502554
0.000502552
0.000502551
0.00050255
0.000502548
0.000502547
0.000502547
0.000502546
0.000502545
0.000502545
0.000502544
0.000502544
0.000502543
0.000502543
0.000502543
0.000502543
0.000502543
0.000502542
0.00050254
0.000502537
0.000502531
0.000502526
0.000502524
0.000231772
0.000306515
0.000407166
0.000472871
0.000497009
0.000507212
0.000508593
0.000507522
0.000506175
0.000505018
0.000504259
0.000503773
0.000503453
0.000503236
0.000503085
0.000502977
0.000502898
0.000502839
0.000502794
0.000502759
0.000502731
0.000502708
0.00050269
0.000502674
0.000502661
0.00050265
0.00050264
0.000502632
0.000502624
0.000502618
0.000502612
0.000502607
0.000502602
0.000502598
0.000502593
0.00050259
0.000502586
0.000502582
0.000502579
0.000502576
0.000502573
0.000502571
0.000502568
0.000502566
0.000502563
0.000502561
0.000502559
0.000502557
0.000502556
0.000502554
0.000502553
0.000502552
0.000502551
0.00050255
0.000502549
0.000502548
0.000502548
0.000502547
0.000502547
0.000502547
0.000502546
0.000502546
0.000502546
0.000502546
0.000502545
0.000502543
0.000502539
0.000502533
0.000502526
0.000502524
0.000430581
0.000452656
0.000478107
0.000497126
0.000507051
0.000509349
0.000508264
0.000506887
0.000505556
0.000504641
0.000504041
0.000503644
0.000503374
0.000503187
0.000503054
0.000502957
0.000502884
0.00050283
0.000502788
0.000502754
0.000502728
0.000502706
0.000502688
0.000502673
0.000502661
0.00050265
0.00050264
0.000502632
0.000502625
0.000502619
0.000502613
0.000502608
0.000502603
0.000502599
0.000502595
0.000502591
0.000502587
0.000502584
0.000502581
0.000502578
0.000502575
0.000502572
0.000502569
0.000502567
0.000502565
0.000502563
0.000502561
0.000502559
0.000502557
0.000502556
0.000502554
0.000502553
0.000502552
0.000502551
0.00050255
0.000502549
0.000502549
0.000502548
0.000502548
0.000502548
0.000502548
0.000502547
0.000502547
0.000502547
0.000502546
0.000502544
0.00050254
0.000502534
0.000502527
0.000502524
0.000484517
0.000491249
0.000500142
0.000507464
0.000509515
0.000508621
0.000507331
0.000505966
0.00050497
0.000504292
0.000503831
0.000503515
0.000503293
0.000503134
0.000503018
0.000502933
0.000502868
0.000502818
0.000502779
0.000502748
0.000502723
0.000502703
0.000502686
0.000502671
0.000502659
0.000502649
0.00050264
0.000502632
0.000502625
0.000502619
0.000502613
0.000502608
0.000502603
0.000502599
0.000502595
0.000502591
0.000502587
0.000502584
0.000502581
0.000502578
0.000502575
0.000502572
0.00050257
0.000502567
0.000502565
0.000502563
0.000502561
0.000502559
0.000502557
0.000502556
0.000502555
0.000502553
0.000502552
0.000502551
0.00050255
0.00050255
0.000502549
0.000502548
0.000502548
0.000502548
0.000502547
0.000502547
0.000502547
0.000502547
0.000502546
0.000502544
0.00050254
0.000502533
0.000502526
0.000502524
0.000502858
0.000505456
0.000508101
0.00050883
0.000508417
0.000507388
0.000506146
0.000505176
0.00050448
0.000503989
0.000503642
0.000503393
0.000503213
0.000503081
0.000502982
0.000502907
0.00050285
0.000502805
0.000502769
0.000502741
0.000502718
0.000502698
0.000502682
0.000502669
0.000502657
0.000502647
0.000502638
0.000502631
0.000502624
0.000502618
0.000502612
0.000502607
0.000502603
0.000502598
0.000502594
0.000502591
0.000502587
0.000502584
0.000502581
0.000502578
0.000502575
0.000502572
0.000502569
0.000502567
0.000502565
0.000502563
0.000502561
0.000502559
0.000502557
0.000502556
0.000502554
0.000502553
0.000502552
0.000502551
0.00050255
0.000502549
0.000502549
0.000502548
0.000502548
0.000502547
0.000502547
0.000502547
0.000502546
0.000502546
0.000502545
0.000502543
0.000502539
0.000502533
0.000502525
0.000502523
0.000507561
0.000508125
0.000508228
0.000507764
0.000507045
0.000506054
0.000505213
0.000504568
0.00050409
0.000503737
0.000503477
0.000503283
0.000503139
0.00050303
0.000502946
0.000502881
0.000502831
0.000502791
0.000502759
0.000502733
0.000502711
0.000502693
0.000502678
0.000502666
0.000502654
0.000502645
0.000502636
0.000502629
0.000502623
0.000502617
0.000502611
0.000502606
0.000502602
0.000502598
0.000502594
0.00050259
0.000502587
0.000502583
0.00050258
0.000502577
0.000502574
0.000502572
0.000502569
0.000502567
0.000502564
0.000502562
0.00050256
0.000502558
0.000502557
0.000502555
0.000502554
0.000502553
0.000502551
0.00050255
0.000502549
0.000502549
0.000502548
0.000502547
0.000502547
0.000502546
0.000502546
0.000502546
0.000502546
0.000502545
0.000502544
0.000502542
0.000502538
0.000502532
0.000502524
0.000502522
0.000507054
0.00050714
0.000506844
0.0005064
0.000505717
0.000505075
0.00050454
0.000504116
0.000503786
0.000503532
0.000503337
0.000503187
0.000503072
0.000502982
0.000502912
0.000502857
0.000502813
0.000502777
0.000502748
0.000502725
0.000502705
0.000502688
0.000502674
0.000502662
0.000502652
0.000502643
0.000502635
0.000502627
0.000502621
0.000502615
0.00050261
0.000502606
0.000502601
0.000502597
0.000502593
0.00050259
0.000502586
0.000502583
0.00050258
0.000502577
0.000502574
0.000502571
0.000502569
0.000502566
0.000502564
0.000502562
0.00050256
0.000502558
0.000502556
0.000502555
0.000502553
0.000502552
0.000502551
0.00050255
0.000502549
0.000502548
0.000502547
0.000502547
0.000502546
0.000502546
0.000502545
0.000502545
0.000502545
0.000502544
0.000502543
0.000502541
0.000502537
0.000502531
0.000502523
0.000502521
0.00050591
0.000505896
0.000505617
0.000505222
0.000504797
0.000504403
0.000504064
0.000503781
0.000503552
0.000503367
0.000503221
0.000503105
0.000503012
0.000502939
0.00050288
0.000502833
0.000502795
0.000502764
0.000502738
0.000502716
0.000502698
0.000502683
0.00050267
0.000502659
0.000502649
0.00050264
0.000502632
0.000502626
0.00050262
0.000502614
0.000502609
0.000502605
0.0005026
0.000502596
0.000502592
0.000502589
0.000502585
0.000502582
0.000502579
0.000502576
0.000502573
0.000502571
0.000502568
0.000502566
0.000502563
0.000502561
0.000502559
0.000502557
0.000502556
0.000502554
0.000502553
0.000502551
0.00050255
0.000502549
0.000502548
0.000502547
0.000502546
0.000502546
0.000502545
0.000502545
0.000502544
0.000502544
0.000502544
0.000502543
0.000502542
0.00050254
0.000502536
0.000502529
0.000502522
0.000502519
0.000504845
0.000504846
0.000504678
0.000504443
0.000504189
0.000503945
0.000503724
0.000503533
0.00050337
0.000503235
0.000503125
0.000503034
0.000502961
0.0005029
0.000502851
0.000502811
0.000502778
0.000502751
0.000502728
0.000502708
0.000502692
0.000502678
0.000502666
0.000502655
0.000502646
0.000502638
0.00050263
0.000502624
0.000502618
0.000502613
0.000502608
0.000502603
0.000502599
0.000502595
0.000502592
0.000502588
0.000502585
0.000502581
0.000502578
0.000502575
0.000502573
0.00050257
0.000502567
0.000502565
0.000502563
0.000502561
0.000502559
0.000502557
0.000502555
0.000502553
0.000502552
0.000502551
0.000502549
0.000502548
0.000502547
0.000502546
0.000502545
0.000502545
0.000502544
0.000502544
0.000502543
0.000502543
0.000502542
0.000502542
0.000502541
0.000502539
0.000502535
0.000502528
0.00050252
0.000502518
0.000504162
0.000504174
0.000504078
0.000503939
0.000503784
0.000503627
0.00050348
0.000503347
0.00050323
0.00050313
0.000503046
0.000502975
0.000502916
0.000502867
0.000502826
0.000502791
0.000502763
0.000502739
0.000502718
0.000502701
0.000502686
0.000502673
0.000502661
0.000502652
0.000502643
0.000502635
0.000502628
0.000502622
0.000502616
0.000502611
0.000502607
0.000502602
0.000502598
0.000502594
0.000502591
0.000502587
0.000502584
0.000502581
0.000502578
0.000502575
0.000502572
0.000502569
0.000502567
0.000502564
0.000502562
0.00050256
0.000502558
0.000502556
0.000502554
0.000502553
0.000502551
0.00050255
0.000502549
0.000502547
0.000502546
0.000502545
0.000502544
0.000502544
0.000502543
0.000502542
0.000502542
0.000502541
0.000502541
0.00050254
0.000502539
0.000502537
0.000502533
0.000502527
0.000502519
0.000502517
0.000503731
0.000503746
0.00050369
0.000503605
0.000503506
0.000503402
0.000503301
0.000503207
0.000503122
0.000503046
0.000502981
0.000502925
0.000502878
0.000502837
0.000502803
0.000502773
0.000502749
0.000502727
0.000502709
0.000502693
0.00050268
0.000502668
0.000502657
0.000502648
0.00050264
0.000502633
0.000502626
0.00050262
0.000502615
0.00050261
0.000502606
0.000502601
0.000502597
0.000502593
0.00050259
0.000502586
0.000502583
0.00050258
0.000502577
0.000502574
0.000502571
0.000502569
0.000502566
0.000502564
0.000502561
0.000502559
0.000502557
0.000502555
0.000502554
0.000502552
0.00050255
0.000502549
0.000502548
0.000502546
0.000502545
0.000502544
0.000502543
0.000502543
0.000502542
0.000502541
0.000502541
0.00050254
0.00050254
0.000502539
0.000502538
0.000502536
0.000502532
0.000502525
0.000502518
0.000502515
0.00050345
0.000503464
0.00050343
0.000503376
0.00050331
0.000503239
0.000503168
0.000503099
0.000503036
0.000502979
0.000502928
0.000502884
0.000502845
0.000502811
0.000502782
0.000502757
0.000502736
0.000502717
0.000502701
0.000502686
0.000502674
0.000502663
0.000502653
0.000502645
0.000502637
0.00050263
0.000502624
0.000502618
0.000502613
0.000502609
0.000502604
0.0005026
0.000502596
0.000502592
0.000502589
0.000502585
0.000502582
0.000502579
0.000502576
0.000502573
0.00050257
0.000502568
0.000502565
0.000502563
0.000502561
0.000502558
0.000502556
0.000502555
0.000502553
0.000502551
0.00050255
0.000502548
0.000502547
0.000502545
0.000502544
0.000502543
0.000502542
0.000502541
0.000502541
0.00050254
0.000502539
0.000502539
0.000502538
0.000502538
0.000502537
0.000502534
0.00050253
0.000502523
0.000502516
0.000502514
0.000503259
0.000503272
0.000503251
0.000503214
0.000503169
0.000503119
0.000503068
0.000503017
0.000502969
0.000502925
0.000502885
0.000502849
0.000502817
0.000502789
0.000502764
0.000502743
0.000502724
0.000502707
0.000502693
0.00050268
0.000502668
0.000502658
0.00050265
0.000502642
0.000502634
0.000502628
0.000502622
0.000502617
0.000502612
0.000502607
0.000502603
0.000502599
0.000502595
0.000502591
0.000502588
0.000502585
0.000502581
0.000502578
0.000502575
0.000502572
0.00050257
0.000502567
0.000502564
0.000502562
0.00050256
0.000502558
0.000502556
0.000502554
0.000502552
0.00050255
0.000502549
0.000502547
0.000502546
0.000502544
0.000502543
0.000502542
0.000502541
0.00050254
0.000502539
0.000502539
0.000502538
0.000502537
0.000502537
0.000502536
0.000502535
0.000502533
0.000502529
0.000502522
0.000502514
0.000502512
0.000503125
0.000503136
0.000503123
0.000503098
0.000503066
0.00050303
0.000502992
0.000502953
0.000502916
0.000502882
0.000502849
0.00050282
0.000502794
0.00050277
0.000502749
0.00050273
0.000502713
0.000502699
0.000502686
0.000502674
0.000502664
0.000502654
0.000502646
0.000502639
0.000502632
0.000502626
0.00050262
0.000502615
0.00050261
0.000502606
0.000502602
0.000502598
0.000502594
0.00050259
0.000502587
0.000502584
0.00050258
0.000502577
0.000502574
0.000502571
0.000502569
0.000502566
0.000502564
0.000502561
0.000502559
0.000502557
0.000502555
0.000502553
0.000502551
0.000502549
0.000502548
0.000502546
0.000502545
0.000502543
0.000502542
0.000502541
0.00050254
0.000502539
0.000502538
0.000502537
0.000502537
0.000502536
0.000502535
0.000502535
0.000502534
0.000502531
0.000502527
0.00050252
0.000502513
0.00050251
0.000503029
0.000503038
0.000503029
0.000503012
0.000502989
0.000502962
0.000502933
0.000502903
0.000502874
0.000502846
0.00050282
0.000502796
0.000502774
0.000502753
0.000502735
0.000502719
0.000502704
0.000502691
0.000502679
0.000502668
0.000502659
0.00050265
0.000502643
0.000502636
0.000502629
0.000502624
0.000502618
0.000502613
0.000502609
0.000502605
0.000502601
0.000502597
0.000502593
0.000502589
0.000502586
0.000502583
0.000502579
0.000502576
0.000502573
0.000502571
0.000502568
0.000502565
0.000502563
0.00050256
0.000502558
0.000502556
0.000502554
0.000502552
0.00050255
0.000502548
0.000502547
0.000502545
0.000502544
0.000502542
0.000502541
0.00050254
0.000502539
0.000502538
0.000502537
0.000502536
0.000502535
0.000502535
0.000502534
0.000502533
0.000502532
0.00050253
0.000502526
0.000502519
0.000502511
0.000502509
0.000502958
0.000502966
0.000502959
0.000502947
0.00050293
0.000502909
0.000502887
0.000502863
0.00050284
0.000502817
0.000502796
0.000502775
0.000502757
0.000502739
0.000502723
0.000502709
0.000502696
0.000502684
0.000502673
0.000502663
0.000502655
0.000502647
0.00050264
0.000502633
0.000502627
0.000502622
0.000502617
0.000502612
0.000502607
0.000502603
0.000502599
0.000502595
0.000502592
0.000502588
0.000502585
0.000502582
0.000502578
0.000502575
0.000502572
0.00050257
0.000502567
0.000502564
0.000502562
0.000502559
0.000502557
0.000502555
0.000502553
0.000502551
0.000502549
0.000502547
0.000502546
0.000502544
0.000502543
0.000502541
0.00050254
0.000502539
0.000502537
0.000502536
0.000502536
0.000502535
0.000502534
0.000502533
0.000502533
0.000502532
0.00050253
0.000502528
0.000502524
0.000502517
0.00050251
0.000502507
0.000502905
0.000502911
0.000502906
0.000502897
0.000502884
0.000502868
0.00050285
0.000502832
0.000502812
0.000502794
0.000502776
0.000502758
0.000502742
0.000502727
0.000502713
0.0005027
0.000502688
0.000502678
0.000502668
0.000502659
0.000502651
0.000502644
0.000502637
0.000502631
0.000502625
0.00050262
0.000502615
0.00050261
0.000502606
0.000502602
0.000502598
0.000502594
0.000502591
0.000502587
0.000502584
0.000502581
0.000502577
0.000502574
0.000502572
0.000502569
0.000502566
0.000502563
0.000502561
0.000502559
0.000502556
0.000502554
0.000502552
0.00050255
0.000502548
0.000502546
0.000502545
0.000502543
0.000502541
0.00050254
0.000502539
0.000502537
0.000502536
0.000502535
0.000502534
0.000502533
0.000502533
0.000502532
0.000502531
0.00050253
0.000502529
0.000502527
0.000502522
0.000502516
0.000502508
0.000502506
0.000502864
0.000502868
0.000502865
0.000502859
0.000502848
0.000502836
0.000502821
0.000502806
0.00050279
0.000502774
0.000502759
0.000502744
0.00050273
0.000502716
0.000502704
0.000502692
0.000502682
0.000502672
0.000502663
0.000502655
0.000502648
0.000502641
0.000502634
0.000502629
0.000502623
0.000502618
0.000502613
0.000502609
0.000502605
0.000502601
0.000502597
0.000502593
0.00050259
0.000502586
0.000502583
0.00050258
0.000502576
0.000502573
0.000502571
0.000502568
0.000502565
0.000502562
0.00050256
0.000502558
0.000502555
0.000502553
0.000502551
0.000502549
0.000502547
0.000502545
0.000502544
0.000502542
0.00050254
0.000502539
0.000502537
0.000502536
0.000502535
0.000502534
0.000502533
0.000502532
0.000502531
0.00050253
0.00050253
0.000502529
0.000502528
0.000502525
0.000502521
0.000502514
0.000502507
0.000502504
0.000502831
0.000502835
0.000502833
0.000502828
0.00050282
0.00050281
0.000502798
0.000502785
0.000502771
0.000502758
0.000502744
0.000502731
0.000502719
0.000502707
0.000502696
0.000502686
0.000502676
0.000502667
0.000502659
0.000502652
0.000502645
0.000502638
0.000502632
0.000502627
0.000502621
0.000502617
0.000502612
0.000502608
0.000502604
0.0005026
0.000502596
0.000502592
0.000502589
0.000502585
0.000502582
0.000502579
0.000502575
0.000502572
0.00050257
0.000502567
0.000502564
0.000502562
0.000502559
0.000502557
0.000502554
0.000502552
0.00050255
0.000502548
0.000502546
0.000502544
0.000502542
0.000502541
0.000502539
0.000502538
0.000502536
0.000502535
0.000502534
0.000502533
0.000502532
0.000502531
0.00050253
0.000502529
0.000502528
0.000502527
0.000502526
0.000502524
0.00050252
0.000502513
0.000502505
0.000502503
0.000502806
0.000502809
0.000502808
0.000502804
0.000502797
0.000502789
0.000502778
0.000502767
0.000502756
0.000502744
0.000502732
0.000502721
0.00050271
0.000502699
0.000502689
0.00050268
0.000502671
0.000502663
0.000502656
0.000502648
0.000502642
0.000502636
0.00050263
0.000502625
0.00050262
0.000502615
0.000502611
0.000502606
0.000502602
0.000502598
0.000502595
0.000502591
0.000502587
0.000502584
0.000502581
0.000502578
0.000502575
0.000502572
0.000502569
0.000502566
0.000502563
0.000502561
0.000502558
0.000502556
0.000502553
0.000502551
0.000502549
0.000502547
0.000502545
0.000502543
0.000502541
0.00050254
0.000502538
0.000502537
0.000502535
0.000502534
0.000502533
0.000502531
0.00050253
0.000502529
0.000502529
0.000502528
0.000502527
0.000502526
0.000502525
0.000502522
0.000502518
0.000502511
0.000502504
0.000502501
0.000502785
0.000502787
0.000502787
0.000502784
0.000502779
0.000502771
0.000502763
0.000502753
0.000502743
0.000502733
0.000502722
0.000502712
0.000502702
0.000502693
0.000502684
0.000502675
0.000502667
0.000502659
0.000502652
0.000502646
0.00050264
0.000502634
0.000502628
0.000502623
0.000502618
0.000502614
0.000502609
0.000502605
0.000502601
0.000502597
0.000502594
0.00050259
0.000502586
0.000502583
0.00050258
0.000502577
0.000502574
0.000502571
0.000502568
0.000502565
0.000502562
0.00050256
0.000502557
0.000502555
0.000502552
0.00050255
0.000502548
0.000502546
0.000502544
0.000502542
0.00050254
0.000502539
0.000502537
0.000502535
0.000502534
0.000502533
0.000502531
0.00050253
0.000502529
0.000502528
0.000502527
0.000502526
0.000502526
0.000502525
0.000502523
0.000502521
0.000502517
0.00050251
0.000502503
0.0005025
0.000502768
0.00050277
0.00050277
0.000502768
0.000502764
0.000502757
0.00050275
0.000502741
0.000502732
0.000502723
0.000502714
0.000502705
0.000502696
0.000502687
0.000502679
0.000502671
0.000502663
0.000502656
0.00050265
0.000502643
0.000502637
0.000502632
0.000502627
0.000502622
0.000502617
0.000502613
0.000502608
0.000502604
0.0005026
0.000502596
0.000502593
0.000502589
0.000502585
0.000502582
0.000502579
0.000502576
0.000502573
0.00050257
0.000502567
0.000502564
0.000502561
0.000502559
0.000502556
0.000502554
0.000502552
0.000502549
0.000502547
0.000502545
0.000502543
0.000502541
0.000502539
0.000502538
0.000502536
0.000502534
0.000502533
0.000502531
0.00050253
0.000502529
0.000502528
0.000502527
0.000502526
0.000502525
0.000502524
0.000502524
0.000502522
0.00050252
0.000502516
0.000502509
0.000502501
0.000502499
0.000502755
0.000502756
0.000502757
0.000502755
0.000502752
0.000502746
0.000502739
0.000502732
0.000502724
0.000502716
0.000502707
0.000502699
0.000502691
0.000502683
0.000502675
0.000502667
0.00050266
0.000502654
0.000502647
0.000502641
0.000502636
0.00050263
0.000502625
0.00050262
0.000502616
0.000502611
0.000502607
0.000502603
0.000502599
0.000502595
0.000502592
0.000502588
0.000502585
0.000502581
0.000502578
0.000502575
0.000502572
0.000502569
0.000502566
0.000502563
0.00050256
0.000502558
0.000502555
0.000502553
0.000502551
0.000502548
0.000502546
0.000502544
0.000502542
0.00050254
0.000502538
0.000502537
0.000502535
0.000502533
0.000502532
0.00050253
0.000502529
0.000502528
0.000502527
0.000502526
0.000502525
0.000502524
0.000502523
0.000502522
0.000502521
0.000502519
0.000502514
0.000502508
0.0005025
0.000502498
0.000502743
0.000502745
0.000502746
0.000502745
0.000502742
0.000502737
0.000502731
0.000502724
0.000502717
0.000502709
0.000502702
0.000502694
0.000502686
0.000502679
0.000502671
0.000502664
0.000502658
0.000502651
0.000502645
0.00050264
0.000502634
0.000502629
0.000502624
0.000502619
0.000502615
0.00050261
0.000502606
0.000502602
0.000502598
0.000502594
0.000502591
0.000502587
0.000502584
0.00050258
0.000502577
0.000502574
0.000502571
0.000502568
0.000502565
0.000502562
0.00050256
0.000502557
0.000502555
0.000502552
0.00050255
0.000502548
0.000502545
0.000502543
0.000502541
0.000502539
0.000502537
0.000502536
0.000502534
0.000502532
0.000502531
0.000502529
0.000502528
0.000502527
0.000502526
0.000502525
0.000502524
0.000502523
0.000502522
0.000502521
0.00050252
0.000502518
0.000502513
0.000502507
0.000502499
0.000502497
0.000502734
0.000502735
0.000502737
0.000502737
0.000502734
0.00050273
0.000502724
0.000502718
0.000502711
0.000502704
0.000502697
0.00050269
0.000502683
0.000502676
0.000502669
0.000502662
0.000502656
0.00050265
0.000502644
0.000502638
0.000502633
0.000502628
0.000502623
0.000502618
0.000502614
0.000502609
0.000502605
0.000502601
0.000502597
0.000502593
0.00050259
0.000502586
0.000502583
0.000502579
0.000502576
0.000502573
0.00050257
0.000502567
0.000502564
0.000502561
0.000502559
0.000502556
0.000502554
0.000502551
0.000502549
0.000502547
0.000502545
0.000502542
0.00050254
0.000502538
0.000502537
0.000502535
0.000502533
0.000502531
0.00050253
0.000502528
0.000502527
0.000502526
0.000502525
0.000502524
0.000502523
0.000502522
0.000502521
0.00050252
0.000502519
0.000502517
0.000502512
0.000502506
0.000502498
0.000502496
0.000502727
0.000502728
0.00050273
0.00050273
0.000502728
0.000502724
0.000502719
0.000502713
0.000502707
0.0005027
0.000502693
0.000502687
0.00050268
0.000502673
0.000502666
0.00050266
0.000502654
0.000502648
0.000502642
0.000502637
0.000502631
0.000502626
0.000502622
0.000502617
0.000502612
0.000502608
0.000502604
0.0005026
0.000502596
0.000502592
0.000502589
0.000502585
0.000502582
0.000502578
0.000502575
0.000502572
0.000502569
0.000502566
0.000502563
0.000502561
0.000502558
0.000502555
0.000502553
0.00050255
0.000502548
0.000502546
0.000502544
0.000502542
0.00050254
0.000502538
0.000502536
0.000502534
0.000502532
0.00050253
0.000502529
0.000502527
0.000502526
0.000502525
0.000502524
0.000502523
0.000502522
0.000502521
0.00050252
0.000502519
0.000502518
0.000502516
0.000502511
0.000502505
0.000502497
0.000502495
0.000502722
0.000502722
0.000502725
0.000502725
0.000502723
0.000502719
0.000502714
0.000502709
0.000502703
0.000502697
0.00050269
0.000502684
0.000502677
0.000502671
0.000502664
0.000502658
0.000502652
0.000502646
0.000502641
0.000502635
0.00050263
0.000502625
0.00050262
0.000502616
0.000502611
0.000502607
0.000502603
0.000502599
0.000502595
0.000502591
0.000502588
0.000502584
0.000502581
0.000502577
0.000502574
0.000502571
0.000502568
0.000502565
0.000502562
0.00050256
0.000502557
0.000502554
0.000502552
0.000502549
0.000502547
0.000502545
0.000502543
0.000502541
0.000502538
0.000502537
0.000502535
0.000502533
0.000502531
0.000502529
0.000502528
0.000502526
0.000502525
0.000502524
0.000502523
0.000502522
0.000502521
0.00050252
0.000502519
0.000502518
0.000502517
0.000502514
0.00050251
0.000502503
0.000502496
0.000502494
0.000502717
0.000502717
0.00050272
0.00050272
0.000502719
0.000502715
0.00050271
0.000502705
0.0005027
0.000502694
0.000502687
0.000502681
0.000502675
0.000502668
0.000502662
0.000502656
0.00050265
0.000502644
0.000502639
0.000502634
0.000502628
0.000502623
0.000502619
0.000502614
0.00050261
0.000502605
0.000502601
0.000502597
0.000502593
0.00050259
0.000502586
0.000502583
0.000502579
0.000502576
0.000502573
0.00050257
0.000502567
0.000502564
0.000502561
0.000502558
0.000502556
0.000502553
0.00050255
0.000502548
0.000502546
0.000502543
0.000502541
0.000502539
0.000502537
0.000502535
0.000502533
0.000502531
0.00050253
0.000502528
0.000502526
0.000502525
0.000502523
0.000502522
0.000502521
0.00050252
0.000502519
0.000502518
0.000502518
0.000502517
0.000502515
0.000502513
0.000502509
0.000502502
0.000502495
0.000502492
0.000502713
0.000502713
0.000502715
0.000502716
0.000502714
0.000502711
0.000502706
0.000502701
0.000502696
0.00050269
0.000502684
0.000502678
0.000502671
0.000502665
0.000502659
0.000502653
0.000502647
0.000502642
0.000502636
0.000502631
0.000502626
0.000502621
0.000502616
0.000502611
0.000502607
0.000502603
0.000502599
0.000502595
0.000502591
0.000502587
0.000502583
0.00050258
0.000502577
0.000502573
0.00050257
0.000502567
0.000502564
0.000502561
0.000502558
0.000502556
0.000502553
0.00050255
0.000502548
0.000502546
0.000502543
0.000502541
0.000502539
0.000502537
0.000502535
0.000502533
0.000502531
0.000502529
0.000502527
0.000502525
0.000502524
0.000502522
0.000502521
0.00050252
0.000502519
0.000502518
0.000502517
0.000502516
0.000502515
0.000502514
0.000502513
0.00050251
0.000502506
0.000502499
0.000502492
0.000502489
0.000502708
0.000502708
0.00050271
0.00050271
0.000502708
0.000502705
0.000502701
0.000502696
0.00050269
0.000502684
0.000502678
0.000502672
0.000502666
0.00050266
0.000502654
0.000502648
0.000502642
0.000502637
0.000502631
0.000502626
0.000502621
0.000502616
0.000502611
0.000502606
0.000502602
0.000502598
0.000502594
0.00050259
0.000502586
0.000502582
0.000502579
0.000502575
0.000502572
0.000502569
0.000502565
0.000502562
0.000502559
0.000502557
0.000502554
0.000502551
0.000502548
0.000502546
0.000502543
0.000502541
0.000502539
0.000502536
0.000502534
0.000502532
0.00050253
0.000502528
0.000502526
0.000502524
0.000502523
0.000502521
0.000502519
0.000502518
0.000502516
0.000502515
0.000502514
0.000502513
0.000502512
0.000502511
0.000502511
0.00050251
0.000502508
0.000502506
0.000502502
0.000502495
0.000502488
0.000502485
0.000502704
0.000502702
0.000502703
0.000502703
0.000502701
0.000502697
0.000502693
0.000502688
0.000502683
0.000502677
0.000502671
0.000502665
0.000502659
0.000502652
0.000502646
0.00050264
0.000502635
0.000502629
0.000502623
0.000502618
0.000502613
0.000502608
0.000502603
0.000502599
0.000502594
0.00050259
0.000502586
0.000502582
0.000502578
0.000502574
0.000502571
0.000502568
0.000502564
0.000502561
0.000502558
0.000502555
0.000502552
0.000502549
0.000502546
0.000502544
0.000502541
0.000502539
0.000502536
0.000502534
0.000502532
0.000502529
0.000502527
0.000502525
0.000502523
0.000502521
0.000502519
0.000502517
0.000502516
0.000502514
0.000502512
0.000502511
0.00050251
0.000502508
0.000502507
0.000502506
0.000502505
0.000502505
0.000502504
0.000502503
0.000502502
0.000502499
0.000502495
0.000502488
0.000502481
0.000502478
0.0005027
0.000502698
0.000502697
0.000502695
0.000502693
0.000502689
0.000502685
0.00050268
0.000502675
0.000502669
0.000502663
0.000502657
0.000502651
0.000502644
0.000502638
0.000502632
0.000502626
0.000502621
0.000502615
0.00050261
0.000502605
0.0005026
0.000502595
0.00050259
0.000502586
0.000502582
0.000502578
0.000502574
0.00050257
0.000502566
0.000502563
0.000502559
0.000502556
0.000502553
0.00050255
0.000502547
0.000502544
0.000502541
0.000502539
0.000502536
0.000502533
0.000502531
0.000502529
0.000502526
0.000502524
0.000502522
0.00050252
0.000502518
0.000502516
0.000502514
0.000502512
0.00050251
0.000502508
0.000502507
0.000502505
0.000502504
0.000502502
0.000502501
0.0005025
0.000502499
0.000502498
0.000502497
0.000502497
0.000502496
0.000502494
0.000502492
0.000502488
0.000502481
0.000502474
0.000502472
0.000502693
0.000502693
0.000502692
0.00050269
0.000502687
0.000502684
0.000502679
0.000502675
0.00050267
0.000502664
0.000502658
0.000502653
0.000502647
0.000502641
0.000502635
0.000502629
0.000502623
0.000502618
0.000502612
0.000502607
0.000502602
0.000502597
0.000502593
0.000502588
0.000502584
0.00050258
0.000502576
0.000502572
0.000502568
0.000502564
0.000502561
0.000502558
0.000502554
0.000502551
0.000502548
0.000502545
0.000502542
0.00050254
0.000502537
0.000502534
0.000502532
0.000502529
0.000502527
0.000502525
0.000502522
0.00050252
0.000502518
0.000502516
0.000502514
0.000502512
0.00050251
0.000502508
0.000502506
0.000502505
0.000502503
0.000502502
0.0005025
0.000502499
0.000502498
0.000502497
0.000502496
0.000502495
0.000502495
0.000502494
0.000502492
0.00050249
0.000502486
0.000502479
0.000502472
0.000502471
)
;
