/*--------------------------------*- C++ -*----------------------------------*\
| =========                 |                                                 |
| \\      /  F ield         | OpenFOAM: The Open Source CFD Toolbox           |
|  \\    /   O peration     | Version:  v1606+                                |
|   \\  /    A nd           | Web:      www.OpenFOAM.com                      |
|    \\/     M anipulation  |                                                 |
\*---------------------------------------------------------------------------*/
FoamFile
{
    version     2.0;
    format      ascii;
    class       volScalarField;
    location    "42";
    object      alpha.water;
}
// * * * * * * * * * * * * * * * * * * * * * * * * * * * * * * * * * * * * * //

dimensions      [0 0 0 0 0 0 0];

internalField   nonuniform List<scalar> 
5080
(
1
1
1
1
1
1
1
1
1
1
1
1
1
1
1
1
1
1
1
1
1
1
1
1
1
1
1
1
1
1
1
1
1
1
1
1
1
1
1
1
1
1
1
1
1
1
1
1
1
1
1
1
1
1
1
1
1
1
1
1
1
1
1
1
1
1
1
1
1
1
1
1
1
1
1
1
1
1
1
1
1
1
1
1
1
1
1
1
1
1
1
1
1
1
1
1
1
1
1
1
1
1
1
1
1
1
1
1
1
1
1
1
1
1
1
1
1
1
1
1
1
1
1
1
1
1
1
1
1
1
1
1
1
1
1
1
1
1
1
1
1
1
1
1
1
1
1
1
1
1
1
1
1
1
1
1
1
1
1
1
1
1
1
1
1
1
1
1
1
1
1
1
1
1
1
1
1
1
1
1
1
1
1
1
1
1
1
1
1
1
1
1
1
1
1
1
1
1
1
1
1
1
1
1
1
1
1
1
1
1
1
1
1
1
1
1
1
1
1
1
1
1
1
1
1
1
1
1
1
1
1
1
1
1
1
1
1
1
1
1
1
1
1
1
1
1
1
1
1
1
1
1
1
1
1
1
1
1
1
1
1
1
1
1
1
1
1
1
1
1
1
1
1
1
1
1
1
1
1
1
1
1
1
1
1
1
1
1
1
1
1
1
1
1
1
1
1
1
1
1
1
1
1
1
1
1
1
1
1
1
1
1
1
1
1
1
1
1
1
1
1
1
1
1
1
1
1
1
1
1
1
1
1
1
1
1
1
1
1
1
1
1
1
1
1
1
1
1
1
1
1
1
1
1
1
1
1
1
1
1
1
1
1
1
1
1
1
1
1
1
1
1
1
1
1
1
1
1
1
1
1
1
1
1
1
1
1
1
1
1
1
1
1
1
1
1
1
1
1
1
0.997515
0.997105
0.997105
0.998952
0.998945
0.995633
0.992946
0.992926
0.992907
0.992889
0.992908
0.994753
0.999546
1
0.999991
0.99991
0.999902
0.9999
0.982741
0.978657
0.978657
0.978657
0.983858
0.99929
1
0.999995
0.999989
0.999992
1
1
1
0.983619
0.951494
0.956265
0.986316
0.999024
0.999978
1
1
1
1
1
1
1
0.99671
0.985642
0.985642
0.985642
0.985643
0.991424
0.99992
1
1
1
1
1
1
1
0.995657
0.951395
0.996671
0.998505
0.99963
0.999598
0.998938
0.999117
0.999188
0.999182
0.999378
0.99988
1
1
1
1
1
1
0.988056
0.985571
0.985636
0.995916
0.999998
0.999995
0.999996
0.999999
1
1
1
1
1
1
1
0.973377
0.951494
0.951494
0.951494
0.956549
0.996566
1
1
1
1
1
1
0.995168
0.985642
0.985642
0.985642
0.989363
0.998707
1
1
1
1
1
1
0.966821
0.924198
0.924194
0.924196
0.945074
1
1
1
0.998817
0.999177
0.999996
1
1
1
1
1
0.999997
0.999995
0.999998
0.999998
0.999991
0.999964
0.999943
0.999975
0.999999
1
1
1
1
1
1
1
0.999999
0.999999
0.999999
1
1
0.999998
0.999982
0.999973
0.999974
0.999982
0.999997
1
1
1
0.999558
0.998904
0.998899
0.999131
0.999566
0.999896
0.999996
1
1
1
1
1
0.994184
0.98997
0.989934
0.992299
0.996487
0.999165
0.999938
0.997643
0.989154
0.987704
0.99046
0.99869
1
1
1
1
0.999995
0.999977
0.999977
0.999987
1
1
1
1
1
1
1
1
1
1
1
1
1
1
1
1
1
1
1
1
1
1
1
1
1
1
0.999999
0.999999
1
1
1
1
1
1
1
1
1
1
0.999918
0.999768
0.999767
0.999808
0.999942
1
1
1
1
0.956465
0.95725
0.966665
0.99692
1
1
1
1
1
1
1
1
1
1
1
1
1
1
1
1
1
1
1
1
1
1
1
0.999985
0.999846
0.999749
0.9998
0.999852
0.999785
0.999451
0.999098
0.999124
0.999588
1
1
1
1
0.999997
1
1
1
1
1
1
1
1
1
1
1
1
1
1
1
1
1
1
0.948305
0.967927
1
1
1
1
1
0.990064
0.977972
0.948846
0.879315
0.758028
0.721931
0.737713
0.760236
0.751027
0.699443
0.666383
0.673846
0.724714
0.813779
0.856774
0.853571
0.812615
0.740788
0.701936
0.673755
0.615724
0.559773
0.55783
0.573341
0.578878
0.559965
0.51527
0.50996
0.535465
0.577865
0.577203
0.531363
0.465033
0.466068
0.542503
0.700602
0.758357
0.743944
0.687468
0.661294
0.67838
0.734136
0.758609
0.748143
0.715861
0.707847
0.720255
0.744299
0.746312
0.733236
0.708984
0.702308
0.697518
0.961756
0.999996
0.999994
1
1
0.883665
0.591179
0.416416
0.308403
0.103647
4.96021e-18
2.43025e-19
2.44543e-19
2.43025e-19
2.44543e-19
2.43025e-19
3.03233e-19
5.85613e-05
0.000135702
2.2712e-05
1.94842e-19
-3.18398e-12
-8.51913e-13
-1.05305e-13
-7.85985e-15
-3.75984e-16
-1.11275e-17
7.11618e-33
2.29445e-31
3.30282e-30
8.45957e-30
8.27166e-30
1.6128e-29
1.5707e-29
1.91691e-29
5.63298e-19
0.000761665
0.00328103
0.00613478
0.00844448
0.0110162
0.0145672
0.0203542
0.0285757
0.0342068
0.0350371
0.0349905
0.0351466
0.0364978
0.0398437
0.0427633
0.0432629
0.0432225
0.0431143
0.0428218
0.0415186
0.0377545
0.0315805
0.0267621
0.024952
1
0.999456
0.999951
1
0.903828
0.229132
4.84831e-18
4.13738e-18
4.1069e-18
4.13738e-18
4.47118e-18
4.65206e-18
4.80324e-18
4.95149e-18
5.09161e-18
5.24073e-18
5.4718e-18
5.48202e-18
5.4925e-18
5.50327e-18
1.65804e-17
7.98366e-18
7.02252e-18
2.00451e-17
5.12162e-17
9.89924e-17
1.7694e-16
8.75111e-16
6.98905e-15
3.67877e-14
9.12681e-14
1.10598e-13
1.09752e-13
6.84147e-14
3.51977e-18
4.19408e-18
4.2701e-18
6.94649e-18
1.0823e-17
1.13659e-17
1.40034e-17
1.67466e-17
1.41189e-17
1.4086e-17
1.68689e-17
1.96202e-17
2.23403e-17
2.50605e-17
2.779e-17
3.04996e-17
3.31991e-17
3.5905e-17
3.86051e-17
4.13445e-17
4.40358e-17
4.68178e-17
4.93842e-17
5.47293e-17
5.74083e-17
6.00578e-17
1
1
0.999985
1
0.521021
0.000946834
7.96754e-18
8.54535e-18
7.98513e-18
8.05039e-18
8.15587e-18
8.0666e-18
7.90617e-18
7.87564e-18
8.0897e-18
8.62951e-18
9.71424e-18
1.18849e-17
1.62106e-17
2.442e-17
3.88687e-17
6.28205e-17
9.96898e-17
1.59186e-16
2.73265e-16
1.15643e-15
7.0731e-15
4.19326e-14
2.12135e-13
7.80889e-13
1.19943e-12
2.52668e-13
1.09664e-13
2.31277e-12
8.01422e-11
2.06899e-10
1.18607e-10
8.1278e-11
7.03244e-10
3.57248e-09
1.17961e-08
2.01994e-08
1.99289e-08
1.08209e-08
2.18383e-10
5.28632e-09
6.32359e-08
6.77842e-08
6.77964e-08
6.77842e-08
6.77964e-08
1.75099e-08
4.19866e-17
5.60637e-11
3.06161e-10
6.21381e-10
6.69498e-10
6.69669e-10
5.9798e-10
3.00612e-10
1
1
1
0.984471
0.295439
1.21571e-17
9.30631e-18
7.19052e-18
6.09604e-18
5.82216e-18
5.7952e-18
5.73555e-18
5.7553e-18
6.17402e-18
7.3827e-18
1.007e-17
1.6053e-17
2.8695e-17
5.3349e-17
9.79443e-17
1.72303e-16
2.95424e-16
9.33074e-16
3.70086e-15
1.56805e-14
6.93205e-14
3.0322e-13
1.03117e-12
1.46114e-12
1.59233e-12
8.14374e-12
2.03005e-10
1.4275e-09
5.87631e-09
8.69896e-09
6.29613e-09
1.0551e-09
4.09799e-13
1.42189e-08
1.19395e-07
1.22951e-07
1.22952e-07
1.22951e-07
8.78405e-08
3.51224e-09
2.99326e-10
1.38641e-09
2.54835e-09
2.63774e-09
2.44574e-09
1.67593e-09
5.565e-10
1.10246e-10
8.26246e-11
8.31804e-11
8.13229e-11
7.08794e-11
4.96252e-11
2.56329e-11
5.84262e-12
1
1
1
0.976462
0.182191
9.46693e-18
6.43246e-18
4.38921e-18
3.34777e-18
2.98505e-18
2.88129e-18
3.02031e-18
4.00801e-18
7.28561e-18
1.55587e-17
3.3911e-17
7.13857e-17
1.42246e-16
2.62912e-16
8.85681e-16
3.43271e-15
1.21182e-14
4.57451e-14
2.05133e-13
9.68496e-13
3.9283e-12
1.08776e-11
1.5208e-11
1.36687e-11
5.74389e-12
2.78318e-12
4.65134e-09
2.30332e-08
2.38672e-08
2.14007e-08
5.17009e-09
8.47737e-12
4.01472e-13
1.44505e-16
1.44254e-16
1.44435e-16
1.44254e-16
1.44435e-16
1.44254e-16
1.44435e-16
1.44255e-16
1.44435e-16
1.44255e-16
1.44435e-16
1.44256e-16
1.47169e-16
6.38899e-13
1.32678e-12
1.13599e-12
5.40279e-13
1.80159e-13
8.36717e-14
4.81538e-14
4.6918e-14
5.45904e-14
1
1
0.996747
0.995165
0.0687255
6.82714e-18
3.98411e-18
2.41265e-18
1.60196e-18
1.26655e-18
1.18083e-18
1.68795e-18
4.69462e-18
1.56121e-17
4.56798e-17
1.12165e-16
2.35442e-16
6.60552e-16
2.66525e-15
9.06908e-15
2.72811e-14
9.25405e-14
4.16233e-13
2.13799e-12
1.00648e-11
3.6279e-11
7.20845e-11
7.88172e-11
7.67129e-11
5.69381e-11
1.68554e-11
1.95883e-16
1.92735e-16
1.13209e-14
1.87172e-16
1.89101e-16
2.55475e-15
1.30277e-14
2.99778e-14
3.89649e-14
3.97697e-14
3.89012e-14
3.3294e-14
2.04373e-14
6.6974e-15
1.24012e-15
8.13736e-16
8.61227e-16
9.83865e-16
1.46044e-15
2.59778e-15
4.75767e-15
8.49707e-15
1.47488e-14
2.51481e-14
4.26671e-14
7.21529e-14
1.25209e-13
2.01965e-13
5.32042e-13
1
1
0.993253
0.538036
0.00413828
4.79805e-18
2.28361e-18
1.2096e-18
6.8852e-19
4.59859e-19
3.78377e-19
5.71599e-19
1.90308e-18
7.18692e-18
2.33096e-17
6.37786e-17
1.50275e-16
3.09544e-16
9.31822e-16
3.79749e-15
1.41263e-14
4.76294e-14
1.42168e-13
3.54724e-13
6.88516e-13
1.01592e-12
1.24054e-12
1.3732e-12
1.41566e-12
1.47748e-12
1.51698e-12
1.4923e-12
1.2895e-12
8.50833e-13
3.4771e-13
6.31569e-14
3.37791e-15
2.31618e-16
2.10795e-16
2.1905e-16
2.45979e-16
2.87271e-16
3.49168e-16
4.33531e-16
5.42069e-16
6.73753e-16
1.09278e-15
2.06282e-15
3.83269e-15
6.70752e-15
1.10164e-14
1.69847e-14
2.45238e-14
3.31035e-14
4.18617e-14
5.0018e-14
5.7219e-14
6.40024e-14
6.98168e-14
8.07335e-14
1
1
0.994803
0.0536011
4.41021e-18
2.53332e-18
1.25976e-18
5.70086e-19
2.65776e-19
1.38809e-19
8.20906e-20
5.32306e-20
3.74273e-20
2.80911e-20
2.1899e-20
1.74191e-20
1.38931e-20
1.10046e-20
8.61521e-21
6.65283e-21
5.06258e-21
3.79634e-21
2.82571e-21
2.17686e-21
1.94416e-21
1.94839e-21
1.95191e-21
1.95587e-21
1.96053e-21
1.9669e-21
5.68799e-21
3.48714e-19
2.35267e-18
8.27208e-18
1.56543e-17
2.31799e-17
3.19103e-17
4.54324e-17
5.99858e-17
7.62597e-17
9.48975e-17
1.16498e-16
1.41784e-16
1.71677e-16
2.07305e-16
2.49942e-16
3.00947e-16
3.7276e-16
4.70447e-16
5.98476e-16
8.05552e-16
1.44847e-15
2.69528e-15
4.65108e-15
7.34081e-15
1.04397e-14
1.30513e-14
1.43463e-14
1.46082e-14
1.46474e-14
1
1
0.992876
0.0533543
3.74691e-18
1.29806e-18
6.58348e-19
2.4626e-19
8.78469e-20
3.17547e-20
1.22644e-20
5.26718e-21
2.72398e-21
1.74743e-21
1.32099e-21
1.13484e-21
1.05913e-21
1.04642e-21
1.07721e-21
1.14272e-21
1.23803e-21
1.35938e-21
1.50253e-21
1.66269e-21
1.83512e-21
2.01595e-21
2.20328e-21
2.39807e-21
2.60465e-21
2.83065e-21
3.08632e-21
3.38352e-21
3.7346e-21
4.1514e-21
4.64414e-21
5.21994e-21
5.88084e-21
6.62211e-21
7.43243e-21
8.29666e-21
9.19937e-21
1.01273e-20
1.10704e-20
1.2022e-20
1.29792e-20
1.39444e-20
1.49255e-20
1.59366e-20
1.69971e-20
1.81311e-20
1.93672e-20
2.07394e-20
2.22881e-20
2.40602e-20
2.611e-20
2.84988e-20
3.12958e-20
3.45804e-20
3.84413e-20
4.29764e-20
1
1
0.970635
0.17119
3.7967e-18
1.05569e-18
3.56036e-19
9.90889e-20
2.23065e-20
4.14813e-21
6.89295e-22
1.74822e-22
9.72032e-23
8.03978e-23
7.17865e-23
7.30038e-23
8.06711e-23
9.40639e-23
1.13749e-22
1.40534e-22
1.75316e-22
2.19021e-22
2.72294e-22
3.35462e-22
4.08534e-22
4.91329e-22
5.83711e-22
6.85897e-22
7.98733e-22
9.23888e-22
1.06389e-21
1.22203e-21
1.40207e-21
1.60792e-21
1.84319e-21
2.11052e-21
2.41082e-21
2.74263e-21
3.10209e-21
3.48383e-21
3.88234e-21
4.29309e-21
4.71325e-21
5.14198e-21
5.5807e-21
6.03336e-21
6.50665e-21
7.00998e-21
7.55527e-21
8.15676e-21
8.83113e-21
9.59806e-21
1.0481e-20
1.15079e-20
1.27125e-20
1.41353e-20
1.58254e-20
1.78438e-20
2.02636e-20
2.31707e-20
1
1
0.954335
0.465472
0.000121556
2.36273e-18
2.53024e-19
4.49697e-20
3.89266e-21
1.79762e-22
7.36874e-23
4.19505e-23
2.77282e-23
2.16333e-23
1.51144e-23
1.34786e-23
1.40768e-23
1.59762e-23
1.96297e-23
2.51455e-23
3.28112e-23
4.29906e-23
5.60063e-23
7.21445e-23
9.16065e-23
1.14506e-22
1.40898e-22
1.70832e-22
2.04417e-22
2.4187e-22
2.83555e-22
3.29973e-22
3.81721e-22
4.39424e-22
5.03637e-22
5.74725e-22
6.52737e-22
7.37322e-22
8.27785e-22
9.233e-22
1.0232e-21
1.12724e-21
1.23572e-21
1.34956e-21
1.47032e-21
1.60026e-21
1.74232e-21
1.90021e-21
2.07839e-21
2.28219e-21
2.51798e-21
2.79349e-21
3.11832e-21
3.50451e-21
3.96735e-21
4.52646e-21
5.20721e-21
6.04298e-21
7.0765e-21
8.35918e-21
1
1
0.950629
0.690499
1.7805e-19
1.39272e-18
2.24882e-19
2.94283e-20
1.44204e-21
1.19049e-22
4.30673e-23
2.11463e-23
1.27605e-23
8.80334e-24
5.09028e-24
3.49726e-24
2.79623e-24
2.51163e-24
2.88356e-24
3.65758e-24
4.91303e-24
6.69067e-24
9.04901e-24
1.20662e-23
1.57928e-23
2.02579e-23
2.54691e-23
3.14193e-23
3.80968e-23
4.54959e-23
5.36281e-23
6.25255e-23
7.22381e-23
8.28275e-23
9.43576e-23
1.06881e-22
1.20429e-22
1.35001e-22
1.50585e-22
1.67177e-22
1.84825e-22
2.03654e-22
2.23887e-22
2.45852e-22
2.69988e-22
2.96856e-22
3.27147e-22
3.61707e-22
4.01563e-22
4.47973e-22
5.02497e-22
5.67113e-22
6.44384e-22
7.37686e-22
8.51527e-22
9.92009e-22
1.16747e-21
1.38948e-21
1.67365e-21
2.03909e-21
1
1
0.967152
0.688501
1.7805e-19
1.79794e-19
1.7732e-19
2.62394e-20
1.45991e-21
1.10503e-22
3.07853e-23
1.26923e-23
7.25407e-24
4.98029e-24
2.53509e-24
1.41897e-24
8.40864e-25
5.17104e-25
4.00171e-25
3.9633e-25
5.16467e-25
7.14349e-25
9.85507e-25
1.34879e-24
1.79974e-24
2.34103e-24
2.97296e-24
3.69232e-24
4.49385e-24
5.37207e-24
6.32309e-24
7.34567e-24
8.44135e-24
9.61447e-24
1.08718e-23
1.22217e-23
1.36729e-23
1.52345e-23
1.69171e-23
1.87342e-23
2.0705e-23
2.28567e-23
2.52263e-23
2.78613e-23
3.08211e-23
3.41789e-23
3.80241e-23
4.24664e-23
4.76418e-23
5.37219e-23
6.09277e-23
6.95516e-23
7.99881e-23
9.27809e-23
1.0869e-22
1.28798e-22
1.5466e-22
1.88549e-22
2.33683e-22
2.94086e-22
1
1
0.979876
0.483568
1.7805e-19
1.80685e-19
1.80278e-19
2.62282e-20
1.59311e-21
1.19078e-22
2.56921e-23
7.97468e-24
4.3105e-24
3.16765e-24
1.58202e-24
8.24525e-25
4.23431e-25
1.94423e-25
9.39086e-26
5.25116e-26
4.00184e-26
4.31678e-26
5.59594e-26
8.24122e-26
1.11458e-25
1.45309e-25
1.84679e-25
2.28942e-25
2.77498e-25
3.29846e-25
3.85562e-25
4.44399e-25
5.06323e-25
5.71557e-25
6.40571e-25
7.14026e-25
7.9271e-25
8.77541e-25
9.69587e-25
1.07012e-24
1.18071e-24
1.30333e-24
1.44042e-24
1.59502e-24
1.77082e-24
1.97232e-24
2.20505e-24
2.47592e-24
2.79371e-24
3.16987e-24
3.61975e-24
4.1645e-24
4.83398e-24
5.67115e-24
6.73908e-24
8.13204e-24
9.99334e-24
1.25442e-23
1.61161e-23
2.11424e-23
1
1
0.979728
0.323157
1.7805e-19
1.81356e-19
1.84353e-19
2.72103e-20
1.83997e-21
1.43121e-22
2.50377e-23
5.12024e-24
2.52374e-24
1.93073e-24
1.00349e-24
5.28687e-25
2.72165e-25
1.17362e-25
4.73373e-26
1.74809e-26
6.10252e-27
2.54243e-27
1.7613e-27
1.93432e-27
2.45714e-27
3.19346e-27
4.19413e-27
5.20398e-27
6.2115e-27
7.27071e-27
8.37425e-27
9.51615e-27
1.0697e-26
1.19246e-26
1.32129e-26
1.45805e-26
1.60498e-26
1.76473e-26
1.94041e-26
2.13558e-26
2.35444e-26
2.60214e-26
2.88495e-26
3.21053e-26
3.58831e-26
4.03007e-26
4.55066e-26
5.16921e-26
5.91105e-26
6.8107e-26
7.91664e-26
9.29893e-26
1.10616e-25
1.33631e-25
1.64506e-25
2.07209e-25
2.68268e-25
3.58685e-25
4.96721e-25
7.09471e-25
1
1
0.976962
0.292205
1.9033e-18
1.81484e-19
1.89688e-19
2.88201e-20
2.23336e-21
1.85925e-22
2.85143e-23
3.50953e-24
1.49749e-24
1.15164e-24
6.22637e-25
3.29583e-25
1.73488e-25
7.68015e-26
3.10213e-26
1.09896e-26
3.26237e-27
8.16134e-28
1.65425e-28
3.16084e-29
1.32589e-29
1.38805e-29
1.66941e-29
1.99554e-29
2.36242e-29
2.77523e-29
3.20247e-29
3.60114e-29
4.00438e-29
4.42451e-29
4.86944e-29
5.34958e-29
5.87837e-29
6.47303e-29
7.15517e-29
7.95246e-29
8.90118e-29
1.00498e-28
1.14633e-28
1.32293e-28
1.54669e-28
1.83395e-28
2.20731e-28
2.69835e-28
3.35209e-28
4.23406e-28
5.44228e-28
7.12799e-28
9.53288e-28
1.30577e-27
1.83934e-27
2.67818e-27
4.05487e-27
6.42157e-27
1.0663e-26
1.83728e-26
1
1
0.975037
0.314822
0.0039879
1.80942e-19
1.99447e-19
3.13762e-20
2.86451e-21
2.54638e-22
3.64537e-23
2.61166e-24
8.96037e-25
6.81593e-25
3.89713e-25
2.06259e-25
1.08377e-25
4.86436e-26
1.98628e-26
7.16657e-27
2.15107e-27
5.3099e-28
9.99652e-29
1.31946e-29
1.0135e-30
3.01399e-32
3.47815e-33
2.352e-33
2.82131e-33
3.47608e-33
4.26983e-33
5.32563e-33
7.10686e-33
1.06186e-32
1.78553e-32
3.03313e-32
5.12643e-32
8.48557e-32
1.3704e-31
2.15922e-31
3.32594e-31
5.02008e-31
7.44426e-31
1.08722e-30
1.56721e-30
2.23409e-30
3.15512e-30
4.4224e-30
6.16457e-30
8.56679e-30
1.19058e-29
1.66134e-29
2.33954e-29
3.34568e-29
4.89483e-29
7.3887e-29
1.1612e-28
1.91546e-28
3.323e-28
5.95805e-28
1
1
0.979101
0.461632
0.0112796
1.80906e-19
2.16411e-19
3.56644e-20
3.96106e-21
3.74272e-22
5.32751e-23
2.35711e-24
5.53721e-25
3.94256e-25
2.38848e-25
1.28684e-25
6.83382e-26
3.11774e-26
1.26897e-26
4.5534e-27
1.36983e-27
3.39892e-28
6.44641e-29
8.52636e-30
6.61612e-31
2.30841e-32
1.80999e-33
7.09562e-34
8.25664e-34
1.0395e-33
1.29409e-33
1.59146e-33
1.93703e-33
2.34075e-33
2.81727e-33
3.39259e-33
4.10826e-33
4.96386e-33
6.04616e-33
7.33464e-33
8.93273e-33
1.08683e-32
1.32468e-32
1.62094e-32
1.98967e-32
2.44789e-32
3.02229e-32
3.75233e-32
4.68961e-32
5.91131e-32
7.5432e-32
9.79725e-32
1.30322e-31
1.78803e-31
2.55142e-31
3.81945e-31
6.03579e-31
1.00729e-30
1.76035e-30
3.16937e-30
1
1
0.992748
0.594655
0.0163763
1.80942e-19
2.41264e-19
4.28591e-20
5.99747e-21
5.98878e-22
8.82253e-23
2.97678e-24
3.92438e-25
2.30131e-25
1.45293e-25
7.9501e-26
4.24142e-26
1.98251e-26
8.18239e-27
2.95117e-27
8.86385e-28
2.17088e-28
4.06346e-29
5.33918e-30
4.24839e-31
1.79367e-32
1.17879e-33
2.17983e-34
2.17625e-34
2.79874e-34
3.57814e-34
4.50452e-34
5.58974e-34
6.85248e-34
8.31061e-34
9.99441e-34
1.19412e-33
1.42071e-33
1.68822e-33
2.01166e-33
2.41112e-33
2.89458e-33
3.50967e-33
4.27805e-33
5.2594e-33
6.51107e-33
8.14467e-33
1.03519e-32
1.33728e-32
1.75999e-32
2.37555e-32
3.31935e-32
4.83562e-32
7.39427e-32
1.19829e-31
2.07823e-31
3.87122e-31
7.70711e-31
1.62076e-30
3.5345e-30
1
1
0.998953
0.622972
0.0281031
1.80906e-19
2.75724e-19
5.49698e-20
9.94524e-21
1.05646e-21
1.63762e-22
5.78109e-24
4.30082e-25
1.39513e-25
8.71475e-26
4.90484e-26
2.64084e-26
1.25883e-26
5.24024e-27
1.90268e-27
5.76875e-28
1.41496e-28
2.63592e-29
3.42799e-30
2.75886e-31
1.36304e-32
8.41459e-34
7.96239e-35
5.13665e-35
6.55466e-35
8.56989e-35
1.10684e-34
1.41032e-34
1.77315e-34
2.20087e-34
2.7005e-34
3.2818e-34
3.95888e-34
4.7516e-34
5.69015e-34
6.81828e-34
8.20149e-34
9.94817e-34
1.22462e-33
1.53283e-33
1.95491e-33
2.54711e-33
3.40766e-33
4.69194e-33
6.65798e-33
9.80034e-33
1.51547e-32
2.47286e-32
4.26483e-32
7.85348e-32
1.56165e-31
3.36295e-31
7.799e-31
1.9352e-30
5.00896e-30
0.999999
1
1
0.622398
0.0454266
1.80942e-19
3.23166e-19
7.52002e-20
1.76222e-20
2.03483e-21
3.27949e-22
1.52255e-23
9.00095e-25
1.07933e-25
5.23588e-26
2.98815e-26
1.62319e-26
7.94886e-27
3.3756e-27
1.24066e-27
3.78766e-28
9.27412e-29
1.72122e-29
2.23245e-30
1.83591e-31
1.0365e-32
6.29319e-34
4.03682e-35
1.19502e-35
1.40805e-35
1.8572e-35
2.42921e-35
3.14203e-35
4.02127e-35
5.09778e-35
6.39958e-35
7.96322e-35
9.83047e-35
1.20589e-34
1.47434e-34
1.80357e-34
2.21828e-34
2.75885e-34
3.49109e-34
4.52213e-34
6.02954e-34
8.31714e-34
1.19437e-33
1.78819e-33
2.80431e-33
4.56317e-33
7.8112e-33
1.41725e-32
2.71553e-32
5.53513e-32
1.21858e-31
2.91985e-31
7.59242e-31
2.14722e-30
6.39113e-30
0.999999
1
1
0.653018
0.0660963
1.80906e-19
3.86884e-19
1.08686e-19
3.2123e-20
4.20666e-21
6.82097e-22
4.39188e-23
2.64397e-24
1.61052e-25
3.41451e-26
1.8311e-26
9.98786e-27
4.96729e-27
2.14036e-27
8.0039e-28
2.49324e-28
6.1935e-29
1.156e-29
1.49535e-30
1.24571e-31
7.74927e-33
4.69074e-34
2.59943e-35
3.15102e-36
2.78888e-36
3.69042e-36
4.90276e-36
6.43325e-36
8.33662e-36
1.06902e-35
1.35839e-35
1.71476e-35
2.15467e-35
2.70086e-35
3.38746e-35
4.26858e-35
5.43652e-35
7.0553e-35
9.41958e-35
1.3055e-34
1.88972e-34
2.86269e-34
4.53026e-34
7.4627e-34
1.27625e-33
2.26609e-33
4.20199e-33
8.23747e-33
1.72405e-32
3.78545e-32
8.88916e-32
2.26953e-31
6.33804e-31
1.94337e-30
6.35616e-30
0.999999
1
1
0.726094
0.0896455
1.80942e-19
4.69301e-19
1.62641e-19
5.78139e-20
9.08261e-21
1.45784e-21
1.25518e-22
8.30774e-24
4.3681e-25
3.27303e-26
1.12415e-26
6.12334e-27
3.11917e-27
1.36611e-27
5.16268e-28
1.62349e-28
4.0824e-29
7.7296e-30
1.01391e-30
8.66738e-32
5.80932e-33
3.51106e-34
1.85229e-35
1.20845e-36
5.37857e-37
6.79847e-37
9.08601e-37
1.20554e-36
1.5841e-36
2.0607e-36
2.65574e-36
3.39394e-36
4.31143e-36
5.4661e-36
6.95256e-36
8.93519e-36
1.17071e-35
1.58162e-35
2.23167e-35
3.32574e-35
5.26414e-35
8.8349e-35
1.56054e-34
2.87538e-34
5.49154e-34
1.0846e-33
2.21848e-33
4.71612e-33
1.04601e-32
2.42742e-32
5.91009e-32
1.52566e-31
4.31698e-31
1.32611e-30
4.31277e-30
0.999999
1
1
0.78782
0.116912
1.80906e-19
5.70259e-19
2.45704e-19
9.99165e-20
1.96005e-20
3.13407e-21
3.41654e-22
2.56442e-23
1.41778e-24
6.76319e-26
7.65584e-27
3.70023e-27
1.91918e-27
8.62053e-28
3.33803e-28
1.06868e-28
2.7185e-29
5.18148e-30
6.83952e-31
5.95586e-32
4.22785e-33
2.57836e-34
1.35275e-35
6.84709e-37
1.14327e-37
1.20301e-37
1.60303e-37
2.13142e-37
2.80859e-37
3.671e-37
4.76754e-37
6.15592e-37
7.91346e-37
1.01533e-36
1.30581e-36
1.69595e-36
2.2489e-36
3.09114e-36
4.48321e-36
6.97458e-36
1.17488e-35
2.13953e-35
4.16421e-35
8.53331e-35
1.81886e-34
4.0058e-34
9.10422e-34
2.13887e-33
5.20484e-33
1.31156e-32
3.40669e-32
9.04167e-32
2.42519e-31
6.44173e-31
1.51714e-30
1
1
1
0.835181
0.150755
1.80942e-19
6.83891e-19
3.65857e-19
1.64387e-19
4.0694e-20
6.73849e-21
8.74512e-22
7.52387e-23
4.63055e-24
2.13515e-25
8.52085e-27
2.28696e-27
1.17145e-27
5.33973e-28
2.10721e-28
6.90078e-29
1.79863e-29
3.50158e-30
4.69288e-31
4.13425e-32
3.02387e-33
1.84107e-34
9.62538e-36
4.53982e-37
3.35454e-38
2.05372e-38
2.67805e-38
3.58536e-38
4.75137e-38
6.23081e-38
8.09739e-38
1.04529e-37
1.34414e-37
1.72756e-37
2.22869e-37
2.90383e-37
3.85777e-37
5.30219e-37
7.68521e-37
1.19846e-36
2.04119e-36
3.81634e-36
7.78824e-36
1.71129e-35
3.97959e-35
9.63129e-35
2.39582e-34
6.08135e-34
1.56977e-33
4.09942e-33
1.06843e-32
2.70348e-32
6.3417e-32
1.28479e-31
1.99351e-31
1
1
1
0.879222
0.194526
1.80906e-19
7.99242e-19
5.23152e-19
2.55077e-19
7.86557e-20
1.44082e-20
2.13117e-21
2.07762e-22
1.46138e-23
7.14228e-25
2.05328e-26
1.60903e-27
7.15619e-28
3.31002e-28
1.32245e-28
4.38661e-29
1.16193e-29
2.30762e-30
3.16376e-31
2.84942e-32
2.14476e-33
1.30936e-34
6.81141e-36
3.13299e-37
1.55986e-38
3.66488e-39
4.23153e-39
5.66215e-39
7.54634e-39
9.96362e-39
1.3026e-38
1.68778e-38
2.1705e-38
2.77812e-38
3.55425e-38
4.57167e-38
5.96264e-38
7.98873e-38
1.11924e-37
1.67671e-37
2.74318e-37
4.95746e-37
9.87628e-37
2.14551e-36
5.01266e-36
1.23616e-35
3.13299e-35
7.916e-35
1.94641e-34
4.58221e-34
1.01776e-33
2.09094e-33
3.85716e-33
6.13763e-33
7.89135e-33
1
1
1
0.920056
0.249683
1.80942e-19
9.03116e-19
7.0257e-19
3.70759e-19
1.39297e-19
2.98781e-20
4.96813e-21
5.42355e-22
4.40724e-23
2.32349e-24
6.97323e-26
1.93612e-27
4.35604e-28
2.0257e-28
8.25184e-29
2.78654e-29
7.49059e-30
1.50548e-30
2.08909e-31
1.90842e-32
1.46651e-33
9.03699e-35
4.72929e-36
2.17086e-37
9.57457e-39
8.52952e-40
6.48388e-40
8.5119e-40
1.13382e-39
1.49745e-39
1.9613e-39
2.54911e-39
3.28933e-39
4.21766e-39
5.3811e-39
6.85195e-39
8.75252e-39
1.13104e-38
1.49723e-38
2.06661e-38
3.04307e-38
4.89476e-38
8.71213e-38
1.7069e-37
3.61356e-37
8.09906e-37
1.88441e-36
4.43195e-36
1.01857e-35
2.21851e-35
4.48902e-35
8.31978e-35
1.38609e-34
2.02856e-34
2.49144e-34
1
1
1
0.953557
0.315221
1.80906e-19
9.83027e-19
8.76166e-19
5.01559e-19
2.25376e-19
5.86651e-20
1.10247e-20
1.34327e-21
1.25592e-22
7.27243e-24
2.45316e-25
5.04794e-27
2.89389e-28
1.21563e-28
5.03759e-29
1.73633e-29
4.76463e-30
9.76222e-31
1.37523e-31
1.26779e-32
9.81362e-34
6.05404e-35
3.16948e-36
1.45534e-37
6.24832e-39
3.25372e-40
1.00244e-40
1.20865e-40
1.61186e-40
2.13381e-40
2.79552e-40
3.62813e-40
4.67193e-40
5.9789e-40
7.61376e-40
9.66154e-40
1.22432e-39
1.55451e-39
1.9888e-39
2.58737e-39
3.46976e-39
4.8862e-39
7.38068e-39
1.21558e-38
2.18631e-38
4.22255e-38
8.53441e-38
1.765e-37
3.65725e-37
7.37925e-37
1.40496e-36
2.46178e-36
3.90278e-36
5.52457e-36
6.88339e-36
1
1
1
0.977494
0.385166
1.80942e-19
1.03323e-18
1.01767e-18
6.27373e-19
3.30645e-19
1.06774e-19
2.31065e-20
3.16875e-21
3.36362e-22
2.17685e-23
8.33098e-25
1.78287e-26
3.11869e-28
7.23566e-29
3.02701e-29
1.06004e-29
2.95755e-30
6.17459e-31
8.85533e-32
8.27169e-33
6.464e-34
4.00078e-35
2.09143e-36
9.5601e-38
4.05294e-39
1.76789e-40
1.89166e-41
1.61189e-41
2.123e-41
2.82302e-41
3.7157e-41
4.83795e-41
6.23583e-41
7.96545e-41
1.01005e-40
1.27387e-40
1.60155e-40
2.0122e-40
2.53395e-40
3.21134e-40
4.12207e-40
5.41079e-40
7.35682e-40
1.05197e-39
1.60358e-39
2.62031e-39
4.54313e-39
8.15975e-39
1.48127e-38
2.66691e-38
4.66732e-38
7.75958e-38
1.19718e-37
1.66954e-37
2.11412e-37
1
1
1
0.991815
0.448513
1.80906e-19
1.05667e-18
1.1172e-18
7.24975e-19
4.34991e-19
1.75577e-19
4.52288e-20
7.12409e-21
8.49397e-22
6.21841e-23
2.69747e-24
6.43934e-26
7.83788e-28
4.40747e-29
1.78327e-29
6.36203e-30
1.80666e-30
3.83274e-31
5.57166e-32
5.25071e-33
4.12964e-34
2.56816e-35
1.34669e-36
6.16158e-38
2.60031e-39
1.08059e-40
5.96382e-42
2.11761e-42
2.5773e-42
3.42247e-42
4.51603e-42
5.90042e-42
7.63365e-42
9.7791e-42
1.24093e-41
1.56117e-41
1.95067e-41
2.42618e-41
3.01237e-41
3.74668e-41
4.68638e-41
5.9254e-41
7.62274e-41
1.00626e-40
1.3781e-40
1.97979e-40
3.00169e-40
4.77726e-40
7.8405e-40
1.29217e-39
2.08926e-39
3.26272e-39
4.82672e-39
6.58454e-39
8.08256e-39
1
1
1
0.998437
0.492805
1.80942e-19
1.06211e-18
1.18229e-18
7.8011e-19
5.1177e-19
2.55901e-19
8.1398e-20
1.51264e-20
2.01954e-21
1.69036e-22
8.3219e-24
2.24536e-25
2.88619e-27
3.59724e-29
1.02209e-29
3.71004e-30
1.07437e-30
2.32325e-31
3.43471e-32
3.268e-33
2.58122e-34
1.6086e-35
8.43393e-37
3.85445e-38
1.62165e-39
6.6409e-41
2.93766e-42
3.3289e-43
2.85079e-43
3.73787e-43
4.94623e-43
6.47622e-43
8.38942e-43
1.07621e-42
1.36813e-42
1.72431e-42
2.15507e-42
2.67219e-42
3.29067e-42
4.03243e-42
4.9357e-42
6.06128e-42
7.50652e-42
9.4236e-42
1.20529e-41
1.5798e-41
2.13348e-41
2.9834e-41
4.32871e-41
6.45018e-41
9.64651e-41
1.41214e-40
1.9765e-40
2.58251e-40
3.16071e-40
1
1
1
1
0.509809
9.6411e-19
1.05958e-18
1.22936e-18
7.97089e-19
5.41997e-19
3.24775e-19
1.3208e-19
2.99126e-20
4.50295e-21
4.33713e-22
2.43058e-23
7.46322e-25
1.10191e-26
7.28814e-29
5.75151e-30
2.10866e-30
6.21452e-31
1.36704e-31
2.05169e-32
1.97086e-33
1.56646e-34
9.8163e-36
5.16087e-37
2.35904e-38
9.88765e-40
4.00592e-41
1.66912e-42
9.27673e-44
2.94588e-44
3.50181e-44
4.65793e-44
6.15725e-44
8.03869e-44
1.03599e-43
1.31844e-43
1.65938e-43
2.06906e-43
2.55976e-43
3.14569e-43
3.84065e-43
4.65947e-43
5.622e-43
6.76158e-43
8.14229e-43
9.88949e-43
1.22003e-42
1.53579e-42
1.97466e-42
2.59504e-42
3.47826e-42
4.72849e-42
6.44786e-42
8.62522e-42
1.09653e-41
1.30582e-41
1
1
1
1
0.470845
0.00167611
1.05926e-18
1.27563e-18
7.98324e-19
5.32851e-19
3.53515e-19
1.85123e-19
5.3808e-20
9.33851e-21
1.04198e-21
6.67444e-23
2.34536e-24
4.03702e-26
2.78641e-28
3.37991e-30
1.16024e-30
3.49178e-31
7.83717e-32
1.19488e-32
1.15675e-33
9.21598e-35
5.78425e-36
3.04362e-37
1.39314e-38
5.84164e-40
2.35763e-41
9.6379e-43
4.33791e-44
3.95744e-45
2.7135e-45
3.50946e-45
4.66732e-45
6.15373e-45
8.02968e-45
1.03581e-44
1.31914e-44
1.65691e-44
2.05216e-44
2.50875e-44
3.03423e-44
3.64228e-44
4.34868e-44
5.16835e-44
6.1069e-44
7.17306e-44
8.39487e-44
9.84461e-44
1.16712e-43
1.40987e-43
1.73925e-43
2.18028e-43
2.75605e-43
3.46254e-43
4.22235e-43
4.97455e-43
1
1
1
1
0.395817
3.73834e-18
2.05237e-18
1.33917e-18
8.09384e-19
5.1234e-19
3.38187e-19
2.09876e-19
8.35598e-20
1.75759e-20
2.30058e-21
1.70131e-22
6.90544e-24
1.39557e-25
1.1614e-27
3.54894e-30
6.13912e-31
1.88264e-31
4.30938e-32
6.69281e-33
6.56397e-34
5.27115e-35
3.32532e-36
1.75035e-37
7.98955e-39
3.33361e-40
1.33533e-41
5.38922e-43
2.31227e-44
1.18984e-45
1.91205e-46
1.86472e-46
2.49765e-46
3.3527e-46
4.43719e-46
5.79125e-46
7.46353e-46
9.5042e-46
1.19563e-45
1.48409e-45
1.81394e-45
2.1808e-45
2.57967e-45
3.0084e-45
3.46998e-45
3.97221e-45
4.51826e-45
5.10038e-45
5.71158e-45
6.37661e-45
7.16557e-45
8.19033e-45
9.57608e-45
1.13718e-44
1.34091e-44
1.5438e-44
1
1
1
1
1
1
1
1
1
1
1
1
1
1
1
1
1
1
1
1
1
1
1
1
1
1
1
1
1
1
1
1
1
1
1
1
1
1
1
1
1
1
1
1
1
1
1
1
1
1
1
1
1
1
1
1
1
1
1
1
1
1
1
1
1
1
1
1
1
1
1
1
1
1
1
1
1
1
1
1
1
1
1
1
1
1
1
1
1
1
1
1
1
1
1
1
1
1
1
1
1
1
1
1
1
1
1
1
1
1
1
1
1
1
1
1
1
1
1
1
1
1
1
1
1
1
1
1
1
1
1
1
1
1
1
1
1
1
1
1
1
1
1
1
1
1
1
1
1
1
1
1
1
1
1
1
1
1
1
1
1
1
1
1
1
1
1
1
1
1
1
1
1
1
1
1
1
1
1
1
1
1
1
1
1
1
1
1
1
1
1
1
1
1
1
1
1
1
1
1
1
1
1
1
1
1
1
1
1
1
1
1
1
1
1
1
1
1
1
1
0.999872
1
1
1
1
1
1
1
1
1
0.999256
0.997174
0.992627
0.984166
0.970689
0.948506
0.91865
0.86767
0.811616
0.715731
0.507268
0.513075
0.504113
0.504668
0.49136
0.484381
0.465912
0.450517
0.426449
0.400163
0.3682
0.331616
0.290759
0.245517
0.197732
0.147111
0.0998215
0.0532972
0.00683576
5.22223e-19
4.0693e-23
4.05892e-23
4.04857e-23
4.03826e-23
4.02797e-23
4.01771e-23
4.00748e-23
3.99728e-23
3.98711e-23
3.97697e-23
3.96686e-23
3.95678e-23
3.94672e-23
3.9367e-23
3.9267e-23
3.91674e-23
3.9068e-23
3.89689e-23
3.88701e-23
5.14044e-23
3.69446e-22
3.49262e-22
6.19976e-22
8.73578e-22
1.13101e-21
1.1797e-21
1.23062e-21
1.19287e-21
1.11528e-21
9.78524e-22
7.99008e-22
5.76212e-22
3.43229e-22
1.60709e-22
7.46627e-23
5.42142e-23
5.39065e-23
4.6623e-23
3.87715e-23
5.81241e-23
1.95591e-22
8.35613e-23
7.60557e-23
1.02481e-22
1.57862e-22
1.74261e-22
1.81882e-22
1.78085e-22
1.65221e-22
1.45759e-22
1.21987e-22
9.75504e-23
7.33167e-23
5.24853e-23
3.55143e-23
2.26006e-23
1.54174e-23
9.56098e-24
5.97847e-24
3.65891e-24
1.5259e-22
5.23315e-23
1.68855e-23
1.57243e-23
2.16792e-23
2.35399e-23
2.39898e-23
2.20093e-23
1.88225e-23
1.49757e-23
1.11163e-23
7.70728e-24
4.97142e-24
2.97914e-24
1.62581e-24
8.21323e-25
2.74365e-25
6.60809e-26
1.72169e-26
1.23776e-26
5.28528e-23
6.9288e-24
2.61016e-24
2.34081e-24
2.55404e-24
2.6254e-24
2.55352e-24
2.3166e-24
1.97288e-24
1.58086e-24
1.19544e-24
8.51421e-25
5.75052e-25
3.66524e-25
2.23937e-25
1.34021e-25
6.7921e-26
2.01483e-26
6.14705e-27
2.64146e-27
2.08655e-23
5.05667e-24
1.09424e-24
4.88065e-25
4.23802e-25
3.88183e-25
3.4338e-25
2.79336e-25
2.12018e-25
1.49801e-25
9.87165e-26
6.09044e-26
3.51149e-26
1.92567e-26
1.0079e-26
5.25965e-27
2.85918e-27
1.4144e-27
6.89129e-28
3.42384e-28
3.89062e-24
3.21489e-25
1.00907e-25
7.17099e-26
5.98425e-26
5.09783e-26
4.23088e-26
3.33264e-26
2.48726e-26
1.7559e-26
1.17201e-26
7.38263e-27
4.38664e-27
2.44067e-27
1.25878e-27
5.73399e-28
2.00372e-28
3.54338e-29
8.24328e-30
4.39872e-30
3.45726e-25
8.62634e-26
2.52994e-26
1.22927e-26
8.43939e-27
6.37219e-27
4.76321e-27
3.36814e-27
2.24019e-27
1.3958e-27
8.14783e-28
4.46511e-28
2.31141e-28
1.14567e-28
5.57386e-29
2.72668e-29
1.38298e-29
6.81371e-30
3.35372e-30
1.55906e-30
2.18735e-26
5.92058e-27
2.14805e-27
1.17831e-27
8.00813e-28
5.80775e-28
4.16858e-28
2.88167e-28
1.89723e-28
1.18119e-28
6.92018e-29
3.79296e-29
1.92614e-29
8.92998e-30
3.65782e-30
1.24514e-30
2.96502e-31
5.33418e-32
1.36953e-32
5.00488e-33
8.71461e-28
3.04738e-28
1.44466e-28
9.06602e-29
5.87228e-29
3.94403e-29
2.56989e-29
1.60008e-29
9.33826e-30
5.07191e-30
2.56338e-30
1.21203e-30
5.4394e-31
2.35605e-31
1.01573e-31
4.35916e-32
1.93916e-32