/*--------------------------------*- C++ -*----------------------------------*\
| =========                 |                                                 |
| \\      /  F ield         | OpenFOAM: The Open Source CFD Toolbox           |
|  \\    /   O peration     | Version:  v1606+                                |
|   \\  /    A nd           | Web:      www.OpenFOAM.com                      |
|    \\/     M anipulation  |                                                 |
\*---------------------------------------------------------------------------*/
FoamFile
{
    version     2.0;
    format      ascii;
    class       volScalarField;
    location    "42";
    object      epsilon;
}
// * * * * * * * * * * * * * * * * * * * * * * * * * * * * * * * * * * * * * //

dimensions      [0 2 -3 0 0 0 0];

internalField   nonuniform List<scalar> 
5080
(
0.000104036
0.000105215
0.000106369
0.000107506
0.000108597
0.000109662
0.000110659
0.000111629
0.000112518
0.000113393
0.000114188
0.000115015
0.000115783
0.000116659
0.000117477
0.000118393
0.000119096
0.000121167
0.000124828
0.000200775
4.42195e-05
4.53208e-05
4.73238e-05
5.05528e-05
5.55524e-05
6.23981e-05
7.23485e-05
8.49223e-05
0.000103162
0.000124832
0.000157207
0.000192644
0.000248499
0.000299616
0.000392423
0.000438569
0.000604936
0.000729631
0.00221864
0.00271134
4.46492e-05
4.57348e-05
4.74964e-05
5.02969e-05
5.47031e-05
6.13816e-05
7.12589e-05
8.56089e-05
0.000106177
0.000135219
0.000175908
0.000231636
0.000307348
0.00040598
0.000534691
0.000689721
0.000880376
0.00143868
0.00338514
0.00420846
4.57477e-05
4.79077e-05
5.07311e-05
5.45318e-05
5.99932e-05
6.76833e-05
7.89149e-05
9.48542e-05
0.000118269
0.000151328
0.000199864
0.000266952
0.000364547
0.000493049
0.000673646
0.000889566
0.00117712
0.00187029
0.00493715
0.00494097
4.71094e-05
5.07304e-05
5.50082e-05
6.03684e-05
6.73634e-05
7.68285e-05
8.98279e-05
0.000108181
0.000134142
0.000171693
0.000225289
0.00030303
0.00041122
0.00056555
0.00076411
0.00104848
0.00138214
0.00229435
0.00627867
0.00679848
4.8773e-05
5.41788e-05
6.03979e-05
6.77347e-05
7.69228e-05
8.85886e-05
0.000104213
0.000125172
0.000154753
0.000195948
0.000256073
0.0003407
0.000465415
0.000636962
0.000882434
0.00119377
0.00163486
0.00260088
0.00709121
0.00765181
5.06364e-05
5.82178e-05
6.67442e-05
7.66661e-05
8.84904e-05
0.000103194
0.000121814
0.000146553
0.000179617
0.000226251
0.000290836
0.000385663
0.000515945
0.000709626
0.000957243
0.00133088
0.00178386
0.00299546
0.00815862
0.00962898
5.27068e-05
6.27097e-05
7.40139e-05
8.69513e-05
0.000102153
0.000120392
0.000143086
0.000171881
0.000210186
0.000261519
0.000334232
0.000435
0.000584359
0.000789066
0.00109654
0.00147925
0.00208721
0.00331267
0.00883186
0.0103352
5.48606e-05
6.75246e-05
8.19345e-05
9.8422e-05
0.000117551
0.000140213
0.000167611
0.000201891
0.000245653
0.000304462
0.000383338
0.000496884
0.000650637
0.00088273
0.00117796
0.00163879
0.00220835
0.00376024
0.00977351
0.0125027
5.69987e-05
7.24359e-05
9.0193e-05
0.000110646
0.00013432
0.000162156
0.000195373
0.000236034
0.000287297
0.000353667
0.000443539
0.000565363
0.000743002
0.00098293
0.00135872
0.001813
0.00262077
0.0041199
0.0104652
0.0131481
5.90247e-05
7.71561e-05
9.83582e-05
0.000123003
0.00015177
0.000185518
0.000225682
0.000274218
0.000334431
0.000411525
0.000512275
0.00065142
0.000837993
0.00111706
0.00146919
0.00203737
0.00273798
0.00471009
0.0113747
0.0157137
6.07814e-05
8.13845e-05
0.000105887
0.000134825
0.000168967
0.000209434
0.000257569
0.000315787
0.000387125
0.000477366
0.000594373
0.00074985
0.000967962
0.00126041
0.00172373
0.00227461
0.00337503
0.0051836
0.0123249
0.016365
6.21253e-05
8.47914e-05
0.000112193
0.000145228
0.000184874
0.00023256
0.000289999
0.000359534
0.00044513
0.000551979
0.000689591
0.000871708
0.00111475
0.00146596
0.00191047
0.00264527
0.00353787
0.00607835
0.0133037
0.0197149
6.30375e-05
8.70798e-05
0.000116845
0.000153361
0.000198363
0.000253498
0.00032117
0.000404306
0.000506866
0.000635966
0.000800123
0.00101664
0.00130798
0.00170001
0.00229983
0.00302958
0.00463212
0.00683167
0.0150756
0.0205217
6.32907e-05
8.8123e-05
0.000119276
0.000158695
0.000208238
0.000270928
0.000349395
0.000447881
0.000571548
0.000727369
0.000928693
0.00119118
0.00154516
0.00203574
0.00267421
0.00373612
0.00499351
0.00841237
0.0163585
0.0255815
6.3065e-05
8.77322e-05
0.000119475
0.000160413
0.000213871
0.000282993
0.000372879
0.000487978
0.000636013
0.000826766
0.00107283
0.0014025
0.00184389
0.00245615
0.00333983
0.00450152
0.00706032
0.00998806
0.0208342
0.0271412
6.22768e-05
8.61051e-05
0.000117316
0.000158802
0.000214321
0.000289285
0.000388908
0.000522167
0.000697085
0.000928429
0.00123659
0.00164666
0.00222282
0.00302759
0.00415709
0.00601244
0.00824731
0.0136323
0.023735
0.0372802
6.09166e-05
8.3358e-05
0.000113012
0.000153708
0.000209976
0.000288201
0.000397269
0.00054604
0.000751383
0.00102868
0.00140805
0.00193838
0.00267253
0.00378114
0.00540264
0.00785952
0.0128798
0.0182568
0.0397607
0.0434871
5.95163e-05
7.96752e-05
0.000107342
0.000145616
0.000200919
0.000280363
0.00039473
0.000559451
0.000790083
0.00112102
0.00158388
0.00224764
0.00323883
0.00470353
0.00707755
0.0111475
0.017472
0.0301036
0.0579761
0.0810295
5.75516e-05
7.57087e-05
0.00010027
0.000136006
0.00018781
0.000266413
0.000382916
0.000556321
0.000814706
0.00118728
0.00174753
0.00257532
0.00382634
0.00591802
0.00929211
0.0151042
0.0310029
0.0459045
0.169777
0.144248
2.77334
26.9467
38.6387
45.9485
48.9785
48.5498
46.2151
43.2533
40.2846
37.5092
34.9554
32.5905
30.3793
28.3085
26.3838
24.6333
23.0788
21.7013
20.4841
19.4106
18.4645
17.6313
16.8992
16.2579
15.6985
15.2141
14.8008
14.4557
14.1704
13.9286
13.714
13.5209
13.3589
13.2367
13.1528
13.1048
13.0912
13.1122
13.1691
13.2617
13.3882
13.544
13.7224
13.9304
14.173
14.4528
14.769
15.1158
15.4873
15.8768
16.2831
16.7028
17.1377
17.5868
18.0527
18.5362
19.0358
19.541
20.043
20.5232
4.55192
18.1179
25.1617
28.6546
29.3697
28.1732
26.1389
24.0053
22.063
20.3606
18.8612
17.5187
16.3004
15.1878
14.1711
13.2469
12.4086
11.6404
10.9373
10.2996
9.72778
9.21872
8.76661
8.36642
8.01443
7.70698
7.44001
7.20989
7.01245
6.84344
6.69845
6.57527
6.47346
6.39273
6.3291
6.28185
6.2515
6.23679
6.23473
6.24472
6.26855
6.30935
6.36643
6.44016
6.52837
6.62812
6.73888
6.86141
6.99595
7.14238
7.29717
7.46187
7.63403
7.81662
8.00843
8.20531
8.40116
8.59505
8.78595
8.96833
4.76227
15.8533
21.2271
24.0502
24.8041
23.9141
22.1324
20.1879
18.444
16.986
15.7711
14.7297
13.809
12.978
12.2198
11.5247
10.8865
10.298
9.7559
9.26036
8.81256
8.41271
8.05965
7.7514
7.48565
7.25988
7.07154
6.91816
6.79626
6.70014
6.6236
6.56232
6.51458
6.4795
6.45509
6.43912
6.43136
6.43317
6.44552
6.46893
6.50308
6.54675
6.59723
6.65393
6.71905
6.79329
6.87637
6.96723
7.06417
7.16613
7.27239
7.38331
7.49881
7.61916
7.74354
7.87068
7.99872
8.12642
8.25184
8.36761
4.85913
13.8849
17.306
18.8807
19.5503
19.3969
18.4624
17.2031
16.011
15.0276
14.2301
13.5435
12.9154
12.3246
11.766
11.2402
10.7494
10.2924
9.87
9.48506
9.14158
8.84303
8.59104
8.38516
8.22331
8.10257
8.0203
7.97407
7.95931
7.96683
7.98571
8.0085
8.03305
8.05925
8.08462
8.10505
8.12033
8.13834
8.16566
8.20607
8.25817
8.31649
8.37381
8.42699
8.48303
8.54619
8.61697
8.69258
8.7691
8.84464
8.91978
8.996
9.07421
9.15422
9.2353
9.31725
9.39968
9.48154
9.56109
9.63185
4.93111
12.1256
13.9437
14.4239
15.1271
15.995
16.275
15.8878
15.2899
14.7365
14.2653
13.8144
13.347
12.872
12.4104
11.9781
11.5839
11.2328
10.9247
10.6606
10.4429
10.2749
10.1584
10.0926
10.0745
10.098
10.1564
10.2478
10.3682
10.504
10.6372
10.7554
10.8558
10.9399
11.0052
11.0453
11.0607
11.0688
11.0882
11.1287
11.1882
11.2548
11.3139
11.3571
11.3953
11.4385
11.4883
11.5399
11.5865
11.6252
11.6583
11.6893
11.7207
11.7517
11.7815
11.8103
11.8386
11.8662
11.892
11.913
4.99761
10.4991
11.2771
11.3618
12.5053
14.6435
16.5763
17.0491
16.8831
16.5287
16.1388
15.7095
15.2394
14.7713
14.3486
13.995
13.7146
13.5069
13.3695
13.2912
13.2646
13.2859
13.3562
13.4732
13.6325
13.8241
14.0394
14.2772
14.535
14.7947
15.0315
15.2282
15.3808
15.4919
15.5573
15.566
15.5225
15.4627
15.427
15.4326
15.4741
15.5293
15.5714
15.5852
15.5841
15.5849
15.5908
15.5944
15.5854
15.5605
15.5245
15.4847
15.4446
15.4032
15.3587
15.3117
15.2639
15.2162
15.1689
15.1249
5.07564
9.1112
9.38713
9.85176
11.9103
15.5707
20.2773
20.9437
20.7833
20.333
19.8906
19.3353
18.7989
18.3658
18.077
17.9408
17.9392
18.042
18.2198
18.4447
18.6859
18.9475
19.2425
19.5589
19.8878
20.2226
20.5617
20.9082
21.2541
21.5745
21.8449
22.0528
22.1962
22.2707
22.2621
22.1458
21.924
21.6912
21.5316
21.4599
21.4523
21.464
21.4534
21.4048
21.3323
21.2589
21.1862
21.1021
20.9939
20.8608
20.7135
20.5631
20.4138
20.263
20.108
19.9505
19.7938
19.6402
19.4917
19.3589
5.15937
8.01667
8.12411
9.59191
13.2031
19.1108
32.4913
28.284
26.5192
25.307
24.5626
24.065
23.7309
23.5546
23.5703
23.7807
24.1422
24.5994
25.0916
25.5637
25.9876
26.3841
26.7757
27.1579
27.529
27.8849
28.2331
28.5887
28.9389
29.2409
29.469
29.6302
29.7461
29.8229
29.8455
29.8008
29.7114
29.6039
29.5121
29.4742
29.4747
29.454
29.3553
29.1987
29.0181
28.8347
28.6422
28.4151
28.1408
27.8317
27.5129
27.1996
26.8917
26.5801
26.2631
25.9461
25.637
25.3363
25.0506
24.7929
5.23804
7.12977
7.21042
9.80037
15.2647
24.176
31.0599
32.0286
30.0387
29.441
29.4549
29.8218
30.0538
30.0873
30.0815
30.1393
30.2559
30.391
30.5175
30.6237
30.714
30.7909
30.864
30.9685
31.1108
31.2824
31.4827
31.7177
31.9746
32.2191
32.4349
32.6408
32.8771
33.1805
33.5603
34.0355
34.6521
35.3116
35.9087
36.4122
36.7762
36.9549
36.946
36.8066
36.599
36.3508
36.0627
35.7058
35.2752
34.7995
34.3168
33.8466
33.3843
32.9125
32.429
31.9427
31.4691
31.0091
30.5825
30.1996
5.30837
6.47485
6.41084
9.50268
15.3795
21.982
32.4543
35.8051
34.2641
34.4092
35.6413
36.8028
37.2556
37.064
36.5961
36.0877
35.5868
35.0725
34.5497
34.0466
33.5859
33.1839
32.8641
32.6454
32.5124
32.4445
32.4387
32.4982
32.6087
32.7449
32.9024
33.1084
33.4053
33.8197
34.3425
34.9526
35.6366
36.3728
37.1418
37.8779
38.4651
38.8188
38.9423
38.9083
38.7883
38.6117
38.3666
38.033
37.6143
37.1439
36.6607
36.1831
35.7045
35.2104
34.7011
34.1887
33.6906
33.2124
32.7691
32.3822
5.37116
6.06743
5.69255
8.87329
16.3938
24.0804
32.0316
36.1688
34.4942
34.5401
36.3811
38.2758
39.2743
39.3871
38.9917
38.3705
37.6288
36.804
35.9424
35.0879
34.2856
33.5842
33.0159
32.5788
32.2456
31.9953
31.8243
31.7325
31.708
31.7365
31.8221
31.9905
32.2712
32.6723
33.1679
33.7193
34.3125
34.9721
35.7084
36.4519
37.0809
37.5081
37.7307
37.8066
37.7941
37.7151
37.5593
37.3126
36.9824
36.5995
36.1975
35.7904
35.3728
34.9355
34.4814
34.0247
33.5818
33.1584
32.7652
32.4296
5.42481
5.78843
5.27598
8.80194
18.6904
27.518
30.2666
31.2886
28.7584
28.0345
29.7637
32.2199
34.1286
35.2108
35.6404
35.6313
35.313
34.7629
34.0638
33.3001
32.5451
31.8632
31.2905
30.8254
30.4474
30.1428
29.9096
29.7476
29.6507
29.6148
29.648
29.7694
29.9942
30.3176
30.7117
31.1453
31.6193
32.1679
32.8012
33.4588
34.0414
34.4778
34.7598
34.9237
35.0068
35.0216
34.9606
34.8161
34.5973
34.3294
34.0374
33.7318
33.4096
33.0669
32.7094
32.3499
32.0009
31.6663
31.3547
31.0943
5.47283
5.58748
5.12558
9.0096
21.3166
32.3238
30.7234
27.0788
22.7409
20.5388
21.1096
23.1229
25.2853
27.0644
28.3389
29.1426
29.5455
29.6097
29.4264
29.0909
28.6886
28.2879
27.9281
27.6175
27.3502
27.1225
26.9368
26.7965
26.7024
26.6581
26.6729
26.7598
26.9252
27.1616
27.4493
27.7732
28.1441
28.59
29.1136
29.6676
30.1799
30.5982
30.9117
31.1375
31.2945
31.3876
31.4118
31.3648
31.2558
31.1037
30.9254
30.7283
30.5118
30.2758
30.0268
29.7752
29.5295
29.2934
29.0745
28.8974
5.52269
5.5198
5.04854
9.19409
24.0337
36.8004
32.0317
24.423
18.1524
14.5001
13.658
14.6336
16.3361
18.1814
19.8395
21.1751
22.1746
22.8403
23.2324
23.4257
23.4919
23.4892
23.4548
23.4048
23.3448
23.2802
23.2186
23.1679
23.135
23.1283
23.1579
23.2336
23.3599
23.5331
23.7449
23.9938
24.2934
24.6619
25.0965
25.5624
26.0106
26.4043
26.7312
26.9957
27.2043
27.3575
27.4526
27.4902
27.4782
27.4296
27.3552
27.2602
27.1457
27.0138
26.8704
26.7229
26.5773
26.4374
26.3098
26.213
5.57889
5.57097
4.97605
9.2473
24.5799
40.3667
34.2231
22.9548
14.765
10.0102
8.12842
8.15593
9.16479
10.6473
12.2092
13.6512
14.9192
15.9498
16.7583
17.38
17.8558
18.223
18.5092
18.7307
18.8983
19.0221
19.113
19.182
19.2399
19.2977
19.3665
19.4559
19.5721
19.7174
19.8932
20.1053
20.3658
20.6851
21.0578
21.4597
21.8582
22.2278
22.5564
22.8413
23.0827
23.2794
23.4299
23.5359
23.6034
23.6406
23.6542
23.648
23.6239
23.5845
23.5346
23.4796
23.4238
23.3712
23.327
23.3022
5.64372
5.64799
4.931
9.28227
23.4408
43.0695
36.72
22.1461
12.0687
6.65464
4.33721
3.86115
4.31364
5.29804
6.47104
7.6859
8.89684
9.99896
10.9745
11.8197
12.5428
13.1562
13.673
14.1032
14.4562
14.7417
14.9706
15.1547
15.3057
15.4356
15.5562
15.678
15.8097
15.9584
16.1309
16.3353
16.5811
16.8734
17.2068
17.5646
17.9259
18.2728
18.5948
18.8867
19.1464
19.3719
19.5627
19.7203
19.8487
19.9527
20.0365
20.1027
20.1532
20.1907
20.2186
20.241
20.2616
20.2843
20.3127
20.3491
5.72404
5.70136
4.95354
9.30814
22.5236
43.5648
39.1937
21.6016
9.84158
4.22045
2.02978
1.47938
1.60597
2.126
2.81679
3.64594
4.57654
5.51042
6.419
7.27148
8.05379
8.75601
9.37644
9.91592
10.3774
10.7667
11.0917
11.3621
11.5886
11.7825
11.9549
12.117
12.2787
12.449
12.6364
12.8488
13.0928
13.3707
13.6781
14.0041
14.3354
14.6598
14.9691
15.2583
15.5248
15.7667
15.9838
16.177
16.3486
16.5014
16.6377
16.7592
16.8677
16.9653
17.0546
17.139
17.2218
17.3065
17.3949
17.4808
5.76964
5.75445
5.02428
9.39456
21.9522
42.7806
40.9227
20.9694
8.19187
2.70419
0.836538
0.421615
0.441949
0.662903
0.952372
1.37143
1.92409
2.5581
3.24393
3.93772
4.62375
5.27352
5.87521
6.42167
6.90732
7.33228
7.70007
8.01642
8.28906
8.52699
8.73995
8.93773
9.12973
9.3246
9.53009
9.75265
9.99673
10.2634
10.5497
10.8489
11.1528
11.4537
11.7457
12.0249
12.2891
12.5368
12.7677
12.9822
13.1813
13.3665
13.539
13.6999
13.8504
13.9922
14.1276
14.2593
14.3904
14.5238
14.6594
14.783
5.7856
5.81736
5.06577
9.53601
21.712
41.7572
41.4813
20.1991
6.93017
1.76178
0.311198
0.0781058
0.0795954
0.149425
0.236385
0.395908
0.63681
0.943898
1.33251
1.77892
2.27721
2.77769
3.26821
3.74004
4.1769
4.57489
4.93316
5.25257
5.53691
5.79206
6.02499
6.24302
6.4535
6.6633
6.87844
7.10363
7.34189
7.59397
7.85817
8.1308
8.40711
8.68252
8.95332
9.21685
9.47136
9.71582
9.94975
10.1732
10.3864
10.59
10.7844
10.9703
11.1486
11.3205
11.488
11.6535
11.8199
11.9894
12.1599
12.31
5.78148
5.89399
5.05522
9.59275
22.1102
40.9662
41.146
19.2373
5.87218
1.17595
0.117074
0.00897853
0.00848976
0.0208623
0.038853
0.0803707
0.154168
0.261122
0.422272
0.635277
0.899551
1.20249
1.53003
1.87872
2.21541
2.53814
2.844
3.12783
3.38985
3.63279
3.86041
4.07675
4.28652
4.49439
4.70446
4.91982
5.14252
5.37329
5.61148
5.85528
6.10224
6.34987
6.59601
6.83901
7.07768
7.31122
7.53915
7.76122
7.97732
8.18747
8.39174
8.5904
8.78404
8.97376
9.16124
9.34872
9.53857
9.73241
9.92618
10.0925
5.75745
5.99071
5.00105
9.51175
22.61
40.9878
40.4419
18.0412
4.9285
0.800588
0.0509408
0.00121411
0.000717652
0.001817
0.00392376
0.00975278
0.0231837
0.0477057
0.0929455
0.163384
0.26422
0.398965
0.564299
0.757986
0.967581
1.18626
1.41213
1.63092
1.84187
2.04578
2.24343
2.43515
2.62343
2.81096
3.0001
3.19244
3.38932
3.59147
3.79882
4.01062
4.22576
4.44305
4.66132
4.87962
5.09717
5.31339
5.5278
5.74002
5.94974
6.15668
6.36069
6.56181
6.76046
6.95755
7.15457
7.35351
7.55636
7.76398
7.97045
8.14384
5.71846
6.10483
4.92844
9.27486
22.3631
41.7741
40.2614
16.6468
4.06394
0.548184
0.0258306
0.000445318
0.000131387
0.000199257
0.000341083
0.000784191
0.00197639
0.00482995
0.0116452
0.0254395
0.0499139
0.0895349
0.146714
0.223928
0.319963
0.432768
0.56
0.696166
0.837671
0.983933
1.13287
1.28121
1.43056
1.5822
1.73713
1.8953
2.05761
2.22468
2.39673
2.57327
2.75395
2.93829
3.12569
3.31559
3.5075
3.70101
3.89568
4.0911
4.28687
4.48261
4.67805
4.87313
5.06815
5.26389
5.46163
5.66309
5.86982
6.08181
6.29149
6.46398
5.6647
6.22494
4.85259
8.96686
20.7245
41.9214
41.3498
15.2411
3.28516
0.369796
0.0139399
0.000284945
8.92229e-05
8.75592e-05
7.4047e-05
9.91491e-05
0.000169899
0.000347535
0.000821663
0.00202082
0.00483745
0.010873
0.0220974
0.04086
0.0690149
0.107985
0.158443
0.219973
0.291407
0.371896
0.460427
0.554934
0.65497
0.761265
0.873396
0.989805
1.1114
1.23872
1.37209
1.51063
1.65443
1.8034
1.95727
2.11554
2.278
2.44434
2.6142
2.78719
2.96292
3.14103
3.32121
3.50336
3.68773
3.87497
4.06614
4.26261
4.46539
4.67357
4.87816
5.04305
5.59438
6.34217
4.77109
8.68974
18.9265
40.6293
42.9475
13.8709
2.61327
0.247883
0.00822718
0.000229612
8.20617e-05
7.76791e-05
5.50616e-05
5.53923e-05
5.87625e-05
6.6969e-05
9.06715e-05
0.000148703
0.000295284
0.000666775
0.00155868
0.00354623
0.00751435
0.0146111
0.0260382
0.0429247
0.0660609
0.0960955
0.133366
0.177724
0.229072
0.287514
0.353109
0.425109
0.503664
0.589216
0.682569
0.781501
0.886796
0.998661
1.11709
1.24126
1.37129
1.50706
1.64821
1.79441
1.94542
2.10091
2.26061
2.42444
2.59262
2.76566
2.94437
3.12967
3.32195
3.51933
3.71184
3.86383
5.5021
6.45075
4.67472
8.46573
18.0187
38.9657
42.7184
12.3649
2.05128
0.167613
0.00536843
0.000213032
7.75151e-05
7.47324e-05
5.34243e-05
5.14442e-05
5.12933e-05
5.06413e-05
5.17175e-05
5.45123e-05
6.06781e-05
7.5942e-05
0.000111887
0.000198642
0.00040567
0.000881582
0.00190051
0.00390317
0.00747858
0.0133401
0.0222377
0.0348783
0.0519184
0.0739844
0.101609
0.135096
0.174825
0.221194
0.274644
0.334796
0.401987
0.476556
0.559334
0.648249
0.744201
0.847338
0.957333
1.07382
1.19683
1.32621
1.46166
1.6032
1.75102
1.9055
2.06712
2.23631
2.41274
2.59364
2.76848
2.90371
5.38296
6.54834
4.55654
8.24187
17.4026
37.6111
41.2027
10.8005
1.60557
0.117967
0.00399578
0.000220946
7.39704e-05
6.88316e-05
5.44601e-05
5.12073e-05
5.05514e-05
4.9015e-05
4.84444e-05
4.83536e-05
4.81709e-05
4.86346e-05
4.99501e-05
5.33815e-05
6.13345e-05
7.91839e-05
0.000119158
0.000208966
0.000407391
0.000828847
0.00167145
0.00323977
0.00595602
0.010352
0.0170402
0.0266746
0.0399443
0.0575396
0.0801231
0.108223
0.142418
0.183222
0.231097
0.285966
0.348332
0.418726
0.497161
0.582721
0.676113
0.777481
0.88641
1.00303
1.12763
1.26042
1.40147
1.55073
1.7072
1.86728
2.02042
2.13646
5.23245
6.63025
4.41259
7.99045
16.8246
36.2232
38.9985
9.35747
1.27571
0.0889563
0.00344396
0.000253244
7.43274e-05
6.47329e-05
5.66379e-05
5.11075e-05
5.02778e-05
4.87752e-05
4.76909e-05
4.72429e-05
4.65769e-05
4.60748e-05
4.56607e-05
4.53394e-05
4.52679e-05
4.57231e-05
4.72923e-05
5.11214e-05
5.94617e-05
7.72288e-05
0.000114953
0.000195343
0.000365463
0.000715265
0.00140313
0.00268152
0.00491946
0.00860644
0.0143415
0.0228105
0.0347608
0.050955
0.07214
0.0990112
0.132289
0.172633
0.220435
0.276068
0.340135
0.413406
0.495202
0.585679
0.685405
0.794581
0.912679
1.0393
1.17288
1.30921
1.43805
1.53371
5.04401
6.69146
4.24519
7.69799
16.2127
34.713
36.1597
8.11833
1.05886
0.0755323
0.0035648
0.000318191
8.30469e-05
6.5026e-05
5.93387e-05
5.16631e-05
5.00547e-05
4.86426e-05
4.71541e-05
4.65571e-05
4.58049e-05
4.52472e-05
4.47242e-05
4.41085e-05
4.35306e-05
4.29843e-05
4.25295e-05
4.22636e-05
4.23091e-05
4.29998e-05
4.48756e-05
4.9098e-05
5.80063e-05
7.64744e-05
0.000115024
0.000196032
0.000365811
0.000714156
0.00140245
0.00269655
0.00499439
0.00883721
0.0149052
0.0239999
0.0370112
0.0548684
0.0784972
0.108846
0.146829
0.193244
0.248463
0.313058
0.387532
0.472452
0.566371
0.668708
0.777585
0.888456
0.991544
1.06598
4.81032
6.72023
4.06056
7.3719
15.5369
33.0184
33.0126
7.14263
0.944595
0.0760739
0.00465747
0.000475087
0.000107815
6.71296e-05
6.093e-05
5.30968e-05
5.00742e-05
4.88755e-05
4.68823e-05
4.61642e-05
4.52912e-05
4.45662e-05
4.39487e-05
4.33658e-05
4.28835e-05
4.23487e-05
4.17798e-05
4.11963e-05
4.06552e-05
4.01941e-05
3.98795e-05
3.97972e-05
4.00816e-05
4.10785e-05
4.34817e-05
4.86583e-05
5.9534e-05
8.23251e-05
0.000130633
0.000233912
0.000453822
0.000911937
0.00183009
0.00357809
0.00671416
0.012004
0.0204195
0.0331072
0.0513034
0.0762162
0.108908
0.150297
0.201025
0.261346
0.330712
0.408219
0.491592
0.576204
0.652413
0.702788
4.52269
6.70439
3.86407
7.02832
14.8281
31.1337
29.885
6.46439
0.922988
0.0925217
0.00741574
0.000840101
0.000162698
7.4939e-05
6.2588e-05
5.51094e-05
5.01159e-05
4.8905e-05
4.65305e-05
4.57644e-05
4.48742e-05
4.41731e-05
4.35178e-05
4.29027e-05
4.2326e-05
4.17586e-05
4.12578e-05
4.07791e-05
4.02921e-05
3.97923e-05
3.92928e-05
3.88256e-05
3.84317e-05
3.81592e-05
3.80385e-05
3.8167e-05
3.87653e-05
4.03115e-05
4.38194e-05
5.14413e-05
6.79608e-05
0.000104263
0.000185406
0.000368223
0.000776211
0.00165951
0.0034801
0.00699802
0.0133035
0.0237429
0.0397385
0.062575
0.093196
0.132054
0.178966
0.232914
0.291381
0.349257
0.396515
0.412734
4.17268
6.62559
3.6621
6.67457
14.1081
29.1688
27.0611
6.07737
0.991691
0.132846
0.0136351
0.0016672
0.000279697
9.2002e-05
6.46921e-05
5.79865e-05
5.0664e-05
4.91345e-05
4.6437e-05
4.53295e-05
4.42369e-05
4.35802e-05
4.30462e-05
4.25595e-05
4.20006e-05
4.14531e-05
4.09334e-05
4.04381e-05
3.99689e-05
3.95276e-05
3.90923e-05
3.86739e-05
3.82709e-05
3.78761e-05
3.75057e-05
3.71961e-05
3.69737e-05
3.68767e-05
3.69705e-05
3.74286e-05
3.86698e-05
4.16185e-05
4.83983e-05
6.41268e-05
0.000101606
0.000193522
0.000422809
0.000990454
0.00233719
0.00528766
0.0110823
0.0211579
0.0367544
0.058612
0.0867892
0.120375
0.156909
0.191345
0.214092
0.205362
3.75628
6.46454
3.46213
6.31135
13.392
27.262
24.6679
5.91951
1.14043
0.207199
0.0272191
0.0035402
0.000536977
0.000127424
6.85707e-05
5.97269e-05
5.13684e-05
4.92038e-05
4.66673e-05
4.52197e-05
4.40483e-05
4.31977e-05
4.25331e-05
4.19702e-05
4.15118e-05
4.11368e-05
4.07282e-05
4.02876e-05
3.98366e-05
3.93799e-05
3.89604e-05
3.85661e-05
3.81836e-05
3.78185e-05
3.74823e-05
3.71699e-05
3.68761e-05
3.66112e-05
3.63908e-05
3.62554e-05
3.62376e-05
3.63999e-05
3.69347e-05
3.83505e-05
4.19064e-05
5.08694e-05
7.42712e-05
0.000138042
0.000316708
0.000814024
0.00211644
0.00513682
0.0110873
0.0209976
0.0352352
0.0531886
0.0728626
0.090135
0.0975691
0.0824548
3.27968
6.19823
3.27483
5.95933
12.7172
25.5362
22.7308
5.89477
1.35638
0.325849
0.0553377
0.00773165
0.00110219
0.000203046
7.85927e-05
6.11063e-05
5.23194e-05
4.88159e-05
4.63685e-05
4.49246e-05
4.38948e-05
4.30646e-05
4.23449e-05
4.17069e-05
4.11947e-05
4.07617e-05
4.03582e-05
4.00157e-05
3.96729e-05
3.93171e-05
3.89498e-05
3.8559e-05
3.81767e-05
3.78224e-05
3.75016e-05
3.71977e-05
3.6917e-05
3.66648e-05
3.64485e-05
3.62692e-05
3.61232e-05
3.60228e-05
3.60059e-05
3.61274e-05
3.65046e-05
3.74865e-05
4.00642e-05
4.70331e-05
6.67647e-05
0.000125237
0.000301577
0.000815618
0.00216069
0.00510487
0.0103117
0.0177474
0.0262723
0.0333649
0.03476
0.0251301
2.77755
5.80453
3.1202
5.64423
12.1258
24.1044
21.2666
5.90039
1.61895
0.496732
0.109058
0.0168895
0.00231764
0.00037038
9.88781e-05
6.28205e-05
5.37979e-05
4.88153e-05
4.62643e-05
4.44343e-05
4.33729e-05
4.25882e-05
4.20225e-05
4.15371e-05
4.10792e-05
4.06314e-05
4.02086e-05
3.98273e-05
3.94681e-05
3.91483e-05
3.88383e-05
3.85304e-05
3.82262e-05
3.79167e-05
3.76006e-05
3.72971e-05
3.70205e-05
3.6771e-05
3.65487e-05
3.63528e-05
3.61954e-05
3.60932e-05
3.60465e-05
3.60499e-05
3.61172e-05
3.63022e-05
3.67229e-05
3.76902e-05
4.01073e-05
4.65773e-05
6.49032e-05
0.000119009
0.000278034
0.000710313
0.00170273
0.00348372
0.00583665
0.00784417
0.00795966
0.00479561
2.33533
5.26803
3.02172
5.39474
11.663
23.0572
20.2856
5.87463
1.8967
0.716108
0.200573
0.035895
0.00493523
0.000741789
0.000142094
6.54016e-05
5.48035e-05
4.8706e-05
4.62208e-05
4.4187e-05
4.30532e-05
4.21709e-05
4.15714e-05
4.11226e-05
4.07577e-05
4.04342e-05
4.01194e-05
3.97868e-05
3.94522e-05
3.91187e-05
3.87983e-05
3.84964e-05
3.82133e-05
3.79398e-05
3.76732e-05
3.74214e-05
3.7175e-05
3.69332e-05
3.67035e-05
3.65018e-05
3.63329e-05
3.61975e-05
3.61034e-05
3.60738e-05
3.61302e-05
3.62717e-05
3.64899e-05
3.682e-05
3.73824e-05
3.84658e-05
4.08056e-05
4.6254e-05
5.95238e-05
9.29081e-05
0.000174195
0.000344821
0.000612487
0.000859686
0.000845979
0.000422704
2.10289
4.61798
3.00866
5.24471
11.3836
22.4529
19.7049
5.8342
2.16131
0.961686
0.333892
0.0721163
0.0105675
0.00153791
0.000238271
7.2604e-05
5.58323e-05
4.84868e-05
4.57436e-05
4.3719e-05
4.26201e-05
4.18477e-05
4.12838e-05
4.08397e-05
4.04825e-05
4.01794e-05
3.99075e-05
3.96485e-05
3.93977e-05
3.91335e-05
3.8856e-05
3.85718e-05
3.82867e-05
3.80065e-05
3.77429e-05
3.74941e-05
3.72597e-05
3.70452e-05
3.68503e-05
3.66764e-05
3.65192e-05
3.63767e-05
3.62611e-05
3.61884e-05
3.61713e-05
3.62254e-05
3.63801e-05
3.66619e-05
3.70667e-05
3.75876e-05
3.83197e-05
3.95216e-05
4.16304e-05
4.52939e-05
5.14583e-05
6.15863e-05
7.59481e-05
8.86705e-05
8.99771e-05
6.52407e-05
2.26434
3.98047
3.11183
5.23391
11.3653
22.3737
19.2356
5.86547
2.40786
1.20247
0.497811
0.133353
0.0222488
0.00319936
0.00044977
8.9118e-05
5.71757e-05
4.85114e-05
4.54287e-05
4.32666e-05
4.2108e-05
4.13742e-05
4.08736e-05
4.05212e-05
4.02493e-05
4.00072e-05
3.97751e-05
3.95445e-05
3.93139e-05
3.90803e-05
3.88428e-05
3.86052e-05
3.83645e-05
3.81176e-05
3.78727e-05
3.76302e-05
3.73961e-05
3.7177e-05
3.69769e-05
3.67978e-05
3.6644e-05
3.65172e-05
3.64189e-05
3.63521e-05
3.63191e-05
3.63234e-05
3.638e-05
3.65182e-05
3.67776e-05
3.71966e-05
3.77735e-05
3.84687e-05
3.93363e-05
4.05681e-05
4.23483e-05
4.47393e-05
4.75957e-05
5.00653e-05
5.37466e-05
4.96801e-05
2.75154
3.56742
3.31203
5.44174
11.7279
22.9663
18.4871
6.08123
2.68606
1.41843
0.66383
0.221783
0.0446061
0.00662106
0.000901765
0.000127711
5.87324e-05
4.8067e-05
4.48629e-05
4.2779e-05
4.17001e-05
4.0996e-05
4.05319e-05
4.02081e-05
3.99615e-05
3.97576e-05
3.95821e-05
3.94156e-05
3.92452e-05
3.90574e-05
3.88587e-05
3.86445e-05
3.84237e-05
3.82041e-05
3.79843e-05
3.77698e-05
3.75595e-05
3.73536e-05
3.7156e-05
3.69722e-05
3.6805e-05
3.66584e-05
3.6536e-05
3.64453e-05
3.63985e-05
3.64012e-05
3.64496e-05
3.65415e-05
3.66816e-05
3.68961e-05
3.72367e-05
3.77581e-05
3.84451e-05
3.92101e-05
4.01002e-05
4.12905e-05
4.28223e-05
4.3968e-05
4.65526e-05
4.52724e-05
3.25093
3.40011
3.57244
5.93767
12.7129
24.2281
18.226
6.67236
3.11437
1.63599
0.799151
0.321027
0.0819381
0.0133893
0.00182496
0.000216494
6.26677e-05
4.74952e-05
4.41216e-05
4.20606e-05
4.10893e-05
4.04917e-05
4.01508e-05
3.99285e-05
3.97518e-05
3.95921e-05
3.94368e-05
3.92888e-05
3.91438e-05
3.89979e-05
3.8848e-05
3.86866e-05
3.85099e-05
3.83209e-05
3.81189e-05
3.7915e-05
3.77146e-05
3.75182e-05
3.73283e-05
3.71515e-05
3.69907e-05
3.68444e-05
3.67125e-05
3.65995e-05
3.65128e-05
3.64585e-05
3.64445e-05
3.64897e-05
3.66061e-05
3.67709e-05
3.69675e-05
3.72358e-05
3.76266e-05
3.81466e-05
3.87809e-05
3.95452e-05
4.05658e-05
4.13927e-05
4.37797e-05
4.35736e-05
3.63322
3.47248
3.95185
6.60669
14.5824
26.3498
20.062
7.93838
3.80208
1.9189
0.905805
0.391805
0.130776
0.0254032
0.003618
0.000404714
7.25054e-05
4.6846e-05
4.33366e-05
4.14328e-05
4.05897e-05
4.00523e-05
3.97547e-05
3.95877e-05
3.94839e-05
3.93978e-05
3.93155e-05
3.92234e-05
3.91127e-05
3.89867e-05
3.88508e-05
3.87056e-05
3.85531e-05
3.83905e-05
3.82242e-05
3.80559e-05
3.78827e-05
3.77035e-05
3.75241e-05
3.73506e-05
3.71869e-05
3.70311e-05
3.68861e-05
3.67629e-05
3.66678e-05
3.65944e-05
3.65392e-05
3.65145e-05
3.65362e-05
3.66093e-05
3.67384e-05
3.69228e-05
3.71407e-05
3.74025e-05
3.7755e-05
3.82102e-05
3.88715e-05
3.92659e-05
4.11683e-05
4.18687e-05
5.56576e-05
7.13728e-05
9.29779e-05
0.000124431
0.000172784
0.000246162
0.000362265
0.000539207
0.000810958
0.00123462
0.00186247
0.00286806
0.00451355
0.00694817
0.0128092
0.019844
0.0487489
0.0852713
0.395135
0.283958
5.42146e-05
6.71659e-05
8.59338e-05
0.000112758
0.000155239
0.000223351
0.00033091
0.000506845
0.000786688
0.00121702
0.00198208
0.00298868
0.00528812
0.00801733
0.0161315
0.0267997
0.0732036
0.105046
0.630414
0.601029
5.19177e-05
6.36385e-05
7.86988e-05
0.000101595
0.000138627
0.000195962
0.000301724
0.000449383
0.000758706
0.00113895
0.00202404
0.00309151
0.00567898
0.00909751
0.0191231
0.0296666
0.097927
0.121195
0.378752
0.828904
5.10735e-05
5.96021e-05
7.38477e-05
8.94743e-05
0.000126963
0.000167409
0.000273942
0.000393141
0.000695289
0.00106604
0.00192743
0.0030408
0.0059024
0.00895353
0.0216434
0.0302212
0.079371
0.139808
0.231779
0.635016
5.26035e-05
5.61345e-05
7.17925e-05
8.0722e-05
0.000117178
0.000147963
0.000241835
0.000344706
0.000613691
0.000928059
0.00182273
0.0026849
0.00591418
0.00836215
0.0185371
0.0302976
0.0529016
0.13092
0.182226
0.383152
5.07827e-05
5.32276e-05
6.53627e-05
7.29714e-05
0.000101817
0.000126979
0.000209354
0.000284914
0.000552163
0.000770058
0.00162404
0.00231014
0.00464032
0.00757792
0.0127848
0.0276782
0.0393614
0.0948162
0.140945
0.233102
4.64241e-05
5.01519e-05
5.73263e-05
6.49301e-05
8.91023e-05
0.000108191
0.000182224
0.00023677
0.000441487
0.000634681
0.00113987
0.00194037
0.00305925
0.00642325
0.00909583
0.0210297
0.0299322
0.0594323
0.0947163
0.143863
4.49707e-05
4.78447e-05
5.24412e-05
5.83238e-05
7.38268e-05
9.07102e-05
0.000131345
0.000191097
0.000286196
0.000517718
0.000734589
0.00157442
0.00213008
0.00477947
0.00661492
0.0135449
0.020579
0.0350811
0.0561484
0.0830404
4.47088e-05
4.57969e-05
4.79948e-05
5.36158e-05
6.01826e-05
8.08837e-05
9.6759e-05
0.000166128
0.000205503
0.000427753
0.000540065
0.00116717
0.0015497
0.00308575
0.00448218
0.00782915
0.0123183
0.0191964
0.0296598
0.042231
4.49371e-05
4.63795e-05
4.78224e-05
5.48973e-05
5.78379e-05
8.011e-05
8.81586e-05
0.00014788
0.000173671
0.000327424
0.000421611
0.000777375
0.00109788
0.00184134
0.00280437
0.00432893
0.00675431
0.0098766
0.0146559
0.0206883
4.87456e-05
5.22813e-05
6.0479e-05
7.03738e-05
7.80935e-05
9.93959e-05
0.000114622
0.000158537
0.000194688
0.000286818
0.000385532
0.000580661
0.000850538
0.00127688
0.00195426
0.00298545
0.00534225
0.0111503
0.0218953
0.0404455
0.00017631
0.000322109
0.000516092
0.000692076
0.000927651
0.00112375
0.00139569
0.00165555
0.00201936
0.0024548
0.00326373
0.00458557
0.00681548
0.0106666
0.0170587
0.0285129
0.0489159
0.0943273
0.142205