/*--------------------------------*- C++ -*----------------------------------*\
| =========                 |                                                 |
| \\      /  F ield         | OpenFOAM: The Open Source CFD Toolbox           |
|  \\    /   O peration     | Version:  v1606+                                |
|   \\  /    A nd           | Web:      www.OpenFOAM.com                      |
|    \\/     M anipulation  |                                                 |
\*---------------------------------------------------------------------------*/
FoamFile
{
    version     2.0;
    format      ascii;
    class       volScalarField;
    location    "1.07";
    object      epsilon.air;
}
// * * * * * * * * * * * * * * * * * * * * * * * * * * * * * * * * * * * * * //

dimensions      [0 2 -3 0 0 0 0];

internalField   nonuniform List<scalar> 
6000
(
134.433
16.6636
10.947
10.3739
10.192
9.98322
9.84116
9.83471
9.89511
9.975
10.0116
10.0157
10.0132
9.99819
9.97101
9.94017
9.90082
9.86501
9.86052
9.87288
9.85704
9.85026
9.88127
9.99396
10.1527
10.2756
10.3173
10.8783
16.6789
134.675
74.6628
24.8015
15.9782
14.14
13.2972
12.0701
11.4088
11.4441
11.632
11.6623
11.5466
11.4123
11.3131
11.2048
11.07
10.9435
10.827
10.757
10.8271
11.0167
11.1603
11.2499
11.4252
11.9715
12.7339
13.1635
13.4263
15.1963
24.1009
71.4555
42.1331
22.9154
16.7967
14.6071
13.3054
12.1625
11.6681
11.6301
11.6074
11.5315
11.3894
11.2471
11.128
11.0257
10.9267
10.8367
10.7583
10.7151
10.7485
10.8607
11.0126
11.201
11.4466
11.8788
12.5632
13.2455
14.1205
16.1103
21.9127
39.1899
26.7936
18.2065
15.7857
14.473
13.4126
12.5809
12.204
12.1982
12.1554
11.9446
11.6552
11.3967
11.1964
11.0543
10.9552
10.8862
10.8371
10.8251
10.9149
11.0937
11.333
11.5837
11.7989
11.9718
12.4314
13.0623
13.6868
14.6714
16.8176
24.5144
20.5094
14.4372
14.0821
14.0507
13.5635
12.9118
13.2794
13.4053
12.753
12.1781
11.782
11.4475
11.1979
11.0723
11.0322
11.0317
11.0381
11.0793
11.2373
11.4485
11.7088
12.0001
12.0128
11.8013
12.1643
12.6675
12.744
12.5007
12.9008
18.2739
19.1843
12.2964
12.4062
13.2326
13.6255
13.2823
14.1103
14.2908
13.1768
12.3644
11.9158
11.5544
11.2671
11.1379
11.1411
11.1992
11.2647
11.4102
11.698
12.0021
12.2456
12.4004
12.0395
11.5211
11.7076
11.8425
11.3219
10.6642
10.7741
16.7122
19.5645
11.364
11.1899
12.1166
13.1087
13.3342
13.9255
14.1914
13.3671
12.648
12.2013
11.805
11.4622
11.3341
11.345
11.353
11.4169
11.6547
12.0674
12.5011
12.7694
12.6455
11.8587
11.1869
11.0023
10.639
9.96529
9.42046
9.75929
16.7089
20.5953
11.2722
10.7419
11.4181
12.3884
13.2286
13.4825
13.8295
13.3817
12.8686
12.5009
12.0714
11.8257
11.7592
11.6204
11.4774
11.4788
11.7336
12.234
12.6962
12.9995
12.6822
11.6561
11.0546
10.4501
9.79956
9.1883
8.81678
9.3918
17.0048
22.4874
11.7699
11.0532
11.6425
12.5049
13.2798
13.3595
13.3088
13.1558
12.8431
12.6364
12.4097
12.4853
12.3913
12.1359
11.8938
11.7908
11.9075
12.2687
12.6779
12.8368
12.4723
11.6678
11.1673
10.3804
9.69448
9.09856
8.78508
9.49352
17.7039
25.323
12.9571
12.1374
12.8734
13.78
14.2131
13.5861
12.9151
12.7068
12.6464
12.7961
13.1983
13.7277
13.7581
13.4348
13.0244
12.7262
12.5716
12.5454
12.6992
12.5689
12.1099
11.8828
11.5392
10.8145
10.1638
9.5264
9.18512
10.0204
19.2011
29.4609
14.6742
14.0174
15.3771
16.7964
16.9042
14.6813
13.2473
12.8812
12.9755
13.6348
15.2322
16.8134
16.8749
16.0073
15.0771
14.4458
13.9605
13.4283
13.0215
12.6871
12.2611
12.4327
12.2879
11.8405
11.2371
10.5125
10.0612
10.9916
21.7427
31.9079
16.3781
16.4056
18.8767
21.407
21.0711
17.2678
15.0162
14.3349
14.6946
16.1823
19.6551
22.7101
22.0528
19.7595
17.8232
16.7297
15.9136
14.9907
14.0524
13.4941
13.292
13.4923
13.374
13.3691
12.9003
11.987
11.2373
12.0248
23.8002
31.5986
17.2716
18.6056
22.4122
25.5706
25.1119
21.4286
19.1325
18.1079
18.8474
21.3961
26.3823
29.7748
27.8814
23.8987
20.6724
18.967
17.8457
16.807
15.8333
15.4625
15.4647
15.2269
14.7094
15.0591
14.9642
13.8179
12.4948
12.4831
23.3179
28.2529
18.0528
19.5728
23.887
27.1867
26.1652
23.7116
22.3792
21.812
22.9316
25.9543
30.9879
34.3562
32.1452
26.8626
22.6134
20.4092
19.1069
18.1375
17.4351
17.2397
17.0239
16.4654
15.9763
16.5497
16.7631
15.3276
13.3838
12.2503
20.3856
27.9564
19.345
19.7808
22.8571
25.0794
24.7177
23.6552
23.3283
23.6528
25.1532
27.701
31.5444
34.548
32.2721
26.7232
22.9434
20.6895
19.2618
18.399
17.6703
17.1618
16.7337
16.2074
15.9173
16.3301
16.8598
15.5924
13.5388
12.7709
18.221
32.607
20.881
19.9014
21.4685
22.4747
22.9805
22.8378
23.0935
23.9928
25.4975
27.458
30.4939
32.7284
29.9871
25.351
22.2863
20.1939
18.822
17.929
17.1067
16.3319
15.7286
15.2886
15.0662
15.1668
15.185
14.4272
13.4915
14.1063
20.517
40.8619
22.3857
20.264
20.5795
20.9603
21.793
22.1406
22.8207
23.8585
25.1742
26.7528
29.1623
30.5308
28.0866
24.4171
21.7174
19.4809
17.8539
16.7807
15.9543
15.1945
14.5878
14.2043
13.9644
13.8811
13.7157
13.2654
13.2743
14.9682
26.7333
49.6158
23.9141
20.7681
19.9855
20.1435
21.1561
21.9772
22.9753
23.7892
24.7077
26.1298
28.2206
28.8674
26.8492
23.9659
21.4013
18.995
17.0864
15.7589
14.8286
14.1345
13.5709
13.1931
12.9598
12.8665
12.6383
12.4106
12.8715
15.431
32.4376
58.6912
25.7077
21.0599
19.5255
19.5507
20.6295
22.06
23.5333
24.0498
24.4683
25.6934
27.3964
27.421
25.9307
23.8758
21.4267
18.7931
16.6181
15.0581
13.9648
13.2156
12.6892
12.3192
12.0952
11.9566
11.7606
11.7538
12.5186
15.6172
34.8895
63.8778
26.7087
20.8822
19.0319
18.9808
20.1125
21.935
24.0581
24.6074
24.4544
25.3776
26.6062
26.1975
25.1553
23.7982
21.4595
18.7009
16.3385
14.5867
13.35
12.5105
11.9483
11.5717
11.3107
11.1148
10.999
11.1883
12.1538
15.3621
34.2183
64.6032
26.2897
20.1209
18.3434
18.3136
19.4045
21.2416
23.5995
24.698
24.3544
25.0932
25.8634
25.1934
24.3898
23.3999
21.2207
18.5211
16.1265
14.2727
12.9018
11.9337
11.2857
10.857
10.5573
10.3738
10.3879
10.7342
11.7675
14.773
32.0868
62.2863
25.2105
19.0944
17.4828
17.5653
18.6568
20.2942
22.3157
23.8967
23.9387
24.5957
25.1056
24.3099
23.5448
22.5777
20.6141
18.1478
15.8776
14.0355
12.6064
11.5399
10.7896
10.298
10.0144
9.915
10.0324
10.4388
11.3904
14.0664
29.733
56.6849
23.9492
18.3125
16.8015
16.9381
18.0118
19.4608
20.9437
22.3657
23.1568
23.8762
23.9876
23.3216
22.6008
21.4854
19.7004
17.5694
15.5543
13.849
12.4709
11.3965
10.6131
10.1024
9.83128
9.7582
9.8613
10.1825
10.9746
13.3694
27.8232
50.1387
22.5341
17.7633
16.4937
16.6447
17.6174
18.861
19.96
20.9691
22.0229
22.8229
22.7878
22.4381
21.6679
20.3773
18.7203
16.9107
15.1925
13.6946
12.4426
11.4266
10.6579
10.1423
9.8453
9.70791
9.71259
9.91526
10.5693
12.7445
26.278
45.4286
21.1816
17.1373
16.1408
16.3098
17.1372
18.2272
19.2718
20.1761
21.1086
21.8818
22.0147
21.6816
20.7556
19.4037
17.8779
16.3306
14.8797
13.5943
12.4865
11.5563
10.8207
10.2903
9.93639
9.71837
9.62175
9.71815
10.2509
12.2515
25.1708
42.3792
20.1041
16.556
15.7532
15.9307
16.6318
17.5733
18.561
19.4995
20.38
21.0924
21.2336
20.7522
19.8272
18.6084
17.2738
15.9602
14.7386
13.6387
12.6691
11.8393
11.1437
10.5885
10.1606
9.84387
9.6552
9.6557
10.0776
11.9452
24.5838
40.458
19.3321
16.0874
15.3958
15.5626
16.1587
16.9584
17.8201
18.6752
19.4959
20.1069
20.2087
19.7909
19.0488
18.0685
16.9658
15.8734
14.8363
13.8915
13.0575
12.3148
11.6545
11.079
10.5771
10.1584
9.85176
9.75056
10.0941
11.8974
24.6258
39.4136
18.8613
15.7729
15.1323
15.2795
15.7999
16.4957
17.2489
18.001
18.7172
19.2452
19.3786
19.1106
18.5879
17.8641
16.99
16.0812
15.2184
14.4208
13.6757
12.9812
12.3391
11.7643
11.2222
10.7044
10.283
10.0557
10.2921
12.0474
25.0981
39.2817
18.7044
15.6511
15.0253
15.1587
15.6397
16.2845
16.9868
17.6867
18.3407
18.8296
19.0102
18.886
18.5546
18.0296
17.3535
16.6405
15.9291
15.2253
14.5225
13.8327
13.1885
12.6363
12.0966
11.4955
10.966
10.6365
10.7809
12.5276
26.421
39.5453
18.7562
15.7054
15.0956
15.239
15.722
16.3697
17.0837
17.7991
18.46
18.9527
19.1699
19.1412
18.95
18.6237
18.1499
17.587
16.9778
16.341
15.6547
14.9504
14.2874
13.6904
13.1464
12.5172
11.8967
11.4902
11.6062
13.4988
28.8987
40.4885
19.0542
15.9943
15.4275
15.6122
16.1269
16.8083
17.5758
18.3679
19.1047
19.6344
19.8982
19.9634
19.9078
19.7296
19.3978
18.9525
18.4294
17.8622
17.1892
16.4576
15.7233
15.0035
14.3862
13.7456
13.0714
12.6118
12.7467
14.894
32.2718
42.7502
19.8316
16.7177
16.2305
16.4965
17.0688
17.7938
18.6212
19.5315
20.4328
21.0215
21.2984
21.4055
21.4149
21.3245
21.0993
20.7419
20.278
19.723
19.0924
18.336
17.5091
16.6487
15.8741
15.1772
14.4759
13.9944
14.1942
16.698
36.4929
46.7041
21.3128
18.1151
17.76
18.1278
18.7347
19.4403
20.2374
21.1592
22.2276
22.9986
23.271
23.3774
23.4106
23.3678
23.2045
22.889
22.4408
21.8459
21.2422
20.5195
19.5866
18.6021
17.6463
16.841
16.1102
15.6361
15.9377
18.8825
41.4591
52.74
23.754
20.5022
20.3468
20.7718
21.3032
21.8715
22.5224
23.3195
24.3833
25.4517
25.7912
25.8327
25.8433
25.7979
25.6398
25.3133
24.8317
24.1837
23.571
22.8778
21.9109
20.8261
19.7313
18.7872
18.0073
17.551
17.9769
21.4239
47.0809
61.2932
27.605
24.4335
24.5113
24.7839
24.9788
25.2277
25.5977
26.1713
27.0487
28.2503
28.8409
28.7822
28.6931
28.583
28.3725
27.9935
27.4407
26.7298
26.0716
25.389
24.4439
23.3048
22.1224
21.0582
20.2123
19.7678
20.3302
24.3236
53.3429
72.4324
34.2662
30.6913
30.7472
30.417
29.8784
29.6137
29.6105
29.9392
30.6196
31.6046
32.4268
32.2558
31.9842
31.7563
31.461
31.0173
30.3727
29.5942
28.8859
28.151
27.2235
26.0669
24.8381
23.6956
22.7832
22.3401
23.0436
27.6187
60.3219
92.6233
45.3807
39.6523
38.9227
37.4023
35.8893
34.9504
34.5232
34.5189
34.8709
35.534
36.3516
36.1793
35.7343
35.3922
35.0298
34.5434
33.8261
32.9664
32.1784
31.3384
30.3758
29.2066
27.9548
26.7636
25.798
25.3522
26.1941
31.3837
68.181
130.924
61.097
49.0603
46.4043
45.1487
42.8773
41.2018
40.2217
39.8326
39.874
40.2628
40.6787
40.5368
39.9838
39.5652
39.1711
38.6577
37.8794
36.9368
36.0273
35.0696
34.0443
32.8608
31.599
30.3785
29.3751
28.9269
29.8992
35.7348
77.1518
172.482
74.1779
55.7785
52.139
52.8264
51.1212
48.5772
46.8426
45.9174
45.6274
45.7548
45.8278
45.5269
44.8371
44.3443
43.9309
43.3855
42.5288
41.4723
40.4653
39.4568
38.3923
37.2087
35.9549
34.7278
33.7039
33.2538
34.3445
40.8607
87.6234
200.15
83.0485
61.9204
58.4318
60.7681
60.7545
57.3875
54.6186
52.917
52.0531
51.6904
51.5706
51.1566
50.3106
49.7648
49.3548
48.7978
47.8716
46.7146
45.6492
44.6575
43.6141
42.4747
41.2734
40.0854
39.0737
38.6298
39.8273
47.0755
100.29
215.523
91.2535
69.1414
66.4061
70.1012
71.8617
67.8085
63.7562
61.0723
59.3884
58.412
57.9766
57.3434
56.3984
55.8456
55.4888
54.9825
54.0428
52.8304
51.7485
50.8409
49.9058
48.9058
47.862
46.8193
45.9056
45.5124
46.82
54.8397
115.675
228.335
99.8426
77.9674
76.9482
81.596
84.7377
79.9102
74.406
70.5738
67.9376
66.172
65.1411
64.1693
63.1608
62.6165
62.3586
61.9881
61.1112
59.8175
58.8375
58.0953
57.3996
56.721
56.0557
55.3979
54.7967
54.5976
56.1014
65.0252
135.221
236.358
108.971
88.8553
90.917
95.6941
99.6072
93.8376
86.8032
81.6332
77.8572
75.0739
73.1888
71.7293
70.5923
70.032
69.9105
69.8315
69.0984
67.5276
66.82
66.331
66.0883
66.0471
66.1745
66.3958
66.5948
66.9461
68.9101
79.0417
161.732
244.336
120.076
102.04
106.453
109.622
115.334
109.57
101.339
94.6665
89.4085
85.276
82.244
80.0658
78.5957
77.9096
77.9161
78.3089
77.7619
75.768
75.3492
75.264
75.7857
76.8598
78.4768
80.5105
82.5816
84.3738
87.2507
99.0039
197.653
259.751
133.332
114.71
118.553
120.366
131.144
127.668
118.676
110.288
103.037
97.0411
92.4435
89.1687
87.0187
85.9568
85.9262
86.8017
85.7913
84.1943
83.9893
84.5506
86.1889
88.9624
93.0479
98.4764
104.7
110.314
114.84
125.425
238.21
285.6
145.704
124.278
126.372
130.103
145.749
149.354
139.829
129.247
119.231
110.634
103.871
98.993
95.7285
93.9579
93.6369
94.7924
93.4602
92.4768
92.4832
93.8298
96.8679
101.893
109.508
120.457
134.689
148.567
153.839
159.911
287.24
315.921
155.124
132.935
134.969
140.645
158.115
173.552
166.841
152.644
138.425
126.174
116.481
109.418
104.599
101.804
101.062
102.476
101.051
100.39
100.576
102.739
107.344
114.961
126.829
144.76
169.164
193.337
207.695
220.873
414.841
344.822
163.955
142.427
145.342
152.512
169.798
194.468
200.308
181.73
160.731
143.388
129.994
120.203
113.41
109.324
107.933
109.113
107.957
107.611
108.005
111.05
117.329
127.587
143.61
167.694
198.733
228.1
251.556
289.772
529.73
402.048
179.865
154.477
156.798
165.391
183.207
210.065
231.354
211.784
184.504
161.121
143.802
130.973
121.813
116.158
113.859
114.602
114.045
113.938
114.611
118.7
126.779
139.672
158.988
185.556
216.104
243.488
259.051
306.969
515.703
464.87
201.336
168.203
167.341
176.557
193.95
218.603
241.905
232.641
204.446
177.268
156.92
141.221
129.326
121.86
118.563
118.9
118.972
118.685
120.233
125.683
135.927
151.675
173.992
201.692
233.315
254.262
257.632
306.485
483.418
485.877
215.871
177.766
173.609
181.903
198.211
219.585
237.821
237.293
213.309
189.676
168.556
149.979
135.219
126.021
121.817
121.724
122.294
122.063
124.924
132.325
145.164
163.919
188.91
218.664
249.683
258.927
254.206
302.415
471.012
477.951
219.927
182.117
176.539
182.766
197.252
216.033
231.336
230.693
212.465
193.355
175.599
155.128
138.577
128.354
123.635
123.213
123.923
124.666
129.298
138.961
154.543
176.271
203.649
235.625
259.581
256.22
249.565
294.797
479.395
479.52
220.887
183.122
176.188
180.588
192.552
208.874
223.264
224.637
208.087
189.335
174.566
155.272
139.008
128.722
123.946
123.318
124.364
126.904
133.521
145.536
163.829
188.489
218.316
250.115
260.666
249.36
245.156
287.33
501.292
494.086
223.054
182.503
173.753
175.907
185.611
199.8
212.585
214.945
201.405
182.495
168.644
151.422
136.62
127.058
122.616
122.132
124.035
128.481
137.191
151.532
172.342
198.845
230.463
257.504
256.025
240.748
239.324
276.79
504.18
510.625
222.859
179.464
169.033
169.728
177.649
189.638
200.294
202.289
190.663
173.103
160.076
144.977
131.961
123.675
119.927
119.99
122.952
129.142
139.801
156.273
179.096
205.8
236.093
253.763
246.212
230.879
230.069
262.901
490.359
509.754
219.713
174.189
162.824
162.564
169.006
178.871
187.217
187.995
177.186
161.431
149.429
137.374
126.205
119.212
116.384
117.216
121.269
128.978
141.291
159.299
182.299
208.064
234.192
243.304
233.482
220.134
218.929
247.457
466.182
499.919
213.297
167.641
155.802
154.927
160.109
168.115
174.504
174.049
163.631
149.018
138.405
129.726
120.191
114.324
112.434
114.117
119.23
128.209
141.864
160.855
182.657
206.653
226.972
229.737
219.893
209.246
208.863
235.452
448.108
478.503
204.88
160.428
148.541
147.224
151.336
157.821
162.706
161.26
151.235
137.705
128.014
121.724
113.89
109.248
108.355
110.966
117.14
127.239
141.849
160.838
181.288
202.737
216.249
215.699
206.876
198.706
200.166
227.143
437.724
453.638
195.57
153.083
141.398
139.702
142.883
148.086
151.641
149.179
139.363
127.076
118.121
113.269
107.457
104.283
104.378
107.992
115.277
126.492
141.852
159.721
178.762
196.553
204.746
202.493
194.799
188.636
191.556
219.412
426.312
427.54
186.078
145.96
134.563
132.493
134.856
138.932
141.19
137.581
127.675
116.527
108.619
104.737
101.629
99.9553
100.752
105.431
113.969
126.262
141.878
158.459
175.695
188.748
193.191
190.101
183.515
178.953
182.854
211.343
416.657
401.096
176.798
139.212
128.117
125.705
127.401
130.548
131.69
127.065
116.964
106.615
100.044
97.3831
96.7421
96.2812
97.624
103.496
113.487
126.885
141.869
157.311
171.764
180.639
182.347
178.649
172.929
169.585
174.172
202.582
400.541
374.785
167.888
132.856
122.102
119.448
120.685
123.22
123.634
118.415
108.244
98.3596
92.5767
90.7751
91.4382
91.6686
94.8336
102.374
113.835
127.868
142.083
156.183
167.397
172.72
172.278
168.043
162.932
160.453
165.412
192.816
377.512
348.912
159.319
126.839
116.539
113.795
114.796
117.035
117.086
111.625
101.456
91.7311
85.9081
84.331
85.5799
87.3558
92.5235
102.082
115.1
129.096
142.655
155.091
162.925
165.14
162.921
158.17
153.423
151.485
156.477
181.95
349.203
323.927
150.99
121.097
111.419
108.752
109.68
111.787
111.616
105.949
95.7432
86.1067
80.205
78.3964
80.4269
83.9781
91.0068
102.618
117.058
131.183
143.963
153.862
158.168
157.768
154.108
148.921
144.344
142.685
147.432
170.606
319.266
299.882
142.755
115.57
106.706
104.256
105.171
107.151
106.678
100.665
90.3811
80.9937
75.3255
73.6366
75.9871
81.1657
90.2212
103.788
119.468
134
146.142
152.696
153.513
150.751
145.818
140.214
135.644
134.019
138.28
158.825
289.303
277.921
135.091
110.313
102.365
100.188
101.061
102.819
101.887
95.3811
85.0828
76.1552
71.051
69.8404
72.4231
78.9295
89.9056
105.372
122.032
137.135
148.552
151.309
148.823
143.908
137.905
131.922
127.252
125.469
129.007
146.848
259.32
257.557
127.614
105.27
98.308
96.3913
97.1309
98.5315
97.036
90.0241
79.8585
71.5573
67.1814
66.7403
69.836
77.2341
89.8861
106.979
124.684
140.361
149.101
148.336
143.385
136.946
130.208
123.977
119.178
117.074
119.505
133.915
231.531
238.839
120.229
100.425
94.4241
92.6577
93.1175
94.0289
91.9552
84.5987
74.7572
67.2039
63.575
63.9532
68.0371
76.151
89.9775
108.228
126.536
141.632
146.728
143.473
137.086
129.865
122.799
116.487
111.564
109.003
110.127
121.364
209.748
221.827
113.107
95.7191
90.5538
88.7321
88.7082
88.9999
86.4311
78.9913
69.7907
63.0645
60.1407
61.2112
66.3212
75.6715
90.0263
108.805
127.333
140.17
141.95
137.238
130.307
122.911
115.847
109.567
104.516
101.418
101.402
110.458
193.728
206.379
106.37
91.1283
86.5583
84.3686
83.6153
83.2391
80.3725
73.197
64.8485
59.0974
56.9419
58.6747
64.7394
75.489
90.8349
109.872
127.51
136.944
136.237
130.701
123.639
116.351
109.432
103.215
98.03
94.4562
93.7112
101.668
181.852
192.459
100.191
86.818
82.4271
79.4368
77.7667
76.836
73.9961
67.4214
60.148
55.3777
54.0402
56.494
63.4738
75.3853
92.0162
110.955
126.924
133.086
130.601
124.512
117.414
110.273
103.507
97.3475
92.0713
88.2175
87.1082
94.5548
171.944
179.404
94.5256
82.966
78.2376
74.0321
71.401
70.1902
67.7934
62.1068
55.8866
51.9944
51.4466
54.6221
62.4721
75.3439
92.8875
111.702
125.417
128.724
125.034
118.643
111.576
104.593
97.9873
91.9239
86.6478
82.6956
81.4497
88.6654
164.133
167.552
89.7374
79.8248
74.073
68.4207
65.0118
63.8546
62.2341
57.5643
52.2029
49.057
49.1675
52.9684
61.5449
75.216
93.2333
111.344
122.439
123.548
119.202
112.813
105.944
99.2053
92.8253
86.9396
81.7758
77.8664
76.6491
83.9046
158.809
156.384
86.2143
77.2467
69.7176
62.8399
59.0323
58.1962
57.5052
53.919
49.2203
46.626
47.1833
51.4473
60.5245
74.7771
92.9354
109.874
118.278
117.749
113.068
106.896
100.41
94.0522
87.9993
82.3882
77.4448
73.7075
72.6691
80.1943
155.698
144.794
84.396
74.2075
64.6925
57.3362
53.5661
53.1383
53.3625
50.8717
46.8452
44.668
45.4695
49.9472
59.2839
73.912
91.9713
107.626
113.532
111.678
106.767
100.927
94.9587
89.1061
83.4821
78.2307
73.597
70.1435
69.4282
77.4492
154.898
130.272
82.8376
69.6886
58.9994
51.8827
48.4668
48.3984
49.3968
48.0348
44.8966
43.1094
43.9835
48.4679
57.8982
72.6593
90.3414
104.499
108.367
105.455
100.418
94.9803
89.6093
84.3497
79.2374
74.4155
70.159
67.0709
66.7969
75.4783
155.386
111.59
78.592
63.6099
53.002
46.5391
43.6755
43.8966
45.5611
45.3107
43.3313
41.9615
42.8137
47.1649
56.5444
71.2348
88.3075
100.823
102.852
99.1266
94.0922
89.1199
84.3872
79.7682
75.2285
70.9003
67.0792
64.4115
64.6289
74.0583
156.588
90.3652
69.2503
56.0443
46.8276
41.3696
39.2808
39.8501
42.0762
42.9596
42.0664
41.15
42.0004
46.1812
55.4317
69.9332
86.2263
96.8633
97.1335
92.7833
87.8593
83.3887
79.3004
75.34
71.4204
67.6483
64.3159
62.1013
62.7921
72.9753
157.72
70.2233
56.0956
47.1333
40.3327
36.3073
35.2092
36.1954
38.9121
40.9559
40.8443
40.3508
41.3835
45.5514
54.7753
69.0593
84.4332
92.902
91.4851
86.5742
81.8168
77.8286
74.3473
71.0367
67.771
64.6166
61.8285
60.086
61.2064
72.0085
157.895
53.4493
43.1665
38.0633
33.8039
31.3727
31.2709
32.6992
35.806
38.641
39.3689
39.5069
40.8705
45.272
54.6136
68.7608
83.0924
89.1913
86.1222
80.7109
76.0953
72.5022
69.5439
66.8446
64.2458
61.7518
59.5535
58.3007
59.7991
71.0572
157.529
40.3927
32.396
29.9221
27.766
26.7812
27.3656
29.3338
32.7517
36.1625
37.6413
38.3929
40.3561
45.277
55.048
69.181
82.2787
85.9618
81.3105
75.4429
70.8675
67.5187
64.9544
62.7888
60.8271
58.9949
57.402
56.6417
58.4683
70.0638
156.643
30.4632
24.1332
23.1829
22.5513
22.6319
23.6685
26.011
29.6107
33.3889
35.4702
36.9242
39.7241
45.5807
56.1699
70.6806
82.7264
83.7162
77.4582
71.0506
66.3328
63.0245
60.6964
58.9593
57.5632
56.3536
55.3433
55.0348
57.1239
68.9427
155.386
22.981
17.9945
17.9228
18.2343
18.9304
20.3316
22.811
26.4453
30.3695
32.9283
35.1966
39.0501
46.1934
58.0665
73.4973
84.9803
83.0051
74.837
67.6923
62.5986
59.1196
56.8795
55.4811
54.5879
53.9475
53.4615
53.5222
55.8192
67.7356
154.08
17.4487
13.4734
13.9156
14.7544
15.8222
17.382
19.8719
23.4047
27.302
30.2894
33.4645
38.6165
47.3231
60.9479
77.7832
88.6106
83.4257
73.289
65.265
59.6062
55.7915
53.5242
52.4172
52.0432
51.9864
51.9741
52.2851
54.6822
66.522
152.321
13.4049
10.1829
10.8832
11.9673
13.1954
14.8118
17.2483
20.6176
24.4052
27.8114
31.992
38.5474
49.152
65.0847
83.7876
93.3343
84.3967
72.3998
63.4536
57.1465
52.914
50.5527
49.7113
49.9459
50.6526
51.2024
51.6845
53.9529
65.4956
150.626
10.4009
7.81264
8.58983
9.73409
10.9855
12.6077
14.9586
18.1524
21.8223
25.6527
30.9111
38.9714
51.8056
70.6854
91.4885
98.0311
85.2065
71.6724
61.9005
54.9812
50.3436
47.8661
47.2205
48.1119
49.8711
51.3766
52.0766
54.0454
64.8538
149.106
8.12816
6.09455
6.88463
7.98262
9.16062
10.7552
12.9979
15.9975
19.6012
24.0085
30.3378
39.9281
55.2696
77.6334
100.229
101.343
85.1668
70.7107
60.3627
52.9737
48.0117
45.4092
44.8431
46.2543
49.1708
52.1509
53.5805
55.0041
65.008
148.799
6.44904
4.83374
5.61507
6.59755
7.62547
9.16393
11.3003
14.1379
17.8297
22.8424
30.1395
41.3641
59.4155
85.0706
107.853
102.371
84.075
69.2966
58.714
51.0853
45.9169
43.1784
42.5683
44.2041
48.0203
52.9261
56.4002
57.5399
65.8785
149.559
5.21836
3.89912
4.64221
5.44874
6.31685
7.7616
9.8035
12.554
16.4045
21.9892
30.2528
43.238
64.0724
92.3204
113.078
101.161
81.7463
67.2445
56.808
49.2296
44.0291
41.1668
40.4258
41.9724
46.1114
52.4986
59.0055
61.9304
68.2381
151.72
4.31038
3.2045
3.85597
4.46867
5.20351
6.53514
8.50079
11.2483
15.2882
21.4252
30.6508
45.5584
69.2752
99.2139
115.07
98.0636
78.5521
64.6244
54.5998
47.2919
42.226
39.3153
38.4296
39.7105
43.6386
50.5208
59.4504
66.9506
72.7662
153.509
3.62065
2.68217
3.18352
3.62662
4.25364
5.47835
7.3911
10.2169
14.5272
21.2006
31.4098
48.409
75.0286
105.451
113.068
93.337
74.7503
61.6029
52.1396
45.214
40.3796
37.5219
36.5588
37.573
41.0837
47.5837
57.6858
69.7046
78.259
151.748
3.04039
2.26723
2.59804
2.91002
3.4519
4.59114
6.49706
9.48122
14.1449
21.2808
32.6399
51.932
80.8401
109.939
108.078
87.6277
70.5652
58.3367
49.4847
42.9695
38.3977
35.6917
34.7795
35.7043
38.9231
44.8779
54.4934
69.0233
85.7083
145.821
2.52148
1.91053
2.10054
2.32004
2.79756
3.88435
5.82368
8.95417
13.9674
21.7015
34.4334
56.0083
86.4147
111.457
101.235
81.5946
66.2189
54.9793
46.7434
40.6349
36.3172
33.7888
33.0217
34.101
37.328
42.9036
51.8123
66.5856
88.5684
133.319
2.05887
1.58898
1.689
1.85071
2.28832
3.34819
5.34585
8.65052
13.9657
22.3975
36.7078
60.3586
91.0304
108.542
93.609
75.6827
61.9095
51.6618
44.0487
38.356
34.2908
31.8928
31.2281
32.5174
35.9222
41.2721
49.2332
61.998
83.5149
111.706
1.6506
1.29138
1.34687
1.48215
1.909
2.99405
5.06188
8.54895
14.1301
23.3538
39.1812
64.2638
93.5296
101.359
85.634
69.913
57.7137
48.4545
41.4811
36.2265
32.4269
30.1173
29.4467
30.7696
34.2943
39.4712
45.8271
54.7077
70.3601
88.223
1.30133
1.0267
1.06113
1.17852
1.65394
2.79726
4.92644
8.55484
14.5058
24.5369
41.5122
66.661
92.3454
92.1203
77.6415
64.2775
53.6452
45.3835
39.0725
34.2751
30.7422
28.4915
27.73
28.8735
32.162
36.8945
41.4809
45.925
53.6554
66.9094
1.01225
0.788577
0.80317
0.9626
1.48616
2.65871
4.87072
8.67516
15.0338
25.8039
43.3765
67.4653
87.7977
82.791
70.1237
58.8896
49.7313
42.4519
36.8169
32.4815
29.1972
26.9757
26.0715
26.8988
29.5918
33.3853
36.515
37.7705
39.3024
49.5038
0.778914
0.600735
0.613619
0.810977
1.35995
2.58523
4.88206
8.85988
15.608
26.9367
44.6048
67.1851
81.0798
73.9441
63.28
53.8636
46.0143
39.6587
34.69
30.8087
27.7502
25.5311
24.4572
24.9225
26.9014
29.5377
31.319
31.0775
29.302
37.3146
0.597596
0.444182
0.475232
0.694135
1.2835
2.57581
4.95867
9.09035
16.1261
27.5932
44.9436
65.1985
72.7206
65.8147
57.0716
49.2035
42.4992
36.9993
32.6722
29.2254
26.3733
24.1481
22.905
23.022
24.3321
25.9396
26.6864
25.8971
23.5634
31.0697
0.443357
0.335654
0.397307
0.610548
1.2606
2.62981
5.09531
9.34535
16.4374
27.6315
43.7583
60.9249
64.3263
58.3977
51.3361
44.825
39.1578
34.4639
30.7534
27.7233
25.0651
22.835
21.4399
21.24
21.9865
22.7875
22.8773
22.0163
20.289
30.0785
0.379517
0.285988
0.315437
0.574204
1.29843
2.74309
5.27994
9.56154
16.431
26.8424
41.1043
54.7365
56.2345
51.5255
45.9642
40.6826
35.9818
32.0582
28.9365
26.3032
23.8285
21.5943
20.0667
19.6003
19.9043
20.1142
19.8323
19.0188
18.2278
30.4267
0.30849
0.233228
0.275708
0.595013
1.39455
2.90124
5.4734
9.63533
16.0126
25.432
37.645
47.8914
48.68
45.1905
40.9601
36.7817
32.9747
29.7788
27.2112
24.9578
22.6514
20.4109
18.7819
18.1309
18.1206
17.9302
17.4097
16.7239
16.849
30.8406
0.246946
0.191724
0.276918
0.667445
1.52659
3.06736
5.58304
9.48822
15.247
23.6209
33.9317
41.3482
41.9356
39.5335
36.4096
33.169
30.1526
27.622
25.574
23.6774
21.5122
19.2667
17.5854
16.8446
16.6287
16.178
15.5316
15.0253
15.8719
30.7669
0.200358
0.163911
0.311368
0.765518
1.66806
3.19831
5.58217
9.14503
14.2841
21.6369
30.225
35.4902
36.1706
34.6582
32.3936
29.9
27.5518
25.6037
24.0292
22.4479
20.3885
18.1516
16.469
15.7066
15.3615
14.7588
14.0775
13.7714
15.1977
30.4441
0.171421
0.159692
0.372716
0.876585
1.79421
3.26697
5.48124
8.71185
13.3117
19.6575
26.6357
30.5198
31.4526
30.599
28.9446
27.0051
25.1945
23.7366
22.5727
21.2475
19.2578
17.0534
15.414
14.674
14.2596
13.5901
12.9383
12.8158
14.6279
29.7131
0.169987
0.181967
0.447878
0.984811
1.89334
3.29145
5.34428
8.27088
12.3855
17.7568
23.233
26.4285
27.6725
27.3089
26.0448
24.4878
23.0933
22.0344
21.2067
20.051
18.0953
15.9604
14.4079
13.7218
13.2874
12.6133
12.0266
12.0596
14.099
28.7749
0.216417
0.230404
0.528436
1.07999
1.96921
3.29524
5.19513
7.84155
11.482
15.9395
20.218
23.1475
24.6876
24.6707
23.631
22.3273
21.2514
20.5118
19.9308
18.8416
16.9111
14.8833
13.4446
12.8268
12.4107
11.7766
11.2757
11.4351
13.5897
27.8414
0.324017
0.29385
0.605778
1.16172
2.02994
3.29149
5.05585
7.46216
10.6346
14.2807
17.7732
20.6097
22.4061
22.5833
21.6323
20.4922
19.6685
19.1843
18.7542
17.6397
15.7363
13.8341
12.5273
11.9895
11.6143
11.0396
10.6288
10.8896
13.0894
26.8938
0.477513
0.363325
0.676179
1.23357
2.08447
3.29479
4.95148
7.15847
9.87562
12.9114
15.9984
18.8116
20.7504
20.98
20.0063
18.971
18.3522
18.0703
17.6904
16.4821
14.6055
12.8327
11.6656
11.2137
10.891
10.3796
10.0525
10.4013
12.6217
26.026
0.630725
0.430519
0.742069
1.30091
2.13757
3.30255
4.86582
6.87812
9.25091
11.9405
14.8667
17.6927
19.6584
19.8194
18.7348
17.762
17.3205
17.1904
16.7619
15.415
13.5518
11.8951
10.8654
10.4975
10.2278
9.77333
9.51439
9.94742
12.2094
25.2692
0.779269
0.492878
0.799494
1.35052
2.16819
3.28065
4.73104
6.56395
8.76358
11.3448
14.262
17.1524
19.1194
19.1054
17.8167
16.8739
16.5799
16.5376
15.9625
14.4467
12.5858
11.0271
10.1148
9.81214
9.59152
9.19848
8.99633
9.50613
11.8648
24.6212
0.93848
0.543868
0.826997
1.35502
2.13631
3.19029
4.55034
6.28055
8.43825
11.0567
14.0893
17.1203
19.0651
18.8468
17.2574
16.2997
16.109
16.0592
15.2408
13.5548
11.6965
10.2096
9.36979
9.10034
8.92741
8.61744
8.47145
9.03573
11.5473
24.0382
1.05613
0.572578
0.816243
1.30017
2.03148
3.04758
4.37876
6.08004
8.25861
10.9844
14.2128
17.5021
19.507
18.9904
17.0308
16.0024
15.852
15.6896
14.5662
12.6934
10.8213
9.39123
8.58641
8.3164
8.19728
8.00772
7.94473
8.54777
11.1902
23.1053
1.12163
0.583773
0.783189
1.21914
1.89787
2.86654
4.18017
5.91152
8.17474
11.0698
14.5706
18.2356
20.3961
19.465
17.0692
15.9195
15.7878
15.4109
13.8547
11.7876
9.93429
8.56465
7.78573
7.5164
7.46344
7.40232
7.44436
8.12852
10.9112
21.8694
1.16667
0.58258
0.738928
1.12685
1.75711
2.68474
3.98778
5.76595
8.14349
11.2354
15.0314
19.1454
21.5735
20.1657
17.2375
15.9836
15.8849
15.1008
13.0644
10.8847
9.0744
7.76793
7.03063
6.79734
6.8273
6.89576
7.02713
7.76184
10.5311
20.1585
1.1379
0.559697
0.686612
1.04012
1.63856
2.54904
3.86369
5.69663
8.18318
11.4556
15.5165
20.0635
22.8572
20.9513
17.5094
16.2003
16.0677
14.6395
12.2293
10.013
8.23759
6.99836
6.33239
6.16568
6.29351
6.50067
6.7452
7.45908
9.97703
18.2588
1.0236
0.514524
0.633996
0.9675
1.5489
2.46039
3.80817
5.71352
8.31578
11.7584
16.0723
21.0738
24.1614
21.7005
17.8664
16.5679
16.1788
14.0895
11.4901
9.22087
7.44022
6.26931
5.68626
5.58038
5.80068
6.15699
6.54175
7.20659
9.10475
16.2827
0.936533
0.478549
0.593203
0.913538
1.48745
2.41271
3.80304
5.7814
8.48359
12.0671
16.6379
22.1569
25.5853
22.561
18.3231
16.9672
16.0983
13.5851
10.8038
8.42887
6.67881
5.58821
5.06656
4.98146
5.29485
5.80572
6.37017
7.01373
8.18832
14.5392
0.913691
0.465033
0.568371
0.878103
1.44919
2.38683
3.80377
5.81481
8.57163
12.2741
17.1255
23.2308
27.0784
23.4025
18.769
17.3192
15.9711
13.0522
10.1073
7.68095
5.9713
4.95528
4.50173
4.41248
4.71022
5.36838
6.12644
6.79299
7.37263
13.0937
0.925692
0.464425
0.554354
0.851973
1.41258
2.33665
3.73037
5.73039
8.51564
12.3083
17.3833
23.9982
28.2538
23.9418
19.0812
17.578
15.7561
12.5181
9.44734
7.00535
5.33821
4.36174
3.94374
3.88684
4.14783
4.79065
5.72479
6.44139
6.70146
11.9199
0.956559
0.469327
0.542317
0.818812
1.34396
2.218
3.56949
5.55719
8.36468
12.2098
17.3899
24.2421
28.6538
23.9467
19.12
17.5653
15.4552
12.0737
8.8561
6.43569
4.80695
3.83279
3.40583
3.34876
3.61428
4.20934
5.14695
5.97852
6.21263
11.0831
0.95187
0.467497
0.524212
0.770012
1.24883
2.07814
3.40468
5.38685
8.20271
12.0649
17.2726
24.1347
28.3926
23.5769
18.9966
17.4957
15.0897
11.5629
8.34566
5.99045
4.3923
3.39544
2.9281
2.84489
3.09923
3.63231
4.45049
5.44402
5.8786
10.4332
0.94096
0.46013
0.500118
0.718392
1.16509
1.96712
3.27768
5.25576
8.0725
11.9167
17.049
23.7068
27.5891
22.7732
18.7075
17.338
14.7057
11.0388
7.91789
5.65113
4.08098
3.05972