/*--------------------------------*- C++ -*----------------------------------*\
| =========                 |                                                 |
| \\      /  F ield         | OpenFOAM: The Open Source CFD Toolbox           |
|  \\    /   O peration     | Version:  v1606+                                |
|   \\  /    A nd           | Web:      www.OpenFOAM.com                      |
|    \\/     M anipulation  |                                                 |
\*---------------------------------------------------------------------------*/
FoamFile
{
    version     2.0;
    format      ascii;
    class       volScalarField;
    location    "1.07";
    object      pMean;
}
// * * * * * * * * * * * * * * * * * * * * * * * * * * * * * * * * * * * * * //

dimensions      [1 -1 -2 0 0 0 0];

internalField   nonuniform List<scalar> 
6000
(
107860
107861
107860
107860
107860
107860
107860
107860
107860
107861
107861
107862
107863
107863
107864
107865
107865
107865
107866
107866
107866
107866
107866
107866
107866
107867
107868
107868
107869
107868
107790
107790
107790
107788
107787
107787
107786
107787
107788
107788
107789
107790
107791
107792
107792
107793
107793
107794
107794
107794
107794
107793
107793
107793
107794
107795
107796
107797
107798
107798
107742
107743
107742
107741
107740
107740
107740
107740
107741
107743
107744
107745
107746
107747
107748
107748
107748
107749
107749
107749
107748
107748
107747
107747
107748
107749
107749
107750
107751
107750
107687
107687
107686
107686
107685
107685
107685
107686
107687
107689
107691
107693
107694
107695
107696
107697
107697
107697
107696
107696
107695
107694
107693
107693
107694
107694
107694
107694
107694
107695
107634
107633
107633
107633
107633
107633
107633
107634
107635
107637
107639
107641
107643
107644
107646
107646
107646
107646
107645
107645
107643
107642
107642
107642
107642
107642
107641
107641
107641
107641
107583
107582
107582
107582
107582
107582
107582
107583
107583
107584
107586
107588
107590
107592
107594
107595
107595
107594
107594
107593
107592
107591
107591
107591
107590
107590
107590
107589
107589
107589
107531
107530
107530
107531
107531
107532
107532
107532
107533
107533
107534
107535
107536
107538
107540
107542
107542
107542
107542
107541
107541
107541
107540
107540
107539
107538
107537
107536
107536
107537
107478
107476
107475
107476
107478
107480
107481
107481
107482
107482
107482
107483
107483
107484
107487
107487
107487
107488
107489
107489
107489
107488
107488
107487
107485
107483
107482
107481
107481
107483
107421
107419
107418
107420
107423
107426
107428
107429
107430
107431
107432
107431
107431
107432
107434
107434
107434
107435
107436
107436
107436
107435
107434
107432
107430
107427
107424
107423
107424
107427
107362
107360
107361
107363
107367
107371
107375
107377
107378
107379
107381
107381
107381
107381
107383
107384
107384
107384
107384
107385
107384
107382
107379
107376
107373
107370
107367
107365
107365
107367
107303
107302
107303
107306
107310
107315
107321
107324
107325
107326
107329
107330
107330
107332
107334
107335
107335
107335
107335
107334
107331
107328
107326
107321
107316
107312
107309
107307
107307
107308
107244
107243
107244
107247
107253
107259
107265
107269
107271
107272
107275
107276
107277
107279
107282
107285
107286
107286
107285
107283
107279
107276
107272
107267
107260
107255
107252
107250
107249
107250
107185
107184
107185
107188
107194
107202
107209
107213
107216
107218
107220
107222
107222
107225
107228
107231
107234
107236
107236
107233
107228
107224
107219
107213
107205
107198
107194
107192
107192
107192
107126
107126
107127
107130
107136
107144
107151
107157
107160
107163
107166
107168
107169
107170
107173
107175
107178
107183
107185
107182
107177
107172
107166
107158
107150
107143
107137
107135
107134
107134
107067
107068
107070
107073
107078
107085
107093
107100
107105
107109
107113
107116
107117
107117
107117
107119
107121
107125
107128
107127
107123
107117
107110
107102
107094
107087
107082
107078
107077
107077
107010
107011
107013
107016
107020
107025
107033
107041
107048
107055
107059
107063
107065
107064
107063
107062
107063
107065
107066
107065
107063
107058
107051
107043
107036
107031
107026
107022
107020
107019
106953
106954
106956
106959
106961
106964
106972
106982
106991
106999
107004
107008
107010
107009
107007
107004
107002
107002
107002
107000
106998
106993
106987
106981
106976
106972
106968
106964
106961
106960
106894
106894
106896
106899
106900
106903
106910
106920
106932
106941
106947
106949
106950
106949
106946
106943
106941
106939
106938
106936
106932
106926
106919
106914
106911
106908
106905
106902
106899
106897
106833
106834
106835
106837
106839
106842
106848
106857
106870
106880
106887
106888
106887
106885
106882
106879
106876
106874
106875
106872
106866
106857
106849
106845
106842
106840
106838
106835
106833
106831
106771
106771
106772
106773
106776
106782
106788
106796
106806
106816
106823
106823
106820
106817
106814
106811
106809
106809
106810
106807
106799
106789
106780
106773
106769
106766
106764
106763
106761
106760
106707
106707
106707
106709
106713
106720
106728
106736
106744
106752
106758
106758
106754
106748
106744
106741
106740
106742
106742
106739
106730
106719
106709
106700
106694
106690
106687
106686
106685
106685
106639
106640
106641
106644
106650
106657
106666
106675
106683
106690
106695
106694
106689
106681
106675
106671
106672
106672
106671
106666
106657
106646
106635
106624
106617
106611
106608
106607
106608
106608
106565
106567
106570
106576
106582
106589
106597
106606
106615
106624
106629
106628
106622
106614
106607
106603
106602
106601
106597
106590
106579
106567
106555
106545
106536
106531
106529
106528
106529
106530
106488
106490
106494
106500
106506
106512
106519
106527
106539
106550
106556
106556
106551
106543
106537
106534
106531
106528
106522
106511
106498
106485
106473
106463
106454
106450
106449
106449
106450
106451
106409
106410
106414
106420
106425
106430
106435
106441
106453
106467
106477
106480
106476
106471
106466
106462
106458
106453
106444
106431
106415
106401
106390
106380
106373
106370
106370
106371
106372
106374
106330
106330
106333
106337
106341
106345
106348
106354
106364
106378
106391
106398
106399
106396
106392
106388
106383
106377
106365
106348
106331
106317
106308
106301
106297
106294
106295
106296
106297
106299
106253
106253
106254
106257
106259
106261
106264
106269
106277
106289
106304
106315
106320
106319
106316
106312
106307
106299
106283
106264
106246
106234
106228
106225
106224
106223
106224
106226
106227
106227
106180
106180
106180
106180
106181
106182
106184
106188
106193
106203
106217
106231
106240
106242
106240
106236
106230
106219
106200
106178
106161
106151
106148
106150
106152
106153
106156
106159
106160
106160
106110
106110
106108
106106
106106
106107
106108
106110
106112
106120
106133
106148
106160
106165
106164
106160
106152
106137
106115
106092
106077
106069
106068
106072
106078
106083
106087
106091
106094
106094
106039
106039
106036
106033
106031
106031
106032
106034
106035
106040
106051
106066
106080
106087
106088
106082
106071
106053
106029
106009
105995
105988
105988
105993
106001
106009
106017
106022
106027
106029
105967
105966
105963
105959
105956
105955
105956
105957
105960
105963
105973
105986
106000
106009
106010
106004
105991
105971
105948
105930
105918
105912
105911
105916
105924
105935
105945
105952
105958
105961
105892
105890
105887
105883
105879
105877
105878
105880
105884
105889
105898
105909
105921
105930
105932
105926
105912
105893
105873
105858
105849
105845
105843
105845
105852
105862
105873
105882
105889
105893
105817
105815
105812
105807
105802
105799
105800
105804
105810
105817
105825
105836
105846
105854
105855
105849
105837
105821
105805
105794
105789
105786
105783
105782
105785
105794
105804
105814
105821
105825
105742
105740
105736
105730
105725
105723
105725
105731
105739
105746
105755
105765
105774
105780
105781
105775
105764
105752
105741
105736
105733
105731
105728
105726
105725
105730
105738
105747
105754
105758
105666
105664
105658
105653
105649
105650
105655
105663
105672
105680
105687
105696
105705
105711
105712
105706
105697
105688
105683
105680
105679
105678
105676
105672
105670
105670
105676
105683
105689
105693
105591
105587
105581
105576
105577
105582
105590
105599
105609
105616
105622
105630
105638
105644
105646
105642
105635
105630
105627
105627
105626
105626
105624
105621
105617
105615
105617
105622
105627
105630
105518
105513
105509
105507
105511
105519
105529
105539
105548
105556
105561
105566
105574
105581
105583
105582
105578
105575
105573
105573
105574
105574
105572
105569
105565
105562
105561
105563
105567
105570
105454
105450
105450
105452
105456
105463
105473
105483
105492
105499
105502
105506
105513
105520
105524
105524
105522
105521
105520
105520
105522
105521
105520
105517
105514
105510
105507
105508
105510
105512
105401
105400
105402
105405
105409
105413
105421
105430
105438
105444
105448
105450
105455
105461
105465
105467
105467
105467
105467
105467
105468
105468
105467
105465
105463
105460
105457
105455
105455
105457
105357
105357
105360
105363
105366
105368
105372
105378
105385
105390
105394
105396
105399
105404
105409
105412
105413
105413
105414
105415
105415
105414
105414
105412
105411
105409
105407
105405
105404
105404
105316
105317
105320
105322
105323
105323
105324
105328
105332
105337
105341
105343
105345
105349
105355
105359
105361
105362
105362
105362
105362
105361
105360
105359
105358
105357
105355
105354
105353
105352
105276
105277
105279
105279
105279
105277
105276
105277
105281
105285
105289
105292
105294
105298
105303
105308
105310
105311
105310
105310
105309
105307
105306
105305
105304
105303
105302
105301
105301
105301
105236
105237
105237
105236
105233
105230
105228
105227
105230
105233
105237
105241
105243
105247
105253
105258
105260
105260
105259
105258
105256
105254
105252
105250
105250
105249
105248
105248
105250
105251
105195
105195
105194
105191
105187
105183
105180
105178
105180
105183
105187
105191
105194
105198
105203
105208
105210
105209
105208
105206
105204
105201
105198
105196
105196
105196
105197
105197
105199
105200
105151
105151
105148
105145
105141
105136
105132
105130
105131
105134
105138
105142
105145
105148
105153
105158
105159
105158
105157
105155
105152
105148
105145
105143
105143
105144
105146
105147
105149
105151
105105
105105
105102
105098
105093
105089
105085
105083
105084
105087
105090
105093
105096
105099
105104
105108
105108
105107
105107
105105
105102
105097
105093
105091
105091
105092
105095
105098
105101
105103
105058
105057
105054
105050
105045
105041
105038
105037
105037
105040
105043
105045
105047
105050
105054
105058
105057
105057
105056
105055
105051
105047
105043
105040
105040
105042
105045
105049
105052
105054
105010
105009
105005
105001
104997
104994
104992
104991
104991
104992
104995
104997
104999
105001
105004
105007
105007
105007
105006
105005
105001
104998
104994
104991
104990
104992
104996
105000
105003
105006
104961
104959
104956
104952
104949
104947
104946
104945
104945
104945
104947
104948
104950
104951
104954
104956
104956
104957
104957
104955
104952
104948
104945
104943
104942
104944
104947
104950
104953
104956
104912
104911
104908
104904
104902
104901
104900
104899
104899
104898
104899
104900
104901
104902
104904
104905
104906
104906
104906
104905
104902
104899
104897
104895
104895
104895
104897
104901
104903
104905
104864
104862
104859
104857
104855
104854
104854
104853
104852
104851
104851
104852
104852
104852
104853
104854
104855
104855
104855
104854
104852
104850
104848
104848
104848
104848
104849
104851
104853
104855
104815
104813
104811
104809
104808
104808
104808
104807
104805
104804
104803
104802
104802
104802
104802
104803
104802
104803
104803
104802
104800
104799
104799
104800
104800
104800
104800
104801
104803
104804
104765
104764
104763
104762
104762
104762
104761
104759
104757
104756
104754
104753
104752
104751
104751
104750
104749
104750
104750
104748
104747
104747
104749
104751
104752
104753
104752
104752
104753
104753
104717
104716
104715
104715
104715
104714
104713
104710
104708
104706
104704
104702
104701
104699
104698
104697
104695
104695
104694
104693
104692
104693
104696
104700
104702
104704
104704
104703
104703
104703
104668
104668
104669
104669
104668
104666
104663
104660
104657
104655
104652
104650
104648
104646
104644
104642
104640
104639
104637
104635
104635
104636
104640
104645
104650
104653
104654
104654
104653
104653
104620
104620
104621
104621
104619
104615
104611
104608
104605
104602
104599
104596
104593
104591
104588
104585
104583
104581
104579
104577
104577
104578
104581
104585
104592
104598
104602
104604
104603
104602
104570
104571
104571
104569
104565
104561
104557
104553
104550
104547
104544
104540
104537
104534
104531
104528
104524
104522
104519
104518
104517
104518
104520
104523
104529
104537
104545
104549
104551
104551
104520
104520
104518
104513
104508
104504
104501
104498
104494
104490
104486
104483
104480
104476
104473
104469
104465
104462
104459
104457
104457
104457
104458
104460
104465
104473
104482
104490
104495
104496
104466
104464
104459
104454
104449
104447
104444
104441
104437
104432
104427
104423
104420
104417
104413
104409
104405
104400
104397
104396
104395
104395
104395
104396
104400
104407
104416
104425
104433
104436
104406
104403
104397
104393
104391
104389
104386
104382
104377
104371
104366
104362
104358
104355
104352
104348
104343
104338
104335
104334
104334
104333
104332
104332
104335
104340
104349
104358
104367
104372
104342
104339
104335
104333
104333
104331
104327
104321
104314
104308
104302
104298
104294
104292
104289
104285
104280
104275
104272
104272
104272
104271
104271
104270
104271
104275
104282
104291
104299
104305
104278
104276
104275
104275
104274
104271
104264
104257
104249
104242
104237
104232
104229
104226
104224
104220
104216
104211
104209
104209
104210
104210
104211
104211
104211
104213
104218
104225
104232
104237
104216
104217
104218
104218
104214
104207
104199
104190
104182
104175
104170
104165
104162
104159
104157
104154
104149
104145
104144
104145
104147
104150
104153
104155
104155
104155
104157
104161
104167
104171
104156
104158
104160
104157
104150
104140
104130
104121
104113
104106
104101
104097
104094
104091
104089
104086
104082
104079
104079
104081
104084
104088
104093
104098
104100
104100
104100
104101
104105
104107
104098
104099
104098
104091
104081
104070
104059
104050
104042
104036
104032
104028
104025
104022
104020
104017
104013
104011
104012
104015
104019
104024
104031
104037
104042
104045
104045
104045
104046
104047
104038
104037
104031
104020
104009
103997
103987
103977
103970
103965
103961
103957
103955
103952
103950
103947
103943
103942
103944
103947
103952
103958
103965
103973
103980
103986
103989
103989
103989
103989
103971
103968
103959
103947
103935
103923
103913
103904
103898
103893
103890
103886
103884
103881
103879
103876
103873
103872
103874
103877
103882
103888
103896
103905
103915
103923
103929
103932
103932
103932
103899
103894
103884
103873
103861
103849
103839
103831
103825
103821
103818
103815
103812
103810
103807
103805
103802
103802
103803
103806
103811
103817
103825
103836
103846
103857
103865
103871
103873
103873
103824
103818
103809
103798
103786
103776
103766
103759
103754
103749
103746
103743
103741
103739
103736
103733
103731
103731
103732
103735
103739
103745
103754
103764
103776
103788
103798
103806
103810
103812
103748
103743
103734
103724
103713
103703
103695
103688
103683
103678
103675
103672
103670
103668
103665
103662
103660
103660
103661
103663
103668
103674
103683
103693
103705
103718
103729
103738
103744
103747
103673
103669
103661
103652
103642
103633
103625
103619
103613
103609
103605
103602
103600
103598
103596
103593
103591
103591
103591
103593
103597
103604
103612
103623
103634
103647
103659
103669
103675
103678
103600
103597
103590
103581
103573
103565
103558
103552
103546
103541
103537
103535
103533
103531
103528
103525
103523
103523
103523
103525
103529
103536
103544
103553
103564
103576
103588
103598
103605
103607
103530
103527
103521
103513
103506
103499
103492
103486
103481
103477
103473
103470
103467
103465
103462
103459
103457
103457
103458
103460
103464
103470
103477
103486
103496
103507
103517
103527
103534
103537
103462
103459
103454
103448
103441
103434
103428
103422
103418
103414
103410
103407
103403
103400
103397
103394
103393
103393
103394
103396
103400
103405
103411
103420
103429
103439
103449
103458
103464
103467
103396
103394
103390
103385
103378
103371
103364
103359
103355
103352
103348
103344
103340
103337
103333
103330
103329
103329
103331
103333
103337
103341
103346
103354
103363
103373
103383
103391
103396
103398
103331
103330
103327
103322
103315
103308
103301
103296
103293
103290
103286
103282
103277
103273
103269
103266
103265
103265
103267
103270
103273
103276
103281
103288
103297
103307
103317
103325
103329
103331
103267
103267
103264
103259
103252
103244
103238
103232
103229
103226
103222
103218
103213
103209
103205
103202
103201
103201
103203
103205
103208
103211
103215
103222
103231
103241
103251
103259
103264
103265
103204
103202
103200
103194
103187
103179
103173
103168
103164
103161
103157
103153
103148
103144
103140
103137
103136
103137
103138
103140
103142
103145
103149
103155
103164
103174
103184
103193
103198
103200
103139
103137
103133
103127
103120
103114
103108
103103
103099
103096
103092
103087
103083
103078
103074
103071
103071
103071
103073
103075
103077
103079
103083
103089
103097
103107
103117
103125
103130
103133
103072
103070
103065
103059
103053
103047
103042
103038
103034
103029
103025
103021
103016
103011
103007
103005
103004
103005
103007
103009
103011
103014
103018
103023
103030
103039
103049
103057
103063
103065
103004
103002
102997
102991
102986
102981
102977
102972
102968
102963
102958
102953
102948
102944
102940
102938
102937
102938
102940
102942
102945
102949
102954
102959
102965
102973
102981
102988
102994
102997
102937
102934
102930
102925
102921
102917
102912
102907
102901
102895
102890
102885
102880
102876
102873
102871
102870
102871
102873
102876
102880
102885
102890
102895
102902
102909
102915
102921
102926
102929
102870
102868
102865
102861
102858
102854
102848
102841
102835
102828
102822
102817
102812
102808
102805
102803
102803
102804
102806
102810
102815
102821
102827
102833
102839
102845
102850
102856
102860
102862
102804
102803
102801
102798
102794
102790
102783
102776
102769
102761
102755
102749
102744
102740
102737
102736
102736
102738
102741
102745
102750
102757
102763
102770
102776
102782
102787
102791
102795
102797
102739
102739
102737
102734
102730
102725
102717
102710
102701
102694
102687
102681
102676
102672
102670
102669
102670
102672
102675
102680
102686
102693
102700
102707
102713
102718
102724
102728
102731
102732
102675
102675
102673
102670
102665
102658
102651
102642
102634
102626
102620
102614
102609
102605
102602
102602
102603
102605
102609
102614
102621
102628
102636
102643
102649
102654
102660
102665
102667
102668
102611
102611
102608
102604
102598
102591
102583
102575
102566
102559
102552
102547
102542
102538
102536
102536
102537
102540
102544
102549
102556
102563
102571
102578
102584
102590
102596
102601
102604
102605
102547
102545
102542
102536
102530
102523
102515
102507
102499
102492
102486
102481
102477
102473
102472
102472
102473
102476
102480
102485
102491
102499
102506
102513
102520
102525
102531
102536
102540
102541
102481
102479
102474
102468
102462
102454
102447
102440
102433
102427
102422
102417
102413
102410
102409
102409
102411
102413
102417
102422
102428
102435
102442
102449
102455
102461
102466
102472
102476
102478
102414
102411
102407
102401
102394
102387
102381
102374
102369
102364
102359
102355
102352
102349
102348
102349
102350
102353
102356
102361
102366
102372
102379
102385
102391
102397
102402
102407
102411
102413
102347
102344
102340
102334
102328
102322
102316
102311
102306
102302
102299
102295
102291
102289
102289
102290
102291
102293
102297
102301
102305
102310
102316
102322
102328
102334
102339
102343
102347
102349
102281
102278
102275
102270
102265
102259
102254
102250
102246
102243
102239
102235
102232
102230
102230
102231
102233
102235
102238
102241
102245
102250
102255
102261
102267
102272
102277
102281
102283
102286
102216
102214
102211
102208
102204
102199
102195
102191
102187
102184
102180
102177
102174
102172
102172
102173
102175
102177
102180
102183
102186
102190
102195
102200
102206
102212
102216
102219
102221
102223
102153
102152
102150
102148
102145
102141
102136
102133
102129
102126
102122
102118
102115
102114
102115
102116
102117
102119
102122
102124
102127
102131
102136
102141
102146
102151
102154
102157
102159
102160
102092
102091
102090
102088
102085
102082
102078
102075
102071
102068
102063
102060
102057
102056
102057
102058
102060
102062
102064
102067
102069
102073
102077
102082
102086
102090
102093
102096
102098
102098
102032
102032
102031
102029
102027
102024
102020
102017
102014
102010
102005
102002
102000
101999
102000
102001
102003
102005
102007
102009
102012
102015
102019
102023
102026
102029
102031
102034
102036
102037
101973
101973
101972
101971
101969
101965
101962
101959
101956
101952
101947
101944
101942
101942
101943
101944
101946
101948
101950
101952
101954
101957
101961
101964
101967
101969
101971
101973
101974
101975
101913
101914
101913
101912
101910
101907
101904
101901
101898
101894
101890
101887
101885
101886
101887
101888
101889
101891
101893
101895
101897
101900
101903
101905
101907
101909
101910
101912
101912
101912
101853
101854
101853
101852
101850
101848
101845
101842
101839
101836
101832
101830
101829
101830
101830
101832
101833
101834
101836
101838
101840
101842
101845
101847
101848
101849
101850
101851
101851
101850
101794
101794
101793
101792
101791
101789
101788
101786
101783
101780
101777
101775
101775
101776
101776
101778
101779
101780
101782
101783
101785
101787
101789
101790
101790
101791
101791
101791
101791
101790
101736
101735
101735
101734
101733
101732
101732
101731
101730
101727
101725
101723
101723
101724
101725
101726
101727
101728
101730
101731
101733
101734
101735
101735
101735
101734
101734
101734
101733
101733
101679
101678
101677
101677
101676
101677
101677
101678
101677
101675
101673
101673
101673
101674
101675
101676
101677
101678
101679
101681
101682
101683
101683
101682
101681
101679
101679
101678
101678
101677
101623
101622
101621
101621
101621
101622
101624
101625
101625
101624
101623
101623
101624
101625
101625
101626
101627
101629
101630
101631
101632
101632
101631
101630
101628
101626
101625
101624
101623
101623
101567
101567
101566
101567
101568
101570
101571
101573
101573
101574
101574
101574
101575
101576
101577
101578
101579
101580
101581
101582
101582
101582
101581
101579
101577
101575
101572
101571
101570
101570
101513
101512
101513
101514
101516
101518
101520
101521
101522
101524
101524
101525
101526
101527
101528
101529
101530
101531
101532
101533
101533
101533
101532
101530
101527
101525
101522
101519
101518
101518
101459
101459
101460
101462
101464
101467
101469
101471
101472
101474
101475
101477
101478
101479
101480
101481
101482
101483
101484
101485
101485
101484
101483
101481
101478
101476
101473
101470
101468
101468
101407
101408
101410
101412
101414
101416
101419
101421
101423
101425
101427
101429
101430
101431
101433
101434
101435
101436
101437
101437
101437
101436
101435
101433
101430
101428
101425
101422
101420
101419
101357
101358
101360
101363
101365
101367
101369
101372
101374
101376
101379
101381
101382
101384
101385
101386
101387
101388
101389
101389
101389
101388
101387
101385
101383
101381
101378
101376
101373
101372
101308
101309
101312
101314
101316
101318
101320
101323
101325
101328
101330
101333
101335
101336
101337
101338
101340
101341
101341
101341
101341
101340
101339
101337
101336
101334
101332
101330
101328
101327
101260
101261
101263
101266
101268
101270
101272
101274
101277
101280
101283
101285
101287
101289
101290
101291
101292
101293
101294
101294
101294
101293
101291
101290
101289
101287
101286
101284
101283
101282
101213
101214
101216
101218
101220
101222
101224
101227
101229
101232
101235
101237
101240
101241
101243
101244
101245
101246
101247
101246
101246
101245
101244
101243
101242
101241
101240
101239
101238
101238
101167
101168
101169
101171
101173
101175
101177
101179
101182
101184
101187
101190
101192
101194
101196
101197
101199
101199
101200
101199
101199
101198
101197
101197
101196
101196
101195
101194
101194
101193
101122
101122
101123
101125
101127
101129
101131
101133
101135
101137
101140
101143
101145
101148
101149
101151
101152
101153
101153
101153
101153
101152
101151
101151
101151
101151
101150
101150
101150
101150
101077
101077
101078
101080
101082
101083
101085
101087
101088
101091
101093
101096
101099
101101
101103
101105
101106
101107
101107
101107
101107
101106
101106
101106
101106
101106
101107
101106
101106
101106
101033
101033
101034
101036
101037
101038
101040
101041
101043
101045
101047
101050
101053
101056
101058
101060
101061
101062
101062
101062
101062
101061
101061
101061
101062
101063
101063
101064
101063
101064
100990
100990
100991
100992
100993
100994
100996
100997
100998
101000
101003
101006
101008
101011
101013
101015
101017
101018
101018
101018
101017
101017
101017
101017
101018
101019
101021
101022
101021
101022
100948
100948
100949
100949
100950
100951
100952
100953
100955
100957
100959
100962
100965
100967
100970
100972
100973
100974
100974
100973
100973
100972
100972
100973
100974
100976
100978
100980
100980
100980
100907
100907
100907
100907
100908
100908
100909
100910
100912
100914
100916
100919
100922
100925
100927
100929
100930
100930
100930
100929
100929
100929
100929
100930
100931
100933
100936
100938
100939
100939
100867
100866
100866
100866
100866
100866
100867
100868
100870
100872
100875
100878
100880
100883
100885
100887
100887
100887
100887
100886
100885
100885
100886
100887
100888
100890
100893
100896
100898
100899
100827
100826
100825
100825
100825
100825
100826
100827
100829
100832
100835
100838
100840
100843
100845
100846
100846
100846
100845
100844
100843
100843
100843
100844
100846
100848
100851
100854
100856
100857
100786
100786
100785
100785
100785
100785
100787
100788
100791
100793
100796
100799
100802
100804
100806
100807
100807
100806
100805
100803
100802
100802
100802
100803
100804
100806
100808
100811
100814
100815
100746
100746
100746
100746
100746
100747
100749
100751
100753
100756
100759
100762
100764
100766
100767
100768
100768
100766
100765
100764
100763
100763
100763
100763
100764
100765
100767
100769
100772
100773
100707
100707
100707
100708
100709
100711
100712
100714
100717
100719
100722
100725
100727
100729
100730
100730
100729
100728
100727
100726
100725
100725
100725
100725
100725
100725
100726
100728
100730
100731
100670
100669
100670
100671
100673
100675
100676
100679
100681
100684
100687
100689
100691
100693
100693
100693
100692
100691
100689
100688
100688
100688
100688
100688
100687
100687
100687
100689
100690
100692
100633
100633
100634
100635
100637
100639
100641
100644
100646
100649
100651
100654
100656
100657
100657
100657
100655
100654
100653
100652
100652
100652
100652
100651
100651
100650
100650
100650
100652
100653
100597
100597
100598
100600
100603
100605
100607
100609
100611
100614
100616
100619
100621
100621
100622
100621
100620
100618
100617
100617
100617
100617
100617
100616
100615
100614
100613
100614
100615
100616
100561
100562
100564
100566
100568
100571
100573
100575
100577
100579
100582
100584
100586
100586
100586
100586
100585
100584
100583
100583
100583
100583
100582
100581
100580
100579
100578
100578
100579
100580
100527
100528
100530
100532
100535
100537
100539
100541
100543
100545
100548
100550
100551
100552
100552
100551
100550
100550
100549
100549
100549
100549
100548
100547
100546
100545
100544
100543
100544
100544
100495
100496
100498
100500
100502
100504
100506
100508
100510
100512
100514
100516
100517
100518
100518
100518
100517
100517
100517
100517
100516
100515
100514
100513
100512
100511
100510
100510
100510
100510
100464
100465
100467
100469
100471
100473
100474
100476
100478
100480
100482
100483
100484
100485
100485
100485
100485
100485
100485
100485
100484
100483
100482
100481
100480
100479
100478
100477
100477
100477
100435
100435
100437
100439
100441
100443
100444
100446
100448
100449
100451
100452
100453
100454
100454
100454
100454
100454
100454
100454
100453
100452
100451
100450
100449
100448
100447
100446
100445
100445
100407
100408
100409
100411
100413
100415
100416
100418
100419
100420
100422
100423
100423
100424
100424
100424
100424
100424
100424
100424
100423
100422
100421
100421
100420
100419
100417
100416
100415
100414
100380
100381
100383
100385
100386
100388
100389
100390
100392
100393
100394
100394
100395
100395
100395
100396
100396
100396
100396
100395
100395
100394
100393
100393
100392
100391
100389
100387
100386
100385
100355
100356
100357
100359
100361
100362
100363
100364
100366
100366
100367
100367
100368
100368
100368
100368
100369
100369
100369
100368
100368
100367
100367
100366
100365
100364
100362
100360
100358
100358
100331
100331
100333
100334
100336
100337
100338
100339
100340
100341
100341
100341
100341
100341
100342
100342
100342
100342
100342
100342
100342
100341
100341
100341
100340
100338
100336
100334
100332
100332
100307
100308
100309
100310
100311
100312
100313
100314
100315
100316
100316
100316
100316
100316
100316
100316
100317
100317
100317
100317
100317
100317
100316
100316
100315
100314
100312
100310
100308
100308
100284
100284
100286
100287
100288
100288
100289
100290
100290
100291
100291
100291
100291
100291
100291
100292
100292
100292
100292
100292
100292
100293
100293
100292
100292
100290
100289
100287
100286
100285
100262
100262
100263
100264
100264
100265
100265
100265
100266
100266
100266
100266
100267
100267
100267
100268
100268
100268
100268
100269
100269
100270
100270
100270
100269
100268
100267
100266
100265
100265
100240
100240
100241
100241
100241
100241
100241
100242
100242
100242
100243
100243
100243
100243
100244
100245
100245
100245
100246
100246
100247
100248