/*--------------------------------*- C++ -*----------------------------------*\
| =========                 |                                                 |
| \\      /  F ield         | OpenFOAM: The Open Source CFD Toolbox           |
|  \\    /   O peration     | Version:  v1606+                                |
|   \\  /    A nd           | Web:      www.OpenFOAM.com                      |
|    \\/     M anipulation  |                                                 |
\*---------------------------------------------------------------------------*/
FoamFile
{
    version     2.0;
    format      ascii;
    class       volVectorField;
    location    "1.07";
    object      U;
}
// * * * * * * * * * * * * * * * * * * * * * * * * * * * * * * * * * * * * * //

dimensions      [0 1 -1 0 0 0 0];

internalField   nonuniform List<vector> 
6000
(
(-0.00978582 0.007148 0)
(0.00623531 -0.0391859 0)
(0.0158061 -0.0463137 0)
(-0.014152 -0.0612417 0)
(-0.0455748 -0.067845 0)
(-0.0535226 -0.0778179 0)
(-0.0397709 -0.0759882 0)
(-0.0210042 -0.0762568 0)
(-0.00837614 -0.06994 0)
(-0.00817191 -0.0690262 0)
(-0.0214306 -0.0629024 0)
(-0.0401851 -0.0566475 0)
(-0.0586241 -0.0480686 0)
(-0.076456 -0.0381308 0)
(-0.0893679 -0.0268783 0)
(-0.0965962 -0.0225775 0)
(-0.0980912 -0.0237665 0)
(-0.0928499 -0.0300479 0)
(-0.0834712 -0.0503882 0)
(-0.0766173 -0.0808542 0)
(-0.0667185 -0.0947796 0)
(-0.0543573 -0.0905347 0)
(-0.0411701 -0.0889173 0)
(-0.0360905 -0.088856 0)
(-0.0442808 -0.0774919 0)
(-0.0749201 -0.0644398 0)
(-0.0956756 -0.0573359 0)
(-0.0862319 -0.0420694 0)
(-0.0429044 -0.0320747 0)
(-0.00319638 0.0283832 0)
(0.0495947 0.593864 0)
(0.0963269 0.588987 0)
(0.137142 0.647839 0)
(0.129095 0.697004 0)
(0.0640047 0.68026 0)
(0.02232 0.655485 0)
(0.0113367 0.634212 0)
(0.0161764 0.637325 0)
(0.0125193 0.64692 0)
(-0.0129862 0.685488 0)
(-0.0383919 0.700104 0)
(-0.0598509 0.699945 0)
(-0.0785817 0.694914 0)
(-0.0977325 0.680814 0)
(-0.11053 0.662816 0)
(-0.118325 0.650793 0)
(-0.119374 0.640519 0)
(-0.111577 0.633246 0)
(-0.099189 0.648612 0)
(-0.0976111 0.677206 0)
(-0.104928 0.675775 0)
(-0.108234 0.66925 0)
(-0.107927 0.670392 0)
(-0.123904 0.68177 0)
(-0.161569 0.69239 0)
(-0.210319 0.700511 0)
(-0.224489 0.640789 0)
(-0.192288 0.581077 0)
(-0.1182 0.532823 0)
(-0.057343 0.549264 0)
(0.0588349 0.372221 0)
(0.132785 0.360829 0)
(0.202336 0.454892 0)
(0.225167 0.566938 0)
(0.172796 0.62468 0)
(0.100285 0.497573 0)
(0.0842419 0.424116 0)
(0.105041 0.442516 0)
(0.0824415 0.46701 0)
(0.0165883 0.472083 0)
(-0.0315384 0.461045 0)
(-0.0611788 0.449501 0)
(-0.0840241 0.450926 0)
(-0.105444 0.448734 0)
(-0.119387 0.43877 0)
(-0.127614 0.428114 0)
(-0.126829 0.413234 0)
(-0.122981 0.394331 0)
(-0.119348 0.393189 0)
(-0.130329 0.406761 0)
(-0.154834 0.408336 0)
(-0.180209 0.412606 0)
(-0.186121 0.415724 0)
(-0.211031 0.481887 0)
(-0.265925 0.563842 0)
(-0.300644 0.556792 0)
(-0.282239 0.456453 0)
(-0.227023 0.34286 0)
(-0.135019 0.2888 0)
(-0.0636645 0.324362 0)
(0.0539283 0.30036 0)
(0.129677 0.316012 0)
(0.215759 0.437052 0)
(0.277248 0.579208 0)
(0.324072 0.688455 0)
(0.27147 0.604165 0)
(0.200108 0.445249 0)
(0.150519 0.437828 0)
(0.108909 0.55987 0)
(0.0299796 0.627637 0)
(-0.0370106 0.605928 0)
(-0.0881525 0.592722 0)
(-0.128804 0.592708 0)
(-0.151543 0.57833 0)
(-0.159093 0.554721 0)
(-0.148065 0.525895 0)
(-0.123501 0.498447 0)
(-0.10309 0.475789 0)
(-0.108717 0.492335 0)
(-0.137942 0.537393 0)
(-0.182189 0.537289 0)
(-0.230598 0.500964 0)
(-0.300155 0.514556 0)
(-0.381664 0.60496 0)
(-0.41114 0.647362 0)
(-0.356594 0.569074 0)
(-0.287451 0.46573 0)
(-0.204883 0.312325 0)
(-0.126208 0.257225 0)
(-0.0477573 0.271936 0)
(0.0299901 0.217985 0)
(0.085006 0.228514 0)
(0.173853 0.318333 0)
(0.274841 0.499143 0)
(0.389134 0.656213 0)
(0.433149 0.668637 0)
(0.305671 0.524354 0)
(0.165473 0.537928 0)
(0.0706798 0.721122 0)
(-0.0139303 0.752446 0)
(-0.0830383 0.70762 0)
(-0.152417 0.679629 0)
(-0.201295 0.654521 0)
(-0.218015 0.610586 0)
(-0.205182 0.561549 0)
(-0.166531 0.509094 0)
(-0.115317 0.482377 0)
(-0.0755993 0.491614 0)
(-0.0711342 0.54154 0)
(-0.102907 0.607711 0)
(-0.171303 0.640663 0)
(-0.265889 0.625678 0)
(-0.383162 0.638202 0)
(-0.463538 0.646859 0)
(-0.440947 0.579892 0)
(-0.342467 0.475013 0)
(-0.217175 0.33426 0)
(-0.127153 0.206329 0)
(-0.0698445 0.174716 0)
(-0.022516 0.182444 0)
(0.0127335 0.175742 0)
(0.0395925 0.179554 0)
(0.0858717 0.231382 0)
(0.178701 0.364421 0)
(0.325523 0.526187 0)
(0.441827 0.676353 0)
(0.366874 0.731789 0)
(0.165102 0.779688 0)
(0.00713772 0.800477 0)
(-0.0774042 0.787197 0)
(-0.154058 0.749555 0)
(-0.23207 0.700797 0)
(-0.274695 0.634515 0)
(-0.275777 0.558835 0)
(-0.236827 0.489682 0)
(-0.160977 0.42733 0)
(-0.0762347 0.398988 0)
(-0.00808015 0.435378 0)
(0.0217222 0.522815 0)
(-0.0043871 0.637354 0)
(-0.0794762 0.709178 0)
(-0.196942 0.745545 0)
(-0.342848 0.771502 0)
(-0.40679 0.663763 0)
(-0.347929 0.499062 0)
(-0.22128 0.342552 0)
(-0.115451 0.22272 0)
(-0.0530367 0.158093 0)
(-0.0298367 0.14486 0)
(-0.00202573 0.152964 0)
(0.00318172 0.161591 0)
(0.013539 0.161475 0)
(0.0330296 0.182737 0)
(0.0692087 0.272555 0)
(0.177927 0.362956 0)
(0.298539 0.610258 0)
(0.308101 0.905565 0)
(0.114526 0.902697 0)
(-0.0123467 0.886295 0)
(-0.109342 0.861264 0)
(-0.200786 0.823094 0)
(-0.285778 0.761089 0)
(-0.326325 0.662938 0)
(-0.304794 0.550824 0)
(-0.223953 0.417144 0)
(-0.121392 0.327433 0)
(-0.0259722 0.307185 0)
(0.0531991 0.371962 0)
(0.100046 0.521836 0)
(0.0935854 0.678641 0)
(0.0210375 0.788032 0)
(-0.0991186 0.84697 0)
(-0.229394 0.875961 0)
(-0.25523 0.651317 0)
(-0.183978 0.392756 0)
(-0.0969691 0.236977 0)
(-0.0449988 0.161361 0)
(-0.0206669 0.134193 0)
(-0.0114821 0.131403 0)
(0.000857205 0.143468 0)
(0.000179408 0.157249 0)
(0.00244662 0.156755 0)
(0.00710985 0.170659 0)
(0.0135748 0.227966 0)
(0.0427524 0.287115 0)
(0.118418 0.482987 0)
(0.192371 0.987131 0)
(0.0862915 1.04033 0)
(-0.0354188 0.99461 0)
(-0.133804 0.957697 0)
(-0.242769 0.920155 0)
(-0.336178 0.8352 0)
(-0.336546 0.66342 0)
(-0.247378 0.461241 0)
(-0.139588 0.301537 0)
(-0.0515808 0.224895 0)
(0.0173313 0.216791 0)
(0.0744594 0.289446 0)
(0.135452 0.4696 0)
(0.170388 0.724693 0)
(0.112763 0.89671 0)
(-0.0182342 0.979493 0)
(-0.128121 0.953419 0)
(-0.119771 0.602566 0)
(-0.0492951 0.326051 0)
(-0.0250929 0.190664 0)
(-0.0162582 0.142863 0)
(-0.00955298 0.128345 0)
(-0.00477442 0.126272 0)
(0.000209911 0.13866 0)
(-0.00273109 0.158394 0)
(-0.0057755 0.156757 0)
(-0.00620882 0.173194 0)
(-0.00920981 0.222134 0)
(-0.0223316 0.284573 0)
(-0.000592546 0.39659 0)
(0.0352393 0.989983 0)
(0.0405237 1.17485 0)
(-0.0619362 1.10989 0)
(-0.141514 1.07577 0)
(-0.249336 1.0465 0)
(-0.309375 0.88084 0)
(-0.238083 0.572982 0)
(-0.132748 0.345894 0)
(-0.0525742 0.216021 0)
(0.0051864 0.165101 0)
(0.045673 0.17578 0)
(0.0641116 0.249127 0)
(0.100929 0.406208 0)
(0.149819 0.70478 0)
(0.156871 0.99806 0)
(0.045043 1.12179 0)
(-0.0347174 0.980103 0)
(0.00662643 0.546495 0)
(0.0271572 0.307997 0)
(0.0143301 0.195835 0)
(-0.0026271 0.146561 0)
(-0.0035122 0.126301 0)
(-8.59149e-05 0.122776 0)
(0.000919435 0.137144 0)
(-0.00831773 0.167436 0)
(-0.0163527 0.158068 0)
(-0.0146319 0.174885 0)
(-0.0157557 0.228965 0)
(-0.0309394 0.309385 0)
(-0.0526857 0.416561 0)
(-0.102476 0.905754 0)
(-0.071712 1.25355 0)
(-0.0908408 1.1925 0)
(-0.117249 1.17136 0)
(-0.166637 1.1441 0)
(-0.162983 0.857353 0)
(-0.115096 0.468934 0)
(-0.0605692 0.265998 0)
(-0.00926102 0.15362 0)
(0.034505 0.120946 0)
(0.0587447 0.155083 0)
(0.0584485 0.242885 0)
(0.0543504 0.380195 0)
(0.0777552 0.636636 0)
(0.129038 1.02581 0)
(0.0967354 1.22526 0)
(0.0681098 0.96688 0)
(0.084119 0.521855 0)
(0.0594915 0.328286 0)
(0.0308752 0.224764 0)
(0.00635723 0.15834 0)
(0.00278902 0.125711 0)
(0.00592883 0.119943 0)
(0.00379141 0.139934 0)
(-0.0193779 0.195336 0)
(-0.0330165 0.156421 0)
(-0.0211593 0.171763 0)
(-0.016469 0.237152 0)
(-0.0396829 0.346845 0)
(-0.105192 0.494072 0)
(-0.183686 0.878907 0)
(-0.173233 1.19972 0)
(-0.101026 1.15249 0)
(-0.0672314 1.14533 0)
(-0.0412626 1.13214 0)
(-0.0139861 0.813267 0)
(-0.0269329 0.432943 0)
(-0.0126042 0.233084 0)
(0.0128434 0.123309 0)
(0.0415381 0.0988464 0)
(0.0558946 0.151425 0)
(0.0426519 0.26357 0)
(0.00975415 0.39459 0)
(0.00011828 0.595695 0)
(0.0314781 0.975966 0)
(0.0946796 1.23962 0)
(0.140667 0.940115 0)
(0.120036 0.552442 0)
(0.0678658 0.37265 0)
(0.0309594 0.25985 0)
(0.0115833 0.170941 0)
(0.00876906 0.125735 0)
(0.0166414 0.11598 0)
(0.0103184 0.155955 0)
(-0.0434995 0.247798 0)
(-0.0575983 0.140658 0)
(-0.0202391 0.148514 0)
(0.00675076 0.237516 0)
(-0.021481 0.400777 0)
(-0.143714 0.627293 0)
(-0.228091 0.909759 0)
(-0.172839 1.09232 0)
(-0.0827082 1.06629 0)
(-0.0284702 1.06171 0)
(0.0285446 1.06168 0)
(0.0401209 0.805494 0)
(0.000103082 0.491017 0)
(-0.0177041 0.243415 0)
(0.018663 0.102469 0)
(0.0526229 0.0837399 0)
(0.0549098 0.168466 0)
(0.0153178 0.310157 0)
(-0.0454568 0.444369 0)
(-0.0907475 0.604809 0)
(-0.0808412 0.901742 0)
(0.0522807 1.12867 0)
(0.172831 0.881163 0)
(0.161522 0.600258 0)
(0.0968578 0.430451 0)
(0.0383204 0.289788 0)
(0.0162273 0.183226 0)
(0.0161308 0.121456 0)
(0.0393314 0.0906616 0)
(0.0404599 0.187777 0)
(-0.0158719 0.272368 0)
(-0.0439578 0.11968 0)
(0.00800405 0.104005 0)
(0.0550154 0.214923 0)
(0.0354429 0.46643 0)
(-0.0992823 0.708015 0)
(-0.195218 0.838332 0)
(-0.12693 0.981173 0)
(-0.0543923 0.987548 0)
(0.00165676 0.978698 0)
(0.0580258 0.979032 0)
(0.00911378 0.775298 0)
(-0.0744075 0.474233 0)
(-0.0841328 0.165778 0)
(-0.0144824 0.0261304 0)
(0.0592194 0.0438203 0)
(0.0619772 0.18529 0)
(-0.00282323 0.357632 0)
(-0.103623 0.498571 0)
(-0.158561 0.64145 0)
(-0.120841 0.823368 0)
(0.0167772 0.964813 0)
(0.160406 0.802794 0)
(0.213934 0.658367 0)
(0.142494 0.524408 0)
(0.0301235 0.344189 0)
(0.000907511 0.190743 0)
(0.0132948 0.101881 0)
(0.0630353 0.0480195 0)
(0.0632323 0.246228 0)
(0.046371 0.319583 0)
(0.109933 0.0708534 0)
(0.0938277 0.0353723 0)
(0.15036 0.158761 0)
(0.164836 0.543855 0)
(0.0227661 1.0524 0)
(-0.0650629 0.8506 0)
(-0.0341222 0.847772 0)
(-0.00996528 0.892438 0)
(-0.00900147 0.862287 0)
(-0.0318463 0.981997 0)
(-0.140987 0.999739 0)
(-0.256525 0.61816 0)
(-0.16346 0.0758916 0)
(-0.0474712 -0.105813 0)
(0.0136772 -0.0435397 0)
(0.0121821 0.210974 0)
(-0.0539327 0.418799 0)
(-0.118493 0.564323 0)
(-0.159629 0.570014 0)
(-0.119727 0.630071 0)
(0.00355906 0.736442 0)
(0.13307 0.642712 0)
(0.183936 0.569005 0)
(0.135032 0.572392 0)
(-0.00793921 0.354879 0)
(-0.0328363 0.203699 0)
(-0.0142011 0.0786067 0)
(0.013984 0.0331216 0)
(-0.0380471 0.300417 0)
(0.073269 0.172068 0)
(0.180735 0.0490229 0)
(0.225983 -0.0182222 0)
(0.229795 0.160229 0)
(0.180352 0.720691 0)
(0.160901 1.07882 0)
(0.182359 1.00663 0)
(0.143539 1.06871 0)
(0.0471583 1.14093 0)
(-0.0852465 1.14458 0)
(-0.246774 1.26569 0)
(-0.350961 1.17816 0)
(-0.317383 0.659588 0)
(-0.145153 -0.0107714 0)
(-0.0662326 -0.198549 0)
(-0.0654744 -0.00419588 0)
(-0.0484491 0.363093 0)
(-0.0569965 0.564793 0)
(-0.0191087 0.704589 0)
(-0.00433792 0.774737 0)
(-0.0145124 0.7529 0)
(0.0210489 0.738365 0)
(0.0706374 0.658269 0)
(0.0450583 0.68505 0)
(-0.00821161 0.85343 0)
(-0.112311 0.627469 0)
(-0.192037 0.147707 0)
(-0.0952049 0.090341 0)
(-0.158166 -0.0181005 0)
(-0.0804643 0.234273 0)
(0.0495102 0.0500553 0)
(0.130199 -0.0427458 0)
(0.150807 -0.0297102 0)
(0.10944 0.259426 0)
(0.02408 0.699346 0)
(0.104227 0.925912 0)
(0.190572 0.908764 0)
(0.183851 1.07086 0)
(0.0743826 1.22375 0)
(-0.0924867 1.2685 0)
(-0.244125 1.32039 0)
(-0.280571 1.08623 0)
(-0.188704 0.469873 0)
(-0.0712304 -0.118112 0)
(-0.108339 -0.206922 0)
(-0.158242 2.99495e-05 0)
(-0.149417 0.285098 0)
(-0.106536 0.436827 0)
(-0.0223184 0.549272 0)
(0.0665612 0.663239 0)
(0.103897 0.728878 0)
(0.0866198 0.75755 0)
(0.0322682 0.749139 0)
(-0.0580563 0.768145 0)
(-0.0753849 0.782525 0)
(-0.0663321 0.631704 0)
(-0.129445 0.296277 0)
(-0.115642 -0.000734656 0)
(-0.112929 -0.0160692 0)
(-0.0631999 0.100327 0)
(0.0223526 -0.0120174 0)
(0.0434695 -0.079178 0)
(0.00697663 0.00893894 0)
(-0.0691141 0.374501 0)
(-0.120134 0.660187 0)
(-0.00905389 0.806054 0)
(0.096939 0.834939 0)
(0.124309 1.07625 0)
(0.0770957 1.27692 0)
(-0.0287696 1.33668 0)
(-0.117278 1.33784 0)
(-0.107464 1.02381 0)
(-0.0527978 0.398059 0)
(-0.0346357 -0.103044 0)
(-0.114297 -0.155603 0)
(-0.173765 0.0211876 0)
(-0.180935 0.274804 0)
(-0.146226 0.366489 0)
(-0.0957752 0.450393 0)
(-0.0185934 0.561423 0)
(0.0480215 0.658004 0)
(0.0670832 0.726855 0)
(0.0275862 0.736525 0)
(-0.0186188 0.746761 0)
(-0.00765974 0.736907 0)
(0.060975 0.56973 0)
(0.0738653 0.279927 0)
(0.0274001 0.0770018 0)
(-0.00873595 -0.0265452 0)
(-0.0186702 0.0419616 0)
(-0.00617201 -0.0212662 0)
(-0.0378918 -0.0631047 0)
(-0.112354 0.102263 0)
(-0.214361 0.445789 0)
(-0.219641 0.601635 0)
(-0.115159 0.691543 0)
(0.000424548 0.764806 0)
(0.0706717 1.06191 0)
(0.0924002 1.34358 0)
(0.0383245 1.41462 0)
(-0.00707027 1.37376 0)
(0.0315798 0.979938 0)
(0.0515899 0.394968 0)
(0.0022872 -0.031432 0)
(-0.0802279 -0.0940381 0)
(-0.159586 0.0536887 0)
(-0.182589 0.244997 0)
(-0.166417 0.349954 0)
(-0.144529 0.390552 0)
(-0.111725 0.488247 0)
(-0.0539803 0.604775 0)
(0.00643578 0.727349 0)
(0.020821 0.789447 0)
(0.0244639 0.773723 0)
(0.0832863 0.689952 0)
(0.17494 0.499051 0)
(0.213565 0.322958 0)
(0.172673 0.127593 0)
(0.0901634 0.0335824 0)
(0.0198212 0.0623221 0)
(-0.0124283 0.0388208 0)
(-0.109669 0.00516014 0)
(-0.222124 0.216379 0)
(-0.303432 0.495117 0)
(-0.286289 0.527736 0)
(-0.218075 0.561248 0)
(-0.123329 0.661199 0)
(0.00551244 0.980222 0)
(0.101287 1.33708 0)
(0.092256 1.4445 0)
(0.0861941 1.37835 0)
(0.142065 0.930297 0)
(0.150217 0.424274 0)
(0.0794783 0.0605649 0)
(-0.0104261 -0.00981215 0)
(-0.106146 0.113037 0)
(-0.147149 0.260431 0)
(-0.153525 0.34886 0)
(-0.154189 0.40493 0)
(-0.142341 0.481514 0)
(-0.104081 0.532294 0)
(-0.0507102 0.652294 0)
(0.00397685 0.743162 0)
(0.0605622 0.708787 0)
(0.143524 0.579884 0)
(0.223129 0.451407 0)
(0.246564 0.292601 0)
(0.202636 0.188303 0)
(0.119716 0.130024 0)
(0.0346074 0.133773 0)
(-0.0201364 0.105548 0)
(-0.122426 0.127836 0)
(-0.283785 0.33294 0)
(-0.339586 0.529408 0)
(-0.332951 0.542422 0)
(-0.303135 0.536784 0)
(-0.222081 0.554504 0)
(-0.0758663 0.840223 0)
(0.104985 1.27553 0)
(0.148341 1.4438 0)
(0.167056 1.34095 0)
(0.225748 0.883823 0)
(0.263268 0.459681 0)
(0.198836 0.164046 0)
(0.093497 0.101269 0)
(-0.0135371 0.18427 0)
(-0.0700905 0.288923 0)
(-0.0972788 0.353846 0)
(-0.112863 0.393519 0)
(-0.11379 0.448147 0)
(-0.100449 0.52379 0)
(-0.0639337 0.62337 0)
(0.0111292 0.6988 0)
(0.104048 0.651822 0)
(0.174522 0.529057 0)
(0.205806 0.398641 0)
(0.197391 0.30951 0)
(0.156627 0.248097 0)
(0.0983583 0.211028 0)
(0.0300123 0.207692 0)
(-0.0396216 0.196259 0)
(-0.148052 0.260525 0)
(-0.277636 0.420751 0)
(-0.285255 0.534533 0)
(-0.271928 0.511264 0)
(-0.254152 0.459453 0)
(-0.217975 0.466398 0)
(-0.142281 0.634944 0)
(0.0535648 1.13594 0)
(0.184553 1.43022 0)
(0.233499 1.29382 0)
(0.300349 0.836541 0)
(0.338853 0.461075 0)
(0.262003 0.264707 0)
(0.147636 0.228101 0)
(0.043153 0.264001 0)
(-0.0179582 0.332088 0)
(-0.051552 0.37658 0)
(-0.0714506 0.404814 0)
(-0.0798982 0.438374 0)
(-0.0718728 0.48547 0)
(-0.0390376 0.543804 0)
(0.0267471 0.586237 0)
(0.0995562 0.553658 0)
(0.140533 0.475296 0)
(0.143479 0.386109 0)
(0.132149 0.32191 0)
(0.107074 0.281949 0)
(0.0684368 0.260707 0)
(0.021552 0.258273 0)
(-0.0478013 0.304546 0)
(-0.124046 0.334778 0)
(-0.173561 0.440743 0)
(-0.181786 0.533107 0)
(-0.166563 0.518393 0)
(-0.17578 0.481803 0)
(-0.194699 0.467245 0)
(-0.187963 0.547451 0)
(-0.0657605 0.947174 0)
(0.121503 1.35268 0)
(0.238494 1.24776 0)
(0.331572 0.83474 0)
(0.301887 0.443145 0)
(0.239793 0.355363 0)
(0.155916 0.340329 0)
(0.0653791 0.345948 0)
(0.00704549 0.380143 0)
(-0.0279351 0.406725 0)
(-0.0517786 0.424541 0)
(-0.0676119 0.441903 0)
(-0.070072 0.464357 0)
(-0.0519744 0.488299 0)
(-0.0102644 0.501746 0)
(0.0389554 0.474156 0)
(0.0785135 0.423791 0)
(0.0967535 0.373691 0)
(0.0917132 0.336374 0)
(0.0723543 0.311442 0)
(0.0451421 0.295607 0)
(0.0145013 0.292176 0)
(-0.0315495 0.384537 0)
(-0.0845987 0.381877 0)
(-0.107229 0.430497 0)
(-0.0966578 0.471152 0)
(-0.0830556 0.472693 0)
(-0.093497 0.45837 0)
(-0.124897 0.457383 0)
(-0.17484 0.522329 0)
(-0.176629 0.777357 0)
(-0.0188135 1.18305 0)
(0.202875 1.13184 0)
(0.279931 0.737294 0)
(0.238937 0.482437 0)
(0.191702 0.432444 0)
(0.13038 0.420768 0)
(0.0666524 0.411661 0)
(0.0179653 0.419126 0)
(-0.0147698 0.429801 0)
(-0.0375267 0.438128 0)
(-0.0519697 0.446099 0)
(-0.0555419 0.455158 0)
(-0.0434548 0.462769 0)
(-0.0131131 0.463871 0)
(0.0247609 0.445537 0)
(0.0524531 0.414933 0)
(0.0632398 0.382752 0)
(0.059284 0.354324 0)
(0.04654 0.333464 0)
(0.0292229 0.320429 0)
(0.00954067 0.316996 0)
(-0.014478 0.425942 0)
(-0.0460614 0.418764 0)
(-0.0657564 0.45076 0)
(-0.069533 0.482519 0)
(-0.0713046 0.495175 0)
(-0.0866382 0.499146 0)
(-0.117524 0.50955 0)
(-0.148053 0.544216 0)
(-0.155789 0.669906 0)
(-0.0909934 0.939555 0)
(0.136967 0.915373 0)
(0.210376 0.658262 0)
(0.192922 0.519574 0)
(0.149969 0.484044 0)
(0.104543 0.468809 0)
(0.0645004 0.457485 0)
(0.0298797 0.453694 0)
(0.00414813 0.455627 0)
(-0.0142368 0.458728 0)
(-0.0264208 0.461126 0)
(-0.0310955 0.461278 0)
(-0.0255139 0.45708 0)
(-0.00890878 0.447741 0)
(0.0124509 0.430334 0)
(0.0289124 0.406827 0)
(0.0366617 0.382786 0)
(0.0361026 0.361799 0)
(0.0293868 0.34608 0)
(0.0187822 0.336182 0)
(0.00620213 0.333079 0)
(-0.00627456 0.449763 0)
(-0.0255117 0.444046 0)
(-0.0423587 0.466064 0)
(-0.0537607 0.492413 0)
(-0.0652916 0.512979 0)
(-0.0832349 0.53079 0)
(-0.108761 0.552846 0)
(-0.134452 0.587012 0)
(-0.136826 0.662982 0)
(-0.0626374 0.769773 0)
(0.0809433 0.741841 0)
(0.152656 0.638444 0)
(0.144301 0.565597 0)
(0.109699 0.529294 0)
(0.0789311 0.501761 0)
(0.0564459 0.48717 0)
(0.0363868 0.478675 0)
(0.0198181 0.474922 0)
(0.00704532 0.473724 0)
(-0.00302071 0.472366 0)
(-0.0102814 0.466999 0)
(-0.0126543 0.454429 0)
(-0.00774567 0.43563 0)
(0.00290177 0.41659 0)
(0.0133551 0.397658 0)
(0.0197054 0.379912 0)
(0.0210234 0.364721 0)
(0.0179782 0.353236 0)
(0.0117697 0.346037 0)
(0.00393583 0.343343 0)
(-0.00307302 0.463247 0)
(-0.0160116 0.462144 0)
(-0.0302334 0.480941 0)
(-0.0435862 0.505283 0)
(-0.0576961 0.528764 0)
(-0.073939 0.551943 0)
(-0.0913726 0.577488 0)
(-0.104989 0.609132 0)
(-0.0992337 0.654817 0)
(-0.0487362 0.701891 0)
(0.0285405 0.689054 0)
(0.076 0.633534 0)
(0.0826894 0.590383 0)
(0.0688775 0.556916 0)
(0.0534042 0.521448 0)
(0.0435011 0.502627 0)
(0.0354784 0.492065 0)
(0.0284342 0.485725 0)
(0.0224373 0.48266 0)
(0.0159431 0.480815 0)
(0.00764558 0.474373 0)
(-0.00180253 0.458122 0)
(-0.0065852 0.431413 0)
(-0.00329952 0.408049 0)
(0.00333784 0.390479 0)
(0.00888461 0.376535 0)
(0.0111812 0.365343 0)
(0.0102932 0.357084 0)
(0.00696279 0.352014 0)
(0.00235968 0.349742 0)
(-0.00171199 0.471773 0)
(-0.0114081 0.475884 0)
(-0.0236017 0.495044 0)
(-0.036578 0.519427 0)
(-0.0502059 0.543956 0)
(-0.0640024 0.568076 0)
(-0.0764692 0.592293 0)
(-0.0839833 0.616977 0)
(-0.0787622 0.641098 0)
(-0.0529321 0.657638 0)
(-0.0145289 0.647114 0)
(0.0160128 0.615892 0)
(0.0304855 0.592317 0)
(0.0317553 0.567555 0)
(0.0283551 0.529246 0)
(0.0276848 0.507334 0)
(0.0285516 0.495677 0)
(0.029857 0.488674 0)
(0.0313251 0.485809 0)
(0.0313412 0.48622 0)
(0.0261824 0.483266 0)
(0.0115276 0.469456 0)
(-0.00367557 0.435046 0)
(-0.00785959 0.404581 0)
(-0.00365683 0.38495 0)
(0.00129342 0.372935 0)
(0.00443435 0.364622 0)
(0.00500497 0.358819 0)
(0.00360416 0.355358 0)
(0.00122518 0.353452 0)
(-0.00133974 0.478104 0)
(-0.00972263 0.487309 0)
(-0.0204551 0.508147 0)
(-0.0322201 0.533019 0)
(-0.0443779 0.557743 0)
(-0.0562488 0.581283 0)
(-0.0669201 0.603232 0)
(-0.0745526 0.621937 0)
(-0.0754072 0.63336 0)
(-0.0654147 0.63327 0)
(-0.0467207 0.619193 0)
(-0.0267635 0.596928 0)
(-0.0108356 0.582741 0)
(-0.00104506 0.566325 0)
(0.00406415 0.528347 0)
(0.0093589 0.504629 0)
(0.0157896 0.492085 0)
(0.0225463 0.484675 0)
(0.0295195 0.48217 0)
(0.0369546 0.485319 0)
(0.0412225 0.493335 0)
(0.0312083 0.490238 0)
(0.00668762 0.452059 0)
(-0.00735463 0.405597 0)
(-0.00891078 0.381103 0)
(-0.00416428 0.368992 0)
(-0.000358044 0.362831 0)
(0.00136211 0.359028 0)
(0.00129376 0.356918 0)
(0.000421052 0.355261 0)
(-0.00189131 0.48392 0)
(-0.00984678 0.497603 0)
(-0.0195735 0.520352 0)
(-0.0301273 0.545543 0)
(-0.0407106 0.569986 0)
(-0.0509591 0.592953 0)
(-0.0611673 0.613937 0)
(-0.0712521 0.630027 0)
(-0.079447 0.63521 0)
(-0.0808463 0.624686 0)
(-0.0734977 0.604196 0)
(-0.0605137 0.581515 0)
(-0.0455817 0.568678 0)
(-0.0309108 0.556871 0)
(-0.0195454 0.521899 0)
(-0.0106932 0.497556 0)
(-0.00169578 0.484578 0)
(0.00631346 0.477459 0)
(0.0120823 0.47561 0)
(0.0187197 0.477828 0)
(0.0313988 0.49538 0)
(0.0414664 0.504871 0)
(0.0252424 0.47766 0)
(0.00217347 0.421178 0)
(-0.0109983 0.379152 0)
(-0.00777615 0.364889 0)
(-0.00338403 0.360299 0)
(-0.000954671 0.358418 0)
(-0.000126581 0.357305 0)
(-6.17873e-05 0.35582 0)
(-0.00274718 0.490777 0)
(-0.0108252 0.507912 0)
(-0.0203998 0.531778 0)
(-0.0303824 0.556845 0)
(-0.039763 0.580742 0)
(-0.0482437 0.603204 0)
(-0.0572143 0.624694 0)
(-0.069247 0.642252 0)
(-0.0850331 0.64625 0)
(-0.0973891 0.627806 0)
(-0.0987635 0.597518 0)
(-0.0900604 0.569514 0)
(-0.0763552 0.553129 0)
(-0.0589115 0.541413 0)
(-0.0424807 0.511523 0)
(-0.0304594 0.487891 0)
(-0.0194385 0.475469 0)
(-0.0111345 0.471159 0)
(-0.011258 0.474516 0)
(-0.0140711 0.469025 0)
(-0.00568978 0.471227 0)
(0.0163143 0.482624 0)
(0.0292127 0.498364 0)
(0.013724 0.455446 0)
(-0.00662817 0.383149 0)
(-0.00875328 0.36149 0)
(-0.00452892 0.357446 0)
(-0.00199016 0.357164 0)
(-0.000750391 0.356973 0)
(-0.000219553 0.355729 0)
(-0.0035205 0.498843 0)
(-0.0128044 0.518972 0)
(-0.0236982 0.543577 0)
(-0.0345826 0.568006 0)
(-0.0437081 0.590288 0)
(-0.0501301 0.611454 0)
(-0.0554244 0.633907 0)
(-0.0653953 0.656471 0)
(-0.0875132 0.666475 0)
(-0.113448 0.642669 0)
(-0.125538 0.596425 0)
(-0.119027 0.559385 0)
(-0.104577 0.536815 0)
(-0.085269 0.52174 0)
(-0.0648741 0.4972 0)
(-0.0485182 0.475363 0)
(-0.0334177 0.464163 0)
(-0.0208004 0.464331 0)
(-0.0254805 0.481628 0)
(-0.0390078 0.467619 0)
(-0.0352636 0.453304 0)
(-0.014883 0.455202 0)
(0.00925131 0.481957 0)
(0.0135859 0.474268 0)
(-0.000199743 0.395078 0)
(-0.00744516 0.358752 0)
(-0.00446819 0.354979 0)
(-0.00186762 0.355429 0)
(-0.000670274 0.356335 0)
(-9.76549e-05 0.355517 0)
(-0.00448612 0.508602 0)
(-0.0166296 0.53207 0)
(-0.0310947 0.557811 0)
(-0.0458108 0.581144 0)
(-0.0574977 0.599952 0)
(-0.063302 0.61696 0)
(-0.0634775 0.638384 0)
(-0.0643198 0.669213 0)
(-0.0823378 0.693726 0)
(-0.12555 0.674952 0)
(-0.153761 0.598692 0)
(-0.149968 0.549045 0)
(-0.131981 0.518527 0)
(-0.110111 0.499788 0)
(-0.0870655 0.478667 0)
(-0.0659561 0.458861 0)
(-0.0464257 0.449018 0)
(-0.0333224 0.457225 0)
(-0.0351625 0.508744 0)
(-0.0573909 0.481539 0)
(-0.0565733 0.44263 0)
(-0.0421923 0.435671 0)
(-0.0195316 0.453263 0)
(0.00116478 0.483638 0)
(0.00446434 0.40841 0)
(-0.00379512 0.359128 0)
(-0.00326527 0.353157 0)
(-0.000955546 0.353991 0)
(-2.60737e-05 0.355736 0)
(0.000216024 0.355573 0)
(-0.00593835 0.52092 0)
(-0.0224748 0.549216 0)
(-0.0434856 0.577788 0)
(-0.0669809 0.600611 0)
(-0.0868308 0.613685 0)
(-0.0974249 0.622519 0)
(-0.0970223 0.637294 0)
(-0.0869441 0.673312 0)
(-0.0799252 0.726732 0)
(-0.133261 0.739199 0)
(-0.17085 0.611356 0)
(-0.179078 0.535097 0)
(-0.159562 0.497315 0)
(-0.134451 0.475966 0)
(-0.109098 0.456515 0)
(-0.0846799 0.438364 0)
(-0.0625258 0.431165 0)
(-0.0524891 0.455342 0)
(-0.0429283 0.512221 0)
(-0.0747192 0.490881 0)
(-0.0672921 0.436746 0)
(-0.0599249 0.422035 0)
(-0.0421429 0.426914 0)
(-0.0187007 0.459631 0)
(0.00411117 0.4112 0)
(0.000371547 0.361822 0)
(-0.000803813 0.352045 0)
(0.000290506 0.353181 0)
(0.000822616 0.355417 0)
(0.000640175 0.356142 0)
(-0.00670107 0.536165 0)
(-0.0272017 0.572275 0)
(-0.0582087 0.608556 0)
(-0.0978029 0.633616 0)
(-0.132849 0.636309 0)
(-0.153621 0.633146 0)
(-0.159589 0.633964 0)
(-0.148262 0.655353 0)
(-0.113227 0.719577 0)
(-0.124053 0.806996 0)
(-0.174543 0.661722 0)
(-0.197665 0.525158 0)
(-0.184506 0.474427 0)
(-0.157483 0.450075 0)
(-0.130394 0.431964 0)
(-0.104573 0.415498 0)
(-0.0825794 0.412851 0)
(-0.0731152 0.457196 0)
(-0.0598995 0.514943 0)
(-0.0884874 0.499374 0)
(-0.0688501 0.442227 0)
(-0.0633051 0.408009 0)
(-0.049336 0.408795 0)
(-0.0289069 0.426035 0)
(-0.00182549 0.402039 0)
(0.00215409 0.363004 0)
(0.0011515 0.351951 0)
(0.00129494 0.352958 0)
(0.0015029 0.35537 0)
(0.00100466 0.357265 0)
(-0.00366114 0.550549 0)
(-0.0225453 0.602683 0)
(-0.0676636 0.658016 0)
(-0.136094 0.690243 0)
(-0.193307 0.671586 0)
(-0.223134 0.650067 0)
(-0.233492 0.633121 0)
(-0.226482 0.632425 0)
(-0.193855 0.674149 0)
(-0.161992 0.833382 0)
(-0.171843 0.727942 0)
(-0.198964 0.530294 0)
(-0.200353 0.451725 0)
(-0.17673 0.423208 0)
(-0.149213 0.406579 0)
(-0.124005 0.393176 0)
(-0.105407 0.397335 0)
(-0.0961209 0.456024 0)
(-0.0785345 0.518624 0)
(-0.0876982 0.494622 0)
(-0.0582942 0.438724 0)
(-0.0520537 0.397332 0)
(-0.0432072 0.395421 0)
(-0.0273921 0.40101 0)
(-0.00599347 0.386534 0)
(0.00192423 0.361533 0)
(0.00227562 0.352384 0)
(0.00229106 0.353024 0)
(0.0022477 0.355548 0)
(0.00134275 0.358899 0)
(0.00958013 0.550405 0)
(-0.000691392 0.629996 0)
(-0.0684106 0.727919 0)
(-0.186749 0.777237 0)
(-0.273806 0.715511 0)
(-0.304886 0.669604 0)
(-0.310543 0.634806 0)
(-0.301578 0.615565 0)
(-0.27328 0.627626 0)
(-0.206836 0.729037 0)
(-0.169637 0.754882 0)
(-0.197166 0.553819 0)
(-0.212717 0.433961 0)
(-0.192361 0.396392 0)
(-0.163542 0.38119 0)
(-0.138539 0.372957 0)
(-0.122827 0.385411 0)
(-0.112786 0.444808 0)
(-0.0900529 0.491185 0)
(-0.064697 0.45759 0)
(-0.0416351 0.427369 0)
(-0.0368622 0.39239 0)
(-0.0320472 0.385409 0)
(-0.0204945 0.383768 0)
(-0.00560125 0.372896 0)
(0.00188349 0.358398 0)
(0.00370956 0.352444 0)
(0.00412377 0.353106 0)
(0.00358008 0.356226 0)
(0.00181882 0.3613 0)
(0.0249347 0.510002 0)
(0.0243113 0.66383 0)
(-0.0742704 0.817972 0)
(-0.265728 0.898625 0)
(-0.374821 0.754697 0)
(-0.398922 0.677766 0)
(-0.3942 0.631094 0)
(-0.37491 0.599757 0)
(-0.343163 0.586388 0)
(-0.282368 0.642823 0)
(-0.243291 0.80679 0)
(-0.213031 0.599287 0)
(-0.221218 0.419303 0)
(-0.200585 0.367556 0)
(-0.170341 0.354409 0)
(-0.143747 0.353054 0)
(-0.126293 0.374249 0)
(-0.110455 0.425908 0)
(-0.0808113 0.44655 0)
(-0.0508922 0.428344 0)
(-0.0339665 0.418092 0)
(-0.0279557 0.39021 0)
(-0.0226175 0.37828 0)
(-0.0129127 0.371725 0)
(-0.00201948 0.362835 0)
(0.00469252 0.354498 0)
(0.00759262 0.351725 0)
(0.0078594 0.353572 0)
(0.00608217 0.358074 0)
(0.00260928 0.365046 0)
(0.0168038 0.457567 0)
(0.00865436 0.74824 0)
(-0.147515 1.00893 0)
(-0.338563 1.15574 0)
(-0.441494 0.814459 0)
(-0.477764 0.67598 0)
(-0.470183 0.612434 0)
(-0.44252 0.575192 0)
(-0.405035 0.551253 0)
(-0.354494 0.567842 0)
(-0.297981 0.708334 0)
(-0.206733 0.598361 0)
(-0.212946 0.406603 0)
(-0.197339 0.338448 0)
(-0.168599 0.326387 0)
(-0.140102 0.331108 0)
(-0.117411 0.358324 0)
(-0.094223 0.402516 0)
(-0.0671423 0.417511 0)
(-0.0474341 0.411929 0)
(-0.0343781 0.408506 0)
(-0.0246865 0.385978 0)
(-0.0156647 0.370855 0)
(-0.0049138 0.361445 0)
(0.00541365 0.354216 0)
(0.0124132 0.350077 0)
(0.0153913 0.350821 0)
(0.0145131 0.355362 0)
(0.0103274 0.36216 0)
(0.00388225 0.371052 0)
(-0.0438696 0.424445 0)
(-0.0462657 0.98668 0)
(-0.280338 1.17373 0)
(-0.329542 1.29266 0)
(-0.46365 0.985413 0)
(-0.514692 0.693125 0)
(-0.521451 0.586652 0)
(-0.49124 0.538541 0)
(-0.449649 0.514756 0)
(-0.397493 0.50501 0)
(-0.336189 0.596211 0)
(-0.225528 0.583787 0)
(-0.208908 0.395198 0)
(-0.192893 0.309425 0)
(-0.162624 0.297209 0)
(-0.131065 0.305523 0)
(-0.102399 0.335397 0)
(-0.0753089 0.377034 0)
(-0.0556924 0.400073 0)
(-0.0463984 0.404449 0)
(-0.0365324 0.396592 0)
(-0.0225892 0.376475 0)
(-0.00815795 0.359922 0)
(0.00605611 0.34983 0)
(0.0181878 0.344986 0)
(0.0260141 0.345294 0)
(0.0284405 0.350762 0)
(0.0252448 0.359685 0)
(0.01705 0.369996 0)
(0.00585219 0.380615 0)
(-0.0812531 0.508493 0)
(-0.14763 1.15974 0)
(-0.308421 1.20639 0)
(-0.301682 1.2982 0)
(-0.416432 1.128 0)
(-0.521613 0.759728 0)
(-0.535298 0.563005 0)
(-0.513903 0.4991 0)
(-0.47319 0.47283 0)
(-0.421853 0.451897 0)
(-0.365095 0.48849 0)
(-0.296596 0.556818 0)
(-0.202247 0.373908 0)
(-0.187358 0.277239 0)
(-0.154168 0.265559 0)
(-0.118465 0.275279 0)
(-0.0841266 0.306493 0)
(-0.0550371 0.35297 0)
(-0.0460887 0.393985 0)
(-0.0468138 0.401128 0)
(-0.0372965 0.382228 0)
(-0.0175254 0.359922 0)
(0.00371214 0.343399 0)
(0.0229985 0.334961 0)
(0.0381316 0.334165 0)
(0.0470089 0.340461 0)
(0.0482866 0.352544 0)
(0.0415098 0.368045 0)
(0.0270695 0.383757 0)
(0.00871091 0.395409 0)
(-0.0782155 0.592922 0)
(-0.158793 1.28592 0)
(-0.288054 1.23596 0)
(-0.277062 1.31621 0)
(-0.376074 1.2873 0)
(-0.516674 0.868081 0)
(-0.522093 0.552664 0)
(-0.510544 0.461658 0)
(-0.471461 0.427403 0)
(-0.424026 0.406218 0)
(-0.374943 0.413077 0)
(-0.317949 0.453431 0)
(-0.194443 0.330685 0)
(-0.176701 0.243206 0)
(-0.142986 0.23079 0)
(-0.102769 0.239541 0)
(-0.0624012 0.272058 0)
(-0.031982 0.330741 0)
(-0.039425 0.407028 0)
(-0.0514102 0.398584 0)
(-0.0344985 0.361417 0)
(-0.00549738 0.335461 0)
(0.0237321 0.320387 0)
(0.0488756 0.315769 0)
(0.0675176 0.321239 0)
(0.07736 0.335899 0)
(0.0767242 0.357278 0)
(0.064902 0.382267 0)
(0.0405924 0.407265 0)
(0.0120672 0.417328 0)
(-0.0668365 0.688094 0)
(-0.118638 1.41675 0)
(-0.240307 1.25792 0)
(-0.23633 1.33102 0)
(-0.349676 1.43302 0)
(-0.50096 0.954172 0)
(-0.48855 0.554789 0)
(-0.477895 0.426756 0)
(-0.444856 0.38488 0)
(-0.402393 0.362713 0)
(-0.357646 0.356483 0)
(-0.303409 0.354742 0)
(-0.2008 0.279485 0)
(-0.168142 0.209096 0)
(-0.131138 0.192034 0)
(-0.0849568 0.197391 0)
(-0.0385824 0.233189 0)
(-0.013413 0.314278 0)
(-0.0366508 0.446308 0)
(-0.05282 0.387027 0)
(-0.0209371 0.329299 0)
(0.0184903 0.301883 0)