/*--------------------------------*- C++ -*----------------------------------*\
| =========                 |                                                 |
| \\      /  F ield         | OpenFOAM: The Open Source CFD Toolbox           |
|  \\    /   O peration     | Version:  v1606+                                |
|   \\  /    A nd           | Web:      www.OpenFOAM.com                      |
|    \\/     M anipulation  |                                                 |
\*---------------------------------------------------------------------------*/
FoamFile
{
    version     2.0;
    format      ascii;
    class       volScalarField;
    location    "0.65";
    object      nut.air;
}
// * * * * * * * * * * * * * * * * * * * * * * * * * * * * * * * * * * * * * //

dimensions      [0 2 -1 0 0 0 0];

internalField   nonuniform List<scalar> 
6000
(
0.00052769
0.00477398
0.00773137
0.0084413
0.00866761
0.00876668
0.00882175
0.00885815
0.00888496
0.00890058
0.00891381
0.00892459
0.00893257
0.00893414
0.00893359
0.00893388
0.0089375
0.00893677
0.00892142
0.00890905
0.00889733
0.00888147
0.00885247
0.00881647
0.0087635
0.00866653
0.00844095
0.00773043
0.00477148
0.000527669
0.000434353
0.00312887
0.00593509
0.00759456
0.00841826
0.00887669
0.00915667
0.0093501
0.00948983
0.00958229
0.00965878
0.00972649
0.00974576
0.00973803
0.00973594
0.00973976
0.00974521
0.00975407
0.00971321
0.00963896
0.00956314
0.0094686
0.00932414
0.0091327
0.00885526
0.0084019
0.00758438
0.00593127
0.00312738
0.000434211
0.000374129
0.00259474
0.00510671
0.00690712
0.0080286
0.00869918
0.009131
0.00943034
0.00964411
0.00981733
0.009968
0.0100942
0.0101819
0.010238
0.0102687
0.0102588
0.0102154
0.0101502
0.0100495
0.00991984
0.00977132
0.00960385
0.00939119
0.00909535
0.00866717
0.00800028
0.00688281
0.00509236
0.00258985
0.000373954
0.000335965
0.00237978
0.00461795
0.0064287
0.00771109
0.008588
0.00918539
0.00962746
0.00996321
0.0102175
0.010433
0.0106205
0.0107974
0.0109263
0.0109767
0.0109571
0.0108659
0.0107116
0.0105448
0.0103586
0.0101465
0.00988849
0.009559
0.0091254
0.00853544
0.00766449
0.00638901
0.00459056
0.00236865
0.000335529
0.00030566
0.00233004
0.00453058
0.0063415
0.00769192
0.00865764
0.00935422
0.00988868
0.0103236
0.0107137
0.0110811
0.0114041
0.0116465
0.0117986
0.011862
0.0118341
0.0117196
0.0115283
0.0112555
0.0109241
0.0105741
0.0102053
0.00978574
0.0092638
0.00857976
0.00762117
0.00628069
0.00448533
0.00231043
0.000304624
0.000299091
0.00246218
0.00471533
0.00654006
0.00793489
0.00898692
0.00980388
0.0104437
0.0109767
0.0114482
0.0118684
0.0122532
0.012561
0.0127583
0.0128405
0.0128108
0.0126635
0.0124041
0.0120526
0.0116643
0.0112554
0.0108026
0.0102886
0.00966283
0.00886295
0.00783386
0.00645658
0.00465841
0.00243293
0.000297506
0.00030889
0.00268369
0.00513041
0.00704122
0.00848962
0.009643
0.0105989
0.0113747
0.0120116
0.0125218
0.0129483
0.0133462
0.013702
0.0139613
0.0140748
0.0140418
0.0138469
0.0135154
0.0131175
0.0127154
0.0122872
0.0117773
0.011147
0.0103861
0.00945131
0.00834484
0.00693354
0.00505266
0.00264193
0.000307183
0.000337562
0.00294846
0.00565304
0.00775875
0.00939265
0.0106796
0.0117242
0.0126047
0.0133726
0.013986
0.0144698
0.014873
0.0152451
0.0155075
0.0155909
0.0155838
0.01542
0.0150579
0.0146492
0.0142084
0.0136946
0.0130619
0.0123116
0.0114646
0.0104441
0.00917272
0.00757563
0.00551454
0.0028595
0.000333461
0.000336078
0.00280563
0.00572626
0.00812379
0.0100886
0.0117358
0.0131232
0.014261
0.0151493
0.0158471
0.0163871
0.0168274
0.0171896
0.0173159
0.0173022
0.0173521
0.017357
0.0170124
0.0165663
0.0160593
0.0154592
0.0147337
0.0138493
0.0127271
0.0113696
0.00974781
0.00783448
0.00550815
0.00269778
0.000330449
0.000327219
0.00280046
0.00569916
0.00824731
0.01044
0.0123925
0.014138
0.0156078
0.0167535
0.0176083
0.0182646
0.0187631
0.0191102
0.0191781
0.0190438
0.0191491
0.0191991
0.018873
0.0184015
0.0178026
0.0170575
0.0161625
0.0150155
0.0135632
0.0118722
0.00998831
0.00787488
0.00542337
0.00265918
0.000319494
0.000320792
0.00281893
0.00572975
0.00839865
0.0107394
0.0128312
0.0146928
0.0162959
0.0176098
0.018635
0.0194043
0.0199392
0.0202983
0.0204647
0.0203478
0.0203804
0.0202837
0.0199382
0.0194649
0.018809
0.01794
0.0168646
0.0155144
0.0139801
0.0122035
0.0102036
0.007961
0.00539883
0.0026347
0.000310136
0.00031073
0.0028192
0.00591455
0.00878306
0.0112668
0.0134502
0.0153239
0.0168481
0.0180797
0.0191377
0.0199529
0.0205041
0.0208725
0.0210714
0.0210247
0.0209744
0.0207984
0.0204263
0.019955
0.0192856
0.0183788
0.0172817
0.0160495
0.0145508
0.0127578
0.0106766
0.00830189
0.00554767
0.00260702
0.000297114
0.000304801
0.00290495
0.00627727
0.00933472
0.0119204
0.0141361
0.0159702
0.0174285
0.0185983
0.0195751
0.0203619
0.020919
0.021289
0.0214699
0.0214589
0.021374
0.021158
0.0207867
0.0203128
0.0196572
0.0187916
0.0177554
0.0166265
0.0152154
0.013446
0.0113234
0.00884697
0.00590925
0.00268866
0.000289865
0.000307551
0.00310603
0.0067712
0.00998447
0.0126342
0.01485
0.0166676
0.0181048
0.0191926
0.0200399
0.0207583
0.0213114
0.0216812
0.0218466
0.0218446
0.0217407
0.0215072
0.0211379
0.0206529
0.020026
0.0192546
0.0183764
0.0172897
0.0158923
0.014152
0.0120289
0.00948866
0.00640224
0.00290333
0.000292908
0.000318298
0.0034146
0.00731698
0.0106118
0.0132805
0.0154651
0.0172353
0.0186496
0.0197067
0.0204927
0.0211525
0.0217016
0.0220639
0.0222139
0.0222012
0.0220921
0.0218674
0.0214969
0.0209975
0.0204012
0.0197205
0.0189217
0.0178698
0.0165121
0.014823
0.0127354
0.0101855
0.00702934
0.00327576
0.000305734
0.000333156
0.00367776
0.00779512
0.0111564
0.0138148
0.0159695
0.0177094
0.0191108
0.020162
0.0209125
0.0215344
0.022082
0.0224282
0.0225432
0.0225126
0.0224067
0.0222036
0.0218459
0.0213449
0.0207761
0.0201655
0.0194
0.0183445
0.0169986
0.0153672
0.0133359
0.0107982
0.00761145
0.00368286
0.000325171
0.00035008
0.00396541
0.00824933
0.0116538
0.0143023
0.0164121
0.0180955
0.0194693
0.0205275
0.0212705
0.0218745
0.0224199
0.0227305
0.0228024
0.0227771
0.022672
0.0224786
0.0221452
0.0216615
0.0211167
0.0205486
0.019788
0.0186972
0.017352
0.0157638
0.0137757
0.0112551
0.00803585
0.00397799
0.000347585
0.000369706
0.00424734
0.00864203
0.0120734
0.0147132
0.0167847
0.0184147
0.0197292
0.0207915
0.0215411
0.0221361
0.0226695
0.0229398
0.0229946
0.0229949
0.0228976
0.022699
0.0223713
0.0218959
0.0213663
0.0208195
0.0200276
0.0188833
0.0175332
0.015977
0.0140281
0.0115257
0.00827417
0.00412683
0.000371194
0.000392381
0.0044672
0.0089567
0.0124162
0.0150419
0.0170697
0.0186467
0.0198993
0.0209316
0.0217035
0.0222886
0.0228058
0.023047
0.0231153
0.0231636
0.0230868
0.0228754
0.0225246
0.0220211
0.0214931
0.0209371
0.0200811
0.0188811
0.0175392
0.0160229
0.0141173
0.0116419
0.00837498
0.00418536
0.000390368
0.000416769
0.00462633
0.00921222
0.0127061
0.0152991
0.0172624
0.0187745
0.0199697
0.0209678
0.0217452
0.0223135
0.022805
0.0230421
0.0231664
0.0232913
0.0232469
0.0230192
0.0226156
0.0220397
0.0214964
0.0208741
0.0199099
0.0187319
0.0175234
0.0160276
0.0141191
0.011645
0.00837218
0.00418323
0.000399264
0.000443429
0.00472815
0.00937681
0.0129115
0.0154686
0.0173667
0.0187964
0.0199345
0.0208988
0.0216553
0.022196
0.0226658
0.022943
0.0231668
0.0233868
0.0233819
0.0231261
0.022639
0.0219813
0.0214176
0.020641
0.0196418
0.018713
0.0175962
0.0161096
0.0141683
0.0116389
0.00831227
0.00411565
0.000398374
0.000454526
0.00477159
0.00934142
0.0128338
0.015354
0.0172348
0.0186475
0.0197504
0.0206919
0.0214482
0.0219819
0.022464
0.022808
0.0231808
0.0234699
0.0234941
0.0231893
0.0226094
0.0219303
0.021252
0.0203748
0.0195678
0.0187788
0.0177246
0.0162773
0.0143345
0.0117585
0.00837187
0.00412611
0.00039489
0.000460762
0.00456088
0.00900876
0.0125211
0.0151415
0.017078
0.0185172
0.019559
0.0203927
0.0211731
0.0217761
0.0222485
0.0227621
0.023259
0.0235724
0.0235918
0.0232162
0.0225833
0.0219101
0.0211226
0.0203538
0.019715
0.0189674
0.017945
0.0165272
0.0145825
0.01196
0.00850541
0.00416299
0.000397883
0.00045036
0.00437113
0.00883005
0.0124119
0.0150919
0.0170863
0.0185431
0.0195632
0.0202681
0.0209247
0.0216152
0.0222713
0.0229299
0.0234187
0.0237199
0.0236962
0.0232731
0.0226937
0.0219999
0.021263
0.0206506
0.0200421
0.019289
0.0182766
0.0168742
0.014917
0.0122298
0.00868102
0.00423751
0.000405894
0.000427918
0.00423667
0.00878247
0.0124241
0.0151821
0.017233
0.0187223
0.019766
0.0204946
0.0210976
0.0217882
0.022548
0.0232258
0.0236571
0.0239352
0.0238836
0.0234776
0.0229321
0.0222588
0.0216545
0.0210832
0.0204742
0.0197181
0.0187098
0.0172947
0.0153118
0.012576
0.00890623
0.00432994
0.000417329
0.000430352
0.00423438
0.00884054
0.0125692
0.0154294
0.0175383
0.0190617
0.0201506
0.0209232
0.0215556
0.0221811
0.0229048
0.0235357
0.0239346
0.0241873
0.0240953
0.0237779
0.0232338
0.022641
0.0221037
0.0215712
0.0209705
0.0202089
0.0191546
0.0176606
0.0156558
0.0129192
0.00917977
0.00448693
0.000432413
0.000437226
0.00435817
0.00903878
0.0128823
0.0158224
0.0179859
0.0195332
0.0206556
0.0214827
0.0221296
0.0226913
0.0232576
0.0238502
0.024245
0.0244653
0.0243522
0.0240406
0.0235236
0.0230355
0.0225651
0.0220741
0.0214704
0.0206508
0.0194884
0.017885
0.0157767
0.0130482
0.00938376
0.00469966
0.000454667
0.000450317
0.00461047
0.00938129
0.013256
0.0162342
0.0184507
0.0201007
0.021281
0.0221367
0.0227803
0.0232807
0.0237277
0.0241765
0.0245176
0.0246907
0.0246366
0.0242679
0.0238038
0.0234028
0.0230144
0.02255
0.0218985
0.0209464
0.0196135
0.017926
0.0157644
0.0129986
0.00938218
0.00478177
0.000478062
0.000485746
0.0048268
0.00957059
0.0134141
0.0164065
0.0187113
0.0204992
0.0218617
0.0228857
0.0235525
0.0239258
0.0242321
0.0245119
0.0247168
0.0248506
0.0247801
0.0244076
0.0240627
0.0237565
0.0234305
0.0229557
0.0222048
0.0211731
0.019779
0.0179873
0.0156937
0.0127949
0.00909444
0.00459092
0.000486789
0.00050478
0.00467055
0.00932109
0.0132352
0.0163778
0.0188698
0.0208181
0.0223417
0.0234786
0.024192
0.0246071
0.0247359
0.0248148
0.0248837
0.02493
0.0248234
0.0245582
0.0242948
0.0240771
0.0237663
0.0232075
0.0224563
0.021448
0.0200585
0.0181822
0.0157142
0.0126004
0.00880966
0.00436735
0.000488974
0.000500391
0.00419544
0.00894614
0.0130429
0.0163496
0.0189602
0.0209762
0.0225357
0.0237136
0.0245376
0.0250116
0.0251347
0.0250952
0.0250231
0.0249864
0.0248619
0.0246531
0.0244663
0.0242839
0.0239031
0.0233731
0.0225694
0.0214494
0.0199832
0.0180768
0.0155924
0.0124246
0.00851659
0.00395639
0.000465669
0.000463012
0.00388974
0.00868658
0.0128404
0.0161538
0.0187279
0.0206999
0.0222129
0.0233787
0.0242761
0.024932
0.0252562
0.0251779
0.0250484
0.0249335
0.0247962
0.024627
0.0244936
0.0242715
0.0238551
0.0231733
0.0222487
0.021085
0.0196014
0.0177
0.015259
0.0121581
0.00833111
0.00391908
0.000439587
0.000442993
0.00408319
0.00868831
0.0126387
0.0158241
0.0183084
0.0202174
0.0216865
0.0228222
0.0236997
0.0243726
0.0248303
0.0249074
0.0248207
0.024666
0.0245436
0.0244472
0.0242835
0.0240067
0.0234515
0.0227117
0.0217932
0.020641
0.019181
0.0173266
0.0149708
0.012009
0.00836655
0.00408349
0.000435623
0.000445396
0.00434345
0.0087593
0.0125087
0.0155337
0.0179071
0.0197395
0.0211495
0.0222383
0.023077
0.0237125
0.0241604
0.0243251
0.0242568
0.0241925
0.0241385
0.0240391
0.0238723
0.0234949
0.0229298
0.0222202
0.021331
0.0202096
0.0187899
0.0169919
0.0147197
0.0118751
0.00837591
0.00421629
0.000437275
0.000452429
0.00450514
0.00875009
0.0123424
0.0152365
0.0175101
0.0192686
0.0206205
0.0216595
0.0224552
0.0230546
0.0234781
0.0236418
0.0235612
0.0235726
0.0235504
0.0234678
0.0233324
0.0229525
0.0224136
0.0217308
0.0208737
0.0197911
0.0184187
0.01668
0.0144837
0.0117335
0.00834679
0.00432394
0.000440798
0.00045912
0.00452571
0.00865799
0.0121421
0.0149354
0.0171233
0.0188113
0.0201043
0.0210924
0.0218453
0.0224116
0.0228151
0.0229701
0.0228645
0.0229094
0.0229147
0.0228579
0.0227761
0.0224269
0.021907
0.0212473
0.0204221
0.0193811
0.0180596
0.0163808
0.0142536
0.0115785
0.00826982
0.00432982
0.000444629
0.000461951
0.00448179
0.00852022
0.0119226
0.0146361
0.0167485
0.0183681
0.0196013
0.020538
0.0212491
0.0217852
0.0221725
0.0223337
0.0222061
0.0222662
0.0222964
0.0222779
0.0222376
0.0219051
0.0213991
0.0207619
0.0199694
0.0189722
0.0177045
0.0160873
0.0140254
0.0114147
0.00816822
0.004302
0.000446674
0.000462608
0.00441944
0.0083756
0.0117031
0.0143443
0.016385
0.0179362
0.019108
0.0199929
0.0206639
0.0211724
0.0215436
0.021717
0.021582
0.0216411
0.0216851
0.0217539
0.0217084
0.0213757
0.0208826
0.0202678
0.0195084
0.0185571
0.0173468
0.0157946
0.0137992
0.0112512
0.00806231
0.0042515
0.000446681
0.00046309
0.00436133
0.00824826
0.0114974
0.014064
0.0160306
0.017511
0.0186196
0.019453
0.0200874
0.0205711
0.0209267
0.0211182
0.0210312
0.0210221
0.0210995
0.021239
0.0211667
0.0208319
0.020353
0.0197606
0.0190346
0.0181306
0.0169813
0.0154992
0.0135762
0.0110968
0.00797098
0.00420917
0.000446178
0.00046454
0.0043246
0.00814896
0.0113104
0.0137952
0.0156813
0.0170868
0.0181303
0.0189149
0.0195178
0.019982
0.0203265
0.0205355
0.0205366
0.0204496
0.0205645
0.0206959
0.0206026
0.0202723
0.0198092
0.0192389
0.0185451
0.0176883
0.0166029
0.015197
0.0133557
0.0109558
0.00790342
0.00418658
0.000447091
0.000465667
0.00428664
0.00806333
0.0111345
0.0135308
0.0153286
0.0166548
0.0176328
0.0183735
0.018952
0.019404
0.0197447
0.0199645
0.020015
0.0199476
0.0200322
0.0201271
0.0200248
0.0197017
0.0192532
0.018703
0.0180382
0.0172261
0.0162057
0.014882
0.0131324
0.0108226
0.00785231
0.00417256
0.000448973
0.000465203
0.00424031
0.00797578
0.0109579
0.0132599
0.0149614
0.0162041
0.0171181
0.0178216
0.0183832
0.0188301
0.0191731
0.0194028
0.0194648
0.0194198
0.0194702
0.0195477
0.0194412
0.0191236
0.0186863
0.0181524
0.0175121
0.0167397
0.0157827
0.0145441
0.0128957
0.0106848
0.00779859
0.00414872
0.000449815
0.00046403
0.00418391
0.00787697
0.0107701
0.0129699
0.0145733
0.0157211
0.0165778
0.0172533
0.0178038
0.0182499
0.0185953
0.0188309
0.0188975
0.0188527
0.0188878
0.0189561
0.0188486
0.0185359
0.0181075
0.0175862
0.016965
0.0162255
0.0153245
0.0141751
0.0126337
0.0105317
0.00773261
0.00411549
0.000449647
0.0004622
0.00412258
0.007764
0.0105671
0.0126565
0.0141437
0.0152021
0.0160089
0.0166649
0.017209
0.0176544
0.0180008
0.0182368
0.0183045
0.0182624
0.0182879
0.0183473
0.0182418
0.0179353
0.0175151
0.0170033
0.0163964
0.0156818
0.0148275
0.0137601
0.0123365
0.0103545
0.00764967
0.00407643
0.000449332
0.000460189
0.00405605
0.00763476
0.0103412
0.012309
0.0136684
0.0146456
0.0154125
0.0160558
0.0165957
0.0170405
0.0173874
0.017621
0.0176886
0.0176455
0.0176632
0.0177206
0.0176203
0.0173207
0.0169077
0.0164029
0.0158067
0.0151093
0.0142904
0.0132933
0.0119898
0.0101453
0.0075459
0.00403407
0.000449135
0.000457769
0.00398204
0.00748572
0.0100846
0.0119131
0.013149
0.014054
0.0147915
0.0154273
0.0159651
0.0164076
0.0167545
0.0169843
0.0170522
0.0170085
0.0170211
0.0170781
0.0169831
0.0166908
0.0162843
0.0157856
0.0151969
0.0145116
0.0137172
0.0127751
0.0115776
0.00989337
0.00741389
0.00398457
0.000449168
0.000454682
0.00389554
0.0073109
0.00979228
0.0114614
0.0125886
0.0134335
0.0141495
0.0147805
0.015318
0.0157573
0.0161036
0.0163307
0.0164004
0.016356
0.0163631
0.0164202
0.0163315
0.0160471
0.0156459
0.0151525
0.0145693
0.0138929
0.0131149
0.012212
0.0110987
0.00957103
0.00724187
0.0039194
0.000449092
0.000450669
0.00379598
0.00710442
0.00945476
0.0109622
0.0119903
0.0127909
0.0134921
0.0141185
0.0146557
0.0150925
0.0154364
0.0156628
0.0157364
0.0156968
0.0156989
0.015754
0.0156695
0.0153923
0.0149952
0.0145057
0.0139267
0.0132565
0.0124902
0.0116134
0.0105599
0.00915807
0.00701916
0.00382966
0.000448598
0.000446328
0.0036879
0.00687005
0.00905663
0.0104223
0.011364
0.0121317
0.0128226
0.013444
0.0139804
0.0144156
0.0147576
0.0149861
0.0150659
0.0150359
0.015035
0.0150855
0.0150029
0.0147312
0.0143365
0.0138483
0.0132709
0.0126045
0.0118477
0.0109893
0.00997968
0.00867054
0.00672788
0.0036959
0.000447064
0.000441804
0.00356896
0.00661132
0.008606
0.00984596
0.0107195
0.0114621
0.012144
0.0127598
0.0132946
0.013731
0.0140732
0.0143085
0.0143987
0.0143812
0.0143804
0.0144228
0.0143392
0.0140695
0.0136743
0.0131835
0.0126034
0.011937
0.011188
0.0103464
0.00936995
0.00813314
0.00635276
0.00353062
0.000443575
0.000436816
0.0034363
0.00631043
0.00811563
0.00924029
0.0100623
0.0107853
0.0114573
0.0120678
0.0126022
0.0130438
0.0133908
0.0136379
0.0137443
0.0137478
0.0137489
0.0137736
0.0136807
0.0134109
0.0130132
0.0125146
0.0119253
0.0112525
0.0105079
0.00968457
0.00874128
0.00756994
0.00592501
0.00333934
0.000438346
0.000431159
0.0032811
0.00596085
0.00759722
0.00861658
0.009394
0.0100986
0.0107611
0.0113685
0.0119063
0.0123576
0.0127148
0.0129786
0.0131092
0.0131431
0.0131496
0.0131447
0.0130336
0.0127609
0.0123569
0.0118452
0.0112387
0.0105502
0.00980356
0.00899977
0.0080976
0.00699559
0.00548254
0.00313482
0.000431793
0.000423648
0.00311267
0.00558235
0.00705456
0.00798359
0.00871374
0.00939761
0.010052
0.0106618
0.0112098
0.0116773
0.0120521
0.0123363
0.0125004
0.0125684
0.0125825
0.0125475
0.012411
0.0121266
0.0117099
0.0111794
0.0105471
0.00983315
0.00907406
0.00828888
0.0074392
0.00641571
0.00503402
0.00292466
0.000423855
0.000415615
0.00292209
0.00517458
0.00648831
0.00734059
0.00802059
0.00867771
0.00932687
0.00994767
0.0105158
0.0110063
0.0114073
0.0117191
0.011922
0.0120262
0.0120496
0.0119871
0.0118185
0.0115152
0.0110774
0.0105218
0.00985602
0.00910866
0.00832495
0.00755374
0.00676693
0.00583667
0.00459124
0.00271746
0.000414802
0.000406834
0.00269459
0.00472902
0.0059058
0.00668907
0.00731121
0.00793674
0.00858609
0.00922882
0.00982841
0.0103491
0.0107838
0.0111324
0.0113746
0.0115138
0.0115461
0.0114629
0.0112598
0.0109283
0.0104657
0.00987955
0.00917416
0.00838845
0.00756937
0.00680342
0.00608456
0.00526442
0.004172
0.00250307
0.000405423
0.000396454
0.00244272
0.00427924
0.00532274
0.00603383
0.00658907
0.0071803
0.00783748
0.00851473
0.00915388
0.00971115
0.010185
0.0105764
0.010859
0.0110273
0.0110672
0.0109691
0.0107329
0.0103692
0.00987724
0.00926127
0.00851396
0.00768535
0.00682563
0.0060544
0.005397
0.00470073
0.00377181
0.0023128
0.000395332
0.000384467
0.00219928
0.00383578
0.00474975
0.00538197
0.00586582
0.00642585
0.00709778
0.00781339
0.00849258
0.0090999
0.00961635
0.0100555
0.0103702
0.0105589
0.0106039
0.0104967
0.0102372
0.00984293
0.00931665
0.00866942
0.00788414
0.00701031
0.00611773
0.00532821
0.00471428
0.00414277
0.00338198
0.00214921
0.000385074
0.000371249
0.00198342
0.00341263
0.00419171
0.00474199
0.00515737
0.00569207
0.0063792
0.00713466
0.00785865
0.008522
0.00908533
0.00956464
0.009902
0.0101007
0.010147
0.0100359
0.00976578
0.00935157
0.00879395
0.00811539
0.00729721
0.0063812
0.00546597
0.00465045
0.00405347
0.00358541
0.00297336
0.00197225
0.000374857
0.00035741
0.00179416
0.00301301
0.00365764
0.0041204
0.00447448
0.00498996
0.00569225
0.00648233
0.00726888
0.00798481
0.0085955
0.00909697
0.00944678
0.00964653
0.00969061
0.00957955
0.00931085
0.00889026
0.00831764
0.00761319
0.00676924
0.0058162
0.00488047
0.00404267
0.00343872
0.00302582
0.00251964
0.00171811
0.000363247
0.000343125
0.00161629
0.00263143
0.00315423
0.00352285
0.00383243
0.00433548
0.00505786
0.00587942
0.00673144
0.00749235
0.0081388
0.00864852
0.00899995
0.00919533
0.00923609
0.0091278
0.00886824
0.00845432
0.00788434
0.00716745
0.00631046
0.00533785
0.00435983
0.00351491
0.00288573
0.00248926
0.00204614
0.00140621
0.000348771
0.000328565
0.00143523
0.00225931
0.00267692
0.00295755
0.00323952
0.0037437
0.00448237
0.00535193
0.00625011
0.00704242
0.00770704
0.00821365
0.00855896
0.00874817
0.00878739
0.00868396
0.00843638
0.00803783
0.00748364
0.00677193
0.00591775
0.00494058
0.00392358
0.00306334
0.00240645
0.00200309
0.00160548
0.00109607
0.000330541
0.000312982
0.00123501
0.00188328
0.00222643
0.00243168
0.00270363
0.00323085
0.00397615
0.00490743
0.00582524
0.00662761
0.00729149
0.00778649
0.00812162
0.00830488
0.00834463
0.00824761
0.00801282
0.00763356
0.00710263
0.00641211
0.00557677
0.00461264
0.00358573
0.00266795
0.00200895
0.00159274
0.00123697
0.000834963
0.000309563
0.000296111
0.00101507
0.00150783
0.00179423
0.00195686
0.00223942
0.00278679
0.0035717
0.00452836
0.0054435
0.00623537
0.00688298
0.00736167
0.00768547
0.007864
0.00790584
0.00781637
0.00759475
0.0072355
0.00673067
0.0060733
0.00526839
0.00433475
0.00331974
0.00234227
0.00167499
0.00125833
0.000958095
0.000629637
0.00028645
0.000277422
0.000786385
0.00115272
0.00138767
0.00153046
0.00185648
0.00240721
0.00325636
0.00420317
0.00509431
0.00586425
0.00648605
0.00694841
0.00726261
0.00743815
0.00748275
0.00740065
0.00719109
0.00684976
0.00636987
0.00574647
0.0049806
0.00408826
0.00310596
0.002109
0.00137215
0.000972411
0.000736919
0.000487595
0.000261435
0.000256094
0.000594296
0.000841101
0.00102362
0.00118132
0.00152308
0.002122
0.00299397
0.00391631
0.0047774
0.00552052
0.00611659
0.00656444
0.00687066
0.00704366
0.00709008
0.00701341
0.00681324
0.00648634
0.00602771
0.00543382
0.00470686
0.00386064
0.00292088
0.00194782
0.00112682
0.000726555
0.000539722
0.000374703
0.000237913
0.000234533
0.00043421
0.000596932
0.000716163
0.00090757
0.0012462
0.00190397
0.00276622
0.00366239
0.00449258
0.00520424
0.00577881
0.00621301
0.00651185
0.00668217
0.00672948
0.00665666
0.00646372
0.00614841
0.00570746
0.00513898
0.00444603
0.00364112
0.00274883
0.0018119
0.00094812
0.000542962
0.000381688
0.000282982
0.000214195
0.000212925
0.000304811
0.000401508
0.000515139
0.00069158
0.00104456
0.00172332
0.00256967
0.00343646
0.00423201
0.00491626
0.00547106
0.00589293
0.00618526
0.00635323
0.00640119
0.00633147
0.00614432
0.00583843
0.00541211
0.00486517
0.00420188
0.00343457
0.00258559
0.00169512
0.00084009
0.000426357
0.000283179
0.000221695
0.000191594
0.000190826
0.000221235
0.000291299
0.000391814
0.000550208
0.000898017
0.00157136
0.00240117
0.00323188
0.00399633
0.00465541
0.00519262
0.00560387
0.00589093
0.00605733
0.00610623
0.00603938
0.00585713
0.00555896
0.00514451
0.00461555
0.00397848
0.00324834
0.00244456
0.00161856
0.000815466
0.000359082
0.000239845
0.000186419
0.000171083
0.000173175
0.000185585
0.000237934
0.000322731
0.000461806
0.000788785
0.00145546
0.0022515
0.00304976
0.00378492
0.00442129
0.00494309
0.0053454
0.00562841
0.00579411
0.00584447
0.00578068
0.00560303
0.00531139
0.00490629
0.00439139
0.00377589
0.00307882
0.00232338
0.00158891
0.000890189
0.000352355
0.000210654
0.000159629
0.000151489
0.000161913
0.000170038
0.000207976
0.000281127
0.000405128
0.000712431
0.0013652
0.00212354
0.00288938
0.00359711
0.00421313
0.00472155
0.00511636
0.0053963
0.00556197
0.00561433
0.00555405
0.00538082
0.00509455
0.00469695
0.00419236
0.00359306
0.00292155
0.00220563
0.00154513
0.000959751
0.000438522
0.000202216
0.000135694
0.000131732
0.00015195
0.000156047
0.000187088
0.000252497
0.00036516
0.000664609
0.00129011
0.0020149
0.00274945
0.00343204
0.00403065
0.00452885
0.00491866
0.00519731
0.00536402
0.00541887
0.00536192
0.00519235
0.00490982
0.00451604
0.00401813
0.00343066
0.00278012
0.00210914
0.00148875
0.0010048
0.000544487
0.000260857
0.000133328
0.000114071
0.000141975
0.000141759
0.000169708
0.000230023
0.000333434
0.000630535
0.00122884
0.00192298
0.00263037
0.00329362
0.00388041
0.00437227
0.00475934
0.00503794
0.00520642
0.00526439
0.0052113
0.0050459
0.00476613
0.00437229
0.00387417
0.00329264
0.00266139
0.00202719
0.00145171
0.000991383
0.000606189
0.000321102
0.000161571
0.00010514
0.000132841
0.000127113
0.00015155
0.000208031
0.000303107
0.000601213
0.00117927
0.0018503
0.00253977
0.00319274
0.00377414
0.0042619
0.00464467
0.00492072
0.00508925
0.00515063
0.00510374
0.00494761
0.00467557
0.00428254
0.00377837
0.00319217
0.00256886
0.00196229
0.00142945
0.00100287
0.000675399
0.000391038
0.000200911
0.000103822
0.000124003
0.000112415
0.000131211
0.000183948
0.000271368
0.000572024
0.00114452
0.00180856
0.00249488
0.00314587
0.00372018
0.00419465
0.0045608
0.00482285
0.00498447
0.0050471
0.00501191
0.00487628
0.00462809
0.00425485
0.00375468
0.00315611
0.00252016
0.00192147
0.00141449
0.00101986
0.000714446
0.000446033
0.000233743
0.000103518
0.000115243
9.99284e-05
0.000112959
0.000163248
0.000255065
0.000584013
0.00116148
0.00183262
0.00251981
0.00315589
0.00369675
0.00412973
0.00446031
0.00469727
0.00484631
0.00490849
0.00488469
0.00477108
0.00456092
0.00424328
0.00379648
0.00321951
0.00255709
0.00192717
0.00141898
0.00104011
0.000750533
0.000498387
0.000257221
0.000103604
0.00010678
9.00328e-05
0.000102056
0.000157264
0.000286861
0.000695779
0.00130318
0.00196925
0.00261479
0.00319031
0.00366807
0.00405265
0.00434969
0.00456408
0.00470132
0.00476307
0.00474431
0.00464182
0.00445685
0.00418705
0.00381832
0.00331706
0.00269219
0.00203378
0.00147021
0.00107398
0.000789475
0.000503785
0.000254357
0.00010448
9.93123e-05
8.09283e-05
0.000104869
0.000175805
0.000347495
0.000818148
0.00145825
0.00213407
0.00274233
0.00324251
0.00366362
0.00400749
0.00427542
0.00446931
0.00459499
0.00465254
0.00463774
0.00454346
0.00437115
0.00412627
0.00380272
0.00338525
0.00283474
0.00217916
0.00159969
0.00113622
0.000800613
0.000477202
0.000223758
0.000104327
9.30085e-05
7.63457e-05
0.000123883
0.000206293
0.000465533
0.0010478
0.00170103
0.00232275
0.0028834
0.00334242
0.00371035
0.00401081
0.00424846
0.00442451
0.00453828
0.00458706
0.00457364
0.00449045
0.00433494
0.00410854
0.00381369
0.00345883
0.00301246
0.0023972
0.00173328
0.00121928
0.000801394
0.000431615
0.000195929
0.000103403
8.7324e-05
8.717e-05
0.000155937
0.000346234
0.000876623
0.00156517
0.00216534
0.00267288
0.00308742
0.00346655
0.00379209
0.00405564
0.00426582
0.0044225
0.00452417
0.00456687
0.00455286
0.0044778
0.00434112
0.00413466
0.00386519
0.00354353
0.00315748
0.0026724
0.00200575
0.00134797
0.000827752
0.000410526
0.000181495
0.000101686
8.37904e-05
0.000111558
0.000316999
0.000886798
0.00160506
0.00217491
0.00264456
0.00302992
0.00335108
0.00362017
0.0039011
0.00412463
0.00430904
0.00444717
0.00453801
0.004578
0.00456663
0.0044991
0.00437324
0.0041871
0.00394176
0.00364152
0.00330163
0.00291256
0.00238766
0.00165076
0.000950904
0.000431015
0.000180961
9.965e-05
8.38394e-05
0.000232372
0.000870742
0.00158097
0.00214417
0.00261131
0.00299304
0.0033123
0.00357896
0.00382977
0.00402207
0.0042105
0.00436877
0.00449034
0.00457159
0.00461105
0.00460474
0.00454589
0.00442957
0.00426016
0.00403914
0.00377682
0.00347576
0.00313693
0.00271373
0.00209959
0.00128676
0.000555481
0.000210702
9.52208e-05
8.94721e-05
0.000623697
0.00143638
0.00206458
0.00256583
0.00295527
0.0032686
0.00353254
0.0037537
0.00396842
0.00415645
0.00430585
0.00443872
0.00454664
0.00462035
0.00465845
0.00465638
0.00460751
0.0045088
0.00435474
0.00414658
0.00390463
0.00363539
0.00334511
0.00297478
0.00250532
0.00180652
0.000947911
0.000299161
9.41331e-05
0.000106178
0.0009429
0.00180839
0.00242904
0.00287216
0.00320896
0.00348429
0.00370303
0.00389061
0.00407546
0.00424557
0.00439232
0.00451385
0.00461211
0.00467949
0.0047146
0.00471403
0.00467286
0.00458002
0.00443941
0.00425067
0.00402043
0.00375234
0.00347344
0.00317394
0.002809
0.00225663
0.00150966
0.000599731
9.80844e-05
0.000127481
0.00110282
0.00202718
0.00265047
0.00307265
0.0033805
0.00360819
0.0037993
0.00399359
0.00416413
0.00431579
0.0044695
0.00459241
0.00468441
0.00474599
0.00477693
0.00477583
0.00473886
0.00465899
0.00452866
0.00434983
0.00413464
0.00388426
0.00361857
0.00332015
0.003005
0.00260178
0.0019367
0.000991929
0.000112513
0.000140407
0.00114488
0.00209764
0.00273096
0.0031418
0.00342107
0.00365249
0.0038814
0.00408505
0.00424862
0.0043965
0.00454225
0.00466839
0.00475747
0.00481356
0.00484009
0.00483708
0.00480124
0.00472966
0.00462095
0.00445944
0.00424258
0.00401112
0.00375504
0.00348013
0.00317472
0.00284796
0.00225157
0.00124366
0.000135135
0.000146145
0.00108937
0.00201831
0.00265595
0.00309071
0.00342808
0.00371875
0.00397239
0.00417376
0.00433107
0.0044716
0.00461281
0.00473752
0.00482649
0.00487712
0.00489754
0.00489023
0.00485269
0.00478703
0.00469292
0.0045685
0.00439727
0.00419417
0.00397633
0.0037215
0.00338512
0.00300003
0.00241604
0.00141696
0.000158184
0.00014712
0.0010123
0.00189228
0.00255776
0.00306985
0.00347908
0.00381393
0.00407123
0.00426598
0.00442851
0.00456223
0.00468679
0.00479903
0.00488299
0.00493329
0.00494723
0.00492993
0.00488179
0.00480724
0.00471227
0.00460832
0.00448074
0.00431845
0.00410994
0.00386262
0.0035809
0.00315079
0.00253953
0.00149879
0.000178303
0.000143596
0.000915888
0.00179546
0.00252069
0.0030988
0.00357166
0.00392458
0.00416983
0.0043558
0.00451393
0.00464826
0.00476484
0.00486278
0.00493543
0.00497641
0.0049837
0.00495748
0.00489591
0.00480013
0.00468972
0.00457732
0.00446028
0.00433109
0.00414004
0.00390414
0.00365111
0.00322309
0.00257252
0.0015111
0.000189537
0.000136934
0.000841513
0.00177917
0.00255447
0.0031945
0.00368572
0.00402388
0.00425194
0.00442722
0.00457675
0.0047094
0.00483209
0.00494032
0.00501406
0.00505028
0.00504508
0.00499921
0.00491601
0.00479622
0.00464725
0.00450339
0.00438353
0.00425734
0.00410145
0.00387231
0.00359357
0.00317507
0.00253624
0.00146672
0.000190907
0.000136726
0.000875584
0.00185359
0.0026785
0.00331966
0.00378271
0.00408578
0.00429575
0.00446229
0.00461677
0.00475945
0.00489405
0.00501142
0.00509585
0.00513542
0.00512562
0.00506683
0.00496157
0.00481534
0.00463997
0.00444644
0.00428231
0.00417126
0.00403658
0.00381254
0.00348935
0.00306571
0.00240932
0.00137045
0.000187969
0.000140344
0.00103068
0.00203482
0.00283164
0.0034297
0.00384106
0.00409849
0.00428732
0.00446614
0.00464018
0.00480343
0.00495539
0.00508396
0.00517534
0.00521779
0.00520554
0.00513855
0.00501976
0.00485432
0.00465343
0.00443662
0.00422229
0.0040425
0.00387798
0.00365931
0.00329001
0.00283965
0.00221409
0.0012559
0.000181264
0.000154917
0.00117849
0.00217363
0.00292923
0.00347845
0.00381935
0.00404627
0.00424963
0.0044551
0.00465266
0.00483902
0.00501008
0.00515371
0.00525488
0.00530244
0.00529063
0.00521902
0.00509057
0.00491182
0.00469004
0.00444154
0.0041872
0.00395253