/*--------------------------------*- C++ -*----------------------------------*\
| =========                 |                                                 |
| \\      /  F ield         | OpenFOAM: The Open Source CFD Toolbox           |
|  \\    /   O peration     | Version:  v1606+                                |
|   \\  /    A nd           | Web:      www.OpenFOAM.com                      |
|    \\/     M anipulation  |                                                 |
\*---------------------------------------------------------------------------*/
FoamFile
{
    version     2.0;
    format      ascii;
    class       surfaceScalarField;
    location    "0.65";
    object      phi.particles;
}
// * * * * * * * * * * * * * * * * * * * * * * * * * * * * * * * * * * * * * //

dimensions      [0 3 -1 0 0 0 0];

internalField   nonuniform List<scalar> 
11770
(
-8.91925e-07
-2.19804e-05
2.10336e-07
-1.98798e-05
2.00001e-06
-1.98265e-05
3.63614e-06
-2.01393e-05
4.5607e-06
-2.11357e-05
4.52574e-06
-2.30418e-05
3.73146e-06
-2.44735e-05
2.7373e-06
-2.46095e-05
1.90828e-06
-2.41946e-05
1.48874e-06
-2.40342e-05
1.35649e-06
-2.46474e-05
8.11431e-07
-2.63231e-05
-2.65973e-08
-2.75114e-05
-2.88812e-07
-2.76023e-05
-5.15147e-08
-2.76447e-05
1.37823e-07
-2.77392e-05
-2.68298e-07
-2.78356e-05
-1.03606e-06
-2.72606e-05
-1.61892e-06
-2.60909e-05
-2.02763e-06
-2.45916e-05
-2.55987e-06
-2.40008e-05
-3.43399e-06
-2.41089e-05
-4.43263e-06
-2.448e-05
-5.16541e-06
-2.41468e-05
-5.08974e-06
-2.27144e-05
-4.03694e-06
-2.08115e-05
-2.28751e-06
-1.99113e-05
-3.93379e-07
-1.97505e-05
8.30529e-07
-1.9875e-05
-2.21325e-05
8.56135e-07
1.21812e-06
7.88523e-07
2.13023e-06
2.84395e-06
2.95774e-07
5.4859e-06
-7.22678e-07
7.45901e-06
-4.63309e-07
8.11772e-06
1.34349e-07
7.56983e-06
-1.98077e-08
6.27891e-06
-3.54107e-08
4.49496e-06
5.44901e-07
1.80096e-06
1.51303e-06
-1.18709e-06
1.30138e-06
-2.83987e-06
-8.06918e-07
-2.78595e-06
-3.14346e-06
-1.5602e-06
-4.12205e-06
2.10084e-07
-4.6545e-06
1.84183e-06
-4.53911e-06
2.71109e-06
-3.79173e-06
2.31138e-06
-2.5997e-06
1.84688e-07
-1.84504e-07
-2.91326e-06
1.48091e-06
-5.41984e-06
1.43148e-06
-7.12689e-06
5.23287e-07
-8.37455e-06
1.13135e-08
-8.83376e-06
1.17357e-07
-8.01402e-06
1.09366e-07
-5.90229e-06
-5.61687e-07
-3.20152e-06
-7.84337e-07
-1.12762e-06
3.14109e-07
-1.0555e-06
1.8985e-06
9.8848e-07
-1.36127e-06
7.91731e-06
2.40906e-08
4.22833e-06
2.72784e-06
1.10469e-06
5.25494e-06
1.79714e-07
7.50047e-06
1.15716e-06
8.7379e-06
3.30008e-06
8.73385e-06
4.55262e-06
7.57699e-06
4.64525e-06
5.12387e-06
4.25729e-06
1.31466e-06
3.66134e-06
-2.34453e-06
2.1041e-06
-4.03324e-06
-9.99864e-07
-3.71363e-06
-4.32752e-06
-1.99588e-06
-6.9659e-06
3.65532e-07
-8.01953e-06
2.48499e-06
-7.75901e-06
3.71304e-06
-6.14033e-06
3.47878e-06
-3.40542e-06
1.26323e-06
-1.40434e-08
-2.59881e-06
2.77548e-06
-6.24775e-06
3.98223e-06
-8.46997e-06
4.51435e-06
-9.48187e-06
4.85906e-06
-9.35246e-06
4.64807e-06
-7.99508e-06
3.19691e-06
-5.70195e-06
9.55516e-07
-3.14011e-06
-1.89326e-08
-3.10368e-07
8.45365e-07
1.27523e-06
3.70646e-06
7.60789e-06
-3.60371e-08
1.39237e-05
-1.2318e-07
9.89194e-06
1.05106e-06
6.05067e-06
2.38108e-06
4.97132e-06
4.32125e-06
5.90596e-06
6.16829e-06
8.36428e-06
6.81292e-06
1.08497e-05
6.2581e-06
1.20048e-05
4.57113e-06
1.16806e-05
1.18788e-06
1.07681e-05
-2.7136e-06
8.5522e-06
-5.0847e-06
4.56044e-06
-5.06117e-06
4.89128e-07
-2.80444e-06
-2.9709e-06
5.73877e-07
-5.03767e-06
3.5802e-06
-4.30824e-06
5.02234e-06
-1.62669e-06
4.32309e-06
1.68012e-06
1.52013e-06
5.75219e-06
-2.3731e-06
9.36517e-06
-5.47567e-06
1.12572e-05
-6.97856e-06
1.20242e-05
-7.42477e-06
1.22014e-05
-6.66992e-06
1.08062e-05
-4.77536e-06
8.24599e-06
-2.88698e-06
5.69821e-06
-1.58354e-06
4.71812e-06
-2.76074e-07
5.66324e-06
-7.83335e-08
9.22995e-06
1.35431e-05
-1.7988e-07
1.34821e-05
-1.15661e-06
1.01914e-05
-1.30857e-06
5.24887e-06
-1.09705e-06
4.06549e-06
-1.58691e-07
5.60612e-06
1.35353e-06
9.24462e-06
2.18642e-06
1.4056e-05
1.65359e-06
1.80297e-05
2.89786e-10
1.96519e-05
-2.90452e-06
1.95223e-05
-6.39082e-06
1.70616e-05
-8.34614e-06
1.19021e-05
-7.4911e-06
5.33363e-06
-4.03281e-06
-9.16976e-07
8.92715e-07
-4.84821e-06
5.29672e-06
-3.52571e-06
7.73571e-06
1.65686e-06
7.6953e-06
7.48021e-06
5.22424e-06
1.35829e-05
1.83198e-06
1.79826e-05
-7.56339e-07
1.98753e-05
-2.26739e-06
1.97191e-05
-2.68422e-06
1.78926e-05
-1.76148e-06
1.36916e-05
-3.04121e-07
8.96296e-06
5.41674e-07
5.21837e-06
7.29188e-07
3.59281e-06
6.85122e-07
4.60149e-06
2.14005e-08
9.24344e-06
1.30673e-05
-9.40298e-07
3.28852e-06
-1.83233e-06
-8.10693e-08
-2.82312e-06
-3.08382e-06
-3.51603e-06
-2.68861e-06
-3.53291e-06
2.45038e-07
-2.70766e-06
5.39278e-06
-1.96079e-06
1.28145e-05
-2.59044e-06
2.00176e-05
-4.71607e-06
2.50273e-05
-7.37786e-06
2.67897e-05
-9.62542e-06
2.49046e-05
-1.02564e-05
1.92981e-05
-8.58157e-06
1.04988e-05
-4.60798e-06
3.82339e-07
1.05405e-06
-5.51852e-06
6.23661e-06
-3.46268e-06
9.12724e-06
4.97829e-06
9.80317e-06
1.41005e-05
8.63094e-06
2.13634e-05
6.37089e-06
2.56064e-05
3.93677e-06
2.66981e-05
2.06159e-06
2.44473e-05
1.62807e-06
1.94075e-05
2.39532e-06
1.20205e-05
3.10787e-06
4.68197e-06
2.98313e-06
-6.82362e-07
2.27495e-06
-3.85366e-06
1.36031e-06
-4.58613e-06
6.54845e-07
-1.91188e-06
2.03241e-06
-5.43736e-07
-1.90814e-05
-4.65481e-07
-2.08037e-05
-1.75826e-06
-1.96922e-05
-3.22572e-06
-1.7398e-05
-4.12276e-06
-1.30539e-05
-4.08052e-06
-5.55049e-06
-3.91394e-06
5.56571e-06
-4.69907e-06
1.75662e-05
-6.55944e-06
2.63746e-05
-8.72168e-06
3.03111e-05
-1.01786e-05
2.97718e-05
-1.03132e-05
2.47979e-05
-8.38398e-06
1.41185e-05
-4.1763e-06
-3.05569e-07
1.18925e-06
-8.19889e-06
6.11703e-06
-5.01172e-06
8.82615e-06
7.05799e-06
9.43399e-06
1.95211e-05
9.02101e-06
2.68884e-05
7.74002e-06
2.99647e-05
5.87298e-06
2.96789e-05
4.2403e-06
2.50946e-05
3.60864e-06
1.59694e-05
3.756e-06
3.61794e-06
3.54561e-06
-7.48457e-06
2.40153e-06
-1.46668e-05
9.68517e-07
-1.9036e-05
-1.02326e-07
-2.16686e-05
1.10748e-07
-2.28494e-05
-2.07906e-05
1.39965e-06
-3.30587e-05
2.58545e-06
-3.36203e-05
2.89624e-06
-3.22931e-05
2.31293e-06
-3.08456e-05
7.67328e-07
-2.7879e-05
-1.25388e-06
-2.12438e-05
-3.14712e-06
-1.11929e-05
-4.85956e-06
4.1504e-06
-6.46689e-06
1.96305e-05
-7.54801e-06
2.75918e-05
-7.65566e-06
2.846e-05
-7.12189e-06
2.43388e-05
-5.91573e-06
1.31999e-05
-3.01743e-06
-4.10853e-06
1.00873e-06
-1.47474e-05
4.09664e-06
-9.81278e-06
5.32903e-06
5.20339e-06
5.86453e-06
1.89924e-05
6.62929e-06
2.55325e-05
6.76303e-06
2.76602e-05
5.76277e-06
2.54596e-05
4.14833e-06
1.62422e-05
2.31028e-06
8.58087e-07
2.37572e-07
-1.37672e-05
-1.74474e-06
-2.35234e-05
-3.08744e-06
-2.91895e-05
-3.42244e-06
-3.18516e-05
-2.87169e-06
-3.34187e-05
-1.55071e-06
-3.45685e-05
-3.39824e-05
2.6592e-06
-3.18424e-05
4.32777e-06
-3.27578e-05
5.58758e-06
-3.32917e-05
6.49782e-06
-3.31994e-05
6.46817e-06
-3.25363e-05
4.76819e-06
-3.08297e-05
2.3975e-06
-2.79177e-05
-2.08624e-07
-1.78745e-05
-2.48311e-06
-2.01467e-06
-3.35557e-06
9.20145e-06
-2.75675e-06
1.12459e-05
-2.13827e-06
7.88425e-06
-2.4734e-06
-6.18817e-07
-1.68949e-06
-1.52907e-05
3.5471e-07
-2.48338e-05
1.32554e-06
-2.12706e-05
4.16986e-07
-8.79903e-06
1.37256e-07
2.06318e-06
1.61385e-06
7.0071e-06
2.31888e-06
8.7673e-06
1.32723e-06
5.1479e-06
-9.55454e-07
-6.72787e-06
-3.39001e-06
-2.09338e-05
-5.4729e-06
-2.93949e-05
-6.73973e-06
-3.18334e-05
-6.44719e-06
-3.30084e-05
-5.48284e-06
-3.35998e-05
-4.21717e-06
-3.38299e-05
-2.64134e-06
-3.33393e-05
-3.23756e-05
2.4378e-06
-2.81705e-05
4.38669e-06
-2.90971e-05
6.0188e-06
-2.97918e-05
6.98296e-06
-2.98294e-05
7.04409e-06
-2.98284e-05
5.86443e-06
-3.09142e-05
5.08588e-06
-3.24565e-05
5.00884e-06
-2.97226e-05
4.82861e-06
-2.25663e-05
4.7819e-06
-1.52105e-05
4.7199e-06
-1.35596e-05
4.36617e-06
-1.54926e-05
2.09852e-06
-2.00579e-05
-7.34615e-08
-2.91075e-05
-1.51736e-06
-3.39655e-05
-3.75481e-06
-3.38758e-05
-5.51732e-06
-2.59528e-05
-6.14486e-06
-2.00917e-05
-5.96429e-06
-1.71239e-05
-5.82914e-06
-1.61686e-05
-5.72553e-06
-1.83032e-05
-5.49617e-06
-2.52044e-05
-5.03052e-06
-3.08994e-05
-5.70902e-06
-3.29957e-05
-6.93311e-06
-3.11335e-05
-6.98755e-06
-3.00129e-05
-6.08868e-06
-3.01026e-05
-4.44927e-06
-3.02615e-05
-2.50874e-06
-2.9738e-05
-2.88248e-05
2.65497e-06
-2.40249e-05
4.94778e-06
-2.5432e-05
6.24263e-06
-2.59269e-05
6.38207e-06
-2.60584e-05
5.47673e-06
-2.63498e-05
3.14966e-06
-2.76176e-05
1.0801e-06
-3.00842e-05
1.49464e-06
-2.94781e-05
3.75364e-06
-2.54981e-05
5.74096e-06
-2.31486e-05
5.32703e-06
-2.25147e-05
3.72883e-06
-2.34239e-05
3.01443e-06
-2.74168e-05
1.5908e-06
-3.49101e-05
-2.75067e-06
-3.82407e-05
-5.57875e-06
-3.77714e-05
-4.67772e-06
-3.11439e-05
-4.7453e-06
-2.72174e-05
-6.32604e-06
-2.4389e-05
-5.95871e-06
-2.41138e-05
-3.50181e-06
-2.44198e-05
-1.44315e-06
-2.67228e-05
-1.10228e-06
-3.02741e-05
-3.33402e-06
-3.05239e-05
-5.76944e-06
-2.77899e-05
-6.67775e-06
-2.64614e-05
-6.51101e-06
-2.62606e-05
-5.21714e-06
-2.63322e-05
-2.82423e-06
-2.60702e-05
-2.48054e-05
2.99224e-06
-2.019e-05
4.98843e-06
-2.15513e-05
5.87453e-06
-2.19846e-05
5.52628e-06
-2.22507e-05
4.24224e-06
-2.28793e-05
1.32582e-06
-2.42591e-05
-2.10563e-06
-2.67882e-05
-3.07917e-06
-2.67468e-05
-1.04141e-06
-2.19166e-05
1.57143e-06
-1.9479e-05
1.19284e-06
-1.89285e-05
-4.11224e-07
-2.01474e-05
3.60851e-07
-2.63863e-05
8.88384e-07
-3.40196e-05
-2.34616e-06
-3.73628e-05
-4.18028e-06
-3.54734e-05
-1.79667e-06
-2.94021e-05
-6.76584e-07
-2.48834e-05
-2.1645e-06
-2.0712e-05
-1.9448e-06
-2.06362e-05
1.24758e-06
-2.07318e-05
3.17706e-06
-2.36066e-05
1.8398e-06
-2.78362e-05
-1.58032e-06
-2.71685e-05
-4.43063e-06
-2.426e-05
-5.71321e-06
-2.27536e-05
-6.05493e-06
-2.22897e-05
-5.15133e-06
-2.23235e-05
-3.1414e-06
-2.21871e-05
-2.10098e-05
2.82893e-06
-1.64682e-05
4.37852e-06
-1.74712e-05
4.63605e-06
-1.76829e-05
3.46107e-06
-1.79664e-05
1.10289e-06
-1.89908e-05
-1.72141e-06
-2.10975e-05
-4.48675e-06
-2.34252e-05
-6.41932e-06
-2.32251e-05
-4.35893e-06
-1.84297e-05
-1.36262e-06
-1.47192e-05
-2.3853e-06
-1.42493e-05
-3.33437e-06
-1.58752e-05
-2.06302e-06
-2.43804e-05
-1.55507e-06
-3.20327e-05
-2.94542e-06
-3.49241e-05
-2.7662e-06
-3.3202e-05
5.39615e-07
-2.76663e-05
2.45365e-06
-2.16689e-05
1.19249e-06
-1.61336e-05
9.31428e-07
-1.62942e-05
4.23008e-06
-1.65685e-05
6.17668e-06
-2.068e-05
4.33617e-06
-2.4361e-05
1.44737e-06
-2.3552e-05
-1.61961e-06
-2.0333e-05
-4.03482e-06
-1.81883e-05
-5.13493e-06
-1.76614e-05
-4.784e-06
-1.79172e-05
-3.08053e-06
-1.81264e-05
-1.73624e-05
2.51397e-06
-1.26452e-05
3.54846e-06
-1.31044e-05
3.21024e-06
-1.27401e-05
1.36906e-06
-1.25403e-05
-1.60302e-06
-1.34892e-05
-4.82103e-06
-1.63296e-05
-7.14359e-06
-1.9422e-05
-8.21448e-06
-1.94272e-05
-7.00734e-06
-1.45381e-05
-4.80744e-06
-9.76371e-06
-5.14118e-06
-9.24179e-06
-5.32819e-06
-1.1902e-05
-3.58059e-06
-2.23397e-05
-2.4708e-06
-3.01476e-05
-2.55961e-06
-3.28285e-05
-1.69242e-06
-3.18369e-05
2.1822e-06
-2.70406e-05
4.87022e-06
-1.9236e-05
3.95237e-06
-1.19734e-05
4.45111e-06
-1.13374e-05
7.18629e-06
-1.21176e-05
8.31347e-06
-1.6996e-05
7.20108e-06
-2.02489e-05
4.21387e-06
-1.87253e-05
4.26305e-07
-1.48441e-05
-2.36952e-06
-1.29146e-05
-3.89504e-06
-1.26598e-05
-4.06364e-06
-1.31901e-05
-2.82229e-06
-1.39059e-05
-1.36968e-05
2.41848e-06
-9.01336e-06
3.13892e-06
-9.06834e-06
2.37357e-06
-8.22158e-06
-2.41265e-07
-7.48256e-06
-4.12651e-06
-7.66919e-06
-7.57832e-06
-9.87219e-06
-9.31606e-06
-1.3598e-05
-1.00649e-05
-1.46959e-05
-9.75192e-06
-1.05584e-05
-7.86266e-06
-5.02083e-06
-6.50356e-06
-4.33552e-06
-5.62074e-06
-9.16221e-06
-3.53886e-06
-2.1191e-05
-1.67512e-06
-2.81263e-05
-1.96025e-06
-2.9818e-05
-1.46446e-06
-2.93398e-05
2.83289e-06
-2.64997e-05
5.84235e-06
-1.79855e-05
5.85528e-06
-8.72581e-06
7.45926e-06
-6.35478e-06
9.8602e-06
-7.55532e-06
1.04989e-05
-1.25348e-05
9.58774e-06
-1.50721e-05
6.35158e-06
-1.27569e-05
2.21816e-06
-9.19035e-06
-2.03373e-07
-7.9719e-06
-1.57494e-06
-7.89485e-06
-2.31667e-06
-8.38336e-06
-2.06911e-06
-9.14888e-06
-9.73444e-06
1.9863e-06
-5.88943e-06
2.63671e-06
-5.35183e-06
2.43203e-06
-4.34771e-06
1.49115e-06
-3.54529e-06
-1.03874e-06
-2.91493e-06
-6.95416e-06
-3.2518e-06
-1.15332e-05
-6.50516e-06
-1.13375e-05
-8.51218e-06
-1.03463e-05
-5.08176e-06
-9.64319e-06
-4.67609e-07
-8.90352e-06
-1.84669e-07
-6.73904e-06
-6.3196e-06
-2.63732e-06
-1.9049e-05
-1.56791e-07
-2.55054e-05
-1.90614e-06
-2.64132e-05
-2.21471e-06
-2.5909e-05
2.60158e-06
-2.43153e-05
7.39588e-06
-1.53629e-05
9.03895e-06
-5.31376e-06
9.39369e-06
-1.78476e-06
1.10585e-05
-2.34544e-06
1.22885e-05
-6.99874e-06
1.02405e-05
-8.98943e-06
6.91472e-06
-6.50741e-06
4.95065e-06
-3.88417e-06
3.96322e-06
-3.49723e-06
3.22236e-06
-4.0546e-06
2.45307e-06
-4.68226e-06
1.37824e-06
-5.03303e-06
-4.9444e-06
7.76147e-07
-2.89862e-06
4.891e-07
-1.93598e-06
-4.31247e-08
-1.01233e-06
-3.69025e-07
-6.89496e-08
-1.01377e-06
1.30005e-06
-3.13866e-06
2.36503e-06
-9.20422e-06
9.38066e-07
-1.32516e-05
-1.58093e-06
-1.17912e-05
8.65392e-07
-1.06645e-05
5.75656e-06
-9.66044e-06
4.90289e-06
-5.55797e-06
-2.76767e-06
-1.08088e-06
-1.57188e-05
-2.90385e-07
-2.21378e-05
-2.4137e-06
-2.28933e-05
-3.43314e-06
-2.23227e-05
-3.71885e-07
-2.02891e-05
5.29519e-06
-1.15101e-05
8.82342e-06
-4.61484e-07
1.03295e-05
4.54157e-06
1.2824e-05
3.89052e-06
1.32649e-05
-1.49569e-06
1.06355e-05
-2.4709e-06
7.92717e-06
5.38614e-07
6.50597e-06
1.55775e-06
5.60778e-06
2.80944e-07
4.74132e-06
-1.36456e-06
3.75031e-06
-2.26563e-06
2.37619e-06
-2.32335e-06
-1.47003e-06
-6.37236e-07
-6.74916e-07
-1.60815e-06
2.05703e-07
-2.26088e-06
9.74008e-07
-2.63775e-06
2.15456e-06
-2.97055e-06
4.43861e-06
-3.57541e-06
7.23875e-06
-6.6826e-06
8.39327e-06
-1.29162e-05
6.43756e-06
-1.3662e-05
6.03063e-06
-9.50321e-06
1.16394e-05
-7.1525e-06
1.18422e-05
-3.17376e-06
1.44437e-06
3.55391e-07
-1.22071e-05
5.29035e-07
-1.84676e-05
-1.63647e-06
-1.89376e-05
-3.33054e-06
-1.81124e-05
-2.02999e-06
-1.57893e-05
2.09932e-06
-8.08706e-06
6.99071e-06
4.98276e-06
1.06145e-05
1.20842e-05
1.34104e-05
9.12929e-06
1.38553e-05
3.45237e-06
1.25716e-05
3.87864e-06
1.16288e-05
3.88599e-06
1.07541e-05
4.49424e-06
9.36514e-06
2.83902e-06
7.25934e-06
9.47438e-07
4.34813e-06
-3.51484e-08
1.52195e-06
-8.86643e-08
1.09041e-07
-1.20599e-06
6.92983e-07
-2.78668e-06
1.8885e-06
-4.41595e-06
2.56965e-06
-5.76985e-06
3.6364e-06
-6.5894e-06
6.57216e-06
-7.19445e-06
1.1028e-05
-8.01809e-06
1.48908e-05
-1.1172e-05
1.4893e-05
-1.3378e-05
1.27152e-05
-9.68177e-06
1.57747e-05
-3.80327e-06
1.86167e-05
-2.74972e-08
7.9469e-06
1.20339e-06
-7.73213e-06
1.21375e-06
-1.46479e-05
-8.66456e-07
-1.48218e-05
-2.95636e-06
-1.35952e-05
-3.12754e-06
-1.07713e-05
-1.58478e-06
-3.17438e-06
3.43875e-06
1.1518e-05
1.00105e-05
1.82673e-05
1.51967e-05
1.15172e-05
1.91379e-05
6.37781e-06
1.86206e-05
3.62265e-06
1.59307e-05
2.442e-06
1.5276e-05
4.25587e-06
1.344e-05
3.9838e-06
9.90002e-06
2.80091e-06
5.53708e-06
2.14313e-06
1.90203e-06
2.4973e-06
1.57953e-06
-1.3182e-06
1.92533e-06
-3.75585e-06
3.84638e-06
-7.20737e-06
4.7091e-06
-1.13031e-05
5.9183e-06
-1.46639e-05
8.90703e-06
-1.62169e-05
1.278e-05
-1.61302e-05
1.80213e-05
-1.58422e-05
1.96104e-05
-1.56903e-05
1.89668e-05
-9.97284e-06
1.882e-05
-1.62732e-06
2.39901e-05
1.70665e-06
1.52396e-05
1.76278e-06
-3.18223e-06
1.86777e-06
-1.13965e-05
1.62716e-07
-1.06019e-05
-2.34301e-06
-8.69448e-06
-3.86079e-06
-5.11015e-06
-3.86415e-06
3.12632e-06
1.6906e-06
1.85983e-05
9.98606e-06
2.17641e-05
1.97727e-05
1.03865e-05
1.79615e-05
4.63792e-06
8.52824e-06
1.95009e-06
7.33685e-06
2.85648e-06
6.62642e-06
3.61451e-06
5.46839e-06
3.58137e-06
4.8044e-06
2.88157e-06
4.61857e-06
2.31364e-06
3.16029e-06
2.63425e-06
1.97644e-06
-1.79178e-06
3.7195e-06
-4.05628e-06
5.92885e-06
-1.0662e-05
1.00066e-05
-2.06009e-05
1.72442e-05
-2.79584e-05
1.92228e-05
-3.10752e-05
2.02995e-05
-3.11688e-05
2.15328e-05
-2.69626e-05
2.09134e-05
-2.06936e-05
1.92213e-05
-1.21516e-05
2.01661e-05
-2.67334e-06
2.72405e-05
1.44462e-06
2.10979e-05
1.28885e-06
-3.17179e-07
2.00463e-06
-1.0599e-05
1.15086e-06
-7.05255e-06
-1.66917e-06
-3.20923e-06
-4.21665e-06
1.12293e-06
-3.81428e-06
9.89924e-06
2.26292e-06
2.35175e-05
1.49705e-05
2.12356e-05
1.55869e-05
8.07289e-06
5.57008e-06
4.39438e-06
3.83477e-06
4.49054e-06
3.94685e-06
4.12332e-06
3.70074e-06
3.7401e-06
3.01676e-06
3.12333e-06
2.29855e-06
2.21255e-06
1.8681e-06
1.30433e-06
1.19746e-06
9.10717e-07
7.96052e-07
-3.73505e-06
5.28385e-06
-7.09661e-06
1.26034e-05
-9.68993e-06
1.77452e-05
-1.18942e-05
2.5772e-05
-1.92019e-05
2.66794e-05
-2.81934e-05
2.6613e-05
-3.58726e-05
2.42372e-05
-3.85395e-05
2.10002e-05
-3.0268e-05
1.69456e-05
-1.646e-05
1.77702e-05
-6.0811e-06
2.6767e-05
-1.2246e-06
2.31393e-05
-1.09827e-06
-2.38279e-06
6.66961e-07
-1.13294e-05
1.67354e-06
-5.47447e-06
-1.46836e-06
2.97713e-06
-4.50842e-06
8.09158e-06
-2.36664e-06
1.57586e-05
7.89871e-06
2.39111e-05
1.33056e-05
1.36057e-05
8.52392e-06
7.03063e-06
4.24753e-06
6.32299e-06
3.75837e-06
6.04966e-06
3.36559e-06
5.46598e-06
3.04783e-06
4.80986e-06
2.69193e-06
4.13877e-06
2.2671e-06
3.26956e-06
1.87418e-06
2.11682e-06
1.10013e-06
9.73587e-07
-7.07706e-08
2.60324e-06
8.95792e-06
4.72681e-07
1.74522e-05
-5.48711e-06
1.95668e-05
-1.03026e-05
2.35745e-05
-1.47637e-05
2.5564e-05
-1.8891e-05
2.55158e-05
-2.20297e-05
2.34744e-05
-2.7758e-05
2.01268e-05
-3.40515e-05
1.7297e-05
-2.56088e-05
1.42043e-05
-1.12639e-05
1.93779e-05
-5.3466e-06
1.81159e-05
-3.47911e-06
-8.71581e-06
-1.46145e-06
-1.1696e-05
-4.82774e-08
-5.36119e-06
-2.20516e-06
7.85994e-06
-4.28222e-06
1.38601e-05
5.45043e-07
1.68825e-05
8.13592e-06
1.56108e-05
8.99335e-06
6.77562e-06
6.37319e-06
6.46512e-06
5.79686e-06
7.267e-06
5.05254e-06
7.30721e-06
4.16474e-06
6.92708e-06
3.33893e-06
6.22783e-06
2.5603e-06
5.58574e-06
1.80419e-06
4.83362e-06
1.17531e-06
3.70046e-06
7.00254e-07
2.25142e-06
4.60754e-07
4.67175e-07
1.06145e-05
-4.08678e-06
1.50604e-05
-7.42059e-06
1.96761e-05
-1.00927e-05
2.38627e-05
-1.33984e-05
2.6015e-05
-1.62277e-05
2.62481e-05
-1.83632e-05
2.44495e-05
-1.98134e-05
2.11726e-05
-2.49329e-05
1.73764e-05
-2.8395e-05
1.32642e-05
-2.02729e-05
1.07412e-05
-1.0163e-05
6.36969e-06
-7.78504e-06
-1.39341e-05
-6.04064e-06
-1.22609e-05
-3.74104e-06
-5.82085e-06
-3.16588e-06
8.77497e-06
-2.20686e-06
1.35764e-05
4.79348e-06
1.08464e-05
9.53972e-06
6.60577e-06
8.28423e-06
5.59269e-06
8.15973e-06
7.16704e-06
7.75571e-06
8.14228e-06
6.90058e-06
8.4948e-06
5.63608e-06
8.31871e-06
4.00188e-06
7.75625e-06
2.19085e-06
7.20243e-06
1.21793e-06
6.49296e-06
5.61181e-07
5.18071e-06
1.24282e-07
3.33536e-06
1.14875e-06
-1.24497e-06
6.30371e-06
-3.86726e-06
1.44048e-05
-7.05214e-06
1.97231e-05
-9.9283e-06
2.39956e-05
-1.26399e-05
2.64739e-05
-1.50996e-05
2.70882e-05
-1.72576e-05
2.55488e-05
-1.90783e-05
2.23526e-05
-2.07739e-05
1.82964e-05
-2.40267e-05
1.31108e-05
-2.39124e-05
7.70289e-06
-1.79953e-05
-9.98826e-09
-1.36695e-05
-1.62072e-05
-1.16836e-05
-1.38439e-05
-7.98193e-06
-8.46799e-06
-3.24214e-06
4.13187e-06
4.48389e-06
4.00688e-06
1.0201e-05
4.03927e-06
9.42056e-06
3.37152e-06
9.8773e-06
5.40709e-06
9.81909e-06
7.35361e-06
9.71041e-06
8.81382e-06
9.36021e-06
9.60628e-06
8.40263e-06
9.74847e-06
4.86481e-06
9.4359e-06
8.29483e-07
9.11952e-06
7.57123e-09
8.0347e-06
-2.91783e-07
6.57139e-06
-2.42433e-07
4.58479e-06
1.67566e-06
-1.7543e-06
5.25297e-06
-4.69203e-06
1.33889e-05
-7.30268e-06
1.98127e-05
-9.73869e-06
2.46812e-05
-1.18346e-05
2.80334e-05
-1.4119e-05
2.88026e-05
-1.62392e-05
2.69906e-05
-1.80014e-05
2.33807e-05
-1.97835e-05
1.84129e-05
-2.08977e-05
1.30374e-05
-2.30617e-05
6.45476e-06
-2.17786e-05
-9.68945e-08
-1.85422e-05
-1.53762e-05
-1.63315e-05
-1.61016e-05
-1.05807e-05
-1.43285e-05
6.69525e-07
-1.0864e-05
8.42103e-06
-5.46694e-06
9.75589e-06
-3.22341e-07
1.04555e-05
1.47191e-06
1.07582e-05
4.94519e-06
1.10935e-05
7.60913e-06
1.15078e-05
9.66997e-06
1.17453e-05
1.09564e-05
1.12023e-05
1.25799e-05
7.21963e-06
1.76501e-05
1.78176e-06
2.08632e-05
-5.33186e-07
1.2948e-05
-9.40774e-07
8.12707e-06
-6.13833e-07
5.82795e-06
2.40271e-06
-3.08104e-06
5.13566e-06
-5.84429e-06
1.32409e-05
-7.77676e-06
2.04434e-05
-9.0838e-06
2.62374e-05
-1.13067e-05
2.99812e-05
-1.35972e-05
3.14788e-05
-1.54583e-05
2.88196e-05
-1.67684e-05
2.43223e-05
-1.7643e-05
1.87737e-05
-1.88957e-05
1.2217e-05
-2.01348e-05
5.32556e-06
-2.24493e-05
-2.73381e-06
-2.10861e-05
-1.27804e-05
-1.73582e-05
-1.80943e-05
-8.60931e-06
-2.05634e-05
4.01356e-06
-2.47256e-05
9.43381e-06
-9.1504e-06
9.47448e-06
-4.67832e-06
1.03239e-05
3.84117e-07
1.06406e-05
4.46934e-06
1.16384e-05
8.25026e-06
1.27194e-05
1.09472e-05
1.49092e-05
1.43247e-05
1.72716e-05
2.10216e-05
1.65992e-05
3.00308e-05
8.83266e-06
3.61105e-05
8.71866e-07
2.71901e-05
-6.00647e-07
1.42859e-05
-1.04387e-07
7.9101e-06
3.8015e-06
-5.05563e-06
5.90009e-06
-7.8042e-06
1.45405e-05
-8.8455e-06
2.19431e-05
-1.06937e-05
3.06749e-05
-1.23801e-05
3.93364e-05
-1.33131e-05
4.0899e-05
-1.35523e-05
3.61238e-05
-1.43552e-05
2.75647e-05
-1.49724e-05
1.91409e-05
-1.56281e-05
1.18876e-05
-1.70846e-05
3.62764e-06
-1.8368e-05
-4.27399e-06
-1.88678e-05
-1.26916e-05
-1.58313e-05
-1.94221e-05
-8.16059e-06
-2.44632e-05
3.04262e-06
-2.66145e-05
7.00723e-06
-1.34379e-05
8.19279e-06
-7.73898e-06
8.47409e-06
-1.00737e-06
9.58028e-06
4.6743e-06
1.08627e-05
9.19069e-06
1.32967e-05
1.38725e-05
1.51537e-05
1.78299e-05
1.51108e-05
2.2962e-05
1.66175e-05
3.08737e-05
1.67975e-05
3.91211e-05
1.19184e-05
3.46154e-05
6.5577e-06
2.02833e-05
4.1891e-06
9.09439e-06
4.6842e-06
-8.26541e-06
9.11665e-06
-1.30556e-05
1.26263e-05
-1.62231e-05
2.05778e-05
-1.69792e-05
3.15248e-05
-1.46041e-05
4.14075e-05
-1.12496e-05
3.92356e-05
-9.4875e-06
3.17864e-05
-9.6093e-06
1.81123e-05
-1.0568e-05
9.55635e-06
-1.2275e-05
1.14608e-05
-1.31517e-05
2.51599e-06
-1.46798e-05
-6.0298e-06
-1.53731e-05
-1.38272e-05
-1.45196e-05
-2.12211e-05
-6.16665e-06
-2.74305e-05
3.32476e-06
-2.68564e-05
4.50325e-06
-1.803e-05
5.10716e-06
-9.39085e-06
5.62726e-06
-1.95588e-06
7.0659e-06
5.13849e-06
9.37235e-06
1.17765e-05
1.25947e-05
4.66693e-06
1.20143e-05
-2.68392e-06
9.21653e-06
-4.9889e-06
1.10093e-05
1.96558e-06
1.54205e-05
1.43262e-05
2.00025e-05
1.04383e-05
1.84967e-05
-6.87066e-06
1.20091e-05
-3.17284e-05
-3.07512e-05
-1.67606e-05
-3.205e-05
-1.88597e-05
-3.48075e-05
-1.91895e-05
-1.62916e-05
-1.5051e-05
-3.27101e-06
-9.42145e-06
5.22748e-06
-4.50785e-06
-2.01753e-06
-3.46702e-06
-1.13991e-05
-6.42642e-06
-2.55155e-05
-7.68605e-06
-3.23922e-05
-7.46493e-06
-2.47772e-05
-9.79434e-06
-7.30093e-06
-1.10008e-05
-7.55913e-06
-1.25092e-05
-1.61756e-05
-1.2414e-05
-2.35443e-05
-7.10267e-06
-3.00229e-05
-1.86568e-06
-2.90204e-05
-1.96867e-07
-2.03171e-05
4.32137e-08
-1.12676e-05
1.63547e-06
-1.78346e-06
3.761e-06
4.54403e-06
9.27897e-06
-1.70838e-05
8.60121e-06
-3.89316e-05
1.90073e-06
-4.77274e-05
-1.56244e-06
-4.96261e-05
6.89729e-07
-4.57857e-05
5.35236e-06
-3.74484e-05
6.75831e-06
-4.22771e-05
1.1921e-06
-5.77183e-05
-3.40327e-06
-7.7949e-05
-7.41507e-05
2.16636e-06
-7.80507e-05
7.47402e-07
-8.04263e-05
-2.88915e-06
-6.34959e-05
-2.98477e-06
-5.30855e-05
-4.34413e-07
-4.6893e-05
2.45542e-06
-5.15001e-05
4.16263e-06
-5.71208e-05
5.49935e-06
-6.51684e-05
4.1844e-06
-7.13871e-05
-2.78278e-06
-7.16121e-05
-7.11444e-06
-4.94041e-05
-8.67698e-06
-3.4307e-05
-1.00395e-05
-1.83858e-05
-1.05861e-05
-2.61536e-05
-8.55451e-06
-3.1156e-05
-6.30963e-06
-2.96608e-05
-5.77973e-06
-2.20948e-05
-5.16095e-06
-1.28431e-05
-3.82355e-06
-7.35557e-06
4.41882e-07
-3.44629e-05
-1.7889e-06
-6.62673e-05
-6.25005e-06
-7.58561e-05
-5.77594e-06
-7.34848e-05
-4.84393e-06
-7.07507e-05
-4.22428e-06
-6.93571e-05
-3.90434e-06
-6.86122e-05
-4.10086e-06
-7.24036e-05
-4.49837e-06
-7.81885e-05
-3.49852e-06
-8.35172e-05
-8.31601e-05
2.10991e-06
-8.59731e-05
2.33945e-06
-8.06593e-05
2.12528e-06
-7.25466e-05
2.1548e-06
-6.96838e-05
1.97304e-06
-6.78811e-05
2.43523e-06
-6.82836e-05
3.96185e-06
-7.04368e-05
6.24674e-06
-7.44782e-05
8.60154e-06
-7.87998e-05
8.97282e-06
-8.31043e-05
1.02394e-06
-8.48419e-05
-6.60663e-06
-7.3009e-05
-9.87224e-06
-3.84542e-05
-1.00103e-05
-2.90562e-05
-9.99689e-06
-3.25005e-05
-9.91299e-06
-3.08882e-05
-1.03108e-05
-2.46709e-05
-1.01038e-05
-2.0902e-05
-7.26845e-06
-4.75731e-05
-7.4986e-06
-8.09845e-05
-9.04655e-06
-8.48472e-05
-7.21125e-06
-8.05453e-05
-4.89586e-06
-7.59915e-05
-3.16409e-06
-7.16276e-05
-2.33019e-06
-6.92411e-05
-2.21157e-06
-6.89539e-05
-1.95781e-06
-7.10256e-05
-2.15387e-06
-7.43481e-05
-2.26925e-06
-8.14037e-05
-8.4424e-05
2.71374e-07
-8.52229e-05
1.93266e-07
-7.58869e-05
-3.49124e-07
-6.7472e-05
-1.05487e-08
-6.61758e-05
4.38882e-07
-6.57587e-05
1.57763e-06
-6.75903e-05
3.68775e-06
-7.07587e-05
6.17579e-06
-7.51754e-05
8.60412e-06
-7.93281e-05
1.09647e-05
-8.32979e-05
1.12294e-05
-8.68515e-05
-2.76682e-07
-8.87784e-05
-1.0597e-05
-6.42913e-05
-1.06999e-05
-3.58661e-05
-1.09266e-05
-3.57139e-05
-1.15564e-05
-3.38486e-05
-1.0805e-05
-3.0046e-05
-1.03734e-05
-6.16819e-05
-1.11469e-05
-8.77782e-05
-1.15267e-05
-8.82195e-05
-9.43667e-06
-8.50981e-05
-7.27053e-06
-8.07186e-05
-4.87874e-06
-7.63792e-05
-2.72347e-06
-7.17526e-05
-1.661e-06
-6.8451e-05
-1.20089e-06
-6.69061e-05
-7.44056e-07
-6.79546e-05
-1.1986e-06
-6.98592e-05
-1.31303e-06
-7.7815e-05
-8.41629e-05
-1.28676e-06
-8.26875e-05
-1.41949e-06
-7.05623e-05
-1.82642e-06
-6.41904e-05
-1.06645e-06
-6.3553e-05
-1.04037e-07
-6.43242e-05
1.53073e-06
-6.70649e-05
3.82241e-06
-7.08291e-05
6.52164e-06
-7.53442e-05
9.02169e-06
-7.93857e-05
1.13714e-05
-8.29038e-05
1.37822e-05
-8.59624e-05
7.21065e-06
-8.92126e-05
-6.60835e-06
-7.56547e-05
-1.35496e-05
-4.16854e-05
-1.1963e-05
-3.93576e-05
-8.42315e-06
-3.6912e-05
-1.13914e-05
-3.67077e-05
-1.39962e-05
-9.60975e-05
-1.48735e-05
-9.08576e-05
-1.22819e-05
-8.73842e-05
-9.9493e-06
-8.42241e-05
-7.53883e-06
-8.05967e-05
-4.96729e-06
-7.64033e-05
-2.60427e-06
-7.18893e-05
-1.00245e-06
-6.80418e-05
2.76179e-11
-6.54623e-05
8.41738e-07
-6.50505e-05
5.16883e-07
-6.58815e-05
3.68655e-07
-7.31688e-05
-8.24595e-05
-2.03966e-06
-7.96627e-05
-2.21839e-06
-6.58208e-05
-2.66902e-06
-6.16816e-05
-1.71336e-06
-6.15133e-05
-2.72097e-07
-6.32735e-05
1.72676e-06
-6.65399e-05
4.25577e-06
-7.06318e-05
7.10118e-06
-7.51664e-05
9.53013e-06
-7.90436e-05
1.20243e-05
-8.22126e-05
1.45493e-05
-8.45897e-05
9.23252e-06
-8.75036e-05
-5.89933e-06
-7.96825e-05
-1.65194e-05
-4.53393e-05
-1.35266e-05
-4.29519e-05
-9.66218e-06
-4.16155e-05
-1.37457e-05
-4.34744e-05
-1.66297e-05
-9.52965e-05
-1.56912e-05
-8.85034e-05
-1.28958e-05
-8.60658e-05
-1.05943e-05
-8.32819e-05
-8.16937e-06
-8.00268e-05
-5.36102e-06
-7.61244e-05
-2.75936e-06
-7.17421e-05
-7.43057e-07
-6.76481e-05
7.06146e-07
-6.45149e-05
1.7516e-06
-6.29541e-05
1.46052e-06
-6.31533e-05
1.5171e-06
-6.82564e-05
-7.97593e-05
-2.82581e-06
-7.67031e-05
-3.19377e-06
-6.27979e-05
-3.28124e-06
-5.93898e-05
-1.81758e-06
-5.97639e-05
-2.36465e-10
-6.23228e-05
2.08405e-06
-6.58259e-05
4.78114e-06
-7.00969e-05
7.76034e-06
-7.4625e-05
1.02895e-05
-7.83206e-05
1.24497e-05
-8.11242e-05
1.4756e-05
-8.29166e-05
1.11047e-05
-8.55482e-05
-5.208e-06
-8.31792e-05
-1.90158e-05
-4.89595e-05
-1.52377e-05
-4.75544e-05
-1.0739e-05
-4.79801e-05
-1.44302e-05
-5.47268e-05
-1.67996e-05
-9.31082e-05
-1.57857e-05
-8.66887e-05
-1.35829e-05
-8.42061e-05
-1.13207e-05
-8.21319e-05
-8.8974e-06
-7.9104e-05
-5.91284e-06
-7.55389e-05
-3.14533e-06
-7.12313e-05
-9.63072e-07
-6.71585e-05
9.45382e-07
-6.37878e-05
2.50027e-06
-6.13222e-05
2.49557e-06
-6.09232e-05
2.32459e-06
-6.44425e-05
-7.68594e-05
-3.66555e-06
-7.38746e-05
-3.62123e-06
-6.09295e-05
-3.20993e-06
-5.72951e-05
-1.67006e-06
-5.83044e-05
2.977e-07
-6.10611e-05
2.63702e-06
-6.4795e-05
5.50278e-06
-6.92281e-05
8.59922e-06
-7.37688e-05
1.10969e-05
-7.72762e-05
1.30613e-05
-7.97283e-05
1.49532e-05
-8.12315e-05
1.31682e-05
-8.32921e-05
-3.53856e-06
-8.54045e-05
-2.04209e-05
-5.3576e-05
-1.55515e-05
-5.32153e-05
-9.98107e-06
-5.63068e-05
-1.3662e-05
-7.27991e-05
-1.73639e-05
-9.0466e-05
-1.6203e-05
-8.46831e-05
-1.40429e-05
-8.25315e-05
-1.22219e-05
-8.06761e-05
-9.73295e-06
-7.79893e-05
-6.64288e-06
-7.46717e-05
-3.68915e-06
-7.04295e-05
-1.19601e-06
-6.64255e-05
9.5804e-07
-6.28601e-05
2.6568e-06
-6.011e-05
3.10089e-06
-5.90289e-05
3.16818e-06
-6.21021e-05
-7.39829e-05
-4.07571e-06
-7.12084e-05
-3.73116e-06
-5.96135e-05
-2.86135e-06
-5.54061e-05
-1.19317e-06
-5.67354e-05
8.9083e-07
-5.9396e-05
3.48862e-06
-6.35311e-05
6.5129e-06
-6.81911e-05
9.51239e-06
-7.27435e-05
1.17568e-05
-7.60838e-05
1.35398e-05
-7.82261e-05
1.52316e-05
-7.94356e-05
1.50131e-05
-8.13358e-05
-6.77514e-07
-8.56239e-05
-1.92953e-05
-6.51215e-05
-1.31948e-05
-6.06659e-05
-8.75319e-06
-6.91065e-05
-1.34578e-05
-8.70954e-05
-1.73578e-05
-8.76514e-05
-1.63986e-05
-8.27649e-05
-1.45968e-05
-8.08374e-05
-1.2772e-05
-7.91252e-05
-1.06056e-05
-7.67657e-05
-7.63155e-06
-7.36566e-05
-4.53538e-06
-6.9537e-05
-1.79342e-06
-6.54616e-05
5.4569e-07
-6.15536e-05
2.47661e-06
-5.88628e-05
3.41561e-06
-5.73447e-05
3.80257e-06
-6.07402e-05
-7.1264e-05
-3.89504e-06
-6.82762e-05
-3.37892e-06
-5.82626e-05
-2.26592e-06
-5.3668e-05
-6.48484e-07
-5.47788e-05
1.58666e-06
-5.76268e-05
4.40792e-06
-6.22328e-05
7.48324e-06
-6.72678e-05
1.02243e-05
-7.17533e-05
1.22139e-05
-7.48554e-05
1.38492e-05
-7.66521e-05
1.5495e-05
-7.75988e-05
1.65421e-05
-7.92419e-05
7.83758e-06
-8.371e-05
-9.03123e-06
-8.01473e-05
-6.25511e-06
-7.13328e-05
-7.13203e-06
-8.22376e-05
-1.4492e-05
-8.89197e-05
-1.76322e-05
-8.5076e-05
-1.67376e-05
-8.06625e-05
-1.50084e-05
-7.89584e-05
-1.32129e-05
-7.75546e-05
-1.12247e-05
-7.54582e-05
-8.51492e-06
-7.26803e-05
-5.40864e-06
-6.8778e-05
-2.4388e-06
-6.44446e-05
6.68172e-08
-6.01103e-05
1.89555e-06
-5.72249e-05
3.10852e-06
-5.57732e-05
3.76806e-06
-5.95765e-05
-6.86315e-05
-3.97056e-06
-6.43254e-05
-3.45331e-06
-5.63697e-05
-2.05961e-06
-5.18206e-05
-3.28653e-07
-5.27814e-05
2.20248e-06
-5.60689e-05
5.25811e-06
-6.11507e-05
8.3242e-06
-6.65882e-05
1.08937e-05
-7.08964e-05
1.26989e-05
-7.34971e-05
1.41384e-05
-7.4925e-05
1.5749e-05
-7.56504e-05
1.70648e-05
-7.71052e-05
1.48787e-05
-8.09929e-05
5.46985e-06
-8.47396e-05
-1.08257e-06
-8.07941e-05
-7.51629e-06
-8.53491e-05