/*--------------------------------*- C++ -*----------------------------------*\
| =========                 |                                                 |
| \\      /  F ield         | OpenFOAM: The Open Source CFD Toolbox           |
|  \\    /   O peration     | Version:  2.4.0                                 |
|   \\  /    A nd           | Web:      www.OpenFOAM.org                      |
|    \\/     M anipulation  |                                                 |
\*---------------------------------------------------------------------------*/
FoamFile
{
    version     2.0;
    format      ascii;
    class       volScalarField;
    location    "2.6";
    object      alpha.water;
}
// * * * * * * * * * * * * * * * * * * * * * * * * * * * * * * * * * * * * * //

dimensions      [0 0 0 0 0 0 0];

internalField   nonuniform List<scalar> 
3072
(
3.53138e-05
4.94633e-05
5.35679e-06
0.000367314
0.000221006
0.0123302
0.197126
0.183775
0.0229701
0.0202552
0.0141528
0.00391176
0.000621414
0.000408015
2.25444e-06
3.26841e-05
2.25488e-06
0.148233
0.48747
0.492368
0.493653
0.494347
0.492453
0.167886
0.00103996
0.000254204
2.2545e-06
2.25457e-06
2.2545e-06
0.0978366
0.200818
0.134171
0.131344
0.390735
0.494385
0.494246
0.000164468
6.85509e-06
2.25453e-06
2.25451e-06
2.25464e-06
0.0147368
0.127332
0.163898
0.106656
0.107189
0.297915
0.494348
0.00188748
2.25464e-06
2.25451e-06
2.25464e-06
2.25459e-06
0.13338
0.485494
0.485407
0.479257
0.148654
0.034659
0.128278
2.74088e-12
0.0681172
0.218448
0.226517
0.201771
0.274275
0.0737136
0.0697674
0.0623046
0.0747403
0.0229617
2.00333e-13
0.0116666
0.318541
0.500504
0.500576
0.500682
0.23619
6.22524e-13
7.34138e-13
0.00669939
0.0113178
3.22687e-13
2.84364e-13
0.0192623
0.466258
0.500529
0.500633
0.500601
0.209641
6.0739e-13
0.00226516
0.0428582
0.0509267
0.011263
6.09548e-05
0.00336623
0.34505
0.500504
0.500529
0.503741
0.131727
6.05729e-13
7.08324e-13
0.0184124
0.120697
0.167308
0.0624037
2.38394e-12
0.0628154
0.501217
0.503741
0.500998
0.101705
6.05994e-13
6.76749e-13
0.0176912
0.257435
0.323499
0.272796
1.98027e-07
4.26916e-13
0.0999824
0.258923
0.199356
0.0277045
0.00371019
0.00900734
0.0410951
0.231882
0.324231
0.239616
3.67191e-13
3.67183e-13
4.16148e-13
4.09788e-13
3.47309e-13
2.95369e-13
0.0220054
0.0675376
0.0664723
0.204455
0.0889525
2.00274e-13
1.47296e-11
1.46489e-11
1.45484e-11
1.44342e-11
1.46624e-11
0.0189092
0.0635106
0.047812
0.0169307
1.61465e-11
8.30816e-07
0.000139931
0.0222433
0.0579836
0.0399343
1.44985e-11
1.46069e-11
0.00498169
0.210567
0.362731
0.191752
0.0177635
1.61787e-11
7.12709e-05
0.494346
0.493967
0.327599
0.0276364
0.0128744
0.0259187
0.264971
0.394837
0.394765
0.227792
0.0330445
0.00204212
0.493975
0.494182
0.457512
0.145459
0.0388936
0.10119
0.308544
0.393911
0.394837
0.394765
0.201137
0.0220838
0.257752
0.248958
0.00682897
0.000576458
0.00439359
0.103849
0.127716
0.052435
0.337442
0.394812
0.337073
0.0405862
1.97338e-13
2.35239e-13
3.05986e-13
0.00400032
0.00627166
2.80145e-13
1.97787e-13
1.83941e-13
0.0027798
0.37068
0.338384
0.0491087
0.000176652
0.0494226
0.152802
0.258071
0.270528
0.192868
0.021262
2.59464e-13
2.01865e-13
0.0776154
0.180885
0.0523622
0.115665
0.352365
0.385858
0.385857
0.385858
0.385857
0.320623
0.059937
2.69853e-13
2.64141e-13
0.102246
0.160927
0.298344
0.385847
0.385857
0.385748
0.385857
0.385924
0.386659
0.367409
0.0405167
0.000985883
0.111896
0.0991926
0.19095
0.0576365
0.0912833
0.0814306
0.0952976
0.1992
0.386644
0.386819
0.132604
2.86064e-13
0.0398994
0.026795
0.00309103
4.21555e-15
4.67107e-20
2.53335e-20
-6.29549e-09
-2.06701e-09
0.0732039
0.167046
0.0644076
2.23172e-13
1.6166e-13
0.0320722
2.05402e-13
2.58282e-08
2.48722e-08
2.1058e-08
3.65404e-09
6.40881e-14
6.77269e-24
2.79368e-24
0.00644282
0.00247351
1.08776e-13
0.153546
0.197246
0.0463625
0.0377654
0.0377653
0.0377653
0.0377653
0.600694
0.643986
0.259042
0.101699
0.133178
0.621834
0.276799
0.202646
0.0377654
0.258052
0.293649
0.173113
0.419896
0.281302
0.1489
0.189327
0.741882
0.83232
0.186873
0.507685
0.713331
0.680854
0.15669
0.0214798
0.0208333
0.125365
0.713739
0.838776
0.838677
0.838872
0.179022
0.676133
0.710992
0.589442
0.0214794
0.0208333
0.176364
0.779824
0.838215
0.838401
0.838776
0.838676
0.410068
0.664726
0.658789
0.213251
0.0295359
0.2357
0.636803
0.732853
0.626447
0.565417
0.836844
0.838776
0.27123
0.628725
0.353993
0.0148116
0.158813
0.605053
0.64904
0.0438782
1.50562e-12
0.294506
0.838215
0.838401
0.041061
0.228261
0.0427327
0.0190893
0.38434
0.57375
0.227045
8.11947e-13
1.39987e-12
0.160395
0.588323
0.706181
1.59297e-13
1.09164e-13
1.8514e-13
0.0380421
0.364937
0.336407
5.50141e-13
6.43232e-13
0.00425703
0.0332885
0.0263279
0.036176
0.0277739
2.94877e-14
1.09509e-13
0.0288793
0.104322
0.0198066
4.99283e-13
1.98176e-06
5.17673e-06
4.26996e-13
4.25136e-13
4.66094e-13
0.58926
3.37872e-14
0.000397801
0.00807886
5.1417e-13
4.59166e-13
2.70399e-08
2.17361e-05
3.65273e-05
2.25795e-05
4.52623e-13
0.0391464
0.864099
2.94956e-14
8.32786e-05
1.28766e-13
1.47268e-12
4.10545e-13
4.39897e-13
5.96138e-06
2.9946e-05
4.95534e-06
3.60999e-13
0.310103
0.865562
0.205243
1.73049e-14
7.7022e-14
7.04605e-14
9.53563e-14
6.82884e-06
1.20461e-05
6.19522e-06
2.89288e-13
2.92352e-13
0.320865
0.680225
0.680225
0.561517
0.0836372
0.0753317
0.0753317
0.0753317
0.119253
0.313737
0.279307
0.0555671
0.0554863
0.265527
0.105572
0.0878453
0.0850118
0.0753317
0.0753317
0.0753317
0.24821
0.477582
0.477611
0.440605
0.272426
0.838799
0.666025
0.268239
0.190438
0.194587
0.175514
0.217467
0.221318
0.2486
0.465889
0.664295
0.664295
0.647369
0.246586
0.247008
0.270051
0.28293
0.36412
0.366082
0.367181
0.1543
0.0669762
0.329997
0.604122
0.547592
0.290889
0.328848
0.498771
0.457634
0.198518
0.165934
0.350842
0.295383
0.0674717
0.0275603
0.0728245
0.838215
0.738704
0.677471
0.467289
0.329646
0.230845
0.0542429
0.0540879
0.294541
0.191076
0.0275603
0.0275603
0.811174
0.758347
0.40508
0.0993783
0.0501909
0.0413067
0.0520243
0.012936
0.120669
0.0993356
0.032765
0.239619
0.208124
0.254323
0.363306
0.592879
0.345606
0.0366637
0.00760179
0.0108477
0.00107317
0.0259936
0.0292006
0.203861
5.0325e-13
0.393264
0.892872
0.947983
0.941541
0.305893
3.69596e-13
3.0737e-13
0.000915609
0.00693846
5.99782e-13
0.170267
0.177491
0.9355
0.96164
0.932052
0.753099
0.396869
0.00396489
3.60818e-13
0.000220677
6.29913e-13
5.66629e-13
0.123714
0.837036
0.961638
0.961672
0.408047
0.0449942
0.0218611
0.00431946
4.06464e-13
1.16383e-05
6.02547e-13
0.000325548
0.0314196
0.960186
0.961653
0.874739
0.0949001
3.82096e-13
3.467e-13
3.46801e-13
3.91302e-13
4.3785e-13
1.1484e-09
0.00179547
1.98262e-06
1.71383e-06
1.71383e-06
1.95015e-06
1.71383e-06
1.71383e-06
0.0777243
0.0474445
1.12408e-12
0.351866
0.809755
0.809755
0.809611
0.0160759
0.00370502
0.00107215
0.00866248
0.0102815
0.0174255
0.00988802
0.0215894
0.124765
0.11944
0.0401165
6.61209e-13
0.0452485
0.0129237
0.00575068
0.020229
3.88257e-05
6.61953e-13
6.75764e-13
0.00181605
0.00373753
5.78049e-13
5.97329e-13
5.95672e-13
0.0606169
0.00192864
0.00229465
0.00635135
0.287416
0.549359
0.240895
5.53089e-13
6.34407e-13
5.06203e-13
5.06795e-13
5.99035e-13
0.201507
0.444223
0.0809502
0.0208286
0.611761
0.917506
0.641925
6.26354e-13
5.96123e-13
0.0401309
0.143285
0.182382
0.0944546
0.692617
0.81161
0.619778
0.849938
0.917506
0.912084
0.656086
0.60398
0.783818
0.864976
0.899239
0.157817
0.838992
0.918546
0.918422
0.918523
0.892226
0.81295
0.964821
0.981195
0.981199
0.981198
0.981207
0.141185
0.896866
0.918423
0.918486
0.824982
0.566231
0.653903
0.885525
0.750395
0.685963
0.940392
0.951966
0.0858901
0.918251
0.918439
0.918307
0.527933
0.0614592
0.198144
0.261953
0.0859819
0.0994029
0.538928
0.901067
0.199566
0.69134
0.918251
0.918322
0.553015
6.09864e-13
7.04106e-13
0.00720868
0.00163443
5.06497e-05
0.109061
0.66046
0.489892
0.281544
0.916326
0.917974
0.60754
5.91511e-13
0.000875663
0.0051622
0.00236165
4.65642e-05
0.0179908
0.161004
0.489892
0.271487
0.552637
0.635269
0.600446
5.92456e-13
0.000252298
0.0002243
4.72689e-06
0.00102984
0.0311352
0.0216478
0.340574
5.6007e-13
6.71923e-13
0.0969883
0.566879
0.718185
0.755199
0.823488
0.785966
0.819884
0.601475
0.369344
0.000709489
6.13117e-05
0.000255093
0.000270621
1.17113e-12
1.16933e-12
0.0538392
0.223803
0.291858
0.978172
0.977509
0.545499
5.93239e-13
1.39958e-07
9.75145e-13
0.00167608
0.00350713
0.00369276
0.00313564
0.0033056
0.00347939
0.325126
0.772035
0.999043
6.83751e-13
7.56464e-13
8.36187e-13
9.28702e-13
1.02717e-12
1.10136e-12
0.00297385
0.0106422
0.0102842
0.00247569
0.0434867
0.957667
0.123889
0.0088624
0.0491541
0.306944
0.386322
0.0721224
0.00160404
0.00143408
0.000730118
0.00233814
4.36658e-14
0.989233
0.778023
0.601681
0.624633
0.954893
0.981209
0.756856
0.171285
1.29856e-13
4.26606e-14
4.26613e-14
4.26567e-14
0.907936
0.981203
0.981212
0.981209
0.981215
0.981209
0.981209
0.540442
0.00599047
1.0174e-13
7.19977e-08
4.26576e-14
0.401788
0.801862
0.981203
0.981211
0.981208
0.98121
0.910133
0.528495
0.0158011
1.50586e-13
3.52295e-06
4.26711e-14
0.170493
0.736199
0.959376
0.981202
0.981209
0.797567
0.239458
0.0636135
0.00199819
9.52904e-14
4.82519e-06
4.26803e-14
0.107006
0.348599
0.80405
0.981205
0.981202
0.409444
1.0114e-13
4.25603e-14
4.25603e-14
4.25603e-14
3.19142e-06
4.26643e-14
0.0316529
0.119503
0.566363
0.981195
0.888957
0.164004
1.58748e-13
3.25199e-13
1.01548e-12
4.25605e-14
1.59375e-06
4.25986e-14
0.026401
0.26244
0.726329
0.981198
0.400872
0.00713187
2.03695e-13
3.36475e-13
5.84269e-13
4.25701e-14
1.63729e-07
4.25601e-14
0.132899
0.184711
0.099402
0.156357
0.211395
0.211395
0.192996
0.0272605
1.3248e-12
0.000153378
0.00576544
0.00760321
0.00259321
0.00328762
0.00328762
0.0149449
0.211395
0.151835
0.0887443
0.00138984
1.32404e-12
1.63525e-05
0.00275238
0.00530447
3.53505e-13
0.00328763
0.00328762
0.0388817
0.103648
0.000588404
0.00973926
0.179518
0.198723
0.0102674
4.42814e-06
3.75127e-06
3.77286e-06
0.00328763
0.012939
0.0366523
0.0102888
4.94575e-13
0.0329924
0.207528
0.172982
1.4151e-05
1.77237e-05
2.94949e-05
3.62715e-13
0.00328763
0.0287703
0.03457
5.70111e-14
0.01116
0.458301
0.777567
0.279282
1.417e-05
1.4151e-05
1.417e-05
0.0521583
0.0649519
0.0275363
0.0249989
3.48947e-14
0.0167008
0.632827
0.982648
0.851475
0.161191
1.417e-05
0.311042
0.785041
0.164467
0.00666341
0.0052118
1.00677e-23
0.000795857
0.485907
0.981067
0.973225
0.780153
0.740072
0.952791
0.983627
0.165854
9.42218e-14
6.42672e-14
-3.60143e-14
4.32799e-14
0.274536
0.983791
0.983674
0.983789
0.983815
0.983641
0.983636
0.0925867
0.00062415
1.23218e-13
0.0326434
0.24896
0.6797
0.983687
0.983789
0.983717
0.983772
0.983818
0.983637
0.00246377
0.0009359
2.05052e-13
0.128875
0.904072
0.983608
0.983789
0.983752
0.983645
0.983993
0.983605
0.983602
0.00222003
0.00440871
0.000170829
0.141523
0.907603
0.983604
0.983878
0.983837
0.974678
0.940864
0.983599
0.983602
0.00330659
0.00457934
0.00940428
0.568556
0.487302
0.63844
0.983721
0.983637
0.918959
0.754622
0.983602
0.983599
2.45188e-13
3.74113e-13
0.00380216
0.0203743
0.0303306
0.00767837
1.05689e-11
1.07954e-11
1.0895e-11
0.00294577
0.158587
0.489336
2.46551e-13
2.96987e-13
0.034739
0.143804
0.144929
0.128468
0.0390091
0.0583309
0.000379718
0.116595
0.283362
0.344671
6.04786e-06
2.01134e-13
6.75259e-05
0.0642999
0.140436
0.168589
0.169536
0.148791
0.0375285
0.178763
0.26482
0.159557
2.94074e-13
2.13927e-13
1.27106e-13
4.12677e-14
4.1906e-14
6.28414e-14
0.0531057
0.00491852
0.0847609
0.0228592
0.0873504
0.31779
0.161781
0.196715
0.0122533
1.00894e-13
9.55236e-14
1.08353e-14
7.39207e-15
6.22768e-14
0.0399693
2.51772e-06
0.00143881
0.20775
0.874467
0.741152
0.203543
0.00789575
0.000290901
7.19077e-14
3.19631e-06
6.68317e-05
2.51776e-06
2.56025e-06
0.00133235
0.000432593
0.972132
0.630708
0.350866
0.0878435
0.00490224
0.0071251
3.42193e-06
3.66889e-06
5.50447e-05
1.25015e-05
0.00192827
0.000434549
0.846116
0.0733208
0.0570511
0.101389
0.0123481
0.0634222
0.0639876
0.00667821
0.000121493
0.00101289
0.000501191
0.000432277
0.895852
0.155233
2.08793e-09
2.1736e-09
1.91682e-09
0.0482993
0.380518
0.329439
0.034866
0.00300367
0.000493951
0.000578287
0.983603
0.625895
0.0195376
1.91687e-09
1.91682e-09
1.91682e-09
0.353244
0.508269
0.400828
0.0277612
0.00295982
0.000581714
0.9836
0.671492
0.0384719
1.91687e-09
1.91682e-09
1.91682e-09
1.91685e-09
0.433095
0.524639
0.314012
0.00922017
0.00449471
0.914205
0.203731
1.91692e-09
1.91691e-09
1.91686e-09
1.91687e-09
1.91687e-09
0.0421757
0.500971
0.531085
0.0896401
0.00209837
0.00110796
4.101e-13
4.85603e-13
1.2727e-05
6.75361e-06
1.80181e-13
0.0213538
0.0671757
0.0826299
0.231623
0.0619345
2.81398e-13
0.00129905
0.00133144
0.000532975
1.12272e-05
7.17701e-06
1.0898e-13
0.00806276
0.0310999
0.103365
0.217465
0.0819635
0.00304868
0.00134358
0.00147977
0.000551103
1.65208e-13
1.09691e-13
1.09093e-13
0.00214361
0.0395091
0.117742
0.00540212
0.000867149
0.0064527
0.0122856
1.6508e-05
7.40006e-05
1.37591e-13
0.000881609
1.11134e-13
1.17831e-13
0.0413681
0.0327064
0.00104654
0.00108456
0.0149834
1.53378e-06
5.73263e-08
5.47058e-08
5.17258e-08
1.16785e-08
1.02141e-13
5.19428e-14
1.66998e-21
0.000103019
0.000482033
1.04237e-13
0.121774
0.00146948
3.36415e-07
7.8491e-13
2.72121e-13
5.59071e-09
1.30932e-09
2.05638e-12
4.4492e-14
8.85547e-14
1.43334e-13
1.04666e-13
0.0767075
0.00246537
7.46188e-13
5.53099e-06
2.12045e-13
1.71452e-13
1.90041e-13
1.45124e-13
0.00207533
1.00599e-13
9.61908e-14
1.03305e-13
0.00735888
7.37293e-13
7.8317e-13
0.000138434
5.6773e-05
1.72738e-13
0.00213998
0.0125181
0.0309791
0.0513259
0.030235
0.00286992
4.04691e-13
0.864165
0.790261
1.68594e-14
5.52212e-14
1.80437e-07
1.38794e-05
3.41368e-05
3.41706e-05
6.29936e-06
2.86619e-13
2.89288e-13
0.0280101
0.344776
0.812787
0.302885
7.8407e-14
3.12246e-07
1.39518e-05
3.42338e-05
1.7906e-05
2.90199e-13
2.84139e-13
3.36224e-13
3.70818e-13
3.78399e-13
0.811951
0.856062
0.106977
3.44511e-07
7.05859e-06
4.99061e-06
1.90205e-08
1.14887e-07
2.63105e-13
0.00241426
0.146819
3.32561e-13
0.480545
0.865562
0.658896
0.0179656
3.30707e-13
3.02737e-13
2.6229e-13
2.63096e-13
2.6229e-13
0.099129
0.826888
0.731116
0.96162
0.669623
0.0430953
4.37574e-13
4.34625e-13
4.11007e-13
1.24688e-06
2.5564e-07
1.18313e-09
0.00131118
1.90171e-08
0.499762
0.961637
0.397134
0.00193699
4.80599e-13
0.00014093
0.000109302
2.77651e-05
1.44149e-07
2.72105e-07
2.24763e-05
2.9369e-13
0.75875
0.634236
0.103199
2.4975e-05
0.000255479
0.000537212
0.000346091
3.10736e-06
1.30054e-07
3.35678e-07
1.14955e-07
4.82066e-06
0.926738
0.286195
8.133e-14
3.02954e-05
0.000807766
0.000542612
5.51784e-05
9.67471e-08
8.01824e-08
3.92865e-07
2.80463e-08
1.85995e-06
0.38928
0.377865
0.298879
0.116238
0.141638
5.90587e-13
7.34701e-05
4.4529e-05
3.45193e-06
1.87625e-13
0.174929
0.528242
0.0421146
0.402499
0.268612
0.130816
0.0734164
5.91554e-13
3.25617e-07
6.04459e-05
6.77244e-09
1.32778e-13
0.136362
0.956385
5.81536e-06
0.387589
0.0581654
0.545662
0.484626
5.90082e-13
4.41046e-05
3.32339e-06
1.32778e-13
1.32762e-13
1.6998e-13
0.765634
1.87406e-07
0.0500315
0.0154085
0.571955
0.573236
0.00113711
0.000305939
1.23525e-13
1.76826e-13
1.43487e-13
1.5481e-13
0.308985
0.957761
0.976413
0.856226
0.113039
4.23389e-13
3.78501e-13
3.27123e-13
3.6588e-13
4.92214e-12
8.98518e-14
4.25597e-14
0.138322
0.976412
0.976412
0.501684
0.0245898
4.00773e-13
3.70837e-13
3.17424e-13
2.41645e-06
4.6173e-14
4.4241e-14
4.25595e-14
0.0637704
0.97641
0.73466
0.0983817
3.9965e-13
3.54131e-13
1.50065e-05
3.18699e-07
0.000106626
0.000525425
6.23491e-14
4.25597e-14
9.74807e-14
0.953553
0.118963
4.38609e-13
4.08987e-13
3.56696e-13
0.000408418
0.00085556
0.00017934
0.00313583
0.00496163
0.000943235
1.07617e-13
0.0221625
0.00453355
0.228713
0.906587
0.40191
0.406468
0.484316
0.635334
0.747561
0.748061
0.983494
0.974177
0.0395674
0.0045885
0.290722
0.907321
0.811666
0.401907
0.452429
0.629691
0.642667
0.834783
0.784046
0.416185
0.032066
0.0770381
0.201453
0.816765
0.999951
0.780774
0.851302
0.844667
0.651027
0.833694
0.42889
1.30943e-12
0.0157036
0.10764
0.108424
0.71429
0.999951
0.999951
0.88857
0.870899
0.889636
0.736678
0.518246
0.148804
0.302877
7.89241e-05
1.91698e-09
0.0282321
0.00542695
0.000799764
4.85349e-05
1.91682e-09
0.255702
0.53354
0.278738
0.00542867
0.00862237
0.0082441
0.127917
0.355682
0.281357
0.0376439
1.91687e-09
1.91687e-09
0.0760436
0.533461
0.385876
0.0240925
1.27759e-12
0.0282271
0.397787
0.42489
0.424882
0.100298
1.91695e-09
1.91687e-09
1.9169e-09
0.350098
0.490113
0.0582299
1.32193e-12
0.0870813
0.42489
0.424882
0.256204
0.0337451
1.91695e-09
0.00711725
1.91688e-09
0.0862737
0.528893
0.293434
9.06295e-14
6.80441e-14
9.66478e-14
1.53671e-13
0.00320819
0.0148647
0.0828733
0.0791851
4.81364e-05
0.000232093
0.00383697
0.041581
5.877e-14
5.42637e-14
5.877e-14
5.49874e-14
0.00528742
0.0871816
0.0873534
3.82374e-05
4.76608e-05
0.000412717
0.000467393
0.0572937
0.0223368
0.184913
0.187933
0.104854
0.000481199
0.046361
0.0216726
3.83385e-05
3.85632e-05
0.00118694
0.160072
0.0493801
0.0849097
0.28236
0.28236
0.207401
6.49125e-13
0.00240829
7.42994e-13
0.000129779
0.000981812
0.177131
0.415927
0.0497035
0.158308
0.0502292
0.000153251
0.000369573
2.55659e-13
0.0081334
0.0530778
0.053078
0.0530778
0.0406882
0.00062883
3.32561e-13
0.488472
0.42835
0.000111511
0.000432246
0.00192061
0.00197453
0.0343758
0.0530778
0.0464809
0.00943494
0.000474822
0.0190901
0.488472
0.488165
0.000111349
0.000128887
0.00453913
0.00586307
0.0109715
0.053078
0.0468897
0.000474822
0.000809846
0.254377
0.488472
0.452558
0.000111378
0.000111346
0.00114571
0.00994342
0.0127027
0.0489184
0.0481629
0.00491036
0.00114699
0.27042
3.37219e-13
0.131964
0.865542
0.40785
3.53614e-06
2.80757e-06
2.789e-13
3.08899e-13
9.01524e-13
3.08575e-13
0.276046
0.926738
0.327752
0.400407
0.252836
0.0132749
0.000133011
2.74164e-08
7.91719e-07
1.50324e-09
3.93403e-13
3.4701e-13
0.112976
0.77002
0.530169
0.535601
0.000721571
0.000149502
0.000333682
3.32615e-08
2.50949e-07
3.98524e-06
2.26516e-05
3.81493e-13
0.00861186
0.381826
0.535601
0.311358
1.90139e-13
0.000139256
0.000192379
3.18521e-09
1.40832e-07
5.29516e-05
0.000103056
4.17848e-13
0.0228577
0.330837
0.920304
0.0695164
3.92581e-14
0.0001717
0.000813641
7.21625e-05
3.74972e-06
3.71125e-06
7.47064e-08
6.62411e-06
7.66772e-05
1.87406e-07
0.940808
0.426871
3.93812e-14
2.30405e-06
0.000170112
0.000233177
3.79178e-06
4.55794e-06
6.99049e-08
6.1728e-08
0.000372084
0.00050464
0.970488
0.804281
4.89085e-14
5.22197e-07
1.60984e-06
0.000238374
5.70021e-06
6.33519e-06
1.11051e-05
2.17961e-06
5.58478e-13
0.0239125
0.970487
0.885295
0.0110677
1.06845e-13
1.99521e-05
0.000208138
0.000208358
6.31378e-06
1.24196e-05
1.21777e-05
3.65136e-13
0.0303911
2.09605e-07
1.87406e-07
0.0768004
0.573236
0.156684
5.16962e-05
0.000142426
1.33949e-13
6.54969e-09
1.76794e-13
0.00793741
0.175957
1.87406e-07
2.09605e-07
0.0225863
0.247597
5.16962e-05
4.69857e-05
1.93973e-06
1.98949e-06
5.36117e-08
5.01263e-07
3.93024e-13
0.0593935
0.187113
0.303915
0.0157893
3.3087e-13
9.17934e-05
9.73509e-05
2.26214e-06
1.44453e-05
3.88938e-08
2.02356e-06
3.76034e-13
0.0267543
0.515086
0.594809
0.521527
2.88033e-13
8.04293e-05
2.82635e-05
4.24542e-06
1.49188e-05
2.43231e-07
2.07463e-06
3.89769e-13
0.00734475
0.726056
3.92352e-13
0.00211288
0.00270328
2.87775e-06
0.000707113
0.00146157
0.000574757
0.00504778
0.0050494
0.00418558
1.44271e-13
0.467426
0.000190315
0.0860365
0.101586
2.99322e-13
3.21845e-13
0.000684597
0.000551363
0.00280966
0.00504778
0.00288746
1.46117e-13
0.108223
0.00401563
0.13069
0.147051
0.000137941
3.14555e-13
3.08065e-06
0.00053074
0.000199545
0.00203146
0.00017085
3.11483e-05
0.266246
1.16708e-12
0.0239208
0.148314
0.01674
3.08119e-13
0.000116527
0.000425373
2.49715e-13
2.40959e-13
2.01361e-13
2.24981e-13
0.00664643
0.0509977
0.278739
0.918723
0.999951
0.894384
0.82167
0.945613
0.879243
0.420866
0.994353
0.811156
1.90304e-13
0.0567477
0.622666
0.999951
0.955131
0.864812
0.862673
0.706214
0.18234
0.432424
0.994631
0.994631
2.27627e-13
0.10057
0.911533
0.999951
0.954695
0.916191
0.814921
0.230065
0.030066
0.312247
0.952451
0.984616
0.0138068
0.444556
0.999951
0.999951
0.994019
0.879422
0.180105
0.029725
0.0298711
0.035838
0.294122
0.960476
0.156872
0.0791441
0.340063
0.419215
0.0707444
0.00425215
0.00469515
0.0456397
0.415313
0.524745
0.524667
0.289962
0.399257
1.62279e-13
0.0326546
0.40414
0.385481
0.00428336
0.0100778
0.0168906
0.139171
0.43469
0.512815
0.173512
0.388013
1.67842e-13
0.0164781
0.358677
0.383763
0.00533631
0.00249467
0.00482992
0.00155113
0.0516505
0.140039
0.0890675
0.0563693
1.61537e-13
0.00103754
0.0229243
0.340223
0.0852441
0.00165202
0.00148453
3.11173e-13
2.94328e-13
3.33623e-13
0.0283424
0.0635442
0.224153
0.28236
0.0482021
1.55372e-10
6.78142e-13
1.34274e-09
2.95634e-05
0.0377186
0.415957
0.416773
0.197335
0.00852528
0.0151349
0.192133
2.33012e-10
6.47222e-13
1.46355e-10
6.51147e-13
0.00322581
0.0870381
0.416772
0.415957
0.416628
3.06484e-13
3.32407e-13
0.00303607
0.000425207
0.0129026
0.0133702
0.00925876
0.00323494
0.0738015
0.415957
0.415978
0.415806
4.96309e-07
1.34772e-05
1.46601e-06
0.000936221
0.00905113
0.0202528
0.0202085
0.00487815
0.0049971
0.305954
0.416059
0.416507
2.69181e-13
1.81044e-06
1.49652e-06
0.000398557
0.000362234
0.0149692
0.0279004
0.00739154
0.00648334
0.00711253
0.355078
0.415802
0.131985
2.64547e-13
1.48266e-07
1.26369e-07
0.00277994
0.0906958
0.0757864
0.0414506
0.00711253
0.00710656
0.0492612
0.415734
0.195379
2.80004e-13
2.64547e-13
0.0704387
0.209475
0.219493
0.127782
0.158351
0.154953
0.0924325
0.054267
0.169619
0.197232
0.23147
0.245007
0.321254
0.329211
0.104798
0.104294
0.303518
0.383702
0.377727
0.0690168
0.0291393
0.0664648
0.399344
0.404453
0.342983
0.113722
0.0873568
0.0881255
0.369725
0.383943
0.383702
0.123317
0.0291393
0.0384046
0.0978368
0.264812
0.107642
0.0985091
0.256576
0.261147
0.147874
0.260636
0.172356
0.0334136
0.061529
0.120657
0.0524272
0.0520521
0.093978
0.312806
0.345194
0.300736
0.0477812
0.0140353
0.0140283
0.0140282
0.162774
0.298397
0.316815
0.259055
0.347022
0.357864
0.310366
0.0668623
0.0140426
0.0140354
0.0140358
0.0405457
0.191591
0.488472
0.19686
0.000111342
0.000111354
0.000110621
0.000670817
0.006318
0.0211814
0.046103
0.0122933
2.56501e-06
0.0519244
0.160491
0.229779
0.000111375
0.000110618
0.000110694
0.000109922
0.00055995
0.00107486
0.00510288
0.00559106
1.70968e-13
1.98786e-13
0.0662081
0.488769
0.0177313
0.000111422
0.00011062
0.000110911
0.000173278
0.000475232
4.11759e-05
0.00280711
1.73179e-13
2.02735e-13
0.0997939
0.488829
0.175277
0.000111336
0.000111621
0.00011062
0.00055799
0.0008051
4.05817e-13
4.41554e-13
0.110402
0.311193
0.124409
0.488829
0.340118
0.000111967
0.016072
0.000111976
0.000215212
0.00774212
0.0077978
4.54458e-13
0.168034
0.891265
0.0858998
0.488829
0.46337
0.000182462
0.104878
0.0528678
0.000112423
0.000112387
0.132476
0.337176
0.447825
0.89451
0.018509
0.388725
0.551954
0.00555483
0.148116
0.211221
0.0185522
0.000112423
0.0594571
0.42763
0.547722
0.597361
0.0365903
0.384406
0.551939
0.0732307
0.0458721
0.315356
0.321033
0.135558
0.0800238
0.146257
0.193645
0.0852762
5.71858e-05
0.17629
0.5419
0.361133
0.0450562
0.179907
0.643885
0.646344
0.645488
0.546705
0.408952
0.391644
5.71858e-05
0.113715
0.508136
0.655854
0.457719
0.25946
0.200957
0.211797
0.353716
0.510993
0.63751
0.637133
0.000189153
0.0028212
0.436931
0.656458
0.655854
0.654457
0.360723
0.148797
0.14925
0.150865
0.28359
0.464172
7.57515e-05
0.0453121
0.423428
0.480724
0.314287
0.397186
0.555029
0.555029
0.541001
0.296632
0.172527
0.172527
0.163035
0.00345966
1.86558e-13
6.53378e-06
4.59897e-07
1.00779e-09
1.37301e-06
7.52404e-05
0.000107504
0.000504415
0.209203
0.422698
2.15588e-13
1.90325e-13
0.00479362
1.62547e-13
4.92796e-06
4.16581e-05
2.77218e-06
7.32663e-05
3.30761e-05
0.00173711
0.291651
0.440235
0.116027
0.168551
0.12895
1.61257e-13
1.47764e-07
4.58201e-05
5.50496e-06
5.30757e-05
2.14274e-13
1.85525e-13
0.0357757
0.440235
0.823878
0.817951
0.0779694
1.61403e-13
1.45996e-05
3.37944e-05
7.3814e-07
1.85292e-05
2.253e-06
8.45998e-09
1.61956e-13
0.425093
0.89451
0.894509
0.00267973
1.56151e-06
9.31471e-05
5.78093e-05
6.15554e-07
5.16103e-07
2.25381e-06
1.08829e-07
1.86373e-13
0.327588
0.894509
0.878073
3.96183e-06
3.62701e-06
9.43747e-05
4.62552e-05
5.6053e-06
4.99691e-07
5.02693e-06
1.29331e-13
0.0166837
0.415683
0.381952
0.335088
0.00343266
3.96183e-06
2.25593e-05
1.74323e-05
3.98866e-05
9.84363e-05
1.44205e-05
1.29345e-13
0.112035
0.440224
0.0797232
0.0756178
0.0176912
3.8711e-14
5.49656e-06
0.000686163
0.00158863
0.000503885
1.64503e-13
1.29264e-13
0.196023
0.440224
0.403539
0.0773811
3.56564e-14
5.23108e-13
0.000977944
0.00292557
0.00290096
0.000314781
1.60744e-13
1.29331e-13
0.224463
0.440224
0.63751
0.0837038
0.104818
2.08144e-14
5.04228e-13
3.39092e-15
5.03582e-13
0.00530588
0.000266777
1.55843e-13
0.27901
0.440224
0.590483
0.364649
0.457372
0.394602
0.191739
0.189238
0.213682
0.0986826
0.0192748
0.210656
0.457985
0.23772
0.218804
0.411822
0.296961
0.383665
0.383285
0.382966
0.3827
0.103125
0.0695326
0.47788
0.460897
0.0489832
0.970487
0.940978
0.327958
1.05373e-13
1.46044e-13
0.000130289
0.000405968
0.000269035
5.23864e-06
4.86655e-06
3.99733e-13
0.00219819
0.970486
0.970486
0.596495
1.06522e-13
1.46527e-13
5.8781e-05
0.000381215
0.000379928
3.38966e-05
2.31304e-07
3.33088e-13
3.69101e-13
0.970486
0.944805
0.694436
1.45254e-13
3.18672e-06
3.20517e-06
5.68888e-05
0.000293585
1.3203e-05
0.000675234
0.0470169
0.173439
0.935014
0.652411
0.70309
0.353395
3.20517e-06
0.00214697
0.00050762
5.08252e-06
5.32133e-06
9.28148e-05
0.356646
0.817687
0.844159
0.601811
0.674329
0.692483
3.22386e-06
0.00453106
0.00404831
0.000874682
0.0021128
5.34903e-13
0.111943
0.452456
0.832753
0.601811
0.601811
0.862059
0.241206
0.00371785
0.00334615
1.87579e-05
0.000604569
0.123891
0.217898
0.229125
0.960432
0.601821
0.656784
0.914213
0.694304
0.0860398
0.00289923
0.00261447
0.000213189
0.0418336
0.404077
0.53366
0.931637
0.793155
0.840448
0.914931
0.914213
0.691951
0.240494
0.0941648
0.0397323
0.0602758
0.326503
0.504186
0.863775
0.8637
0.863625
0.743519
0.90959
0.9771
0.914373
0.777162
0.701654
0.733414
0.784829
0.713465
0.843506
0.715255
0.841587
0.650313
0.651981
0.978343
1
1
1
1
1
0.990302
0.837091
0.276788
0.594251
0.785956
0.610112
0.65784
0.909616
0.945045
0.970314
0.995464
1
0.999722
0.305092
0.0854321
0.1019
0.819883
0.643607
0.530608
0.530608
0.599452
0.944309
0.999637
0.999698
0.995702
0.164575
0.49306
0.578312
2.87889e-13
2.00972e-05
1.58003e-05
2.01025e-05
2.33585e-06
2.62196e-10
4.82118e-07
7.91451e-06
1.20804e-08
0.227805
0.493163
0.128953
2.87972e-13
3.31439e-13
4.79285e-05
7.96496e-05
2.62211e-10
2.62225e-10
2.62224e-10
4.15524e-05
0.0383348
0.777643
0.664834
3.48631e-13
3.17892e-13
5.45217e-06
7.99698e-05
7.99824e-05
6.1053e-06
1.72423e-05
1.81605e-05
2.05804e-13
0.548036
0.820621
0.820341
0.00743999
3.21465e-13
6.66618e-06
7.99824e-05
7.99698e-05
9.34103e-06
7.41332e-05
3.60355e-05
2.21221e-13
0.80762
0.62385
0.820621
0.0668507
3.50356e-13
3.39586e-06
2.34735e-05
1.30752e-05
1.59826e-05
7.63175e-05
2.23526e-05
0.0757609
0.82846
0.313086
0.511151
0.0641801
3.79144e-13
2.12538e-08
2.77928e-06
2.95266e-06
3.26551e-05
4.32404e-05
2.43287e-05
0.617884
0.929631
0.587401
0.000595229
0.00290433
3.80096e-13
3.75896e-13
8.34986e-05
1.38855e-05
1.96676e-05
6.33797e-06
0.232227
0.880142
0.93519
0.740407
0.39408
0.000595229
1.87581e-05
0.00481465
4.53206e-06
4.4996e-06
4.4996e-06
5.24799e-06
0.719047
0.935242
0.935217
0.851842
0.853268
0.710632
0.404437
0.00645286
4.4996e-06
4.4996e-06
4.4996e-06
0.398905
0.926018
0.935217
0.93519
0.830762
0.851842
0.611933
0.164606
4.4996e-06
4.4996e-06
0.0138331
0.170095
0.834399
0.93517
0.93519
0.915622
0.704533
0.344483
0.0265633
0.00826667
0.00614041
0.0464045
0.299397
0.822296
0.958008
0.924073
0.93517
0.882398
0.938796
0.787233
0.522339
0.568993
0.694629
0.854089
0.956676
0.958017
0.958008
0.793104
0.799391
0.838995
0.779988
1.14768e-12
0.0161612
0.147072
0.0934065
3.37544e-13
3.88398e-13
0.000246089
0.000248361
7.75327e-05
1.66936e-13
1.96512e-13
0.794478
1.14201e-12
0.0147951
0.146908
0.115788
3.39092e-13
0.00159748
6.59609e-05
0.000134254
0.00014432
3.34869e-06
2.05019e-13
0.734027
1.14238e-12
0.00137222
0.0337035
0.0591776
3.54808e-13
0.00554718
0.00502652
2.83594e-05
4.04297e-05
0.000293185
0.00342843
0.702418
1.17504e-12
1.21611e-12
0.0272899
0.107254
0.00346699
0.00373384
0.00811247
0.00329197
5.22943e-14
8.17858e-14
0.0117337
0.862256
0.184739
1.23247e-12
0.0491277
0.286852
0.15076
2.77139e-05
4.75379e-05
5.69734e-14
5.14746e-14
5.14759e-14
8.67516e-14
0.945951
0.488761
1.25194e-12
0.0662911
0.346985
0.335508
0.0337867
0.0134279
0.0878581
0.167267
0.142839
0.181937
0.963376
0.69591
0.0207976
0.0394529
0.321676
0.359438
0.194164
0.141151
0.414882
0.415111
0.414882
0.369006
0.963376
0.79959
0.295508
0.0361501
0.131424
0.358796
0.208746
0.105165
0.118756
0.213053
0.352053
0.410818
0.935279
0.935247
0.68903
0.0471869
0.0468508
0.248318
0.370566
0.220462
0.134981
0.135734
0.264733
0.412867
0.892814
0.919166
0.868012
0.435639
0.0477949
0.0659286
0.427124
0.464461
0.46282
0.426215
0.328842
0.29172
0.922944
0.695274
0.750102
0.862202
0.529549
0.22905
0.227035
0.466883
0.677695
0.614558
0.355256
0.291366
0.932629
0.70918
0.592527
0.870368
0.884704
0.738118
0.71955
0.704625
0.680286
0.6216
0.678167
0.507379
0.0295331
0.755976
0.999951
0.999951
0.999564
0.671774
0.0296992
0.0295575
0.0301527
0.0295574
0.0295602
0.929862
0.00479977
0.51848
0.999951
0.999951
0.999951
0.113077
0.0295225
0.0295326
0.0297349
0.0295017
0.0297231
0.90202
0.00137403
0.0464177
0.724762
0.896677
0.56823
0.0296289
0.0295728
0.029528
0.0295087
0.0294995
0.264167
0.897202
0.109223
0.0314036
0.615016
0.655683
0.0378185
0.0319997
0.0304677
0.0295065
0.0294995
0.0294436
0.777544
0.965043
0.291383
0.627764
0.921955
0.884019
0.442121
0.332947
0.0477777
0.0295647
0.0295087
0.23372
0.86921
0.980835
0.287379
0.963556
0.963556
0.963556
0.961049
0.843664
0.147286
0.0295743
0.338122
0.700686
0.535111
0.93073
0.186604
0.942763
0.963556
0.963556