/*--------------------------------*- C++ -*----------------------------------*\
| =========                 |                                                 |
| \\      /  F ield         | OpenFOAM: The Open Source CFD Toolbox           |
|  \\    /   O peration     | Version:  v1606+                                |
|   \\  /    A nd           | Web:      www.OpenFOAM.com                      |
|    \\/     M anipulation  |                                                 |
\*---------------------------------------------------------------------------*/
FoamFile
{
    version     2.0;
    format      ascii;
    class       volScalarField;
    location    "2.9";
    object      alpha.water;
}
// * * * * * * * * * * * * * * * * * * * * * * * * * * * * * * * * * * * * * //

dimensions      [0 0 0 0 0 0 0];

internalField   nonuniform List<scalar> 
11640
(
1.00000011306
1.00000012444
1.00000016623
1.00000026103
1.00000011776
1.00000057771
1.00000025609
1.00000010396
1.00000008453
1.00000000005
1.00000096538
0.999999983369
1.00000013169
1.00000000001
1.00000069098
1.00000000024
1.00000012368
1
0.999999964175
0.999999578397
1.00000016103
1.00000024077
1.00000045565
1.00000013047
1.00000000808
1.0000000968
1.0000000988
1.00000019523
0.999999936576
1.00000009418
1.00000000011
1.00000030933
0.99999997735
1.00000018558
0.999999992467
1.00000038264
1.00000001617
1.00000007068
1.00000000771
0.999999606073
1.00000020048
1.00000034392
1.0000001954
1.00000023252
1.00000001764
1.00000000535
1.00000006179
0.999999989507
0.999999896717
0.999999999847
1.00000004804
0.999999996664
1.00000010427
0.999999997569
1.00000010709
0.999999991962
1.00000019616
1.00000000254
1.00000004952
0.999999731128
1.00000015634
1.00000024282
1.00000013451
1.00000023805
0.999999946014
0.999999719426
0.999999725918
0.999999832641
0.999999999944
1.00000001942
0.999999997848
1.00000009639
1.00000000012
1.00000012135
0.999999962133
0.999999983982
0.999999984812
1.00000000384
1.00000001063
0.999999936631
1.00000000516
1.00000000942
1.00000006728
0.999999938525
0.999999596641
0.99999967885
0.999999788135
0.999999910539
0.999999930625
1.00000000578
1.00000005305
1.00000000066
1.00000012713
0.999999957187
0.999999924934
1.00000000188
1.00000013888
1.00000000032
1.00000005406
0.999999434324
1.00000001741
0.99999994085
1.0000000124
1.00000000874
0.999999723655
0.999999790526
0.999999886199
0.999999942117
1.00000000331
1.00000009279
1.00000003341
1.00000010373
0.999999927587
0.999999882103
0.999999918426
1.00000019366
0.999999989421
1.00000006295
1.00000001078
0.999999201673
1.000000021
1.00000001724
1.00000015402
0.999999991366
0.999999848793
0.9999998941
0.999999928963
1.00000000186
1.00000000659
1.00000000994
1.00000011078
0.999999908896
0.999999932123
0.999999901305
0.999999940627
0.999999989603
0.999999998242
0.999999978844
0.999999205774
0.999999238876
1.00000019063
1.00000010881
0.999999996897
1.00000024214
1.00000000144
1.00000001092
1.00000000049
1.00000000482
1.00000000107
0.999999990683
0.999999899847
0.999999999017
1.00000010409
1.00000001925
1.00000000552
1.00000002526
1
0.999999433408
0.999999067797
0.999999231012
1.00000000477
1.00000000158
1.00000003516
1.00000000559
1.0000002868
1.00000000322
1.00000001467
1.00000000446
1.00000009824
1.00000000758
1.0000002945
1.0000000195
1.0000001168
1.00000002456
1.00000002019
0.999999892458
0.999999970338
0.999999051376
0.999999103341
0.999999218999
1.00000010807
0.999999899075
0.99999981461
1.00000025845
1.00000000737
1.00000004609
1.00000014582
1.00000019847
1.00000004872
1.00000060919
1.00000003805
1.00000029514
1.00000005109
1.00000005852
0.999999607902
0.999999128694
0.999999659035
0.999998974715
0.999999186703
0.999999106889
1.00000045258
0.999999701558
0.999999702174
1.00000000544
1.00000009149
1.0000000558
1.00000022783
1.00000014234
1.00000070745
1.00000014225
1.00000032394
1.00000005296
1.00000012764
0.999999350947
0.999998911126
0.99999893412
0.999999558752
0.999998974715
0.999999208107
0.999999103011
1.00000000719
0.999999930849
0.999999998531
1.00000000154
1.00000004587
1.00000016589
0.999999750609
1.00000021127
1.0000001066
1.00000041845
1.00000012299
0.999999653227
0.999998793401
0.999999123028
0.999999311825
0.9999992973
0.999999872473
0.99999945148
0.999999111944
0.999999100467
1.00000023763
1
1
1.00000000026
1.00000002992
0.999999769144
0.999998961431
0.999999095231
0.999999222433
0.999999501598
0.999999536648
0.999999054136
0.999999098191
0.99999948029
0.999999642064
0.999999675809
0.99999986286
0.999999716412
0.999999393305
0.999999100466
0.999999992916
1.0000000029
1.00000000005
1.00000002027
0.999999884303
0.999999434318
0.999998960616
0.999999037902
0.999998939558
0.999998921589
0.999999048265
0.999999057533
0.999999729842
0.999999711982
0.999999821584
0.999999863044
0.999999841474
0.999999702487
0.999999642634
0.999999655566
1
0.999999911075
1.00000000759
0.999999988462
0.999999874004
0.9999994104
0.999999059251
0.999999009851
0.999998991074
0.99999891632
0.999998967991
0.9999995688
0.999999932392
0.999999967469
1.00000008649
1.00000000715
0.999999946769
0.999999702358
0.999999722188
0.999999813664
0.999999383781
0.999999620741
0.999999855378
0.999999888035
0.999999316975
0.999999474119
0.999999088419
0.999999088511
0.99999891632
0.99999891632
0.999999192841
0.999999347226
0.999999985953
1.000000132
1.00000000522
1.00000008763
1.00000000661
1.00000031633
0.999999949821
0.999999995071
0.999999089173
0.999999035345
0.999999153607
0.999999324978
0.999999212265
0.999999438325
0.999999614053
0.999999467194
0.99999891635
0.99999891632
0.999999770657
1.0000000034
1.00000021617
1.00000000493
1.00000008949
1.00000000367
1.00000007191
1.00000004303
1.00000007793
1.00000000345
0.999999260758
0.999999065337
0.999999290806
0.999999232425
0.999999181251
0.999998779107
0.99999921756
0.99999903413
0.999998986494
0.999999771914
1.0000000002
1.0000002782
1.00000000288
1.00000005745
1.00000000269
1.00000004879
1.00000000863
1.00000008612
1.00000000286
0.999999998332
0.999999747245
0.999999019179
0.999999213705
0.999999385627
0.999998752071
0.999998731602
0.999998498923
0.999998894634
0.9999992562
1.00000000199
1.00000025431
1.00000000016
1.00000002647
1.00000006877
1.00000002658
1.00000000335
1.00000001512
1.00000000126
1.00000006956
0.999999665318
0.999999789981
0.99999892289
0.999998913082
0.99999851285
0.999998478588
0.99999835835
0.999998358351
0.999998421187
0.999999223125
1.00000023087
1
1.00000002197
1.00000028978
1.0000000217
1.00000019494
1.00000002406
1.00000013856
1.00000000062
0.999999762676
0.999999630231
1.00000009988
1.00000014743
1.00000024317
1.0000001321
1.00000000139
1.00000001806
1.00000003237
1.00000027232
0.999999999648
1.00000057811
1.00000000023
1.00000018745
1.00000000239
1.00000047301
1.00000019547
1.00000054281
1.00000001656
1.00000002103
0.999999960712
0.999999569517
1.00000038348
1.00000030177
1.00000021425
1.00000010766
1.00000000017
1.00000000217
0.99999982464
0.999999732131
0.999999844774
0.999999967574
0.999999928861
1.00000006429
1.00000004254
1.00000000459
1.000000262
1.0000000109
1.00000040869
1.00000009886
1.0000000011
0.999999598018
1.00000026799
1.00000034707
1.00000013036
1.00000073675
1.0000000001
1.00000000153
1.00000000001
0.999999863836
0.999999818145
0.999999792923
0.9999999263
0.999999902092
0.999999999063
1.00000002355
1.00000000145
1.00000010426
1.00000000001
1.00000022379
1.00000001116
0.999999662929
1.00000019739
1.00000013864
1.00000002146
1.00000000205
1.00000000048
0.999999621625
0.999999455228
0.999999485051
0.999999725255
0.9999997583
0.999999762878
0.999999999909
1.00000002273
0.999999994796
1.00000003086
0.99999999629
1.00000027204
1.00000001077
1.00000026025
0.999999452731
1.00000003666
1.00000013143
1.0000000245
1.00000006921
0.999999637157
0.999999713691
0.999999625121
0.999999784869
0.999999879486
0.999999794076
1
1.00000000951
1.00000030487
1.00000000585
1.00000000009
1.0000001343
1.00000001953
1.0000004379
0.999999991266
0.999999096321
1.00000001057
0.99999996485
1.00000022942
0.999999992523
1.00000010371
0.999999865615
0.999999824058
0.999999906263
0.99999992709
1
0.999999995925
1.00000000179
1.00000002131
1.00000000026
1.00000005287
1.00000001157
1.0000006672
1
1.00000003268
0.999999096321
1.00000000121
0.999999999907
1.00000004859
1.00000004269
0.999999998427
1.00000003799
0.99999990378
0.99999994921
1.0000000048
1.000000064
1.00000002141
1.00000011207
1.00000000074
1.00000012658
0.999999999858
1.0000001426
0.999999967767
0.99999982004
0.999999460717
0.999999209069
1.00000003589
0.999999964402
1.00000021592
1
1.00000018673
0.999999975667
0.999999957536
1
1.00000003618
1.00000002124
1.00000010513
0.999999998793
1.00000023166
1.00000000866
1.00000040891
0.999999950281
0.999999993921
0.999999999038
0.999999114087
0.999999113631
1.00000026756
0.999999974463
0.99999999542
1.00000019221
1.00000000001
1.0000000737
0.999999993006
1.00000003365
1.00000000921
1.00000008547
1.00000000141
1.00000043387
0.99999997593
0.999999209972
1.00000001256
0.999999947382
1.00000000316
1.0000000002
0.999999181121
0.999999109255
1.00000005139
1.00000000259
1.00000021032
1.00000000021
1.0000009296
1.00000005432
1.00000007721
1.00000001427
1.00000008383
1.00000000186
1.00000042077
0.999999899829
0.999999116439
0.99999848786
0.999999380608
1.00000000494
1.00000000049
0.999999885581
0.999999291975
0.999999105956
1.00000002579
1.00000004615
1.00000000098
1.00000138773
1.00000006609
1.00000011816
1.00000008014
1.00000031941
1.00000002921
1.00000036074
1.00000000797
0.999999418608
0.999998465267
0.999998474651
0.999999508957
1.00000000005
1.00000003035
0.999999439101
0.999999308052
0.99999910431
1.0000005161
1.00000000744
1.00000002447
1.00000000094
1.00000009377
1.00000024452
1.00000044889
1.00000006778
1.00000058212
1.00000004945
0.999999884405
0.999998953545
0.999998266377
0.999998847945
0.999999421164
1.00000001163
1
0.999999106016
0.999999104272
0.999999102052
1.00000000572
1.00000004324
0.999999993489
1.00000011723
1.00000016848
1.00000047064
1.00000010251
0.999999930671
0.999999585788
0.999999821575
0.999999460069
0.999999048766
0.999998703679
0.999999120546
0.999999412166
1.000000005
1.0000000032
0.999999255118
0.999999102054
0.999999100471
0.999999951764
1.00000000767
1.00000006017
1.00000001566
1.00000027353
1.00000005
1.00000048592
0.999999430679
0.999999172199
0.999999446024
0.999999185331
0.9999990701
0.999999257341
0.999999548749
0.999999949752
0.99999991056
1.00000003453
0.999999702226
0.999999541438
0.999999150653
0.999999875535
1.00000006576
1.00000000089
1.00000015354
1.00000002982
1.0000000987
0.999999809
0.99999922124
0.9999990156
0.99999917907
0.99999967565
0.999999704674
0.999999859045
0.999999935948
0.999999949145
1.00000002384
0.999999983244
0.999999718873
0.999999684092
0.999999989871
0.999999773558
1.00000000078
1.00000004086
0.999999829394
1.00000007719
0.999999876174
0.999999520509
0.999999478786
0.999999162405
0.999999334156
0.999999647488
1.00000000106
1.00000000703
0.999999971402
0.999999949866
1.00000000597
0.99999999302
0.99999996271
1.0000000733
1.00000001897
0.999999099336
0.999999309753
0.999999949269
0.999999915968
0.999999880459
0.999999551135
0.999999646547
0.999999673503
0.999999156423
0.999999707887
1.00000000351
1.00000005689
1.0000000007
1.00000000193
0.999999981969
1.00000002211
0.999999991136
1.00000006106
1.00000000881
1.00000008806
0.999999094576
0.999999128247
0.999999784375
0.999999999437
0.999999747835
0.999999666233
0.999999693218
0.999999685076
0.999999468132
1.00000000519
1.00000008884
1.00000000108
1.0000000164
1.00000000042
1.0000000017
0.999999994125
1.00000000826
1.00000000534
1.00000018491
1.00000000045
0.999999266996
0.999999742619
0.999999458326
0.999999641229
0.999999427835
0.999999356241
0.999999037434
0.999999682586
1.0000000175
1.00000010123
1.00000000046
1.00000002987
1.00000000185
0.999999983428
1.00000000121
0.999999982978
1.00000000008
1.00000000871
1.00000000004
0.999999609975
0.999999855014
0.999999725019
0.99999961769
0.999998702262
0.999998482054
0.999998425339
0.999999328536
1.0000000392
1.00000022061
1
1.00000009652
1.00000002986
1.00000004647
1.00000000336
1.00000011981
1.00000000642
1.00000000688
1.00000027665
1.00000000001
0.999999501315
1.00000016669
1.00000016622
1.00000018205
1.00000022397
1
1
0.999999964329
0.999999782703
0.999999846924
0.999999825734
1.00000007737
1.00000041232
1.00000017762
1.00000013598
1.00000100274
1.00000003395
1.00000002396
1.00000011571
0.999999918634
0.999999573903
1.00000015383
1.00000022794
1.00000008432
1.0000002932
0.999999999997
0.999999999996
0.999999924381
0.999999757595
0.999999721758
0.999999769265
0.999999783787
0.999999910713
1.00000002661
1.00000010428
1.0000001472
1.00000045161
1.00000006835
1.00000014464
1.00000000537
0.999999548264
1.00000041593
1.00000009002
1.00000016915
1.00000000032
0.999999319291
0.999999960345
0.99999995768
0.999999910345
0.99999987997
0.999999778662
0.999999779314
0.99999983224
0.999999884933
1.00000024664
1.00000004009
1.00000055302
1.00000013915
1.00000015741
1.00000014148
0.999999655176
1.00000016352
1.00000009413
1.00000004932
0.999999995404
0.999999992184
0.999999357535
0.99999962264
0.999999475175
0.99999953116
0.999999572324
0.999999760608
0.999999839636
1
1.0000000052
1.00000042202
1.00000002636
1.00000015314
1.00000034074
1.00000001013
0.999999523588
1.00000013747
1.00000004012
1.00000018599
0.9999999505
0.999999835613
0.999999797445
0.999999645109
0.999999787719
0.99999967641
0.999999786253
0.999999838805
0.999999915296
0.999999947799
1.00000026692
1.00000000662
1.00000027616
1.00000023088
1.000000024
1.0000004564
0.99999938879
1.00000022365
1.00000043097
1.00000002061
1.00000008246
1
1.00000009088
0.999999956479
1.00000001294
0.999999927924
0.999999923873
0.999999892848
0.999999921404
1
1.00000000449
1.00000004378
1.00000016056
1.00000000082
1.00000034896
0.999999984142
0.999999096321
1.00000011304
1.00000003609
1.00000024636
0.999999995448
1.00000008302
1
1.0000001001
0.99999997637
0.999999971217
1
1.00000004037
1.00000000016
1.00000004545
1.00000023914
1.00000018114
1.00000006492
1.00000073063
0.999999957956
0.999999967109
0.999999121946
1.0000000006
1.00000001268
1.00000005372
1.00000003242
1.00000016799
1.00000017792
0.999999985764
1.00000004728
0.999999996369
1.00000001273
1.00000000006
1.00000004089
1.00000000106
1.00000041055
1.00000003407
1.00000046561
0.999999973309
0.999999836627
0.999999644604
0.999999236741
1.00000023154
0.999999968137
1.00000014176
1.00000000001
1.00000011258
1
1.00000021878
0.99999998027
1.00000001326
1.00000000001
1.00000003452
1.00000000003
0.999999439994
0.999999298073
1.00000037015
0.999999947227
0.999999959483
0.999999982995
0.999999679585
0.999999278432
1.0000000025
0.999999981034
0.999999997345
1.00000033127
1.00000000004
1.00000035202
1.00000000431
1.00000009341
0.999999987839
0.999999989199
1.00000000008
1.00000010127
0.999998307266
0.999999302848
1.0000000295
1.00000001857
1.00000000451
1.00000000103
0.999999750698
0.999999109433
1.00000048246
1.00000001428
1.00000054054
1.00000000027
1.00000158535
1.00000000971
1.00000028714
0.999999963712
1.00000004525
1.00000000004
1.00000002817
0.999998893014
0.999998259208
0.99999910225
1.00000006043
1.0000001951
1.00000001001
1.00000004286
0.999999758353
0.999999105956
0.999999986785
1.00000009487
0.999999969077
1.00000165455
0.999999947746
1.00000003849
1.00000003888
1.00000009896
1.00000000253
0.999999871422
0.9999995632
0.999998349875
0.999998251283
0.999998328278
1.00000000575
1.00000000158
1.00000007523
0.999999490633
0.999999525426
0.999999104309
0.999999992866
1.00000000843
1.00000008038
0.999999999825
1.00000034102
1.00000003317
1.00000016339
1.00000001556
1.00000013915
0.999999597946
0.999999045876
0.99999826997
0.999998261273
0.999998299538
1.00000002206
1.00000001469
1
0.999999395586
0.999999337407
0.999999102053
0.99999990841
1.00000011444
1.00000000044
1.00000041956
1.00000005152
1.00000017499
1.00000001593
1.00000013546
1.00000000147
0.99999917914
0.999999058789
0.99999872275
0.999998774231
0.999998962827
1.00000000576
1.00000007779
1.00000000091
0.999999433226
0.999999605834
1.00000003038
0.999999946143
1.00000000231
1.00000029311
0.999999957299
1.00000028015
1
1.00000026518
1.00000000591
1.00000014725
0.999999244298
0.999999329882
0.999999019645
0.999999569619
0.999999887186
1.00000001942
1.00000001589
1.00000012592
0.999999979197
0.999999727785
1.00000002755
1.00000000144
1.00000009998
0.999999958324
0.99999993403
0.999999973024
1.00000015355
1.00000000128
1.00000016732
0.999999798455
0.999999271524
0.999999628833
1.0000000253
0.999999961692
0.99999993511
0.999999892587
1.00000033762
1.00000005015
1.00000008164
0.999999917467
1.00000019473
0.999999246718
1.0000000004
0.999999991214
0.999999889024
0.999999936502
1.00000000033
1.00000007885
0.999999732596
0.99999950168
0.999999989183
1.00000004893
1.00000000358
1.00000001942
0.999999999462
0.999999948862
1.00000006294
1.00000021606
0.999999986424
1.00000004495
1.0000000021
0.999999246688
1.00000000162
0.999999988723
0.999999991178
0.999999999735
0.999999775651
1.0000000125
1.00000003429
1.00000001652
1.00000005695
1.00000000372
1.00000001799
0.999999998105
0.999999981448
0.999999999999
1.00000007847
0.999999991698
1.00000000881
1.0000000008
1.00000003533
0.999999330874
0.999999994351
1.00000000047
1.00000000724
1.00000000303
0.999999663077
1.00000001205
1.00000001574
1.00000002416
0.999999998673
0.999999991808
0.999999985549
0.999999966887
0.999999938598
0.999999786403
0.999999952448
0.999999982094
0.999999999013
1.00000000971
0.999999891679
0.999999864746
0.999999956642
0.999999953758
0.9999999367
0.999999142649
1.00000002797
1.00000001273
1.00000003074
0.999999989365
1.00000003431
1.00000000109
1.0000000289
0.999999993641
1.00000010335
0.999999999814
1.00000000957
1.00000000003
1.0000000025
1
0.999998992784
1.00000007357
1.00000029099
1.00000009212
1.00000047264
1
1.00000000014
1.00000000362
0.999999729667
0.999999752714
0.999999768433
1.0000000012
1.00000004541
1.00000093264
1.00000051896
1.00000003437
1.00000067498
1.00000011319
1.00000001545
0.99999980126
0.999999534889
1.00000057869
1.00000002802
1.00000000089
1
0.999999367782
0.999999992352
0.999999977343
0.999999785041
0.999999726819
0.9999997107
0.999999755544
0.999999799184
0.999999925493
1.00000018656
1.00000011069
1.00000020684
1.00000035682
1.0000001687
1.00000005354
0.999999526564
1.00000009408
1.00000000011
1.00000000084
1
0.999999262002
0.999998628875
0.999999857826
0.99999989205
0.999999858437
0.999999851015
0.999999854938
0.999999860958
0.999999814698
0.999999938842
1.00000008319
1.00000007239
1.00000056564
1.00000012726
1.00000001341
0.999999682678
1.00000005776
1.00000000059
1.00000078931
0.999999999272
0.999999213154
0.999999976918
0.999999332868
1
0.999999843543
0.999999661337
0.999999619658
0.999999755834
0.999999780852
0.999999996118
1.00000001137
1.0000010072
1.00000008419
1.00000035798
1.00000021005
0.999999517478
1.00000006376
1.0000000539
1.00000001121
1.00000011885
0.999999842061
1.00000002048
0.999999979111
1.00000014039
0.999999658166
0.999999665528
0.999999730037
0.999999822206
0.999999938598
0.999999956551
1.00000044586
1.00000000718
1.00000088539
1.00000012344
1.00000001899
0.999999427454
1.00000030912
1.00000003024
1.00000013259
0.999999980127
1.00000015603
0.999999997639
1.00000011476
0.999999989574
1.00000006944
0.999999965998
0.999999987215
0.999999903118
0.999999901419
1.00000000001
1.00000006015
1.00000081983
1.0000000476
1.00000000862
1.00000024902
0.999999244097
1.0000000038
1.00000031772
1.00000001164
1.00000001803
1
1.00000010866
0.999999991728
1.00000005441
0.999999992193
0.999999978653
1
1.00000005583
1.00000000005
1.00000007756
1.00000061318
1.00000037117
1.0000000643
1.000000789
0.999999996602
0.999999143368
1.00000008119
1.00000001007
1.00000020741
1.00000000002
1.00000003974
1
1.0000000706
1.00000000695
1.00000064039
1.00000001604
1.00000083641
0.999999836468
0.999999907855
0.999999145451
0.999999962229
1.00000007001
1.00000002636
1.00000003437
1.00000059959
1.00000011497
1.00000000196
1.00000002904
1.0000000901
1.00000064262
0.999999997913
0.999999642499
0.999999661944
0.999999469793
1.00000001054
0.999999997201
1.00000015333
0.999999998367
1.00000007056
1
1.00000011297
0.999999965892
1.00000037715
0.99999996225
1.00000001136
0.999999939575
0.999999724676
0.999999587807
1.00000002413
1.00000008389
1
1.00000080717
0.999999999896
1.00000061695
1.0000000389
0.999999725353
1.00000002166
1.00000002133
0.99999998605
1.00000000001
0.999999770366
0.999999580029
0.999999949935
0.999999994086
1.00000091519
0.99999998592
1.00000187211
0.999999994821
1.00000082908
1.00000000964
0.999999618132
0.999999491074
0.999999066678
0.999998468551
0.999998264033
0.999998981805
1.00000005913
1.00000001263
1.00000000063
0.999999710389
0.999999756391
0.999999479491
0.999999986797
1.00000007838
0.999999930759
1.00000098559
0.999999995913
1.00000086685
0.999999985706
1.00000019418
1.0000000081
0.999999561194
0.999998978578
0.999998265491
0.999998263162
0.9999986413
1.00000001445
1.00000007454
1.00000006568
0.999999570891
0.99999948724
0.999999876804
1.00000007154
1.00000000079
1.00000014811
0.999999876397
1.00000055518
1.00000000001
1.00000026156
1.00000000959
1.00000035869
1.00000002115
0.999998971073
0.999998330968
0.999998695393
0.999999282412
1.00000026379
1.00000045295
1.0000000005
0.999999709038
0.999999669288
1.00000001851
1.00000000166
1.00000018609
1.00000000205
0.999999985533
0.999999994024
1.00000031121
1.0000000014
1.00000067523
1.00000005235
1.00000024506
0.999999345245
0.999998845545
0.999999595318
0.999999757066
0.9999999922
1.00000010864
1.00000000852
0.999999984109
0.999999929015
1.00000017823
0.999999947373
1.00000000026
1.00000001937
0.999999889779
1.00000002158
1.0000000017
1.0000006472
1.00000002212
1.00000025792
0.999999518862
0.999999662975
0.99999982132
0.999999754752
0.999999913364
0.99999998662
1.00000004592
1.0000005004
0.999999966377
0.999999921714
1.00000000111
0.999999521612
0.99999981175
0.999999848232
0.99999990823
0.999999945188
1.00000022736
1.00000000687
1.00000011152
0.999999668595
0.999999710546
0.999999968323
0.999999848767
0.999999861521
0.999999878173
0.999999843649
1.00000042908
1.00000003952
0.999999925103
0.999999913439
1.00000003716
0.999999001252
0.999999993801
0.999999928045
0.999999968099
0.9999999768
1.00000000324
1.00000003609
1.00000003301
1.00000010798
1.00000000417
1.00000004159
1.00000000888
1.00000001753
0.999999999651
0.999999757893
0.999999960309
0.999999992603
0.999999979389
0.999999997686
1.00000000246
0.999999371467
1
1.00000000446
1.0000000094
1.00000001617
1.00000002142
1.00000001637
1.00000002492
1.00000000871
1.00000001986
0.999999998306
1.00000000249
0.999999999104
0.999999832622
0.999999986869
0.999999887452
0.999999985166
0.999999999016
1.00000000076
1.0000000026
0.999999748194
0.999999989026
1.0000000244
1.00000000002
1.00000002015
1.00000000424
1.0000000282
0.999999999913
1.00000001344
1
1.00000000065
1.00000000034
1.0000000147
0.999999995412
1.00000000128
1
1.00000000275
1.0000001334
1
0.999999109464
1.00000026453
1.0000001158
1.00000023625
1.00000002559
1.00000003726
1.00000000083
1.00000000641
1.00000006853
0.999999799068
0.999999787111
0.999999778829
1.0000007415
1.00000015758
1.00000021551
1.0000007782
1.0000000151
1.00000014289
1.00000003995
0.999999563336
0.999999426708
1.00000005409
1.00000000267
1.00000000014
1
1.00000002294
0.99999945132
0.999999981976
0.999999807195
0.999999894711
0.999999915556
0.999999751285
0.999999756076
0.9999999865
0.999999988158
1
1.00000018158
1.00000000017
1.00000018776
1.00000002356
0.99999948043
1.0000002535
1.00000000042
1.00000000058
0.999999601989
0.99999974888
0.999998985315
0.999998459004
0.99999983484
0.999999913109
0.999999917425
0.999999882173
0.999999884388
0.999999859922
0.99999985021
0.999999974872
1.00000001364
1.00000015862
1.00000059672
1.00000007972
0.999999248853
1.00000025386
1.00000009068
1.00000000098
1
0.999999799514
0.999998456551
0.999999985453
0.999999093229
0.999999999989
1.00000000003
0.99999995538
0.999999826404
0.999999713139
0.999999730899
0.999999996516
1.00000007287
1.00000095349
1.00000005079
1.00000002055
0.999999230695
1.00000004462
1.0000000018
1.00000002535
1.00000109763
1.00000176821
1.00000047918
1.0000014627
0.999999986314
1.00000104595
0.999999561046
0.999999835863
0.999999656784
0.999999706694
0.999999911826
0.999999940727
1.00000042723
1.00000002303
1.00000030978
1.00000028178
0.999999457919
1.00000001954
1.00000003384
1.00000000376
1.000000067
1
1.00000055126
0.999999975543
0.999999996768
0.999999971126
1.00000005902
0.999999991285
1.00000003516
0.999999837327
0.999999835847
1.00000000021
1.00000005138
1.00000108241
1.00000028818
1.00000000463
0.999999527428
1.00000010133
1.00000001787
1.00000005472
0.999999978087
1.00000004903
0.999999989897
1.0000000436
1
1.00000003867
1
1.00000012628
1.0000000057
1.00000033033
1.00000000349
1.0000003133
1.0000007976
1.0000002805
1.00000000001
1.00000012277
0.999999470767
0.999999999117
1.00000017126
1.00000000481
0.999999998675
1
0.999999969296
1
1.00000049879
1.00000006455
1.00000062613
1
1.00000081683
0.999999590318
0.999999169257
0.999999973117
0.999999998624
1.00000009907
1.00000000049
1.0000000152
1
1.00000001847
0.999999951998
1.0000008542
1.0000000009
1.00000108221
0.999999679668
0.999999701278
0.999999475014
0.999999985207
1.00000006402
1.00000000641
1.00000007231
1.0000005706
1.00000004979
1.00000001172
1.00000000227
1.000000025
1.00000075567
0.999999964524
0.99999999954
0.999999599632
0.999999598421
1.00000002909
1
1.00000022194
1
1.0000002099
1.00000016293
1.00000012206
1.00000000071
1.00000022433
0.999999990357
1.00000002874
0.999999869253
0.999999514328
0.999999537776
0.999999994994
1.00000006495
1
1.00000110722
1.00000000312
1.00000097098
1.00000008213
1.00000061021
0.999999645141
0.999999425627
0.999999266563
0.999998838616
0.999998634081
1.00000003662
1.00000002113
1.0000001496
1.00000000018
0.999999511681
0.999999581053
0.999999569473
1.00000002673
1.00000000004
1.00000062605
0.999999990944
1.00000194681
0.999999983141
1.00000154719
1.00000002472
1.00000026616
1.00000001282
0.99999923112
0.999998556073
0.999998809861
0.999999889313
1.00000032846
1.00000001125
1.00000000339
0.999999347327
0.999999341734
0.999999973493
1.00000000147
1.00000010566
0.999999943888
1.00000017675
1.00000001111
1.00000150054
1.00000001604
1.00000059254
1.00000005716
1.00000047884
0.999999770625
0.999999564472
0.999999570113
0.999999390273
1.00000005332
1.0000001672
1.00000001347
0.999999891708
0.999999223195
1.00000010142
1.00000005339
0.999999989274
0.999999986145
0.999999832052
1.00000037947
1.00000000064
1.00000080411
1.00000004455
1.00000094166
1.00000001329
0.999999588201
0.999999443522
0.999999618937
0.999999676352
1.00000028032
1.00000002519
1.00000007742
0.999999806973
0.99999961197
1.00000000049
1
1.00000013321
0.999999988561
0.999999843325
0.999999938552
1.00000063415
1.00000001269
1.00000077015
1.00000001001
0.999999937965
0.999999318755
0.999999428927
0.999999280861
0.999999649921
0.999999487354
1.00000054616
0.999999692755
1.00000000036
0.999999921707
1.00000002054
0.999999290537
0.999999803057
0.999999900649
0.999999914267
0.9999999485
0.999999990151
1.00000030093
0.999999999519
1.00000010738
0.999999722276
0.999999344617
0.999999442934
0.999999540451
0.999999301234
0.999999305532
0.999999336049
0.999999937072
1
0.999999971875
1
0.99999888561
0.999999989269
0.999999957798
0.999999949571
1
1.00000002949
1.00000001388
1.00000014458
1.00000000842
1.00000002299
1.00000000999
1.00000002869
0.999999740669
0.999999340467
0.999999658843
0.999999374637
0.999999999913
0.999999977896
0.999999981725
1.00000000719
0.999999575672
0.999999773376
1.00000000089
1.00000001152
1.00000002117
1.00000001091
1.00000002122
1.00000000474
1.00000002066
0.9999999998
0.999999985995
1.00000000009
0.999999991272
0.999999967691
0.999999944254
0.999999990629
0.999999924801
0.999999995356
1.00000000162
1.00000000111
0.999999677033
1.0000000022
1.00000001029
0.999999983325
1.0000000081
1.00000001398
1
0.999999950064
0.999999941891
0.999999979604
0.999999997164
0.999999850635
0.999999989047
0.999999657201
0.999999949444
1
0.999999997467
0.999999995391
1.0000002033
0.99999920012
1.00000019739
1.00000022724
1.0000000117
1.00000000418
1.00000004623
1.00000000302
1.00000007859
1.00000005129
0.999999922053
0.999999809777
1
1.00000000155
1.00000124745
1.00000033657
1.00000003205
1.00000120466
1.00000001769
1
0.999999872775
0.999999583598
1.00000033001
1.00000000292
1.00000000089
0.999999928949
1.00000016738
1.000000013
0.999999586477
0.999999999971
0.999999858658
0.999999995514
1.00000000176
0.999999898349
0.999999747886
1.00000000001
1.0000000762
1.00000000277
1.00000027762
1.00000000916
1.00000013574
0.999999789726
1.0000000307
0.999999999808
0.999999984503
0.999999730769
0.999999991312
0.999998836514
0.99999883629
0.999998650103
0.999999878766
0.99999978953
0.999999896582
0.999999919325
0.999999737796
0.999999623138
0.999999996353
1.00000010697
1.00000028633
1.00000005059
1.00000001172
0.999999240493
1.00000062915
1.0000000006
0.999999744028
0.999999983365
1.00000009451
0.999999291184
0.999999098724
0.999999138546
0.999999215467
0.999999999999
1.00000000001
0.999999998783
0.999999928397
0.999999679681
0.999999754354
0.999999998422
1.00000006382
1.00000114516
1.00000016093
0.999999185702
1.00000000847
1.00000000987
1.00000001988
1.00000021222
1.0000005752
1.00000177231
1.00000120186
1.00000185644
1.00000001966
1.00000227259
0.999999811292
0.999999994895
0.99999970371
0.999999720585
0.999999807658
1.00000011516
1.00000087992
1.00000011534
1.00000000469
0.999999250102
1.00000009141
1.00000000213
0.999999860509
0.999999892373
0.999999723625
1.00000026839
1.00000015431
0.999999935842
1.00000001405
0.999999985195
1.00000005125
1.00000000006
1.00000042901
0.999999797867
0.999999902241
1.00000027237
1.00000002714
1
1.00000039052
0.999999479427
1.00000002157
1.00000001593
1
0.999999850944
0.999999986558
0.999999795214
0.999999856537
0.999999967242
1
1.00000015925