/*--------------------------------*- C++ -*----------------------------------*\
| =========                 |                                                 |
| \\      /  F ield         | OpenFOAM: The Open Source CFD Toolbox           |
|  \\    /   O peration     | Version:  v1606+                                |
|   \\  /    A nd           | Web:      www.OpenFOAM.com                      |
|    \\/     M anipulation  |                                                 |
\*---------------------------------------------------------------------------*/
FoamFile
{
    version     2.0;
    format      ascii;
    class       volVectorField;
    location    "4.5";
    object      ddt0(U);
}
// * * * * * * * * * * * * * * * * * * * * * * * * * * * * * * * * * * * * * //

dimensions      [0 1 -2 0 0 0 0];

internalField   nonuniform List<vector> 
11640
(
(-0.0133972471205 -0.0106638443811 0.0160914891481)
(-0.0387079015975 -0.0119535035116 0.0160264146362)
(-0.0623042475624 -0.0117191135284 0.0155343933846)
(-0.0847193942521 -0.0114869957859 0.0147302403856)
(-0.104833292891 -0.0111897975048 0.0136268864328)
(-0.121822578389 -0.0108497548721 0.0122534818698)
(-0.13510455464 -0.010487328978 0.0106629266585)
(-0.144381332213 -0.0100609835611 0.00891988238934)
(-0.149484725771 -0.00946653512069 0.00710233858086)
(-0.150383336552 -0.00871659768689 0.00526595231997)
(-0.147442360764 -0.00784871449677 0.00344569903953)
(-0.141040653135 -0.00684993786394 0.0017065975871)
(-0.131601330022 -0.0058175687526 0.000114175094688)
(-0.119602282196 -0.00484461385314 -0.00132341043651)
(-0.105416117791 -0.00394590536395 -0.00256416539443)
(-0.0892997075675 -0.00319307013595 -0.00366075878382)
(-0.0714913755845 -0.00259973863286 -0.00458876393606)
(-0.0523061834643 -0.00212992106581 -0.00531986779422)
(-0.0322856337309 -0.0017187354882 -0.00579535388768)
(-0.0110274651015 -0.00162446787149 -0.00631245271266)
(-0.0146938758982 -0.0320318225233 0.0155170752328)
(-0.039745513188 -0.0339555559054 0.0162582029974)
(-0.0618205265526 -0.0331435751233 0.0155266169974)
(-0.0842011828382 -0.0324389308121 0.0146285083038)
(-0.104212663869 -0.031687751816 0.0134120687962)
(-0.121129853235 -0.0308662346237 0.0119230353737)
(-0.134306138123 -0.029935978327 0.0102099996845)
(-0.143359307596 -0.0287510691424 0.00836237964721)
(-0.148140235985 -0.0270940570502 0.00636690714082)
(-0.1487588929 -0.0249457888651 0.00443739039886)
(-0.1455700226 -0.0223323203959 0.00256206776277)
(-0.139015805001 -0.0193977937426 0.000830337485231)
(-0.129612104073 -0.0163586865424 -0.000697036185998)
(-0.117746035755 -0.0134799171745 -0.0020336848795)
(-0.103767747718 -0.0108843390268 -0.00319520726753)
(-0.0879295395036 -0.00873949448025 -0.00425561907493)
(-0.0703719675835 -0.00706065352477 -0.0051743604344)
(-0.0513775675391 -0.00576121278972 -0.00586598776468)
(-0.0316996140617 -0.00478007303495 -0.00628177299261)
(-0.0108699601448 -0.00453610971458 -0.00620039296197)
(-0.0153698095924 -0.0529618325744 0.0146442085397)
(-0.0398471594056 -0.0533821791845 0.0158271050353)
(-0.0608293632115 -0.0523394423698 0.0148447871687)
(-0.0833099365128 -0.0512119922333 0.0139833382469)
(-0.103282510586 -0.0500424874789 0.0129502384075)
(-0.120077728319 -0.048884062872 0.0115848053189)
(-0.132988275738 -0.0476611234483 0.009798007342)
(-0.14161807547 -0.0458799196606 0.00780318289703)
(-0.145734064035 -0.0432958325765 0.00570240917315)
(-0.145651805455 -0.0396789378895 0.00369369491571)
(-0.141938539336 -0.035155270875 0.0018034366543)
(-0.135114910545 -0.0302615022801 0.000151123232424)
(-0.125743875847 -0.0252580769188 -0.00117929278359)
(-0.114198300082 -0.020604571881 -0.00229134527986)
(-0.100728606192 -0.0165035493577 -0.00325935162463)
(-0.0854716406309 -0.0131386996096 -0.00421988444741)
(-0.0684317627656 -0.010523239636 -0.00512864197291)
(-0.0498867943415 -0.00860324392252 -0.00586715560059)
(-0.0308592844073 -0.00734329212936 -0.00631236353127)
(-0.0106421170512 -0.00688940795398 -0.00602771495096)
(-0.0151745445412 -0.0720187955799 0.0136914924722)
(-0.0391851133695 -0.0711910613174 0.0149284292241)
(-0.0597379913782 -0.070037502657 0.0140666002901)
(-0.081898213193 -0.0685575436486 0.0135022649177)
(-0.101726305231 -0.0670742105805 0.0127164931379)
(-0.118514730377 -0.0656962079112 0.01141687363)
(-0.131173571924 -0.0644422093116 0.00952427579136)
(-0.139068790539 -0.0621478445261 0.00727821235999)
(-0.142107661823 -0.0585420028291 0.00499941509133)
(-0.140813800148 -0.0528012871634 0.00286626072603)
(-0.136391566777 -0.0456238858306 0.000965554789012)
(-0.129353842436 -0.0385546119081 -0.000578788386196)
(-0.120209211273 -0.0318152512356 -0.00163056136362)
(-0.109301159292 -0.0260543182579 -0.00244813541228)
(-0.096647264011 -0.0209923512035 -0.00310727760685)
(-0.0822140300667 -0.0167502104565 -0.00394653470736)
(-0.0659408050313 -0.0134181624648 -0.00482291315544)
(-0.0481376454248 -0.0110474798294 -0.00559421534306)
(-0.0298042012287 -0.00964096547139 -0.00608205105769)
(-0.0102973492744 -0.00893542906146 -0.00584207708446)
(-0.0145980032968 -0.0881209928815 0.0125335281021)
(-0.0379647192888 -0.0866869876132 0.0137750980554)
(-0.0581355243736 -0.0850904540508 0.013191285451)
(-0.0798076338739 -0.0833483576179 0.0129200996939)
(-0.0994253825781 -0.0817303207042 0.0124045426669)
(-0.116486100427 -0.0801469335074 0.0111106239209)
(-0.129073799 -0.0792715795666 0.00892824882781)
(-0.135831088364 -0.077291852439 0.00627237273924)
(-0.136918731493 -0.0733914255318 0.00364393276274)
(-0.133432450269 -0.0655829404674 0.00155848311484)
(-0.128373630615 -0.0555209675966 -0.000529794098957)
(-0.121950825689 -0.0467628629091 -0.00193102399709)
(-0.113853961975 -0.0375211029004 -0.00252070791376)
(-0.104093894551 -0.0303109550631 -0.00288550693524)
(-0.0923159819037 -0.0244672127571 -0.00313695753738)
(-0.0787032647661 -0.0196907286794 -0.00381731913498)
(-0.063199530491 -0.0159122548762 -0.00453575146646)
(-0.046244584 -0.0132757892229 -0.00525891016544)
(-0.0286049170041 -0.0117169438239 -0.00573222891793)
(-0.00981230099066 -0.0109739141188 -0.0056364282445)
(-0.0138206591396 -0.101112146053 0.011290132894)
(-0.0361706042132 -0.0989527364527 0.0124860752685)
(-0.0557363654019 -0.0971444639045 0.0120706525868)
(-0.0767780299984 -0.095085488321 0.0120329810485)
(-0.09621409678 -0.0927606507307 0.0115339883775)
(-0.114271594627 -0.0900108756009 0.00999230899343)
(-0.127707737464 -0.089095638668 0.00707098873159)
(-0.133483681466 -0.0873100759287 0.00294659092278)
(-0.131432053139 -0.0822720619501 -0.000103488514532)
(-0.124314513714 -0.0692514154067 -0.0020253766346)
(-0.118921975821 -0.0548419817235 -0.00433883761588)
(-0.112497542934 -0.0423438711817 -0.00434990956781)
(-0.104516970362 -0.032404160058 -0.00480360303356)
(-0.0971502276085 -0.0288434084719 -0.00405873508847)
(-0.0874091159177 -0.0248087142099 -0.00348177290382)
(-0.0751151521245 -0.0209644857794 -0.0038948183673)
(-0.0605226090334 -0.0175594619354 -0.00434497094723)
(-0.0443825607188 -0.0151111389088 -0.0049293904667)
(-0.0274630023858 -0.0136174583099 -0.00542841298773)
(-0.00942866730772 -0.0130251094556 -0.00536421671377)
(-0.0125195799368 -0.110367581789 0.0101134073706)
(-0.0337408798978 -0.108183703527 0.0107601857642)
(-0.0526895250173 -0.106110528053 0.0106931844572)
(-0.0724297859775 -0.103529696511 0.0107495102031)
(-0.0911090253084 -0.100196717911 0.0102248001757)
(-0.110800622535 -0.0953688610854 0.00862572862649)
(-0.126212966271 -0.0929247063464 0.00551856681085)
(-0.129905523587 -0.0922968879219 -0.00180341774167)
(-0.120631801661 -0.081754259066 -0.00326585905194)
(-0.107926214813 -0.0592142146241 -0.00472524241177)
(-0.102988395389 -0.0388298697175 -0.0067627008026)
(-0.100455366488 -0.0179354186519 -0.00664771395464)
(-0.100940479128 -0.0128198681703 -0.00694795988023)
(-0.0974069159218 -0.0199159188209 -0.00569769465013)
(-0.0860971295754 -0.0233031524299 -0.00397550030764)
(-0.0733251076986 -0.0213780237311 -0.00398314129151)
(-0.0587796929557 -0.0188948805556 -0.00417646932112)
(-0.0430448796107 -0.0168598268622 -0.00468384824756)
(-0.0265804346157 -0.0156209743582 -0.00513604398578)
(-0.00908980224024 -0.0151666655646 -0.00512123406596)
(-0.0116695418488 -0.116083104027 0.00848920725206)
(-0.0313286443958 -0.114413905928 0.00915785968877)
(-0.0488196541177 -0.111874709839 0.00906940489763)
(-0.0671081124479 -0.108885726272 0.00905799991841)
(-0.0844643657108 -0.104955322384 0.00866425799264)
(-0.105436501401 -0.098739132434 0.00784734629138)
(-0.126140735067 -0.0923435548864 0.00555512883619)
(-0.124570859481 -0.0875361010071 -0.0123421459062)
(-0.10191004614 -0.0729899142612 -0.00714628900555)
(-0.0852461318681 -0.0503995090752 -0.00167992786495)
(-0.0810155179633 -0.0321620873061 0.00183432684532)
(-0.0878595342707 -0.0124327738824 0.00472818543688)
(-0.104668311224 -0.00993178794224 0.00767296805986)
(-0.104821713287 -0.0179247961337 -0.004041517621)
(-0.0892386316828 -0.0229627459027 -0.00350440760864)
(-0.0723161756731 -0.0221532310402 -0.00371306541565)
(-0.0576032804985 -0.0203869998511 -0.0039915155803)
(-0.0420900439851 -0.0187827419367 -0.0044937304453)
(-0.0259199147507 -0.0175783862832 -0.00495476860078)
(-0.00884808016416 -0.0173483815709 -0.00499589244184)
(-0.0108099762957 -0.119122906858 0.0068174464217)
(-0.0286976143199 -0.116915710785 0.00752186368955)
(-0.0445525556226 -0.114484517675 0.00729178217624)
(-0.0613330434699 -0.111311632825 0.00729525631449)
(-0.0769265383217 -0.106922257226 0.00716199199077)
(-0.0968203927153 -0.1001038203 0.00645784886914)
(-0.118327469866 -0.0894922025701 0.0056351254719)
(-0.113844833945 -0.0770460514262 -0.0142319122498)
(-0.0849787789844 -0.0619452533306 -0.00767317866108)
(-0.0683266077958 -0.0477917652139 -0.00295891921848)
(-0.0664972774978 -0.0350044679229 -0.000325971856578)
(-0.0782768185011 -0.0246673337873 -0.000136850183042)
(-0.106037246262 -0.0230126183017 -0.00100638684862)
(-0.110557917268 -0.02449582883 -0.00497063828159)
(-0.091518965135 -0.0250458827865 -0.00340815388027)
(-0.0726406240236 -0.0243281579517 -0.0034183547746)
(-0.0572035667257 -0.0226693550485 -0.00371237744966)
(-0.0412865549814 -0.0212212418773 -0.00434839401322)
(-0.025285192925 -0.0203559315238 -0.00549586985868)
(-0.00873124637261 -0.0202441021819 -0.00542122070965)
(-0.00935408099597 -0.118931179177 0.00539482154739)
(-0.0257281724413 -0.116467884966 0.00553949093669)
(-0.0404006217666 -0.114229851506 0.00551744881186)
(-0.0551268727789 -0.111066522193 0.00546134126527)
(-0.0692194913595 -0.106321352359 0.00528811312956)
(-0.0867725893592 -0.098832430933 0.00483423379395)
(-0.105434838587 -0.0846463584278 0.00381557831585)
(-0.100382696143 -0.0651848063416 -0.0132241115305)
(-0.073825116476 -0.0516669513638 -0.00752237585449)
(-0.0586778598387 -0.047048014291 -0.00266965081207)
(-0.0582758974333 -0.0419466092204 -0.00271510244139)
(-0.0763034649505 -0.0412237047938 -0.00593236022986)
(-0.104448575928 -0.0402291277566 0.00177008554722)
(-0.106874756329 -0.0330647577285 -0.0043907815976)
(-0.0903292857619 -0.0301746067295 -0.00271219253318)
(-0.0718424287416 -0.0281622960537 -0.00309385820775)
(-0.0564488661666 -0.0260575062782 -0.00329338466521)
(-0.040913909391 -0.0243254519513 -0.00420056192821)
(-0.0251086521222 -0.0235871689568 -0.00462204524232)
(-0.008601410826 -0.023434538567 -0.00479527695981)
(-0.00822246669893 -0.115603257529 0.00380344707725)
(-0.0229741991507 -0.113630898052 0.00382818686403)
(-0.0362191552854 -0.111473754274 0.00381956061646)
(-0.0489401512121 -0.108484536044 0.00376972718237)
(-0.0608049293471 -0.104162291701 0.00369570560706)
(-0.0742148834357 -0.0965184827771 0.00324371947437)
(-0.0871358744086 -0.0802886579532 0.00192250648416)
(-0.0834923888724 -0.0557471315619 -0.0095335940805)
(-0.0665117515135 -0.0438970844471 -0.00546182171409)
(-0.0582222837994 -0.0463512659344 -0.000580545606203)
(-0.0610126278053 -0.0502278193649 0.000717759001072)
(-0.0760402036137 -0.0573279882688 -0.00152257934355)
(-0.0977407656436 -0.0527394445376 0.00285484007742)
(-0.101480237848 -0.0426866983408 -0.000834483959453)
(-0.0879223655456 -0.0362885541703 -0.00219997815873)
(-0.0706279886438 -0.0329474122625 -0.00276743799892)
(-0.0553951232155 -0.0299482514177 -0.00326945085313)
(-0.0399843423161 -0.0276248536145 -0.00389987918381)
(-0.0245415587328 -0.0263332941129 -0.00430418206642)
(-0.00844162810089 -0.0261080464058 -0.00462105045231)
(-0.0072665574973 -0.109828830965 0.00241330997918)
(-0.0205647935247 -0.108231860502 0.00231044784447)
(-0.0322865697317 -0.106219692451 0.00238351166429)
(-0.0432629673561 -0.103711287972 0.0019474172854)
(-0.0534139533355 -0.100170910147 0.00194557566903)
(-0.0619837225644 -0.0939134274158 0.0022250340979)
(-0.067862656757 -0.0814887727727 0.00320383714652)
(-0.0673614876715 -0.0660179193825 0.00483527497215)
(-0.0628843540978 -0.0588240919234 0.00671998269529)
(-0.0628848323744 -0.062010826188 0.0076857480695)
(-0.067135550363 -0.0658499260559 0.00784377230677)
(-0.0775796934876 -0.0698747188024 0.00695252447238)
(-0.0894407364353 -0.0643542100956 0.00576605655937)
(-0.0914921655882 -0.0525298447772 0.000873226105335)
(-0.0820817766324 -0.043005895746 -0.00167202426871)
(-0.0677059446806 -0.0376521121473 -0.0025953825123)
(-0.0532412299411 -0.0333656450117 -0.0032349015682)
(-0.0385111487962 -0.0304304748313 -0.00380844099702)
(-0.0237563017305 -0.0288402885165 -0.00423204834187)
(-0.00822874704353 -0.0285193749605 -0.00465556882584)
(-0.00652313232174 -0.101857006297 0.0011854648436)
(-0.018407255136 -0.100516989826 0.00104497650848)
(-0.0289292976114 -0.0987268553179 0.000745103323595)
(-0.0385954077547 -0.0968472596854 0.00042798419799)
(-0.0470184301655 -0.0942174734016 0.000274471271949)
(-0.0535492328876 -0.0898073901896 0.000305174865621)
(-0.0577351069582 -0.0834698879724 0.000974875979731)
(-0.0597253168575 -0.0767984388777 0.00135654001588)
(-0.0609759355907 -0.0739772026801 0.00217169467703)
(-0.0638436179972 -0.0737962675476 0.00278183542242)
(-0.0689236967163 -0.0736166063435 0.00298614391633)
(-0.0762747797072 -0.072488294407 0.00270423555593)
(-0.082472048077 -0.0661687263989 0.0016790564072)
(-0.0824238660709 -0.0565408210721 -0.000444448789667)
(-0.0750555269445 -0.0472017488711 -0.00201978782659)
(-0.0634333343865 -0.0404684835081 -0.00287602969993)
(-0.0503430675547 -0.0354804092042 -0.00342784375364)
(-0.0366683237096 -0.032208666326 -0.0039168037465)
(-0.0227880220924 -0.030428992347 -0.00425498261913)
(-0.00797421907277 -0.0300029928009 -0.00485801781098)
(-0.00584462583004 -0.0919819829923 0.000203050161115)
(-0.0167257795412 -0.0908721730379 -0.000131271284329)
(-0.0264465922779 -0.0894525349472 -0.000469471713898)
(-0.0352528311273 -0.0878455297524 -0.000806874788776)
(-0.0429578998064 -0.0859717681667 -0.00112770069118)
(-0.04929033487 -0.0833575480358 -0.00131279711019)
(-0.054274807524 -0.0802444817617 -0.00118729327381)
(-0.0576896792107 -0.0772776055292 -0.000844135325017)
(-0.0600636579345 -0.0753818522715 -0.000370608259864)
(-0.0629616817086 -0.0744528487072 -0.000148742057034)
(-0.0669029169804 -0.0727622426968 -0.000239904112289)
(-0.0714034243604 -0.0697304621876 -0.000481754285398)
(-0.0743345489236 -0.0636579768391 -0.00107420477951)
(-0.0733584356635 -0.0555091922892 -0.00200057237206)
(-0.0675268326067 -0.0473394133843 -0.00282370523696)
(-0.058067241424 -0.0407296244394 -0.00337872860175)
(-0.04671972146 -0.0357997319207 -0.00374021757782)
(-0.03442695142 -0.0325427137887 -0.00401117366444)
(-0.0216110360086 -0.0307430094537 -0.00430798592718)
(-0.0076452018011 -0.0303020346238 -0.00507585850805)
(-0.00536920945946 -0.080419138169 -0.000578157170425)
(-0.0154691315528 -0.0796306460783 -0.000944681927938)
(-0.0245767756163 -0.0784500045192 -0.00129742458814)
(-0.0328135782561 -0.0769874961921 -0.00163246468772)
(-0.0400458202372 -0.0754225814924 -0.00198534591555)
(-0.0461366983846 -0.0734921178107 -0.00223354925541)
(-0.0510689728562 -0.0712165948872 -0.00222572302796)
(-0.0549539101672 -0.0687699058297 -0.00209506396781)
(-0.0582838490052 -0.0670037930843 -0.00193203120333)
(-0.0615221104705 -0.0656344861808 -0.00185943874346)
(-0.0646542242334 -0.0638226428527 -0.00192630952817)
(-0.0672657964625 -0.0608778009911 -0.00214145002232)
(-0.0682561772443 -0.0561239775037 -0.00252746452975)
(-0.0664069452312 -0.0500790690726 -0.00299509454045)
(-0.0611742282881 -0.0437984637019 -0.00341964376135)
(-0.0530868097699 -0.0383521965716 -0.0037328164525)
(-0.0431612164517 -0.0341479930779 -0.00399005994834)
(-0.0321579806386 -0.031256663696 -0.00411205892994)
(-0.0204456549721 -0.0296397199742 -0.00438064043865)
(-0.0073303108126 -0.0292091390534 -0.00530120572625)
(-0.00504293294408 -0.0675192989412 -0.00118823108917)
(-0.014560338475 -0.0669241113023 -0.00153378848617)
(-0.0231948154075 -0.0659921478381 -0.00182257931333)
(-0.0310730472539 -0.064697412323 -0.0021597466695)
(-0.0381077512162 -0.0634127705149 -0.00244078862429)
(-0.0441303879067 -0.0619879550052 -0.0027052289558)
(-0.049200056148 -0.0604598678408 -0.00283042139621)
(-0.0533716646653 -0.0589431197822 -0.00287039848507)
(-0.0568158686863 -0.0575979074747 -0.00283728637483)
(-0.0597243222923 -0.056166722454 -0.00286078464648)
(-0.0620484583594 -0.0542387242689 -0.00295186201856)
(-0.0634628415522 -0.0514944050149 -0.00309536668687)
(-0.0633055554118 -0.0476635644365 -0.00333655585522)
(-0.0609184831771 -0.043101008966 -0.00357393703237)
(-0.0560336807495 -0.0383939436122 -0.00378830215286)
(-0.0488650012053 -0.0341946473508 -0.00394086594598)
(-0.0400231263556 -0.0308607403138 -0.00405075685254)
(-0.0301202201716 -0.0285008416986 -0.00415313219028)
(-0.0193712181143 -0.0271019525213 -0.00444336905061)
(-0.00699595708409 -0.0266473252661 -0.00553759896019)
(-0.00478315763954 -0.0535884511251 -0.00164409120394)
(-0.013880660537 -0.053112529637 -0.00197255141075)
(-0.0221250840361 -0.0523631743466 -0.00216582779694)
(-0.0298381815018 -0.0513027011368 -0.00260582488109)
(-0.0368261980291 -0.0503470418906 -0.00271122643165)
(-0.0427814039863 -0.0492999145799 -0.00288667766985)
(-0.0478577414624 -0.0482034975963 -0.00302720439962)
(-0.0520686102055 -0.0471014685218 -0.00314107429966)
(-0.0554878932888 -0.0460119093362 -0.0032218067019)
(-0.0581305976334 -0.0447856010189 -0.00329928259863)
(-0.0598897572962 -0.0431957290508 -0.00339248202937)
(-0.0605228765513 -0.0410510168751 -0.00350098306054)
(-0.0596406270751 -0.0382566989789 -0.00363932919735)
(-0.0569159631219 -0.0350459882633 -0.00377526698427)
(-0.0521900955226 -0.0317276118815 -0.00391745193372)
(-0.0456098852183 -0.0287132472414 -0.00400865811388)
(-0.0375532587359 -0.0262444577888 -0.00407874787844)
(-0.0284293684635 -0.0244443901423 -0.00419801801797)
(-0.0183853374013 -0.0232204487268 -0.00456749224211)
(-0.00665934453463 -0.0226792160701 -0.00573629852423)
(-0.00459704692568 -0.0388979092917 -0.00198115280353)
(-0.013384383734 -0.0385410477286 -0.00226567410714)
(-0.0213299918891 -0.0380155642032 -0.00246436489979)
(-0.0289383162996 -0.0374337116742 -0.00301998914999)
(-0.0359639527789 -0.0365859223172 -0.00293487978751)
(-0.0418608740324 -0.035882853785 -0.00298774859182)
(-0.0469307412037 -0.0351298991375 -0.0031055743685)
(-0.0511529707747 -0.0344259116699 -0.0032234193025)
(-0.0544897629587 -0.0336979132597 -0.00332724095061)
(-0.0569015169561 -0.0328474440056 -0.00343102348656)
(-0.058285843606 -0.031734548096 -0.00354211813569)
(-0.058467449964 -0.0302976234168 -0.00365008366388)
(-0.0571712876388 -0.0284932275048 -0.00377276623518)
(-0.0542399765902 -0.0264178078028 -0.00389625451301)
(-0.0496047588454 -0.0242956028663 -0.00400784555039)
(-0.0433541419813 -0.0223154291444 -0.00410487896821)
(-0.0357620719645 -0.0206117816705 -0.00420944370871)
(-0.0270939378244 -0.0192339443361 -0.00432868140738)
(-0.0174660485459 -0.018146422366 -0.00469368998624)
(-0.00629163395947 -0.0174674439897 -0.00585249792423)
(-0.00448107333024 -0.0237260926659 -0.00221325777913)
(-0.0131136948975 -0.0234685714619 -0.00245796892074)
(-0.0210737956741 -0.0232000300995 -0.00259991506748)
(-0.028405951497 -0.0230417188762 -0.00279716614586)
(-0.035251842811 -0.0225732565573 -0.00322961308485)
(-0.0413011104753 -0.0221227326357 -0.00319529060409)
(-0.0463977036837 -0.0215729022348 -0.0033301100484)
(-0.050652547288 -0.0212649607968 -0.00343823433383)
(-0.0539415213373 -0.0209071114286 -0.0035632665342)
(-0.0562246623037 -0.0204697771212 -0.00369050270982)
(-0.0574062429101 -0.0198891506755 -0.00381943656214)
(-0.0573403247176 -0.0191334329898 -0.00394860978278)
(-0.0557976269639 -0.018190645084 -0.00410467359814)
(-0.0527552370632 -0.0171081865165 -0.00426929512775)
(-0.0481344566131 -0.015967466201 -0.00440039318991)
(-0.0419859643886 -0.0148575028719 -0.00453599803758)
(-0.0345345448481 -0.0138324041623 -0.00465384741756)
(-0.0260091314451 -0.012880500643 -0.00475853701996)
(-0.0165631307293 -0.0119440745162 -0.00503942892584)
(-0.00587168596454 -0.0111599489615 -0.00591988534188)
(-0.00443898777106 -0.00799824262197 -0.00240095558875)
(-0.0130499901349 -0.00789200900021 -0.00252288785736)
(-0.0210484893227 -0.00781430812564 -0.00261019137046)
(-0.028446021494 -0.00777235907638 -0.00273923793389)
(-0.0351698045213 -0.00775769371179 -0.00296185388136)
(-0.0410044437981 -0.00758148706766 -0.00317678766159)
(-0.0462604570518 -0.0073350979211 -0.00374912252385)
(-0.0507072664367 -0.00730070827831 -0.00377897129373)
(-0.0539600915039 -0.00722862250266 -0.00396001679133)
(-0.0562116333944 -0.00712949768451 -0.00417703576208)
(-0.0572993482812 -0.00699107217392 -0.00441972388089)
(-0.0571296043798 -0.00677302986599 -0.00471153247425)
(-0.0555036490867 -0.00652107588374 -0.0050198607425)
(-0.0523721947084 -0.00621872134712 -0.00532095484021)
(-0.0476841352497 -0.00587091799494 -0.00559117892363)
(-0.0414975369675 -0.00550951743243 -0.00581323435266)
(-0.0339966598826 -0.00514614437966 -0.00595185425723)
(-0.0253448448379 -0.00477521920247 -0.00598828896968)
(-0.0157715213072 -0.00433880922343 -0.00599186312707)
(-0.00543068095614 -0.00390114759185 -0.00598771435908)
(-0.0134317787467 -0.0110118019646 0.0481652319918)
(-0.0390400056734 -0.0116615826492 0.0475382439427)
(-0.0631320642656 -0.0114919475879 0.0458673877893)
(-0.0859231736734 -0.0112075336853 0.043392311577)
(-0.10637173982 -0.0108615075035 0.040183193062)
(-0.123673939159 -0.0104925520489 0.0362654973944)
(-0.137222879976 -0.0101184938707 0.0317024083561)
(-0.146668227722 -0.00965932545176 0.0266599736044)
(-0.151836798685 -0.00909324940021 0.0213205327138)
(-0.152774193617 -0.00834965484983 0.0158521147147)
(-0.14978597996 -0.00746644368267 0.0104088429398)
(-0.143247036688 -0.00644305313759 0.00523047461725)
(-0.133619999693 -0.00536650642771 0.000445526495132)
(-0.121390603323 -0.00433676532694 -0.00388756645291)
(-0.106970286677 -0.00339851376901 -0.00767125211387)
(-0.0906392820941 -0.00262642132725 -0.0109868149762)
(-0.0725966280368 -0.00202577294574 -0.0137730774899)
(-0.0531229389576 -0.00157419415547 -0.0159463899563)
(-0.03296738991 -0.00131282118958 -0.0174148623184)
(-0.0114251532192 -0.0014098044469 -0.0187041970611)
(-0.01416078042 -0.0329458466172 0.04674572521)
(-0.0396634102439 -0.0339007513175 0.04729148888)
(-0.062762921201 -0.0332528102294 0.0454496157234)
(-0.0854313425107 -0.0324217159526 0.0430322589703)
(-0.105843824065 -0.0314718077315 0.0398386800336)
(-0.12312269729 -0.0304877711854 0.0358325426455)
(-0.136572066585 -0.0295196496306 0.0310680986474)
(-0.145832222778 -0.0283156232683 0.025784748611)
(-0.150723060126 -0.0267520065078 0.0201436079932)
(-0.151346548438 -0.02461465698 0.0144711854707)
(-0.148082004771 -0.0219940504021 0.0089324347958)
(-0.141355296026 -0.0190195835124 0.00371433970641)
(-0.131736696072 -0.0158550075792 -0.000923123907138)
(-0.119649961632 -0.0128417321254 -0.00506371758223)
(-0.105446542354 -0.0101546511466 -0.00868568273627)
(-0.0893695005295 -0.00798205840982 -0.01192384194)
(-0.0715320817185 -0.00628194227864 -0.0146790928757)
(-0.0522927744331 -0.00500778577087 -0.0167926181351)
(-0.0324375517056 -0.0041981177483 -0.0181463552716)
(-0.0112182887936 -0.00420147561364 -0.0184579435161)
(-0.0144848898771 -0.0541377297229 0.0443036497666)
(-0.0395247901043 -0.054120814996 0.0456366927919)
(-0.0618009334205 -0.0530270612764 0.0437107519158)
(-0.0844070671171 -0.0515887521605 0.0416156528048)
(-0.104789768003 -0.0499839059643 0.0387391741548)
(-0.122061562086 -0.0484186861706 0.0348087188649)
(-0.135343503777 -0.047031309349 0.0298829435818)
(-0.144208638337 -0.0452802433219 0.0243308160911)
(-0.148452936806 -0.0428958267009 0.0184156222681)
(-0.148343107017 -0.0393891596423 0.0126241630899)
(-0.1445105073 -0.0349792818291 0.0070607075062)
(-0.137428446668 -0.0300954917692 0.00202915932875)
(-0.127784812256 -0.0249104600032 -0.00214903424777)
(-0.116033437572 -0.0200270049095 -0.00577082446774)
(-0.102386659114 -0.0157512720422 -0.00890051992846)
(-0.086905455188 -0.0124449484298 -0.0118969452367)
(-0.0695819558489 -0.00987447545695 -0.0145255114774)
(-0.0507717260651 -0.00797785014849 -0.0166721930907)
(-0.0315258541444 -0.00675384397089 -0.0180252238978)
(-0.0109333932614 -0.00651349027199 -0.0179919789504)
(-0.014212693634 -0.0733724555604 0.0413483120798)
(-0.0387221551724 -0.0724734952337 0.0429734001034)
(-0.0605153875302 -0.0710210528019 0.0414951590229)
(-0.0828493824541 -0.0689427679727 0.039827164412)
(-0.103206410187 -0.0665084095565 0.0371912522607)
(-0.120615567491 -0.0642246649841 0.0332679539855)
(-0.133756356954 -0.0626360637445 0.0280705775489)
(-0.142022203675 -0.0605828599774 0.0220483776948)
(-0.145130158993 -0.0573514736274 0.0156688848452)
(-0.143757186553 -0.0519204115831 0.00970574629521)
(-0.13910827748 -0.0452528635861 0.00411399311196)
(-0.131611254536 -0.0383453207209 -0.000619096056919)
(-0.122006753463 -0.0313179047334 -0.00397275108241)
(-0.110798984836 -0.0250776025259 -0.00665042502322)
(-0.0980592701954 -0.0197428580438 -0.00896620152364)
(-0.0835458398634 -0.0157456323205 -0.0115614023823)
(-0.0670201703507 -0.0126216724825 -0.0138843427851)
(-0.0489535499663 -0.0103606508584 -0.0159555557511)
(-0.03040102801 -0.0089947241253 -0.0173937044975)
(-0.0105686944753 -0.00856452062208 -0.0174215338451)
(-0.0136375197298 -0.0896707847794 0.0377964828625)
(-0.0374089511274 -0.0882953974006 0.0395718231405)
(-0.058775693895 -0.0862983347098 0.0385410508076)
(-0.0807090132947 -0.0834038494473 0.0371870892365)
(-0.100995242101 -0.0800539387406 0.034681187693)
(-0.118865658466 -0.0771871142604 0.0307800155217)
(-0.132153752232 -0.0761091980417 0.0252326926978)
(-0.139318946434 -0.07488552991 0.0182458236258)
(-0.140221386881 -0.0713903234313 0.011122291428)
(-0.136676360461 -0.0639314074321 0.00483900702267)
(-0.131257265309 -0.0548032376858 -0.00102180200247)
(-0.123725958069 -0.0456841938539 -0.00529081113099)
(-0.114764487435 -0.0364086141378 -0.00724445205569)
(-0.104705221895 -0.028709105468 -0.00827688836188)
(-0.0931614936336 -0.0225623093838 -0.00929889390088)
(-0.079739407767 -0.0182336907774 -0.0112708626801)
(-0.0641431008383 -0.0147930477458 -0.0130905747228)
(-0.0470322592738 -0.0124269811553 -0.0150296490793)
(-0.0292134602936 -0.0110253529585 -0.0165312207107)
(-0.0100759128427 -0.0105441700153 -0.0167765905454)
(-0.0129182187215 -0.102689316342 0.0337925845679)
(-0.0356740533659 -0.100954646901 0.0355585439769)
(-0.0564205620487 -0.0983269441007 0.0346810578577)
(-0.077795513799 -0.0943870608258 0.0333714822145)
(-0.0980654186121 -0.0899606078899 0.030964060944)
(-0.117332232205 -0.085823003148 0.0268903955139)
(-0.132224826446 -0.0846133386763 0.0200578627778)
(-0.138130815057 -0.0861770736685 0.0101035863908)
(-0.134966276455 -0.0809304963742 0.00168601025859)
(-0.127755733729 -0.0687729512485 -0.00474270790631)
(-0.121301065144 -0.055753319222 -0.0106370430907)
(-0.113570068044 -0.0434673977536 -0.0124987243698)
(-0.10530715689 -0.0334538602739 -0.0127460333178)
(-0.0971365588933 -0.0276972818342 -0.0108924424247)
(-0.0876352605864 -0.0224456280184 -0.010293933209)
(-0.075707124711 -0.0189121491098 -0.0115356488799)
(-0.0611445200435 -0.0160200884656 -0.012585347435)
(-0.0450629935524 -0.0140278251877 -0.0141625388561)
(-0.0280085110851 -0.0128373881846 -0.0156149510475)
(-0.00962042105897 -0.0125314686541 -0.0159860237718)
(-0.0120226952068 -0.112196781767 0.0295723828174)
(-0.0334685983594 -0.110318180725 0.0306318463594)
(-0.0532233229436 -0.10711115069 0.0300750403817)
(-0.0734280795236 -0.102353651628 0.0289893068229)
(-0.0930907966037 -0.0964345188652 0.0271260024432)
(-0.114262202919 -0.0892046830499 0.0232615037104)
(-0.134049950146 -0.0856637432059 0.0149938924576)
(-0.136997974165 -0.0960294312902 -0.00969799098003)
(-0.124463302504 -0.0809764879763 -0.0179084345871)
(-0.11239645998 -0.0554445269001 -0.0217440200292)
(-0.106053417249 -0.0333771915395 -0.0267271509111)
(-0.101803182026 -0.0119080309872 -0.0281925909277)
(-0.0997777673483 -0.00392635907283 -0.0225733947867)
(-0.0945876176628 -0.017517822885 -0.0145092199705)
(-0.0845166816491 -0.0200347433647 -0.0115051989889)
(-0.0733119685754 -0.0185938561341 -0.0118392296663)
(-0.0591556038321 -0.0169343911142 -0.0121657934007)
(-0.0436492383163 -0.0155951298041 -0.0134377116873)
(-0.0270838878478 -0.0148066940248 -0.0147873063404)
(-0.00925218040555 -0.0147457621232 -0.0152488157999)
(-0.0111607822907 -0.118220795816 0.0246361464892)
(-0.0310528844443 -0.116390854309 0.0256555225959)
(-0.0493265043523 -0.112854040965 0.0250988100306)
(-0.0678858000658 -0.107662914296 0.0244309471745)
(-0.085680938185 -0.10078150379 0.024050515933)
(-0.106943849299 -0.0916483709677 0.0252444583641)
(-0.141342112185 -0.0835493538568 0.0243987688666)
(-0.135000768044 -0.0899035094463 -0.0627314533091)
(-0.0966921450087 -0.0706481359729 -0.0454553210745)
(-0.0801650797235 -0.0437288845296 -0.0150684620583)
(-0.0766760650532 -0.0231077827285 0.00751048001356)