/*--------------------------------*- C++ -*----------------------------------*\
| =========                 |                                                 |
| \\      /  F ield         | OpenFOAM: The Open Source CFD Toolbox           |
|  \\    /   O peration     | Version:  v1606+                                |
|   \\  /    A nd           | Web:      www.OpenFOAM.com                      |
|    \\/     M anipulation  |                                                 |
\*---------------------------------------------------------------------------*/
FoamFile
{
    version     2.0;
    format      ascii;
    class       volScalarField;
    location    "4.5";
    object      p;
}
// * * * * * * * * * * * * * * * * * * * * * * * * * * * * * * * * * * * * * //

dimensions      [1 -1 -2 0 0 0 0];

internalField   nonuniform List<scalar> 
11640
(
5061.09519035
5062.46295339
5065.06768237
5068.84572241
5073.60556383
5079.25011052
5085.80323083
5093.03309188
5100.64715177
5108.36528667
5115.99099437
5123.35803078
5130.31426201
5136.65588464
5142.13126218
5146.68630427
5150.52310777
5153.59883325
5155.71254418
5156.87922271
5062.28689206
5063.68859853
5066.16137898
5069.36487155
5073.2558857
5078.33719165
5084.97082254
5092.70006607
5100.96429391
5109.29465697
5117.51719915
5125.46951757
5133.00956005
5139.79765334
5145.23652255
5149.08138867
5151.78997994
5154.06634081
5155.96863716
5157.10139312
5064.57653
5065.79552674
5067.29892289
5068.70437727
5071.0537289
5075.6851952
5082.763704
5091.49725994
5101.06223687
5110.53254465
5119.85937003
5128.90369228
5137.52992876
5145.26808514
5151.12819067
5154.46188589
5155.61850274
5155.90198895
5156.62901506
5157.52782306
5067.8700541
5068.27028904
5067.59574822
5066.62100872
5067.83770619
5072.39910326
5080.29718102
5090.31751935
5101.22376245
5112.08089932
5122.67524237
5132.97333262
5142.85502806
5151.77262504
5158.40706703
5161.70329372
5161.72677386
5159.78022509
5158.22313284
5158.17978051
5071.84199624
5070.65598189
5067.43094359
5064.69015874
5065.1702579
5069.97211399
5078.81052192
5089.9518539
5102.16528464
5114.02706024
5125.61955681
5136.92524091
5147.86008802
5157.87929229
5165.42307872
5169.04534317
5168.51931703
5164.8530982
5160.87972602
5159.28906238
5076.2529601
5073.42478231
5068.27230518
5064.3109964
5064.45159033
5069.64424268
5079.34184205
5091.32425935
5104.30133619
5116.64324109
5128.7195956
5140.45602326
5151.8588252
5162.56337118
5170.91085662
5175.08862988
5174.31316919
5169.64079271
5163.91661897
5160.72511878
5081.30841835
5077.4005711
5071.2053084
5066.51112206
5066.45683539
5071.83502412
5082.05155146
5094.36231992
5107.58487861
5119.3543162
5131.1242982
5142.40287693
5153.72499034
5165.24865022
5174.29299748
5178.83030923
5178.04549434
5172.91223031
5166.33144894
5162.18015512
5087.05735648
5082.77100001
5076.18244821
5071.1559087
5070.85135319
5076.01205038
5086.16902129
5098.74402952
5111.38392239
5121.66207915
5132.67119288
5142.62276561
5154.11076475
5166.52606336
5176.22281605
5180.81241536
5180.01201855
5174.75479022
5167.95354805
5163.5366022
5093.16237916
5088.78268617
5082.00934121
5076.7875185
5076.18920069
5080.84898474
5090.56458943
5102.82394728
5114.59961197
5124.13104033
5134.30202497
5143.67459726
5154.83585008
5167.96899225
5177.6953564
5182.32312955
5181.51418676
5176.23081201
5169.40797866
5164.97106368
5099.31605348
5094.83193277
5087.88339362
5082.40860358
5081.41199183
5085.73895619
5094.89904309
5106.60470832
5117.5707521
5126.94110149
5136.61419047
5145.97970861
5156.98896105
5169.46994269
5179.26977233
5183.98444947
5183.17880754
5177.86220875
5171.0358696
5166.59238651
5105.3690859
5100.79172245
5093.64744839
5087.96048026
5086.57635344
5090.4896873
5098.98420247
5109.75866101
5120.04850703
5129.45372529
5138.99239217
5148.6833518
5159.61501305
5171.59220025
5181.15871428
5185.85525887
5185.03652575
5179.71644636
5172.86104287
5168.40773219
5111.25436596
5106.86685944
5099.7437261
5093.8995812
5092.17579745
5095.57960244
5103.14424207
5112.84698452
5122.55874459
5132.17144172
5141.93511678
5152.00294344
5162.85297926
5173.89273605
5182.81551077
5187.2350882
5186.30660502
5181.06384373
5174.42545496
5170.24837854
5117.11672977
5113.51583119
5107.1121508
5101.47804856
5099.4152156
5102.00514827
5108.53438642
5117.16897265
5126.36344796
5135.66738842
5145.19178391
5155.01904085
5165.26165616
5175.254677
5183.09980814
5186.80496746
5185.69536526
5180.86006645
5175.10828325
5171.90572515
5122.66798076
5120.54529398
5115.7332349
5110.90813363
5108.74615559
5110.47607514
5115.82230208
5123.37986644
5131.60797103
5139.97510485
5148.52690562
5157.31379331
5166.32985962
5174.91713174
5181.41027178
5184.24596592
5183.10532628
5179.19702293
5175.16265194
5173.5025286
5127.41090204
5126.83560118
5124.32350789
5120.98038853
5119.18301489
5120.28816941
5124.39466398
5130.47984071
5137.25284345
5144.21422796
5151.35535445
5158.66048265
5166.07767699
5173.02861347
5178.15373764
5180.32665039
5179.57671234
5177.20862825
5175.50463474
5175.34225664
5131.24611535
5131.57914491
5131.27751532
5130.01853568
5129.16270755
5130.06966869
5133.12655332
5137.72577564
5142.92288795
5148.31467542
5153.86822232
5159.53922399
5165.25657224
5170.57613938
5174.53006753
5176.44010398
5176.61014984
5176.31182172
5176.65750769
5177.26774589
5134.36210261
5134.87660519
5135.67750289
5136.30676431
5136.86902961
5138.11276551
5140.54374461
5143.96683303
5147.84539352
5151.91667808
5156.13386506
5160.43812981
5164.75156904
5168.78946227
5172.01505205
5174.17907754
5175.66921026
5177.01952677
5178.23621801
5178.97694875
5136.74088355
5137.24042786
5138.19469328
5139.5593269
5141.15786692
5143.01177981
5145.3615821
5148.2116574
5151.37463699
5154.72716657
5158.21364698
5161.76842145
5165.31067781
5168.69748523
5171.72162329
5174.28746626
5176.50573891
5178.34328217
5179.64910345
5180.36111115
5138.34944836
5138.83853268
5139.77652806
5141.1408167
5142.90036362
5145.03567331
5147.49902987
5150.24893092
5153.23738859
5156.4125707
5159.71371907
5163.07256121
5166.40591049
5169.62158878
5172.6232633
5175.31118936
5177.5957636
5179.4008313
5180.66736331
5181.34584464
5139.17440616
5139.6574252
5140.59105984
5141.95346939
5143.71425893
5145.84055047
5148.28530839
5151.0317998
5154.01833776
5157.18826726
5160.48111302
5163.82394629
5167.13651266
5170.32815514
5173.30222219
5175.96222429
5178.21916385
5179.99616685
5181.22885013
5181.86808547
4733.53158503
4734.90529336
4737.53786371
4741.35033462
4745.95119594
4751.35986539
4757.92133804
4765.40058169
4773.33461491
4781.36973821
4789.31172196
4796.98908819
4804.24676255
4810.83378009
4816.35824761
4820.73270012
4824.4102024
4827.4897645
4829.64009386
4830.82392232
4734.71911206
4736.14304688
4738.37520036
4740.64251956
4743.15811437
4747.35255974
4754.13990991
4762.76154422
4772.12988303
4781.56038904
4790.88032642
4799.92327266
4808.54076624
4816.22961712
4821.90116514
4825.06716182
4826.68084701
4828.18642123
4829.88123166
4831.0534796
4737.02484252
4738.00342957
4737.8299614
4736.13661318
4735.63908161
4739.0501842
4746.98019282
4757.87650873
4769.93020311
4781.88465969
4793.68504608
4805.19481332
4816.26599896
4826.14418155
4832.93616216
4835.3085257
4833.9398804
4831.50986269
4830.8019281
4831.476983
4740.27664996
4739.25796788
4734.3541809
4728.12160477
4725.47025088
4729.03901743
4738.89274676
4752.60845513
4767.56928901
4782.60638001
4797.26132509
4811.62539586
4825.53687757
4838.07654672
4846.69955786
4849.25113975
4845.78693621
4838.93495289
4833.53549387
4832.1857741
4743.84360542
4739.40564308
4729.46090465
4719.87608683
4716.10215212
4720.55150563
4732.58268871
4748.8814335
4766.49566915
4783.96808359
4801.05250049
4817.83878212
4834.17677103
4849.16717768
4859.84708122
4863.34246117
4858.86508091
4848.74201672
4838.42257059
4833.66943342
4747.63235763
4739.77614153
4726.210932
4714.52787447
4710.48357352
4716.20931029
4730.27827911
4748.49034431
4767.76891986
4786.53687757
4804.95260589
4823.04154251
4840.64969003
4857.20360529
4869.73991221
4874.56063074
4869.88562896
4857.79677705
4843.9706298
4835.80652405
4752.34860344
4742.35409235
4726.90847258
4714.18453862
4710.15734007
4716.80551365
4732.16908907
4751.42694563
4771.05254003
4789.60643008
4807.90798645
4826.02440501
4843.47224231
4861.4593839
4875.24582132
4881.11537947
4876.58935397
4863.62027755
4848.0190624
4837.7877284
4758.11576934
4747.44508805
4731.42677196
4718.31237792
4714.15130751
4720.83984046
4736.16401309
4756.37565627
4774.92127265
4791.91649006
4809.0780315
4825.66401857
4843.26843613
4862.93245459
4877.63426772
4883.8348809
4879.37752439
4866.18272283
4850.11577135
4839.30100044
4764.35611285
4753.56856411
4737.39293613
4724.05079855
4719.56588377
4725.81803012
4740.51997001
4760.52214971
4778.20568643
4794.38364843
4810.76921618
4826.81004749
4844.79795453
4864.31954441
4879.1367149
4885.33901844
4880.87464404
4867.66146699
4851.57224657
4840.73475319
4770.63399999
4759.73389042
4743.39679155
4729.79510024
4724.9084287
4730.68627988
4744.98676363
4764.44900862
4781.43812231
4797.15256009
4813.09708532
4829.11036635
4846.866169
4865.87981556
4880.77898875
4887.00665789
4882.54545838
4869.33158414
4853.2203535
4842.36886141
4776.77609099
4765.79714858
4749.29801554
4735.44956076
4730.16505349
4735.47308346
4749.25601195
4767.55046931
4783.98905858
4799.59770755
4815.49210317
4831.60880871
4849.35499566
4867.80814057
4882.64278052
4888.86105077
4884.39892884
4871.16392558
4855.05050032
4844.19148241
4782.95996847
4772.44259232
4756.25681684
4742.3816623
4736.67164453
4741.18928166
4753.68405979
4769.7002539
4785.75403277
4801.80039383
4818.06984658
4834.71655644
4852.19908016
4869.92340068
4883.98253867
4889.72024688
4885.05954676
4871.95345902
4856.2401911
4845.90875535
4789.44272372
4780.85337594
4766.30686881
4753.10980864
4746.94302166
4749.97614744
4760.65054494
4775.16992955
4790.55392405
4806.03604352
4821.77456459
4837.86513408
4854.41684582
4870.48473719
4882.64907248
4886.96225485
4881.88184816
4869.48707069
4855.4452407
4847.0842697
4795.77115296
4790.45500664
4779.3085374
4767.92525394
4761.7122912
4763.11728759
4771.53121749
4784.01199048
4797.57909785
4811.3038797
4825.23349173
4839.4091606
4853.83691252
4867.43695962
4877.07305582
4879.62262528
4874.38327083
4863.72952919
4853.05692976
4847.98310621
4800.96119714
4799.03314327
4792.68941863
4784.42279232
4779.05685732
4779.29983723
4785.31252373
4794.9495678
4805.67343778
4816.59759135
4827.71307855
4839.00216637
4850.41457746
4860.95785066
4867.97465457
4869.18008089
4864.64096209
4857.00781958
4851.10512737
4849.41557533
4804.90405016
4804.97085692
4803.22009248
4799.24602373
4795.82814227
4795.7088989
4799.62961393
4806.29599615
4813.85729322
4821.61969419
4829.54947347
4837.60126321
4845.70468915
4853.08866649
4857.81509602
4858.4849434
4855.76407001
4852.34552216
4851.01221063
4851.30648053
4808.0488185
4808.57217429
4809.14162863
4808.98542433
4808.41798766
4808.93715946
4811.5443696
4815.80028798
4820.6800918
4825.75591011
4830.98057124
4836.29460916
4841.6202342
4846.46965256
4849.74864865
4850.93956525
4850.99548118
4851.36654328
4852.31954634
4853.04288159
4810.44887274
4810.95507148
4811.91650124
4813.24721453
4814.65919079
4816.27847444
4818.61988722
4821.64878742
4825.03951871
4828.62240746
4832.34178973
4836.13039778
4839.90776267
4843.45904493
4846.40645006
4848.65531257
4850.6387063
4852.4413405
4853.74801895
4854.44596891
4812.07181639
4812.56744163
4813.51183655
4814.88730144
4816.67593714
4818.82814007
4821.31022827
4824.08174504
4827.09533844
4830.29851539
4833.63098702
4837.0216902
4840.38888845
4843.63899331
4846.67133646
4849.3864746
4851.6915444
4853.50647039
4854.77457468
4855.44044577
4812.90903553
4813.39859142
4814.33669271
4815.70728058
4817.4835581
4819.62981305
4822.11329858
4824.87559124
4827.87970466
4831.0727032
4834.39267076
4837.76613038
4841.11034044
4844.33414255
4847.33890253
4850.02609645
4852.30379155
4854.09249917
4855.32919261
4855.96429502
4404.89516126
4406.32803753
4409.05840717
4412.95453763
4417.61309569
4423.1337481
4429.89803369
4437.6459047
4445.86570962
4454.18983277
4462.41877133
4470.37099198
4477.887244
4484.70540436
4490.40259145
4494.86440661
4498.57723499
4501.71525486
4503.93709904
4505.15635611
4406.11349957
4407.61509726
4409.79756177
4411.92081469
4414.37067693
4418.6668825
4425.70532077
4434.72980143
4444.51081452
4454.36044337
4464.09276672
4473.53403575
4482.52599385
4490.5446996
4496.4338773
4499.64333835
4501.14938593
4502.51007535
4504.16340965
4505.39044163
4408.49113467
4409.45094263
4408.90307407
4406.84390329
4406.26658808
4409.86839383
4418.21634546
4429.6854222
4442.2260781
4454.73256271
4467.07346048
4479.10188742
4490.65137626
4500.95279115
4508.04719016
4510.53241868
4509.01797326
4506.21920101
4505.18138776
4505.81170236
4411.8190027
4410.50102196
4404.92940114
4398.3232656
4395.65417013
4399.54449487
4409.95182531
4424.30310961
4439.94524698
4455.61451961
4470.90342766
4485.87678995
4500.31737841
4513.3119357
4522.29880732
4525.0613012
4521.49614347
4514.2261937
4508.223025
4506.56233906
4415.44043703
4410.32514783
4399.65510646
4389.74060354
4386.07875606
4391.02714817
4403.75498549
4420.78642004
4439.1107931
4457.21305178
4474.99332745
4492.42411107
4509.25989431
4524.63473154
4535.72131425
4539.58940116
4535.07491597
4524.56520267
4513.53436233
4508.16443206
4419.27436498
4410.4924441
4396.21342327
4384.28401834
4380.52520461
4387.03526456
4402.08841929
4421.20007133
4441.12440836
4460.44123821
4479.40405044
4497.99466307
4515.94022555
4532.56942001
4545.6374974
4551.0099282
4546.42206924
4533.99534888
4519.44552703
4510.44944712
4424.11113749
4413.0933243
4396.92776779
4384.01380003
4380.38494457
4388.11460091
4404.74687423
4425.62673918
4445.81638913
4464.59880851
4483.17777425
4501.15390183
4518.46502582
4536.55347194
4550.94959604
4557.61492645
4553.27377985
4540.00447329
4523.67619211
4512.50556781
4430.08015169
4418.37483873
4401.62159307
4388.31473643
4384.56356511
4392.64641845
4408.54135328
4433.67786268
4451.10548653
4466.40870238
4482.4227676
4497.29830345
4513.56207791
4537.61411597
4553.26301496
4560.30279422
4556.08789156
4542.60716676
4525.81027622
4514.02534292
4436.54987985
4424.73443911
4407.81354279
4394.2499441
4390.13483594
4397.86366685
4413.0754951
4438.00464802
4454.23579235
4468.90092622
4483.90490348
4498.35799146
4514.05716482
4538.79955642
4554.78596427
4561.78848506
4557.57747691
4544.07714426
4527.25770313
4515.44648977
4443.03027523
4431.12331559
4414.0368364
4400.19526882
4395.63146106
4402.56405962
4417.67688613
4441.94977916
4457.49511105
4471.572542
4486.0262378
4500.1751014
4516.22366984
4540.30520383
4556.45489647
4563.45623359
4559.25815161
4545.73962774
4528.90600704
4517.07813627
4449.37432465
4437.38667757
4420.14464405
4406.03746667
4401.04482397
4407.29807521
4422.03303904
4443.80834487
4459.42476727
4473.52441185
4488.11229898
4502.85942976
4519.41565079
4542.05145086
4558.22961225
4565.31708026
4561.10713326
4547.59285714
4530.75325445
4518.91490703
4455.75566921
4444.26370685
4427.32868889
4413.17384257
4407.71396608
4413.04832972
4426.24077266
4442.09484066
4457.93947577
4474.03484129
4490.40199771
4507.13704271
4524.99939988
4544.26095425
4559.55823376
4566.14749258
4561.75252524
4548.36638728
4531.92655795
4520.6379058
4462.48183522
4453.02720177
4437.7299145
4424.19395303
4418.15238682
4421.71135136
4432.94902683
4447.75322855
4463.31851494
4479.13802359
4495.16896016
4511.64594895
4528.68903602
4545.5285849
4558.51247822
4563.41563868
4558.48479828
4545.76177779
4530.98716334
4521.76187718
4469.11515529
4463.13562165
4451.24557777
4439.45352222
4433.22784034
4434.92738074
4443.75944574
4456.63696773
4470.5978136
4484.7605868
4499.15286317
4513.81970706
4528.78077534
4542.95657672
4553.1192444
4555.99581883
4550.74693551
4539.69585876
4528.2905782
4522.53609035
4474.56916946
4472.24963358
4465.2677007
4456.54509887
4451.04153075
4451.4269973
4457.75510108
4467.77838304
4478.91015614
4490.26409725
4501.82725298
4513.57983773
4525.47491427
4536.49172529
4543.88360734
4545.25318199
4540.58823893
4532.51170241
4525.96551328
4523.85636665
4478.64577681
4478.60104454
4476.47679152
4472.06843321
4468.44358365
4468.35287934
4472.48662397
4479.4643884
4487.36286261
4495.47200173
4503.7578368
4512.17457472
4520.65255503
4528.38967731
4533.36268009
4534.08041406
4531.15892974
4527.31469277
4525.59060787
4525.74386375
4481.84731066
4482.3821775
4482.85724692
4482.47852903
4481.71953929
4482.18109304
4484.89089129
4489.34183483
4494.44197538
4499.7448373
4505.2032081
4510.75709935
4516.32812142
4521.40190444
4524.80992793
4525.96181849
4525.82666599
4525.96663011
4526.81544555
4527.53327721
4484.28807483
4484.8042508
4485.77779486
4487.08515126
4488.42907823
4490.02761508
4492.41412403
4495.52932886
4499.01974687
4502.70814976
4506.53894987
4510.44437074
4514.34246086
4518.00402858
4521.01432804
4523.24464704
4525.17118607
4526.96077111
4528.2837025
4528.97813416
4485.93841657
4486.44345667
4487.39947963
4488.79033097
4490.59582666
4492.77796506
4495.29406378
4498.10437186
4501.16128355
4504.41349111
4507.80061139
4511.25095678
4514.68078226
4517.99444988
4521.08818169
4523.85802636
4526.20701005
4528.05148865
4529.33410298
4529.99958801
4486.79510131
4487.29472184
4488.24385067
4489.63060802
4491.42890536
4493.603366
4496.11392318
4498.915159
4501.96339545
4505.20515514
4508.57833379
4512.00936235
4515.41434184
4518.69843785
4521.76175605
4524.50174622
4526.8231281
4528.64316278
4529.89660146
4530.53413768
4075.09946363
4076.60869109
4079.48144632
4083.56514433
4088.44390949
4094.23140006
4101.30809159
4109.40503435
4117.98749626
4126.6811052
4135.27458004
4143.57542246
4151.41575334
4158.52791855
4164.47924918
4169.1491431
4173.02520915
4176.29694322
4178.62290136
4179.89824063
4076.39363159
4077.9859824
4080.26377891
4082.50450759
4085.14012672
4089.70282766
4097.07135662
4106.4813911
4116.65699677
4126.90955417
4137.03893021
4146.85766313
4156.19327171
4164.51707133
4170.65651352
4174.05138333
4175.67580875
4177.11310401
4178.83544492
4180.13328947
4078.91056949
4079.94007395
4079.39127041
4077.36738911
4076.96695479
4080.88584237
4089.65125095
4101.52896451
4114.47409266
4127.4173696
4140.18949422
4152.61997334
4164.51550532
4175.11138131
4182.44639263
4185.11571751
4183.69371268
4180.90408999
4179.85112257
4180.54715932
4082.43428753
4081.09583685
4075.43649753
4068.87704932
4066.40863671
4070.64769367
4081.4881543
4096.27506291
4112.4974769
4128.53284167
4144.29947317
4159.7022517
4174.45754503
4187.67372057
4196.86177033
4199.81679215
4196.3226834
4189.03489849
4182.95477358
4181.27514932
4086.2968678
4081.04336779
4070.2699928
4060.41516384
4056.98915789
4062.33475679
4075.5312543
4093.03254098
4111.90836601
4130.49040667
4148.78611558
4166.7370666
4183.79960734
4199.17237658
4210.36493275
4214.52141589
4210.0318573
4199.49364301
4188.34647869
4182.85576499
4090.40228547
4081.40874888
4067.02337363
4055.17356764
4051.69605601
4058.70484042
4074.38020605
4094.04468687
4114.59806389
4134.50482421
4153.96693533
4173.6001554
4191.54920593
4207.20517847
4220.37611573
4226.02437599
4221.46075697
4208.99539946
4194.31466158
4185.13790946
4095.54912783
4084.28870684
4068.00589666
4055.16578714
4051.79332549
4060.01367901
4077.4167946
4099.58087046
4121.08465843
4140.85649855
4160.31494937
4180.61322011
4197.6832442
4211.51697165
4225.72880327
4232.72072123
4228.34628271
4215.02674371
4198.55627582
4187.17761182
4101.85566951
4089.90561727
4073.01769106
4059.74551701
4056.07400722
4063.94291192
4080.3951433
4212.78078311
4228.46790142
4235.39156617
4231.15389918
4217.61621944
4200.6708252
4188.66772132
4108.66731014
4096.61162999
4079.54322443
4065.9853388
4061.87980935
4069.24022326
4084.92830256
4214.00542435
4230.05061958
4236.86529913
4232.62141429
4219.06341004
4202.09482077
4190.06403768
4115.48181396
4103.33300002
4086.09382559
4072.25027742
4067.71575626
4074.46579266
4090.08205954
4215.49861728
4231.64426
4238.49737528
4234.26555757
4220.7148891
4203.73608886
4191.68738219
4122.13278922
4109.89976594
4092.50363065
4078.38883
4073.46906116
4079.79532697
4094.75453931
4216.99973633
4233.32613862
4240.29530909
4236.13898489
4222.58433977
4205.59886781
4193.53913034
4128.78639987
4117.05770774
4099.96533706
4085.794387
4080.43156119
4086.04444731
4099.2805387
4113.24772946
4128.67085565
4144.89457383
4161.55662488
4178.76318578
4197.34296699
4218.22514313
4234.18160385
4241.07830159
4236.8003986
4223.38388953
4206.80023961
4195.29465929
4135.7615897
4126.09943489
4110.64158301
4097.06643792
4091.10210503
4094.85614019
4106.2013225
4120.84247486
4136.33919716
4152.12950917
4168.41855936
4185.11294275
4202.41627679
4219.79703822
4233.22641251
4238.38864776
4233.55618124
4220.7952156
4205.87634211
4196.45593099
4142.62646752
4136.49172078
4124.43989383
4112.58217395
4106.37686478
4108.22917683
4117.18319378
4130.12121328
4144.15973638
4158.45302465
4173.03556171
4187.91348871
4203.11703761
4217.58131861
4227.99214071
4231.02536606
4225.82711935
4214.71990665
4203.16933028
4197.26338944
4148.27283192
4145.86662577
4138.74319471
4129.93684661
4124.43173939
4124.90440024
4131.3372811
4141.46970586
4152.71699879
4164.21536038
4175.94810251
4187.88965796
4199.99530265
4211.23098153
4218.80393099
4220.28118424
4215.6381343
4207.49544259
4200.821726
4198.6245096
4152.47933624
4152.42048365
4150.2176785
4145.72497421
4142.07193419
4142.03152533
4146.25407482
4153.34253072
4161.35971213
4169.60135136
4178.03304297
4186.60744232
4195.25468209
4203.16021459
4208.26946114
4209.06358878
4206.14700732
4202.23869484
4200.44405614
4200.58051345
4155.76508437
4156.31602042
4156.78296977
4156.36662883
4155.58111947
4156.06572914
4158.83782023
4163.37656618
4168.57454599
4173.98471571
4179.56009101
4185.23992258
4190.94462416
4196.14948659
4199.66201065
4200.86972227
4200.74053314
4200.85973916
4201.7117103
4202.45152261
4158.26523518
4158.79592987
4159.78702002
4161.10562746
4162.45718526
4164.0828336
4166.51726805
4169.69518681
4173.25670323
4177.02445715
4180.94306471
4184.94413197
4188.94404194
4192.70672507
4195.80370346
4198.09366736
4200.05842448
4201.88625638
4203.24695388
4203.96398823
4159.95488887
4160.47270893
4161.4460176
4162.8589802
4164.69278282
4166.91211162
4169.47217206
4172.33421823
4175.45029069
4178.76957108
4182.23172082
4185.76409948
4189.28141061
4192.68423145
4195.86524029
4198.71521866
4201.13228605
4203.02883902
4204.34690498
4205.03257159
4160.83557679
4161.34893637
4162.31438789
4163.72429452
4165.5531131
4167.76700158
4170.32027136
4173.17426163
4176.28334838
4179.5938542
4183.0432154
4186.55731901
4190.04941138
4193.42258325
4196.57190491
4199.39151907
4201.78102094
4203.65302973
4204.93946068
4205.59092409
3744.075085
3745.68112034
3748.75115438
3753.11802585
3758.34384886
3764.52601731
3772.03182811
3780.58610339
3789.64083318
3798.81430373
3807.88223602
3816.6383351
3824.90261925
3832.40069297
3838.69601495
3843.66624753
3847.79226765
3851.25817918
3853.72218777
3855.07683353
3745.49276365
3747.18003001
3749.65057123
3752.16592262
3755.14033862
3760.09385145
3767.88748258
3777.75594102
3788.40208837
3799.13289353
3809.73404754
3820.00189235
3829.7464445
3838.43603612
3844.89869866
3848.57879812
3850.44202448
3852.06559579
3853.91576901
3855.30773655
3748.22982492
3749.33444507
3748.96833261
3747.20929132
3747.13992971
3751.4500162
3760.6318306
3772.97155001
3786.39619736
3799.81435201
3813.05438289
3825.92231399
3838.19461708
3849.11043438
3856.72803066
3859.65443166
3858.4456099
3855.82671337
3854.89263135
3855.69866975
3752.03174213
3750.78837747
3745.2681455
3738.94617526
3736.8012075
3741.45865026
3752.74903941
3767.9862407
3784.75345437
3801.20835533
3817.44201838
3833.27462252
3848.35042586
3861.79070103
3871.1963278
3874.37761186
3871.0545568
3863.91007246
3857.96048357
3856.36808369
3756.25596081
3751.09895423
3740.44393854
3730.81493662
3727.70513468
3733.4674602
3747.10805002
3765.04156243
3784.4555121
3803.5571985
3822.3008221
3840.72771697
3858.02676546
3873.41267727
3884.7424853
3889.12942121
3884.75287073
3874.33660074
3863.29649472
3857.86186488
3760.79846743
3751.86887982
3737.59811697
3725.96456054
3722.79407972
3730.22328894
3746.39596734
3766.50329626
3787.66366444
3808.10623223
3828.0380211
3848.29514981
3866.43174244
3881.5165106
3894.82008441
3900.67554332
3896.16703414
3883.79198206
3869.19560409
3860.0773955
3766.41293183
3755.19803276
3739.01722639
3726.36647969
3723.23911155
3731.80062133
3749.96203117
3772.87200037
3795.33517778
3815.85804308
3835.53999359
3856.34919224
3873.36453247
3885.91147765
3900.28950956
3907.36845897
3903.01741572
3889.77158221
3873.37246045
3862.05156576
3773.2002933
3761.28820251
3744.48433682
3731.3584497
3727.77547512
3735.49970078
3753.73910569
3886.5041213
3903.12040278
3910.03052475
3905.79228383
3892.31352018
3875.43208124
3863.48437671
3780.48561458
3768.46544049
3751.46731681
3738.02802317
3733.94599965
3741.0938918
3758.62067625
3887.49332614
3904.65431386
3911.47442951
3907.22663891
3893.72263061
3876.81757551
3864.8394863
3787.75135194
3775.63481518
3758.46013085
3744.72877398
3740.24365663
3747.00884036
3764.0584877
3889.0426004
3906.19059393
3913.08728521
3908.87410239
3895.36156176
3878.44431187
3866.44748351
3794.81274789
3782.60885887
3765.27158373
3751.26076156
3746.41108015
3752.85962661
3768.73759108
3890.70471088
3907.80858519
3914.86319496
3910.74122682
3897.24476032
3880.3224699
3868.31414765
3801.82467526
3790.12345426
3773.08445353
3759.00348521
3753.71383129
3759.45264755
3772.87275884
3785.50809813
3800.75001113
3817.03637259
3833.86032542
3851.39664335
3870.48128945
3892.17940163
3908.5905947
3915.64084822
3911.44123772
3898.09167477
3881.57241022
3870.11753112
3809.10185708
3799.46652415
3784.05535466
3770.55543339
3764.67068915
3768.52088962
3779.88798865
3794.33143588
3809.75028569
3825.63108796
3841.99883361
3858.84835404
3876.34395573
3894.0519609
3907.72399322
3913.02114341
3908.27326068
3895.58245225
3880.7293212
3871.35764793
3816.21467297
3810.10593012
3798.09458227
3786.30095356
3780.18198609
3782.11612386
3791.11137668
3804.02875564
3818.04655172
3832.41002196
3847.08734851
3862.0854271
3877.43414508
3892.07529773
3902.63274688
3905.76913613
3900.64989255
3889.61370677
3878.12897768
3872.26904403
3822.0574687
3819.67474718
3812.58440822
3803.82765383
3798.38600147
3798.92147062
3805.41335204
3815.57658038
3826.85376966
3838.41382977
3850.22987349
3862.27323895
3874.50019833
3885.87058639
3893.56312459
3895.13795539
3890.5784779
3882.51126199
3875.90283906
3873.74768025
3826.41402969
3826.37645495
3824.20123444
3819.74772694
3816.14666875
3816.16383249
3820.4442886
3827.58560217
3835.6574159
3843.96894775
3852.48424441
3861.15451203
3869.90942606
3877.92938076
3883.14749312
3884.04028931
3881.21273415
3877.38166325
3875.64904435
3875.82483533
3829.810144
3830.38020148
3830.87167273
3830.48691664
3829.74509416
3830.28067506
3833.10883102
3837.70767897
3842.97133537
3848.45823619
3854.1214287
3859.89939129
3865.71117097
3871.02794455
3874.65028429
3875.9612816
3875.92446923
3876.11989785
3877.03100239
3877.81011798
3832.38721175
3832.93489025
3833.94838534
3835.29586953
3836.68579973
3838.36013709
3840.84892691
3844.09032862
3847.72377523
3851.57381382
3855.58522472
3859.68886175
3863.79919004
3867.67632501
3870.88633914
3873.28255204
3875.34067798
3877.24415927
3878.66319315
3879.41856667
3834.12596209
3834.65945502
3835.65394492
3837.0954834
3838.96696275
3841.2346124
3843.85055275
3846.77887064
3849.97130464
3853.3774428
3856.93694203
3860.5762779
3864.20745007
3867.72758003
3871.02376392
3873.98141761
3876.49262437
3878.46468292
3879.83826564
3880.55735635
3835.0349893
3835.56370685
3836.55022037
3837.98942402
3839.85651701
3842.11971175
3844.72978534
3847.65211914
3850.84016049
3854.24049275
3857.79025164
3861.41368596
3865.02249814
3868.5144444
3871.78097634
3874.70931129
3877.19318853
3879.13986671
3880.47678141
3881.15297757
3411.72853491
3413.45791722
3416.78927435
3421.52891601
3427.20765072
3433.9015174
3441.96051697
3451.10000366
3460.75760109
3470.54353865
3480.21885924
3489.56046958
3498.3726851
3506.37105125
3513.11291995
3518.47119565
3522.91854794
3526.63215553
3529.27015002
3530.73032103
3413.31503763
3415.11566341
3417.84371141
3420.720733
3424.13530718
3429.59256537
3437.93233009
3448.38159537
3459.62297682
3470.96115338
3482.16309584
3493.00661177
3503.28250106
3512.4512445
3519.33856931
3523.38974157
3525.56188721
3527.42449135
3529.43585426
3530.95040187
3416.34468135
3417.5321932
3417.40926164
3415.99412451
3416.35107316
3421.1613275
3430.88256878
3443.80548595
3457.80583301
3471.82637914
3485.65655642
3499.08150612
3511.85118669
3523.20105484
3531.20278813
3534.46879594
3533.54148097
3531.14595935
3530.3684164
3531.29461844
3420.51804516
3419.38227282
3414.05593959
3408.0502147
3406.30080652
3411.46407135
3423.33051511
3439.20395613
3456.4249547
3473.49940028
3490.30955059
3506.67405119
3522.19169977
3535.98478908
3545.71706046
3549.19816773
3546.11578026
3539.16947636
3533.37333853
3531.88884778
3425.19474878
3420.18323455
3409.67688846
3400.34024293
3397.6215153
3403.90433898
3418.07705029
3436.48979516
3456.53263022
3476.22757894
3495.5061304
3514.44453921
3532.10890046
3547.69889357
3559.3132959
3563.94766086
3559.77678184
3549.53518755
3538.63140762
3533.27716792
3430.30712345
3421.48124409
3407.35781931
3395.99758673
3393.20317608
3401.13775613
3417.86296737
3438.38120645
3460.20642609
3481.21040423
3501.74876633
3522.44071561
3540.87415332
3555.84743498
3569.39752861
3575.5209427
3571.15118296
3558.91809888
3544.4365661
3535.39618588
3436.53541757
3425.39678261
3409.35257092
3396.94933212
3394.15091837
3403.16382968
3422.0737511
3445.13556327
3468.28593341
3489.47162438
3509.65924133
3530.98136215
3548.14781511
3560.04389851
3574.90539545
3582.14816537
3577.928908
3564.81699497
3548.52143672
3537.27501156
3443.95102294
3432.10276344
3415.42034993
3402.51149752
3399.1753066
3407.25229746
3427.14554624
3559.60704305