/*--------------------------------*- C++ -*----------------------------------*\
| =========                 |                                                 |
| \\      /  F ield         | OpenFOAM: The Open Source CFD Toolbox           |
|  \\    /   O peration     | Version:  2.4.0                                 |
|   \\  /    A nd           | Web:      www.OpenFOAM.org                      |
|    \\/     M anipulation  |                                                 |
\*---------------------------------------------------------------------------*/
FoamFile
{
    version     2.0;
    format      ascii;
    class       volScalarField;
    location    "0.9";
    object      p_rgh;
}
// * * * * * * * * * * * * * * * * * * * * * * * * * * * * * * * * * * * * * //

dimensions      [1 -1 -2 0 0 0 0];

internalField   nonuniform List<scalar> 
3072
(
0
-50.5011
-89.8337
-97.6021
-151.231
-51.9403
-12.8777
209.933
182.84
-85.9507
-120.595
-274.99
-53.4181
-163.219
-149.796
-185.044
-28.8278
-134.555
-154.27
222.228
177.926
158.188
99.5383
131.189
-16.358
-140.825
-100.011
-124.775
-58.3294
26.0261
-72.4359
122.5
68.0302
103.937
54.895
103.604
67.3098
6.1526
-8.9803
20.735
105.531
150.822
-69.6482
35.6322
-3.96989
17.7184
57.1304
146.35
57.2949
-134.54
-41.8339
-93.1036
23.2412
240.739
181.611
153.199
-8.98297
-90.2206
-188.931
-170.985
385.664
319.671
377.621
521.51
509.951
353.05
175.37
60.9269
-54.1082
-91.2714
-207.896
-207.563
619.409
625.025
591.413
521.597
221.014
50.1638
-8.54469
-99.8346
-100.713
-18.5674
148.986
179.382
650.213
680.182
701.194
657.741
446.974
202.19
75.4827
-70.6695
-273.915
-325.299
-157.192
28.8982
754.11
762.748
817.918
741.36
530.729
221.402
-85.7679
-235.918
-322.195
-268.353
-213.76
6.09889
793.86
835.584
875.9
780.145
569.009
224.626
-184.857
-357.009
-349.454
-239.224
-155.291
33.4511
915.251
962.634
982.354
845.78
547.911
179.489
-256.814
-528.957
-454.416
-320.646
-120.254
38.8755
985.042
992.665
991.168
887.065
573.651
161.025
-246.8
-665.849
-528.774
-349.842
-98.7239
76.0911
-142.905
-172.003
100.141
141.801
428.154
558.252
829.328
856.38
853.011
854.908
831.057
828.22
182.797
316.224
502.789
618.996
714.576
647.19
666.189
779.974
811.534
871.922
842.801
858.523
173.588
245.474
407.311
575.167
874.568
1050.22
961.337
925.826
882.985
913.355
887.058
884.595
345.406
519.531
761.899
784.445
699.325
728.778
844.439
966.59
926.23
960.473
927.341
898.831
15.3043
353.919
803.789
1057.93
1005.46
972.223
943.345
1046.22
976.759
1002.24
977.506
929.445
-140.694
13.8933
270.4
685.828
827.727
941.437
984.482
1098.31
1028.56
1047.17
1023.54
968.834
121.629
165.658
315.856
634.489
770.6
901.693
973.902
1110.16
1069.34
1075.2
1065.08
1019.3
157.956
255.676
315.39
600.905
752.832
873.621
973.43
1100.16
1064.27
1075.45
1093.02
1070.6
166.775
247.41
330.503
578.137
739.762
856.087
943.033
1042.44
1073.06
1096.49
1117.3
1126.74
177.041
228.775
326.204
557.945
715.974
811.481
914.327
978.471
1042.82
1088.96
1141.64
1174.62
194.909
259.627
334.204
555.251
673.132
763.875
862.315
901.558
976.02
1048.52
1107.06
1157.42
237.825
306.52
383.907
585.435
645.311
711.935
781.195
837.174
902.964
982.041
1087.17
1120.28
-117.564
-185.081
-151.287
-230.519
-231.25
-100.886
53.5378
67.9419
-45.9255
-185.132
-190.64
-249.045
-137.945
-215.094
-196.651
-239.159
-110.218
-321.246
13.8127
189.477
45.0684
98.0717
-39.8607
76.0323
-71.0188
-158.024
-139.697
-332.817
-155.929
-31.5045
57.0195
188.675
148.929
196.66
185.407
286.13
81.2819
34.6981
180.092
228.542
251.683
121.434
-141.125
-53.0359
-26.6757
123.588
190.488
389.943
103.219
12.3865
133.283
37.5396
-10.5149
37.3107
147.673
102.782
16.5907
-35.9018
-93.8003
38.6879
221.654
194.824
287.297
359.731
374.835
256.342
143.669
-71.2078
-92.6882
-134.569
-143.829
-60.336
260.018
282.011
304.693
260.286
108.404
-91.0303
-288.091
-326.398
-313.51
-255.913
-189.065
40.5343
299.095
330.564
337.576
261.546
112.173
24.1319
-48.082
-340.128
-446.56
-446.396
-355.665
-160.732
372.544
404.282
450.649
327.655
124.608
58.636
-128.208
-431.844
-419.965
-423.616
-330.368
-198.519
398.67
375.475
480.66
351.42
172.316
51.6353
-141.214
-402.373
-432.251
-395.839
-321.603
-232.921
377.303
386.195
459.84
348.95
207.958
60.4612
-87.4734
-384.213
-445.401
-384.595
-342.022
-215.761
447.36
385.713
518.85
452.75
284.612
137.389
0.588651
-296.637
-420.613
-393.966
-319.233
-178.801
-97.2385
-45.0534
97.5874
97.2335
166.127
224.076
269.886
251.972
298.501
302.293
308.086
289.98
-1.50059
155.968
236.096
415.934
453.433
413.385
366.659
339.897
345.012
328.282
328.576
318.151
315.275
349.883
139.542
106.746
128.711
266.869
341.092
362.291
386.512
367.081
376.813
359.386
328.226
306.033
133.03
155.582
238.096
341.15
398.706
410.08
445.063
423.087
430.485
407
185.276
541.821
573.075
515.276
451.172
452.419
504.386
504.551
514.004
485.697
490.822
455.796
-26.8116
151.063
269.772
459.167
522.798
526.889
575.678
585.035
580.668
563.151
557.851
513.944
246.96
574.145
531.874
554.977
602.678
589.346
644.694
659.495
647.359
632.144
625.138
576.184
75.4455
402.927
537.295
608.618
656.095
637.244
688.472
715.581
698.515
692.247
691.001
647.43
-19.6463
318.955
519.394
623.857
676.092
669.43
719.015
763.474
750.569
748.069
756.138
748.105
-83.3429
283.053
506.27
624.724
686.145
686.368
732.546
758.453
782.428
790.206
831.942
887.942
-78.7537
284.842
511.488
624.543
678.066
689.505
736.34
731.45
781.621
811.351
884.271
973.155
-19.8574
323.405
537.129
630.837
673.404
690.949
736.743
744.92
742.967
783.299
890.211
966.77
-243.048
-307.563
-261.496
-303.168
-315.56
-171.619
18.6282
72.6879
-16.2417
-204.976
-195.932
-294.768
-293.277
-371.265
-303.966
-323.993
-161.048
-372.372
-59.3668
175.551
37.0035
92.7724
-7.66064
130.863
-295.587
-388.378
-329.397
-397.936
-182.598
-121.679
-84.6993
81.9773
65.2286
149.277
163.388
250.607
-221.669
-283.568
-155.877
-68.4958
-20.9854
-67.973
-182.06
-79.1177
-84.8827
80.5758
209.599
415.579
-234.511
-353.601
-289.029
-440.338
-490.155
-353.72
-134.113
-25.9162
-22.6412
7.50196
17.2014
194.471
-146.461
-214.383
-231.766
-387.864
-512.121
-403.145
-295.401
-276.803
-166.411
-109.236
10.1288
219.336
-80.0279
-79.4716
-102.504
-152.986
-143.415
-30.3058
24.4219
-110.359
-180.79
-209.864
-207.598
-89.4175
-7.42049
26.9331
38.1449
-18.6538
-91.7269
-119.487
-249.878
-368.737
-245.197
-184.435
-153.803
-90.4157
84.3015
134.637
200.928
93.2062
-41.6757
-56.7769
-207.013
-455.812
-339.048
-314.366
-198.01
-114.32
126.322
139.223
256.409
160.469
48.2152
-34.1377
-184.087
-433.022
-394.063
-314.75
-219.844
-134.98
152.884
175.2
298.085
199.664
112.818
-4.42444
-128.135
-415.08
-414.958
-329.283
-257.964
-124.271
299.31
234.166
402.527
285.301
196.515
71.1237
-38.409
-343.559
-402.764
-355.768
-254.37
-96.9646
-96.6727
-43.2739
197.877
274.889
357.967
394.413
462.187
491.488
557.481
567.716
580.819
565.637
51.9712
176.346
244.847
482.199
589.7
727.791
626.742
613.382
608.002
608.146
604.499
599.758
359.044
462.247
386.318
364.026
305.462
425.178
532.506
631.429
660.672
660.11
669.031
654.113
421.891
465.508
378.708
458.702
488.686
612.648
663.708
720.756
744.148
735.078
737.57
718.467
414.308
871.247
1000.81
1028.27
849.853
819.705
824.864
839.76
845.721
814.794
816.473
781.481
491.87
973.61
1087.9
1077.25
976.731
921.202
925.217
927.447
937.521
896.024
891.92
849.909
33.7269
468.814
744.061
944.411
1003.32
964.813
984.659
990.698
1017.01
969.737
964.086
918.126
14.558
397.741
624.668
849.644
980.118
966.42
992.882
1041.13
1081.61
1021.92
1021.62
973.592
-27.3403
334.861
552.014
763.89
920.517
919.503
973.498
1044.16
1094.64
1059.47
1025.49
1013.49
-62.3636
275.626
481.434
670.021
836.715
845.711
895.003
983.375
1038.24
1017.62
1032.02
1033.18
-68.3056
231.918
431.54
576.655
711.607
745.807
762.96
867.669
912.648
912.312
952.343
993.77
-39.4261
219.612
397.85
484.581
580.059
608.637
622.513
665.687
734.559
740.01
844.874
847.134
-1177.02
-1250.85
-1274.09
-1269.41
-1268.19
-1270.92
-1054.37
-662.117
-325.668
-286.481
-823.318
-775.116
-1200.92
-1315.09
-1382.81
-1360.26
-1398.03
-1097.51
-1093.39
-1341.52
-381.631
-357.202
-270.047
-202.497
-1182.82
-1330.75
-1336.42
-1387.31
-1582.28
-1598.36
-1136.12
-1155.9
-680.008
-557.631
-335.583
-242.455
-1102.22
-1279.79
-1247.12
-1032.55
-674.181
-543.943
-352.922
-569.821
-435.89
-475.567
-391.586
-325.995
-828.063
-914.007
-924.461
-1048.35
-1203.41
-919.613
-464.187
-414.331
-179.928
-332.954
-153.901
-110.689
-688.451
-786.117
-699.931
-582.99
-348.93
-432.559
-222.357
-63.9404
-11.6337
-170.147
-307.869
-331.334
-554.81
-600.109
-457.123
-355.976
-251.519
-174.344
103.692
163.769
139.876
-112.272
-358.65
-374.082
-390.727
-439.656
-328.714
-226.123
-133.545
-68.8214
43.9875
12.1768
51.5062
-139.929
-123.984
-114.932
-241.544
-246.935
-104.515
-82.423
-53.0655
-90.539
30.3384
-7.53386
-5.70933
-91.1275
-71.4092
5.54403
-169.044
-140.969
68.9084
27.7182
27.4564
-11.0116
81.0534
0.282023
14.3996
-87.404
-71.9451
29.1919
-52.7752
-48.1778
183.417
152.572
142.017
94.3734
133.289
53.6983
47.3797
-116.36
-67.8546
54.8007
53.2038
154.418
324.317
289.529
283.349
225.642
217.877
138.331
104.336
-22.1391
-10.9081
122.738
-1048.04
-867.097
-956.681
-711.138
-497.009
-56.6832
373.97
597.176
588.792
622.092
554.888
483.859
13.0971
38.4182
94.5366
-69.0468
-129.216
-179.672
65.6086
338
335.336
419.634
283.657
289.266
-148.484
84.1887
214.032
424.093
598.959
722.713
734.834
523.548
428.442
526.02
472.146
467.66
-256.527
-191.343
-48.5096
303.864
503.273
577.384
671.455
517.787
599.378
632.842
560.26
561.486
183.346
375.004
511.712
517.218
566.099
535.026
684.05
653.338
711.732
698.062
628.232
531.36
-52.3822
231.488
454.127
557.564
638.566
606.19
778.691
748.229
769.812
736.185
702.799
604.292
-79.2868
235.88
470.787
592.306
756.117
682.015
805.646
813.648
824.353
793.57
784.449
662.287
97.6313
322.413
514.505
615.949
817.044
691.998
854.447
892.957
878.943
865.437
867.852
785.858
152.455
412.828
567.134
698.916
884.536
738.957
911.117
920.775
939.671
952.873
965.923
916.394
178.366
480.582
642.98
743.45
964.024
833.772
956.165
926.606
981.071
1024.55
1055.84
1073.77
224.458
554.191
704.845
786.73
906.87
853.124
989.862
932.204
997.148
1068.72
1120.56
1207.92
286.072
621.621
770.901
844.524
925.519
883.409
999.291
926.978
991.327
1058.44
1190.95
1372.67
1010.49
999.389
924.237
895.01
608.568
263.272
-127.783
-618.123
-585.819
-407.912
-87.361
135.968
900.049
1004.64
864.489
823.648
638.506
460.555
204.007
-279.901
-440.85
-165.527
53.3606
301.676
650.826
763.53
814.324
799.818
652.309
687.497
654.525
356.283
24.9932
255.866
286.183
523.654
346.414
537.829
763.024
689.469
653.525
906.24
1058.07
950.208
753.747
642.939
585.83
745.446
278.173
372.861
472.458
634.266
641.548
695.814
695.493
723.399
756.755
788.235
896.976
898.416
354.082
479.717
588.547
703.885
629.426
664.588
596.598
578.525
542.598
543.825
621.148
602.805
499.438
597.023
705.103
756.247
611.615
611.092
481.917
452.314
310.627
448.086
368.683
400.048
699.749
685.99
795.544
797.998
627.65
581.291
434.993
366.99
36.0614
138.6
180.069
219.15
585.984
675.033
585.754
511.268
369.063
249.275
142.468
-158.893
-326.084
-299.21
-210.68
-109.272
607.71
650.811
551.321
585.7
492.858
388.508
309.897
72.5839
-51.9255
-99.7097
-3.01763
52.4895
458.908
569.33
518.219
662.182
591.976
559.449
517.23
294.517
288.429
144.744
268.231
277.132
350.085
527.746
581.09
670.006
662.805
679.849
682.602
594.433
624.635
423.275
487.432
537.441
94.5079
412.909
591.966
640.68
643.008
658.139
672.452
698.386
639.371
662.888
690.73
796.494
252.59
495.456
640.342
661.301
626.572
614.357
545.702
566.306
475.327
480.94
482.174
529.908
395.619
551.21
693.375
707.106
646.793
576.788
417.173
430.911
290.263
360.81
279.957
382.672
529.924
614.62
729.229
752.986
691.809
563.203
349.883
332.685
106.433
118.857
91.8603
145.65
356.058
412.08
462.929
339.181
283.261
171
96.5841
-225.684
-299.925
-266.605
-139.367
-24.9811
345.387
373.751
378.161
400.327
385.456
295.535
263.961
-33.0363
-52.8693
-122.233
37.613
135.771
251.801
317.202
385.26
469.638
468.624
448.529
467.06
190.326
234.031
118.589
257.118
381.817
160.3
298.166
415.455
471.538
532.869
581.387
625.553
532.907
593.559
417.707
504.431
646.111
54.4143
248.803
368.029
403.073
434.229
379.24
381.319
433.663
552.959
499.992
602.136
581.25
222.2
304.907
339.838
321.249
273.993
139.036
48.8776
99.8143
184.646
186.869
271.197
324.272
427.897
379.067
341.726
286.914
167.905
-42.7597
-193.746
-232.58
-222.061
-137.807
25.6153
108.709
596.631
483.51
404.045
306.352
155.607
-95.3475
-350.766
-488.034
-657.135
-435.822
-221.898
-77.9868
236.144
463.657
441.118
401.524
428.145
378.831
328.749
262.685
216.172
91.0663
69.4883
213.411
234.209
468.179
608.579
523.175
606.48
607.252
474.812
383.305
324.574
247.45
168.666
358.773
198.058
397.105
566.549
603.76
794.273
791.249
644.67
525.87
429.697
375.767
301.068
533.764
145.648
347.428
439.921
614.201
954.784
1160.22
910.667
642.042
642.472
562.413
486.308
730.314
393.616
679.246
828.312
894.347
945.291
884.175
944.056
913.584
942.59
1016.2
1059.5
1170.59
557.774
745.455
894.049
943.07
969.068
884.443
869.116
827.715
813.345
892.718
834.416
975.568
732.819
799.238
953.418
982.576
1000.4
914.772
759.585
666.209
574.751
598.03
570.655
669.071
906.798
881.318
974.371
1019.75
1028.41
942.283
655.193
436.869
244.72
191.985
55.4066
261.927
143.465
405.82
700.975
578.478
634.125
1020.52
1297.78
1156.25
942.839
935.085
814.928
878.422
419.762
505.546
681.648
604.129
713.58
1113.47
1256.74
1179.6
1024.7
1032.13
908.94
877.548
570.767
632.923
719.857
657.157
834.442
1273.12
1351.69
1162.08
1201.91
1126.33
1021.8
957.884
656.976
713.262
773.237
712.231
914.323
1443.88
1350
1203.86
1109.5
1112.86
1084.09
995.432
856.842
782.617
860.114
827.684
700.64
604.286
485.476
358.597
112.136
61.5308
106.203
66.5772
891.042
872.121
909.357
864.831
766.641
653.91
544.109
403.816
265.804
256.46
231.549
198.696
1045.92
931.577
948.654
931.321
817.577
703.864
602.833
487.516
392.964
361.18
321.004
353.162
999.389
993.805
997.51
952.209
853.779
762.794
667.007
576.137
509.43
454.451
406.756
444.168
272.264
537.011
648.695
621.171
709.973
836.423
797.241
719.631
782.807
520.686
623.716
709.397
318.935
538.451
602.555
603.697
735.689
904.824
867.105
761.779
836.767
748.528
648.601
722.883
425.023
522.704
555.058
614.264
757.517
962.272
864.403
879.223
804.545
805.984
700.689
815.937
488.206
507.52
530.972
624.544
800.369
921.907
801.084
855.927
745.967
849.853
727.087
804.171
647.845
677.886
732.086
753.465
708.594
582.054
414.249
337.179
119.593
40.6791
48.4862
-38.1388
724.989
743.214
784.467
772.845
715.402
606.332
475.897
363.348
233.206
208.378
152.068
103.208
789.09
786.029
805.151
796.841
756.372
652.336
524.225
409.058
315.578
257.969
186.615
185.953
832.07
822.808
836.441
830.045
799.437
709.434
585.484
474.011
392.394
308.594
238.405
218.741
72.7147
275.364
406.284
395.242
568.651
752.347
743.966
677.267
785.693
587.176
692.614
763.801
134.516
262.557
359.34
391.087
611.297
860.432
839.424
775.932
837.684
729.322
644.366
812.64
193.419
259.786
325.836
416.461
656.627
930.78
833.818
864.452
744.214
778.149
702.536
850.609
231.299
268.909
310.414
443.166
709.1
873.776
764.591
829.137
710.891
831.244
732.107
810.329
700.735
636.892
522.928
370.201
165.395
-70.1946
-296.884
-519.544
-743.314
-556.147
-396.13
-233.988
808.711
774.584
683.907
495.487
224.861
-14.3408
-221.064
-436.046
-517.873
-423.281
-312.359
-219.08
894.431
897.793
821.135
649.9
378.551
122.581
-105.838
-326.42
-432.293
-292.668
-186.267
-112.047
999.908
1016
958.458
792.76
521.86
251.696
41.7476
-129.902
-224.88
-134.176
-50.9486
45.3572
84.0807
266.785
269.035
566.736
1020.62
1226.13
1059
732.984
832.865
850.804
629.893
779.415
62.2318
192.609
175.135
510.72
930.618
1122.44
1017.96
818.98
728.732
704.237
711.099
848.905
98.3055
149.527
96.9543
377.608
822.92
975.224
866.173
830.89
790.259
844.98
786.193
841.866
205.296
146.662
-17.1333
124.299
766.042
794.9
705.711
878.776
796.453
754.034
786.144
865.257
946.394
952.786
999.837
1035.23
1050.01
969.623
704.77
486.156
364.369
245.018
135.481
149.079
981.05
1014.03
1030.14
1049.82
1072.11
977.25
760.66
576.088
495.68
420.169
409.447
443.059
1005.06
1063.85
1079.06
1084.94
1091.05
1018.44
843.291
674.767
592.059
519.996
503.039
515.224
1047.05
1105.43
1132.81
1131.14
1113.57
1045.84
941.556
816.398
737.713
658.428
630.853
578.244
718.394
791.81
831.695
729.833
878.29
1625.84
1156.3
1100.85
1205.25
1104.7
1079.54
1078.29
765.729
857.198
898.081
748.526
753.999
1408.91
1221.68
1091.03
1177.86
1101.43
1109.01
1068.94
826.441
952.956
957.057
779.576
569.757
1080.87
1101.39
1097.7
1182.31
1123.9
1109.95
1110.1
962.132
1088.27
1033.03
811.488
407.32
865.728
1066.34
1083.21
1176.11
1113.22
1127.53
1106.72
1138.15
1192.65
1141.76
867.912
287.55
589.981
992.12
1048.21
1170.15
1122.58
1124.08
1132.36
1274
1286.17
1265.09
917.451
114.042
402.484
1022.89
1020.54
1159.76
1124.62
1142.83
1129.86
1364.89
1380.86
1364.36
975.329
165.191
289.383
935.722
991.25
1149.9
1130.38
1135.2
1147.19
1427.39
1491.74
1464.11
1058.41
241.408
266.298
928.623
1018.32
1142.52
1140.4
1152.13
1144.05
1486.17
1586.45
1586.79
1166.96
367.059
376.356
939.444
1048.51
1136.58
1145.57
1145.4
1153.6
1544.38
1669.35
1729.56
1366.96
628.894
518.06
964.914
1085.33
1142.44
1146.55
1156.21
1150.19
1611.42
1740.36
1835.78
1560.09
812.512
649.828
1002.01
1114.97
1144.65
1151.01
1149.96
1153.57
1659.78
1792.31
1870.15
1648.15
900.457
737.232
1039.59
1132.73
1150.25
1149.56
1153.43
1151.83
1070.8
1007.59
988.108
968.05
910.009
823.077
739.442
661.173
606.18
543.403
490.513
489.802
1094.63
1025.59
1026.5
998.996
961.033
882.152
817.929
748.203
701.259
645.338
583.856
552.785
1106.95
1027.56
1013.73
1028.64
989.542
931.428
874.152
812.597
781.554
732.318
683.445
651.79
1084.98
1052.48
1079.02
1050.88
1014.52
970.984
927.719
882.254
853.032
813.089
798.561
789.147
1092.42
1056.02
1023.91
1031.75
1043.28
999.811
976.894
949.46
923.035
903.697
916.628
938.911
1094.65
1065.16
1044.68
1062.73
1052.9
1026.43
1012.95
998.66
988.381
983.683
1009.8
1076.21
1098.05
1053.52
1048.41
1069.11
1066.32
1044.72
1040.44
1043.5
1043.28
1049.84
1088.98
1177.08
1082.34
1066.66
1060.67
1060.02
1064.42
1058.01
1067.12
1077.32
1088.93
1105.5
1156.09
1254.48
1104.86
1075.98
1069.46
1074.77
1073.46
1071.55
1085.42
1104.14
1123.08
1146.85
1199.94
1310.37
1084.03
1080.89
1073.75
1071.54
1077.19
1081.73
1099.82
1123.23
1146.93
1176.2
1233.72
1341.23
1092.88
1075.04
1077.49
1078.49
1080.71
1087.76
1109.19
1136.29
1165.47
1199.27
1256.07
1369.05
1088.47
1079.77
1078.81
1076.42
1082.35
1091.29
1114.4
1145.06
1178.75
1217.76
1281.7
1394.16
499.18
499.041
520.778
599.492
853.345
659.551
697.658
874.976
716.112
850.503
773.378
842.363
537.994
535.245
511.609
506.428
737.375
671.846
771.837
919.483
790.959
884.401
802.63
835.394
624.872
622.708
522.348
366.5
464.663
639.059
870.235
960.468
864.757
873.524
839.582
875.207
774.179
757.533
571.224
257.009
252.273
553.413
815.299
914.441
870.536
891.822
861.473
865.687
971.592
915.994
667.926
233.687
130.171
469.715
759.664
882.121
879.699
882.35
884.048
899.827
1159.26
1063.9
778.095
284.008
99.213
409.584
725.749
859.139
885.044
902.725
897.222
887.501
1283.86
1180.8
871.514
379.677
99.2745
390.286
719.69
856.04
892.552
901.529
909.391
916.537
1376.61
1274.77
981.797
515.728
197.446
420.652
736.972
863.689
898.901
913.987
917.064
909.744
1454.57
1370.66
1099.45
684.831
381.126
495.298
768.748
881.404
909.918
919.554
920.487
927.182
1488.55
1459.38
1179.03
855.222
552.941
593.589
804.11
895.205
915.383
922.758
925.857
922.017
1530.36
1547.98
1201.8
956.061
652.734
663.137
827.596
903.515
918.444
925.033
926.106
928.827
1557.43
1612.11
1209.86
991.287
700.253
709.866
852.584
911.285
920.398
924.908
926.499
926.021
884.575
857.012
871.353
860.71
824.527
761.179
656.376
545.058
461.43
374.245
295.252
253.278
895.715
878.445
890.846
877.68
854.237
811.455
728.308
633.533
547.947
475.875
395.832
346.534
928.675
893.144
906.557
892.47
885.103
855.725
787.813
701.503
636.893
577.655
516.786
496.231
932.462
927.062
926.735
911.552
912.299
886.922
837.325
766.136
715.051
674.199
655.854
658.819
946.516
922.089
912.524
924.184
937.34
911.208
875.345
828.952
789.973
770.248
779.054
810.822
957.007
940.56
935.583
938.592
946.19
931.346
908.852
880.956
857.748
854.001
881.002
944.499
969.029
941.861
946.672
950.051
954.385
945.532
936.108
925.98
914.734
919.935
961.141
1047.7
957.77
953.473
955.114
957.872
960.332
958.531
958.728
960.675
963.341
975.417
1025.55
1120.04
973.453
959.39
957.56
963.17
966.698
969.586
976.338
986.031
997.964
1019.39
1075.4
1179.13
965.361
966.557
966.539
966.669
972.437
978.453
989.777
1005.21
1023.54
1050.18
1108.49
1213.9
971.031
963.584
966.5
970.323
975.994
984.678
999.445
1018.85
1042.47
1073.58
1130.32
1236.51
968.002
966.74
968.736
970.741
978.141
988.426
1005.71
1029.38
1057.95
1093.9
1152.67
1257.55
261.777
296.203
315.511
425.634
781.082
623.041
643.737
897.149
714.943
817.742
767.834
862.69
348.364
353.958
329.93
342.565
658.77
635.902
719.578
925.729
805.878
864.81
793.413
822.72
496.761
483.893
355.156
200.399
368.607
630.943
854.694
920.202
859.838
837.848
819.844
866.379
668.862
653.994
407.616
88.1186
174.269
566.337
805.08
860.971
862.492
859.002
832.691
842.653
852.721
815.573
497.244
25.3122
16.3896
472.499
770.932
824.681
858.049
843.008
851.094
872.635
1021.6
941.05
621.716
15.0386
-87.1099
419.881
741.741
803.337
852.279
863.302
858.547
850.718
1148.49
1045.08
733.923
90.1535
-74.411
412.147
722.344
799.99
850.899
855.165
866.899
876.181
1232.98
1125.7
848.2
252.837
28.3842
446.006
728.794
807.733
850.404
866.317
870.374
864.686
1315.91
1212.66
959.067
490.29
205.57
497.335
741.178
818.745
854.845
867.726
871.363
880.584
1356.05
1301.13
1045.54
678.866
333.995
547.245
761.504
830.723
857.219
869.022
874.716
872.634
1385.5
1365.58
1100.24
810.809
434.499
600.622
783.329
840.145
859.316
870.167
874.129
879.208
1413.52
1420.89
1127
894.253
524.344
652.328
806.12
845.949
860.236
869.384
874.123
875.589
1100.33
1094.02
1058.89
930.879
676.551
365.24
183.927
58.9492
27.8087
77.5149
117.659
230.845
1170.03
1160.19
1153.47
1057.71
842.315
548.905
333.511
226.312
222.671
264.164
312.782
418.795
1221.09
1211.02
1208.82
1137.97
965.583
728.182
489.691
373.367
376.391
435.217
496.253
613.504
1254.61
1245.1
1249.28
1195.13
1076.27
887.971
677.574
539.785
530.511
594.084
679.248
841.355
1293.84
1243.79
1243.37
1232.71
1153.76
1005.26
844.397
729.428
702.348
729.403
864.617
1044.96
1321.09
1277.66
1258.21
1245.32
1191.7
1092.57
971.819
897.191
883.003
916.01
1042.55
1229.76
1320.32
1272.22
1277.64
1264.84
1216.13
1138.94
1068.56
1033.17
1046.66
1108.73
1223.75
1417.48
1319.78
1283.26
1275.93
1250.76
1220.55
1176.85
1136.7
1126.05
1166.35
1251.34
1386.42
1568.44
1334.66
1299.72
1281.64
1260.97
1226.63
1192.48
1173.21
1179.84
1230.61
1326.29
1470.69
1664.44
1316.04
1306.05
1284.08
1260.3
1233.2
1204.18
1191.35
1207.02
1266.73
1367.75
1511.45
1700.4
1324.9
1299.24
1285.87
1264.46
1236.42
1212.95
1205.4
1226.08
1288.48
1391.31
1536.76
1725.67
1316.71
1304.61
1286.44
1263.86
1240.01
1217.88
1213.25
1237.09
1301.77
1406.54
1550.09
1742.78
351.319
245.217
-92.8812
-268.458
209.944
648.145
721.052
788.681
810.805
807.193
820.8
853.217
516.711
384.52
-118.757
-660.501
-269.064
513.384
707.714
758.602
801.023
740.835
781.394
861.194
725.429
557.015
-60.0433
-891.526
-541.752
416.022
600.495
729.627
804.339
793.532
775.004
852.061
935.673
753.876
86.2826
-927.786
-701.923
411.976
579.056
718.102
794.129
796.484
787.795
815.842
1120.3
931.072
250.884
-767.612
-714.575
410.617
548.618
711.758
789.655
804.726
816.317
840.509
1326.99
1122.5
447.549
-508.293
-597.725
410.964
592.996
722.502
788.581
810.041
814.221
820.229
1537.83
1323.39
708.354
-186.246
-326.596
451.477
639.506
741.719
795.464
816.343
825.161
841.069
1715.69
1500.26
1031.62
168.125
-10.6355
511.368
686.586
761.245
802.242
820.66
828.402
831.163
1845.13
1691.02
1267.95
528.279
290.564
587.464
723.216
780.28
810.14
825.376
832.763
840.232
1907.94
1818.41
1310.22
763.158
497.503
646.764
749.304
793.446
815.799
827.928
834.415
837.736
1935.07
1888.58
1328.1
886.494
613.003
692.066
768.106
802.154
819.434
829.648
835.444
838.992
1948.51
1930.85
1373.02
951.929
673.48
724.36
781.092
806.996
821.049
829.973
835.276
838.3
1109.2
1129.13
1170.04
1177.84
1151.76
1104.32
1007.11
912.477
831.971
751.606
688.56
650.892
1156.75
1157.44
1210.99
1195.57
1170.59
1145.38
1068.49
985.019
899.66
831.878
752.028
744.462
1223.05
1183.44
1255.06
1218.12
1188.39
1175.58
1114.49
1047.37
967.986
907.637
856.668
871.875
1243.71
1211.7
1283.99
1222.59
1197.54
1218.64
1171.6
1107.73
1033.08
990.619
969.955
981.528
1270.29
1227
1272.29
1223.54
1233.62
1253.47
1215.96
1150.54
1087.87
1064.67
1062.53
1089.75
1277.1
1268.62
1294.51
1275.6
1269.48
1267.79
1237.35
1179.47
1135.89
1126.16
1141.39
1185.59
1298.21
1277.3
1269.07
1266.63
1270.33
1276.94
1255.2
1209.22
1174.23
1181.49
1211.04
1265.99
1291.74
1294.07
1302.97
1289.32
1290.69
1285.48
1267.58
1235.06
1214.03
1231.4
1269.59
1334.34
1306.33
1296.03
1290.54
1289.95
1289.7
1288.12
1275.5
1257.22
1252.11
1277.44
1319.22
1389.38
1300.93
1300.45
1306.77
1296.89
1296.39
1292.05
1282.96
1273.89
1281.42
1316.16
1359.54
1426.08
1307.39
1301.84
1300.41
1299.31
1298.81
1295.57
1289.11
1285.92
1300.33
1343.39
1391.88
1466.89
1303.78
1302.33
1304.31
1300.39
1300.34
1298.03
1293.86
1294.31
1312.37
1357.6
1413.27
1496.08
)
;

boundaryField
{
    rotor
    {
        type            zeroGradient;
    }
    stator
    {
        type            zeroGradient;
    }
    front
    {
        type            empty;
    }
    back
    {
        type            empty;
    }
}


// ************************************************************************* //
