/*--------------------------------*- C++ -*----------------------------------*\
| =========                 |                                                 |
| \\      /  F ield         | OpenFOAM: The Open Source CFD Toolbox           |
|  \\    /   O peration     | Version:  v1606+                                |
|   \\  /    A nd           | Web:      www.OpenFOAM.com                      |
|    \\/     M anipulation  |                                                 |
\*---------------------------------------------------------------------------*/
FoamFile
{
    version     2.0;
    format      ascii;
    class       volScalarField;
    location    "1.99";
    object      dgdt;
}
// * * * * * * * * * * * * * * * * * * * * * * * * * * * * * * * * * * * * * //

dimensions      [0 0 -1 0 0 0 0];

internalField   nonuniform List<scalar> 
6000
(
-16.7934
-16.997
-17.1932
-18.3443
-18.9048
-19.3595
-19.459
-19.3283
-18.8081
-17.5586
-16.7038
-16.2681
-16.3882
-16.4021
-15.0246
-15.0766
-15.5112
-16.3368
-17.8716
-18.8438
-19.8277
-19.8648
-19.9055
-19.917
-19.9001
-19.8082
-19.7834
-19.5116
-19.2416
-17.9667
-2.6437
-2.34688
-2.29896
-2.1884
-2.10117
-2.03176
-2.02245
-2.09974
-2.09911
-2.16611
-2.17583
-2.16965
-2.16216
-2.16777
-2.44706
-2.49715
-2.50736
-2.32179
-2.03035
-1.9061
-1.90505
-1.93662
-1.99356
-2.0311
-2.05906
-2.07137
-2.05272
-2.04966
-2.13059
-2.49781
-0.406094
-0.474213
-0.43605
-0.31812
-0.285008
-0.304141
-0.320654
-0.312202
-0.344274
-0.508218
-0.679848
-0.627451
-0.425241
-0.434725
-0.69184
-0.777934
-0.470261
-0.304248
-0.228242
-0.20911
-0.210046
-0.212833
-0.226546
-0.242754
-0.25835
-0.259597
-0.251989
-0.300103
-0.391709
-0.407561
-0.147411
-0.213936
-0.156603
-0.0954298
-0.0758257
-0.0765296
-0.0790112
-0.0734401
-0.0813952
-0.155296
-0.339781
-0.405721
-0.285765
-0.160648
-0.221442
-0.257276
-0.118184
-0.056621
-0.040052
-0.0405616
-0.0459967
-0.0483491
-0.0555724
-0.0627421
-0.0716609
-0.0809554
-0.0938754
-0.122749
-0.140248
-0.157227
-0.0771497
-0.0843422
-0.0651753
-0.0473057
-0.0405949
-0.0366071
-0.0378265
-0.0390832
-0.0417775
-0.0543626
-0.100229
-0.189739
-0.281413
-0.139653
-0.00700108
-0.0638726
-0.0408072
-0.0238107
-0.0182432
-0.0238456
-0.027845
-0.0290205
-0.0295337
-0.0295349
-0.0314254
-0.0354721
-0.0391913
-0.0425872
-0.0477826
-0.059497
-0.0234846
-0.0222832
-0.0200349
-0.01821
-0.0185936
-0.020409
-0.0243788
-0.0290485
-0.0336597
-0.0365955
-0.0474516
-0.0742952
-0.169088
-0.153903
-0.0205613
-0.0277043
-0.0230283
-0.0113099
-0.00959512
-0.0165047
-0.0157077
-0.0123909
-0.0104573
-0.00969024
-0.00941265
-0.0109137
-0.0142707
-0.0170018
-0.0186017
-0.0205269
-0.00767496
-0.00773676
-0.00809835
-0.00904591
-0.0103391
-0.0116651
-0.0131732
-0.0152109
-0.0185642
-0.0238131
-0.0336772
-0.041437
-0.0700987
-0.0978573
-0.0531027
-0.0129792
-0.00169789
0.0104202
0.0017993
-0.00541792
-0.00593181
-0.00559111
-0.00537574
-0.00582732
-0.00617765
-0.00677219
-0.00781771
-0.009765
-0.0114647
-0.0122236
-0.00620771
-0.00743672
-0.00814745
-0.00894888
-0.00983884
-0.0110837
-0.012478
-0.0135635
-0.0139071
-0.0134617
-0.0133931
-0.0171584
-0.0191475
-0.055059
-0.0685917
0.000573525
0.0243462
0.0337556
0.0252799
0.00834568
-0.00331485
-0.0061431
-0.0061119
-0.00608159
-0.00585187
-0.00681435
-0.0084601
-0.0096814
-0.0105404
-0.011071
-0.00873251
-0.00933199
-0.00969265
-0.0103164
-0.0112358
-0.012417
-0.0134169
-0.0139923
-0.013642
-0.00905298
0.00741935
0.0367966
0.0214381
-0.0414455
-0.0626195
0.00344624
0.0185967
0.0246914
0.0435745
0.0239306
-0.0013268
-0.00789621
-0.00860278
-0.0084492
-0.00822477
-0.00866983
-0.00977708
-0.0110726
-0.0120602
-0.012377
-0.010932
-0.0113263
-0.0114967
-0.0119762
-0.0128865
-0.014154
-0.015254
-0.0155681
-0.0132159
-0.000837447
0.0413475
0.0961401
0.0468914
-0.0363545
-0.043057
-0.0174285
-0.0100372
-0.00269934
0.0239347
0.0221072
-0.00262378
-0.0108385
-0.0117064
-0.0114258
-0.0114596
-0.0117586
-0.0119475
-0.012241
-0.0132948
-0.0135303
-0.0128141
-0.0128652
-0.0130419
-0.0134626
-0.014071
-0.0151482
-0.0164078
-0.0166757
-0.0113909
0.0130427
0.0687142
0.073209
0.000541003
-0.032297
-0.0290179
-0.0263272
-0.029174
-0.0270872
-0.00984873
0.00667563
-0.00667251
-0.0141675
-0.0149127
-0.014643
-0.014612
-0.0145152
-0.0142247
-0.013619
-0.0142593
-0.0141154
-0.0140659
-0.0136808
-0.0139003
-0.0142469
-0.0146458
-0.0154373
-0.0166576
-0.0167407
-0.0082198
0.0223226
0.0541498
0.0181993
-0.0234916
-0.0329059
-0.0334362
-0.0359684
-0.0377986
-0.0370003
-0.0304954
-0.0122158
-0.0114312
-0.0158222
-0.0167905
-0.0168744
-0.0168021
-0.0163297
-0.0155925
-0.0148102
-0.0152019
-0.0147331
-0.0148173
-0.0143319
-0.0138879
-0.0140706
-0.0144728
-0.0150756
-0.0161095
-0.0158949
-0.0076614
0.0131303
0.0147711
-0.0180462
-0.0363813
-0.0420009
-0.0424325
-0.0402498
-0.0375509
-0.0323205
-0.0269038
-0.01792
-0.0139861
-0.0159938
-0.0172487
-0.0179085
-0.0179077
-0.0171747
-0.0163123
-0.0155323
-0.0156858
-0.0151777
-0.0167541
-0.0145616
-0.0140317
-0.0137629
-0.0140107
-0.014474
-0.0152167
-0.0153979
-0.0111366
-0.00572479
-0.0144331
-0.032469
-0.0389745
-0.0395221
-0.0367028
-0.0327981
-0.0313451
-0.0279513
-0.0231249
-0.0190901
-0.0157896
-0.0161448
-0.0172565
-0.0181882
-0.0181883
-0.0175
-0.0166878
-0.0159844
-0.0157691
-0.0154428
-0.0177407
-0.0159903
-0.0139555
-0.0133403
-0.0134341
-0.0139214
-0.0146261
-0.0154662
-0.0164751
-0.0224053
-0.031743
-0.0395609
-0.0365402
-0.0289829
-0.024393
-0.0243064
-0.029013
-0.029809
-0.0244911
-0.0209361
-0.0179716
-0.0172809
-0.0179373
-0.0185308
-0.018254
-0.0175493
-0.016753
-0.0161084
-0.0157417
-0.015555
-0.0181538
-0.0163649
-0.0133235
-0.0126527
-0.0127189
-0.0132652
-0.0141187
-0.0158586
-0.0207353
-0.036235
-0.0475561
-0.048244
-0.0422409
-0.0298971
-0.0213716
-0.0237353
-0.0302807
-0.0303931
-0.0252107
-0.0223864
-0.0198684
-0.0189885
-0.0190903
-0.0189501
-0.0183112
-0.0174867
-0.016662
-0.0160414
-0.0156669
-0.0155718
-0.01401
-0.0144423
-0.0140357
-0.0117564
-0.0118099
-0.0123498
-0.012994
-0.0158761
-0.0267469
-0.0513355
-0.0728927
-0.0683412
-0.0633396
-0.0517881
-0.0397049
-0.0353191
-0.0326227
-0.0269469
-0.0248327
-0.0240185
-0.0220117
-0.0205974
-0.0200434
-0.0194474
-0.0185639
-0.0175715
-0.0166707
-0.0160358
-0.015668
-0.0155879
-0.0126341
-0.0122145
-0.0137962
-0.0122089
-0.011069
-0.0109941
-0.0105618
-0.0156339
-0.0277022
-0.0579241
-0.091764
-0.0883885
-0.0837352
-0.0732527
-0.0601656
-0.0443499
-0.0341
-0.0295005
-0.0261394
-0.0249426
-0.022639
-0.0210134
-0.0205181
-0.0200899
-0.0192022
-0.0180963
-0.0170821
-0.0163344
-0.015876
-0.0157159
-0.0129552
-0.0131719
-0.0132255
-0.0127851
-0.0116762
-0.0113748
-0.0107632
-0.0109327
-0.0136867
-0.0328786
-0.0623132
-0.0710513
-0.0658974
-0.0579995
-0.0512703
-0.0431183
-0.0397203
-0.0368094
-0.0254894
-0.0250417
-0.0226596
-0.0204578
-0.0204996
-0.0207207
-0.020107
-0.0189652
-0.0179517
-0.0169652
-0.0162542
-0.0157945
-0.0144503
-0.0143414
-0.0136518
-0.0129706
-0.0122787
-0.0109122
-0.0106054
-0.00785843
-0.00676529
-0.0127652
-0.0242769
-0.0329962
-0.0340831
-0.0349011
-0.035916
-0.0383736
-0.0376741
-0.0340705
-0.0256089
-0.0264535
-0.0218194
-0.0181127
-0.0198415
-0.0213948
-0.0214021
-0.0207184
-0.0193604
-0.0177851
-0.0166152
-0.0156496
-0.0151413
-0.0146974
-0.0136097
-0.0126982
-0.0120185
-0.0114158
-0.0111321
-0.00814595
-0.00602161
-0.00530821
-0.00996784
-0.0148043
-0.0184615
-0.0210579
-0.0231226
-0.0258848
-0.0273022
-0.0289591
-0.0296327
-0.023893
-0.0229152
-0.0225474
-0.0204048
-0.0236032
-0.0239888
-0.0234867
-0.0223219
-0.0190299
-0.0164546
-0.0148384
-0.014737
-0.0144104
-0.013362
-0.0126288
-0.0122235
-0.0119792
-0.0118233
-0.00911484
-0.00616622
-0.00678572
-0.00811356
-0.00987203
-0.011935
-0.0132822
-0.0147606
-0.0183177
-0.0239526
-0.0303183
-0.0321647
-0.0319283
-0.03278
-0.03241
-0.0308623
-0.033881
-0.029436
-0.0255154
-0.0230081
-0.0207612
-0.0159198
-0.0129543
-0.0138965
-0.0138395
-0.0131079
-0.0127215
-0.012644
-0.0127351
-0.012695
-0.0105827
-0.00704161
-0.00737995
-0.00829337
-0.00857626
-0.00958997
-0.0109715
-0.0130191
-0.0178854
-0.025364
-0.0305821
-0.0322277
-0.0340794
-0.038444
-0.0449808
-0.0448535
-0.0303139
-0.0212623
-0.016795
-0.0144029
-0.0143271
-0.0166395
-0.0119454
-0.0130628
-0.013174
-0.0128301
-0.0128201
-0.0130691
-0.0136198
-0.0138323
-0.0122249
-0.0085326
-0.00747329
-0.00831808
-0.00839895
-0.00942257
-0.0112606
-0.0142808
-0.0201671
-0.0264832
-0.0293178
-0.030615
-0.0358814
-0.0451189
-0.0463202
-0.0298281
-0.0135575
-0.00725793
-0.00589293
-0.00541521
-0.00517116
-0.0100332
-0.0139731
-0.0122327
-0.0124325
-0.0124797
-0.0128199
-0.0133928
-0.0143721
-0.0150353
-0.013993
-0.0104834
-0.0078716
-0.0081312
-0.00887159
-0.010464
-0.0127103
-0.0165543
-0.0219105
-0.0251953
-0.0263532
-0.0300066
-0.0390912
-0.0444894
-0.0327247
-0.0148529
-0.00648537
-0.00488577
-0.0043986
-0.00445052
-0.00422701
-0.00539497
-0.0114587
-0.0113728
-0.0116651
-0.0121166
-0.0128233
-0.0137506
-0.0150659
-0.0164592
-0.0163413
-0.0132159
-0.00973741
-0.00933977
-0.0104485
-0.0123237
-0.0148447
-0.0185037
-0.0216086
-0.0226498
-0.0244011
-0.0310919
-0.0394157
-0.0347475
-0.0185684
-0.0085951
-0.00535469
-0.00463582
-0.00464154
-0.00449338
-0.00436521
-0.00522896
-0.00974242
-0.0104913
-0.01092
-0.0117656
-0.0129015
-0.0142534
-0.0159424
-0.0181358
-0.0188595
-0.0165316
-0.0133025
-0.0122118
-0.013229
-0.0149682
-0.0171119
-0.0193261
-0.0202302
-0.0207622
-0.0241931
-0.031442
-0.0331182
-0.0219251
-0.0110888
-0.00680673
-0.00522366
-0.00489678
-0.00463001
-0.00467709
-0.00442785
-0.00537861
-0.00965426
-0.00959284
-0.0101771
-0.0114033
-0.0130555
-0.0148891
-0.017102
-0.0199963
-0.0220758
-0.020679
-0.0181949
-0.0165481
-0.0172208
-0.0181478
-0.0188231
-0.0189196
-0.0187157
-0.0196699
-0.0233741
-0.0271041
-0.0226918
-0.0136883
-0.00869567
-0.00653959
-0.00550593
-0.00482496
-0.00485213
-0.00453196
-0.00459906
-0.00577332
-0.00953283
-0.00887693
-0.0097354
-0.0115466
-0.0136373
-0.0160286
-0.0189683
-0.0224933
-0.0260437
-0.0260305
-0.0239536
-0.0227141
-0.0226738
-0.0212834
-0.0196825
-0.0179719
-0.0173148
-0.018225
-0.020314
-0.020419
-0.015767
-0.0116602
-0.00862226
-0.00685951
-0.006042
-0.0054158
-0.00501523
-0.00496012
-0.00504544
-0.00640178
-0.00928949
-0.00790665
-0.00887577
-0.011319
-0.0145482
-0.0176442
-0.0218938
-0.0267421
-0.0310798
-0.0319195
-0.0308343
-0.0299723
-0.0284551
-0.0233605
-0.0196042
-0.017027
-0.0160879
-0.0162089
-0.0167631
-0.0164652
-0.0144615
-0.0122266
-0.00918551
-0.00753345
-0.00671704
-0.00621724
-0.00579623
-0.00565751
-0.00570779
-0.00695934
-0.00915172
-0.00703206
-0.00751595
-0.00960775
-0.0174249
-0.0214103
-0.0261002
-0.0317723
-0.0365329
-0.0380865
-0.0358936
-0.0351546
-0.0318398
-0.0238528
-0.0192542
-0.0165215
-0.0151318
-0.0143916
-0.0142639
-0.0144192
-0.0138932
-0.0126242
-0.00989525
-0.0083969
-0.0074728
-0.00716975
-0.00682646
-0.00660414
-0.0065283
-0.00747014
-0.00876598
-0.00804534
-0.0256063
-0.0187281
-0.0255089
-0.0303186
-0.0330177
-0.0354405
-0.0393947
-0.0399518
-0.0376048
-0.0365614
-0.0315489
-0.0235565
-0.0193315
-0.0166472
-0.0148797
-0.013733
-0.0134578
-0.0139845
-0.0142443
-0.013399
-0.0113933
-0.00946834
-0.00837926
-0.0080921
-0.00790564
-0.00765926
-0.00743855
-0.00797744
-0.00783175
-0.0103132
-0.0116272
-0.027114
-0.0318673
-0.0367502
-0.0384066
-0.0385492
-0.0394745
-0.0382451
-0.035437
-0.0335469
-0.0294249
-0.0233413
-0.0198589
-0.0173673
-0.0155357
-0.0143312
-0.0139568
-0.0145005
-0.0150169
-0.0142503
-0.0128618
-0.0104547
-0.00929261
-0.00893468
-0.00887439
-0.0087334
-0.00857191
-0.00960061
-0.0111423
-0.0151563
-0.0128465
-0.0226528
-0.0250109
-0.0334973
-0.0371359
-0.0371493
-0.036582
-0.0345589
-0.0315108
-0.0300847
-0.0269713
-0.023159
-0.0205221
-0.0184789
-0.0169381
-0.0159341
-0.0155568
-0.0158749
-0.0160803
-0.0150322
-0.0132405
-0.0111634
-0.0100611
-0.00968742
-0.00977457
-0.0097993
-0.0100084
-0.0119055
-0.0154751
-0.01472
-0.0148171
-0.0187693
-0.0152357
-0.0181599
-0.0292804
-0.0325474
-0.0329603
-0.0311121
-0.0278046
-0.0268235
-0.0251925
-0.0228884
-0.0211439
-0.0197668
-0.01881
-0.0183098
-0.0183351
-0.0188659
-0.0188865
-0.0172613
-0.0146132
-0.0121537
-0.0108739
-0.0105024
-0.0107572
-0.0110153
-0.0120507
-0.014576
-0.0161646
-0.0147318
-0.0148998
-0.0166705
-0.0114464
-0.00954207
-0.0159787
-0.0253855
-0.0284041
-0.0279705
-0.0252671
-0.0250127
-0.022887
-0.0226331
-0.0216957
-0.0209075
-0.0204199
-0.0203394
-0.0207447
-0.0217295
-0.0227194
-0.022204
-0.0190145
-0.0150855
-0.0125623
-0.0116437
-0.0119756
-0.0125042
-0.0142322
-0.0168616
-0.0172565
-0.0152026
-0.0154739
-0.0165274
-0.0107843
-0.00984929
-0.0103072
-0.0152199
-0.0222013
-0.0240708
-0.0233445
-0.0227907
-0.0222777
-0.0221163
-0.0215778
-0.0212624
-0.0211043
-0.0212143
-0.0217513
-0.0228295
-0.0245079
-0.0260074
-0.0256057
-0.0221592
-0.0174661
-0.0144099
-0.0138078
-0.0144914
-0.0162781
-0.0180173
-0.0171027
-0.0152421
-0.0157648
-0.0168973
-0.0115586
-0.0104264
-0.0102196
-0.0127976
-0.0160545
-0.0191558
-0.0197222
-0.0203797
-0.0208842
-0.0209974
-0.0209669
-0.0209471
-0.0210465
-0.0213507
-0.0219506
-0.0229645
-0.0245636
-0.026764
-0.0287935
-0.0289487
-0.0262572
-0.0213413
-0.0183209
-0.0181017
-0.0189741
-0.0195056
-0.0165051
-0.0150418
-0.015714
-0.016527
-0.0123996
-0.0105386
-0.0107702
-0.0132902
-0.0157238
-0.017447
-0.0175171
-0.0184999
-0.0194663
-0.0198635
-0.0200671
-0.0202252
-0.0204378
-0.020788
-0.0213398
-0.0221967
-0.0235472
-0.0256215
-0.0283509
-0.0309998
-0.0324546
-0.0311496
-0.0273239
-0.0245176
-0.0232575
-0.0225204
-0.0172301
-0.0146447
-0.0154505
-0.0158879
-0.0127047
-0.010676
-0.0123929
-0.0156094
-0.0181862
-0.0187077
-0.0177312
-0.0177261
-0.0181949
-0.0184949
-0.018697
-0.0188615
-0.0190635
-0.0193636
-0.0198272
-0.0205692
-0.0217997
-0.0237346
-0.0264184
-0.0297744
-0.0333258
-0.0358902
-0.0359507
-0.0329321
-0.0290824
-0.0272966
-0.0202734
-0.0136471
-0.0168321
-0.0165578
-0.0136709
-0.0125506
-0.0156713
-0.0192672
-0.0212067
-0.0204528
-0.0185118
-0.0174324
-0.0171016
-0.0170037
-0.0169982
-0.0170432
-0.0171527
-0.0173639
-0.0177365
-0.0184003
-0.0195472
-0.0213465
-0.0238512
-0.0270146
-0.0307004
-0.0344508
-0.0370845
-0.0367134
-0.0329538
-0.0327834
-0.0257088
-0.0130009
-0.0173093
-0.0191543
-0.0173133
-0.0173556
-0.0207005
-0.0237824
-0.0243911
-0.0221595
-0.0193525
-0.0173659
-0.0162392
-0.0156068
-0.0152516
-0.0150586
-0.0149863
-0.0150499
-0.0153019
-0.0158669
-0.0169003
-0.0185211
-0.0207524
-0.0235123
-0.0266631
-0.0300576
-0.0331567
-0.034508
-0.0329991
-0.0365203
-0.0314897
-0.0149715
-0.0212779
-0.024936
-0.024412
-0.0252342
-0.028257
-0.030066
-0.0278486
-0.0238224
-0.0200657
-0.0173559
-0.0155539
-0.0143678
-0.0135806
-0.0130482
-0.0126985
-0.0125339
-0.0126191
-0.0130462
-0.013926
-0.0153409
-0.0172607
-0.0195912
-0.0222005
-0.0249732
-0.0277461
-0.0299742
-0.03141
-0.0366228
-0.0352644
-0.0191882
-0.026524
-0.0313748
-0.033237
-0.0361968
-0.0377272
-0.0351517
-0.0296797
-0.0243022
-0.0201251
-0.0170501
-0.0148051
-0.0131686
-0.0119599
-0.0110417
-0.0103388
-0.00987477
-0.00977243
-0.0100459
-0.0107572
-0.0119571
-0.0135531
-0.0154517
-0.0175722
-0.0198582
-0.0222748
-0.0247813
-0.0276481
-0.0333443
-0.0370951
-0.0280626
-0.0304089
-0.035069
-0.0398748
-0.0437476
-0.0418329
-0.0351853
-0.0280684
-0.0228348
-0.0189566
-0.0160156
-0.0136873
-0.011831
-0.010317
-0.00902902
-0.00790097
-0.00712469
-0.00685466
-0.00696728
-0.00762811
-0.00856714
-0.00982294
-0.0112639
-0.0129364
-0.0148702
-0.0170816
-0.0196996
-0.0233032
-0.029841
-0.0378686
-0.0384938
-0.0327882
-0.0366787
-0.0414442
-0.0413352
-0.0365752
-0.029025
-0.0233048
-0.0194126
-0.0165336
-0.0141921
-0.0121286
-0.0103008
-0.00862446
-0.00698114
-0.00529723
-0.00429409
-0.00315008
-0.00374863
-0.00430023
-0.00529252
-0.00625389
-0.00724198
-0.00852124
-0.0102289
-0.0123369
-0.0149457
-0.0189353
-0.0265768
-0.0366598
-0.0441162
-0.0344562
-0.0358155
-0.037733
-0.0333769
-0.0280055
-0.0210693
-0.0172136
-0.0152921
-0.0137544
-0.0121549
-0.0104596
-0.00872103
-0.00686249
-0.00474275
-0.00222897
0.00111788
0.00151647
0.00124875
-0.000509098
-0.00186383
-0.00280735
-0.00353308
-0.0045446
-0.0061757
-0.00829977
-0.0106878
-0.0142668
-0.0215629
-0.0320794
-0.0429473
-0.0332156
-0.032748
-0.0329858
-0.0280253
-0.0226193
-0.0173795
-0.0148529
-0.0138127
-0.0125414
-0.0109816
-0.00920383
-0.00717743
-0.00471166
-0.0015855
0.00227229
0.00782199
0.0087791
0.00810894
0.0058982
0.00302372
0.00123086
0.000103684
-0.000989857
-0.00273939
-0.0050994
-0.0072542
-0.00978151
-0.0154442
-0.0274635
-0.0356526
-0.0297581
-0.0290821
-0.0267223
-0.0247829
-0.0210221
-0.0190678
-0.0181467
-0.0166019
-0.0138888
-0.0111809
-0.00844302
-0.00531231
-0.00137655
0.00352879
0.0103009
0.0126224
0.0113417
0.0112081
0.0115776
0.0100625
0.00654519
0.00410953
0.00235888
0.000287006
-0.00242985
-0.00443791
-0.00602838
-0.00953137
-0.0196709
-0.0277461
-0.0258328
-0.0262615
-0.0233603
-0.0230547
-0.021148
-0.0224371
-0.0236341
-0.0213517
-0.016515
-0.0119659
-0.00757617
-0.00270322
0.00308553
0.00868296
0.0111077
0.00634566
0.00037547
0.000221457
0.00580754
0.00973514
0.00961939
0.00711593
0.00494501
0.00269064
-0.000149055
-0.00139953
-0.00241529
-0.0041528
-0.0129446
-0.021427
-0.0223446
-0.0245486
-0.0227166
-0.0214177
-0.021457
-0.0247517
-0.0279185
-0.0249499
-0.0183871
-0.0125592
-0.0072403
-0.00215378
0.00183459
0.00135684
-0.00648336
-0.0146208
-0.0166497
-0.0160538
-0.0143887
-0.00554329
0.00183099
0.00430375
0.00449244
0.00330634
0.000816753
0.00103645
0.00102329
0.00107792
-0.00556808
-0.0164654
-0.0184781
-0.0203634
-0.0191498
-0.0186059
-0.0209566
-0.0258382
-0.0303659
-0.0257604
-0.0188299
-0.0136868
-0.00992853
-0.00826381
-0.0103285
-0.0180623
-0.0296355
-0.0368568
-0.0364398
-0.0359175
-0.0362952
-0.0256703
-0.0133018
-0.00450591
0.000447367
0.00188282
-5.5623e-05
0.00172051
0.00374883
0.00599758
0.00157459
-0.0124895
-0.0135527
-0.0142522
-0.0133858
-0.015746
-0.0203412
-0.0257853
-0.028717
-0.0243756
-0.0188539
-0.0162469
-0.0160457
-0.0188014
-0.0253716
-0.0365118
-0.0475188
-0.0552482
-0.0590771
-0.0561642
-0.0504119
-0.0395212
-0.025801
-0.0129148
-0.0041838
0.000188286
-0.00122497
0.00310376
0.0051073
0.00843989
0.00632249
-0.0137298
-0.0162746
-0.0102517
-0.0092957
-0.0149847
-0.0213137
-0.0258892
-0.0279821
-0.023706
-0.0200893
-0.0205672
-0.0239045
-0.0286794
-0.0358406
-0.0489093
-0.0625684
-0.0729466
-0.0829742
-0.0724808
-0.0670993
-0.0515379
-0.0343812
-0.0194418
-0.00789077
-0.00119511
0.000495256
0.00669293
0.00619468
0.00843396
0.0101779
-0.0163106
-0.0165148
-0.0118798
-0.0104291
-0.0174675
-0.0252828
-0.0267488
-0.0278022
-0.0240178
-0.0235304
-0.0270214
-0.0313439
-0.0346516
-0.0398753
-0.0558869
-0.0688817
-0.0784656
-0.0773947
-0.0748485
-0.0684084
-0.0659309
-0.0418858
-0.0244754
-0.012396
-0.00407834
-0.00120503
0.00831729
0.00965281
0.00954478
0.01337
-0.0147476
-0.0126403
-0.00691059
-0.00822353
-0.013771
-0.0224326
-0.0255771
-0.0268831
-0.0249838
-0.0291098
-0.0329224
-0.034032
-0.0348327
-0.0385208
-0.0548155
-0.0586893
-0.0526804
-0.0495814
-0.0497924
-0.0575951
-0.0709641
-0.045198
-0.0279776
-0.0162459
-0.00819144
-0.00888199
-0.000635409
0.00387157
0.00310693
0.0118335
-0.0183512
-0.0171713
-0.006013
-0.00958188
-0.0211569
-0.0220289
-0.0160076
-0.0220078
-0.0267273
-0.0328123
-0.0341393
-0.0271942
-0.0291027
-0.0438704
-0.0483494
-0.0403207
-0.0212969
-0.0184744
-0.0214154
-0.0387277
-0.0478313
-0.0415714
-0.0302437
-0.0202743
-0.0115533
-0.0149946
-0.0117664
-0.00760869
-0.00557505
0.000905307
-0.0215543
-0.0226275
-0.0118676
-0.019331
-0.0271054
-0.0210271
-0.019428
-0.0238389
-0.0300457
-0.0356393
-0.0340879
-0.0297009
-0.0291743
-0.0420013
-0.0386483
-0.0159377
-0.00504474
-0.00472735
-0.00691673
-0.018757
-0.0331724
-0.0450534
-0.0379132
-0.0302834
-0.0163245
-0.0158515
-0.0125767
-0.0107414
-0.00801385
-0.00626615
-0.0160767
-0.0129293
-0.00671316
-0.0168382
-0.0211062
-0.0206663
-0.0239477
-0.0303843
-0.0352705
-0.0357755
-0.0333438
-0.0324715
-0.0359855
-0.0337992
-0.0192168
-0.00526481
-0.00216231
-0.00255474
-0.00321613
-0.0111138
-0.0253239
-0.0386788
-0.0483052
-0.0408305
-0.0246329
-0.0169878
-0.0133721
-0.0102636
-0.0120651
-0.0138156
-0.0095658
-0.00578927
-0.00659649
-0.0120408
-0.0161292
-0.0184274
-0.0281662
-0.0350105
-0.0354
-0.0333521
-0.0331082
-0.0346288
-0.0324894
-0.0218773
-0.0084979
-0.0035643
-0.00317732
-0.00253847
-0.0029559
-0.00727037
-0.0198887
-0.0316218
-0.042253
-0.0437327
-0.0310606
-0.0204986
-0.0151103
-0.0114139
-0.0132014
-0.0210093
-0.00556045
-0.00453227
-0.00504262
-0.00990099
-0.0134467
-0.0201226
-0.0310669
-0.0379144
-0.0331691
-0.0325722
-0.0341414
-0.0327506
-0.0244862
-0.0127892
-0.00730178
-0.00538404
-0.00484329
-0.00509027
-0.00489193
-0.00646242
-0.0148217
-0.0259168
-0.0361914
-0.0437764
-0.0353358
-0.0221544
-0.0158334
-0.0100422
-0.0128945
-0.0168764
-0.00582975
-0.00483841
-0.00543326
-0.00786858
-0.0103862
-0.0221243
-0.0360647
-0.0370795
-0.0374225
-0.036415
-0.0335766
-0.0298957
-0.0185178
-0.0146995
-0.0126749
-0.012237
-0.0126947
-0.012659
-0.0122519
-0.0118392
-0.0152246
-0.0249608
-0.0405952
-0.0485178
-0.0402661
-0.0227213
-0.01333
-0.00923857
-0.010529
-0.0133091
-0.0122767
-0.00800482
-0.00619007
-0.00608765
-0.0127408
-0.0292051
-0.0388911
-0.0385878
-0.0394261
-0.038502
-0.0351695
-0.0313387
-0.0258541
-0.0243608
-0.0252569
-0.025812
-0.0269332
-0.0271936
-0.0267878
-0.0255051
-0.025592
-0.0313042
-0.0414195
-0.0507125
-0.0463693
-0.0269741
-0.0109395
-0.00896218
-0.00913605
-0.0129268
-0.0205719
-0.0138626
-0.00744262
-0.00860875
-0.0173877
-0.0309411
-0.0335489
-0.0341371
-0.0337865
-0.0328421
-0.0303791
-0.0334009
-0.0342505
-0.0356335
-0.0373008
-0.038337
-0.0395289
-0.0402686
-0.0401185
-0.0394641
-0.0384149
-0.0413127
-0.0377
-0.0443892
-0.0464996
-0.0317666
-0.0125289
-0.00962396
-0.00920547
-0.0116735
-0.0194243
-0.0135674
-0.00830557
-0.00732957
-0.0217724
-0.0178893
-0.0145107
-0.0166517
-0.015027
-0.0113495
-0.0100821
-0.0182515
-0.0241636
-0.0278437
-0.0308238
-0.032618
-0.0317813
-0.0321411
-0.0322372
-0.0311689
-0.0299493
-0.027422
-0.0263747
-0.032707
-0.0384489
-0.0327794
-0.0173365
-0.0122314
-0.0103266
-0.0115167
-0.0131665
-0.0129422
-0.00981431
-0.0157017
-0.0204194
-0.00789153
-0.00368951
-0.00357862
-0.00326176
-0.00270982
-0.00331852
-0.00614027
-0.00907173
-0.0111204
-0.0128821
-0.0140314
-0.0129082
-0.0128077
-0.0127877
-0.0117639
-0.0106138
-0.0079605
-0.00724081
-0.0119418
-0.0251632
-0.0280685
-0.0192126
-0.0134913
-0.0119595
-0.0156398
-0.0178246
-0.0205575
-0.0186265
-0.0207497
-0.017394
-0.00689631
-0.00279752
-0.00224105
-0.00221662
-0.00222503
-0.00247129
-0.0031544
-0.00389673
-0.00435724
-0.00470833
-0.0049583
-0.00475334
-0.00472388
-0.00471255
-0.00447193
-0.00418929
-0.00357599
-0.00310355
-0.0033144
-0.00774463
-0.0230489
-0.0222208
-0.0168417
-0.0130137
-0.0174725
-0.0203655
-0.0176588
-0.0163286
-0.01841
-0.0175338
-0.00763762
-0.00284472
-0.00232859
-0.00231302
-0.00230604
-0.00247538
-0.00287694
-0.00325532
-0.00338851
-0.00342266
-0.0034654
-0.0035033
-0.00353604
-0.00355446
-0.00353147
-0.0034467
-0.00329181
-0.0030591
-0.00296837
-0.00325261
-0.0100992
-0.0222265
-0.0202046
-0.0140507
-0.0156493
-0.0178268
-0.0132754
-0.0146989
-0.0194635
-0.0182556
-0.00728377
-0.00283691
-0.00243598
-0.00237788
-0.00240777
-0.0025952
-0.00303109
-0.0033783
-0.00343054
-0.00342841
-0.00344721
-0.00349706
-0.00354177
-0.00357165
-0.00358107
-0.00353204
-0.00349201
-0.00333849
-0.00304773
-0.00301749
-0.00574513
-0.0149322
-0.0175902
-0.0145753
-0.0149311
-0.0187367
-0.0132664
-0.0154156
-0.0196568
-0.0185391
-0.00630525
-0.00287829
-0.00261698
-0.00251433
-0.00258353
-0.00281361
-0.00329808
-0.00363163
-0.00362642
-0.00359687
-0.00361068
-0.00366687
-0.00373659
-0.00379866
-0.00383713
-0.00380932
-0.00382012
-0.00368101
-0.00330916
-0.00324226
-0.00518697
-0.0139391
-0.0145282
-0.018584
-0.0153366
-0.0195725
-0.0133174
-0.017022
-0.0200774
-0.0191829
-0.00537396
-0.00300655
-0.00283143
-0.00272677
-0.00280694
-0.00308037
-0.00359024
-0.00387777
-0.00383727
-0.00377669
-0.00379617
-0.00387376
-0.00398053
-0.00408854
-0.00416771
-0.00416644
-0.00416781
-0.00399474
-0.00365392
-0.00359884
-0.00502132
-0.011942
-0.0290688
-0.0161418
-0.0175364
-0.0204722
-0.013535
-0.0189226
-0.0223497
-0.0165892
-0.00498973
-0.0031949
-0.00303325
-0.00295766
-0.00303644
-0.00333127
-0.00381078
-0.0040018
-0.00395393
-0.00388213
-0.00391817
-0.00402683
-0.0041733
-0.00432991
-0.00445784
-0.00450112
-0.00449508
-0.00429117
-0.00398064
-0.00395079
-0.0049769
-0.0109583
-0.0106971
-0.0190525
-0.0184283
-0.0209548
-0.0142214
-0.0201742
-0.024722
-0.0117754
-0.00484111
-0.00339727
-0.00321825
-0.00317474
-0.00325187
-0.00353828
-0.00394083
-0.00400311
-0.00400424
-0.0039377
-0.00399634
-0.00414289
-0.00433341
-0.00454323
-0.00472823
-0.00483046
-0.00482014
-0.00460048
-0.0042786
-0.00418438
-0.00475982
-0.00727442
-0.0159935
-0.0201852
-0.0190528
-0.0212628
-0.0144989
-0.0215738
-0.0186888
-0.00794056
-0.00434168
-0.00355607
-0.00338234
-0.00336008
-0.00342666
-0.0036749
-0.00399891
-0.00407954
-0.00396115
-0.00397576
-0.00406152
-0.00425108
-0.00449029
-0.00475963
-0.00501045
-0.00517813
-0.00515766
-0.00492555
-0.00455488
-0.00429476
-0.00436729
-0.0054452
-0.0114554
-0.0201308
-0.0199317
-0.0216415
-0.0168132
-0.0209388
-0.0129285
-0.00543901
-0.00400116
-0.00366714
-0.00351639
-0.00350478
-0.00354803
-0.00373751
-0.00401053
-0.00393692
-0.00405449
-0.00400299
-0.004124
-0.00435715
-0.00464535
-0.0049767
-0.00530122
-0.00553424
-0.00549919
-0.00525286
-0.00482163
-0.00434799
-0.00402709
-0.00427347
-0.00810343
-0.020618
-0.0207339
-0.0220684
-0.019431
-0.0217874
-0.00824787
-0.00426046
-0.00389879
-0.00373113
-0.00360612
-0.00359907
-0.00361293
-0.00374569
-0.00400726
-0.00415468
-0.0040122
-0.00402785
-0.00419013
-0.00446113
-0.00479142
-0.00518114
-0.00558571
-0.00588219
-0.00583463
-0.00557512
-0.00507007
-0.00438485
-0.00383796
-0.00381316
-0.00653486
-0.0208429
-0.0209994
-0.0223073
-0.022158
-0.0225934
-0.00605806
-0.00408867
-0.00391504
-0.00376006
-0.0036555
-0.00364342
-0.00363489
-0.00373323
-0.00399519
-0.00392076
-0.00398701
-0.00404796
-0.00425744
-0.004557
-0.00492126
-0.00536288
-0.00584799
-0.00620951
-0.00616177
-0.00589862
-0.00529764
-0.00443414
-0.00378108
-0.00378054
-0.00597784
-0.0187662
-0.0207836
-0.0224778
-0.0234842
-0.0173409
-0.0052456
-0.00420307
-0.00400296
-0.00378183
-0.00369029
-0.00365749
-0.00363495
-0.00370913
-0.00397285
-0.00414872
-0.00393762
-0.0040549
-0.00431295
-0.00463444
-0.00502757
-0.00551578
-0.00607825
-0.00651685
-0.0064929
-0.00622971
-0.00552163
-0.00452562
-0.00382235
-0.00360616
-0.00587915
-0.0184307
-0.0212083
-0.0233307
-0.0237633
-0.0135903
-0.00515152
-0.00463693
-0.0042082
-0.0038507
-0.00373282
-0.00366758
-0.00363679
-0.00367012
-0.00393913
-0.00386744
-0.00387755
-0.00405282
-0.00435453
-0.00469416
-0.00511581
-0.00564536
-0.0062794
-0.00680901
-0.00683817
-0.00657206
-0.00575939
-0.00465389
-0.00386476
-0.00380874
-0.00596046
-0.0186601
-0.0220804
-0.023659
-0.0237648
-0.0134919
-0.00586702
-0.00531117
-0.00464509
-0.00404261
-0.00379764
-0.00368282
-0.00363118
-0.00362209
-0.00389062
-0.00406723
-0.00382109
-0.00404396
-0.00437989
-0.00473784
-0.00518827
-0.0057563
-0.00645708
-0.00708712
-0.0071925
-0.00692064
-0.00602154
-0.0048478
-0.00398507
-0.00380156
-0.00654177
-0.0189676
-0.0211047
-0.0239523
-0.0238432
-0.0139119
-0.0074846
-0.0061969
-0.00532359
-0.00439675
-0.00389045
-0.00369275
-0.00359785
-0.00355738
-0.00382364
-0.0039355
-0.0037928
-0.00402329
-0.00439035
-0.00477524
-0.0052547
-0.00585984
-0.00662422
-0.00734801
-0.007545
-0.00726607
-0.00631339
-0.00510771
-0.00416303
-0.00393412
-0.00801976
-0.0194992
-0.0195543
-0.0250631
-0.0236175
-0.0183005
-0.00955264
-0.00736146
-0.00612638
-0.00482504
-0.00397475
-0.00367566
-0.00352967
-0.00349139
-0.00373031
-0.00384401
-0.00377904
-0.00399036
-0.00438899
-0.00481489
-0.00532104
-0.00596174
-0.00678808
-0.0075867
-0.0078708
-0.00759262
-0.00663718
-0.00541184
-0.00436639
-0.00400948
-0.00939283
-0.0195768
-0.0194673
-0.0261014
-0.0252835
-0.0216843
-0.0117008
-0.0087229
-0.00695714
-0.00515265
-0.00401012
-0.00360602
-0.00345679
-0.00329712
-0.00359896
-0.00378645
-0.00377266
-0.00395582
-0.00438035
-0.0048617
-0.00539223
-0.00606787
-0.00695387
-0.00780058
-0.00815028
-0.00789566
-0.00697646
-0.00572506
-0.00459098
-0.00429127
-0.00986436
-0.0198498
-0.0195337
-0.0268523
-0.027048
-0.022814
-0.013385
-0.0101889
-0.00775573
-0.00525415
-0.00394296
-0.00338206
-0.00331743
-0.00339563
-0.00342831
-0.00374325
-0.00377557
-0.00393268
-0.00436977
-0.00491778
-0.00547441
-0.00618673
-0.00712794
-0.00799581
-0.00838296
-0.00817679
-0.00730873
-0.00602683
-0.0048644
-0.00478681
-0.00977068
-0.0191218
-0.019903
-0.0275117
-0.027184
-0.0227771
-0.0144051
-0.0117604
-0.0084176
-0.00520093
-0.00375791
-0.00287834
-0.00339642
-0.00328739
-0.00336177
-0.00370264
-0.00381502
-0.00392237
-0.00436249
-0.00498353
-0.00557317
-0.00632959
-0.00731425
-0.00818393
-0.00857898
-0.0084214
-0.00760536
-0.00630375
-0.0051795
-0.00520646
-0.00847463
-0.0168702
-0.0200632
-0.0240631
-0.0236332
-0.0206882
-0.0149459
-0.0133308
-0.0086549
-0.00491466
-0.0035038
-0.00403329
-0.00294432
-0.00329869
-0.00323062
-0.00364926
-0.00388841
-0.00395118
-0.00437553
-0.00506006
-0.00569497
-0.00650831
-0.00752165
-0.0083734
-0.00874955
-0.00861928
-0.0078482
-0.00655152
-0.00551616
-0.00549523
-0.00735755
-0.0145427
-0.0197846
-0.0214991
-0.0216455
-0.0184182
-0.0157248
-0.0145303
-0.00857532
-0.00447985
-0.00335678
-0.00277583
-0.00340308
-0.00323009
-0.00322844
-0.00357005
-0.00395261
-0.0040437
-0.00443655
-0.00515116
-0.00584665
-0.00672868
-0.00776056
-0.00856779
-0.0088991
-0.0087738
-0.00802363
-0.00676071
-0.00585121
-0.00578843
-0.00700757
-0.0129587
-0.0212243
-0.0216026
-0.0219386
-0.017877
-0.0168306
-0.0151332
-0.00775107
-0.00407264
-0.00323803
-0.00348124
-0.00319915