/*--------------------------------*- C++ -*----------------------------------*\
| =========                 |                                                 |
| \\      /  F ield         | OpenFOAM: The Open Source CFD Toolbox           |
|  \\    /   O peration     | Version:  v1606+                                |
|   \\  /    A nd           | Web:      www.OpenFOAM.com                      |
|    \\/     M anipulation  |                                                 |
\*---------------------------------------------------------------------------*/
FoamFile
{
    version     2.0;
    format      ascii;
    class       volVectorField;
    location    "1.99";
    object      Ur;
}
// * * * * * * * * * * * * * * * * * * * * * * * * * * * * * * * * * * * * * //

dimensions      [0 1 -1 0 0 0 0];

internalField   nonuniform List<vector> 
6000
(
(0.0260725 -0.623044 0)
(0.0353088 -0.655707 0)
(0.02921 -0.670843 0)
(0.028627 -0.60863 0)
(0.0339117 -0.587322 0)
(0.0238551 -0.568885 0)
(-0.00411106 -0.556729 0)
(-0.0357298 -0.553456 0)
(-0.0477828 -0.56139 0)
(-0.0461849 -0.590214 0)
(-0.0446176 -0.618238 0)
(-0.039152 -0.638291 0)
(-0.0232304 -0.624398 0)
(-0.00192493 -0.619045 0)
(0.0247166 -0.713343 0)
(0.0348142 -0.726581 0)
(0.0325031 -0.706855 0)
(0.0397647 -0.659233 0)
(0.0443463 -0.592447 0)
(0.0520282 -0.571333 0)
(0.0559016 -0.556223 0)
(0.0360558 -0.554065 0)
(0.00872042 -0.561846 0)
(-0.00753248 -0.572001 0)
(-0.0152758 -0.577294 0)
(-0.0171296 -0.577934 0)
(-0.0165889 -0.566066 0)
(-0.0180915 -0.565553 0)
(-0.02751 -0.555782 0)
(-0.0252927 -0.586354 0)
(-0.00375808 -0.917115 0)
(-0.000540637 -0.9189 0)
(0.0177097 -0.925947 0)
(0.0332151 -0.885476 0)
(0.0388404 -0.859054 0)
(0.036853 -0.837324 0)
(0.0209974 -0.814547 0)
(-0.00608763 -0.810877 0)
(-0.0276593 -0.838591 0)
(-0.0398821 -0.860048 0)
(-0.0413432 -0.892843 0)
(-0.0270759 -0.907671 0)
(-0.0131467 -0.897975 0)
(-0.00234691 -0.897379 0)
(0.00965399 -0.93893 0)
(0.0335753 -0.957967 0)
(0.0515198 -0.931337 0)
(0.0437919 -0.892487 0)
(0.0287322 -0.85785 0)
(0.0165528 -0.853626 0)
(0.00827853 -0.838239 0)
(-0.00625348 -0.816096 0)
(-0.0235557 -0.833532 0)
(-0.0276683 -0.855448 0)
(-0.018984 -0.867759 0)
(-0.00691733 -0.870449 0)
(-0.00475064 -0.860239 0)
(-0.00860741 -0.864763 0)
(-0.0101829 -0.86726 0)
(-0.00582017 -0.907564 0)
(0.0019801 -0.777929 0)
(0.00518973 -0.767921 0)
(0.0179841 -0.772816 0)
(0.0351696 -0.752626 0)
(0.0414892 -0.723945 0)
(0.041443 -0.696197 0)
(0.038312 -0.665836 0)
(0.0273212 -0.647347 0)
(-0.00014045 -0.65996 0)
(-0.031818 -0.678513 0)
(-0.0403635 -0.735781 0)
(-0.0270571 -0.771219 0)
(-0.0132268 -0.775973 0)
(-0.00452391 -0.775827 0)
(0.0066848 -0.793399 0)
(0.036518 -0.806413 0)
(0.0553891 -0.754314 0)
(0.0405349 -0.707579 0)
(0.0148913 -0.684181 0)
(-0.0160733 -0.68062 0)
(-0.0432477 -0.686361 0)
(-0.053605 -0.695257 0)
(-0.048932 -0.743993 0)
(-0.035855 -0.779275 0)
(-0.0198299 -0.794643 0)
(-0.00633706 -0.79351 0)
(-0.00311994 -0.781944 0)
(-0.00671404 -0.782553 0)
(-0.0155922 -0.783836 0)
(-0.01162 -0.838905 0)
(-0.00149076 -0.891679 0)
(-0.00213218 -0.903556 0)
(0.00043701 -0.92702 0)
(0.00908491 -0.93791 0)
(0.0226318 -0.935226 0)
(0.0383322 -0.923543 0)
(0.0601651 -0.893808 0)
(0.0766603 -0.847835 0)
(0.0724577 -0.792003 0)
(0.0590281 -0.736782 0)
(0.0426964 -0.756473 0)
(0.0216467 -0.774083 0)
(0.0123069 -0.787114 0)
(0.0142015 -0.78433 0)
(0.0148635 -0.80005 0)
(0.0105101 -0.821394 0)
(-0.0071429 -0.752426 0)
(-0.0412194 -0.708796 0)
(-0.0736666 -0.718964 0)
(-0.103871 -0.761582 0)
(-0.134357 -0.862649 0)
(-0.145481 -0.951169 0)
(-0.116385 -1.04125 0)
(-0.0616432 -1.07125 0)
(-0.0126734 -1.06895 0)
(0.0201276 -1.03601 0)
(0.0297736 -0.988485 0)
(0.0255692 -0.955807 0)
(0.00731138 -0.931203 0)
(-0.00367216 -1.00179 0)
(-0.0122704 -1.00665 0)
(-0.0303679 -1.0321 0)
(-0.0332362 -1.07283 0)
(-0.0192837 -1.09797 0)
(0.00973634 -1.10643 0)
(0.0538163 -1.11486 0)
(0.107724 -1.11289 0)
(0.154019 -1.08236 0)
(0.174756 -1.00647 0)
(0.167866 -0.889098 0)
(0.141835 -0.801996 0)
(0.105512 -0.752718 0)
(0.0672151 -0.749826 0)
(0.0349534 -0.745231 0)
(0.00462018 -0.752679 0)
(-0.0402702 -0.769486 0)
(-0.0824383 -0.722118 0)
(-0.116492 -0.700703 0)
(-0.169541 -0.758201 0)
(-0.242372 -0.881416 0)
(-0.270561 -1.0475 0)
(-0.205879 -1.13165 0)
(-0.106485 -1.20819 0)
(-0.0237076 -1.21431 0)
(0.0380903 -1.19606 0)
(0.0827216 -1.13615 0)
(0.0999544 -1.05512 0)
(0.0842244 -1.00034 0)
(0.0516201 -0.968289 0)
(0.0178651 -1.05826 0)
(-0.0259219 -1.04231 0)
(-0.0780363 -1.08403 0)
(-0.116628 -1.14656 0)
(-0.136247 -1.1914 0)
(-0.132592 -1.22092 0)
(-0.0921038 -1.23866 0)
(-0.0199442 -1.23292 0)
(0.0720043 -1.20426 0)
(0.178119 -1.15667 0)
(0.26758 -1.06905 0)
(0.274165 -0.938323 0)
(0.199444 -0.802383 0)
(0.118743 -0.747927 0)
(0.0560289 -0.73388 0)
(0.00130316 -0.734539 0)
(-0.0609892 -0.745118 0)
(-0.117965 -0.737062 0)
(-0.178527 -0.755588 0)
(-0.294052 -0.838807 0)
(-0.320646 -0.994483 0)
(-0.208381 -1.18229 0)
(-0.0490099 -1.33044 0)
(0.0896874 -1.37364 0)
(0.166249 -1.35326 0)
(0.210282 -1.31673 0)
(0.245732 -1.23124 0)
(0.257966 -1.09114 0)
(0.211453 -0.980009 0)
(0.13966 -0.946787 0)
(0.0547563 -1.00519 0)
(-0.0571826 -0.953728 0)
(-0.175928 -0.98545 0)
(-0.287635 -1.04631 0)
(-0.379353 -1.09408 0)
(-0.450083 -1.15022 0)
(-0.481069 -1.23385 0)
(-0.450166 -1.32222 0)
(-0.336202 -1.38369 0)
(-0.139436 -1.38536 0)
(0.109926 -1.26077 0)
(0.302406 -1.03953 0)
(0.307091 -0.842638 0)
(0.175652 -0.747803 0)
(0.0681887 -0.731846 0)
(-0.011185 -0.748443 0)
(-0.0763101 -0.776205 0)
(-0.141368 -0.808917 0)
(-0.236641 -0.854455 0)
(-0.243341 -0.90875 0)
(-0.0703325 -1.22782 0)
(0.205065 -1.38805 0)
(0.362796 -1.38065 0)
(0.40225 -1.29195 0)
(0.397227 -1.21148 0)
(0.385733 -1.15305 0)
(0.389053 -1.0931 0)
(0.358513 -0.952952 0)
(0.263842 -0.80529 0)
(0.168187 -0.782332 0)
(0.0629782 -0.804543 0)
(-0.0715225 -0.676707 0)
(-0.209335 -0.706107 0)
(-0.339207 -0.762111 0)
(-0.462569 -0.819606 0)
(-0.576281 -0.903353 0)
(-0.664665 -1.00886 0)
(-0.7148 -1.13631 0)
(-0.706888 -1.27549 0)
(-0.625195 -1.42046 0)
(-0.410502 -1.50824 0)
(-0.0243983 -1.32804 0)
(0.228996 -0.899558 0)
(0.210749 -0.751482 0)
(0.0600407 -0.756372 0)
(-0.0495208 -0.813589 0)
(-0.130514 -0.877693 0)
(-0.174968 -0.941906 0)
(-0.083349 -0.988909 0)
(0.245269 -1.22194 0)
(0.587385 -1.41454 0)
(0.665476 -1.34397 0)
(0.616748 -1.22464 0)
(0.547002 -1.12449 0)
(0.492163 -1.06033 0)
(0.450325 -1.0188 0)
(0.39675 -0.943707 0)
(0.295648 -0.762065 0)
(0.192372 -0.619352 0)
(0.120413 -0.61343 0)
(0.0458778 -0.620016 0)
(-0.0567943 -0.483516 0)
(-0.158715 -0.528681 0)
(-0.254991 -0.587257 0)
(-0.358866 -0.637469 0)
(-0.483822 -0.712073 0)
(-0.625576 -0.836623 0)
(-0.752936 -1.0076 0)
(-0.832117 -1.1939 0)
(-0.838724 -1.36136 0)
(-0.779385 -1.5279 0)
(-0.582784 -1.56566 0)
(-0.187953 -1.20408 0)
(0.0452371 -0.798178 0)
(-0.0164422 -0.790649 0)
(-0.121437 -0.880854 0)
(-0.102217 -0.94539 0)
(0.0592652 -1.08485 0)
(0.457413 -1.36868 0)
(0.900574 -1.55587 0)
(1.00023 -1.40532 0)
(0.862377 -1.19375 0)
(0.698722 -1.05847 0)
(0.572403 -0.980999 0)
(0.475519 -0.933328 0)
(0.388326 -0.889518 0)
(0.281241 -0.785166 0)
(0.174481 -0.60888 0)
(0.103962 -0.491425 0)
(0.0621565 -0.51637 0)
(0.0243594 -0.51609 0)
(-0.0323313 -0.36578 0)
(-0.0852412 -0.42512 0)
(-0.139401 -0.46184 0)
(-0.209989 -0.493517 0)
(-0.29752 -0.535921 0)
(-0.420048 -0.627989 0)
(-0.579281 -0.799529 0)
(-0.749993 -1.02944 0)
(-0.876845 -1.26932 0)
(-0.929086 -1.51485 0)
(-0.889468 -1.67512 0)
(-0.695184 -1.52684 0)
(-0.363383 -1.07529 0)
(-0.169922 -0.831744 0)
(-0.060061 -0.973915 0)
(0.174422 -1.22319 0)
(0.557838 -1.49925 0)
(0.945161 -1.64214 0)
(1.15476 -1.64627 0)
(1.03537 -1.26704 0)
(0.823499 -0.981246 0)
(0.617712 -0.851219 0)
(0.467455 -0.801792 0)
(0.355089 -0.770296 0)
(0.248705 -0.717818 0)
(0.13941 -0.618782 0)
(0.065443 -0.49425 0)
(0.0333442 -0.419888 0)
(0.0288189 -0.475101 0)
(0.0163266 -0.447981 0)
(-0.0178658 -0.306576 0)
(-0.0407376 -0.359636 0)
(-0.0660704 -0.380465 0)
(-0.109177 -0.402417 0)
(-0.158766 -0.423794 0)
(-0.232051 -0.470481 0)
(-0.353874 -0.584741 0)
(-0.533463 -0.781984 0)
(-0.739249 -1.06041 0)
(-0.885558 -1.40978 0)
(-0.940118 -1.70481 0)
(-0.847441 -1.63163 0)
(-0.642852 -1.38587 0)
(-0.281477 -1.15576 0)
(0.126589 -1.27482 0)
(0.497192 -1.46619 0)
(0.791991 -1.65187 0)
(0.998488 -1.69296 0)
(1.03134 -1.51939 0)
(0.84337 -1.05224 0)
(0.654594 -0.762987 0)
(0.473351 -0.665752 0)
(0.33547 -0.645731 0)
(0.23129 -0.62775 0)
(0.135894 -0.575675 0)
(0.0527022 -0.498441 0)
(0.00872125 -0.42588 0)
(0.00426158 -0.385195 0)
(0.0124304 -0.43971 0)
(0.00793262 -0.396546 0)
(-0.0013086 -0.293651 0)
(-0.0108017 -0.316088 0)
(-0.0313331 -0.32917 0)
(-0.0572385 -0.346201 0)
(-0.0847007 -0.360834 0)
(-0.121294 -0.378566 0)
(-0.195966 -0.429286 0)
(-0.339283 -0.552658 0)
(-0.542078 -0.810135 0)
(-0.723674 -1.25366 0)
(-0.758752 -1.57207 0)
(-0.705542 -1.7063 0)
(-0.525503 -1.61947 0)
(-0.170771 -1.47585 0)
(0.22915 -1.49896 0)
(0.529237 -1.59426 0)
(0.703688 -1.67623 0)
(0.791753 -1.6007 0)
(0.711803 -1.26349 0)
(0.60666 -0.864578 0)
(0.47055 -0.584848 0)
(0.34193 -0.51732 0)
(0.233301 -0.521669 0)
(0.146111 -0.514368 0)
(0.0706166 -0.471883 0)
(0.0150103 -0.421908 0)
(-0.00782868 -0.386856 0)
(-0.00298153 -0.368033 0)
(0.00545213 -0.407422 0)
(0.00347655 -0.360174 0)
(0.000717683 -0.30869 0)
(-0.00318649 -0.306182 0)
(-0.0133087 -0.306146 0)
(-0.0285403 -0.312499 0)
(-0.0480147 -0.321721 0)
(-0.0689634 -0.327063 0)
(-0.109061 -0.333718 0)
(-0.204286 -0.376759 0)
(-0.361707 -0.577806 0)
(-0.533701 -1.09604 0)
(-0.531114 -1.52812 0)
(-0.429055 -1.77045 0)
(-0.272032 -1.77655 0)
(-0.0234444 -1.69799 0)
(0.242093 -1.67753 0)
(0.468002 -1.68349 0)
(0.583173 -1.65336 0)
(0.56571 -1.45663 0)
(0.477538 -1.09183 0)
(0.396199 -0.707787 0)
(0.295258 -0.44111 0)
(0.220215 -0.401704 0)
(0.149404 -0.42299 0)
(0.0853589 -0.425731 0)
(0.0326499 -0.401475 0)
(0.00156714 -0.377907 0)
(-0.00670014 -0.363708 0)
(-0.00071024 -0.355617 0)
(0.00261929 -0.373117 0)
(0.00048814 -0.336013 0)
(0.00912455 -0.349789 0)
(0.0122349 -0.316933 0)
(0.00123466 -0.299031 0)
(-0.01042 -0.291146 0)
(-0.0256863 -0.292285 0)
(-0.0423924 -0.290555 0)
(-0.0617492 -0.28007 0)
(-0.105336 -0.269075 0)
(-0.197012 -0.386895 0)
(-0.334878 -0.93526 0)
(-0.318404 -1.49343 0)
(-0.209593 -1.81967 0)
(-0.0998468 -1.88366 0)
(0.0700605 -1.84777 0)
(0.271534 -1.81164 0)
(0.471218 -1.73174 0)
(0.511662 -1.5687 0)
(0.421761 -1.27592 0)
(0.302005 -0.963852 0)
(0.181623 -0.550499 0)
(0.124876 -0.336671 0)
(0.103263 -0.327232 0)
(0.0738634 -0.355279 0)
(0.0378244 -0.365654 0)
(0.00911745 -0.358908 0)
(-0.00388685 -0.35227 0)
(-0.00516461 -0.347264 0)
(-0.00091528 -0.344376 0)
(0.000273429 -0.347539 0)
(-0.000697343 -0.323472 0)
(0.034713 -0.425342 0)
(0.0517809 -0.338551 0)
(0.025772 -0.300295 0)
(0.0100668 -0.276609 0)
(-0.00508263 -0.267378 0)
(-0.0198051 -0.257652 0)
(-0.0283579 -0.246681 0)
(-0.0300262 -0.22944 0)
(-0.0576426 -0.276757 0)
(-0.153006 -0.798892 0)
(-0.145596 -1.46349 0)
(-0.0463251 -1.83414 0)
(0.0221284 -1.91007 0)
(0.129511 -1.88691 0)
(0.286656 -1.85922 0)
(0.451984 -1.72522 0)
(0.424115 -1.38918 0)
(0.284063 -1.02652 0)
(0.113374 -0.734517 0)
(0.00237218 -0.417544 0)
(-0.00659254 -0.287811 0)
(0.00835522 -0.294622 0)
(0.00995562 -0.319201 0)
(-0.000268219 -0.331926 0)
(-0.00892309 -0.334593 0)
(-0.0109641 -0.335848 0)
(-0.00879386 -0.335351 0)
(-0.00495919 -0.33506 0)
(-0.00299913 -0.33315 0)
(-0.00150965 -0.319098 0)
(0.0473962 -0.555861 0)
(0.0863867 -0.385116 0)
(0.0685167 -0.288886 0)
(0.0371528 -0.255613 0)
(0.0133848 -0.244285 0)
(-0.00393239 -0.231311 0)
(-0.0132214 -0.230102 0)
(0.0128262 -0.245577 0)
(0.0404049 -0.272884 0)
(0.0222702 -0.735621 0)
(0.0376964 -1.46338 0)
(0.100949 -1.8412 0)
(0.139306 -1.89976 0)
(0.177342 -1.86957 0)
(0.244176 -1.82901 0)
(0.356563 -1.63835 0)
(0.302549 -1.25733 0)
(0.138186 -0.814953 0)
(-0.0236982 -0.53902 0)
(-0.0908109 -0.350036 0)
(-0.0785167 -0.281995 0)
(-0.050243 -0.290475 0)
(-0.0336928 -0.307018 0)
(-0.027993 -0.317626 0)
(-0.0246971 -0.323326 0)
(-0.0204353 -0.327691 0)
(-0.015287 -0.329447 0)
(-0.0101329 -0.330286 0)
(-0.00614071 -0.327503 0)
(-0.00223858 -0.31939 0)
(0.0438513 -0.801044 0)
(0.115489 -0.516749 0)
(0.103004 -0.301289 0)
(0.0494391 -0.222819 0)
(0.0220146 -0.219227 0)
(-0.00252622 -0.216786 0)
(-0.0335618 -0.243489 0)
(0.00648211 -0.328279 0)
(0.105368 -0.414382 0)
(0.201691 -0.85918 0)
(0.258701 -1.54182 0)
(0.233834 -1.80871 0)
(0.210885 -1.84909 0)
(0.169472 -1.81298 0)
(0.129968 -1.76358 0)
(0.147435 -1.55332 0)
(0.133499 -1.13947 0)
(0.0225259 -0.633931 0)
(-0.0825099 -0.430674 0)
(-0.117762 -0.332011 0)
(-0.102286 -0.297671 0)
(-0.0752378 -0.300997 0)
(-0.0566197 -0.310141 0)
(-0.0453296 -0.317946 0)
(-0.0368005 -0.324118 0)
(-0.0289647 -0.329244 0)
(-0.0212111 -0.331698 0)
(-0.0140554 -0.332074 0)
(-0.00808074 -0.328896 0)
(-0.00266482 -0.323485 0)
(-0.00253494 -0.740878 0)
(0.0494711 -0.649879 0)
(0.0876898 -0.390998 0)
(0.0447043 -0.227813 0)
(0.00584837 -0.201047 0)
(-0.0325693 -0.202772 0)
(-0.0839128 -0.276016 0)
(-0.0361665 -0.501508 0)
(0.208281 -0.735472 0)
(0.456418 -1.09813 0)
(0.489989 -1.55127 0)
(0.3594 -1.82846 0)
(0.237917 -1.87931 0)
(0.11747 -1.83132 0)
(-0.0104476 -1.79332 0)
(-0.0873889 -1.65842 0)
(-0.0353449 -1.24488 0)
(-0.0367561 -0.626219 0)
(-0.0896895 -0.402344 0)
(-0.111817 -0.340427 0)
(-0.0992326 -0.318217 0)
(-0.0812901 -0.316856 0)
(-0.066798 -0.321251 0)
(-0.0553511 -0.327662 0)
(-0.045266 -0.334523 0)
(-0.0349623 -0.340214 0)
(-0.0242973 -0.342247 0)
(-0.0147448 -0.340467 0)
(-0.00735784 -0.335646 0)
(-0.00208751 -0.330588 0)
(-0.0112122 -0.639827 0)
(-0.0377743 -0.556521 0)
(-0.0219696 -0.415785 0)
(0.00573878 -0.285794 0)
(-0.0173535 -0.216302 0)
(-0.0649421 -0.185396 0)
(-0.141311 -0.352637 0)
(-0.141372 -0.946095 0)
(0.236269 -1.28744 0)
(0.552516 -1.40931 0)
(0.563211 -1.61059 0)
(0.390335 -1.7981 0)
(0.217894 -1.88342 0)
(0.0573358 -1.83745 0)
(-0.114514 -1.81006 0)
(-0.247282 -1.77626 0)
(-0.193124 -1.48264 0)
(-0.111614 -0.772993 0)
(-0.0972816 -0.400694 0)
(-0.103632 -0.346211 0)
(-0.0975017 -0.336642 0)
(-0.0862075 -0.331902 0)
(-0.07467 -0.331967 0)
(-0.0650802 -0.340326 0)
(-0.0542191 -0.351707 0)
(-0.0397934 -0.360753 0)
(-0.0238384 -0.362401 0)
(-0.0106211 -0.355486 0)
(-0.00254684 -0.345921 0)
(8.88175e-05 -0.338817 0)
(-0.0197148 -0.539266 0)
(-0.0467952 -0.477559 0)
(-0.0516192 -0.373894 0)
(-0.0352553 -0.293234 0)
(-0.0257576 -0.233707 0)
(-0.0515073 -0.190215 0)
(-0.120412 -0.431163 0)
(-0.171437 -1.00715 0)
(-0.00435672 -1.45242 0)
(0.283072 -1.61352 0)
(0.388877 -1.70689 0)
(0.314727 -1.8047 0)
(0.158697 -1.88356 0)
(-0.0149568 -1.86552 0)
(-0.196636 -1.84127 0)
(-0.353166 -1.82499 0)
(-0.402494 -1.63851 0)
(-0.269695 -1.09779 0)
(-0.173552 -0.535767 0)
(-0.139194 -0.384052 0)
(-0.105392 -0.357319 0)
(-0.091556 -0.332021 0)
(-0.0884184 -0.334825 0)
(-0.0825542 -0.352823 0)
(-0.0701908 -0.375836 0)
(-0.0475709 -0.39212 0)
(-0.0192284 -0.393545 0)
(0.00166404 -0.375944 0)
(0.00877702 -0.355704 0)
(0.00464034 -0.342094 0)
(-0.0174708 -0.467107 0)
(-0.0329976 -0.433779 0)
(-0.0255898 -0.348548 0)
(-0.0116316 -0.278237 0)
(0.00388643 -0.22432 0)
(0.00676725 -0.184534 0)
(-0.0359082 -0.357914 0)
(-0.149391 -0.930537 0)
(-0.178784 -1.45567 0)
(-0.0631983 -1.65623 0)
(0.056601 -1.70771 0)
(0.0937643 -1.70595 0)
(0.0367041 -1.72535 0)
(-0.105103 -1.68128 0)
(-0.282119 -1.61022 0)
(-0.498692 -1.64485 0)
(-0.692619 -1.53418 0)
(-0.738271 -1.31524 0)
(-0.55845 -0.968109 0)
(-0.358773 -0.645808 0)
(-0.204406 -0.526821 0)
(-0.147161 -0.42527 0)
(-0.134909 -0.339931 0)
(-0.117021 -0.366456 0)
(-0.0976299 -0.404226 0)
(-0.0621806 -0.428954 0)
(-0.012424 -0.428741 0)
(0.0229487 -0.392302 0)
(0.0288237 -0.352427 0)
(0.0131566 -0.325487 0)
(-0.00967902 -0.409816 0)
(-0.012356 -0.402327 0)
(0.00476932 -0.332698 0)
(0.026209 -0.272285 0)
(0.0482315 -0.221031 0)
(0.0624803 -0.177508 0)
(0.036944 -0.268175 0)
(-0.106533 -0.836076 0)
(-0.256255 -1.38376 0)
(-0.239906 -1.5951 0)
(-0.173152 -1.66523 0)
(-0.122352 -1.64565 0)
(-0.126074 -1.58035 0)
(-0.237156 -1.45876 0)
(-0.410641 -1.33453 0)
(-0.662365 -1.32578 0)
(-0.918567 -1.25815 0)
(-1.10615 -1.24291 0)
(-1.13103 -1.21848 0)
(-0.979502 -1.12959 0)
(-0.718716 -1.02685 0)
(-0.434684 -0.844302 0)
(-0.292247 -0.549237 0)
(-0.209003 -0.47455 0)
(-0.125699 -0.486504 0)
(-0.067219 -0.5097 0)
(-0.00673709 -0.512475 0)
(0.0469784 -0.477484 0)
(0.0608384 -0.329096 0)
(0.0259144 -0.273801 0)
(-0.00122557 -0.365284 0)
(0.00778836 -0.373635 0)
(0.0301314 -0.318812 0)
(0.0562262 -0.268735 0)
(0.0839679 -0.224361 0)
(0.107104 -0.181251 0)
(0.0965355 -0.205896 0)
(-0.0356242 -0.625875 0)
(-0.267018 -1.24148 0)
(-0.310222 -1.53789 0)
(-0.246603 -1.59872 0)
(-0.217835 -1.56255 0)
(-0.236942 -1.42096 0)
(-0.349998 -1.21954 0)
(-0.506067 -1.04559 0)
(-0.748627 -1.01027 0)
(-0.984674 -1.01472 0)
(-1.18723 -1.11103 0)
(-1.2907 -1.17289 0)
(-1.29461 -1.1789 0)
(-1.24049 -1.23676 0)
(-1.12097 -1.24882 0)
(-0.888624 -1.07624 0)
(-0.631692 -0.816981 0)
(-0.394757 -0.780729 0)
(-0.213142 -0.839618 0)
(-0.0559605 -0.868408 0)
(0.102603 -0.794508 0)
(0.0973853 -0.355795 0)
(0.0287198 -0.200598 0)
(0.00505448 -0.332818 0)
(0.0221952 -0.344961 0)
(0.047659 -0.304973 0)
(0.0768207 -0.266476 0)
(0.107887 -0.230958 0)
(0.141045 -0.197463 0)
(0.143344 -0.182679 0)
(0.0423734 -0.424069 0)
(-0.203356 -1.04085 0)
(-0.317715 -1.46234 0)
(-0.26541 -1.55103 0)
(-0.244168 -1.49311 0)
(-0.29176 -1.29135 0)
(-0.397571 -1.02699 0)
(-0.557336 -0.853739 0)
(-0.727379 -0.778261 0)
(-0.914675 -0.839421 0)
(-1.08037 -0.965004 0)
(-1.21358 -1.05121 0)
(-1.28111 -1.07546 0)
(-1.36976 -1.16839 0)
(-1.44735 -1.30882 0)
(-1.44395 -1.39215 0)
(-1.16973 -1.27228 0)
(-0.83157 -1.18641 0)
(-0.500939 -1.15679 0)
(-0.245106 -1.148 0)
(0.000629259 -1.09039 0)
(0.199954 -0.669802 0)
(0.0937673 -0.225825 0)
(0.00893232 -0.309386 0)
(0.0307413 -0.317951 0)
(0.0584304 -0.293268 0)
(0.0905614 -0.267289 0)
(0.12548 -0.242071 0)
(0.166062 -0.218422 0)
(0.186573 -0.193595 0)
(0.125512 -0.283909 0)
(-0.106769 -0.866794 0)
(-0.289657 -1.34868 0)
(-0.271981 -1.501 0)
(-0.258768 -1.4114 0)
(-0.312775 -1.15282 0)
(-0.422166 -0.89295 0)
(-0.538242 -0.67256 0)
(-0.666726 -0.638531 0)
(-0.80193 -0.716543 0)
(-0.921381 -0.815695 0)
(-1.03947 -0.884522 0)
(-1.16191 -0.953286 0)
(-1.29189 -1.08316 0)
(-1.40115 -1.25315 0)
(-1.36196 -1.3252 0)
(-1.18416 -1.32893 0)
(-0.893926 -1.26232 0)
(-0.612112 -1.21309 0)
(-0.367955 -1.17654 0)
(-0.187038 -1.11673 0)
(0.0820422 -0.867098 0)
(0.0755326 -0.406161 0)
(0.0108832 -0.294382 0)
(0.035112 -0.298859 0)
(0.0644809 -0.287172 0)
(0.0990762 -0.272692 0)
(0.137995 -0.257432 0)
(0.182352 -0.241511 0)
(0.22123 -0.221767 0)
(0.190481 -0.234535 0)
(0.0113479 -0.631893 0)
(-0.220146 -1.18931 0)
(-0.259735 -1.428 0)
(-0.263763 -1.32508 0)
(-0.334791 -1.08626 0)
(-0.418046 -0.738456 0)
(-0.511914 -0.561604 0)
(-0.602859 -0.558468 0)
(-0.683674 -0.618275 0)
(-0.767347 -0.684099 0)
(-0.873171 -0.735481 0)
(-1.01081 -0.838057 0)
(-1.12782 -1.00227 0)
(-1.14312 -1.12601 0)
(-1.09203 -1.30046 0)
(-0.95089 -1.37507 0)
(-0.761279 -1.38039 0)
(-0.572674 -1.35445 0)
(-0.361156 -1.30394 0)
(-0.189609 -1.23174 0)
(-0.031534 -0.922238 0)
(0.00659382 -0.472445 0)
(0.0115099 -0.288771 0)
(0.0364489 -0.292039 0)
(0.066475 -0.289669 0)
(0.102359 -0.284358 0)
(0.143351 -0.277298 0)
(0.189661 -0.268624 0)
(0.241209 -0.258068 0)
(0.246602 -0.256654 0)
(0.136006 -0.457982 0)
(-0.12594 -1.05951 0)
(-0.237691 -1.32079 0)
(-0.241808 -1.2265 0)
(-0.317984 -0.951664 0)
(-0.401137 -0.628521 0)
(-0.462697 -0.493622 0)
(-0.519401 -0.504883 0)
(-0.5643 -0.542231 0)
(-0.62945 -0.571493 0)
(-0.742424 -0.614518 0)
(-0.879125 -0.736773 0)
(-0.984439 -0.937518 0)
(-0.918231 -1.06959 0)
(-0.817489 -1.25925 0)
(-0.731743 -1.40544 0)
(-0.617415 -1.46151 0)
(-0.469411 -1.43981 0)
(-0.308954 -1.403 0)
(-0.150366 -1.32338 0)
(-0.0301993 -0.990174 0)
(-0.000195341 -0.478883 0)
(0.0106708 -0.292936 0)
(0.0341772 -0.297722 0)
(0.0640715 -0.302977 0)
(0.100984 -0.30506 0)
(0.142997 -0.304908 0)
(0.190087 -0.30267 0)
(0.244278 -0.299259 0)
(0.281677 -0.301125 0)
(0.218989 -0.380358 0)
(-0.00421061 -0.850617 0)
(-0.198906 -1.24388 0)
(-0.241288 -1.1943 0)
(-0.304479 -0.836128 0)
(-0.369605 -0.564881 0)
(-0.397838 -0.462925 0)
(-0.421251 -0.467247 0)
(-0.453546 -0.479946 0)
(-0.522164 -0.476344 0)
(-0.633516 -0.508541 0)
(-0.739332 -0.628793 0)
(-0.803611 -0.857508 0)
(-0.702533 -1.02436 0)
(-0.606242 -1.23633 0)
(-0.545314 -1.39942 0)
(-0.484749 -1.48675 0)
(-0.366969 -1.49401 0)
(-0.248423 -1.46899 0)
(-0.126747 -1.38156 0)
(-0.041092 -1.02091 0)
(-0.011637 -0.528127 0)
(0.0080509 -0.309636 0)
(0.026797 -0.316709 0)
(0.0558008 -0.330893 0)
(0.095577 -0.337947 0)
(0.139876 -0.344348 0)
(0.188007 -0.34805 0)
(0.241836 -0.348637 0)
(0.293524 -0.350696 0)
(0.270413 -0.390304 0)
(0.120261 -0.68832 0)
(-0.0983099 -1.06366 0)
(-0.209312 -1.07656 0)
(-0.277782 -0.746038 0)
(-0.319569 -0.538884 0)
(-0.323145 -0.457819 0)
(-0.3262 -0.441978 0)
(-0.354029 -0.423038 0)
(-0.41826 -0.393362 0)
(-0.496699 -0.409737 0)
(-0.557843 -0.534341 0)
(-0.539639 -0.737667 0)
(-0.496119 -0.975688 0)
(-0.436413 -1.21274 0)
(-0.37519 -1.37835 0)
(-0.341151 -1.47695 0)
(-0.282748 -1.5177 0)
(-0.192916 -1.49845 0)
(-0.11794 -1.40993 0)
(-0.0371808 -1.03631 0)
(-0.00693422 -0.582766 0)
(0.00384501 -0.338459 0)
(0.0124881 -0.35099 0)
(0.0411067 -0.386996 0)
(0.0894584 -0.390669 0)
(0.137893 -0.398602 0)
(0.188482 -0.409242 0)
(0.243018 -0.41089 0)
(0.293531 -0.405677 0)
(0.298415 -0.428639 0)
(0.18868 -0.593892 0)
(-0.0139013 -0.92379 0)
(-0.14944 -0.966279 0)
(-0.223582 -0.68513 0)
(-0.248141 -0.534108 0)
(-0.239493 -0.460485 0)
(-0.238063 -0.421709 0)
(-0.260904 -0.375958 0)
(-0.302458 -0.330109 0)
(-0.336747 -0.334973 0)
(-0.355005 -0.46257 0)
(-0.353587 -0.716141 0)
(-0.321175 -0.925853 0)
(-0.29824 -1.17806 0)
(-0.240898 -1.35102 0)
(-0.214817 -1.43948 0)
(-0.188179 -1.50336 0)
(-0.151014 -1.50569 0)
(-0.1107 -1.41533 0)
(-0.046699 -1.04464 0)
(-0.00978847 -0.567293 0)
(-0.00463163 -0.369279 0)
(-0.0221138 -0.386232 0)
(0.0155074 -0.468448 0)
(0.0999159 -0.461416 0)
(0.153573 -0.464145 0)
(0.198676 -0.47905 0)
(0.254377 -0.482037 0)
(0.300018 -0.458016 0)
(0.304476 -0.45645 0)
(0.213473 -0.557773 0)
(0.0547115 -0.816108 0)
(-0.077191 -0.863067 0)
(-0.14927 -0.64367 0)
(-0.163769 -0.532692 0)
(-0.156046 -0.460914 0)
(-0.155403 -0.405275 0)
(-0.166211 -0.345743 0)
(-0.178251 -0.294956 0)
(-0.178638 -0.294057 0)
(-0.17067 -0.405021 0)
(-0.174505 -0.650037 0)
(-0.169306 -0.871245 0)
(-0.165046 -1.12416 0)
(-0.141694 -1.30664 0)
(-0.109482 -1.40351 0)
(-0.117538 -1.45604 0)
(-0.107644 -1.46995 0)
(-0.0963904 -1.3942 0)
(-0.0680696 -1.0394 0)
(-0.0269638 -0.617373 0)
(-0.00841073 -0.360745 0)
(-0.0460773 -0.447797 0)
(-0.0293535 -0.665316 0)
(0.099653 -0.588165 0)
(0.195909 -0.530398 0)
(0.232668 -0.535672 0)
(0.281488 -0.535044 0)
(0.318008 -0.480709 0)
(0.306849 -0.460795 0)
(0.229198 -0.545323 0)
(0.106315 -0.730948 0)
(-0.00650275 -0.763087 0)
(-0.0673224 -0.610527 0)
(-0.0814242 -0.524886 0)
(-0.0812651 -0.457153 0)
(-0.0796298 -0.396089 0)
(-0.07689 -0.335365 0)
(-0.0682276 -0.286223 0)
(-0.052585 -0.279352 0)
(-0.0355261 -0.368192 0)
(-0.0375649 -0.586445 0)
(-0.041193 -0.813411 0)
(-0.050902 -1.0527 0)
(-0.0634837 -1.2448 0)
(-0.0497469 -1.34655 0)
(-0.0587265 -1.39582 0)
(-0.0650441 -1.40791 0)
(-0.0683474 -1.34215 0)
(-0.0750283 -1.006 0)
(-0.040006 -0.648333 0)
(-0.047066 -0.401234 0)
(-0.139978 -0.53945 0)
(-0.1659 -0.977836 0)
(0.0400947 -0.862253 0)
(0.228394 -0.621732 0)
(0.269233 -0.549952 0)
(0.295958 -0.52303 0)
(0.319034 -0.461689 0)
(0.299429 -0.440828 0)
(0.230302 -0.52962 0)
(0.14018 -0.676885 0)
(0.0562137 -0.668646 0)
(0.00384626 -0.577042 0)
(-0.0131106 -0.510368 0)
(-0.0174891 -0.451672 0)
(-0.012573 -0.395385 0)
(0.000381018 -0.340559 0)
(0.0211151 -0.294581 0)
(0.0466186 -0.281662 0)
(0.0720352 -0.347141 0)
(0.078784 -0.524472 0)
(0.0644379 -0.780002 0)
(0.0291117 -0.96357 0)
(-0.00993763 -1.16315 0)
(-0.021321 -1.27994 0)
(-0.0195978 -1.32928 0)
(-0.0222346 -1.33784 0)
(-0.0258051 -1.27101 0)
(-0.0549799 -0.944234 0)
(-0.0376701 -0.692276 0)
(-0.0608844 -0.499793 0)
(-0.191662 -0.521047 0)
(-0.341546 -1.07012 0)
(-0.175946 -1.36657 0)
(0.181341 -0.813605 0)
(0.297807 -0.560483 0)
(0.304645 -0.478457 0)
(0.308338 -0.429278 0)
(0.286022 -0.419052 0)
(0.224651 -0.513495 0)
(0.15997 -0.622717 0)
(0.10016 -0.590897 0)
(0.0559651 -0.542399 0)
(0.0387505 -0.493573 0)
(0.0350738 -0.447337 0)
(0.0437086 -0.40171 0)
(0.0639595 -0.35681 0)
(0.0949436 -0.316745 0)
(0.132981 -0.300452 0)
(0.169775 -0.342317 0)
(0.183865 -0.465401 0)
(0.146546 -0.673373 0)
(0.0785721 -0.849583 0)
(0.0259287 -1.06086 0)
(-0.00859191 -1.20239 0)
(-0.00709007 -1.26584 0)
(0.00758018 -1.2795 0)
(0.0154458 -1.19079 0)
(0.0125686 -0.843259 0)
(0.00432167 -0.675681 0)
(-0.0404024 -0.455623 0)
(-0.136106 -0.364593 0)
(-0.31766 -0.873645 0)
(-0.397389 -1.56083 0)
(0.00219781 -1.31185 0)
(0.253876 -0.656949 0)
(0.305751 -0.474784 0)
(0.300318 -0.407562 0)
(0.280161 -0.407491 0)
(0.228257 -0.499621 0)
(0.173601 -0.560812 0)
(0.125479 -0.536342 0)
(0.091235 -0.511418 0)
(0.0765791 -0.477955 0)
(0.0752551 -0.444572 0)
(0.0862931 -0.411344 0)
(0.110608 -0.378985 0)
(0.148371 -0.349669 0)
(0.195091 -0.334536 0)
(0.236719 -0.352097 0)
(0.251172 -0.414038 0)
(0.210512 -0.551467 0)
(0.122262 -0.758052 0)
(0.0314547 -0.930225 0)
(-0.022032 -1.11045 0)
(-0.0256206 -1.20916 0)
(-0.00495556 -1.23173 0)
(0.0256401 -1.10027 0)
(0.0363455 -0.806257 0)
(0.0138674 -0.598683 0)
(-0.0225243 -0.355838 0)
(-0.0777533 -0.229861 0)
(-0.198666 -0.627817 0)
(-0.363417 -1.47394 0)
(-0.20452 -1.54726 0)
(0.131949 -1.03819 0)
(0.32002 -0.577001 0)
(0.325343 -0.432598 0)
(0.284834 -0.413183 0)
(0.237805 -0.477904 0)
(0.181699 -0.502085 0)
(0.137822 -0.495721 0)
(0.112747 -0.483764 0)
(0.100722 -0.462629 0)
(0.100082 -0.440345 0)
(0.111095 -0.41869 0)
(0.134328 -0.398794 0)
(0.169546 -0.382664 0)
(0.212957 -0.375467 0)
(0.24873 -0.382186 0)
(0.257376 -0.403635 0)
(0.230275 -0.453712 0)
(0.146225 -0.575704 0)
(0.0194465 -0.814673 0)
(-0.0639879 -0.994812 0)
(-0.0722474 -1.13191 0)
(-0.0398483 -1.16621 0)
(-0.0144484 -1.13051 0)
(0.00476688 -0.738702 0)
(0.00422324 -0.519276 0)
(-0.00622354 -0.286811 0)
(-0.032729 -0.15956 0)
(-0.0928843 -0.470116 0)
(-0.212493 -1.34516 0)
(-0.180279 -1.50536 0)
(0.00221959 -1.20967 0)
(0.29102 -0.843186 0)
(0.375442 -0.535303 0)
(0.334167 -0.423021 0)
(0.253495 -0.429619 0)
(0.18553 -0.446046 0)
(0.142824 -0.455282 0)
(0.119904 -0.454122 0)
(0.107412 -0.444648 0)
(0.10534 -0.433716 0)
(0.113553 -0.42306 0)
(0.131109 -0.413939 0)
(0.156915 -0.408316 0)
(0.189255 -0.410007 0)
(0.223631 -0.422781 0)
(0.250433 -0.444034 0)
(0.249337 -0.462057 0)
(0.199524 -0.494621 0)
(0.0868062 -0.627351 0)
(-0.0477532 -0.891874 0)
(-0.103154 -1.13206 0)
(-0.102539 -1.1799 0)
(-0.120136 -1.05969 0)
(-0.0730983 -0.733217 0)
(-0.0120169 -0.471711 0)
(0.00122914 -0.23244 0)
(-0.010571 -0.131884 0)
(-0.0224769 -0.430777 0)
(-0.0837034 -1.26231 0)
(-0.0758417 -1.47408 0)
(0.0334478 -1.25442 0)
(0.137796 -0.838416 0)
(0.268376 -0.582603 0)
(0.272583 -0.390446 0)
(0.213824 -0.353505 0)
(0.153888 -0.386204 0)
(0.117082 -0.416228 0)
(0.0962561 -0.428113 0)
(0.0861518 -0.431485 0)
(0.0869804 -0.431957 0)
(0.0969015 -0.431117 0)
(0.113883 -0.430267 0)
(0.136738 -0.431282 0)
(0.164987 -0.43697 0)
(0.198725 -0.451204 0)
(0.235674 -0.475843 0)
(0.265206 -0.501659 0)
(0.268873 -0.522004 0)
(0.217132 -0.571324 0)
(0.0961353 -0.732448 0)
(-0.0381277 -0.969955 0)
(-0.126156 -1.06532 0)
(-0.197115 -0.986572 0)
(-0.13962 -0.768122 0)
(-0.0315033 -0.469457 0)
(0.0062199 -0.179184 0)
(0.000645309 -0.120946 0)
(0.0262301 -0.470655 0)
(0.0302724 -1.20748 0)
(0.0450767 -1.43222 0)
(0.079632 -1.22756 0)
(0.0558899 -0.852478 0)
(0.0759661 -0.509477 0)
(0.0765208 -0.324896 0)
(0.0726809 -0.298537 0)
(0.0651534 -0.351019 0)
(0.058959 -0.393977 0)
(0.0550668 -0.415786 0)
(0.0573788 -0.428387 0)
(0.0665279 -0.435794 0)
(0.0811486 -0.440298 0)
(0.100418 -0.443883 0)
(0.124119 -0.448485 0)
(0.152589 -0.456473 0)
(0.185899 -0.470938 0)
(0.221747 -0.493206 0)
(0.256635 -0.519515 0)
(0.286132 -0.548489 0)
(0.291101 -0.591072 0)
(0.231536 -0.680687 0)
(0.0990042 -0.834155 0)
(-0.0433752 -0.92733 0)
(-0.166503 -0.875826 0)
(-0.161179 -0.816231 0)
(-0.0448753 -0.522964 0)
(0.0134864 -0.145265 0)
(0.0166 -0.13491 0)
(0.0531489 -0.544528 0)
(0.108849 -1.1899 0)
(0.130147 -1.36832 0)
(0.075526 -1.07846 0)
(-0.026108 -0.700154 0)
(-0.0890182 -0.429608 0)
(-0.0886477 -0.31911 0)
(-0.0533863 -0.308286 0)
(-0.0190252 -0.352497 0)
(0.00296835 -0.390254 0)
(0.0178932 -0.413635 0)
(0.0328247 -0.429305 0)
(0.0495666 -0.439634 0)
(0.0686143 -0.446884 0)
(0.0903308 -0.453027 0)
(0.115163 -0.459869 0)
(0.143602 -0.46979 0)
(0.175265 -0.485277 0)
(0.20808 -0.50691 0)
(0.23985 -0.532918 0)
(0.269728 -0.564091 0)
(0.291097 -0.605091 0)
(0.276516 -0.671742 0)
(0.193841 -0.768485 0)
(0.0721714 -0.824905 0)
(-0.0615163 -0.766361 0)
(-0.123396 -0.836349 0)
(-0.0493861 -0.609636 0)
(0.0192025 -0.142046 0)
(0.0515409 -0.196587 0)
(0.102604 -0.623924 0)
(0.165112 -1.12515 0)
(0.146513 -1.21477 0)
(-0.0138021 -0.922266 0)
(-0.144829 -0.556054 0)
(-0.189441 -0.395987 0)
(-0.172685 -0.347681 0)
(-0.124533 -0.347477 0)
(-0.0751782 -0.374203 0)
(-0.038944 -0.400176 0)
(-0.0116771 -0.419701 0)
(0.011964 -0.43428 0)
(0.0343511 -0.444857 0)
(0.0569577 -0.452981 0)
(0.080678 -0.460303 0)
(0.106197 -0.468426 0)
(0.133911 -0.479561 0)
(0.163254 -0.495562 0)
(0.19244 -0.51669 0)
(0.21929 -0.542043 0)
(0.241844 -0.571802 0)
(0.257191 -0.608326 0)
(0.255164 -0.657943 0)
(0.212426 -0.723512 0)
(0.135102 -0.764446 0)
(0.0473717 -0.708399 0)
(-0.041643 -0.826588 0)
(-0.0415889 -0.701045 0)
(0.026692 -0.184231 0)
(0.100254 -0.313116 0)
(0.182493 -0.709116 0)
(0.204507 -1.0872 0)
(0.0618943 -1.05701 0)
(-0.14626 -0.70916 0)