/*--------------------------------*- C++ -*----------------------------------*\
| =========                 |                                                 |
| \\      /  F ield         | OpenFOAM: The Open Source CFD Toolbox           |
|  \\    /   O peration     | Version:  v1606+                                |
|   \\  /    A nd           | Web:      www.OpenFOAM.com                      |
|    \\/     M anipulation  |                                                 |
\*---------------------------------------------------------------------------*/
FoamFile
{
    version     2.0;
    format      ascii;
    class       volScalarField;
    location    "6";
    object      alpha.water;
}
// * * * * * * * * * * * * * * * * * * * * * * * * * * * * * * * * * * * * * //

dimensions      [0 0 0 0 0 0 0];

internalField   nonuniform List<scalar> 
11640
(
0.999999832005
0.999999832005
0.999999832005
0.99999977337
0.999999801286
0.999999856879
0.999999856802
0.999999859215
0.999999940162
0.999999923848
0.999999959319
0.999999968585
0.999999987308
0.999999963201
0.999999995789
0.99999998564
0.999999996021
0.999999954106
0.999999967333
0.999999966237
0.999999827904
0.999999831999
0.999999827776
0.999999811249
0.999999749637
0.999999749648
0.999999785627
0.99999991201
0.999999995091
0.99999993156
0.99999996983
0.999999999926
0.999999976589
0.999999995326
0.999999964784
0.999999986586
0.999999935717
0.999999948598
0.99999992753
0.999999887015
0.999999910081
0.999999827846
0.99999983567
0.999999794462
0.999999782385
0.999999735901
0.99999979489
0.999999963173
0.999999999485
0.999999973527
0.999999911654
0.999999965394
0.999999990471
0.999999933348
0.99999996494
0.999999872032
0.999999894459
0.999999899841
0.999999898488
0.999999895653
0.99999991008
0.999999884531
0.999999835671
0.999999853382
0.999999753403
0.999999771783
0.999999955699
0.999999989554
0.999999978653
0.99999998882
0.999999968645
0.999999986078
0.999999990479
0.999999987648
0.999999813985
0.999999812447
0.999999834832
0.999999790845
0.999999913913
0.9999999167
0.999999934146
0.999999851957
0.99999987289
0.999999830166
0.999999856584
0.999999932328
0.999999937753
0.999999939016
0.999999979201
0.999999967675
0.999999891711
0.999999885641
0.999999923371
0.999999851023
0.999999814279
0.99999990162
0.999999862014
0.99999978383
0.999999793416
0.999999817094
0.999999932253
0.999999894353
0.999999886534
0.999999880315
0.999999915123
0.999999960665
0.999999924536
0.999999982539
0.99999996853
0.999999917446
0.999999799706
0.999999854048
0.999999742817
0.999999827198
0.999999857147
0.999999843881
0.999999697136
0.99999974209
0.999999715814
0.999999784061
0.999999928224
0.999999879001
0.999999896377
0.99999980559
0.999999891021
0.999999973162
0.99999996915
0.99999992425
0.999999911243
0.999999879198
0.999999868016
0.999999795574
0.999999814915
0.999999838879
0.999999790037
0.999999835234
0.999999507371
0.999999672977
0.9999998144
0.999999733313
0.999999928228
0.999999996233
0.999999817866
0.999999865568
0.999999802371
0.999999867746
0.999999922762
0.999999920261
0.999999922902
0.999999818876
0.999999819028
0.999999848101
0.99999985109
0.99999985109
0.999999703117
0.99999946232
0.999999500885
0.999999603233
0.999999866622
0.999999804883
0.99999994347
0.999999930244
0.999999842644
0.99999978317
0.99999988829
0.999999893348
0.999999806221
0.999999846399
0.999999823691
0.999999855045
0.999999736001
0.999999807855
0.999999820047
0.999999656174
0.999999642516
0.99999950108
0.999999582347
0.999999775747
0.999999930338
0.999999683293
0.999999967666
0.999999969171
0.99999984261
0.999999864183
0.999999843448
0.999999720854
0.999999796938
0.999999870468
0.999999865302
0.999999619928
0.999999705339
0.999999800127
0.999999804259
0.999999723439
0.999999637612
0.999999573991
0.999999685872
0.99999985255
0.999999946277
0.99999970912
0.999999961315
0.999999962975
0.999999894026
0.999999859345
0.999999839022
0.999999733284
0.999999763515
0.999999797082
0.999999746422
0.999999782012
0.999999718452
0.999999633935
0.999999839247
0.999999728312
0.999999705379
0.999999659818
0.999999685815
0.999999873903
0.999999886465
0.99999968321
0.99999996506
0.99999996506
0.999999934803
0.999999808431
0.999999754928
0.999999724916
0.999999713571
0.999999709584
0.999999782012
0.999999782012
0.999999728825
0.999999720731
0.999999855696
0.999999497884
0.999999515098
0.999999501038
0.999999483806
0.999999859276
0.999999786249
0.99999968321
0.999999946343
0.999999879496
0.999999884477
0.999999890247
0.99999986937
0.99999975691
0.9999997907
0.999999705987
0.999999673039
0.999999744762
0.99999989627
0.999999700677
0.999999849554
0.999999670057
0.999999712474
0.999999709295
0.999999700104
0.999999685743
0.999999810635
0.999999694869
0.999999872992
0.999999877443
0.99999986755
0.999999924938
0.999999930484
0.999999901068
0.999999857023
0.999999803895
0.999999875573
0.999999768725
0.999999975949
0.99999988651
0.9999998211
0.999999859032
0.999999854994
0.999999735491
0.999999809312
0.999999817502
0.999999865223
0.999999902462
0.999999925399
0.999999742418
0.9999997242
0.999999716624
0.999999792253
0.999999942879
0.999999963214
0.999999948713
0.999999958553
0.99999989126
0.99999997659
0.999999905048
0.999999903505
0.999999863276
0.999999981565
0.999999999993
0.999999994548
0.999999949933
0.999999957735
0.999999939697
0.999999742418
0.999999722692
0.999999660423
0.999999815687
0.999999700237
0.999999774866
0.999999860569
0.999999921547
0.999999958526
0.9999999657
0.999999977595
0.999999933329
0.999999973877
0.999999981883
0.99999999999
0.99999999742
0.999999998988
0.99999997882
0.999999938493
0.999999898173
0.999999724997
0.999999660423
0.999999675315
0.999999667704
0.999999846568
0.999999563429
0.999999756645
0.999999792881
0.999999916604
0.999999973757
0.999999996867
0.999999999838
0.999999989717
0.9999999858
0.99999999999
0.999999960849
0.999999980105
0.999999983265
0.999999940578
0.999999962732
0.999999719919
0.99999973531
0.999999864557
0.999999825336
0.999999563429
0.999999563429
0.99999971131
0.999999456775
0.999999791025
0.999999754103
0.999999995703
0.999999974827
0.999999949414
0.999999990965
0.99999997162
0.999999953225
0.999999976674
0.999999967854
0.999999988938
0.999999996858
0.999999902777
0.999999932106
0.999999919141
0.999999563737
0.999999563429
0.999999626679
0.999999490606
0.999999373702
0.999999617198
0.999999809377
0.999999810375
0.999999651801
0.999999949885
0.999999991121
0.999999965348
0.999999956757
0.999999999965
0.999999987508
0.999999974804
0.999999993646
0.999999936835
0.999999934469
0.999999686893
0.999999767633
0.999999711855
0.999999479735
0.999999362548
0.999999463037
0.999999542686
0.99999960425
0.999999472247
0.999999398226
0.99999980024
0.999999751127
0.999999823398
0.999999968274
0.999999981297
0.999999952722
0.999999973223
0.999999987681
0.999999821944
0.999999812597
0.999999770726
0.999999775105
0.999999776025
0.999999840757
0.999999857394
0.99999991417
0.999999864718
0.999999922037
0.999999919214
0.999999988317
0.999999963656
0.999999994649
0.999999994653
0.999999999652
0.999999959669
0.99999994241
0.999999956635
0.999999991258
0.999999850014
0.999999806819
0.999999836848
0.99999976101
0.999999801472
0.999999807096
0.999999924704
0.999999927608
0.999999989134
0.9999999895
0.999999950747
0.999999975165
0.999999989054
0.999999958024
0.999999994746
0.999999947304
0.999999945221
0.999999913459
0.999999943083
0.999999977654
0.999999845659
0.999999896774
0.999999837799
0.999999878861
0.999999746768
0.999999905909
0.999999896576
0.9999999939
0.999999985404
0.999999990433
0.999999968748
0.999999972828
0.999999960295
0.999999972078
0.999999873979
0.999999941539
0.999999909976
0.999999891871
0.999999890704
0.999999892308
0.999999982603
0.999999927383
0.999999902702
0.999999911035
0.999999910086
0.999999947655
0.99999996128
0.999999956355
0.999999990217
0.999999976486
0.999999968368
0.999999959106
0.999999990419
0.999999883483
0.999999895894
0.99999987897
0.999999822815
0.99999976046
0.999999832179
0.999999944547
0.999999949331
0.999999899847
0.999999883341
0.999999956306
0.999999974653
0.999999972703
0.999999952572
0.99999998152
0.999999991748
0.999999927982
0.999999914228
0.999999915254
0.999999771353
0.999999870744
0.999999905007
0.999999877129
0.999999873873
0.999999755848
0.999999771287
0.999999919315
0.999999999629
0.999999912381
0.999999909423
0.999999971638
0.999999978009
0.999999971925
0.9999999815
0.999999988091
0.999999929339
0.999999863155
0.99999989534
0.999999762837
0.999999808108
0.999999786245
0.99999973974
0.999999599703
0.999999543217
0.999999746188
0.999999611298
0.999999815746
0.999999999777
0.999999971748
0.999999953162
0.999999905096
0.99999997595
0.999999973942
0.999999973074
0.999999909112
0.999999910465
0.999999913596
0.999999825062
0.999999813233
0.999999738533
0.999999700796
0.9999997897
0.99999952621
0.999999537144
0.999999487404
0.999999625565
0.999999740835
0.999999939135
0.999999905749
0.999999912032
0.999999877118
0.999999904198
0.99999987032
0.999999932928
0.999999929809
0.999999866945
0.999999892831
0.99999973566
0.999999611321
0.999999785049
0.999999748469
0.999999460253
0.99999947661
0.999999341464
0.999999428336
0.999999673127
0.999999690973
0.99999990076
0.999999909941
0.999999810622
0.999999837466
0.99999981474
0.999999832921
0.999999747783
0.999999856775
0.99999985739
0.999999687164
0.999999602191
0.999999657893
0.999999620661
0.999999497477
0.999999467781
0.999999353858
0.999999335565
0.999999516006
0.999999911099
0.999999731331
0.999999887328
0.999999923415
0.99999989532
0.99999986445
0.999999862026
0.999999702595
0.999999791961
0.999999858667
0.999999801015
0.999999596265
0.999999583304
0.999999566247
0.999999585717
0.999999672127
0.999999629795
0.999999575946
0.999999336785
0.99999957972
0.999999825793
0.999999731051
0.999999948211
0.999999898209
0.999999898381
0.99999987663
0.999999851098
0.99999974482
0.999999725525
0.999999686612
0.999999687771
0.999999625352
0.999999583336
0.999999615583
0.999999584333
0.999999654914
0.999999616096
0.999999159042
0.999999373685
0.999999608233
0.999999634148
0.999999689592
0.999999946347
0.999999944376
0.999999950921
0.999999802706
0.99999982936
0.99999983147
0.999999688345
0.999999607908
0.999999721651
0.999999777047
0.99999970354
0.999999742035
0.999999618045
0.999999455439
0.999999389051
0.999999436347
0.99999938655
0.999999668044
0.999999757707
0.999999954544
0.99999993138
0.999999935548
0.999999908583
0.999999833692
0.999999807346
0.999999794223
0.999999674778
0.999999693294
0.999999671676
0.999999715974
0.999999684066
0.999999655645
0.999999590714
0.999999510835
0.999999534962
0.999999511105
0.999999598547
0.999999963905
0.999999792451
0.999999981547
0.999999926178
0.99999983321
0.999999911996
0.99999992681
0.999999808761
0.999999793266
0.9999996685
0.999999662486
0.999999679636
0.999999720586
0.999999752149
0.999999768526
0.999999675463
0.999999741092
0.999999625714
0.999999884039
0.99999993158
0.999999987197
0.999999842142
0.99999987593
0.999999865799
0.999999881318
0.999999891434
0.99999989006
0.99999983375
0.999999736308
0.99999974546
0.999999800458
0.999999751272
0.999999717089
0.999999765618
0.999999861371
0.99999984598
0.999999797615
0.999999964256
0.999999997358
0.999999996214
0.999999993105
0.999999854695
0.999999900496
0.99999992882
0.999999743233
0.99999975543
0.999999887566
0.999999916311
0.999999916312
0.999999886189
0.999999891242
0.999999873727
0.999999935603
0.999999922645
0.999999932872
0.999999861695
0.999999944386
0.99999998801
1
0.999999986691
0.999999973294
0.999999862891
0.999999889023
0.999999772842
0.999999724149
0.999999733147
0.999999830788
0.999999875406
0.999999878033
0.999999957788
0.999999957061
0.999999954321
0.999999973183
0.999999922085
0.99999993387
0.999999889943
0.999999996662
0.999999998932
1
0.999999991376
0.999999972515
0.999999959955
0.999999911089
0.999999777422
0.999999738244
0.999999865613
0.999999789712
0.999999860391
0.999999900238
0.999999957274
0.999999955109
0.999999950435
0.999999962276
0.999999915384
0.999999989642
0.999999989974
0.999999996195
0.999999998017
0.999999951707
0.999999971812
0.99999996786
0.999999989955
0.999999976348
0.999999837538
0.999999898137
0.999999894924
0.999999856824
0.999999880736
0.999999921337
0.999999925269
0.999999952103
0.999999934144
0.999999873917
0.999999937288
0.999999956711
0.999999977317
0.999999979974
0.99999995254
0.99999992993
0.999999995046
0.999999989202
0.99999997291
0.999999976059
0.999999908566
0.999999918132
0.999999910493
0.999999856061
0.999999901146
0.999999807023
0.999999931463
0.999999771703
0.99999977379
0.999999740373
0.999999809965
0.999999817667
0.999999898824
0.999999775406
0.999999857965
0.999999964791
0.999999928245
0.99999997292
0.999999950664
0.999999954161
0.999999853306
0.999999809888
0.99999983336
0.999999762589
0.999999761019
0.999999810479
0.999999831862
0.999999829729
0.999999934511
0.999999925915
0.99999993823
0.999999940385
0.999999988917
0.99999994445
0.99999999988
0.99999999988
0.999999993617
0.999999968873
0.999999997888
0.999999992666
0.999999861335
0.999999824086
0.999999833382
0.999999867641
0.999999761035
0.99999984978
0.999999879886
0.999999930718
0.999999906893
0.999999988892
0.999999978352
0.999999993728
0.999999966899
0.999999976862
0.999999940255
0.999999998746
0.999999964557
0.999999922579
0.999999990705
0.999999974393
0.999999904434
0.999999841348
0.99999989494
0.999999904983
0.999999827241
0.999999911393
0.999999925957
0.999999952477
0.99999998351
0.999999971325
0.999999969701
0.999999932664
0.999999983406
0.999999865084
0.999999955611
0.99999992862
0.999999933416
0.9999998197
0.999999989074
0.999999952773
0.999999916728
0.999999955966
0.9999999727
0.999999904514
0.99999994133
0.999999950317
0.999999901838
0.999999910539
0.99999998807
0.999999953595
0.999999924054
0.999999933055
0.999999917847
0.999999856806
0.999999898698
0.999999794947
0.999999904832
0.999999811316
0.999999876468
0.999999949546
0.999999999335
0.999999910425
0.999999974268
0.999999998109
0.99999999456
0.999999952745
0.999999922053
0.999999945723
0.999999922482
0.999999897016
0.99999992589
0.999999882076
0.999999912996
0.999999846298
0.999999744163
0.999999746105
0.999999510867
0.999999771099
0.999999661753
0.999999927076
0.999999931929
0.99999993766
0.99999992822
1
0.999999981332
0.999999944796
0.999999927265
0.999999935887
0.999999884888
0.999999821912
0.999999872029
0.999999838173
0.999999682779
0.999999802675
0.999999712748
0.999999549927
0.999999486348
0.999999556411
0.999999665837
0.999999889888
0.999999999775
0.99999997967
0.999999928688
0.999999944199
0.999999962881
0.999999973142
0.999999934038
0.999999936703
0.999999894812
0.999999840116
0.999999784272
0.999999665848
0.999999662722
0.999999702122
0.99999952393
0.999999551139
0.999999466396
0.999999469592
0.999999596491
0.999999885947
0.999999994673
0.999999900579
0.999999863091
0.999999863103
0.999999836878
0.999999900637
0.999999730495
0.999999731265
0.999999848922
0.99999986159
0.999999613314
0.999999552411
0.999999671959
0.999999578484
0.999999523392
0.999999556189
0.999999537009
0.999999438433
0.999999603195
0.99999970749
0.999999968729
0.999999934301
0.999999874406
0.999999878809
0.999999820226
0.99999973281
0.999999787392
0.999999762799
0.999999794212
0.999999658514
0.999999594935
0.999999557772
0.999999571765
0.999999549234
0.999999449731
0.999999438748
0.999999388186
0.999999286095
0.999999779071
0.999999822976
0.999999848043
0.999999905405
0.999999883276
0.999999871897
0.999999886715
0.999999797983
0.999999683642
0.999999709761
0.999999730743
0.999999638174
0.999999608062
0.999999566069
0.999999633827
0.999999503705
0.999999424024
0.999999108703
0.999999154968
0.999999505056
0.999999704556
0.999999944266
0.999999826561
0.999999816146
0.999999895688
0.999999894332
0.999999840248
0.999999834162
0.999999666739
0.999999640977
0.999999705841
0.999999723628
0.999999747815
0.999999711165
0.999999648572
0.999999582121
0.99999921984
0.999999027348
0.999999408404
0.999999450848
0.999999740228
0.999999976974
0.999999893914
0.999999816109
0.999999937623
0.999999896149
0.999999878463
0.999999875735
0.999999625427
0.999999559337
0.999999697915
0.999999772847
0.999999772237
0.999999741975
0.999999596006
0.99999958479
0.99999935314
0.999998961678
0.999999059411
0.999999553344
0.999999850096
0.999999990264
0.999999918168
0.999999927955
0.999999911977
0.999999914062
0.999999876075
0.999999766503
0.99999968743
0.999999657223
0.999999713596
0.999999689106
0.999999767618
0.999999765937
0.99999967072
0.999999662347
0.999999386298
0.999999365369
0.999999589088
0.99999998704
0.999999987715
0.999999977574
0.999999898577
0.999999822445
0.999999849169
0.999999867333
0.999999780568
0.999999802739
0.999999724185
0.999999641941
0.9999997081
0.999999660796
0.999999745124
0.999999741219
0.999999652508
0.999999735557
0.999999723124
0.999999836653
0.999999949858
0.999999985178
0.99999998713
0.999999987716
0.999999894698
0.9999998559
0.999999894858
0.999999866227
0.99999982323
0.999999849879
0.999999658179
0.999999658207
0.999999655786
0.999999635414
0.999999755962
0.999999767216
0.999999828312
0.99999973541
0.999999949396
0.99999999359
0.999999975017
0.999999955514
0.999999978441
0.999999981523
0.999999902784
0.999999900677
0.999999901364
0.99999987459
0.999999874234
0.999999856557
0.999999726158
0.999999807833
0.99999983568
0.999999848651
0.999999888623
0.999999906697
0.999999768081
0.999999835957
0.999999982158
0.999999995172
0.999999984248
0.999999913025
0.999999909629
0.999999959253
0.999999938888
0.999999783694
0.999999943809
0.999999924966
0.999999912769
0.999999865034
0.99999985728
0.99999982694
0.999999818451
0.999999784516
0.999999789341
0.999999805822
0.999999758511
0.999999819214
0.999999987821
1
0.999999981668
0.99999997955
0.99999994955
0.999999893994
0.999999842732
0.999999872307
0.99999988007
0.999999872663
0.9999998727
0.999999868631
0.999999959579
0.999999900533
0.999999929902
0.999999922796
0.999999834639
0.999999820969
0.999999855403
0.999999990226
0.999999987919
0.999999956375
0.999999973135
0.999999983685
0.999999989241
0.999999969098
0.999999908739
0.999999850419
0.999999898434
0.999999910322
0.999999889215
0.999999920603
0.999999993546
0.999999945983
0.999999960332
0.999999966334
0.999999961215
0.999999972167
0.999999970829
0.999999986718
0.999999920023
0.999999930329
0.999999928942
0.999999982599
0.999999948392
0.999999970141
0.99999987185
0.999999860054
0.999999894012
0.999999950299
0.999999950293
0.999999993597
0.999999920143
0.99999998208
0.999999814957
0.999999788953
0.999999750818
0.999999951681
0.999999825073
0.999999887775
0.999999818
0.999999932964
0.999999901248
0.999999925953
0.999999911747
0.999999910037
0.999999866801
0.999999871746
0.999999826928
0.999999847975
0.99999976306
0.999999793354
0.999999810808
0.999999866083
0.999999920707
0.999999944322
0.999999935611
0.999999985853
0.999999935404
0.999999996903
0.999999997177
0.999999998047
0.999999969317
0.999999998181
0.999999991433
0.999999990922
0.999999876609
0.999999815943
0.999999833804
0.999999838858
0.999999851624
0.999999857099
0.999999830464
0.999999942148
0.999999933967
0.999999920879
0.999999975064
0.999999988698
0.999999978195
0.999999909751
0.99999998811
0.999999956569
0.999999992363
0.999999956281
0.999999994378
0.999999963499
0.999999864827
0.999999991749
0.999999914411
0.999999941736
0.999999895234
0.999999933387
0.999999951903
0.999999965967
0.999999975951
0.999999994834
0.999999990921
0.999999964426
0.999999923351
0.99999987584
0.999999832855
0.999999984166
0.999999968452
0.999999865663
0.999999956469
0.999999940663
0.999999971876
1.0000000004
0.999999991278
0.999999951046
0.999999896383
0.999999930452
0.999999956482
0.999999895859
0.99999994313
0.999999936063
0.999999959765
0.999999964731
0.999999900484
0.999999898261
0.999999798664
0.999999737382
0.999999655809
0.999999783672
0.999999877379
0.999999946833
0.999999959734
0.999999986779
0.999999999272
0.999999999998
0.999999992149
0.999999989826
0.999999918717
0.999999940484
0.999999912636
0.999999889003
0.999999854251
0.999999903105
0.999999877648
0.999999665823
0.999999661337
0.999999574783
0.99999960123
0.999999721634
0.999999751388
0.99999994116
1
0.99999994953
0.99999999993
0.999999997796
0.999999989501
0.999999917798
0.999999878063
0.99999989187
0.999999859367
0.999999811982
0.999999866646
0.999999700464
0.999999688778
0.999999585821
0.999999491293
0.999999367273
0.999999354056
0.999999566636
0.999999831739
0.999999839227
0.999999959064
0.999999999683
0.999999948248
0.999999983244
0.999999989596
0.999999909112
0.999999918864
0.999999903534
0.999999774567
0.999999853577
0.999999837512
0.999999860927
0.999999678586
0.999999701629
0.999999632205
0.9999994706
0.999999402879
0.999999587872
0.999999787944
0.999999680927
0.999999882335
0.999999965564
0.999999938161
0.999999847138
0.999999857928
0.999999820488
0.999999841351
0.999999654905
0.999999603608
0.999999555426
0.999999518984
0.999999453267
0.999999537623
0.999999671197
0.999999877223
0.999999894042
0.999999893062
0.999999910303
0.999999785027
0.999999790504
0.999999710056
0.999999428939
0.9999994164
0.999998969734
0.999999219617
0.999999181328
0.999999553444
0.999999891841
0.99999984048
0.999999840353
0.99999986886
0.999999897626
0.999999890716
0.999999793593
0.999999643606
0.999999338711
0.999999254135
0.999998890552
0.999999165801
0.999999167585
0.999999642726
0.999999983098
0.999999829912
0.999999817523
0.999999921604
0.999999955811
0.999999896401
0.999999883287
0.99999977229
0.999999540809
0.99999916917
0.99999886121
0.999999093856
0.999999171664
0.99999973067
0.999999989216
0.999999810336
0.999999803585
0.999999954148
0.999999955329
0.999999825878
0.999999725971
0.999999592829
0.999999563357
0.999999522984
0.99999957467
0.999999593541
0.999999659138
0.999999547924
0.999999703364
0.999999265635
0.999998890598
0.99999897083
0.999999521023
0.999999970467
0.999999962108
0.999999890822
0.999999833765
0.999999806579
0.999999786287
0.999999853484
0.999999632815
0.999999550542
0.999999586619
0.999999672473
0.999999696546
0.999999745052
0.999999595443
0.999999679001
0.999999704128
0.999999728571
0.999999534976
0.999999616134
0.999999983956
0.999999986294
0.999999974498
0.999999889693
0.999999920058
0.99999992023
0.999999749332
0.999999755407
0.999999665108
0.999999749594
0.999999632028
0.999999677709
0.999999633624
0.999999639723
0.999999558464
0.999999632806
0.999999695575
0.999999750066
0.999999820847
0.999999970365
0.999999944893
0.999999984786
0.999999959773
0.999999905943
0.999999864622
0.999999945257
0.999999866943
0.999999730572
0.999999837821
0.999999752851
0.999999660171
0.999999679526
0.999999632107
0.99999964781
0.99999970099
0.99999961469
0.999999736282
0.999999952318
0.999999963161
0.999999970732
0.999999915504
0.999999958431
0.999999959504
0.999999942223
0.999999907877
0.999999945647
0.999999794069
0.999999821245
0.999999834235
0.999999727031
0.99999981415
0.999999725137
0.99999977363
0.999999711877
0.99999966872
0.999999587617
0.999999818614
0.999999900312
0.999999962428
0.99999998429
0.999999947744
0.99999992417
0.999999952619
0.999999949001
0.999999988339
0.999999961975
0.999999897097
0.999999881186
0.999999820258
0.999999844251
0.999999835023
0.999999591595
0.999999554055
0.999999275747
0.999999805917
0.999999758754
0.999999860876
0.999999985761
0.999999987044
0.999999972804
0.999999944057
0.9999999692
0.999999905861
0.999999978868
0.999999882433
0.999999990825
0.999999886392
0.999999889071
0.999999858496
0.999999877349
0.999999871314
0.99999985612
0.999999871291
0.999999671458
0.999999749868
0.999999866407
0.999999983213
0.99999996132
0.999999955338
0.9999999607
0.999999976974
0.999999946771
0.999999959832
0.999999910005
0.999999916138
0.999999925996
0.99999994134
0.999999961134
0.999999920619
0.999999924847
0.999999920298
0.999999942486
0.999999966416
0.999999959652
0.999999904995
0.999999976463
0.999999976317
0.999999923794
0.999999930299
0.999999953844
0.999999896188
0.999999927335
0.999999944588
0.999999956621
0.999999894265
0.999999918651
0.999999920381
0.999999968404
0.999999993597
0.999999933087
0.99999992674
0.999999906752
0.999999905974
0.999999821014
0.99999983777
0.999999917167
0.999999849879
0.99999989747
0.999999845915
0.99999984594
0.999999871827
0.999999906842
0.99999992385
0.999999895286
0.999999855677
0.999999895047
0.99999984326
0.999999858238
0.999999807735
0.999999823414
0.999999820715
0.999999923532
0.999999888797
0.999999935193
0.999999934925
0.999999972687
0.999999965491
1
0.999999998522
1
0.99999999362
0.999999998925
0.999999972808
0.999999891977
0.999999920564
0.99999983597
0.999999885089
0.999999836434
0.999999873867
0.999999918991
0.999999905179
0.999999930294
0.999999917936
0.999999965466
0.999999988208
0.999999951043
0.999999996454
0.999999835753
0.999999999998
0.999999952986
0.999999949626
0.999999986514
0.999999901624
0.999999844418
0.99999991592
0.999999998277
0.999999980257
0.999999903118
0.999999932948
0.999999950413
0.999999941327
0.999999942862
0.999999902544
0.999999942447
0.999999957456
0.999999850962
0.99999977143
0.999999790502
0.999999799799
0.999999947005
0.999999925954
0.999999979825
0.99999989435
0.999999899846
1
1
1
0.999999843132
0.999999897738
0.999999920764
0.999999944133
0.999999896029
0.999999887367
0.999999930034
0.999999797911
0.999999604875
0.999999558443
0.999999779497
0.999999752239
0.999999837068
0.999999876755
0.999999957933
0.999999909244
0.999999978692
1
1.00000000012
0.99999997027
0.999999911936
0.999999926689
0.99999996721
0.999999890172
0.999999919717
0.999999851719
0.999999927131
0.999999853827
0.999999534646
0.999999558146
0.99999960318
0.999999709333
0.999999378892
0.999999613628
0.99999977769
0.999999921338
1.00000000014
0.999999999075
0.999999992758
0.999999972049
0.999999977292
0.999999981737
0.999999878049
0.999999915439
0.999999836482
0.999999895508
0.999999872712
0.99999982074
0.999999634331
0.999999593268
0.999999377868
0.999999396966
0.999999323252
0.999999408258
0.999999652963
0.999999839534
1
0.999999979184
0.999999871007
0.9999999827
0.999999955512
0.999999890218
0.999999771876
0.999999768976
0.999999870867
0.999999803268
0.999999802888
0.999999841815
0.999999741623
0.999999540013
0.999999524695
0.999999270038
0.999999384713
0.999999464806
0.999999704942
0.999999797827
0.999999836853
0.999999830343
0.999999815551
0.999999907475
0.999999928607
0.999999840231
0.999999774002
0.99999956477
0.999999517605
0.999999237516
0.999999257456
0.999999412853
0.999999722438
0.999999848379
0.999999983562
0.999999857052
0.999999906735
0.999999946478
0.999999956212
0.999999794519
0.999999749615
0.999999349458
0.999999238181
0.999999113244
0.999999530816
0.999999548071
0.999999752154
0.999999874046
0.999999846768
0.999999883041
0.999999955581
0.999999984013
0.999999967196
0.999999911888
0.99999979572
0.99999939848
0.999999303149
0.999999304334
0.999998810326
0.999999056345
0.999999840017
0.999999948021
0.99999981235
0.999999874116
0.999999939404
0.999999912673
0.999999975576
0.999999912712
0.999999729029
0.999999485764
0.999999486138
0.999998833805
0.999998810296
0.999999190753
0.999999569008
0.999999989136
0.999999765118
0.999999935114
0.999999802777
0.999999764782
0.999999779567
0.999999525206
0.999999405605
0.999999419801
0.999999540485
0.999999684438
0.999999564237
0.999999553797
0.999999492532
0.999999483642
0.999999215288
0.99999909203
0.999999164486
0.999999590609
0.999999778286
0.999999946561
0.999999741048
0.999999760859
0.999999721102
0.999999634793
0.999999634757
0.999999640122
0.999999682658
0.999999466285
0.999999583703
0.999999566613
0.99999972886
0.99999951941
0.999999576165
0.999999441331
0.999999384817
0.999999513287
0.999999644817
0.999999851149
0.999999877211
0.999999922241
0.999999824008
0.9999999343
0.999999837254
0.999999692399
0.999999754587
0.999999792896
0.999999693677
0.999999683498
0.999999547347
0.999999540153
0.99999945107
0.999999582537
0.99999925685
0.999999569692
0.999999265358
0.999998947347
0.999999851673
0.999999979622
0.999999983281
0.999999959429
0.999999898725
0.999999947286
0.999999820398
0.999999653545
0.999999694448
0.999999778525
0.99999978882
0.999999793691
0.999999705534
0.999999631501
0.999999577458
0.999999374753
0.999999598457
0.999999793149
0.999999810103
0.999999542419
0.999999969478
0.999999909425
0.999999982826
0.99999992837
0.999999979855
0.999999971143
0.999999947359
0.999999778492
0.999999730414
0.99999987809
0.999999804747
0.999999693649
0.999999550148
0.999999540185
0.999999325085
0.999998946291
0.999999588669
0.999999731609
0.999999577003
0.999999846508
0.999999874943
0.999999888159
0.999999978269
0.999999903724
0.999999982686
0.999999944598
1
0.999999829273
0.999999896319
0.999999808389
0.999999813258
0.999999660141
0.99999944405
0.999999446927
0.999999155102
0.999999651187
0.999999570082
0.999999564539
0.999999904262
0.999999933141
0.999999925045
0.999999934121
0.999999970441
0.999999899151
0.999999999901
0.999999999866
1
0.999999912827
0.999999908164
0.999999778718
0.999999678324
0.999999596797
0.999999547736
0.999999814263
0.999999821923
0.999999801633
0.999999633139
0.999999891455
0.999999966839
0.99999996065
0.999999961514
0.999999941562
0.9999999354
0.999999957458
0.99999998028
0.999999917966
0.999999945556
0.999999964082
0.99999994407
0.999999833812
0.999999919739
0.999999926814
0.999999907293
0.999999965751
0.999999963514
0.999999885552
0.999999922649
0.999999974042
0.999999968673
0.999999961144
0.999999946517
0.999999935435
0.999999923666
0.99999992989
0.99999995777
0.99999991435
0.999999912379
0.999999969394
0.999999966391
0.999999970316
0.999999979052
0.999999944069
0.999999952991
0.999999936228
0.999999894837
0.999999931822
0.999999927313
0.99999984108
0.999999795158
0.999999867292
0.999999874509
0.999999908049
0.999999896644
0.99999989689
0.999999910427
0.9999999451
0.999999894817
0.999999894549
0.999999859149
0.99999987416
0.999999820746
0.999999878955
0.999999872971
0.999999952196
0.999999934939
0.999999983647
0.999999950778
0.999999996564
0.999999979334
1
1
0.999999965262
0.999999995549
0.999999930923
0.999999844507