/*--------------------------------*- C++ -*----------------------------------*\
| =========                 |                                                 |
| \\      /  F ield         | OpenFOAM: The Open Source CFD Toolbox           |
|  \\    /   O peration     | Version:  v1606+                                |
|   \\  /    A nd           | Web:      www.OpenFOAM.com                      |
|    \\/     M anipulation  |                                                 |
\*---------------------------------------------------------------------------*/
FoamFile
{
    version     2.0;
    format      ascii;
    class       surfaceScalarField;
    location    "6";
    object      meshPhiCN_0;
}
// * * * * * * * * * * * * * * * * * * * * * * * * * * * * * * * * * * * * * //

dimensions      [0 3 -1 0 0 0 0];

internalField   nonuniform List<scalar> 
33146
(
0
0
0
0
0
0
0
0
0
7.86020967982e-09
-2.29283039756e-08
-5.46686618918e-08
8.71060948688e-08
-2.78152389944e-07
-5.59138461619e-07
1.79271349957e-07
-7.8414942456e-07
-1.33303189729e-06
2.17916307733e-07
-1.17219598478e-06
-1.58394063198e-06
2.17884797329e-07
-1.28457301503e-06
-1.25951161162e-06
2.17853283322e-07
-1.28069674461e-06
-7.57123383691e-07
2.17821765669e-07
-1.2768204742e-06
-2.54735155759e-07
2.17790244442e-07
-1.27294420378e-06
2.47653072165e-07
2.17758719574e-07
-1.26906793336e-06
7.50041300091e-07
2.17727191266e-07
-1.26519166294e-06
1.25242952802e-06
1.79100761019e-07
-1.15074599737e-06
1.57745287194e-06
8.70557672595e-08
-7.72447646027e-07
1.32862144365e-06
7.8597179483e-09
-2.7622468666e-07
5.57537637009e-07
0
-2.29111411462e-08
5.45325807574e-08
0
0
0
0
0
0
0
0
0
0
0
0
0
0
6.40595702885e-08
-1.87601641835e-07
-5.19364149419e-07
3.15691773746e-07
-1.10564996411e-06
-2.70451141007e-06
6.95327286361e-07
-2.77626729989e-06
-6.16968067386e-06
1.02228908393e-06
-4.45571050524e-06
-8.65751934213e-06
1.14824405282e-06
-5.45106437043e-06
-8.60685403636e-06
1.14763594594e-06
-5.66916149548e-06
-6.56084882881e-06
1.14702751061e-06
-5.59730018774e-06
-3.94276270471e-06
1.14641874685e-06
-5.52543888e-06
-1.32467658062e-06
1.14580965458e-06
-5.45357757226e-06
1.29340954348e-06
1.14520023387e-06
-5.38171626453e-06
3.91149566757e-06
1.14459048471e-06
-5.3098549568e-06
6.52958179167e-06
1.01833044955e-06
-5.00619324095e-06
8.57701141092e-06
6.928162929e-07
-4.08656898251e-06
8.63317911264e-06
3.149368694e-07
-2.60049552163e-06
6.15461735026e-06
6.40214702039e-08
-1.07041854598e-06
2.69850726962e-06
0
-1.86237997656e-07
5.18278725249e-07
0
0
0
0
0
0
0
0
6.4062291034e-08
-1.87712743985e-07
-5.93481527117e-07
4.79068129347e-07
-1.43782573824e-06
-4.4584857737e-06
1.24213272391e-06
-4.18924885125e-06
-1.23725469369e-05
2.06042722588e-06
-7.62335742141e-06
-2.01909501109e-05
2.66588939115e-06
-1.05861304409e-05
-2.37266807606e-05
2.88489831619e-06
-1.21311733984e-05
-2.18198312552e-05
2.88181539498e-06
-1.23014169413e-05
-1.62964174815e-05
2.87872871567e-06
-1.19854293627e-05
-9.7897985486e-06
2.87563827826e-06
-1.16694417841e-05
-3.28317961569e-06
2.87254408278e-06
-1.13534542055e-05
3.22343931721e-06
2.86944612918e-06
-1.10374666268e-05
9.73005825012e-06
2.86634441748e-06
-1.07214790482e-05
1.6236677183e-05
2.64461094451e-06
-1.01051318951e-05
2.1761178922e-05
2.04404403423e-06
-8.67822640976e-06
2.36733661316e-05
1.23442874096e-06
-6.40554200397e-06
2.01496493353e-05
4.77428434353e-07
-3.73148500427e-06
1.23485924023e-05
6.40187480419e-08
-1.36735610619e-06
4.45015072095e-06
0
-1.86126887211e-07
5.9239604087e-07
0
0
7.86033262547e-09
-2.29333154861e-08
-8.19689739088e-08
3.72210761306e-07
-9.43027968236e-07
-3.52110097073e-06
1.35338141696e-06
-3.87455129134e-06
-1.42699771693e-05
2.6423378374e-06
-8.60430073935e-06
-2.87689772771e-05
3.86260894297e-06
-1.38017073848e-05
-3.96291078871e-05
4.70719513125e-06
-1.78707961381e-05
-4.27558714927e-05
4.99999707427e-06
-1.97103054901e-05
-3.78530620983e-05
4.9915698141e-06
-1.96125986567e-05
-2.79832502654e-05
4.98312566349e-06
-1.88623447016e-05
-1.68033056474e-05
4.97466462244e-06
-1.81120907466e-05
-5.62336102944e-06
4.966186691e-06
-1.73618367916e-05
5.55658358854e-06
4.95769186911e-06
-1.66115828365e-05
1.67365282065e-05
4.94918015681e-06
-1.58613288815e-05
2.79164728245e-05
4.64701289522e-06
-1.48085172623e-05
3.77855606707e-05
3.81122541271e-06
-1.29466652505e-05
4.26879796468e-05
2.6125806e-06
-1.02006928638e-05
3.95663380391e-05
1.34364356399e-06
-6.85180096968e-06
2.87220023796e-05
3.71158032179e-07
-3.41699301337e-06
1.42462134746e-05
7.85959498604e-09
-9.05030486086e-07
3.51514140805e-06
-2.29061295823e-08
8.18328899356e-08
9.4989500998e-08
-2.55941456123e-07
-9.89641504384e-07
9.21045636715e-07
-2.12826770225e-06
-9.46470471402e-06
2.40981725617e-06
-6.68424885981e-06
-2.76387018689e-05
4.1391055075e-06
-1.31656042967e-05
-4.70859969777e-05
5.665074715e-06
-1.97415807653e-05
-5.95269886057e-05
6.65987878359e-06
-2.44196823093e-05
-6.12493262704e-05
6.98626709799e-06
-2.6163285875e-05
-5.29799392724e-05
6.97069804823e-06
-2.56506237927e-05
-3.89027121839e-05
6.95508654632e-06
-2.44319432991e-05
-2.33511961875e-05
6.93943259222e-06
-2.32132628054e-05
-7.79968019111e-06
6.923736186e-06
-2.19945823117e-05
7.75183580529e-06
6.90799732763e-06
-2.0775901818e-05
2.33033518017e-05
6.89221601711e-06
-1.95572213244e-05
3.88548677981e-05
6.54587102707e-06
-1.80836002231e-05
5.29290905591e-05
5.56090266832e-06
-1.59281988633e-05
6.11897493444e-05
4.07102457901e-06
-1.29985353334e-05
5.94594394173e-05
2.3819992532e-06
-9.40875525452e-06
4.70235036554e-05
9.1606574356e-07
-5.42940902146e-06
2.75979585746e-05
9.48980630066e-08
-1.95472554954e-06
9.44993831879e-06
-2.52595797823e-07
9.88042145472e-07
2.66860882302e-07
-5.31130584369e-07
-2.77781043109e-06
1.46966993356e-06
-3.19152872878e-06
-1.62577853548e-05
3.33575795917e-06
-8.89782111953e-06
-3.99244670855e-05
5.37273856654e-06
-1.65494591672e-05
-6.25749920184e-05
7.07187653117e-06
-2.38738994698e-05
-7.54904838045e-05
8.09309756253e-06
-2.85771620844e-05
-7.53389147895e-05
8.39287463358e-06
-2.98723861869e-05
-6.40023307184e-05
8.37116941604e-06
-2.89479409719e-05
-4.6711444989e-05
8.34939403076e-06
-2.74366937721e-05
-2.80310685314e-05
8.32754847767e-06
-2.59254465724e-05
-9.35069207385e-06
8.30563275685e-06
-2.44141993727e-05
9.32968438371e-06
8.28364686828e-06
-2.2902952173e-05
2.80100608413e-05
8.26159081193e-06
-2.13917049733e-05
4.66904372988e-05
7.93041772253e-06
-1.96978391824e-05
6.39771476403e-05
6.9152845984e-06
-1.74652348153e-05
7.52990521846e-05
5.26241606818e-06
-1.45487282939e-05
7.54307005632e-05
3.2849183398e-06
-1.0955257209e-05
6.25072804892e-05
1.45801479997e-06
-6.79387261287e-06
3.98718805624e-05
2.66383547525e-07
-2.82408537725e-06
1.62340471456e-05
-5.16921412296e-07
2.77343546431e-06
3.98996850673e-07
-6.47946946104e-07
-4.15049549068e-06
1.80853262633e-06
-3.61294961538e-06
-2.07251170647e-05
3.88202424763e-06
-9.73454625715e-06
-4.7352140139e-05
6.07993517046e-06
-1.77885577769e-05
-7.16814823945e-05
7.84074306818e-06
-2.53157030379e-05
-8.45884163743e-05
8.80563474812e-06
-2.98813076785e-05
-8.28830948136e-05
9.03748524909e-06
-3.08425964604e-05
-6.94313579884e-05
9.01273865523e-06
-2.97107545239e-05
-5.03876248375e-05
8.98790636054e-06
-2.81283900855e-05
-3.02336939384e-05
8.962988365e-06
-2.6546025647e-05
-1.00797630393e-05
8.9379846686e-06
-2.49636612086e-05
1.00741678597e-05
8.91289527133e-06
-2.33812967702e-05
3.02280987588e-05
8.88772017327e-06
-2.17989323317e-05
5.03820296579e-05
8.6164589053e-06
-2.00816783729e-05
6.94218471135e-05
7.65211618976e-06
-1.78904941088e-05
8.28572603397e-05
5.94170174884e-06
-1.50219112536e-05
8.45366374464e-05
3.81475628523e-06
-1.14570926183e-05
7.16135432727e-05
1.79142428244e-06
-7.26517571897e-06
4.72939670948e-05
3.98036737501e-07
-3.15117612501e-06
2.06959715564e-05
-6.26922665429e-07
4.14408624497e-06
4.38449969909e-07
-6.47946946101e-07
-4.55987707702e-06
1.90367777694e-06
-3.61294961539e-06
-2.20101383241e-05
4.03486160272e-06
-9.73454625717e-06
-4.94648521419e-05
6.27712498866e-06
-1.77885577769e-05
-7.42902581162e-05
8.04798888881e-06
-2.53157030379e-05
-8.71678834074e-05
8.97499691658e-06
-2.98813076785e-05
-8.48796108318e-05
9.16652964946e-06
-3.08425964604e-05
-7.06743766126e-05
9.14116514221e-06
-2.97107545239e-05
-5.11450417972e-05
9.11571162682e-06
-2.81283900855e-05
-3.06874917341e-05
9.09016910332e-06
-2.65460256471e-05
-1.02299416709e-05
9.06453757162e-06
-2.49636612086e-05
1.02276083922e-05
9.03881703175e-06
-2.33812967702e-05
3.06851584553e-05
9.01300748375e-06
-2.17989323317e-05
5.11427085184e-05
8.77942323093e-06
-2.00816783729e-05
7.06685117848e-05
7.85050732595e-06
-1.78904941087e-05
8.4857558816e-05
6.1307562284e-06
-1.50219112536e-05
8.7118590507e-05
3.96263967144e-06
-1.14570926183e-05
7.42225558575e-05
1.88483121861e-06
-7.26517571901e-06
4.94053183559e-05
4.37303080486e-07
-3.15117612501e-06
2.19795258394e-05
-6.26922665437e-07
4.55288348982e-06
4.38449969909e-07
-6.47946946094e-07
-4.55987707702e-06
1.90367777694e-06
-3.61294961537e-06
-2.20101383241e-05
4.03486160272e-06
-9.73454625716e-06
-4.94648521419e-05
6.27712498866e-06
-1.77885577769e-05
-7.42902581162e-05
8.04798888882e-06
-2.53157030378e-05
-8.71678834074e-05
8.97499691657e-06
-2.98813076785e-05
-8.48796108318e-05
9.16652964948e-06
-3.08425964604e-05
-7.06743766126e-05
9.14116514223e-06
-2.97107545239e-05
-5.11450417972e-05
9.11571162685e-06
-2.81283900855e-05
-3.06874917341e-05
9.09016910329e-06
-2.6546025647e-05
-1.02299416709e-05
9.06453757161e-06
-2.49636612086e-05
1.02276083922e-05
9.03881703174e-06
-2.33812967701e-05
3.06851584553e-05
9.01300748376e-06
-2.17989323317e-05
5.11427085184e-05
8.77942323094e-06
-2.00816783729e-05
7.06685117848e-05
7.85050732592e-06
-1.78904941087e-05
8.4857558816e-05
6.13075622844e-06
-1.50219112536e-05
8.7118590507e-05
3.96263967147e-06
-1.14570926183e-05
7.42225558575e-05
1.8848312186e-06
-7.265175719e-06
4.94053183559e-05
4.373030805e-07
-3.151176125e-06
2.19795258394e-05
-6.26922665421e-07
4.55288348982e-06
4.38449969908e-07
-6.479469461e-07
-4.55987707702e-06
1.90367777694e-06
-3.61294961539e-06
-2.20101383241e-05
4.03486160272e-06
-9.73454625717e-06
-4.94648521419e-05
6.27712498865e-06
-1.77885577769e-05
-7.42902581162e-05
8.0479888888e-06
-2.53157030378e-05
-8.71678834074e-05
8.97499691658e-06
-2.98813076785e-05
-8.48796108318e-05
9.16652964947e-06
-3.08425964604e-05
-7.06743766126e-05
9.14116514223e-06
-2.97107545239e-05
-5.11450417972e-05
9.11571162683e-06
-2.81283900855e-05
-3.06874917341e-05
9.09016910328e-06
-2.6546025647e-05
-1.02299416709e-05
9.06453757159e-06
-2.49636612086e-05
1.02276083922e-05
9.03881703173e-06
-2.33812967702e-05
3.06851584553e-05
9.01300748378e-06
-2.17989323317e-05
5.11427085184e-05
8.77942323096e-06
-2.00816783729e-05
7.06685117848e-05
7.85050732595e-06
-1.78904941087e-05
8.4857558816e-05
6.13075622837e-06
-1.50219112536e-05
8.7118590507e-05
3.96263967148e-06
-1.14570926183e-05
7.42225558575e-05
1.8848312186e-06
-7.26517571898e-06
4.94053183559e-05
4.37303080509e-07
-3.15117612501e-06
2.19795258394e-05
-6.26922665444e-07
4.55288348982e-06
4.38449969912e-07
-6.4794694613e-07
-4.55987707702e-06
1.90367777694e-06
-3.61294961536e-06
-2.20101383241e-05
4.03486160271e-06
-9.7345462571e-06
-4.94648521419e-05
6.27712498865e-06
-1.77885577769e-05
-7.42902581162e-05
8.04798888881e-06
-2.53157030379e-05
-8.71678834074e-05
8.97499691657e-06
-2.98813076785e-05
-8.48796108318e-05
9.16652964947e-06
-3.08425964604e-05
-7.06743766126e-05
9.14116514221e-06
-2.97107545239e-05
-5.11450417972e-05
9.11571162684e-06
-2.81283900855e-05
-3.06874917341e-05
9.0901691033e-06
-2.65460256471e-05
-1.02299416709e-05
9.06453757161e-06
-2.49636612086e-05
1.02276083922e-05
9.03881703174e-06
-2.33812967702e-05
3.06851584553e-05
9.01300748375e-06
-2.17989323317e-05
5.11427085184e-05
8.77942323088e-06
-2.00816783729e-05
7.06685117848e-05
7.85050732595e-06
-1.78904941087e-05
8.4857558816e-05
6.13075622839e-06
-1.50219112537e-05
8.7118590507e-05
3.9626396715e-06
-1.14570926183e-05
7.42225558575e-05
1.88483121861e-06
-7.26517571894e-06
4.94053183559e-05
4.37303080468e-07
-3.15117612499e-06
2.19795258394e-05
-6.26922665411e-07
4.55288348982e-06
3.9972155588e-07
-5.31130584363e-07
-4.15804098015e-06
1.81609536862e-06
-3.1915287288e-06
-2.08257883605e-05
3.90651501225e-06
-8.89782111955e-06
-4.77329934945e-05
6.12653142355e-06
-1.65494591672e-05
-7.24381679662e-05
7.90120321992e-06
-2.38738994698e-05
-8.55668086539e-05
8.85996559716e-06
-2.85771620844e-05
-8.37498273552e-05
9.07988577685e-06
-2.98723861869e-05
-7.00013586297e-05
9.0550286915e-06
-2.89479409719e-05
-5.0743291884e-05
9.03008525362e-06
-2.74366937721e-05
-3.04471258559e-05
9.00505546323e-06
-2.59254465724e-05
-1.01509598277e-05
8.97993932028e-06
-2.44141993727e-05
1.01452062005e-05
8.95473682486e-06
-2.2902952173e-05
3.04413722287e-05
8.92944797691e-06
-2.13917049732e-05
5.07375382569e-05
8.66967177707e-06
-1.96978391824e-05
6.99916322614e-05
7.71118145333e-06
-1.74652348153e-05
8.37235584474e-05
5.98727982963e-06
-1.4548728294e-05
8.5514309221e-05
3.83883811653e-06
-1.0955257209e-05
7.23694580487e-05
1.79891791014e-06
-6.79387261292e-06
4.76743367087e-05
3.98759754008e-07
-2.82408537727e-06
2.07964972049e-05
-5.16921412318e-07
4.15161974091e-06
2.6801530184e-07
-2.55941456123e-07
-2.78983759472e-06
1.48613962996e-06
-2.12826770228e-06
-1.64659675696e-05
3.3945647335e-06
-6.68424885982e-06
-4.08123475757e-05
5.4920191379e-06
-1.31656042967e-05
-6.44664107311e-05
7.23997820333e-06
-1.97415807653e-05
-7.81125083707e-05
8.27359272441e-06
-2.44196823092e-05
-7.79614621216e-05
8.56694721576e-06
-2.6163285875e-05
-6.60854771976e-05
8.54481303832e-06
-2.56506237927e-05
-4.81748521163e-05
8.5226063404e-06
-2.4431943299e-05
-2.89093398939e-05
8.50032712195e-06
-2.32132628054e-05
-9.64382767145e-06
8.47797538301e-06
-2.19945823117e-05
9.62168455094e-06
8.45555112363e-06
-2.0775901818e-05
2.88871967733e-05
8.43305434375e-06
-1.95572213243e-05
4.81527089957e-05
8.10743444574e-06
-1.8083600223e-05
6.6058996254e-05
7.07981214597e-06
-1.59281988633e-05
7.79197656551e-05
5.37933917478e-06
-1.29985353334e-05
7.80503524028e-05
3.34285986386e-06
-9.40875525455e-06
6.43965262601e-05
1.47435794799e-06
-5.42940902145e-06
4.07585542418e-05
2.67535946943e-07
-1.95472554957e-06
1.64419163488e-05
-2.52595797855e-07
2.78544314016e-06
9.53418201753e-08
-2.29333154945e-08
-9.9331519532e-07
9.34197715918e-07
-9.43027968245e-07
-9.61243720292e-06
2.46933128308e-06
-3.87455129139e-06
-2.84787413238e-05
4.27601578392e-06
-8.60430073935e-06
-4.91608831771e-05
5.88066413294e-06
-1.38017073847e-05
-6.27389461632e-05
6.92395662243e-06
-1.7870796138e-05
-6.48574138927e-05
7.26365046609e-06
-1.971030549e-05
-5.61691196803e-05
7.24748989888e-06
-1.96125986566e-05
-4.12466436917e-05
7.23128422539e-06
-1.88623447016e-05
-2.47582719638e-05
7.21503344559e-06
-1.81120907466e-05
-8.26990023603e-06
7.19873755954e-06
-1.73618367916e-05
8.21847149179e-06
7.18239656712e-06
-1.66115828365e-05
2.47068432196e-05
7.16601046844e-06
-1.58613288815e-05
4.11952149474e-05
6.80560111414e-06
-1.48085172623e-05
5.61145455284e-05
5.77267241e-06
-1.29466652505e-05
6.47937952382e-05
4.20575898688e-06
-1.02006928637e-05
6.26674375478e-05
2.44084686403e-06
-6.85180096968e-06
4.90955090262e-05
9.29148348639e-07
-3.41699301343e-06
2.84367229133e-05
9.52500401343e-08
-9.0503048608e-07
9.59743331478e-06
-2.29061295783e-08
9.91709732823e-07
7.86321608942e-09
0
-8.19990688357e-08
3.76489099287e-07
-1.87712743959e-07
-3.56180275069e-06
1.38690041914e-06
-1.43782573821e-06
-1.46843717389e-05
2.73869697002e-06
-4.18924885124e-06
-3.01217494622e-05
4.03622550382e-06
-7.62335742142e-06
-4.20834319778e-05
4.94089875225e-06
-1.05861304409e-05
-4.58276885907e-05
5.25532786359e-06
-1.21311733983e-05
-4.07506823594e-05
5.24648549395e-06
-1.23014169413e-05
-3.01574555574e-05
5.23762498094e-06
-1.19854293626e-05
-1.81089769336e-05
5.22874632458e-06
-1.1669441784e-05
-6.0604983099e-06
5.21984952483e-06
-1.13534542054e-05
5.98798031384e-06
5.21093458171e-06
-1.10374666267e-05
1.80364589376e-05
5.20200149528e-06
-1.07214790482e-05
3.00849375613e-05
4.87782490599e-06
-1.01051318951e-05
4.06774992699e-05
3.98260201529e-06
-8.67822640976e-06
4.57545358023e-05
2.70788331892e-06
-6.40554200403e-06
4.2016567417e-05
1.37692617486e-06
-3.7314850043e-06
3.00724878022e-05
3.75424294008e-07
-1.36735610612e-06
1.4659898049e-05
7.8624782139e-09
-1.86126887192e-07
3.55577236419e-06
0
8.18629334834e-08
0
0
0
6.42542014051e-08
0
-5.95260900788e-07
4.87020359478e-07
-1.87601641844e-07
-4.53528106144e-06
1.27932294188e-06
-1.10564996419e-06
-1.28224700286e-05
2.14392218576e-06
-2.77626729996e-06
-2.12762374825e-05
2.79155425445e-06
-4.45571050523e-06
-2.53054353534e-05
3.02729577878e-06
-5.4510643704e-06
-2.34184407432e-05
3.0240642342e-06
-5.66916149544e-06
-1.75194141742e-05
3.02082871354e-06
-5.59730018767e-06
-1.05245424815e-05
3.0175892168e-06
-5.52543887995e-06
-3.52967078887e-06
3.01434574396e-06
-5.45357757224e-06
3.4652009038e-06
3.01109829504e-06
-5.38171626455e-06
1.04600725965e-05
3.00784687004e-06
-5.30985495681e-06
1.74549442891e-05
2.7692945702e-06
-5.00619324097e-06
2.33552615496e-05
2.12688739547e-06
-4.08656898253e-06
2.52484082668e-05
1.27139101683e-06
-2.60049552164e-06
2.12326349071e-05
4.85353361527e-07
-1.07041854599e-06
1.27976181252e-05
6.42105257956e-08
-1.86237997664e-07
4.52679852067e-06
0
0
5.94172068753e-07
0
0
0
0
0
0
0
0
6.42514723631e-08
0
-5.20921310492e-07
3.20159873229e-07
-2.29283040133e-08
-2.74402415142e-06
7.12596856231e-07
-2.78152389996e-07
-6.35581789354e-06
1.05486010374e-06
-7.84149424593e-07
-9.02960783728e-06
1.18762738535e-06
-1.17219598481e-06
-9.03730719631e-06
1.18699848422e-06
-1.28457301506e-06
-6.90161308922e-06
1.18636924792e-06
-1.28069674466e-06
-4.14755688376e-06
1.18573967646e-06
-1.27682047419e-06
-1.3935006783e-06
1.18510976977e-06
-1.27294420384e-06
1.36055552716e-06
1.18447952793e-06
-1.2690679334e-06
4.11461173262e-06
1.1838489509e-06
-1.26519166296e-06
6.86866793808e-06
1.05077555623e-06
-1.15074599737e-06
9.00592082147e-06
7.10023212838e-07
-7.72447646098e-07
9.00418632501e-06
3.19394117238e-07
-2.76224686714e-07
6.34028589669e-06
6.42132561367e-08
-2.29111411579e-08
2.73792970656e-06
0
0
5.19832540531e-07
0
0
0
0
0
0
0
0
0
0
0
0
0
0
7.86309312196e-09
0
-5.46887337454e-08
8.74612493703e-08
0
-5.6142169178e-07
1.80781037702e-07
0
-1.34590918474e-06
2.20150636379e-07
0
-1.60616146662e-06
2.20118796962e-07
0
-1.27894914203e-06
2.20086953972e-07
0
-7.68808373264e-07
2.20055107344e-07
0
-2.58667604504e-07
2.2002325719e-07
0
2.51473164255e-07
2.19991403283e-07
0
7.61613933014e-07
2.19959545965e-07
0
1.27175470178e-06
1.80608986511e-07
0
1.59957973587e-06
8.74107128874e-08
0
1.34145453351e-06
7.86260124809e-09
0
5.59814109717e-07
0
0
5.45526012221e-08
0
0
0
0
0
0
0
0
0
0
0
0
0
0
0
0
0
0
0
0
0
0
0
0
0
0
0
0
0
0
0
0
0
0
0
0
0
0
0
0
0
0
0
0
0
0
0
0
0
0
0
0
0
0
0
0
0
0
0
0
0
0
0
0
0
0
0
0
0
0
0
0
0
0
0
0
0
0
0
0
0
0
0
0
0
0
0
0
0
0
0
0
0
0
0
0
0
0
0
0
0
0
0
0
0
0
0
0
0
0
0
0
0
0
0
1.77553939706e-08
-8.24282171941e-08
-1.41783244498e-07
1.47012285411e-07
-6.98870587883e-07
-8.57913073668e-07
2.91146153151e-07
-1.82103162977e-06
-1.78590096501e-06
3.5094967253e-07
-2.65316521191e-06
-2.02499715985e-06
3.50921011455e-07
-2.89604687722e-06
-1.59253708732e-06
3.50892351793e-07
-2.89370008815e-06
-9.57295960062e-07
3.50863693487e-07
-2.89135329907e-06
-3.22054832796e-07
3.50835036576e-07
-2.88900651e-06
3.13186294467e-07
3.50806381103e-07
-2.88665972092e-06
9.4842742172e-07
3.50777727018e-07
-2.88431293184e-06
1.58366854898e-06
2.90985337165e-07
-2.64092160061e-06
2.01679060212e-06
1.46955825997e-07
-1.8141719847e-06
1.78005692681e-06
1.77532862026e-08
-6.97185257626e-07
8.55489978908e-07
0
-8.23311989895e-08
1.41431401143e-07
0
0
0
0
0
0
0
0
0
0
0
0
0
0
1.10391229835e-07
-4.66740318068e-07
-7.75109166537e-07
5.06790290584e-07
-2.47822763085e-06
-3.52321780554e-06
1.09186780391e-06
-5.89585031839e-06
-7.50390155145e-06
1.58881776674e-06
-9.22930873402e-06
-1.02001164055e-05
1.77975115004e-06
-1.12358692013e-05
-9.99553691712e-06
1.77949240685e-06
-1.17711004198e-05
-7.59078135574e-06
1.77923370723e-06
-1.17503890751e-05
-4.56159806378e-06
1.77897505121e-06
-1.17296777305e-05
-1.5324147718e-06
1.77871643876e-06
-1.17089663858e-05
1.49676852019e-06
1.77845786998e-06
-1.16882550412e-05
4.52595181215e-06
1.77819934477e-06
-1.16675436966e-05
7.55513510413e-06
1.58701539086e-06
-1.11204459419e-05
9.96136452349e-06
1.09045263853e-06
-9.14410811326e-06
1.0171716704e-05
5.06186617812e-07
-5.85281328708e-06
7.48564679199e-06
1.10344082015e-07
-2.46619018478e-06
3.51540558919e-06
0
-4.65438451569e-07
7.73496506776e-07
0
0
0
0
0
0
0
0
1.10394598066e-07
-4.6687703885e-07
-8.85723923727e-07
7.62873610911e-07
-3.14562353678e-06
-5.65485938733e-06
1.92376259421e-06
-8.56916950773e-06
-1.45956669936e-05
3.15184460004e-06
-1.49584904396e-05
-2.29536052418e-05
4.05607528394e-06
-2.04045787176e-05
-2.64878884422e-05
4.38529192007e-06
-2.34871243643e-05
-2.4168133135e-05
4.38476808921e-06
-2.42702290002e-05
-1.80128706734e-05
4.38424470365e-06
-2.42074151659e-05
-1.08203528651e-05
4.3837217633e-06
-2.41446013317e-05
-3.62783505684e-06
4.3831992683e-06
-2.40817874974e-05
3.56468275144e-06
4.38267721858e-06
-2.40189736631e-05
1.07572005597e-05
4.38215561411e-06
-2.39561598289e-05
1.7949718368e-05
4.05224191038e-06
-2.3129042677e-05
2.41058563594e-05
3.1482449596e-06
-2.01148784166e-05
2.64302291261e-05
1.92132637195e-06
-1.47772962887e-05
2.29073781248e-05
7.61934418555e-07
-8.49063070087e-06
1.4567420046e-05
1.10340714802e-07
-3.12705230094e-06
5.64423982044e-06
0
-4.65301709494e-07
8.84111126485e-07
0
0
1.77559209137e-08
-8.24569342003e-08
-2.12586915179e-07
5.99988377832e-07
-2.09428330688e-06
-4.58292638459e-06
2.09547344461e-06
-7.90188627431e-06
-1.68452862735e-05
4.02668362405e-06
-1.64401032972e-05
-3.24196828639e-05
5.84113240697e-06
-2.53074846612e-05
-4.36457022405e-05
7.09700165415e-06
-3.23359803926e-05
-4.65200243313e-05
7.54049468479e-06
-3.61324093459e-05
-4.09510687055e-05
7.5398994052e-06
-3.70510507091e-05
-3.02252826909e-05
7.53930581322e-06
-3.69375129358e-05
-1.81481537051e-05
7.53871390868e-06
-3.68239751624e-05
-6.07102471927e-06
7.53812369175e-06
-3.67104373891e-05
6.00610426654e-06
7.53753516232e-06
-3.65968996158e-05
1.80832332524e-05
7.53694832039e-06
-3.64833618425e-05
3.01603622382e-05
7.09252087725e-06
-3.54740257912e-05
4.08849100787e-05
5.83650805056e-06
-3.17695106001e-05
4.64514697932e-05
4.02297704187e-06
-2.49081662369e-05
4.35794092056e-05
2.09341750719e-06
-1.62285529046e-05
3.2367425622e-05
5.99437932499e-07
-7.82960193975e-06
1.68170611615e-05
1.77527592902e-08
-2.08270405025e-06
4.5751358839e-06
-8.23024813268e-08
2.12235052789e-07
1.648037804e-07
-6.16995973097e-07
-1.50167012978e-06
1.44404417013e-06
-4.50086748854e-06
-1.15341221405e-05
3.68830112237e-06
-1.29519862887e-05
-3.14630942039e-05
6.26522734228e-06
-2.38243190903e-05
-5.18920168458e-05
8.52945917455e-06
-3.42943795266e-05
-6.44554230875e-05
1.00106582804e-05
-4.20222696875e-05
-6.56063502613e-05
1.05120348819e-05
-4.59061305081e-05
-5.64131354395e-05
1.05116066387e-05
-4.67751350575e-05
-4.13457360181e-05
1.05111817113e-05
-4.66393410488e-05
-2.48153928235e-05
1.05107600996e-05
-4.65035470401e-05
-8.28504962893e-06
1.05103418036e-05
-4.63677530313e-05
8.24529356565e-06
1.05099268234e-05
-4.62319590226e-05
2.47756367602e-05
1.05095151589e-05
-4.60961650138e-05
4.13059799548e-05
1.00072931946e-05
-4.50921956349e-05
5.63698570073e-05
8.52557939742e-06
-4.12576824581e-05
6.5551774952e-05
6.26172400491e-06
-3.36891220201e-05
6.43881708317e-05
3.68601886373e-06
-2.34582970162e-05
5.18253182929e-05
1.44314920849e-06
-1.28007621789e-05
3.14167106712e-05
1.64720262956e-07
-4.46679385687e-06
1.15159360973e-05
-6.14299429386e-07
1.49924860846e-06
4.39209859317e-07
-1.20515085467e-06
-3.70801914038e-06
2.28044606266e-06
-6.54957107816e-06
-1.92110459219e-05
5.08485562182e-06
-1.66798527889e-05
-4.46628876966e-05
8.11916793638e-06
-2.89106977371e-05
-6.81671084968e-05
1.06409205629e-05
-4.00571785136e-05
-8.08909986058e-05
1.21553288335e-05
-4.75561596954e-05
-7.96981164419e-05
1.26127626942e-05
-5.07343801453e-05
-6.7065007164e-05
1.26125870752e-05
-5.12708707882e-05
-4.87524163392e-05
1.26124149223e-05
-5.11843893441e-05
-2.92537735615e-05
1.26122462353e-05
-5.10979079001e-05
-9.7551307837e-06
1.26120810144e-05
-5.1011426456e-05
9.74351199404e-06
1.26119192595e-05
-5.09249450119e-05
2.92421547718e-05
1.26117609707e-05
-5.08384635679e-05
4.87407975495e-05
1.21536939981e-05
-5.01172320865e-05
6.70496866284e-05
1.06385667934e-05
-4.68035204338e-05
7.96671903114e-05
8.11678408259e-06
-3.93447835238e-05
8.08354455414e-05
5.08317073363e-06
-2.84313815267e-05
6.80972120754e-05
2.27968700725e-06
-1.64598828023e-05
4.46045065153e-05
4.39076449137e-07
-6.49121504081e-06
1.9182637529e-05
-1.19874873568e-06
3.70218934626e-06
6.46173232924e-07
-1.44908529985e-06
-5.30810422786e-06
2.79915634202e-06
-7.3390779942e-06
-2.41650562899e-05
5.9195485963e-06
-1.80394993738e-05
-5.25984425076e-05
9.20178737407e-06
-3.06994225867e-05
-7.76851302716e-05
1.18133478048e-05
-4.19675835219e-05
-9.01083827016e-05
1.3210027182e-05
-4.90721245712e-05
-8.67780030833e-05
1.35298492306e-05
-5.15534922483e-05
-7.1480678406e-05
1.35298056928e-05
-5.17733105409e-05
-5.14412833969e-05
1.35297640434e-05
-5.17489941213e-05
-3.08648547341e-05
1.35297242827e-05
-5.17246777016e-05
-1.02884260713e-05
1.35296864104e-05
-5.1700361282e-05
1.02880025914e-05
1.35296504267e-05
-5.16760448624e-05
3.08644312542e-05
1.35296163315e-05
-5.16517284428e-05
5.1440859917e-05
1.32093579114e-05
-5.12137132576e-05
7.14785443661e-05
1.18120029144e-05
-4.84183124424e-05
8.67618447054e-05
9.20032287994e-06
-4.12353996491e-05
9.00630408454e-05
5.9184992099e-06
-3.01808849639e-05
7.7616468051e-05
2.79867524402e-06
-1.77927692135e-05
5.25346482607e-05
6.46075816578e-07
-7.27028783428e-06
2.41306483307e-05
-1.44108360784e-06
5.29991390126e-06
7.07852750353e-07
-1.44908529983e-06
-5.77760657736e-06
2.94668734279e-06
-7.33907799426e-06
-2.55837367096e-05
6.15883084813e-06
-1.80394993739e-05
-5.48579130568e-05
9.5132228542e-06
-3.06994225868e-05
-8.04116209789e-05
1.21372209747e-05
-4.19675835219e-05
-9.26839821852e-05
1.34456614294e-05
-4.90721245712e-05
-8.8437628584e-05
1.36712492463e-05
-5.15534922483e-05
-7.20346881828e-05
1.36712345201e-05
-5.17733105409e-05
-5.15353425773e-05
1.36712206385e-05
-5.17489941212e-05
-3.09212055464e-05
1.36712076013e-05
-5.17246777016e-05
-1.03070685154e-05
1.36711954086e-05
-5.1700361282e-05
1.03070685155e-05
1.36711840603e-05
-5.16760448624e-05
3.09212055464e-05
1.36711735566e-05
-5.16517284428e-05
5.15353425773e-05
1.34451911642e-05
-5.12137132576e-05
7.20342293757e-05
1.21360451155e-05
-4.84183124424e-05
8.84249226342e-05
9.51189346186e-06
-4.12353996492e-05
9.26416460019e-05
6.15786687689e-06
-3.01808849638e-05
8.0343596637e-05
2.94624179958e-06
-1.77927692135e-05
5.47928159968e-05
7.07759937752e-07
-7.27028783432e-06
2.55477108391e-05
-1.44108360787e-06
5.7687473032e-06
7.07852750351e-07
-1.44908529981e-06
-5.77760657736e-06
2.94668734279e-06
-7.33907799421e-06
-2.55837367096e-05
6.15883084811e-06
-1.80394993739e-05
-5.48579130568e-05
9.5132228542e-06
-3.06994225867e-05
-8.04116209789e-05
1.21372209747e-05
-4.19675835219e-05
-9.26839821852e-05
1.34456614294e-05
-4.90721245712e-05
-8.8437628584e-05
1.36712492463e-05
-5.15534922483e-05
-7.20346881828e-05
1.36712345201e-05
-5.17733105409e-05
-5.15353425773e-05
1.36712206385e-05
-5.17489941212e-05
-3.09212055464e-05
1.36712076013e-05
-5.17246777016e-05
-1.03070685154e-05
1.36711954086e-05
-5.1700361282e-05
1.03070685155e-05
1.36711840603e-05
-5.16760448624e-05
3.09212055464e-05
1.36711735566e-05
-5.16517284428e-05
5.15353425773e-05
1.34451911643e-05
-5.12137132575e-05
7.20342293757e-05
1.21360451155e-05
-4.84183124424e-05
8.84249226342e-05
9.51189346193e-06
-4.12353996491e-05
9.26416460019e-05
6.15786687687e-06
-3.01808849639e-05
8.0343596637e-05
2.94624179961e-06
-1.77927692135e-05
5.47928159968e-05
7.07759937761e-07
-7.27028783429e-06
2.55477108391e-05
-1.44108360781e-06
5.7687473032e-06
7.0785275035e-07
-1.44908529981e-06
-5.77760657736e-06
2.94668734279e-06
-7.33907799422e-06
-2.55837367096e-05
6.15883084812e-06
-1.80394993738e-05
-5.48579130568e-05
9.5132228542e-06
-3.06994225867e-05
-8.04116209789e-05
1.21372209747e-05
-4.19675835219e-05
-9.26839821852e-05
1.34456614294e-05
-4.90721245712e-05
-8.8437628584e-05
1.36712492462e-05
-5.15534922483e-05
-7.20346881828e-05
1.36712345201e-05
-5.17733105409e-05
-5.15353425773e-05
1.36712206385e-05
-5.17489941212e-05
-3.09212055464e-05
1.36712076013e-05
-5.17246777016e-05
-1.03070685154e-05
1.36711954086e-05
-5.1700361282e-05
1.03070685155e-05
1.36711840603e-05
-5.16760448624e-05
3.09212055464e-05
1.36711735566e-05
-5.16517284427e-05
5.15353425773e-05
1.34451911642e-05
-5.12137132576e-05
7.20342293757e-05
1.21360451155e-05
-4.84183124424e-05
8.84249226342e-05
9.5118934619e-06
-4.12353996491e-05
9.26416460019e-05
6.1578668769e-06
-3.01808849638e-05
8.0343596637e-05
2.94624179962e-06
-1.77927692134e-05
5.47928159968e-05
7.07759937756e-07
-7.27028783429e-06
2.55477108391e-05
-1.44108360784e-06
5.76874730319e-06
7.0785275035e-07
-1.44908529979e-06
-5.77760657736e-06
2.9466873428e-06
-7.33907799424e-06
-2.55837367096e-05
6.15883084811e-06
-1.80394993738e-05
-5.48579130568e-05
9.51322285419e-06
-3.06994225868e-05
-8.04116209789e-05
1.21372209747e-05
-4.19675835219e-05
-9.26839821852e-05
1.34456614294e-05
-4.90721245711e-05
-8.8437628584e-05
1.36712492463e-05
-5.15534922482e-05
-7.20346881828e-05
1.36712345201e-05
-5.17733105409e-05
-5.15353425773e-05
1.36712206385e-05
-5.17489941213e-05
-3.09212055464e-05
1.36712076013e-05
-5.17246777016e-05
-1.03070685154e-05
1.36711954086e-05
-5.1700361282e-05
1.03070685155e-05
1.36711840603e-05