/*--------------------------------*- C++ -*----------------------------------*\
| =========                 |                                                 |
| \\      /  F ield         | OpenFOAM: The Open Source CFD Toolbox           |
|  \\    /   O peration     | Version:  v1606+                                |
|   \\  /    A nd           | Web:      www.OpenFOAM.com                      |
|    \\/     M anipulation  |                                                 |
\*---------------------------------------------------------------------------*/
FoamFile
{
    version     2.0;
    format      ascii;
    class       volVectorField;
    location    "6";
    object      U_0;
}
// * * * * * * * * * * * * * * * * * * * * * * * * * * * * * * * * * * * * * //

dimensions      [0 1 -1 0 0 0 0];

internalField   nonuniform List<vector> 
11640
(
(-0.000617924388721 -0.000557169915133 0.000748942255293)
(-0.00186398423195 -0.000592737483537 0.00078595876587)
(-0.00304579303858 -0.000684794935738 0.00081856413303)
(-0.00406169691222 -0.000782559220026 0.000804128785999)
(-0.00481226039956 -0.000874605823833 0.000772355116239)
(-0.00528302372708 -0.000974844339437 0.000722282132693)
(-0.0055088268352 -0.00103736417051 0.000683725183105)
(-0.00554746661913 -0.00107657193821 0.000654585565008)
(-0.00542730939408 -0.00116320809054 0.000679469132209)
(-0.00518157148674 -0.00123336051768 0.000704156166626)
(-0.00486107594401 -0.00126647864873 0.000693926794824)
(-0.00447037298399 -0.00130425717893 0.000733934216526)
(-0.00405452649962 -0.00134830007102 0.000757346804204)
(-0.00365440610613 -0.00141205883126 0.000760028542781)
(-0.0032157197373 -0.00149829789805 0.00077715997723)
(-0.00270644027755 -0.00161125241108 0.000816070736726)
(-0.00211750090873 -0.00170405642434 0.00086401654728)
(-0.00146238461664 -0.0017566345975 0.000905520045195)
(-0.000817715108562 -0.00174878712955 0.000923954232733)
(-0.000206860152077 -0.00165415417751 0.000916057383632)
(-0.000758850001842 -0.0013917552097 0.000749007995915)
(-0.00213391320418 -0.0014853698162 0.000743023622133)
(-0.00335983014034 -0.001688170748 0.000720026927731)
(-0.00437004996222 -0.00192932475645 0.000624014218369)
(-0.00509765607232 -0.00211813403913 0.000483234120733)
(-0.00556539685522 -0.00226899867088 0.000351397802598)
(-0.00578843545904 -0.00243575648507 0.000257856604653)
(-0.00583566382399 -0.00263576274135 0.000236877768767)
(-0.00572597083338 -0.00294630419346 0.000281477539637)
(-0.00545282132774 -0.00320845113875 0.000327114970702)
(-0.00511004654815 -0.00341836924158 0.000385609195813)
(-0.0047011678933 -0.00359136492956 0.000444959380802)
(-0.00427011109287 -0.0037283129517 0.000502046562861)
(-0.00382678385228 -0.00387015634389 0.000534391404523)
(-0.00334333579722 -0.00405398836447 0.000551803296898)
(-0.00282999287519 -0.00432154989808 0.000568889704596)
(-0.00225414630562 -0.00461627419014 0.000604666714377)
(-0.00159557934994 -0.00483310897146 0.000656707037987)
(-0.00089025169444 -0.00492252716222 0.000723608929951)
(-0.000226319004676 -0.004824763739 0.000852515136881)
(-0.000864989858792 -0.0020277638144 0.000786633696464)
(-0.00238983188862 -0.00217070675368 0.000747539646238)
(-0.00369134727035 -0.00241043959251 0.000626503779206)
(-0.00471627962765 -0.00261504601711 0.000419567123953)
(-0.00545457596301 -0.00271094029062 0.000195947955254)
(-0.00596232401252 -0.00279409619382 -2.98879366116e-05)
(-0.00621838507855 -0.00298233500315 -0.000120487427327)
(-0.00630974102638 -0.00326241813712 -0.000120632823266)
(-0.00624853500441 -0.00376907990502 -8.26334996289e-05)
(-0.00594918957493 -0.00426593938507 3.90732142593e-06)
(-0.0055598695048 -0.00475199266437 0.000125305515691)
(-0.00508596010987 -0.00516640187424 0.000247902524772)
(-0.00458727223029 -0.00547183245481 0.000343262827104)
(-0.00409378258216 -0.00575763533041 0.000376900988512)
(-0.00358917744637 -0.0060921089871 0.00041554405301)
(-0.00306226700103 -0.00654592366766 0.000454308975567)
(-0.00244951291874 -0.00703653601263 0.000513211803219)
(-0.001766571877 -0.00747368740177 0.000554527667136)
(-0.00101068557075 -0.00776003959187 0.000606469900583)
(-0.000276440872954 -0.00780212394879 0.000774161547614)
(-0.000961805177664 -0.00260252217513 0.000830556549467)
(-0.00271564193274 -0.00276436500646 0.000737706153867)
(-0.0040819152546 -0.00294607921735 0.00052397651823)
(-0.0051716023821 -0.00298038607268 0.0002144978877)
(-0.00604771360987 -0.00281413241539 -9.33110706515e-05)
(-0.00667498863293 -0.00268712956674 -0.000330008314828)
(-0.00694009419332 -0.00288475199671 -0.000439744765686)
(-0.00709197538958 -0.00324767146874 -0.000465563528219)
(-0.00706475318448 -0.00405065868723 -0.000480013950631)
(-0.006749493378 -0.00491663874634 -0.000391520194703)
(-0.00630978682253 -0.0057848809727 -0.000197108167225)
(-0.00570442184017 -0.00651101431869 -8.34172544979e-06)
(-0.00508907132036 -0.00704465811546 0.000128825915208)
(-0.00454192947939 -0.00752968918011 0.000174275264402)
(-0.00399578701543 -0.00802413538323 0.000236855435437)
(-0.0034123616265 -0.00862411268745 0.000313445506806)
(-0.00272527592698 -0.00930371735281 0.000388501773982)
(-0.00197572641614 -0.00992573731803 0.000457897581442)
(-0.00115911109752 -0.0103998468794 0.000511938362256)
(-0.000353946493223 -0.0106302349333 0.000658706065086)
(-0.00110888062248 -0.00307325997904 0.00089174983308)
(-0.00309434974062 -0.0031426514764 0.000710095339394)
(-0.00459877610702 -0.00316009287543 0.000409981897438)
(-0.0058902387506 -0.00286671268208 6.46557040242e-05)
(-0.00699248963476 -0.00233249856378 -0.000240107293231)
(-0.00782820018649 -0.0020362133037 -0.000461541825163)
(-0.00808842779475 -0.00221038898786 -0.000638044234051)
(-0.00832018196799 -0.00252858190755 -0.000759771963283)
(-0.00831765021992 -0.00343912980194 -0.000923766640917)
(-0.00787671177434 -0.00449035937582 -0.000923745031171)
(-0.00727248660231 -0.00575660783834 -0.000804628330914)
(-0.00645020213118 -0.00693472397651 -0.000615747871806)
(-0.00570328655075 -0.00784953580914 -0.000336169914766)
(-0.00512047457077 -0.00872570988058 -0.000108951156159)
(-0.00446721817341 -0.00950313100093 6.88136319202e-05)
(-0.00381676899064 -0.0103576322259 0.000127673634384)
(-0.00306095579032 -0.0112785573907 0.000231948921113)
(-0.00220370848297 -0.0121168272329 0.000333710708432)
(-0.00127680282765 -0.0127509073224 0.000409225504976)
(-0.000420454248312 -0.0131490559072 0.000533838572812)
(-0.0013195242979 -0.00338379538073 0.000944322077108)
(-0.00352446668084 -0.0033137332971 0.000702028280361)
(-0.00529057879899 -0.00306376017689 0.000382744112337)
(-0.00689257008527 -0.00231380644307 3.81663288203e-05)
(-0.00832679563051 -0.00144774264359 -0.000238511190275)
(-0.00944403681527 -0.00102806917977 -0.000510751408263)
(-0.0095920261111 -0.00116349774259 -0.000757518809274)
(-0.0096757022656 -0.00122904094857 -0.00111264686228)
(-0.00949865807634 -0.00229438911294 -0.00136321615144)
(-0.00893925104999 -0.00364294929263 -0.00128394922768)
(-0.00820182559173 -0.00556407810185 -0.00102648704041)
(-0.0071988616327 -0.00727136817329 -0.000846175520539)
(-0.00646665424135 -0.00845296891043 -0.000509495798752)
(-0.00596971485748 -0.00951509045566 -0.000389356627155)
(-0.00520873093316 -0.0104684845139 -0.000210123188636)
(-0.00442554701678 -0.0116653761342 -9.81386493455e-05)
(-0.00352403853535 -0.0128997506785 3.46677645256e-05)
(-0.00253157765749 -0.0140045999031 0.000157846330511)
(-0.00145693989159 -0.014806257661 0.000259621810537)
(-0.000468465717188 -0.015336510921 0.000371419067436)
(-0.00149252429335 -0.00352322779125 0.000994569745236)
(-0.00393058018162 -0.00332517763734 0.000762364133697)
(-0.00602959208816 -0.00273768500032 0.000469534258039)
(-0.00797268118067 -0.00155050740645 0.000153632329651)
(-0.00978962511961 -0.000277797011481 -0.000105743314065)
(-0.0113997045894 0.000337182088638 -0.000479956152505)
(-0.011479388382 0.000699714843143 -0.000776299837772)
(-0.0118606707348 0.000958799311857 -0.00103205521642)
(-0.011685864979 0.00105540869782 -0.00166414546742)
(-0.0105954648035 0.000346016604831 -0.00213221015834)
(-0.009070185432 -0.00116037082609 -0.00235407932158)
(-0.00752503124064 -0.00221323985679 -0.00220069397028)
(-0.00651650616133 -0.0038811671203 -0.0014260168121)
(-0.00657743816716 -0.00805308707619 -0.000784263683464)
(-0.00597028212098 -0.0103926684517 -0.000504122554449)
(-0.00524747531049 -0.0123576312256 -0.000359706374307)
(-0.00416026740289 -0.0141229792773 -0.000187137354378)
(-0.00294002445465 -0.0155331502937 -4.4658032921e-05)
(-0.00169314893938 -0.0165071639277 7.73871598911e-05)
(-0.000529441176943 -0.0170922030542 0.000185022174585)
(-0.00157801786403 -0.00357451231062 0.00104295322402)
(-0.00427101983259 -0.00326275692582 0.000879594693053)
(-0.00671230707193 -0.00232245433392 0.000645202860038)
(-0.00901110148381 -0.000672369038443 0.000363740423849)
(-0.0112417485301 0.001063801811 9.14696945427e-05)
(-0.0132671281928 0.00199243026082 -0.000353805665274)
(-0.0134023053899 0.00300729369264 0.000160995674019)
(-0.0125579797604 0.00364947314864 -0.00047996693401)
(-0.00984729040999 0.00452958117397 -0.000592229706035)
(-0.00739596206533 0.00415074059966 -0.00130914552735)
(-0.00580933696167 0.0027988286631 -0.00126428083759)
(-0.00687501178019 0.00130124506455 -1.44089966322e-06)
(-0.011991810345 -0.00162004312774 0.00139362281752)
(-0.0137566836409 -0.00723221139775 -0.000829654939394)
(-0.00944225371815 -0.0106549237624 -0.000830573211015)
(-0.00712102572923 -0.0130460469541 -0.000580128068549)
(-0.00526598111862 -0.0151599360434 -0.000416757324141)
(-0.0035567662433 -0.0167717716397 -0.000250986935856)
(-0.0020403987891 -0.0178577120908 -0.00012707477773)
(-0.000651022250318 -0.0184426211458 -3.01489045026e-05)
(-0.00159405500107 -0.00362046605726 0.00107601212784)
(-0.00447283422859 -0.00319054293329 0.000986292069492)
(-0.00717918494682 -0.0019594015945 0.000847181496995)
(-0.00973445465196 0.000157463126011 0.000631087234484)
(-0.0121446347804 0.00237188322165 0.000399808520541)
(-0.0144397866186 0.00363335128469 3.01975524858e-05)
(-0.0148274715299 0.00475340337293 0.000661321784065)
(-0.0134214181083 0.00539070694593 0.000317063016453)
(-0.0100743398682 0.00490408082948 0.000353904027854)
(-0.0078172583519 0.00269955621112 -0.000758307419251)
(-0.00674473409519 -0.000231574967857 -0.000652977837857)
(-0.00840132373069 -0.00316862749094 0.000596444406039)
(-0.0140805951763 -0.00634811496041 0.00191858362574)
(-0.0161585731255 -0.00912423660486 -0.000809434640469)
(-0.0112398189328 -0.011929397983 -0.00107273334555)
(-0.00840578428043 -0.0140397397197 -0.000746881190229)
(-0.00616322802833 -0.01612172822 -0.000595422815327)
(-0.00408368495771 -0.0177759853608 -0.000441246499351)
(-0.00234076390214 -0.0188667140724 -0.000313163952551)
(-0.000753458780272 -0.0194121411943 -0.00023325070777)
(-0.00159205350421 -0.00369551397529 0.00109070417205)
(-0.00463049371525 -0.00318447699126 0.00107505484446)
(-0.00754388015807 -0.0017835711567 0.00101887217164)
(-0.0102288659776 0.00065182523862 0.000867238957084)
(-0.0126464489627 0.00316606311851 0.000670052154227)
(-0.0148497082998 0.00460821828589 0.000408756232597)
(-0.0155649942374 0.0055277807776 0.00116953484565)
(-0.0142400436183 0.00560885326051 0.00126149354686)
(-0.0104638554638 0.00425972284378 0.00153541382616)
(-0.00843496521614 0.0021521946031 0.000236908136468)
(-0.00792981962445 -0.000434188621948 7.53398973389e-05)
(-0.0105226225927 -0.00368457144135 0.000893622492257)
(-0.0164546111499 -0.00730988258594 0.00186252630156)
(-0.0180441111572 -0.0099220903597 -0.00103215819534)
(-0.0128259657685 -0.0126884609751 -0.00124470199187)
(-0.00960159500572 -0.014734230854 -0.000956578636519)
(-0.00702930637358 -0.0167662883618 -0.000822823573701)
(-0.00461783291733 -0.0184365366237 -0.000645922764952)
(-0.00262148002 -0.019474337997 -0.000508238713237)
(-0.000841684285902 -0.0199367580872 -0.000441076260234)
(-0.00160422746368 -0.00369730916102 0.00106521473187)
(-0.00479722129042 -0.00319869826893 0.00114611865762)
(-0.00786882259443 -0.00177793893521 0.00118205764435)
(-0.0106039630896 0.000724573416065 0.00111215359272)
(-0.0129440823051 0.00335072689546 0.000982292754442)
(-0.0150071074075 0.00492034524986 0.000607542113269)
(-0.0158919571844 0.0060155446064 0.00103599026411)
(-0.0150469208628 0.00538811802268 0.000399994434255)
(-0.0120974071029 0.00308073197876 0.00027656477081)
(-0.0104527039043 0.000205693979535 -0.000121349571588)
(-0.0100982617708 -0.00267391668661 0.000180906808096)
(-0.0128306507509 -0.00658065748796 0.000911857098646)
(-0.0179044052862 -0.00989433448481 0.00149268217067)
(-0.0191079102331 -0.0110387403628 -0.000952285524101)
(-0.0141983669069 -0.0131981997046 -0.001278778865)
(-0.0106836032095 -0.0152212166728 -0.0010528851778)
(-0.00780993571153 -0.0171529656673 -0.00103251349126)
(-0.00509739327465 -0.0187185836587 -0.00083142729368)
(-0.00283954312311 -0.0196705151022 -0.000716885721414)
(-0.000884719039865 -0.0200034623334 -0.000645150415393)
(-0.00163087639587 -0.00355924894729 0.00103360286465)
(-0.00500484345321 -0.0031760665529 0.00120556510866)
(-0.008240976097 -0.00192088313282 0.00131446367692)
(-0.0109610599529 0.000361221456965 0.00134180726592)
(-0.013166428394 0.00274676664698 0.00131114753891)
(-0.0145459204534 0.00413585598662 0.00105896326526)
(-0.0151982728441 0.00459649988754 0.00146218417888)
(-0.0149003105571 0.0035281878798 0.00140258403602)
(-0.0139274145692 0.00140732149002 0.00123224113484)
(-0.0143241452181 -0.00128596089715 0.000955202997838)
(-0.015046849242 -0.00425669403707 0.00100152555542)
(-0.0167969805941 -0.00851072069904 0.000884413491427)
(-0.0184108428204 -0.0114141949367 0.000432240289876)
(-0.018226296679 -0.012028859421 -0.000658469469989)
(-0.0149608011362 -0.0136390753506 -0.00109649304923)
(-0.0115920669017 -0.0155198525326 -0.00115400009005)
(-0.00844770626701 -0.0172389423736 -0.00114756534163)
(-0.00551737322524 -0.0186376410141 -0.00103713045719)
(-0.00307839625751 -0.0194233434172 -0.000933139079227)
(-0.000920969897038 -0.019569510894 -0.000845175643428)
(-0.00164643397221 -0.00327133895919 0.00101359812253)
(-0.00516162522515 -0.00309683363051 0.00125756860327)
(-0.00852704309178 -0.00218337910144 0.00139807621676)
(-0.0113245725194 -0.000412028353231 0.00150214613723)
(-0.0134876275108 0.00149342929588 0.00153106344516)
(-0.0148980686512 0.00256492968959 0.00131043994095)
(-0.0157398598691 0.00230454414333 0.00116353536098)
(-0.0161106805101 0.00091285339414 0.00075507875783)
(-0.0161473488815 -0.00153261183929 0.000818951053801)
(-0.0165536609221 -0.00399315222035 0.000878582633572)
(-0.0172083497543 -0.00664944582782 0.000967648492939)
(-0.0180558796703 -0.00952602013914 0.00067859361298)
(-0.0184910162369 -0.0115147609954 0.000136286461199)
(-0.0175911105089 -0.0126862114319 -0.000562248816481)
(-0.015042474707 -0.0139415630571 -0.00105076661548)
(-0.0120083739626 -0.015519523572 -0.00121616110237)
(-0.00890023658615 -0.0169507811831 -0.00128851967492)
(-0.00589984975366 -0.0181275503586 -0.00120777177608)
(-0.00330385855074 -0.0187022381388 -0.00115142039222)
(-0.000971385488331 -0.0186262696549 -0.00103532143416)
(-0.00161873543323 -0.00288779065558 0.000979827734003)
(-0.00517917470673 -0.00290885575716 0.00122482964993)
(-0.00863307495385 -0.00241793448933 0.00134573288039)
(-0.0115418069442 -0.00131347537724 0.00149309810856)
(-0.0137625161304 -1.35541623219e-05 0.00155850776544)
(-0.015227457412 0.000729757641582 0.00150586492367)
(-0.0162499684151 0.000420966158218 0.001462871333)
(-0.0169562505847 -0.000842780219273 0.00131163339341)
(-0.0174510268076 -0.00268823688193 0.00122190281328)
(-0.0180294800036 -0.00487401618705 0.00110293866093)
(-0.018435381991 -0.0072664544692 0.000844796447586)
(-0.0186903367485 -0.00955862973257 0.000412451758607)
(-0.0184851681094 -0.0112110566626 -6.08543444349e-05)
(-0.0173465597805 -0.0123771233903 -0.000649421533692)
(-0.0151599399417 -0.0136062408122 -0.0010709106823)
(-0.0123358059665 -0.0149440070969 -0.00128644983879)
(-0.00930175522357 -0.016176045424 -0.00142000946882)
(-0.00631828634573 -0.0171050184995 -0.00146058809458)
(-0.0036148140002 -0.0174903244322 -0.00140224460337)
(-0.00105070705732 -0.0172138648757 -0.00123760150904)
(-0.00158533156988 -0.00245564118961 0.000945935646573)
(-0.00505439119529 -0.00261088333352 0.00114068721621)
(-0.0084930689857 -0.00246312493151 0.0012153186139)
(-0.011480910798 -0.00193947248658 0.00131520810789)
(-0.0138074943176 -0.00126345812946 0.00142033375167)
(-0.0154507452648 -0.000924515992295 0.00143168463244)
(-0.0166477775784 -0.00134056346703 0.00138854764067)
(-0.0175715068152 -0.00243183219094 0.00126163966256)
(-0.0183450392481 -0.00403745887238 0.00110430774041)
(-0.0189695298693 -0.00577816317868 0.000890498160758)
(-0.0192869487927 -0.0075970116946 0.000543420178045)
(-0.019277372233 -0.00925268843022 9.96344613118e-05)
(-0.0187506232039 -0.0105497492813 -0.000338566970325)
(-0.0174944352017 -0.0116255325861 -0.000778682310716)
(-0.0154346333555 -0.0126602100976 -0.00114361054482)
(-0.012795212172 -0.0137550010225 -0.00141342561749)
(-0.00988499744096 -0.0147754090057 -0.00159889676123)
(-0.00686321431618 -0.0154815142505 -0.00167061241055)
(-0.00399410006716 -0.0157285839603 -0.00168845012558)
(-0.00111034291376 -0.0153326984616 -0.00145905862201)
(-0.00157436367052 -0.00203683492165 0.000925706245627)
(-0.00495908686398 -0.00224826675467 0.00104809950203)
(-0.00828868212852 -0.00230814270345 0.00107606644048)
(-0.0113057504753 -0.00220158946252 0.0011070068998)
(-0.0137924632005 -0.00200644743301 0.0011244025218)
(-0.015678162056 -0.00202549424288 0.00111516300754)
(-0.0171078318305 -0.00249441183187 0.00105315526972)
(-0.018241512747 -0.00343048956265 0.000909006479143)
(-0.0191271337146 -0.00465967817558 0.00070798783485)
(-0.01977076512 -0.00594314573303 0.000435533742492)
(-0.0200891554839 -0.00721275941171 0.000106287754507)
(-0.0199834934737 -0.00837582416712 -0.000256952881783)
(-0.0193075579442 -0.00937826349867 -0.000648329497004)
(-0.0179491725823 -0.0102835428622 -0.00102260671109)
(-0.0159432190957 -0.0111468964058 -0.00138381731734)
(-0.0134265044799 -0.0120151335547 -0.00164462280596)
(-0.0105421207908 -0.0127751024441 -0.00181856431232)
(-0.00748022168384 -0.0133078122601 -0.00194435246169)
(-0.00440140418956 -0.0134675127028 -0.00201238377518)
(-0.00114615413287 -0.0129872164918 -0.00170276052799)
(-0.00161083136128 -0.0016363961183 0.000936855621729)
(-0.00498281345738 -0.00184825079865 0.00100435388976)
(-0.00822189473988 -0.00199798103106 0.000978861793385)
(-0.0112151140118 -0.00209953410296 0.000944783643876)
(-0.01381278788 -0.00218876715496 0.000909172724162)
(-0.0159117524255 -0.00238801749219 0.000849952242353)
(-0.0175767542925 -0.00283910762389 0.000744839736581)
(-0.0189062126197 -0.00353471103085 0.000583975096791)
(-0.019900625291 -0.00439480416007 0.00036470651982)
(-0.0205494439151 -0.00531851951997 9.02374074817e-05)
(-0.0208078712861 -0.00620945945788 -0.000215778549596)
(-0.0206088781521 -0.00703156154888 -0.000534768667716)
(-0.019851160172 -0.00777000038437 -0.000905010986514)
(-0.0184846160673 -0.00845751936487 -0.00122585568745)
(-0.0164929086517 -0.0091306721658 -0.00152545862774)
(-0.0139871162306 -0.00977523629454 -0.00179406280356)
(-0.0111380294753 -0.0103320520606 -0.0020239446828)
(-0.00800651498072 -0.0106972752206 -0.00219215569981)
(-0.00469209307783 -0.0107342695253 -0.00227582447542)
(-0.00120977620908 -0.0102358720239 -0.00186962704299)
(-0.00167213469473 -0.00121087626465 0.00097467259558)
(-0.00508054817008 -0.00140702506902 0.000998904425748)
(-0.00831270737111 -0.00158721472634 0.000938315811002)
(-0.0113172978694 -0.00176029774158 0.000872001337793)
(-0.0139633713402 -0.0019284697038 0.000787343138051)
(-0.0161963055943 -0.00216673113236 0.000685155370324)
(-0.0180113385988 -0.00255408595198 0.000560686234954)
(-0.0194352015656 -0.00304623082443 0.000368104385879)
(-0.0204769428237 -0.00362386854096 0.000140010854831)
(-0.0211195467209 -0.00421672461259 -0.000104729722992)
(-0.0213223550198 -0.00478954231435 -0.000379779328206)
(-0.0210376498903 -0.00533206386211 -0.000670698293984)
(-0.0202112766342 -0.0058187071705 -0.000983694550207)
(-0.0188057506761 -0.006277333471 -0.00132268809773)
(-0.0168429335337 -0.00671034110539 -0.0016527945084)
(-0.0143779997054 -0.00713843652391 -0.0019346661083)
(-0.0114930648292 -0.00747417235508 -0.00218821704639)
(-0.00826848868516 -0.00765266679393 -0.00233992503607)
(-0.00484425725655 -0.00760414445586 -0.00239340208995)
(-0.00129452389547 -0.00718274835279 -0.00195606722832)
(-0.00171014924655 -0.000806843339579 0.000996223234311)
(-0.00516964472559 -0.000961642710714 0.000979585537303)
(-0.00843857073439 -0.00113626993924 0.00089820101495)
(-0.0114722321824 -0.00132219348098 0.000801529206307)
(-0.0141633633594 -0.00149882793563 0.000684333048246)
(-0.0164671273838 -0.00171882776052 0.000540748614946)
(-0.0183371737752 -0.00199220910362 0.000387952196604)
(-0.0197921145611 -0.00232360605923 0.000192896219858)
(-0.0208220045549 -0.00267270332286 -3.7139440507e-05)
(-0.0214051571393 -0.00300599525399 -0.000269913639485)
(-0.0215442902125 -0.00329837303308 -0.000525837817174)
(-0.0211860727215 -0.0035555998002 -0.000808278578712)
(-0.0203077439126 -0.00376294958203 -0.00111044225494)
(-0.0188803797029 -0.00393223050607 -0.00142935801528)
(-0.0169018241238 -0.00412436777521 -0.00175203793883)
(-0.0144197960073 -0.00427695761822 -0.0020313654427)
(-0.0115131661708 -0.00439808701609 -0.00226380241708)
(-0.00826179447405 -0.00444963812423 -0.00236873286203)
(-0.00481852969268 -0.00439458130158 -0.00231342753314)
(-0.00137212072512 -0.00411564568717 -0.00189665253366)
(-0.00172509942076 -0.000278012039232 0.000960857448936)
(-0.00519611111166 -0.000382439498393 0.000879427522712)
(-0.00850232463363 -0.000494011232194 0.000757892774225)
(-0.0115956917702 -0.00060573408134 0.000590421494387)
(-0.0143378009349 -0.0007143805105 0.000408906256561)
(-0.016668039168 -0.000830613237776 0.00018554613242)
(-0.0185398833641 -0.000949625878126 -4.37092817525e-05)
(-0.0199609935857 -0.00108469760917 -0.000275476786947)
(-0.0209231404904 -0.00119488833502 -0.000508282365052)
(-0.0214139818243 -0.00128229954868 -0.000728450863422)
(-0.0214230842819 -0.00133044304853 -0.000924660205029)
(-0.0209384521284 -0.00133917156197 -0.00111676501907)
(-0.0199479220899 -0.00131461389137 -0.00129150746306)
(-0.0184683805517 -0.00123547956082 -0.00145437045112)
(-0.0164625779484 -0.00118428695561 -0.00159615524982)
(-0.0139476005588 -0.00113740360762 -0.00172197924797)
(-0.0110393800608 -0.00113211277334 -0.00183590052946)
(-0.00784611345226 -0.00115194088555 -0.00192555968361)
(-0.00450716947314 -0.00122101371995 -0.00189326232624)
(-0.00134103052584 -0.00121346094985 -0.00167834019492)
(-0.00062892285303 -0.00051370184437 0.00222975631886)
(-0.0018877416462 -0.000486417583494 0.00225409254899)
(-0.00303909686069 -0.000517761630702 0.00226967184939)
(-0.00402712465717 -0.000563628717372 0.00220413542507)
(-0.00478103067083 -0.000598111881216 0.00207824754272)
(-0.00529657739487 -0.000631501592955 0.00193267127891)
(-0.00557338176612 -0.000688577393236 0.00182752445174)
(-0.00565255701771 -0.000765478802762 0.0017784802702)
(-0.00554940396175 -0.000883428161966 0.00181494081305)
(-0.0052917927842 -0.000990038289107 0.00188452306048)
(-0.00494254202518 -0.00107332689296 0.00193863403349)
(-0.00452557845256 -0.00115991990565 0.00205750047312)
(-0.00409789863398 -0.00121744376453 0.00215986461205)
(-0.00367840570791 -0.00127227759223 0.00223884652444)
(-0.00323700828186 -0.00134807332977 0.00233886629451)
(-0.00275336697639 -0.00144730324061 0.002446047646)
(-0.00219552938006 -0.00153777934309 0.00255543807721)
(-0.00157502297735 -0.00161050102603 0.00265315614407)
(-0.000937844565378 -0.001658691459 0.00272031547658)
(-0.000284079414761 -0.001675214313 0.00276300059702)
(-0.000763036780886 -0.00131969015712 0.0022003891936)
(-0.00208326947354 -0.00132148630633 0.00212684512676)
(-0.00324582118524 -0.00142375130968 0.00202270064435)
(-0.00425254724375 -0.00157087012726 0.00183177831255)
(-0.00504308134342 -0.0017189816139 0.00159260780805)
(-0.00560415310942 -0.00189733802494 0.00137189148787)
(-0.00590988435398 -0.00213980862282 0.00123655571909)
(-0.00598672479791 -0.0024202533984 0.0011781229956)
(-0.0058597777374 -0.00275296460498 0.00121343767109)
(-0.0055598186421 -0.00304828568757 0.00130981693173)
(-0.00518160238089 -0.00328543870509 0.00144087277703)
(-0.00473567644435 -0.00348515796988 0.00159807406883)
(-0.00426863920428 -0.0036351937035 0.0017448522911)
(-0.00381798632193 -0.00379515343836 0.00185662362213)
(-0.00336175990535 -0.00398581771833 0.00196058833174)
(-0.0028832589024 -0.00423125306958 0.00204703483213)
(-0.00233580758179 -0.00448527694673 0.00213311551391)
(-0.00171130977286 -0.00469885852041 0.00222534235022)
(-0.0010406497815 -0.00485058419465 0.00233236298423)
(-0.000346092424516 -0.00492610360318 0.00255456318242)
(-0.000837014064449 -0.0019394373166 0.0022458905641)
(-0.00224521546874 -0.00199905998103 0.0020875727231)
(-0.00347168460379 -0.00215291574093 0.00185110274074)
(-0.00454371275123 -0.00234863591381 0.0015207748994)
(-0.00541357496368 -0.00256074858506 0.00118330421937)
(-0.00606606599304 -0.00285360998349 0.000917767664217)
(-0.00641542725281 -0.00327910526783 0.000724130928003)
(-0.0064955070924 -0.00372800716088 0.000618701830087)
(-0.00634648062393 -0.0042529385407 0.000627077776959)
(-0.00598172970524 -0.00471280980752 0.000752369047357)
(-0.00552687508555 -0.00511706515209 0.000957048061231)
(-0.00500692789201 -0.00544869191955 0.0011766261623)
(-0.00449400134922 -0.00570057066359 0.00139280847201)
(-0.00401702823543 -0.00598766764976 0.00154414297466)
(-0.00355581171815 -0.00630676346263 0.00168061620426)
(-0.00308829334462 -0.00671689856524 0.00177596223579)
(-0.0025354711095 -0.00714232435027 0.00186662395951)
(-0.00189730962795 -0.00752109168723 0.00194014155162)
(-0.00119052540996 -0.00780005744159 0.00204152747074)
(-0.000424610266526 -0.00796494208131 0.00229223280121)
(-0.000883722298864 -0.00249173158764 0.00231862611564)
(-0.00243019282273 -0.00259188904953 0.00204926976555)
(-0.00376210460487 -0.00277637579537 0.0016965009722)
(-0.00496297379659 -0.00297946680607 0.00125905010058)
(-0.00598594292512 -0.00319183581992 0.000852493666313)
(-0.0067845259561 -0.00357354684884 0.000502675941722)
(-0.0071782289392 -0.00417788395774 0.000196402021419)
(-0.00725074173594 -0.00478174078023 -2.52586515265e-05)
(-0.00703421897191 -0.00554244430344 -0.000102694880072)
(-0.00655505897149 -0.00618216354402 1.25907238278e-05)
(-0.00600160956928 -0.00675331106979 0.000265670935159)
(-0.00536740146299 -0.00721588918426 0.000549242499393)
(-0.00478350440512 -0.00754450878973 0.000877976267428)
(-0.00429173118128 -0.00793972876049 0.00111123328402)
(-0.00384267097661 -0.0084009643537 0.00131756617518)
(-0.00339042854437 -0.00898641358523 0.00145176492259)
(-0.00281244835245 -0.00958273017724 0.00155671239283)
(-0.00212639052471 -0.0101225558835 0.00163022881511)
(-0.00135502270809 -0.0105422402296 0.00172043803001)
(-0.000509161666238 -0.0108256978994 0.0019333080727)
(-0.000943297747595 -0.00293320870063 0.00241901120011)
(-0.00267528279748 -0.00304396737104 0.00203383371491)
(-0.00418365108915 -0.00322030000769 0.00157982781595)
(-0.00558669842589 -0.00336940978374 0.00108028386482)
(-0.00683742287651 -0.00353868874487 0.000614726242549)
(-0.00786626399607 -0.0039606339774 0.00018524108828)
(-0.00830056564305 -0.00475876032072 -0.000234805572407)
(-0.00833923110496 -0.0055630933832 -0.000671399415663)
(-0.00797707433002 -0.00643981591111 -0.000982633047551)
(-0.00725828190649 -0.0070663257651 -0.00103283492357)
(-0.00653294122208 -0.00763694942238 -0.000897465652739)
(-0.00573377254044 -0.0081750685986 -0.000644688416056)
(-0.00506556616978 -0.00864165186057 -9.27142411052e-05)
(-0.00461326558721 -0.00943713988538 0.000473688613096)
(-0.00421943913399 -0.010160881655 0.000844375944209)
(-0.00377785246959 -0.0109439941972 0.000994944630801)
(-0.00315089395302 -0.0117103186633 0.00114349911106)
(-0.00239545221313 -0.0124210810064 0.0012369448432)
(-0.00152885329673 -0.0129788603357 0.00132814807814)
(-0.00057784119308 -0.013381779888 0.00151089356544)
(-0.00104835386178 -0.00328176075206 0.00254749185656)
(-0.00300948090637 -0.0033571828052 0.00208819190132)
(-0.00478162164374 -0.0034478480668 0.00158895997823)
(-0.00650093447419 -0.0034184040876 0.00104157822792)
(-0.00809036224898 -0.00341742415228 0.000479452570672)
(-0.00943021540813 -0.00384185562076 -0.000142453403094)
(-0.00993220946848 -0.0049359108325 -0.000753463732823)
(-0.00974934517008 -0.0059954001567 -0.00177777683775)
(-0.00880709754146 -0.00733602699868 -0.00209437920657)
(-0.00759441476874 -0.00845547820454 -0.00196630176685)
(-0.00668797149999 -0.00954058750772 -0.00176058007405)
(-0.00592464218388 -0.0104030004359 -0.00151679972302)
(-0.00553574579762 -0.0107466817431 -0.000698995006526)
(-0.00532102339304 -0.0108951712743 -0.000234088426083)
(-0.00478293437414 -0.0115092281377 0.000153433518082)
(-0.00426953591906 -0.0124890194831 0.000386376197809)
(-0.0035847889027 -0.0134881130486 0.00060746088549)
(-0.00274557296735 -0.0143949335915 0.000728752678906)
(-0.0017411981293 -0.0150817053662 0.000836566351265)
(-0.000647656409527 -0.0155852094639 0.000998683933755)
(-0.0011600481218 -0.00352283329691 0.00271265785675)
(-0.00338299773182 -0.00352908822251 0.00224558483439)
(-0.0054648464311 -0.00345425743706 0.00174498088315)
(-0.00752734015446 -0.00314361173336 0.00115151732666)
(-0.00952789512665 -0.00283353222017 0.000448246645088)
(-0.0115242508021 -0.00299235313324 -0.000526440215797)
(-0.0125369280032 -0.00370455874534 -0.00144059079645)
(-0.0123274711567 -0.0053832886562 -0.00340047956398)