/*--------------------------------*- C++ -*----------------------------------*\
| =========                 |                                                 |
| \\      /  F ield         | OpenFOAM: The Open Source CFD Toolbox           |
|  \\    /   O peration     | Version:  v1606+                                |
|   \\  /    A nd           | Web:      www.OpenFOAM.com                      |
|    \\/     M anipulation  |                                                 |
\*---------------------------------------------------------------------------*/
FoamFile
{
    version     2.0;
    format      ascii;
    class       volScalarField;
    location    "0.91";
    object      nut.particles;
}
// * * * * * * * * * * * * * * * * * * * * * * * * * * * * * * * * * * * * * //

dimensions      [0 2 -1 0 0 0 0];

internalField   nonuniform List<scalar> 
6000
(
2.04444e-05
1.70105e-05
1.69668e-05
1.79537e-05
1.92931e-05
1.90469e-05
1.61676e-05
1.37942e-05
1.17634e-05
1.16043e-05
1.14378e-05
1.14987e-05
1.18959e-05
1.22021e-05
1.23803e-05
1.24295e-05
1.23273e-05
1.22426e-05
1.18084e-05
1.16533e-05
1.14551e-05
1.16974e-05
1.27946e-05
1.49526e-05
1.85235e-05
1.98303e-05
1.86625e-05
1.74228e-05
1.73256e-05
2.05411e-05
4.03722e-06
6.16836e-06
6.57204e-06
7.14759e-06
7.82539e-06
8.11928e-06
8.1306e-06
6.948e-06
6.31174e-06
5.93804e-06
5.90133e-06
5.94547e-06
6.05943e-06
6.56634e-06
7.24658e-06
7.38269e-06
6.94144e-06
6.32903e-06
6.24868e-06
6.13462e-06
6.05962e-06
6.26981e-06
7.24766e-06
8.69338e-06
9.09916e-06
8.6144e-06
7.58465e-06
6.61839e-06
5.95549e-06
3.66594e-06
3.0415e-06
3.36044e-06
3.43519e-06
3.55754e-06
3.69793e-06
4.04466e-06
5.72843e-06
9.26332e-06
1.0839e-05
1.08315e-05
1.13355e-05
1.20708e-05
1.32669e-05
1.47686e-05
1.57685e-05
1.60289e-05
1.5446e-05
1.39274e-05
1.25111e-05
1.18226e-05
1.12629e-05
1.12919e-05
1.18573e-05
8.11532e-06
4.81715e-06
3.91068e-06
3.50262e-06
3.33646e-06
3.24579e-06
2.94157e-06
2.46292e-06
2.28391e-06
2.20849e-06
2.06655e-06
1.96688e-06
2.04271e-06
2.413e-06
4.53669e-06
7.9647e-06
9.69089e-06
1.02545e-05
1.14411e-05
1.34235e-05
1.50735e-05
1.56233e-05
1.50808e-05
1.58142e-05
1.49043e-05
1.30039e-05
1.12106e-05
1.00496e-05
9.95237e-06
6.62406e-06
3.09487e-06
2.0495e-06
1.8919e-06
1.94174e-06
2.07371e-06
2.21214e-06
2.39288e-06
2.41687e-06
2.46413e-06
2.3564e-06
2.07604e-06
1.92912e-06
1.98777e-06
2.05883e-06
2.66986e-06
5.14126e-06
1.04839e-05
1.21009e-05
1.35566e-05
1.08743e-05
6.36528e-06
4.28388e-06
3.81582e-06
4.49224e-06
7.21069e-06
1.31368e-05
1.35249e-05
1.14552e-05
9.53728e-06
3.53221e-06
2.07684e-06
1.9516e-06
1.87094e-06
1.92162e-06
2.17793e-06
2.34167e-06
2.16503e-06
3.28663e-06
3.81016e-06
3.27207e-06
2.3798e-06
1.92733e-06
1.95972e-06
2.01461e-06
2.29416e-06
3.55572e-06
6.97024e-06
7.26002e-06
4.0794e-06
2.063e-06
1.44561e-06
1.25208e-06
1.23176e-06
1.30673e-06
1.56128e-06
2.55255e-06
5.77328e-06
1.03887e-05
6.10694e-06
2.70492e-06
1.99322e-06
1.92949e-06
1.85917e-06
2.17038e-06
2.99373e-06
3.38635e-06
2.45934e-06
6.07382e-06
7.06254e-06
5.60446e-06
3.33283e-06
2.15312e-06
1.91574e-06
1.95057e-06
2.18926e-06
2.70062e-06
2.38641e-06
1.58736e-06
1.05288e-06
9.47981e-07
9.34485e-07
9.58272e-07
9.92793e-07
9.97257e-07
1.00987e-06
1.05839e-06
1.36142e-06
2.31235e-06
2.8985e-06
2.39265e-06
1.95236e-06
1.89786e-06
1.92344e-06
2.95023e-06
5.10697e-06
5.57706e-06
3.97594e-06
1.1436e-05
2.51188e-05
1.00658e-05
5.75711e-06
2.9829e-06
2.0187e-06
1.91549e-06
2.04794e-06
2.05542e-06
1.42199e-06
8.86369e-07
8.40212e-07
8.38995e-07
8.48937e-07
9.07952e-07
9.58103e-07
9.88975e-07
9.90332e-07
1.00324e-06
1.00274e-06
1.04783e-06
1.54423e-06
2.02167e-06
1.90519e-06
1.8403e-06
2.32715e-06
4.74222e-06
8.28772e-06
8.62394e-06
6.8123e-06
0.000803074
0.00079609
0.00032539
1.10088e-05
5.33623e-06
2.79201e-06
2.1396e-06
2.13184e-06
1.92154e-06
1.58822e-06
1.21973e-06
9.70846e-07
9.36227e-07
9.9945e-07
1.08206e-06
1.11965e-06
1.03119e-06
1.01211e-06
1.01145e-06
9.77497e-07
9.83909e-07
1.23279e-06
1.68035e-06
1.84994e-06
2.05048e-06
3.51717e-06
8.18124e-06
6.91536e-05
0.000100441
1.05288e-05
0.00270358
0.0023245
0.00159561
0.000386127
1.05527e-05
5.06687e-06
3.12139e-06
2.84505e-06
2.59351e-06
2.48263e-06
2.23461e-06
1.8306e-06
2.15651e-06
2.72556e-06
2.07965e-06
1.66283e-06
1.28362e-06
1.0613e-06
9.96642e-07
9.85828e-07
1.08507e-06
1.21544e-06
1.50936e-06
1.87694e-06
2.79883e-06
6.42493e-06
5.98503e-05
0.000557603
0.00106618
0.000410013
0.00270774
0.00270731
0.00264531
0.00180034
0.000119903
9.82752e-06
6.1506e-06
5.77077e-06
6.70608e-06
7.56254e-06
7.08577e-06
6.25733e-06
6.71872e-06
8.68902e-06
1.00715e-05
7.87762e-06
2.58222e-06
1.10185e-06
9.8401e-07
1.02891e-06
1.094e-06
1.24069e-06
1.54853e-06
2.0515e-06
3.9859e-06
1.04302e-05
0.000650122
0.00154357
0.0032122
0.00298223
0.00270982
0.00270662
0.00259805
0.00240331
0.0013602
2.97114e-05
1.69305e-05
1.67717e-05
3.79699e-05
0.000103295
0.000130967
0.000339856
0.00110653
0.00162874
0.00180357
0.000855473
1.52307e-05
3.0142e-06
1.17469e-06
1.1564e-06
1.27532e-06
1.47809e-06
1.76111e-06
2.39947e-06
4.98209e-06
1.28276e-05
0.00131616
0.00256405
0.00480588
0.00480951
0.00270425
0.000189367
0.000760885
0.00157858
0.00149067
0.00176623
0.00193554
0.00301942
0.00294706
0.00135418
0.000852145
0.00179145
0.00462212
0.00628299
0.00547747
0.0027537
0.00113241
1.50346e-05
4.68157e-06
2.52625e-06
2.45336e-06
2.73766e-06
2.96149e-06
3.5409e-06
5.9614e-06
1.39322e-05
0.00125683
0.00271804
0.00480617
0.00481458
3.42219e-05
1.04672e-05
1.20005e-05
1.68153e-05
4.2337e-05
0.00311506
0.00721082
0.00520842
0.0038087
0.00305023
0.00276824
0.00444372
0.00860822
0.0117865
0.0118621
0.0109355
0.0149331
0.00374688
2.13517e-05
1.23679e-05
9.62955e-06
8.34273e-06
7.41631e-06
7.46774e-06
9.37263e-06
1.53093e-05
0.000613704
0.00259946
0.00161172
0.00480421
9.51366e-06
6.62953e-06
6.83276e-06
7.36719e-06
1.19475e-05
0.00157861
0.0106777
0.0106516
0.00743897
0.00617364
0.00611195
0.00865834
0.0145521
0.0209399
0.027536
0.0394281
0.0576769
0.0561597
0.0327077
0.0108801
0.00399062
0.00114825
8.86808e-05
1.80489e-05
1.73758e-05
1.84476e-05
0.000190495
0.00067294
1.65351e-05
0.000232263
1.26308e-05
9.94583e-06
7.51216e-06
8.16215e-06
1.18615e-05
0.00014436
0.0107893
0.0161045
0.0144035
0.0114313
0.0110645
0.0149602
0.0242451
0.0376577
0.0581402
0.0740102
0.0580138
0.0224138
0.0281393
0.0618259
0.0653096
0.0654242
0.0302591
0.00798351
0.00146599
0.000283561
3.213e-05
1.76125e-05
1.02212e-05
1.14277e-05
0.00105788
0.000635609
1.80693e-05
1.44518e-05
1.45258e-05
1.66206e-05
0.00286116
0.0162133
0.020781
0.0193747
0.0187543
0.024726
0.0398162
0.0635224
0.0785724
0.0740368
0.00619778
0.000105397
0.00115358
0.00799364
0.0424892
0.0664479
0.0704769
0.0671097
0.0294005
0.00369091
1.80906e-05
1.0997e-05
9.78421e-06
1.03935e-05
0.00494207
0.00431941
0.00476747
0.00109905
0.000216698
1.82653e-05
0.000294826
0.00741768
0.0208311
0.0264848
0.0294169
0.0399444
0.06379
0.0792975
0.0807215
0.0295397
1.80681e-05
1.70758e-05
1.74052e-05
2.55116e-05
0.00318523
0.0300013
0.0702047
0.0810319
0.0829592
0.0410956
0.000309904
1.12777e-05
1.06451e-05
1.18423e-05
0.00353246
0.000310977
0.00478617
0.00797731
0.00799153
0.0013059
0.000716101
0.00272592
0.0135235
0.0270788
0.0402853
0.0621218
0.0802441
0.0864875
0.081834
0.012879
1.72367e-05
1.66766e-05
1.52328e-05
1.47281e-05
2.40949e-05
0.00342431
0.0284077
0.0764728
0.0898227
0.0932599
0.0185749
1.95555e-05
1.67813e-05
1.72222e-05
0.000409394
0.000108916
0.00167878
0.00362763
0.00926801
0.00928117
0.00533939
0.00478008
0.0109402
0.0255534
0.0499076
0.0790217
0.0897771
0.0943641
0.0798205
0.00194983
1.67954e-05
1.59705e-05
2.20841e-05
2.94819e-05
5.13631e-05
0.000216188
0.00532086
0.0379746
0.0851579
0.0961626
0.0927426
0.0159662
0.00279851
0.000100718
0.000107924
0.00010762
0.000281102
0.000175108
0.00181934
0.00898373
0.0102884
0.0103955
0.0135678
0.0276658
0.0647741
0.0878932
0.102143
0.103806
0.06166
2.8067e-05
1.65575e-05
0.00014372
0.00478982
0.00665965
0.0026283
0.00125419
0.00494471
0.0233095
0.0790305
0.096166
0.0980293
0.0929857
0.0448381
0.00307791
0.000165259
0.000276909
2.59378e-05
1.6657e-05
1.77435e-05
0.000467416
0.00368255
0.00784552
0.0133594
0.0300015
0.0776688
0.0986608
0.117039
0.115116
0.0308246
1.43569e-05
2.57106e-05
0.0119115
0.0382542
0.0424253
0.0432246
0.022175
0.0174624
0.0394279
0.0816786
0.0946604
0.0980497
0.0978482
0.0843319
0.0176653
0.000548717
0.00115179
1.84743e-05
1.59355e-05
1.63356e-05
1.82213e-05
0.000150101
0.00163233
0.00670453
0.0256178
0.0815251
0.107605
0.125846
0.113396
0.000652308
1.4089e-05
0.00391908
0.0293767
0.0303753
0.0391413
0.0485194
0.0504694
0.0515358
0.0589513
0.0863804
0.0967333
0.0981615
0.0979109
0.0905053
0.0618164
0.00281998
0.00528477
0.000396372
1.85852e-05
2.15314e-05
7.75405e-05
0.000166094
0.000420118
0.00261632
0.0197693
0.0828893
0.111394
0.126273
0.0929607
1.73294e-05
2.34445e-05
0.011219
0.0185258
0.0150551
0.0233414
0.0357728
0.0349814
0.0293951
0.0142769
0.0646924
0.09403
0.0982723
0.0981593
0.0922313
0.0816993
0.00530598
0.00529835
0.00531406
0.00109415
0.00109563
0.00158508
0.00146256
0.00136639
0.00315373
0.0197531
0.0838904
0.112578
0.126614
0.0904901
1.48384e-05
1.95096e-05
0.000436343
0.00489559
0.0121138
0.0250209
0.0277304
0.0125143
0.00225773
0.000511238
0.000704926
0.0677851
0.0980875
0.0982097
0.0932665
0.0857806
0.00477946
0.00411651
0.0062458
0.00692338
0.00696632
0.00718862
0.00644953
0.00485906
0.00482476
0.0222684
0.0857912
0.11367
0.127045
0.107571
7.07032e-05
1.39205e-05
2.3932e-05
0.00109351
0.0235078
0.0244877
0.0256413
0.00335902
0.000198761
0.000203113
1.81814e-05
0.00455999
0.0843326
0.0980822
0.0940284
0.0869383
0.000993465
0.000566823
0.00421993
0.00633905
0.00831006
0.00868087
0.00817343
0.00630209
0.00405731
0.0201756
0.0877452
0.116027
0.127504
0.113439
0.0236225
1.65006e-05
1.51398e-05
4.28944e-05
0.0240216
0.0248206
0.0226749
0.000986598
0.000332575
0.000128074
1.90051e-05
2.47104e-05
0.020134
0.0909509
0.0928124
0.0866166
8.10099e-05
9.08451e-05
0.00197929
0.00401551
0.00615272
0.00891057
0.00891256
0.00617116
0.0021262
0.00792124
0.0865079
0.122146
0.12783
0.109343
0.0602923
0.000240436
1.65378e-05
2.66064e-05
0.0136149
0.0236965
0.00116037
3.13196e-05
0.0003521
6.7771e-05
2.06884e-05
1.79182e-05
0.00242625
0.0672638
0.086708
0.0842797
5.4967e-05
5.84842e-05
0.000140819
0.000397254
0.00128639
0.00386154
0.0088976
0.00702716
0.00158018
0.000458159
0.0764123
0.131758
0.13134
0.110826
0.0769067
0.00207485
2.31433e-05
2.88566e-05
0.000123895
3.93632e-05
1.40239e-05
1.12459e-05
2.36419e-05
2.91836e-05
2.18875e-05
2.54497e-05
0.00535848
0.0266274
0.0774789
0.0800217
7.69222e-05
7.17404e-05
7.51767e-05
9.02048e-05
0.000206721
0.000433317
0.00288896
0.00696848
0.000509854
7.61354e-05
0.0250846
0.136701
0.136906
0.117719
0.0847668
0.00681483
0.000117868
2.52576e-05
1.55563e-05
4.85459e-06
2.31516e-06
2.36412e-06
4.07587e-06
1.19814e-05
2.30532e-05
0.000184007
0.0178592
0.0261947
0.0562401
0.0730639
7.43909e-05
0.000181488
0.000109032
0.000123487
0.000207785
0.000229841
0.000721883
0.00495261
0.00124969
7.41121e-05
0.00406508
0.13653
0.137037
0.121963
0.0912191
0.0172991
0.000188858
1.20766e-05
3.66923e-06
1.48773e-06
1.07973e-06
1.14806e-06
1.30805e-06
2.68808e-06
1.33008e-05
0.000104147
0.0307355
0.0470271
0.0544792
0.0542955
2.98557e-05
0.000413675
0.000409008
0.000396942
0.000355621
0.000231255
0.000210258
0.00125789
0.0016264
0.000431466
0.0160905
0.125501
0.136872
0.120798
0.0942209
0.0312708
0.00038707
6.69822e-06
1.54294e-06
1.08976e-06
9.55949e-07
9.54629e-07
9.632e-07
1.06423e-06
3.79775e-06
2.12185e-05
0.0239754
0.0542933
0.0544107
0.042598
2.96684e-05
0.000811391
0.00105753
0.000601651
0.000290931
0.000104237
7.0977e-05
4.6483e-05
0.00164914
0.00623057
0.0358382
0.103876
0.13088
0.118932
0.0969222
0.0458329
0.000960857
5.50354e-06
1.06998e-06
1.16141e-06
9.46317e-07
9.3291e-07
9.48093e-07
8.9441e-07
1.42454e-06
1.11992e-05
0.0165191
0.0542877
0.0542443
0.0271272
2.93798e-05
0.00164791
0.00141724
0.000475818
0.00016429
3.60775e-05
3.39867e-05
2.13419e-05
4.71246e-05
0.00182121
0.0323696
0.0904401
0.128303
0.122796
0.10128
0.0556502
0.00180148
5.86348e-06
9.10001e-07
1.32243e-06
9.99009e-07
9.55567e-07
9.85335e-07
9.05736e-07
1.31173e-06
1.21717e-05
0.00586106
0.053824
0.0413555
0.0114257
2.87733e-05
0.00165273
0.00119677
0.000281521
8.681e-05
1.83377e-05
2.20539e-05
3.2648e-05
8.3715e-06
1.31307e-05
0.0024779
0.0171873
0.128115
0.127988
0.106799
0.0586223
0.00228037
6.22339e-06
9.9027e-07
1.33456e-06
1.11689e-06
1.01289e-06
1.01131e-06
9.29441e-07
1.22268e-06
7.44182e-06
0.00345025
0.0342099
0.0255389
0.00472372
0.000124215
0.00164319
0.000701183
3.65206e-05
1.56757e-05
1.79671e-05
8.68942e-06
4.30063e-06
1.19825e-06
2.14994e-06
1.71975e-05
3.12379e-05
0.127599
0.127996
0.110786
0.0473188
0.00218449
3.08516e-06
1.08894e-06
1.13995e-06
1.25792e-06
1.08272e-06
1.0346e-06
9.4289e-07
1.20858e-06
6.25426e-06
0.000170851
0.0133714
0.0235367
0.00399938
1.10465e-05
3.71381e-05
1.54215e-05
1.62528e-05
8.53186e-06
3.52131e-06
2.2277e-06
1.11166e-06
6.94582e-07
1.09791e-06
3.49026e-06
1.68685e-05
0.127345
0.127913
0.111958
0.0229681
2.89895e-05
1.48352e-06
1.17056e-06
1.08329e-06
1.29495e-06
1.15963e-06
1.0539e-06
9.75397e-07
1.32375e-06
2.30699e-06
2.86205e-06
0.000101527
0.0139685
0.00404573
1.73177e-06
5.73668e-06
5.25146e-06
2.84279e-06
2.48749e-06
1.52624e-06
1.08983e-06
8.36163e-07
6.89631e-07
1.20699e-06
1.93702e-06
0.000170995
0.127407
0.127888
0.106148
0.00915121
1.31881e-05
1.22947e-06
1.04149e-06
1.0898e-06
1.34073e-06
1.25603e-06
1.0836e-06
9.51136e-07
1.0176e-06
7.74819e-07
6.45337e-07
3.08666e-06
0.000168405
0.00397483
2.5553e-06
3.48135e-06
3.1355e-06
2.19877e-06
1.33589e-06
1.06829e-06
9.80541e-07
7.90154e-07
7.03042e-07
1.47787e-06
2.14616e-06
0.00568166
0.127435
0.12735
0.090501
0.00355318
4.3029e-06
1.27829e-06
9.62e-07
1.06748e-06
1.39924e-06
1.38646e-06
1.15981e-06
9.55729e-07
7.91964e-07
5.68897e-07
5.19375e-07
5.03181e-07
3.39667e-06
1.8888e-05
4.81492e-06
4.19066e-06
2.98943e-06
1.82336e-06
1.20674e-06
1.03562e-06
9.53435e-07
7.52396e-07
7.50516e-07
2.00975e-06
3.50028e-06
0.0253112
0.121517
0.11585
0.0564596
0.00105409
1.65585e-06
1.44253e-06
1.066e-06
9.48922e-07
1.33406e-06
1.47705e-06
1.26814e-06
9.87613e-07
7.44235e-07
5.93e-07
5.24584e-07
3.62597e-07
5.70219e-07
1.02224e-05
5.39653e-06
4.2904e-06
2.96145e-06
1.80653e-06
1.20836e-06
1.02552e-06
9.15278e-07
7.37102e-07
8.15757e-07
2.87308e-06
6.1196e-06
0.052232
0.114876
0.103124
0.00482599
1.88606e-05
9.84024e-07
1.40908e-06
1.30094e-06
9.03169e-07
1.08349e-06
1.44004e-06
1.33814e-06
1.06735e-06
7.74638e-07
6.31653e-07
5.52877e-07
3.65579e-07
4.19601e-07
1.21534e-05
5.51526e-06
4.27956e-06
2.96611e-06
1.83193e-06
1.21614e-06
1.01148e-06
8.96342e-07
7.31147e-07
8.53294e-07
3.58963e-06
0.000242142
0.0814683
0.114301
0.0820859
2.30828e-05
1.41131e-06
8.09436e-07
1.22696e-06
1.55907e-06
9.53372e-07
9.3353e-07
1.29128e-06
1.36114e-06
1.19113e-06
8.61459e-07
6.74826e-07
5.46429e-07
3.88425e-07
6.53566e-07
1.57206e-05
5.48875e-06
4.25842e-06
2.96744e-06
1.83761e-06
1.22066e-06
1.0035e-06
8.71581e-07
7.29199e-07
8.66486e-07
4.04706e-06
0.00150817
0.093834
0.114002
0.0208606
1.51343e-05
6.49366e-07
7.73892e-07
1.08235e-06
1.71013e-06
1.26763e-06
8.75233e-07
1.10154e-06
1.3236e-06
1.25e-06
9.74485e-07
7.44402e-07
5.84345e-07
4.32099e-07
1.19081e-06
1.61633e-05
5.3974e-06
4.20586e-06
2.94636e-06
1.83956e-06
1.22207e-06
9.86484e-07
8.49536e-07
7.31312e-07
7.69917e-07
4.70934e-06
0.00377714
0.0984544
0.107496
0.000308314
3.54594e-06
5.98255e-07
7.27818e-07
9.16291e-07
1.69447e-06
1.78341e-06
8.7977e-07
9.30307e-07
1.16957e-06
1.22959e-06
1.09284e-06
8.4423e-07
6.67566e-07
5.15937e-07
2.91496e-06
1.54856e-05
5.29047e-06
4.16052e-06
2.93315e-06
1.83318e-06
1.21939e-06
9.75527e-07
8.36776e-07
7.12492e-07
6.8073e-07
4.52289e-06
0.00533229
0.0946916
0.0816344
1.3995e-05
8.57895e-07
5.96883e-07
6.86254e-07
8.46612e-07
1.31868e-06
2.03312e-06
1.18907e-06
8.69664e-07
9.73982e-07
1.13191e-06
1.093e-06
9.51361e-07
7.94613e-07
6.23353e-07
4.54044e-06
1.39227e-05
5.19987e-06
4.12426e-06
2.90911e-06
1.82322e-06
1.21535e-06
9.65173e-07
8.19e-07
6.89577e-07
6.27387e-07
3.42445e-06
0.00316734
0.0861317
0.056977
1.30015e-05
6.61327e-07
5.97203e-07
6.56949e-07
7.76925e-07
1.06324e-06
2.02202e-06
1.73226e-06
9.13254e-07
8.86129e-07
9.74349e-07
1.04419e-06
9.79057e-07
8.45228e-07
7.99162e-07
3.97675e-06
1.14906e-05
5.1287e-06
4.09261e-06
2.88652e-06
1.80892e-06
1.20118e-06
9.50209e-07
8.07419e-07
6.79086e-07
5.84543e-07
1.72262e-06
6.87679e-05
0.0717016
0.048595
1.73799e-05
6.3232e-07
5.77305e-07
6.44753e-07
7.51719e-07
9.76266e-07
1.53586e-06
1.93856e-06
9.73195e-07
8.41096e-07
8.75426e-07
9.55672e-07
9.50231e-07
8.62502e-07
8.68839e-07
2.59805e-06
1.03902e-05
5.06722e-06
4.05837e-06
2.84882e-06
1.78203e-06
1.18678e-06
9.41829e-07
7.95465e-07
6.65518e-07
5.43059e-07
9.36762e-07
1.48307e-05
0.0318116
0.0283524
1.91934e-05
6.68982e-07
5.4575e-07
6.28857e-07
7.14428e-07
8.82316e-07
1.36576e-06
1.94141e-06
1.22038e-06
8.00422e-07
8.13434e-07
8.65245e-07
8.73996e-07
8.43554e-07
8.92718e-07
1.82067e-06
6.42193e-06
5.00657e-06
4.01395e-06
2.80386e-06
1.75645e-06
1.16922e-06
9.26127e-07
7.7949e-07
6.47887e-07
5.25062e-07
5.87728e-07
7.91725e-06
0.0149081
0.00519879
7.72869e-06
7.17827e-07
5.20041e-07
6.12578e-07
6.88636e-07
7.9726e-07
1.20789e-06
1.94176e-06
1.75786e-06
7.54324e-07
7.18833e-07
7.58134e-07
7.70062e-07
7.80989e-07
8.83694e-07
1.5028e-06
5.34115e-06
4.93686e-06
3.95485e-06
2.74429e-06
1.71363e-06
1.14805e-06
9.15334e-07
7.67983e-07
6.32548e-07
5.12647e-07
4.03193e-07
2.18308e-06
0.0038349
4.51852e-05
4.03287e-06
8.05424e-07
5.02716e-07
5.82271e-07
6.64572e-07
7.56189e-07
9.37402e-07
1.72346e-06
2.34822e-06
9.51024e-07
6.74159e-07
6.92873e-07
7.04747e-07
7.18282e-07
8.54538e-07
1.41842e-06
4.827e-06
4.85387e-06
3.87665e-06
2.677e-06
1.67101e-06
1.12991e-06
9.00204e-07
7.48561e-07
6.12507e-07
4.8396e-07
3.64025e-07
7.99395e-07
2.2854e-05
4.67228e-06
4.76118e-06
9.26328e-07
4.87252e-07
5.54417e-07
6.39627e-07
7.25642e-07
8.3331e-07
1.20568e-06
2.4375e-06
2.16245e-06
8.6285e-07
7.80522e-07
7.87695e-07
7.26605e-07
7.90348e-07
1.25165e-06
4.99354e-06
4.75604e-06
3.78336e-06
2.59758e-06
1.61439e-06
1.10382e-06
8.83598e-07
7.31726e-07
5.90376e-07
4.65893e-07
3.51815e-07
5.27181e-07
9.27108e-06
3.99448e-06
6.049e-06
1.23555e-06
4.76084e-07
5.29558e-07
6.06465e-07
6.94847e-07
7.90673e-07
9.35982e-07
1.56738e-06
2.72714e-06
1.5812e-06
1.18178e-06
1.20127e-06
9.42805e-07
8.7246e-07
1.21052e-06
9.80395e-06
4.63896e-06
3.67078e-06
2.5038e-06
1.55837e-06
1.08373e-06
8.66433e-07
7.09318e-07
5.70687e-07
4.43067e-07
3.41115e-07
4.22196e-07
5.91864e-06
2.10954e-05
6.02607e-06
1.7883e-06
4.85066e-07
5.0744e-07
5.72545e-07
6.56702e-07
7.48505e-07
8.54303e-07
1.12486e-06
1.98783e-06
2.25896e-06
1.71737e-06
1.61045e-06
1.50003e-06
1.09217e-06
1.40746e-06
1.26817e-05
4.49752e-06
3.54054e-06
2.39969e-06
1.49981e-06
1.05986e-06
8.49455e-07
6.9219e-07
5.4646e-07
4.21381e-07
3.37082e-07
3.57909e-07
3.47155e-06
8.39963e-05
1.43396e-05
2.41598e-06
5.11623e-07
4.80056e-07
5.41046e-07
6.16729e-07
7.07503e-07
8.09356e-07
9.39306e-07
1.27823e-06
1.92052e-06
1.77867e-06
1.58973e-06
1.60883e-06
1.37693e-06
1.66506e-06
4.17526e-06
4.33586e-06
3.39332e-06
2.28628e-06
1.44559e-06
1.04018e-06
8.28579e-07
6.65876e-07
5.22311e-07
4.04168e-07
3.23279e-07
3.37124e-07
2.09614e-06
0.000136662
5.93185e-05
2.84573e-06
5.46303e-07
4.55612e-07
5.09788e-07
5.7371e-07
6.58036e-07
7.58403e-07
8.83815e-07
1.05639e-06
1.40083e-06
1.60099e-06
1.46368e-06
1.42777e-06
1.35382e-06
1.44524e-06
1.58785e-06
4.15814e-06
3.23726e-06
2.17348e-06
1.39521e-06
1.01515e-06
8.07616e-07
6.46305e-07
4.99956e-07
3.84314e-07
3.1286e-07
3.10007e-07
1.52564e-06
0.000197496
0.000136736
3.17021e-06
5.61054e-07
4.42188e-07
4.78366e-07
5.36689e-07
6.09735e-07
7.0417e-07
8.29039e-07
1.0035e-06
1.25328e-06
1.5118e-06
1.50619e-06
1.3971e-06
1.29103e-06
1.30016e-06
1.60894e-06
3.97115e-06
3.0799e-06
2.06695e-06
1.3501e-06
9.94118e-07
7.87493e-07
6.20277e-07
4.75309e-07
3.6795e-07
3.03108e-07
3.03986e-07
1.12327e-06
0.000213209
0.000212872
3.09888e-06
5.72834e-07
4.36846e-07
4.52166e-07
4.98069e-07
5.66972e-07
6.57953e-07
7.73685e-07
9.37125e-07
1.20347e-06
1.50017e-06
1.59014e-06
1.51004e-06
1.43106e-06
1.52643e-06
1.85826e-06
3.77986e-06
2.92186e-06
1.96614e-06
1.307e-06
9.69754e-07
7.65316e-07
5.97171e-07
4.50839e-07
3.47858e-07
2.96028e-07
3.14982e-07
9.18363e-07
2.86422e-05
0.000185525
3.05705e-06
6.39912e-07
4.37433e-07
4.37059e-07
4.67436e-07
5.26425e-07
6.1221e-07
7.28103e-07
8.83493e-07
1.11953e-06
1.47027e-06
1.63066e-06
1.60726e-06
1.57067e-06
1.65676e-06
1.80463e-06
3.58688e-06
2.76665e-06
1.87494e-06
1.26769e-06
9.47358e-07
7.42185e-07
5.68248e-07
4.26552e-07
3.34416e-07
2.90881e-07
3.20348e-07
8.92585e-07
6.82979e-06
9.70143e-06
3.46015e-06
8.2044e-07
4.51961e-07
4.26119e-07
4.45522e-07
4.91612e-07
5.74051e-07
6.88548e-07
8.39636e-07
1.05895e-06
1.39188e-06
1.63438e-06
1.65664e-06
1.62518e-06
1.66588e-06
1.72928e-06
3.39575e-06
2.61914e-06
1.79212e-06
1.2304e-06
9.24891e-07
7.17521e-07
5.4384e-07
4.04745e-07
3.18282e-07
2.85137e-07
3.54409e-07
1.09687e-06
4.27362e-06
6.00499e-06
3.77034e-06
1.1279e-06
4.92011e-07
4.24157e-07
4.29973e-07
4.65067e-07
5.38968e-07
6.56059e-07
8.09932e-07
1.01591e-06
1.32152e-06
1.6098e-06
1.68567e-06
1.65322e-06
1.6732e-06
1.73651e-06
3.20978e-06
2.48267e-06
1.71724e-06
1.19663e-06
9.01743e-07
6.91831e-07
5.14032e-07
3.79173e-07
3.04549e-07
2.89508e-07
3.95214e-07
1.27886e-06
3.54435e-06
4.20766e-06
3.71827e-06
1.47282e-06
5.52236e-07
4.36299e-07
4.24016e-07
4.47679e-07
5.11615e-07
6.26737e-07
7.85355e-07
9.90024e-07
1.26495e-06
1.55953e-06
1.69528e-06
1.6757e-06
1.69704e-06
1.82353e-06
3.03051e-06
2.357e-06
1.64863e-06
1.16502e-06
8.7718e-07
6.65622e-07
4.87274e-07
3.6078e-07
2.94638e-07
2.96615e-07
4.45516e-07
1.39813e-06
3.29851e-06
3.56772e-06
3.03615e-06
1.68979e-06
6.71529e-07
4.61855e-07
4.30298e-07
4.37562e-07
4.91529e-07
6.02958e-07
7.64324e-07
9.73096e-07
1.23222e-06
1.49152e-06
1.67878e-06
1.6905e-06
1.73435e-06
1.9619e-06
2.85758e-06
2.24026e-06
1.5866e-06
1.13523e-06
8.5352e-07
6.39423e-07
4.59481e-07
3.38708e-07
2.86848e-07
3.10601e-07
5.59285e-07
1.68034e-06
2.94602e-06
2.96519e-06
2.63977e-06
1.93727e-06
8.78702e-07
5.017e-07
4.40605e-07
4.3879e-07
4.77261e-07
5.84089e-07
7.45036e-07
9.56594e-07
1.21674e-06
1.43868e-06
1.62911e-06
1.68843e-06
1.77493e-06
2.11229e-06
2.68876e-06
2.13017e-06
1.53033e-06
1.10645e-06
8.30673e-07
6.1092e-07
4.33216e-07
3.21312e-07
2.83508e-07
3.41634e-07
6.90818e-07
1.91675e-06
2.67732e-06
2.49601e-06
2.48364e-06
2.27093e-06
1.14548e-06
5.60931e-07
4.61672e-07
4.43359e-07
4.72473e-07
5.69781e-07
7.31806e-07
9.32565e-07
1.20485e-06
1.41072e-06
1.55587e-06
1.66199e-06
1.80436e-06
2.24785e-06
2.52214e-06
2.02605e-06
1.47946e-06
1.07998e-06
8.08186e-07
5.84747e-07
4.06765e-07
3.05114e-07
2.89534e-07
3.86115e-07
9.13322e-07
2.18487e-06
2.3984e-06
2.28665e-06
2.35034e-06
2.39051e-06
1.48731e-06
6.91752e-07
4.99745e-07
4.54315e-07
4.70736e-07
5.62771e-07
7.25365e-07
9.17575e-07
1.1874e-06
1.40158e-06
1.48734e-06
1.60553e-06
1.81038e-06
2.34107e-06
2.35664e-06
1.92826e-06
1.43294e-06
1.05539e-06
7.86029e-07
5.56144e-07
3.82747e-07
2.94131e-07
3.00683e-07
4.72372e-07
1.21394e-06
2.35293e-06
2.42142e-06
2.24443e-06
2.16755e-06
2.33674e-06
1.9115e-06
9.10016e-07
5.44255e-07
4.75779e-07
4.73029e-07
5.54574e-07
7.23457e-07
9.11779e-07
1.12818e-06
1.39595e-06
1.47945e-06
1.56505e-06
1.79001e-06
2.34369e-06
2.19727e-06
1.83771e-06
1.38917e-06
1.0323e-06
7.63397e-07
5.29414e-07
3.60892e-07
2.84649e-07
3.32894e-07
6.42301e-07
1.67306e-06
2.69751e-06
2.49496e-06
2.00107e-06
2.13796e-06
2.49116e-06
2.31332e-06
1.20713e-06
6.30318e-07
5.03362e-07
4.81579e-07
5.5173e-07
7.19364e-07
9.14057e-07
1.09461e-06
1.34434e-06
1.45931e-06
1.52846e-06
1.73877e-06
2.24177e-06
2.04981e-06
1.75303e-06
1.34657e-06
1.00997e-06
7.41161e-07
5.0397e-07
3.38151e-07
2.86906e-07
3.87958e-07
9.09975e-07
2.1884e-06
2.88095e-06
2.65161e-06
2.14432e-06
2.17839e-06
2.63231e-06
2.67405e-06
1.64498e-06
8.15007e-07
5.49698e-07
4.88091e-07
5.47057e-07
7.18234e-07
9.26956e-07
1.0865e-06
1.27269e-06
1.39908e-06
1.46182e-06
1.65091e-06
2.01951e-06
1.9161e-06
1.67117e-06
1.3049e-06
9.89941e-07
7.18754e-07
4.77197e-07
3.22654e-07
2.99086e-07
4.95681e-07
1.38444e-06
2.81442e-06
2.91439e-06
2.55046e-06
2.47267e-06
2.42817e-06
2.65823e-06
3.06624e-06
2.29762e-06
1.06501e-06
5.93281e-07
5.03387e-07
5.42815e-07
7.16264e-07
9.41108e-07
1.09804e-06
1.23778e-06
1.33299e-06
1.37348e-06
1.52244e-06
1.75753e-06
1.7941e-06
1.59142e-06
1.26664e-06
9.68057e-07
6.98492e-07
4.55006e-07
3.07891e-07
3.24567e-07
7.00769e-07
2.11243e-06
3.28559e-06
3.30384e-06
2.80963e-06
2.54355e-06
2.73071e-06
2.93283e-06
3.21651e-06
3.0994e-06
1.45052e-06
7.02817e-07
5.09419e-07
5.36853e-07
7.1857e-07
9.52477e-07
1.12178e-06
1.23163e-06
1.28976e-06
1.30677e-06
1.39282e-06
1.5277e-06
1.68156e-06
1.5151e-06
1.22899e-06
9.49344e-07
6.77423e-07
4.32233e-07
2.99413e-07
3.75214e-07
1.07512e-06
3.03432e-06
3.76176e-06
3.45448e-06
3.18131e-06
3.04668e-06
2.87034e-06
3.10574e-06
3.58986e-06
3.83453e-06
2.07963e-06
8.38487e-07
5.12033e-07
5.31703e-07
7.22221e-07
9.68199e-07
1.14363e-06
1.23982e-06
1.2717e-06
1.2656e-06
1.29165e-06
1.35567e-06
1.57652e-06
1.44191e-06
1.19301e-06
9.30511e-07
6.60767e-07
4.14047e-07
2.91415e-07
4.59124e-07
1.69826e-06
3.94743e-06
4.13273e-06
3.81869e-06
3.56376e-06
3.45574e-06
3.27274e-06
3.25719e-06
3.7321e-06
4.41591e-06
2.97002e-06
9.92351e-07
5.07764e-07
5.2803e-07
7.28335e-07
9.88959e-07
1.17379e-06
1.25709e-06
1.26677e-06
1.23347e-06
1.21988e-06
1.23514e-06
1.48031e-06
1.37348e-06
1.15881e-06
9.13258e-07
6.43058e-07
3.96977e-07
2.86558e-07
5.57341e-07
2.59108e-06
1.16204e-05
5.15437e-06
4.06195e-06
3.78778e-06
3.57188e-06
3.60758e-06
3.55988e-06
3.73344e-06
6.48026e-06
3.98098e-06
1.15243e-06
5.04871e-07
5.24605e-07
7.38057e-07
1.00931e-06
1.2062e-06
1.27987e-06
1.27443e-06
1.22003e-06
1.17123e-06
1.15359e-06
1.39798e-06
1.31092e-06
1.12172e-06
8.90518e-07
6.29935e-07
3.85866e-07
2.78891e-07
6.30396e-07
3.69114e-06
8.06356e-05
4.07851e-05
1.60323e-05
9.6538e-06
5.86424e-06
3.42181e-06
3.40231e-06
7.08875e-06
2.66048e-05
4.99106e-06
1.24343e-06
4.93157e-07
5.24531e-07
7.56685e-07
1.03059e-06
1.2302e-06
1.29614e-06
1.27958e-06
1.21484e-06
1.14188e-06
1.10191e-06
1.33104e-06
1.2514e-06
1.07839e-06
8.68523e-07
6.17881e-07
3.76232e-07
2.71272e-07
7.00487e-07
5.061e-06
0.000381973
0.000302003
0.000206245
0.000136415
0.000133688
0.000142008
9.2615e-05
5.98022e-05
9.30534e-05
5.78563e-06
1.30548e-06
4.59984e-07
5.31007e-07
7.85521e-07
1.05697e-06
1.23607e-06
1.29684e-06
1.28014e-06
1.20869e-06
1.12232e-06
1.06562e-06
1.27616e-06
1.19359e-06
1.02957e-06
8.41655e-07
6.06619e-07
3.70348e-07
2.59756e-07
7.66351e-07
6.83059e-06
0.00118857
0.00141738
0.00182842
0.00174103
0.0017673
0.00138883
0.00100571
0.00070861
0.000398364
6.7082e-06
1.18697e-06
4.13463e-07
5.48971e-07
8.19857e-07
1.08326e-06
1.23109e-06
1.27892e-06
1.26796e-06
1.19547e-06
1.10789e-06
1.03788e-06
1.23064e-06
1.13672e-06
9.73401e-07
8.10326e-07
5.95028e-07
3.62984e-07
2.54031e-07
6.98793e-07
7.96134e-06
0.00179697
0.00272886
0.00498791
0.00520887
0.00549317
0.00517231
0.00423873
0.0026988
0.00123918
7.50163e-06
8.67065e-07
3.86003e-07
5.83476e-07
8.62045e-07
1.09587e-06
1.2173e-06
1.25493e-06
1.24547e-06
1.17837e-06
1.09625e-06
1.01655e-06
1.19197e-06
1.08097e-06
9.10541e-07
7.71483e-07
5.76966e-07
3.52973e-07
2.67945e-07
5.99834e-07
5.54993e-06
0.00162202
0.00222739
0.00577154
0.00598005
0.00597128
0.00598969
0.00596643
0.00367835
0.00152429
6.44586e-06
5.55869e-07
3.94887e-07
6.30338e-07
9.09965e-07
1.09939e-06
1.19448e-06
1.22622e-06
1.21738e-06
1.15771e-06
1.08454e-06
9.98619e-07
1.15567e-06
1.02116e-06
8.40873e-07
7.21339e-07
5.49733e-07
3.43529e-07
3.29859e-07
5.40246e-07
2.15673e-06
7.12525e-06
1.24859e-05
0.000463808
0.00225914
0.00289127
0.00293686
0.00131033
0.000215792
7.37991e-05
2.92749e-06
4.20484e-07
4.32519e-07
6.82267e-07
9.40534e-07
1.09055e-06
1.16524e-06
1.19401e-06
1.18634e-06
1.13405e-06
1.07033e-06
9.8133e-07
1.11523e-06
9.54671e-07
7.69756e-07
6.58645e-07
5.12395e-07
3.46015e-07
4.2677e-07
8.12708e-07
1.60406e-06
2.45513e-06
3.46979e-06
6.48544e-06
1.49792e-05
4.52126e-05
9.73004e-06
7.42208e-06
4.95993e-06
3.716e-06
1.03446e-06
4.17346e-07
4.79203e-07
7.2773e-07
9.4331e-07
1.08001e-06
1.13677e-06
1.15937e-06
1.15085e-06
1.10515e-06
1.05308e-06
9.64068e-07
1.06272e-06
8.73275e-07
7.00333e-07
5.92162e-07
4.70377e-07
3.67829e-07
6.13705e-07
1.34342e-06
1.87377e-06
2.09002e-06
2.30817e-06
3.53566e-06
7.15303e-06
8.36765e-06
6.20457e-06
3.56396e-06
2.41238e-06
1.67509e-06
8.3959e-07
5.12236e-07
5.20367e-07
7.72116e-07
9.15071e-07
1.06388e-06
1.1206e-06
1.13635e-06
1.12343e-06
1.07648e-06
1.03128e-06
9.45441e-07
9.97083e-07
8.0239e-07
6.41681e-07
5.42442e-07
4.41727e-07
4.1277e-07
9.11965e-07
2.23508e-06
3.06321e-06
3.05769e-06
2.78122e-06
2.94192e-06
4.46423e-06
5.92181e-06
4.54476e-06
2.67654e-06
2.32599e-06
1.81954e-06
1.31774e-06
6.14563e-07
5.37975e-07
7.92183e-07
8.73768e-07
1.00781e-06
1.10523e-06
1.12266e-06
1.10852e-06
1.0573e-06
1.01069e-06
9.42864e-07
9.25212e-07
7.41012e-07
5.92911e-07
5.23267e-07
4.40242e-07
4.72104e-07
1.2675e-06
3.55398e-06
3.90705e-06
4.01818e-06
3.85783e-06
3.83615e-06
3.74981e-06
3.70901e-06
3.91805e-06
3.31298e-06
3.52612e-06
3.49155e-06
2.47601e-06
6.66172e-07
5.42324e-07
7.74381e-07
8.20967e-07
8.97674e-07
1.03679e-06
1.07651e-06
1.07882e-06
1.031e-06
9.90999e-07
9.60666e-07
8.43181e-07
6.82754e-07
5.6281e-07
5.1956e-07
4.56765e-07
5.54021e-07
1.58036e-06
4.72155e-06
4.72189e-06
4.50805e-06
4.30849e-06
4.20299e-06
3.62286e-06
3.53606e-06
3.7928e-06
3.63603e-06
3.80561e-06
5.24563e-06
3.77932e-06
6.19132e-07
5.1302e-07
7.27187e-07
7.68663e-07
8.15254e-07
9.37237e-07
1.00266e-06
1.01316e-06
9.92433e-07
9.70056e-07
9.91579e-07
7.54995e-07
6.36938e-07
5.55103e-07