/*--------------------------------*- C++ -*----------------------------------*\
| =========                 |                                                 |
| \\      /  F ield         | OpenFOAM: The Open Source CFD Toolbox           |
|  \\    /   O peration     | Version:  v1606+                                |
|   \\  /    A nd           | Web:      www.OpenFOAM.com                      |
|    \\/     M anipulation  |                                                 |
\*---------------------------------------------------------------------------*/
FoamFile
{
    version     2.0;
    format      ascii;
    class       surfaceScalarField;
    location    "0.91";
    object      phi.air;
}
// * * * * * * * * * * * * * * * * * * * * * * * * * * * * * * * * * * * * * //

dimensions      [0 3 -1 0 0 0 0];

internalField   nonuniform List<scalar> 
11770
(
-1.18292e-05
0.000103529
-4.17159e-06
8.85894e-05
-1.49038e-06
9.40831e-05
-1.849e-06
9.93745e-05
-3.33618e-06
0.00010288
-6.6121e-06
0.000104421
-9.63146e-06
0.000100824
-1.24192e-05
9.60685e-05
-1.14695e-05
8.93436e-05
-7.23475e-06
8.5887e-05
-2.8591e-06
8.5839e-05
2.20833e-07
8.71414e-05
1.40622e-06
8.94676e-05
2.59056e-06
9.0705e-05
4.93883e-06
9.06927e-05
6.71516e-06
9.14515e-05
7.11654e-06
9.21257e-05
6.61469e-06
9.19976e-05
7.98241e-06
8.97435e-05
1.0931e-05
8.78476e-05
1.38414e-05
8.73218e-05
1.54518e-05
8.87522e-05
1.5386e-05
9.27521e-05
1.37445e-05
9.85756e-05
1.12879e-05
0.000104084
9.69238e-06
0.000104484
8.13758e-06
0.000101928
9.18585e-06
9.62917e-05
1.54056e-05
8.98687e-05
0.000106645
2.01934e-06
8.73495e-05
7.57405e-06
7.14362e-05
1.12894e-05
7.75759e-05
1.03348e-05
8.5751e-05
4.80083e-06
9.31628e-05
-6.37693e-06
0.000100059
-1.883e-05
0.000100162
-2.31234e-05
9.07247e-05
-1.78434e-05
7.63102e-05
-9.79384e-06
6.87691e-05
-1.95583e-06
6.84425e-05
4.00445e-06
7.12592e-05
7.18748e-06
7.58296e-05
8.20967e-06
7.93307e-05
7.84192e-06
8.09961e-05
6.17801e-06
8.29024e-05
4.66871e-06
8.2964e-05
4.63778e-06
8.11719e-05
7.07134e-06
7.64243e-05
1.22928e-05
7.23204e-05
1.90447e-05
7.08294e-05
2.58937e-05
7.37255e-05
2.67366e-05
8.40762e-05
1.77732e-05
9.68382e-05
4.73178e-06
0.000102517
-3.39562e-06
9.72005e-05
-6.77672e-06
9.01625e-05
-5.17319e-06
8.10404e-05
-1.06282e-06
7.35097e-05
9.12476e-05
1.39097e-05
7.09847e-05
1.83238e-05
6.19907e-05
2.16592e-05
6.78847e-05
1.8484e-05
8.08601e-05
8.83784e-06
9.30871e-05
-4.50644e-06
0.000103721
-2.13675e-05
0.000109379
-2.25803e-05
9.36095e-05
-1.41783e-05
7.44995e-05
-3.90783e-06
6.68199e-05
4.38107e-06
6.98658e-05
1.0324e-05
7.61783e-05
1.38147e-05
8.49797e-05
1.37108e-05
9.37968e-05
9.81545e-06
0.000100034
3.31321e-06
0.000104405
-7.10612e-07
0.000102201
-1.76219e-06
9.58275e-05
5.79504e-07
8.55222e-05
6.34201e-06
7.70979e-05
1.49789e-05
7.14987e-05
2.71252e-05
7.02661e-05
3.1038e-05
8.56896e-05
1.6827e-05
0.000106088
-1.22874e-06
0.000109391
-1.40122e-05
9.89281e-05
-2.01294e-05
8.68305e-05
-1.82234e-05
7.2231e-05
-1.41099e-05
6.44629e-05
7.53585e-05
1.20641e-05
5.64317e-05
2.06756e-05
5.10316e-05
2.7246e-05
5.81835e-05
2.65047e-05
7.68222e-05
1.8672e-05
9.44746e-05
1.14058e-05
0.000104314
3.36203e-07
0.000111173
-9.17343e-06
9.34018e-05
-7.49254e-06
6.8698e-05
3.85111e-06
5.69191e-05
1.26902e-05
6.38846e-05
1.98759e-05
7.3787e-05
2.43488e-05
8.6e-05
2.16832e-05
9.81807e-05
1.28016e-05
0.000105612
2.43771e-06
0.000109691
-7.15609e-06
0.000109114
-1.19952e-05
0.000103065
-7.87099e-06
8.79125e-05
-1.1929e-06
7.4984e-05
8.79798e-06
6.37717e-05
2.04322e-05
5.89402e-05
1.23527e-05
8.49113e-05
-5.63084e-06
0.000111705
-1.6538e-05
0.000112018
-2.62593e-05
0.00010143
-2.85445e-05
8.35783e-05
-2.13295e-05
6.1572e-05
-1.10304e-05
5.19965e-05
6.12651e-05
6.75974e-06
4.94627e-05
1.65263e-05
4.19769e-05
2.56735e-05
4.9454e-05
2.99867e-05
7.20302e-05
2.64418e-05
9.62259e-05
2.32223e-05
0.000105547
2.07774e-05
0.000111086
1.1268e-05
9.75753e-05
5.79708e-06
7.00708e-05
1.2583e-05
5.28592e-05
2.16768e-05
5.99452e-05
2.50579e-05
7.08107e-05
2.34202e-05
7.8973e-05
2.04779e-05
8.52879e-05
1.59228e-05
9.12215e-05
1.07e-05
9.56657e-05
1.78941e-06
9.86677e-05
-7.53056e-06
9.71429e-05
-1.44169e-05
8.87386e-05
-1.08123e-05
7.47889e-05
9.67023e-07
5.8416e-05
1.03018e-06
5.84512e-05
-1.39157e-05
9.29568e-05
-2.51171e-05
0.000118335
-2.8651e-05
0.000113706
-3.33156e-05
0.000104246
-2.89793e-05
7.86196e-05
-1.72331e-05
5.03917e-05
-5.10124e-06
4.06895e-05
5.45722e-05
4.3959e-06
4.66105e-05
9.56363e-06
3.82582e-05
1.74074e-05
4.25206e-05
2.68944e-05
6.28238e-05
2.98084e-05
9.2154e-05
2.68272e-05
0.000106137
2.77842e-05
0.000108413
2.91804e-05
9.50072e-05
2.67253e-05
7.09236e-05
2.21202e-05
5.44929e-05
1.95891e-05
5.51993e-05
1.53285e-05
6.10687e-05
1.52594e-05
6.35603e-05
1.79725e-05
6.95981e-05
2.4085e-05
7.45491e-05
3.00068e-05
7.96032e-05
2.89212e-05
8.78412e-05
2.00316e-05
9.12377e-05
6.3668e-06
8.54248e-05
-6.11463e-06
7.47667e-05
-1.22786e-05
6.10624e-05
-2.5451e-05
6.91238e-05
-3.21113e-05
9.81306e-05
-3.27475e-05
0.000117786
-3.50798e-05
0.000113988
-3.52107e-05
0.000102338
-2.35237e-05
6.72069e-05
-1.19501e-05
3.99608e-05
-4.8705e-06
3.47174e-05
5.01389e-05
1.98977e-06
4.67497e-05
1.09023e-06
4.02088e-05
3.70874e-06
4.11223e-05
1.43629e-05
5.38418e-05
2.58661e-05
8.15674e-05
2.57515e-05
0.000104342
2.68219e-05
0.00010568
3.25817e-05
8.87979e-05
3.50579e-05
6.68222e-05
2.65769e-05
5.49713e-05
1.28371e-05
5.7483e-05
6.32416e-06
5.88627e-05
9.18206e-06
5.57077e-05
1.65239e-05
5.9528e-05
2.67254e-05
6.25396e-05
3.8197e-05
6.61374e-05
4.44437e-05
7.87456e-05
4.3529e-05
8.74567e-05
3.32523e-05
8.87979e-05
1.10135e-05
8.60028e-05
-1.70558e-05
7.61357e-05
-3.75912e-05
8.2797e-05
-3.8701e-05
9.82935e-05
-3.5873e-05
0.000113927
-3.6724e-05
0.000112487
-2.72522e-05
9.21508e-05
-1.19362e-05
5.31785e-05
-5.74818e-06
3.49071e-05
-4.99148e-06
3.42477e-05
4.67415e-05
-3.66451e-07
4.84174e-05
-5.47976e-06
4.59898e-05
-8.88558e-06
4.58957e-05
-3.51017e-06
5.14507e-05
1.08568e-05
7.04948e-05
1.74419e-05
9.8158e-05
1.80886e-05
0.000104257
2.05408e-05
8.56928e-05
1.92586e-05
6.60196e-05
1.37091e-05
5.69789e-05
7.35578e-06
6.02429e-05
5.94608e-06
5.83851e-05
1.01329e-05
5.1239e-05
2.13278e-05
4.89318e-05
3.33615e-05
5.11489e-05
4.27843e-05
5.67761e-05
4.70779e-05
7.38581e-05
4.60815e-05
8.68247e-05
3.91537e-05
9.41803e-05
2.50568e-05
9.66228e-05
-2.05735e-06
9.57404e-05
-2.61062e-05
0.000100074
-3.24845e-05
0.000102042
-3.23247e-05
0.000112621
-2.92736e-05
0.000107613
-1.15178e-05
7.60005e-05
-3.77375e-07
4.41894e-05
-8.84848e-07
3.55117e-05
-3.47111e-06
3.62389e-05
4.38877e-05
-2.9102e-06
5.20494e-05
-9.84298e-06
5.33732e-05
-1.71575e-05
5.44048e-05
-1.86942e-05
5.67771e-05
-9.80513e-06
6.71603e-05
9.5819e-07
9.18391e-05
3.32051e-06
0.000103203
3.71518e-06
8.54486e-05
1.14487e-06
6.74212e-05
3.11417e-07
5.87721e-05
3.71608e-06
6.05009e-05
4.07536e-06
6.04614e-05
8.56616e-06
4.88347e-05
2.17961e-05
3.81401e-05
3.68907e-05
3.84353e-05
4.83876e-05
4.64822e-05
5.26208e-05
6.92986e-05
4.85406e-05
8.95107e-05
4.0215e-05
0.000100922
2.85283e-05
0.000106048
1.4457e-05
0.000108328
-3.59287e-06
0.000115118
-1.64497e-05
0.000111692
-2.0867e-05
0.000115353
-1.2948e-05
0.000100108
4.4105e-06
6.24094e-05
7.42882e-06
4.34474e-05
2.78739e-06
3.98929e-05
-1.00188e-06
3.93606e-05
4.22356e-05
-5.0399e-06
5.76334e-05
-1.29899e-05
6.1692e-05
-2.24177e-05
6.43694e-05
-2.89997e-05
6.63269e-05
-2.71836e-05
7.19226e-05
-1.76992e-05
9.02827e-05
-1.05555e-05
0.000101036
-6.59213e-06
8.41595e-05
-3.85782e-06
6.70656e-05
-8.09436e-07
5.93121e-05
5.1537e-06
6.02967e-05
9.72414e-06
6.27749e-05
1.22443e-05
5.47836e-05
1.71077e-05
4.24142e-05
2.60858e-05
3.50583e-05
4.0374e-05
3.51947e-05
5.24083e-05
5.83251e-05
4.9259e-05
9.14889e-05
4.11174e-05
0.000106825
3.2834e-05
0.000113004
2.79341e-05
0.000114066
1.87239e-05
0.000123301
5.86518e-06
0.000121866
-1.48914e-06
0.000121313
5.80085e-06
9.58273e-05
1.52107e-05
5.78149e-05
1.25007e-05
4.77246e-05
6.23971e-06
4.59008e-05
1.47977e-06
4.37456e-05
4.2811e-05
-5.4963e-06
6.45161e-05
-1.4521e-05
7.15543e-05
-2.5299e-05
7.5526e-05
-3.54313e-05
7.79592e-05
-3.90358e-05
8.13677e-05
-3.16189e-05
9.22774e-05
-1.68907e-05
9.6269e-05
-6.42733e-06
8.31613e-05
1.69154e-06
7.03122e-05
5.74438e-06
6.63402e-05
9.47332e-06
6.71862e-05
1.7417e-05
6.69595e-05
2.32798e-05
6.05182e-05
2.27256e-05
5.33364e-05
1.98578e-05
5.05442e-05
2.245e-05
4.65741e-05
3.92925e-05
4.78725e-05
4.78076e-05
8.32753e-05
4.23144e-05
0.000111486
3.92027e-05
0.000117079
3.88537e-05
0.000115497
3.89179e-05
0.00012344
3.13137e-05
0.000128895
2.335e-05
0.000129851
2.36946e-05
0.00010022
2.35352e-05
6.27582e-05
1.78874e-05
5.43061e-05
1.04069e-05
5.31861e-05
4.07031e-06
4.99081e-05
4.64878e-05
-3.12296e-06
7.03743e-05
-1.42299e-05
8.32743e-05
-2.61191e-05
8.70275e-05
-3.73689e-05
8.96075e-05
-4.47365e-05
9.24706e-05
-3.57029e-05
9.3354e-05
-1.40786e-05
8.99356e-05
1.6132e-06
8.13083e-05
1.03475e-05
7.31831e-05
1.35376e-05
7.2198e-05
1.61063e-05
7.35143e-05
2.2646e-05
7.19211e-05
2.64377e-05
6.65469e-05
2.23747e-05
6.24042e-05
1.61732e-05
6.12114e-05
8.34163e-06
6.12736e-05
1.23031e-05
6.43402e-05
2.94776e-05
8.09476e-05
3.84935e-05
0.000107647
4.31485e-05
0.000116987
4.74455e-05
0.000115113
5.49693e-05
0.000119338
5.58029e-05
0.000130411
5.11918e-05
0.000137893
4.31264e-05
0.000114519
3.43841e-05
7.71489e-05
2.52636e-05
6.44176e-05
1.55849e-05
6.27705e-05
6.62834e-06
5.93306e-05
5.38752e-05
2.2552e-07
7.01407e-05
-1.15391e-05
9.43878e-05
-2.38466e-05
9.90016e-05
-3.47191e-05
0.000100087
-4.12685e-05
9.90587e-05
-2.76078e-05
8.60267e-05
-6.89046e-06
7.83891e-05
6.43718e-06
7.39029e-05
1.04101e-05
6.99958e-05
1.25581e-05
6.94863e-05
1.52995e-05
7.03252e-05
1.89196e-05
6.88835e-05
1.9796e-05
6.61526e-05
1.6796e-05
6.5652e-05
1.04448e-05
6.78495e-05
-9.31062e-07
7.25961e-05
-8.41756e-06
7.92415e-05
5.59004e-06
9.66658e-05
2.14733e-05
0.000117365
3.39946e-05
0.000118808
4.55052e-05
0.000114611
5.78521e-05
0.000117206
6.80091e-05
0.000129318
7.27663e-05
0.000141348
6.38106e-05
0.000130729
4.83476e-05
9.91357e-05
3.45836e-05
8.00105e-05
2.2442e-05
7.50977e-05
8.41113e-06
7.41044e-05
6.51294e-05
-3.75007e-07
6.75995e-05
-6.5284e-06
9.42692e-05
-1.5111e-05
0.00010291
-2.77093e-05
0.000106788
-3.20915e-05
9.91526e-05
-1.77596e-05
7.39581e-05
-4.98141e-06
6.71358e-05
3.40969e-06
6.57477e-05
7.38303e-06
6.53225e-05
1.03677e-05
6.59215e-05
1.34894e-05
6.70423e-05
1.57939e-05
6.68084e-05
1.58199e-05
6.6395e-05
1.33782e-05
6.84044e-05
8.38026e-06
7.35175e-05
4.93407e-07
8.20362e-05
-1.11872e-05
9.36678e-05
-1.30462e-05
0.000112829
5.2481e-06
0.000133092
1.74991e-05
0.000137707
2.63647e-05
0.000129083
3.77666e-05
0.000123491
5.44308e-05
0.000128114
7.18355e-05
0.000138413
7.5877e-05
0.000138044
6.15924e-05
0.000119185
4.43703e-05
9.85298e-05
3.1938e-05
8.80563e-05
1.02343e-05
9.42313e-05
7.69333e-05
-3.26704e-06
6.91518e-05
1.15459e-06
8.81911e-05
-2.3574e-06
0.000101884
-9.97783e-06
0.000108926
-1.34649e-05
9.87509e-05
-8.87771e-06
6.98729e-05
-2.59883e-06
6.23386e-05
2.56536e-06
6.17501e-05
6.36313e-06
6.21477e-05
9.05701e-06
6.30215e-05
1.15179e-05
6.41795e-05
1.33902e-05
6.48442e-05
1.39548e-05
6.60407e-05
1.31767e-05
6.96674e-05
1.12532e-05
7.64934e-05
7.44513e-06
8.75362e-05
-1.84936e-06
0.000104476
-1.36503e-05
0.000127155
-1.25375e-05
0.000143183
-2.81736e-06
0.000149623
3.06977e-06
0.000144568
9.57588e-06
0.00013626
2.33317e-05
0.000132054
4.53866e-05
0.000130891
6.47475e-05
0.000129819
6.44198e-05
0.000124025
4.97146e-05
0.000112262
3.70827e-05
0.000101505
1.55211e-05
0.000109619
8.97837e-05
-6.19337e-06
7.96101e-05
1.43106e-06
8.86977e-05
7.11142e-06
0.000100829
1.41062e-05
0.000107537
1.4514e-05
0.000102372
2.48161e-06
8.16221e-05
8.3351e-07
6.40714e-05
2.8967e-06
6.06509e-05
5.44338e-06
6.01551e-05
7.69962e-06
6.06803e-05
9.8029e-06
6.16123e-05
1.17982e-05
6.25809e-05
1.34743e-05
6.44799e-05
1.50105e-05
6.86866e-05
1.66152e-05
7.58618e-05
1.71377e-05
8.82914e-05
8.89622e-06
0.000112232
-9.94531e-06
0.000141784
-1.77618e-05
0.000149526
-1.74738e-05
0.000150216
-1.2385e-05
0.000144133
-7.86668e-06
0.000136444
2.33857e-07
0.00013125
1.54579e-05
0.000125791
3.4575e-05
0.000118371
4.83226e-05
0.000112929
4.22859e-05
0.000115023
2.5833e-05
0.000114757
1.51668e-05
0.000116247
9.84403e-05
-7.73457e-06
9.44068e-05
-9.36987e-06
0.000102607
1.6968e-06
0.000105402
1.64504e-05
0.000103344
2.57953e-05
9.66511e-05
1.26287e-05
9.0279e-05
4.51975e-06
7.15518e-05
3.27747e-06
6.2151e-05
4.38035e-06
5.95547e-05
6.09554e-06
5.89923e-05
8.1147e-06
5.92413e-05
1.04557e-05
5.99213e-05
1.32436e-05
6.17447e-05
1.68917e-05
6.55539e-05
2.15796e-05
7.18432e-05
2.56893e-05
8.36607e-05
1.05649e-05
0.000121244
-6.78812e-06
0.000146981
-1.91004e-05
0.000149265
-2.58498e-05
0.000146964
-2.3779e-05
0.000137737
-1.90708e-05
0.000131268
-1.30381e-05
0.000126578
-5.12975e-06
0.000120289
5.79034e-06
0.000111766
1.9566e-05
0.000102387
2.78547e-05
0.000107719
1.4706e-05
0.000123649
1.02859e-05
0.000119033
0.0001061
-4.15458e-06
0.00010173
-1.43633e-05
0.000114029
-7.41784e-06
0.000105668
3.78146e-06
0.000100689
1.45028e-05
9.09533e-05
1.52339e-05
8.75017e-05
7.67641e-06
7.5532e-05
3.44126e-06
6.54904e-05
2.99522e-06
5.9978e-05
4.10504e-06
5.78294e-05
6.07471e-06
5.69848e-05
8.68882e-06
5.69891e-05
1.21906e-05
5.82389e-05
1.68305e-05
6.13149e-05
2.19486e-05
6.70576e-05
2.35856e-05
7.94579e-05
8.392e-06
0.000129646
-4.306e-06
0.000148908
-1.45514e-05
0.000147302
-2.27664e-05
0.000141559
-2.71336e-05
0.000131718
-2.48645e-05
0.000124682
-2.11578e-05
0.000121555
-1.83058e-05
0.0001175
-1.57915e-05
0.000110837
-1.156e-05
0.000103231
3.29791e-06
0.000104172
7.09494e-06
0.000122969
9.54418e-06
0.00011996
0.000115597
-3.24841e-06
0.000102616
-1.01899e-05
0.000116857
-9.23664e-06
0.00010344
-4.95852e-06
9.81274e-05
3.90415e-07
8.85056e-05
8.50529e-06
8.37441e-05
7.12384e-06
7.54595e-05
2.86764e-06
6.69965e-05
1.24411e-06
6.05222e-05
1.79793e-06
5.68466e-05
3.60869e-06
5.47708e-05
6.3732e-06
5.38421e-05
1.02749e-05
5.42594e-05
1.48661e-05
5.70913e-05
1.77145e-05
6.44954e-05
1.14293e-05
8.43963e-05
-4.11847e-06
0.000139411
-1.3885e-05
0.000152194
-1.03266e-05
0.000139958
-1.04817e-05
0.00013284
-1.74162e-05
0.000126849
-2.26848e-05
0.00012197
-2.37074e-05
0.00011867
-2.44008e-05
0.000116444
-2.64245e-05
0.000112638
-2.96225e-05
0.000108681
-2.28865e-05
0.000109866
-5.76904e-06
0.000121499
6.49553e-06
0.00011842
0.000127487
-2.52166e-06
0.000101083
8.94191e-07
0.00010979
-1.05662e-06
0.000101285
-4.10007e-06
9.89546e-05
-4.42613e-06
8.91702e-05
6.42718e-07
8.1164e-05
2.67289e-06
7.41927e-05
1.1552e-06
6.72035e-05
-7.39576e-07
6.07182e-05
-6.25943e-07
5.57647e-05
1.01974e-06
5.24172e-05
3.98326e-06
5.02823e-05
8.35321e-06
4.96459e-05
1.31871e-05
5.25335e-05
1.44347e-05
6.3339e-05
-3.40286e-07
9.6865e-05
-2.2682e-05
0.000146049
-1.60211e-05
0.000145151
-3.30405e-06
0.000133254
3.56643e-06
0.000133427
4.22195e-07
0.000131389
-1.13624e-05
0.000127081
-1.88958e-05
0.000120544
-2.34295e-05
0.000117692
-2.77243e-05
0.000114998
-3.1843e-05
0.000113063
-3.23649e-05
0.000114158
-1.6499e-05
0.000120585
-4.45371e-06
0.000120096
0.000130764
3.05847e-06
9.54648e-05
1.21874e-05
9.88178e-05
1.03718e-05
0.000100316
4.63283e-06
0.000103056
-1.74372e-06
9.26964e-05
-2.69152e-06
8.0254e-05
-1.52101e-06
7.25998e-05
-1.76746e-06
6.65084e-05
-2.91314e-06
6.04492e-05
-2.89131e-06
5.45275e-05
-1.2833e-06
4.97876e-05
1.86497e-06
4.61728e-05
6.66968e-06
4.42258e-05
1.21456e-05
4.68944e-05
1.18761e-05
6.24064e-05
-1.63088e-05
0.000117128
-2.60464e-05
0.000146592
-6.48029e-06
0.000137147
1.66419e-06
0.000135621
7.34402e-06
0.000139508
9.65703e-06
0.000140777
2.96744e-06
0.000138512
-8.12905e-06
0.000130371
-1.68246e-05
0.000123931
-2.28991e-05
0.000119039
-2.68637e-05
0.000115491
-2.73842e-05
0.000115064
-1.97019e-05
0.000115624
-1.18835e-05
0.000116942
0.000125812
4.94201e-06
9.12426e-05
1.37431e-05
9.26076e-05
1.27079e-05
9.97594e-05
1.1647e-05
0.000100482
6.8675e-06
9.15842e-05
1.18253e-06
8.07621e-05
-2.0955e-06
7.31718e-05
-3.89991e-06
6.61898e-05
-4.98234e-06
5.97037e-05
-4.7488e-06
5.27885e-05
-3.03648e-06
4.67322e-05
2.18432e-08
4.16932e-05
4.77176e-06
3.8451e-05
1.07344e-05
4.05833e-05
6.16857e-06
6.47492e-05
-2.80834e-05
0.000131451
-8.96628e-06
0.000131377
5.11898e-06
0.000130522
6.91746e-06
0.000137433
8.02116e-06
0.000142811
9.64315e-06
0.000145646
9.52941e-06
0.000147248
1.63358e-06
0.000142897
-8.94092e-06
0.000135448
-1.70904e-05
0.000126523
-2.15472e-05
0.000118798
-2.18909e-05
0.000114718
-1.86001e-05
0.000112097
-1.23406e-05
0.000111832
0.00011604
4.04648e-06
9.15846e-05
9.75026e-06
9.12209e-05
1.17091e-05
9.77646e-05
1.21218e-05
9.93336e-05
1.19549e-05
9.1353e-05
7.93739e-06
8.1085e-05
1.97269e-06
7.34616e-05
-3.09705e-06
6.70373e-05
-5.62804e-06
5.92629e-05
-5.49078e-06
5.07479e-05
-3.93918e-06
4.35263e-05
-1.54544e-06
3.74679e-05
2.56309e-06
3.34143e-05
8.2202e-06
3.52255e-05
-1.39497e-06
7.14655e-05
-1.23754e-05
0.000129763
9.528e-06
0.000117896
1.33831e-05
0.000130401
1.38446e-05
0.000138098
1.49727e-05
0.000142749
1.55917e-05
0.000147498
1.40208e-05
0.000152518
7.47354e-06
0.00015272
-4.68845e-06
0.000149011
-1.52602e-05
0.00013712
-1.94896e-05
0.000122571
-1.91155e-05
0.000113863
-1.6157e-05
0.00010859
-1.06551e-05
0.000106368
0.000106749
1.36986e-06
9.69432e-05
-1.02329e-06
9.90587e-05
3.60015e-06
0.000100377
6.15759e-06
0.000100282
8.61778e-06
9.14303e-05
9.03069e-06
8.17692e-05
5.76496e-06
7.43277e-05
2.41995e-07
6.79477e-05
-3.84557e-06
5.94517e-05
-4.58392e-06
4.93098e-05
-3.7319e-06
4.09109e-05
-2.45925e-06
3.41862e-05
-1.08511e-08
2.98071e-05
4.17812e-06
3.20987e-05
-7.06097e-06
8.31822e-05
1.44721e-05
0.000129102
1.86024e-05
0.000114893
1.73858e-05
0.000127866
2.25838e-05
0.000132637
2.75421e-05
0.00013942
2.90864e-05
0.000148167
2.48357e-05
0.000157849
1.35034e-05
0.000163264
-1.22411e-06
0.000161799
-1.92572e-05
0.00015152
-2.22953e-05
0.000124476
-1.93884e-05
0.000111041
-1.49476e-05
0.000103768
-8.89099e-06
0.000100188
9.82257e-05
-5.0857e-07
0.000102154
-6.26954e-06
0.000107491
-4.17588e-06
0.000102921
1.8428e-06
0.000100025
5.70949e-06
9.13728e-05
7.19675e-06
8.21908e-05
7.02402e-06
7.51989e-05
4.15469e-06
6.92734e-05
-6.43265e-07
6.12988e-05
-2.55495e-06
4.92977e-05
-2.49008e-06
3.92635e-05
-2.31471e-06
3.21022e-05
-2.13676e-06
2.83722e-05
7.27246e-07
3.13895e-05
1.03701e-05
7.95048e-05
2.73006e-05
0.000132152
3.04779e-05
0.000134738
2.65393e-05
0.000122078
3.82103e-05
0.00012237
4.56243e-05
0.000136652
4.59277e-05
0.000151259
3.64223e-05
0.000166221
1.84709e-05
0.000173613
6.23014e-06
0.000166888
-2.44433e-05
0.000171964
-2.70791e-05
0.000123166
-2.20535e-05
0.000105072
-1.5205e-05
9.70098e-05
-8.10735e-06
9.30304e-05
9.02632e-05
-1.87883e-06
0.000104349
-7.44393e-06
0.000110454
-5.61393e-06
0.000101189
1.36308e-07
9.59414e-05
4.09243e-06
8.82946e-05
6.06189e-06
8.02874e-05
7.16929e-06
7.37944e-05
6.29788e-06
6.88919e-05
1.71143e-06
6.33673e-05
-4.57163e-07
4.99995e-05
-2.66577e-07
3.78202e-05
-6.95548e-08
3.02287e-05
-7.0549e-07
2.80525e-05
-2.63435e-08
3.23472e-05
3.00193e-05
6.17812e-05
4.30158e-05
0.000117882
4.23192e-05
0.000149155
4.82591e-05
0.000133242
6.13785e-05
0.000118393
6.67265e-05
0.00014113
5.87728e-05
0.000161813
3.7296e-05
0.00018167
1.8651e-05
0.000181138
9.92281e-06
0.000176118
-1.89481e-05
0.000191346
-2.86486e-05
0.000127504
-2.41022e-05
9.84929e-05
-1.59168e-05
8.88965e-05
-7.96697e-06
8.51709e-05
8.24116e-05
-3.20883e-06
0.000105321
-4.71089e-06
0.000108636
-1.99894e-06
9.67671e-05
1.39396e-06
9.18574e-05
4.1319e-06
8.50937e-05
6.54138e-06
7.75113e-05
8.45377e-06
7.10009e-05
8.69327e-06
6.67238e-05
4.23814e-06
6.45694e-05
1.60457e-06
5.11943e-05
2.97348e-06
3.55538e-05
5.00088e-06
2.68573e-05
5.84029e-06
2.57511e-05
6.47996e-06
3.1131e-05
2.54452e-05
4.7899e-05
5.26385e-05
9.78488e-05
5.08555e-05
0.000147488
6.85848e-05
0.00014218
8.56992e-05
0.00012432
8.52752e-05
0.000155876
5.87211e-05
0.000185623
1.98561e-05
0.000207877
7.89852e-06
0.000189018
9.54176e-07
0.000187229
-1.00741e-05
0.000204584
-2.84084e-05
0.00014172
-2.37621e-05
9.1511e-05
-1.6197e-05
8.05989e-05
-8.01311e-06
7.69538e-05
7.44047e-05
1.14561e-07
0.000103049
4.26953e-06
0.00010404
4.76566e-06
9.67417e-05
4.94204e-06
9.10975e-05
5.36959e-06
8.41586e-05
6.69023e-06
7.63741e-05
9.14614e-06
6.85059e-05
1.1221e-05
6.30026e-05
8.37207e-06
6.32044e-05
3.98147e-06
5.32295e-05
6.93598e-06
3.20519e-05
1.13626e-05
2.13408e-05
1.44911e-05
2.09545e-05
1.75817e-05
2.65972e-05
2.47147e-05
3.98626e-05
5.21036e-05
7.60088e-05
6.83597e-05
0.000133063
8.86409e-05
0.00014343
0.000110708
0.000141241
9.34171e-05
0.000176896
4.95105e-05
0.00021075
2.30711e-06
0.000231578
-1.39054e-05
0.000207011
-2.56436e-05
0.000205228
-2.58697e-05
0.000216642
-2.91099e-05
0.00014486
-2.16762e-05
8.27873e-05
-1.54829e-05
7.27853e-05
-7.82404e-06
6.87504e-05
6.62946e-05
3.65848e-06
9.9197e-05
9.15722e-06
9.91123e-05
1.031e-05
9.52076e-05
9.95535e-06
9.09047e-05
8.69355e-06
8.58545e-05
6.30254e-06
7.96711e-05
6.43698e-06
6.91915e-05
1.02086e-05
5.97084e-05
1.07296e-05
6.00832e-05
8.15493e-06
5.43143e-05
1.20605e-05
2.87225e-05
1.77744e-05
1.47375e-05
2.27267e-05
1.4715e-05
2.82272e-05
1.95245e-05
3.64537e-05
3.01474e-05
5.51578e-05
5.59968e-05
8.9933e-05
0.000102411
0.00012139
0.00012083
0.000134114
0.000142245
0.000100002
0.000182389
4.73005e-05
0.000211206
-1.79608e-07
0.000235205
-4.19533e-05
0.000219312
-6.15825e-05
0.000220151
-5.43227e-05
0.00022128
-2.61089e-05
0.000136117
-1.85928e-05
7.8575e-05
-1.36742e-05
6.64986e-05
-7.07261e-06
6.14485e-05
5.87492e-05
2.12591e-06
9.69849e-05
7.60496e-06
9.43985e-05
1.03327e-05
9.29446e-05
1.10689e-05
9.09392e-05
9.77833e-06
8.70402e-05
4.85131e-06
8.23102e-05
8.64972e-07
7.28052e-05
3.64468e-06
6.03417e-05
9.20131e-06
5.51231e-05
1.3706e-05
5.07341e-05
1.8277e-05
2.91024e-05
2.38763e-05
1.0117e-05
2.93596e-05
8.51688e-06
3.63474e-05
1.07604e-05
4.74136e-05
1.7225e-05
6.85708e-05
3.20911e-05
0.000106701
6.03974e-05
0.000138508
7.73853e-05
0.000130755
0.0001092
8.69069e-05
0.000170696
3.76548e-05
0.000215339
-3.28485e-06
0.000235103
-5.37913e-05
0.000219321
-8.63273e-05
0.000213603
-7.38274e-05
0.000207118
-2.99486e-05
0.000119125
-2.11238e-05
7.18169e-05
-1.34922e-05
5.92494e-05
-6.60917e-06
5.40697e-05
5.1601e-05
-2.14401e-07
9.57955e-05
6.5434e-06
8.82406e-05
1.18863e-05
8.82957e-05
1.4604e-05
8.90691e-05
1.3747e-05
8.81686e-05
8.47071e-06
8.58455e-05
1.65064e-07
7.8619e-05
-3.15705e-06
6.54963e-05
2.8914e-06
5.34686e-05
1.252e-05
4.20966e-05
2.16959e-05
2.35773e-05
2.65442e-05
6.71359e-06
3.26181e-05
2.33923e-06
4.02408e-05
1.17089e-06
5.26499e-05
2.77311e-06
7.4282e-05
6.85581e-06
0.000107753
1.6274e-05
0.000129325
2.92765e-05
0.000106024
8.95281e-05
6.29976e-05
0.000177879
2.85484e-05
0.000229326
-1.1194e-06
0.000245417
-4.16344e-05
0.000230719
-7.97326e-05
0.000205148
-7.36719e-05
0.00017609
-4.15842e-05
9.56491e-05
-2.73295e-05
5.6493e-05
-1.55634e-05
4.78775e-05
-6.95789e-06
4.51175e-05
4.41201e-05
5.99316e-07
9.37194e-05
8.13808e-06
8.07277e-05
1.57803e-05
8.13661e-05
2.04787e-05
8.48457e-05
2.13246e-05
8.67433e-05
1.78316e-05
8.73197e-05
9.8378e-06
8.25849e-05
-3.57654e-07
7.32357e-05
1.44186e-06
5.39504e-05
1.07472e-05
3.43604e-05
2.08122e-05
1.76657e-05
2.45826e-05
2.68514e-06
3.12745e-05
-5.23346e-06
3.94321e-05
-8.61194e-06
5.06615e-05
-1.02112e-05
6.63267e-05
-1.20985e-05
8.53964e-05
-1.27058e-05
9.40198e-05
3.34194e-07
7.0515e-05
8.67264e-05
3.96648e-05
0.00019232
1.79612e-05
0.000243373
-3.64755e-06
0.000258984
-3.12923e-05
0.000246846
-6.32124e-05
0.000210517
-6.75596e-05
0.000150493
-4.80125e-05
6.67575e-05
-3.12201e-05
3.4635e-05
-1.69381e-05
3.40109e-05
-7.09569e-06
3.51834e-05
3.64226e-05
4.3803e-06
8.86297e-05
1.29016e-05
7.24585e-05
2.08293e-05
7.36947e-05
2.62731e-05
7.87448e-05
2.92106e-05
8.19938e-05
2.81402e-05
8.48802e-05
2.42039e-05
8.29362e-05
1.10572e-05
7.98405e-05
-6.32894e-07
6.34732e-05
5.93141e-06
2.97705e-05
1.42591e-05
1.02667e-05
1.96002e-05
-2.81006e-06
2.71494e-05
-1.37119e-05
3.55391e-05
-1.79978e-05
4.44807e-05
-2.06306e-05
5.38237e-05
-2.40215e-05
6.13028e-05
-2.72979e-05
6.22562e-05
-1.27283e-05
3.84216e-05
9.53344e-05
1.95278e-05
0.000204232
5.65008e-06
0.000253716
-1.01612e-05
0.000270762
-3.02016e-05
0.000261883
-5.23444e-05
0.00022128
-5.84363e-05
0.000136968
-4.0886e-05
4.19406e-05
-2.78589e-05
1.72539e-05
-1.5465e-05
2.2696e-05
-6.50769e-06
2.59728e-05
2.90722e-05
8.34191e-06
7.98017e-05
1.72555e-05
6.45349e-05
2.47422e-05
6.5979e-05
3.09389e-05
7.09264e-05
3.6597e-05
7.42624e-05
3.96182e-05
7.86339e-05
3.59772e-05
8.31006e-05
2.68009e-05
8.47061e-05
-2.67706e-06
8.71834e-05
-4.77137e-06
3.63197e-05
6.33255e-06
-9.4973e-07
1.29983e-05
-9.78936e-06
2.21021e-05
-2.28874e-05
3.02924e-05
-2.69136e-05
3.71936e-05
-2.90302e-05
4.26308e-05
-3.16233e-05
4.47617e-05
-3.42138e-05
3.85722e-05
-1.36257e-05
1.47454e-05
0.000108585
5.03709e-06
0.000211852
-3.21991e-06
0.000260122
-1.41326e-05
0.000279364
-2.82839e-05
0.000273248
-4.19723e-05
0.000229629
-4.40922e-05
0.000130387
-2.76914e-05
2.61053e-05
-2.17248e-05
8.98353e-06
-1.40307e-05
1.50353e-05
-6.23635e-06
1.80453e-05
2.18026e-05
1.07216e-05
6.88278e-05
1.95054e-05
5.68307e-05
2.71095e-05
5.74764e-05
3.51363e-05
6.08231e-05
4.2238e-05
6.4142e-05
4.68809e-05
6.77097e-05
3.23215e-05
8.57603e-05
1.04524e-05
0.000104583
-2.78257e-05
0.00010038
-2.59146e-05
2.20413e-05
-5.28226e-07
-2.04093e-05
7.12892e-06
-1.60442e-05
1.72525e-05
-3.1678e-05
2.49234e-05
-3.48178e-05
3.01314e-05
-3.59168e-05
3.36467e-05
-3.71742e-05
3.46664e-05
-3.88114e-05
2.08493e-05
-3.37544e-06
1.5207e-06
0.000120518
-1.69457e-06
0.000214681
-5.28978e-06
0.000262697
-1.11767e-05
0.000284027
-1.87773e-05
0.000279585
-2.57803e-05
0.000234328
-2.72514e-05
0.000128416
-2.13042e-05
1.94896e-05
-1.89303e-05
3.52671e-06
-1.48152e-05
9.53049e-06
-6.99065e-06
1.05699e-05
1.33788e-05
8.22561e-06
6.0886e-05
1.78954e-05
4.64817e-05
2.69795e-05
4.60265e-05
3.57147e-05
4.62991e-05
3.59214e-05
5.25293e-05
2.44755e-05
6.74929e-05
-1.00364e-05
0.000103358
-4.70142e-05
0.000118128
-5.21768e-05
8.58334e-05
-3.79415e-05
-3.6572e-06
-1.26147e-05
-4.43159e-05
-6.20032e-08
-3.64592e-05
1.15343e-05
-4.29336e-05
1.93912e-05
-4.22181e-05
2.3234e-05
-4.16978e-05
2.54643e-05
-4.12148e-05
2.72809e-05
-4.1393e-05
1.05051e-05
9.19685e-06
-9.65474e-08
0.000127337
4.36712e-07
0.000214027
2.27469e-07
0.000262271
-9.90255e-07
0.000284656
-2.64216e-06
0.000280885
-4.22524e-06
0.000235649
-6.5767e-06
0.000131086
-1.71079e-05
3.09815e-05
-1.76603e-05
9.89455e-06
-1.63768e-05
6.3392e-06
-8.20079e-06
2.99943e-06
4.37611e-06
3.20643e-06
4.47565e-05
1.21955e-05
3.21573e-05
1.89688e-05
3.1244e-05
2.00094e-05
3.76227e-05
7.54589e-07
6.23452e-05
-3.94598e-05
9.15556e-05
-7.20422e-05
0.000117686
-7.87015e-05
0.000111644
-4.82297e-05
5.06624e-05
-1.93503e-05
-3.53378e-05
-1.2123e-05
-5.94605e-05
-1.36089e-06
-5.20449e-05
7.41696e-06
-5.21711e-05
1.40902e-05
-4.85866e-05
1.66327e-05
-4.62425e-05
1.7733e-05
-4.37487e-05
2.10942e-05
-3.57024e-05
5.78953e-06
1.67792e-05
5.12825e-06
0.000126438
9.19217e-06
0.000209807
1.22425e-05
0.000258738
1.51487e-05
0.000281457
1.79415e-05
0.000278003
2.04873e-05
0.000235066
1.61381e-05
0.000138689
-8.99873e-06
5.07482e-05
-2.76427e-05
2.07618e-05
-2.02852e-05
8.99596e-06
-8.63368e-06
-1.58548e-06
-2.59414e-06
-1.33617e-07
2.87818e-05
2.48515e-06
2.12138e-05
-6.65691e-06
3.33291e-05
-3.4295e-05
5.32709e-05
-6.65045e-05
8.05211e-05
-8.97783e-05
0.000106048
-9.29099e-05
0.000116532
-7.40507e-05
8.92698e-05
-3.58025e-05
1.16583e-05
-7.47848e-06
-6.22683e-05
-9.96498e-06
-6.86581e-05
-1.80976e-06
-6.28295e-05
4.64995e-06
-5.83814e-05
9.42761e-06
-5.33486e-05
1.11963e-05
-4.97305e-05
1.27253e-05
-4.64041e-05
1.29413e-05
-2.71948e-05
4.73614e-06
2.09336e-05
1.29804e-05
0.000118468
2.12725e-05
0.00020147
2.77148e-05
0.000251906
3.43337e-05
0.000274652
4.13897e-05
0.000271139
4.70404e-05
0.000231546
3.6775e-05
0.000147743
7.70966e-06
7.12393e-05
-1.48071e-05
3.39861e-05
-2.75301e-05
1.4053e-05
-1.57462e-05
-3.61579e-06
-6.71568e-06
-6.06654e-06
2.94452e-05
-2.64411e-05
3.37588e-05
-5.20094e-05
5.02383e-05
-7.64405e-05
7.2215e-05
-9.314e-05
9.43335e-05
-9.68475e-05
0.000108833
-8.46162e-05
0.000103489
-5.92521e-05
6.13899e-05
-2.7013e-05
-2.14199e-05
-6.05434e-06
-8.36122e-05
-9.14932e-06
-7.47059e-05
-3.14798e-06
-6.90266e-05
1.50194e-06
-6.25007e-05
4.64368e-06
-5.73904e-05
6.25742e-06
-5.24633e-05
8.63346e-06
-4.85321e-05
2.78855e-06
-1.85841e-05
1.95945e-06
2.1656e-05
1.8914e-05
0.000103735
3.18342e-05
0.00018848
4.18258e-05
0.000241589
5.11999e-05
0.000265184
6.05286e-05
0.000262198
6.52942e-05
0.000227624
5.12728e-05
0.000158973
2.59309e-05
9.217e-05
5.75969e-06
5.01138e-05
-2.05731e-05
2.91307e-05
-3.02998e-05
5.71919e-07
-3.23068e-05
-2.12478e-05
4.98534e-05
-4.57009e-05
5.6992e-05
-6.80034e-05
7.14412e-05
-8.41631e-05
8.79797e-05
-9.04797e-05
0.000100552
-8.5011e-05
0.000103293
-6.78976e-05
8.58538e-05
-4.49206e-05
3.61256e-05
-2.1798e-05
-4.52785e-05
-1.0153e-05
-9.6453e-05
-1.04457e-05
-7.79216e-05
-7.35525e-06
-7.31319e-05
-3.62024e-06
-6.67437e-05
-6.42972e-07
-6.08763e-05
8.41676e-07
-5.39041e-05
6.74638e-06
-4.66145e-05
-5.74917e-06
-9.74211e-06
-3.64282e-06
2.00192e-05
1.94025e-05
8.39555e-05
3.72362e-05
0.000170259
5.10139e-05
0.000227535
6.22546e-05
0.000253885
7.15421e-05
0.000253191
7.40655e-05
0.000225139
6.06076e-05
0.000170823
3.87771e-05
0.000112315
1.8349e-05
6.79526e-05
-7.82015e-07
4.39079e-05
-1.54875e-05
5.51924e-06
-4.61219e-05
-2.76157e-05
7.72724e-05
-4.98873e-05
7.91969e-05
-6.67382e-05
8.83281e-05
-7.6186e-05
9.74484e-05
-7.66588e-05
0.000101029
-6.75106e-05
9.41142e-05
-5.07025e-05
6.86687e-05
-3.29212e-05
1.6454e-05
-1.82202e-05
-6.01515e-05
-1.3792e-05
-0.000102046
-1.38967e-05
-7.99952e-05
-1.20045e-05
-7.61958e-05
-8.52804e-06
-7.04056e-05
-5.1429e-06
-6.36218e-05
-9.74098e-07
-5.63513e-05
2.67542e-06
-3.86521e-05
-1.02322e-05
-1.7298e-06
-9.13633e-06
1.82022e-05
1.37383e-05
6.32783e-05
3.67826e-05
0.00014673
5.43828e-05
0.000209532
6.71275e-05
0.000240979