/*--------------------------------*- C++ -*----------------------------------*\
| =========                 |                                                 |
| \\      /  F ield         | OpenFOAM: The Open Source CFD Toolbox           |
|  \\    /   O peration     | Version:  v1606+                                |
|   \\  /    A nd           | Web:      www.OpenFOAM.com                      |
|    \\/     M anipulation  |                                                 |
\*---------------------------------------------------------------------------*/
FoamFile
{
    version     2.0;
    format      ascii;
    class       volVectorField;
    location    "0.91";
    object      U.air;
}
// * * * * * * * * * * * * * * * * * * * * * * * * * * * * * * * * * * * * * //

dimensions      [0 1 -1 0 0 0 0];

internalField   nonuniform List<vector> 
6000
(
(-0.0771541 0.29956 0)
(-0.0848796 0.265813 0)
(-0.0214809 0.293408 0)
(-0.0111503 0.297831 0)
(-0.0205096 0.289857 0)
(-0.0519878 0.281313 0)
(-0.0839875 0.244078 0)
(-0.115029 0.207983 0)
(-0.1235 0.210579 0)
(-0.0931714 0.187809 0)
(-0.0488513 0.161064 0)
(-0.0112868 0.152813 0)
(0.00979357 0.159386 0)
(0.020547 0.174425 0)
(0.037907 0.184797 0)
(0.058904 0.187843 0)
(0.0693383 0.182354 0)
(0.0677615 0.16971 0)
(0.0710619 0.15673 0)
(0.0929536 0.155817 0)
(0.122136 0.172468 0)
(0.148679 0.20113 0)
(0.156938 0.207322 0)
(0.149816 0.234052 0)
(0.129701 0.280552 0)
(0.101617 0.291102 0)
(0.0835973 0.306423 0)
(0.0786353 0.292633 0)
(0.127885 0.262577 0)
(0.0981629 0.293304 0)
(0.0235046 1.09085 0)
(0.0438936 0.888005 0)
(0.0965947 0.947424 0)
(0.113694 1.02382 0)
(0.0839527 1.08793 0)
(-0.00530171 1.13777 0)
(-0.124306 1.15581 0)
(-0.216371 1.11975 0)
(-0.216989 1.00611 0)
(-0.13894 0.95606 0)
(-0.0565187 0.973933 0)
(0.0120565 1.00592 0)
(0.0587843 1.04084 0)
(0.079142 1.05279 0)
(0.081672 1.0498 0)
(0.0709471 1.06117 0)
(0.053156 1.07134 0)
(0.0441833 1.07449 0)
(0.0574638 1.04097 0)
(0.0934737 1.00781 0)
(0.153881 0.989545 0)
(0.233408 0.996625 0)
(0.271438 1.06734 0)
(0.222999 1.14197 0)
(0.113184 1.15162 0)
(-0.00160983 1.11694 0)
(-0.0569342 1.05556 0)
(-0.0629848 0.980115 0)
(-0.0280128 0.909653 0)
(-0.0175937 1.1429 0)
(0.0899859 0.776659 0)
(0.162142 0.65146 0)
(0.204609 0.709277 0)
(0.207107 0.805583 0)
(0.141007 0.895551 0)
(0.0268076 0.982894 0)
(-0.133028 0.981231 0)
(-0.23205 0.860803 0)
(-0.189115 0.700875 0)
(-0.0895451 0.621937 0)
(0.00358081 0.62567 0)
(0.07659 0.666899 0)
(0.124161 0.743157 0)
(0.14032 0.825232 0)
(0.120531 0.877973 0)
(0.0661157 0.911924 0)
(0.011936 0.896577 0)
(-0.0159098 0.834947 0)
(-0.00864831 0.750933 0)
(0.0311155 0.685403 0)
(0.102214 0.649706 0)
(0.214462 0.667204 0)
(0.304658 0.79233 0)
(0.243925 0.937665 0)
(0.077481 1.00478 0)
(-0.0819386 0.936319 0)
(-0.178031 0.85578 0)
(-0.197741 0.747881 0)
(-0.163407 0.675109 0)
(-0.0916163 0.81376 0)
(0.0740777 0.636138 0)
(0.163841 0.587371 0)
(0.242926 0.6596 0)
(0.278123 0.827502 0)
(0.229021 0.981537 0)
(0.153485 1.08925 0)
(0.0550713 1.15113 0)
(-0.0504412 0.929495 0)
(-0.0863584 0.714827 0)
(-0.0178717 0.63273 0)
(0.0848651 0.689547 0)
(0.164834 0.779947 0)
(0.22313 0.880308 0)
(0.232667 0.951248 0)
(0.173968 0.984741 0)
(0.0762657 1.01861 0)
(-0.0222721 1.01738 0)
(-0.0949195 0.995245 0)
(-0.10354 0.890847 0)
(-0.0505429 0.780409 0)
(0.0346277 0.692892 0)
(0.147456 0.653814 0)
(0.174422 0.838501 0)
(0.0414523 1.10702 0)
(-0.114731 1.16836 0)
(-0.218828 1.05813 0)
(-0.286359 0.89753 0)
(-0.254338 0.703648 0)
(-0.15981 0.606994 0)
(-0.0716922 0.679115 0)
(0.0363907 0.529485 0)
(0.112682 0.459957 0)
(0.211393 0.53496 0)
(0.284742 0.746505 0)
(0.29035 0.948555 0)
(0.244009 1.04016 0)
(0.225472 1.11735 0)
(0.162091 0.973976 0)
(0.0799014 0.685414 0)
(0.0935795 0.538417 0)
(0.172306 0.609472 0)
(0.231629 0.683562 0)
(0.239332 0.74721 0)
(0.22088 0.847683 0)
(0.185004 0.949367 0)
(0.135777 1.00206 0)
(0.06293 0.988553 0)
(-0.0254077 0.915325 0)
(-0.108069 0.805604 0)
(-0.133178 0.725482 0)
(-0.049954 0.60833 0)
(0.0113494 0.567145 0)
(-0.0541693 0.893386 0)
(-0.203494 1.17732 0)
(-0.270962 1.12431 0)
(-0.316969 1.01892 0)
(-0.322206 0.815792 0)
(-0.231711 0.558623 0)
(-0.105324 0.457938 0)
(-0.0317404 0.580162 0)
(0.0275008 0.478204 0)
(0.0678736 0.393737 0)
(0.126673 0.454312 0)
(0.218995 0.680539 0)
(0.295582 0.961181 0)
(0.284169 1.05905 0)
(0.269542 1.09786 0)
(0.295856 0.974236 0)
(0.28568 0.70769 0)
(0.241222 0.500182 0)
(0.203456 0.515152 0)
(0.16793 0.616514 0)
(0.150193 0.758432 0)
(0.16301 0.866423 0)
(0.20788 0.929787 0)
(0.276344 0.977528 0)
(0.30781 1.03652 0)
(0.253581 1.02591 0)
(0.131678 0.883517 0)
(-0.00148221 0.666298 0)
(-0.087242 0.524169 0)
(-0.184866 0.607325 0)
(-0.304034 0.964089 0)
(-0.331942 1.18554 0)
(-0.336942 1.13882 0)
(-0.366836 1.04648 0)
(-0.2946 0.738711 0)
(-0.168562 0.445464 0)
(-0.0815553 0.369367 0)
(-0.0342117 0.529171 0)
(0.01552 0.461766 0)
(0.0159998 0.387022 0)
(0.0180435 0.409182 0)
(0.0756822 0.575665 0)
(0.206368 0.879571 0)
(0.268345 1.06488 0)
(0.258798 1.07097 0)
(0.304705 0.917367 0)
(0.345823 0.692195 0)
(0.307648 0.556008 0)
(0.202022 0.585889 0)
(0.0862393 0.670168 0)
(0.0660132 0.618063 0)
(0.122161 0.629898 0)
(0.21304 0.656877 0)
(0.326714 0.712268 0)
(0.424688 0.824025 0)
(0.452623 0.901551 0)
(0.403952 0.913835 0)
(0.23113 0.873657 0)
(-0.0362482 0.68451 0)
(-0.28079 0.744472 0)
(-0.406559 0.979927 0)
(-0.378064 1.15819 0)
(-0.36723 1.13488 0)
(-0.335887 0.991426 0)
(-0.177718 0.595167 0)
(-0.0837141 0.364711 0)
(-0.0539603 0.339328 0)
(-0.0359052 0.479007 0)
(0.00556312 0.47608 0)
(-0.0278984 0.432124 0)
(-0.0721593 0.4337 0)
(-0.0732389 0.51611 0)
(0.0242434 0.752931 0)
(0.15173 1.02845 0)
(0.184906 1.05498 0)
(0.194045 0.871462 0)
(0.202267 0.666115 0)
(0.165988 0.586586 0)
(0.108154 0.626321 0)
(0.057918 0.563425 0)
(0.0683202 0.521667 0)
(0.150494 0.564574 0)
(0.279731 0.59222 0)
(0.379669 0.606343 0)
(0.459455 0.74552 0)
(0.47591 0.863632 0)
(0.441212 0.910095 0)
(0.335979 0.914982 0)
(0.121427 0.885722 0)
(-0.160057 0.927113 0)
(-0.310078 0.995302 0)
(-0.334173 1.13014 0)
(-0.326944 1.11524 0)
(-0.194865 0.84305 0)
(-0.0460593 0.474213 0)
(-0.00505789 0.348213 0)
(-0.0242579 0.351822 0)
(-0.0272497 0.449749 0)
(-0.00925863 0.502189 0)
(-0.0625047 0.49776 0)
(-0.132783 0.502139 0)
(-0.181518 0.538739 0)
(-0.15601 0.67602 0)
(-0.0483735 0.951546 0)
(0.0318243 1.04855 0)
(0.0346604 0.865282 0)
(0.0210549 0.681354 0)
(0.0124744 0.592446 0)
(0.0189195 0.628546 0)
(0.0355905 0.635146 0)
(0.0559422 0.525306 0)
(0.143037 0.43475 0)
(0.292578 0.44892 0)
(0.427441 0.536271 0)
(0.525799 0.740422 0)
(0.515244 0.885902 0)
(0.448442 0.974306 0)
(0.350632 1.01091 0)
(0.223399 1.04639 0)
(0.0459568 1.09871 0)
(-0.109642 1.06593 0)
(-0.205468 1.13588 0)
(-0.18224 1.04439 0)
(-0.0233101 0.678527 0)
(0.0624785 0.431979 0)
(0.0494435 0.377111 0)
(0.00606805 0.378997 0)
(-0.0145943 0.429263 0)
(-0.022121 0.547682 0)
(-0.0893229 0.574968 0)
(-0.176251 0.594304 0)
(-0.255838 0.61565 0)
(-0.285768 0.690636 0)
(-0.237534 0.903067 0)
(-0.141888 1.03377 0)
(-0.0877501 0.863607 0)
(-0.0485298 0.685023 0)
(-0.0244523 0.595702 0)
(0.0193667 0.598554 0)
(0.0790353 0.623553 0)
(0.125234 0.532059 0)
(0.134159 0.411046 0)
(0.203239 0.361036 0)
(0.321198 0.408602 0)
(0.479409 0.655735 0)
(0.525914 0.900635 0)
(0.455766 1.03878 0)
(0.374245 1.11258 0)
(0.300765 1.12311 0)
(0.237683 1.20409 0)
(0.121844 1.17525 0)
(0.00506263 1.18145 0)
(0.024056 0.968879 0)
(0.10932 0.587449 0)
(0.13745 0.45487 0)
(0.0912853 0.429318 0)
(0.0364005 0.416209 0)
(-0.000992829 0.425138 0)
(-0.025631 0.611513 0)
(-0.099691 0.666702 0)
(-0.199631 0.700007 0)
(-0.303035 0.72208 0)
(-0.37408 0.766754 0)
(-0.370224 0.911787 0)
(-0.251885 0.995678 0)
(-0.110753 0.854627 0)
(-0.0180852 0.713137 0)
(0.0367516 0.651052 0)
(0.0720629 0.654063 0)
(0.135884 0.655915 0)
(0.208065 0.572612 0)
(0.2415 0.460798 0)
(0.230179 0.416425 0)
(0.199586 0.392712 0)
(0.272062 0.526385 0)
(0.466651 0.916599 0)
(0.463302 1.0938 0)
(0.404902 1.13959 0)
(0.381542 1.13522 0)
(0.400133 1.24979 0)
(0.357042 1.26906 0)
(0.27139 1.25913 0)
(0.242221 0.965421 0)
(0.224439 0.594811 0)
(0.204437 0.509366 0)
(0.139727 0.494878 0)
(0.0704358 0.46729 0)
(0.015697 0.445384 0)
(-0.0133804 0.676869 0)
(-0.086404 0.774667 0)
(-0.20346 0.810632 0)
(-0.317932 0.837593 0)
(-0.411968 0.870208 0)
(-0.422843 0.935355 0)
(-0.254339 0.936766 0)
(-0.0575991 0.807885 0)
(0.0631502 0.678174 0)
(0.119538 0.655169 0)
(0.151051 0.668097 0)
(0.199852 0.65883 0)
(0.247368 0.609031 0)
(0.247114 0.569033 0)
(0.194985 0.551761 0)
(0.128073 0.526149 0)
(0.135655 0.535062 0)
(0.154322 0.844422 0)
(0.359259 1.16657 0)
(0.414063 1.22697 0)
(0.451531 1.19978 0)
(0.514909 1.23819 0)
(0.561778 1.31764 0)
(0.553576 1.35005 0)
(0.482812 1.06859 0)
(0.365907 0.695261 0)
(0.293282 0.591785 0)
(0.203476 0.578734 0)
(0.110035 0.545387 0)
(0.0306842 0.500791 0)
(0.00187975 0.701181 0)
(-0.0489905 0.89744 0)
(-0.184055 0.947607 0)
(-0.294639 0.96354 0)
(-0.387555 0.964945 0)
(-0.357636 0.894818 0)
(-0.172016 0.809182 0)
(0.00384773 0.752817 0)
(0.085387 0.710457 0)
(0.113024 0.708832 0)
(0.141146 0.721216 0)
(0.175432 0.705414 0)
(0.195831 0.665229 0)
(0.184687 0.642307 0)
(0.13782 0.647457 0)
(0.0466952 0.674081 0)
(-0.0392484 0.714812 0)
(0.0105367 0.842694 0)
(0.0950351 1.13413 0)
(0.276397 1.21178 0)
(0.401859 1.17618 0)
(0.518499 1.20474 0)
(0.633168 1.32811 0)
(0.722716 1.42222 0)
(0.70709 1.233 0)
(0.542665 0.879222 0)
(0.40619 0.720211 0)
(0.285193 0.687482 0)
(0.154728 0.663515 0)
(0.0401073 0.595104 0)
(-0.0113596 0.687836 0)
(-0.0261472 0.925365 0)
(-0.108224 0.988948 0)
(-0.218805 1.01201 0)
(-0.31236 0.990187 0)
(-0.246002 0.795033 0)
(-0.114135 0.724015 0)
(-0.00794676 0.697482 0)
(0.0544806 0.678817 0)
(0.088024 0.677486 0)
(0.120265 0.685812 0)
(0.149334 0.677678 0)
(0.160092 0.66281 0)
(0.147391 0.670649 0)
(0.110431 0.707274 0)
(0.045894 0.773716 0)
(-0.0521801 0.864991 0)
(-0.118922 1.03778 0)
(-0.0371896 1.19673 0)
(0.111824 1.2339 0)
(0.209649 1.18467 0)
(0.312126 1.18188 0)
(0.455431 1.28199 0)
(0.64235 1.42239 0)
(0.765689 1.38311 0)
(0.688148 1.10162 0)
(0.520012 0.890491 0)
(0.387599 0.815625 0)
(0.208806 0.835066 0)
(0.0511579 0.702208 0)
(-0.0162623 0.678739 0)
(-0.0148713 0.930683 0)
(-0.00199018 1.03113 0)
(-0.0641008 1.09131 0)
(-0.123807 0.986202 0)
(-0.106901 0.711927 0)
(-0.0579093 0.644282 0)
(-0.0019823 0.634935 0)
(0.0433001 0.634728 0)
(0.0762103 0.642866 0)
(0.103306 0.654783 0)
(0.126515 0.657398 0)
(0.138473 0.662042 0)
(0.137109 0.690523 0)
(0.124178 0.750425 0)
(0.0962175 0.848398 0)
(0.0302891 0.99016 0)
(-0.0765 1.19375 0)
(-0.129258 1.36662 0)
(-0.0753212 1.41663 0)
(-0.00272709 1.3485 0)
(0.0560582 1.27577 0)
(0.154139 1.26901 0)
(0.328462 1.31244 0)
(0.570295 1.33808 0)
(0.662094 1.23925 0)
(0.573458 1.06008 0)
(0.446732 0.951279 0)
(0.240862 1.02091 0)
(0.113463 0.826159 0)
(-0.011258 0.755477 0)
(-0.0438362 0.88915 0)
(0.0437542 1.04204 0)
(0.104218 1.11374 0)
(0.152138 1.02349 0)
(0.0858154 0.746707 0)
(0.0147717 0.627812 0)
(0.0166339 0.610553 0)
(0.0398255 0.61019 0)
(0.0641024 0.617417 0)
(0.0872765 0.628176 0)
(0.109267 0.636688 0)
(0.127796 0.652573 0)
(0.143861 0.69261 0)
(0.160071 0.763133 0)
(0.172819 0.880588 0)
(0.135256 1.08121 0)
(-0.00120532 1.33225 0)
(-0.144449 1.45419 0)
(-0.17873 1.49135 0)
(-0.151322 1.43945 0)
(-0.103146 1.3586 0)
(-0.0400041 1.30913 0)
(0.0732851 1.26999 0)
(0.23551 1.21966 0)
(0.426907 1.18722 0)
(0.480538 1.13644 0)
(0.333701 1.07179 0)
(0.200837 1.13509 0)
(0.0768369 0.949232 0)
(-0.027079 0.866166 0)
(-0.0860041 0.949178 0)
(-0.0508417 1.01665 0)
(0.0782032 1.03319 0)
(0.21266 0.98467 0)
(0.208298 0.860874 0)
(0.0848564 0.677182 0)
(0.0373275 0.612742 0)
(0.0362424 0.598001 0)
(0.0504409 0.597802 0)
(0.0701236 0.603722 0)
(0.0934699 0.612174 0)
(0.119583 0.631201 0)
(0.151696 0.672042 0)
(0.194412 0.739799 0)
(0.240621 0.859126 0)
(0.191101 1.15203 0)
(0.0245582 1.41708 0)
(-0.142119 1.46666 0)
(-0.229416 1.46958 0)
(-0.248907 1.40289 0)
(-0.214593 1.33706 0)
(-0.161502 1.2882 0)
(-0.0920723 1.22779 0)
(0.000208527 1.1466 0)
(0.112833 1.06667 0)
(0.264246 1.14594 0)
(0.210085 1.19907 0)
(0.125288 1.17519 0)
(0.0470969 1.02462 0)
(-0.0164147 0.977199 0)
(-0.0948291 1.07285 0)
(-0.113872 1.04672 0)
(-0.0206936 1.01576 0)
(0.0822738 0.934826 0)
(0.14755 0.898588 0)
(0.124637 0.735065 0)
(0.056887 0.636986 0)
(0.030663 0.59692 0)
(0.0336534 0.583802 0)
(0.0496353 0.580813 0)
(0.0739129 0.584233 0)
(0.104876 0.600188 0)
(0.146001 0.634844 0)
(0.196027 0.694833 0)
(0.227675 0.816708 0)
(0.171874 1.26728 0)
(0.0327933 1.49692 0)
(-0.104341 1.48839 0)
(-0.199928 1.43727 0)
(-0.249589 1.33668 0)
(-0.259961 1.27524 0)
(-0.230298 1.23825 0)
(-0.197468 1.18663 0)
(-0.170269 1.11038 0)
(-0.139177 1.0249 0)
(-0.0478426 1.04871 0)
(0.0542287 1.26751 0)
(0.0940889 1.22282 0)
(0.0468055 1.10824 0)
(-0.0153586 1.0123 0)
(-0.0705809 1.15253 0)
(-0.0998419 1.04156 0)
(-0.0717309 0.989051 0)
(-0.0248746 0.892989 0)
(0.0423668 0.854506 0)
(0.0738495 0.756699 0)
(0.0552239 0.661776 0)
(0.0213356 0.601492 0)
(0.0141211 0.572744 0)
(0.025885 0.558343 0)
(0.0493713 0.554152 0)
(0.0832015 0.563053 0)
(0.12736 0.592651 0)
(0.16603 0.65773 0)
(0.145448 0.817334 0)
(0.0536844 1.31688 0)
(-0.0925293 1.502 0)
(-0.130726 1.46759 0)
(-0.102782 1.37929 0)
(-0.144317 1.2797 0)
(-0.20136 1.22225 0)
(-0.232168 1.19601 0)
(-0.240906 1.16744 0)
(-0.253467 1.11512 0)
(-0.278775 1.05641 0)
(-0.264005 1.06199 0)
(-0.159312 1.21441 0)
(0.0116487 1.19992 0)
(0.0440043 1.24523 0)
(-0.0259541 1.02419 0)
(-0.00669759 1.14549 0)
(0.00333379 1.01963 0)
(-0.0261509 0.979064 0)
(-0.0442806 0.885682 0)
(-0.0213418 0.820921 0)
(0.0140285 0.74774 0)
(0.0181151 0.670887 0)
(0.003026 0.605223 0)
(-0.00696467 0.56216 0)
(0.000776462 0.535398 0)
(0.0240082 0.520775 0)
(0.0614549 0.520026 0)
(0.110443 0.54868 0)
(0.143802 0.638064 0)
(0.0687231 0.898308 0)
(-0.111092 1.42367 0)
(-0.204395 1.54104 0)
(-0.0865469 1.38505 0)
(0.0160372 1.3643 0)
(0.0111312 1.32055 0)
(-0.0631579 1.24023 0)
(-0.15359 1.18925 0)
(-0.211815 1.16752 0)
(-0.256192 1.13656 0)
(-0.296604 1.10715 0)
(-0.321193 1.11614 0)
(-0.247085 1.19837 0)
(-0.10687 1.17037 0)
(-0.0485664 1.29453 0)
(0.0125902 0.991784 0)
(0.0736328 1.04342 0)
(0.12965 1.01629 0)
(0.0719501 1.01383 0)
(0.0103921 0.90194 0)
(-0.0240051 0.801089 0)
(-0.0226537 0.731699 0)
(-0.0182551 0.667551 0)
(-0.0243817 0.605211 0)
(-0.0294246 0.550617 0)
(-0.0224357 0.510618 0)
(0.00149146 0.482248 0)
(0.04271 0.469462 0)
(0.0974788 0.497469 0)
(0.126719 0.627655 0)
(-0.0297371 1.06028 0)
(-0.212239 1.50957 0)
(-0.160266 1.40055 0)
(-0.0195939 1.33244 0)
(0.0495196 1.35564 0)
(0.0933252 1.36712 0)
(0.057556 1.35114 0)
(-0.0345569 1.26058 0)
(-0.126727 1.20804 0)
(-0.199517 1.16973 0)
(-0.249104 1.14212 0)
(-0.271129 1.14482 0)
(-0.235908 1.17707 0)
(-0.160086 1.18344 0)
(-0.0789875 1.2653 0)
(0.0275131 0.932789 0)
(0.100313 0.957402 0)
(0.128829 0.991325 0)
(0.121447 1.01286 0)
(0.0918893 0.92056 0)
(0.0439099 0.797608 0)
(-0.00725636 0.722966 0)
(-0.0321637 0.660589 0)
(-0.0462571 0.599407 0)
(-0.0496625 0.536021 0)
(-0.0408024 0.482438 0)
(-0.0165292 0.439235 0)
(0.0248855 0.413509 0)
(0.0818714 0.438307 0)
(0.0916774 0.633508 0)
(-0.130388 1.2036 0)
(-0.173649 1.40552 0)
(-0.0150004 1.33051 0)
(0.0620173 1.36005 0)
(0.0765541 1.40704 0)
(0.0918351 1.42649 0)
(0.0990603 1.42699 0)
(0.0515003 1.37097 0)
(-0.0406958 1.29862 0)
(-0.132776 1.22765 0)
(-0.19489 1.17097 0)
(-0.217923 1.14824 0)
(-0.202061 1.13745 0)
(-0.155982 1.14365 0)
(-0.0736199 1.2073 0)
(0.0277784 0.918328 0)
(0.064578 0.921551 0)
(0.108161 1.00035 0)
(0.122255 1.00356 0)
(0.122178 0.92004 0)
(0.0921324 0.815893 0)
(0.0523969 0.730339 0)
(-0.00754313 0.662283 0)
(-0.0454067 0.593264 0)
(-0.0565136 0.517384 0)
(-0.0491069 0.451397 0)
(-0.0286283 0.396092 0)
(0.00718367 0.360067 0)
(0.060093 0.379812 0)
(0.0197429 0.681366 0)
(-0.0690468 1.38238 0)
(-0.00136244 1.23703 0)
(0.113939 1.3011 0)
(0.136049 1.37851 0)
(0.145827 1.42839 0)
(0.155863 1.46537 0)
(0.15098 1.49636 0)
(0.10879 1.47589 0)
(0.0113333 1.42031 0)
(-0.104291 1.31737 0)
(-0.177119 1.20724 0)
(-0.194693 1.14345 0)
(-0.17651 1.10364 0)
(-0.134308 1.09 0)
(-0.0578908 1.11141 0)
(0.0117356 0.941337 0)
(0.000766402 0.94761 0)
(0.0104671 0.99248 0)
(0.0466841 1.00576 0)
(0.073774 0.921759 0)
(0.0878527 0.822063 0)
(0.0720346 0.748372 0)
(0.0276706 0.679089 0)
(-0.0177355 0.594354 0)
(-0.0419971 0.500447 0)
(-0.0435653 0.422471 0)
(-0.0320605 0.35866 0)
(-0.0105244 0.316442 0)
(0.0257984 0.33725 0)
(-0.0264555 0.778398 0)
(0.0483583 1.34928 0)
(0.15854 1.14608 0)
(0.179453 1.28413 0)
(0.2022 1.36024 0)
(0.254962 1.41764 0)
(0.287371 1.4818 0)
(0.272964 1.55066 0)
(0.19903 1.57244 0)
(0.0595938 1.53842 0)
(-0.110477 1.43403 0)
(-0.212905 1.23519 0)
(-0.210991 1.12627 0)
(-0.171952 1.06246 0)
(-0.118881 1.03275 0)
(-0.0455802 1.02408 0)
(-0.00153565 0.988835 0)
(-0.0364609 1.02911 0)
(-0.0543432 1.01117 0)
(-0.0131276 1.00117 0)
(0.0354524 0.912226 0)
(0.0648214 0.818705 0)
(0.0716387 0.748877 0)
(0.0535212 0.688845 0)
(0.0169892 0.603981 0)
(-0.0156322 0.493107 0)
(-0.0273772 0.401139 0)
(-0.0251576 0.33163 0)
(-0.0208581 0.290593 0)
(-0.00511195 0.31918 0)
(0.0291542 0.837616 0)
(0.246677 1.23595 0)
(0.235748 1.33027 0)
(0.28791 1.25595 0)
(0.336391 1.28298 0)
(0.424026 1.38495 0)
(0.462413 1.49819 0)
(0.413929 1.61701 0)
(0.281196 1.6697 0)
(0.145293 1.62022 0)
(-0.120378 1.5799 0)
(-0.263004 1.23421 0)
(-0.248466 1.08095 0)
(-0.186978 1.00491 0)
(-0.115859 0.96645 0)
(-0.0402389 0.942229 0)
(-0.017176 1.02425 0)
(-0.0493986 1.08335 0)
(-0.0668045 1.01922 0)
(-0.0284577 0.976746 0)
(0.0205516 0.89688 0)
(0.0507458 0.81123 0)
(0.0665471 0.744241 0)
(0.0668592 0.690142 0)
(0.039161 0.622543 0)
(0.00596933 0.496419 0)
(-0.0061216 0.385778 0)
(-0.00298388 0.311952 0)
(-0.00238538 0.28153 0)
(-0.00340135 0.316304 0)
(0.123215 0.703275 0)
(0.38019 1.26871 0)
(0.445447 1.3542 0)
(0.433376 1.33793 0)
(0.563684 1.21448 0)
(0.643028 1.39212 0)
(0.629197 1.56167 0)
(0.474773 1.73416 0)
(0.284158 1.78674 0)
(0.208776 1.73881 0)
(-0.100173 1.81154 0)
(-0.249297 1.24575 0)
(-0.26519 1.01726 0)
(-0.201623 0.930645 0)
(-0.118913 0.891506 0)
(-0.0390231 0.863435 0)
(-0.0374243 1.05033 0)
(-0.0389764 1.11076 0)
(-0.0328897 0.99134 0)
(-0.00287745 0.938741 0)
(0.0275211 0.866935 0)
(0.0529242 0.789734 0)
(0.0746235 0.724926 0)
(0.0858944 0.678793 0)
(0.0644233 0.638052 0)
(0.0289828 0.505508 0)
(0.0195925 0.367481 0)
(0.0381143 0.28627 0)
(0.0550621 0.269192 0)
(0.0612498 0.315144 0)
(0.147688 0.53178 0)
(0.380969 1.08785 0)
(0.518044 1.49851 0)
(0.630362 1.37066 0)
(0.766921 1.22409 0)
(0.86287 1.48661 0)
(0.714623 1.72529 0)
(0.386931 1.93332 0)
(0.144667 1.85987 0)
(0.0826887 1.82537 0)
(-0.0394573 2.00265 0)
(-0.245753 1.32295 0)
(-0.25809 0.951475 0)
(-0.200784 0.847277 0)
(-0.121161 0.811017 0)
(-0.0391256 0.784215 0)
(-0.0240914 1.0563 0)
(0.0375038 1.06497 0)
(0.0438291 0.971412 0)
(0.048277 0.915904 0)
(0.0516247 0.845605 0)
(0.0593369 0.7697 0)
(0.0773823 0.698642 0)
(0.100633 0.650914 0)
(0.0982147 0.639789 0)
(0.0636458 0.520009 0)
(0.0506502 0.338227 0)
(0.0889734 0.241925 0)
(0.129322 0.234229 0)
(0.160855 0.289033 0)
(0.206802 0.435784 0)
(0.365461 0.851447 0)
(0.594107 1.42488 0)
(0.831367 1.41478 0)
(0.998451 1.36924 0)
(1.02216 1.6511 0)
(0.689073 1.97413 0)
(0.291991 2.18833 0)
(-0.0632475 1.97868 0)
(-0.185789 1.9655 0)
(-0.228901 2.12945 0)
(-0.336547 1.4538 0)
(-0.253814 0.870311 0)
(-0.182439 0.766567 0)
(-0.116613 0.728739 0)
(-0.0382087 0.703559 0)
(0.0209411 1.01038 0)
(0.0668923 1.01145 0)
(0.0979177 0.957782 0)
(0.104804 0.909896 0)
(0.0954798 0.850358 0)
(0.0726919 0.779161 0)
(0.0616287 0.688469 0)
(0.0788201 0.618459 0)
(0.0985692 0.631476 0)
(0.103684 0.547021 0)
(0.0986753 0.305896 0)
(0.145746 0.181239 0)
(0.201503 0.178643 0)
(0.255332 0.231115 0)
(0.320694 0.350713 0)
(0.439007 0.657978 0)
(0.717394 1.16763 0)
(1.08607 1.30932 0)
(1.30462 1.3389 0)
(1.13582 1.72875 0)
(0.78377 1.98249 0)
(0.227409 2.20519 0)
(-0.21676 2.01098 0)
(-0.526069 2.10581 0)
(-0.555555 2.20029 0)
(-0.436898 1.45928 0)
(-0.241836 0.811836 0)
(-0.153244 0.698311 0)
(-0.102368 0.651063 0)
(-0.0344482 0.62522 0)
(0.0135016 0.975522 0)
(0.0472118 0.968521 0)
(0.093993 0.940951 0)
(0.110815 0.905528 0)
(0.102522 0.858628 0)
(0.0686819 0.802878 0)
(0.032145 0.706809 0)
(0.0204151 0.599724 0)
(0.0350934 0.584477 0)
(0.140143 0.54537 0)
(0.161419 0.296741 0)
(0.207019 0.125518 0)
(0.263787 0.116131 0)
(0.328181 0.151459 0)
(0.416034 0.237413 0)
(0.564254 0.440227 0)
(0.864087 0.806185 0)
(1.24804 0.964988 0)
(1.34423 1.18068 0)
(1.15105 1.72883 0)
(0.659649 2.18231 0)
(0.149834 2.43225 0)
(-0.334802 2.20126 0)
(-0.717457 2.09675 0)
(-0.757745 2.13891 0)
(-0.564098 1.26619 0)
(-0.256425 0.754648 0)
(-0.170215 0.629263 0)
(-0.0978532 0.577822 0)
(-0.0313606 0.551533 0)
(-0.00549421 0.960111 0)
(0.0290257 0.914138 0)
(0.0960591 0.909279 0)
(0.137308 0.905121 0)
(0.143778 0.880436 0)
(0.108761 0.841886 0)
(0.0407149 0.750278 0)
(-0.00993379 0.621486 0)
(-0.0257804 0.531014 0)
(0.0723306 0.454008 0)
(0.194416 0.265287 0)
(0.237624 0.0832716 0)
(0.292575 0.0544409 0)
(0.363494 0.0599153 0)
(0.462029 0.10013 0)
(0.622453 0.193253 0)
(0.88571 0.379691 0)
(1.18517 0.54007 0)
(1.23687 1.04212 0)
(0.918793 1.81433 0)
(0.457619 2.29752 0)
(0.139443 2.45778 0)
(-0.251764 2.32037 0)
(-0.704162 2.13994 0)
(-0.693714 1.89428 0)
(-0.618147 1.04535 0)
(-0.336233 0.641296 0)
(-0.213374 0.536208 0)
(-0.11055 0.496238 0)
(-0.0324732 0.478713 0)
(-0.00598845 0.952571 0)
(0.0419373 0.847282 0)
(0.122496 0.850027 0)
(0.184324 0.871747 0)
(0.21201 0.876774 0)
(0.198734 0.86741 0)
(0.136829 0.804134 0)
(0.0496263 0.686767 0)
(-0.0124481 0.536786 0)
(0.0621972 0.372761 0)
(0.166286 0.198516 0)
(0.225276 0.0451879 0)
(0.276524 -0.0140534 0)
(0.352955 -0.0364809 0)
(0.449685 -0.0372831 0)
(0.578044 -0.0288051 0)
(0.732629 0.0115039 0)
(0.899783 0.150507 0)
(0.900546 0.887417 0)
(0.594123 1.87501 0)
(0.271321 2.37874 0)
(0.0820979 2.53511 0)
(-0.175643 2.4138 0)
(-0.561065 2.11539 0)
(-0.665685 1.66316 0)
(-0.588874 0.811292 0)
(-0.37837 0.458276 0)
(-0.238894 0.410434 0)
(-0.11852 0.401647 0)
(-0.033386 0.402457 0)
(0.0193788 0.920406 0)
(0.087095 0.766933 0)
(0.169712 0.775648 0)
(0.235929 0.819912 0)
(0.279541 0.848004 0)
(0.28858 0.866424 0)
(0.271432 0.832603 0)
(0.178788 0.745402 0)
(0.0432052 0.556103 0)
(0.0195952 0.3168 0)
(0.101898 0.137849 0)
(0.168143 -0.00033164 0)
(0.231642 -0.0937553 0)
(0.31324 -0.132444 0)
(0.400844 -0.154709 0)
(0.489471 -0.183087 0)
(0.557213 -0.205828 0)
(0.628667 -0.0707129 0)
(0.57284 0.903197 0)
(0.299395 1.99769 0)
(0.111921 2.49575 0)
(-0.0110455 2.6559 0)
(-0.19088 2.55157 0)
(-0.469149 2.17839 0)
(-0.612494 1.46794 0)
(-0.488983 0.583791 0)
(-0.320102 0.262699 0)
(-0.215004 0.283348 0)
(-0.109294 0.305714 0)
(-0.0310976 0.327381 0)
(0.0565063 0.848764 0)
(0.128384 0.685924 0)
(0.208033 0.698989 0)
(0.275394 0.751483 0)
(0.338842 0.788514 0)
(0.381392 0.827838 0)
(0.397761 0.831809 0)
(0.330909 0.831547 0)
(0.106713 0.747722 0)
(-0.055791 0.342213 0)
(0.00674845 0.0509303 0)
(0.0973788 -0.0613762 0)
(0.17337 -0.181417 0)
(0.261844 -0.224467 0)
(0.338866 -0.249111 0)
(0.399805 -0.280037 0)
(0.428545 -0.311851 0)
(0.437939 -0.152654 0)
(0.311077 1.01425 0)
(0.0864382 2.09267 0)
(0.00253328 2.58016 0)
(-0.0764347 2.76132 0)
(-0.204453 2.68714 0)
(-0.38879 2.26363 0)
(-0.480418 1.33876 0)
(-0.359898 0.327591 0)
(-0.219801 0.125803 0)
(-0.177668 0.186794 0)
(-0.10255 0.221198 0)
(-0.0316968 0.256719 0)
(0.0782761 0.742975 0)
(0.151006 0.606438 0)
(0.228189 0.618061 0)
(0.306029 0.664033 0)
(0.389856 0.693201 0)
(0.442625 0.721739 0)
(0.429299 0.797185 0)
(0.303466 0.891064 0)
(-0.170495 0.935324 0)
(-0.303101 0.304516 0)
(-0.110159 -0.0419426 0)
(0.0457931 -0.119059 0)
(0.120194 -0.270603 0)
(0.210044 -0.308593 0)
(0.276773 -0.325438 0)
(0.320169 -0.345082 0)
(0.340543 -0.367536 0)
(0.31775 -0.107992 0)
(0.124692 1.15971 0)
(-0.0197802 2.14583 0)
(-0.0358688 2.62563 0)
(-0.0750416 2.83016 0)
(-0.146919 2.77965 0)
(-0.2419 2.32527 0)
(-0.287987 1.26905 0)
(-0.25338 0.195551 0)
(-0.185007 0.0580046 0)
(-0.16677 0.121101 0)
(-0.11102 0.144978 0)
(-0.0404566 0.17913 0)
(0.0632541 0.668001 0)
(0.12834 0.517179 0)
(0.218355 0.522366 0)
(0.308739 0.526821 0)
(0.365241 0.540224 0)
(0.353556 0.603707 0)
(0.113284 0.920278 0)
(-0.305629 1.19619 0)
(-0.577304 1.07745 0)
(-0.464054 0.169466 0)
(-0.28292 -0.344974 0)
(0.00227169 -0.258479 0)
(0.0575167 -0.373176 0)
(0.153368 -0.38551 0)
(0.21464 -0.388597 0)
(0.243802 -0.392619 0)
(0.27882 -0.404115 0)
(0.22311 0.052429 0)
(0.0442468 1.26335 0)
(-0.0119014 2.15346 0)
(0.00414566 2.63346 0)
(-0.00124559 2.85395 0)
(-0.0181249 2.81395 0)
(-0.0367963 2.36151 0)
(-0.0440081 1.30651 0)
(-0.143151 0.228073 0)
(-0.179215 0.0818006 0)
(-0.169104 0.079684 0)
(-0.124468 0.0709173 0)
(-0.051278 0.0940361 0)
(0.0217828 0.456333 0)
(0.0708534 0.390106 0)
(0.148973 0.360903 0)
(0.224673 0.385024 0)
(0.160492 0.547693 0)
(-0.173965 0.845341 0)
(-0.595422 1.23688 0)
(-0.829767 1.28386 0)
(-0.676112 0.749748 0)
(-0.30131 -0.188328 0)
(-0.170513 -0.547033 0)
(-0.0143091 -0.448372 0)
(0.0297677 -0.477389 0)
(0.106945 -0.45493 0)
(0.155053 -0.440111 0)
(0.169012 -0.424032 0)
(0.242054 -0.384584 0)
(0.142116 0.138312 0)
(0.0445827 1.28591 0)
(0.065084 2.12954 0)
(0.108926 2.61311 0)
(0.136748 2.8393 0)
(0.164215 2.80329 0)
(0.210399 2.35728 0)
(0.214422 1.3205 0)
(0.00901783 0.36969 0)
(-0.204112 0.0931938 0)
(-0.249588 0.127461 0)
(-0.143805 0.0384036 0)
(-0.0493062 0.0127157 0)
(0.00344896 0.372174 0)
(0.012011 0.241817 0)
(0.0287078 0.312941 0)
(-0.186356 0.491552 0)
(-0.502187 0.802388 0)
(-0.811952 1.08214 0)
(-0.966367 1.22808 0)
(-0.897744 1.0293 0)
(-0.543473 0.300475 0)
(-0.170388 -0.490831 0)
(-0.0909423 -0.642804 0)
(-0.019644 -0.574128 0)
(0.0119638 -0.553573 0)
(0.0700538 -0.510475 0)
(0.10458 -0.480582 0)
(0.114889 -0.452005 0)
(0.17796 -0.32345 0)
(0.0702883 0.20602 0)
(0.0767641 1.24512 0)
(0.173881 2.06809 0)
(0.248165 2.56177 0)
(0.308594 2.78822 0)
(0.379389 2.75284 0)
(0.474142 2.33155 0)
(0.452551 1.41908 0)
(0.213455 0.610811 0)
(-0.0554934 0.275252 0)
(-0.24776 0.0134057 0)
(-0.211773 -0.0390752 0)
(-0.0943402 0.00244345 0)
(0.00557277 0.325027 0)
(-0.146929 0.31381 0)
(-0.385633 0.462676 0)
(-0.650999 0.671561 0)
(-0.871336 0.907592 0)
(-0.983662 1.09456 0)
(-0.948013 1.11403 0)
(-0.755462 0.749577 0)
(-0.403757 -0.0696219 0)
(-0.136145 -0.744315 0)
(-0.0683923 -0.704868 0)
(-0.0413394 -0.665026 0)
(-0.0103565 -0.605891 0)
(0.030632 -0.554061 0)
(0.0554229 -0.511564 0)
(0.07802 -0.476368 0)
(0.0874375 -0.218324 0)
(-0.0204966 0.223434 0)
(0.0880173 1.13057 0)
(0.264675 1.96336 0)
(0.374792 2.47717 0)
(0.465424 2.70544 0)
(0.563316 2.66998 0)
(0.663245 2.29478 0)
(0.613707 1.53768 0)
(0.389509 0.830368 0)
(0.150026 0.42919 0)
(-0.0987407 0.230921 0)
(-0.276461 -0.0782676 0)
(-0.253201 -0.213292 0)
(-0.110759 0.334165 0)
(-0.333979 0.434972 0)
(-0.578703 0.607989 0)
(-0.778201 0.805372 0)
(-0.89571 0.984079 0)
(-0.90624 1.0691 0)
(-0.78936 0.94922 0)
(-0.580173 0.477199 0)
(-0.301397 -0.353358 0)
(-0.14905 -0.916182 0)
(-0.0893057 -0.764537 0)
(-0.0842383 -0.714723 0)
(-0.0554078 -0.646766 0)
(-0.0209449 -0.590236 0)
(0.000301926 -0.529588 0)
(0.0582515 -0.462362 0)
(0.0258721 -0.140488 0)
(-0.0968891 0.206601 0)
(0.0517708 0.944632 0)
(0.297678 1.8054 0)
(0.45262 2.35528 0)
(0.571198 2.59938 0)
(0.678001 2.57563 0)
(0.757617 2.26194 0)
(0.704761 1.65586 0)
(0.503773 1.02436 0)
(0.275317 0.58202 0)
(0.0748833 0.380606 0)
(-0.113852 0.0483478 0)
(-0.12624 -0.441785 0)
(-0.172572 0.646369 0)
(-0.39716 0.691696 0)
(-0.598006 0.80969 0)
(-0.733343 0.935986 0)
(-0.785762 1.01495 0)
(-0.741829 0.990823 0)
(-0.603862 0.768382 0)
(-0.42135 0.249395 0)
(-0.225915 -0.545545 0)
(-0.165504 -1.00485 0)
(-0.126409 -0.791906 0)
(-0.129519 -0.747907 0)
(-0.102236 -0.685322 0)
(-0.0679046 -0.620957 0)
(-0.0419172 -0.54579 0)
(0.0469016 -0.413333 0)
(-0.0279557 -0.049174 0)
(-0.135738 0.185424 0)
(-0.0171941 0.722132 0)
(0.261878 1.59282 0)
(0.472222 2.19283 0)
(0.618407 2.47758 0)
(0.725959 2.48882 0)
(0.784469 2.24494 0)
(0.734868 1.76593 0)
(0.560395 1.2203 0)
(0.337447 0.776572 0)
(0.122973 0.508521 0)
(0.00121455 0.0958251 0)
(-0.0472994 -0.461716 0)
(-0.157825 0.904309 0)
(-0.352945 0.895016 0)
(-0.514324 0.95719 0)
(-0.605935 1.00955 0)
(-0.624507 1.00428 0)
(-0.563409 0.892617 0)
(-0.433727 0.606784 0)
(-0.291125 0.0825078 0)
(-0.171671 -0.65316 0)
(-0.180319 -1.03447 0)
(-0.157042 -0.806871 0)
(-0.163546 -0.774145 0)
(-0.133125 -0.721596 0)
(-0.0914854 -0.656032 0)
(-0.018831 -0.589677 0)
(0.0128041 -0.342787 0)
(-0.128086 0.00133384 0)
(-0.172442 0.170142 0)
(-0.0966454 0.5349 0)
(0.181073 1.34213 0)
(0.451682 1.99759 0)
(0.620323 2.34267 0)
(0.728512 2.40961 0)
(0.772668 2.23978 0)
(0.723214 1.86805 0)
(0.562803 1.40168 0)
(0.346157 0.98175 0)
(0.103169 0.679208 0)
(0.0105449 0.10779 0)
(-0.0539354 -0.462462 0)
(-0.12417 1.13143 0)
(-0.279087 1.06207 0)
(-0.403313 1.06506 0)
(-0.466307 1.05124 0)
(-0.468102 0.975217 0)
(-0.407185 0.799209 0)
(-0.298408 0.477437 0)
(-0.194974 -0.0279325 0)
(-0.145103 -0.6973 0)
(-0.201478 -1.02008 0)
(-0.181623 -0.820835 0)
(-0.185428 -0.794538 0)
(-0.157112 -0.750615 0)
(-0.114046 -0.687677 0)
(0.0082252 -0.599687 0)
(0.0507158 -0.293881 0)
(-0.103401 0.0279909 0)
(-0.163948 0.176069 0)
(-0.150834 0.384264 0)
(0.0852417 1.05756 0)
(0.401238 1.77302 0)
(0.587839 2.19462 0)
(0.69888 2.33346 0)
(0.736871 2.23917 0)
(0.689739 1.96543 0)
(0.538572 1.57803 0)
(0.328661 1.18976 0)
(0.0638616 0.852249 0)
(0.0229422 0.137792 0)
(-0.0725835 -0.430766 0)
(-0.0882803 1.29637 0)
(-0.205379 1.18881 0)
(-0.300314 1.14508 0)
(-0.345036 1.07579 0)
(-0.341016 0.94476 0)
(-0.290477 0.722302 0)
(-0.208768 0.382764 0)
(-0.141105 -0.0916178 0)
(-0.153422 -0.681572 0)
(-0.225942 -0.992557 0)
(-0.192024 -0.834426 0)