/*--------------------------------*- C++ -*----------------------------------*\
| =========                 |                                                 |
| \\      /  F ield         | OpenFOAM: The Open Source CFD Toolbox           |
|  \\    /   O peration     | Version:  2.4.0                                 |
|   \\  /    A nd           | Web:      www.OpenFOAM.org                      |
|    \\/     M anipulation  |                                                 |
\*---------------------------------------------------------------------------*/
FoamFile
{
    version     2.0;
    format      ascii;
    class       volVectorField;
    location    "7.75";
    object      U;
}
// * * * * * * * * * * * * * * * * * * * * * * * * * * * * * * * * * * * * * //

dimensions      [0 1 -1 0 0 0 0];

internalField   nonuniform List<vector> 
4608
(
(0.00632321 0.135999 0)
(0.0168926 0.134814 0)
(0.0267546 0.133443 -2.7007e-26)
(0.0364739 0.131788 -2.68472e-26)
(0.046209 0.129904 0)
(0.0558584 0.128023 0)
(0.0648194 0.126478 -1.08902e-25)
(0.0723855 0.125323 -9.15576e-26)
(0.0837755 0.121463 -1.15346e-26)
(0.0935205 0.1177 -1.86827e-25)
(0.101693 0.113172 -4.60963e-26)
(0.110198 0.106932 5.2101e-26)
(0.0038292 0.157329 0)
(0.0138172 0.157052 -1.33352e-26)
(0.0249218 0.156445 8.38602e-28)
(0.0366777 0.155357 0)
(0.0490353 0.153696 1.09656e-25)
(0.0622649 0.151323 7.91268e-26)
(0.0770506 0.148705 -1.96816e-26)
(0.0935182 0.149052 0)
(0.105425 0.15119 2.339e-25)
(0.114285 0.148829 8.75268e-26)
(0.123224 0.144969 -1.73239e-25)
(0.133557 0.138864 0)
(0.00657176 0.178063 0)
(0.0203097 0.178151 5.50939e-26)
(0.0344051 0.178148 0)
(0.048814 0.177836 -1.89642e-26)
(0.0639362 0.176864 9.30546e-26)
(0.0809424 0.174864 3.63213e-25)
(0.100515 0.17089 2.3367e-25)
(0.118218 0.163955 4.52058e-25)
(0.124264 0.162651 4.78535e-25)
(0.132787 0.161142 0)
(0.143618 0.157282 -2.98107e-25)
(0.154927 0.151794 0)
(0.00811522 0.19919 2.92004e-26)
(0.0249838 0.199517 6.45986e-26)
(0.0420852 0.199786 0)
(0.0592226 0.199685 2.21149e-25)
(0.0766715 0.198905 -1.1937e-25)
(0.0949961 0.196555 5.69168e-25)
(0.112028 0.191783 2.84673e-25)
(0.126403 0.183184 2.69234e-25)
(0.13645 0.176611 0)
(0.148052 0.172773 6.43947e-25)
(0.160749 0.168038 -4.46595e-25)
(0.173191 0.162486 -2.69078e-25)
(0.0102488 0.220071 3.1732e-26)
(0.0302353 0.220129 1.59226e-25)
(0.0499418 0.219799 -1.47213e-25)
(0.0691171 0.218965 3.03819e-25)
(0.0877075 0.217298 0)
(0.105735 0.21425 5.2399e-25)
(0.121488 0.210003 3.4129e-25)
(0.133622 0.203257 -1.9752e-25)
(0.148256 0.19272 -2.08617e-25)
(0.163065 0.185018 1.55691e-24)
(0.176872 0.178101 8.11751e-25)
(0.189374 0.171112 -9.54318e-25)
(0.0119447 0.240963 0)
(0.0344049 0.240469 1.59037e-25)
(0.0562428 0.239027 -1.62558e-25)
(0.077077 0.23694 -3.33895e-25)
(0.0963787 0.23415 -1.00879e-25)
(0.113928 0.229794 2.15355e-26)
(0.130444 0.224745 2.15133e-25)
(0.143569 0.221602 -2.1305e-25)
(0.1605 0.21221 -3.33269e-25)
(0.176116 0.200098 1.52866e-24)
(0.189512 0.18941 7.6889e-25)
(0.201491 0.179586 -7.7455e-25)
(0.0133649 0.261987 1.30606e-27)
(0.0375524 0.261249 2.39341e-26)
(0.0611185 0.258476 0)
(0.0837683 0.254662 -3.61597e-25)
(0.104459 0.250708 6.18392e-25)
(0.12342 0.247518 -9.72458e-25)
(0.139402 0.241464 -7.28616e-25)
(0.15088 0.234624 -8.21792e-25)
(0.16669 0.225118 -8.25855e-25)
(0.182533 0.212566 8.1027e-25)
(0.196308 0.199685 -1.45786e-24)
(0.20843 0.187284 1.82781e-24)
(0.0149399 0.283229 0)
(0.03953 0.28311 0)
(0.0631502 0.278896 3.94586e-25)
(0.0865207 0.272102 0)
(0.108786 0.264155 6.9135e-25)
(0.131155 0.259817 -2.04398e-25)
(0.144404 0.256551 -8.264e-25)
(0.156207 0.246986 -8.37356e-25)
(0.171152 0.235766 -8.33548e-25)
(0.186232 0.222583 -1.64654e-24)
(0.199875 0.20844 -1.62301e-24)
(0.211937 0.194232 1.60127e-24)
(0.0184557 0.304991 1.0211e-25)
(0.043073 0.307371 4.6293e-25)
(0.0663683 0.303535 1.43452e-34)
(0.0902522 0.295298 -1.14382e-25)
(0.115996 0.282544 -2.80354e-25)
(0.137598 0.270658 -1.69358e-25)
(0.146467 0.263411 -1.67048e-24)
(0.157698 0.25508 1.12947e-25)
(0.172741 0.243592 2.12078e-25)
(0.187463 0.229991 -1.63338e-24)
(0.200924 0.21528 7.76535e-26)
(0.212794 0.200065 -1.39812e-24)
(0.0243953 0.326604 8.94981e-36)
(0.0471792 0.33084 4.57873e-25)
(0.067678 0.324354 -4.69399e-25)
(0.0882968 0.315095 0)
(0.112861 0.299263 -1.04959e-25)
(0.136359 0.282063 6.89523e-25)
(0.146452 0.271336 -1.64701e-24)
(0.15748 0.260472 0)
(0.171854 0.247614 1.61429e-24)
(0.186325 0.234 0)
(0.199366 0.219218 3.74408e-26)
(0.210886 0.203718 -2.85891e-24)
(0.0333415 0.346162 -7.7495e-26)
(0.0487442 0.346321 4.52138e-25)
(0.064532 0.332457 9.13659e-25)
(0.0821827 0.32123 8.04305e-25)
(0.10395 0.305293 -1.50007e-25)
(0.125853 0.285001 3.30678e-24)
(0.13763 0.270246 0)
(0.151311 0.258758 -6.75251e-27)
(0.166617 0.245795 1.38832e-24)
(0.180956 0.232374 0)
(0.193682 0.218234 -1.40593e-24)
(0.204935 0.203323 -1.4724e-24)
(0.0144043 0.343479 2.26203e-25)
(0.0316124 0.335295 -1.92698e-34)
(0.0481698 0.313692 2.27766e-34)
(0.0672171 0.301453 7.58535e-25)
(0.0880745 0.287573 1.50874e-24)
(0.109866 0.270883 2.74768e-24)
(0.125109 0.256257 1.31067e-24)
(0.139836 0.244988 0)
(0.155516 0.233351 0)
(0.170007 0.221772 0)
(0.182381 0.20952 -1.2042e-24)
(0.193527 0.196579 -2.2654e-24)
(0.118283 0.100227 -6.73405e-26)
(0.125455 0.0932655 -1.99432e-25)
(0.131466 0.0859187 -2.25758e-25)
(0.135513 0.0783441 4.35877e-25)
(0.136568 0.070489 0)
(0.137359 0.0597037 -4.91e-26)
(0.139642 0.0474754 5.99547e-26)
(0.140512 0.0390661 0)
(0.139792 0.0297498 0)
(0.138812 0.01916 0)
(0.13811 0.00948637 9.61052e-27)
(0.136798 0.00338052 7.09347e-27)
(0.142929 0.131471 -7.07354e-26)
(0.150397 0.123864 -1.32535e-25)
(0.155714 0.11615 -2.98927e-25)
(0.158567 0.108623 -1.12409e-26)
(0.159546 0.101476 6.82212e-26)
(0.163569 0.0874385 -1.30964e-25)
(0.167445 0.0714833 8.67064e-26)
(0.167702 0.0613134 -2.51334e-26)
(0.166126 0.0515009 -1.10468e-25)
(0.163641 0.0376428 0)
(0.159539 0.0245949 2.45156e-26)
(0.156912 0.0103958 1.27071e-26)
(0.165363 0.145283 -6.13711e-25)
(0.174023 0.138404 0)
(0.180672 0.131582 0)
(0.185445 0.125077 -3.1508e-25)
(0.190388 0.11821 0)
(0.195676 0.104293 -2.85479e-25)
(0.195743 0.0893015 3.07522e-26)
(0.191581 0.0772038 -1.74415e-25)
(0.186854 0.0667731 -1.31762e-25)
(0.182701 0.0515616 0)
(0.179595 0.0349354 6.18929e-26)
(0.17855 0.0130954 -2.70972e-26)
(0.184459 0.156371 -9.02732e-25)
(0.194115 0.150088 -1.09927e-25)
(0.202088 0.143825 -7.52146e-25)
(0.208683 0.137625 8.14721e-25)
(0.214043 0.13103 2.91541e-26)
(0.217469 0.121868 -3.57783e-25)
(0.217624 0.111076 -2.27492e-25)
(0.21485 0.0996996 -2.11235e-25)
(0.210428 0.0863802 3.07994e-25)
(0.205414 0.0681729 0)
(0.200656 0.0451165 2.00407e-26)
(0.198882 0.0168296 -1.08679e-25)
(0.200635 0.164077 7.4596e-25)
(0.210533 0.157249 -7.95635e-25)
(0.219079 0.150775 -8.46097e-25)
(0.226334 0.144744 7.74271e-25)
(0.232291 0.138823 -1.50834e-25)
(0.236618 0.132407 -1.1185e-25)
(0.238591 0.124959 -2.34884e-25)
(0.237958 0.116224 -4.88374e-26)
(0.235183 0.104053 4.09648e-25)
(0.230822 0.0851171 2.51457e-25)
(0.225209 0.0575792 -3.00587e-25)
(0.220824 0.0209947 -5.02053e-26)
(0.212371 0.170385 7.80477e-25)
(0.222168 0.161923 -7.30647e-25)
(0.230963 0.154333 -6.87227e-25)
(0.238775 0.147738 4.3616e-26)
(0.245659 0.14199 0)
(0.251401 0.136889 -6.10519e-25)
(0.255525 0.132053 4.29649e-26)
(0.257728 0.126537 -5.61991e-25)
(0.257596 0.117937 0)
(0.25459 0.101623 1.99103e-25)
(0.248318 0.0732351 -1.91311e-25)
(0.242236 0.0285373 4.22692e-26)
(0.219208 0.175627 0)
(0.228857 0.164975 0)
(0.23761 0.155501 -1.59561e-24)
(0.245556 0.14744 0)
(0.252896 0.140825 -1.00899e-25)
(0.259704 0.135741 -7.20919e-25)
(0.265805 0.132052 9.98669e-25)
(0.270997 0.129124 4.33697e-25)
(0.274379 0.124796 2.44421e-25)
(0.274989 0.113722 -3.59405e-25)
(0.27109 0.0882199 -2.05855e-25)
(0.264492 0.0373876 -2.66461e-26)
(0.222479 0.180461 7.80086e-26)
(0.231812 0.167554 1.77202e-24)
(0.240121 0.155888 8.98341e-25)
(0.247689 0.145746 -1.57125e-24)
(0.254921 0.137421 -1.59263e-24)
(0.262195 0.130926 -8.12053e-25)
(0.269399 0.126698 9.33258e-25)
(0.276792 0.124534 1.82774e-24)
(0.283682 0.123362 0)
(0.289343 0.118083 -4.85438e-25)
(0.290471 0.0992714 3.31786e-25)
(0.286826 0.0468468 1.46916e-25)
(0.222974 0.184891 1.49762e-24)
(0.231912 0.170176 1.39549e-24)
(0.239697 0.156598 1.51717e-24)
(0.246801 0.144331 -1.42693e-24)
(0.253325 0.133841 -1.4907e-24)
(0.260078 0.125046 -7.40255e-25)
(0.267334 0.118857 7.47545e-25)
(0.27594 0.115321 1.58604e-24)
(0.28534 0.114718 -5.82527e-26)
(0.296111 0.113189 0)
(0.304064 0.102271 2.13562e-25)
(0.308276 0.0539569 1.13256e-25)
(0.220538 0.187885 1.45557e-24)
(0.229097 0.171949 -9.93249e-26)
(0.236306 0.157029 0)
(0.242742 0.143009 -1.39668e-24)
(0.248302 0.130691 0)
(0.254091 0.119502 0)
(0.260681 0.110548 7.53327e-25)
(0.269562 0.10418 -3.97127e-26)
(0.279791 0.10146 -1.98498e-26)
(0.294454 0.0998351 9.89673e-25)
(0.309367 0.0943086 -3.42013e-26)
(0.326426 0.0540833 -1.25065e-26)
(0.213943 0.187771 2.13328e-27)
(0.222281 0.171311 -1.38746e-24)
(0.229031 0.155938 0)
(0.234919 0.140935 -1.2733e-24)
(0.239447 0.127626 8.47822e-26)
(0.244056 0.114464 0)
(0.249473 0.102712 -1.27935e-24)
(0.257658 0.0931832 -6.22812e-25)
(0.266966 0.0866616 -4.75124e-26)
(0.283483 0.0806208 1.84637e-24)
(0.303497 0.0742806 0)
(0.337308 0.0418607 1.63041e-25)
(0.2018 0.182818 -2.39397e-24)
(0.210094 0.166757 -1.18176e-24)
(0.216472 0.151885 0)
(0.222003 0.13666 0)
(0.225634 0.123539 1.06205e-24)
(0.228863 0.109435 -1.08324e-24)
(0.232998 0.0955811 -2.10573e-24)
(0.239781 0.0836319 9.98027e-26)
(0.24641 0.0733682 -6.62766e-25)
(0.261598 0.0602103 3.88659e-25)
(0.282885 0.0404733 2.68942e-25)
(0.329871 -0.00362272 2.21141e-25)
(0.135993 -0.00625297 5.84827e-27)
(0.134882 -0.0167353 -1.27332e-26)
(0.133606 -0.0264757 5.51316e-26)
(0.132072 -0.0360609 0)
(0.130299 -0.0449952 7.92009e-27)
(0.12801 -0.0539863 -2.6406e-26)
(0.125326 -0.0629314 6.43753e-27)
(0.122205 -0.0718636 0)
(0.118629 -0.0805077 -6.43852e-26)
(0.11423 -0.089383 -6.47384e-26)
(0.109278 -0.098187 -5.56935e-26)
(0.103865 -0.106533 2.81028e-26)
(0.157394 -0.00409275 1.1191e-26)
(0.157431 -0.0144164 -6.55919e-26)
(0.157295 -0.0257046 -7.28836e-26)
(0.156722 -0.0375936 1.17502e-25)
(0.156072 -0.0491728 1.45784e-26)
(0.155017 -0.0612201 -1.673e-26)
(0.15339 -0.0737062 0)
(0.151236 -0.0860162 0)
(0.148551 -0.0978658 2.37708e-25)
(0.14478 -0.110114 1.63307e-25)
(0.140157 -0.121832 -2.98867e-25)
(0.134849 -0.132576 1.52772e-25)
(0.178036 -0.00714709 -9.47988e-27)
(0.178047 -0.021501 -1.13441e-25)
(0.178023 -0.036084 -1.10323e-25)
(0.177923 -0.0509393 1.13512e-25)
(0.177689 -0.0655925 0)
(0.176991 -0.0801764 0)
(0.175157 -0.0948598 0)
(0.172463 -0.108565 0)
(0.168589 -0.121868 1.97088e-35)
(0.163434 -0.135289 2.91052e-25)
(0.157797 -0.147764 -2.98664e-25)
(0.151631 -0.159016 2.35001e-25)
(0.199096 -0.0083437 2.65567e-26)
(0.199134 -0.025464 -5.39357e-26)
(0.198846 -0.0427526 2.72856e-26)
(0.197833 -0.0601734 -1.54354e-25)
(0.196458 -0.0775662 9.28469e-26)
(0.19526 -0.0942933 0)
(0.193316 -0.109837 0)
(0.190227 -0.124689 0)
(0.186163 -0.13893 -1.02163e-24)
(0.180095 -0.153228 0)
(0.173477 -0.166468 4.63392e-25)
(0.166582 -0.178377 1.83949e-25)
(0.220108 -0.0103798 9.93406e-26)
(0.220528 -0.0305897 -1.4541e-25)
(0.220476 -0.0502384 0)
(0.219311 -0.0698378 -5.47787e-25)
(0.216682 -0.0895798 4.05572e-26)
(0.213453 -0.107244 -1.38944e-25)
(0.209634 -0.122828 0)
(0.20457 -0.137798 0)
(0.199136 -0.152259 -7.36972e-25)
(0.192335 -0.167057 0)
(0.18469 -0.180838 7.58118e-25)
(0.176847 -0.19331 0)
(0.241139 -0.0128245 1.42384e-36)
(0.241841 -0.0361423 -1.61704e-25)
(0.241924 -0.057593 0)
(0.240379 -0.0779735 1.68938e-34)
(0.236228 -0.0982866 -9.67584e-26)
(0.231064 -0.116392 -1.45119e-25)
(0.225489 -0.132429 0)
(0.218625 -0.147925 -1.92895e-25)
(0.211044 -0.162927 -1.01662e-25)
(0.202547 -0.177684 -6.84115e-25)
(0.19346 -0.191565 -1.03604e-24)
(0.184259 -0.204254 0)
(0.262114 -0.0153468 4.04609e-26)
(0.262855 -0.041448 3.52386e-26)
(0.262758 -0.0642966 -2.90781e-25)
(0.261115 -0.0847321 6.42547e-25)
(0.256184 -0.105177 4.31183e-25)
(0.249608 -0.123647 -9.90997e-25)
(0.241855 -0.139609 -5.45339e-25)
(0.232479 -0.155082 1.06276e-25)
(0.222504 -0.170346 -1.10552e-24)
(0.211901 -0.185077 -8.16696e-25)
(0.200949 -0.198856 -9.50667e-25)
(0.189989 -0.211489 -2.13661e-25)
(0.283336 -0.0181946 8.81659e-26)
(0.284469 -0.0463841 -1.9163e-25)
(0.282648 -0.070454 -3.98545e-25)
(0.279795 -0.0905472 1.37561e-24)
(0.274007 -0.109682 1.1759e-24)
(0.265575 -0.127362 -1.28921e-24)
(0.256027 -0.143331 -5.32124e-25)
(0.245174 -0.159258 -1.87621e-25)
(0.233221 -0.174745 -1.27637e-24)
(0.220606 -0.189521 -2.40575e-25)
(0.207774 -0.203189 -1.08683e-25)
(0.194976 -0.215649 -1.96182e-25)
(0.304824 -0.0222797 -1.89337e-25)
(0.30741 -0.050955 -2.12697e-25)
(0.303951 -0.0750833 -3.1995e-25)
(0.298974 -0.0944044 1.06509e-24)
(0.290726 -0.11254 0)
(0.280394 -0.129395 2.17291e-25)
(0.268803 -0.145139 2.99476e-25)
(0.256097 -0.16106 1.59788e-24)
(0.242469 -0.176525 1.49012e-24)
(0.228252 -0.191388 0)
(0.213901 -0.205012 6.56727e-26)
(0.199518 -0.217278 1.04148e-25)
(0.326299 -0.028154 -1.16142e-25)
(0.330354 -0.0551112 -5.46376e-26)
(0.323241 -0.0771004 3.03242e-25)
(0.315017 -0.0945831 -3.48282e-25)
(0.30353 -0.111422 -2.9709e-25)
(0.290783 -0.127502 7.37317e-25)
(0.276965 -0.143157 1.48935e-25)
(0.262603 -0.159255 1.95128e-24)
(0.247868 -0.174962 3.37885e-24)
(0.232781 -0.190085 1.64493e-24)
(0.217774 -0.203977 -4.20748e-27)
(0.202792 -0.216236 -1.62869e-24)
(0.346018 -0.0364995 2.01251e-25)
(0.345589 -0.0566024 -2.75727e-25)
(0.330509 -0.0732649 9.79431e-25)
(0.317964 -0.0883103 0)
(0.303161 -0.104026 1.69513e-24)
(0.288956 -0.119305 1.56161e-25)
(0.274094 -0.134963 2.1199e-25)
(0.259259 -0.151781 1.53328e-24)
(0.244621 -0.168198 1.42303e-24)
(0.230059 -0.18404 1.52847e-24)
(0.215888 -0.198844 -1.5249e-24)
(0.202012 -0.211632 -1.29415e-24)
(0.342987 -0.0165449 -1.7912e-25)
(0.334817 -0.0379999 -9.4029e-25)
(0.312101 -0.0546143 0)
(0.296741 -0.070317 0)
(0.280434 -0.0862612 1.37132e-24)
(0.266351 -0.102097 -1.30372e-24)
(0.252636 -0.118625 -1.28717e-24)
(0.239269 -0.136398 2.47995e-24)
(0.226246 -0.153655 -1.35275e-24)
(0.213947 -0.170424 0)
(0.202806 -0.18672 -1.10192e-24)
(0.192643 -0.201098 -6.25349e-27)
(0.0977417 -0.114508 3.72412e-26)
(0.0914111 -0.121323 -2.14934e-25)
(0.0841076 -0.127336 5.09936e-26)
(0.0760589 -0.132359 3.69027e-25)
(0.0672916 -0.136095 2.32571e-25)
(0.0579751 -0.138399 7.11992e-35)
(0.0481363 -0.139527 -1.18292e-25)
(0.0378757 -0.13994 1.09086e-26)
(0.0285853 -0.139364 7.41059e-26)
(0.0191786 -0.1382 -3.08378e-26)
(0.01022 -0.136988 1.37199e-27)
(0.00230932 -0.136195 8.02238e-28)
(0.128471 -0.142279 2.2063e-25)
(0.121948 -0.15007 -4.19853e-25)
(0.114273 -0.156518 -3.77637e-25)
(0.105766 -0.161223 4.84171e-25)
(0.0965499 -0.164427 2.59606e-25)
(0.086615 -0.165975 -1.93568e-25)
(0.0756727 -0.165952 -1.52776e-25)
(0.063277 -0.164457 -6.87887e-26)
(0.0511256 -0.161908 2.45087e-25)
(0.037653 -0.159628 1.08294e-25)
(0.0235246 -0.157824 -6.82336e-26)
(0.00776918 -0.156912 6.81454e-27)
(0.144911 -0.168898 -1.2905e-25)
(0.137824 -0.177138 3.10778e-25)
(0.130376 -0.18392 -3.08935e-25)
(0.1225 -0.188805 3.06616e-25)
(0.11387 -0.191713 0)
(0.104506 -0.19291 -2.92234e-25)
(0.0941033 -0.192546 2.84717e-25)
(0.0815629 -0.19058 -1.12314e-25)
(0.0667097 -0.187546 -9.22508e-26)
(0.0491221 -0.184288 1.1398e-25)
(0.0305092 -0.181243 -1.10367e-25)
(0.0102845 -0.178839 1.20405e-26)
(0.159544 -0.188776 7.18802e-25)
(0.152485 -0.197562 3.45787e-25)
(0.145333 -0.20473 -9.49816e-26)
(0.138064 -0.210257 1.77783e-27)
(0.130466 -0.21401 7.11065e-25)
(0.12203 -0.21591 -6.89382e-25)
(0.112595 -0.215797 4.90873e-25)
(0.100984 -0.214036 3.26486e-25)
(0.0859125 -0.210761 2.02675e-25)
(0.0661374 -0.206069 1.62364e-25)
(0.0427322 -0.201195 4.49237e-26)
(0.0153207 -0.198887 1.29063e-26)
(0.169112 -0.204337 1.61279e-24)
(0.161691 -0.213918 -6.6289e-25)
(0.154576 -0.222051 0)
(0.147881 -0.228636 0)
(0.141375 -0.233663 1.56324e-24)
(0.134548 -0.237019 -1.27799e-25)
(0.127048 -0.238514 7.08365e-26)
(0.117258 -0.238022 2.08002e-25)
(0.103565 -0.23548 3.56501e-25)
(0.0835695 -0.230824 -1.23708e-25)
(0.0556802 -0.224809 -6.58346e-26)
(0.0197878 -0.220564 -1.58019e-26)
(0.175365 -0.215614 8.06636e-25)
(0.167058 -0.225676 -8.12288e-25)
(0.159464 -0.234469 -3.17714e-26)
(0.152774 -0.241997 1.07575e-25)
(0.146851 -0.248336 8.89969e-25)
(0.141269 -0.253361 -5.68188e-25)
(0.135683 -0.256826 8.94622e-25)
(0.128693 -0.25842 2.39062e-25)
(0.118071 -0.257754 8.09717e-25)
(0.100408 -0.254428 0)
(0.0709354 -0.248277 0)
(0.026793 -0.242254 0)
(0.17948 -0.222863 0)
(0.169739 -0.233065 1.6402e-24)
(0.161052 -0.242212 0)
(0.153604 -0.25031 0)
(0.147398 -0.257574 -1.52685e-25)
(0.1424 -0.263944 -1.21171e-25)
(0.138241 -0.269164 6.99981e-25)
(0.133803 -0.273228 -1.58032e-25)
(0.126865 -0.275407 4.41823e-25)
(0.113442 -0.275056 -4.39499e-25)
(0.0859125 -0.270941 2.14134e-25)
(0.0356228 -0.264411 -9.64628e-26)
(0.182653 -0.226817 -1.55129e-24)
(0.171148 -0.236887 1.76273e-24)
(0.160883 -0.246071 1.6291e-24)
(0.152111 -0.254388 1.64526e-24)
(0.144935 -0.262133 1.66322e-24)
(0.139504 -0.269387 1.69059e-24)
(0.135625 -0.276009 -1.33594e-25)
(0.132546 -0.282111 -3.11349e-25)
(0.128497 -0.287437 -1.843e-25)
(0.119833 -0.291507 -9.51466e-25)
(0.0976454 -0.291528 3.23649e-25)
(0.0453201 -0.287018 -8.78059e-26)
(0.185457 -0.228082 -1.67567e-24)
(0.172009 -0.237827 1.36897e-25)
(0.15993 -0.246865 3.15884e-24)
(0.149614 -0.255036 1.66316e-24)
(0.140974 -0.262912 1.61172e-24)
(0.134466 -0.27062 8.19546e-25)
(0.129989 -0.277975 -9.39367e-26)
(0.126841 -0.285743 5.8187e-26)
(0.123757 -0.293547 1.23242e-24)
(0.118329 -0.301546 -1.90061e-25)
(0.102746 -0.306938 4.36356e-26)
(0.0537191 -0.308635 -2.92099e-26)
(0.187711 -0.226558 0)
(0.172478 -0.235674 -1.48939e-24)
(0.158408 -0.244357 7.20174e-35)
(0.146515 -0.252148 0)
(0.135991 -0.26003 7.11247e-26)
(0.128077 -0.267902 -1.73544e-26)
(0.122419 -0.275521 0)
(0.118206 -0.284412 0)
(0.114925 -0.293984 1.75272e-24)
(0.11039 -0.305453 -1.08006e-24)
(0.099178 -0.317075 0)
(0.0576619 -0.328482 -1.52989e-25)
(0.187824 -0.221679 -3.69613e-26)
(0.17165 -0.229858 -1.32152e-25)
(0.154973 -0.237088 -2.75872e-24)
(0.140968 -0.244369 0)
(0.129323 -0.252491 0)
(0.120372 -0.260197 0)
(0.113366 -0.26725 1.45024e-24)
(0.107282 -0.276262 0)
(0.102481 -0.287051 1.66558e-24)
(0.0960247 -0.302451 -4.09567e-35)
(0.084936 -0.321458 -5.45964e-25)
(0.0518747 -0.344153 -3.53682e-25)
(0.18224 -0.211011 0)
(0.168517 -0.218642 2.42935e-24)
(0.151395 -0.225359 -1.25522e-24)
(0.134511 -0.232598 1.24052e-24)
(0.121026 -0.240345 0)
(0.111646 -0.246343 1.21046e-24)
(0.103575 -0.251389 1.24318e-24)
(0.0952761 -0.259094 8.50043e-26)
(0.0877798 -0.268936 6.61615e-25)
(0.0766695 -0.284919 1.42179e-24)
(0.0592698 -0.309799 -6.01387e-26)
(0.0180066 -0.340967 -1.42163e-25)
(-0.00546549 -0.135917 9.67226e-27)
(-0.0150676 -0.134812 1.13133e-26)
(-0.0240584 -0.13319 7.34205e-27)
(-0.0332304 -0.130513 -9.52953e-26)
(-0.0474776 -0.127256 -2.41421e-26)
(-0.0556123 -0.126806 -8.73459e-26)
(-0.0638364 -0.124842 -9.36129e-26)
(-0.0722413 -0.122043 0)
(-0.0803479 -0.118519 -5.20596e-26)
(-0.088704 -0.113892 -1.30695e-26)
(-0.0967549 -0.108589 2.88857e-26)
(-0.104397 -0.102548 6.88775e-26)
(-0.00502732 -0.157854 1.06082e-26)
(-0.0158946 -0.159567 4.84619e-26)
(-0.0263089 -0.161582 -9.75903e-26)
(-0.0349451 -0.162679 0)
(-0.0492505 -0.15758 8.3576e-26)
(-0.0614538 -0.152977 -1.71526e-25)
(-0.0731845 -0.15152 -5.11299e-26)
(-0.0843318 -0.149689 5.83223e-27)
(-0.0948383 -0.147257 3.04212e-25)
(-0.105427 -0.14348 0)
(-0.115145 -0.138629 2.37929e-25)
(-0.123203 -0.132958 0)
(-0.00930011 -0.177716 5.11593e-26)
(-0.0244947 -0.177342 1.00468e-25)
(-0.0366978 -0.177016 -1.95501e-25)
(-0.0457403 -0.17843 -6.74509e-26)
(-0.0599313 -0.179816 3.75889e-26)
(-0.0783578 -0.177798 6.38645e-26)
(-0.0935296 -0.174501 -2.18498e-25)
(-0.106439 -0.171297 -1.31932e-25)
(-0.118279 -0.16775 5.33363e-25)
(-0.129347 -0.1634 2.901e-26)
(-0.139311 -0.158067 3.341e-25)
(-0.148062 -0.152024 -6.34829e-25)
(-0.00967775 -0.198923 2.69422e-26)
(-0.0277701 -0.198343 1.35129e-25)
(-0.0441649 -0.198231 -1.02888e-26)
(-0.0594289 -0.199917 -3.54751e-25)
(-0.0761905 -0.201033 0)
(-0.0928838 -0.199366 4.25444e-25)
(-0.10825 -0.196034 5.09983e-25)
(-0.122446 -0.191938 1.11968e-25)
(-0.135712 -0.187436 -1.41707e-25)
(-0.147788 -0.18295 6.43328e-25)
(-0.157017 -0.177618 5.76858e-25)
(-0.162833 -0.170745 -1.529e-24)
(-0.0109431 -0.219883 2.96241e-36)
(-0.0323198 -0.219082 2.30926e-25)
(-0.0527709 -0.218611 4.96197e-26)
(-0.0715951 -0.218925 -3.03984e-25)
(-0.0885789 -0.218907 -7.85644e-26)
(-0.104479 -0.217041 -1.19266e-25)
(-0.11989 -0.213041 3.45527e-25)
(-0.134539 -0.207611 0)
(-0.148162 -0.201482 -1.41097e-24)
(-0.159845 -0.195288 7.14022e-25)
(-0.169476 -0.191075 7.74254e-25)
(-0.180587 -0.188019 -1.83586e-24)
(-0.0116084 -0.240705 1.1229e-25)
(-0.0355676 -0.238706 1.79006e-25)
(-0.0598319 -0.236687 -1.58468e-25)
(-0.081371 -0.236306 -4.48467e-25)
(-0.0989012 -0.236307 7.50169e-26)
(-0.114187 -0.233879 4.93704e-26)
(-0.128984 -0.228566 2.543e-25)
(-0.14375 -0.221672 -1.22999e-25)
(-0.158175 -0.213972 -1.91799e-25)
(-0.171798 -0.206437 7.72205e-25)
(-0.184678 -0.199804 4.29722e-26)
(-0.197944 -0.193316 -6.68404e-25)
(-0.0111318 -0.261541 1.71575e-25)
(-0.0361565 -0.258524 -1.07425e-26)
(-0.0637827 -0.253117 -4.74105e-26)
(-0.0901955 -0.249752 -2.19326e-25)
(-0.108161 -0.250193 4.2635e-25)
(-0.120702 -0.248305 3.86149e-25)
(-0.134769 -0.241817 -4.19994e-25)
(-0.150009 -0.233624 -3.37288e-25)
(-0.165419 -0.224465 6.09684e-25)
(-0.180341 -0.215129 6.44833e-35)
(-0.194461 -0.206363 -1.56118e-24)
(-0.208325 -0.197731 1.50083e-25)
(-0.0114791 -0.283163 9.65831e-26)
(-0.0371053 -0.282056 1.66329e-26)
(-0.0667339 -0.275873 5.25616e-25)
(-0.0967507 -0.266753 9.47093e-25)
(-0.114391 -0.26115 5.00613e-26)
(-0.125229 -0.25724 7.04565e-25)
(-0.138443 -0.251485 0)
(-0.154144 -0.242768 0)
(-0.170402 -0.232638 0)
(-0.186343 -0.221933 -2.43019e-24)
(-0.201266 -0.21154 -3.21498e-24)
(-0.215173 -0.201191 1.59087e-24)
(-0.0144179 -0.304989 -2.05511e-25)
(-0.0398182 -0.306485 -4.55834e-25)
(-0.068145 -0.301117 4.52936e-25)
(-0.0981707 -0.288951 1.3556e-25)
(-0.115398 -0.276919 1.45174e-25)
(-0.127947 -0.266938 -7.01117e-26)
(-0.141058 -0.258843 1.47801e-24)
(-0.15676 -0.249288 -1.53676e-25)
(-0.173295 -0.23808 -3.37183e-26)
(-0.189741 -0.2262 -1.72569e-24)
(-0.204865 -0.214618 -3.11237e-24)
(-0.218315 -0.203097 1.2467e-25)
(-0.0193777 -0.32615 -1.02977e-25)
(-0.0426955 -0.328231 -9.07178e-25)
(-0.0666703 -0.321105 9.2821e-26)
(-0.0926645 -0.307073 -1.70241e-24)
(-0.112635 -0.291128 5.5705e-26)
(-0.126456 -0.279364 -1.23398e-25)
(-0.140472 -0.266411 1.67083e-24)
(-0.156133 -0.253352 0)
(-0.172433 -0.240043 1.55898e-24)
(-0.188817 -0.226384 1.52012e-24)
(-0.203667 -0.213619 -1.49235e-24)
(-0.216355 -0.20137 -1.38268e-24)
(-0.0248065 -0.344582 9.10348e-26)
(-0.0426905 -0.341738 -5.4349e-25)
(-0.0615642 -0.328302 -8.3797e-26)
(-0.0833711 -0.313788 -9.84291e-25)
(-0.102522 -0.295135 -6.75674e-26)
(-0.117751 -0.279691 0)
(-0.133364 -0.265428 5.1209e-26)
(-0.149977 -0.251007 4.05409e-26)
(-0.166586 -0.236223 1.36066e-24)
(-0.182455 -0.220798 1.3459e-24)
(-0.196274 -0.206272 1.29556e-24)
(-0.207641 -0.193305 0)
(-0.00958604 -0.342077 4.31485e-25)
(-0.0282966 -0.331976 4.17323e-25)
(-0.0464809 -0.311835 -8.7177e-25)
(-0.0678771 -0.298032 -1.57306e-25)
(-0.0870815 -0.28164 1.70158e-27)
(-0.10493 -0.266679 1.16172e-25)
(-0.121145 -0.253687 1.62803e-26)
(-0.137957 -0.239461 1.22482e-25)
(-0.153643 -0.224452 1.95861e-26)
(-0.167839 -0.208203 0)
(-0.179896 -0.191896 9.6789e-25)
(-0.189417 -0.176744 1.95141e-24)
(-0.11178 -0.0956792 4.53807e-26)
(-0.116773 -0.0902182 2.0035e-25)
(-0.123039 -0.081652 6.56379e-26)
(-0.128591 -0.0729059 5.35852e-26)
(-0.132174 -0.0647218 0)
(-0.134534 -0.0557146 -4.76818e-26)
(-0.13649 -0.0465485 -5.05053e-26)
(-0.138004 -0.0378768 -3.60024e-27)
(-0.139838 -0.0279964 0)
(-0.140286 -0.0199116 -5.96626e-26)
(-0.138732 -0.0113236 1.45159e-26)
(-0.136714 -0.00319535 -5.44548e-27)
(-0.131051 -0.124178 -3.54152e-25)
(-0.140137 -0.114955 2.35527e-25)
(-0.148613 -0.108182 1.04488e-25)
(-0.153044 -0.101354 -1.27767e-25)
(-0.155725 -0.0928047 0)
(-0.157988 -0.0819093 0)
(-0.160628 -0.067949 -6.75851e-26)
(-0.162738 -0.0551191 -8.7751e-27)
(-0.163844 -0.040884 -6.98875e-26)
(-0.162214 -0.0352943 3.17966e-26)
(-0.160081 -0.0265788 -3.12495e-26)
(-0.157769 -0.0120145 -1.40545e-26)
(-0.157734 -0.144249 -1.10996e-25)
(-0.164642 -0.132449 3.16859e-25)
(-0.172779 -0.11783 0)
(-0.178265 -0.112611 -7.67386e-36)
(-0.185036 -0.104754 0)
(-0.191135 -0.0960883 0)
(-0.193881 -0.0830373 0)
(-0.19191 -0.0705823 0)
(-0.183564 -0.0582218 -1.28196e-25)
(-0.17706 -0.042871 1.02706e-25)
(-0.177355 -0.0308634 -3.70718e-26)
(-0.177762 -0.0139096 2.23987e-26)
(-0.173205 -0.159875 3.10115e-25)
(-0.183508 -0.153875 -4.18928e-25)
(-0.198614 -0.138248 0)
(-0.206249 -0.128104 9.88619e-25)
(-0.212136 -0.118394 0)
(-0.214455 -0.110509 3.3819e-25)
(-0.214869 -0.102212 -3.35216e-25)
(-0.212919 -0.0922801 1.46406e-25)
(-0.212803 -0.0820877 5.04584e-25)
(-0.211834 -0.0577143 -2.93014e-26)
(-0.206266 -0.0388112 1.3945e-25)
(-0.201454 -0.0175628 3.40941e-26)
(-0.197369 -0.177022 0)
(-0.211165 -0.164644 -7.44793e-25)
(-0.222258 -0.152036 0)
(-0.229206 -0.141492 7.49664e-25)
(-0.233881 -0.131955 0)
(-0.236081 -0.123434 3.74358e-25)
(-0.236812 -0.115099 -4.64759e-25)
(-0.235748 -0.10528 4.75142e-26)
(-0.233287 -0.0938068 8.48287e-25)
(-0.228316 -0.0759766 0)
(-0.22111 -0.0552067 2.46694e-25)
(-0.219418 -0.0258489 -8.89007e-26)
(-0.212418 -0.184531 0)
(-0.225434 -0.173607 8.58318e-25)
(-0.235919 -0.161919 9.11567e-25)
(-0.243529 -0.151189 -1.06239e-25)
(-0.249096 -0.141628 5.49044e-26)
(-0.252874 -0.133404 0)
(-0.255195 -0.125908 -9.14976e-25)
(-0.255894 -0.117797 -9.61486e-26)
(-0.254639 -0.107518 -2.51559e-34)
(-0.251121 -0.0913217 0)
(-0.245579 -0.066591 1.89792e-25)
(-0.24199 -0.0280379 -8.82562e-26)
(-0.221912 -0.188341 4.56359e-26)
(-0.234165 -0.177588 9.61669e-25)
(-0.24431 -0.166297 8.1161e-25)
(-0.25234 -0.155551 9.47408e-27)
(-0.258697 -0.145913 1.08393e-25)
(-0.263867 -0.137651 8.28638e-25)
(-0.268075 -0.130664 -8.84362e-26)
(-0.271228 -0.124174 -1.08366e-24)
(-0.272776 -0.116446 -1.02117e-24)
(-0.272288 -0.103431 5.68529e-25)
(-0.268746 -0.079412 1.04652e-25)
(-0.264115 -0.0348009 1.05456e-33)
(-0.227878 -0.190648 3.93956e-26)
(-0.239008 -0.179492 1.50414e-25)
(-0.248325 -0.167988 5.11324e-26)
(-0.256035 -0.15684 1.69621e-25)
(-0.262615 -0.146504 1.01884e-25)
(-0.268578 -0.137526 8.90828e-25)
(-0.274146 -0.130135 1.78387e-24)
(-0.279568 -0.124252 -7.48675e-25)
(-0.284319 -0.118645 -1.30702e-24)
(-0.288053 -0.109256 4.8728e-25)
(-0.288655 -0.0891705 2.54361e-25)
(-0.28629 -0.0425772 0)
(-0.230224 -0.191676 9.79063e-26)
(-0.240078 -0.180076 -1.42249e-25)
(-0.2481 -0.167984 0)
(-0.254827 -0.156135 -1.46274e-24)
(-0.261012 -0.144619 1.35836e-25)
(-0.26721 -0.13443 2.30624e-27)
(-0.27353 -0.125833 -6.38156e-26)
(-0.280605 -0.119217 0)
(-0.288105 -0.11424 -8.51209e-25)
(-0.296149 -0.107375 5.9289e-25)
(-0.302565 -0.0918896 2.76614e-25)
(-0.307224 -0.0481696 1.38126e-25)
(-0.227629 -0.189606 1.33628e-24)
(-0.236498 -0.178411 1.20635e-25)
(-0.242934 -0.166396 0)
(-0.247988 -0.153509 -2.79338e-24)
(-0.253229 -0.140453 -7.59473e-26)
(-0.259285 -0.128823 -1.5087e-25)
(-0.265996 -0.118677 -7.46396e-25)
(-0.274411 -0.110488 8.32148e-26)
(-0.284387 -0.10459 7.05561e-26)
(-0.296609 -0.0983771 -4.72554e-25)
(-0.308976 -0.0853066 -3.09349e-26)
(-0.324888 -0.047192 1.43771e-25)
(-0.21831 -0.181734 1.31493e-24)
(-0.226417 -0.171986 9.55836e-25)
(-0.230424 -0.161611 0)
(-0.233062 -0.148262 -1.06215e-24)
(-0.237032 -0.133461 -1.04958e-24)
(-0.242691 -0.120266 -9.46386e-26)
(-0.249761 -0.108349 -1.91147e-25)
(-0.259548 -0.0983056 -1.37602e-24)
(-0.271789 -0.0903414 0)
(-0.288524 -0.0831197 -9.79274e-25)
(-0.306379 -0.0690617 4.7133e-25)
(-0.336633 -0.0357388 -3.22704e-25)
(-0.199188 -0.16454 -2.22562e-25)
(-0.206602 -0.157061 6.82351e-25)
(-0.207172 -0.152004 0)
(-0.206906 -0.140297 1.26349e-24)
(-0.20981 -0.124059 -1.91516e-24)
(-0.214816 -0.10956 1.04927e-24)
(-0.221981 -0.0956847 1.01244e-24)
(-0.232867 -0.0835178 -1.02698e-24)
(-0.24702 -0.0725948 0)
(-0.267027 -0.0629198 0)
(-0.290445 -0.0386659 7.71688e-25)
(-0.333206 0.00546877 3.38468e-26)
(-0.136172 0.00718259 -4.71625e-27)
(-0.135176 0.0171318 -1.33028e-26)
(-0.133481 0.0260859 0)
(-0.131293 0.0352584 0)
(-0.128887 0.045975 0)
(-0.126989 0.0559281 -3.30646e-26)
(-0.124799 0.0651935 -4.7125e-26)
(-0.122115 0.0735229 0)
(-0.118961 0.0807263 -2.48122e-25)
(-0.11531 0.085546 1.93619e-25)
(-0.108545 0.0924497 5.11831e-27)
(-0.099855 0.103065 4.39391e-26)
(-0.157252 0.00429069 -1.0652e-26)
(-0.15733 0.0133719 2.64866e-26)
(-0.157858 0.0238978 0)
(-0.15789 0.0360987 -8.32107e-28)
(-0.156243 0.0500476 -3.89497e-26)
(-0.153906 0.0618514 -1.06539e-25)
(-0.151341 0.0720015 -4.9266e-26)
(-0.148122 0.08051 -7.67923e-26)
(-0.143578 0.0895458 -3.5943e-25)
(-0.141266 0.0981799 -1.72954e-25)
(-0.137197 0.111995 -9.00571e-26)
(-0.128942 0.128061 8.09554e-26)
(-0.177933 0.00729379 1.20475e-26)
(-0.177823 0.0218788 -2.19363e-36)
(-0.177868 0.0359665 0)
(-0.177666 0.0497297 0)
(-0.17673 0.0632772 1.78633e-26)
(-0.175049 0.0762391 9.87528e-26)
(-0.172719 0.0881048 6.65254e-26)
(-0.170458 0.100084 2.86003e-25)
(-0.166964 0.114572 2.90454e-25)
(-0.162279 0.130221 -2.84589e-25)
(-0.155562 0.14613 0)
(-0.147893 0.159245 5.5729e-25)
(-0.199108 0.00833087 -2.71076e-26)
(-0.199073 0.0255137 -7.45674e-26)
(-0.19888 0.0421907 0)
(-0.198244 0.058249 -2.73688e-25)
(-0.196937 0.0737465 3.83288e-26)
(-0.194857 0.088626 3.63575e-25)
(-0.192488 0.103149 0)
(-0.189667 0.118516 4.01913e-25)
(-0.185246 0.13497 -5.75746e-25)
(-0.179566 0.151111 4.82679e-25)
(-0.172495 0.166394 8.0516e-25)
(-0.164686 0.179614 1.00849e-24)
(-0.220016 0.0101459 -6.55848e-26)