/*--------------------------------*- C++ -*----------------------------------*\
| =========                 |                                                 |
| \\      /  F ield         | OpenFOAM: The Open Source CFD Toolbox           |
|  \\    /   O peration     | Version:  v1606+                                |
|   \\  /    A nd           | Web:      www.OpenFOAM.com                      |
|    \\/     M anipulation  |                                                 |
\*---------------------------------------------------------------------------*/
FoamFile
{
    version     2.0;
    format      ascii;
    class       volScalarField;
    location    "0.75";
    object      alpha.water;
}
// * * * * * * * * * * * * * * * * * * * * * * * * * * * * * * * * * * * * * //

dimensions      [0 0 0 0 0 0 0];

internalField   nonuniform List<scalar> 
2268
(
1
1
1
1
1
1
1
1
1
1
1
1
1
1
1
1
0.999999
0.999693
0.976761
0.959926
0.959926
0.981779
0.999683
1
1
1
1
1
1
1
1
1
1
1
1
1
1
1
1
1
0.999999
0.994669
0.96961
0.960216
0.96404
0.999687
1
1
1
1
1
1
1
1
1
1
1
1
1
1
1
1
1
1
1
0.998351
0.989891
0.990182
0.99969
1
1
1
1
1
1
1
1
1
1
1
1
1
1
1
1
1
1
1
1
1
1
0.999693
1
1
1
1
1
1
1
1
1
1
1
1
1
1
1
1
1
1
1
1
1
0.999973
0.999723
1
1
1
1
1
1
1
1
1
1
1
1
1
1
1
1
1
1
1
1
1
0.999905
0.999573
1
1
1
1
1
1
1
1
1
1
1
1
1
1
1
1
1
1
1
1
1
0.999902
0.999573
1
1
1
1
1
1
1
1
1
1
1
1
1
1
1
1
1
1
1
1
0.999999
0.999951
0.999822
0.997841
0.997981
0.998161
0.998187
0.998187
0.996644
0.984213
0.98087
0.98087
0.980966
0.984903
0.991542
0.990113
0.980755
0.975639
0.965481
0.96713
0.964676
0.924256
0.998008
0.998161
0.998187
0.998187
0.998188
0.998188
0.99815
0.99801
0.998085
0.998238
0.998241
0.998239
0.998221
0.99814
0.996015
0.944175
0.937484
0.964327
0.976256
0.997923
0.983739
0.894851
0.930521
0.977564
0.993473
0.998026
0.998222
0.998231
0.998238
0.998237
0.998218
0.998134
0.997939
0.997362
0.952793
0.874327
0.872537
0.934205
0.994955
0.836913
0.146476
0.119972
0.304478
0.662372
0.896032
0.967672
0.98983
0.998207
0.998151
0.998099
0.997959
0.997406
0.995659
0.991431
0.964261
0.866283
0.866283
0.968781
0.479673
0.0413997
0.0410875
0.0372397
0.0320557
0.0945656
0.302742
0.600623
0.817279
0.944257
0.99689
0.997205
0.990407
0.965879
0.944087
0.968421
0.957273
0.866283
0.963117
0.102307
0.0457515
0.0415486
0.0446308
0.0299235
0.0299235
0.0267915
0.0180078
0.060573
0.379352
0.822861
0.993259
0.974734
0.777653
0.712066
0.968421
0.964883
0.866676
0.95938
0.140653
0.0527706
0.210385
0.627664
0.580994
0.09764
0.0179313
0.0178399
0.0168
0.0199632
0.358263
0.862082
0.945636
0.705047
0.704986
0.78897
0.955142
0.899642
0.779213
0.564779
0.585321
0.689357
0.713971
0.713831
0.591686
0.0886855
0.0168434
0.0158175
0.0161259
0.173945
0.677851
0.856002
0.774132
0.704986
0.704986
0.921767
0.922538
0.678546
0.694929
0.710954
0.740643
0.793635
0.856893
0.917808
0.971844
1
1
1
1
1
1
1
1
1
1
1
0.999999
0.999996
0.99997
0.999943
0.0197299
0.0277977
0.0374285
0.0523955
0.0806143
0.131327
0.209405
0.31378
0.449883
0.610879
0.761941
0.888883
0.971248
1
0.999951
0.999998
0.999996
0.999994
0.999991
0.999988
0.999979
0.999943
0.99991
1.0689e-05
1.79941e-05
3.0346e-05
3.75643e-05
4.51865e-05
5.37201e-05
6.24955e-05
7.35609e-05
0.00156954
0.0207102
0.0661798
0.134263
0.224951
0.364726
0.581133
0.783263
0.873207
0.897586
0.926699
0.960063
0.968569
0.977699
0.995326
2.59383e-07
5.70723e-07
1.15574e-06
1.48722e-06
1.72991e-06
1.95702e-06
2.19184e-06
2.6288e-06
3.16851e-06
5.64193e-06
7.14066e-06
6.20979e-06
3.69816e-06
2.1671e-07
0.000189864
0.00296894
0.0331432
0.115073
0.227923
0.310847
0.343738
0.386979
0.53453
6.01909e-09
1.69471e-08
4.07704e-08
5.64327e-08
6.61895e-08
6.96673e-08
7.31882e-08
8.13324e-08
1.0459e-07
1.74936e-07
1.96393e-07
1.35894e-07
6.13311e-08
6.08399e-11
5.97599e-11
5.97599e-11
6.63252e-11
1.56171e-10
1.98723e-09
5.13729e-08
1.42745e-06
3.98687e-05
0.000985207
1.33713e-10
4.66877e-10
1.29911e-09
1.95707e-09
2.38277e-09
2.51169e-09
2.48695e-09
2.65966e-09
3.47463e-09
5.18635e-09
5.02756e-09
2.92769e-09
1.06539e-09
1.27981e-10
2.40512e-10
2.96131e-09
5.78438e-09
2.41148e-09
1.02527e-08
1.89671e-07
3.47912e-06
4.92246e-05
0.000598464
5.51928e-13
1.31301e-11
3.76732e-11
6.05492e-11
7.70568e-11
8.58619e-11
8.89112e-11
9.51649e-11
1.16317e-10
1.57817e-10
1.42037e-10
7.91003e-11
2.81833e-11
7.05485e-12
3.46633e-11
2.86883e-10
2.01504e-10
2.1823e-10
2.65046e-09
6.10328e-08
1.07953e-06
1.43445e-05
0.000163559
-1.43588e-11
7.92745e-13
6.77165e-13
5.31245e-13
4.37841e-13
3.81443e-13
3.38766e-13
2.43314e-13
6.77584e-14
1.65273e-14
3.97502e-13
6.45212e-13
8.18562e-13
1.17501e-12
-8.93845e-11
-1.6689e-10
-1.74582e-10
4.89078e-13
4.46485e-10
1.31546e-08
2.60638e-07
3.78102e-06
4.53722e-05
-8.67642e-12
-7.55424e-12
-9.81391e-12
-1.3201e-11
-1.74056e-11
-2.45386e-11
-3.69197e-11
-5.32644e-11
-6.77309e-11
-6.82672e-11
-7.22424e-11
-9.39622e-11
-1.12007e-10
-1.27571e-10
-1.65227e-10
-1.86593e-10
-1.76632e-10
1.77605e-13
1.71416e-11
1.70177e-09
3.98328e-08
6.50334e-07
9.56539e-06
-2.32204e-12
-2.44828e-12
-4.8167e-12
-8.76799e-12
-1.39604e-11
-2.05668e-11
-2.94089e-11
-4.1209e-11
-5.5683e-11
-6.97939e-11
-8.11295e-11
-8.86976e-11
-8.90541e-11
-8.88885e-11
-9.29814e-11
-9.06328e-11
-7.91277e-11
-4.52031e-11
1.13299e-12
1.60788e-10
4.40816e-09
8.46771e-08
1.45865e-06
-5.54488e-13
-5.44185e-13
-1.11649e-12
-2.26262e-12
-3.89281e-12
-5.98495e-12
-8.72369e-12
-1.24075e-11
-1.72655e-11
-2.29808e-11
-2.8454e-11
-3.19895e-11
-3.22977e-11
-3.1603e-11
-3.09143e-11
-2.81242e-11
-2.27488e-11
-1.45296e-11
1.69409e-12
1.5974e-11
4.05352e-10
8.62968e-09
1.63124e-07
-1.40319e-13
-1.24944e-13
-2.42418e-13
-5.02473e-13
-8.60897e-13
-1.29269e-12
-1.82529e-12
-2.52435e-12
-3.47545e-12
-4.69129e-12
-5.99701e-12
-6.94788e-12
-7.12718e-12
-6.882e-12
-6.36685e-12
-5.22471e-12
-3.31517e-12
-6.07866e-13
5.35406e-12
8.96812e-12
4.04696e-11
6.98986e-10
1.27436e-08
-3.84191e-14
-3.24402e-14
-5.91178e-14
-1.16221e-13
-1.83925e-13
-2.49789e-13
-3.14588e-13
-3.84483e-13
-4.76858e-13
-5.99335e-13
-7.38379e-13
-8.29337e-13
-7.8706e-13
-6.32121e-13
-3.63939e-13
9.37241e-14
8.08876e-13
1.86463e-12
3.75212e-12
6.61484e-12
9.75494e-12
5.58262e-11
9.5579e-10
-1.03116e-14
-8.46014e-15
-1.46935e-14
-2.64511e-14
-3.72305e-14
-4.29317e-14
-4.22758e-14
-3.38854e-14
-1.97082e-14
7.1853e-16
2.77447e-14
6.82118e-14
1.35356e-13
2.34812e-13
3.77837e-13
5.89853e-13
9.05358e-13
1.37904e-12
2.14545e-12
3.81413e-12
4.64263e-12
9.84e-12
8.27813e-11
-2.48348e-15
-1.9628e-15
-3.23739e-15
-5.26988e-15
-6.39517e-15
-5.53049e-15
-1.99058e-15
5.23055e-15
1.62524e-14
3.20089e-14
5.3576e-14
8.17304e-14
1.18771e-13
1.6842e-13
2.37341e-13
3.3686e-13
4.84657e-13
7.10215e-13
1.06898e-12
1.70923e-12
3.58232e-12
4.6737e-12
1.10525e-11
-5.10836e-16
-3.80487e-16
-5.87167e-16
-8.42119e-16
-7.96045e-16
-1.80099e-16
1.27732e-15
3.97291e-15
8.14479e-15
1.43067e-14
2.29317e-14
3.43807e-14
4.9553e-14
7.02248e-14
9.97732e-14
1.43972e-13
2.12766e-13
3.23389e-13
5.05912e-13
8.17131e-13
1.45285e-12
3.23613e-12
4.74835e-12
-8.54245e-17
-5.82379e-17
-8.16438e-17
-9.48546e-17
-3.2542e-17
1.72457e-16
6.11767e-16
1.41634e-15
2.71523e-15
4.68783e-15
7.50782e-15
1.13749e-14
1.67208e-14
2.44034e-14
3.61162e-14
5.50482e-14
8.7587e-14
1.45873e-13
2.51935e-13
4.42974e-13
7.83923e-13
1.54117e-12
3.0867e-12
-1.08659e-17
-6.46786e-18
-7.50355e-18
-3.82941e-18
1.63866e-17
7.0046e-17
1.83716e-16
3.95557e-16
7.52228e-16
1.31177e-15
2.13922e-15
3.32637e-15
5.05562e-15
7.7148e-15
1.21509e-14
2.03302e-14
3.68064e-14
7.15595e-14
1.45099e-13
2.93324e-13
5.62178e-13
1.03931e-12
2.1659e-12
-9.61377e-19
-4.35772e-19
-1.86054e-19
1.23891e-18
6.06031e-18
1.82718e-17
4.45834e-17
9.51651e-17
1.83763e-16
3.28347e-16
5.52132e-16
8.91919e-16
1.42322e-15
2.32619e-15
4.06364e-15
7.8901e-15
1.71721e-14
4.07273e-14
9.95079e-14
2.33376e-13
4.92688e-13
9.52461e-13
1.89054e-12
-5.3447e-20
-5.73268e-21
7.26411e-20
3.87193e-19
1.36045e-18
3.84442e-18
9.36603e-18
2.03695e-17
4.0481e-17
7.47904e-17
1.30843e-16
2.2246e-16
3.82977e-16
7.07872e-16
1.48898e-15
3.62561e-15
9.82622e-15
2.79228e-14
7.84835e-14
2.05504e-13
4.72113e-13
9.72328e-13
2.04804e-12
-1.87723e-21
2.31178e-21
1.64547e-20
7.18138e-20
2.44615e-19
6.99122e-19
1.74735e-18
3.926e-18
8.08007e-18
1.55223e-17
2.8543e-17
5.24979e-17
1.03935e-16
2.4076e-16
6.69695e-16
2.11058e-15
6.95243e-15
2.25508e-14
6.90704e-14
1.92089e-13
4.65606e-13
1.01058e-12
2.26576e-12
-9.09341e-24
4.07057e-22
2.4405e-21
1.0683e-20
3.74634e-20
1.11009e-19
2.8814e-19
6.72084e-19
1.43919e-18
2.90396e-18
5.77785e-18
1.23803e-17
3.1969e-17
1.03233e-16
3.84208e-16
1.4869e-15
5.60695e-15
1.98503e-14
6.42088e-14
1.85087e-13
4.65334e-13
1.051e-12
2.42382e-12
5.68123e-24
4.61967e-23
2.80632e-22
1.28535e-21
4.73719e-21
1.47392e-20
4.01179e-20
9.81319e-20
2.21907e-19
4.86903e-19
1.14729e-18
3.35192e-18
1.27954e-17
5.71046e-17
2.62516e-16
1.1615e-15
4.78145e-15
1.79409e-14
6.03221e-14
1.78983e-13
4.64491e-13
1.08223e-12
2.481e-12
6.13659e-25
3.78244e-24
2.41225e-23
1.17723e-22
4.63383e-22
1.53779e-21
4.46366e-21
1.17194e-20
2.93103e-20
7.81726e-20
2.66162e-19
1.23393e-18
6.7328e-18
3.7299e-17
1.95902e-16
9.46093e-16
4.1391e-15
1.6201e-14
5.61624e-14
1.71042e-13
4.565e-13
1.08807e-12
2.43981e-12
4.17502e-26
2.32706e-25
1.57104e-24
8.22742e-24
3.48855e-23
1.24875e-22
3.94534e-22
1.16595e-21
3.66767e-21
1.52602e-20
8.95146e-20
6.12537e-19
4.16128e-18
2.63011e-17
1.51041e-16
7.78427e-16
3.56899e-15
1.44596e-14
5.14887e-14
1.6054e-13
4.38451e-13
1.0608e-12
2.32849e-12
2.15381e-27
1.11794e-26
7.94453e-26
4.4476e-25
2.03133e-24
7.92876e-24
2.86059e-23
1.11288e-22
6.03943e-22
4.71694e-21
4.16362e-20
3.53622e-19
2.73709e-18
1.89694e-17
1.16765e-16
6.35004e-16
3.03304e-15
1.26873e-14
4.63298e-14
1.47549e-13
4.10419e-13
1.00294e-12
2.17674e-12
8.934e-29
4.28303e-28
3.15708e-27
1.86884e-26
9.20722e-26
4.11652e-25
2.07953e-24
1.59195e-23
1.74379e-22
2.03686e-21
2.20492e-20
2.12937e-19
1.81375e-18
1.35607e-17
8.87258e-17
5.0687e-16
2.5187e-15
1.08707e-14
4.06877e-14
1.3215e-13
3.73045e-13
9.19308e-13
1.99569e-12
3.07287e-30
1.33477e-29
1.00393e-28
6.24702e-28
3.50303e-27
2.37169e-26
2.74825e-25
4.36568e-24
6.88889e-23
9.67864e-22
1.18772e-20
1.26587e-19
1.17063e-18
9.38453e-18
6.5109e-17
3.90428e-16
2.0194e-15
8.99682e-15
3.45316e-14
1.14263e-13
3.26967e-13
8.13335e-13
1.78078e-12
8.95858e-32
3.46321e-31
2.64239e-30
1.83978e-29
1.69564e-28
3.04519e-27
7.10182e-26
1.53078e-24
2.84444e-23
4.51698e-22
6.13569e-21
7.15714e-20
7.162e-19
6.14783e-18
4.52473e-17
2.85305e-16
1.53892e-15
7.09471e-15
2.79648e-14
9.44098e-14
2.74249e-13
6.90779e-13
1.53241e-12
2.25403e-33
7.68016e-33
6.27735e-32
7.48716e-31
2.05779e-29
7.06351e-28
2.11595e-26
5.28692e-25
1.10619e-23
1.95491e-22
2.92663e-21
3.72189e-20
4.03213e-19
3.7164e-18
2.9118e-17
1.93852e-16
1.09503e-15
5.24842e-15
2.13521e-14
7.39614e-14
2.19465e-13
5.63521e-13
1.27334e-12
4.97113e-35
1.53099e-34
1.98388e-33
7.79852e-32
4.00668e-30
1.70369e-28
5.84068e-27
1.64155e-25
3.83112e-24
7.49493e-23
1.23605e-21
1.72109e-20
2.02383e-19
2.01438e-18
1.69126e-17
1.1979e-16
7.14789e-16
3.59244e-15
1.52355e-14
5.47868e-14
1.68269e-13
4.46868e-13
1.04253e-12
9.74749e-37
3.3685e-36
1.50033e-34
1.19042e-32
7.44808e-31
3.58449e-29
1.37545e-27
4.31411e-26
1.12091e-24
2.43342e-23
4.43323e-22
6.79372e-21
8.75881e-20
9.48666e-19
8.62658e-18
6.57679e-17
4.20047e-16
2.24719e-15
1.01003e-14
3.83858e-14
1.24822e-13
3.5209e-13
8.74463e-13
1.73138e-38
1.38307e-37
1.68664e-35
1.64219e-33
1.1444e-31
6.09615e-30
2.59496e-28
9.05588e-27
2.62354e-25
6.35185e-24
1.28946e-22
2.19555e-21
3.13411e-20
3.74762e-19
3.74765e-18
3.12806e-17
2.17743e-16
1.26554e-15
6.16702e-15
2.54009e-14
8.97545e-14
2.7809e-13
7.66437e-13
2.93975e-40
1.02463e-38
1.71492e-36
1.80601e-34
1.35515e-32
7.85435e-31
3.67888e-29
1.42623e-27
4.62418e-26
1.25838e-24
2.87606e-23
5.5164e-22
8.86321e-21
1.19021e-19
1.33373e-18
1.24348e-17
9.6443e-17
6.23527e-16
3.37527e-15
1.54713e-14
6.10269e-14
2.11831e-13
6.6675e-13
5.88321e-42
7.9966e-40
1.39198e-37
1.49305e-35
1.16414e-33
7.17593e-32
3.65394e-30
1.56823e-28
5.71278e-27
1.7634e-25
4.59748e-24
1.00913e-22
1.8581e-21
2.86263e-20
3.67343e-19
3.91572e-18
3.46622e-17
2.55214e-16
1.57057e-15
8.1643e-15
3.64063e-14
1.42327e-13
5.04242e-13
2.07282e-43
5.32582e-41
8.61305e-39
8.86511e-37
6.85879e-35
4.3406e-33
2.34723e-31
1.10383e-29
4.51505e-28
1.59359e-26
4.80288e-25
1.22927e-23
2.65149e-22
4.79325e-21
7.20524e-20
8.98526e-19
9.28812e-18
7.9639e-17
5.68208e-16
3.39669e-15
1.72331e-14
7.53405e-14
2.90228e-13
1.14349e-44
2.83022e-42
3.94149e-40
3.65727e-38
2.64305e-36
1.62665e-34
8.95519e-33
4.47728e-31
2.02613e-29
8.16645e-28
2.87693e-26
8.73055e-25
2.25391e-23
4.89663e-22
8.83521e-21
1.3225e-19
1.63917e-18
1.68059e-17
1.4275e-16
1.00891e-15
5.98737e-15
3.01956e-14
1.3181e-13
6.53794e-46
1.20253e-43
1.33942e-41
1.04716e-39
6.59747e-38
3.66326e-36
1.89729e-34
9.40322e-33
4.46144e-31
1.99115e-29
8.1278e-28
2.9541e-26
9.38198e-25
2.5186e-23
5.61876e-22
1.03979e-20
1.59137e-19
2.01274e-18
2.10558e-17
1.82435e-16
1.31831e-15
8.02529e-15
4.19868e-14
3.14806e-47
4.09079e-45
3.5423e-43
2.20916e-41
1.12926e-39
5.23736e-38
2.31388e-36
1.00361e-34
4.34472e-33
1.88746e-31
8.20362e-30
3.48755e-28
1.40898e-26
4.86821e-25
1.39693e-23
3.32213e-22
6.53021e-21
1.06141e-19
1.42203e-18
1.57098e-17
1.43424e-16
1.08877e-15
6.97512e-15
1.23382e-48
1.10528e-46
7.33508e-45
3.59263e-43
1.45086e-41
5.31488e-40
1.87385e-38
6.43462e-37
2.15393e-35
6.93468e-34
2.22085e-32
8.55551e-31
4.48491e-29
2.13818e-27
8.42853e-26
2.74848e-24
7.39e-23
1.63978e-21
2.99283e-20
4.49179e-19
5.54424e-18
5.63467e-17
4.75658e-16
4.13553e-50
2.43066e-48
1.2244e-46
4.67539e-45
1.47676e-43
4.20389e-42
1.1407e-40
2.96523e-39
7.14994e-38
1.48226e-36
2.29506e-35
1.81476e-34
7.80211e-33
6.0572e-31
3.86777e-29
2.02996e-27
8.73692e-26
3.08322e-24
8.90226e-23
2.10335e-21
4.07208e-20
6.46441e-19
8.45188e-18
1.25531e-51
4.47067e-50
1.70383e-48
5.07926e-47
1.25181e-45
2.75487e-44
5.69745e-43
1.09915e-41
1.86641e-40
2.40266e-39
1.68822e-38
6.39884e-39
1.11368e-40
2.42153e-38
4.32849e-36
6.29921e-34
7.44838e-32
7.16753e-30
5.60687e-28
3.58264e-26
1.87808e-24
8.12672e-23
2.90594e-21
0.999847
0.999787
0.999771
0.999771
0.999857
0.999793
0.999771
0.99968
0.999554
0.999748
0.999715
0.999309
0.831011
0.999093
0.9989
0.989351
0.269849
0.852263
0.993616
0.949123
0.00448998
0.281643
0.783719
0.915579
0.00125401
0.0126857
0.305815
0.623772
0.000407277
0.00339644
0.0481985
0.326816
8.29608e-05
0.00062601
0.00305761
0.0587331
1.54704e-05
8.5867e-05
0.000352327
0.00171734
1.70717e-06
8.25149e-06
4.66988e-05
0.000169408
1.38752e-07
7.17268e-07
3.76578e-06
1.51338e-05
1.19668e-08
6.30404e-08
3.12519e-07
1.52036e-06
1.00032e-09
5.55449e-09
2.84933e-08
1.42394e-07
8.43329e-11
4.441e-10
2.40683e-09
1.27372e-08
1.27671e-11
4.26006e-11
1.96129e-10
1.04758e-09
5.98509e-12
1.08938e-11
2.45476e-11
9.28916e-11
4.22417e-12
6.03191e-12
1.05124e-11
1.73734e-11
2.67403e-12
4.38298e-12
6.69742e-12
9.85064e-12
2.68812e-12
3.63697e-12
5.2832e-12
8.05028e-12
2.99044e-12
3.9766e-12
5.37788e-12
7.41311e-12
3.2397e-12
4.37987e-12
5.99137e-12
8.11093e-12
3.3567e-12
4.64003e-12
6.51468e-12
8.92492e-12
3.35528e-12
4.76856e-12
6.89623e-12
8.81737e-12
3.2852e-12
4.82961e-12
7.18221e-12
1.0322e-11
3.18116e-12
4.83625e-12
7.32296e-12
1.10649e-11
3.03382e-12
4.72326e-12
7.17554e-12
1.09215e-11
2.81062e-12
4.41781e-12
6.64621e-12
9.9847e-12
2.50215e-12
3.92374e-12
5.80126e-12
8.53843e-12
2.15428e-12
3.35406e-12
4.86881e-12
7.01442e-12
1.85347e-12
2.88303e-12
4.1362e-12
5.84219e-12
1.69914e-12
2.72122e-12
3.98348e-12
5.6355e-12
1.70812e-12
2.91982e-12
4.54663e-12
6.72672e-12
1.75187e-12
3.25319e-12
5.53181e-12
8.87241e-12
1.55022e-12
3.10151e-12
5.73884e-12
1.00338e-11
9.94823e-13
2.07232e-12
4.03653e-12
7.51835e-12
5.02954e-13
1.12095e-12
2.29061e-12
4.43941e-12
1.91738e-13
4.86516e-13
1.1406e-12
2.41817e-12
3.86208e-14
1.10691e-13
3.14791e-13
8.23656e-13
3.42693e-15
1.20943e-14
4.09646e-14
1.4667e-13
9.29647e-17
4.69315e-16
2.21271e-15
1.17447e-14
8.76932e-20
1.19033e-18
1.67303e-17
2.81982e-16
0.859004
0.862871
0.859741
0.762314
0.296071
0.267253
0.568127
0.269566
0.0161391
0.0157848
0.0157271
0.146379
0.587018
0.73142
0.779213
0.755565
0.767761
0.920969
0.922538
0.999302
0.821986
0.347544
0.0469752
0.000648235
0.00147618
0.148387
0.276228
0.0325371
0.0157755
0.0157689
0.353016
0.744663
0.596181
0.554967
0.624813
0.865111
0.922064
0.922502
0.828732
0.135624
7.40032e-05
9.2565e-05
0.000135298
0.000890439
0.00151097
0.0990046
0.0315438
0.0143906
0.0312335
0.588637
0.760249
0.760279
0.33899
0.110978
0.379673
0.871166
0.922064
0.562404
7.33754e-05
7.40033e-05
7.39218e-05
0.00048514
0.00171694
0.00683617
0.00529908
0.00623336
0.0106047
0.124317
0.765433
0.763669
0.705287
0.153024
0.0737888
0.0737888
0.338748
0.918325
0.482186
7.93345e-05
6.23453e-05
7.53516e-05
0.000382643
0.00320556
0.00567783
0.00192317
0.00266141
0.0056792
0.240038
0.765266
0.765943
0.308716
0.0744174
0.0735859
0.0746036
0.0757765
0.5186
0.575359
0.0235726
5.18336e-05
5.42344e-05
0.000515554
0.00136236
0.000950044
0.000572732
0.000759048
0.0259988
0.580046
0.766399
0.759705
0.125219
0.0744104
0.0746035
0.0757764
0.0756975
0.0763064
0.626064
0.216466
4.95718e-05
4.36051e-05
7.24625e-05
9.40339e-05
0.000124738
0.000124921
0.00018863
0.0599165
0.763513
0.765826
0.624841
0.117413
0.076494
0.214183
0.186476
0.0763064
0.0769177
0.562407
0.465723
0.117543
4.11548e-05
3.55606e-05
3.68375e-05
4.40785e-05
2.09228e-05
2.04455e-05
0.0669615
0.765167
0.685539
0.274923
0.21574
0.214011
0.236287
0.236287
0.193448
0.0769177
0.354393
0.512526
0.476084
0.0302394
3.31786e-05
2.85526e-05
2.55121e-05
2.04454e-05
1.95835e-05
0.254988
0.762881
0.175249
0.0811446
0.240913
0.241579
0.238933
0.234521
0.224878
0.12943
0.0836325
0.457713
0.502603
0.443829
0.0307373
2.77691e-05
2.27025e-05
1.95854e-05
1.95854e-05
0.722751
0.672862
0.0620092
0.0543836
0.241361
0.200517
0.0620225
0.12505
0.222256
0.218847
0.000894822
0.124962
0.476333
0.49446
0.470122
0.126911
2.77601e-05
0.00943733
0.371248
0.748518
0.262386
0.0731234
0.046158
0.0392927
0.0044485
0.00943376
0.0228483
0.150023
0.21418
9.83778e-05
0.000682909
0.102873
0.424148
0.491446
0.493666
0.462879
0.53442
0.543518
0.500802
0.0393109
0.0345388
0.0328003
0.000108245
0.00036056
0.00909821
0.0938175
0.128873
0.154126
9.74004e-06
6.80322e-05
0.000399853
0.0488463
0.265617
0.411533
0.441561
0.386847
0.307296
0.0316268
0.00757942
0.0200506
0.0209755
1.1274e-05
8.1453e-05
0.0165731
0.094347
0.185703
0.158943
9.08911e-07
6.90362e-06
4.24243e-05
0.000152829
0.00550728
0.0419129
0.0566205
0.030595
0.00446747
0.00109393
0.00912499
0.0244207
0.0176124
2.25215e-06
7.17938e-05
0.00207394
0.000703806
0.189737
0.189871
9.38136e-08
6.61273e-07
3.81177e-06
1.33815e-05
3.37775e-05
6.52967e-05
3.5889e-05
2.10326e-05
0.000139951
0.000668495
0.0143122
0.0178619
1.59755e-06
1.95444e-06
2.47317e-06
2.85761e-06
4.0927e-05
0.191451
0.190702
9.17969e-09
7.00259e-08
3.91819e-07
1.30526e-06
3.35783e-06
5.45543e-06
2.33868e-06
1.04476e-05
2.10342e-05
0.00310062
0.00982491
0.00134121
4.3087e-07
1.7369e-06
2.9594e-06
3.22386e-06
0.000221222
0.0991962
0.189871
8.43473e-10
6.85281e-09
3.91976e-08
1.2517e-07
3.28442e-07
6.43102e-07
5.54467e-07
3.23606e-06
0.000371262
0.00311728
0.00132491
3.32194e-07
1.19032e-07
8.78033e-06
5.80333e-05
4.27825e-06
0.000724944
0.00631912
0.18895
8.16817e-11
6.45872e-10
3.7912e-09
1.22051e-08
3.07244e-08
9.17893e-08
1.12322e-07
8.05174e-06
0.000475698
0.000927335
5.0204e-07
1.98864e-08
6.10833e-09
1.187e-05
7.58223e-05
6.63089e-06
0.000888898
0.000578388
0.188711
1.82052e-11
8.32187e-11
3.19876e-10
1.19429e-09
3.19236e-09
3.1848e-08
7.5375e-08
3.37837e-06
0.000273355
2.2883e-06
2.15663e-08
6.10852e-09
6.10402e-09
3.27625e-06
7.67382e-05
1.5954e-05
1.26473e-05
1.39292e-05
0.177759
1.01944e-11
1.90436e-11
4.82711e-11
1.56756e-10
4.11858e-10
1.64691e-07
1.12429e-07
5.20089e-06
6.6141e-06
2.67245e-07
1.44174e-08
6.65376e-09
6.10809e-09
6.27061e-09
7.49159e-05
4.59572e-05
9.65195e-06
1.0037e-05
0.0576653
1.80235e-11
2.1441e-11
2.72166e-11
4.53351e-11
8.76244e-11
2.77808e-07
2.94204e-07
1.79722e-06
3.01116e-07
1.41008e-07
2.5745e-07
2.73653e-08
4.87129e-09
6.35669e-09
3.80669e-05
5.35554e-05
9.33689e-06
3.12488e-05
2.10458e-05
2.57033e-11
3.33702e-11
3.4899e-11
3.86174e-11
4.98146e-11
1.65109e-07
1.53034e-07
1.73196e-08
3.99033e-08
2.62779e-08
1.8127e-07
5.89066e-08
2.2185e-09
4.64624e-09
2.32929e-05
5.36003e-05
8.83172e-06
2.4253e-06
2.58555e-06
3.49738e-11
4.45558e-11
4.68748e-11
4.39985e-11
7.64109e-10
4.36907e-09
3.38984e-09
2.82673e-09
6.04564e-09
4.76053e-09
2.49144e-08
1.78281e-08
1.46094e-09
2.21782e-09
3.59447e-05
5.28079e-05
5.23136e-06
2.33939e-06
0.0195854
5.32613e-11
5.49722e-11
5.55573e-11
4.96158e-11
9.79143e-10
6.60264e-10
7.2454e-10
1.08369e-09
1.55099e-09
1.61192e-09
1.5296e-09
1.41294e-09
1.41325e-09
2.29607e-06
3.84751e-05
1.76929e-05
2.13992e-06
2.31769e-06
0.0409018
4.67102e-11
7.88301e-11
7.29352e-11
9.25073e-11
5.28979e-10
5.32373e-10
5.93047e-10
7.21232e-10
8.55011e-10
1.3532e-09
1.42394e-09
1.3809e-09
1.39709e-09
8.43774e-06
3.84751e-05
1.00063e-05
1.78018e-06
2.3595e-06
0.0409036
3.89385e-11
9.49025e-11
8.4514e-11
3.62058e-10
5.36477e-10
5.37768e-10
5.43859e-10
6.45663e-10
7.35926e-10
1.05199e-09
1.54857e-09
1.35159e-09
1.38068e-09
1.19165e-05
3.06846e-05
4.41761e-06
1.6577e-06
1.78018e-06
0.040882
2.97288e-11
9.4687e-11
8.70299e-11
3.68505e-10
1.19253e-09
1.93722e-09
1.08506e-09
7.09991e-10
7.96943e-10
1.24211e-09
1.61318e-09
1.32556e-09
1.82874e-09
1.38482e-05
4.15989e-06
1.12686e-06
1.42542e-06
1.57147e-06
0.0387104
2.46179e-11
8.2176e-11
8.62157e-11
9.91401e-11
3.82459e-09
8.08364e-09
6.99172e-09
2.42273e-09
8.38547e-10
1.13415e-09
1.2971e-09
1.30719e-09
1.48712e-09
6.35106e-06
3.29667e-06
8.34821e-07
9.67004e-07
1.45308e-06
0.00574335
1.88774e-11
5.53535e-11
8.41627e-11
8.42222e-11
5.18581e-09
8.47146e-09
8.47133e-09
4.71406e-09
9.02815e-10
1.04343e-09
1.09919e-09
2.5464e-09
2.68566e-06
2.24614e-06
5.06985e-07
5.73327e-07
7.4941e-07
3.14123e-06
0.000650566
1.41988e-11
3.68053e-11
6.86101e-11
9.97058e-11
3.16409e-09
6.66336e-09
7.55925e-09
6.38124e-09
1.04898e-08
8.53976e-09
1.7328e-09
1.85023e-09
8.75747e-07
7.35254e-07
2.96181e-07
3.33844e-07
2.52393e-05
2.97408e-05
0.0151205
1.07606e-11
2.49484e-11
6.81205e-11
3.94288e-10
9.62304e-10
3.70854e-09
5.55639e-09
1.62974e-08
1.67322e-08
1.66141e-08
5.83249e-09
1.78134e-08
1.87953e-08
1.19052e-07
1.30371e-07
9.35646e-06
0.000151328
0.000600836
0.0162526
9.30478e-12
1.84938e-11
7.2756e-11
5.25175e-10
2.25795e-10
7.64558e-09
6.99268e-09
1.4215e-08
1.67223e-08
1.28585e-08
4.60678e-09
4.57594e-09
3.68391e-08
1.05042e-07
1.16399e-07
0.000101559
0.000193357
0.000916997
0.0128826
1.04953e-11
1.92743e-11
4.89715e-11
4.59959e-10
1.58356e-10
9.91361e-09
1.15746e-08
5.89056e-09
5.44073e-09
4.59188e-09
4.57545e-09
4.59133e-09
2.27866e-07
1.16587e-07
1.42762e-07
0.000199856
0.000192815
0.000976213
1.08362e-05
1.42585e-11
2.72987e-11
5.6847e-11
2.26571e-10
1.56633e-10
4.95414e-09
3.88936e-08
5.24073e-09
4.85057e-09
4.83011e-09
4.59143e-09
2.63688e-07
2.80008e-07
1.42762e-07
0.00014544
0.000381553
0.000237565
0.000426634
2.28845e-07
1.7359e-11
3.70517e-11
1.18915e-10
1.90108e-10
1.56599e-10
2.25382e-10
6.48352e-10
1.311e-07
2.50032e-06
6.09328e-06
6.0327e-06
2.14323e-06
2.97772e-07
2.73026e-05
0.000380355
0.000381553
9.94605e-05
1.68626e-07
6.68466e-08
1.41903e-11
3.68755e-11
1.47669e-10
2.97833e-10
1.74519e-10
1.75016e-10
1.75726e-10
3.2498e-06
6.43024e-06
6.43197e-06
6.43024e-06
7.78023e-07
3.71362e-07
0.000295982
0.000379086
0.000381553
4.80041e-05
6.06893e-08
8.96192e-10
8.77373e-12
2.64359e-11
1.49866e-10
3.40064e-10
2.59453e-10
1.74695e-10
1.74433e-10
9.02253e-07
5.91477e-06
6.43159e-06
2.28308e-06
1.14881e-07
6.43723e-05
0.000371189
0.000376619
0.000139059
1.01335e-08
1.28398e-09
3.53269e-10
4.94259e-12
1.60073e-11
7.04255e-11
3.2005e-10
4.28027e-10
1.92888e-10
1.75291e-10
1.75992e-10
6.98104e-07
1.07882e-06
1.45476e-07
1.17165e-07
5.60482e-05
7.06082e-05
1.21982e-05
1.23168e-10
-8.01899e-10
-1.58903e-10
3.10387e-10
2.02082e-12
7.89247e-12
2.90395e-11
1.85708e-10
4.28314e-10
3.13037e-10
1.30939e-09
1.31787e-09
2.16356e-09
4.78387e-09
4.59008e-08
6.4546e-07
1.35333e-09
1.33031e-10
8.27083e-11
1.33151e-10
1.42671e-10
1.58567e-10
3.27078e-10
5.02033e-13
2.82578e-12
1.24308e-11
3.76957e-11
2.81797e-10
2.88876e-10
4.06006e-09
4.19366e-09
2.32304e-09
4.71125e-09
4.02764e-08
6.04012e-08
1.15475e-08
4.66856e-11
6.56106e-11
1.35486e-10
2.7982e-10
3.88022e-10
7.25845e-10
6.63141e-14
6.61598e-13
4.01453e-12
1.6602e-11
5.99505e-11
1.60844e-10
2.89516e-09
3.85908e-09
2.30917e-09
1.52256e-09
2.36974e-09
1.62654e-11
1.59723e-11
4.51153e-11
6.88183e-11
1.89003e-10
2.80134e-10
2.63026e-10
1.00531e-09
4.34337e-15
9.31085e-14
9.05405e-13
5.24039e-12
2.21109e-11
4.78141e-11
4.4907e-10
8.61078e-10
7.51047e-10
2.74318e-10
1.63446e-11
1.36901e-11
1.26354e-11
6.50953e-12
1.4032e-11
1.23357e-11
7.67944e-12
1.6684e-11
1.03643e-09
)
;

boundaryField
{
    leftWall
    {
        type            zeroGradient;
    }
    rightWall
    {
        type            zeroGradient;
    }
    lowerWall
    {
        type            zeroGradient;
    }
    atmosphere
    {
        type            inletOutlet;
        inletValue      uniform 0;
        value           nonuniform List<scalar> 
46
(
1.25531e-51
4.47067e-50
1.70383e-48
5.07926e-47
1.25181e-45
2.75487e-44
5.69745e-43
1.09915e-41
1.86641e-40
2.40266e-39
1.68822e-38
6.39884e-39
0
0
0
0
0
0
0
0
0
0
0
0
0
0
0
0
0
9.05405e-13
5.24039e-12
2.21109e-11
4.78141e-11
4.4907e-10
8.61078e-10
7.51047e-10
2.74318e-10
1.63446e-11
1.36901e-11
1.26354e-11
0
0
0
0
0
1.03643e-09
)
;
    }
    defaultFaces
    {
        type            empty;
    }
}


// ************************************************************************* //
