/*--------------------------------*- C++ -*----------------------------------*\
| =========                 |                                                 |
| \\      /  F ield         | OpenFOAM: The Open Source CFD Toolbox           |
|  \\    /   O peration     | Version:  v1606+                                |
|   \\  /    A nd           | Web:      www.OpenFOAM.com                      |
|    \\/     M anipulation  |                                                 |
\*---------------------------------------------------------------------------*/
FoamFile
{
    version     2.0;
    format      ascii;
    class       volScalarField;
    location    "0.67";
    object      p_rgh;
}
// * * * * * * * * * * * * * * * * * * * * * * * * * * * * * * * * * * * * * //

dimensions      [1 -1 -2 0 0 0 0];

internalField   nonuniform List<scalar> 
6000
(
107120
107118
107115
107113
107111
107111
107111
107113
107115
107116
107115
107112
107109
107105
107103
107102
107102
107104
107106
107107
107106
107104
107101
107099
107099
107099
107100
107102
107105
107107
107111
107110
107107
107103
107098
107093
107090
107090
107091
107093
107091
107085
107079
107075
107073
107072
107072
107074
107080
107084
107083
107080
107079
107079
107081
107086
107091
107094
107097
107098
107129
107129
107125
107121
107114
107107
107099
107092
107091
107096
107096
107084
107073
107071
107070
107068
107066
107068
107079
107088
107084
107079
107082
107089
107096
107103
107109
107113
107116
107115
107152
107156
107154
107150
107136
107121
107112
107103
107095
107091
107089
107078
107076
107074
107073
107072
107070
107070
107072
107081
107080
107085
107093
107101
107110
107126
107138
107142
107142
107137
107210
107224
107218
107212
107193
107162
107136
107116
107106
107098
107091
107088
107086
107087
107088
107084
107081
107079
107080
107082
107088
107096
107106
107127
107153
107184
107202
107206
107208
107194
107272
107278
107272
107271
107262
107237
107197
107154
107124
107108
107101
107097
107097
107111
107125
107113
107094
107088
107088
107091
107098
107116
107146
107190
107229
107251
107258
107258
107261
107254
107240
107245
107255
107267
107280
107287
107272
107232
107175
107132
107112
107105
107120
107170
107193
107176
107132
107097
107094
107102
107125
107170
107226
107263
107274
107263
107249
107237
107226
107221
107162
107183
107210
107235
107256
107275
107292
107293
107255
107189
107145
107135
107180
107245
107258
107247
107206
107135
107117
107135
107185
107248
107280
107274
107256
107236
107214
107187
107160
107133
106968
107036
107113
107184
107221
107250
107266
107278
107289
107251
107209
107201
107255
107291
107290
107287
107273
107204
107178
107196
107243
107272
107257
107245
107228
107195
107154
107072
106997
106933
106811
106840
106896
106987
107113
107211
107230
107231
107231
107241
107245
107243
107259
107265
107268
107259
107238
107222
107219
107223
107217
107207
107207
107203
107175
107060
106939
106863
106813
106793
106819
106819
106831
106875
106938
107024
107109
107103
107079
107098
107123
107112
107098
107189
107225
107199
107059
107055
107080
107084
107056
107039
107055
107048
106967
106903
106855
106817
106803
106804
106832
106834
106871
106917
106941
106922
106873
106804
106772
106799
106841
106833
106820
106936
107144
106961
106797
106771
106794
106790
106746
106727
106767
106846
106903
106922
106903
106860
106823
106817
106848
106883
106941
106986
106995
106947
106816
106664
106591
106583
106602
106631
106702
106863
107025
106918
106728
106628
106594
106573
106557
106571
106659
106823
106947
106986
106976
106935
106879
106843
106906
106960
107021
107061
107059
106990
106822
106648
106562
106545
106550
106604
106719
106905
107048
106966
106760
106624
106563
106532
106532
106549
106645
106838
107005
107058
107054
107023
106971
106921
107000
107053
107112
107152
107154
107068
106851
106651
106563
106546
106548
106616
106753
106939
107105
107009
106799
106643
106567
106533
106534
106549
106647
106857
107061
107133
107141
107127
107088
107046
107113
107159
107206
107229
107237
107192
106939
106673
106565
106548
106550
106626
106777
106985
107161
107069
106834
106666
106569
106534
106535
106552
106663
106889
107097
107195
107234
107242
107227
107203
107252
107293
107319
107307
107283
107240
107052
106732
106573
106549
106549
106632
106804
107045
107201
107137
106889
106691
106569
106535
106536
106561
106707
106953
107164
107289
107351
107373
107371
107366
107424
107447
107445
107404
107353
107271
107104
106810
106595
106550
106550
106638
106844
107093
107241
107200
106958
106718
106570
106536
106537
106594
106811
107109
107337
107454
107476
107476
107474
107478
107553
107551
107549
107509
107440
107318
107126
106865
106630
106552
106552
106646
106897
107153
107280
107260
107015
106740
106575
106537
106555
106691
107045
107389
107521
107524
107512
107504
107500
107501
107578
107575
107589
107593
107550
107412
107189
106914
106672
106562
106555
106673
106984
107249
107325
107311
107056
106764
106596
106558
106632
106927
107352
107523
107536
107522
107506
107495
107488
107484
107583
107585
107604
107623
107649
107553
107387
107057
106744
106601
106585
106748
107131
107379
107394
107347
107083
106796
106652
106642
106843
107261
107528
107583
107553
107522
107497
107479
107468
107461
107577
107575
107588
107615
107645
107672
107713
107493
106975
106720
106688
106902
107320
107489
107476
107364
107100
106858
106769
106870
107201
107539
107650
107609
107553
107509
107477
107455
107443
107435
107553
107579
107602
107627
107662
107709
107760
107766
107436
107046
106921
107135
107485
107570
107535
107365
107128
106979
107003
107254
107556
107698
107650
107567
107500
107453
107425
107409
107401
107397
107543
107575
107593
107610
107636
107676
107733
107808
107790
107556
107356
107430
107594
107633
107536
107384
107218
107177
107353
107599
107728
107665
107553
107458
107386
107346
107338
107340
107343
107346
107521
107532
107533
107537
107550
107582
107644
107731
107824
107855
107791
107706
107610
107658
107540
107447
107360
107454
107641
107734
107668
107546
107413
107275
107188
107157
107190
107242
107273
107291
107460
107453
107445
107438
107414
107421
107492
107592
107695
107790
107833
107800
107641
107654
107545
107513
107503
107657
107715
107657
107542
107393
107206
107033
106961
106948
106986
107090
107179
107230
107383
107374
107353
107308
107165
107137
107242
107415
107541
107646
107726
107759
107697
107605
107446
107409
107544
107661
107638
107540
107404
107201
106985
106953
106933
106914
106895
106933
107042
107159
107318
107295
107227
107098
106960
106973
106991
107179
107371
107508
107608
107681
107699
107566
107296
107290
107482
107604
107538
107430
107252
107023
106949
106930
106911
106895
106880
106910
106981
107096
107259
107198
107063
106917
106930
106943
106955
106989
107181
107373
107501
107589
107654
107589
107244
107231
107474
107540
107454
107315
107098
106995
106975
106986
106958
106916
106906
106947
107092
107099
107156
107108
107074
106912
106920
106928
106976
107058
107127
107225
107396
107509
107584
107601
107350
107298
107480
107466
107367
107197
107071
107062
107051
107042
107029
107016
107001
106990
106980
106993
106857
106602
106893
106934
106947
106953
106953
106883
106857
106990
107251
107438
107523
107578
107504
107412
107443
107394
107259
107136
106903
106716
106634
106630
106572
106647
106609
106432
106038
105927
105706
105557
105846
106290
106496
106416
106204
105897
105827
106039
106718
107314
107475
107531
107528
107450
107379
107297
107074
106425
105904
105670
105589
105569
105546
105624
105576
105445
105325
105368
105359
105256
105269
105373
105468
105438
105367
105302
105298
105348
105668
106640
107409
107508
107516
107433
107249
107024
106055
105433
105302
105262
105241
105230
105226
105232
105226
105220
105235
105332
105362
105243
105217
105215
105220
105221
105224
105234
105249
105271
105380
106049
107181
107513
107520
107402
106893
105825
105354
105277
105257
105238
105221
105212
105209
105208
105208
105212
105234
105347
105367
105254
105218
105214
105214
105215
105221
105238
105261
105286
105373
105967
107155
107543
107554
107423
106624
105454
105316
105293
105274
105249
105226
105213
105210
105210
105210
105214
105242
105357
105372
105264
105220
105215
105215
105216
105226
105250
105282
105311
105387
105980
107223
107580
107606
107469
106529
105424
105338
105315
105295
105266
105236
105217
105211
105211
105211
105215
105252
105362
105368
105268
105222
105216
105216
105218
105235
105268
105306
105337
105396
105940
107234
107631
107667
107498
106477
105429
105356
105332
105314
105286
105252
105226
105213
105212
105212
105216
105258
105362
105344
105266
105223
105217
105217
105223
105247
105288
105332
105362
105401
105816
107148
107676
107728
107448
106314
105449
105373
105349
105332
105305
105271
105238
105218
105213
105213
105217
105259
105343
105321
105260
105222
105217
105218
105229
105261
105309
105356
105387
105407
105645
106907
107721
107790
107402
106193
105500
105393
105367
105350
105324
105290
105255
105227
105214
105214
105217
105255
105318
105306
105253
105222
105218
105220
105237
105277
105330
105381
105411
105424
105515
106405
107741
107853
107520
106224
105552
105415
105386
105369
105345
105311
105274
105239
105218
105214
105216
105249
105301
105296
105248
105221
105219
105224
105248
105295
105353
105406
105435
105448
105487
105983
107486
107896
107696
106473
105604
105437
105406
105389
105367
105335
105296
105255
105225
105215
105216
105243
105291
105285
105243
105221
105220
105230
105263
105318
105380
105431
105458
105471
105500
105740
107017
107922
107788
106695
105653
105461
105428
105411
105391
105362
105325
105277
105235
105217
105217
105238
105282
105273
105239
105223
105224
105242
105285
105349
105411
105458
105480
105494
105525
105650
106493
107933
107841
106832
105691
105488
105453
105437
105420
105394
105359
105307
105253
105223
105217
105235
105272
105259
105238
105227
105232
105260
105317
105388
105445
105484
105503
105517
105551
105661
106290
107762
107883
106886
105718
105516
105482
105467
105451
105428
105399
105345
105280
105233
105219
105232
105261
105246
105237
105233
105246
105287
105359
105434
105479
105510
105526
105542
105581
105696
106288
107650
107930
106927
105758
105550
105517
105501
105485
105464
105440
105389
105316
105251
105224
105228
105247
105235
105237
105241
105264
105323
105409
105481
105513
105537
105552
105570
105615
105735
106321
107664
107990
106974
105807
105589
105556
105540
105524
105501
105478
105431
105356
105276
105231
105224
105232
105228
105237
105250
105286
105365
105465
105528
105549
105567
105583
105604
105652
105777
106364
107689
108058
107007
105856
105631
105602
105586
105567
105540
105511
105465
105392
105304
105241
105218
105216
105227
105238
105258
105310
105411
105520
105573
105588
105604
105621
105644
105694
105826
106403
107703
108124
107026
105904
105679
105651
105639
105617
105581
105539
105485
105414
105329
105253
105215
105202
105226
105241
105266
105333
105453
105568
105617
105633
105649
105669
105693
105743
105878
106420
107683
108188
107062
105954
105734
105706
105698
105675
105627
105564
105495
105423
105344
105265
105214
105193
105226
105243
105273
105354
105483
105602
105658
105683
105706
105728
105751
105802
105943
106437
107613
108247
107082
106034
105798
105767
105764
105745
105682
105590
105499
105423
105350
105274
105214
105191
105226
105244
105277
105369
105499
105618
105697
105742
105774
105800
105821
105872
106021
106524
107556
108065
107221
106178
105876
105836
105838
105827
105748
105621
105503
105415
105347
105279
105216
105191
105226
105244
105283
105378
105504
105625
105729
105807
105854
105884
105903
105952
106109
106603
107500
107929
107326
106331
105969
105913
105917
105915
105824
105663
105511
105407
105338
105280
105222
105190
105226
105242
105290
105382
105497
105621
105755
105873
105945
105981
105998
106043
106207
106677
107426
107769
107388
106489
106077
105999
106001
105998
105900
105717
105531
105406
105329
105278
105231
105190
105227
105241
105297
105380
105482
105614
105778
105940
106044
106088
106106
106149
106318
106774
107380
107607
107386
106642
106196
106091
106087
106080
105977
105784
105570
105416
105328
105274
105238
105190
105229
105242
105301
105375
105473
105614
105805
106009
106149
106204
106225
106270
106448
106872
107346
107481
107344
106779
106329
106194
106182
106173
106063
105864
105632
105445
105334
105272
105241
105190
105232
105246
105303
105373
105474
105626
105841
106081
106258
106331
106356
106411
106601
106982
107322
107379
107288
106896
106480
106317
106292
106279
106166
105961
105719
105503
105356
105277
105241
105190
105238
105251
105305
105378
105490
105659
105895
106160
106371
106478
106517
106584
106774
107094
107318
107319
107251
106994
106649
106464
106418
106392
106280
106077
105828
105590
105407
105296
105243
105190
105246
105261
105311
105393
105524
105715
105972
106260
106508
106655
106716
106791
106964
107211
107333
107304
107246
107090
106830
106647
106578
106532
106417
106210
105957
105702
105487
105339
105254
105191
105256
105281
105329
105428
105583
105800
106078
106389
106676
106862
106943
107021
107168
107340
107384
107331
107279
107202
107028
106868
106788
106728
106596
106372
106112
105836
105591
105406
105281
105191
105268
105312
105370
105489
105671
105916
106220
106556
106882
107102
107199
107273
107385
107489
107487
107418
107374
107354
107254
107131
107050
106976
106830
106584
106300
105997
105715
105493
105328
105200
105281
105357
105437
105580
105793
106072
106407
106778
107135
107377
107482
107544
107617
107667
107650
107587
107557
107563
107522
107441
107370
107290
107132
106863
106528
106187
105861
105598
105396
105235
105301
105418
105530
105708
105961
106286
106664
107073
107445
107684
107782
107827
107867
107884
107867
107830
107819
107836
107834
107796
107743
107667
107507
107217
106826
106420
106036
105729
105490
105307
105336
105497
105654
105883
106197
106585
107020
107456
107810
108016
108095
108125
108145
108151
108144
108137
108144
108166
108182
108174
108143
108087
107954
107674
107239
106731
106259
105892
105624
105420
105398
105604
105824
106132
106535
107010
107501
107928
108224
108376
108436
108462
108478
108488
108495
108506
108520
108537
108551
108552
108536
108503
108420
108224
107843
107235
106585
106099
105809
105588
105501
105762
106076
106501
107028
107595
108100
108463
108668
108761
108805
108832
108851
108865
108877
108888
108896
108899
108899
108892
108877
108854
108811
108714
108485
107996
107152
106391
106050
105834
105669
106019
106466
107050
107714
108305
108722
108938
109032
109079
109108
109127
109139
109147
109151
109153
109150
109145
109136
109124
109109
109089
109062
109019
108926
108726
107938
106832
106356
106169
105957
106445
107059
107809
108506
108939
109135
109208
109240
109256
109264
109268
109268
109267
109264
109261
109258
109253
109248
109240
109230
109218
109200
109177
109146
109134
108685
107431
106750
106594
106457
107127
107869
108630
109098
109263
109311
109327
109332
109330
109325
109319
109313
109308
109304
109301
109299
109299
109298
109297
109295
109291
109283
109274
109275
109315
109168
108040
107245
107112
107284
108058
108692
109172
109340
109376
109382
109379
109371
109360
109348
109337
109327
109320
109316
109315
109316
109319
109324
109329
109334
109338
109340
109344
109359
109395
109263
108449
107762
107678
108364
108948
109199
109360
109411
109419
109413
109401
109384
109366
109349
109334
109322
109313
109309
109308
109312
109319
109329
109342
109355
109368
109379
109393
109413
109417
109243
108637
108203
108208
109127
109381
109386
109414
109436
109436
109423
109402
109377
109353
109330
109310
109295
109284
109279
109280
109286
109296
109311
109332
109354
109377
109400
109425
109449
109427
109239
108909
108709
108670
109152
109416
109437
109439
109445
109436
109413
109382
109349
109318
109291
109268
109249
109237
109231
109231
109239
109253
109273
109297
109326
109359
109396
109433
109465
109445
109324
109245
109179
109010
109084
109387
109444
109445
109438
109417
109382
109343
109304
109265
109228
109195
109168
109149
109139
109138
109149
109169
109201
109238
109279
109320
109366
109415
109457
109455
109396
109395
109378
109100
109025
109362
109437
109436
109417
109380
109339
109290
109235
109175
109114
109054
109006
108969
108951
108941
108964
108995
109049
109118
109190
109256
109316
109374
109428
109453
109425
109395
109371
109068
108980
109355
109429
109416
109382
109338
109282
109209
109121
109016
108902
108810
108760
108718
108696
108683
108707
108725
108777
108879
109017
109144
109242
109321
109381
109428
109430
109399
109350
109009
109013
109367
109414
109386
109341
109282
109200
109086
108936
108781
108658
108609
108605
108594
108580
108576
108573
108546
108535
108591
108736
108937
109126
109249
109332
109387
109415
109402
109325
108953
109116
109369
109382
109351
109294
109210
109085
108908
108739
108647
108622
108608
108608
108604
108597
108583
108580
108549
108502
108461
108518
108630
108928
109148
109270
109343
109387
109396
109315
108905
109196
109351
109346
109314
109237
109112
108927
108740
108651
108621
108620
108612
108614
108616
108613
108597
108576
108549
108514
108448
108423
108377
108632
108991
109193
109296
109352
109382
109326
108910
109233
109327
109316
109271
109158
108968
108747
108615
108564
108541
108585
108614
108618
108616
108601
108598
108561
108534
108506
108438
108363
108302
108347
108751
109082
109243
109317
109349
109337
109028
109257
109303
109289
109207
109024
108779
108569
108445
108424
108427
108500
108579
108618
108617
108584
108598
108560
108525
108476
108422
108345
108292
108220
108482
108906
109170
109286
109318
109325
109149
109269
109280
109244
109087
108844
108643
108438
108307
108320
108332
108386
108517
108609
108619
108586
108595
108570
108527
108481
108424
108353
108275
108140
108269
108619
109047
109240
109294
109305
109201
109258
109250
109141
108934
108806
108595
108311
108310
108333
108361
108366
108425
108539
108620
108594
108597
108581
108537
108503
108439
108375
108252
108042
108086
108206
108812
109162
109274
109291
109232
109240
109146
109018
108924
108768
108490
108310
108314
108407
108485
108374
108369
108464
108549
108585
108587
108570
108542
108496
108458
108403
108267
107991
107913
107840
108355
109006
109234
109277
109255
109153
108934
108967
108830
108628
108351
108312
108338
108562
108706
108451
108373
108422
108477
108546
108545
108533
108526
108498
108479
108435
108312
108020
107811
107803
107945
108887
109144
109252
109259
108832
108443
108714
108555
108453
108347
108353
108563
108800
108852
108609
108392
108416
108455
108497
108497
108486
108503
108509
108511
108466
108344
108062
107823
107804
107961
108646
109011
109187
109255
108016
108005
108250
108281
108384
108484
108688
108901
108946
108907
108785
108495
108452
108466
108480
108475
108468
108467
108499
108514
108472
108350
108081
107854
107807
107932
108320
108910
109083
109212
108002
108007
108036
108311
108614
108868
109016
109028
108992
108951
108908
108685
108549
108502
108495
108477
108472
108468
108464
108455
108407
108318
108045
107923
107866
107871
108066
108635
108992
109133
108008
108019
108295
108700
108993
109075
109055
109021
109001
108987
108968
108854
108690
108601
108570
108534
108504
108477
108432
108328
108223
108171
108042
108158
108146
107917
107851
108347
108649
109025
108013
108433
108857
109073
109078
109062
108968
108977
108991
109003
108994
108941
108846
108783
108755
108719
108672
108608
108502
108335
108146
108045
108047
108573
108601
108045
107842
108025
108157
108868
108441
108981
109109
109099
109063
108911
108815
108904
108981
109021
109024
109013
108997
108990
108985
108970
108937
108879
108757
108542
108290
108112
108101
108658
108854
108291
107841
107831
107952
108549
108980
109104
109095
109054
108927
108634
108728
108894
109008
109064
109076
109094
109114
109127
109133
109134
109126
109107
109058
108938
108717
108464
108337
108559
108874
108572
107878
107834
107829
108290
109091
109084
109063
108959
108699
108552
108735
108957
109086
109123
109134
109151
109162
109164
109165
109168
109171
109177
109182
109169
109106
108966
108782
108641
108883
108756
108101
107836
107831
108146
109068
108993
108983
108735
108442
108549
108847
109091
109156
109162
109160
109158
109149
109144
109141
109140
109144
109151
109161
109172
109184
109185
109116
108938
108961
108905
108476
107944
107862
108115
108790
108645
108827
108338
108376
108689
109062
109176
109178
109163
109145
109126
109104
109084
109067
109056
109056
109063
109088
109121
109153
109167
109180
109156
109093
109047
108813
108303
108090
108156
107968
108161
108530
108334
108523
109002
109186
109180
109167
109136
109096
109047
108999
108956
108921
108896
108888
108878
108908
108956
109037
109111
109154
109169
109171
109147
109039
108729
108450
108244
107930
107932
108000
108355
108923
109189
109181
109169
109135
109066
108985
108908
108849
108805
108773
108753
108740
108710
108707
108720
108814
108956
109066
109128
109161
109181
109155
109002
108714
108298
107934
107938
108082
108796
109183
109184
109170
109146
109048
108926
108834
108775
108747
108727
108719
108712
108702
108675
108630
108618
108613
108754
108905
109033
109117
109166
109192
109142
108889
108353
107938
108133
108703
109165
109191
109174
109156
109045
108887
108770
108728
108707
108706
108706
108711
108699
108681
108652
108600
108585
108464
108599
108740
108874
109024
109128
109181
109199
109057
108517
108136
108746
109161
109198
109180
109162
109046
108870
108723
108677
108670
108662
108677
108690
108690
108675
108641
108606
108548
108539
108295
108443
108618
108716
108872
109046
109155
109188
109163
108793
108692
109150
109202
109184
109165
109048
108850
108685
108543
108599
108605
108616
108650
108667
108644
108634
108577
108539
108457
108433
108267
108273
108549
108671
108758
108926
109096
109170
109183
109015
109093
109199
109185
109167
109040
108832
108659
108517
108463
108480
108557
108581
108632
108643
108598
108591
108521
108476
108378
108323
108268
108266
108386
108575
108768
108846
108997
109146
109164
109124
109183
109180
109165
109024
108729
108525
108376
108396
108467
108470
108533
108585
108618
108618
108575
108549
108488
108433
108358
108319
108305
108274
108204
108319
108614
108762
108867
109033
109145
109151
109168
109159
108981
108588
108337
108271
108278
108391
108572
108553
108537
108576
108590
108583
108555
108513
108470
108408
108363
108397
108473
108340
108202
108196
108291
108490
108584
108825
108942
109134
109152
108861
108469
108272
108265
108272
108330
108549
108767
108731
108582
108539
108538
108541
108532
108498
108469
108420
108440
108601
108730
108581
108293
108199
108191
108216
108267
108470
108266
108893
108900
108309
108310
108283
108310
108410
108642
108846
108895
108857
108651
108532
108500
108510
108520
108503
108489
108495
108605
108798
108885
108880
108672
108392
108241
108177
108148
108139
108106
108122
108471
108339
108487
108531
108613
108782
108950
108962
108926
108911
108718
108534
108498
108503
108524
108530
108548
108621
108768
108901
108920
108970
108983
108828
108602
108429
108310
108180
108111
108104
108524
108749
108843
108878
108934
109003
109000
108953
108927
108928
108777
108550
108498
108517
108548
108574
108611
108708
108845
108907
108913
108940
109009
109029
108982
108873
108760
108585
108297
108107
108860
109004
109002
109000
109010
109012
108976
108923
108920
108926
108834
108613
108544
108566
108591
108612
108635
108708
108849
108900
108891
108888
108972
109019
109040
109042
109038
108988
108819
108315
108994
108995
108986
108989
109002
109002
108947
108896
108905
108916
108880
108720
108640
108632
108635
108638
108642
108675
108805
108878
108872
108875
108925
108989
109008
109027
109052
109079
109071
108849
108971
108975
108942
108972
108988
108989
108909
108874
108885
108901
108886
108796
108722
108687
108671
108663
108653
108658
108717
108833
108865
108874
108911
108969
108974
108976
108984
109063
109065
109066
108670
108902
108884
108947
108977
108852
108641
108614
108615
108698
108744
108777
108745
108721
108705
108694
108682
108662
108696
108817
108862
108865
108903
108966
108960
108930
108884
109033
109044
109048
106784
108259
108766
108866
108677
108185
107905
107835
107814
107933
108181
108526
108717
108729
108735
108733
108727
108709
108735
108828
108860
108855
108896
108966
108959
108901
108867
108880
109010
109025
106226
106589
107476
107966
107802
107404
107249
107207
107209
107275
107548
107969
108441
108696
108752
108762
108763
108762
108781
108814
108770
108751
108819
108956
108951
108901
108862
108659
108345
108820
106236
106236
106279
106795
107042
107104
107110
107112
107125
107188
107369
107613
107973
108387
108628
108711
108732
108726
108694
108541
108302
108282
108399
108697
108927
108824
108713
107830
107015
107245
106250
106252
106346
106773
107115
107228
107215
107207
107243
107319
107444
107601
107753
107977
108239
108410
108473
108434
108267
107911
107662
107645
107745
107968
108269
107899
107392
106659
106594
106599
106362
106624
106868
107204
107548
107733
107742
107690
107673
107705
107723
107739
107781
107823
107884
107954
107996
107943
107746
107496
107418
107410
107398
107328
107133
106669
106602
106604
106607
106981
106718
107276
107621
107959
108279
108474
108515
108463
108377
108284
108176
108068
107960
107880
107817
107755
107744
107727
107630
107507
107470
107464
107405
107186
106730
106618
106618
106645
106869
107598
107140
107937
108376
108703
108894
108974
108979
108940
108866
108754
108613
108457
108283
108095
107927
107826
107803
107810
107775
107742
107749
107739
107622
107364
106958
106799
106860
107047
107393
107765
107724
108506
108914
109067
109102
109087
109057
109037
109009
108950
108858
108740
108599
108419
108223
108098
108078
108125
108175
108229
108260
108256
108157
107945
107681
107550
107641
107792
107853
107776
108344
108943
109142
109157
109121
109075
109045
109031
109024
109001
108952
108882
108797
108692
108571
108489
108489
108550
108622
108686
108723
108741
108724
108658
108573
108517
108525
108518
108261
107781
108807
109145
109200
109160
109092
109040
109016
109016
109014
109007
108982
108941
108892
108842
108795
108773
108790
108833
108880
108918
108947
108972
108992
109004
109005
108995
108976
108950
108726
108003
109057
109204
109197
109118
109026
108990
108993
108998
109004
109004
108992
108967
108936
108908
108891
108895
108917
108945
108970
108991
109007
109021
109031
109039
109046
109057
109071
109089
109049
108553
109165
109198
109157
109014
108972
108976
108981
108988
108997
109001
108995
108979
108959
108942
108935
108944
108964
108984
108999
109010
109018
109024
109027
109028
109031
109039
109058
109104
109125
108984
109172
109169
109066
108946
108955
108962
108971
108982
108991
108997
108995
108987
108974
108963
108961
108972
108988
109002
109010
109014
109017
109018
109018
109016
109015
109018
109030
109086
109101
109099
109142
109018
108964
108926
108938
108952
108966
108975
108984
108992
108995
108992
108986
108979
108980
108992
109004
109011
109013
109013
109013
109011
109009
109005
109000
108996
108994
109042
109074
109076
108983
108353
108689
108919
108934
108946
108956
108966
108976
108986
108995
109001
109002
109000
109002
109012
109017
109015
109012
109009
109007
109004
108998
108992
108986
108981
108978
108979
109006
109045
107376
106854
107353
108238
108587
108657
108725
108757
108812
108871
108939
108982
108994
108991
108994
109005
109000
108939
108789
108663
108638
108650
108645
108617
108574
108582
108436
108088
107898
108482
105861
105887
106006
106556
107096
107336
107540
107693
107889
108110
108382
108617
108722
108736
108737
108734
108634
108328
107886
107571
107438
107379
107298
107197
107112
107073
106795
106418
106325
106447
105785
105794
105822
105978
106205
106411
106593
106806
107074
107346
107668
107984
108181
108235
108234
108192
107994
107604
107189
106867
106622
106443
106286
106183
106130
106054
105914
105761
105712
105681
105803
105837
106027
106213
106378
106552
106698
106894
107158
107391
107650
107871
108028
108091
108093
108034
107873
107605
107291
107001
106731
106523
106340
106249
106215
106146
106054
105887
105710
105702
105821
106075
106534
106753
106931
107098
107248
107407
107648
107803
107964
108083
108182
108231
108236
108189
108082
107935
107760
107538
107268
107044
106818
106731
106684
106611
106512
106316
105878
105719
105837
106627
107207
107377
107559
107757
107950
108071
108246
108334
108412
108450
108484
108508
108513
108489
108449
108395
108314
108182
107989
107804
107578
107480
107370
107255
107132
106972
106353
105734
106326
107572
108003
108078
108086
108263
108414
108501
108584
108633
108667
108685
108697
108706
108702
108696
108685
108661
108624
108566
108478
108372
108230
108135
108010
107871
107866
107781
107239
106046
107745
108663
108716
108723
108562
108598
108648
108707
108734
108762
108779
108792
108799
108803
108799
108798
108792
108779
108761
108738
108707
108663
108612
108545
108488
108442
108591
108582
108425
107321
109000
109052
109019
109003
108890
108766
108714
108756
108786
108812
108831
108842
108850
108852
108853
108853
108848
108840
108828
108813
108794
108768
108740
108701
108742
108854
108974
108992
109043
108808
109046
109025
109003
108991
108998
108880
108774
108780
108804
108823
108837
108847
108854
108859
108862
108860
108854
108848
108840
108830
108818
108802
108782
108782
108877
109002
108997
109015
109040
109061
108898
107887
108568
108817
108977
108973
108924
108900
108899
108900
108903
108905
108907
108908
108909
108910
108910
108908
108906
108904
108903
108904
108907
108936
108999
108992
108898
108754
108258
109033
105271
104107
105568
106574
107344
107693
107992
108201
108386
108499
108580
108629
108659
108678
108690
108693
108695
108701
108697
108677
108631
108560
108437
108299
108088
107849
107205
106333
104895
106228
101227
100858
101411
102018
102695
103184
103783
104267
104728
105053
105297
105449
105536
105584
105616
105643
105682
105735
105747
105689
105535
105293