/*--------------------------------*- C++ -*----------------------------------*\
| =========                 |                                                 |
| \\      /  F ield         | OpenFOAM: The Open Source CFD Toolbox           |
|  \\    /   O peration     | Version:  v1606+                                |
|   \\  /    A nd           | Web:      www.OpenFOAM.com                      |
|    \\/     M anipulation  |                                                 |
\*---------------------------------------------------------------------------*/
FoamFile
{
    version     2.0;
    format      ascii;
    class       surfaceScalarField;
    location    "1.67";
    object      phi.particles;
}
// * * * * * * * * * * * * * * * * * * * * * * * * * * * * * * * * * * * * * //

dimensions      [0 3 -1 0 0 0 0];

internalField   nonuniform List<scalar> 
11770
(
-3.76399e-06
-1.97367e-05
-4.44351e-06
-1.74835e-05
-3.96234e-06
-1.4785e-05
-3.64733e-06
-1.38316e-05
-3.39463e-06
-1.30182e-05
-2.30279e-06
-1.30565e-05
-4.10512e-07
-1.33636e-05
1.65461e-06
-1.43927e-05
3.05511e-06
-1.66234e-05
3.12938e-06
-2.14106e-05
1.8508e-06
-2.3561e-05
-5.8972e-08
-2.4839e-05
-1.43287e-06
-2.5758e-05
-2.3762e-06
-2.56044e-05
-3.45681e-06
-2.56401e-05
-4.624e-06
-2.45478e-05
-5.46539e-06
-2.32224e-05
-5.33726e-06
-2.07241e-05
-4.64594e-06
-1.767e-05
-4.31822e-06
-1.55862e-05
-4.14936e-06
-1.45001e-05
-3.45815e-06
-1.50936e-05
-2.28343e-06
-1.60255e-05
-9.22578e-07
-1.6422e-05
1.28211e-06
-1.77043e-05
3.67553e-06
-1.88509e-05
3.64552e-06
-2.08451e-05
1.58592e-06
-2.49758e-05
4.40203e-07
-2.5051e-05
-2.34069e-05
1.8202e-06
-8.54338e-06
2.94304e-07
-2.87086e-06
-2.74039e-07
-1.63604e-06
-2.45358e-07
-7.52367e-08
-1.07069e-07
2.99763e-06
1.19588e-06
3.60979e-06
3.48566e-06
4.58293e-06
5.46293e-06
5.59008e-06
5.30437e-06
7.8223e-06
2.4573e-06
6.94505e-06
-9.22358e-08
4.70421e-06
-8.16694e-07
2.09889e-06
-1.08723e-06
1.47861e-06
-1.40055e-06
2.00359e-06
-2.11559e-06
2.32683e-06
-4.09668e-06
3.58588e-06
-7.70831e-06
5.33439e-06
-1.11228e-05
6.81182e-06
-1.29412e-05
7.71633e-06
-1.36982e-05
7.10005e-06
-1.32664e-05
3.46147e-06
-1.11308e-05
-1.43979e-06
-8.26639e-06
-4.98567e-06
-5.63842e-06
-6.19576e-06
-3.36607e-06
-8.8387e-06
-1.23637e-06
-1.04954e-05
1.08493e-06
-8.54402e-06
1.92649e-06
-7.24324e-06
-4.21159e-07
-3.72946e-06
-5.29269e-06
1.79685e-06
-1.16035e-05
2.55153e-06
-9.90323e-06
2.67418e-06
-1.01172e-05
2.28633e-06
-9.23982e-06
1.74892e-06
-6.81128e-06
1.95289e-06
-6.62595e-06
3.26529e-06
-4.8901e-06
6.04572e-06
-5.69147e-07
6.5086e-06
4.79415e-06
4.08056e-06
8.907e-06
1.6816e-06
7.22805e-06
2.39641e-08
3.78303e-06
-9.05558e-07
2.20303e-06
-1.85466e-06
1.97078e-06
-3.26572e-06
2.47734e-06
-5.74349e-06
4.20348e-06
-8.97689e-06
6.9109e-06
-1.22706e-05
8.04165e-06
-1.5401e-05
8.55563e-06
-1.77432e-05
5.47129e-06
-1.80621e-05
-2.24644e-06
-1.55602e-05
-8.33063e-06
-1.19467e-05
-1.03663e-05
-8.71855e-06
-1.02231e-05
-5.87867e-06
-1.1391e-05
-2.80283e-06
-1.24785e-05
9.05012e-07
-1.0714e-05
2.69925e-06
-8.58571e-06
1.11533e-06
-4.71644e-06
-5.22204e-06
1.93088e-06
-8.11258e-06
3.81134e-06
-7.2329e-06
5.14898e-06
-8.99181e-06
6.69519e-06
-9.31492e-06
7.9699e-06
-7.98288e-06
9.15691e-06
-9.44369e-06
8.51404e-06
-8.38451e-06
9.47321e-06
-1.07181e-06
9.80113e-06
7.16469e-06
5.08961e-06
1.28204e-05
1.29124e-06
1.35154e-05
-1.93305e-07
9.77686e-06
-1.31896e-06
7.7096e-06
-2.31508e-06
7.32243e-06
-3.769e-06
7.68898e-06
-5.78582e-06
9.24586e-06
-8.18401e-06
1.19807e-05
-1.18131e-05
1.41106e-05
-1.69126e-05
1.51072e-05
-2.19284e-05
9.68213e-06
-2.37118e-05
-2.93091e-07
-2.17967e-05
-6.39014e-06
-1.80667e-05
-7.91794e-06
-1.43147e-05
-6.58966e-06
-1.07777e-05
-7.20198e-06
-5.8604e-06
-8.58599e-06
-1.33335e-06
-5.54065e-06
8.8119e-07
-1.03337e-06
1.14498e-07
1.16274e-06
-6.28903e-07
1.46195e-06
-4.57148e-06
3.56165e-06
-3.81217e-06
6.65679e-06
-6.16998e-06
1.03022e-05
-6.19533e-06
1.31284e-05
-5.42545e-06
1.61952e-05
-8.22424e-06
1.56179e-05
-9.6662e-06
1.27698e-05
-2.16352e-06
1.22155e-05
8.39856e-06
9.5251e-06
1.56224e-05
2.33494e-06
2.12006e-05
-2.5385e-06
1.84521e-05
-2.88955e-06
1.35049e-05
-2.98537e-06
1.23385e-05
-3.65181e-06
1.2913e-05
-4.44007e-06
1.45867e-05
-6.46072e-06
1.73603e-05
-9.23062e-06
2.0881e-05
-1.38142e-05
1.98693e-05
-2.14102e-05
1.44571e-05
-2.50559e-05
3.05714e-06
-2.40469e-05
-2.98248e-06
-2.22437e-05
-4.31371e-06
-2.02543e-05
-3.55091e-06
-1.7337e-05
-5.43997e-06
-1.22489e-05
-7.14148e-06
-5.88921e-06
-2.75665e-06
-1.863e-06
5.2578e-06
-1.07752e-06
7.79994e-06
4.88559e-06
1.95361e-06
3.61675e-07
5.46489e-06
7.3551e-07
1.03606e-05
-2.15641e-06
1.4763e-05
-1.09117e-06
1.78998e-05
-5.52748e-07
2.08817e-05
-4.52472e-06
1.9825e-05
-9.04868e-06
1.4292e-05
-3.90076e-06
1.10984e-05
8.86823e-06
9.39742e-06
1.8319e-05
3.85182e-06
2.58539e-05
-2.70314e-06
2.6725e-05
-4.73179e-06
2.08454e-05
-4.1353e-06
1.72988e-05
-3.60697e-06
1.67789e-05
-2.70528e-06
1.78755e-05
-2.8976e-06
2.03046e-05
-3.94953e-06
2.34416e-05
-5.98481e-06
2.20161e-05
-1.40087e-05
2.03317e-05
-1.97311e-05
9.7223e-06
-2.11635e-05
-1.55126e-06
-2.34748e-05
-5.52864e-06
-2.44568e-05
-6.92484e-06
-2.33349e-05
-9.71364e-06
-1.90955e-05
-1.10837e-05
-1.21059e-05
-6.10585e-06
-6.14488e-06
5.61158e-06
-2.42798e-06
1.19446e-05
1.01058e-05
3.35553e-06
2.23446e-06
8.79671e-06
1.1554e-06
1.46227e-05
-1.82149e-06
1.90538e-05
-2.60504e-06
2.18204e-05
-5.77619e-06
2.29034e-05
-1.13864e-05
2.09211e-05
-1.53082e-05
1.39221e-05
-1.20888e-05
8.07923e-06
4.36042e-06
6.10728e-06
2.02695e-05
3.70975e-06
2.7588e-05
-4.97823e-07
2.95455e-05
-3.65761e-06
2.58041e-05
-3.96231e-06
2.12499e-05
-2.73417e-06
1.8795e-05
-4.30169e-07
1.85195e-05
1.09069e-06
2.01817e-05
1.00121e-06
2.23964e-05
1.85935e-07
2.25802e-05
-4.90682e-06
2.34053e-05
-1.03157e-05
1.33326e-05
-1.49336e-05
-4.82917e-06
-2.05489e-05
-1.30081e-05
-2.36259e-05
-1.79021e-05
-2.45996e-05
-2.09547e-05
-2.30689e-05
-2.19644e-05
-1.7499e-05
-1.8389e-05
-1.00343e-05
-7.63399e-06
-3.49539e-06
3.97617e-06
7.88174e-06
5.76073e-06
-3.8748e-06
1.28151e-05
-7.67605e-06
1.78758e-05
-1.26729e-05
2.07018e-05
-1.67817e-05
2.08014e-05
-2.12668e-05
1.84904e-05
-2.43649e-05
1.52935e-05
-2.43709e-05
1.10304e-05
-2.11654e-05
5.94363e-06
-9.21177e-06
3.19954e-06
1.23382e-05
2.40784e-06
2.72943e-05
1.25256e-06
2.94006e-05
-1.33093e-07
2.67305e-05
-6.02986e-07
2.25913e-05
2.88927e-07
1.90394e-05
1.99464e-06
1.76099e-05
2.91008e-06
1.84764e-05
2.85155e-06
2.04848e-05
2.51826e-06
2.16997e-05
-3.64755e-07
2.26758e-05
-6.23676e-06
1.04926e-05
-1.38546e-05
-8.53752e-06
-1.91927e-05
-1.76521e-05
-2.00738e-05
-2.56429e-05
-2.02779e-05
-3.06311e-05
-1.96991e-05
-3.23687e-05
-1.68868e-05
-3.14473e-05
-1.15488e-05
-2.62702e-05
-4.16489e-06
-1.6734e-05
-8.1912e-06
6.11577e-06
-1.89277e-05
9.87206e-06
-2.37504e-05
1.01364e-05
-2.85632e-05
1.03347e-05
-3.15188e-05
1.06697e-05
-3.12646e-05
1.00532e-05
-2.88607e-05
8.6647e-06
-2.7161e-05
8.38981e-06
-2.45087e-05
8.74129e-06
-2.01061e-05
6.79402e-06
-6.49308e-06
5.08653e-06
1.28502e-05
4.54817e-06
2.15692e-05
3.51711e-06
2.35811e-05
3.09492e-06
2.14424e-05
3.27281e-06
1.83983e-05
3.52315e-06
1.6353e-05
3.45896e-06
1.63803e-05
3.01505e-06
1.80859e-05
2.50288e-06
1.98692e-05
-1.45376e-06
1.92037e-05
-9.46899e-06
5.54976e-06
-1.61676e-05
-9.64538e-06
-1.83978e-05
-1.76914e-05
-1.74515e-05
-2.54306e-05
-1.67817e-05
-3.1281e-05
-1.55401e-05
-3.52441e-05
-1.28632e-05
-3.73282e-05
-9.44292e-06
-3.65425e-05
-4.31295e-06
-3.25001e-05
-2.4923e-05
1.92107e-06
-3.12252e-05
2.88336e-06
-3.43491e-05
2.79982e-06
-3.33584e-05
2.13044e-06
-3.26082e-05
2.12654e-06
-3.02726e-05
3.86764e-06
-2.77827e-05
5.55764e-06
-2.70396e-05
6.68805e-06
-2.53661e-05
9.91592e-06
-2.23394e-05
1.32377e-05
-1.73438e-05
1.362e-05
-8.00886e-06
1.19241e-05
1.19644e-06
9.49692e-06
6.44649e-06
7.45759e-06
7.68864e-06
6.14807e-06
1.32681e-05
4.91601e-06
1.22821e-05
3.72039e-06
1.22789e-05
2.77656e-06
1.41074e-05
1.08696e-06
1.65925e-05
-6.66831e-06
1.09951e-05
-1.49747e-05
3.22969e-06
-1.83957e-05
-6.66249e-06
-1.8218e-05
-1.36828e-05
-1.49471e-05
-2.01909e-05
-1.23088e-05
-2.63716e-05
-1.07483e-05
-3.21563e-05
-9.29381e-06
-3.5687e-05
-7.18555e-06
-3.67771e-05
-4.15252e-06
-3.5946e-05
-2.96712e-05
-1.01288e-06
-3.16261e-05
-1.75994e-06
-3.20015e-05
-2.50128e-06
-2.94905e-05
-1.64919e-06
-2.78229e-05
2.44373e-07
-2.63934e-05
2.44678e-06
-2.52825e-05
4.107e-06
-2.43871e-05
5.20669e-06
-2.35598e-05
7.71861e-06
-2.16951e-05
1.19213e-05
-1.86327e-05
1.5999e-05
-1.58081e-05
1.84846e-05
-1.2612e-05
1.84002e-05
-1.042e-05
1.52496e-05
-9.34061e-06
1.13047e-05
-2.75391e-06
8.08187e-06
-2.04895e-06
4.74262e-06
-5.18932e-07
1.94701e-06
2.27553e-06
-3.50484e-06
5.09353e-06
-1.04495e-05
3.27451e-06
-1.41482e-05
3.29515e-06
-1.52791e-05
-1.73638e-06
-1.41268e-05
-7.6124e-06
-1.11384e-05
-1.42499e-05
-8.7502e-06
-2.15825e-05
-7.4982e-06
-2.7906e-05
-5.61066e-06
-3.15724e-05
-3.3381e-06
-3.29666e-05
-1.18741e-06
-3.2495e-05
-2.59723e-05
-1.26674e-06
-2.56746e-05
-1.46201e-06
-2.50281e-05
-1.11042e-06
-2.48404e-05
-1.25319e-07
-2.36669e-05
1.30478e-06
-2.21356e-05
1.98646e-06
-2.06119e-05
1.44783e-06
-1.95261e-05
1.66331e-06
-1.98221e-05
3.60889e-06
-1.97946e-05
6.3798e-06
-1.88575e-05
1.02583e-05
-1.59727e-05
1.48431e-05
-1.38508e-05
1.7598e-05
-1.2639e-05
1.79809e-05
-1.25024e-05
1.67477e-05
-1.28683e-05
1.44077e-05
-1.29242e-05
1.08435e-05
-1.17314e-05
6.90495e-06
-9.24408e-06
2.22374e-06
-5.28915e-06
-3.37045e-06
7.2374e-07
-8.4545e-06
3.7345e-06
-1.10712e-05
1.46256e-06
-1.05992e-05
-3.06122e-06
-7.68301e-06
-9.76926e-06
-4.45842e-06
-1.71115e-05
-2.88382e-06
-2.39955e-05
-1.59192e-06
-2.82078e-05
-2.16465e-08
-2.9441e-05
3.33223e-06
-2.69388e-05
-1.72286e-05
2.33228e-07
-2.01614e-05
1.29132e-06
-2.01261e-05
1.80658e-06
-1.97745e-05
2.44284e-06
-1.85164e-05
2.78379e-06
-1.66297e-05
2.46945e-06
-1.50754e-05
9.63433e-07
-1.44713e-05
-1.04079e-06
-1.51597e-05
-1.50381e-06
-1.70152e-05
7.61353e-07
-1.76892e-05
4.30504e-06
-1.50791e-05
9.08491e-06
-1.23448e-05
1.32786e-05
-1.02291e-05
1.46102e-05
-9.88594e-06
1.52664e-05
-1.113e-05
1.56034e-05
-1.17686e-05
1.50412e-05
-1.08656e-05
1.33672e-05
-9.01532e-06
1.04438e-05
-5.0392e-06
6.01739e-06
4.35056e-07
5.79204e-07
4.58407e-06
-4.12332e-06
2.86407e-06
-6.05947e-06
-6.82097e-08
-3.65158e-06
-6.39253e-06
2.67091e-08
-1.32371e-05
1.48361e-06
-2.06751e-05
2.43921e-06
-2.5019e-05
3.13124e-06
-2.4802e-05
6.36824e-06
-1.91591e-05
-8.71909e-06
-6.60397e-07
-1.49054e-05
8.70746e-07
-1.52231e-05
1.85317e-06
-1.4237e-05
2.80225e-06
-1.30313e-05
3.62969e-06
-1.16596e-05
3.51632e-06
-1.02775e-05
1.8036e-06
-9.34422e-06
-1.85376e-06
-9.64851e-06
-5.11411e-06
-1.2163e-05
-4.74872e-06
-1.4819e-05
-1.29013e-06
-1.38611e-05
4.22526e-06
-1.04398e-05
8.8982e-06
-8.01025e-06
1.13842e-05
-8.15354e-06
1.36658e-05
-9.6268e-06
1.5836e-05
-9.23584e-06
1.69728e-05
-7.45531e-06
1.65998e-05
-5.24556e-06
1.60852e-05
-2.0195e-06
1.41671e-05
1.44536e-06
1.04465e-05
5.00017e-06
5.19422e-06
4.03007e-06
-8.77732e-08
1.51592e-06
2.95782e-07
-4.3016e-06
3.9967e-06
-1.10071e-05
5.01388e-06
-1.85172e-05
4.55372e-06
-2.12417e-05
3.77085e-06
-1.854e-05
3.08757e-06
-1.19292e-05
-4.6062e-06
-7.93943e-07
-9.69035e-06
7.1214e-07
-1.06783e-05
1.62867e-06
-1.01424e-05
2.48595e-06
-9.08685e-06
3.05947e-06
-7.83361e-06
2.95e-06
-6.58304e-06
1.79521e-06
-5.50474e-06
-7.80163e-07
-4.97904e-06
-5.43213e-06
-6.08846e-06
-8.9182e-06
-1.00385e-05
-6.78283e-06
-1.16094e-05
-6.85419e-07
-9.32612e-06
4.98355e-06
-6.99089e-06
8.86695e-06
-7.56993e-06
1.22246e-05
-8.57325e-06
1.53441e-05
-6.9757e-06
1.79065e-05
-4.49508e-06
1.9429e-05
-1.71662e-06
2.01985e-05
1.1883e-06
1.99505e-05
3.97308e-06
1.83231e-05
6.45551e-06
1.44869e-05
6.3351e-06
7.81262e-06
3.68067e-06
5.24031e-06
-2.51539e-06
6.91125e-06
-1.03381e-05
6.16292e-06
-1.68163e-05
4.35394e-06
-1.72247e-05
3.1634e-06
-1.39691e-05
1.84717e-06
-9.14511e-06
-3.38001e-06
-8.80931e-07
-5.81739e-06
5.95159e-07
-7.63228e-06
1.34829e-06
-7.39852e-06
1.99159e-06
-6.54573e-06
2.3686e-06
-5.39723e-06
2.31506e-06
-4.08286e-06
1.5893e-06
-2.69485e-06
4.67381e-09
-1.45482e-06
-3.53362e-06
-9.64123e-07
-9.04509e-06
-3.09859e-06
-1.11357e-05
-7.22231e-06
-5.85946e-06
-7.61961e-06
1.51007e-06
-6.65218e-06
6.13047e-06
-6.42016e-06
1.00103e-05
-5.88252e-06
1.44252e-05
-3.77319e-06
1.81291e-05
2.33659e-07
2.06738e-05
4.25138e-06
2.17906e-05
7.05921e-06
2.22306e-05
9.1631e-06
2.22145e-05
1.08514e-05
2.01772e-05
1.08949e-05
1.40739e-05
8.32245e-06
9.54238e-06
-9.3235e-07
8.14962e-06
-1.03069e-05
5.76374e-06
-1.51797e-05
4.12338e-06
-1.45843e-05
3.07032e-06
-1.22392e-05
1.74426e-06
-8.47594e-06
-3.17494e-06
-5.02667e-07
-3.29362e-06
3.5261e-07
-5.36537e-06
8.10938e-07
-5.52657e-06
1.24372e-06
-4.84749e-06
1.49506e-06
-3.71539e-06
1.50967e-06
-2.29102e-06
1.15745e-06
-6.61921e-07
2.24487e-07
1.06059e-06
-1.66581e-06
2.55842e-06
-6.48466e-06
2.97396e-06
-1.1961e-05
-3.77392e-07
-1.00987e-05
-3.33522e-06
-2.37482e-06
-3.82163e-06
3.28109e-06
-2.69259e-06
7.39227e-06
-1.35283e-07
1.20452e-05
3.5428e-06
1.61549e-05
9.31219e-06
1.95869e-05
1.42569e-05
2.1431e-05
1.715e-05
2.24673e-05
1.85652e-05
2.31262e-05
1.97709e-05
2.20188e-05
1.91313e-05
1.60275e-05
1.44797e-05
1.09954e-05
-3.83995e-07
9.14135e-06
-9.95628e-06
6.09878e-06
-1.4012e-05
4.33035e-06
-1.32709e-05
3.21611e-06
-1.16046e-05
1.56964e-06
-8.50646e-06
-2.8831e-06
-1.18742e-07
-2.00838e-06
1.62639e-07
-3.75768e-06
3.49221e-07
-4.07437e-06
5.30423e-07
-3.48616e-06
6.03511e-07
-2.35249e-06
5.40696e-07
-8.57743e-07
3.05705e-07
8.92039e-07
-2.32977e-07
2.8378e-06
-1.22007e-06
4.83428e-06
-3.45098e-06
6.50985e-06
-9.35104e-06
6.46335e-06
-1.2813e-05
3.39201e-06
-7.19925e-06
2.00742e-06
-8.22306e-07
3.70927e-06
3.30438e-06
8.50222e-06
8.24094e-06
1.39089e-05
1.29183e-05
1.99379e-05
1.72277e-05
2.54213e-05
1.9802e-05
2.92151e-05
2.10555e-05
3.1044e-05
2.23989e-05
3.21916e-05
2.06858e-05
3.01382e-05
1.35488e-05
1.6582e-05
9.92859e-06
-3.22768e-07
9.90331e-06
-9.17582e-06
7.18928e-06
-1.31405e-05
5.05005e-06
-1.2717e-05
3.61543e-06
-1.16791e-05
1.32258e-06
-9.45094e-06
-2.14894e-06
2.98254e-08
-1.32365e-06
2.67255e-08
-2.63853e-06
-2.4521e-08
-2.89561e-06
-1.06802e-07
-2.32471e-06
-2.78966e-07
-1.18443e-06
-5.69182e-07
3.60508e-07
-9.76019e-07
2.1895e-06
-1.63199e-06
4.25816e-06
-2.61565e-06
6.48132e-06
-3.9228e-06
8.54133e-06
-6.91397e-06
9.93415e-06
-1.17473e-05
9.34686e-06
-1.05729e-05
7.43814e-06
-4.89579e-06
9.75538e-06
-7.72665e-07
1.54703e-05
3.90916e-06
2.1153e-05
8.79072e-06
2.75587e-05
1.34135e-05
3.46818e-05
1.60695e-05
4.0262e-05
1.75025e-05
4.3098e-05
1.96566e-05
4.35007e-05
1.69992e-05
3.88177e-05
1.07871e-05
1.45496e-05
9.42027e-06
-8.39487e-08
1.01273e-05
-8.16066e-06
8.80568e-06
-1.24339e-05
6.83213e-06
-1.30949e-05
5.17939e-06
-1.19555e-05
1.60802e-06
-1.29313e-05
-1.29816e-05
5.20299e-08
-8.80056e-07
-8.95104e-08
-1.80793e-06
-3.06232e-07
-1.93371e-06
-5.88305e-07
-1.34622e-06
-1.0362e-06
-1.78671e-07
-1.6836e-06
1.43676e-06
-2.45912e-06
3.36534e-06
-3.53434e-06
5.54719e-06
-5.03353e-06
7.95046e-06
-6.53822e-06
9.98698e-06
-7.949e-06
1.1259e-05
-1.07356e-05
1.15477e-05
-1.12951e-05
1.0712e-05
-8.54459e-06
1.16508e-05
-5.77059e-06
1.35573e-05
-3.0301e-06
1.82285e-05
7.26094e-07
2.75868e-05
5.39443e-06
3.79503e-05
8.69916e-06
4.61013e-05
1.10841e-05
4.94215e-05
1.3566e-05
4.83964e-05
1.37749e-05
4.07388e-05
1.22962e-05
1.11865e-05
1.16771e-05
-7.44848e-07
1.10413e-05
-7.77265e-06
1.03806e-05
-1.22831e-05
9.46594e-06
-1.37884e-05
4.74173e-06
-1.50826e-05
1.33802e-09
-1.88427e-05
-2.12695e-05
2.79892e-08
-6.0606e-07
-1.46225e-07
-1.19868e-06
-3.80511e-07
-1.2092e-06
-7.04125e-07
-6.18922e-07
-1.41676e-06
5.4143e-07
-2.60434e-06
2.3337e-06
-4.03865e-06
4.55754e-06
-5.81768e-06
6.97419e-06
-7.9112e-06
9.60213e-06
-9.67964e-06
1.12368e-05
-1.07258e-05
1.1911e-05
-1.12505e-05
1.19172e-05
-1.10888e-05
1.12906e-05
-1.18301e-05
6.37738e-06
-1.43533e-05
-1.31436e-07
-1.41334e-05
3.67948e-06
-1.0101e-05
1.49013e-05
-4.3197e-06
2.8667e-05
7.88915e-07
4.15151e-05
4.74037e-06
4.57011e-05
9.72168e-06
4.22904e-05
1.28017e-05
3.01054e-05
1.38876e-05
-1.71181e-06
1.31769e-05
-1.0048e-05
1.06184e-05
-1.04571e-05
9.31369e-06
-1.3736e-05
6.87922e-06
-1.51059e-05
1.10374e-06
-1.75653e-05
-1.3231e-06
-1.82375e-05
-1.79415e-05
5.8631e-08
-4.67517e-07
-6.46676e-08
-8.22612e-07
-1.36922e-07
-7.66686e-07
-3.10554e-07
-2.93253e-07
-1.07308e-06
8.37782e-07
-3.03352e-06
2.90032e-06
-5.94196e-06
5.46398e-06
-9.30004e-06
8.20827e-06
-1.18912e-05
1.09128e-05
-1.30326e-05
1.18658e-05
-1.30587e-05
1.18754e-05
-1.21733e-05
1.1401e-05
-1.23203e-05
8.37393e-06
-1.80664e-05
-7.36978e-06
-2.36763e-05
-1.34002e-05
-2.34131e-05
-1.01136e-05
-1.95322e-05
-1.82365e-06
-1.23134e-05
1.00331e-05
-5.1698e-06
2.33387e-05
1.74992e-07
2.75657e-05
6.38801e-06
2.10238e-05
8.5166e-06
6.08989e-06
6.34625e-06
-1.65684e-05
6.81799e-06
-2.03579e-05
6.87487e-06
-1.71123e-05
4.17203e-06
-1.64089e-05
-5.97593e-08
-1.60399e-05
-2.14707e-06
-1.57291e-05
-1.04869e-06
-1.46661e-05
-1.42206e-05
1.99717e-07
-4.32199e-07
1.54536e-07
-8.21257e-07
3.81338e-07
-6.65569e-07
7.51818e-07
-3.55635e-07
8.62295e-07
3.19215e-07
-2.22887e-06
-1.17989e-05
-9.08669e-06
-1.00281e-05
-1.57783e-05
-2.1455e-07
-1.78678e-05
1.81489e-06
-1.67491e-05
5.60618e-06
-1.52951e-05
9.19012e-06
-1.37606e-05
7.4918e-06
-1.90587e-05
-3.87778e-06
-2.4832e-05
-1.56146e-05
-2.44656e-05
-1.58275e-05
-2.34289e-05
-1.39341e-05
-2.14068e-05
-9.92285e-06
-1.71549e-05
-4.08155e-06
-1.11459e-05
3.03289e-06
-4.40076e-06
5.13878e-06
1.30603e-06
-1.18483e-06
3.73968e-06
-1.20097e-05
4.79735e-06
-1.92696e-05
5.07666e-06
-1.94021e-05
3.2769e-06
-1.77081e-05
5.62141e-07
-1.55183e-05
-1.23426e-06
-1.37936e-05
-1.49753e-06
-1.25664e-05
-7.00697e-07
-1.159e-05
-1.0877e-05
4.13889e-07
-8.1056e-07
3.62986e-07
-3.97546e-06
9.44191e-07
-1.41192e-06
2.04489e-06
-1.58624e-06
3.14677e-08
-1.04406e-05
-1.94187e-06
-2.46814e-05
-1.62483e-06
-2.49362e-05
-6.53008e-06
-9.68364e-06
-1.37829e-05
-9.17442e-06
-1.70526e-05
-6.09328e-06
-1.89014e-05
-3.3009e-06
-2.34122e-05
-4.68518e-06
-2.67251e-05
-1.24283e-05
-2.46336e-05
-1.31917e-05
-2.23182e-05
-1.30386e-05
-2.07076e-05
-1.1832e-05
-1.91664e-05
-9.71326e-06
-1.67139e-05
-7.627e-06
-1.21872e-05
-5.78839e-06
-5.25228e-06
-5.66829e-06
5.36281e-07
-9.38795e-06
3.72608e-06
-1.4281e-05
5.45154e-06
-1.53545e-05
5.08359e-06
-1.3858e-05
3.50112e-06
-1.20576e-05
1.50644e-06
-1.1148e-05
-7.834e-08
-1.04943e-05
-7.05316e-07
-9.89925e-06
-3.20034e-07
-9.22052e-06
-8.29904e-06
4.55285e-07
-3.82316e-06
-9.95061e-08
-9.4995e-06
8.67558e-07
-6.47619e-06
-9.4249e-07
-8.38971e-06
-4.56324e-06
-1.76811e-05
-5.0654e-06
-2.04038e-05
-3.63093e-06
-2.19031e-05
1.75299e-07
-1.2315e-05
1.12063e-06
-6.88645e-06
-3.28389e-06
-6.70353e-06
-1.09845e-05
-9.08774e-06
-1.96466e-05
-1.07898e-05
-2.33935e-05
-9.59855e-06
-2.2323e-05
-9.22276e-06
-2.00013e-05
-9.50847e-06
-1.80665e-05
-8.14468e-06
-1.63981e-05
-6.24912e-06
-1.39008e-05
-5.03661e-06
-8.7908e-06
-5.34583e-06
-1.96445e-06
-6.00903e-06
3.31026e-06
-8.13943e-06
5.48761e-06
-1.0245e-05
5.38672e-06
-9.75426e-06
5.04291e-06
-7.95912e-06
4.21315e-06
-7.18082e-06
2.40234e-06
-7.2034e-06
8.00346e-07
-7.43036e-06
-7.26931e-08
-7.58189e-06
-3.8303e-08
-7.34371e-06
-6.38859e-06
-3.43792e-07
-6.25503e-06
-1.68068e-06
-1.02663e-05
-2.66298e-06
-1.03689e-05
-4.09458e-06
-1.20751e-05
-5.8318e-06
-1.30351e-05
-6.55807e-06
-1.48566e-05
-6.61796e-06
-1.6468e-05
-2.94737e-08
-1.40323e-05
6.53131e-06
1.07932e-06
5.4031e-06
1.84917e-06
5.99077e-07
-8.12817e-07
-8.58423e-06
-5.50043e-06
-1.61554e-05
-5.88102e-06
-1.80322e-05
-4.74714e-06
-1.69417e-05
-5.00178e-06
-1.54725e-05
-3.90173e-06
-1.39974e-05
-1.96836e-06
-1.115e-05
-1.31576e-06
-4.65885e-06
-1.615e-06
2.52831e-06
-1.36369e-06
5.3582e-06
-3.5426e-06
5.23378e-06
-4.79392e-06
5.44408e-06
-3.5463e-06
5.52909e-06
-2.59509e-06
4.19514e-06
-2.84771e-06
2.39684e-06
-3.76121e-06
9.91754e-07
-4.73988e-06
1.50467e-07
-5.51629e-06
4.71253e-08
-5.71479e-06
-4.88477e-06
-1.46652e-06
-4.67037e-06
-1.68907e-06
-7.44289e-06
-2.56697e-06
-8.60902e-06
-3.71641e-06
-8.95444e-06
-5.35911e-06
-9.04103e-06
-6.68078e-06
-9.62595e-06
-6.9316e-06
-1.12146e-05
-4.48887e-07
-1.09017e-05
6.44299e-06
7.9529e-06
7.48927e-06
9.15065e-06
6.70326e-06
6.70832e-06
1.85882e-06
9.99929e-07
-6.05137e-06
-1.10646e-06
-1.16456e-05
-4.52003e-08
-1.29099e-05
8.45175e-07
-1.32433e-05
1.52617e-06
-1.22002e-05
1.66474e-06
-6.46074e-06
2.67753e-06
8.48272e-07
4.67597e-06
4.12285e-06
4.02682e-06
4.54869e-06
1.92993e-06
5.19819e-06
1.69877e-06
5.47177e-06
2.22157e-06
4.48284e-06
1.74738e-06
2.97609e-06
4.71524e-07
1.60723e-06
-1.09092e-06
6.39931e-07
-2.54256e-06
4.75695e-08
-3.71206e-06
9.46417e-09
-4.24711e-06
-3.59307e-06
-1.05925e-06
-2.67425e-06
-1.42154e-06
-5.13874e-06
-1.97905e-06
-6.40177e-06
-2.59641e-06
-6.67014e-06
-3.79632e-06
-6.21182e-06
-5.6185e-06
-5.48296e-06
-7.14336e-06
-5.35881e-06
-4.76154e-06
-4.07221e-06
2.03743e-06
1.14405e-05
7.52584e-06
1.45195e-05
9.9159e-06
1.22755e-05
8.81149e-06
7.97228e-06
3.38134e-06
4.76419e-06
-3.1258e-06
5.22382e-06
-8.63943e-06
6.10642e-06
-1.03097e-05
5.87171e-06
-6.52839e-06
6.60458e-06
-6.07694e-07
9.76406e-06
2.31879e-06
1.15196e-05
3.24952e-06
1.00746e-05
4.18264e-06
8.43982e-06
3.67354e-06
7.51906e-06
2.70951e-06
6.31077e-06
1.74382e-06
4.56951e-06
9.0631e-07
2.63744e-06
3.18483e-07
7.11628e-07
-2.08888e-08
-9.95743e-07
-2.20395e-07
-2.34542e-06
-5.08864e-08
-3.03156e-06
-2.47377e-06
-6.15975e-07
-1.64568e-06
-1.06719e-06
-3.64018e-06
-1.41561e-06
-4.8055e-06
-1.66499e-06
-5.05923e-06
-2.17462e-06
-4.35808e-06
-3.3796e-06
-2.88542e-06
-5.8759e-06
-1.03344e-06
-7.92184e-06
1.5361e-06
-1.66659e-06
1.3069e-05
7.07309e-06
1.88805e-05
1.11382e-05
1.70211e-05
1.25364e-05
1.47429e-05
9.9944e-06
1.16402e-05
3.63655e-06
1.064e-05
-1.76493e-06
1.13426e-05
-1.50012e-06
1.33723e-05
9.0252e-07
1.6499e-05
1.53493e-06
1.91214e-05
2.14761e-06
1.86608e-05
2.70435e-06
1.70606e-05
1.58581e-06
1.40941e-05
7.02341e-07
1.13741e-05
1.10241e-07
8.82731e-06
-3.89287e-07
6.40163e-06
-7.06275e-07
4.07874e-06
-7.99866e-07
1.92364e-06
-6.8188e-07
4.49943e-08
-4.92149e-07
-1.42193e-06
-1.17803e-07
-2.16083e-06
-1.62851e-06
-5.1029e-07
-1.11217e-06
-9.89207e-07
-2.74113e-06
-1.24699e-06
-3.7479e-06
-1.30084e-06
-3.95284e-06
-1.37321e-06
-3.10655e-06
-1.72123e-06
-1.30096e-06
-2.97605e-06
1.3266e-06
-6.93543e-06
4.91725e-06
-3.40779e-06
1.44495e-05
5.82553e-06
2.39769e-05
1.1245e-05
2.23192e-05
1.43603e-05
2.21374e-05
1.33786e-05
1.8032e-05
1.11583e-05
1.73503e-05
8.87984e-06
1.99043e-05
5.85965e-06
2.44282e-05
3.27706e-06
2.65765e-05
1.97479e-06
2.66099e-05
1.81352e-06
2.54848e-05
1.29606e-06
2.25611e-05
2.22551e-07
1.82107e-05
-6.11724e-07
1.40041e-05
-1.20908e-06
1.05708e-05
-1.55763e-06
7.66051e-06
-1.66846e-06
5.07573e-06
-1.55927e-06
2.77596e-06
-1.25532e-06
7.95185e-07
-8.55481e-07
-7.55198e-07
-3.46511e-07
-1.55216e-06
-1.10118e-06
-5.70341e-07
-8.11538e-07
-1.07356e-06
-2.15327e-06
-1.35303e-06
-3.05116e-06
-1.44004e-06
-3.22907e-06
-1.45616e-06
-2.20031e-06
-1.55362e-06
-1.64367e-07
-1.74433e-06
2.7559e-06
-4.38244e-06
6.59913e-06
-3.50122e-06
1.40456e-05
3.49421e-06
3.01527e-05
9.39975e-06
2.88813e-05
1.37256e-05
2.81895e-05
1.70028e-05
2.56593e-05
1.6116e-05
2.69982e-05
7.82609e-06
3.10749e-05
-1.46011e-06
3.38032e-05
-5.18424e-06
3.34061e-05
-4.14998e-06
3.14486e-05
-1.3681e-06
2.89621e-05
-8.80166e-08
2.58294e-05
-5.25764e-07
2.1213e-05
-1.46954e-06
1.59275e-05
-2.06233e-06
1.1755e-05
-2.30789e-06
8.4733e-06
-2.30292e-06
5.70784e-06
-2.09722e-06
3.32419e-06
-1.72136e-06
1.30523e-06
-1.22071e-06
-2.7459e-07
-5.92749e-07
-1.11892e-06
-8.07672e-07
-5.9731e-07
-6.91498e-07
-1.07268e-06
-1.77101e-06
-1.46713e-06
-2.70443e-06
-1.84625e-06
-3.05867e-06
-2.20396e-06
-1.67113e-06
-2.49588e-06
7.71263e-07
-2.55053e-06
4.06892e-06
-2.88427e-06
7.7019e-06
-3.95288e-06
1.32535e-05
6.07619e-07
3.4798e-05
7.58839e-06
3.47901e-05
1.50417e-05
3.32632e-05
1.82918e-05
3.64892e-05
8.00624e-06
3.94608e-05
-3.56767e-06
4.21612e-05
-7.96382e-06
4.15158e-05
-8.92919e-06
3.83091e-05
-8.00722e-06
3.42415e-05
-6.00378e-06
3.01312e-05
-3.83067e-06
2.63232e-05
-2.68606e-06
2.21635e-05
-2.68755e-06
1.71107e-05
-2.90975e-06
1.24946e-05
-2.93724e-06
8.90466e-06
-2.77403e-06
6.02637e-06
-2.46977e-06
3.62933e-06
-2.04019e-06
1.63696e-06
-1.4733e-06
7.28937e-08
-7.56269e-07
-8.0205e-07
-6.38191e-07
-4.8199e-07
-9.94168e-07
-8.38687e-07
-1.54577e-06
-1.35013e-06
-2.74079e-06
-2.19594e-06
-3.82613e-06
-3.26555e-06
-2.7017e-06
-4.08835e-06
1.24204e-07
-4.66145e-06
4.01579e-06
-5.32611e-06
7.39259e-06
-5.73868e-06
1.1788e-05
-2.85006e-07
3.58525e-05
9.08857e-06
3.89032e-05
1.33138e-05
4.29327e-05
7.49582e-06
4.74759e-05
-1.19542e-06
4.995e-05
-5.69636e-06
4.85819e-05
-8.37423e-06
4.48001e-05
-1.00484e-05
3.99466e-05
-1.06408e-05
3.48726e-05
-1.01963e-05
2.99872e-05
-8.84795e-06
2.56028e-05
-6.81959e-06
2.15443e-05
-4.99873e-06
1.715e-05
-4.03188e-06
1.26728e-05
-3.51912e-06
8.98744e-06
-3.09157e-06
6.10554e-06
-2.66156e-06
3.78726e-06
-2.18975e-06
1.89519e-06
-1.59874e-06
3.93268e-07
-8.49194e-07
-4.99445e-07
-5.00247e-07
2.76898e-08
-2.02996e-06
-2.58615e-07
-5.01185e-06
-5.95234e-07
-3.23339e-06
-1.6568e-06
-7.98932e-06
-3.69671e-06
-1.91467e-05
-4.59922e-06
-1.72295e-05
-4.17862e-06
-1.33133e-05
-1.29928e-06
-8.13902e-06
-1.6456e-06
4.12854e-06
2.45094e-06
3.45241e-05
1.05099e-05
4.4201e-05
9.15782e-06
5.20972e-05
3.98208e-06
5.45183e-05
-2.25402e-07
5.32839e-05
-2.72914e-06
5.04284e-05
-4.8816e-06
4.61472e-05
-6.63582e-06
4.10463e-05
-7.84099e-06
3.56112e-05
-8.40679e-06
3.03684e-05
-8.43218e-06
2.54742e-05
-7.90678e-06
2.09621e-05
-6.60848e-06
1.66847e-05
-5.0308e-06
1.25154e-05
-3.8774e-06
8.88822e-06
-3.13345e-06
6.09347e-06
-2.5915e-06
3.94095e-06
-2.12494e-06
2.21998e-06
-1.57741e-06
8.08744e-07
-8.7282e-07
-1.13474e-07
-3.23184e-07
1.78567e-06
-7.53025e-06
6.70353e-07
-1.95151e-05
-3.18984e-07
-1.94753e-05
-8.47072e-07
-2.34582e-05
1.19602e-06
-3.34429e-05
5.57652e-06
-3.22054e-05
1.06522e-05
-2.93306e-05
1.34785e-05
-2.31199e-05
6.95962e-06
-5.89966e-06
5.47061e-06
2.99026e-05
1.17569e-05
4.85399e-05
1.09231e-05
5.37309e-05
7.17828e-06
5.55856e-05
4.98294e-06
5.44303e-05
2.74064e-06
5.15652e-05
-9.73453e-09
4.75528e-05
-2.78369e-06
4.23031e-05
-4.64175e-06
3.63411e-05
-5.69329e-06
3.06967e-05
-6.09604e-06
2.56468e-05
-6.10895e-06
2.09257e-05
-5.69124e-06
1.65307e-05
-4.71846e-06
1.24343e-05
-3.5712e-06
8.85886e-06
-2.69596e-06
6.15442e-06
-2.13675e-06
4.21501e-06
-1.76944e-06
2.71997e-06
-1.35956e-06
1.39215e-06
-7.95794e-07
4.04508e-07
-7.00863e-08
1.76602e-07
-1.68277e-05
-1.03564e-06
-2.72393e-05
-2.45099e-06
-3.24079e-05
-1.05732e-06
-3.25291e-05
2.19661e-06
-3.1355e-05
6.3499e-06
-3.0026e-05
1.11793e-05
-2.78942e-05
1.68888e-05
-2.33225e-05
1.47923e-05
-1.05051e-05
1.50634e-05
2.89883e-05
1.83153e-05
4.66264e-05
1.54119e-05
5.2233e-05
1.30787e-05
5.47187e-05
1.09372e-05
5.44841e-05
8.80325e-06
5.26993e-05
5.15031e-06
5.00089e-05
1.01262e-06
4.52703e-05
-1.80649e-06
3.74371e-05
-3.1745e-06
3.08902e-05
-3.81576e-06
2.5621e-05
-3.94805e-06
2.09433e-05
-3.79044e-06
1.65369e-05
-3.30306e-06
1.2478e-05
-2.49341e-06
8.9599e-06
-1.7159e-06
6.32601e-06
-1.24404e-06
4.60747e-06
-1.10402e-06
3.3975e-06
-9.27429e-07
2.12204e-06
-5.89704e-07
1.02125e-06
2.52159e-07
-3.65778e-06
-1.67654e-05
2.63387e-06
-2.32903e-05
3.2833e-06
-2.81223e-05
4.06801e-06
-2.889e-05
6.06836e-06
-2.85897e-05
8.71921e-06
-2.7479e-05
1.26959e-05
-2.60308e-05
1.7266e-05
-2.25738e-05
1.97032e-05
-1.1871e-05
1.93179e-05
3.07324e-05
1.97722e-05
4.30927e-05
1.83546e-05
4.97567e-05
1.71721e-05
5.38529e-05
1.66995e-05
5.54303e-05
1.47432e-05
5.57374e-05
1.00079e-05
5.75707e-05
4.61497e-06
5.45143e-05
9.18394e-07
4.3534e-05
-1.22862e-06
3.15167e-05
-1.85797e-06
2.55065e-05
-2.06567e-06
2.06868e-05
-1.93716e-06
1.64936e-05
-1.63412e-06
1.24931e-05
-1.07073e-06
9.0688e-06
-4.07169e-07
6.49973e-06
2.64438e-09
4.95703e-06
-1.76739e-07
4.13436e-06
-3.05742e-07
2.88599e-06
-2.71867e-07
1.62094e-06
4.6105e-07
-4.06106e-06
-9.54427e-06
4.31283e-06
-2.10767e-05
7.98239e-06
-2.53197e-05
9.63624e-06
-2.61246e-05
1.08504e-05
-2.63157e-05
1.18555e-05
-2.59606e-05
1.41664e-05
-2.52759e-05
1.6965e-05
-2.30248e-05
1.98645e-05
-1.43583e-05
2.01794e-05
2.44629e-05
2.02102e-05
3.84854e-05
1.95564e-05
4.74712e-05
1.98555e-05
5.40097e-05
2.08009e-05
5.76841e-05
1.99722e-05
6.17969e-05
1.58983e-05
6.58448e-05
8.52315e-06
6.49199e-05
2.379e-06
5.54865e-05
2.78755e-07
3.72224e-05
-2.96927e-07
2.56826e-05
-2.59722e-07
2.04462e-05
-3.67959e-07
1.61631e-05
-1.76992e-07
1.23887e-05
2.34054e-07
9.07512e-06
8.69579e-07
6.53022e-06
1.39418e-06
5.00277e-06
1.03427e-06
4.55337e-06
5.41704e-07
3.54325e-06
-1.52692e-08
1.85642e-06
4.1049e-07
-2.79223e-06
-4.67693e-06
5.3984e-06
-2.16883e-05
1.10146e-05
-2.55409e-05
1.26098e-05
-2.52361e-05
1.29297e-05
-2.5228e-05
1.33096e-05
-2.52985e-05
1.44764e-05
-2.50223e-05
1.71596e-05
-2.37993e-05
2.35013e-05
-1.48169e-05
2.35266e-05
1.28537e-05
1.92469e-05
3.22695e-05
1.82866e-05
4.53713e-05
2.00052e-05
5.59218e-05
2.13897e-05
6.0414e-05
2.20345e-05
6.51418e-05
2.22659e-05
6.75502e-05
1.94861e-05
6.72412e-05
1.26406e-05
6.14423e-05
5.98915e-06
4.55598e-05
2.32902e-06
2.8879e-05
1.46723e-06
1.98735e-05
1.04704e-06
1.56093e-05
8.08434e-07
1.18011e-05
1.04673e-06
8.82258e-06
1.63343e-06
6.3447e-06
2.51155e-06
4.53529e-06
2.81218e-06
3.81297e-06
1.811e-06
2.99723e-06
7.43753e-08
-7.34322e-06
-8.68489e-07
9.28986e-07
-5.70919e-06
7.4853e-06
-2.42413e-05
1.38528e-05
-2.70386e-05
1.44177e-05
-2.54696e-05
1.406e-05
-2.48938e-05
1.37361e-05
-2.51457e-05
1.39522e-05
-2.50094e-05
1.7458e-05
-2.45766e-05
1.93537e-05
-1.84485e-05
1.63274e-05
9.09541e-07
1.31103e-05
2.72262e-05
1.35419e-05
4.03523e-05
1.65619e-05
4.97378e-05
2.00126e-05
5.72386e-05
2.19912e-05
6.03358e-05
2.49757e-05
6.16029e-05
2.70407e-05
6.02384e-05
2.58694e-05
5.5939e-05
1.91936e-05
4.59714e-05
8.80694e-06
2.5341e-05
2.76686e-06
7.39363e-06
1.69961e-06
1.48962e-05
1.28025e-06
1.07314e-05
1.2468e-06
8.12544e-06